MODEL 1
REMARK VINA RESULT:    -6.014      0.000      0.000
REMARK INTER + INTRA:         -10.722
REMARK INTER:                  -9.705
REMARK INTRA:                  -1.017
REMARK UNBOUND:                -1.017
REMARK SMILES CCCCCCCCC(=O)NCc1ccc(O)c(OC)c1
REMARK SMILES IDX 7 1 6 2 5 3 4 4 3 5 2 6 1 7 8 8 9 9 10 10 11 11 12 13 13 14
REMARK SMILES IDX 21 15 14 16 18 17 15 18 16 19 19 20 20 21 17 22
REMARK H PARENT 11 12 17 23
REMARK Flexibility Score: inf
ROOT
ATOM      1  C   UNL     1      91.162  94.301  76.615  1.00  0.00     0.010 C 
ENDROOT
BRANCH   1   2
ATOM      2  C   UNL     1      89.786  93.595  76.452  1.00  0.00     0.001 C 
BRANCH   2   3
ATOM      3  C   UNL     1      89.696  92.280  77.281  1.00  0.00     0.000 C 
BRANCH   3   4
ATOM      4  C   UNL     1      89.218  91.051  76.457  1.00  0.00    -0.000 C 
BRANCH   4   5
ATOM      5  C   UNL     1      90.384  90.335  75.717  1.00  0.00    -0.000 C 
BRANCH   5   6
ATOM      6  C   UNL     1      90.448  90.703  74.210  1.00  0.00    -0.003 C 
ATOM      7  C   UNL     1      91.782  91.373  73.813  1.00  0.00     0.004 C 
ENDBRANCH   5   6
ENDBRANCH   4   5
ENDBRANCH   3   4
ENDBRANCH   2   3
ENDBRANCH   1   2
BRANCH   1   8
ATOM      8  C   UNL     1      92.351  93.322  76.827  1.00  0.00     0.100 C 
BRANCH   8   9
ATOM      9  C   UNL     1      93.646  94.043  76.854  1.00  0.00     0.220 C 
ATOM     10  O   UNL     1      93.806  95.009  76.070  1.00  0.00    -0.275 OA
ATOM     11  N   UNL     1      94.625  93.678  77.733  1.00  0.00    -0.352 N 
ATOM     12  H   UNL     1      94.425  92.837  78.255  1.00  0.00     0.163 HD
BRANCH  11  13
ATOM     13  C   UNL     1      95.854  94.377  77.953  1.00  0.00     0.151 C 
BRANCH  13  14
ATOM     14  C   UNL     1      96.018  94.883  79.342  1.00  0.00    -0.025 A 
ATOM     15  C   UNL     1      96.658  96.123  79.578  1.00  0.00     0.056 A 
ATOM     16  C   UNL     1      95.546  94.137  80.447  1.00  0.00     0.009 A 
ATOM     17  C   UNL     1      96.805  96.625  80.891  1.00  0.00     0.160 A 
ATOM     18  C   UNL     1      95.689  94.631  81.756  1.00  0.00     0.050 A 
ATOM     19  C   UNL     1      96.324  95.868  81.983  1.00  0.00     0.157 A 
BRANCH  17  20
ATOM     20  O   UNL     1      97.463  97.807  81.121  1.00  0.00    -0.493 OA
ATOM     21  C   UNL     1      96.841  98.954  80.514  1.00  0.00     0.278 C 
ENDBRANCH  17  20
BRANCH  19  22
ATOM     22  O   UNL     1      96.482  96.323  83.252  1.00  0.00    -0.504 OA
ATOM     23  H   UNL     1      96.515  97.282  83.246  1.00  0.00     0.293 HD
ENDBRANCH  19  22
ENDBRANCH  13  14
ENDBRANCH  11  13
ENDBRANCH   8   9
ENDBRANCH   1   8
TORSDOF 11
ENDMDL
MODEL 2
REMARK VINA RESULT:    -5.557      4.286      9.255
REMARK INTER + INTRA:          -9.985
REMARK INTER:                  -9.262
REMARK INTRA:                  -0.722
REMARK UNBOUND:                -1.017
REMARK SMILES CCCCCCCCC(=O)NCc1ccc(O)c(OC)c1
REMARK SMILES IDX 7 1 6 2 5 3 4 4 3 5 2 6 1 7 8 8 9 9 10 10 11 11 12 13 13 14
REMARK SMILES IDX 21 15 14 16 18 17 15 18 16 19 19 20 20 21 17 22
REMARK H PARENT 11 12 17 23
REMARK Flexibility Score: inf
ROOT
ATOM      1  C   UNL     1      95.894  95.479  75.612  1.00  0.00     0.010 C 
ENDROOT
BRANCH   1   2
ATOM      2  C   UNL     1      96.662  96.013  74.369  1.00  0.00     0.001 C 
BRANCH   2   3
ATOM      3  C   UNL     1      96.011  97.301  73.783  1.00  0.00     0.000 C 
BRANCH   3   4
ATOM      4  C   UNL     1      94.474  97.384  74.008  1.00  0.00    -0.000 C 
BRANCH   4   5
ATOM      5  C   UNL     1      93.745  98.166  72.879  1.00  0.00    -0.000 C 
BRANCH   5   6
ATOM      6  C   UNL     1      94.613  98.318  71.601  1.00  0.00    -0.003 C 
ATOM      7  C   UNL     1      93.773  98.373  70.307  1.00  0.00     0.004 C 
ENDBRANCH   5   6
ENDBRANCH   4   5
ENDBRANCH   3   4
ENDBRANCH   2   3
ENDBRANCH   1   2
BRANCH   1   8
ATOM      8  C   UNL     1      95.319  94.047  75.430  1.00  0.00     0.100 C 
BRANCH   8   9
ATOM      9  C   UNL     1      93.886  93.988  75.806  1.00  0.00     0.220 C 
ATOM     10  O   UNL     1      93.570  94.260  76.989  1.00  0.00    -0.275 OA
ATOM     11  N   UNL     1      92.937  93.675  74.876  1.00  0.00    -0.352 N 
ATOM     12  H   UNL     1      93.307  93.390  73.981  1.00  0.00     0.163 HD
BRANCH  11  13
ATOM     13  C   UNL     1      91.521  93.723  75.078  1.00  0.00     0.151 C 
BRANCH  13  14
ATOM     14  C   UNL     1      90.750  92.870  74.134  1.00  0.00    -0.025 A 
ATOM     15  C   UNL     1      90.786  91.461  74.256  1.00  0.00     0.056 A 
ATOM     16  C   UNL     1      89.973  93.447  73.102  1.00  0.00     0.009 A 
ATOM     17  C   UNL     1      90.044  90.638  73.377  1.00  0.00     0.160 A 
ATOM     18  C   UNL     1      89.233  92.634  72.226  1.00  0.00     0.050 A 
ATOM     19  C   UNL     1      89.271  91.232  72.354  1.00  0.00     0.157 A 
BRANCH  17  20
ATOM     20  O   UNL     1      90.114  89.271  73.470  1.00  0.00    -0.493 OA
ATOM     21  C   UNL     1      89.341  88.713  74.547  1.00  0.00     0.278 C 
ENDBRANCH  17  20
BRANCH  19  22
ATOM     22  O   UNL     1      88.574  90.455  71.486  1.00  0.00    -0.504 OA
ATOM     23  H   UNL     1      87.638  90.655  71.558  1.00  0.00     0.293 HD
ENDBRANCH  19  22
ENDBRANCH  13  14
ENDBRANCH  11  13
ENDBRANCH   8   9
ENDBRANCH   1   8
TORSDOF 11
ENDMDL
MODEL 3
REMARK VINA RESULT:    -5.460     15.155     17.389
REMARK INTER + INTRA:          -9.828
REMARK INTER:                  -8.125
REMARK INTRA:                  -1.703
REMARK UNBOUND:                -1.017
REMARK SMILES CCCCCCCCC(=O)NCc1ccc(O)c(OC)c1
REMARK SMILES IDX 7 1 6 2 5 3 4 4 3 5 2 6 1 7 8 8 9 9 10 10 11 11 12 13 13 14
REMARK SMILES IDX 21 15 14 16 18 17 15 18 16 19 19 20 20 21 17 22
REMARK H PARENT 11 12 17 23
REMARK Flexibility Score: inf
ROOT
ATOM      1  C   UNL     1      80.464  85.902  85.174  1.00  0.00     0.010 C 
ENDROOT
BRANCH   1   2
ATOM      2  C   UNL     1      80.860  86.289  83.721  1.00  0.00     0.001 C 
BRANCH   2   3
ATOM      3  C   UNL     1      80.297  87.681  83.307  1.00  0.00     0.000 C 
BRANCH   3   4
ATOM      4  C   UNL     1      79.353  88.315  84.368  1.00  0.00    -0.000 C 
BRANCH   4   5
ATOM      5  C   UNL     1      79.971  89.569  85.049  1.00  0.00    -0.000 C 
BRANCH   5   6
ATOM      6  C   UNL     1      81.350  89.954  84.448  1.00  0.00    -0.003 C 
ATOM      7  C   UNL     1      82.521  89.704  85.424  1.00  0.00     0.004 C 
ENDBRANCH   5   6
ENDBRANCH   4   5
ENDBRANCH   3   4
ENDBRANCH   2   3
ENDBRANCH   1   2
BRANCH   1   8
ATOM      8  C   UNL     1      81.633  86.000  86.193  1.00  0.00     0.100 C 
BRANCH   8   9
ATOM      9  C   UNL     1      81.135  86.265  87.564  1.00  0.00     0.220 C 
ATOM     10  O   UNL     1      81.787  85.810  88.533  1.00  0.00    -0.275 OA
ATOM     11  N   UNL     1      80.008  87.012  87.760  1.00  0.00    -0.352 N 
ATOM     12  H   UNL     1      79.515  87.254  86.913  1.00  0.00     0.163 HD
BRANCH  11  13
ATOM     13  C   UNL     1      79.508  87.454  89.026  1.00  0.00     0.151 C 
BRANCH  13  14
ATOM     14  C   UNL     1      79.632  88.920  89.244  1.00  0.00    -0.025 A 
ATOM     15  C   UNL     1      80.704  89.638  88.662  1.00  0.00     0.056 A 
ATOM     16  C   UNL     1      78.690  89.619  90.033  1.00  0.00     0.009 A 
ATOM     17  C   UNL     1      80.825  91.035  88.845  1.00  0.00     0.160 A 
ATOM     18  C   UNL     1      78.804  91.009  90.218  1.00  0.00     0.050 A 
ATOM     19  C   UNL     1      79.872  91.718  89.634  1.00  0.00     0.157 A 
BRANCH  17  20
ATOM     20  O   UNL     1      81.887  91.722  88.316  1.00  0.00    -0.493 OA
ATOM     21  C   UNL     1      83.160  91.371  88.887  1.00  0.00     0.278 C 
ENDBRANCH  17  20
BRANCH  19  22
ATOM     22  O   UNL     1      79.988  93.054  89.842  1.00  0.00    -0.504 OA
ATOM     23  H   UNL     1      80.911  93.275  89.993  1.00  0.00     0.293 HD
ENDBRANCH  19  22
ENDBRANCH  13  14
ENDBRANCH  11  13
ENDBRANCH   8   9
ENDBRANCH   1   8
TORSDOF 11
ENDMDL
MODEL 4
REMARK VINA RESULT:    -5.132     13.866     16.917
REMARK INTER + INTRA:          -9.299
REMARK INTER:                  -8.632
REMARK INTRA:                  -0.667
REMARK UNBOUND:                -1.017
REMARK SMILES CCCCCCCCC(=O)NCc1ccc(O)c(OC)c1
REMARK SMILES IDX 7 1 6 2 5 3 4 4 3 5 2 6 1 7 8 8 9 9 10 10 11 11 12 13 13 14
REMARK SMILES IDX 21 15 14 16 18 17 15 18 16 19 19 20 20 21 17 22
REMARK H PARENT 11 12 17 23
REMARK Flexibility Score: inf
ROOT
ATOM      1  C   UNL     1      82.231  91.743  88.154  1.00  0.00     0.010 C 
ENDROOT
BRANCH   1   2
ATOM      2  C   UNL     1      81.843  93.039  88.923  1.00  0.00     0.001 C 
BRANCH   2   3
ATOM      3  C   UNL     1      82.594  94.292  88.381  1.00  0.00     0.000 C 
BRANCH   3   4
ATOM      4  C   UNL     1      82.218  95.612  89.112  1.00  0.00    -0.000 C 
BRANCH   4   5
ATOM      5  C   UNL     1      81.012  96.340  88.455  1.00  0.00    -0.000 C 
BRANCH   5   6
ATOM      6  C   UNL     1      81.452  97.513  87.538  1.00  0.00    -0.003 C 
ATOM      7  C   UNL     1      80.600  97.622  86.254  1.00  0.00     0.004 C 
ENDBRANCH   5   6
ENDBRANCH   4   5
ENDBRANCH   3   4
ENDBRANCH   2   3
ENDBRANCH   1   2
BRANCH   1   8
ATOM      8  C   UNL     1      83.742  91.647  87.803  1.00  0.00     0.100 C 
BRANCH   8   9
ATOM      9  C   UNL     1      83.984  90.662  86.722  1.00  0.00     0.220 C 
ATOM     10  O   UNL     1      85.023  89.962  86.776  1.00  0.00    -0.275 OA
ATOM     11  N   UNL     1      83.079  90.504  85.712  1.00  0.00    -0.352 N 
ATOM     12  H   UNL     1      82.325  91.175  85.718  1.00  0.00     0.163 HD
BRANCH  11  13
ATOM     13  C   UNL     1      83.127  89.497  84.696  1.00  0.00     0.151 C 
BRANCH  13  14
ATOM     14  C   UNL     1      82.146  88.397  84.892  1.00  0.00    -0.025 A 
ATOM     15  C   UNL     1      82.193  87.600  86.061  1.00  0.00     0.056 A 
ATOM     16  C   UNL     1      81.155  88.126  83.920  1.00  0.00     0.009 A 
ATOM     17  C   UNL     1      81.256  86.562  86.269  1.00  0.00     0.160 A 
ATOM     18  C   UNL     1      80.219  87.096  84.122  1.00  0.00     0.050 A 
ATOM     19  C   UNL     1      80.270  86.308  85.288  1.00  0.00     0.157 A 
BRANCH  17  20
ATOM     20  O   UNL     1      81.329  85.763  87.382  1.00  0.00    -0.493 OA
ATOM     21  C   UNL     1      81.488  86.486  88.615  1.00  0.00     0.278 C 
ENDBRANCH  17  20
BRANCH  19  22
ATOM     22  O   UNL     1      79.379  85.298  85.461  1.00  0.00    -0.504 OA
ATOM     23  H   UNL     1      78.647  85.606  86.000  1.00  0.00     0.293 HD
ENDBRANCH  19  22
ENDBRANCH  13  14
ENDBRANCH  11  13
ENDBRANCH   8   9
ENDBRANCH   1   8
TORSDOF 11
ENDMDL
MODEL 5
REMARK VINA RESULT:    -5.131     13.162     14.803
REMARK INTER + INTRA:          -9.297
REMARK INTER:                  -7.765
REMARK INTRA:                  -1.532
REMARK UNBOUND:                -1.017
REMARK SMILES CCCCCCCCC(=O)NCc1ccc(O)c(OC)c1
REMARK SMILES IDX 7 1 6 2 5 3 4 4 3 5 2 6 1 7 8 8 9 9 10 10 11 11 12 13 13 14
REMARK SMILES IDX 21 15 14 16 18 17 15 18 16 19 19 20 20 21 17 22
REMARK H PARENT 11 12 17 23
REMARK Flexibility Score: inf
ROOT
ATOM      1  C   UNL     1     100.187  81.642  75.044  1.00  0.00     0.010 C 
ENDROOT
BRANCH   1   2
ATOM      2  C   UNL     1     101.436  81.937  75.922  1.00  0.00     0.001 C 
BRANCH   2   3
ATOM      3  C   UNL     1     101.264  81.425  77.383  1.00  0.00     0.000 C 
BRANCH   3   4
ATOM      4  C   UNL     1     102.534  80.736  77.959  1.00  0.00    -0.000 C 
BRANCH   4   5
ATOM      5  C   UNL     1     102.351  80.278  79.434  1.00  0.00    -0.000 C 
BRANCH   5   6
ATOM      6  C   UNL     1     101.238  81.072  80.171  1.00  0.00    -0.003 C 
ATOM      7  C   UNL     1     101.467  81.150  81.696  1.00  0.00     0.004 C 
ENDBRANCH   5   6
ENDBRANCH   4   5
ENDBRANCH   3   4
ENDBRANCH   2   3
ENDBRANCH   1   2
BRANCH   1   8
ATOM      8  C   UNL     1      99.286  82.883  74.792  1.00  0.00     0.100 C 
BRANCH   8   9
ATOM      9  C   UNL     1      98.053  82.831  75.614  1.00  0.00     0.220 C 
ATOM     10  O   UNL     1      97.004  82.391  75.086  1.00  0.00    -0.275 OA
ATOM     11  N   UNL     1      98.073  83.226  76.921  1.00  0.00    -0.352 N 
ATOM     12  H   UNL     1      98.943  83.643  77.218  1.00  0.00     0.163 HD
BRANCH  11  13
ATOM     13  C   UNL     1      96.994  83.093  77.851  1.00  0.00     0.151 C 
BRANCH  13  14
ATOM     14  C   UNL     1      97.254  82.111  78.938  1.00  0.00    -0.025 A 
ATOM     15  C   UNL     1      97.059  82.477  80.291  1.00  0.00     0.056 A 
ATOM     16  C   UNL     1      97.702  80.803  78.643  1.00  0.00     0.009 A 
ATOM     17  C   UNL     1      97.286  81.550  81.333  1.00  0.00     0.160 A 
ATOM     18  C   UNL     1      97.929  79.875  79.675  1.00  0.00     0.050 A 
ATOM     19  C   UNL     1      97.730  80.245  81.019  1.00  0.00     0.157 A 
BRANCH  17  20
ATOM     20  O   UNL     1      97.137  81.919  82.646  1.00  0.00    -0.493 OA
ATOM     21  C   UNL     1      98.181  82.779  83.138  1.00  0.00     0.278 C 
ENDBRANCH  17  20
BRANCH  19  22
ATOM     22  O   UNL     1      97.978  79.351  82.010  1.00  0.00    -0.504 OA
ATOM     23  H   UNL     1      97.404  78.589  81.903  1.00  0.00     0.293 HD
ENDBRANCH  19  22
ENDBRANCH  13  14
ENDBRANCH  11  13
ENDBRANCH   8   9
ENDBRANCH   1   8
TORSDOF 11
ENDMDL
MODEL 6
REMARK VINA RESULT:    -5.119     14.607     16.443
REMARK INTER + INTRA:          -9.278
REMARK INTER:                  -7.749
REMARK INTRA:                  -1.529
REMARK UNBOUND:                -1.017
REMARK SMILES CCCCCCCCC(=O)NCc1ccc(O)c(OC)c1
REMARK SMILES IDX 7 1 6 2 5 3 4 4 3 5 2 6 1 7 8 8 9 9 10 10 11 11 12 13 13 14
REMARK SMILES IDX 21 15 14 16 18 17 15 18 16 19 19 20 20 21 17 22
REMARK H PARENT 11 12 17 23
REMARK Flexibility Score: inf
ROOT
ATOM      1  C   UNL     1      80.162  85.866  85.691  1.00  0.00     0.010 C 
ENDROOT
BRANCH   1   2
ATOM      2  C   UNL     1      80.439  86.267  84.213  1.00  0.00     0.001 C 
BRANCH   2   3
ATOM      3  C   UNL     1      81.260  87.586  84.104  1.00  0.00     0.000 C 
BRANCH   3   4
ATOM      4  C   UNL     1      80.395  88.874  84.199  1.00  0.00    -0.000 C 
BRANCH   4   5
ATOM      5  C   UNL     1      81.082  90.000  85.022  1.00  0.00    -0.000 C 
BRANCH   5   6
ATOM      6  C   UNL     1      82.631  89.890  85.005  1.00  0.00    -0.003 C 
ATOM      7  C   UNL     1      83.279  90.333  86.335  1.00  0.00     0.004 C 
ENDBRANCH   5   6
ENDBRANCH   4   5
ENDBRANCH   3   4
ENDBRANCH   2   3
ENDBRANCH   1   2
BRANCH   1   8
ATOM      8  C   UNL     1      81.345  86.162  86.655  1.00  0.00     0.100 C 
BRANCH   8   9
ATOM      9  C   UNL     1      80.881  86.853  87.883  1.00  0.00     0.220 C 
ATOM     10  O   UNL     1      80.753  86.178  88.932  1.00  0.00    -0.275 OA
ATOM     11  N   UNL     1      80.630  88.195  87.871  1.00  0.00    -0.352 N 
ATOM     12  H   UNL     1      80.680  88.621  86.958  1.00  0.00     0.163 HD
BRANCH  11  13
ATOM     13  C   UNL     1      80.316  88.996  89.015  1.00  0.00     0.151 C 
BRANCH  13  14
ATOM     14  C   UNL     1      81.462  89.797  89.520  1.00  0.00    -0.025 A 
ATOM     15  C   UNL     1      81.487  91.200  89.336  1.00  0.00     0.056 A 
ATOM     16  C   UNL     1      82.544  89.177  90.187  1.00  0.00     0.009 A 
ATOM     17  C   UNL     1      82.562  91.977  89.826  1.00  0.00     0.160 A 
ATOM     18  C   UNL     1      83.616  89.944  90.678  1.00  0.00     0.050 A 
ATOM     19  C   UNL     1      83.633  91.340  90.494  1.00  0.00     0.157 A 
BRANCH  17  20
ATOM     20  O   UNL     1      82.604  93.331  89.610  1.00  0.00    -0.493 OA
ATOM     21  C   UNL     1      82.853  93.701  88.242  1.00  0.00     0.278 C 
ENDBRANCH  17  20
BRANCH  19  22
ATOM     22  O   UNL     1      84.684  92.069  90.947  1.00  0.00    -0.504 OA
ATOM     23  H   UNL     1      84.918  92.734  90.295  1.00  0.00     0.293 HD
ENDBRANCH  19  22
ENDBRANCH  13  14
ENDBRANCH  11  13
ENDBRANCH   8   9
ENDBRANCH   1   8
TORSDOF 11
ENDMDL
MODEL 7
REMARK VINA RESULT:    -5.075     11.838     13.355
REMARK INTER + INTRA:          -9.207
REMARK INTER:                  -8.595
REMARK INTRA:                  -0.612
REMARK UNBOUND:                -1.017
REMARK SMILES CCCCCCCCC(=O)NCc1ccc(O)c(OC)c1
REMARK SMILES IDX 7 1 6 2 5 3 4 4 3 5 2 6 1 7 8 8 9 9 10 10 11 11 12 13 13 14
REMARK SMILES IDX 21 15 14 16 18 17 15 18 16 19 19 20 20 21 17 22
REMARK H PARENT 11 12 17 23
REMARK Flexibility Score: inf
ROOT
ATOM      1  C   UNL     1      97.997  82.656  81.670  1.00  0.00     0.010 C 
ENDROOT
BRANCH   1   2
ATOM      2  C   UNL     1      98.118  82.606  80.120  1.00  0.00     0.001 C 
BRANCH   2   3
ATOM      3  C   UNL     1      97.113  81.602  79.483  1.00  0.00     0.000 C 
BRANCH   3   4
ATOM      4  C   UNL     1      96.868  81.838  77.965  1.00  0.00    -0.000 C 
BRANCH   4   5
ATOM      5  C   UNL     1      97.009  83.333  77.560  1.00  0.00    -0.000 C 
BRANCH   5   6
ATOM      6  C   UNL     1      97.514  83.510  76.102  1.00  0.00    -0.003 C 
ATOM      7  C   UNL     1      97.136  82.324  75.188  1.00  0.00     0.004 C 
ENDBRANCH   5   6
ENDBRANCH   4   5
ENDBRANCH   3   4
ENDBRANCH   2   3
ENDBRANCH   1   2
BRANCH   1   8
ATOM      8  C   UNL     1      96.549  82.897  82.181  1.00  0.00     0.100 C 
BRANCH   8   9
ATOM      9  C   UNL     1      96.524  83.886  83.285  1.00  0.00     0.220 C 
ATOM     10  O   UNL     1      97.342  84.837  83.252  1.00  0.00    -0.275 OA
ATOM     11  N   UNL     1      95.612  83.776  84.295  1.00  0.00    -0.352 N 
ATOM     12  H   UNL     1      95.062  82.930  84.270  1.00  0.00     0.163 HD
BRANCH  11  13
ATOM     13  C   UNL     1      95.394  84.736  85.334  1.00  0.00     0.151 C 
BRANCH  13  14
ATOM     14  C   UNL     1      94.140  84.517  86.102  1.00  0.00    -0.025 A 
ATOM     15  C   UNL     1      93.288  83.433  85.781  1.00  0.00     0.056 A 
ATOM     16  C   UNL     1      93.773  85.384  87.158  1.00  0.00     0.009 A 
ATOM     17  C   UNL     1      92.101  83.203  86.514  1.00  0.00     0.160 A 
ATOM     18  C   UNL     1      92.595  85.159  87.891  1.00  0.00     0.050 A 
ATOM     19  C   UNL     1      91.753  84.077  87.568  1.00  0.00     0.157 A 
BRANCH  17  20
ATOM     20  O   UNL     1      91.255  82.177  86.174  1.00  0.00    -0.493 OA
ATOM     21  C   UNL     1      91.764  81.310  85.145  1.00  0.00     0.278 C 
ENDBRANCH  17  20
BRANCH  19  22
ATOM     22  O   UNL     1      90.603  83.885  88.264  1.00  0.00    -0.504 OA
ATOM     23  H   UNL     1      90.266  83.003  88.087  1.00  0.00     0.293 HD
ENDBRANCH  19  22
ENDBRANCH  13  14
ENDBRANCH  11  13
ENDBRANCH   8   9
ENDBRANCH   1   8
TORSDOF 11
ENDMDL
MODEL 8
REMARK VINA RESULT:    -5.001     21.293     23.517
REMARK INTER + INTRA:          -9.087
REMARK INTER:                  -8.001
REMARK INTRA:                  -1.086
REMARK UNBOUND:                -1.017
REMARK SMILES CCCCCCCCC(=O)NCc1ccc(O)c(OC)c1
REMARK SMILES IDX 7 1 6 2 5 3 4 4 3 5 2 6 1 7 8 8 9 9 10 10 11 11 12 13 13 14
REMARK SMILES IDX 21 15 14 16 18 17 15 18 16 19 19 20 20 21 17 22
REMARK H PARENT 11 12 17 23
REMARK Flexibility Score: inf
ROOT
ATOM      1  C   UNL     1      75.791  83.760  66.474  1.00  0.00     0.010 C 
ENDROOT
BRANCH   1   2
ATOM      2  C   UNL     1      75.028  84.379  65.267  1.00  0.00     0.001 C 
BRANCH   2   3
ATOM      3  C   UNL     1      73.888  83.452  64.753  1.00  0.00     0.000 C 
BRANCH   3   4
ATOM      4  C   UNL     1      74.231  82.712  63.429  1.00  0.00    -0.000 C 
BRANCH   4   5
ATOM      5  C   UNL     1      74.147  81.165  63.568  1.00  0.00    -0.000 C 
BRANCH   5   6
ATOM      6  C   UNL     1      75.374  80.444  62.948  1.00  0.00    -0.003 C 
ATOM      7  C   UNL     1      76.691  80.754  63.693  1.00  0.00     0.004 C 
ENDBRANCH   5   6
ENDBRANCH   4   5
ENDBRANCH   3   4
ENDBRANCH   2   3
ENDBRANCH   1   2
BRANCH   1   8
ATOM      8  C   UNL     1      77.293  83.479  66.193  1.00  0.00     0.100 C 
BRANCH   8   9
ATOM      9  C   UNL     1      78.047  84.738  65.980  1.00  0.00     0.220 C 
ATOM     10  O   UNL     1      78.704  84.867  64.919  1.00  0.00    -0.275 OA
ATOM     11  N   UNL     1      78.000  85.740  66.907  1.00  0.00    -0.352 N 
ATOM     12  H   UNL     1      77.516  85.498  67.759  1.00  0.00     0.163 HD
BRANCH  11  13
ATOM     13  C   UNL     1      78.564  87.046  66.755  1.00  0.00     0.151 C 
BRANCH  13  14
ATOM     14  C   UNL     1      77.561  88.103  66.456  1.00  0.00    -0.025 A 
ATOM     15  C   UNL     1      77.603  88.797  65.223  1.00  0.00     0.056 A 
ATOM     16  C   UNL     1      76.555  88.436  67.393  1.00  0.00     0.009 A 
ATOM     17  C   UNL     1      76.645  89.792  64.919  1.00  0.00     0.160 A 
ATOM     18  C   UNL     1      75.600  89.423  67.095  1.00  0.00     0.050 A 
ATOM     19  C   UNL     1      75.645  90.108  65.866  1.00  0.00     0.157 A 
BRANCH  17  20
ATOM     20  O   UNL     1      76.713  90.493  63.741  1.00  0.00    -0.493 OA
ATOM     21  C   UNL     1      77.658  91.577  63.754  1.00  0.00     0.278 C 
ENDBRANCH  17  20
BRANCH  19  22
ATOM     22  O   UNL     1      74.735  91.079  65.599  1.00  0.00    -0.504 OA
ATOM     23  H   UNL     1      75.054  91.628  64.879  1.00  0.00     0.293 HD
ENDBRANCH  19  22
ENDBRANCH  13  14
ENDBRANCH  11  13
ENDBRANCH   8   9
ENDBRANCH   1   8
TORSDOF 11
ENDMDL
MODEL 9
REMARK VINA RESULT:    -4.985     13.877     16.152
REMARK INTER + INTRA:          -9.062
REMARK INTER:                  -8.399
REMARK INTRA:                  -0.662
REMARK UNBOUND:                -1.017
REMARK SMILES CCCCCCCCC(=O)NCc1ccc(O)c(OC)c1
REMARK SMILES IDX 7 1 6 2 5 3 4 4 3 5 2 6 1 7 8 8 9 9 10 10 11 11 12 13 13 14
REMARK SMILES IDX 21 15 14 16 18 17 15 18 16 19 19 20 20 21 17 22
REMARK H PARENT 11 12 17 23
REMARK Flexibility Score: inf
ROOT
ATOM      1  C   UNL     1      96.138  81.374  83.598  1.00  0.00     0.010 C 
ENDROOT
BRANCH   1   2
ATOM      2  C   UNL     1      96.639  82.493  82.641  1.00  0.00     0.001 C 
BRANCH   2   3
ATOM      3  C   UNL     1      98.094  82.238  82.148  1.00  0.00     0.000 C 
BRANCH   3   4
ATOM      4  C   UNL     1      98.177  81.686  80.697  1.00  0.00    -0.000 C 
BRANCH   4   5
ATOM      5  C   UNL     1      98.651  82.756  79.673  1.00  0.00    -0.000 C 
BRANCH   5   6
ATOM      6  C   UNL     1      97.759  82.804  78.404  1.00  0.00    -0.003 C 
ATOM      7  C   UNL     1      96.291  82.415  78.687  1.00  0.00     0.004 C 
ENDBRANCH   5   6
ENDBRANCH   4   5
ENDBRANCH   3   4
ENDBRANCH   2   3
ENDBRANCH   1   2
BRANCH   1   8
ATOM      8  C   UNL     1      96.049  81.812  85.087  1.00  0.00     0.100 C 
BRANCH   8   9
ATOM      9  C   UNL     1      94.651  82.120  85.476  1.00  0.00     0.220 C 
ATOM     10  O   UNL     1      94.452  83.050  86.294  1.00  0.00    -0.275 OA
ATOM     11  N   UNL     1      93.610  81.423  84.932  1.00  0.00    -0.352 N 
ATOM     12  H   UNL     1      93.886  80.643  84.355  1.00  0.00     0.163 HD
BRANCH  11  13
ATOM     13  C   UNL     1      92.222  81.716  85.117  1.00  0.00     0.151 C 
BRANCH  13  14
ATOM     14  C   UNL     1      91.337  80.526  85.010  1.00  0.00    -0.025 A 
ATOM     15  C   UNL     1      89.962  80.685  84.715  1.00  0.00     0.056 A 
ATOM     16  C   UNL     1      91.847  79.221  85.203  1.00  0.00     0.009 A 
ATOM     17  C   UNL     1      89.112  79.561  84.592  1.00  0.00     0.160 A 
ATOM     18  C   UNL     1      91.007  78.100  85.081  1.00  0.00     0.050 A 
ATOM     19  C   UNL     1      89.640  78.265  84.785  1.00  0.00     0.157 A 
BRANCH  17  20
ATOM     20  O   UNL     1      87.771  79.720  84.348  1.00  0.00    -0.493 OA
ATOM     21  C   UNL     1      87.410  81.027  83.868  1.00  0.00     0.278 C 
ENDBRANCH  17  20
BRANCH  19  22
ATOM     22  O   UNL     1      88.832  77.178  84.697  1.00  0.00    -0.504 OA
ATOM     23  H   UNL     1      88.301  77.109  85.493  1.00  0.00     0.293 HD
ENDBRANCH  19  22
ENDBRANCH  13  14
ENDBRANCH  11  13
ENDBRANCH   8   9
ENDBRANCH   1   8
TORSDOF 11
ENDMDL
MODEL 10
REMARK VINA RESULT:    -4.793     19.655     21.256
REMARK INTER + INTRA:          -8.753
REMARK INTER:                  -7.819
REMARK INTRA:                  -0.934
REMARK UNBOUND:                -1.017
REMARK SMILES CCCCCCCCC(=O)NCc1ccc(O)c(OC)c1
REMARK SMILES IDX 7 1 6 2 5 3 4 4 3 5 2 6 1 7 8 8 9 9 10 10 11 11 12 13 13 14
REMARK SMILES IDX 21 15 14 16 18 17 15 18 16 19 19 20 20 21 17 22
REMARK H PARENT 11 12 17 23
REMARK Flexibility Score: inf
ROOT
ATOM      1  C   UNL     1      76.903  88.488  66.997  1.00  0.00     0.010 C 
ENDROOT
BRANCH   1   2
ATOM      2  C   UNL     1      78.216  87.840  66.470  1.00  0.00     0.001 C 
BRANCH   2   3
ATOM      3  C   UNL     1      77.940  86.605  65.563  1.00  0.00     0.000 C 
BRANCH   3   4
ATOM      4  C   UNL     1      78.305  85.246  66.226  1.00  0.00    -0.000 C 
BRANCH   4   5
ATOM      5  C   UNL     1      77.051  84.436  66.662  1.00  0.00    -0.000 C 
BRANCH   5   6
ATOM      6  C   UNL     1      76.783  84.530  68.189  1.00  0.00    -0.003 C 
ATOM      7  C   UNL     1      75.311  84.859  68.520  1.00  0.00     0.004 C 
ENDBRANCH   5   6
ENDBRANCH   4   5
ENDBRANCH   3   4
ENDBRANCH   2   3
ENDBRANCH   1   2
BRANCH   1   8
ATOM      8  C   UNL     1      75.833  88.727  65.895  1.00  0.00     0.100 C 
BRANCH   8   9
ATOM      9  C   UNL     1      76.211  89.856  65.012  1.00  0.00     0.220 C 
ATOM     10  O   UNL     1      76.637  89.595  63.861  1.00  0.00    -0.275 OA
ATOM     11  N   UNL     1      76.068  91.146  65.436  1.00  0.00    -0.352 N 
ATOM     12  H   UNL     1      75.801  91.240  66.404  1.00  0.00     0.163 HD
BRANCH  11  13
ATOM     13  C   UNL     1      76.263  92.316  64.634  1.00  0.00     0.151 C 
BRANCH  13  14
ATOM     14  C   UNL     1      77.125  93.346  65.273  1.00  0.00    -0.025 A 
ATOM     15  C   UNL     1      76.803  93.848  66.556  1.00  0.00     0.056 A 
ATOM     16  C   UNL     1      78.272  93.844  64.613  1.00  0.00     0.009 A 
ATOM     17  C   UNL     1      77.622  94.815  67.183  1.00  0.00     0.160 A 
ATOM     18  C   UNL     1      79.092  94.805  65.232  1.00  0.00     0.050 A 
ATOM     19  C   UNL     1      78.767  95.298  66.510  1.00  0.00     0.157 A 
BRANCH  17  20
ATOM     20  O   UNL     1      77.285  95.331  68.409  1.00  0.00    -0.493 OA
ATOM     21  C   UNL     1      76.550  94.423  69.248  1.00  0.00     0.278 C 
ENDBRANCH  17  20
BRANCH  19  22
ATOM     22  O   UNL     1      79.549  96.245  67.087  1.00  0.00    -0.504 OA
ATOM     23  H   UNL     1      80.421  95.881  67.257  1.00  0.00     0.293 HD
ENDBRANCH  19  22
ENDBRANCH  13  14
ENDBRANCH  11  13
ENDBRANCH   8   9
ENDBRANCH   1   8
TORSDOF 11
ENDMDL
