MODEL 1
REMARK VINA RESULT:    -6.274      0.000      0.000
REMARK INTER + INTRA:         -10.735
REMARK INTER:                 -10.126
REMARK INTRA:                  -0.609
REMARK UNBOUND:                -0.609
REMARK SMILES COc1cc(CNC(=O)CCCCC/C=C/C(C)C)ccc1O
REMARK SMILES IDX 11 1 10 2 8 3 7 4 9 6 6 7 5 8 3 9 22 10 4 11 21 12 20 13
REMARK SMILES IDX 2 14 1 15 23 16 12 18 13 19 14 20 15 21 16 22 17 23 18 24
REMARK SMILES IDX 19 25
REMARK H PARENT 7 5 23 17
REMARK Flexibility Score: inf
ROOT
ATOM      1  C   UNL     1      96.315  80.938  82.406  1.00  0.00     0.010 C 
ENDROOT
BRANCH   1   2
ATOM      2  C   UNL     1      95.977  82.333  82.992  1.00  0.00     0.100 C 
BRANCH   2   3
ATOM      3  C   UNL     1      95.244  82.285  84.271  1.00  0.00     0.220 C 
ATOM      4  N   UNL     1      93.949  81.864  84.295  1.00  0.00    -0.352 N 
ATOM      5  H   UNL     1      93.550  81.678  83.386  1.00  0.00     0.163 HD
ATOM      6  O   UNL     1      95.856  82.598  85.320  1.00  0.00    -0.275 OA
BRANCH   4   7
ATOM      7  C   UNL     1      93.159  81.678  85.468  1.00  0.00     0.151 C 
BRANCH   7   8
ATOM      8  C   UNL     1      91.870  80.995  85.188  1.00  0.00    -0.025 A 
ATOM      9  C   UNL     1      90.536  78.935  85.023  1.00  0.00     0.160 A 
ATOM     10  C   UNL     1      89.422  79.692  84.598  1.00  0.00     0.157 A 
ATOM     11  C   UNL     1      91.752  79.590  85.305  1.00  0.00     0.056 A 
ATOM     12  C   UNL     1      89.523  81.091  84.494  1.00  0.00     0.050 A 
ATOM     13  C   UNL     1      90.735  81.739  84.796  1.00  0.00     0.009 A 
BRANCH   9  14
ATOM     14  O   UNL     1      90.423  77.583  85.212  1.00  0.00    -0.493 OA
ATOM     15  C   UNL     1      90.963  76.793  84.140  1.00  0.00     0.278 C 
ENDBRANCH   9  14
BRANCH  10  16
ATOM     16  O   UNL     1      88.242  79.097  84.289  1.00  0.00    -0.504 OA
ATOM     17  H   UNL     1      88.225  78.890  83.351  1.00  0.00     0.293 HD
ENDBRANCH  10  16
ENDBRANCH   7   8
ENDBRANCH   4   7
ENDBRANCH   2   3
ENDBRANCH   1   2
BRANCH   1  18
ATOM     18  C   UNL     1      97.493  81.024  81.402  1.00  0.00     0.001 C 
BRANCH  18  19
ATOM     19  C   UNL     1      97.164  81.831  80.121  1.00  0.00     0.004 C 
BRANCH  19  20
ATOM     20  C   UNL     1      98.276  81.670  79.047  1.00  0.00     0.027 C 
BRANCH  20  21
ATOM     21  C   UNL     1      97.788  81.769  77.682  1.00  0.00    -0.031 C 
ATOM     22  C   UNL     1      96.686  82.469  77.361  1.00  0.00    -0.028 C 
BRANCH  22  23
ATOM     23  C   UNL     1      96.174  82.592  75.999  1.00  0.00     0.005 C 
ATOM     24  C   UNL     1      95.973  84.086  75.632  1.00  0.00     0.012 C 
ATOM     25  C   UNL     1      97.115  81.861  75.003  1.00  0.00     0.012 C 
ENDBRANCH  22  23
ENDBRANCH  20  21
ENDBRANCH  19  20
ENDBRANCH  18  19
ENDBRANCH   1  18
TORSDOF 11
ENDMDL
MODEL 2
REMARK VINA RESULT:    -6.203     16.699     20.546
REMARK INTER + INTRA:         -10.620
REMARK INTER:                  -8.823
REMARK INTRA:                  -1.796
REMARK UNBOUND:                -0.609
REMARK SMILES COc1cc(CNC(=O)CCCCC/C=C/C(C)C)ccc1O
REMARK SMILES IDX 11 1 10 2 8 3 7 4 9 6 6 7 5 8 3 9 22 10 4 11 21 12 20 13
REMARK SMILES IDX 2 14 1 15 23 16 12 18 13 19 14 20 15 21 16 22 17 23 18 24
REMARK SMILES IDX 19 25
REMARK H PARENT 7 5 23 17
REMARK Flexibility Score: inf
ROOT
ATOM      1  C   UNL     1      82.398  63.833  76.564  1.00  0.00     0.010 C 
ENDROOT
BRANCH   1   2
ATOM      2  C   UNL     1      83.463  64.073  75.462  1.00  0.00     0.100 C 
BRANCH   2   3
ATOM      3  C   UNL     1      84.326  65.243  75.706  1.00  0.00     0.220 C 
ATOM      4  N   UNL     1      84.081  66.414  75.056  1.00  0.00    -0.352 N 
ATOM      5  H   UNL     1      83.337  66.369  74.373  1.00  0.00     0.163 HD
ATOM      6  O   UNL     1      85.250  65.137  76.547  1.00  0.00    -0.275 OA
BRANCH   4   7
ATOM      7  C   UNL     1      84.774  67.643  75.270  1.00  0.00     0.151 C 
BRANCH   7   8
ATOM      8  C   UNL     1      84.701  68.552  74.097  1.00  0.00    -0.025 A 
ATOM      9  C   UNL     1      85.223  70.704  73.027  1.00  0.00     0.160 A 
ATOM     10  C   UNL     1      84.511  70.303  71.875  1.00  0.00     0.157 A 
ATOM     11  C   UNL     1      85.304  69.831  74.131  1.00  0.00     0.056 A 
ATOM     12  C   UNL     1      83.922  69.026  71.824  1.00  0.00     0.050 A 
ATOM     13  C   UNL     1      84.025  68.153  72.922  1.00  0.00     0.009 A 
BRANCH   9  14
ATOM     14  O   UNL     1      85.874  71.909  73.054  1.00  0.00    -0.493 OA
ATOM     15  C   UNL     1      85.513  72.748  74.163  1.00  0.00     0.278 C 
ENDBRANCH   9  14
BRANCH  10  16
ATOM     16  O   UNL     1      84.385  71.124  70.802  1.00  0.00    -0.504 OA
ATOM     17  H   UNL     1      84.810  70.722  70.041  1.00  0.00     0.293 HD
ENDBRANCH  10  16
ENDBRANCH   7   8
ENDBRANCH   4   7
ENDBRANCH   2   3
ENDBRANCH   1   2
BRANCH   1  18
ATOM     18  C   UNL     1      80.969  64.109  76.030  1.00  0.00     0.001 C 
BRANCH  18  19
ATOM     19  C   UNL     1      80.453  65.537  76.338  1.00  0.00     0.004 C 
BRANCH  19  20
ATOM     20  C   UNL     1      80.259  66.363  75.036  1.00  0.00     0.027 C 
BRANCH  20  21
ATOM     21  C   UNL     1      80.507  65.606  73.821  1.00  0.00    -0.031 C 
ATOM     22  C   UNL     1      80.930  66.187  72.685  1.00  0.00    -0.028 C 
BRANCH  22  23
ATOM     23  C   UNL     1      81.192  65.454  71.449  1.00  0.00     0.005 C 
ATOM     24  C   UNL     1      80.790  66.310  70.219  1.00  0.00     0.012 C 
ATOM     25  C   UNL     1      82.679  65.007  71.396  1.00  0.00     0.012 C 
ENDBRANCH  22  23
ENDBRANCH  20  21
ENDBRANCH  19  20
ENDBRANCH  18  19
ENDBRANCH   1  18
TORSDOF 11
ENDMDL
MODEL 3
REMARK VINA RESULT:    -6.171     15.057     17.458
REMARK INTER + INTRA:         -10.568
REMARK INTER:                  -9.936
REMARK INTRA:                  -0.632
REMARK UNBOUND:                -0.609
REMARK SMILES COc1cc(CNC(=O)CCCCC/C=C/C(C)C)ccc1O
REMARK SMILES IDX 11 1 10 2 8 3 7 4 9 6 6 7 5 8 3 9 22 10 4 11 21 12 20 13
REMARK SMILES IDX 2 14 1 15 23 16 12 18 13 19 14 20 15 21 16 22 17 23 18 24
REMARK SMILES IDX 19 25
REMARK H PARENT 7 5 23 17
REMARK Flexibility Score: inf
ROOT
ATOM      1  C   UNL     1      96.786  97.586  81.673  1.00  0.00     0.010 C 
ENDROOT
BRANCH   1   2
ATOM      2  C   UNL     1      96.829  96.830  80.320  1.00  0.00     0.100 C 
BRANCH   2   3
ATOM      3  C   UNL     1      95.935  95.659  80.258  1.00  0.00     0.220 C 
ATOM      4  N   UNL     1      95.584  95.137  79.050  1.00  0.00    -0.352 N 
ATOM      5  H   UNL     1      95.920  95.659  78.252  1.00  0.00     0.163 HD
ATOM      6  O   UNL     1      95.551  95.145  81.335  1.00  0.00    -0.275 OA
BRANCH   4   7
ATOM      7  C   UNL     1      94.810  93.956  78.850  1.00  0.00     0.151 C 
BRANCH   7   8
ATOM      8  C   UNL     1      93.488  94.236  78.233  1.00  0.00    -0.025 A 
ATOM      9  C   UNL     1      91.208  93.521  77.650  1.00  0.00     0.160 A 
ATOM     10  C   UNL     1      90.985  94.758  77.006  1.00  0.00     0.157 A 
ATOM     11  C   UNL     1      92.458  93.266  78.249  1.00  0.00     0.056 A 
ATOM     12  C   UNL     1      91.996  95.736  76.999  1.00  0.00     0.050 A 
ATOM     13  C   UNL     1      93.235  95.482  77.617  1.00  0.00     0.009 A 
BRANCH   9  14
ATOM     14  O   UNL     1      90.202  92.596  77.739  1.00  0.00    -0.493 OA
ATOM     15  C   UNL     1      90.150  91.676  76.636  1.00  0.00     0.278 C 
ENDBRANCH   9  14
BRANCH  10  16
ATOM     16  O   UNL     1      89.807  95.031  76.393  1.00  0.00    -0.504 OA
ATOM     17  H   UNL     1      89.914  95.796  75.822  1.00  0.00     0.293 HD
ENDBRANCH  10  16
ENDBRANCH   7   8
ENDBRANCH   4   7
ENDBRANCH   2   3
ENDBRANCH   1   2
BRANCH   1  18
ATOM     18  C   UNL     1      97.365  99.017  81.533  1.00  0.00     0.001 C 
BRANCH  18  19
ATOM     19  C   UNL     1      96.306 100.137  81.697  1.00  0.00     0.004 C 
BRANCH  19  20
ATOM     20  C   UNL     1      96.303 101.096  80.474  1.00  0.00     0.027 C 
BRANCH  20  21
ATOM     21  C   UNL     1      95.185 102.025  80.463  1.00  0.00    -0.031 C 
ATOM     22  C   UNL     1      94.800 102.673  79.349  1.00  0.00    -0.028 C 
BRANCH  22  23
ATOM     23  C   UNL     1      93.678 103.608  79.304  1.00  0.00     0.005 C 
ATOM     24  C   UNL     1      92.975 103.670  80.686  1.00  0.00     0.012 C 
ATOM     25  C   UNL     1      94.162 105.003  78.825  1.00  0.00     0.012 C 
ENDBRANCH  22  23
ENDBRANCH  20  21
ENDBRANCH  19  20
ENDBRANCH  18  19
ENDBRANCH   1  18
TORSDOF 11
ENDMDL
MODEL 4
REMARK VINA RESULT:    -6.007      2.972      5.221
REMARK INTER + INTRA:         -10.304
REMARK INTER:                  -9.514
REMARK INTRA:                  -0.790
REMARK UNBOUND:                -0.609
REMARK SMILES COc1cc(CNC(=O)CCCCC/C=C/C(C)C)ccc1O
REMARK SMILES IDX 11 1 10 2 8 3 7 4 9 6 6 7 5 8 3 9 22 10 4 11 21 12 20 13
REMARK SMILES IDX 2 14 1 15 23 16 12 18 13 19 14 20 15 21 16 22 17 23 18 24
REMARK SMILES IDX 19 25
REMARK H PARENT 7 5 23 17
REMARK Flexibility Score: inf
ROOT
ATOM      1  C   UNL     1      97.329  81.055  77.776  1.00  0.00     0.010 C 
ENDROOT
BRANCH   1   2
ATOM      2  C   UNL     1      97.116  82.064  78.933  1.00  0.00     0.100 C 
BRANCH   2   3
ATOM      3  C   UNL     1      97.621  81.596  80.238  1.00  0.00     0.220 C 
ATOM      4  N   UNL     1      97.079  82.083  81.388  1.00  0.00    -0.352 N 
ATOM      5  H   UNL     1      96.392  82.812  81.255  1.00  0.00     0.163 HD
ATOM      6  O   UNL     1      98.519  80.722  80.250  1.00  0.00    -0.275 OA
BRANCH   4   7
ATOM      7  C   UNL     1      97.405  81.648  82.708  1.00  0.00     0.151 C 
BRANCH   7   8
ATOM      8  C   UNL     1      96.229  81.646  83.616  1.00  0.00    -0.025 A 
ATOM      9  C   UNL     1      94.769  82.802  85.223  1.00  0.00     0.160 A 
ATOM     10  C   UNL     1      94.016  81.619  85.388  1.00  0.00     0.157 A 
ATOM     11  C   UNL     1      95.874  82.804  84.346  1.00  0.00     0.056 A 
ATOM     12  C   UNL     1      94.350  80.467  84.654  1.00  0.00     0.050 A 
ATOM     13  C   UNL     1      95.442  80.483  83.767  1.00  0.00     0.009 A 
BRANCH   9  14
ATOM     14  O   UNL     1      94.400  83.954  85.866  1.00  0.00    -0.493 OA
ATOM     15  C   UNL     1      94.979  85.147  85.312  1.00  0.00     0.278 C 
ENDBRANCH   9  14
BRANCH  10  16
ATOM     16  O   UNL     1      92.964  81.568  86.243  1.00  0.00    -0.504 OA
ATOM     17  H   UNL     1      92.550  80.703  86.188  1.00  0.00     0.293 HD
ENDBRANCH  10  16
ENDBRANCH   7   8
ENDBRANCH   4   7
ENDBRANCH   2   3
ENDBRANCH   1   2
BRANCH   1  18
ATOM     18  C   UNL     1      96.453  81.417  76.549  1.00  0.00     0.001 C 
BRANCH  18  19
ATOM     19  C   UNL     1      95.988  82.895  76.530  1.00  0.00     0.004 C 
BRANCH  19  20
ATOM     20  C   UNL     1      95.994  83.472  75.087  1.00  0.00     0.027 C 
BRANCH  20  21
ATOM     21  C   UNL     1      97.024  82.904  74.234  1.00  0.00    -0.031 C 
ATOM     22  C   UNL     1      98.274  83.398  74.190  1.00  0.00    -0.028 C 
BRANCH  22  23
ATOM     23  C   UNL     1      99.333  82.847  73.349  1.00  0.00     0.005 C 
ATOM     24  C   UNL     1      98.871  81.511  72.708  1.00  0.00     0.012 C 
ATOM     25  C   UNL     1      99.771  83.891  72.285  1.00  0.00     0.012 C 
ENDBRANCH  22  23
ENDBRANCH  20  21
ENDBRANCH  19  20
ENDBRANCH  18  19
ENDBRANCH   1  18
TORSDOF 11
ENDMDL
MODEL 5
REMARK VINA RESULT:    -5.977     16.775     20.986
REMARK INTER + INTRA:         -10.256
REMARK INTER:                  -9.475
REMARK INTRA:                  -0.781
REMARK UNBOUND:                -0.609
REMARK SMILES COc1cc(CNC(=O)CCCCC/C=C/C(C)C)ccc1O
REMARK SMILES IDX 11 1 10 2 8 3 7 4 9 6 6 7 5 8 3 9 22 10 4 11 21 12 20 13
REMARK SMILES IDX 2 14 1 15 23 16 12 18 13 19 14 20 15 21 16 22 17 23 18 24
REMARK SMILES IDX 19 25
REMARK H PARENT 7 5 23 17
REMARK Flexibility Score: inf
ROOT
ATOM      1  C   UNL     1      92.274  99.312  70.389  1.00  0.00     0.010 C 
ENDROOT
BRANCH   1   2
ATOM      2  C   UNL     1      93.466 100.211  70.807  1.00  0.00     0.100 C 
BRANCH   2   3
ATOM      3  C   UNL     1      94.617  99.467  71.353  1.00  0.00     0.220 C 
ATOM      4  N   UNL     1      94.425  98.559  72.349  1.00  0.00    -0.352 N 
ATOM      5  H   UNL     1      93.480  98.515  72.703  1.00  0.00     0.163 HD
ATOM      6  O   UNL     1      95.747  99.665  70.849  1.00  0.00    -0.275 OA
BRANCH   4   7
ATOM      7  C   UNL     1      95.429  97.706  72.898  1.00  0.00     0.151 C 
BRANCH   7   8
ATOM      8  C   UNL     1      95.003  97.068  74.170  1.00  0.00    -0.025 A 
ATOM      9  C   UNL     1      95.553  96.101  76.364  1.00  0.00     0.160 A 
ATOM     10  C   UNL     1      94.190  95.800  76.572  1.00  0.00     0.157 A 
ATOM     11  C   UNL     1      95.950  96.724  75.163  1.00  0.00     0.056 A 
ATOM     12  C   UNL     1      93.237  96.153  75.599  1.00  0.00     0.050 A 
ATOM     13  C   UNL     1      93.639  96.791  74.412  1.00  0.00     0.009 A 
BRANCH   9  14
ATOM     14  O   UNL     1      96.477  95.842  77.342  1.00  0.00    -0.493 OA
ATOM     15  C   UNL     1      97.134  97.013  77.855  1.00  0.00     0.278 C 
ENDBRANCH   9  14
BRANCH  10  16
ATOM     16  O   UNL     1      93.770  95.176  77.702  1.00  0.00    -0.504 OA
ATOM     17  H   UNL     1      92.820  95.043  77.659  1.00  0.00     0.293 HD
ENDBRANCH  10  16
ENDBRANCH   7   8
ENDBRANCH   4   7
ENDBRANCH   2   3
ENDBRANCH   1   2
BRANCH   1  18
ATOM     18  C   UNL     1      90.977  99.721  71.134  1.00  0.00     0.001 C 
BRANCH  18  19
ATOM     19  C   UNL     1      89.763  99.940  70.197  1.00  0.00     0.004 C 
BRANCH  19  20
ATOM     20  C   UNL     1      89.560  98.731  69.241  1.00  0.00     0.027 C 
BRANCH  20  21
ATOM     21  C   UNL     1      88.952  99.088  67.970  1.00  0.00    -0.031 C 
ATOM     22  C   UNL     1      88.484 100.323  67.718  1.00  0.00    -0.028 C 
BRANCH  22  23
ATOM     23  C   UNL     1      87.873 100.715  66.450  1.00  0.00     0.005 C 
ATOM     24  C   UNL     1      86.442 100.126  66.339  1.00  0.00     0.012 C 
ATOM     25  C   UNL     1      87.889 102.261  66.302  1.00  0.00     0.012 C 
ENDBRANCH  22  23
ENDBRANCH  20  21
ENDBRANCH  19  20
ENDBRANCH  18  19
ENDBRANCH   1  18
TORSDOF 11
ENDMDL
MODEL 6
REMARK VINA RESULT:    -5.941     24.772     26.962
REMARK INTER + INTRA:         -10.197
REMARK INTER:                  -9.559
REMARK INTRA:                  -0.637
REMARK UNBOUND:                -0.609
REMARK SMILES COc1cc(CNC(=O)CCCCC/C=C/C(C)C)ccc1O
REMARK SMILES IDX 11 1 10 2 8 3 7 4 9 6 6 7 5 8 3 9 22 10 4 11 21 12 20 13
REMARK SMILES IDX 2 14 1 15 23 16 12 18 13 19 14 20 15 21 16 22 17 23 18 24
REMARK SMILES IDX 19 25
REMARK H PARENT 7 5 23 17
REMARK Flexibility Score: inf
ROOT
ATOM      1  C   UNL     1      77.462  83.818  65.856  1.00  0.00     0.010 C 
ENDROOT
BRANCH   1   2
ATOM      2  C   UNL     1      76.232  83.782  64.912  1.00  0.00     0.100 C 
BRANCH   2   3
ATOM      3  C   UNL     1      75.479  82.515  64.955  1.00  0.00     0.220 C 
ATOM      4  N   UNL     1      74.268  82.466  65.578  1.00  0.00    -0.352 N 
ATOM      5  H   UNL     1      74.000  83.322  66.044  1.00  0.00     0.163 HD
ATOM      6  O   UNL     1      75.962  81.514  64.375  1.00  0.00    -0.275 OA
BRANCH   4   7
ATOM      7  C   UNL     1      73.396  81.338  65.609  1.00  0.00     0.151 C 
BRANCH   7   8
ATOM      8  C   UNL     1      72.110  81.589  64.909  1.00  0.00    -0.025 A 
ATOM      9  C   UNL     1      69.850  82.558  64.876  1.00  0.00     0.160 A 
ATOM     10  C   UNL     1      69.638  82.018  63.589  1.00  0.00     0.157 A 
ATOM     11  C   UNL     1      71.079  82.332  65.529  1.00  0.00     0.056 A 
ATOM     12  C   UNL     1      70.663  81.292  62.955  1.00  0.00     0.050 A 
ATOM     13  C   UNL     1      71.894  81.087  63.606  1.00  0.00     0.009 A 
BRANCH   9  14
ATOM     14  O   UNL     1      68.892  83.340  65.465  1.00  0.00    -0.493 OA
ATOM     15  C   UNL     1      69.236  83.799  66.783  1.00  0.00     0.278 C 
ENDBRANCH   9  14
BRANCH  10  16
ATOM     16  O   UNL     1      68.460  82.188  62.938  1.00  0.00    -0.504 OA
ATOM     17  H   UNL     1      68.418  81.586  62.190  1.00  0.00     0.293 HD
ENDBRANCH  10  16
ENDBRANCH   7   8
ENDBRANCH   4   7
ENDBRANCH   2   3
ENDBRANCH   1   2
BRANCH   1  18
ATOM     18  C   UNL     1      77.245  84.818  67.020  1.00  0.00     0.001 C 
BRANCH  18  19
ATOM     19  C   UNL     1      76.805  86.229  66.555  1.00  0.00     0.004 C 
BRANCH  19  20
ATOM     20  C   UNL     1      77.190  87.315  67.599  1.00  0.00     0.027 C 
BRANCH  20  21
ATOM     21  C   UNL     1      76.050  88.040  68.135  1.00  0.00    -0.031 C 
ATOM     22  C   UNL     1      75.975  89.382  68.108  1.00  0.00    -0.028 C 
BRANCH  22  23
ATOM     23  C   UNL     1      74.842  90.140  68.633  1.00  0.00     0.005 C 
ATOM     24  C   UNL     1      73.770  89.176  69.207  1.00  0.00     0.012 C 
ATOM     25  C   UNL     1      75.328  91.174  69.685  1.00  0.00     0.012 C 
ENDBRANCH  22  23
ENDBRANCH  20  21
ENDBRANCH  19  20
ENDBRANCH  18  19
ENDBRANCH   1  18
TORSDOF 11
ENDMDL
MODEL 7
REMARK VINA RESULT:    -5.938      5.992     11.535
REMARK INTER + INTRA:         -10.193
REMARK INTER:                  -9.343
REMARK INTRA:                  -0.849
REMARK UNBOUND:                -0.609
REMARK SMILES COc1cc(CNC(=O)CCCCC/C=C/C(C)C)ccc1O
REMARK SMILES IDX 11 1 10 2 8 3 7 4 9 6 6 7 5 8 3 9 22 10 4 11 21 12 20 13
REMARK SMILES IDX 2 14 1 15 23 16 12 18 13 19 14 20 15 21 16 22 17 23 18 24
REMARK SMILES IDX 19 25
REMARK H PARENT 7 5 23 17
REMARK Flexibility Score: inf
ROOT
ATOM      1  C   UNL     1      96.762  82.157  78.271  1.00  0.00     0.010 C 
ENDROOT
BRANCH   1   2
ATOM      2  C   UNL     1      95.913  82.015  76.981  1.00  0.00     0.100 C 
BRANCH   2   3
ATOM      3  C   UNL     1      96.264  82.980  75.922  1.00  0.00     0.220 C 
ATOM      4  N   UNL     1      97.177  82.641  74.971  1.00  0.00    -0.352 N 
ATOM      5  H   UNL     1      97.617  81.741  75.111  1.00  0.00     0.163 HD
ATOM      6  O   UNL     1      95.673  84.086  75.905  1.00  0.00    -0.275 OA
BRANCH   4   7
ATOM      7  C   UNL     1      97.535  83.437  73.842  1.00  0.00     0.151 C 
BRANCH   7   8
ATOM      8  C   UNL     1      98.989  83.384  73.543  1.00  0.00    -0.025 A 
ATOM      9  C   UNL     1     101.202  82.360  73.869  1.00  0.00     0.160 A 
ATOM     10  C   UNL     1     101.773  83.323  73.008  1.00  0.00     0.157 A 
ATOM     11  C   UNL     1      99.818  82.403  74.136  1.00  0.00     0.056 A 
ATOM     12  C   UNL     1     100.955  84.292  72.398  1.00  0.00     0.050 A 
ATOM     13  C   UNL     1      99.572  84.316  72.655  1.00  0.00     0.009 A 
BRANCH   9  14
ATOM     14  O   UNL     1     101.973  81.360  74.398  1.00  0.00    -0.493 OA
ATOM     15  C   UNL     1     101.904  80.120  73.674  1.00  0.00     0.278 C 
ENDBRANCH   9  14
BRANCH  10  16
ATOM     16  O   UNL     1     103.104  83.333  72.746  1.00  0.00    -0.504 OA
ATOM     17  H   UNL     1     103.401  84.240  72.639  1.00  0.00     0.293 HD
ENDBRANCH  10  16
ENDBRANCH   7   8
ENDBRANCH   4   7
ENDBRANCH   2   3
ENDBRANCH   1   2
BRANCH   1  18
ATOM     18  C   UNL     1      98.194  81.604  78.061  1.00  0.00     0.001 C 
BRANCH  18  19
ATOM     19  C   UNL     1      98.698  80.721  79.231  1.00  0.00     0.004 C 
BRANCH  19  20
ATOM     20  C   UNL     1      97.516  80.057  79.990  1.00  0.00     0.027 C 
BRANCH  20  21
ATOM     21  C   UNL     1      97.369  80.518  81.360  1.00  0.00    -0.031 C 
ATOM     22  C   UNL     1      96.519  81.503  81.700  1.00  0.00    -0.028 C 
BRANCH  22  23
ATOM     23  C   UNL     1      96.344  81.986  83.067  1.00  0.00     0.005 C 
ATOM     24  C   UNL     1      97.595  81.649  83.921  1.00  0.00     0.012 C 
ATOM     25  C   UNL     1      96.024  83.505  83.064  1.00  0.00     0.012 C 
ENDBRANCH  22  23
ENDBRANCH  20  21
ENDBRANCH  19  20
ENDBRANCH  18  19
ENDBRANCH   1  18
TORSDOF 11
ENDMDL
MODEL 8
REMARK VINA RESULT:    -5.832     14.044     16.541
REMARK INTER + INTRA:         -10.022
REMARK INTER:                  -9.100
REMARK INTRA:                  -0.922
REMARK UNBOUND:                -0.609
REMARK SMILES COc1cc(CNC(=O)CCCCC/C=C/C(C)C)ccc1O
REMARK SMILES IDX 11 1 10 2 8 3 7 4 9 6 6 7 5 8 3 9 22 10 4 11 21 12 20 13
REMARK SMILES IDX 2 14 1 15 23 16 12 18 13 19 14 20 15 21 16 22 17 23 18 24
REMARK SMILES IDX 19 25
REMARK H PARENT 7 5 23 17
REMARK Flexibility Score: inf
ROOT
ATOM      1  C   UNL     1      96.436  95.981  79.547  1.00  0.00     0.010 C 
ENDROOT
BRANCH   1   2
ATOM      2  C   UNL     1      95.811  95.932  80.965  1.00  0.00     0.100 C 
BRANCH   2   3
ATOM      3  C   UNL     1      96.410  96.885  81.918  1.00  0.00     0.220 C 
ATOM      4  N   UNL     1      96.653  96.499  83.201  1.00  0.00    -0.352 N 
ATOM      5  H   UNL     1      96.325  95.571  83.431  1.00  0.00     0.163 HD
ATOM      6  O   UNL     1      96.719  98.027  81.503  1.00  0.00    -0.275 OA
BRANCH   4   7
ATOM      7  C   UNL     1      97.313  97.284  84.193  1.00  0.00     0.151 C 
BRANCH   7   8
ATOM      8  C   UNL     1      98.612  96.699  84.616  1.00  0.00    -0.025 A 
ATOM      9  C   UNL     1     100.527  96.639  86.157  1.00  0.00     0.160 A 
ATOM     10  C   UNL     1     101.116  95.615  85.385  1.00  0.00     0.157 A 
ATOM     11  C   UNL     1      99.286  97.179  85.762  1.00  0.00     0.056 A 
ATOM     12  C   UNL     1     100.446  95.117  84.252  1.00  0.00     0.050 A 
ATOM     13  C   UNL     1      99.198  95.648  83.876  1.00  0.00     0.009 A 
BRANCH   9  14
ATOM     14  O   UNL     1     101.128  97.070  87.310  1.00  0.00    -0.493 OA
ATOM     15  C   UNL     1     101.067  98.492  87.510  1.00  0.00     0.278 C 
ENDBRANCH   9  14
BRANCH  10  16
ATOM     16  O   UNL     1     102.322  95.088  85.714  1.00  0.00    -0.504 OA
ATOM     17  H   UNL     1     102.197  94.376  86.347  1.00  0.00     0.293 HD
ENDBRANCH  10  16
ENDBRANCH   7   8
ENDBRANCH   4   7
ENDBRANCH   2   3
ENDBRANCH   1   2
BRANCH   1  18
ATOM     18  C   UNL     1      96.217  94.644  78.793  1.00  0.00     0.001 C 
BRANCH  18  19
ATOM     19  C   UNL     1      95.642  93.514  79.683  1.00  0.00     0.004 C 
BRANCH  19  20
ATOM     20  C   UNL     1      94.258  93.032  79.165  1.00  0.00     0.027 C 
BRANCH  20  21
ATOM     21  C   UNL     1      93.641  93.942  78.215  1.00  0.00    -0.031 C 
ATOM     22  C   UNL     1      92.421  93.720  77.696  1.00  0.00    -0.028 C 
BRANCH  22  23
ATOM     23  C   UNL     1      91.771  94.618  76.744  1.00  0.00     0.005 C 
ATOM     24  C   UNL     1      90.229  94.554  76.911  1.00  0.00     0.012 C 
ATOM     25  C   UNL     1      92.322  96.061  76.904  1.00  0.00     0.012 C 
ENDBRANCH  22  23
ENDBRANCH  20  21
ENDBRANCH  19  20
ENDBRANCH  18  19
ENDBRANCH   1  18
TORSDOF 11
ENDMDL
MODEL 9
REMARK VINA RESULT:    -5.831      2.643      4.292
REMARK INTER + INTRA:         -10.019
REMARK INTER:                  -9.158
REMARK INTRA:                  -0.862
REMARK UNBOUND:                -0.609
REMARK SMILES COc1cc(CNC(=O)CCCCC/C=C/C(C)C)ccc1O
REMARK SMILES IDX 11 1 10 2 8 3 7 4 9 6 6 7 5 8 3 9 22 10 4 11 21 12 20 13
REMARK SMILES IDX 2 14 1 15 23 16 12 18 13 19 14 20 15 21 16 22 17 23 18 24
REMARK SMILES IDX 19 25
REMARK H PARENT 7 5 23 17
REMARK Flexibility Score: inf
ROOT
ATOM      1  C   UNL     1      97.451  80.951  78.435  1.00  0.00     0.010 C 
ENDROOT
BRANCH   1   2
ATOM      2  C   UNL     1      97.099  82.060  79.459  1.00  0.00     0.100 C 
BRANCH   2   3
ATOM      3  C   UNL     1      97.416  81.710  80.856  1.00  0.00     0.220 C 
ATOM      4  N   UNL     1      96.937  82.478  81.873  1.00  0.00    -0.352 N 
ATOM      5  H   UNL     1      96.439  83.306  81.577  1.00  0.00     0.163 HD
ATOM      6  O   UNL     1      98.093  80.677  81.072  1.00  0.00    -0.275 OA
BRANCH   4   7
ATOM      7  C   UNL     1      97.087  82.200  83.265  1.00  0.00     0.151 C 
BRANCH   7   8
ATOM      8  C   UNL     1      95.947  81.423  83.818  1.00  0.00    -0.025 A 
ATOM      9  C   UNL     1      94.911  79.269  84.397  1.00  0.00     0.160 A 
ATOM     10  C   UNL     1      93.747  79.945  84.825  1.00  0.00     0.157 A 
ATOM     11  C   UNL     1      95.996  80.011  83.889  1.00  0.00     0.056 A 
ATOM     12  C   UNL     1      93.694  81.350  84.775  1.00  0.00     0.050 A 
ATOM     13  C   UNL     1      94.789  82.085  84.285  1.00  0.00     0.009 A 
BRANCH   9  14
ATOM     14  O   UNL     1      95.007  77.909  84.523  1.00  0.00    -0.493 OA
ATOM     15  C   UNL     1      96.289  77.451  84.986  1.00  0.00     0.278 C 
ENDBRANCH   9  14
BRANCH  10  16
ATOM     16  O   UNL     1      92.670  79.267  85.294  1.00  0.00    -0.504 OA
ATOM     17  H   UNL     1      92.408  79.630  86.144  1.00  0.00     0.293 HD
ENDBRANCH  10  16
ENDBRANCH   7   8
ENDBRANCH   4   7
ENDBRANCH   2   3
ENDBRANCH   1   2
BRANCH   1  18
ATOM     18  C   UNL     1      96.665  81.140  77.112  1.00  0.00     0.001 C 
BRANCH  18  19
ATOM     19  C   UNL     1      95.884  82.476  77.038  1.00  0.00     0.004 C 
BRANCH  19  20
ATOM     20  C   UNL     1      96.027  83.140  75.639  1.00  0.00     0.027 C 
BRANCH  20  21
ATOM     21  C   UNL     1      97.397  83.200  75.159  1.00  0.00    -0.031 C 
ATOM     22  C   UNL     1      97.735  82.849  73.905  1.00  0.00    -0.028 C 
BRANCH  22  23
ATOM     23  C   UNL     1      99.101  82.903  73.390  1.00  0.00     0.005 C 
ATOM     24  C   UNL     1      99.359  81.718  72.423  1.00  0.00     0.012 C 
ATOM     25  C   UNL     1      99.368  84.279  72.721  1.00  0.00     0.012 C 
ENDBRANCH  22  23
ENDBRANCH  20  21
ENDBRANCH  19  20
ENDBRANCH  18  19
ENDBRANCH   1  18
TORSDOF 11
ENDMDL
MODEL 10
REMARK VINA RESULT:    -5.782     23.909     26.169
REMARK INTER + INTRA:          -9.940
REMARK INTER:                  -9.012
REMARK INTRA:                  -0.928
REMARK UNBOUND:                -0.609
REMARK SMILES COc1cc(CNC(=O)CCCCC/C=C/C(C)C)ccc1O
REMARK SMILES IDX 11 1 10 2 8 3 7 4 9 6 6 7 5 8 3 9 22 10 4 11 21 12 20 13
REMARK SMILES IDX 2 14 1 15 23 16 12 18 13 19 14 20 15 21 16 22 17 23 18 24
REMARK SMILES IDX 19 25
REMARK H PARENT 7 5 23 17
REMARK Flexibility Score: inf
ROOT
ATOM      1  C   UNL     1      77.382  85.947  68.063  1.00  0.00     0.010 C 
ENDROOT
BRANCH   1   2
ATOM      2  C   UNL     1      77.409  85.476  66.586  1.00  0.00     0.100 C 
BRANCH   2   3
ATOM      3  C   UNL     1      77.020  84.066  66.398  1.00  0.00     0.220 C 
ATOM      4  N   UNL     1      75.781  83.763  65.921  1.00  0.00    -0.352 N 
ATOM      5  H   UNL     1      75.171  84.559  65.795  1.00  0.00     0.163 HD
ATOM      6  O   UNL     1      77.867  83.176  66.648  1.00  0.00    -0.275 OA
BRANCH   4   7
ATOM      7  C   UNL     1      75.312  82.454  65.603  1.00  0.00     0.151 C 
BRANCH   7   8
ATOM      8  C   UNL     1      73.839  82.402  65.419  1.00  0.00    -0.025 A 
ATOM      9  C   UNL     1      71.629  83.472  65.566  1.00  0.00     0.160 A 
ATOM     10  C   UNL     1      71.022  82.279  65.117  1.00  0.00     0.157 A 
ATOM     11  C   UNL     1      73.029  83.522  65.723  1.00  0.00     0.056 A 
ATOM     12  C   UNL     1      71.819  81.165  64.796  1.00  0.00     0.050 A 
ATOM     13  C   UNL     1      73.218  81.229  64.936  1.00  0.00     0.009 A 
BRANCH   9  14
ATOM     14  O   UNL     1      70.872  84.590  65.798  1.00  0.00    -0.493 OA
ATOM     15  C   UNL     1      71.429  85.486  66.774  1.00  0.00     0.278 C 
ENDBRANCH   9  14
BRANCH  10  16
ATOM     16  O   UNL     1      69.676  82.181  64.980  1.00  0.00    -0.504 OA
ATOM     17  H   UNL     1      69.292  81.880  65.808  1.00  0.00     0.293 HD
ENDBRANCH  10  16
ENDBRANCH   7   8
ENDBRANCH   4   7
ENDBRANCH   2   3
ENDBRANCH   1   2
BRANCH   1  18
ATOM     18  C   UNL     1      76.734  87.349  68.191  1.00  0.00     0.001 C 
BRANCH  18  19
ATOM     19  C   UNL     1      75.322  87.443  67.559  1.00  0.00     0.004 C 
BRANCH  19  20
ATOM     20  C   UNL     1      74.210  87.192  68.615  1.00  0.00     0.027 C 
BRANCH  20  21
ATOM     21  C   UNL     1      73.768  88.396  69.296  1.00  0.00    -0.031 C 
ATOM     22  C   UNL     1      74.167  89.624  68.919  1.00  0.00    -0.028 C 
BRANCH  22  23
ATOM     23  C   UNL     1      73.737  90.854  69.579  1.00  0.00     0.005 C 
ATOM     24  C   UNL     1      72.737  90.530  70.721  1.00  0.00     0.012 C 
ATOM     25  C   UNL     1      74.970  91.651  70.084  1.00  0.00     0.012 C 
ENDBRANCH  22  23
ENDBRANCH  20  21
ENDBRANCH  19  20
ENDBRANCH  18  19
ENDBRANCH   1  18
TORSDOF 11
ENDMDL
