MODEL 1
REMARK VINA RESULT:    -5.961      0.000      0.000
REMARK INTER + INTRA:         -10.725
REMARK INTER:                  -9.272
REMARK INTRA:                  -1.453
REMARK UNBOUND:                -1.453
REMARK SMILES CCCCC/C=C/C(=O)CCc1ccc(O)c(OC)c1
REMARK SMILES IDX 6 1 7 2 8 3 9 4 10 5 11 6 12 7 17 8 20 9 15 10 14 11 13 12
REMARK SMILES IDX 18 13 19 14 16 15 5 17 4 18 3 19 2 20 1 21
REMARK H PARENT 16 16
REMARK Flexibility Score: inf
ROOT
ATOM      1  C   UNL     1      96.177  97.353  77.561  1.00  0.00    -0.023 C 
ATOM      2  C   UNL     1      96.686  96.726  78.628  1.00  0.00     0.043 C 
ENDROOT
BRANCH   2   3
ATOM      3  C   UNL     1      95.875  95.706  79.347  1.00  0.00     0.155 C 
ATOM      4  O   UNL     1      95.938  95.569  80.567  1.00  0.00    -0.295 OA
BRANCH   3   5
ATOM      5  C   UNL     1      95.005  94.808  78.490  1.00  0.00     0.085 C 
BRANCH   5   6
ATOM      6  C   UNL     1      93.523  95.147  78.656  1.00  0.00     0.044 C 
BRANCH   6   7
ATOM      7  C   UNL     1      92.702  94.808  77.434  1.00  0.00    -0.044 A 
ATOM      8  C   UNL     1      90.739  93.830  76.460  1.00  0.00     0.160 A 
ATOM      9  C   UNL     1      91.497  94.143  77.589  1.00  0.00     0.054 A 
ATOM     10  C   UNL     1      91.196  94.186  75.192  1.00  0.00     0.157 A 
ATOM     11  C   UNL     1      92.413  94.855  75.052  1.00  0.00     0.050 A 
ATOM     12  C   UNL     1      93.171  95.167  76.181  1.00  0.00     0.008 A 
BRANCH   8  13
ATOM     13  O   UNL     1      89.553  93.176  76.610  1.00  0.00    -0.493 OA
ATOM     14  C   UNL     1      89.606  91.756  76.733  1.00  0.00     0.278 C 
ENDBRANCH   8  13
BRANCH  10  15
ATOM     15  O   UNL     1      90.466  93.886  74.082  1.00  0.00    -0.504 OA
ATOM     16  H   UNL     1      89.530  93.825  74.340  1.00  0.00     0.293 HD
ENDBRANCH  10  15
ENDBRANCH   6   7
ENDBRANCH   5   6
ENDBRANCH   3   5
ENDBRANCH   2   3
BRANCH   1  17
ATOM     17  C   UNL     1      96.930  98.393  76.783  1.00  0.00     0.027 C 
BRANCH  17  18
ATOM     18  C   UNL     1      96.058  99.126  75.758  1.00  0.00     0.004 C 
BRANCH  18  19
ATOM     19  C   UNL     1      94.661  98.518  75.593  1.00  0.00     0.000 C 
BRANCH  19  20
ATOM     20  C   UNL     1      94.346  98.253  74.121  1.00  0.00    -0.003 C 
ATOM     21  C   UNL     1      95.109  97.048  73.596  1.00  0.00     0.004 C 
ENDBRANCH  19  20
ENDBRANCH  18  19
ENDBRANCH  17  18
ENDBRANCH   1  17
TORSDOF 10
ENDMDL
MODEL 2
REMARK VINA RESULT:    -5.961     28.506     33.698
REMARK INTER + INTRA:         -10.724
REMARK INTER:                  -9.866
REMARK INTRA:                  -0.858
REMARK UNBOUND:                -1.453
REMARK SMILES CCCCC/C=C/C(=O)CCc1ccc(O)c(OC)c1
REMARK SMILES IDX 6 1 7 2 8 3 9 4 10 5 11 6 12 7 17 8 20 9 15 10 14 11 13 12
REMARK SMILES IDX 18 13 19 14 16 15 5 17 4 18 3 19 2 20 1 21
REMARK H PARENT 16 16
REMARK Flexibility Score: inf
ROOT
ATOM      1  C   UNL     1      78.438  64.380  68.264  1.00  0.00    -0.023 C 
ATOM      2  C   UNL     1      78.544  64.290  69.596  1.00  0.00     0.043 C 
ENDROOT
BRANCH   2   3
ATOM      3  C   UNL     1      79.430  65.229  70.335  1.00  0.00     0.155 C 
ATOM      4  O   UNL     1      79.043  66.339  70.697  1.00  0.00    -0.295 OA
BRANCH   3   5
ATOM      5  C   UNL     1      80.855  64.769  70.573  1.00  0.00     0.085 C 
BRANCH   5   6
ATOM      6  C   UNL     1      81.843  65.929  70.445  1.00  0.00     0.044 C 
BRANCH   6   7
ATOM      7  C   UNL     1      82.459  66.325  71.766  1.00  0.00    -0.044 A 
ATOM      8  C   UNL     1      83.864  67.793  73.043  1.00  0.00     0.160 A 
ATOM      9  C   UNL     1      83.296  67.428  71.822  1.00  0.00     0.054 A 
ATOM     10  C   UNL     1      83.588  67.050  74.191  1.00  0.00     0.157 A 
ATOM     11  C   UNL     1      82.743  65.942  74.118  1.00  0.00     0.050 A 
ATOM     12  C   UNL     1      82.175  65.577  72.897  1.00  0.00     0.008 A 
BRANCH   8  13
ATOM     13  O   UNL     1      84.687  68.877  73.101  1.00  0.00    -0.493 OA
ATOM     14  C   UNL     1      85.984  68.738  72.524  1.00  0.00     0.278 C 
ENDBRANCH   8  13
BRANCH  10  15
ATOM     15  O   UNL     1      84.136  67.397  75.389  1.00  0.00    -0.504 OA
ATOM     16  H   UNL     1      84.121  68.367  75.462  1.00  0.00     0.293 HD
ENDBRANCH  10  15
ENDBRANCH   6   7
ENDBRANCH   5   6
ENDBRANCH   3   5
ENDBRANCH   2   3
BRANCH   1  17
ATOM     17  C   UNL     1      77.567  63.471  67.447  1.00  0.00     0.027 C 
BRANCH  17  18
ATOM     18  C   UNL     1      76.869  64.189  66.287  1.00  0.00     0.004 C 
BRANCH  18  19
ATOM     19  C   UNL     1      76.106  65.447  66.714  1.00  0.00     0.000 C 
BRANCH  19  20
ATOM     20  C   UNL     1      74.734  65.092  67.289  1.00  0.00    -0.003 C 
ATOM     21  C   UNL     1      74.694  65.289  68.796  1.00  0.00     0.004 C 
ENDBRANCH  19  20
ENDBRANCH  18  19
ENDBRANCH  17  18
ENDBRANCH   1  17
TORSDOF 10
ENDMDL
MODEL 3
REMARK VINA RESULT:    -5.911     30.902     34.541
REMARK INTER + INTRA:         -10.646
REMARK INTER:                  -9.840
REMARK INTRA:                  -0.807
REMARK UNBOUND:                -1.453
REMARK SMILES CCCCC/C=C/C(=O)CCc1ccc(O)c(OC)c1
REMARK SMILES IDX 6 1 7 2 8 3 9 4 10 5 11 6 12 7 17 8 20 9 15 10 14 11 13 12
REMARK SMILES IDX 18 13 19 14 16 15 5 17 4 18 3 19 2 20 1 21
REMARK H PARENT 16 16
REMARK Flexibility Score: inf
ROOT
ATOM      1  C   UNL     1      77.845  63.310  67.872  1.00  0.00    -0.023 C 
ATOM      2  C   UNL     1      78.206  64.483  68.407  1.00  0.00     0.043 C 
ENDROOT
BRANCH   2   3
ATOM      3  C   UNL     1      79.324  64.538  69.388  1.00  0.00     0.155 C 
ATOM      4  O   UNL     1      80.170  63.650  69.458  1.00  0.00    -0.295 OA
BRANCH   3   5
ATOM      5  C   UNL     1      79.335  65.723  70.335  1.00  0.00     0.085 C 
BRANCH   5   6
ATOM      6  C   UNL     1      79.837  65.320  71.722  1.00  0.00     0.044 C 
BRANCH   6   7
ATOM      7  C   UNL     1      81.237  65.811  72.006  1.00  0.00    -0.044 A 
ATOM      8  C   UNL     1      83.051  66.131  73.544  1.00  0.00     0.160 A 
ATOM      9  C   UNL     1      81.758  65.678  73.283  1.00  0.00     0.054 A 
ATOM     10  C   UNL     1      83.806  66.711  72.525  1.00  0.00     0.157 A 
ATOM     11  C   UNL     1      83.268  66.838  71.244  1.00  0.00     0.050 A 
ATOM     12  C   UNL     1      81.975  66.385  70.983  1.00  0.00     0.008 A 
BRANCH   8  13
ATOM     13  O   UNL     1      83.565  66.001  74.799  1.00  0.00    -0.493 OA
ATOM     14  C   UNL     1      83.786  64.675  75.276  1.00  0.00     0.278 C 
ENDBRANCH   8  13
BRANCH  10  15
ATOM     15  O   UNL     1      85.070  67.156  72.767  1.00  0.00    -0.504 OA
ATOM     16  H   UNL     1      85.013  68.060  73.122  1.00  0.00     0.293 HD
ENDBRANCH  10  15
ENDBRANCH   6   7
ENDBRANCH   5   6
ENDBRANCH   3   5
ENDBRANCH   2   3
BRANCH   1  17
ATOM     17  C   UNL     1      76.729  63.171  66.877  1.00  0.00     0.027 C 
BRANCH  17  18
ATOM     18  C   UNL     1      76.446  64.464  66.106  1.00  0.00     0.004 C 
BRANCH  18  19
ATOM     19  C   UNL     1      75.065  65.062  66.397  1.00  0.00     0.000 C 
BRANCH  19  20
ATOM     20  C   UNL     1      74.461  64.463  67.668  1.00  0.00    -0.003 C 
ATOM     21  C   UNL     1      74.659  65.380  68.864  1.00  0.00     0.004 C 
ENDBRANCH  19  20
ENDBRANCH  18  19
ENDBRANCH  17  18
ENDBRANCH   1  17
TORSDOF 10
ENDMDL
MODEL 4
REMARK VINA RESULT:    -5.753      3.117      6.936
REMARK INTER + INTRA:         -10.401
REMARK INTER:                  -9.578
REMARK INTRA:                  -0.823
REMARK UNBOUND:                -1.453
REMARK SMILES CCCCC/C=C/C(=O)CCc1ccc(O)c(OC)c1
REMARK SMILES IDX 6 1 7 2 8 3 9 4 10 5 11 6 12 7 17 8 20 9 15 10 14 11 13 12
REMARK SMILES IDX 18 13 19 14 16 15 5 17 4 18 3 19 2 20 1 21
REMARK H PARENT 16 16
REMARK Flexibility Score: inf
ROOT
ATOM      1  C   UNL     1      91.083  94.530  75.442  1.00  0.00    -0.023 C 
ATOM      2  C   UNL     1      90.920  95.138  76.623  1.00  0.00     0.043 C 
ENDROOT
BRANCH   2   3
ATOM      3  C   UNL     1      92.110  95.584  77.398  1.00  0.00     0.155 C 
ATOM      4  O   UNL     1      92.645  94.863  78.237  1.00  0.00    -0.295 OA
BRANCH   3   5
ATOM      5  C   UNL     1      92.597  96.996  77.137  1.00  0.00     0.085 C 
BRANCH   5   6
ATOM      6  C   UNL     1      94.104  97.025  76.877  1.00  0.00     0.044 C 
BRANCH   6   7
ATOM      7  C   UNL     1      94.449  97.440  75.466  1.00  0.00    -0.044 A 
ATOM      8  C   UNL     1      95.151  99.130  73.915  1.00  0.00     0.160 A 
ATOM      9  C   UNL     1      94.832  98.748  75.218  1.00  0.00     0.054 A 
ATOM     10  C   UNL     1      95.083  98.200  72.878  1.00  0.00     0.157 A 
ATOM     11  C   UNL     1      94.694  96.887  73.144  1.00  0.00     0.050 A 
ATOM     12  C   UNL     1      94.375  96.504  74.447  1.00  0.00     0.008 A 
BRANCH   8  13
ATOM     13  O   UNL     1      95.529 100.416  73.668  1.00  0.00    -0.493 OA
ATOM     14  C   UNL     1      94.488 101.381  73.526  1.00  0.00     0.278 C 
ENDBRANCH   8  13
BRANCH  10  15
ATOM     15  O   UNL     1      95.392  98.562  71.602  1.00  0.00    -0.504 OA
ATOM     16  H   UNL     1      94.584  98.894  71.174  1.00  0.00     0.293 HD
ENDBRANCH  10  15
ENDBRANCH   6   7
ENDBRANCH   5   6
ENDBRANCH   3   5
ENDBRANCH   2   3
BRANCH   1  17
ATOM     17  C   UNL     1      89.935  94.050  74.601  1.00  0.00     0.027 C 
BRANCH  17  18
ATOM     18  C   UNL     1      90.189  92.680  73.962  1.00  0.00     0.004 C 
BRANCH  18  19
ATOM     19  C   UNL     1      90.303  91.541  74.980  1.00  0.00     0.000 C 
BRANCH  19  20
ATOM     20  C   UNL     1      90.542  90.201  74.282  1.00  0.00    -0.003 C 
ATOM     21  C   UNL     1      89.901  89.053  75.047  1.00  0.00     0.004 C 
ENDBRANCH  19  20
ENDBRANCH  18  19
ENDBRANCH  17  18
ENDBRANCH   1  17
TORSDOF 10
ENDMDL
MODEL 5
REMARK VINA RESULT:    -5.752      2.463      7.302
REMARK INTER + INTRA:         -10.399
REMARK INTER:                  -9.815
REMARK INTRA:                  -0.585
REMARK UNBOUND:                -1.453
REMARK SMILES CCCCC/C=C/C(=O)CCc1ccc(O)c(OC)c1
REMARK SMILES IDX 6 1 7 2 8 3 9 4 10 5 11 6 12 7 17 8 20 9 15 10 14 11 13 12
REMARK SMILES IDX 18 13 19 14 16 15 5 17 4 18 3 19 2 20 1 21
REMARK H PARENT 16 16
REMARK Flexibility Score: inf
ROOT
ATOM      1  C   UNL     1      91.272  94.109  75.564  1.00  0.00    -0.023 C 
ATOM      2  C   UNL     1      91.328  94.928  76.621  1.00  0.00     0.043 C 
ENDROOT
BRANCH   2   3
ATOM      3  C   UNL     1      92.536  94.935  77.491  1.00  0.00     0.155 C 
ATOM      4  O   UNL     1      92.482  94.622  78.678  1.00  0.00    -0.295 OA
BRANCH   3   5
ATOM      5  C   UNL     1      93.829  95.399  76.849  1.00  0.00     0.085 C 
BRANCH   5   6
ATOM      6  C   UNL     1      95.045  94.945  77.658  1.00  0.00     0.044 C 
BRANCH   6   7
ATOM      7  C   UNL     1      95.465  95.952  78.702  1.00  0.00    -0.044 A 
ATOM      8  C   UNL     1      96.542  96.451  80.788  1.00  0.00     0.160 A 
ATOM      9  C   UNL     1      96.154  95.520  79.824  1.00  0.00     0.054 A 
ATOM     10  C   UNL     1      96.236  97.801  80.618  1.00  0.00     0.157 A 
ATOM     11  C   UNL     1      95.540  98.220  79.483  1.00  0.00     0.050 A 
ATOM     12  C   UNL     1      95.152  97.289  78.519  1.00  0.00     0.008 A 
BRANCH   8  13
ATOM     13  O   UNL     1      97.220  96.028  81.892  1.00  0.00    -0.493 OA
ATOM     14  C   UNL     1      98.591  95.677  81.716  1.00  0.00     0.278 C 
ENDBRANCH   8  13
BRANCH  10  15
ATOM     15  O   UNL     1      96.609  98.719  81.552  1.00  0.00    -0.504 OA
ATOM     16  H   UNL     1      96.779  98.252  82.388  1.00  0.00     0.293 HD
ENDBRANCH  10  15
ENDBRANCH   6   7
ENDBRANCH   5   6
ENDBRANCH   3   5
ENDBRANCH   2   3
BRANCH   1  17
ATOM     17  C   UNL     1      90.091  94.042  74.640  1.00  0.00     0.027 C 
BRANCH  17  18
ATOM     18  C   UNL     1      89.895  92.658  74.012  1.00  0.00     0.004 C 
BRANCH  18  19
ATOM     19  C   UNL     1      90.014  91.507  75.015  1.00  0.00     0.000 C 
BRANCH  19  20
ATOM     20  C   UNL     1      90.395  90.202  74.315  1.00  0.00    -0.003 C 
ATOM     21  C   UNL     1      89.922  88.989  75.100  1.00  0.00     0.004 C 
ENDBRANCH  19  20
ENDBRANCH  18  19
ENDBRANCH  17  18
ENDBRANCH   1  17
TORSDOF 10
ENDMDL
MODEL 6
REMARK VINA RESULT:    -5.589     14.047     16.124
REMARK INTER + INTRA:         -10.146
REMARK INTER:                  -9.547
REMARK INTRA:                  -0.598
REMARK UNBOUND:                -1.453
REMARK SMILES CCCCC/C=C/C(=O)CCc1ccc(O)c(OC)c1
REMARK SMILES IDX 6 1 7 2 8 3 9 4 10 5 11 6 12 7 17 8 20 9 15 10 14 11 13 12
REMARK SMILES IDX 18 13 19 14 16 15 5 17 4 18 3 19 2 20 1 21
REMARK H PARENT 16 16
REMARK Flexibility Score: inf
ROOT
ATOM      1  C   UNL     1      95.173  80.368  84.361  1.00  0.00    -0.023 C 
ATOM      2  C   UNL     1      93.978  80.909  84.626  1.00  0.00     0.043 C 
ENDROOT
BRANCH   2   3
ATOM      3  C   UNL     1      93.263  80.551  85.882  1.00  0.00     0.155 C 
ATOM      4  O   UNL     1      93.826  79.965  86.804  1.00  0.00    -0.295 OA
BRANCH   3   5
ATOM      5  C   UNL     1      91.789  80.899  85.944  1.00  0.00     0.085 C 
BRANCH   5   6
ATOM      6  C   UNL     1      91.393  81.843  84.807  1.00  0.00     0.044 C 
BRANCH   6   7
ATOM      7  C   UNL     1      89.940  81.715  84.416  1.00  0.00    -0.044 A 
ATOM      8  C   UNL     1      87.751  82.679  84.224  1.00  0.00     0.160 A 
ATOM      9  C   UNL     1      89.093  82.798  84.585  1.00  0.00     0.054 A 
ATOM     10  C   UNL     1      87.273  81.479  83.699  1.00  0.00     0.157 A 
ATOM     11  C   UNL     1      88.138  80.396  83.535  1.00  0.00     0.050 A 
ATOM     12  C   UNL     1      89.480  80.515  83.897  1.00  0.00     0.008 A 
BRANCH   8  13
ATOM     13  O   UNL     1      86.916  83.744  84.389  1.00  0.00    -0.493 OA
ATOM     14  C   UNL     1      86.591  84.111  85.728  1.00  0.00     0.278 C 
ENDBRANCH   8  13
BRANCH  10  15
ATOM     15  O   UNL     1      85.965  81.351  83.342  1.00  0.00    -0.504 OA
ATOM     16  H   UNL     1      85.416  81.536  84.123  1.00  0.00     0.293 HD
ENDBRANCH  10  15
ENDBRANCH   6   7
ENDBRANCH   5   6
ENDBRANCH   3   5
ENDBRANCH   2   3
BRANCH   1  17
ATOM     17  C   UNL     1      95.957  80.677  83.119  1.00  0.00     0.027 C 
BRANCH  17  18
ATOM     18  C   UNL     1      96.316  82.161  82.988  1.00  0.00     0.004 C 
BRANCH  18  19
ATOM     19  C   UNL     1      97.384  82.442  81.926  1.00  0.00     0.000 C 
BRANCH  19  20
ATOM     20  C   UNL     1      96.799  83.222  80.748  1.00  0.00    -0.003 C 
ATOM     21  C   UNL     1      97.542  82.921  79.456  1.00  0.00     0.004 C 
ENDBRANCH  19  20
ENDBRANCH  18  19
ENDBRANCH  17  18
ENDBRANCH   1  17
TORSDOF 10
ENDMDL
MODEL 7
REMARK VINA RESULT:    -5.486      2.301      6.314
REMARK INTER + INTRA:          -9.986
REMARK INTER:                  -8.911
REMARK INTRA:                  -1.074
REMARK UNBOUND:                -1.453
REMARK SMILES CCCCC/C=C/C(=O)CCc1ccc(O)c(OC)c1
REMARK SMILES IDX 6 1 7 2 8 3 9 4 10 5 11 6 12 7 17 8 20 9 15 10 14 11 13 12
REMARK SMILES IDX 18 13 19 14 16 15 5 17 4 18 3 19 2 20 1 21
REMARK H PARENT 16 16
REMARK Flexibility Score: inf
ROOT
ATOM      1  C   UNL     1      93.707  95.727  74.816  1.00  0.00    -0.023 C 
ATOM      2  C   UNL     1      93.806  96.841  74.079  1.00  0.00     0.043 C 
ENDROOT
BRANCH   2   3
ATOM      3  C   UNL     1      95.145  97.331  73.653  1.00  0.00     0.155 C 
ATOM      4  O   UNL     1      95.737  96.847  72.690  1.00  0.00    -0.295 OA
BRANCH   3   5
ATOM      5  C   UNL     1      95.766  98.424  74.501  1.00  0.00     0.085 C 
BRANCH   5   6
ATOM      6  C   UNL     1      95.007  98.605  75.816  1.00  0.00     0.044 C 
BRANCH   6   7
ATOM      7  C   UNL     1      95.738  98.017  77.001  1.00  0.00    -0.044 A 
ATOM      8  C   UNL     1      95.720  96.676  78.991  1.00  0.00     0.160 A 
ATOM      9  C   UNL     1      95.045  97.219  77.897  1.00  0.00     0.054 A 
ATOM     10  C   UNL     1      97.078  96.938  79.173  1.00  0.00     0.157 A 
ATOM     11  C   UNL     1      97.761  97.744  78.262  1.00  0.00     0.050 A 
ATOM     12  C   UNL     1      97.086  98.287  77.168  1.00  0.00     0.008 A 
BRANCH   8  13
ATOM     13  O   UNL     1      95.042  95.891  79.874  1.00  0.00    -0.493 OA
ATOM     14  C   UNL     1      94.912  94.509  79.546  1.00  0.00     0.278 C 
ENDBRANCH   8  13
BRANCH  10  15
ATOM     15  O   UNL     1      97.748  96.413  80.237  1.00  0.00    -0.504 OA
ATOM     16  H   UNL     1      97.193  95.721  80.636  1.00  0.00     0.293 HD
ENDBRANCH  10  15
ENDBRANCH   6   7
ENDBRANCH   5   6
ENDBRANCH   3   5
ENDBRANCH   2   3
BRANCH   1  17
ATOM     17  C   UNL     1      92.395  95.168  75.286  1.00  0.00     0.027 C 
BRANCH  17  18
ATOM     18  C   UNL     1      92.501  94.426  76.622  1.00  0.00     0.004 C 
BRANCH  18  19
ATOM     19  C   UNL     1      91.380  94.770  77.606  1.00  0.00     0.000 C 
BRANCH  19  20
ATOM     20  C   UNL     1      90.024  94.289  77.088  1.00  0.00    -0.003 C 
ATOM     21  C   UNL     1      89.884  92.780  77.210  1.00  0.00     0.004 C 
ENDBRANCH  19  20
ENDBRANCH  18  19
ENDBRANCH  17  18
ENDBRANCH   1  17
TORSDOF 10
ENDMDL
MODEL 8
REMARK VINA RESULT:    -5.317     13.012     15.930
REMARK INTER + INTRA:          -9.722
REMARK INTER:                  -9.132
REMARK INTRA:                  -0.591
REMARK UNBOUND:                -1.453
REMARK SMILES CCCCC/C=C/C(=O)CCc1ccc(O)c(OC)c1
REMARK SMILES IDX 6 1 7 2 8 3 9 4 10 5 11 6 12 7 17 8 20 9 15 10 14 11 13 12
REMARK SMILES IDX 18 13 19 14 16 15 5 17 4 18 3 19 2 20 1 21
REMARK H PARENT 16 16
REMARK Flexibility Score: inf
ROOT
ATOM      1  C   UNL     1      92.983  82.083  84.241  1.00  0.00    -0.023 C 
ATOM      2  C   UNL     1      94.066  82.364  84.977  1.00  0.00     0.043 C 
ENDROOT
BRANCH   2   3
ATOM      3  C   UNL     1      95.035  83.392  84.507  1.00  0.00     0.155 C 
ATOM      4  O   UNL     1      95.370  84.339  85.216  1.00  0.00    -0.295 OA
BRANCH   3   5
ATOM      5  C   UNL     1      95.548  83.240  83.089  1.00  0.00     0.085 C 
BRANCH   5   6
ATOM      6  C   UNL     1      96.452  82.014  82.954  1.00  0.00     0.044 C 
BRANCH   6   7
ATOM      7  C   UNL     1      96.930  81.789  81.539  1.00  0.00    -0.044 A 
ATOM      8  C   UNL     1      97.450  82.656  79.363  1.00  0.00     0.160 A 
ATOM      9  C   UNL     1      97.008  82.865  80.669  1.00  0.00     0.054 A 
ATOM     10  C   UNL     1      97.807  81.376  78.942  1.00  0.00     0.157 A 
ATOM     11  C   UNL     1      97.721  80.302  79.830  1.00  0.00     0.050 A 
ATOM     12  C   UNL     1      97.280  80.510  81.136  1.00  0.00     0.008 A 
BRANCH   8  13
ATOM     13  O   UNL     1      97.528  83.713  78.506  1.00  0.00    -0.493 OA
ATOM     14  C   UNL     1      96.386  83.975  77.694  1.00  0.00     0.278 C 
ENDBRANCH   8  13
BRANCH  10  15
ATOM     15  O   UNL     1      98.240  81.159  77.669  1.00  0.00    -0.504 OA
ATOM     16  H   UNL     1      97.709  81.711  77.069  1.00  0.00     0.293 HD
ENDBRANCH  10  15
ENDBRANCH   6   7
ENDBRANCH   5   6
ENDBRANCH   3   5
ENDBRANCH   2   3
BRANCH   1  17
ATOM     17  C   UNL     1      91.961  81.061  84.644  1.00  0.00     0.027 C 
BRANCH  17  18
ATOM     18  C   UNL     1      90.615  81.243  83.934  1.00  0.00     0.004 C 
BRANCH  18  19
ATOM     19  C   UNL     1      89.574  81.988  84.775  1.00  0.00     0.000 C 
BRANCH  19  20
ATOM     20  C   UNL     1      88.201  81.322  84.671  1.00  0.00    -0.003 C 
ATOM     21  C   UNL     1      88.254  80.070  83.810  1.00  0.00     0.004 C 
ENDBRANCH  19  20
ENDBRANCH  18  19
ENDBRANCH  17  18
ENDBRANCH   1  17
TORSDOF 10
ENDMDL
MODEL 9
REMARK VINA RESULT:    -5.314     12.771     14.676
REMARK INTER + INTRA:          -9.719
REMARK INTER:                  -9.053
REMARK INTRA:                  -0.666
REMARK UNBOUND:                -1.453
REMARK SMILES CCCCC/C=C/C(=O)CCc1ccc(O)c(OC)c1
REMARK SMILES IDX 6 1 7 2 8 3 9 4 10 5 11 6 12 7 17 8 20 9 15 10 14 11 13 12
REMARK SMILES IDX 18 13 19 14 16 15 5 17 4 18 3 19 2 20 1 21
REMARK H PARENT 16 16
REMARK Flexibility Score: inf
ROOT
ATOM      1  C   UNL     1      97.352  83.539  78.645  1.00  0.00    -0.023 C 
ATOM      2  C   UNL     1      96.385  83.793  77.755  1.00  0.00     0.043 C 
ENDROOT
BRANCH   2   3
ATOM      3  C   UNL     1      96.741  84.259  76.387  1.00  0.00     0.155 C 
ATOM      4  O   UNL     1      96.227  85.257  75.887  1.00  0.00    -0.295 OA
BRANCH   3   5
ATOM      5  C   UNL     1      97.732  83.406  75.618  1.00  0.00     0.085 C 
BRANCH   5   6
ATOM      6  C   UNL     1      97.484  83.489  74.111  1.00  0.00     0.044 C 
BRANCH   6   7
ATOM      7  C   UNL     1      98.648  84.089  73.357  1.00  0.00    -0.044 A 
ATOM      8  C   UNL     1     100.305  83.926  71.630  1.00  0.00     0.160 A 
ATOM      9  C   UNL     1      99.232  83.371  72.326  1.00  0.00     0.054 A 
ATOM     10  C   UNL     1     100.781  85.191  71.974  1.00  0.00     0.157 A 
ATOM     11  C   UNL     1     100.183  85.902  73.015  1.00  0.00     0.050 A 
ATOM     12  C   UNL     1      99.109  85.347  73.711  1.00  0.00     0.008 A 
BRANCH   8  13
ATOM     13  O   UNL     1     100.881  83.222  70.616  1.00  0.00    -0.493 OA
ATOM     14  C   UNL     1     101.519  81.994  70.959  1.00  0.00     0.278 C 
ENDBRANCH   8  13
BRANCH  10  15
ATOM     15  O   UNL     1     101.829  85.744  71.301  1.00  0.00    -0.504 OA
ATOM     16  H   UNL     1     102.263  85.044  70.784  1.00  0.00     0.293 HD
ENDBRANCH  10  15
ENDBRANCH   6   7
ENDBRANCH   5   6
ENDBRANCH   3   5
ENDBRANCH   2   3
BRANCH   1  17
ATOM     17  C   UNL     1      97.077  83.067  80.043  1.00  0.00     0.027 C 
BRANCH  17  18
ATOM     18  C   UNL     1      97.482  81.608  80.277  1.00  0.00     0.004 C 
BRANCH  18  19
ATOM     19  C   UNL     1      97.095  81.078  81.661  1.00  0.00     0.000 C 
BRANCH  19  20
ATOM     20  C   UNL     1      96.395  82.156  82.489  1.00  0.00    -0.003 C 
ATOM     21  C   UNL     1      97.198  82.514  83.730  1.00  0.00     0.004 C 
ENDBRANCH  19  20
ENDBRANCH  18  19
ENDBRANCH  17  18
ENDBRANCH   1  17
TORSDOF 10
ENDMDL
MODEL 10
REMARK VINA RESULT:    -5.204     20.437     23.856
REMARK INTER + INTRA:          -9.546
REMARK INTER:                  -8.433
REMARK INTRA:                  -1.114
REMARK UNBOUND:                -1.453
REMARK SMILES CCCCC/C=C/C(=O)CCc1ccc(O)c(OC)c1
REMARK SMILES IDX 6 1 7 2 8 3 9 4 10 5 11 6 12 7 17 8 20 9 15 10 14 11 13 12
REMARK SMILES IDX 18 13 19 14 16 15 5 17 4 18 3 19 2 20 1 21
REMARK H PARENT 16 16
REMARK Flexibility Score: inf
ROOT
ATOM      1  C   UNL     1      74.498  84.476  66.321  1.00  0.00    -0.023 C 
ATOM      2  C   UNL     1      75.731  83.959  66.242  1.00  0.00     0.043 C 
ENDROOT
BRANCH   2   3
ATOM      3  C   UNL     1      76.735  84.272  67.295  1.00  0.00     0.155 C 
ATOM      4  O   UNL     1      77.942  84.254  67.066  1.00  0.00    -0.295 OA
BRANCH   3   5
ATOM      5  C   UNL     1      76.193  84.564  68.681  1.00  0.00     0.085 C 
BRANCH   5   6
ATOM      6  C   UNL     1      76.892  85.771  69.308  1.00  0.00     0.044 C 
BRANCH   6   7
ATOM      7  C   UNL     1      76.484  87.080  68.676  1.00  0.00    -0.044 A 
ATOM      8  C   UNL     1      74.787  88.703  68.177  1.00  0.00     0.160 A 
ATOM      9  C   UNL     1      75.163  87.493  68.761  1.00  0.00     0.054 A 
ATOM     10  C   UNL     1      75.735  89.483  67.516  1.00  0.00     0.157 A 
ATOM     11  C   UNL     1      77.060  89.054  67.438  1.00  0.00     0.050 A 
ATOM     12  C   UNL     1      77.437  87.844  68.022  1.00  0.00     0.008 A 
BRANCH   8  13
ATOM     13  O   UNL     1      73.490  89.111  68.259  1.00  0.00    -0.493 OA
ATOM     14  C   UNL     1      72.566  88.524  67.343  1.00  0.00     0.278 C 
ENDBRANCH   8  13
BRANCH  10  15
ATOM     15  O   UNL     1      75.379  90.666  66.942  1.00  0.00    -0.504 OA
ATOM     16  H   UNL     1      74.781  91.133  67.550  1.00  0.00     0.293 HD
ENDBRANCH  10  15
ENDBRANCH   6   7
ENDBRANCH   5   6
ENDBRANCH   3   5
ENDBRANCH   2   3
BRANCH   1  17
ATOM     17  C   UNL     1      73.430  84.209  65.301  1.00  0.00     0.027 C 
BRANCH  17  18
ATOM     18  C   UNL     1      72.032  84.075  65.914  1.00  0.00     0.004 C 
BRANCH  18  19
ATOM     19  C   UNL     1      71.343  82.747  65.586  1.00  0.00     0.000 C 
BRANCH  19  20
ATOM     20  C   UNL     1      72.266  81.831  64.780  1.00  0.00    -0.003 C 
ATOM     21  C   UNL     1      71.816  81.721  63.332  1.00  0.00     0.004 C 
ENDBRANCH  19  20
ENDBRANCH  18  19
ENDBRANCH  17  18
ENDBRANCH   1  17
TORSDOF 10
ENDMDL
