MODEL 1
REMARK VINA RESULT:    -5.958      0.000      0.000
REMARK INTER + INTRA:          -9.959
REMARK INTER:                  -9.268
REMARK INTRA:                  -0.691
REMARK UNBOUND:                -0.691
REMARK SMILES COc1cc(CNC(=O)CCCC/C=C/C(C)C)ccc1O
REMARK SMILES IDX 10 1 8 2 7 3 9 5 6 6 5 7 3 8 21 9 4 10 20 11 19 12 2 13 1 14
REMARK SMILES IDX 22 15 11 17 12 18 13 19 14 20 15 21 16 22 17 23 18 24
REMARK H PARENT 7 4 22 16
REMARK Flexibility Score: inf
ROOT
ATOM      1  C   UNL     1      95.650  84.126  85.444  1.00  0.00     0.100 C 
ENDROOT
BRANCH   1   2
ATOM      2  C   UNL     1      94.557  84.731  86.231  1.00  0.00     0.220 C 
ATOM      3  N   UNL     1      94.826  85.401  87.386  1.00  0.00    -0.352 N 
ATOM      4  H   UNL     1      95.801  85.421  87.651  1.00  0.00     0.163 HD
ATOM      5  O   UNL     1      93.386  84.628  85.792  1.00  0.00    -0.275 OA
BRANCH   3   6
ATOM      6  C   UNL     1      93.846  86.047  88.200  1.00  0.00     0.151 C 
BRANCH   6   7
ATOM      7  C   UNL     1      94.165  87.488  88.399  1.00  0.00    -0.025 A 
ATOM      8  C   UNL     1      93.761  89.615  89.571  1.00  0.00     0.160 A 
ATOM      9  C   UNL     1      94.772  90.230  88.804  1.00  0.00     0.157 A 
ATOM     10  C   UNL     1      93.466  88.252  89.360  1.00  0.00     0.056 A 
ATOM     11  C   UNL     1      95.464  89.486  87.828  1.00  0.00     0.050 A 
ATOM     12  C   UNL     1      95.170  88.123  87.633  1.00  0.00     0.009 A 
BRANCH   8  13
ATOM     13  O   UNL     1      93.039  90.351  90.476  1.00  0.00    -0.493 OA
ATOM     14  C   UNL     1      91.741  90.753  90.003  1.00  0.00     0.278 C 
ENDBRANCH   8  13
BRANCH   9  15
ATOM     15  O   UNL     1      95.090  91.537  88.991  1.00  0.00    -0.504 OA
ATOM     16  H   UNL     1      95.805  91.605  89.628  1.00  0.00     0.293 HD
ENDBRANCH   9  15
ENDBRANCH   6   7
ENDBRANCH   3   6
ENDBRANCH   1   2
BRANCH   1  17
ATOM     17  C   UNL     1      96.073  85.035  84.259  1.00  0.00     0.010 C 
BRANCH  17  18
ATOM     18  C   UNL     1      96.983  84.304  83.231  1.00  0.00     0.005 C 
BRANCH  18  19
ATOM     19  C   UNL     1      96.730  82.773  83.203  1.00  0.00     0.027 C 
BRANCH  19  20
ATOM     20  C   UNL     1      97.138  82.174  81.941  1.00  0.00    -0.031 C 
ATOM     21  C   UNL     1      96.895  82.715  80.734  1.00  0.00    -0.028 C 
BRANCH  21  22
ATOM     22  C   UNL     1      97.332  82.105  79.478  1.00  0.00     0.005 C 
ATOM     23  C   UNL     1      96.413  82.489  78.286  1.00  0.00     0.012 C 
ATOM     24  C   UNL     1      98.807  82.483  79.184  1.00  0.00     0.012 C 
ENDBRANCH  21  22
ENDBRANCH  19  20
ENDBRANCH  18  19
ENDBRANCH  17  18
ENDBRANCH   1  17
TORSDOF 10
ENDMDL
MODEL 2
REMARK VINA RESULT:    -5.867     12.848     16.077
REMARK INTER + INTRA:          -9.816
REMARK INTER:                  -8.616
REMARK INTRA:                  -1.201
REMARK UNBOUND:                -0.691
REMARK SMILES COc1cc(CNC(=O)CCCC/C=C/C(C)C)ccc1O
REMARK SMILES IDX 10 1 8 2 7 3 9 5 6 6 5 7 3 8 21 9 4 10 20 11 19 12 2 13 1 14
REMARK SMILES IDX 22 15 11 17 12 18 13 19 14 20 15 21 16 22 17 23 18 24
REMARK H PARENT 7 4 22 16
REMARK Flexibility Score: inf
ROOT
ATOM      1  C   UNL     1      83.256  91.412  89.071  1.00  0.00     0.100 C 
ENDROOT
BRANCH   1   2
ATOM      2  C   UNL     1      83.616  90.806  87.775  1.00  0.00     0.220 C 
ATOM      3  N   UNL     1      82.756  90.868  86.720  1.00  0.00    -0.352 N 
ATOM      4  H   UNL     1      81.877  91.328  86.913  1.00  0.00     0.163 HD
ATOM      5  O   UNL     1      84.740  90.258  87.669  1.00  0.00    -0.275 OA
BRANCH   3   6
ATOM      6  C   UNL     1      83.022  90.343  85.419  1.00  0.00     0.151 C 
BRANCH   6   7
ATOM      7  C   UNL     1      82.075  89.250  85.067  1.00  0.00    -0.025 A 
ATOM      8  C   UNL     1      81.514  86.853  85.016  1.00  0.00     0.160 A 
ATOM      9  C   UNL     1      80.272  87.156  84.420  1.00  0.00     0.157 A 
ATOM     10  C   UNL     1      82.403  87.902  85.332  1.00  0.00     0.056 A 
ATOM     11  C   UNL     1      79.939  88.494  84.132  1.00  0.00     0.050 A 
ATOM     12  C   UNL     1      80.828  89.535  84.461  1.00  0.00     0.009 A 
BRANCH   8  13
ATOM     13  O   UNL     1      81.870  85.548  85.238  1.00  0.00    -0.493 OA
ATOM     14  C   UNL     1      82.797  85.369  86.325  1.00  0.00     0.278 C 
ENDBRANCH   8  13
BRANCH   9  15
ATOM     15  O   UNL     1      79.388  86.171  84.115  1.00  0.00    -0.504 OA
ATOM     16  H   UNL     1      78.622  86.239  84.690  1.00  0.00     0.293 HD
ENDBRANCH   9  15
ENDBRANCH   6   7
ENDBRANCH   3   6
ENDBRANCH   1   2
BRANCH   1  17
ATOM     17  C   UNL     1      83.553  90.452  90.254  1.00  0.00     0.010 C 
BRANCH  17  18
ATOM     18  C   UNL     1      82.465  90.503  91.363  1.00  0.00     0.005 C 
BRANCH  18  19
ATOM     19  C   UNL     1      81.026  90.459  90.781  1.00  0.00     0.027 C 
BRANCH  19  20
ATOM     20  C   UNL     1      80.618  89.106  90.433  1.00  0.00    -0.031 C 
ATOM     21  C   UNL     1      79.475  88.803  89.792  1.00  0.00    -0.028 C 
BRANCH  21  22
ATOM     22  C   UNL     1      79.093  87.436  89.435  1.00  0.00     0.005 C 
ATOM     23  C   UNL     1      79.746  86.971  88.103  1.00  0.00     0.012 C 
ATOM     24  C   UNL     1      79.442  86.463  90.591  1.00  0.00     0.012 C 
ENDBRANCH  21  22
ENDBRANCH  19  20
ENDBRANCH  18  19
ENDBRANCH  17  18
ENDBRANCH   1  17
TORSDOF 10
ENDMDL
MODEL 3
REMARK VINA RESULT:    -5.802     12.853     15.384
REMARK INTER + INTRA:          -9.716
REMARK INTER:                  -8.322
REMARK INTRA:                  -1.395
REMARK UNBOUND:                -0.691
REMARK SMILES COc1cc(CNC(=O)CCCC/C=C/C(C)C)ccc1O
REMARK SMILES IDX 10 1 8 2 7 3 9 5 6 6 5 7 3 8 21 9 4 10 20 11 19 12 2 13 1 14
REMARK SMILES IDX 22 15 11 17 12 18 13 19 14 20 15 21 16 22 17 23 18 24
REMARK H PARENT 7 4 22 16
REMARK Flexibility Score: inf
ROOT
ATOM      1  C   UNL     1      80.779  90.690  90.203  1.00  0.00     0.100 C 
ENDROOT
BRANCH   1   2
ATOM      2  C   UNL     1      80.160  89.769  89.230  1.00  0.00     0.220 C 
ATOM      3  N   UNL     1      79.952  88.462  89.551  1.00  0.00    -0.352 N 
ATOM      4  H   UNL     1      80.273  88.192  90.470  1.00  0.00     0.163 HD
ATOM      5  O   UNL     1      79.811  90.231  88.116  1.00  0.00    -0.275 OA
BRANCH   3   6
ATOM      6  C   UNL     1      79.333  87.500  88.695  1.00  0.00     0.151 C 
BRANCH   6   7
ATOM      7  C   UNL     1      80.330  86.824  87.821  1.00  0.00    -0.025 A 
ATOM      8  C   UNL     1      81.106  86.191  85.572  1.00  0.00     0.160 A 
ATOM      9  C   UNL     1      82.232  85.557  86.138  1.00  0.00     0.157 A 
ATOM     10  C   UNL     1      80.166  86.816  86.418  1.00  0.00     0.056 A 
ATOM     11  C   UNL     1      82.398  85.540  87.537  1.00  0.00     0.050 A 
ATOM     12  C   UNL     1      81.460  86.177  88.373  1.00  0.00     0.009 A 
BRANCH   8  13
ATOM     13  O   UNL     1      80.905  86.153  84.215  1.00  0.00    -0.493 OA
ATOM     14  C   UNL     1      80.856  87.450  83.593  1.00  0.00     0.278 C 
ENDBRANCH   8  13
BRANCH   9  15
ATOM     15  O   UNL     1      83.162  84.957  85.351  1.00  0.00    -0.504 OA
ATOM     16  H   UNL     1      84.017  85.369  85.495  1.00  0.00     0.293 HD
ENDBRANCH   9  15
ENDBRANCH   6   7
ENDBRANCH   3   6
ENDBRANCH   1   2
BRANCH   1  17
ATOM     17  C   UNL     1      82.159  91.201  89.708  1.00  0.00     0.010 C 
BRANCH  17  18
ATOM     18  C   UNL     1      82.093  92.630  89.100  1.00  0.00     0.005 C 
BRANCH  18  19
ATOM     19  C   UNL     1      83.223  92.886  88.067  1.00  0.00     0.027 C 
BRANCH  19  20
ATOM     20  C   UNL     1      83.344  91.798  87.108  1.00  0.00    -0.031 C 
ATOM     21  C   UNL     1      84.494  91.155  86.836  1.00  0.00    -0.028 C 
BRANCH  21  22
ATOM     22  C   UNL     1      84.589  90.050  85.882  1.00  0.00     0.005 C 
ATOM     23  C   UNL     1      83.599  88.899  86.213  1.00  0.00     0.012 C 
ATOM     24  C   UNL     1      84.372  90.568  84.437  1.00  0.00     0.012 C 
ENDBRANCH  21  22
ENDBRANCH  19  20
ENDBRANCH  18  19
ENDBRANCH  17  18
ENDBRANCH   1  17
TORSDOF 10
ENDMDL
MODEL 4
REMARK VINA RESULT:    -5.757      4.686      7.352
REMARK INTER + INTRA:          -9.645
REMARK INTER:                  -8.810
REMARK INTRA:                  -0.835
REMARK UNBOUND:                -0.691
REMARK SMILES COc1cc(CNC(=O)CCCC/C=C/C(C)C)ccc1O
REMARK SMILES IDX 10 1 8 2 7 3 9 5 6 6 5 7 3 8 21 9 4 10 20 11 19 12 2 13 1 14
REMARK SMILES IDX 22 15 11 17 12 18 13 19 14 20 15 21 16 22 17 23 18 24
REMARK H PARENT 7 4 22 16
REMARK Flexibility Score: inf
ROOT
ATOM      1  C   UNL     1      98.393  82.287  78.660  1.00  0.00     0.100 C 
ENDROOT
BRANCH   1   2
ATOM      2  C   UNL     1      98.284  81.758  80.033  1.00  0.00     0.220 C 
ATOM      3  N   UNL     1      97.156  81.969  80.768  1.00  0.00    -0.352 N 
ATOM      4  H   UNL     1      96.444  82.520  80.308  1.00  0.00     0.163 HD
ATOM      5  O   UNL     1      99.245  81.093  80.490  1.00  0.00    -0.275 OA
BRANCH   3   6
ATOM      6  C   UNL     1      96.939  81.473  82.089  1.00  0.00     0.151 C 
BRANCH   6   7
ATOM      7  C   UNL     1      96.642  82.576  83.045  1.00  0.00    -0.025 A 
ATOM      8  C   UNL     1      95.540  83.376  85.096  1.00  0.00     0.160 A 
ATOM      9  C   UNL     1      96.082  84.661  84.886  1.00  0.00     0.157 A 
ATOM     10  C   UNL     1      95.823  82.347  84.173  1.00  0.00     0.056 A 
ATOM     11  C   UNL     1      96.884  84.909  83.755  1.00  0.00     0.050 A 
ATOM     12  C   UNL     1      97.171  83.872  82.845  1.00  0.00     0.009 A 
BRANCH   8  13
ATOM     13  O   UNL     1      94.705  83.147  86.160  1.00  0.00    -0.493 OA
ATOM     14  C   UNL     1      93.309  83.111  85.813  1.00  0.00     0.278 C 
ENDBRANCH   8  13
BRANCH   9  15
ATOM     15  O   UNL     1      95.840  85.670  85.762  1.00  0.00    -0.504 OA
ATOM     16  H   UNL     1      96.144  86.500  85.388  1.00  0.00     0.293 HD
ENDBRANCH   9  15
ENDBRANCH   6   7
ENDBRANCH   3   6
ENDBRANCH   1   2
BRANCH   1  17
ATOM     17  C   UNL     1      97.031  82.824  78.144  1.00  0.00     0.010 C 
BRANCH  17  18
ATOM     18  C   UNL     1      97.142  83.523  76.759  1.00  0.00     0.005 C 
BRANCH  18  19
ATOM     19  C   UNL     1      97.176  82.507  75.586  1.00  0.00     0.027 C 
BRANCH  19  20
ATOM     20  C   UNL     1      98.474  82.473  74.928  1.00  0.00    -0.031 C 
ATOM     21  C   UNL     1      99.312  83.523  74.856  1.00  0.00    -0.028 C 
BRANCH  21  22
ATOM     22  C   UNL     1     100.621  83.461  74.207  1.00  0.00     0.005 C 
ATOM     23  C   UNL     1     101.146  84.867  73.804  1.00  0.00     0.012 C 
ATOM     24  C   UNL     1     101.639  82.732  75.121  1.00  0.00     0.012 C 
ENDBRANCH  21  22
ENDBRANCH  19  20
ENDBRANCH  18  19
ENDBRANCH  17  18
ENDBRANCH   1  17
TORSDOF 10
ENDMDL
MODEL 5
REMARK VINA RESULT:    -5.709     13.803     15.065
REMARK INTER + INTRA:          -9.570
REMARK INTER:                  -8.277
REMARK INTRA:                  -1.293
REMARK UNBOUND:                -0.691
REMARK SMILES COc1cc(CNC(=O)CCCC/C=C/C(C)C)ccc1O
REMARK SMILES IDX 10 1 8 2 7 3 9 5 6 6 5 7 3 8 21 9 4 10 20 11 19 12 2 13 1 14
REMARK SMILES IDX 22 15 11 17 12 18 13 19 14 20 15 21 16 22 17 23 18 24
REMARK H PARENT 7 4 22 16
REMARK Flexibility Score: inf
ROOT
ATOM      1  C   UNL     1      81.312  89.055  84.134  1.00  0.00     0.100 C 
ENDROOT
BRANCH   1   2
ATOM      2  C   UNL     1      80.647  89.725  85.268  1.00  0.00     0.220 C 
ATOM      3  N   UNL     1      81.213  89.712  86.508  1.00  0.00    -0.352 N 
ATOM      4  H   UNL     1      82.082  89.200  86.574  1.00  0.00     0.163 HD
ATOM      5  O   UNL     1      79.565  90.322  85.052  1.00  0.00    -0.275 OA
BRANCH   3   6
ATOM      6  C   UNL     1      80.668  90.355  87.660  1.00  0.00     0.151 C 
BRANCH   6   7
ATOM      7  C   UNL     1      81.739  90.850  88.568  1.00  0.00    -0.025 A 
ATOM      8  C   UNL     1      83.082  92.712  89.458  1.00  0.00     0.160 A 
ATOM      9  C   UNL     1      83.764  91.815  90.306  1.00  0.00     0.157 A 
ATOM     10  C   UNL     1      82.079  92.221  88.596  1.00  0.00     0.056 A 
ATOM     11  C   UNL     1      83.449  90.442  90.275  1.00  0.00     0.050 A 
ATOM     12  C   UNL     1      82.438  89.963  89.419  1.00  0.00     0.009 A 
BRANCH   8  13
ATOM     13  O   UNL     1      83.430  94.038  89.437  1.00  0.00    -0.493 OA
ATOM     14  C   UNL     1      82.325  94.932  89.207  1.00  0.00     0.278 C 
ENDBRANCH   8  13
BRANCH   9  15
ATOM     15  O   UNL     1      84.726  92.256  91.157  1.00  0.00    -0.504 OA
ATOM     16  H   UNL     1      84.948  93.166  90.946  1.00  0.00     0.293 HD
ENDBRANCH   9  15
ENDBRANCH   6   7
ENDBRANCH   3   6
ENDBRANCH   1   2
BRANCH   1  17
ATOM     17  C   UNL     1      80.348  88.090  83.394  1.00  0.00     0.010 C 
BRANCH  17  18
ATOM     18  C   UNL     1      79.789  86.969  84.315  1.00  0.00     0.005 C 
BRANCH  18  19
ATOM     19  C   UNL     1      80.895  85.990  84.792  1.00  0.00     0.027 C 
BRANCH  19  20
ATOM     20  C   UNL     1      80.938  85.877  86.242  1.00  0.00    -0.031 C 
ATOM     21  C   UNL     1      80.149  86.575  87.078  1.00  0.00    -0.028 C 
BRANCH  21  22
ATOM     22  C   UNL     1      80.196  86.431  88.533  1.00  0.00     0.005 C 
ATOM     23  C   UNL     1      81.617  86.690  89.106  1.00  0.00     0.012 C 
ATOM     24  C   UNL     1      79.152  87.365  89.198  1.00  0.00     0.012 C 
ENDBRANCH  21  22
ENDBRANCH  19  20
ENDBRANCH  18  19
ENDBRANCH  17  18
ENDBRANCH   1  17
TORSDOF 10
ENDMDL
MODEL 6
REMARK VINA RESULT:    -5.635     13.019     16.583
REMARK INTER + INTRA:          -9.456
REMARK INTER:                  -8.514
REMARK INTRA:                  -0.942
REMARK UNBOUND:                -0.691
REMARK SMILES COc1cc(CNC(=O)CCCC/C=C/C(C)C)ccc1O
REMARK SMILES IDX 10 1 8 2 7 3 9 5 6 6 5 7 3 8 21 9 4 10 20 11 19 12 2 13 1 14
REMARK SMILES IDX 22 15 11 17 12 18 13 19 14 20 15 21 16 22 17 23 18 24
REMARK H PARENT 7 4 22 16
REMARK Flexibility Score: inf
ROOT
ATOM      1  C   UNL     1      83.142  91.663  88.934  1.00  0.00     0.100 C 
ENDROOT
BRANCH   1   2
ATOM      2  C   UNL     1      83.496  90.840  87.761  1.00  0.00     0.220 C 
ATOM      3  N   UNL     1      82.924  91.083  86.548  1.00  0.00    -0.352 N 
ATOM      4  H   UNL     1      82.246  91.833  86.538  1.00  0.00     0.163 HD
ATOM      5  O   UNL     1      84.350  89.934  87.910  1.00  0.00    -0.275 OA
BRANCH   3   6
ATOM      6  C   UNL     1      83.221  90.367  85.349  1.00  0.00     0.151 C 
BRANCH   6   7
ATOM      7  C   UNL     1      82.211  89.308  85.080  1.00  0.00    -0.025 A 
ATOM      8  C   UNL     1      81.560  86.934  85.097  1.00  0.00     0.160 A 
ATOM      9  C   UNL     1      80.289  87.278  84.591  1.00  0.00     0.157 A 
ATOM     10  C   UNL     1      82.508  87.951  85.334  1.00  0.00     0.056 A 
ATOM     11  C   UNL     1      79.985  88.626  84.313  1.00  0.00     0.050 A 
ATOM     12  C   UNL     1      80.935  89.635  84.565  1.00  0.00     0.009 A 
BRANCH   8  13
ATOM     13  O   UNL     1      81.883  85.617  85.306  1.00  0.00    -0.493 OA
ATOM     14  C   UNL     1      82.666  85.387  86.492  1.00  0.00     0.278 C 
ENDBRANCH   8  13
BRANCH   9  15
ATOM     15  O   UNL     1      79.348  86.325  84.363  1.00  0.00    -0.504 OA
ATOM     16  H   UNL     1      79.634  85.757  83.644  1.00  0.00     0.293 HD
ENDBRANCH   9  15
ENDBRANCH   6   7
ENDBRANCH   3   6
ENDBRANCH   1   2
BRANCH   1  17
ATOM     17  C   UNL     1      81.753  91.274  89.508  1.00  0.00     0.010 C 
BRANCH  17  18
ATOM     18  C   UNL     1      80.671  92.363  89.263  1.00  0.00     0.005 C 
BRANCH  18  19
ATOM     19  C   UNL     1      80.713  93.489  90.331  1.00  0.00     0.027 C 
BRANCH  19  20
ATOM     20  C   UNL     1      81.351  94.696  89.829  1.00  0.00    -0.031 C 
ATOM     21  C   UNL     1      81.691  94.893  88.542  1.00  0.00    -0.028 C 
BRANCH  21  22
ATOM     22  C   UNL     1      82.314  96.124  88.056  1.00  0.00     0.005 C 
ATOM     23  C   UNL     1      83.620  95.848  87.260  1.00  0.00     0.012 C 
ATOM     24  C   UNL     1      81.306  96.933  87.200  1.00  0.00     0.012 C 
ENDBRANCH  21  22
ENDBRANCH  19  20
ENDBRANCH  18  19
ENDBRANCH  17  18
ENDBRANCH   1  17
TORSDOF 10
ENDMDL
MODEL 7
REMARK VINA RESULT:    -5.560     12.439     14.848
REMARK INTER + INTRA:          -9.339
REMARK INTER:                  -7.580
REMARK INTRA:                  -1.759
REMARK UNBOUND:                -0.691
REMARK SMILES COc1cc(CNC(=O)CCCC/C=C/C(C)C)ccc1O
REMARK SMILES IDX 10 1 8 2 7 3 9 5 6 6 5 7 3 8 21 9 4 10 20 11 19 12 2 13 1 14
REMARK SMILES IDX 22 15 11 17 12 18 13 19 14 20 15 21 16 22 17 23 18 24
REMARK H PARENT 7 4 22 16
REMARK Flexibility Score: inf
ROOT
ATOM      1  C   UNL     1      84.683  90.053  85.475  1.00  0.00     0.100 C 
ENDROOT
BRANCH   1   2
ATOM      2  C   UNL     1      84.243  90.549  86.793  1.00  0.00     0.220 C 
ATOM      3  N   UNL     1      83.906  89.676  87.783  1.00  0.00    -0.352 N 
ATOM      4  H   UNL     1      83.961  88.699  87.528  1.00  0.00     0.163 HD
ATOM      5  O   UNL     1      84.211  91.790  86.979  1.00  0.00    -0.275 OA
BRANCH   3   6
ATOM      6  C   UNL     1      83.499  90.053  89.099  1.00  0.00     0.151 C 
BRANCH   6   7
ATOM      7  C   UNL     1      82.021  89.972  89.259  1.00  0.00    -0.025 A 
ATOM      8  C   UNL     1      80.057  89.277  90.571  1.00  0.00     0.160 A 
ATOM      9  C   UNL     1      79.206  89.826  89.589  1.00  0.00     0.157 A 
ATOM     10  C   UNL     1      81.455  89.353  90.396  1.00  0.00     0.056 A 
ATOM     11  C   UNL     1      79.757  90.430  88.441  1.00  0.00     0.050 A 
ATOM     12  C   UNL     1      81.154  90.511  88.281  1.00  0.00     0.009 A 
BRANCH   8  13
ATOM     13  O   UNL     1      79.525  88.630  91.657  1.00  0.00    -0.493 OA
ATOM     14  C   UNL     1      79.705  87.202  91.637  1.00  0.00     0.278 C 
ENDBRANCH   8  13
BRANCH   9  15
ATOM     15  O   UNL     1      77.857  89.782  89.733  1.00  0.00    -0.504 OA
ATOM     16  H   UNL     1      77.482  89.202  89.067  1.00  0.00     0.293 HD
ENDBRANCH   9  15
ENDBRANCH   6   7
ENDBRANCH   3   6
ENDBRANCH   1   2
BRANCH   1  17
ATOM     17  C   UNL     1      83.612  90.307  84.381  1.00  0.00     0.010 C 
BRANCH  17  18
ATOM     18  C   UNL     1      82.159  90.116  84.900  1.00  0.00     0.005 C 
BRANCH  18  19
ATOM     19  C   UNL     1      81.350  89.111  84.037  1.00  0.00     0.027 C 
BRANCH  19  20
ATOM     20  C   UNL     1      81.195  87.824  84.697  1.00  0.00    -0.031 C 
ATOM     21  C   UNL     1      81.407  87.616  86.009  1.00  0.00    -0.028 C 
BRANCH  21  22
ATOM     22  C   UNL     1      81.226  86.317  86.656  1.00  0.00     0.005 C 
ATOM     23  C   UNL     1      82.518  85.454  86.617  1.00  0.00     0.012 C 
ATOM     24  C   UNL     1      80.732  86.507  88.113  1.00  0.00     0.012 C 
ENDBRANCH  21  22
ENDBRANCH  19  20
ENDBRANCH  18  19
ENDBRANCH  17  18
ENDBRANCH   1  17
TORSDOF 10
ENDMDL
MODEL 8
REMARK VINA RESULT:    -5.489     12.983     17.264
REMARK INTER + INTRA:          -9.228
REMARK INTER:                  -8.660
REMARK INTRA:                  -0.569
REMARK UNBOUND:                -0.691
REMARK SMILES COc1cc(CNC(=O)CCCC/C=C/C(C)C)ccc1O
REMARK SMILES IDX 10 1 8 2 7 3 9 5 6 6 5 7 3 8 21 9 4 10 20 11 19 12 2 13 1 14
REMARK SMILES IDX 22 15 11 17 12 18 13 19 14 20 15 21 16 22 17 23 18 24
REMARK H PARENT 7 4 22 16
REMARK Flexibility Score: inf
ROOT
ATOM      1  C   UNL     1      82.962  93.676  88.325  1.00  0.00     0.100 C 
ENDROOT
BRANCH   1   2
ATOM      2  C   UNL     1      83.162  92.220  88.188  1.00  0.00     0.220 C 
ATOM      3  N   UNL     1      83.952  91.721  87.196  1.00  0.00    -0.352 N 
ATOM      4  H   UNL     1      84.349  92.414  86.577  1.00  0.00     0.163 HD
ATOM      5  O   UNL     1      82.605  91.465  89.021  1.00  0.00    -0.275 OA
BRANCH   3   6
ATOM      6  C   UNL     1      84.234  90.335  86.998  1.00  0.00     0.151 C 
BRANCH   6   7
ATOM      7  C   UNL     1      83.253  89.704  86.074  1.00  0.00    -0.025 A 
ATOM      8  C   UNL     1      82.176  87.683  85.170  1.00  0.00     0.160 A 
ATOM      9  C   UNL     1      81.373  88.485  84.332  1.00  0.00     0.157 A 
ATOM     10  C   UNL     1      83.109  88.299  86.030  1.00  0.00     0.056 A 
ATOM     11  C   UNL     1      81.519  89.886  84.351  1.00  0.00     0.050 A 
ATOM     12  C   UNL     1      82.445  90.493  85.222  1.00  0.00     0.009 A 
BRANCH   8  13
ATOM     13  O   UNL     1      82.083  86.316  85.107  1.00  0.00    -0.493 OA
ATOM     14  C   UNL     1      81.051  85.759  85.941  1.00  0.00     0.278 C 
ENDBRANCH   8  13
BRANCH   9  15
ATOM     15  O   UNL     1      80.456  87.924  83.502  1.00  0.00    -0.504 OA
ATOM     16  H   UNL     1      80.386  86.985  83.688  1.00  0.00     0.293 HD
ENDBRANCH   9  15
ENDBRANCH   6   7
ENDBRANCH   3   6
ENDBRANCH   1   2
BRANCH   1  17
ATOM     17  C   UNL     1      83.911  94.474  87.391  1.00  0.00     0.010 C 
BRANCH  17  18
ATOM     18  C   UNL     1      83.378  95.897  87.060  1.00  0.00     0.005 C 
BRANCH  18  19
ATOM     19  C   UNL     1      82.029  96.201  87.767  1.00  0.00     0.027 C 
BRANCH  19  20
ATOM     20  C   UNL     1      81.132  96.975  86.922  1.00  0.00    -0.031 C 
ATOM     21  C   UNL     1      80.234  97.863  87.387  1.00  0.00    -0.028 C 
BRANCH  21  22
ATOM     22  C   UNL     1      79.355  98.645  86.518  1.00  0.00     0.005 C 
ATOM     23  C   UNL     1      77.959  97.985  86.346  1.00  0.00     0.012 C 
ATOM     24  C   UNL     1      79.219 100.093  87.056  1.00  0.00     0.012 C 
ENDBRANCH  21  22
ENDBRANCH  19  20
ENDBRANCH  18  19
ENDBRANCH  17  18
ENDBRANCH   1  17
TORSDOF 10
ENDMDL
MODEL 9
REMARK VINA RESULT:    -5.365      9.143     12.648
REMARK INTER + INTRA:          -9.035
REMARK INTER:                  -7.767
REMARK INTRA:                  -1.269
REMARK UNBOUND:                -0.691
REMARK SMILES COc1cc(CNC(=O)CCCC/C=C/C(C)C)ccc1O
REMARK SMILES IDX 10 1 8 2 7 3 9 5 6 6 5 7 3 8 21 9 4 10 20 11 19 12 2 13 1 14
REMARK SMILES IDX 22 15 11 17 12 18 13 19 14 20 15 21 16 22 17 23 18 24
REMARK H PARENT 7 4 22 16
REMARK Flexibility Score: inf
ROOT
ATOM      1  C   UNL     1      96.311  81.752  78.568  1.00  0.00     0.100 C 
ENDROOT
BRANCH   1   2
ATOM      2  C   UNL     1      96.874  82.361  77.347  1.00  0.00     0.220 C 
ATOM      3  N   UNL     1      97.088  81.607  76.233  1.00  0.00    -0.352 N 
ATOM      4  H   UNL     1      96.857  80.628  76.330  1.00  0.00     0.163 HD
ATOM      5  O   UNL     1      97.124  83.591  77.361  1.00  0.00    -0.275 OA
BRANCH   3   6
ATOM      6  C   UNL     1      97.597  82.106  74.996  1.00  0.00     0.151 C 
BRANCH   6   7
ATOM      7  C   UNL     1      99.085  82.135  74.989  1.00  0.00    -0.025 A 
ATOM      8  C   UNL     1     101.189  83.377  74.681  1.00  0.00     0.160 A 
ATOM      9  C   UNL     1     101.922  82.212  74.990  1.00  0.00     0.157 A 
ATOM     10  C   UNL     1      99.779  83.327  74.681  1.00  0.00     0.056 A 
ATOM     11  C   UNL     1     101.244  81.012  75.280  1.00  0.00     0.050 A 
ATOM     12  C   UNL     1      99.836  80.974  75.289  1.00  0.00     0.009 A 
BRANCH   8  13
ATOM     13  O   UNL     1     101.844  84.531  74.334  1.00  0.00    -0.493 OA
ATOM     14  C   UNL     1     101.432  85.082  73.069  1.00  0.00     0.278 C 
ENDBRANCH   8  13
BRANCH   9  15
ATOM     15  O   UNL     1     103.280  82.230  75.011  1.00  0.00    -0.504 OA
ATOM     16  H   UNL     1     103.584  83.065  75.373  1.00  0.00     0.293 HD
ENDBRANCH   9  15
ENDBRANCH   6   7
ENDBRANCH   3   6
ENDBRANCH   1   2
BRANCH   1  17
ATOM     17  C   UNL     1      96.755  82.514  79.845  1.00  0.00     0.010 C 
BRANCH  17  18
ATOM     18  C   UNL     1      97.879  81.778  80.629  1.00  0.00     0.005 C 
BRANCH  18  19
ATOM     19  C   UNL     1      99.239  82.523  80.549  1.00  0.00     0.027 C 
BRANCH  19  20
ATOM     20  C   UNL     1     100.368  81.605  80.577  1.00  0.00    -0.031 C 
ATOM     21  C   UNL     1     100.927  81.061  79.482  1.00  0.00    -0.028 C 
BRANCH  21  22
ATOM     22  C   UNL     1     102.075  80.155  79.532  1.00  0.00     0.005 C 
ATOM     23  C   UNL     1     103.093  80.430  78.391  1.00  0.00     0.012 C 
ATOM     24  C   UNL     1     102.763  80.240  80.920  1.00  0.00     0.012 C 
ENDBRANCH  21  22
ENDBRANCH  19  20
ENDBRANCH  18  19
ENDBRANCH  17  18
ENDBRANCH   1  17
TORSDOF 10
ENDMDL
MODEL 10
REMARK VINA RESULT:    -5.286      5.193      8.281
REMARK INTER + INTRA:          -8.913
REMARK INTER:                  -8.390
REMARK INTRA:                  -0.523
REMARK UNBOUND:                -0.691
REMARK SMILES COc1cc(CNC(=O)CCCC/C=C/C(C)C)ccc1O
REMARK SMILES IDX 10 1 8 2 7 3 9 5 6 6 5 7 3 8 21 9 4 10 20 11 19 12 2 13 1 14
REMARK SMILES IDX 22 15 11 17 12 18 13 19 14 20 15 21 16 22 17 23 18 24
REMARK H PARENT 7 4 22 16
REMARK Flexibility Score: inf
ROOT
ATOM      1  C   UNL     1      98.519  82.872  78.001  1.00  0.00     0.100 C 
ENDROOT
BRANCH   1   2
ATOM      2  C   UNL     1      98.394  81.968  79.160  1.00  0.00     0.220 C 
ATOM      3  N   UNL     1      98.007  82.450  80.374  1.00  0.00    -0.352 N 
ATOM      4  H   UNL     1      97.847  83.448  80.406  1.00  0.00     0.163 HD
ATOM      5  O   UNL     1      98.630  80.747  78.988  1.00  0.00    -0.275 OA
BRANCH   3   6
ATOM      6  C   UNL     1      97.826  81.656  81.547  1.00  0.00     0.151 C 
BRANCH   6   7
ATOM      7  C   UNL     1      97.484  82.495  82.728  1.00  0.00    -0.025 A 
ATOM      8  C   UNL     1      97.778  83.037  85.112  1.00  0.00     0.160 A 
ATOM      9  C   UNL     1      96.857  84.098  84.985  1.00  0.00     0.157 A 
ATOM     10  C   UNL     1      98.081  82.246  83.984  1.00  0.00     0.056 A 
ATOM     11  C   UNL     1      96.239  84.347  83.744  1.00  0.00     0.050 A 
ATOM     12  C   UNL     1      96.557  83.558  82.621  1.00  0.00     0.009 A 
BRANCH   8  13
ATOM     13  O   UNL     1      98.333  82.750  86.333  1.00  0.00    -0.493 OA
ATOM     14  C   UNL     1      99.644  83.310  86.529  1.00  0.00     0.278 C 
ENDBRANCH   8  13
BRANCH   9  15
ATOM     15  O   UNL     1      96.554  84.887  86.048  1.00  0.00    -0.504 OA
ATOM     16  H   UNL     1      95.796  85.437  85.833  1.00  0.00     0.293 HD
ENDBRANCH   9  15
ENDBRANCH   6   7
ENDBRANCH   3   6
ENDBRANCH   1   2
BRANCH   1  17
ATOM     17  C   UNL     1      97.136  83.187  77.369  1.00  0.00     0.010 C 
BRANCH  17  18
ATOM     18  C   UNL     1      97.180  83.244  75.816  1.00  0.00     0.005 C 
BRANCH  18  19
ATOM     19  C   UNL     1      98.459  82.584  75.236  1.00  0.00     0.027 C 
BRANCH  19  20
ATOM     20  C   UNL     1      99.378  83.565  74.679  1.00  0.00    -0.031 C 
ATOM     21  C   UNL     1     100.610  83.275  74.223  1.00  0.00    -0.028 C 
BRANCH  21  22
ATOM     22  C   UNL     1     101.509  84.275  73.649  1.00  0.00     0.005 C 
ATOM     23  C   UNL     1     102.732  84.563  74.564  1.00  0.00     0.012 C 
ATOM     24  C   UNL     1     101.969  83.834  72.235  1.00  0.00     0.012 C 
ENDBRANCH  21  22
ENDBRANCH  19  20
ENDBRANCH  18  19
ENDBRANCH  17  18
ENDBRANCH   1  17
TORSDOF 10
ENDMDL
