MODEL 1
REMARK VINA RESULT:    -5.812      0.000      0.000
REMARK INTER + INTRA:         -11.281
REMARK INTER:                  -9.719
REMARK INTRA:                  -1.562
REMARK UNBOUND:                -1.562
REMARK SMILES COc1cc(CNC(=O)CCCCCCCC(C)C)ccc1O
REMARK SMILES IDX 11 1 10 2 8 3 9 4 7 5 6 7 5 8 4 9 20 10 3 11 21 12 22 13
REMARK SMILES IDX 2 14 1 15 23 16 12 18 13 19 14 20 15 21 16 22 17 23 18 24
REMARK SMILES IDX 19 25
REMARK H PARENT 7 6 23 17
REMARK Flexibility Score: inf
ROOT
ATOM      1  C   UNL     1      94.746  95.244  74.506  1.00  0.00     0.010 C 
ENDROOT
BRANCH   1   2
ATOM      2  C   UNL     1      95.031  96.684  74.927  1.00  0.00     0.100 C 
BRANCH   2   3
ATOM      3  C   UNL     1      96.482  96.894  75.327  1.00  0.00     0.220 C 
ATOM      4  O   UNL     1      97.357  97.236  74.536  1.00  0.00    -0.275 OA
ATOM      5  N   UNL     1      96.679  96.643  76.677  1.00  0.00    -0.352 N 
ATOM      6  H   UNL     1      95.894  96.353  77.254  1.00  0.00     0.163 HD
BRANCH   5   7
ATOM      7  C   UNL     1      97.970  96.760  77.315  1.00  0.00     0.151 C 
BRANCH   7   8
ATOM      8  C   UNL     1      98.030  95.997  78.606  1.00  0.00    -0.025 A 
ATOM      9  C   UNL     1      96.901  95.922  79.413  1.00  0.00     0.056 A 
ATOM     10  C   UNL     1      99.214  95.374  78.982  1.00  0.00     0.009 A 
ATOM     11  C   UNL     1      96.956  95.213  80.613  1.00  0.00     0.160 A 
ATOM     12  C   UNL     1      99.269  94.666  80.183  1.00  0.00     0.050 A 
ATOM     13  C   UNL     1      98.141  94.585  80.999  1.00  0.00     0.157 A 
BRANCH  11  14
ATOM     14  O   UNL     1      95.847  95.142  81.402  1.00  0.00    -0.493 OA
ATOM     15  C   UNL     1      95.573  96.266  82.237  1.00  0.00     0.278 C 
ENDBRANCH  11  14
BRANCH  13  16
ATOM     16  O   UNL     1      98.207  93.890  82.168  1.00  0.00    -0.504 OA
ATOM     17  H   UNL     1      99.049  94.094  82.610  1.00  0.00     0.293 HD
ENDBRANCH  13  16
ENDBRANCH   7   8
ENDBRANCH   5   7
ENDBRANCH   2   3
ENDBRANCH   1   2
BRANCH   1  18
ATOM     18  C   UNL     1      93.964  94.446  75.553  1.00  0.00     0.001 C 
BRANCH  18  19
ATOM     19  C   UNL     1      94.813  93.665  76.563  1.00  0.00     0.000 C 
BRANCH  19  20
ATOM     20  C   UNL     1      94.108  93.448  77.905  1.00  0.00     0.000 C 
BRANCH  20  21
ATOM     21  C   UNL     1      92.701  94.054  77.960  1.00  0.00     0.000 C 
BRANCH  21  22
ATOM     22  C   UNL     1      91.591  93.002  78.053  1.00  0.00     0.003 C 
BRANCH  22  23
ATOM     23  C   UNL     1      90.562  93.093  76.910  1.00  0.00    -0.017 C 
ATOM     24  C   UNL     1      91.010  92.214  75.740  1.00  0.00     0.007 C 
ATOM     25  C   UNL     1      90.351  94.527  76.423  1.00  0.00     0.007 C 
ENDBRANCH  22  23
ENDBRANCH  21  22
ENDBRANCH  20  21
ENDBRANCH  19  20
ENDBRANCH  18  19
ENDBRANCH   1  18
TORSDOF 12
ENDMDL
MODEL 2
REMARK VINA RESULT:    -5.763      1.381      2.405
REMARK INTER + INTRA:         -11.199
REMARK INTER:                  -9.168
REMARK INTRA:                  -2.031
REMARK UNBOUND:                -1.562
REMARK SMILES COc1cc(CNC(=O)CCCCCCCC(C)C)ccc1O
REMARK SMILES IDX 11 1 10 2 8 3 9 4 7 5 6 7 5 8 4 9 20 10 3 11 21 12 22 13
REMARK SMILES IDX 2 14 1 15 23 16 12 18 13 19 14 20 15 21 16 22 17 23 18 24
REMARK SMILES IDX 19 25
REMARK H PARENT 7 6 23 17
REMARK Flexibility Score: inf
ROOT
ATOM      1  C   UNL     1      94.813  95.970  74.248  1.00  0.00     0.010 C 
ENDROOT
BRANCH   1   2
ATOM      2  C   UNL     1      95.368  97.269  74.828  1.00  0.00     0.100 C 
BRANCH   2   3
ATOM      3  C   UNL     1      96.830  97.146  75.227  1.00  0.00     0.220 C 
ATOM      4  O   UNL     1      97.758  97.288  74.436  1.00  0.00    -0.275 OA
ATOM      5  N   UNL     1      96.967  96.849  76.575  1.00  0.00    -0.352 N 
ATOM      6  H   UNL     1      96.137  96.738  77.151  1.00  0.00     0.163 HD
BRANCH   5   7
ATOM      7  C   UNL     1      98.252  96.671  77.211  1.00  0.00     0.151 C 
BRANCH   7   8
ATOM      8  C   UNL     1      98.114  96.228  78.639  1.00  0.00    -0.025 A 
ATOM      9  C   UNL     1      97.126  96.787  79.440  1.00  0.00     0.056 A 
ATOM     10  C   UNL     1      98.978  95.264  79.144  1.00  0.00     0.009 A 
ATOM     11  C   UNL     1      96.999  96.375  80.767  1.00  0.00     0.160 A 
ATOM     12  C   UNL     1      98.851  94.852  80.472  1.00  0.00     0.050 A 
ATOM     13  C   UNL     1      97.862  95.408  81.283  1.00  0.00     0.157 A 
BRANCH  11  14
ATOM     14  O   UNL     1      96.029  96.925  81.550  1.00  0.00    -0.493 OA
ATOM     15  C   UNL     1      96.258  98.249  82.030  1.00  0.00     0.278 C 
ENDBRANCH  11  14
BRANCH  13  16
ATOM     16  O   UNL     1      97.747  94.997  82.577  1.00  0.00    -0.504 OA
ATOM     17  H   UNL     1      98.634  94.809  82.929  1.00  0.00     0.293 HD
ENDBRANCH  13  16
ENDBRANCH   7   8
ENDBRANCH   5   7
ENDBRANCH   2   3
ENDBRANCH   1   2
BRANCH   1  18
ATOM     18  C   UNL     1      94.111  95.089  75.285  1.00  0.00     0.001 C 
BRANCH  18  19
ATOM     19  C   UNL     1      93.071  95.795  76.161  1.00  0.00     0.000 C 
BRANCH  19  20
ATOM     20  C   UNL     1      92.420  94.868  77.192  1.00  0.00     0.000 C 
BRANCH  20  21
ATOM     21  C   UNL     1      93.154  93.534  77.362  1.00  0.00     0.000 C 
BRANCH  21  22
ATOM     22  C   UNL     1      93.545  93.237  78.814  1.00  0.00     0.003 C 
BRANCH  22  23
ATOM     23  C   UNL     1      95.026  93.530  79.123  1.00  0.00    -0.017 C 
ATOM     24  C   UNL     1      95.896  93.098  77.940  1.00  0.00     0.007 C 
ATOM     25  C   UNL     1      95.508  92.833  80.396  1.00  0.00     0.007 C 
ENDBRANCH  22  23
ENDBRANCH  21  22
ENDBRANCH  20  21
ENDBRANCH  19  20
ENDBRANCH  18  19
ENDBRANCH   1  18
TORSDOF 12
ENDMDL
MODEL 3
REMARK VINA RESULT:    -5.580     12.893     14.492
REMARK INTER + INTRA:         -10.893
REMARK INTER:                  -9.804
REMARK INTRA:                  -1.089
REMARK UNBOUND:                -1.562
REMARK SMILES COc1cc(CNC(=O)CCCCCCCC(C)C)ccc1O
REMARK SMILES IDX 11 1 10 2 8 3 9 4 7 5 6 7 5 8 4 9 20 10 3 11 21 12 22 13
REMARK SMILES IDX 2 14 1 15 23 16 12 18 13 19 14 20 15 21 16 22 17 23 18 24
REMARK SMILES IDX 19 25
REMARK H PARENT 7 6 23 17
REMARK Flexibility Score: inf
ROOT
ATOM      1  C   UNL     1      97.239  81.987  78.045  1.00  0.00     0.010 C 
ENDROOT
BRANCH   1   2
ATOM      2  C   UNL     1      95.925  82.492  77.454  1.00  0.00     0.100 C 
BRANCH   2   3
ATOM      3  C   UNL     1      96.095  83.037  76.046  1.00  0.00     0.220 C 
ATOM      4  O   UNL     1      95.607  84.100  75.672  1.00  0.00    -0.275 OA
ATOM      5  N   UNL     1      96.853  82.185  75.258  1.00  0.00    -0.352 N 
ATOM      6  H   UNL     1      97.207  81.318  75.653  1.00  0.00     0.163 HD
BRANCH   5   7
ATOM      7  C   UNL     1      97.158  82.463  73.873  1.00  0.00     0.151 C 
BRANCH   7   8
ATOM      8  C   UNL     1      98.597  82.844  73.681  1.00  0.00    -0.025 A 
ATOM      9  C   UNL     1      99.600  81.974  74.093  1.00  0.00     0.056 A 
ATOM     10  C   UNL     1      98.912  84.063  73.094  1.00  0.00     0.009 A 
ATOM     11  C   UNL     1     100.937  82.329  73.915  1.00  0.00     0.160 A 
ATOM     12  C   UNL     1     100.250  84.418  72.916  1.00  0.00     0.050 A 
ATOM     13  C   UNL     1     101.263  83.551  73.327  1.00  0.00     0.157 A 
BRANCH  11  14
ATOM     14  O   UNL     1     101.917  81.474  74.321  1.00  0.00    -0.493 OA
ATOM     15  C   UNL     1     102.125  80.305  73.530  1.00  0.00     0.278 C 
ENDBRANCH  11  14
BRANCH  13  16
ATOM     16  O   UNL     1     102.565  83.909  73.147  1.00  0.00    -0.504 OA
ATOM     17  H   UNL     1     103.080  83.628  73.923  1.00  0.00     0.293 HD
ENDBRANCH  13  16
ENDBRANCH   7   8
ENDBRANCH   5   7
ENDBRANCH   2   3
ENDBRANCH   1   2
BRANCH   1  18
ATOM     18  C   UNL     1      97.288  82.057  79.574  1.00  0.00     0.001 C 
BRANCH  18  19
ATOM     19  C   UNL     1      98.003  80.894  80.270  1.00  0.00     0.000 C 
BRANCH  19  20
ATOM     20  C   UNL     1      97.042  79.861  80.864  1.00  0.00     0.000 C 
BRANCH  20  21
ATOM     21  C   UNL     1      96.998  79.879  82.396  1.00  0.00     0.000 C 
BRANCH  21  22
ATOM     22  C   UNL     1      97.531  81.181  83.003  1.00  0.00     0.003 C 
BRANCH  22  23
ATOM     23  C   UNL     1      96.434  82.052  83.645  1.00  0.00    -0.017 C 
ATOM     24  C   UNL     1      95.195  81.199  83.929  1.00  0.00     0.007 C 
ATOM     25  C   UNL     1      96.047  83.246  82.771  1.00  0.00     0.007 C 
ENDBRANCH  22  23
ENDBRANCH  21  22
ENDBRANCH  20  21
ENDBRANCH  19  20
ENDBRANCH  18  19
ENDBRANCH   1  18
TORSDOF 12
ENDMDL
MODEL 4
REMARK VINA RESULT:    -5.488     14.543     16.969
REMARK INTER + INTRA:         -10.739
REMARK INTER:                  -9.825
REMARK INTRA:                  -0.915
REMARK UNBOUND:                -1.562
REMARK SMILES COc1cc(CNC(=O)CCCCCCCC(C)C)ccc1O
REMARK SMILES IDX 11 1 10 2 8 3 9 4 7 5 6 7 5 8 4 9 20 10 3 11 21 12 22 13
REMARK SMILES IDX 2 14 1 15 23 16 12 18 13 19 14 20 15 21 16 22 17 23 18 24
REMARK SMILES IDX 19 25
REMARK H PARENT 7 6 23 17
REMARK Flexibility Score: inf
ROOT
ATOM      1  C   UNL     1      95.565  80.333  83.538  1.00  0.00     0.010 C 
ENDROOT
BRANCH   1   2
ATOM      2  C   UNL     1      95.331  81.791  83.927  1.00  0.00     0.100 C 
BRANCH   2   3
ATOM      3  C   UNL     1      94.280  81.939  85.015  1.00  0.00     0.220 C 
ATOM      4  O   UNL     1      94.548  82.239  86.175  1.00  0.00    -0.275 OA
ATOM      5  N   UNL     1      93.005  81.685  84.530  1.00  0.00    -0.352 N 
ATOM      6  H   UNL     1      92.881  81.431  83.553  1.00  0.00     0.163 HD
BRANCH   5   7
ATOM      7  C   UNL     1      91.824  81.748  85.360  1.00  0.00     0.151 C 
BRANCH   7   8
ATOM      8  C   UNL     1      90.797  80.733  84.951  1.00  0.00    -0.025 A 
ATOM      9  C   UNL     1      89.448  81.066  84.989  1.00  0.00     0.056 A 
ATOM     10  C   UNL     1      91.205  79.470  84.541  1.00  0.00     0.009 A 
ATOM     11  C   UNL     1      88.493  80.123  84.609  1.00  0.00     0.160 A 
ATOM     12  C   UNL     1      90.249  78.526  84.162  1.00  0.00     0.050 A 
ATOM     13  C   UNL     1      88.894  78.852  84.196  1.00  0.00     0.157 A 
BRANCH  11  14
ATOM     14  O   UNL     1      87.172  80.453  84.648  1.00  0.00    -0.493 OA
ATOM     15  C   UNL     1      86.752  81.539  83.823  1.00  0.00     0.278 C 
ENDBRANCH  11  14
BRANCH  13  16
ATOM     16  O   UNL     1      87.971  77.922  83.823  1.00  0.00    -0.504 OA
ATOM     17  H   UNL     1      88.338  77.034  83.972  1.00  0.00     0.293 HD
ENDBRANCH  13  16
ENDBRANCH   7   8
ENDBRANCH   5   7
ENDBRANCH   2   3
ENDBRANCH   1   2
BRANCH   1  18
ATOM     18  C   UNL     1      96.383  80.168  82.254  1.00  0.00     0.001 C 
BRANCH  18  19
ATOM     19  C   UNL     1      97.206  81.388  81.829  1.00  0.00     0.000 C 
BRANCH  19  20
ATOM     20  C   UNL     1      96.718  82.021  80.523  1.00  0.00     0.000 C 
BRANCH  20  21
ATOM     21  C   UNL     1      97.701  81.851  79.359  1.00  0.00     0.000 C 
BRANCH  21  22
ATOM     22  C   UNL     1      97.565  80.504  78.642  1.00  0.00     0.003 C 
BRANCH  22  23
ATOM     23  C   UNL     1      98.891  79.726  78.540  1.00  0.00    -0.017 C 
ATOM     24  C   UNL     1      99.889  80.268  79.566  1.00  0.00     0.007 C 
ATOM     25  C   UNL     1      99.505  79.794  77.141  1.00  0.00     0.007 C 
ENDBRANCH  22  23
ENDBRANCH  21  22
ENDBRANCH  20  21
ENDBRANCH  19  20
ENDBRANCH  18  19
ENDBRANCH   1  18
TORSDOF 12
ENDMDL
MODEL 5
REMARK VINA RESULT:    -5.374      2.935      5.422
REMARK INTER + INTRA:         -10.550
REMARK INTER:                  -9.282
REMARK INTRA:                  -1.267
REMARK UNBOUND:                -1.562
REMARK SMILES COc1cc(CNC(=O)CCCCCCCC(C)C)ccc1O
REMARK SMILES IDX 11 1 10 2 8 3 9 4 7 5 6 7 5 8 4 9 20 10 3 11 21 12 22 13
REMARK SMILES IDX 2 14 1 15 23 16 12 18 13 19 14 20 15 21 16 22 17 23 18 24
REMARK SMILES IDX 19 25
REMARK H PARENT 7 6 23 17
REMARK Flexibility Score: inf
ROOT
ATOM      1  C   UNL     1      95.664  96.543  74.903  1.00  0.00     0.010 C 
ENDROOT
BRANCH   1   2
ATOM      2  C   UNL     1      94.811  95.394  74.371  1.00  0.00     0.100 C 
BRANCH   2   3
ATOM      3  C   UNL     1      94.044  94.684  75.474  1.00  0.00     0.220 C 
ATOM      4  O   UNL     1      93.346  93.693  75.280  1.00  0.00    -0.275 OA
ATOM      5  N   UNL     1      94.230  95.301  76.703  1.00  0.00    -0.352 N 
ATOM      6  H   UNL     1      94.819  96.127  76.765  1.00  0.00     0.163 HD
BRANCH   5   7
ATOM      7  C   UNL     1      93.605  94.831  77.918  1.00  0.00     0.151 C 
BRANCH   7   8
ATOM      8  C   UNL     1      94.616  94.497  78.976  1.00  0.00    -0.025 A 
ATOM      9  C   UNL     1      95.451  95.493  79.467  1.00  0.00     0.056 A 
ATOM     10  C   UNL     1      94.706  93.196  79.453  1.00  0.00     0.009 A 
ATOM     11  C   UNL     1      96.391  95.183  80.451  1.00  0.00     0.160 A 
ATOM     12  C   UNL     1      95.647  92.885  80.436  1.00  0.00     0.050 A 
ATOM     13  C   UNL     1      96.489  93.878  80.935  1.00  0.00     0.157 A 
BRANCH  11  14
ATOM     14  O   UNL     1      97.208  96.162  80.930  1.00  0.00    -0.493 OA
ATOM     15  C   UNL     1      96.600  97.187  81.715  1.00  0.00     0.278 C 
ENDBRANCH  11  14
BRANCH  13  16
ATOM     16  O   UNL     1      97.402  93.563  81.895  1.00  0.00    -0.504 OA
ATOM     17  H   UNL     1      98.022  94.305  81.998  1.00  0.00     0.293 HD
ENDBRANCH  13  16
ENDBRANCH   7   8
ENDBRANCH   5   7
ENDBRANCH   2   3
ENDBRANCH   1   2
BRANCH   1  18
ATOM     18  C   UNL     1      95.103  97.927  74.564  1.00  0.00     0.001 C 
BRANCH  18  19
ATOM     19  C   UNL     1      93.952  97.948  73.553  1.00  0.00     0.000 C 
BRANCH  19  20
ATOM     20  C   UNL     1      93.794  99.296  72.844  1.00  0.00     0.000 C 
BRANCH  20  21
ATOM     21  C   UNL     1      94.123  99.240  71.348  1.00  0.00     0.000 C 
BRANCH  21  22
ATOM     22  C   UNL     1      95.561  98.800  71.059  1.00  0.00     0.003 C 
BRANCH  22  23
ATOM     23  C   UNL     1      95.652  97.496  70.241  1.00  0.00    -0.017 C 
ATOM     24  C   UNL     1      96.269  96.389  71.100  1.00  0.00     0.007 C 
ATOM     25  C   UNL     1      96.465  97.665  68.957  1.00  0.00     0.007 C 
ENDBRANCH  22  23
ENDBRANCH  21  22
ENDBRANCH  20  21
ENDBRANCH  19  20
ENDBRANCH  18  19
ENDBRANCH   1  18
TORSDOF 12
ENDMDL
MODEL 6
REMARK VINA RESULT:    -5.345     24.000     28.711
REMARK INTER + INTRA:         -10.500
REMARK INTER:                  -9.701
REMARK INTRA:                  -0.799
REMARK UNBOUND:                -1.562
REMARK SMILES COc1cc(CNC(=O)CCCCCCCC(C)C)ccc1O
REMARK SMILES IDX 11 1 10 2 8 3 9 4 7 5 6 7 5 8 4 9 20 10 3 11 21 12 22 13
REMARK SMILES IDX 2 14 1 15 23 16 12 18 13 19 14 20 15 21 16 22 17 23 18 24
REMARK SMILES IDX 19 25
REMARK H PARENT 7 6 23 17
REMARK Flexibility Score: inf
ROOT
ATOM      1  C   UNL     1      76.178  83.295  64.701  1.00  0.00     0.010 C 
ENDROOT
BRANCH   1   2
ATOM      2  C   UNL     1      75.187  82.455  65.503  1.00  0.00     0.100 C 
BRANCH   2   3
ATOM      3  C   UNL     1      74.162  81.766  64.618  1.00  0.00     0.220 C 
ATOM      4  O   UNL     1      74.329  81.577  63.416  1.00  0.00    -0.275 OA
ATOM      5  N   UNL     1      73.035  81.396  65.336  1.00  0.00    -0.352 N 
ATOM      6  H   UNL     1      72.981  81.605  66.329  1.00  0.00     0.163 HD
BRANCH   5   7
ATOM      7  C   UNL     1      71.904  80.730  64.731  1.00  0.00     0.151 C 
BRANCH   7   8
ATOM      8  C   UNL     1      70.741  81.660  64.541  1.00  0.00    -0.025 A 
ATOM      9  C   UNL     1      70.237  82.361  65.630  1.00  0.00     0.056 A 
ATOM     10  C   UNL     1      70.180  81.810  63.279  1.00  0.00     0.009 A 
ATOM     11  C   UNL     1      69.156  83.225  65.454  1.00  0.00     0.160 A 
ATOM     12  C   UNL     1      69.098  82.674  63.103  1.00  0.00     0.050 A 
ATOM     13  C   UNL     1      68.586  83.381  64.190  1.00  0.00     0.157 A 
BRANCH  11  14
ATOM     14  O   UNL     1      68.664  83.910  66.524  1.00  0.00    -0.493 OA
ATOM     15  C   UNL     1      69.576  84.200  67.583  1.00  0.00     0.278 C 
ENDBRANCH  11  14
BRANCH  13  16
ATOM     16  O   UNL     1      67.531  84.222  64.006  1.00  0.00    -0.504 OA
ATOM     17  H   UNL     1      66.983  84.223  64.810  1.00  0.00     0.293 HD
ENDBRANCH  13  16
ENDBRANCH   7   8
ENDBRANCH   5   7
ENDBRANCH   2   3
ENDBRANCH   1   2
BRANCH   1  18
ATOM     18  C   UNL     1      77.062  84.194  65.571  1.00  0.00     0.001 C 
BRANCH  18  19
ATOM     19  C   UNL     1      76.795  84.128  67.078  1.00  0.00     0.000 C 
BRANCH  19  20
ATOM     20  C   UNL     1      77.310  85.354  67.838  1.00  0.00     0.000 C 
BRANCH  20  21
ATOM     21  C   UNL     1      77.225  86.653  67.029  1.00  0.00     0.000 C 
BRANCH  21  22
ATOM     22  C   UNL     1      77.097  87.904  67.904  1.00  0.00     0.003 C 
BRANCH  22  23
ATOM     23  C   UNL     1      75.667  88.476  67.953  1.00  0.00    -0.017 C 
ATOM     24  C   UNL     1      75.669  89.812  68.700  1.00  0.00     0.007 C 
ATOM     25  C   UNL     1      74.675  87.519  68.615  1.00  0.00     0.007 C 
ENDBRANCH  22  23
ENDBRANCH  21  22
ENDBRANCH  20  21
ENDBRANCH  19  20
ENDBRANCH  18  19
ENDBRANCH   1  18
TORSDOF 12
ENDMDL
MODEL 7
REMARK VINA RESULT:    -5.118      2.373      6.051
REMARK INTER + INTRA:         -10.121
REMARK INTER:                  -8.753
REMARK INTRA:                  -1.368
REMARK UNBOUND:                -1.562
REMARK SMILES COc1cc(CNC(=O)CCCCCCCC(C)C)ccc1O
REMARK SMILES IDX 11 1 10 2 8 3 9 4 7 5 6 7 5 8 4 9 20 10 3 11 21 12 22 13
REMARK SMILES IDX 2 14 1 15 23 16 12 18 13 19 14 20 15 21 16 22 17 23 18 24
REMARK SMILES IDX 19 25
REMARK H PARENT 7 6 23 17
REMARK Flexibility Score: inf
ROOT
ATOM      1  C   UNL     1      97.428  98.578  74.598  1.00  0.00     0.010 C 
ENDROOT
BRANCH   1   2
ATOM      2  C   UNL     1      97.394  97.091  74.250  1.00  0.00     0.100 C 
BRANCH   2   3
ATOM      3  C   UNL     1      95.995  96.611  73.898  1.00  0.00     0.220 C 
ATOM      4  O   UNL     1      95.702  96.134  72.806  1.00  0.00    -0.275 OA
ATOM      5  N   UNL     1      95.115  96.790  74.954  1.00  0.00    -0.352 N 
ATOM      6  H   UNL     1      95.447  97.206  75.820  1.00  0.00     0.163 HD
BRANCH   5   7
ATOM      7  C   UNL     1      93.719  96.425  74.881  1.00  0.00     0.151 C 
BRANCH   7   8
ATOM      8  C   UNL     1      93.342  95.433  75.942  1.00  0.00    -0.025 A 
ATOM      9  C   UNL     1      92.304  94.538  75.709  1.00  0.00     0.056 A 
ATOM     10  C   UNL     1      94.034  95.420  77.147  1.00  0.00     0.009 A 
ATOM     11  C   UNL     1      91.954  93.616  76.696  1.00  0.00     0.160 A 
ATOM     12  C   UNL     1      93.682  94.498  78.134  1.00  0.00     0.050 A 
ATOM     13  C   UNL     1      92.643  93.596  77.909  1.00  0.00     0.157 A 
BRANCH  11  14
ATOM     14  O   UNL     1      90.935  92.741  76.464  1.00  0.00    -0.493 OA
ATOM     15  C   UNL     1      91.120  91.797  75.410  1.00  0.00     0.278 C 
ENDBRANCH  11  14
BRANCH  13  16
ATOM     16  O   UNL     1      92.310  92.701  78.880  1.00  0.00    -0.504 OA
ATOM     17  H   UNL     1      91.341  92.633  78.930  1.00  0.00     0.293 HD
ENDBRANCH  13  16
ENDBRANCH   7   8
ENDBRANCH   5   7
ENDBRANCH   2   3
ENDBRANCH   1   2
BRANCH   1  18
ATOM     18  C   UNL     1      98.194  98.884  75.888  1.00  0.00     0.001 C 
BRANCH  18  19
ATOM     19  C   UNL     1      97.507  98.451  77.188  1.00  0.00     0.000 C 
BRANCH  19  20
ATOM     20  C   UNL     1      98.200  97.271  77.874  1.00  0.00     0.000 C 
BRANCH  20  21
ATOM     21  C   UNL     1      97.223  96.234  78.439  1.00  0.00     0.000 C 
BRANCH  21  22
ATOM     22  C   UNL     1      97.920  95.021  79.064  1.00  0.00     0.003 C 
BRANCH  22  23
ATOM     23  C   UNL     1      97.396  94.670  80.471  1.00  0.00    -0.017 C 
ATOM     24  C   UNL     1      98.543  94.138  81.333  1.00  0.00     0.007 C 
ATOM     25  C   UNL     1      96.262  93.644  80.434  1.00  0.00     0.007 C 
ENDBRANCH  22  23
ENDBRANCH  21  22
ENDBRANCH  20  21
ENDBRANCH  19  20
ENDBRANCH  18  19
ENDBRANCH   1  18
TORSDOF 12
ENDMDL
MODEL 8
REMARK VINA RESULT:    -5.040     18.563     21.479
REMARK INTER + INTRA:          -9.991
REMARK INTER:                  -9.032
REMARK INTRA:                  -0.959
REMARK UNBOUND:                -1.562
REMARK SMILES COc1cc(CNC(=O)CCCCCCCC(C)C)ccc1O
REMARK SMILES IDX 11 1 10 2 8 3 9 4 7 5 6 7 5 8 4 9 20 10 3 11 21 12 22 13
REMARK SMILES IDX 2 14 1 15 23 16 12 18 13 19 14 20 15 21 16 22 17 23 18 24
REMARK SMILES IDX 19 25
REMARK H PARENT 7 6 23 17
REMARK Flexibility Score: inf
ROOT
ATOM      1  C   UNL     1      75.251  89.556  67.931  1.00  0.00     0.010 C 
ENDROOT
BRANCH   1   2
ATOM      2  C   UNL     1      75.145  90.170  69.325  1.00  0.00     0.100 C 
BRANCH   2   3
ATOM      3  C   UNL     1      74.792  91.647  69.282  1.00  0.00     0.220 C 
ATOM      4  O   UNL     1      74.220  92.176  68.333  1.00  0.00    -0.275 OA
ATOM      5  N   UNL     1      75.202  92.303  70.433  1.00  0.00    -0.352 N 
ATOM      6  H   UNL     1      75.680  91.783  71.164  1.00  0.00     0.163 HD
BRANCH   5   7
ATOM      7  C   UNL     1      74.996  93.717  70.645  1.00  0.00     0.151 C 
BRANCH   7   8
ATOM      8  C   UNL     1      76.029  94.304  71.563  1.00  0.00    -0.025 A 
ATOM      9  C   UNL     1      76.625  95.517  71.241  1.00  0.00     0.056 A 
ATOM     10  C   UNL     1      76.378  93.628  72.725  1.00  0.00     0.009 A 
ATOM     11  C   UNL     1      77.585  96.062  72.093  1.00  0.00     0.160 A 
ATOM     12  C   UNL     1      77.339  94.173  73.578  1.00  0.00     0.050 A 
ATOM     13  C   UNL     1      77.943  95.390  73.262  1.00  0.00     0.157 A 
BRANCH  11  14
ATOM     14  O   UNL     1      78.168  97.252  71.774  1.00  0.00    -0.493 OA
ATOM     15  C   UNL     1      77.352  98.419  71.869  1.00  0.00     0.278 C 
ENDBRANCH  11  14
BRANCH  13  16
ATOM     16  O   UNL     1      78.878  95.912  74.103  1.00  0.00    -0.504 OA
ATOM     17  H   UNL     1      79.249  96.718  73.703  1.00  0.00     0.293 HD
ENDBRANCH  13  16
ENDBRANCH   7   8
ENDBRANCH   5   7
ENDBRANCH   2   3
ENDBRANCH   1   2
BRANCH   1  18
ATOM     18  C   UNL     1      76.633  89.727  67.293  1.00  0.00     0.001 C 
BRANCH  18  19
ATOM     19  C   UNL     1      77.534  88.487  67.319  1.00  0.00     0.000 C 
BRANCH  19  20
ATOM     20  C   UNL     1      76.848  87.229  66.779  1.00  0.00     0.000 C 
BRANCH  20  21
ATOM     21  C   UNL     1      77.388  85.931  67.388  1.00  0.00     0.000 C 
BRANCH  21  22
ATOM     22  C   UNL     1      76.944  85.712  68.839  1.00  0.00     0.003 C 
BRANCH  22  23
ATOM     23  C   UNL     1      75.638  84.905  68.966  1.00  0.00    -0.017 C 
ATOM     24  C   UNL     1      75.360  84.160  67.657  1.00  0.00     0.007 C 
ATOM     25  C   UNL     1      74.438  85.784  69.321  1.00  0.00     0.007 C 
ENDBRANCH  22  23
ENDBRANCH  21  22
ENDBRANCH  20  21
ENDBRANCH  19  20
ENDBRANCH  18  19
ENDBRANCH   1  18
TORSDOF 12
ENDMDL
MODEL 9
REMARK VINA RESULT:    -5.028      2.763      6.292
REMARK INTER + INTRA:          -9.971
REMARK INTER:                  -8.820
REMARK INTRA:                  -1.151
REMARK UNBOUND:                -1.562
REMARK SMILES COc1cc(CNC(=O)CCCCCCCC(C)C)ccc1O
REMARK SMILES IDX 11 1 10 2 8 3 9 4 7 5 6 7 5 8 4 9 20 10 3 11 21 12 22 13
REMARK SMILES IDX 2 14 1 15 23 16 12 18 13 19 14 20 15 21 16 22 17 23 18 24
REMARK SMILES IDX 19 25
REMARK H PARENT 7 6 23 17
REMARK Flexibility Score: inf
ROOT
ATOM      1  C   UNL     1      96.858  95.659  78.010  1.00  0.00     0.010 C 
ENDROOT
BRANCH   1   2
ATOM      2  C   UNL     1      97.391  96.937  78.653  1.00  0.00     0.100 C 
BRANCH   2   3
ATOM      3  C   UNL     1      97.694  98.018  77.627  1.00  0.00     0.220 C 
ATOM      4  O   UNL     1      98.181  99.106  77.920  1.00  0.00    -0.275 OA
ATOM      5  N   UNL     1      97.345  97.617  76.346  1.00  0.00    -0.352 N 
ATOM      6  H   UNL     1      96.936  96.697  76.202  1.00  0.00     0.163 HD
BRANCH   5   7
ATOM      7  C   UNL     1      97.521  98.460  75.186  1.00  0.00     0.151 C 
BRANCH   7   8
ATOM      8  C   UNL     1      97.088  97.775  73.923  1.00  0.00    -0.025 A 
ATOM      9  C   UNL     1      97.707  98.094  72.721  1.00  0.00     0.056 A 
ATOM     10  C   UNL     1      96.072  96.828  73.969  1.00  0.00     0.009 A 
ATOM     11  C   UNL     1      97.304  97.457  71.547  1.00  0.00     0.160 A 
ATOM     12  C   UNL     1      95.668  96.192  72.795  1.00  0.00     0.050 A 
ATOM     13  C   UNL     1      96.284  96.506  71.584  1.00  0.00     0.157 A 
BRANCH  11  14
ATOM     14  O   UNL     1      97.912  97.773  70.370  1.00  0.00    -0.493 OA
ATOM     15  C   UNL     1      99.244  98.281  70.445  1.00  0.00     0.278 C 
ENDBRANCH  11  14
BRANCH  13  16
ATOM     16  O   UNL     1      95.882  95.877  70.444  1.00  0.00    -0.504 OA
ATOM     17  H   UNL     1      96.665  95.537  69.978  1.00  0.00     0.293 HD
ENDBRANCH  13  16
ENDBRANCH   7   8
ENDBRANCH   5   7
ENDBRANCH   2   3
ENDBRANCH   1   2
BRANCH   1  18
ATOM     18  C   UNL     1      95.530  95.183  78.606  1.00  0.00     0.001 C 
BRANCH  18  19
ATOM     19  C   UNL     1      94.994  93.856  78.060  1.00  0.00     0.000 C 
BRANCH  19  20
ATOM     20  C   UNL     1      93.896  93.242  78.933  1.00  0.00     0.000 C 
BRANCH  20  21
ATOM     21  C   UNL     1      92.498  93.339  78.313  1.00  0.00     0.000 C 
BRANCH  21  22
ATOM     22  C   UNL     1      92.509  93.292  76.781  1.00  0.00     0.003 C 
BRANCH  22  23
ATOM     23  C   UNL     1      91.863  94.528  76.124  1.00  0.00    -0.017 C 
ATOM     24  C   UNL     1      91.966  95.728  77.068  1.00  0.00     0.007 C 
ATOM     25  C   UNL     1      90.400  94.294  75.748  1.00  0.00     0.007 C 
ENDBRANCH  22  23
ENDBRANCH  21  22
ENDBRANCH  20  21
ENDBRANCH  19  20
ENDBRANCH  18  19
ENDBRANCH   1  18
TORSDOF 12
ENDMDL
MODEL 10
REMARK VINA RESULT:    -4.985     14.458     16.699
REMARK INTER + INTRA:          -9.899
REMARK INTER:                  -8.292
REMARK INTRA:                  -1.607
REMARK UNBOUND:                -1.562
REMARK SMILES COc1cc(CNC(=O)CCCCCCCC(C)C)ccc1O
REMARK SMILES IDX 11 1 10 2 8 3 9 4 7 5 6 7 5 8 4 9 20 10 3 11 21 12 22 13
REMARK SMILES IDX 2 14 1 15 23 16 12 18 13 19 14 20 15 21 16 22 17 23 18 24
REMARK SMILES IDX 19 25
REMARK H PARENT 7 6 23 17
REMARK Flexibility Score: inf
ROOT
ATOM      1  C   UNL     1     101.406  80.058  79.454  1.00  0.00     0.010 C 
ENDROOT
BRANCH   1   2
ATOM      2  C   UNL     1     100.573  79.292  80.479  1.00  0.00     0.100 C 
BRANCH   2   3
ATOM      3  C   UNL     1      99.242  79.968  80.765  1.00  0.00     0.220 C 
ATOM      4  O   UNL     1      98.661  79.884  81.844  1.00  0.00    -0.275 OA
ATOM      5  N   UNL     1      98.779  80.669  79.661  1.00  0.00    -0.352 N 
ATOM      6  H   UNL     1      99.325  80.672  78.804  1.00  0.00     0.163 HD
BRANCH   5   7
ATOM      7  C   UNL     1      97.531  81.396  79.662  1.00  0.00     0.151 C 
BRANCH   7   8
ATOM      8  C   UNL     1      97.192  81.932  78.302  1.00  0.00    -0.025 A 
ATOM      9  C   UNL     1      98.105  81.796  77.262  1.00  0.00     0.056 A 
ATOM     10  C   UNL     1      95.970  82.560  78.095  1.00  0.00     0.009 A 
ATOM     11  C   UNL     1      97.790  82.295  75.998  1.00  0.00     0.160 A 
ATOM     12  C   UNL     1      95.656  83.060  76.831  1.00  0.00     0.050 A 
ATOM     13  C   UNL     1      96.566  82.927  75.782  1.00  0.00     0.157 A 
BRANCH  11  14
ATOM     14  O   UNL     1      98.688  82.159  74.982  1.00  0.00    -0.493 OA
ATOM     15  C   UNL     1      98.750  80.888  74.337  1.00  0.00     0.278 C 
ENDBRANCH  11  14
BRANCH  13  16
ATOM     16  O   UNL     1      96.247  83.418  74.552  1.00  0.00    -0.504 OA
ATOM     17  H   UNL     1      96.813  84.186  74.361  1.00  0.00     0.293 HD
ENDBRANCH  13  16
ENDBRANCH   7   8
ENDBRANCH   5   7
ENDBRANCH   2   3
ENDBRANCH   1   2
BRANCH   1  18
ATOM     18  C   UNL     1     101.852  79.201  78.267  1.00  0.00     0.001 C 
BRANCH  18  19
ATOM     19  C   UNL     1     101.152  79.492  76.936  1.00  0.00     0.000 C 
BRANCH  19  20
ATOM     20  C   UNL     1     102.054  80.196  75.918  1.00  0.00     0.000 C 
BRANCH  20  21
ATOM     21  C   UNL     1     103.238  79.338  75.457  1.00  0.00     0.000 C 
BRANCH  21  22
ATOM     22  C   UNL     1     104.591  79.851  75.961  1.00  0.00     0.003 C 
BRANCH  22  23
ATOM     23  C   UNL     1     105.400  78.792  76.735  1.00  0.00    -0.017 C 
ATOM     24  C   UNL     1     104.693  77.437  76.650  1.00  0.00     0.007 C 
ATOM     25  C   UNL     1     105.609  79.171  78.202  1.00  0.00     0.007 C 
ENDBRANCH  22  23
ENDBRANCH  21  22
ENDBRANCH  20  21
ENDBRANCH  19  20
ENDBRANCH  18  19
ENDBRANCH   1  18
TORSDOF 12
ENDMDL
