MODEL 1
REMARK VINA RESULT:    -5.951      0.000      0.000
REMARK INTER + INTRA:          -9.872
REMARK INTER:                  -9.255
REMARK INTRA:                  -0.617
REMARK UNBOUND:                -0.617
REMARK SMILES COc1cc(CNC(=O)CCCCCC(C)C)ccc1O
REMARK SMILES IDX 10 1 8 2 7 3 9 5 6 6 5 7 3 8 20 9 4 10 19 11 18 12 2 13 1 14
REMARK SMILES IDX 21 15 11 17 12 18 13 19 14 20 15 21 16 22 17 23
REMARK H PARENT 7 4 21 16
REMARK Flexibility Score: inf
ROOT
ATOM      1  C   UNL     1      95.981  82.545  77.259  1.00  0.00     0.100 C 
ENDROOT
BRANCH   1   2
ATOM      2  C   UNL     1      96.296  83.260  76.005  1.00  0.00     0.220 C 
ATOM      3  N   UNL     1      97.356  82.854  75.250  1.00  0.00    -0.352 N 
ATOM      4  H   UNL     1      97.943  82.155  75.683  1.00  0.00     0.163 HD
ATOM      5  O   UNL     1      95.553  84.203  75.639  1.00  0.00    -0.275 OA
BRANCH   3   6
ATOM      6  C   UNL     1      97.667  83.337  73.943  1.00  0.00     0.151 C 
BRANCH   6   7
ATOM      7  C   UNL     1      99.125  83.325  73.648  1.00  0.00    -0.025 A 
ATOM      8  C   UNL     1     101.328  82.246  73.825  1.00  0.00     0.160 A 
ATOM      9  C   UNL     1     101.890  83.266  73.029  1.00  0.00     0.157 A 
ATOM     10  C   UNL     1      99.954  82.291  74.145  1.00  0.00     0.056 A 
ATOM     11  C   UNL     1     101.080  84.313  72.551  1.00  0.00     0.050 A 
ATOM     12  C   UNL     1      99.708  84.339  72.853  1.00  0.00     0.009 A 
BRANCH   8  13
ATOM     13  O   UNL     1     102.103  81.228  74.317  1.00  0.00    -0.493 OA
ATOM     14  C   UNL     1     101.606  79.914  74.003  1.00  0.00     0.278 C 
ENDBRANCH   8  13
BRANCH   9  15
ATOM     15  O   UNL     1     103.209  83.233  72.717  1.00  0.00    -0.504 OA
ATOM     16  H   UNL     1     103.360  83.728  71.909  1.00  0.00     0.293 HD
ENDBRANCH   9  15
ENDBRANCH   6   7
ENDBRANCH   3   6
ENDBRANCH   1   2
BRANCH   1  17
ATOM     17  C   UNL     1      97.023  81.464  77.656  1.00  0.00     0.010 C 
BRANCH  17  18
ATOM     18  C   UNL     1      97.791  81.857  78.948  1.00  0.00     0.001 C 
BRANCH  18  19
ATOM     19  C   UNL     1      97.390  81.011  80.185  1.00  0.00     0.000 C 
BRANCH  19  20
ATOM     20  C   UNL     1      96.789  81.883  81.325  1.00  0.00     0.003 C 
BRANCH  20  21
ATOM     21  C   UNL     1      96.535  81.129  82.671  1.00  0.00    -0.017 C 
ATOM     22  C   UNL     1      96.304  79.609  82.420  1.00  0.00     0.007 C 
ATOM     23  C   UNL     1      95.348  81.722  83.482  1.00  0.00     0.007 C 
ENDBRANCH  20  21
ENDBRANCH  19  20
ENDBRANCH  18  19
ENDBRANCH  17  18
ENDBRANCH   1  17
TORSDOF 10
ENDMDL
MODEL 2
REMARK VINA RESULT:    -5.942     19.741     22.558
REMARK INTER + INTRA:          -9.859
REMARK INTER:                  -8.452
REMARK INTRA:                  -1.407
REMARK UNBOUND:                -0.617
REMARK SMILES COc1cc(CNC(=O)CCCCCC(C)C)ccc1O
REMARK SMILES IDX 10 1 8 2 7 3 9 5 6 6 5 7 3 8 20 9 4 10 19 11 18 12 2 13 1 14
REMARK SMILES IDX 21 15 11 17 12 18 13 19 14 20 15 21 16 22 17 23
REMARK H PARENT 7 4 21 16
REMARK Flexibility Score: inf
ROOT
ATOM      1  C   UNL     1      88.502  99.084  66.509  1.00  0.00     0.100 C 
ENDROOT
BRANCH   1   2
ATOM      2  C   UNL     1      89.223  98.571  67.693  1.00  0.00     0.220 C 
ATOM      3  N   UNL     1      89.142  99.250  68.872  1.00  0.00    -0.352 N 
ATOM      4  H   UNL     1      88.688 100.150  68.814  1.00  0.00     0.163 HD
ATOM      5  O   UNL     1      89.861  97.494  67.597  1.00  0.00    -0.275 OA
BRANCH   3   6
ATOM      6  C   UNL     1      89.640  98.781  70.125  1.00  0.00     0.151 C 
BRANCH   6   7
ATOM      7  C   UNL     1      90.537  99.758  70.800  1.00  0.00    -0.025 A 
ATOM      8  C   UNL     1      90.896 101.958  71.838  1.00  0.00     0.160 A 
ATOM      9  C   UNL     1      92.225 101.594  72.144  1.00  0.00     0.157 A 
ATOM     10  C   UNL     1      90.067 101.046  71.152  1.00  0.00     0.056 A 
ATOM     11  C   UNL     1      92.711 100.326  71.775  1.00  0.00     0.050 A 
ATOM     12  C   UNL     1      91.872  99.413  71.113  1.00  0.00     0.009 A 
BRANCH   8  13
ATOM     13  O   UNL     1      90.410 103.195  72.172  1.00  0.00    -0.493 OA
ATOM     14  C   UNL     1      89.102 103.163  72.774  1.00  0.00     0.278 C 
ENDBRANCH   8  13
BRANCH   9  15
ATOM     15  O   UNL     1      93.031 102.465  72.802  1.00  0.00    -0.504 OA
ATOM     16  H   UNL     1      93.115 102.193  73.719  1.00  0.00     0.293 HD
ENDBRANCH   9  15
ENDBRANCH   6   7
ENDBRANCH   3   6
ENDBRANCH   1   2
BRANCH   1  17
ATOM     17  C   UNL     1      87.323 100.038  66.843  1.00  0.00     0.010 C 
BRANCH  17  18
ATOM     18  C   UNL     1      87.595 101.481  66.338  1.00  0.00     0.001 C 
BRANCH  18  19
ATOM     19  C   UNL     1      88.693 102.221  67.146  1.00  0.00     0.000 C 
BRANCH  19  20
ATOM     20  C   UNL     1      89.950 102.532  66.282  1.00  0.00     0.003 C 
BRANCH  20  21
ATOM     21  C   UNL     1      91.075 101.447  66.339  1.00  0.00    -0.017 C 
ATOM     22  C   UNL     1      91.799 101.469  67.717  1.00  0.00     0.007 C 
ATOM     23  C   UNL     1      92.113 101.592  65.188  1.00  0.00     0.007 C 
ENDBRANCH  20  21
ENDBRANCH  19  20
ENDBRANCH  18  19
ENDBRANCH  17  18
ENDBRANCH   1  17
TORSDOF 10
ENDMDL
MODEL 3
REMARK VINA RESULT:    -5.705     23.874     26.188
REMARK INTER + INTRA:          -9.490
REMARK INTER:                  -8.147
REMARK INTRA:                  -1.343
REMARK UNBOUND:                -0.617
REMARK SMILES COc1cc(CNC(=O)CCCCCC(C)C)ccc1O
REMARK SMILES IDX 10 1 8 2 7 3 9 5 6 6 5 7 3 8 20 9 4 10 19 11 18 12 2 13 1 14
REMARK SMILES IDX 21 15 11 17 12 18 13 19 14 20 15 21 16 22 17 23
REMARK H PARENT 7 4 21 16
REMARK Flexibility Score: inf
ROOT
ATOM      1  C   UNL     1      76.113  87.120  64.671  1.00  0.00     0.100 C 
ENDROOT
BRANCH   1   2
ATOM      2  C   UNL     1      76.095  88.298  65.562  1.00  0.00     0.220 C 
ATOM      3  N   UNL     1      76.427  88.149  66.876  1.00  0.00    -0.352 N 
ATOM      4  H   UNL     1      76.537  87.192  67.180  1.00  0.00     0.163 HD
ATOM      5  O   UNL     1      75.816  89.423  65.080  1.00  0.00    -0.275 OA
BRANCH   3   6
ATOM      6  C   UNL     1      76.619  89.219  67.802  1.00  0.00     0.151 C 
BRANCH   6   7
ATOM      7  C   UNL     1      75.415  89.497  68.631  1.00  0.00    -0.025 A 
ATOM      8  C   UNL     1      74.132  91.005  70.090  1.00  0.00     0.160 A 
ATOM      9  C   UNL     1      73.092  90.054  70.155  1.00  0.00     0.157 A 
ATOM     10  C   UNL     1      75.294  90.713  69.344  1.00  0.00     0.056 A 
ATOM     11  C   UNL     1      73.213  88.830  69.471  1.00  0.00     0.050 A 
ATOM     12  C   UNL     1      74.362  88.556  68.710  1.00  0.00     0.009 A 
BRANCH   8  13
ATOM     13  O   UNL     1      74.043  92.194  70.764  1.00  0.00    -0.493 OA
ATOM     14  C   UNL     1      75.282  92.928  70.816  1.00  0.00     0.278 C 
ENDBRANCH   8  13
BRANCH   9  15
ATOM     15  O   UNL     1      71.972  90.323  70.871  1.00  0.00    -0.504 OA
ATOM     16  H   UNL     1      72.141  90.164  71.802  1.00  0.00     0.293 HD
ENDBRANCH   9  15
ENDBRANCH   6   7
ENDBRANCH   3   6
ENDBRANCH   1   2
BRANCH   1  17
ATOM     17  C   UNL     1      75.623  85.807  65.339  1.00  0.00     0.010 C 
BRANCH  17  18
ATOM     18  C   UNL     1      76.789  84.801  65.545  1.00  0.00     0.001 C 
BRANCH  18  19
ATOM     19  C   UNL     1      76.675  83.988  66.862  1.00  0.00     0.000 C 
BRANCH  19  20
ATOM     20  C   UNL     1      75.380  84.330  67.654  1.00  0.00     0.003 C 
BRANCH  20  21
ATOM     21  C   UNL     1      75.584  85.289  68.872  1.00  0.00    -0.017 C 
ATOM     22  C   UNL     1      77.097  85.455  69.200  1.00  0.00     0.007 C 
ATOM     23  C   UNL     1      74.810  84.828  70.141  1.00  0.00     0.007 C 
ENDBRANCH  20  21
ENDBRANCH  19  20
ENDBRANCH  18  19
ENDBRANCH  17  18
ENDBRANCH   1  17
TORSDOF 10
ENDMDL
MODEL 4
REMARK VINA RESULT:    -5.662      4.334     10.493
REMARK INTER + INTRA:          -9.423
REMARK INTER:                  -8.601
REMARK INTRA:                  -0.823
REMARK UNBOUND:                -0.617
REMARK SMILES COc1cc(CNC(=O)CCCCCC(C)C)ccc1O
REMARK SMILES IDX 10 1 8 2 7 3 9 5 6 6 5 7 3 8 20 9 4 10 19 11 18 12 2 13 1 14
REMARK SMILES IDX 21 15 11 17 12 18 13 19 14 20 15 21 16 22 17 23
REMARK H PARENT 7 4 21 16
REMARK Flexibility Score: inf
ROOT
ATOM      1  C   UNL     1      97.092  82.127  79.851  1.00  0.00     0.100 C 
ENDROOT
BRANCH   1   2
ATOM      2  C   UNL     1      97.115  81.471  81.176  1.00  0.00     0.220 C 
ATOM      3  N   UNL     1      97.281  82.230  82.296  1.00  0.00    -0.352 N 
ATOM      4  H   UNL     1      97.512  83.198  82.123  1.00  0.00     0.163 HD
ATOM      5  O   UNL     1      96.939  80.230  81.244  1.00  0.00    -0.275 OA
BRANCH   3   6
ATOM      6  C   UNL     1      97.151  81.756  83.636  1.00  0.00     0.151 C 
BRANCH   6   7
ATOM      7  C   UNL     1      95.843  82.104  84.254  1.00  0.00    -0.025 A 
ATOM      8  C   UNL     1      94.412  83.697  85.463  1.00  0.00     0.160 A 
ATOM      9  C   UNL     1      93.332  82.793  85.373  1.00  0.00     0.157 A 
ATOM     10  C   UNL     1      95.665  83.339  84.921  1.00  0.00     0.056 A 
ATOM     11  C   UNL     1      93.506  81.550  84.736  1.00  0.00     0.050 A 
ATOM     12  C   UNL     1      94.749  81.210  84.176  1.00  0.00     0.009 A 
BRANCH   8  13
ATOM     13  O   UNL     1      94.269  84.904  86.097  1.00  0.00    -0.493 OA
ATOM     14  C   UNL     1      95.383  85.253  86.941  1.00  0.00     0.278 C 
ENDBRANCH   8  13
BRANCH   9  15
ATOM     15  O   UNL     1      92.125  83.126  85.894  1.00  0.00    -0.504 OA
ATOM     16  H   UNL     1      92.251  83.581  86.729  1.00  0.00     0.293 HD
ENDBRANCH   9  15
ENDBRANCH   6   7
ENDBRANCH   3   6
ENDBRANCH   1   2
BRANCH   1  17
ATOM     17  C   UNL     1      97.656  81.255  78.698  1.00  0.00     0.010 C 
BRANCH  17  18
ATOM     18  C   UNL     1      96.644  81.130  77.526  1.00  0.00     0.001 C 
BRANCH  18  19
ATOM     19  C   UNL     1      95.981  82.478  77.138  1.00  0.00     0.000 C 
BRANCH  19  20
ATOM     20  C   UNL     1      96.581  83.074  75.831  1.00  0.00     0.003 C 
BRANCH  20  21
ATOM     21  C   UNL     1      97.410  82.069  74.968  1.00  0.00    -0.017 C 
ATOM     22  C   UNL     1      98.884  82.549  74.819  1.00  0.00     0.007 C 
ATOM     23  C   UNL     1      96.786  81.820  73.564  1.00  0.00     0.007 C 
ENDBRANCH  20  21
ENDBRANCH  19  20
ENDBRANCH  18  19
ENDBRANCH  17  18
ENDBRANCH   1  17
TORSDOF 10
ENDMDL
MODEL 5
REMARK VINA RESULT:    -5.624     12.583     15.877
REMARK INTER + INTRA:          -9.365
REMARK INTER:                  -8.695
REMARK INTRA:                  -0.670
REMARK UNBOUND:                -0.617
REMARK SMILES COc1cc(CNC(=O)CCCCCC(C)C)ccc1O
REMARK SMILES IDX 10 1 8 2 7 3 9 5 6 6 5 7 3 8 20 9 4 10 19 11 18 12 2 13 1 14
REMARK SMILES IDX 21 15 11 17 12 18 13 19 14 20 15 21 16 22 17 23
REMARK H PARENT 7 4 21 16
REMARK Flexibility Score: inf
ROOT
ATOM      1  C   UNL     1      93.847  96.324  74.580  1.00  0.00     0.100 C 
ENDROOT
BRANCH   1   2
ATOM      2  C   UNL     1      93.858  95.179  75.514  1.00  0.00     0.220 C 
ATOM      3  N   UNL     1      93.371  95.341  76.777  1.00  0.00    -0.352 N 
ATOM      4  H   UNL     1      93.153  96.294  77.029  1.00  0.00     0.163 HD
ATOM      5  O   UNL     1      94.277  94.067  75.110  1.00  0.00    -0.275 OA
BRANCH   3   6
ATOM      6  C   UNL     1      93.162  94.288  77.718  1.00  0.00     0.151 C 
BRANCH   6   7
ATOM      7  C   UNL     1      94.248  94.184  78.730  1.00  0.00    -0.025 A 
ATOM      8  C   UNL     1      96.066  95.222  80.021  1.00  0.00     0.160 A 
ATOM      9  C   UNL     1      96.273  94.005  80.704  1.00  0.00     0.157 A 
ATOM     10  C   UNL     1      95.068  95.299  79.026  1.00  0.00     0.056 A 
ATOM     11  C   UNL     1      95.481  92.882  80.398  1.00  0.00     0.050 A 
ATOM     12  C   UNL     1      94.473  92.972  79.423  1.00  0.00     0.009 A 
BRANCH   8  13
ATOM     13  O   UNL     1      96.839  96.321  80.290  1.00  0.00    -0.493 OA
ATOM     14  C   UNL     1      97.879  96.552  79.321  1.00  0.00     0.278 C 
ENDBRANCH   8  13
BRANCH   9  15
ATOM     15  O   UNL     1      97.231  93.919  81.660  1.00  0.00    -0.504 OA
ATOM     16  H   UNL     1      98.029  93.543  81.282  1.00  0.00     0.293 HD
ENDBRANCH   9  15
ENDBRANCH   6   7
ENDBRANCH   3   6
ENDBRANCH   1   2
BRANCH   1  17
ATOM     17  C   UNL     1      95.255  96.772  74.103  1.00  0.00     0.010 C 
BRANCH  17  18
ATOM     18  C   UNL     1      95.204  98.143  73.375  1.00  0.00     0.001 C 
BRANCH  18  19
ATOM     19  C   UNL     1      95.583  98.058  71.873  1.00  0.00     0.000 C 
BRANCH  19  20
ATOM     20  C   UNL     1      96.233  96.692  71.507  1.00  0.00     0.003 C 
BRANCH  20  21
ATOM     21  C   UNL     1      96.740  96.576  70.032  1.00  0.00    -0.017 C 
ATOM     22  C   UNL     1      98.296  96.593  69.977  1.00  0.00     0.007 C 
ATOM     23  C   UNL     1      96.161  97.684  69.105  1.00  0.00     0.007 C 
ENDBRANCH  20  21
ENDBRANCH  19  20
ENDBRANCH  18  19
ENDBRANCH  17  18
ENDBRANCH   1  17
TORSDOF 10
ENDMDL
MODEL 6
REMARK VINA RESULT:    -5.602     24.042     26.936
REMARK INTER + INTRA:          -9.330
REMARK INTER:                  -8.526
REMARK INTRA:                  -0.804
REMARK UNBOUND:                -0.617
REMARK SMILES COc1cc(CNC(=O)CCCCCC(C)C)ccc1O
REMARK SMILES IDX 10 1 8 2 7 3 9 5 6 6 5 7 3 8 20 9 4 10 19 11 18 12 2 13 1 14
REMARK SMILES IDX 21 15 11 17 12 18 13 19 14 20 15 21 16 22 17 23
REMARK H PARENT 7 4 21 16
REMARK Flexibility Score: inf
ROOT
ATOM      1  C   UNL     1      75.969  82.505  65.251  1.00  0.00     0.100 C 
ENDROOT
BRANCH   1   2
ATOM      2  C   UNL     1      76.652  83.455  66.153  1.00  0.00     0.220 C 
ATOM      3  N   UNL     1      75.993  83.933  67.246  1.00  0.00    -0.352 N 
ATOM      4  H   UNL     1      75.012  83.695  67.288  1.00  0.00     0.163 HD
ATOM      5  O   UNL     1      77.844  83.770  65.916  1.00  0.00    -0.275 OA
BRANCH   3   6
ATOM      6  C   UNL     1      76.583  84.712  68.286  1.00  0.00     0.151 C 
BRANCH   6   7
ATOM      7  C   UNL     1      76.394  86.176  68.098  1.00  0.00    -0.025 A 
ATOM      8  C   UNL     1      75.052  88.211  68.419  1.00  0.00     0.160 A 
ATOM      9  C   UNL     1      76.065  88.974  67.800  1.00  0.00     0.157 A 
ATOM     10  C   UNL     1      75.215  86.815  68.547  1.00  0.00     0.056 A 
ATOM     11  C   UNL     1      77.231  88.345  67.326  1.00  0.00     0.050 A 
ATOM     12  C   UNL     1      77.397  86.958  67.479  1.00  0.00     0.009 A 
BRANCH   8  13
ATOM     13  O   UNL     1      73.901  88.802  68.869  1.00  0.00    -0.493 OA
ATOM     14  C   UNL     1      72.723  87.992  68.692  1.00  0.00     0.278 C 
ENDBRANCH   8  13
BRANCH   9  15
ATOM     15  O   UNL     1      75.918  90.316  67.669  1.00  0.00    -0.504 OA
ATOM     16  H   UNL     1      75.056  90.578  68.002  1.00  0.00     0.293 HD
ENDBRANCH   9  15
ENDBRANCH   6   7
ENDBRANCH   3   6
ENDBRANCH   1   2
BRANCH   1  17
ATOM     17  C   UNL     1      74.446  82.761  65.089  1.00  0.00     0.010 C 
BRANCH  17  18
ATOM     18  C   UNL     1      73.806  81.779  64.069  1.00  0.00     0.001 C 
BRANCH  18  19
ATOM     19  C   UNL     1      72.649  80.937  64.667  1.00  0.00     0.000 C 
BRANCH  19  20
ATOM     20  C   UNL     1      71.421  80.863  63.714  1.00  0.00     0.003 C 
BRANCH  20  21
ATOM     21  C   UNL     1      70.323  81.948  63.966  1.00  0.00    -0.017 C 
ATOM     22  C   UNL     1      70.454  83.117  62.946  1.00  0.00     0.007 C 
ATOM     23  C   UNL     1      70.344  82.503  65.420  1.00  0.00     0.007 C 
ENDBRANCH  20  21
ENDBRANCH  19  20
ENDBRANCH  18  19
ENDBRANCH  17  18
ENDBRANCH   1  17
TORSDOF 10
ENDMDL
MODEL 7
REMARK VINA RESULT:    -5.581     14.259     16.241
REMARK INTER + INTRA:          -9.298
REMARK INTER:                  -8.506
REMARK INTRA:                  -0.792
REMARK UNBOUND:                -0.617
REMARK SMILES COc1cc(CNC(=O)CCCCCC(C)C)ccc1O
REMARK SMILES IDX 10 1 8 2 7 3 9 5 6 6 5 7 3 8 20 9 4 10 19 11 18 12 2 13 1 14
REMARK SMILES IDX 21 15 11 17 12 18 13 19 14 20 15 21 16 22 17 23
REMARK H PARENT 7 4 21 16
REMARK Flexibility Score: inf
ROOT
ATOM      1  C   UNL     1      96.171  95.835  81.729  1.00  0.00     0.100 C 
ENDROOT
BRANCH   1   2
ATOM      2  C   UNL     1      96.143  95.052  80.476  1.00  0.00     0.220 C 
ATOM      3  N   UNL     1      95.241  94.040  80.339  1.00  0.00    -0.352 N 
ATOM      4  H   UNL     1      94.730  93.809  81.179  1.00  0.00     0.163 HD
ATOM      5  O   UNL     1      96.925  95.365  79.546  1.00  0.00    -0.275 OA
BRANCH   3   6
ATOM      6  C   UNL     1      94.989  93.322  79.130  1.00  0.00     0.151 C 
BRANCH   6   7
ATOM      7  C   UNL     1      93.741  93.754  78.444  1.00  0.00    -0.025 A 
ATOM      8  C   UNL     1      92.556  95.311  76.955  1.00  0.00     0.160 A 
ATOM      9  C   UNL     1      91.382  94.538  77.084  1.00  0.00     0.157 A 
ATOM     10  C   UNL     1      93.722  94.925  77.650  1.00  0.00     0.056 A 
ATOM     11  C   UNL     1      91.383  93.386  77.892  1.00  0.00     0.050 A 
ATOM     12  C   UNL     1      92.554  92.994  78.562  1.00  0.00     0.009 A 
BRANCH   8  13
ATOM     13  O   UNL     1      92.571  96.448  76.189  1.00  0.00    -0.493 OA
ATOM     14  C   UNL     1      93.623  96.473  75.206  1.00  0.00     0.278 C 
ENDBRANCH   8  13
BRANCH   9  15
ATOM     15  O   UNL     1      90.256  94.902  76.422  1.00  0.00    -0.504 OA
ATOM     16  H   UNL     1      90.494  95.334  75.598  1.00  0.00     0.293 HD
ENDBRANCH   9  15
ENDBRANCH   6   7
ENDBRANCH   3   6
ENDBRANCH   1   2
BRANCH   1  17
ATOM     17  C   UNL     1      95.914  97.354  81.539  1.00  0.00     0.010 C 
BRANCH  17  18
ATOM     18  C   UNL     1      97.236  98.169  81.591  1.00  0.00     0.001 C 
BRANCH  18  19
ATOM     19  C   UNL     1      97.282  99.336  80.570  1.00  0.00     0.000 C 
BRANCH  19  20
ATOM     20  C   UNL     1      97.005 100.714  81.239  1.00  0.00     0.003 C 
BRANCH  20  21
ATOM     21  C   UNL     1      95.504 100.993  81.579  1.00  0.00    -0.017 C 
ATOM     22  C   UNL     1      95.010 102.295  80.882  1.00  0.00     0.007 C 
ATOM     23  C   UNL     1      95.236 101.072  83.110  1.00  0.00     0.007 C 
ENDBRANCH  20  21
ENDBRANCH  19  20
ENDBRANCH  18  19
ENDBRANCH  17  18
ENDBRANCH   1  17
TORSDOF 10
ENDMDL
MODEL 8
REMARK VINA RESULT:    -5.457     23.964     26.287
REMARK INTER + INTRA:          -9.105
REMARK INTER:                  -7.675
REMARK INTRA:                  -1.430
REMARK UNBOUND:                -0.617
REMARK SMILES COc1cc(CNC(=O)CCCCCC(C)C)ccc1O
REMARK SMILES IDX 10 1 8 2 7 3 9 5 6 6 5 7 3 8 20 9 4 10 19 11 18 12 2 13 1 14
REMARK SMILES IDX 21 15 11 17 12 18 13 19 14 20 15 21 16 22 17 23
REMARK H PARENT 7 4 21 16
REMARK Flexibility Score: inf
ROOT
ATOM      1  C   UNL     1      75.944  86.701  63.970  1.00  0.00     0.100 C 
ENDROOT
BRANCH   1   2
ATOM      2  C   UNL     1      76.065  87.898  64.829  1.00  0.00     0.220 C 
ATOM      3  N   UNL     1      76.402  87.749  66.141  1.00  0.00    -0.352 N 
ATOM      4  H   UNL     1      76.417  86.794  66.470  1.00  0.00     0.163 HD
ATOM      5  O   UNL     1      75.896  89.032  64.319  1.00  0.00    -0.275 OA
BRANCH   3   6
ATOM      6  C   UNL     1      76.720  88.816  67.034  1.00  0.00     0.151 C 
BRANCH   6   7
ATOM      7  C   UNL     1      75.609  89.150  67.966  1.00  0.00    -0.025 A 
ATOM      8  C   UNL     1      73.410  88.628  68.936  1.00  0.00     0.160 A 
ATOM      9  C   UNL     1      73.523  89.747  69.787  1.00  0.00     0.157 A 
ATOM     10  C   UNL     1      74.445  88.347  68.018  1.00  0.00     0.056 A 
ATOM     11  C   UNL     1      74.664  90.567  69.725  1.00  0.00     0.050 A 
ATOM     12  C   UNL     1      75.701  90.269  68.826  1.00  0.00     0.009 A 
BRANCH   8  13
ATOM     13  O   UNL     1      72.298  87.827  68.967  1.00  0.00    -0.493 OA
ATOM     14  C   UNL     1      72.325  86.756  68.003  1.00  0.00     0.278 C 
ENDBRANCH   8  13
BRANCH   9  15
ATOM     15  O   UNL     1      72.533  90.027  70.672  1.00  0.00    -0.504 OA
ATOM     16  H   UNL     1      72.858  90.643  71.332  1.00  0.00     0.293 HD
ENDBRANCH   9  15
ENDBRANCH   6   7
ENDBRANCH   3   6
ENDBRANCH   1   2
BRANCH   1  17
ATOM     17  C   UNL     1      75.351  85.458  64.687  1.00  0.00     0.010 C 
BRANCH  17  18
ATOM     18  C   UNL     1      76.454  84.426  65.049  1.00  0.00     0.001 C 
BRANCH  18  19
ATOM     19  C   UNL     1      76.129  83.597  66.320  1.00  0.00     0.000 C 
BRANCH  19  20
ATOM     20  C   UNL     1      75.328  84.420  67.370  1.00  0.00     0.003 C 
BRANCH  20  21
ATOM     21  C   UNL     1      76.020  84.564  68.764  1.00  0.00    -0.017 C 
ATOM     22  C   UNL     1      74.987  84.958  69.860  1.00  0.00     0.007 C 
ATOM     23  C   UNL     1      77.198  85.582  68.751  1.00  0.00     0.007 C 
ENDBRANCH  20  21
ENDBRANCH  19  20
ENDBRANCH  18  19
ENDBRANCH  17  18
ENDBRANCH   1  17
TORSDOF 10
ENDMDL
MODEL 9
REMARK VINA RESULT:    -5.456     24.142     26.770
REMARK INTER + INTRA:          -9.103
REMARK INTER:                  -7.707
REMARK INTRA:                  -1.396
REMARK UNBOUND:                -0.617
REMARK SMILES COc1cc(CNC(=O)CCCCCC(C)C)ccc1O
REMARK SMILES IDX 10 1 8 2 7 3 9 5 6 6 5 7 3 8 20 9 4 10 19 11 18 12 2 13 1 14
REMARK SMILES IDX 21 15 11 17 12 18 13 19 14 20 15 21 16 22 17 23
REMARK H PARENT 7 4 21 16
REMARK Flexibility Score: inf
ROOT
ATOM      1  C   UNL     1      74.121  81.292  65.175  1.00  0.00     0.100 C 
ENDROOT
BRANCH   1   2
ATOM      2  C   UNL     1      75.326  82.076  64.834  1.00  0.00     0.220 C 
ATOM      3  N   UNL     1      75.188  83.273  64.197  1.00  0.00    -0.352 N 
ATOM      4  H   UNL     1      74.251  83.481  63.881  1.00  0.00     0.163 HD
ATOM      5  O   UNL     1      76.453  81.641  65.175  1.00  0.00    -0.275 OA
BRANCH   3   6
ATOM      6  C   UNL     1      76.243  84.207  63.964  1.00  0.00     0.151 C 
BRANCH   6   7
ATOM      7  C   UNL     1      76.332  85.261  65.010  1.00  0.00    -0.025 A 
ATOM      8  C   UNL     1      76.997  85.974  67.268  1.00  0.00     0.160 A 
ATOM      9  C   UNL     1      76.563  87.285  66.979  1.00  0.00     0.157 A 
ATOM     10  C   UNL     1      76.861  84.967  66.289  1.00  0.00     0.056 A 
ATOM     11  C   UNL     1      76.010  87.583  65.720  1.00  0.00     0.050 A 
ATOM     12  C   UNL     1      75.900  86.581  64.741  1.00  0.00     0.009 A 
BRANCH   8  13
ATOM     13  O   UNL     1      77.520  85.659  68.494  1.00  0.00    -0.493 OA
ATOM     14  C   UNL     1      76.602  84.958  69.356  1.00  0.00     0.278 C 
ENDBRANCH   8  13
BRANCH   9  15
ATOM     15  O   UNL     1      76.686  88.261  67.913  1.00  0.00    -0.504 OA
ATOM     16  H   UNL     1      76.246  89.056  67.606  1.00  0.00     0.293 HD
ENDBRANCH   9  15
ENDBRANCH   6   7
ENDBRANCH   3   6
ENDBRANCH   1   2
BRANCH   1  17
ATOM     17  C   UNL     1      72.976  81.394  64.132  1.00  0.00     0.010 C 
BRANCH  17  18
ATOM     18  C   UNL     1      71.608  80.978  64.741  1.00  0.00     0.001 C 
BRANCH  18  19
ATOM     19  C   UNL     1      70.563  82.125  64.749  1.00  0.00     0.000 C 
BRANCH  19  20
ATOM     20  C   UNL     1      71.204  83.507  64.428  1.00  0.00     0.003 C 
BRANCH  20  21
ATOM     21  C   UNL     1      71.233  84.514  65.624  1.00  0.00    -0.017 C 
ATOM     22  C   UNL     1      72.680  84.683  66.173  1.00  0.00     0.007 C 
ATOM     23  C   UNL     1      70.268  84.112  66.777  1.00  0.00     0.007 C 
ENDBRANCH  20  21
ENDBRANCH  19  20
ENDBRANCH  18  19
ENDBRANCH  17  18
ENDBRANCH   1  17
TORSDOF 10
ENDMDL
MODEL 10
REMARK VINA RESULT:    -5.441     13.231     15.136
REMARK INTER + INTRA:          -9.080
REMARK INTER:                  -8.124
REMARK INTRA:                  -0.956
REMARK UNBOUND:                -0.617
REMARK SMILES COc1cc(CNC(=O)CCCCCC(C)C)ccc1O
REMARK SMILES IDX 10 1 8 2 7 3 9 5 6 6 5 7 3 8 20 9 4 10 19 11 18 12 2 13 1 14
REMARK SMILES IDX 21 15 11 17 12 18 13 19 14 20 15 21 16 22 17 23
REMARK H PARENT 7 4 21 16
REMARK Flexibility Score: inf
ROOT
ATOM      1  C   UNL     1      95.037  94.105  79.244  1.00  0.00     0.100 C 
ENDROOT
BRANCH   1   2
ATOM      2  C   UNL     1      95.932  93.588  80.300  1.00  0.00     0.220 C 
ATOM      3  N   UNL     1      97.183  94.112  80.433  1.00  0.00    -0.352 N 
ATOM      4  H   UNL     1      97.460  94.743  79.695  1.00  0.00     0.163 HD
ATOM      5  O   UNL     1      95.504  92.704  81.082  1.00  0.00    -0.275 OA
BRANCH   3   6
ATOM      6  C   UNL     1      98.081  93.833  81.508  1.00  0.00     0.151 C 
BRANCH   6   7
ATOM      7  C   UNL     1      98.487  95.050  82.261  1.00  0.00    -0.025 A 
ATOM      8  C   UNL     1      99.806  96.113  84.043  1.00  0.00     0.160 A 
ATOM      9  C   UNL     1      99.312  97.375  83.653  1.00  0.00     0.157 A 
ATOM     10  C   UNL     1      99.377  94.957  83.357  1.00  0.00     0.056 A 
ATOM     11  C   UNL     1      98.406  97.477  82.581  1.00  0.00     0.050 A 
ATOM     12  C   UNL     1      98.001  96.324  81.887  1.00  0.00     0.009 A 
BRANCH   8  13
ATOM     13  O   UNL     1     100.674  95.990  85.097  1.00  0.00    -0.493 OA
ATOM     14  C   UNL     1     101.580  94.877  84.978  1.00  0.00     0.278 C 
ENDBRANCH   8  13
BRANCH   9  15
ATOM     15  O   UNL     1      99.717  98.493  84.306  1.00  0.00    -0.504 OA
ATOM     16  H   UNL     1     100.215  98.244  85.088  1.00  0.00     0.293 HD
ENDBRANCH   9  15
ENDBRANCH   6   7
ENDBRANCH   3   6
ENDBRANCH   1   2
BRANCH   1  17
ATOM     17  C   UNL     1      95.672  95.205  78.351  1.00  0.00     0.010 C 
BRANCH  17  18
ATOM     18  C   UNL     1      95.137  95.139  76.894  1.00  0.00     0.001 C 
BRANCH  18  19
ATOM     19  C   UNL     1      94.399  93.813  76.568  1.00  0.00     0.000 C 
BRANCH  19  20
ATOM     20  C   UNL     1      93.097  94.051  75.749  1.00  0.00     0.003 C 
BRANCH  20  21
ATOM     21  C   UNL     1      91.805  94.250  76.608  1.00  0.00    -0.017 C 
ATOM     22  C   UNL     1      91.626  95.746  77.002  1.00  0.00     0.007 C 
ATOM     23  C   UNL     1      91.781  93.356  77.881  1.00  0.00     0.007 C 
ENDBRANCH  20  21
ENDBRANCH  19  20
ENDBRANCH  18  19
ENDBRANCH  17  18
ENDBRANCH   1  17
TORSDOF 10
ENDMDL
