MODEL 1
REMARK VINA RESULT:    -6.106      0.000      0.000
REMARK INTER + INTRA:         -10.949
REMARK INTER:                 -10.033
REMARK INTRA:                  -0.916
REMARK UNBOUND:                -0.916
REMARK SMILES CCCCC[C@H](O)CC(=O)CCc1ccc(O)c(OC)c1
REMARK SMILES IDX 8 1 6 2 7 3 5 5 4 6 3 7 2 8 1 9 9 10 10 11 11 12 12 13 13 14
REMARK SMILES IDX 21 15 14 16 18 17 15 18 16 19 19 20 20 21 17 22
REMARK H PARENT 7 4 17 23
REMARK Flexibility Score: inf
ROOT
ATOM      1  C   UNL     1      95.691  83.428  84.788  1.00  0.00     0.107 C 
ENDROOT
BRANCH   1   2
ATOM      2  C   UNL     1      95.663  84.567  83.766  1.00  0.00     0.121 C 
BRANCH   2   3
ATOM      3  O   UNL     1      96.399  85.682  84.264  1.00  0.00    -0.393 OA
ATOM      4  H   UNL     1      95.970  85.978  85.086  1.00  0.00     0.210 HD
ENDBRANCH   2   3
BRANCH   2   5
ATOM      5  C   UNL     1      96.227  84.160  82.399  1.00  0.00     0.032 C 
BRANCH   5   6
ATOM      6  C   UNL     1      96.682  82.696  82.376  1.00  0.00     0.003 C 
BRANCH   6   7
ATOM      7  C   UNL     1      97.054  82.198  80.976  1.00  0.00    -0.000 C 
BRANCH   7   8
ATOM      8  C   UNL     1      97.316  83.323  79.976  1.00  0.00    -0.003 C 
ATOM      9  C   UNL     1      97.316  82.805  78.546  1.00  0.00     0.004 C 
ENDBRANCH   7   8
ENDBRANCH   6   7
ENDBRANCH   5   6
ENDBRANCH   2   5
ENDBRANCH   1   2
BRANCH   1  10
ATOM     10  C   UNL     1      94.621  83.564  85.859  1.00  0.00     0.135 C 
ATOM     11  O   UNL     1      94.664  84.475  86.686  1.00  0.00    -0.300 OA
BRANCH  10  12
ATOM     12  C   UNL     1      93.486  82.551  85.822  1.00  0.00     0.080 C 
BRANCH  12  13
ATOM     13  C   UNL     1      93.165  82.039  84.416  1.00  0.00     0.043 C 
BRANCH  13  14
ATOM     14  C   UNL     1      91.827  81.345  84.330  1.00  0.00    -0.044 A 
ATOM     15  C   UNL     1      90.656  82.097  84.236  1.00  0.00     0.054 A 
ATOM     16  C   UNL     1      91.762  79.952  84.345  1.00  0.00     0.008 A 
ATOM     17  C   UNL     1      89.420  81.455  84.156  1.00  0.00     0.160 A 
ATOM     18  C   UNL     1      90.526  79.309  84.265  1.00  0.00     0.050 A 
ATOM     19  C   UNL     1      89.355  80.062  84.171  1.00  0.00     0.157 A 
BRANCH  17  20
ATOM     20  O   UNL     1      88.283  82.200  84.065  1.00  0.00    -0.493 OA
ATOM     21  C   UNL     1      87.934  82.992  85.199  1.00  0.00     0.278 C 
ENDBRANCH  17  20
BRANCH  19  22
ATOM     22  O   UNL     1      88.154  79.424  84.093  1.00  0.00    -0.504 OA
ATOM     23  H   UNL     1      87.741  79.630  83.237  1.00  0.00     0.293 HD
ENDBRANCH  19  22
ENDBRANCH  13  14
ENDBRANCH  12  13
ENDBRANCH  10  12
ENDBRANCH   1  10
TORSDOF 12
ENDMDL
MODEL 2
REMARK VINA RESULT:    -5.909      1.186      2.307
REMARK INTER + INTRA:         -10.624
REMARK INTER:                 -10.049
REMARK INTRA:                  -0.575
REMARK UNBOUND:                -0.916
REMARK SMILES CCCCC[C@H](O)CC(=O)CCc1ccc(O)c(OC)c1
REMARK SMILES IDX 8 1 6 2 7 3 5 5 4 6 3 7 2 8 1 9 9 10 10 11 11 12 12 13 13 14
REMARK SMILES IDX 21 15 14 16 18 17 15 18 16 19 19 20 20 21 17 22
REMARK H PARENT 7 4 17 23
REMARK Flexibility Score: inf
ROOT
ATOM      1  C   UNL     1      95.924  82.299  84.440  1.00  0.00     0.107 C 
ENDROOT
BRANCH   1   2
ATOM      2  C   UNL     1      95.956  82.875  83.023  1.00  0.00     0.121 C 
BRANCH   2   3
ATOM      3  O   UNL     1      95.756  84.286  83.069  1.00  0.00    -0.393 OA
ATOM      4  H   UNL     1      96.631  84.711  83.051  1.00  0.00     0.210 HD
ENDBRANCH   2   3
BRANCH   2   5
ATOM      5  C   UNL     1      97.265  82.575  82.282  1.00  0.00     0.032 C 
BRANCH   5   6
ATOM      6  C   UNL     1      97.029  82.251  80.802  1.00  0.00     0.003 C 
BRANCH   6   7
ATOM      7  C   UNL     1      97.408  83.400  79.862  1.00  0.00    -0.000 C 
BRANCH   7   8
ATOM      8  C   UNL     1      96.481  83.536  78.655  1.00  0.00    -0.003 C 
ATOM      9  C   UNL     1      97.251  83.419  77.349  1.00  0.00     0.004 C 
ENDBRANCH   7   8
ENDBRANCH   6   7
ENDBRANCH   5   6
ENDBRANCH   2   5
ENDBRANCH   1   2
BRANCH   1  10
ATOM     10  C   UNL     1      94.552  82.387  85.088  1.00  0.00     0.135 C 
ATOM     11  O   UNL     1      94.432  82.671  86.280  1.00  0.00    -0.300 OA
BRANCH  10  12
ATOM     12  C   UNL     1      93.353  82.154  84.182  1.00  0.00     0.080 C 
BRANCH  12  13
ATOM     13  C   UNL     1      92.723  80.769  84.339  1.00  0.00     0.043 C 
BRANCH  13  14
ATOM     14  C   UNL     1      91.214  80.807  84.380  1.00  0.00    -0.044 A 
ATOM     15  C   UNL     1      90.483  79.624  84.267  1.00  0.00     0.054 A 
ATOM     16  C   UNL     1      90.551  82.025  84.532  1.00  0.00     0.008 A 
ATOM     17  C   UNL     1      89.089  79.660  84.307  1.00  0.00     0.160 A 
ATOM     18  C   UNL     1      89.157  82.061  84.571  1.00  0.00     0.050 A 
ATOM     19  C   UNL     1      88.426  80.878  84.458  1.00  0.00     0.157 A 
BRANCH  17  20
ATOM     20  O   UNL     1      88.386  78.499  84.195  1.00  0.00    -0.493 OA
ATOM     21  C   UNL     1      89.126  77.282  84.275  1.00  0.00     0.278 C 
ENDBRANCH  17  20
BRANCH  19  22
ATOM     22  O   UNL     1      87.065  80.926  84.497  1.00  0.00    -0.504 OA
ATOM     23  H   UNL     1      86.728  80.075  84.826  1.00  0.00     0.293 HD
ENDBRANCH  19  22
ENDBRANCH  13  14
ENDBRANCH  12  13
ENDBRANCH  10  12
ENDBRANCH   1  10
TORSDOF 12
ENDMDL
MODEL 3
REMARK VINA RESULT:    -5.846     20.950     24.799
REMARK INTER + INTRA:         -10.521
REMARK INTER:                  -9.911
REMARK INTRA:                  -0.610
REMARK UNBOUND:                -0.916
REMARK SMILES CCCCC[C@H](O)CC(=O)CCc1ccc(O)c(OC)c1
REMARK SMILES IDX 8 1 6 2 7 3 5 5 4 6 3 7 2 8 1 9 9 10 10 11 11 12 12 13 13 14
REMARK SMILES IDX 21 15 14 16 18 17 15 18 16 19 19 20 20 21 17 22
REMARK H PARENT 7 4 17 23
REMARK Flexibility Score: inf
ROOT
ATOM      1  C   UNL     1      80.699  65.491  69.914  1.00  0.00     0.107 C 
ENDROOT
BRANCH   1   2
ATOM      2  C   UNL     1      80.409  64.091  69.367  1.00  0.00     0.121 C 
BRANCH   2   3
ATOM      3  O   UNL     1      81.163  63.123  70.091  1.00  0.00    -0.393 OA
ATOM      4  H   UNL     1      81.752  62.672  69.461  1.00  0.00     0.210 HD
ENDBRANCH   2   3
BRANCH   2   5
ATOM      5  C   UNL     1      78.922  63.721  69.427  1.00  0.00     0.032 C 
BRANCH   5   6
ATOM      6  C   UNL     1      78.164  64.171  68.171  1.00  0.00     0.003 C 
BRANCH   6   7
ATOM      7  C   UNL     1      76.644  64.200  68.359  1.00  0.00    -0.000 C 
BRANCH   7   8
ATOM      8  C   UNL     1      76.019  65.565  68.076  1.00  0.00    -0.003 C 
ATOM      9  C   UNL     1      76.134  65.933  66.605  1.00  0.00     0.004 C 
ENDBRANCH   7   8
ENDBRANCH   6   7
ENDBRANCH   5   6
ENDBRANCH   2   5
ENDBRANCH   1   2
BRANCH   1  10
ATOM     10  C   UNL     1      79.739  65.912  71.014  1.00  0.00     0.135 C 
ATOM     11  O   UNL     1      78.687  66.494  70.747  1.00  0.00    -0.300 OA
BRANCH  10  12
ATOM     12  C   UNL     1      80.125  65.538  72.436  1.00  0.00     0.080 C 
BRANCH  12  13
ATOM     13  C   UNL     1      80.711  66.700  73.240  1.00  0.00     0.043 C 
BRANCH  13  14
ATOM     14  C   UNL     1      82.160  66.491  73.613  1.00  0.00    -0.044 A 
ATOM     15  C   UNL     1      83.053  67.561  73.569  1.00  0.00     0.054 A 
ATOM     16  C   UNL     1      82.604  65.227  74.000  1.00  0.00     0.008 A 
ATOM     17  C   UNL     1      84.391  67.367  73.915  1.00  0.00     0.160 A 
ATOM     18  C   UNL     1      83.941  65.032  74.346  1.00  0.00     0.050 A 
ATOM     19  C   UNL     1      84.835  66.103  74.302  1.00  0.00     0.157 A 
BRANCH  17  20
ATOM     20  O   UNL     1      85.254  68.420  73.868  1.00  0.00    -0.493 OA
ATOM     21  C   UNL     1      85.195  69.256  72.714  1.00  0.00     0.278 C 
ENDBRANCH  17  20
BRANCH  19  22
ATOM     22  O   UNL     1      86.138  65.901  74.641  1.00  0.00    -0.504 OA
ATOM     23  H   UNL     1      86.222  65.036  75.078  1.00  0.00     0.293 HD
ENDBRANCH  19  22
ENDBRANCH  13  14
ENDBRANCH  12  13
ENDBRANCH  10  12
ENDBRANCH   1  10
TORSDOF 12
ENDMDL
MODEL 4
REMARK VINA RESULT:    -5.454      5.020      7.620
REMARK INTER + INTRA:          -9.878
REMARK INTER:                  -8.962
REMARK INTRA:                  -0.916
REMARK UNBOUND:                -0.916
REMARK SMILES CCCCC[C@H](O)CC(=O)CCc1ccc(O)c(OC)c1
REMARK SMILES IDX 8 1 6 2 7 3 5 5 4 6 3 7 2 8 1 9 9 10 10 11 11 12 12 13 13 14
REMARK SMILES IDX 21 15 14 16 18 17 15 18 16 19 19 20 20 21 17 22
REMARK H PARENT 7 4 17 23
REMARK Flexibility Score: inf
ROOT
ATOM      1  C   UNL     1      91.233  75.018  81.754  1.00  0.00     0.107 C 
ENDROOT
BRANCH   1   2
ATOM      2  C   UNL     1      91.791  75.147  80.334  1.00  0.00     0.121 C 
BRANCH   2   3
ATOM      3  O   UNL     1      93.179  74.822  80.329  1.00  0.00    -0.393 OA
ATOM      4  H   UNL     1      93.269  73.900  80.629  1.00  0.00     0.210 HD
ENDBRANCH   2   3
BRANCH   2   5
ATOM      5  C   UNL     1      91.060  74.260  79.319  1.00  0.00     0.032 C 
BRANCH   5   6
ATOM      6  C   UNL     1      90.260  75.085  78.303  1.00  0.00     0.003 C 
BRANCH   6   7
ATOM      7  C   UNL     1      90.960  76.385  77.892  1.00  0.00    -0.000 C 
BRANCH   7   8
ATOM      8  C   UNL     1      91.367  76.421  76.420  1.00  0.00    -0.003 C 
ATOM      9  C   UNL     1      90.197  76.810  75.530  1.00  0.00     0.004 C 
ENDBRANCH   7   8
ENDBRANCH   6   7
ENDBRANCH   5   6
ENDBRANCH   2   5
ENDBRANCH   1   2
BRANCH   1  10
ATOM     10  C   UNL     1      92.243  75.389  82.827  1.00  0.00     0.135 C 
ATOM     11  O   UNL     1      93.179  74.637  83.102  1.00  0.00    -0.300 OA
BRANCH  10  12
ATOM     12  C   UNL     1      92.059  76.741  83.498  1.00  0.00     0.080 C 
BRANCH  12  13
ATOM     13  C   UNL     1      90.782  76.845  84.333  1.00  0.00     0.043 C 
BRANCH  13  14
ATOM     14  C   UNL     1      90.083  78.176  84.184  1.00  0.00    -0.044 A 
ATOM     15  C   UNL     1      90.831  79.341  84.017  1.00  0.00     0.054 A 
ATOM     16  C   UNL     1      88.690  78.238  84.212  1.00  0.00     0.008 A 
ATOM     17  C   UNL     1      90.184  80.570  83.878  1.00  0.00     0.160 A 
ATOM     18  C   UNL     1      88.043  79.466  84.073  1.00  0.00     0.050 A 
ATOM     19  C   UNL     1      88.791  80.632  83.906  1.00  0.00     0.157 A 
BRANCH  17  20
ATOM     20  O   UNL     1      90.925  81.702  83.716  1.00  0.00    -0.493 OA
ATOM     21  C   UNL     1      91.832  82.038  84.764  1.00  0.00     0.278 C 
ENDBRANCH  17  20
BRANCH  19  22
ATOM     22  O   UNL     1      88.148  81.825  83.772  1.00  0.00    -0.504 OA
ATOM     23  H   UNL     1      88.368  82.391  84.532  1.00  0.00     0.293 HD
ENDBRANCH  19  22
ENDBRANCH  13  14
ENDBRANCH  12  13
ENDBRANCH  10  12
ENDBRANCH   1  10
TORSDOF 12
ENDMDL
MODEL 5
REMARK VINA RESULT:    -5.452     20.678     24.521
REMARK INTER + INTRA:          -9.874
REMARK INTER:                  -9.107
REMARK INTRA:                  -0.767
REMARK UNBOUND:                -0.916
REMARK SMILES CCCCC[C@H](O)CC(=O)CCc1ccc(O)c(OC)c1
REMARK SMILES IDX 8 1 6 2 7 3 5 5 4 6 3 7 2 8 1 9 9 10 10 11 11 12 12 13 13 14
REMARK SMILES IDX 21 15 14 16 18 17 15 18 16 19 19 20 20 21 17 22
REMARK H PARENT 7 4 17 23
REMARK Flexibility Score: inf
ROOT
ATOM      1  C   UNL     1      79.926  65.157  70.722  1.00  0.00     0.107 C 
ENDROOT
BRANCH   1   2
ATOM      2  C   UNL     1      79.904  64.197  69.531  1.00  0.00     0.121 C 
BRANCH   2   3
ATOM      3  O   UNL     1      80.876  63.171  69.719  1.00  0.00    -0.393 OA
ATOM      4  H   UNL     1      81.174  62.878  68.840  1.00  0.00     0.210 HD
ENDBRANCH   2   3
BRANCH   2   5
ATOM      5  C   UNL     1      78.530  63.555  69.302  1.00  0.00     0.032 C 
BRANCH   5   6
ATOM      6  C   UNL     1      77.663  64.376  68.341  1.00  0.00     0.003 C 
BRANCH   6   7
ATOM      7  C   UNL     1      77.341  63.641  67.036  1.00  0.00    -0.000 C 
BRANCH   7   8
ATOM      8  C   UNL     1      76.414  64.422  66.106  1.00  0.00    -0.003 C 
ATOM      9  C   UNL     1      76.200  65.843  66.603  1.00  0.00     0.004 C 
ENDBRANCH   7   8
ENDBRANCH   6   7
ENDBRANCH   5   6
ENDBRANCH   2   5
ENDBRANCH   1   2
BRANCH   1  10
ATOM     10  C   UNL     1      81.329  65.596  71.109  1.00  0.00     0.135 C 
ATOM     11  O   UNL     1      82.117  66.014  70.261  1.00  0.00    -0.300 OA
BRANCH  10  12
ATOM     12  C   UNL     1      81.681  65.532  72.587  1.00  0.00     0.080 C 
BRANCH  12  13
ATOM     13  C   UNL     1      81.689  66.897  73.277  1.00  0.00     0.043 C 
BRANCH  13  14
ATOM     14  C   UNL     1      83.061  67.526  73.329  1.00  0.00    -0.044 A 
ATOM     15  C   UNL     1      83.984  67.107  74.287  1.00  0.00     0.054 A 
ATOM     16  C   UNL     1      83.404  68.526  72.419  1.00  0.00     0.008 A 
ATOM     17  C   UNL     1      85.251  67.688  74.334  1.00  0.00     0.160 A 
ATOM     18  C   UNL     1      84.672  69.107  72.466  1.00  0.00     0.050 A 
ATOM     19  C   UNL     1      85.595  68.688  73.424  1.00  0.00     0.157 A 
BRANCH  17  20
ATOM     20  O   UNL     1      86.145  67.272  75.274  1.00  0.00    -0.493 OA
ATOM     21  C   UNL     1      86.904  66.102  74.974  1.00  0.00     0.278 C 
ENDBRANCH  17  20
BRANCH  19  22
ATOM     22  O   UNL     1      86.829  69.263  73.460  1.00  0.00    -0.504 OA
ATOM     23  H   UNL     1      87.253  69.051  74.309  1.00  0.00     0.293 HD
ENDBRANCH  19  22
ENDBRANCH  13  14
ENDBRANCH  12  13
ENDBRANCH  10  12
ENDBRANCH   1  10
TORSDOF 12
ENDMDL
MODEL 6
REMARK VINA RESULT:    -5.402     16.070     18.070
REMARK INTER + INTRA:          -9.791
REMARK INTER:                  -9.005
REMARK INTRA:                  -0.787
REMARK UNBOUND:                -0.916
REMARK SMILES CCCCC[C@H](O)CC(=O)CCc1ccc(O)c(OC)c1
REMARK SMILES IDX 8 1 6 2 7 3 5 5 4 6 3 7 2 8 1 9 9 10 10 11 11 12 12 13 13 14
REMARK SMILES IDX 21 15 14 16 18 17 15 18 16 19 19 20 20 21 17 22
REMARK H PARENT 7 4 17 23
REMARK Flexibility Score: inf
ROOT
ATOM      1  C   UNL     1      95.139  99.581  73.473  1.00  0.00     0.107 C 
ENDROOT
BRANCH   1   2
ATOM      2  C   UNL     1      93.694  99.972  73.157  1.00  0.00     0.121 C 
BRANCH   2   3
ATOM      3  O   UNL     1      93.611 101.378  72.934  1.00  0.00    -0.393 OA
ATOM      4  H   UNL     1      92.763 101.688  73.298  1.00  0.00     0.210 HD
ENDBRANCH   2   3
BRANCH   2   5
ATOM      5  C   UNL     1      93.124  99.234  71.940  1.00  0.00     0.032 C 
BRANCH   5   6
ATOM      6  C   UNL     1      93.166 100.095  70.672  1.00  0.00     0.003 C 
BRANCH   6   7
ATOM      7  C   UNL     1      91.787 100.317  70.044  1.00  0.00    -0.000 C 
BRANCH   7   8
ATOM      8  C   UNL     1      90.650 100.360  71.063  1.00  0.00    -0.003 C 
ATOM      9  C   UNL     1      89.292 100.279  70.383  1.00  0.00     0.004 C 
ENDBRANCH   7   8
ENDBRANCH   6   7
ENDBRANCH   5   6
ENDBRANCH   2   5
ENDBRANCH   1   2
BRANCH   1  10
ATOM     10  C   UNL     1      95.324  98.084  73.661  1.00  0.00     0.135 C 
ATOM     11  O   UNL     1      96.154  97.460  73.000  1.00  0.00    -0.300 OA
BRANCH  10  12
ATOM     12  C   UNL     1      94.468  97.420  74.729  1.00  0.00     0.080 C 
BRANCH  12  13
ATOM     13  C   UNL     1      93.995  96.015  74.353  1.00  0.00     0.043 C 
BRANCH  13  14
ATOM     14  C   UNL     1      93.112  95.386  75.404  1.00  0.00    -0.044 A 
ATOM     15  C   UNL     1      91.971  94.679  75.026  1.00  0.00     0.054 A 
ATOM     16  C   UNL     1      93.439  95.512  76.755  1.00  0.00     0.008 A 
ATOM     17  C   UNL     1      91.157  94.098  75.998  1.00  0.00     0.160 A 
ATOM     18  C   UNL     1      92.624  94.931  77.727  1.00  0.00     0.050 A 
ATOM     19  C   UNL     1      91.483  94.224  77.348  1.00  0.00     0.157 A 
BRANCH  17  20
ATOM     20  O   UNL     1      90.044  93.410  75.616  1.00  0.00    -0.493 OA
ATOM     21  C   UNL     1      90.215  92.402  74.621  1.00  0.00     0.278 C 
ENDBRANCH  17  20
BRANCH  19  22
ATOM     22  O   UNL     1      90.696  93.661  78.307  1.00  0.00    -0.504 OA
ATOM     23  H   UNL     1      89.849  93.399  77.907  1.00  0.00     0.293 HD
ENDBRANCH  19  22
ENDBRANCH  13  14
ENDBRANCH  12  13
ENDBRANCH  10  12
ENDBRANCH   1  10
TORSDOF 12
ENDMDL
MODEL 7
REMARK VINA RESULT:    -5.287      6.171     11.656
REMARK INTER + INTRA:          -9.603
REMARK INTER:                  -8.807
REMARK INTRA:                  -0.796
REMARK UNBOUND:                -0.916
REMARK SMILES CCCCC[C@H](O)CC(=O)CCc1ccc(O)c(OC)c1
REMARK SMILES IDX 8 1 6 2 7 3 5 5 4 6 3 7 2 8 1 9 9 10 10 11 11 12 12 13 13 14
REMARK SMILES IDX 21 15 14 16 18 17 15 18 16 19 19 20 20 21 17 22
REMARK H PARENT 7 4 17 23
REMARK Flexibility Score: inf
ROOT
ATOM      1  C   UNL     1      96.749  83.435  78.328  1.00  0.00     0.107 C 
ENDROOT
BRANCH   1   2
ATOM      2  C   UNL     1      97.562  82.994  79.548  1.00  0.00     0.121 C 
BRANCH   2   3
ATOM      3  O   UNL     1      98.580  83.954  79.822  1.00  0.00    -0.393 OA
ATOM      4  H   UNL     1      98.159  84.830  79.868  1.00  0.00     0.210 HD
ENDBRANCH   2   3
BRANCH   2   5
ATOM      5  C   UNL     1      96.702  82.798  80.802  1.00  0.00     0.032 C 
BRANCH   5   6
ATOM      6  C   UNL     1      97.550  82.461  82.035  1.00  0.00     0.003 C 
BRANCH   6   7
ATOM      7  C   UNL     1      96.787  82.609  83.355  1.00  0.00    -0.000 C 
BRANCH   7   8
ATOM      8  C   UNL     1      95.611  83.580  83.276  1.00  0.00    -0.003 C 
ATOM      9  C   UNL     1      96.033  84.993  83.649  1.00  0.00     0.004 C 
ENDBRANCH   7   8
ENDBRANCH   6   7
ENDBRANCH   5   6
ENDBRANCH   2   5
ENDBRANCH   1   2
BRANCH   1  10
ATOM     10  C   UNL     1      97.610  83.714  77.107  1.00  0.00     0.135 C 
ATOM     11  O   UNL     1      98.689  83.142  76.950  1.00  0.00    -0.300 OA
BRANCH  10  12
ATOM     12  C   UNL     1      97.048  84.689  76.084  1.00  0.00     0.080 C 
BRANCH  12  13
ATOM     13  C   UNL     1      96.778  84.059  74.716  1.00  0.00     0.043 C 
BRANCH  13  14
ATOM     14  C   UNL     1      97.963  84.139  73.783  1.00  0.00    -0.044 A 
ATOM     15  C   UNL     1      98.297  83.046  72.984  1.00  0.00     0.054 A 
ATOM     16  C   UNL     1      98.723  85.307  73.722  1.00  0.00     0.008 A 
ATOM     17  C   UNL     1      99.391  83.122  72.122  1.00  0.00     0.160 A 
ATOM     18  C   UNL     1      99.818  85.383  72.859  1.00  0.00     0.050 A 
ATOM     19  C   UNL     1     100.152  84.290  72.060  1.00  0.00     0.157 A 
BRANCH  17  20
ATOM     20  O   UNL     1      99.708  82.048  71.346  1.00  0.00    -0.493 OA
ATOM     21  C   UNL     1      98.993  80.838  71.590  1.00  0.00     0.278 C 
ENDBRANCH  17  20
BRANCH  19  22
ATOM     22  O   UNL     1     101.222  84.376  71.222  1.00  0.00    -0.504 OA
ATOM     23  H   UNL     1     100.912  84.639  70.338  1.00  0.00     0.293 HD
ENDBRANCH  19  22
ENDBRANCH  13  14
ENDBRANCH  12  13
ENDBRANCH  10  12
ENDBRANCH   1  10
TORSDOF 12
ENDMDL
MODEL 8
REMARK VINA RESULT:    -5.249     16.459     19.645
REMARK INTER + INTRA:          -9.541
REMARK INTER:                  -8.658
REMARK INTRA:                  -0.883
REMARK UNBOUND:                -0.916
REMARK SMILES CCCCC[C@H](O)CC(=O)CCc1ccc(O)c(OC)c1
REMARK SMILES IDX 8 1 6 2 7 3 5 5 4 6 3 7 2 8 1 9 9 10 10 11 11 12 12 13 13 14
REMARK SMILES IDX 21 15 14 16 18 17 15 18 16 19 19 20 20 21 17 22
REMARK H PARENT 7 4 17 23
REMARK Flexibility Score: inf
ROOT
ATOM      1  C   UNL     1      93.928  96.222  75.219  1.00  0.00     0.107 C 
ENDROOT
BRANCH   1   2
ATOM      2  C   UNL     1      94.119  95.639  76.622  1.00  0.00     0.121 C 
BRANCH   2   3
ATOM      3  O   UNL     1      95.313  96.160  77.203  1.00  0.00    -0.393 OA
ATOM      4  H   UNL     1      95.534  95.608  77.973  1.00  0.00     0.210 HD
ENDBRANCH   2   3
BRANCH   2   5
ATOM      5  C   UNL     1      92.937  95.923  77.556  1.00  0.00     0.032 C 
BRANCH   5   6
ATOM      6  C   UNL     1      91.901  94.793  77.535  1.00  0.00     0.003 C 
BRANCH   6   7
ATOM      7  C   UNL     1      90.665  95.120  76.690  1.00  0.00    -0.000 C 
BRANCH   7   8
ATOM      8  C   UNL     1      89.461  94.231  76.997  1.00  0.00    -0.003 C 
ATOM      9  C   UNL     1      89.864  92.767  77.095  1.00  0.00     0.004 C 
ENDBRANCH   7   8
ENDBRANCH   6   7
ENDBRANCH   5   6
ENDBRANCH   2   5
ENDBRANCH   1   2
BRANCH   1  10
ATOM     10  C   UNL     1      94.685  97.523  75.006  1.00  0.00     0.135 C 
ATOM     11  O   UNL     1      94.486  98.497  75.732  1.00  0.00    -0.300 OA
BRANCH  10  12
ATOM     12  C   UNL     1      95.719  97.535  73.891  1.00  0.00     0.080 C 
BRANCH  12  13
ATOM     13  C   UNL     1      95.174  97.066  72.541  1.00  0.00     0.043 C 
BRANCH  13  14
ATOM     14  C   UNL     1      94.640  98.195  71.693  1.00  0.00    -0.044 A 
ATOM     15  C   UNL     1      95.359  98.633  70.581  1.00  0.00     0.054 A 
ATOM     16  C   UNL     1      93.426  98.800  72.022  1.00  0.00     0.008 A 
ATOM     17  C   UNL     1      94.864  99.676  69.798  1.00  0.00     0.160 A 
ATOM     18  C   UNL     1      92.931  99.843  71.239  1.00  0.00     0.050 A 
ATOM     19  C   UNL     1      93.650 100.281  70.127  1.00  0.00     0.157 A 
BRANCH  17  20
ATOM     20  O   UNL     1      95.575 100.096  68.715  1.00  0.00    -0.493 OA
ATOM     21  C   UNL     1      95.406  99.361  67.504  1.00  0.00     0.278 C 
ENDBRANCH  17  20
BRANCH  19  22
ATOM     22  O   UNL     1      93.157 101.300  69.370  1.00  0.00    -0.504 OA
ATOM     23  H   UNL     1      93.139 102.112  69.905  1.00  0.00     0.293 HD
ENDBRANCH  19  22
ENDBRANCH  13  14
ENDBRANCH  12  13
ENDBRANCH  10  12
ENDBRANCH   1  10
TORSDOF 12
ENDMDL
MODEL 9
REMARK VINA RESULT:    -5.236     14.218     17.928
REMARK INTER + INTRA:          -9.519
REMARK INTER:                  -7.735
REMARK INTRA:                  -1.784
REMARK UNBOUND:                -0.916
REMARK SMILES CCCCC[C@H](O)CC(=O)CCc1ccc(O)c(OC)c1
REMARK SMILES IDX 8 1 6 2 7 3 5 5 4 6 3 7 2 8 1 9 9 10 10 11 11 12 12 13 13 14
REMARK SMILES IDX 21 15 14 16 18 17 15 18 16 19 19 20 20 21 17 22
REMARK H PARENT 7 4 17 23
REMARK Flexibility Score: inf
ROOT
ATOM      1  C   UNL     1      77.509  72.755  84.326  1.00  0.00     0.107 C 
ENDROOT
BRANCH   1   2
ATOM      2  C   UNL     1      77.876  71.821  85.482  1.00  0.00     0.121 C 
BRANCH   2   3
ATOM      3  O   UNL     1      79.102  71.152  85.191  1.00  0.00    -0.393 OA
ATOM      4  H   UNL     1      79.830  71.715  85.508  1.00  0.00     0.210 HD
ENDBRANCH   2   3
BRANCH   2   5
ATOM      5  C   UNL     1      78.005  72.550  86.825  1.00  0.00     0.032 C 
BRANCH   5   6
ATOM      6  C   UNL     1      76.892  73.585  87.028  1.00  0.00     0.003 C 
BRANCH   6   7
ATOM      7  C   UNL     1      75.644  73.009  87.705  1.00  0.00    -0.000 C 
BRANCH   7   8
ATOM      8  C   UNL     1      74.785  74.061  88.402  1.00  0.00    -0.003 C 
ATOM      9  C   UNL     1      75.422  75.440  88.321  1.00  0.00     0.004 C 
ENDBRANCH   7   8
ENDBRANCH   6   7
ENDBRANCH   5   6
ENDBRANCH   2   5
ENDBRANCH   1   2
BRANCH   1  10
ATOM     10  C   UNL     1      78.574  72.811  83.243  1.00  0.00     0.135 C 
ATOM     11  O   UNL     1      78.677  71.911  82.410  1.00  0.00    -0.300 OA
BRANCH  10  12
ATOM     12  C   UNL     1      79.460  74.047  83.222  1.00  0.00     0.080 C 
BRANCH  12  13
ATOM     13  C   UNL     1      79.113  75.071  84.304  1.00  0.00     0.043 C 
BRANCH  13  14
ATOM     14  C   UNL     1      80.144  75.141  85.406  1.00  0.00    -0.044 A 
ATOM     15  C   UNL     1      81.174  74.202  85.458  1.00  0.00     0.054 A 
ATOM     16  C   UNL     1      80.065  76.145  86.371  1.00  0.00     0.008 A 
ATOM     17  C   UNL     1      82.126  74.268  86.475  1.00  0.00     0.160 A 
ATOM     18  C   UNL     1      81.017  76.211  87.388  1.00  0.00     0.050 A 
ATOM     19  C   UNL     1      82.048  75.272  87.441  1.00  0.00     0.157 A 
BRANCH  17  20
ATOM     20  O   UNL     1      83.128  73.345  86.516  1.00  0.00    -0.493 OA
ATOM     21  C   UNL     1      82.821  72.082  87.103  1.00  0.00     0.278 C 
ENDBRANCH  17  20
BRANCH  19  22
ATOM     22  O   UNL     1      82.971  75.347  88.439  1.00  0.00    -0.504 OA
ATOM     23  H   UNL     1      82.878  76.202  88.893  1.00  0.00     0.293 HD
ENDBRANCH  19  22
ENDBRANCH  13  14
ENDBRANCH  12  13
ENDBRANCH  10  12
ENDBRANCH   1  10
TORSDOF 12
ENDMDL
MODEL 10
REMARK VINA RESULT:    -5.171      5.430      8.101
REMARK INTER + INTRA:          -9.412
REMARK INTER:                  -8.247
REMARK INTRA:                  -1.165
REMARK UNBOUND:                -0.916
REMARK SMILES CCCCC[C@H](O)CC(=O)CCc1ccc(O)c(OC)c1
REMARK SMILES IDX 8 1 6 2 7 3 5 5 4 6 3 7 2 8 1 9 9 10 10 11 11 12 12 13 13 14
REMARK SMILES IDX 21 15 14 16 18 17 15 18 16 19 19 20 20 21 17 22
REMARK H PARENT 7 4 17 23
REMARK Flexibility Score: inf
ROOT
ATOM      1  C   UNL     1      94.823  89.793  86.658  1.00  0.00     0.107 C 
ENDROOT
BRANCH   1   2
ATOM      2  C   UNL     1      94.990  90.388  88.059  1.00  0.00     0.121 C 
BRANCH   2   3
ATOM      3  O   UNL     1      96.372  90.428  88.406  1.00  0.00    -0.393 OA
ATOM      4  H   UNL     1      96.474  89.996  89.272  1.00  0.00     0.210 HD
ENDBRANCH   2   3
BRANCH   2   5
ATOM      5  C   UNL     1      94.396  91.797  88.187  1.00  0.00     0.032 C 
BRANCH   5   6
ATOM      6  C   UNL     1      93.388  91.895  89.338  1.00  0.00     0.003 C 
BRANCH   6   7
ATOM      7  C   UNL     1      92.540  90.631  89.511  1.00  0.00    -0.000 C 
BRANCH   7   8
ATOM      8  C   UNL     1      92.476  90.129  90.952  1.00  0.00    -0.003 C 
ATOM      9  C   UNL     1      92.193  88.636  91.007  1.00  0.00     0.004 C 
ENDBRANCH   7   8
ENDBRANCH   6   7
ENDBRANCH   5   6
ENDBRANCH   2   5
ENDBRANCH   1   2
BRANCH   1  10
ATOM     10  C   UNL     1      94.459  88.317  86.678  1.00  0.00     0.135 C 
ATOM     11  O   UNL     1      94.419  87.662  85.637  1.00  0.00    -0.300 OA
BRANCH  10  12
ATOM     12  C   UNL     1      94.198  87.697  88.042  1.00  0.00     0.080 C 
BRANCH  12  13
ATOM     13  C   UNL     1      92.977  86.777  88.075  1.00  0.00     0.043 C 
BRANCH  13  14
ATOM     14  C   UNL     1      93.339  85.311  88.029  1.00  0.00    -0.044 A 
ATOM     15  C   UNL     1      93.263  84.611  86.825  1.00  0.00     0.054 A 
ATOM     16  C   UNL     1      93.749  84.658  89.192  1.00  0.00     0.008 A 
ATOM     17  C   UNL     1      93.599  83.257  86.785  1.00  0.00     0.160 A 
ATOM     18  C   UNL     1      94.085  83.305  89.151  1.00  0.00     0.050 A 
ATOM     19  C   UNL     1      94.009  82.604  87.947  1.00  0.00     0.157 A 
BRANCH  17  20
ATOM     20  O   UNL     1      93.521  82.583  85.603  1.00  0.00    -0.493 OA
ATOM     21  C   UNL     1      92.307  82.709  84.864  1.00  0.00     0.278 C 
ENDBRANCH  17  20
BRANCH  19  22
ATOM     22  O   UNL     1      94.340  81.283  87.920  1.00  0.00    -0.504 OA
ATOM     23  H   UNL     1      95.106  81.136  88.500  1.00  0.00     0.293 HD
ENDBRANCH  19  22
ENDBRANCH  13  14
ENDBRANCH  12  13
ENDBRANCH  10  12
ENDBRANCH   1  10
TORSDOF 12
ENDMDL
