MODEL 1
REMARK VINA RESULT:    -6.244      0.000      0.000
REMARK INTER + INTRA:         -10.966
REMARK INTER:                 -10.077
REMARK INTRA:                  -0.889
REMARK UNBOUND:                -0.889
REMARK SMILES COc1cc(CNC(=O)CCCCC/C=C/C(C)C)ccc1O
REMARK SMILES IDX 11 1 10 2 8 3 7 4 9 6 6 7 5 8 3 9 22 10 4 11 21 12 20 13
REMARK SMILES IDX 2 14 1 15 23 16 12 18 13 19 14 20 15 21 16 22 17 23 18 24
REMARK SMILES IDX 19 25
REMARK H PARENT 7 5 23 17
REMARK Flexibility Score: inf
ROOT
ATOM      1  C   UNL     1      96.242  95.911  76.975  1.00  0.00     0.010 C 
ENDROOT
BRANCH   1   2
ATOM      2  C   UNL     1      95.930  95.029  75.739  1.00  0.00     0.100 C 
BRANCH   2   3
ATOM      3  C   UNL     1      94.518  95.066  75.317  1.00  0.00     0.220 C 
ATOM      4  N   UNL     1      93.698  94.014  75.596  1.00  0.00    -0.352 N 
ATOM      5  H   UNL     1      94.159  93.225  76.028  1.00  0.00     0.163 HD
ATOM      6  O   UNL     1      94.095  96.095  74.739  1.00  0.00    -0.275 OA
BRANCH   4   7
ATOM      7  C   UNL     1      92.297  93.961  75.333  1.00  0.00     0.151 C 
BRANCH   7   8
ATOM      8  C   UNL     1      91.631  92.817  76.007  1.00  0.00    -0.025 A 
ATOM      9  C   UNL     1      90.555  90.608  75.903  1.00  0.00     0.160 A 
ATOM     10  C   UNL     1      90.313  90.661  77.293  1.00  0.00     0.157 A 
ATOM     11  C   UNL     1      91.204  91.688  75.270  1.00  0.00     0.056 A 
ATOM     12  C   UNL     1      90.749  91.772  78.039  1.00  0.00     0.050 A 
ATOM     13  C   UNL     1      91.412  92.837  77.403  1.00  0.00     0.009 A 
BRANCH   9  14
ATOM     14  O   UNL     1      90.214  89.494  75.183  1.00  0.00    -0.493 OA
ATOM     15  C   UNL     1      91.325  88.645  74.850  1.00  0.00     0.278 C 
ENDBRANCH   9  14
BRANCH  10  16
ATOM     16  O   UNL     1      89.667  89.656  77.935  1.00  0.00    -0.504 OA
ATOM     17  H   UNL     1      88.794  89.955  78.201  1.00  0.00     0.293 HD
ENDBRANCH  10  16
ENDBRANCH   7   8
ENDBRANCH   4   7
ENDBRANCH   2   3
ENDBRANCH   1   2
BRANCH   1  18
ATOM     18  C   UNL     1      96.715  95.049  78.173  1.00  0.00     0.001 C 
BRANCH  18  19
ATOM     19  C   UNL     1      95.606  94.140  78.762  1.00  0.00     0.004 C 
BRANCH  19  20
ATOM     20  C   UNL     1      95.221  94.577  80.203  1.00  0.00     0.027 C 
BRANCH  20  21
ATOM     21  C   UNL     1      95.963  95.731  80.682  1.00  0.00    -0.031 C 
ATOM     22  C   UNL     1      95.875  96.165  81.952  1.00  0.00    -0.028 C 
BRANCH  22  23
ATOM     23  C   UNL     1      96.612  97.317  82.465  1.00  0.00     0.005 C 
ATOM     24  C   UNL     1      96.269  98.586  81.641  1.00  0.00     0.012 C 
ATOM     25  C   UNL     1      96.328  97.504  83.981  1.00  0.00     0.012 C 
ENDBRANCH  22  23
ENDBRANCH  20  21
ENDBRANCH  19  20
ENDBRANCH  18  19
ENDBRANCH   1  18
TORSDOF 11
ENDMDL
MODEL 2
REMARK VINA RESULT:    -5.875     18.151     21.349
REMARK INTER + INTRA:         -10.370
REMARK INTER:                  -9.520
REMARK INTRA:                  -0.850
REMARK UNBOUND:                -0.889
REMARK SMILES COc1cc(CNC(=O)CCCCC/C=C/C(C)C)ccc1O
REMARK SMILES IDX 11 1 10 2 8 3 7 4 9 6 6 7 5 8 3 9 22 10 4 11 21 12 20 13
REMARK SMILES IDX 2 14 1 15 23 16 12 18 13 19 14 20 15 21 16 22 17 23 18 24
REMARK SMILES IDX 19 25
REMARK H PARENT 7 5 23 17
REMARK Flexibility Score: inf
ROOT
ATOM      1  C   UNL     1      77.932  89.654  64.201  1.00  0.00     0.010 C 
ENDROOT
BRANCH   1   2
ATOM      2  C   UNL     1      77.237  90.622  63.209  1.00  0.00     0.100 C 
BRANCH   2   3
ATOM      3  C   UNL     1      76.704  91.845  63.838  1.00  0.00     0.220 C 
ATOM      4  N   UNL     1      77.468  92.971  63.886  1.00  0.00    -0.352 N 
ATOM      5  H   UNL     1      78.410  92.856  63.537  1.00  0.00     0.163 HD
ATOM      6  O   UNL     1      75.531  91.824  64.280  1.00  0.00    -0.275 OA
BRANCH   4   7
ATOM      7  C   UNL     1      77.043  94.242  64.376  1.00  0.00     0.151 C 
BRANCH   7   8
ATOM      8  C   UNL     1      77.821  94.688  65.560  1.00  0.00    -0.025 A 
ATOM      9  C   UNL     1      77.941  95.231  67.956  1.00  0.00     0.160 A 
ATOM     10  C   UNL     1      79.298  95.592  67.805  1.00  0.00     0.157 A 
ATOM     11  C   UNL     1      77.212  94.791  66.833  1.00  0.00     0.056 A 
ATOM     12  C   UNL     1      79.919  95.478  66.547  1.00  0.00     0.050 A 
ATOM     13  C   UNL     1      79.189  95.019  65.435  1.00  0.00     0.009 A 
BRANCH   9  14
ATOM     14  O   UNL     1      77.352  95.255  69.192  1.00  0.00    -0.493 OA
ATOM     15  C   UNL     1      76.353  94.240  69.386  1.00  0.00     0.278 C 
ENDBRANCH   9  14
BRANCH  10  16
ATOM     16  O   UNL     1      80.027  96.047  68.854  1.00  0.00    -0.504 OA
ATOM     17  H   UNL     1      79.436  96.358  69.544  1.00  0.00     0.293 HD
ENDBRANCH  10  16
ENDBRANCH   7   8
ENDBRANCH   4   7
ENDBRANCH   2   3
ENDBRANCH   1   2
BRANCH   1  18
ATOM     18  C   UNL     1      76.922  88.640  64.794  1.00  0.00     0.001 C 
BRANCH  18  19
ATOM     19  C   UNL     1      76.953  88.561  66.342  1.00  0.00     0.004 C 
BRANCH  19  20
ATOM     20  C   UNL     1      78.255  87.880  66.849  1.00  0.00     0.027 C 
BRANCH  20  21
ATOM     21  C   UNL     1      78.136  86.441  67.011  1.00  0.00    -0.031 C 
ATOM     22  C   UNL     1      77.021  85.862  67.493  1.00  0.00    -0.028 C 
BRANCH  22  23
ATOM     23  C   UNL     1      76.868  84.419  67.664  1.00  0.00     0.005 C 
ATOM     24  C   UNL     1      75.921  84.116  68.855  1.00  0.00     0.012 C 
ATOM     25  C   UNL     1      76.378  83.771  66.340  1.00  0.00     0.012 C 
ENDBRANCH  22  23
ENDBRANCH  20  21
ENDBRANCH  19  20
ENDBRANCH  18  19
ENDBRANCH   1  18
TORSDOF 11
ENDMDL
MODEL 3
REMARK VINA RESULT:    -5.812     26.301     29.344
REMARK INTER + INTRA:         -10.269
REMARK INTER:                  -8.800
REMARK INTRA:                  -1.469
REMARK UNBOUND:                -0.889
REMARK SMILES COc1cc(CNC(=O)CCCCC/C=C/C(C)C)ccc1O
REMARK SMILES IDX 11 1 10 2 8 3 7 4 9 6 6 7 5 8 3 9 22 10 4 11 21 12 20 13
REMARK SMILES IDX 2 14 1 15 23 16 12 18 13 19 14 20 15 21 16 22 17 23 18 24
REMARK SMILES IDX 19 25
REMARK H PARENT 7 5 23 17
REMARK Flexibility Score: inf
ROOT
ATOM      1  C   UNL     1      80.278  65.025  73.868  1.00  0.00     0.010 C 
ENDROOT
BRANCH   1   2
ATOM      2  C   UNL     1      80.809  66.113  74.837  1.00  0.00     0.100 C 
BRANCH   2   3
ATOM      3  C   UNL     1      81.873  65.642  75.743  1.00  0.00     0.220 C 
ATOM      4  N   UNL     1      83.179  65.765  75.378  1.00  0.00    -0.352 N 
ATOM      5  H   UNL     1      83.323  66.121  74.443  1.00  0.00     0.163 HD
ATOM      6  O   UNL     1      81.541  65.171  76.857  1.00  0.00    -0.275 OA
BRANCH   4   7
ATOM      7  C   UNL     1      84.303  65.441  76.195  1.00  0.00     0.151 C 
BRANCH   7   8
ATOM      8  C   UNL     1      84.928  66.641  76.809  1.00  0.00    -0.025 A 
ATOM      9  C   UNL     1      86.346  67.661  78.541  1.00  0.00     0.160 A 
ATOM     10  C   UNL     1      86.075  68.940  78.008  1.00  0.00     0.157 A 
ATOM     11  C   UNL     1      85.765  66.524  77.944  1.00  0.00     0.056 A 
ATOM     12  C   UNL     1      85.258  69.067  76.870  1.00  0.00     0.050 A 
ATOM     13  C   UNL     1      84.697  67.925  76.268  1.00  0.00     0.009 A 
BRANCH   9  14
ATOM     14  O   UNL     1      87.210  67.518  79.594  1.00  0.00    -0.493 OA
ATOM     15  C   UNL     1      88.541  67.131  79.215  1.00  0.00     0.278 C 
ENDBRANCH   9  14
BRANCH  10  16
ATOM     16  O   UNL     1      86.591  70.062  78.570  1.00  0.00    -0.504 OA
ATOM     17  H   UNL     1      85.891  70.706  78.699  1.00  0.00     0.293 HD
ENDBRANCH  10  16
ENDBRANCH   7   8
ENDBRANCH   4   7
ENDBRANCH   2   3
ENDBRANCH   1   2
BRANCH   1  18
ATOM     18  C   UNL     1      80.471  65.450  72.390  1.00  0.00     0.001 C 
BRANCH  18  19
ATOM     19  C   UNL     1      80.277  66.969  72.147  1.00  0.00     0.004 C 
BRANCH  19  20
ATOM     20  C   UNL     1      80.998  67.433  70.851  1.00  0.00     0.027 C 
BRANCH  20  21
ATOM     21  C   UNL     1      82.172  68.253  71.097  1.00  0.00    -0.031 C 
ATOM     22  C   UNL     1      82.848  68.211  72.259  1.00  0.00    -0.028 C 
BRANCH  22  23
ATOM     23  C   UNL     1      84.034  69.018  72.535  1.00  0.00     0.005 C 
ATOM     24  C   UNL     1      85.301  68.123  72.556  1.00  0.00     0.012 C 
ATOM     25  C   UNL     1      84.146  70.176  71.506  1.00  0.00     0.012 C 
ENDBRANCH  22  23
ENDBRANCH  20  21
ENDBRANCH  19  20
ENDBRANCH  18  19
ENDBRANCH   1  18
TORSDOF 11
ENDMDL
MODEL 4
REMARK VINA RESULT:    -5.811      5.565      9.474
REMARK INTER + INTRA:         -10.267
REMARK INTER:                  -9.554
REMARK INTRA:                  -0.713
REMARK UNBOUND:                -0.889
REMARK SMILES COc1cc(CNC(=O)CCCCC/C=C/C(C)C)ccc1O
REMARK SMILES IDX 11 1 10 2 8 3 7 4 9 6 6 7 5 8 3 9 22 10 4 11 21 12 20 13
REMARK SMILES IDX 2 14 1 15 23 16 12 18 13 19 14 20 15 21 16 22 17 23 18 24
REMARK SMILES IDX 19 25
REMARK H PARENT 7 5 23 17
REMARK Flexibility Score: inf
ROOT
ATOM      1  C   UNL     1      94.948  99.182  71.673  1.00  0.00     0.010 C 
ENDROOT
BRANCH   1   2
ATOM      2  C   UNL     1      94.260  98.310  72.755  1.00  0.00     0.100 C 
BRANCH   2   3
ATOM      3  C   UNL     1      95.134  97.960  73.890  1.00  0.00     0.220 C 
ATOM      4  N   UNL     1      95.811  96.778  73.886  1.00  0.00    -0.352 N 
ATOM      5  H   UNL     1      95.597  96.173  73.105  1.00  0.00     0.163 HD
ATOM      6  O   UNL     1      95.263  98.791  74.820  1.00  0.00    -0.275 OA
BRANCH   4   7
ATOM      7  C   UNL     1      96.759  96.362  74.867  1.00  0.00     0.151 C 
BRANCH   7   8
ATOM      8  C   UNL     1      96.133  95.597  75.978  1.00  0.00    -0.025 A 
ATOM      9  C   UNL     1      94.412  94.044  76.798  1.00  0.00     0.160 A 
ATOM     10  C   UNL     1      94.913  94.183  78.110  1.00  0.00     0.157 A 
ATOM     11  C   UNL     1      95.019  94.757  75.744  1.00  0.00     0.056 A 
ATOM     12  C   UNL     1      96.031  95.003  78.352  1.00  0.00     0.050 A 
ATOM     13  C   UNL     1      96.643  95.696  77.291  1.00  0.00     0.009 A 
BRANCH   9  14
ATOM     14  O   UNL     1      93.380  93.181  76.538  1.00  0.00    -0.493 OA
ATOM     15  C   UNL     1      92.891  93.240  75.188  1.00  0.00     0.278 C 
ENDBRANCH   9  14
BRANCH  10  16
ATOM     16  O   UNL     1      94.339  93.536  79.156  1.00  0.00    -0.504 OA
ATOM     17  H   UNL     1      95.017  93.079  79.659  1.00  0.00     0.293 HD
ENDBRANCH  10  16
ENDBRANCH   7   8
ENDBRANCH   4   7
ENDBRANCH   2   3
ENDBRANCH   1   2
BRANCH   1  18
ATOM     18  C   UNL     1      94.120  99.205  70.363  1.00  0.00     0.001 C 
BRANCH  18  19
ATOM     19  C   UNL     1      92.714  98.569  70.503  1.00  0.00     0.004 C 
BRANCH  19  20
ATOM     20  C   UNL     1      91.646  99.377  69.715  1.00  0.00     0.027 C 
BRANCH  20  21
ATOM     21  C   UNL     1      90.819  98.558  68.845  1.00  0.00    -0.031 C 
ATOM     22  C   UNL     1      90.870  98.655  67.505  1.00  0.00    -0.028 C 
BRANCH  22  23
ATOM     23  C   UNL     1      90.057  97.843  66.603  1.00  0.00     0.005 C 
ATOM     24  C   UNL     1      89.712  96.484  67.266  1.00  0.00     0.012 C 
ATOM     25  C   UNL     1      88.788  98.628  66.172  1.00  0.00     0.012 C 
ENDBRANCH  22  23
ENDBRANCH  20  21
ENDBRANCH  19  20
ENDBRANCH  18  19
ENDBRANCH   1  18
TORSDOF 11
ENDMDL
MODEL 5
REMARK VINA RESULT:    -5.797     27.028     30.776
REMARK INTER + INTRA:         -10.245
REMARK INTER:                  -8.945
REMARK INTRA:                  -1.300
REMARK UNBOUND:                -0.889
REMARK SMILES COc1cc(CNC(=O)CCCCC/C=C/C(C)C)ccc1O
REMARK SMILES IDX 11 1 10 2 8 3 7 4 9 6 6 7 5 8 3 9 22 10 4 11 21 12 20 13
REMARK SMILES IDX 2 14 1 15 23 16 12 18 13 19 14 20 15 21 16 22 17 23 18 24
REMARK SMILES IDX 19 25
REMARK H PARENT 7 5 23 17
REMARK Flexibility Score: inf
ROOT
ATOM      1  C   UNL     1      85.291  65.659  75.759  1.00  0.00     0.010 C 
ENDROOT
BRANCH   1   2
ATOM      2  C   UNL     1      84.893  64.170  75.928  1.00  0.00     0.100 C 
BRANCH   2   3
ATOM      3  C   UNL     1      84.509  63.804  77.304  1.00  0.00     0.220 C 
ATOM      4  N   UNL     1      85.472  63.567  78.237  1.00  0.00    -0.352 N 
ATOM      5  H   UNL     1      86.418  63.592  77.881  1.00  0.00     0.163 HD
ATOM      6  O   UNL     1      83.289  63.759  77.589  1.00  0.00    -0.275 OA
BRANCH   4   7
ATOM      7  C   UNL     1      85.241  63.301  79.619  1.00  0.00     0.151 C 
BRANCH   7   8
ATOM      8  C   UNL     1      85.767  64.372  80.504  1.00  0.00    -0.025 A 
ATOM      9  C   UNL     1      87.168  66.364  80.845  1.00  0.00     0.160 A 
ATOM     10  C   UNL     1      86.810  66.381  82.211  1.00  0.00     0.157 A 
ATOM     11  C   UNL     1      86.652  65.357  80.005  1.00  0.00     0.056 A 
ATOM     12  C   UNL     1      85.918  65.417  82.714  1.00  0.00     0.050 A 
ATOM     13  C   UNL     1      85.391  64.426  81.865  1.00  0.00     0.009 A 
BRANCH   9  14
ATOM     14  O   UNL     1      87.967  67.349  80.327  1.00  0.00    -0.493 OA
ATOM     15  C   UNL     1      87.257  68.339  79.563  1.00  0.00     0.278 C 
ENDBRANCH   9  14
BRANCH  10  16
ATOM     16  O   UNL     1      87.307  67.316  83.059  1.00  0.00    -0.504 OA
ATOM     17  H   UNL     1      87.398  68.152  82.594  1.00  0.00     0.293 HD
ENDBRANCH  10  16
ENDBRANCH   7   8
ENDBRANCH   4   7
ENDBRANCH   2   3
ENDBRANCH   1   2
BRANCH   1  18
ATOM     18  C   UNL     1      84.112  66.493  75.195  1.00  0.00     0.001 C 
BRANCH  18  19
ATOM     19  C   UNL     1      83.309  67.250  76.282  1.00  0.00     0.004 C 
BRANCH  19  20
ATOM     20  C   UNL     1      81.892  66.639  76.470  1.00  0.00     0.027 C 
BRANCH  20  21
ATOM     21  C   UNL     1      81.469  65.795  75.366  1.00  0.00    -0.031 C 
ATOM     22  C   UNL     1      80.520  66.175  74.492  1.00  0.00    -0.028 C 
BRANCH  22  23
ATOM     23  C   UNL     1      80.077  65.353  73.369  1.00  0.00     0.005 C 
ATOM     24  C   UNL     1      81.017  65.553  72.151  1.00  0.00     0.012 C 
ATOM     25  C   UNL     1      79.979  63.864  73.800  1.00  0.00     0.012 C 
ENDBRANCH  22  23
ENDBRANCH  20  21
ENDBRANCH  19  20
ENDBRANCH  18  19
ENDBRANCH   1  18
TORSDOF 11
ENDMDL
MODEL 6
REMARK VINA RESULT:    -5.776     14.148     17.752
REMARK INTER + INTRA:         -10.210
REMARK INTER:                  -8.491
REMARK INTRA:                  -1.720
REMARK UNBOUND:                -0.889
REMARK SMILES COc1cc(CNC(=O)CCCCC/C=C/C(C)C)ccc1O
REMARK SMILES IDX 11 1 10 2 8 3 7 4 9 6 6 7 5 8 3 9 22 10 4 11 21 12 20 13
REMARK SMILES IDX 2 14 1 15 23 16 12 18 13 19 14 20 15 21 16 22 17 23 18 24
REMARK SMILES IDX 19 25
REMARK H PARENT 7 5 23 17
REMARK Flexibility Score: inf
ROOT
ATOM      1  C   UNL     1      80.979  85.829  86.307  1.00  0.00     0.010 C 
ENDROOT
BRANCH   1   2
ATOM      2  C   UNL     1      79.942  86.796  86.933  1.00  0.00     0.100 C 
BRANCH   2   3
ATOM      3  C   UNL     1      80.227  87.155  88.335  1.00  0.00     0.220 C 
ATOM      4  N   UNL     1      79.848  88.373  88.813  1.00  0.00    -0.352 N 
ATOM      5  H   UNL     1      79.446  88.991  88.121  1.00  0.00     0.163 HD
ATOM      6  O   UNL     1      80.782  86.302  89.068  1.00  0.00    -0.275 OA
BRANCH   4   7
ATOM      7  C   UNL     1      79.974  88.808  90.166  1.00  0.00     0.151 C 
BRANCH   7   8
ATOM      8  C   UNL     1      81.214  89.593  90.401  1.00  0.00    -0.025 A 
ATOM      9  C   UNL     1      82.447  91.718  90.306  1.00  0.00     0.160 A 
ATOM     10  C   UNL     1      83.600  91.071  90.802  1.00  0.00     0.157 A 
ATOM     11  C   UNL     1      81.268  90.974  90.101  1.00  0.00     0.056 A 
ATOM     12  C   UNL     1      83.553  89.701  91.119  1.00  0.00     0.050 A 
ATOM     13  C   UNL     1      82.366  88.969  90.931  1.00  0.00     0.009 A 
BRANCH   9  14
ATOM     14  O   UNL     1      82.456  93.069  90.077  1.00  0.00    -0.493 OA
ATOM     15  C   UNL     1      82.647  93.429  88.699  1.00  0.00     0.278 C 
ENDBRANCH   9  14
BRANCH  10  16
ATOM     16  O   UNL     1      84.763  91.744  90.986  1.00  0.00    -0.504 OA
ATOM     17  H   UNL     1      85.186  91.436  91.791  1.00  0.00     0.293 HD
ENDBRANCH  10  16
ENDBRANCH   7   8
ENDBRANCH   4   7
ENDBRANCH   2   3
ENDBRANCH   1   2
BRANCH   1  18
ATOM     18  C   UNL     1      80.875  85.821  84.760  1.00  0.00     0.001 C 
BRANCH  18  19
ATOM     19  C   UNL     1      79.850  86.840  84.200  1.00  0.00     0.004 C 
BRANCH  19  20
ATOM     20  C   UNL     1      80.555  87.978  83.411  1.00  0.00     0.027 C 
BRANCH  20  21
ATOM     21  C   UNL     1      81.061  89.048  84.255  1.00  0.00    -0.031 C 
ATOM     22  C   UNL     1      82.361  89.149  84.585  1.00  0.00    -0.028 C 
BRANCH  22  23
ATOM     23  C   UNL     1      82.901  90.214  85.426  1.00  0.00     0.005 C 
ATOM     24  C   UNL     1      82.613  89.917  86.922  1.00  0.00     0.012 C 
ATOM     25  C   UNL     1      84.416  90.404  85.144  1.00  0.00     0.012 C 
ENDBRANCH  22  23
ENDBRANCH  20  21
ENDBRANCH  19  20
ENDBRANCH  18  19
ENDBRANCH   1  18
TORSDOF 11
ENDMDL
MODEL 7
REMARK VINA RESULT:    -5.674     11.811     14.388
REMARK INTER + INTRA:         -10.045
REMARK INTER:                  -8.985
REMARK INTRA:                  -1.060
REMARK UNBOUND:                -0.889
REMARK SMILES COc1cc(CNC(=O)CCCCC/C=C/C(C)C)ccc1O
REMARK SMILES IDX 11 1 10 2 8 3 7 4 9 6 6 7 5 8 3 9 22 10 4 11 21 12 20 13
REMARK SMILES IDX 2 14 1 15 23 16 12 18 13 19 14 20 15 21 16 22 17 23 18 24
REMARK SMILES IDX 19 25
REMARK H PARENT 7 5 23 17
REMARK Flexibility Score: inf
ROOT
ATOM      1  C   UNL     1      95.411  81.996  84.063  1.00  0.00     0.010 C 
ENDROOT
BRANCH   1   2
ATOM      2  C   UNL     1      96.376  83.126  83.617  1.00  0.00     0.100 C 
BRANCH   2   3
ATOM      3  C   UNL     1      96.168  84.405  84.320  1.00  0.00     0.220 C 
ATOM      4  N   UNL     1      95.760  84.406  85.620  1.00  0.00    -0.352 N 
ATOM      5  H   UNL     1      95.553  83.492  85.997  1.00  0.00     0.163 HD
ATOM      6  O   UNL     1      96.414  85.470  83.706  1.00  0.00    -0.275 OA
BRANCH   4   7
ATOM      7  C   UNL     1      95.614  85.563  86.443  1.00  0.00     0.151 C 
BRANCH   7   8
ATOM      8  C   UNL     1      94.339  85.566  87.205  1.00  0.00    -0.025 A 
ATOM      9  C   UNL     1      92.900  86.518  88.957  1.00  0.00     0.160 A 
ATOM     10  C   UNL     1      91.925  85.532  88.691  1.00  0.00     0.157 A 
ATOM     11  C   UNL     1      94.101  86.522  88.219  1.00  0.00     0.056 A 
ATOM     12  C   UNL     1      92.143  84.586  87.673  1.00  0.00     0.050 A 
ATOM     13  C   UNL     1      93.337  84.609  86.928  1.00  0.00     0.009 A 
BRANCH   9  14
ATOM     14  O   UNL     1      92.660  87.496  89.886  1.00  0.00    -0.493 OA
ATOM     15  C   UNL     1      93.004  88.821  89.446  1.00  0.00     0.278 C 
ENDBRANCH   9  14
BRANCH  10  16
ATOM     16  O   UNL     1      90.768  85.476  89.398  1.00  0.00    -0.504 OA
ATOM     17  H   UNL     1      90.269  86.284  89.257  1.00  0.00     0.293 HD
ENDBRANCH  10  16
ENDBRANCH   7   8
ENDBRANCH   4   7
ENDBRANCH   2   3
ENDBRANCH   1   2
BRANCH   1  18
ATOM     18  C   UNL     1      96.020  80.598  83.784  1.00  0.00     0.001 C 
BRANCH  18  19
ATOM     19  C   UNL     1      97.453  80.649  83.197  1.00  0.00     0.004 C 
BRANCH  19  20
ATOM     20  C   UNL     1      97.546  79.857  81.862  1.00  0.00     0.027 C 
BRANCH  20  21
ATOM     21  C   UNL     1      97.840  80.690  80.708  1.00  0.00    -0.031 C 
ATOM     22  C   UNL     1      97.120  81.787  80.412  1.00  0.00    -0.028 C 
BRANCH  22  23
ATOM     23  C   UNL     1      97.392  82.647  79.263  1.00  0.00     0.005 C 
ATOM     24  C   UNL     1      98.912  82.662  78.950  1.00  0.00     0.012 C 
ATOM     25  C   UNL     1      96.543  82.198  78.043  1.00  0.00     0.012 C 
ENDBRANCH  22  23
ENDBRANCH  20  21
ENDBRANCH  19  20
ENDBRANCH  18  19
ENDBRANCH   1  18
TORSDOF 11
ENDMDL
MODEL 8
REMARK VINA RESULT:    -5.560     14.505     16.882
REMARK INTER + INTRA:          -9.861
REMARK INTER:                  -8.210
REMARK INTRA:                  -1.651
REMARK UNBOUND:                -0.889
REMARK SMILES COc1cc(CNC(=O)CCCCC/C=C/C(C)C)ccc1O
REMARK SMILES IDX 11 1 10 2 8 3 7 4 9 6 6 7 5 8 3 9 22 10 4 11 21 12 20 13
REMARK SMILES IDX 2 14 1 15 23 16 12 18 13 19 14 20 15 21 16 22 17 23 18 24
REMARK SMILES IDX 19 25
REMARK H PARENT 7 5 23 17
REMARK Flexibility Score: inf
ROOT
ATOM      1  C   UNL     1      82.285  92.577  89.124  1.00  0.00     0.010 C 
ENDROOT
BRANCH   1   2
ATOM      2  C   UNL     1      83.205  91.329  89.158  1.00  0.00     0.100 C 
BRANCH   2   3
ATOM      3  C   UNL     1      83.435  90.717  87.836  1.00  0.00     0.220 C 
ATOM      4  N   UNL     1      82.591  90.994  86.804  1.00  0.00    -0.352 N 
ATOM      5  H   UNL     1      81.796  91.567  87.052  1.00  0.00     0.163 HD
ATOM      6  O   UNL     1      84.439  89.980  87.688  1.00  0.00    -0.275 OA
BRANCH   4   7
ATOM      7  C   UNL     1      82.753  90.550  85.458  1.00  0.00     0.151 C 
BRANCH   7   8
ATOM      8  C   UNL     1      81.885  89.389  85.131  1.00  0.00    -0.025 A 
ATOM      9  C   UNL     1      81.569  86.963  84.873  1.00  0.00     0.160 A 
ATOM     10  C   UNL     1      80.239  87.182  84.454  1.00  0.00     0.157 A 
ATOM     11  C   UNL     1      82.384  88.067  85.199  1.00  0.00     0.056 A 
ATOM     12  C   UNL     1      79.727  88.491  84.399  1.00  0.00     0.050 A 
ATOM     13  C   UNL     1      80.540  89.586  84.745  1.00  0.00     0.009 A 
BRANCH   9  14
ATOM     14  O   UNL     1      82.050  85.689  85.014  1.00  0.00    -0.493 OA
ATOM     15  C   UNL     1      82.500  85.374  86.342  1.00  0.00     0.278 C 
ENDBRANCH   9  14
BRANCH  10  16
ATOM     16  O   UNL     1      79.431  86.150  84.104  1.00  0.00    -0.504 OA
ATOM     17  H   UNL     1      79.108  85.714  84.896  1.00  0.00     0.293 HD
ENDBRANCH  10  16
ENDBRANCH   7   8
ENDBRANCH   4   7
ENDBRANCH   2   3
ENDBRANCH   1   2
BRANCH   1  18
ATOM     18  C   UNL     1      81.565  92.778  90.482  1.00  0.00     0.001 C 
BRANCH  18  19
ATOM     19  C   UNL     1      80.022  92.663  90.392  1.00  0.00     0.004 C 
BRANCH  19  20
ATOM     20  C   UNL     1      79.524  91.288  90.919  1.00  0.00     0.027 C 
BRANCH  20  21
ATOM     21  C   UNL     1      79.807  90.182  90.021  1.00  0.00    -0.031 C 
ATOM     22  C   UNL     1      80.105  88.950  90.471  1.00  0.00    -0.028 C 
BRANCH  22  23
ATOM     23  C   UNL     1      80.389  87.815  89.595  1.00  0.00     0.005 C 
ATOM     24  C   UNL     1      79.637  86.552  90.091  1.00  0.00     0.012 C 
ATOM     25  C   UNL     1      80.037  88.171  88.125  1.00  0.00     0.012 C 
ENDBRANCH  22  23
ENDBRANCH  20  21
ENDBRANCH  19  20
ENDBRANCH  18  19
ENDBRANCH   1  18
TORSDOF 11
ENDMDL
MODEL 9
REMARK VINA RESULT:    -5.546     21.050     24.682
REMARK INTER + INTRA:          -9.838
REMARK INTER:                  -8.155
REMARK INTRA:                  -1.683
REMARK UNBOUND:                -0.889
REMARK SMILES COc1cc(CNC(=O)CCCCC/C=C/C(C)C)ccc1O
REMARK SMILES IDX 11 1 10 2 8 3 7 4 9 6 6 7 5 8 3 9 22 10 4 11 21 12 20 13
REMARK SMILES IDX 2 14 1 15 23 16 12 18 13 19 14 20 15 21 16 22 17 23 18 24
REMARK SMILES IDX 19 25
REMARK H PARENT 7 5 23 17
REMARK Flexibility Score: inf
ROOT
ATOM      1  C   UNL     1      77.092  88.289  63.443  1.00  0.00     0.010 C 
ENDROOT
BRANCH   1   2
ATOM      2  C   UNL     1      75.964  87.226  63.459  1.00  0.00     0.100 C 
BRANCH   2   3
ATOM      3  C   UNL     1      76.451  85.836  63.537  1.00  0.00     0.220 C 
ATOM      4  N   UNL     1      75.566  84.817  63.725  1.00  0.00    -0.352 N 
ATOM      5  H   UNL     1      74.611  85.111  63.875  1.00  0.00     0.163 HD
ATOM      6  O   UNL     1      77.677  85.625  63.385  1.00  0.00    -0.275 OA
BRANCH   4   7
ATOM      7  C   UNL     1      75.889  83.427  63.722  1.00  0.00     0.151 C 
BRANCH   7   8
ATOM      8  C   UNL     1      74.684  82.561  63.792  1.00  0.00    -0.025 A 
ATOM      9  C   UNL     1      72.309  82.244  64.347  1.00  0.00     0.160 A 
ATOM     10  C   UNL     1      72.403  80.886  63.973  1.00  0.00     0.157 A 
ATOM     11  C   UNL     1      73.450  83.068  64.263  1.00  0.00     0.056 A 
ATOM     12  C   UNL     1      73.621  80.375  63.487  1.00  0.00     0.050 A 
ATOM     13  C   UNL     1      74.750  81.209  63.388  1.00  0.00     0.009 A 
BRANCH   9  14
ATOM     14  O   UNL     1      71.107  82.773  64.738  1.00  0.00    -0.493 OA
ATOM     15  C   UNL     1      71.050  84.208  64.679  1.00  0.00     0.278 C 
ENDBRANCH   9  14
BRANCH  10  16
ATOM     16  O   UNL     1      71.336  80.054  64.066  1.00  0.00    -0.504 OA
ATOM     17  H   UNL     1      71.224  79.779  64.979  1.00  0.00     0.293 HD
ENDBRANCH  10  16
ENDBRANCH   7   8
ENDBRANCH   4   7
ENDBRANCH   2   3
ENDBRANCH   1   2
BRANCH   1  18
ATOM     18  C   UNL     1      77.267  88.940  64.839  1.00  0.00     0.001 C 
BRANCH  18  19
ATOM     19  C   UNL     1      78.312  88.226  65.733  1.00  0.00     0.004 C 
BRANCH  19  20
ATOM     20  C   UNL     1      77.720  87.874  67.126  1.00  0.00     0.027 C 
BRANCH  20  21
ATOM     21  C   UNL     1      76.901  86.674  67.127  1.00  0.00    -0.031 C 
ATOM     22  C   UNL     1      75.686  86.633  67.702  1.00  0.00    -0.028 C 
BRANCH  22  23
ATOM     23  C   UNL     1      74.836  85.445  67.715  1.00  0.00     0.005 C 
ATOM     24  C   UNL     1      73.631  85.634  66.756  1.00  0.00     0.012 C 
ATOM     25  C   UNL     1      75.673  84.183  67.370  1.00  0.00     0.012 C 
ENDBRANCH  22  23
ENDBRANCH  20  21
ENDBRANCH  19  20
ENDBRANCH  18  19
ENDBRANCH   1  18
TORSDOF 11
ENDMDL
MODEL 10
REMARK VINA RESULT:    -5.508      5.443      9.945
REMARK INTER + INTRA:          -9.778
REMARK INTER:                  -9.194
REMARK INTRA:                  -0.584
REMARK UNBOUND:                -0.889
REMARK SMILES COc1cc(CNC(=O)CCCCC/C=C/C(C)C)ccc1O
REMARK SMILES IDX 11 1 10 2 8 3 7 4 9 6 6 7 5 8 3 9 22 10 4 11 21 12 20 13
REMARK SMILES IDX 2 14 1 15 23 16 12 18 13 19 14 20 15 21 16 22 17 23 18 24
REMARK SMILES IDX 19 25
REMARK H PARENT 7 5 23 17
REMARK Flexibility Score: inf
ROOT
ATOM      1  C   UNL     1      94.604  97.853  73.235  1.00  0.00     0.010 C 
ENDROOT
BRANCH   1   2
ATOM      2  C   UNL     1      94.015  96.776  74.183  1.00  0.00     0.100 C 
BRANCH   2   3
ATOM      3  C   UNL     1      95.033  95.982  74.895  1.00  0.00     0.220 C 
ATOM      4  N   UNL     1      94.662  95.171  75.924  1.00  0.00    -0.352 N 
ATOM      5  H   UNL     1      93.686  95.233  76.179  1.00  0.00     0.163 HD
ATOM      6  O   UNL     1      96.221  96.045  74.500  1.00  0.00    -0.275 OA
BRANCH   4   7
ATOM      7  C   UNL     1      95.524  94.281  76.631  1.00  0.00     0.151 C 
BRANCH   7   8
ATOM      8  C   UNL     1      95.816  94.744  78.013  1.00  0.00    -0.025 A 
ATOM      9  C   UNL     1      96.977  96.268  79.554  1.00  0.00     0.160 A 
ATOM     10  C   UNL     1      96.410  95.587  80.654  1.00  0.00     0.157 A 
ATOM     11  C   UNL     1      96.683  95.837  78.245  1.00  0.00     0.056 A 
ATOM     12  C   UNL     1      95.533  94.509  80.434  1.00  0.00     0.050 A 
ATOM     13  C   UNL     1      95.230  94.097  79.123  1.00  0.00     0.009 A 
BRANCH   9  14
ATOM     14  O   UNL     1      97.761  97.373  79.754  1.00  0.00    -0.493 OA
ATOM     15  C   UNL     1      97.108  98.619  79.461  1.00  0.00     0.278 C 
ENDBRANCH   9  14
BRANCH  10  16
ATOM     16  O   UNL     1      96.690  95.952  81.930  1.00  0.00    -0.504 OA
ATOM     17  H   UNL     1      96.930  96.882  81.950  1.00  0.00     0.293 HD
ENDBRANCH  10  16
ENDBRANCH   7   8
ENDBRANCH   4   7
ENDBRANCH   2   3
ENDBRANCH   1   2
BRANCH   1  18
ATOM     18  C   UNL     1      93.481  98.708  72.593  1.00  0.00     0.001 C 
BRANCH  18  19
ATOM     19  C   UNL     1      93.415  98.590  71.049  1.00  0.00     0.004 C 
BRANCH  19  20
ATOM     20  C   UNL     1      91.946  98.611  70.542  1.00  0.00     0.027 C 
BRANCH  20  21
ATOM     21  C   UNL     1      91.820  98.919  69.127  1.00  0.00    -0.031 C 
ATOM     22  C   UNL     1      90.760  98.529  68.398  1.00  0.00    -0.028 C 
BRANCH  22  23
ATOM     23  C   UNL     1      90.601  98.828  66.977  1.00  0.00     0.005 C 
ATOM     24  C   UNL     1      89.192  98.395  66.490  1.00  0.00     0.012 C 
ATOM     25  C   UNL     1      90.882 100.331  66.710  1.00  0.00     0.012 C 
ENDBRANCH  22  23
ENDBRANCH  20  21
ENDBRANCH  19  20
ENDBRANCH  18  19
ENDBRANCH   1  18
TORSDOF 11
ENDMDL
