MODEL 1
REMARK VINA RESULT:    -6.381      0.000      0.000
REMARK INTER + INTRA:         -11.313
REMARK INTER:                 -10.485
REMARK INTRA:                  -0.828
REMARK UNBOUND:                -0.828
REMARK SMILES CCCCC[C@H](O)CC(=O)CCc1ccc(O)c(OC)c1
REMARK SMILES IDX 8 1 6 2 7 3 5 5 4 6 3 7 2 8 1 9 9 10 10 11 11 12 12 13 13 14
REMARK SMILES IDX 21 15 14 16 18 17 15 18 16 19 19 20 20 21 17 22
REMARK H PARENT 7 4 17 23
REMARK Flexibility Score: inf
ROOT
ATOM      1  C   UNL     1      91.367  94.463  77.285  1.00  0.00     0.107 C 
ENDROOT
BRANCH   1   2
ATOM      2  C   UNL     1      91.026  94.313  75.800  1.00  0.00     0.121 C 
BRANCH   2   3
ATOM      3  O   UNL     1      92.224  94.302  75.028  1.00  0.00    -0.393 OA
ATOM      4  H   UNL     1      92.548  93.384  74.994  1.00  0.00     0.210 HD
ENDBRANCH   2   3
BRANCH   2   5
ATOM      5  C   UNL     1      90.217  93.046  75.496  1.00  0.00     0.032 C 
BRANCH   5   6
ATOM      6  C   UNL     1      90.355  92.612  74.031  1.00  0.00     0.003 C 
BRANCH   6   7
ATOM      7  C   UNL     1      90.506  91.097  73.859  1.00  0.00    -0.000 C 
BRANCH   7   8
ATOM      8  C   UNL     1      89.353  90.295  74.460  1.00  0.00    -0.003 C 
ATOM      9  C   UNL     1      89.861  89.086  75.231  1.00  0.00     0.004 C 
ENDBRANCH   7   8
ENDBRANCH   6   7
ENDBRANCH   5   6
ENDBRANCH   2   5
ENDBRANCH   1   2
BRANCH   1  10
ATOM     10  C   UNL     1      92.503  95.440  77.539  1.00  0.00     0.135 C 
ATOM     11  O   UNL     1      92.492  96.566  77.042  1.00  0.00    -0.300 OA
BRANCH  10  12
ATOM     12  C   UNL     1      93.614  94.969  78.465  1.00  0.00     0.080 C 
BRANCH  12  13
ATOM     13  C   UNL     1      95.003  95.465  78.062  1.00  0.00     0.043 C 
BRANCH  13  14
ATOM     14  C   UNL     1      95.617  96.398  79.079  1.00  0.00    -0.044 A 
ATOM     15  C   UNL     1      96.629  95.941  79.923  1.00  0.00     0.054 A 
ATOM     16  C   UNL     1      95.171  97.717  79.173  1.00  0.00     0.008 A 
ATOM     17  C   UNL     1      97.195  96.803  80.862  1.00  0.00     0.160 A 
ATOM     18  C   UNL     1      95.738  98.579  80.112  1.00  0.00     0.050 A 
ATOM     19  C   UNL     1      96.750  98.122  80.957  1.00  0.00     0.157 A 
BRANCH  17  20
ATOM     20  O   UNL     1      98.183  96.346  81.682  1.00  0.00    -0.493 OA
ATOM     21  C   UNL     1      97.804  95.416  82.695  1.00  0.00     0.278 C 
ENDBRANCH  17  20
BRANCH  19  22
ATOM     22  O   UNL     1      97.295  98.973  81.869  1.00  0.00    -0.504 OA
ATOM     23  H   UNL     1      97.512  99.813  81.429  1.00  0.00     0.293 HD
ENDBRANCH  19  22
ENDBRANCH  13  14
ENDBRANCH  12  13
ENDBRANCH  10  12
ENDBRANCH   1  10
TORSDOF 12
ENDMDL
MODEL 2
REMARK VINA RESULT:    -5.960     13.000     16.522
REMARK INTER + INTRA:         -10.620
REMARK INTER:                  -9.721
REMARK INTRA:                  -0.899
REMARK UNBOUND:                -0.828
REMARK SMILES CCCCC[C@H](O)CC(=O)CCc1ccc(O)c(OC)c1
REMARK SMILES IDX 8 1 6 2 7 3 5 5 4 6 3 7 2 8 1 9 9 10 10 11 11 12 12 13 13 14
REMARK SMILES IDX 21 15 14 16 18 17 15 18 16 19 19 20 20 21 17 22
REMARK H PARENT 7 4 17 23
REMARK Flexibility Score: inf
ROOT
ATOM      1  C   UNL     1      94.060  82.490  84.284  1.00  0.00     0.107 C 
ENDROOT
BRANCH   1   2
ATOM      2  C   UNL     1      94.651  83.297  85.443  1.00  0.00     0.121 C 
BRANCH   2   3
ATOM      3  O   UNL     1      95.960  82.819  85.747  1.00  0.00    -0.393 OA
ATOM      4  H   UNL     1      96.567  83.579  85.724  1.00  0.00     0.210 HD
ENDBRANCH   2   3
BRANCH   2   5
ATOM      5  C   UNL     1      94.717  84.801  85.156  1.00  0.00     0.032 C 
BRANCH   5   6
ATOM      6  C   UNL     1      93.619  85.578  85.893  1.00  0.00     0.003 C 
BRANCH   6   7
ATOM      7  C   UNL     1      94.046  86.992  86.301  1.00  0.00    -0.000 C 
BRANCH   7   8
ATOM      8  C   UNL     1      93.758  87.319  87.765  1.00  0.00    -0.003 C 
ATOM      9  C   UNL     1      93.117  86.141  88.481  1.00  0.00     0.004 C 
ENDBRANCH   7   8
ENDBRANCH   6   7
ENDBRANCH   5   6
ENDBRANCH   2   5
ENDBRANCH   1   2
BRANCH   1  10
ATOM     10  C   UNL     1      93.542  81.127  84.711  1.00  0.00     0.135 C 
ATOM     11  O   UNL     1      94.273  80.325  85.291  1.00  0.00    -0.300 OA
BRANCH  10  12
ATOM     12  C   UNL     1      92.077  80.834  84.423  1.00  0.00     0.080 C 
BRANCH  12  13
ATOM     13  C   UNL     1      91.109  81.788  85.126  1.00  0.00     0.043 C 
BRANCH  13  14
ATOM     14  C   UNL     1      89.694  81.683  84.609  1.00  0.00    -0.044 A 
ATOM     15  C   UNL     1      88.805  82.742  84.792  1.00  0.00     0.054 A 
ATOM     16  C   UNL     1      89.278  80.527  83.948  1.00  0.00     0.008 A 
ATOM     17  C   UNL     1      87.498  82.644  84.313  1.00  0.00     0.160 A 
ATOM     18  C   UNL     1      87.971  80.430  83.469  1.00  0.00     0.050 A 
ATOM     19  C   UNL     1      87.081  81.488  83.652  1.00  0.00     0.157 A 
BRANCH  17  20
ATOM     20  O   UNL     1      86.638  83.684  84.498  1.00  0.00    -0.493 OA
ATOM     21  C   UNL     1      86.313  84.025  85.845  1.00  0.00     0.278 C 
ENDBRANCH  17  20
BRANCH  19  22
ATOM     22  O   UNL     1      85.808  81.382  83.180  1.00  0.00    -0.504 OA
ATOM     23  H   UNL     1      85.769  81.764  82.286  1.00  0.00     0.293 HD
ENDBRANCH  19  22
ENDBRANCH  13  14
ENDBRANCH  12  13
ENDBRANCH  10  12
ENDBRANCH   1  10
TORSDOF 12
ENDMDL
MODEL 3
REMARK VINA RESULT:    -5.956     13.348     16.406
REMARK INTER + INTRA:         -10.614
REMARK INTER:                  -9.500
REMARK INTRA:                  -1.114
REMARK UNBOUND:                -0.828
REMARK SMILES CCCCC[C@H](O)CC(=O)CCc1ccc(O)c(OC)c1
REMARK SMILES IDX 8 1 6 2 7 3 5 5 4 6 3 7 2 8 1 9 9 10 10 11 11 12 12 13 13 14
REMARK SMILES IDX 21 15 14 16 18 17 15 18 16 19 19 20 20 21 17 22
REMARK H PARENT 7 4 17 23
REMARK Flexibility Score: inf
ROOT
ATOM      1  C   UNL     1      94.750  82.125  83.858  1.00  0.00     0.107 C 
ENDROOT
BRANCH   1   2
ATOM      2  C   UNL     1      96.005  83.000  83.800  1.00  0.00     0.121 C 
BRANCH   2   3
ATOM      3  O   UNL     1      96.357  83.428  85.113  1.00  0.00    -0.393 OA
ATOM      4  H   UNL     1      96.017  82.768  85.743  1.00  0.00     0.210 HD
ENDBRANCH   2   3
BRANCH   2   5
ATOM      5  C   UNL     1      97.204  82.287  83.163  1.00  0.00     0.032 C 
BRANCH   5   6
ATOM      6  C   UNL     1      96.775  81.084  82.314  1.00  0.00     0.003 C 
BRANCH   6   7
ATOM      7  C   UNL     1      97.202  81.193  80.847  1.00  0.00    -0.000 C 
BRANCH   7   8
ATOM      8  C   UNL     1      97.813  82.546  80.487  1.00  0.00    -0.003 C 
ATOM      9  C   UNL     1      96.904  83.335  79.557  1.00  0.00     0.004 C 
ENDBRANCH   7   8
ENDBRANCH   6   7
ENDBRANCH   5   6
ENDBRANCH   2   5
ENDBRANCH   1   2
BRANCH   1  10
ATOM     10  C   UNL     1      94.404  81.674  85.268  1.00  0.00     0.135 C 
ATOM     11  O   UNL     1      95.233  81.096  85.969  1.00  0.00    -0.300 OA
BRANCH  10  12
ATOM     12  C   UNL     1      93.009  82.015  85.769  1.00  0.00     0.080 C 
BRANCH  12  13
ATOM     13  C   UNL     1      92.095  82.603  84.693  1.00  0.00     0.043 C 
BRANCH  13  14
ATOM     14  C   UNL     1      90.841  81.790  84.472  1.00  0.00    -0.044 A 
ATOM     15  C   UNL     1      89.588  82.383  84.629  1.00  0.00     0.054 A 
ATOM     16  C   UNL     1      90.937  80.446  84.111  1.00  0.00     0.008 A 
ATOM     17  C   UNL     1      88.431  81.631  84.424  1.00  0.00     0.160 A 
ATOM     18  C   UNL     1      89.780  79.694  83.905  1.00  0.00     0.050 A 
ATOM     19  C   UNL     1      88.527  80.287  84.062  1.00  0.00     0.157 A 
BRANCH  17  20
ATOM     20  O   UNL     1      87.213  82.221  84.580  1.00  0.00    -0.493 OA
ATOM     21  C   UNL     1      87.186  83.646  84.648  1.00  0.00     0.278 C 
ENDBRANCH  17  20
BRANCH  19  22
ATOM     22  O   UNL     1      87.404  79.543  83.859  1.00  0.00    -0.504 OA
ATOM     23  H   UNL     1      86.866  79.554  84.670  1.00  0.00     0.293 HD
ENDBRANCH  19  22
ENDBRANCH  13  14
ENDBRANCH  12  13
ENDBRANCH  10  12
ENDBRANCH   1  10
TORSDOF 12
ENDMDL
MODEL 4
REMARK VINA RESULT:    -5.732     12.014     14.701
REMARK INTER + INTRA:         -10.246
REMARK INTER:                  -9.516
REMARK INTRA:                  -0.729
REMARK UNBOUND:                -0.828
REMARK SMILES CCCCC[C@H](O)CC(=O)CCc1ccc(O)c(OC)c1
REMARK SMILES IDX 8 1 6 2 7 3 5 5 4 6 3 7 2 8 1 9 9 10 10 11 11 12 12 13 13 14
REMARK SMILES IDX 21 15 14 16 18 17 15 18 16 19 19 20 20 21 17 22
REMARK H PARENT 7 4 17 23
REMARK Flexibility Score: inf
ROOT
ATOM      1  C   UNL     1      96.294  82.636  82.457  1.00  0.00     0.107 C 
ENDROOT
BRANCH   1   2
ATOM      2  C   UNL     1      95.573  81.873  83.571  1.00  0.00     0.121 C 
BRANCH   2   3
ATOM      3  O   UNL     1      96.529  81.269  84.439  1.00  0.00    -0.393 OA
ATOM      4  H   UNL     1      96.094  81.109  85.295  1.00  0.00     0.210 HD
ENDBRANCH   2   3
BRANCH   2   5
ATOM      5  C   UNL     1      94.633  82.761  84.395  1.00  0.00     0.032 C 
BRANCH   5   6
ATOM      6  C   UNL     1      93.580  81.941  85.151  1.00  0.00     0.003 C 
BRANCH   6   7
ATOM      7  C   UNL     1      92.186  82.013  84.520  1.00  0.00    -0.000 C 
BRANCH   7   8
ATOM      8  C   UNL     1      91.432  80.685  84.547  1.00  0.00    -0.003 C 
ATOM      9  C   UNL     1      90.329  80.653  83.500  1.00  0.00     0.004 C 
ENDBRANCH   7   8
ENDBRANCH   6   7
ENDBRANCH   5   6
ENDBRANCH   2   5
ENDBRANCH   1   2
BRANCH   1  10
ATOM     10  C   UNL     1      97.066  81.726  81.515  1.00  0.00     0.135 C 
ATOM     11  O   UNL     1      96.808  80.525  81.442  1.00  0.00    -0.300 OA
BRANCH  10  12
ATOM     12  C   UNL     1      98.129  82.385  80.650  1.00  0.00     0.080 C 
BRANCH  12  13
ATOM     13  C   UNL     1      98.290  81.737  79.274  1.00  0.00     0.043 C 
BRANCH  13  14
ATOM     14  C   UNL     1      97.738  82.584  78.152  1.00  0.00    -0.044 A 
ATOM     15  C   UNL     1      98.268  82.471  76.866  1.00  0.00     0.054 A 
ATOM     16  C   UNL     1      96.698  83.479  78.402  1.00  0.00     0.008 A 
ATOM     17  C   UNL     1      97.757  83.254  75.831  1.00  0.00     0.160 A 
ATOM     18  C   UNL     1      96.187  84.262  77.366  1.00  0.00     0.050 A 
ATOM     19  C   UNL     1      96.717  84.149  76.081  1.00  0.00     0.157 A 
BRANCH  17  20
ATOM     20  O   UNL     1      98.283  83.135  74.580  1.00  0.00    -0.493 OA
ATOM     21  C   UNL     1      99.600  82.597  74.478  1.00  0.00     0.278 C 
ENDBRANCH  17  20
BRANCH  19  22
ATOM     22  O   UNL     1      96.209  84.919  75.078  1.00  0.00    -0.504 OA
ATOM     23  H   UNL     1      96.905  85.517  74.756  1.00  0.00     0.293 HD
ENDBRANCH  19  22
ENDBRANCH  13  14
ENDBRANCH  12  13
ENDBRANCH  10  12
ENDBRANCH   1  10
TORSDOF 12
ENDMDL
MODEL 5
REMARK VINA RESULT:    -5.620     11.773     13.470
REMARK INTER + INTRA:         -10.063
REMARK INTER:                  -9.274
REMARK INTRA:                  -0.788
REMARK UNBOUND:                -0.828
REMARK SMILES CCCCC[C@H](O)CC(=O)CCc1ccc(O)c(OC)c1
REMARK SMILES IDX 8 1 6 2 7 3 5 5 4 6 3 7 2 8 1 9 9 10 10 11 11 12 12 13 13 14
REMARK SMILES IDX 21 15 14 16 18 17 15 18 16 19 19 20 20 21 17 22
REMARK H PARENT 7 4 17 23
REMARK Flexibility Score: inf
ROOT
ATOM      1  C   UNL     1      97.749  83.110  76.954  1.00  0.00     0.107 C 
ENDROOT
BRANCH   1   2
ATOM      2  C   UNL     1      97.200  83.787  75.696  1.00  0.00     0.121 C 
BRANCH   2   3
ATOM      3  O   UNL     1      97.117  85.195  75.902  1.00  0.00    -0.393 OA
ATOM      4  H   UNL     1      96.545  85.349  76.674  1.00  0.00     0.210 HD
ENDBRANCH   2   3
BRANCH   2   5
ATOM      5  C   UNL     1      98.046  83.509  74.447  1.00  0.00     0.032 C 
BRANCH   5   6
ATOM      6  C   UNL     1      98.106  84.721  73.510  1.00  0.00     0.003 C 
BRANCH   6   7
ATOM      7  C   UNL     1      99.465  85.429  73.522  1.00  0.00    -0.000 C 
BRANCH   7   8
ATOM      8  C   UNL     1     100.532  84.692  74.328  1.00  0.00    -0.003 C 
ATOM      9  C   UNL     1     101.559  85.658  74.901  1.00  0.00     0.004 C 
ENDBRANCH   7   8
ENDBRANCH   6   7
ENDBRANCH   5   6
ENDBRANCH   2   5
ENDBRANCH   1   2
BRANCH   1  10
ATOM     10  C   UNL     1      97.021  83.527  78.221  1.00  0.00     0.135 C 
ATOM     11  O   UNL     1      95.887  84.004  78.171  1.00  0.00    -0.300 OA
BRANCH  10  12
ATOM     12  C   UNL     1      97.745  83.283  79.536  1.00  0.00     0.080 C 
BRANCH  12  13
ATOM     13  C   UNL     1      97.333  81.986  80.234  1.00  0.00     0.043 C 
BRANCH  13  14
ATOM     14  C   UNL     1      97.355  82.092  81.740  1.00  0.00    -0.044 A 
ATOM     15  C   UNL     1      96.667  83.125  82.378  1.00  0.00     0.054 A 
ATOM     16  C   UNL     1      98.063  81.156  82.494  1.00  0.00     0.008 A 
ATOM     17  C   UNL     1      96.687  83.220  83.769  1.00  0.00     0.160 A 
ATOM     18  C   UNL     1      98.083  81.251  83.886  1.00  0.00     0.050 A 
ATOM     19  C   UNL     1      97.396  82.284  84.523  1.00  0.00     0.157 A 
BRANCH  17  20
ATOM     20  O   UNL     1      96.012  84.234  84.380  1.00  0.00    -0.493 OA
ATOM     21  C   UNL     1      95.893  85.460  83.661  1.00  0.00     0.278 C 
ENDBRANCH  17  20
BRANCH  19  22
ATOM     22  O   UNL     1      97.423  82.368  85.882  1.00  0.00    -0.504 OA
ATOM     23  H   UNL     1      97.307  81.477  86.257  1.00  0.00     0.293 HD
ENDBRANCH  19  22
ENDBRANCH  13  14
ENDBRANCH  12  13
ENDBRANCH  10  12
ENDBRANCH   1  10
TORSDOF 12
ENDMDL
MODEL 6
REMARK VINA RESULT:    -5.463     12.049     13.657
REMARK INTER + INTRA:          -9.803
REMARK INTER:                  -8.931
REMARK INTRA:                  -0.873
REMARK UNBOUND:                -0.828
REMARK SMILES CCCCC[C@H](O)CC(=O)CCc1ccc(O)c(OC)c1
REMARK SMILES IDX 8 1 6 2 7 3 5 5 4 6 3 7 2 8 1 9 9 10 10 11 11 12 12 13 13 14
REMARK SMILES IDX 21 15 14 16 18 17 15 18 16 19 19 20 20 21 17 22
REMARK H PARENT 7 4 17 23
REMARK Flexibility Score: inf
ROOT
ATOM      1  C   UNL     1      96.637  84.169  77.161  1.00  0.00     0.107 C 
ENDROOT
BRANCH   1   2
ATOM      2  C   UNL     1      97.022  83.927  75.700  1.00  0.00     0.121 C 
BRANCH   2   3
ATOM      3  O   UNL     1      96.195  84.714  74.846  1.00  0.00    -0.393 OA
ATOM      4  H   UNL     1      96.578  85.608  74.801  1.00  0.00     0.210 HD
ENDBRANCH   2   3
BRANCH   2   5
ATOM      5  C   UNL     1      98.494  84.241  75.406  1.00  0.00     0.032 C 
BRANCH   5   6
ATOM      6  C   UNL     1      99.137  83.189  74.494  1.00  0.00     0.003 C 
BRANCH   6   7
ATOM      7  C   UNL     1      99.616  81.945  75.247  1.00  0.00    -0.000 C 
BRANCH   7   8
ATOM      8  C   UNL     1     100.395  82.263  76.522  1.00  0.00    -0.003 C 
ATOM      9  C   UNL     1     101.895  82.150  76.299  1.00  0.00     0.004 C 
ENDBRANCH   7   8
ENDBRANCH   6   7
ENDBRANCH   5   6
ENDBRANCH   2   5
ENDBRANCH   1   2
BRANCH   1  10
ATOM     10  C   UNL     1      97.039  83.027  78.080  1.00  0.00     0.135 C 
ATOM     11  O   UNL     1      97.103  81.871  77.662  1.00  0.00    -0.300 OA
BRANCH  10  12
ATOM     12  C   UNL     1      97.397  83.397  79.512  1.00  0.00     0.080 C 
BRANCH  12  13
ATOM     13  C   UNL     1      97.207  82.252  80.508  1.00  0.00     0.043 C 
BRANCH  13  14
ATOM     14  C   UNL     1      96.936  82.730  81.915  1.00  0.00    -0.044 A 
ATOM     15  C   UNL     1      97.369  81.975  83.005  1.00  0.00     0.054 A 
ATOM     16  C   UNL     1      96.251  83.928  82.123  1.00  0.00     0.008 A 
ATOM     17  C   UNL     1      97.118  82.419  84.303  1.00  0.00     0.160 A 
ATOM     18  C   UNL     1      96.001  84.372  83.422  1.00  0.00     0.050 A 
ATOM     19  C   UNL     1      96.434  83.616  84.512  1.00  0.00     0.157 A 
BRANCH  17  20
ATOM     20  O   UNL     1      97.545  81.672  85.360  1.00  0.00    -0.493 OA
ATOM     21  C   UNL     1      98.881  81.889  85.809  1.00  0.00     0.278 C 
ENDBRANCH  17  20
BRANCH  19  22
ATOM     22  O   UNL     1      96.183  84.059  85.775  1.00  0.00    -0.504 OA
ATOM     23  H   UNL     1      96.797  84.785  85.984  1.00  0.00     0.293 HD
ENDBRANCH  19  22
ENDBRANCH  13  14
ENDBRANCH  12  13
ENDBRANCH  10  12
ENDBRANCH   1  10
TORSDOF 12
ENDMDL
MODEL 7
REMARK VINA RESULT:    -5.455     12.892     14.869
REMARK INTER + INTRA:          -9.791
REMARK INTER:                  -8.874
REMARK INTRA:                  -0.917
REMARK UNBOUND:                -0.828
REMARK SMILES CCCCC[C@H](O)CC(=O)CCc1ccc(O)c(OC)c1
REMARK SMILES IDX 8 1 6 2 7 3 5 5 4 6 3 7 2 8 1 9 9 10 10 11 11 12 12 13 13 14
REMARK SMILES IDX 21 15 14 16 18 17 15 18 16 19 19 20 20 21 17 22
REMARK H PARENT 7 4 17 23
REMARK Flexibility Score: inf
ROOT
ATOM      1  C   UNL     1      95.773  83.005  85.127  1.00  0.00     0.107 C 
ENDROOT
BRANCH   1   2
ATOM      2  C   UNL     1      94.246  83.025  85.224  1.00  0.00     0.121 C 
BRANCH   2   3
ATOM      3  O   UNL     1      93.756  84.317  84.871  1.00  0.00    -0.393 OA
ATOM      4  H   UNL     1      93.080  84.200  84.181  1.00  0.00     0.210 HD
ENDBRANCH   2   3
BRANCH   2   5
ATOM      5  C   UNL     1      93.574  81.971  84.335  1.00  0.00     0.032 C 
BRANCH   5   6
ATOM      6  C   UNL     1      92.044  82.076  84.372  1.00  0.00     0.003 C 
BRANCH   6   7
ATOM      7  C   UNL     1      91.349  80.728  84.591  1.00  0.00    -0.000 C 
BRANCH   7   8
ATOM      8  C   UNL     1      90.198  80.469  83.620  1.00  0.00    -0.003 C 
ATOM      9  C   UNL     1      88.849  80.614  84.308  1.00  0.00     0.004 C 
ENDBRANCH   7   8
ENDBRANCH   6   7
ENDBRANCH   5   6
ENDBRANCH   2   5
ENDBRANCH   1   2
BRANCH   1  10
ATOM     10  C   UNL     1      96.289  83.443  83.766  1.00  0.00     0.135 C 
ATOM     11  O   UNL     1      95.933  84.511  83.268  1.00  0.00    -0.300 OA
BRANCH  10  12
ATOM     12  C   UNL     1      97.292  82.522  83.088  1.00  0.00     0.080 C 
BRANCH  12  13
ATOM     13  C   UNL     1      96.670  81.609  82.030  1.00  0.00     0.043 C 
BRANCH  13  14
ATOM     14  C   UNL     1      97.127  81.931  80.627  1.00  0.00    -0.044 A 
ATOM     15  C   UNL     1      97.725  80.945  79.843  1.00  0.00     0.054 A 
ATOM     16  C   UNL     1      96.950  83.217  80.115  1.00  0.00     0.008 A 
ATOM     17  C   UNL     1      98.146  81.244  78.548  1.00  0.00     0.160 A 
ATOM     18  C   UNL     1      97.371  83.516  78.819  1.00  0.00     0.050 A 
ATOM     19  C   UNL     1      97.969  82.530  78.036  1.00  0.00     0.157 A 
BRANCH  17  20
ATOM     20  O   UNL     1      98.730  80.272  77.792  1.00  0.00    -0.493 OA
ATOM     21  C   UNL     1      99.940  79.704  78.289  1.00  0.00     0.278 C 
ENDBRANCH  17  20
BRANCH  19  22
ATOM     22  O   UNL     1      98.376  82.834  76.772  1.00  0.00    -0.504 OA
ATOM     23  H   UNL     1      98.141  82.100  76.178  1.00  0.00     0.293 HD
ENDBRANCH  19  22
ENDBRANCH  13  14
ENDBRANCH  12  13
ENDBRANCH  10  12
ENDBRANCH   1  10
TORSDOF 12
ENDMDL
MODEL 8
REMARK VINA RESULT:    -5.446     24.703     26.068
REMARK INTER + INTRA:          -9.776
REMARK INTER:                  -7.627
REMARK INTRA:                  -2.149
REMARK UNBOUND:                -0.828
REMARK SMILES CCCCC[C@H](O)CC(=O)CCc1ccc(O)c(OC)c1
REMARK SMILES IDX 8 1 6 2 7 3 5 5 4 6 3 7 2 8 1 9 9 10 10 11 11 12 12 13 13 14
REMARK SMILES IDX 21 15 14 16 18 17 15 18 16 19 19 20 20 21 17 22
REMARK H PARENT 7 4 17 23
REMARK Flexibility Score: inf
ROOT
ATOM      1  C   UNL     1      79.352  74.523  83.436  1.00  0.00     0.107 C 
ENDROOT
BRANCH   1   2
ATOM      2  C   UNL     1      79.254  73.005  83.265  1.00  0.00     0.121 C 
BRANCH   2   3
ATOM      3  O   UNL     1      80.536  72.472  82.940  1.00  0.00    -0.393 OA
ATOM      4  H   UNL     1      81.026  73.154  82.448  1.00  0.00     0.210 HD
ENDBRANCH   2   3
BRANCH   2   5
ATOM      5  C   UNL     1      78.713  72.295  84.512  1.00  0.00     0.032 C 
BRANCH   5   6
ATOM      6  C   UNL     1      79.838  71.831  85.445  1.00  0.00     0.003 C 
BRANCH   6   7
ATOM      7  C   UNL     1      79.587  72.177  86.916  1.00  0.00    -0.000 C 
BRANCH   7   8
ATOM      8  C   UNL     1      78.474  73.203  87.122  1.00  0.00    -0.003 C 
ATOM      9  C   UNL     1      78.693  74.010  88.393  1.00  0.00     0.004 C 
ENDBRANCH   7   8
ENDBRANCH   6   7
ENDBRANCH   5   6
ENDBRANCH   2   5
ENDBRANCH   1   2
BRANCH   1  10
ATOM     10  C   UNL     1      80.721  74.982  83.911  1.00  0.00     0.135 C 
ATOM     11  O   UNL     1      81.671  75.051  83.132  1.00  0.00    -0.300 OA
BRANCH  10  12
ATOM     12  C   UNL     1      80.833  75.389  85.373  1.00  0.00     0.080 C 
BRANCH  12  13
ATOM     13  C   UNL     1      82.084  74.847  86.067  1.00  0.00     0.043 C 
BRANCH  13  14
ATOM     14  C   UNL     1      82.131  75.172  87.541  1.00  0.00    -0.044 A 
ATOM     15  C   UNL     1      82.822  74.336  88.418  1.00  0.00     0.054 A 
ATOM     16  C   UNL     1      81.482  76.308  88.025  1.00  0.00     0.008 A 
ATOM     17  C   UNL     1      82.865  74.637  89.780  1.00  0.00     0.160 A 
ATOM     18  C   UNL     1      81.525  76.609  89.387  1.00  0.00     0.050 A 
ATOM     19  C   UNL     1      82.216  75.774  90.264  1.00  0.00     0.157 A 
BRANCH  17  20
ATOM     20  O   UNL     1      83.543  73.814  90.627  1.00  0.00    -0.493 OA
ATOM     21  C   UNL     1      84.968  73.870  90.584  1.00  0.00     0.278 C 
ENDBRANCH  17  20
BRANCH  19  22
ATOM     22  O   UNL     1      82.251  76.078  91.591  1.00  0.00    -0.504 OA
ATOM     23  H   UNL     1      81.410  76.498  91.842  1.00  0.00     0.293 HD
ENDBRANCH  19  22
ENDBRANCH  13  14
ENDBRANCH  12  13
ENDBRANCH  10  12
ENDBRANCH   1  10
TORSDOF 12
ENDMDL
MODEL 9
REMARK VINA RESULT:    -5.392     12.011     14.950
REMARK INTER + INTRA:          -9.687
REMARK INTER:                  -8.646
REMARK INTRA:                  -1.041
REMARK UNBOUND:                -0.828
REMARK SMILES CCCCC[C@H](O)CC(=O)CCc1ccc(O)c(OC)c1
REMARK SMILES IDX 8 1 6 2 7 3 5 5 4 6 3 7 2 8 1 9 9 10 10 11 11 12 12 13 13 14
REMARK SMILES IDX 21 15 14 16 18 17 15 18 16 19 19 20 20 21 17 22
REMARK H PARENT 7 4 17 23
REMARK Flexibility Score: inf
ROOT
ATOM      1  C   UNL     1      96.660  81.426  81.983  1.00  0.00     0.107 C 
ENDROOT
BRANCH   1   2
ATOM      2  C   UNL     1      96.470  80.221  82.907  1.00  0.00     0.121 C 
BRANCH   2   3
ATOM      3  O   UNL     1      97.710  79.537  83.071  1.00  0.00    -0.393 OA
ATOM      4  H   UNL     1      97.620  78.656  82.668  1.00  0.00     0.210 HD
ENDBRANCH   2   3
BRANCH   2   5
ATOM      5  C   UNL     1      95.919  80.603  84.286  1.00  0.00     0.032 C 
BRANCH   5   6
ATOM      6  C   UNL     1      94.418  80.915  84.240  1.00  0.00     0.003 C 
BRANCH   6   7
ATOM      7  C   UNL     1      94.106  82.412  84.329  1.00  0.00    -0.000 C 
BRANCH   7   8
ATOM      8  C   UNL     1      95.238  83.237  84.940  1.00  0.00    -0.003 C 
ATOM      9  C   UNL     1      95.658  84.370  84.016  1.00  0.00     0.004 C 
ENDBRANCH   7   8
ENDBRANCH   6   7
ENDBRANCH   5   6
ENDBRANCH   2   5
ENDBRANCH   1   2
BRANCH   1  10
ATOM     10  C   UNL     1      97.544  81.123  80.783  1.00  0.00     0.135 C 
ATOM     11  O   UNL     1      97.515  80.020  80.239  1.00  0.00    -0.300 OA
BRANCH  10  12
ATOM     12  C   UNL     1      98.417  82.261  80.275  1.00  0.00     0.080 C 
BRANCH  12  13
ATOM     13  C   UNL     1      98.938  82.047  78.852  1.00  0.00     0.043 C 
BRANCH  13  14
ATOM     14  C   UNL     1      98.195  82.863  77.821  1.00  0.00    -0.044 A 
ATOM     15  C   UNL     1      98.741  83.047  76.551  1.00  0.00     0.054 A 
ATOM     16  C   UNL     1      96.961  83.431  78.139  1.00  0.00     0.008 A 
ATOM     17  C   UNL     1      98.053  83.800  75.599  1.00  0.00     0.160 A 
ATOM     18  C   UNL     1      96.273  84.184  77.187  1.00  0.00     0.050 A 
ATOM     19  C   UNL     1      96.820  84.369  75.917  1.00  0.00     0.157 A 
BRANCH  17  20
ATOM     20  O   UNL     1      98.597  83.974  74.362  1.00  0.00    -0.493 OA
ATOM     21  C   UNL     1      98.410  82.921  73.418  1.00  0.00     0.278 C 
ENDBRANCH  17  20
BRANCH  19  22
ATOM     22  O   UNL     1      96.139  85.106  74.996  1.00  0.00    -0.504 OA
ATOM     23  H   UNL     1      96.773  85.634  74.482  1.00  0.00     0.293 HD
ENDBRANCH  19  22
ENDBRANCH  13  14
ENDBRANCH  12  13
ENDBRANCH  10  12
ENDBRANCH   1  10
TORSDOF 12
ENDMDL
MODEL 10
REMARK VINA RESULT:    -5.361     24.929     27.807
REMARK INTER + INTRA:          -9.636
REMARK INTER:                  -7.763
REMARK INTRA:                  -1.873
REMARK UNBOUND:                -0.828
REMARK SMILES CCCCC[C@H](O)CC(=O)CCc1ccc(O)c(OC)c1
REMARK SMILES IDX 8 1 6 2 7 3 5 5 4 6 3 7 2 8 1 9 9 10 10 11 11 12 12 13 13 14
REMARK SMILES IDX 21 15 14 16 18 17 15 18 16 19 19 20 20 21 17 22
REMARK H PARENT 7 4 17 23
REMARK Flexibility Score: inf
ROOT
ATOM      1  C   UNL     1      79.456  74.234  83.644  1.00  0.00     0.107 C 
ENDROOT
BRANCH   1   2
ATOM      2  C   UNL     1      80.901  73.952  84.062  1.00  0.00     0.121 C 
BRANCH   2   3
ATOM      3  O   UNL     1      81.795  74.714  83.253  1.00  0.00    -0.393 OA
ATOM      4  H   UNL     1      81.266  75.176  82.579  1.00  0.00     0.210 HD
ENDBRANCH   2   3
BRANCH   2   5
ATOM      5  C   UNL     1      81.170  74.260  85.540  1.00  0.00     0.032 C 
BRANCH   5   6
ATOM      6  C   UNL     1      80.201  75.311  86.095  1.00  0.00     0.003 C 
BRANCH   6   7
ATOM      7  C   UNL     1      80.857  76.277  87.087  1.00  0.00    -0.000 C 
BRANCH   7   8
ATOM      8  C   UNL     1      81.014  75.699  88.492  1.00  0.00    -0.003 C 
ATOM      9  C   UNL     1      82.474  75.430  88.821  1.00  0.00     0.004 C 
ENDBRANCH   7   8
ENDBRANCH   6   7
ENDBRANCH   5   6
ENDBRANCH   2   5
ENDBRANCH   1   2
BRANCH   1  10
ATOM     10  C   UNL     1      78.707  72.986  83.207  1.00  0.00     0.135 C 
ATOM     11  O   UNL     1      79.178  72.231  82.356  1.00  0.00    -0.300 OA
BRANCH  10  12
ATOM     12  C   UNL     1      77.386  72.703  83.905  1.00  0.00     0.080 C 
BRANCH  12  13
ATOM     13  C   UNL     1      77.521  71.811  85.141  1.00  0.00     0.043 C 
BRANCH  13  14
ATOM     14  C   UNL     1      77.630  72.594  86.427  1.00  0.00    -0.044 A 
ATOM     15  C   UNL     1      76.851  73.735  86.618  1.00  0.00     0.054 A 
ATOM     16  C   UNL     1      78.509  72.175  87.426  1.00  0.00     0.008 A 
ATOM     17  C   UNL     1      76.951  74.457  87.807  1.00  0.00     0.160 A 
ATOM     18  C   UNL     1      78.609  72.897  88.616  1.00  0.00     0.050 A 
ATOM     19  C   UNL     1      77.831  74.038  88.806  1.00  0.00     0.157 A 
BRANCH  17  20
ATOM     20  O   UNL     1      76.186  75.571  87.981  1.00  0.00    -0.493 OA
ATOM     21  C   UNL     1      74.924  75.396  88.624  1.00  0.00     0.278 C 
ENDBRANCH  17  20
BRANCH  19  22
ATOM     22  O   UNL     1      77.938  74.735  89.971  1.00  0.00    -0.504 OA
ATOM     23  H   UNL     1      77.211  74.475  90.563  1.00  0.00     0.293 HD
ENDBRANCH  19  22
ENDBRANCH  13  14
ENDBRANCH  12  13
ENDBRANCH  10  12
ENDBRANCH   1  10
TORSDOF 12
ENDMDL
