MODEL 1
REMARK VINA RESULT:    -6.065      0.000      0.000
REMARK INTER + INTRA:         -10.950
REMARK INTER:                  -9.787
REMARK INTRA:                  -1.163
REMARK UNBOUND:                -1.163
REMARK SMILES COc1cc(CNC(=O)CCCCC/C=C/C(C)C)ccc1O
REMARK SMILES IDX 11 1 10 2 8 3 7 4 9 6 6 7 5 8 3 9 22 10 4 11 21 12 20 13
REMARK SMILES IDX 2 14 1 15 23 16 12 18 13 19 14 20 15 21 16 22 17 23 18 24
REMARK SMILES IDX 19 25
REMARK H PARENT 7 5 23 17
REMARK Flexibility Score: inf
ROOT
ATOM      1  C   UNL     1      97.075  80.720  77.179  1.00  0.00     0.010 C 
ENDROOT
BRANCH   1   2
ATOM      2  C   UNL     1      98.429  80.155  77.680  1.00  0.00     0.100 C 
BRANCH   2   3
ATOM      3  C   UNL     1      98.514  80.013  79.146  1.00  0.00     0.220 C 
ATOM      4  N   UNL     1      97.429  79.589  79.850  1.00  0.00    -0.352 N 
ATOM      5  H   UNL     1      96.590  79.467  79.299  1.00  0.00     0.163 HD
ATOM      6  O   UNL     1      99.611  80.252  79.705  1.00  0.00    -0.275 OA
BRANCH   4   7
ATOM      7  C   UNL     1      97.403  79.317  81.251  1.00  0.00     0.151 C 
BRANCH   7   8
ATOM      8  C   UNL     1      96.764  80.407  82.033  1.00  0.00    -0.025 A 
ATOM      9  C   UNL     1      95.299  81.145  83.866  1.00  0.00     0.160 A 
ATOM     10  C   UNL     1      95.505  82.490  83.487  1.00  0.00     0.157 A 
ATOM     11  C   UNL     1      95.922  80.115  83.131  1.00  0.00     0.056 A 
ATOM     12  C   UNL     1      96.354  82.793  82.407  1.00  0.00     0.050 A 
ATOM     13  C   UNL     1      96.987  81.760  81.692  1.00  0.00     0.009 A 
BRANCH   9  14
ATOM     14  O   UNL     1      94.545  80.844  84.969  1.00  0.00    -0.493 OA
ATOM     15  C   UNL     1      95.022  79.712  85.715  1.00  0.00     0.278 C 
ENDBRANCH   9  14
BRANCH  10  16
ATOM     16  O   UNL     1      94.902  83.509  84.150  1.00  0.00    -0.504 OA
ATOM     17  H   UNL     1      94.900  84.293  83.596  1.00  0.00     0.293 HD
ENDBRANCH  10  16
ENDBRANCH   7   8
ENDBRANCH   4   7
ENDBRANCH   2   3
ENDBRANCH   1   2
BRANCH   1  18
ATOM     18  C   UNL     1      96.986  82.249  77.411  1.00  0.00     0.001 C 
BRANCH  18  19
ATOM     19  C   UNL     1      95.677  82.886  76.880  1.00  0.00     0.004 C 
BRANCH  19  20
ATOM     20  C   UNL     1      95.912  83.627  75.535  1.00  0.00     0.027 C 
BRANCH  20  21
ATOM     21  C   UNL     1      97.285  83.562  75.064  1.00  0.00    -0.031 C 
ATOM     22  C   UNL     1      97.624  82.937  73.922  1.00  0.00    -0.028 C 
BRANCH  22  23
ATOM     23  C   UNL     1      98.993  82.859  73.419  1.00  0.00     0.005 C 
ATOM     24  C   UNL     1      99.405  84.206  72.768  1.00  0.00     0.012 C 
ATOM     25  C   UNL     1      99.960  82.434  74.557  1.00  0.00     0.012 C 
ENDBRANCH  22  23
ENDBRANCH  20  21
ENDBRANCH  19  20
ENDBRANCH  18  19
ENDBRANCH   1  18
TORSDOF 11
ENDMDL
MODEL 2
REMARK VINA RESULT:    -5.806     14.734     16.702
REMARK INTER + INTRA:         -10.532
REMARK INTER:                  -9.840
REMARK INTRA:                  -0.692
REMARK UNBOUND:                -1.163
REMARK SMILES COc1cc(CNC(=O)CCCCC/C=C/C(C)C)ccc1O
REMARK SMILES IDX 11 1 10 2 8 3 7 4 9 6 6 7 5 8 3 9 22 10 4 11 21 12 20 13
REMARK SMILES IDX 2 14 1 15 23 16 12 18 13 19 14 20 15 21 16 22 17 23 18 24
REMARK SMILES IDX 19 25
REMARK H PARENT 7 5 23 17
REMARK Flexibility Score: inf
ROOT
ATOM      1  C   UNL     1      96.862  97.023  81.232  1.00  0.00     0.010 C 
ENDROOT
BRANCH   1   2
ATOM      2  C   UNL     1      96.463  95.539  81.439  1.00  0.00     0.100 C 
BRANCH   2   3
ATOM      3  C   UNL     1      96.253  94.793  80.184  1.00  0.00     0.220 C 
ATOM      4  N   UNL     1      95.149  94.009  80.039  1.00  0.00    -0.352 N 
ATOM      5  H   UNL     1      94.570  93.939  80.864  1.00  0.00     0.163 HD
ATOM      6  O   UNL     1      97.087  94.935  79.260  1.00  0.00    -0.275 OA
BRANCH   4   7
ATOM      7  C   UNL     1      94.775  93.314  78.850  1.00  0.00     0.151 C 
BRANCH   7   8
ATOM      8  C   UNL     1      93.503  93.816  78.269  1.00  0.00    -0.025 A 
ATOM      9  C   UNL     1      91.136  93.477  77.697  1.00  0.00     0.160 A 
ATOM     10  C   UNL     1      91.094  94.761  77.112  1.00  0.00     0.157 A 
ATOM     11  C   UNL     1      92.340  93.011  78.262  1.00  0.00     0.056 A 
ATOM     12  C   UNL     1      92.240  95.577  77.128  1.00  0.00     0.050 A 
ATOM     13  C   UNL     1      93.433  95.112  77.712  1.00  0.00     0.009 A 
BRANCH   9  14
ATOM     14  O   UNL     1      90.003  92.710  77.765  1.00  0.00    -0.493 OA
ATOM     15  C   UNL     1      89.923  91.690  76.755  1.00  0.00     0.278 C 
ENDBRANCH   9  14
BRANCH  10  16
ATOM     16  O   UNL     1      89.963  95.235  76.532  1.00  0.00    -0.504 OA
ATOM     17  H   UNL     1      89.969  96.195  76.556  1.00  0.00     0.293 HD
ENDBRANCH  10  16
ENDBRANCH   7   8
ENDBRANCH   4   7
ENDBRANCH   2   3
ENDBRANCH   1   2
BRANCH   1  18
ATOM     18  C   UNL     1      95.940  97.968  82.043  1.00  0.00     0.001 C 
BRANCH  18  19
ATOM     19  C   UNL     1      96.663  99.224  82.592  1.00  0.00     0.004 C 
BRANCH  19  20
ATOM     20  C   UNL     1      95.666 100.391  82.837  1.00  0.00     0.027 C 
BRANCH  20  21
ATOM     21  C   UNL     1      95.266 101.082  81.623  1.00  0.00    -0.031 C 
ATOM     22  C   UNL     1      95.199 102.423  81.549  1.00  0.00    -0.028 C 
BRANCH  22  23
ATOM     23  C   UNL     1      94.806 103.148  80.343  1.00  0.00     0.005 C 
ATOM     24  C   UNL     1      95.207 102.344  79.077  1.00  0.00     0.012 C 
ATOM     25  C   UNL     1      93.288 103.470  80.381  1.00  0.00     0.012 C 
ENDBRANCH  22  23
ENDBRANCH  20  21
ENDBRANCH  19  20
ENDBRANCH  18  19
ENDBRANCH   1  18
TORSDOF 11
ENDMDL
MODEL 3
REMARK VINA RESULT:    -5.542     15.264     17.473
REMARK INTER + INTRA:         -10.108
REMARK INTER:                  -9.768
REMARK INTRA:                  -0.340
REMARK UNBOUND:                -1.163
REMARK SMILES COc1cc(CNC(=O)CCCCC/C=C/C(C)C)ccc1O
REMARK SMILES IDX 11 1 10 2 8 3 7 4 9 6 6 7 5 8 3 9 22 10 4 11 21 12 20 13
REMARK SMILES IDX 2 14 1 15 23 16 12 18 13 19 14 20 15 21 16 22 17 23 18 24
REMARK SMILES IDX 19 25
REMARK H PARENT 7 5 23 17
REMARK Flexibility Score: inf
ROOT
ATOM      1  C   UNL     1      93.694 100.087  72.474  1.00  0.00     0.010 C 
ENDROOT
BRANCH   1   2
ATOM      2  C   UNL     1      93.187  98.734  73.036  1.00  0.00     0.100 C 
BRANCH   2   3
ATOM      3  C   UNL     1      94.064  98.146  74.066  1.00  0.00     0.220 C 
ATOM      4  N   UNL     1      93.709  96.980  74.673  1.00  0.00    -0.352 N 
ATOM      5  H   UNL     1      92.798  96.629  74.412  1.00  0.00     0.163 HD
ATOM      6  O   UNL     1      95.146  98.723  74.328  1.00  0.00    -0.275 OA
BRANCH   4   7
ATOM      7  C   UNL     1      94.506  96.256  75.610  1.00  0.00     0.151 C 
BRANCH   7   8
ATOM      8  C   UNL     1      93.708  95.304  76.425  1.00  0.00    -0.025 A 
ATOM      9  C   UNL     1      93.546  93.683  78.267  1.00  0.00     0.160 A 
ATOM     10  C   UNL     1      92.192  93.450  77.942  1.00  0.00     0.157 A 
ATOM     11  C   UNL     1      94.295  94.600  77.502  1.00  0.00     0.056 A 
ATOM     12  C   UNL     1      91.593  94.158  76.885  1.00  0.00     0.050 A 
ATOM     13  C   UNL     1      92.342  95.086  76.138  1.00  0.00     0.009 A 
BRANCH   9  14
ATOM     14  O   UNL     1      94.115  93.065  79.349  1.00  0.00    -0.493 OA
ATOM     15  C   UNL     1      95.539  92.900  79.250  1.00  0.00     0.278 C 
ENDBRANCH   9  14
BRANCH  10  16
ATOM     16  O   UNL     1      91.445  92.555  78.636  1.00  0.00    -0.504 OA
ATOM     17  H   UNL     1      91.791  91.671  78.493  1.00  0.00     0.293 HD
ENDBRANCH  10  16
ENDBRANCH   7   8
ENDBRANCH   4   7
ENDBRANCH   2   3
ENDBRANCH   1   2
BRANCH   1  18
ATOM     18  C   UNL     1      93.807 100.044  70.929  1.00  0.00     0.001 C 
BRANCH  18  19
ATOM     19  C   UNL     1      92.514 100.485  70.197  1.00  0.00     0.004 C 
BRANCH  19  20
ATOM     20  C   UNL     1      91.279  99.684  70.696  1.00  0.00     0.027 C 
BRANCH  20  21
ATOM     21  C   UNL     1      90.497  99.089  69.626  1.00  0.00    -0.031 C 
ATOM     22  C   UNL     1      89.866  99.830  68.698  1.00  0.00    -0.028 C 
BRANCH  22  23
ATOM     23  C   UNL     1      89.078  99.262  67.608  1.00  0.00     0.005 C 
ATOM     24  C   UNL     1      87.786 100.094  67.388  1.00  0.00     0.012 C 
ATOM     25  C   UNL     1      89.939  99.158  66.320  1.00  0.00     0.012 C 
ENDBRANCH  22  23
ENDBRANCH  20  21
ENDBRANCH  19  20
ENDBRANCH  18  19
ENDBRANCH   1  18
TORSDOF 11
ENDMDL
MODEL 4
REMARK VINA RESULT:    -5.526     14.668     16.868
REMARK INTER + INTRA:         -10.081
REMARK INTER:                  -9.310
REMARK INTRA:                  -0.772
REMARK UNBOUND:                -1.163
REMARK SMILES COc1cc(CNC(=O)CCCCC/C=C/C(C)C)ccc1O
REMARK SMILES IDX 11 1 10 2 8 3 7 4 9 6 6 7 5 8 3 9 22 10 4 11 21 12 20 13
REMARK SMILES IDX 2 14 1 15 23 16 12 18 13 19 14 20 15 21 16 22 17 23 18 24
REMARK SMILES IDX 19 25
REMARK H PARENT 7 5 23 17
REMARK Flexibility Score: inf
ROOT
ATOM      1  C   UNL     1      94.420  99.376  73.652  1.00  0.00     0.010 C 
ENDROOT
BRANCH   1   2
ATOM      2  C   UNL     1      95.151  98.052  73.995  1.00  0.00     0.100 C 
BRANCH   2   3
ATOM      3  C   UNL     1      94.261  96.985  74.489  1.00  0.00     0.220 C 
ATOM      4  N   UNL     1      94.733  95.715  74.620  1.00  0.00    -0.352 N 
ATOM      5  H   UNL     1      95.677  95.579  74.286  1.00  0.00     0.163 HD
ATOM      6  O   UNL     1      93.090  97.291  74.817  1.00  0.00    -0.275 OA
BRANCH   4   7
ATOM      7  C   UNL     1      94.012  94.615  75.173  1.00  0.00     0.151 C 
BRANCH   7   8
ATOM      8  C   UNL     1      94.314  94.398  76.612  1.00  0.00    -0.025 A 
ATOM      9  C   UNL     1      95.737  94.792  78.578  1.00  0.00     0.160 A 
ATOM     10  C   UNL     1      94.914  93.938  79.344  1.00  0.00     0.157 A 
ATOM     11  C   UNL     1      95.437  95.008  77.218  1.00  0.00     0.056 A 
ATOM     12  C   UNL     1      93.785  93.339  78.756  1.00  0.00     0.050 A 
ATOM     13  C   UNL     1      93.481  93.576  77.402  1.00  0.00     0.009 A 
BRANCH   9  14
ATOM     14  O   UNL     1      96.788  95.448  79.163  1.00  0.00    -0.493 OA
ATOM     15  C   UNL     1      97.756  95.956  78.230  1.00  0.00     0.278 C 
ENDBRANCH   9  14
BRANCH  10  16
ATOM     16  O   UNL     1      95.185  93.681  80.648  1.00  0.00    -0.504 OA
ATOM     17  H   UNL     1      95.780  92.929  80.709  1.00  0.00     0.293 HD
ENDBRANCH  10  16
ENDBRANCH   7   8
ENDBRANCH   4   7
ENDBRANCH   2   3
ENDBRANCH   1   2
BRANCH   1  18
ATOM     18  C   UNL     1      94.017  99.420  72.156  1.00  0.00     0.001 C 
BRANCH  18  19
ATOM     19  C   UNL     1      92.507  99.174  71.910  1.00  0.00     0.004 C 
BRANCH  19  20
ATOM     20  C   UNL     1      91.846 100.381  71.188  1.00  0.00     0.027 C 
BRANCH  20  21
ATOM     21  C   UNL     1      90.988 100.001  70.078  1.00  0.00    -0.031 C 
ATOM     22  C   UNL     1      90.089  99.006  70.174  1.00  0.00    -0.028 C 
BRANCH  22  23
ATOM     23  C   UNL     1      89.209  98.603  69.080  1.00  0.00     0.005 C 
ATOM     24  C   UNL     1      88.740  99.847  68.280  1.00  0.00     0.012 C 
ATOM     25  C   UNL     1      89.918  97.555  68.179  1.00  0.00     0.012 C 
ENDBRANCH  22  23
ENDBRANCH  20  21
ENDBRANCH  19  20
ENDBRANCH  18  19
ENDBRANCH   1  18
TORSDOF 11
ENDMDL
MODEL 5
REMARK VINA RESULT:    -5.473     19.575     20.978
REMARK INTER + INTRA:          -9.995
REMARK INTER:                  -8.546
REMARK INTRA:                  -1.449
REMARK UNBOUND:                -1.163
REMARK SMILES COc1cc(CNC(=O)CCCCC/C=C/C(C)C)ccc1O
REMARK SMILES IDX 11 1 10 2 8 3 7 4 9 6 6 7 5 8 3 9 22 10 4 11 21 12 20 13
REMARK SMILES IDX 2 14 1 15 23 16 12 18 13 19 14 20 15 21 16 22 17 23 18 24
REMARK SMILES IDX 19 25
REMARK H PARENT 7 5 23 17
REMARK Flexibility Score: inf
ROOT
ATOM      1  C   UNL     1      82.179  65.411  76.399  1.00  0.00     0.010 C 
ENDROOT
BRANCH   1   2
ATOM      2  C   UNL     1      83.693  65.118  76.555  1.00  0.00     0.100 C 
BRANCH   2   3
ATOM      3  C   UNL     1      84.539  66.326  76.578  1.00  0.00     0.220 C 
ATOM      4  N   UNL     1      85.245  66.682  75.469  1.00  0.00    -0.352 N 
ATOM      5  H   UNL     1      85.189  66.023  74.705  1.00  0.00     0.163 HD
ATOM      6  O   UNL     1      84.553  67.023  77.621  1.00  0.00    -0.275 OA
BRANCH   4   7
ATOM      7  C   UNL     1      86.021  67.870  75.325  1.00  0.00     0.151 C 
BRANCH   7   8
ATOM      8  C   UNL     1      85.517  68.755  74.243  1.00  0.00    -0.025 A 
ATOM      9  C   UNL     1      85.318  70.985  73.225  1.00  0.00     0.160 A 
ATOM     10  C   UNL     1      84.507  70.445  72.203  1.00  0.00     0.157 A 
ATOM     11  C   UNL     1      85.808  70.139  74.241  1.00  0.00     0.056 A 
ATOM     12  C   UNL     1      84.225  69.067  72.185  1.00  0.00     0.050 A 
ATOM     13  C   UNL     1      84.735  68.226  73.192  1.00  0.00     0.009 A 
BRANCH   9  14
ATOM     14  O   UNL     1      85.670  72.308  73.203  1.00  0.00    -0.493 OA
ATOM     15  C   UNL     1      85.072  73.093  74.248  1.00  0.00     0.278 C 
ENDBRANCH   9  14
BRANCH  10  16
ATOM     16  O   UNL     1      83.992  71.230  71.223  1.00  0.00    -0.504 OA
ATOM     17  H   UNL     1      84.666  71.395  70.559  1.00  0.00     0.293 HD
ENDBRANCH  10  16
ENDBRANCH   7   8
ENDBRANCH   4   7
ENDBRANCH   2   3
ENDBRANCH   1   2
BRANCH   1  18
ATOM     18  C   UNL     1      81.620  64.788  75.095  1.00  0.00     0.001 C 
BRANCH  18  19
ATOM     19  C   UNL     1      80.334  65.480  74.574  1.00  0.00     0.004 C 
BRANCH  19  20
ATOM     20  C   UNL     1      80.664  66.810  73.840  1.00  0.00     0.027 C 
BRANCH  20  21
ATOM     21  C   UNL     1      81.290  66.622  72.543  1.00  0.00    -0.031 C 
ATOM     22  C   UNL     1      80.949  65.614  71.720  1.00  0.00    -0.028 C 
BRANCH  22  23
ATOM     23  C   UNL     1      81.555  65.401  70.408  1.00  0.00     0.005 C 
ATOM     24  C   UNL     1      80.592  65.876  69.287  1.00  0.00     0.012 C 
ATOM     25  C   UNL     1      82.938  66.104  70.334  1.00  0.00     0.012 C 
ENDBRANCH  22  23
ENDBRANCH  20  21
ENDBRANCH  19  20
ENDBRANCH  18  19
ENDBRANCH   1  18
TORSDOF 11
ENDMDL
MODEL 6
REMARK VINA RESULT:    -5.472     22.299     25.580
REMARK INTER + INTRA:          -9.994
REMARK INTER:                  -8.460
REMARK INTRA:                  -1.534
REMARK UNBOUND:                -1.163
REMARK SMILES COc1cc(CNC(=O)CCCCC/C=C/C(C)C)ccc1O
REMARK SMILES IDX 11 1 10 2 8 3 7 4 9 6 6 7 5 8 3 9 22 10 4 11 21 12 20 13
REMARK SMILES IDX 2 14 1 15 23 16 12 18 13 19 14 20 15 21 16 22 17 23 18 24
REMARK SMILES IDX 19 25
REMARK H PARENT 7 5 23 17
REMARK Flexibility Score: inf
ROOT
ATOM      1  C   UNL     1      89.376  97.299  67.849  1.00  0.00     0.010 C 
ENDROOT
BRANCH   1   2
ATOM      2  C   UNL     1      89.205  98.389  66.759  1.00  0.00     0.100 C 
BRANCH   2   3
ATOM      3  C   UNL     1      88.130  99.358  67.043  1.00  0.00     0.220 C 
ATOM      4  N   UNL     1      87.346  99.817  66.029  1.00  0.00    -0.352 N 
ATOM      5  H   UNL     1      87.618  99.499  65.109  1.00  0.00     0.163 HD
ATOM      6  O   UNL     1      87.941  99.706  68.233  1.00  0.00    -0.275 OA
BRANCH   4   7
ATOM      7  C   UNL     1      86.217 100.676  66.178  1.00  0.00     0.151 C 
BRANCH   7   8
ATOM      8  C   UNL     1      86.582 102.115  66.126  1.00  0.00    -0.025 A 
ATOM      9  C   UNL     1      85.944 104.473  65.835  1.00  0.00     0.160 A 
ATOM     10  C   UNL     1      87.296 104.855  65.975  1.00  0.00     0.157 A 
ATOM     11  C   UNL     1      85.599 103.107  65.902  1.00  0.00     0.056 A 
ATOM     12  C   UNL     1      88.280 103.879  66.215  1.00  0.00     0.050 A 
ATOM     13  C   UNL     1      87.925 102.520  66.300  1.00  0.00     0.009 A 
BRANCH   9  14
ATOM     14  O   UNL     1      84.967 105.422  65.689  1.00  0.00    -0.493 OA
ATOM     15  C   UNL     1      83.788 105.177  66.474  1.00  0.00     0.278 C 
ENDBRANCH   9  14
BRANCH  10  16
ATOM     16  O   UNL     1      87.673 106.155  65.889  1.00  0.00    -0.504 OA
ATOM     17  H   UNL     1      88.376 106.327  66.520  1.00  0.00     0.293 HD
ENDBRANCH  10  16
ENDBRANCH   7   8
ENDBRANCH   4   7
ENDBRANCH   2   3
ENDBRANCH   1   2
BRANCH   1  18
ATOM     18  C   UNL     1      90.533  97.652  68.817  1.00  0.00     0.001 C 
BRANCH  18  19
ATOM     19  C   UNL     1      90.055  98.166  70.199  1.00  0.00     0.004 C 
BRANCH  19  20
ATOM     20  C   UNL     1      90.733  99.515  70.568  1.00  0.00     0.027 C 
BRANCH  20  21
ATOM     21  C   UNL     1      91.288 100.222  69.426  1.00  0.00    -0.031 C 
ATOM     22  C   UNL     1      90.759 101.370  68.965  1.00  0.00    -0.028 C 
BRANCH  22  23
ATOM     23  C   UNL     1      91.296 102.107  67.824  1.00  0.00     0.005 C 
ATOM     24  C   UNL     1      92.651 102.765  68.198  1.00  0.00     0.012 C 
ATOM     25  C   UNL     1      91.415 101.173  66.589  1.00  0.00     0.012 C 
ENDBRANCH  22  23
ENDBRANCH  20  21
ENDBRANCH  19  20
ENDBRANCH  18  19
ENDBRANCH   1  18
TORSDOF 11
ENDMDL
MODEL 7
REMARK VINA RESULT:    -5.159     15.570     17.248
REMARK INTER + INTRA:          -9.488
REMARK INTER:                  -8.488
REMARK INTRA:                  -1.001
REMARK UNBOUND:                -1.163
REMARK SMILES COc1cc(CNC(=O)CCCCC/C=C/C(C)C)ccc1O
REMARK SMILES IDX 11 1 10 2 8 3 7 4 9 6 6 7 5 8 3 9 22 10 4 11 21 12 20 13
REMARK SMILES IDX 2 14 1 15 23 16 12 18 13 19 14 20 15 21 16 22 17 23 18 24
REMARK SMILES IDX 19 25
REMARK H PARENT 7 5 23 17
REMARK Flexibility Score: inf
ROOT
ATOM      1  C   UNL     1      96.368  94.856  81.315  1.00  0.00     0.010 C 
ENDROOT
BRANCH   1   2
ATOM      2  C   UNL     1      95.644  96.226  81.381  1.00  0.00     0.100 C 
BRANCH   2   3
ATOM      3  C   UNL     1      96.394  97.266  82.110  1.00  0.00     0.220 C 
ATOM      4  N   UNL     1      96.473  98.527  81.601  1.00  0.00    -0.352 N 
ATOM      5  H   UNL     1      96.054  98.640  80.688  1.00  0.00     0.163 HD
ATOM      6  O   UNL     1      96.911  96.966  83.212  1.00  0.00    -0.275 OA
BRANCH   4   7
ATOM      7  C   UNL     1      97.080  99.645  82.246  1.00  0.00     0.151 C 
BRANCH   7   8
ATOM      8  C   UNL     1      96.128 100.396  83.105  1.00  0.00    -0.025 A 
ATOM      9  C   UNL     1      95.196 100.904  85.323  1.00  0.00     0.160 A 
ATOM     10  C   UNL     1      94.273 101.794  84.730  1.00  0.00     0.157 A 
ATOM     11  C   UNL     1      96.109 100.207  84.506  1.00  0.00     0.056 A 
ATOM     12  C   UNL     1      94.295 102.003  83.339  1.00  0.00     0.050 A 
ATOM     13  C   UNL     1      95.223 101.318  82.533  1.00  0.00     0.009 A 
BRANCH   9  14
ATOM     14  O   UNL     1      95.242 100.760  86.684  1.00  0.00    -0.493 OA
ATOM     15  C   UNL     1      96.291 101.508  87.320  1.00  0.00     0.278 C 
ENDBRANCH   9  14
BRANCH  10  16
ATOM     16  O   UNL     1      93.359 102.463  85.477  1.00  0.00    -0.504 OA
ATOM     17  H   UNL     1      93.317 102.073  86.354  1.00  0.00     0.293 HD
ENDBRANCH  10  16
ENDBRANCH   7   8
ENDBRANCH   4   7
ENDBRANCH   2   3
ENDBRANCH   1   2
BRANCH   1  18
ATOM     18  C   UNL     1      95.995  94.089  80.021  1.00  0.00     0.001 C 
BRANCH  18  19
ATOM     19  C   UNL     1      96.868  94.468  78.798  1.00  0.00     0.004 C 
BRANCH  19  20
ATOM     20  C   UNL     1      96.094  95.390  77.813  1.00  0.00     0.027 C 
BRANCH  20  21
ATOM     21  C   UNL     1      94.650  95.252  77.897  1.00  0.00    -0.031 C 
ATOM     22  C   UNL     1      93.895  94.941  76.828  1.00  0.00    -0.028 C 
BRANCH  22  23
ATOM     23  C   UNL     1      92.443  94.790  76.880  1.00  0.00     0.005 C 
ATOM     24  C   UNL     1      92.049  93.739  77.952  1.00  0.00     0.012 C 
ATOM     25  C   UNL     1      91.769  96.167  77.128  1.00  0.00     0.012 C 
ENDBRANCH  22  23
ENDBRANCH  20  21
ENDBRANCH  19  20
ENDBRANCH  18  19
ENDBRANCH   1  18
TORSDOF 11
ENDMDL
MODEL 8
REMARK VINA RESULT:    -5.153      3.257      5.909
REMARK INTER + INTRA:          -9.479
REMARK INTER:                  -8.474
REMARK INTRA:                  -1.006
REMARK UNBOUND:                -1.163
REMARK SMILES COc1cc(CNC(=O)CCCCC/C=C/C(C)C)ccc1O
REMARK SMILES IDX 11 1 10 2 8 3 7 4 9 6 6 7 5 8 3 9 22 10 4 11 21 12 20 13
REMARK SMILES IDX 2 14 1 15 23 16 12 18 13 19 14 20 15 21 16 22 17 23 18 24
REMARK SMILES IDX 19 25
REMARK H PARENT 7 5 23 17
REMARK Flexibility Score: inf
ROOT
ATOM      1  C   UNL     1     100.007  83.205  74.210  1.00  0.00     0.010 C 
ENDROOT
BRANCH   1   2
ATOM      2  C   UNL     1      98.633  83.181  73.491  1.00  0.00     0.100 C 
BRANCH   2   3
ATOM      3  C   UNL     1      97.509  82.779  74.358  1.00  0.00     0.220 C 
ATOM      4  N   UNL     1      97.620  82.896  75.710  1.00  0.00    -0.352 N 
ATOM      5  H   UNL     1      98.530  83.195  76.034  1.00  0.00     0.163 HD
ATOM      6  O   UNL     1      96.454  82.373  73.815  1.00  0.00    -0.275 OA
BRANCH   4   7
ATOM      7  C   UNL     1      96.582  82.636  76.653  1.00  0.00     0.151 C 
BRANCH   7   8
ATOM      8  C   UNL     1      96.994  81.673  77.707  1.00  0.00    -0.025 A 
ATOM      9  C   UNL     1      97.704  79.417  78.379  1.00  0.00     0.160 A 
ATOM     10  C   UNL     1      97.727  79.827  79.730  1.00  0.00     0.157 A 
ATOM     11  C   UNL     1      97.329  80.339  77.381  1.00  0.00     0.056 A 
ATOM     12  C   UNL     1      97.411  81.157  80.065  1.00  0.00     0.050 A 
ATOM     13  C   UNL     1      97.058  82.076  79.060  1.00  0.00     0.009 A 
BRANCH   9  14
ATOM     14  O   UNL     1      98.094  78.150  78.034  1.00  0.00    -0.493 OA
ATOM     15  C   UNL     1      97.005  77.230  77.848  1.00  0.00     0.278 C 
ENDBRANCH   9  14
BRANCH  10  16
ATOM     16  O   UNL     1      98.054  78.964  80.724  1.00  0.00    -0.504 OA
ATOM     17  H   UNL     1      97.278  78.788  81.262  1.00  0.00     0.293 HD
ENDBRANCH  10  16
ENDBRANCH   7   8
ENDBRANCH   4   7
ENDBRANCH   2   3
ENDBRANCH   1   2
BRANCH   1  18
ATOM     18  C   UNL     1     101.076  82.431  73.398  1.00  0.00     0.001 C 
BRANCH  18  19
ATOM     19  C   UNL     1     100.988  82.664  71.869  1.00  0.00     0.004 C 
BRANCH  19  20
ATOM     20  C   UNL     1     100.810  81.324  71.100  1.00  0.00     0.027 C 
BRANCH  20  21
ATOM     21  C   UNL     1      99.427  80.888  70.999  1.00  0.00    -0.031 C 
ATOM     22  C   UNL     1      99.074  79.762  70.354  1.00  0.00    -0.028 C 
BRANCH  22  23
ATOM     23  C   UNL     1      97.696  79.294  70.239  1.00  0.00     0.005 C 
ATOM     24  C   UNL     1      97.668  77.788  69.864  1.00  0.00     0.012 C 
ATOM     25  C   UNL     1      96.917  79.589  71.549  1.00  0.00     0.012 C 
ENDBRANCH  22  23
ENDBRANCH  20  21
ENDBRANCH  19  20
ENDBRANCH  18  19
ENDBRANCH   1  18
TORSDOF 11
ENDMDL
MODEL 9
REMARK VINA RESULT:    -5.145      3.852      6.111
REMARK INTER + INTRA:          -9.466
REMARK INTER:                  -7.256
REMARK INTRA:                  -2.210
REMARK UNBOUND:                -1.163
REMARK SMILES COc1cc(CNC(=O)CCCCC/C=C/C(C)C)ccc1O
REMARK SMILES IDX 11 1 10 2 8 3 7 4 9 6 6 7 5 8 3 9 22 10 4 11 21 12 20 13
REMARK SMILES IDX 2 14 1 15 23 16 12 18 13 19 14 20 15 21 16 22 17 23 18 24
REMARK SMILES IDX 19 25
REMARK H PARENT 7 5 23 17
REMARK Flexibility Score: inf
ROOT
ATOM      1  C   UNL     1      98.517  77.247  79.261  1.00  0.00     0.010 C 
ENDROOT
BRANCH   1   2
ATOM      2  C   UNL     1      99.880  77.987  79.236  1.00  0.00     0.100 C 
BRANCH   2   3
ATOM      3  C   UNL     1      99.764  79.457  79.220  1.00  0.00     0.220 C 
ATOM      4  N   UNL     1      98.536  80.042  79.285  1.00  0.00    -0.352 N 
ATOM      5  H   UNL     1      97.760  79.394  79.266  1.00  0.00     0.163 HD
ATOM      6  O   UNL     1     100.818  80.137  79.187  1.00  0.00    -0.275 OA
BRANCH   4   7
ATOM      7  C   UNL     1      98.288  81.444  79.374  1.00  0.00     0.151 C 
BRANCH   7   8
ATOM      8  C   UNL     1      97.539  81.968  78.203  1.00  0.00    -0.025 A 
ATOM      9  C   UNL     1      97.404  82.451  75.795  1.00  0.00     0.160 A 
ATOM     10  C   UNL     1      96.125  83.020  75.982  1.00  0.00     0.157 A 
ATOM     11  C   UNL     1      98.104  81.939  76.907  1.00  0.00     0.056 A 
ATOM     12  C   UNL     1      95.546  83.039  77.264  1.00  0.00     0.050 A 
ATOM     13  C   UNL     1      96.243  82.507  78.365  1.00  0.00     0.009 A 
BRANCH   9  14
ATOM     14  O   UNL     1      97.939  82.348  74.539  1.00  0.00    -0.493 OA
ATOM     15  C   UNL     1      99.322  82.730  74.456  1.00  0.00     0.278 C 
ENDBRANCH   9  14
BRANCH  10  16
ATOM     16  O   UNL     1      95.430  83.549  74.944  1.00  0.00    -0.504 OA
ATOM     17  H   UNL     1      94.639  83.981  75.276  1.00  0.00     0.293 HD
ENDBRANCH  10  16
ENDBRANCH   7   8
ENDBRANCH   4   7
ENDBRANCH   2   3
ENDBRANCH   1   2
BRANCH   1  18
ATOM     18  C   UNL     1      98.100  76.795  77.839  1.00  0.00     0.001 C 
BRANCH  18  19
ATOM     19  C   UNL     1      96.981  77.664  77.212  1.00  0.00     0.004 C 
BRANCH  19  20
ATOM     20  C   UNL     1      97.407  78.225  75.826  1.00  0.00     0.027 C 
BRANCH  20  21
ATOM     21  C   UNL     1      98.829  78.093  75.555  1.00  0.00    -0.031 C 
ATOM     22  C   UNL     1      99.635  79.159  75.413  1.00  0.00    -0.028 C 
BRANCH  22  23
ATOM     23  C   UNL     1     101.068  79.060  75.145  1.00  0.00     0.005 C 
ATOM     24  C   UNL     1     101.813  80.280  75.749  1.00  0.00     0.012 C 
ATOM     25  C   UNL     1     101.621  77.710  75.675  1.00  0.00     0.012 C 
ENDBRANCH  22  23
ENDBRANCH  20  21
ENDBRANCH  19  20
ENDBRANCH  18  19
ENDBRANCH   1  18
TORSDOF 11
ENDMDL
MODEL 10
REMARK VINA RESULT:    -5.122     16.018     17.696
REMARK INTER + INTRA:          -9.429
REMARK INTER:                  -8.614
REMARK INTRA:                  -0.815
REMARK UNBOUND:                -1.163
REMARK SMILES COc1cc(CNC(=O)CCCCC/C=C/C(C)C)ccc1O
REMARK SMILES IDX 11 1 10 2 8 3 7 4 9 6 6 7 5 8 3 9 22 10 4 11 21 12 20 13
REMARK SMILES IDX 2 14 1 15 23 16 12 18 13 19 14 20 15 21 16 22 17 23 18 24
REMARK SMILES IDX 19 25
REMARK H PARENT 7 5 23 17
REMARK Flexibility Score: inf
ROOT
ATOM      1  C   UNL     1      96.326  96.160  81.631  1.00  0.00     0.010 C 
ENDROOT
BRANCH   1   2
ATOM      2  C   UNL     1      97.308  97.197  81.026  1.00  0.00     0.100 C 
BRANCH   2   3
ATOM      3  C   UNL     1      97.437  98.434  81.817  1.00  0.00     0.220 C 
ATOM      4  N   UNL     1      97.395  99.645  81.195  1.00  0.00    -0.352 N 
ATOM      5  H   UNL     1      97.348  99.599  80.186  1.00  0.00     0.163 HD
ATOM      6  O   UNL     1      97.544  98.337  83.063  1.00  0.00    -0.275 OA
BRANCH   4   7
ATOM      7  C   UNL     1      97.411 100.914  81.847  1.00  0.00     0.151 C 
BRANCH   7   8
ATOM      8  C   UNL     1      96.046 101.439  82.110  1.00  0.00    -0.025 A 
ATOM      9  C   UNL     1      94.211 101.931  83.672  1.00  0.00     0.160 A 
ATOM     10  C   UNL     1      93.420 102.391  82.597  1.00  0.00     0.157 A 
ATOM     11  C   UNL     1      95.512 101.450  83.420  1.00  0.00     0.056 A 
ATOM     12  C   UNL     1      93.947 102.400  81.293  1.00  0.00     0.050 A 
ATOM     13  C   UNL     1      95.254 101.937  81.052  1.00  0.00     0.009 A 
BRANCH   9  14
ATOM     14  O   UNL     1      93.741 102.000  84.957  1.00  0.00    -0.493 OA
ATOM     15  C   UNL     1      94.440 101.152  85.885  1.00  0.00     0.278 C 
ENDBRANCH   9  14
BRANCH  10  16
ATOM     16  O   UNL     1      92.154 102.835  82.793  1.00  0.00    -0.504 OA
ATOM     17  H   UNL     1      91.918 103.449  82.094  1.00  0.00     0.293 HD
ENDBRANCH  10  16
ENDBRANCH   7   8
ENDBRANCH   4   7
ENDBRANCH   2   3
ENDBRANCH   1   2
BRANCH   1  18
ATOM     18  C   UNL     1      95.663  95.304  80.522  1.00  0.00     0.001 C 
BRANCH  18  19
ATOM     19  C   UNL     1      95.983  93.792  80.627  1.00  0.00     0.004 C 
BRANCH  19  20
ATOM     20  C   UNL     1      94.925  92.935  79.878  1.00  0.00     0.027 C 
BRANCH  20  21
ATOM     21  C   UNL     1      94.277  93.633  78.781  1.00  0.00    -0.031 C 
ATOM     22  C   UNL     1      93.010  93.375  78.413  1.00  0.00    -0.028 C 
BRANCH  22  23
ATOM     23  C   UNL     1      92.329  94.063  77.319  1.00  0.00     0.005 C 
ATOM     24  C   UNL     1      92.597  95.590  77.394  1.00  0.00     0.012 C 
ATOM     25  C   UNL     1      92.755  93.456  75.955  1.00  0.00     0.012 C 
ENDBRANCH  22  23
ENDBRANCH  20  21
ENDBRANCH  19  20
ENDBRANCH  18  19
ENDBRANCH   1  18
TORSDOF 11
ENDMDL
