MODEL 1
REMARK VINA RESULT:    -6.138      0.000      0.000
REMARK INTER + INTRA:         -11.108
REMARK INTER:                 -10.264
REMARK INTRA:                  -0.844
REMARK UNBOUND:                -0.844
REMARK SMILES COc1cc(CNC(=O)CCCCCCCC(C)C)ccc1O
REMARK SMILES IDX 11 1 10 2 8 3 9 4 7 5 6 7 5 8 4 9 20 10 3 11 21 12 22 13
REMARK SMILES IDX 2 14 1 15 23 16 12 18 13 19 14 20 15 21 16 22 17 23 18 24
REMARK SMILES IDX 19 25
REMARK H PARENT 7 6 23 17
REMARK Flexibility Score: inf
ROOT
ATOM      1  C   UNL     1      93.614  99.189  74.960  1.00  0.00     0.010 C 
ENDROOT
BRANCH   1   2
ATOM      2  C   UNL     1      92.431 100.153  74.990  1.00  0.00     0.100 C 
BRANCH   2   3
ATOM      3  C   UNL     1      92.230 100.865  73.662  1.00  0.00     0.220 C 
ATOM      4  O   UNL     1      91.997 102.067  73.571  1.00  0.00    -0.275 OA
ATOM      5  N   UNL     1      92.336  99.988  72.593  1.00  0.00    -0.352 N 
ATOM      6  H   UNL     1      92.521  99.004  72.767  1.00  0.00     0.163 HD
BRANCH   5   7
ATOM      7  C   UNL     1      92.179 100.406  71.219  1.00  0.00     0.151 C 
BRANCH   7   8
ATOM      8  C   UNL     1      90.992  99.758  70.567  1.00  0.00    -0.025 A 
ATOM      9  C   UNL     1      90.397 100.362  69.466  1.00  0.00     0.056 A 
ATOM     10  C   UNL     1      90.499  98.561  71.073  1.00  0.00     0.009 A 
ATOM     11  C   UNL     1      89.294  99.760  68.861  1.00  0.00     0.160 A 
ATOM     12  C   UNL     1      89.395  97.960  70.468  1.00  0.00     0.050 A 
ATOM     13  C   UNL     1      88.792  98.559  69.362  1.00  0.00     0.157 A 
BRANCH  11  14
ATOM     14  O   UNL     1      88.713 100.355  67.781  1.00  0.00    -0.493 OA
ATOM     15  C   UNL     1      88.434 101.751  67.883  1.00  0.00     0.278 C 
ENDBRANCH  11  14
BRANCH  13  16
ATOM     16  O   UNL     1      87.716  97.961  68.779  1.00  0.00    -0.504 OA
ATOM     17  H   UNL     1      87.368  97.280  69.381  1.00  0.00     0.293 HD
ENDBRANCH  13  16
ENDBRANCH   7   8
ENDBRANCH   5   7
ENDBRANCH   2   3
ENDBRANCH   1   2
BRANCH   1  18
ATOM     18  C   UNL     1      93.287  97.802  75.521  1.00  0.00     0.001 C 
BRANCH  18  19
ATOM     19  C   UNL     1      94.488  96.883  75.762  1.00  0.00     0.000 C 
BRANCH  19  20
ATOM     20  C   UNL     1      94.090  95.458  76.157  1.00  0.00     0.000 C 
BRANCH  20  21
ATOM     21  C   UNL     1      93.323  95.384  77.482  1.00  0.00     0.000 C 
BRANCH  21  22
ATOM     22  C   UNL     1      92.303  94.241  77.530  1.00  0.00     0.003 C 
BRANCH  22  23
ATOM     23  C   UNL     1      91.009  94.604  78.284  1.00  0.00    -0.017 C 
ATOM     24  C   UNL     1      90.131  93.359  78.432  1.00  0.00     0.007 C 
ATOM     25  C   UNL     1      90.218  95.713  77.591  1.00  0.00     0.007 C 
ENDBRANCH  22  23
ENDBRANCH  21  22
ENDBRANCH  20  21
ENDBRANCH  19  20
ENDBRANCH  18  19
ENDBRANCH   1  18
TORSDOF 12
ENDMDL
MODEL 2
REMARK VINA RESULT:    -5.749      6.769     11.237
REMARK INTER + INTRA:         -10.458
REMARK INTER:                  -9.563
REMARK INTRA:                  -0.895
REMARK UNBOUND:                -0.844
REMARK SMILES COc1cc(CNC(=O)CCCCCCCC(C)C)ccc1O
REMARK SMILES IDX 11 1 10 2 8 3 9 4 7 5 6 7 5 8 4 9 20 10 3 11 21 12 22 13
REMARK SMILES IDX 2 14 1 15 23 16 12 18 13 19 14 20 15 21 16 22 17 23 18 24
REMARK SMILES IDX 19 25
REMARK H PARENT 7 6 23 17
REMARK Flexibility Score: inf
ROOT
ATOM      1  C   UNL     1      95.747  98.369  76.655  1.00  0.00     0.010 C 
ENDROOT
BRANCH   1   2
ATOM      2  C   UNL     1      96.718  98.080  77.798  1.00  0.00     0.100 C 
BRANCH   2   3
ATOM      3  C   UNL     1      96.063  98.219  79.163  1.00  0.00     0.220 C 
ATOM      4  O   UNL     1      96.002  99.281  79.775  1.00  0.00    -0.275 OA
ATOM      5  N   UNL     1      95.563  97.006  79.614  1.00  0.00    -0.352 N 
ATOM      6  H   UNL     1      95.670  96.174  79.040  1.00  0.00     0.163 HD
BRANCH   5   7
ATOM      7  C   UNL     1      94.898  96.859  80.888  1.00  0.00     0.151 C 
BRANCH   7   8
ATOM      8  C   UNL     1      95.869  96.587  82.000  1.00  0.00    -0.025 A 
ATOM      9  C   UNL     1      96.040  97.526  83.010  1.00  0.00     0.056 A 
ATOM     10  C   UNL     1      96.589  95.398  82.007  1.00  0.00     0.009 A 
ATOM     11  C   UNL     1      96.943  97.273  84.042  1.00  0.00     0.160 A 
ATOM     12  C   UNL     1      97.492  95.145  83.040  1.00  0.00     0.050 A 
ATOM     13  C   UNL     1      97.670  96.082  84.058  1.00  0.00     0.157 A 
BRANCH  11  14
ATOM     14  O   UNL     1      97.107  98.196  85.030  1.00  0.00    -0.493 OA
ATOM     15  C   UNL     1      96.129  98.215  86.069  1.00  0.00     0.278 C 
ENDBRANCH  11  14
BRANCH  13  16
ATOM     16  O   UNL     1      98.553  95.823  85.061  1.00  0.00    -0.504 OA
ATOM     17  H   UNL     1      98.510  96.542  85.714  1.00  0.00     0.293 HD
ENDBRANCH  13  16
ENDBRANCH   7   8
ENDBRANCH   5   7
ENDBRANCH   2   3
ENDBRANCH   1   2
BRANCH   1  18
ATOM     18  C   UNL     1      95.132  97.108  76.042  1.00  0.00     0.001 C 
BRANCH  18  19
ATOM     19  C   UNL     1      93.601  97.078  75.981  1.00  0.00     0.000 C 
BRANCH  19  20
ATOM     20  C   UNL     1      93.000  95.781  76.529  1.00  0.00     0.000 C 
BRANCH  20  21
ATOM     21  C   UNL     1      91.958  96.009  77.629  1.00  0.00     0.000 C 
BRANCH  21  22
ATOM     22  C   UNL     1      91.552  94.722  78.356  1.00  0.00     0.003 C 
BRANCH  22  23
ATOM     23  C   UNL     1      90.328  94.024  77.732  1.00  0.00    -0.017 C 
ATOM     24  C   UNL     1      89.288  95.070  77.323  1.00  0.00     0.007 C 
ATOM     25  C   UNL     1      89.689  93.006  78.677  1.00  0.00     0.007 C 
ENDBRANCH  22  23
ENDBRANCH  21  22
ENDBRANCH  20  21
ENDBRANCH  19  20
ENDBRANCH  18  19
ENDBRANCH   1  18
TORSDOF 12
ENDMDL
MODEL 3
REMARK VINA RESULT:    -5.607      5.095      7.794
REMARK INTER + INTRA:         -10.220
REMARK INTER:                  -8.585
REMARK INTRA:                  -1.634
REMARK UNBOUND:                -0.844
REMARK SMILES COc1cc(CNC(=O)CCCCCCCC(C)C)ccc1O
REMARK SMILES IDX 11 1 10 2 8 3 9 4 7 5 6 7 5 8 4 9 20 10 3 11 21 12 22 13
REMARK SMILES IDX 2 14 1 15 23 16 12 18 13 19 14 20 15 21 16 22 17 23 18 24
REMARK SMILES IDX 19 25
REMARK H PARENT 7 6 23 17
REMARK Flexibility Score: inf
ROOT
ATOM      1  C   UNL     1      95.887 100.249  77.073  1.00  0.00     0.010 C 
ENDROOT
BRANCH   1   2
ATOM      2  C   UNL     1      95.353 100.222  75.643  1.00  0.00     0.100 C 
BRANCH   2   3
ATOM      3  C   UNL     1      93.993  99.550  75.545  1.00  0.00     0.220 C 
ATOM      4  O   UNL     1      92.962 100.154  75.265  1.00  0.00    -0.275 OA
ATOM      5  N   UNL     1      94.076  98.193  75.819  1.00  0.00    -0.352 N 
ATOM      6  H   UNL     1      94.975  97.781  76.053  1.00  0.00     0.163 HD
BRANCH   5   7
ATOM      7  C   UNL     1      92.925  97.319  75.803  1.00  0.00     0.151 C 
BRANCH   7   8
ATOM      8  C   UNL     1      92.952  96.334  76.935  1.00  0.00    -0.025 A 
ATOM      9  C   UNL     1      91.797  95.636  77.267  1.00  0.00     0.056 A 
ATOM     10  C   UNL     1      94.131  96.132  77.641  1.00  0.00     0.009 A 
ATOM     11  C   UNL     1      91.822  94.721  78.319  1.00  0.00     0.160 A 
ATOM     12  C   UNL     1      94.156  95.217  78.694  1.00  0.00     0.050 A 
ATOM     13  C   UNL     1      93.002  94.511  79.034  1.00  0.00     0.157 A 
BRANCH  11  14
ATOM     14  O   UNL     1      90.688  94.038  78.641  1.00  0.00    -0.493 OA
ATOM     15  C   UNL     1      89.564  94.206  77.779  1.00  0.00     0.278 C 
ENDBRANCH  11  14
BRANCH  13  16
ATOM     16  O   UNL     1      93.040  93.620  80.063  1.00  0.00    -0.504 OA
ATOM     17  H   UNL     1      92.622  92.789  79.777  1.00  0.00     0.293 HD
ENDBRANCH  13  16
ENDBRANCH   7   8
ENDBRANCH   5   7
ENDBRANCH   2   3
ENDBRANCH   1   2
BRANCH   1  18
ATOM     18  C   UNL     1      96.899  99.138  77.368  1.00  0.00     0.001 C 
BRANCH  18  19
ATOM     19  C   UNL     1      96.759  98.457  78.733  1.00  0.00     0.000 C 
BRANCH  19  20
ATOM     20  C   UNL     1      98.096  98.269  79.455  1.00  0.00     0.000 C 
BRANCH  20  21
ATOM     21  C   UNL     1      97.985  97.439  80.738  1.00  0.00     0.000 C 
BRANCH  21  22
ATOM     22  C   UNL     1      96.949  96.313  80.645  1.00  0.00     0.003 C 
BRANCH  22  23
ATOM     23  C   UNL     1      96.096  96.156  81.918  1.00  0.00    -0.017 C 
ATOM     24  C   UNL     1      95.792  94.675  82.159  1.00  0.00     0.007 C 
ATOM     25  C   UNL     1      94.787  96.944  81.847  1.00  0.00     0.007 C 
ENDBRANCH  22  23
ENDBRANCH  21  22
ENDBRANCH  20  21
ENDBRANCH  19  20
ENDBRANCH  18  19
ENDBRANCH   1  18
TORSDOF 12
ENDMDL
MODEL 4
REMARK VINA RESULT:    -5.312     24.283     26.912
REMARK INTER + INTRA:          -9.728
REMARK INTER:                  -9.149
REMARK INTRA:                  -0.579
REMARK UNBOUND:                -0.844
REMARK SMILES COc1cc(CNC(=O)CCCCCCCC(C)C)ccc1O
REMARK SMILES IDX 11 1 10 2 8 3 9 4 7 5 6 7 5 8 4 9 20 10 3 11 21 12 22 13
REMARK SMILES IDX 2 14 1 15 23 16 12 18 13 19 14 20 15 21 16 22 17 23 18 24
REMARK SMILES IDX 19 25
REMARK H PARENT 7 6 23 17
REMARK Flexibility Score: inf
ROOT
ATOM      1  C   UNL     1      70.945  85.525  70.074  1.00  0.00     0.010 C 
ENDROOT
BRANCH   1   2
ATOM      2  C   UNL     1      70.245  84.591  71.059  1.00  0.00     0.100 C 
BRANCH   2   3
ATOM      3  C   UNL     1      69.339  83.589  70.362  1.00  0.00     0.220 C 
ATOM      4  O   UNL     1      69.730  82.821  69.488  1.00  0.00    -0.275 OA
ATOM      5  N   UNL     1      68.037  83.667  70.833  1.00  0.00    -0.352 N 
ATOM      6  H   UNL     1      67.803  84.345  71.553  1.00  0.00     0.163 HD
BRANCH   5   7
ATOM      7  C   UNL     1      66.972  82.829  70.332  1.00  0.00     0.151 C 
BRANCH   7   8
ATOM      8  C   UNL     1      65.800  82.790  71.270  1.00  0.00    -0.025 A 
ATOM      9  C   UNL     1      65.538  83.882  72.088  1.00  0.00     0.056 A 
ATOM     10  C   UNL     1      64.990  81.662  71.310  1.00  0.00     0.009 A 
ATOM     11  C   UNL     1      64.449  83.846  72.960  1.00  0.00     0.160 A 
ATOM     12  C   UNL     1      63.901  81.626  72.182  1.00  0.00     0.050 A 
ATOM     13  C   UNL     1      63.631  82.717  73.007  1.00  0.00     0.157 A 
BRANCH  11  14
ATOM     14  O   UNL     1      64.196  84.918  73.761  1.00  0.00    -0.493 OA
ATOM     15  C   UNL     1      65.040  85.091  74.898  1.00  0.00     0.278 C 
ENDBRANCH  11  14
BRANCH  13  16
ATOM     16  O   UNL     1      62.565  82.670  73.853  1.00  0.00    -0.504 OA
ATOM     17  H   UNL     1      62.332  83.576  74.120  1.00  0.00     0.293 HD
ENDBRANCH  13  16
ENDBRANCH   7   8
ENDBRANCH   5   7
ENDBRANCH   2   3
ENDBRANCH   1   2
BRANCH   1  18
ATOM     18  C   UNL     1      72.321  85.023  69.629  1.00  0.00     0.001 C 
BRANCH  18  19
ATOM     19  C   UNL     1      73.456  86.051  69.693  1.00  0.00     0.000 C 
BRANCH  19  20
ATOM     20  C   UNL     1      74.849  85.420  69.619  1.00  0.00     0.000 C 
BRANCH  20  21
ATOM     21  C   UNL     1      75.987  86.439  69.739  1.00  0.00     0.000 C 
BRANCH  21  22
ATOM     22  C   UNL     1      77.362  85.792  69.938  1.00  0.00     0.003 C 
BRANCH  22  23
ATOM     23  C   UNL     1      78.182  85.680  68.638  1.00  0.00    -0.017 C 
ATOM     24  C   UNL     1      77.810  86.824  67.691  1.00  0.00     0.007 C 
ATOM     25  C   UNL     1      77.978  84.340  67.930  1.00  0.00     0.007 C 
ENDBRANCH  22  23
ENDBRANCH  21  22
ENDBRANCH  20  21
ENDBRANCH  19  20
ENDBRANCH  18  19
ENDBRANCH   1  18
TORSDOF 12
ENDMDL
MODEL 5
REMARK VINA RESULT:    -5.297     25.016     27.994
REMARK INTER + INTRA:          -9.702
REMARK INTER:                  -8.973
REMARK INTRA:                  -0.729
REMARK UNBOUND:                -0.844
REMARK SMILES COc1cc(CNC(=O)CCCCCCCC(C)C)ccc1O
REMARK SMILES IDX 11 1 10 2 8 3 9 4 7 5 6 7 5 8 4 9 20 10 3 11 21 12 22 13
REMARK SMILES IDX 2 14 1 15 23 16 12 18 13 19 14 20 15 21 16 22 17 23 18 24
REMARK SMILES IDX 19 25
REMARK H PARENT 7 6 23 17
REMARK Flexibility Score: inf
ROOT
ATOM      1  C   UNL     1      87.197  70.129  71.777  1.00  0.00     0.010 C 
ENDROOT
BRANCH   1   2
ATOM      2  C   UNL     1      88.015  70.097  70.488  1.00  0.00     0.100 C 
BRANCH   2   3
ATOM      3  C   UNL     1      89.254  70.973  70.567  1.00  0.00     0.220 C 
ATOM      4  O   UNL     1      90.111  70.851  71.438  1.00  0.00    -0.275 OA
ATOM      5  N   UNL     1      89.280  71.914  69.548  1.00  0.00    -0.352 N 
ATOM      6  H   UNL     1      88.517  71.948  68.877  1.00  0.00     0.163 HD
BRANCH   5   7
ATOM      7  C   UNL     1      90.346  72.878  69.398  1.00  0.00     0.151 C 
BRANCH   7   8
ATOM      8  C   UNL     1      90.221  73.658  68.122  1.00  0.00    -0.025 A 
ATOM      9  C   UNL     1      91.357  74.206  67.538  1.00  0.00     0.056 A 
ATOM     10  C   UNL     1      88.971  73.825  67.538  1.00  0.00     0.009 A 
ATOM     11  C   UNL     1      91.241  74.932  66.352  1.00  0.00     0.160 A 
ATOM     12  C   UNL     1      88.855  74.552  66.352  1.00  0.00     0.050 A 
ATOM     13  C   UNL     1      89.990  75.105  65.759  1.00  0.00     0.157 A 
BRANCH  11  14
ATOM     14  O   UNL     1      92.356  75.468  65.782  1.00  0.00    -0.493 OA
ATOM     15  C   UNL     1      93.274  74.559  65.176  1.00  0.00     0.278 C 
ENDBRANCH  11  14
BRANCH  13  16
ATOM     16  O   UNL     1      89.864  75.811  64.601  1.00  0.00    -0.504 OA
ATOM     17  H   UNL     1      88.932  75.797  64.322  1.00  0.00     0.293 HD
ENDBRANCH  13  16
ENDBRANCH   7   8
ENDBRANCH   5   7
ENDBRANCH   2   3
ENDBRANCH   1   2
BRANCH   1  18
ATOM     18  C   UNL     1      85.686  70.186  71.540  1.00  0.00     0.001 C 
BRANCH  18  19
ATOM     19  C   UNL     1      84.889  68.975  72.037  1.00  0.00     0.000 C 
BRANCH  19  20
ATOM     20  C   UNL     1      85.707  67.681  72.062  1.00  0.00     0.000 C 
BRANCH  20  21
ATOM     21  C   UNL     1      85.265  66.701  73.154  1.00  0.00     0.000 C 
BRANCH  21  22
ATOM     22  C   UNL     1      83.950  65.985  72.831  1.00  0.00     0.003 C 
BRANCH  22  23
ATOM     23  C   UNL     1      83.112  65.647  74.079  1.00  0.00    -0.017 C 
ATOM     24  C   UNL     1      81.730  66.295  73.966  1.00  0.00     0.007 C 
ATOM     25  C   UNL     1      83.785  66.096  75.377  1.00  0.00     0.007 C 
ENDBRANCH  22  23
ENDBRANCH  21  22
ENDBRANCH  20  21
ENDBRANCH  19  20
ENDBRANCH  18  19
ENDBRANCH   1  18
TORSDOF 12
ENDMDL
MODEL 6
REMARK VINA RESULT:    -5.283      2.504      4.245
REMARK INTER + INTRA:          -9.678
REMARK INTER:                  -8.446
REMARK INTRA:                  -1.232
REMARK UNBOUND:                -0.844
REMARK SMILES COc1cc(CNC(=O)CCCCCCCC(C)C)ccc1O
REMARK SMILES IDX 11 1 10 2 8 3 9 4 7 5 6 7 5 8 4 9 20 10 3 11 21 12 22 13
REMARK SMILES IDX 2 14 1 15 23 16 12 18 13 19 14 20 15 21 16 22 17 23 18 24
REMARK SMILES IDX 19 25
REMARK H PARENT 7 6 23 17
REMARK Flexibility Score: inf
ROOT
ATOM      1  C   UNL     1      94.425 100.634  70.153  1.00  0.00     0.010 C 
ENDROOT
BRANCH   1   2
ATOM      2  C   UNL     1      94.051 101.740  71.138  1.00  0.00     0.100 C 
BRANCH   2   3
ATOM      3  C   UNL     1      92.601 101.650  71.586  1.00  0.00     0.220 C 
ATOM      4  O   UNL     1      92.264 101.291  72.710  1.00  0.00    -0.275 OA
ATOM      5  N   UNL     1      91.730 102.014  70.569  1.00  0.00    -0.352 N 
ATOM      6  H   UNL     1      92.102 102.287  69.663  1.00  0.00     0.163 HD
BRANCH   5   7
ATOM      7  C   UNL     1      90.294 102.009  70.728  1.00  0.00     0.151 C 
BRANCH   7   8
ATOM      8  C   UNL     1      89.640 100.949  69.890  1.00  0.00    -0.025 A 
ATOM      9  C   UNL     1      89.491  99.664  70.399  1.00  0.00     0.056 A 
ATOM     10  C   UNL     1      89.191 101.264  68.613  1.00  0.00     0.009 A 
ATOM     11  C   UNL     1      88.884  98.680  69.619  1.00  0.00     0.160 A 
ATOM     12  C   UNL     1      88.584 100.278  67.834  1.00  0.00     0.050 A 
ATOM     13  C   UNL     1      88.430  98.987  68.336  1.00  0.00     0.157 A 
BRANCH  11  14
ATOM     14  O   UNL     1      88.739  97.422  70.121  1.00  0.00    -0.493 OA
ATOM     15  C   UNL     1      89.851  96.538  69.982  1.00  0.00     0.278 C 
ENDBRANCH  11  14
BRANCH  13  16
ATOM     16  O   UNL     1      87.835  98.034  67.566  1.00  0.00    -0.504 OA
ATOM     17  H   UNL     1      87.576  98.431  66.716  1.00  0.00     0.293 HD
ENDBRANCH  13  16
ENDBRANCH   7   8
ENDBRANCH   5   7
ENDBRANCH   2   3
ENDBRANCH   1   2
BRANCH   1  18
ATOM     18  C   UNL     1      94.453  99.239  70.784  1.00  0.00     0.001 C 
BRANCH  18  19
ATOM     19  C   UNL     1      95.709  98.409  70.503  1.00  0.00     0.000 C 
BRANCH  19  20
ATOM     20  C   UNL     1      96.333  97.809  71.766  1.00  0.00     0.000 C 
BRANCH  20  21
ATOM     21  C   UNL     1      95.931  98.541  73.051  1.00  0.00     0.000 C 
BRANCH  21  22
ATOM     22  C   UNL     1      96.183  97.721  74.321  1.00  0.00     0.003 C 
BRANCH  22  23
ATOM     23  C   UNL     1      94.992  97.719  75.298  1.00  0.00    -0.017 C 
ATOM     24  C   UNL     1      94.500  96.286  75.511  1.00  0.00     0.007 C 
ATOM     25  C   UNL     1      93.834  98.593  74.812  1.00  0.00     0.007 C 
ENDBRANCH  22  23
ENDBRANCH  21  22
ENDBRANCH  20  21
ENDBRANCH  19  20
ENDBRANCH  18  19
ENDBRANCH   1  18
TORSDOF 12
ENDMDL
MODEL 7
REMARK VINA RESULT:    -5.266     17.751     21.373
REMARK INTER + INTRA:          -9.650
REMARK INTER:                  -8.421
REMARK INTRA:                  -1.229
REMARK UNBOUND:                -0.844
REMARK SMILES COc1cc(CNC(=O)CCCCCCCC(C)C)ccc1O
REMARK SMILES IDX 11 1 10 2 8 3 9 4 7 5 6 7 5 8 4 9 20 10 3 11 21 12 22 13
REMARK SMILES IDX 2 14 1 15 23 16 12 18 13 19 14 20 15 21 16 22 17 23 18 24
REMARK SMILES IDX 19 25
REMARK H PARENT 7 6 23 17
REMARK Flexibility Score: inf
ROOT
ATOM      1  C   UNL     1     103.559  80.686  80.829  1.00  0.00     0.010 C 
ENDROOT
BRANCH   1   2
ATOM      2  C   UNL     1     102.743  81.708  81.619  1.00  0.00     0.100 C 
BRANCH   2   3
ATOM      3  C   UNL     1     101.530  81.085  82.290  1.00  0.00     0.220 C 
ATOM      4  O   UNL     1     101.563  80.004  82.873  1.00  0.00    -0.275 OA
ATOM      5  N   UNL     1     100.404  81.882  82.150  1.00  0.00    -0.352 N 
ATOM      6  H   UNL     1     100.470  82.759  81.639  1.00  0.00     0.163 HD
BRANCH   5   7
ATOM      7  C   UNL     1      99.114  81.518  82.689  1.00  0.00     0.151 C 
BRANCH   7   8
ATOM      8  C   UNL     1      98.619  82.523  83.688  1.00  0.00    -0.025 A 
ATOM      9  C   UNL     1      99.230  82.614  84.933  1.00  0.00     0.056 A 
ATOM     10  C   UNL     1      97.554  83.353  83.357  1.00  0.00     0.009 A 
ATOM     11  C   UNL     1      98.769  83.549  85.860  1.00  0.00     0.160 A 
ATOM     12  C   UNL     1      97.093  84.287  84.286  1.00  0.00     0.050 A 
ATOM     13  C   UNL     1      97.700  84.385  85.537  1.00  0.00     0.157 A 
BRANCH  11  14
ATOM     14  O   UNL     1      99.370  83.635  87.080  1.00  0.00    -0.493 OA
ATOM     15  C   UNL     1      98.982  82.675  88.063  1.00  0.00     0.278 C 
ENDBRANCH  11  14
BRANCH  13  16
ATOM     16  O   UNL     1      97.242  85.302  86.434  1.00  0.00    -0.504 OA
ATOM     17  H   UNL     1      97.692  86.150  86.278  1.00  0.00     0.293 HD
ENDBRANCH  13  16
ENDBRANCH   7   8
ENDBRANCH   5   7
ENDBRANCH   2   3
ENDBRANCH   1   2
BRANCH   1  18
ATOM     18  C   UNL     1     103.334  80.763  79.317  1.00  0.00     0.001 C 
BRANCH  18  19
ATOM     19  C   UNL     1     102.440  81.910  78.835  1.00  0.00     0.000 C 
BRANCH  19  20
ATOM     20  C   UNL     1     101.063  81.444  78.356  1.00  0.00     0.000 C 
BRANCH  20  21
ATOM     21  C   UNL     1      99.933  82.419  78.703  1.00  0.00     0.000 C 
BRANCH  21  22
ATOM     22  C   UNL     1      98.545  81.906  78.305  1.00  0.00     0.003 C 
BRANCH  22  23
ATOM     23  C   UNL     1      97.463  83.004  78.299  1.00  0.00    -0.017 C 
ATOM     24  C   UNL     1      97.847  84.102  77.304  1.00  0.00     0.007 C 
ATOM     25  C   UNL     1      97.243  83.618  79.682  1.00  0.00     0.007 C 
ENDBRANCH  22  23
ENDBRANCH  21  22
ENDBRANCH  20  21
ENDBRANCH  19  20
ENDBRANCH  18  19
ENDBRANCH   1  18
TORSDOF 12
ENDMDL
MODEL 8
REMARK VINA RESULT:    -5.242     20.001     21.815
REMARK INTER + INTRA:          -9.610
REMARK INTER:                  -7.894
REMARK INTRA:                  -1.716
REMARK UNBOUND:                -0.844
REMARK SMILES COc1cc(CNC(=O)CCCCCCCC(C)C)ccc1O
REMARK SMILES IDX 11 1 10 2 8 3 9 4 7 5 6 7 5 8 4 9 20 10 3 11 21 12 22 13
REMARK SMILES IDX 2 14 1 15 23 16 12 18 13 19 14 20 15 21 16 22 17 23 18 24
REMARK SMILES IDX 19 25
REMARK H PARENT 7 6 23 17
REMARK Flexibility Score: inf
ROOT
ATOM      1  C   UNL     1      93.674  79.831  87.631  1.00  0.00     0.010 C 
ENDROOT
BRANCH   1   2
ATOM      2  C   UNL     1      93.002  80.797  86.658  1.00  0.00     0.100 C 
BRANCH   2   3
ATOM      3  C   UNL     1      92.288  81.933  87.371  1.00  0.00     0.220 C 
ATOM      4  O   UNL     1      91.183  81.813  87.892  1.00  0.00    -0.275 OA
ATOM      5  N   UNL     1      93.036  83.101  87.345  1.00  0.00    -0.352 N 
ATOM      6  H   UNL     1      93.939  83.108  86.878  1.00  0.00     0.163 HD
BRANCH   5   7
ATOM      7  C   UNL     1      92.583  84.335  87.945  1.00  0.00     0.151 C 
BRANCH   7   8
ATOM      8  C   UNL     1      93.721  85.270  88.233  1.00  0.00    -0.025 A 
ATOM      9  C   UNL     1      93.783  85.922  89.459  1.00  0.00     0.056 A 
ATOM     10  C   UNL     1      94.702  85.475  87.270  1.00  0.00     0.009 A 
ATOM     11  C   UNL     1      94.840  86.791  89.726  1.00  0.00     0.160 A 
ATOM     12  C   UNL     1      95.760  86.345  87.538  1.00  0.00     0.050 A 
ATOM     13  C   UNL     1      95.829  87.003  88.765  1.00  0.00     0.157 A 
BRANCH  11  14
ATOM     14  O   UNL     1      94.897  87.428  90.929  1.00  0.00    -0.493 OA
ATOM     15  C   UNL     1      93.897  88.413  91.188  1.00  0.00     0.278 C 
ENDBRANCH  11  14
BRANCH  13  16
ATOM     16  O   UNL     1      96.867  87.849  89.015  1.00  0.00    -0.504 OA
ATOM     17  H   UNL     1      97.336  87.548  89.812  1.00  0.00     0.293 HD
ENDBRANCH  13  16
ENDBRANCH   7   8
ENDBRANCH   5   7
ENDBRANCH   2   3
ENDBRANCH   1   2
BRANCH   1  18
ATOM     18  C   UNL     1      95.139  80.174  87.917  1.00  0.00     0.001 C 
BRANCH  18  19
ATOM     19  C   UNL     1      96.165  79.554  86.963  1.00  0.00     0.000 C 
BRANCH  19  20
ATOM     20  C   UNL     1      96.845  80.581  86.054  1.00  0.00     0.000 C 
BRANCH  20  21
ATOM     21  C   UNL     1      96.620  82.031  86.497  1.00  0.00     0.000 C 
BRANCH  21  22
ATOM     22  C   UNL     1      96.092  82.933  85.377  1.00  0.00     0.003 C 
BRANCH  22  23
ATOM     23  C   UNL     1      97.176  83.830  84.748  1.00  0.00    -0.017 C 
ATOM     24  C   UNL     1      97.816  83.112  83.558  1.00  0.00     0.007 C 
ATOM     25  C   UNL     1      98.259  84.230  85.751  1.00  0.00     0.007 C 
ENDBRANCH  22  23
ENDBRANCH  21  22
ENDBRANCH  20  21
ENDBRANCH  19  20
ENDBRANCH  18  19
ENDBRANCH   1  18
TORSDOF 12
ENDMDL
MODEL 9
REMARK VINA RESULT:    -5.170     29.536     32.309
REMARK INTER + INTRA:          -9.490
REMARK INTER:                  -7.827
REMARK INTRA:                  -1.663
REMARK UNBOUND:                -0.844
REMARK SMILES COc1cc(CNC(=O)CCCCCCCC(C)C)ccc1O
REMARK SMILES IDX 11 1 10 2 8 3 9 4 7 5 6 7 5 8 4 9 20 10 3 11 21 12 22 13
REMARK SMILES IDX 2 14 1 15 23 16 12 18 13 19 14 20 15 21 16 22 17 23 18 24
REMARK SMILES IDX 19 25
REMARK H PARENT 7 6 23 17
REMARK Flexibility Score: inf
ROOT
ATOM      1  C   UNL     1      64.202  83.977  67.335  1.00  0.00     0.010 C 
ENDROOT
BRANCH   1   2
ATOM      2  C   UNL     1      65.666  83.550  67.250  1.00  0.00     0.100 C 
BRANCH   2   3
ATOM      3  C   UNL     1      66.383  83.672  68.584  1.00  0.00     0.220 C 
ATOM      4  O   UNL     1      67.473  84.221  68.715  1.00  0.00    -0.275 OA
ATOM      5  N   UNL     1      65.657  83.084  69.609  1.00  0.00    -0.352 N 
ATOM      6  H   UNL     1      64.765  82.641  69.402  1.00  0.00     0.163 HD
BRANCH   5   7
ATOM      7  C   UNL     1      66.118  83.053  70.978  1.00  0.00     0.151 C 
BRANCH   7   8
ATOM      8  C   UNL     1      64.991  82.829  71.944  1.00  0.00    -0.025 A 
ATOM      9  C   UNL     1      64.691  83.803  72.888  1.00  0.00     0.056 A 
ATOM     10  C   UNL     1      64.261  81.648  71.885  1.00  0.00     0.009 A 
ATOM     11  C   UNL     1      63.644  83.594  73.786  1.00  0.00     0.160 A 
ATOM     12  C   UNL     1      63.214  81.439  72.784  1.00  0.00     0.050 A 
ATOM     13  C   UNL     1      62.906  82.412  73.735  1.00  0.00     0.157 A 
BRANCH  11  14
ATOM     14  O   UNL     1      63.353  84.552  74.711  1.00  0.00    -0.493 OA
ATOM     15  C   UNL     1      63.110  85.871  74.223  1.00  0.00     0.278 C 
ENDBRANCH  11  14
BRANCH  13  16
ATOM     16  O   UNL     1      61.881  82.197  74.606  1.00  0.00    -0.504 OA
ATOM     17  H   UNL     1      61.044  82.448  74.179  1.00  0.00     0.293 HD
ENDBRANCH  13  16
ENDBRANCH   7   8
ENDBRANCH   5   7
ENDBRANCH   2   3
ENDBRANCH   1   2
BRANCH   1  18
ATOM     18  C   UNL     1      63.222  82.800  67.328  1.00  0.00     0.001 C 
BRANCH  18  19
ATOM     19  C   UNL     1      62.570  82.471  68.675  1.00  0.00     0.000 C 
BRANCH  19  20
ATOM     20  C   UNL     1      61.439  83.433  69.051  1.00  0.00     0.000 C 
BRANCH  20  21
ATOM     21  C   UNL     1      61.852  84.483  70.089  1.00  0.00     0.000 C 
BRANCH  21  22
ATOM     22  C   UNL     1      60.971  84.475  71.343  1.00  0.00     0.003 C 
BRANCH  22  23
ATOM     23  C   UNL     1      59.744  85.402  71.238  1.00  0.00    -0.017 C 
ATOM     24  C   UNL     1      58.504  84.580  70.880  1.00  0.00     0.007 C 
ATOM     25  C   UNL     1      59.938  86.515  70.208  1.00  0.00     0.007 C 
ENDBRANCH  22  23
ENDBRANCH  21  22
ENDBRANCH  20  21
ENDBRANCH  19  20
ENDBRANCH  18  19
ENDBRANCH   1  18
TORSDOF 12
ENDMDL
MODEL 10
REMARK VINA RESULT:    -5.137     38.873     41.898
REMARK INTER + INTRA:          -9.434
REMARK INTER:                  -8.090
REMARK INTRA:                  -1.344
REMARK UNBOUND:                -0.844
REMARK SMILES COc1cc(CNC(=O)CCCCCCCC(C)C)ccc1O
REMARK SMILES IDX 11 1 10 2 8 3 9 4 7 5 6 7 5 8 4 9 20 10 3 11 21 12 22 13
REMARK SMILES IDX 2 14 1 15 23 16 12 18 13 19 14 20 15 21 16 22 17 23 18 24
REMARK SMILES IDX 19 25
REMARK H PARENT 7 6 23 17
REMARK Flexibility Score: inf
ROOT
ATOM      1  C   UNL     1      65.777  64.106  77.585  1.00  0.00     0.010 C 
ENDROOT
BRANCH   1   2
ATOM      2  C   UNL     1      64.353  63.574  77.729  1.00  0.00     0.100 C 
BRANCH   2   3
ATOM      3  C   UNL     1      63.413  64.596  78.347  1.00  0.00     0.220 C 
ATOM      4  O   UNL     1      62.552  65.193  77.708  1.00  0.00    -0.275 OA
ATOM      5  N   UNL     1      63.662  64.763  79.702  1.00  0.00    -0.352 N 
ATOM      6  H   UNL     1      64.406  64.230  80.145  1.00  0.00     0.163 HD
BRANCH   5   7
ATOM      7  C   UNL     1      62.915  65.683  80.528  1.00  0.00     0.151 C 
BRANCH   7   8
ATOM      8  C   UNL     1      63.538  67.049  80.551  1.00  0.00    -0.025 A 
ATOM      9  C   UNL     1      62.775  68.146  80.932  1.00  0.00     0.056 A 
ATOM     10  C   UNL     1      64.871  67.201  80.192  1.00  0.00     0.009 A 
ATOM     11  C   UNL     1      63.354  69.415  80.954  1.00  0.00     0.160 A 
ATOM     12  C   UNL     1      65.450  68.471  80.213  1.00  0.00     0.050 A 
ATOM     13  C   UNL     1      64.692  69.578  80.594  1.00  0.00     0.157 A 
BRANCH  11  14
ATOM     14  O   UNL     1      62.603  70.488  81.327  1.00  0.00    -0.493 OA
ATOM     15  C   UNL     1      61.550  70.880  80.447  1.00  0.00     0.278 C 
ENDBRANCH  11  14
BRANCH  13  16
ATOM     16  O   UNL     1      65.269  70.811  80.612  1.00  0.00    -0.504 OA
ATOM     17  H   UNL     1      65.411  71.107  79.697  1.00  0.00     0.293 HD
ENDBRANCH  13  16
ENDBRANCH   7   8
ENDBRANCH   5   7
ENDBRANCH   2   3
ENDBRANCH   1   2
BRANCH   1  18
ATOM     18  C   UNL     1      66.836  63.190  78.205  1.00  0.00     0.001 C 
BRANCH  18  19
ATOM     19  C   UNL     1      66.871  63.157  79.736  1.00  0.00     0.000 C 
BRANCH  19  20
ATOM     20  C   UNL     1      67.272  64.496  80.361  1.00  0.00     0.000 C 
BRANCH  20  21
ATOM     21  C   UNL     1      68.501  64.400  81.273  1.00  0.00     0.000 C 
BRANCH  21  22
ATOM     22  C   UNL     1      69.828  64.432  80.507  1.00  0.00     0.003 C 
BRANCH  22  23
ATOM     23  C   UNL     1      70.856  65.413  81.102  1.00  0.00    -0.017 C 
ATOM     24  C   UNL     1      70.838  65.319  82.630  1.00  0.00     0.007 C 
ATOM     25  C   UNL     1      70.603  66.859  80.674  1.00  0.00     0.007 C 
ENDBRANCH  22  23
ENDBRANCH  21  22
ENDBRANCH  20  21
ENDBRANCH  19  20
ENDBRANCH  18  19
ENDBRANCH   1  18
TORSDOF 12
ENDMDL
