MODEL 1
REMARK VINA RESULT:    -7.673      0.000      0.000
REMARK INTER + INTRA:          -9.357
REMARK INTER:                  -9.019
REMARK INTRA:                  -0.338
REMARK UNBOUND:                -0.338
REMARK SMILES O=C(/C=C/C=C/c1ccc2c(c1)OCO2)N1CCCCC1
REMARK SMILES IDX 3 1 4 2 2 3 1 4 16 5 17 6 21 7 18 8 20 9 19 10 5 11 6 12
REMARK SMILES IDX 7 13 12 14 8 15 11 16 9 17 13 18 10 19 14 20 15 21
REMARK H PARENT
REMARK Flexibility Score: inf
ROOT
ATOM      1  C   UNL     1      96.328  83.354  82.806  1.00  0.00     0.071 C 
ATOM      2  C   UNL     1      96.944  82.773  81.779  1.00  0.00     0.006 C 
ENDROOT
BRANCH   1   3
ATOM      3  C   UNL     1      96.407  82.697  84.126  1.00  0.00     0.246 C 
ATOM      4  O   UNL     1      97.513  82.633  84.665  1.00  0.00    -0.270 OA
ATOM      5  N   UNL     1      95.228  82.189  84.670  1.00  0.00    -0.339 N 
ATOM      6  C   UNL     1      95.276  81.526  85.977  1.00  0.00     0.120 C 
ATOM      7  C   UNL     1      93.901  82.206  84.038  1.00  0.00     0.120 C 
ATOM      8  C   UNL     1      94.257  82.121  86.941  1.00  0.00     0.022 C 
ATOM      9  C   UNL     1      92.848  82.794  84.977  1.00  0.00     0.022 C 
ATOM     10  C   UNL     1      92.856  82.103  86.337  1.00  0.00     0.004 C 
ENDBRANCH   1   3
BRANCH   2  11
ATOM     11  C   UNL     1      96.923  83.341  80.448  1.00  0.00     0.001 C 
ATOM     12  C   UNL     1      97.464  82.722  79.385  1.00  0.00     0.008 C 
BRANCH  12  13
ATOM     13  C   UNL     1      97.478  83.258  78.013  1.00  0.00    -0.022 A 
ATOM     14  C   UNL     1      98.554  82.967  77.186  1.00  0.00     0.058 A 
ATOM     15  C   UNL     1      96.407  84.044  77.582  1.00  0.00     0.012 A 
ATOM     16  C   UNL     1      98.521  83.491  75.910  1.00  0.00     0.166 A 
ATOM     17  C   UNL     1      96.400  84.561  76.285  1.00  0.00     0.051 A 
ATOM     18  O   UNL     1      99.476  83.323  74.953  1.00  0.00    -0.454 OA
ATOM     19  C   UNL     1      97.473  84.267  75.471  1.00  0.00     0.165 A 
ATOM     20  C   UNL     1      98.910  84.080  73.864  1.00  0.00     0.468 C 
ATOM     21  O   UNL     1      97.639  84.682  74.185  1.00  0.00    -0.454 OA
ENDBRANCH  12  13
ENDBRANCH   2  11
TORSDOF 3
ENDMDL
MODEL 2
REMARK VINA RESULT:    -7.605      3.231      9.420
REMARK INTER + INTRA:          -9.277
REMARK INTER:                  -8.878
REMARK INTRA:                  -0.399
REMARK UNBOUND:                -0.338
REMARK SMILES O=C(/C=C/C=C/c1ccc2c(c1)OCO2)N1CCCCC1
REMARK SMILES IDX 3 1 4 2 2 3 1 4 16 5 17 6 21 7 18 8 20 9 19 10 5 11 6 12
REMARK SMILES IDX 7 13 12 14 8 15 11 16 9 17 13 18 10 19 14 20 15 21
REMARK H PARENT
REMARK Flexibility Score: inf
ROOT
ATOM      1  C   UNL     1      97.494  83.934  76.889  1.00  0.00     0.071 C 
ATOM      2  C   UNL     1      96.367  83.909  77.599  1.00  0.00     0.006 C 
ENDROOT
BRANCH   1   3
ATOM      3  C   UNL     1      97.412  84.332  75.470  1.00  0.00     0.246 C 
ATOM      4  O   UNL     1      96.305  84.645  75.030  1.00  0.00    -0.270 OA
ATOM      5  N   UNL     1      98.589  84.322  74.724  1.00  0.00    -0.339 N 
ATOM      6  C   UNL     1      98.538  84.707  73.310  1.00  0.00     0.120 C 
ATOM      7  C   UNL     1      99.918  83.911  75.202  1.00  0.00     0.120 C 
ATOM      8  C   UNL     1      99.556  85.797  72.993  1.00  0.00     0.022 C 
ATOM      9  C   UNL     1     100.969  84.979  74.898  1.00  0.00     0.022 C 
ATOM     10  C   UNL     1     100.958  85.379  73.426  1.00  0.00     0.004 C 
ENDBRANCH   1   3
BRANCH   2  11
ATOM     11  C   UNL     1      96.347  83.532  78.997  1.00  0.00     0.001 C 
ATOM     12  C   UNL     1      97.445  83.134  79.658  1.00  0.00     0.008 C 
BRANCH  12  13
ATOM     13  C   UNL     1      97.478  82.732  81.075  1.00  0.00    -0.022 A 
ATOM     14  C   UNL     1      98.451  81.838  81.500  1.00  0.00     0.058 A 
ATOM     15  C   UNL     1      96.529  83.263  81.952  1.00  0.00     0.012 A 
ATOM     16  C   UNL     1      98.442  81.492  82.836  1.00  0.00     0.166 A 
ATOM     17  C   UNL     1      96.543  82.895  83.299  1.00  0.00     0.051 A 
ATOM     18  O   UNL     1      99.307  80.634  83.444  1.00  0.00    -0.454 OA
ATOM     19  C   UNL     1      97.514  82.006  83.712  1.00  0.00     0.165 A 
ATOM     20  C   UNL     1      98.819  80.667  84.801  1.00  0.00     0.468 C 
ATOM     21  O   UNL     1      97.681  81.536  84.978  1.00  0.00    -0.454 OA
ENDBRANCH  12  13
ENDBRANCH   2  11
TORSDOF 3
ENDMDL
MODEL 3
REMARK VINA RESULT:    -7.516     12.529     14.841
REMARK INTER + INTRA:          -9.172
REMARK INTER:                  -8.864
REMARK INTRA:                  -0.308
REMARK UNBOUND:                -0.338
REMARK SMILES O=C(/C=C/C=C/c1ccc2c(c1)OCO2)N1CCCCC1
REMARK SMILES IDX 3 1 4 2 2 3 1 4 16 5 17 6 21 7 18 8 20 9 19 10 5 11 6 12
REMARK SMILES IDX 7 13 12 14 8 15 11 16 9 17 13 18 10 19 14 20 15 21
REMARK H PARENT
REMARK Flexibility Score: inf
ROOT
ATOM      1  C   UNL     1      92.116  94.552  76.906  1.00  0.00     0.071 C 
ATOM      2  C   UNL     1      93.318  95.123  76.958  1.00  0.00     0.006 C 
ENDROOT
BRANCH   1   3
ATOM      3  C   UNL     1      91.551  94.244  75.577  1.00  0.00     0.246 C 
ATOM      4  O   UNL     1      92.040  94.819  74.603  1.00  0.00    -0.270 OA
ATOM      5  N   UNL     1      90.501  93.330  75.513  1.00  0.00    -0.339 N 
ATOM      6  C   UNL     1      89.915  93.008  74.208  1.00  0.00     0.120 C 
ATOM      7  C   UNL     1      89.863  92.659  76.656  1.00  0.00     0.120 C 
ATOM      8  C   UNL     1      89.885  91.503  73.967  1.00  0.00     0.022 C 
ATOM      9  C   UNL     1      89.810  91.145  76.449  1.00  0.00     0.022 C 
ATOM     10  C   UNL     1      89.178  90.780  75.109  1.00  0.00     0.004 C 
ENDBRANCH   1   3
BRANCH   2  11
ATOM     11  C   UNL     1      93.954  95.462  78.213  1.00  0.00     0.001 C 
ATOM     12  C   UNL     1      95.053  96.231  78.286  1.00  0.00     0.008 C 
BRANCH  12  13
ATOM     13  C   UNL     1      95.744  96.599  79.533  1.00  0.00    -0.022 A 
ATOM     14  C   UNL     1      95.850  97.940  79.876  1.00  0.00     0.058 A 
ATOM     15  C   UNL     1      96.275  95.588  80.338  1.00  0.00     0.012 A 
ATOM     16  C   UNL     1      96.506  98.236  81.053  1.00  0.00     0.166 A 
ATOM     17  C   UNL     1      96.934  95.916  81.525  1.00  0.00     0.051 A 
ATOM     18  O   UNL     1      96.714  99.482  81.560  1.00  0.00    -0.454 OA
ATOM     19  C   UNL     1      97.034  97.251  81.856  1.00  0.00     0.165 A 
ATOM     20  C   UNL     1      97.432  99.171  82.771  1.00  0.00     0.468 C 
ATOM     21  O   UNL     1      97.638  97.756  82.966  1.00  0.00    -0.454 OA
ENDBRANCH  12  13
ENDBRANCH   2  11
TORSDOF 3
ENDMDL
MODEL 4
REMARK VINA RESULT:    -7.419     12.894     14.986
REMARK INTER + INTRA:          -9.057
REMARK INTER:                  -8.674
REMARK INTRA:                  -0.384
REMARK UNBOUND:                -0.338
REMARK SMILES O=C(/C=C/C=C/c1ccc2c(c1)OCO2)N1CCCCC1
REMARK SMILES IDX 3 1 4 2 2 3 1 4 16 5 17 6 21 7 18 8 20 9 19 10 5 11 6 12
REMARK SMILES IDX 7 13 12 14 8 15 11 16 9 17 13 18 10 19 14 20 15 21
REMARK H PARENT
REMARK Flexibility Score: inf
ROOT
ATOM      1  C   UNL     1      93.512  96.238  76.771  1.00  0.00     0.071 C 
ATOM      2  C   UNL     1      94.540  95.723  77.441  1.00  0.00     0.006 C 
ENDROOT
BRANCH   1   3
ATOM      3  C   UNL     1      92.932  95.444  75.670  1.00  0.00     0.246 C 
ATOM      4  O   UNL     1      93.579  95.361  74.625  1.00  0.00    -0.270 OA
ATOM      5  N   UNL     1      91.690  94.847  75.883  1.00  0.00    -0.339 N 
ATOM      6  C   UNL     1      91.086  94.057  74.806  1.00  0.00     0.120 C 
ATOM      7  C   UNL     1      90.868  94.961  77.097  1.00  0.00     0.120 C 
ATOM      8  C   UNL     1      90.692  92.666  75.290  1.00  0.00     0.022 C 
ATOM      9  C   UNL     1      90.448  93.585  77.612  1.00  0.00     0.022 C 
ATOM     10  C   UNL     1      89.790  92.749  76.518  1.00  0.00     0.004 C 
ENDBRANCH   1   3
BRANCH   2  11
ATOM     11  C   UNL     1      95.176  96.425  78.536  1.00  0.00     0.001 C 
ATOM     12  C   UNL     1      95.968  95.812  79.430  1.00  0.00     0.008 C 
BRANCH  12  13
ATOM     13  C   UNL     1      96.631  96.476  80.565  1.00  0.00    -0.022 A 
ATOM     14  C   UNL     1      97.331  95.706  81.483  1.00  0.00     0.058 A 
ATOM     15  C   UNL     1      96.538  97.865  80.686  1.00  0.00     0.012 A 
ATOM     16  C   UNL     1      97.936  96.373  82.529  1.00  0.00     0.166 A 
ATOM     17  C   UNL     1      97.160  98.515  81.754  1.00  0.00     0.051 A 
ATOM     18  O   UNL     1      98.662  95.800  83.527  1.00  0.00    -0.454 OA
ATOM     19  C   UNL     1      97.853  97.740  82.661  1.00  0.00     0.165 A 
ATOM     20  C   UNL     1      99.027  96.960  84.302  1.00  0.00     0.468 C 
ATOM     21  O   UNL     1      98.517  98.195  83.758  1.00  0.00    -0.454 OA
ENDBRANCH  12  13
ENDBRANCH   2  11
TORSDOF 3
ENDMDL
MODEL 5
REMARK VINA RESULT:    -7.360     13.427     16.480
REMARK INTER + INTRA:          -8.988
REMARK INTER:                  -8.605
REMARK INTRA:                  -0.384
REMARK UNBOUND:                -0.338
REMARK SMILES O=C(/C=C/C=C/c1ccc2c(c1)OCO2)N1CCCCC1
REMARK SMILES IDX 3 1 4 2 2 3 1 4 16 5 17 6 21 7 18 8 20 9 19 10 5 11 6 12
REMARK SMILES IDX 7 13 12 14 8 15 11 16 9 17 13 18 10 19 14 20 15 21
REMARK H PARENT
REMARK Flexibility Score: inf
ROOT
ATOM      1  C   UNL     1      94.523  97.632  75.954  1.00  0.00     0.071 C 
ATOM      2  C   UNL     1      93.718  97.334  76.972  1.00  0.00     0.006 C 
ENDROOT
BRANCH   1   3
ATOM      3  C   UNL     1      95.230  98.928  75.984  1.00  0.00     0.246 C 
ATOM      4  O   UNL     1      95.959  99.157  76.949  1.00  0.00    -0.270 OA
ATOM      5  N   UNL     1      95.020  99.807  74.922  1.00  0.00    -0.339 N 
ATOM      6  C   UNL     1      95.704 101.104  74.926  1.00  0.00     0.120 C 
ATOM      7  C   UNL     1      94.124  99.588  73.777  1.00  0.00     0.120 C 
ATOM      8  C   UNL     1      96.467 101.336  73.627  1.00  0.00     0.022 C 
ATOM      9  C   UNL     1      94.853  99.815  72.453  1.00  0.00     0.022 C 
ATOM     10  C   UNL     1      95.551 101.171  72.418  1.00  0.00     0.004 C 
ENDBRANCH   1   3
BRANCH   2  11
ATOM     11  C   UNL     1      92.983  96.088  77.033  1.00  0.00     0.001 C 
ATOM     12  C   UNL     1      92.105  95.716  76.088  1.00  0.00     0.008 C 
BRANCH  12  13
ATOM     13  C   UNL     1      91.326  94.467  76.104  1.00  0.00    -0.022 A 
ATOM     14  C   UNL     1      91.264  93.694  74.952  1.00  0.00     0.058 A 
ATOM     15  C   UNL     1      90.670  94.093  77.279  1.00  0.00     0.012 A 
ATOM     16  C   UNL     1      90.523  92.533  75.017  1.00  0.00     0.166 A 
ATOM     17  C   UNL     1      89.926  92.911  77.317  1.00  0.00     0.051 A 
ATOM     18  O   UNL     1      90.339  91.645  74.000  1.00  0.00    -0.454 OA
ATOM     19  C   UNL     1      89.871  92.151  76.167  1.00  0.00     0.165 A 
ATOM     20  C   UNL     1      89.500  90.663  74.641  1.00  0.00     0.468 C 
ATOM     21  O   UNL     1      89.199  90.978  76.016  1.00  0.00    -0.454 OA
ENDBRANCH  12  13
ENDBRANCH   2  11
TORSDOF 3
ENDMDL
MODEL 6
REMARK VINA RESULT:    -7.350      1.426      2.131
REMARK INTER + INTRA:          -8.977
REMARK INTER:                  -8.610
REMARK INTRA:                  -0.367
REMARK UNBOUND:                -0.338
REMARK SMILES O=C(/C=C/C=C/c1ccc2c(c1)OCO2)N1CCCCC1
REMARK SMILES IDX 3 1 4 2 2 3 1 4 16 5 17 6 21 7 18 8 20 9 19 10 5 11 6 12
REMARK SMILES IDX 7 13 12 14 8 15 11 16 9 17 13 18 10 19 14 20 15 21
REMARK H PARENT
REMARK Flexibility Score: inf
ROOT
ATOM      1  C   UNL     1      95.767  81.696  83.305  1.00  0.00     0.071 C 
ATOM      2  C   UNL     1      96.792  81.158  82.647  1.00  0.00     0.006 C 
ENDROOT
BRANCH   1   3
ATOM      3  C   UNL     1      95.646  81.418  84.750  1.00  0.00     0.246 C 
ATOM      4  O   UNL     1      96.426  80.600  85.239  1.00  0.00    -0.270 OA
ATOM      5  N   UNL     1      94.655  82.093  85.460  1.00  0.00    -0.339 N 
ATOM      6  C   UNL     1      94.506  81.833  86.895  1.00  0.00     0.120 C 
ATOM      7  C   UNL     1      93.677  83.040  84.903  1.00  0.00     0.120 C 
ATOM      8  C   UNL     1      94.529  83.127  87.701  1.00  0.00     0.022 C 
ATOM      9  C   UNL     1      93.668  84.351  85.687  1.00  0.00     0.022 C 
ATOM     10  C   UNL     1      93.486  84.112  87.183  1.00  0.00     0.004 C 
ENDBRANCH   1   3
BRANCH   2  11
ATOM     11  C   UNL     1      96.995  81.373  81.230  1.00  0.00     0.001 C 
ATOM     12  C   UNL     1      97.234  82.586  80.706  1.00  0.00     0.008 C 
BRANCH  12  13
ATOM     13  C   UNL     1      97.440  82.862  79.274  1.00  0.00    -0.022 A 
ATOM     14  C   UNL     1      96.580  83.737  78.625  1.00  0.00     0.058 A 
ATOM     15  C   UNL     1      98.496  82.234  78.608  1.00  0.00     0.012 A 
ATOM     16  C   UNL     1      96.813  83.964  77.284  1.00  0.00     0.166 A 
ATOM     17  C   UNL     1      98.709  82.482  77.250  1.00  0.00     0.051 A 
ATOM     18  O   UNL     1      96.086  84.782  76.474  1.00  0.00    -0.454 OA
ATOM     19  C   UNL     1      97.849  83.353  76.614  1.00  0.00     0.165 A 
ATOM     20  C   UNL     1      96.780  84.617  75.221  1.00  0.00     0.468 C 
ATOM     21  O   UNL     1      97.901  83.712  75.303  1.00  0.00    -0.454 OA
ENDBRANCH  12  13
ENDBRANCH   2  11
TORSDOF 3
ENDMDL
MODEL 7
REMARK VINA RESULT:    -7.086      2.767      9.225
REMARK INTER + INTRA:          -8.666
REMARK INTER:                  -8.320
REMARK INTRA:                  -0.346
REMARK UNBOUND:                -0.338
REMARK SMILES O=C(/C=C/C=C/c1ccc2c(c1)OCO2)N1CCCCC1
REMARK SMILES IDX 3 1 4 2 2 3 1 4 16 5 17 6 21 7 18 8 20 9 19 10 5 11 6 12
REMARK SMILES IDX 7 13 12 14 8 15 11 16 9 17 13 18 10 19 14 20 15 21
REMARK H PARENT
REMARK Flexibility Score: inf
ROOT
ATOM      1  C   UNL     1      97.486  82.723  78.714  1.00  0.00     0.071 C 
ATOM      2  C   UNL     1      97.768  82.196  79.903  1.00  0.00     0.006 C 
ENDROOT
BRANCH   1   3
ATOM      3  C   UNL     1      98.476  82.563  77.630  1.00  0.00     0.246 C 
ATOM      4  O   UNL     1      99.347  81.705  77.778  1.00  0.00    -0.270 OA
ATOM      5  N   UNL     1      98.363  83.395  76.518  1.00  0.00    -0.339 N 
ATOM      6  C   UNL     1      99.335  83.263  75.428  1.00  0.00     0.120 C 
ATOM      7  C   UNL     1      97.366  84.459  76.327  1.00  0.00     0.120 C 
ATOM      8  C   UNL     1      98.642  83.080  74.082  1.00  0.00     0.022 C 
ATOM      9  C   UNL     1      96.650  84.312  74.984  1.00  0.00     0.022 C 
ATOM     10  C   UNL     1      97.639  84.201  73.827  1.00  0.00     0.004 C 
ENDBRANCH   1   3
BRANCH   2  11
ATOM     11  C   UNL     1      96.861  82.301  81.026  1.00  0.00     0.001 C 
ATOM     12  C   UNL     1      96.936  83.291  81.931  1.00  0.00     0.008 C 
BRANCH  12  13
ATOM     13  C   UNL     1      96.046  83.441  83.094  1.00  0.00    -0.022 A 
ATOM     14  C   UNL     1      95.946  84.679  83.713  1.00  0.00     0.058 A 
ATOM     15  C   UNL     1      95.325  82.331  83.544  1.00  0.00     0.012 A 
ATOM     16  C   UNL     1      95.099  84.770  84.799  1.00  0.00     0.166 A 
ATOM     17  C   UNL     1      94.475  82.452  84.645  1.00  0.00     0.051 A 
ATOM     18  O   UNL     1      94.866  85.890  85.537  1.00  0.00    -0.454 OA
ATOM     19  C   UNL     1      94.383  83.686  85.252  1.00  0.00     0.165 A 
ATOM     20  C   UNL     1      93.923  85.388  86.506  1.00  0.00     0.468 C 
ATOM     21  O   UNL     1      93.612  83.991  86.332  1.00  0.00    -0.454 OA
ENDBRANCH  12  13
ENDBRANCH   2  11
TORSDOF 3
ENDMDL
MODEL 8
REMARK VINA RESULT:    -7.073      5.152      9.575
REMARK INTER + INTRA:          -8.652
REMARK INTER:                  -8.313
REMARK INTRA:                  -0.339
REMARK UNBOUND:                -0.338
REMARK SMILES O=C(/C=C/C=C/c1ccc2c(c1)OCO2)N1CCCCC1
REMARK SMILES IDX 3 1 4 2 2 3 1 4 16 5 17 6 21 7 18 8 20 9 19 10 5 11 6 12
REMARK SMILES IDX 7 13 12 14 8 15 11 16 9 17 13 18 10 19 14 20 15 21
REMARK H PARENT
REMARK Flexibility Score: inf
ROOT
ATOM      1  C   UNL     1      94.786  81.683  85.363  1.00  0.00     0.071 C 
ATOM      2  C   UNL     1      93.816  81.030  84.725  1.00  0.00     0.006 C 
ENDROOT
BRANCH   1   3
ATOM      3  C   UNL     1      96.174  81.215  85.182  1.00  0.00     0.246 C 
ATOM      4  O   UNL     1      96.579  80.328  85.934  1.00  0.00    -0.270 OA
ATOM      5  N   UNL     1      96.934  81.811  84.177  1.00  0.00    -0.339 N 
ATOM      6  C   UNL     1      98.319  81.371  83.976  1.00  0.00     0.120 C 
ATOM      7  C   UNL     1      96.501  82.902  83.290  1.00  0.00     0.120 C 
ATOM      8  C   UNL     1      98.575  80.984  82.524  1.00  0.00     0.022 C 
ATOM      9  C   UNL     1      96.746  82.552  81.822  1.00  0.00     0.022 C 
ATOM     10  C   UNL     1      98.188  82.117  81.579  1.00  0.00     0.004 C 
ENDBRANCH   1   3
BRANCH   2  11
ATOM     11  C   UNL     1      92.425  81.414  84.841  1.00  0.00     0.001 C 
ATOM     12  C   UNL     1      91.450  80.832  84.125  1.00  0.00     0.008 C 
BRANCH  12  13
ATOM     13  C   UNL     1      90.022  81.188  84.197  1.00  0.00    -0.022 A 
ATOM     14  C   UNL     1      89.652  82.374  84.816  1.00  0.00     0.058 A 
ATOM     15  C   UNL     1      89.079  80.320  83.641  1.00  0.00     0.012 A 
ATOM     16  C   UNL     1      88.304  82.664  84.859  1.00  0.00     0.166 A 
ATOM     17  C   UNL     1      87.720  80.639  83.698  1.00  0.00     0.051 A 
ATOM     18  O   UNL     1      87.743  83.771  85.419  1.00  0.00    -0.454 OA
ATOM     19  C   UNL     1      87.363  81.820  84.315  1.00  0.00     0.165 A 
ATOM     20  C   UNL     1      86.344  83.528  85.166  1.00  0.00     0.468 C 
ATOM     21  O   UNL     1      86.096  82.292  84.466  1.00  0.00    -0.454 OA
ENDBRANCH  12  13
ENDBRANCH   2  11
TORSDOF 3
ENDMDL
MODEL 9
REMARK VINA RESULT:    -6.796     17.731     18.485
REMARK INTER + INTRA:          -8.326
REMARK INTER:                  -7.987
REMARK INTRA:                  -0.339
REMARK UNBOUND:                -0.338
REMARK SMILES O=C(/C=C/C=C/c1ccc2c(c1)OCO2)N1CCCCC1
REMARK SMILES IDX 3 1 4 2 2 3 1 4 16 5 17 6 21 7 18 8 20 9 19 10 5 11 6 12
REMARK SMILES IDX 7 13 12 14 8 15 11 16 9 17 13 18 10 19 14 20 15 21
REMARK H PARENT
REMARK Flexibility Score: inf
ROOT
ATOM      1  C   UNL     1      86.799  70.044  71.677  1.00  0.00     0.071 C 
ATOM      2  C   UNL     1      87.912  70.323  71.000  1.00  0.00     0.006 C 
ENDROOT
BRANCH   1   3
ATOM      3  C   UNL     1      86.933  69.390  72.994  1.00  0.00     0.246 C 
ATOM      4  O   UNL     1      87.836  69.781  73.735  1.00  0.00    -0.270 OA
ATOM      5  N   UNL     1      86.033  68.373  73.309  1.00  0.00    -0.339 N 
ATOM      6  C   UNL     1      86.145  67.701  74.607  1.00  0.00     0.120 C 
ATOM      7  C   UNL     1      84.973  67.849  72.435  1.00  0.00     0.120 C 
ATOM      8  C   UNL     1      84.815  67.708  75.354  1.00  0.00     0.022 C 
ATOM      9  C   UNL     1      83.622  67.836  73.150  1.00  0.00     0.022 C 
ATOM     10  C   UNL     1      83.702  67.118  74.494  1.00  0.00     0.004 C 
ENDBRANCH   1   3
BRANCH   2  11
ATOM     11  C   UNL     1      87.883  70.962  69.702  1.00  0.00     0.001 C 
ATOM     12  C   UNL     1      88.727  71.948  69.358  1.00  0.00     0.008 C 
BRANCH  12  13
ATOM     13  C   UNL     1      88.736  72.637  68.057  1.00  0.00    -0.022 A 
ATOM     14  C   UNL     1      89.901  73.259  67.630  1.00  0.00     0.058 A 
ATOM     15  C   UNL     1      87.570  72.646  67.287  1.00  0.00     0.012 A 
ATOM     16  C   UNL     1      89.860  73.891  66.404  1.00  0.00     0.166 A 
ATOM     17  C   UNL     1      87.556  73.293  66.050  1.00  0.00     0.051 A 
ATOM     18  O   UNL     1      90.892  74.555  65.813  1.00  0.00    -0.454 OA
ATOM     19  C   UNL     1      88.719  73.908  65.634  1.00  0.00     0.165 A 
ATOM     20  C   UNL     1      90.271  74.991  64.586  1.00  0.00     0.468 C 
ATOM     21  O   UNL     1      88.893  74.584  64.466  1.00  0.00    -0.454 OA
ENDBRANCH  12  13
ENDBRANCH   2  11
TORSDOF 3
ENDMDL
MODEL 10
REMARK VINA RESULT:    -6.743      1.845      2.867
REMARK INTER + INTRA:          -8.263
REMARK INTER:                  -7.930
REMARK INTRA:                  -0.333
REMARK UNBOUND:                -0.338
REMARK SMILES O=C(/C=C/C=C/c1ccc2c(c1)OCO2)N1CCCCC1
REMARK SMILES IDX 3 1 4 2 2 3 1 4 16 5 17 6 21 7 18 8 20 9 19 10 5 11 6 12
REMARK SMILES IDX 7 13 12 14 8 15 11 16 9 17 13 18 10 19 14 20 15 21
REMARK H PARENT
REMARK Flexibility Score: inf
ROOT
ATOM      1  C   UNL     1      96.267  82.507  83.275  1.00  0.00     0.071 C 
ATOM      2  C   UNL     1      96.807  81.882  82.230  1.00  0.00     0.006 C 
ENDROOT
BRANCH   1   3
ATOM      3  C   UNL     1      96.103  81.748  84.530  1.00  0.00     0.246 C 
ATOM      4  O   UNL     1      95.485  80.684  84.474  1.00  0.00    -0.270 OA
ATOM      5  N   UNL     1      96.651  82.287  85.693  1.00  0.00    -0.339 N 
ATOM      6  C   UNL     1      96.499  81.558  86.955  1.00  0.00     0.120 C 
ATOM      7  C   UNL     1      97.354  83.574  85.806  1.00  0.00     0.120 C 
ATOM      8  C   UNL     1      97.844  81.348  87.643  1.00  0.00     0.022 C 
ATOM      9  C   UNL     1      98.708  83.405  86.495  1.00  0.00     0.022 C 
ATOM     10  C   UNL     1      98.576  82.674  87.828  1.00  0.00     0.004 C 
ENDBRANCH   1   3
BRANCH   2  11
ATOM     11  C   UNL     1      97.009  82.543  80.958  1.00  0.00     0.001 C 
ATOM     12  C   UNL     1      97.413  81.890  79.856  1.00  0.00     0.008 C 
BRANCH  12  13
ATOM     13  C   UNL     1      97.641  82.512  78.542  1.00  0.00    -0.022 A 
ATOM     14  C   UNL     1      96.702  83.407  78.046  1.00  0.00     0.058 A 
ATOM     15  C   UNL     1      98.797  82.185  77.828  1.00  0.00     0.012 A 
ATOM     16  C   UNL     1      96.960  83.965  76.811  1.00  0.00     0.166 A 
ATOM     17  C   UNL     1      99.033  82.765  76.580  1.00  0.00     0.051 A 
ATOM     18  O   UNL     1      96.167  84.858  76.157  1.00  0.00    -0.454 OA
ATOM     19  C   UNL     1      98.094  83.653  76.097  1.00  0.00     0.165 A 
ATOM     20  C   UNL     1      96.930  85.071  74.951  1.00  0.00     0.468 C 
ATOM     21  O   UNL     1      98.154  84.310  74.907  1.00  0.00    -0.454 OA
ENDBRANCH  12  13
ENDBRANCH   2  11
TORSDOF 3
ENDMDL
