MODEL 1
REMARK VINA RESULT:    -6.305      0.000      0.000
REMARK INTER + INTRA:         -10.645
REMARK INTER:                  -9.806
REMARK INTRA:                  -0.839
REMARK UNBOUND:                -0.839
REMARK SMILES COc1cc(CNC(=O)CCCC/C=C/C(C)C)ccc1O
REMARK SMILES IDX 10 1 8 2 7 3 9 5 6 6 5 7 3 8 21 9 4 10 20 11 19 12 2 13 1 14
REMARK SMILES IDX 22 15 11 17 12 18 13 19 14 20 15 21 16 22 17 23 18 24
REMARK H PARENT 7 4 22 16
REMARK Flexibility Score: inf
ROOT
ATOM      1  C   UNL     1      92.707 100.368  74.787  1.00  0.00     0.100 C 
ENDROOT
BRANCH   1   2
ATOM      2  C   UNL     1      93.640  99.377  75.357  1.00  0.00     0.220 C 
ATOM      3  N   UNL     1      93.496  98.052  75.077  1.00  0.00    -0.352 N 
ATOM      4  H   UNL     1      92.708  97.823  74.486  1.00  0.00     0.163 HD
ATOM      5  O   UNL     1      94.575  99.793  76.083  1.00  0.00    -0.275 OA
BRANCH   3   6
ATOM      6  C   UNL     1      94.361  97.019  75.551  1.00  0.00     0.151 C 
BRANCH   6   7
ATOM      7  C   UNL     1      93.678  96.146  76.544  1.00  0.00    -0.025 A 
ATOM      8  C   UNL     1      91.609  95.385  77.641  1.00  0.00     0.160 A 
ATOM      9  C   UNL     1      92.355  94.476  78.419  1.00  0.00     0.157 A 
ATOM     10  C   UNL     1      92.276  96.212  76.714  1.00  0.00     0.056 A 
ATOM     11  C   UNL     1      93.756  94.413  78.275  1.00  0.00     0.050 A 
ATOM     12  C   UNL     1      94.412  95.234  77.338  1.00  0.00     0.009 A 
BRANCH   8  13
ATOM     13  O   UNL     1      90.254  95.496  77.824  1.00  0.00    -0.493 OA
ATOM     14  C   UNL     1      89.470  94.770  76.860  1.00  0.00     0.278 C 
ENDBRANCH   8  13
BRANCH   9  15
ATOM     15  O   UNL     1      91.742  93.656  79.311  1.00  0.00    -0.504 OA
ATOM     16  H   UNL     1      90.928  93.319  78.930  1.00  0.00     0.293 HD
ENDBRANCH   9  15
ENDBRANCH   6   7
ENDBRANCH   3   6
ENDBRANCH   1   2
BRANCH   1  17
ATOM     17  C   UNL     1      92.244  99.965  73.361  1.00  0.00     0.010 C 
BRANCH  17  18
ATOM     18  C   UNL     1      91.809 101.183  72.499  1.00  0.00     0.005 C 
BRANCH  18  19
ATOM     19  C   UNL     1      91.830 100.869  70.979  1.00  0.00     0.027 C 
BRANCH  19  20
ATOM     20  C   UNL     1      91.014  99.710  70.648  1.00  0.00    -0.031 C 
ATOM     21  C   UNL     1      89.674  99.674  70.754  1.00  0.00    -0.028 C 
BRANCH  21  22
ATOM     22  C   UNL     1      88.872  98.504  70.398  1.00  0.00     0.005 C 
ATOM     23  C   UNL     1      88.480  98.494  68.894  1.00  0.00     0.012 C 
ATOM     24  C   UNL     1      89.623  97.202  70.782  1.00  0.00     0.012 C 
ENDBRANCH  21  22
ENDBRANCH  19  20
ENDBRANCH  18  19
ENDBRANCH  17  18
ENDBRANCH   1  17
TORSDOF 10
ENDMDL
MODEL 2
REMARK VINA RESULT:    -6.288      4.443      6.366
REMARK INTER + INTRA:         -10.619
REMARK INTER:                  -9.656
REMARK INTRA:                  -0.963
REMARK UNBOUND:                -0.839
REMARK SMILES COc1cc(CNC(=O)CCCC/C=C/C(C)C)ccc1O
REMARK SMILES IDX 10 1 8 2 7 3 9 5 6 6 5 7 3 8 21 9 4 10 20 11 19 12 2 13 1 14
REMARK SMILES IDX 22 15 11 17 12 18 13 19 14 20 15 21 16 22 17 23 18 24
REMARK H PARENT 7 4 22 16
REMARK Flexibility Score: inf
ROOT
ATOM      1  C   UNL     1      94.169  97.860  75.602  1.00  0.00     0.100 C 
ENDROOT
BRANCH   1   2
ATOM      2  C   UNL     1      95.330  97.969  76.506  1.00  0.00     0.220 C 
ATOM      3  N   UNL     1      95.153  98.249  77.828  1.00  0.00    -0.352 N 
ATOM      4  H   UNL     1      94.192  98.393  78.108  1.00  0.00     0.163 HD
ATOM      5  O   UNL     1      96.474  97.774  76.028  1.00  0.00    -0.275 OA
BRANCH   3   6
ATOM      6  C   UNL     1      96.204  98.344  78.789  1.00  0.00     0.151 C 
BRANCH   6   7
ATOM      7  C   UNL     1      95.855  97.638  80.052  1.00  0.00    -0.025 A 
ATOM      8  C   UNL     1      95.724  95.557  81.362  1.00  0.00     0.160 A 
ATOM      9  C   UNL     1      95.213  96.279  82.460  1.00  0.00     0.157 A 
ATOM     10  C   UNL     1      96.038  96.242  80.169  1.00  0.00     0.056 A 
ATOM     11  C   UNL     1      95.007  97.669  82.352  1.00  0.00     0.050 A 
ATOM     12  C   UNL     1      95.334  98.346  81.161  1.00  0.00     0.009 A 
BRANCH   8  13
ATOM     13  O   UNL     1      95.865  94.195  81.440  1.00  0.00    -0.493 OA
ATOM     14  C   UNL     1      94.771  93.458  80.863  1.00  0.00     0.278 C 
ENDBRANCH   8  13
BRANCH   9  15
ATOM     15  O   UNL     1      94.913  95.652  83.627  1.00  0.00    -0.504 OA
ATOM     16  H   UNL     1      95.564  95.886  84.293  1.00  0.00     0.293 HD
ENDBRANCH   9  15
ENDBRANCH   6   7
ENDBRANCH   3   6
ENDBRANCH   1   2
BRANCH   1  17
ATOM     17  C   UNL     1      93.414  96.518  75.798  1.00  0.00     0.010 C 
BRANCH  17  18
ATOM     18  C   UNL     1      94.264  95.449  76.541  1.00  0.00     0.005 C 
BRANCH  18  19
ATOM     19  C   UNL     1      93.605  94.990  77.870  1.00  0.00     0.027 C 
BRANCH  19  20
ATOM     20  C   UNL     1      92.155  94.921  77.766  1.00  0.00    -0.031 C 
ATOM     21  C   UNL     1      91.472  93.809  77.442  1.00  0.00    -0.028 C 
BRANCH  21  22
ATOM     22  C   UNL     1      90.012  93.758  77.363  1.00  0.00     0.005 C 
ATOM     23  C   UNL     1      89.385  92.968  78.545  1.00  0.00     0.012 C 
ATOM     24  C   UNL     1      89.429  95.193  77.285  1.00  0.00     0.012 C 
ENDBRANCH  21  22
ENDBRANCH  19  20
ENDBRANCH  18  19
ENDBRANCH  17  18
ENDBRANCH   1  17
TORSDOF 10
ENDMDL
MODEL 3
REMARK VINA RESULT:    -6.219     19.913     22.823
REMARK INTER + INTRA:         -10.513
REMARK INTER:                  -9.675
REMARK INTRA:                  -0.838
REMARK UNBOUND:                -0.839
REMARK SMILES COc1cc(CNC(=O)CCCC/C=C/C(C)C)ccc1O
REMARK SMILES IDX 10 1 8 2 7 3 9 5 6 6 5 7 3 8 21 9 4 10 20 11 19 12 2 13 1 14
REMARK SMILES IDX 22 15 11 17 12 18 13 19 14 20 15 21 16 22 17 23 18 24
REMARK H PARENT 7 4 22 16
REMARK Flexibility Score: inf
ROOT
ATOM      1  C   UNL     1      78.238  85.091  68.662  1.00  0.00     0.100 C 
ENDROOT
BRANCH   1   2
ATOM      2  C   UNL     1      78.061  84.348  67.399  1.00  0.00     0.220 C 
ATOM      3  N   UNL     1      77.214  84.811  66.437  1.00  0.00    -0.352 N 
ATOM      4  H   UNL     1      76.723  85.661  66.675  1.00  0.00     0.163 HD
ATOM      5  O   UNL     1      78.727  83.298  67.231  1.00  0.00    -0.275 OA
BRANCH   3   6
ATOM      6  C   UNL     1      76.996  84.185  65.172  1.00  0.00     0.151 C 
BRANCH   6   7
ATOM      7  C   UNL     1      75.908  83.173  65.243  1.00  0.00    -0.025 A 
ATOM      8  C   UNL     1      73.651  82.522  65.982  1.00  0.00     0.160 A 
ATOM      9  C   UNL     1      73.814  81.261  65.370  1.00  0.00     0.157 A 
ATOM     10  C   UNL     1      74.699  83.464  65.914  1.00  0.00     0.056 A 
ATOM     11  C   UNL     1      75.021  80.950  64.714  1.00  0.00     0.050 A 
ATOM     12  C   UNL     1      76.057  81.901  64.642  1.00  0.00     0.009 A 
BRANCH   8  13
ATOM     13  O   UNL     1      72.504  82.805  66.678  1.00  0.00    -0.493 OA
ATOM     14  C   UNL     1      71.478  83.435  65.888  1.00  0.00     0.278 C 
ENDBRANCH   8  13
BRANCH   9  15
ATOM     15  O   UNL     1      72.819  80.337  65.405  1.00  0.00    -0.504 OA
ATOM     16  H   UNL     1      73.183  79.485  65.657  1.00  0.00     0.293 HD
ENDBRANCH   9  15
ENDBRANCH   6   7
ENDBRANCH   3   6
ENDBRANCH   1   2
BRANCH   1  17
ATOM     17  C   UNL     1      77.343  84.518  69.793  1.00  0.00     0.010 C 
BRANCH  17  18
ATOM     18  C   UNL     1      76.145  85.444  70.145  1.00  0.00     0.005 C 
BRANCH  18  19
ATOM     19  C   UNL     1      76.422  86.929  69.788  1.00  0.00     0.027 C 
BRANCH  19  20
ATOM     20  C   UNL     1      75.505  87.835  70.463  1.00  0.00    -0.031 C 
ATOM     21  C   UNL     1      75.648  89.172  70.493  1.00  0.00    -0.028 C 
BRANCH  21  22
ATOM     22  C   UNL     1      74.703  90.065  71.163  1.00  0.00     0.005 C 
ATOM     23  C   UNL     1      74.141  91.152  70.205  1.00  0.00     0.012 C 
ATOM     24  C   UNL     1      73.554  89.246  71.805  1.00  0.00     0.012 C 
ENDBRANCH  21  22
ENDBRANCH  19  20
ENDBRANCH  18  19
ENDBRANCH  17  18
ENDBRANCH   1  17
TORSDOF 10
ENDMDL
MODEL 4
REMARK VINA RESULT:    -5.974     21.042     24.079
REMARK INTER + INTRA:         -10.131
REMARK INTER:                  -9.299
REMARK INTRA:                  -0.831
REMARK UNBOUND:                -0.839
REMARK SMILES COc1cc(CNC(=O)CCCC/C=C/C(C)C)ccc1O
REMARK SMILES IDX 10 1 8 2 7 3 9 5 6 6 5 7 3 8 21 9 4 10 20 11 19 12 2 13 1 14
REMARK SMILES IDX 22 15 11 17 12 18 13 19 14 20 15 21 16 22 17 23 18 24
REMARK H PARENT 7 4 22 16
REMARK Flexibility Score: inf
ROOT
ATOM      1  C   UNL     1      77.818  83.975  67.206  1.00  0.00     0.100 C 
ENDROOT
BRANCH   1   2
ATOM      2  C   UNL     1      77.524  83.254  65.953  1.00  0.00     0.220 C 
ATOM      3  N   UNL     1      76.813  82.092  65.975  1.00  0.00    -0.352 N 
ATOM      4  H   UNL     1      76.542  81.775  66.896  1.00  0.00     0.163 HD
ATOM      5  O   UNL     1      77.924  83.753  64.874  1.00  0.00    -0.275 OA
BRANCH   3   6
ATOM      6  C   UNL     1      76.449  81.336  64.819  1.00  0.00     0.151 C 
BRANCH   6   7
ATOM      7  C   UNL     1      75.002  81.483  64.504  1.00  0.00    -0.025 A 
ATOM      8  C   UNL     1      72.794  82.436  65.033  1.00  0.00     0.160 A 
ATOM      9  C   UNL     1      72.244  81.789  63.907  1.00  0.00     0.157 A 
ATOM     10  C   UNL     1      74.165  82.275  65.322  1.00  0.00     0.056 A 
ATOM     11  C   UNL     1      73.062  80.980  63.093  1.00  0.00     0.050 A 
ATOM     12  C   UNL     1      74.432  80.835  63.383  1.00  0.00     0.009 A 
BRANCH   8  13
ATOM     13  O   UNL     1      71.988  83.171  65.865  1.00  0.00    -0.493 OA
ATOM     14  C   UNL     1      71.223  82.378  66.792  1.00  0.00     0.278 C 
ENDBRANCH   8  13
BRANCH   9  15
ATOM     15  O   UNL     1      70.931  81.933  63.593  1.00  0.00    -0.504 OA
ATOM     16  H   UNL     1      70.785  82.803  63.214  1.00  0.00     0.293 HD
ENDBRANCH   9  15
ENDBRANCH   6   7
ENDBRANCH   3   6
ENDBRANCH   1   2
BRANCH   1  17
ATOM     17  C   UNL     1      76.625  83.912  68.198  1.00  0.00     0.010 C 
BRANCH  17  18
ATOM     18  C   UNL     1      77.040  84.218  69.664  1.00  0.00     0.005 C 
BRANCH  18  19
ATOM     19  C   UNL     1      75.833  84.643  70.543  1.00  0.00     0.027 C 
BRANCH  19  20
ATOM     20  C   UNL     1      75.476  86.039  70.344  1.00  0.00    -0.031 C 
ATOM     21  C   UNL     1      76.360  87.014  70.067  1.00  0.00    -0.028 C 
BRANCH  21  22
ATOM     22  C   UNL     1      75.976  88.408  69.851  1.00  0.00     0.005 C 
ATOM     23  C   UNL     1      75.401  88.647  68.427  1.00  0.00     0.012 C 
ATOM     24  C   UNL     1      74.967  88.861  70.938  1.00  0.00     0.012 C 
ENDBRANCH  21  22
ENDBRANCH  19  20
ENDBRANCH  18  19
ENDBRANCH  17  18
ENDBRANCH   1  17
TORSDOF 10
ENDMDL
MODEL 5
REMARK VINA RESULT:    -5.972     21.847     24.878
REMARK INTER + INTRA:         -10.128
REMARK INTER:                  -9.201
REMARK INTRA:                  -0.927
REMARK UNBOUND:                -0.839
REMARK SMILES COc1cc(CNC(=O)CCCC/C=C/C(C)C)ccc1O
REMARK SMILES IDX 10 1 8 2 7 3 9 5 6 6 5 7 3 8 21 9 4 10 20 11 19 12 2 13 1 14
REMARK SMILES IDX 22 15 11 17 12 18 13 19 14 20 15 21 16 22 17 23 18 24
REMARK H PARENT 7 4 22 16
REMARK Flexibility Score: inf
ROOT
ATOM      1  C   UNL     1      74.506  81.154  64.928  1.00  0.00     0.100 C 
ENDROOT
BRANCH   1   2
ATOM      2  C   UNL     1      73.066  81.284  65.221  1.00  0.00     0.220 C 
ATOM      3  N   UNL     1      72.525  82.502  65.505  1.00  0.00    -0.352 N 
ATOM      4  H   UNL     1      73.184  83.268  65.519  1.00  0.00     0.163 HD
ATOM      5  O   UNL     1      72.357  80.250  65.176  1.00  0.00    -0.275 OA
BRANCH   3   6
ATOM      6  C   UNL     1      71.142  82.739  65.769  1.00  0.00     0.151 C 
BRANCH   6   7
ATOM      7  C   UNL     1      70.923  83.185  67.172  1.00  0.00    -0.025 A 
ATOM      8  C   UNL     1      71.546  84.624  69.070  1.00  0.00     0.160 A 
ATOM      9  C   UNL     1      70.506  84.063  69.839  1.00  0.00     0.157 A 
ATOM     10  C   UNL     1      71.746  84.179  67.747  1.00  0.00     0.056 A 
ATOM     11  C   UNL     1      69.689  83.057  69.286  1.00  0.00     0.050 A 
ATOM     12  C   UNL     1      69.888  82.628  67.960  1.00  0.00     0.009 A 
BRANCH   8  13
ATOM     13  O   UNL     1      72.386  85.556  69.626  1.00  0.00    -0.493 OA
ATOM     14  C   UNL     1      73.726  85.526  69.100  1.00  0.00     0.278 C 
ENDBRANCH   8  13
BRANCH   9  15
ATOM     15  O   UNL     1      70.278  84.478  71.112  1.00  0.00    -0.504 OA
ATOM     16  H   UNL     1      70.860  84.007  71.712  1.00  0.00     0.293 HD
ENDBRANCH   9  15
ENDBRANCH   6   7
ENDBRANCH   3   6
ENDBRANCH   1   2
BRANCH   1  17
ATOM     17  C   UNL     1      75.378  81.588  66.138  1.00  0.00     0.010 C 
BRANCH  17  18
ATOM     18  C   UNL     1      76.879  81.760  65.771  1.00  0.00     0.005 C 
BRANCH  18  19
ATOM     19  C   UNL     1      77.351  83.234  65.895  1.00  0.00     0.027 C 
BRANCH  19  20
ATOM     20  C   UNL     1      77.517  83.641  67.282  1.00  0.00    -0.031 C 
ATOM     21  C   UNL     1      77.826  84.892  67.671  1.00  0.00    -0.028 C 
BRANCH  21  22
ATOM     22  C   UNL     1      77.968  85.284  69.073  1.00  0.00     0.005 C 
ATOM     23  C   UNL     1      77.626  86.781  69.304  1.00  0.00     0.012 C 
ATOM     24  C   UNL     1      77.098  84.371  69.976  1.00  0.00     0.012 C 
ENDBRANCH  21  22
ENDBRANCH  19  20
ENDBRANCH  18  19
ENDBRANCH  17  18
ENDBRANCH   1  17
TORSDOF 10
ENDMDL
MODEL 6
REMARK VINA RESULT:    -5.904     20.658     23.539
REMARK INTER + INTRA:         -10.022
REMARK INTER:                  -9.236
REMARK INTRA:                  -0.786
REMARK UNBOUND:                -0.839
REMARK SMILES COc1cc(CNC(=O)CCCC/C=C/C(C)C)ccc1O
REMARK SMILES IDX 10 1 8 2 7 3 9 5 6 6 5 7 3 8 21 9 4 10 20 11 19 12 2 13 1 14
REMARK SMILES IDX 22 15 11 17 12 18 13 19 14 20 15 21 16 22 17 23 18 24
REMARK H PARENT 7 4 22 16
REMARK Flexibility Score: inf
ROOT
ATOM      1  C   UNL     1      77.418  84.682  68.463  1.00  0.00     0.100 C 
ENDROOT
BRANCH   1   2
ATOM      2  C   UNL     1      77.708  83.689  67.410  1.00  0.00     0.220 C 
ATOM      3  N   UNL     1      76.693  83.084  66.732  1.00  0.00    -0.352 N 
ATOM      4  H   UNL     1      75.764  83.352  67.026  1.00  0.00     0.163 HD
ATOM      5  O   UNL     1      78.909  83.440  67.146  1.00  0.00    -0.275 OA
BRANCH   3   6
ATOM      6  C   UNL     1      76.868  82.136  65.678  1.00  0.00     0.151 C 
BRANCH   6   7
ATOM      7  C   UNL     1      75.561  81.667  65.143  1.00  0.00    -0.025 A 
ATOM      8  C   UNL     1      73.117  81.471  65.363  1.00  0.00     0.160 A 
ATOM      9  C   UNL     1      73.058  80.795  64.127  1.00  0.00     0.157 A 
ATOM     10  C   UNL     1      74.366  81.898  65.860  1.00  0.00     0.056 A 
ATOM     11  C   UNL     1      74.244  80.540  63.410  1.00  0.00     0.050 A 
ATOM     12  C   UNL     1      75.485  80.981  63.908  1.00  0.00     0.009 A 
BRANCH   8  13
ATOM     13  O   UNL     1      71.974  81.664  66.097  1.00  0.00    -0.493 OA
ATOM     14  C   UNL     1      71.906  82.943  66.754  1.00  0.00     0.278 C 
ENDBRANCH   8  13
BRANCH   9  15
ATOM     15  O   UNL     1      71.870  80.383  63.614  1.00  0.00    -0.504 OA
ATOM     16  H   UNL     1      72.028  79.822  62.851  1.00  0.00     0.293 HD
ENDBRANCH   9  15
ENDBRANCH   6   7
ENDBRANCH   3   6
ENDBRANCH   1   2
BRANCH   1  17
ATOM     17  C   UNL     1      78.038  86.066  68.131  1.00  0.00     0.010 C 
BRANCH  17  18
ATOM     18  C   UNL     1      77.597  86.609  66.743  1.00  0.00     0.005 C 
BRANCH  18  19
ATOM     19  C   UNL     1      76.674  87.852  66.861  1.00  0.00     0.027 C 
BRANCH  19  20
ATOM     20  C   UNL     1      76.138  88.010  68.204  1.00  0.00    -0.031 C 
ATOM     21  C   UNL     1      74.996  87.443  68.633  1.00  0.00    -0.028 C 
BRANCH  21  22
ATOM     22  C   UNL     1      74.485  87.600  69.995  1.00  0.00     0.005 C 
ATOM     23  C   UNL     1      75.240  88.705  70.784  1.00  0.00     0.012 C 
ATOM     24  C   UNL     1      72.961  87.884  69.967  1.00  0.00     0.012 C 
ENDBRANCH  21  22
ENDBRANCH  19  20
ENDBRANCH  18  19
ENDBRANCH  17  18
ENDBRANCH   1  17
TORSDOF 10
ENDMDL
MODEL 7
REMARK VINA RESULT:    -5.786     15.946     19.039
REMARK INTER + INTRA:          -9.839
REMARK INTER:                  -9.030
REMARK INTRA:                  -0.809
REMARK UNBOUND:                -0.839
REMARK SMILES COc1cc(CNC(=O)CCCC/C=C/C(C)C)ccc1O
REMARK SMILES IDX 10 1 8 2 7 3 9 5 6 6 5 7 3 8 21 9 4 10 20 11 19 12 2 13 1 14
REMARK SMILES IDX 22 15 11 17 12 18 13 19 14 20 15 21 16 22 17 23 18 24
REMARK H PARENT 7 4 22 16
REMARK Flexibility Score: inf
ROOT
ATOM      1  C   UNL     1      97.826  82.075  84.294  1.00  0.00     0.100 C 
ENDROOT
BRANCH   1   2
ATOM      2  C   UNL     1      98.618  81.759  83.090  1.00  0.00     0.220 C 
ATOM      3  N   UNL     1      99.206  82.754  82.368  1.00  0.00    -0.352 N 
ATOM      4  H   UNL     1      99.032  83.689  82.710  1.00  0.00     0.163 HD
ATOM      5  O   UNL     1      98.752  80.553  82.768  1.00  0.00    -0.275 OA
BRANCH   3   6
ATOM      6  C   UNL     1     100.016  82.551  81.209  1.00  0.00     0.151 C 
BRANCH   6   7
ATOM      7  C   UNL     1      99.305  82.959  79.967  1.00  0.00    -0.025 A 
ATOM      8  C   UNL     1      99.301  83.286  77.527  1.00  0.00     0.160 A 
ATOM      9  C   UNL     1      97.959  83.715  77.585  1.00  0.00     0.157 A 
ATOM     10  C   UNL     1      99.962  82.915  78.716  1.00  0.00     0.056 A 
ATOM     11  C   UNL     1      97.297  83.782  78.828  1.00  0.00     0.050 A 
ATOM     12  C   UNL     1      97.961  83.399  80.009  1.00  0.00     0.009 A 
BRANCH   8  13
ATOM     13  O   UNL     1      99.970  83.282  76.329  1.00  0.00    -0.493 OA
ATOM     14  C   UNL     1     101.119  84.148  76.294  1.00  0.00     0.278 C 
ENDBRANCH   8  13
BRANCH   9  15
ATOM     15  O   UNL     1      97.290  84.067  76.457  1.00  0.00    -0.504 OA
ATOM     16  H   UNL     1      96.991  84.976  76.532  1.00  0.00     0.293 HD
ENDBRANCH   9  15
ENDBRANCH   6   7
ENDBRANCH   3   6
ENDBRANCH   1   2
BRANCH   1  17
ATOM     17  C   UNL     1      98.591  83.031  85.248  1.00  0.00     0.010 C 
BRANCH  17  18
ATOM     18  C   UNL     1      97.675  83.665  86.332  1.00  0.00     0.005 C 
BRANCH  18  19
ATOM     19  C   UNL     1      96.291  84.082  85.765  1.00  0.00     0.027 C 
BRANCH  19  20
ATOM     20  C   UNL     1      95.192  83.512  86.530  1.00  0.00    -0.031 C 
ATOM     21  C   UNL     1      94.784  82.234  86.431  1.00  0.00    -0.028 C 
BRANCH  21  22
ATOM     22  C   UNL     1      93.689  81.677  87.224  1.00  0.00     0.005 C 
ATOM     23  C   UNL     1      93.478  82.445  88.558  1.00  0.00     0.012 C 
ATOM     24  C   UNL     1      92.383  81.648  86.390  1.00  0.00     0.012 C 
ENDBRANCH  21  22
ENDBRANCH  19  20
ENDBRANCH  18  19
ENDBRANCH  17  18
ENDBRANCH   1  17
TORSDOF 10
ENDMDL
MODEL 8
REMARK VINA RESULT:    -5.732     31.537     32.928
REMARK INTER + INTRA:          -9.754
REMARK INTER:                  -8.395
REMARK INTRA:                  -1.359
REMARK UNBOUND:                -0.839
REMARK SMILES COc1cc(CNC(=O)CCCC/C=C/C(C)C)ccc1O
REMARK SMILES IDX 10 1 8 2 7 3 9 5 6 6 5 7 3 8 21 9 4 10 20 11 19 12 2 13 1 14
REMARK SMILES IDX 22 15 11 17 12 18 13 19 14 20 15 21 16 22 17 23 18 24
REMARK H PARENT 7 4 22 16
REMARK Flexibility Score: inf
ROOT
ATOM      1  C   UNL     1      63.879  83.475  67.658  1.00  0.00     0.100 C 
ENDROOT
BRANCH   1   2
ATOM      2  C   UNL     1      64.087  82.437  68.685  1.00  0.00     0.220 C 
ATOM      3  N   UNL     1      64.674  82.749  69.875  1.00  0.00    -0.352 N 
ATOM      4  H   UNL     1      64.963  83.713  69.968  1.00  0.00     0.163 HD
ATOM      5  O   UNL     1      63.687  81.273  68.440  1.00  0.00    -0.275 OA
BRANCH   3   6
ATOM      6  C   UNL     1      64.891  81.827  70.943  1.00  0.00     0.151 C 
BRANCH   6   7
ATOM      7  C   UNL     1      64.006  82.117  72.104  1.00  0.00    -0.025 A 
ATOM      8  C   UNL     1      62.592  83.693  73.361  1.00  0.00     0.160 A 
ATOM      9  C   UNL     1      62.299  82.682  74.300  1.00  0.00     0.157 A 
ATOM     10  C   UNL     1      63.444  83.402  72.275  1.00  0.00     0.056 A 
ATOM     11  C   UNL     1      62.867  81.401  74.153  1.00  0.00     0.050 A 
ATOM     12  C   UNL     1      63.706  81.117  73.058  1.00  0.00     0.009 A 
BRANCH   8  13
ATOM     13  O   UNL     1      62.095  84.959  73.536  1.00  0.00    -0.493 OA
ATOM     14  C   UNL     1      63.032  85.883  74.120  1.00  0.00     0.278 C 
ENDBRANCH   8  13
BRANCH   9  15
ATOM     15  O   UNL     1      61.472  82.925  75.350  1.00  0.00    -0.504 OA
ATOM     16  H   UNL     1      60.977  82.130  75.559  1.00  0.00     0.293 HD
ENDBRANCH   9  15
ENDBRANCH   6   7
ENDBRANCH   3   6
ENDBRANCH   1   2
BRANCH   1  17
ATOM     17  C   UNL     1      63.731  84.885  68.291  1.00  0.00     0.010 C 
BRANCH  17  18
ATOM     18  C   UNL     1      62.329  85.122  68.920  1.00  0.00     0.005 C 
BRANCH  18  19
ATOM     19  C   UNL     1      62.336  86.274  69.961  1.00  0.00     0.027 C 
BRANCH  19  20
ATOM     20  C   UNL     1      61.109  86.312  70.743  1.00  0.00    -0.031 C 
ATOM     21  C   UNL     1      59.931  85.813  70.326  1.00  0.00    -0.028 C 
BRANCH  21  22
ATOM     22  C   UNL     1      58.715  85.845  71.138  1.00  0.00     0.005 C 
ATOM     23  C   UNL     1      58.168  84.421  71.436  1.00  0.00     0.012 C 
ATOM     24  C   UNL     1      58.968  86.626  72.454  1.00  0.00     0.012 C 
ENDBRANCH  21  22
ENDBRANCH  19  20
ENDBRANCH  18  19
ENDBRANCH  17  18
ENDBRANCH   1  17
TORSDOF 10
ENDMDL
MODEL 9
REMARK VINA RESULT:    -5.703     16.669     19.041
REMARK INTER + INTRA:          -9.710
REMARK INTER:                  -8.932
REMARK INTRA:                  -0.778
REMARK UNBOUND:                -0.839
REMARK SMILES COc1cc(CNC(=O)CCCC/C=C/C(C)C)ccc1O
REMARK SMILES IDX 10 1 8 2 7 3 9 5 6 6 5 7 3 8 21 9 4 10 20 11 19 12 2 13 1 14
REMARK SMILES IDX 22 15 11 17 12 18 13 19 14 20 15 21 16 22 17 23 18 24
REMARK H PARENT 7 4 22 16
REMARK Flexibility Score: inf
ROOT
ATOM      1  C   UNL     1      96.612  84.595  85.510  1.00  0.00     0.100 C 
ENDROOT
BRANCH   1   2
ATOM      2  C   UNL     1      95.874  84.001  86.641  1.00  0.00     0.220 C 
ATOM      3  N   UNL     1      94.529  83.802  86.561  1.00  0.00    -0.352 N 
ATOM      4  H   UNL     1      94.102  84.110  85.698  1.00  0.00     0.163 HD
ATOM      5  O   UNL     1      96.523  83.666  87.662  1.00  0.00    -0.275 OA
BRANCH   3   6
ATOM      6  C   UNL     1      93.730  83.207  87.584  1.00  0.00     0.151 C 
BRANCH   6   7
ATOM      7  C   UNL     1      92.933  82.064  87.060  1.00  0.00    -0.025 A 
ATOM      8  C   UNL     1      90.802  81.162  86.218  1.00  0.00     0.160 A 
ATOM      9  C   UNL     1      91.405  79.900  86.041  1.00  0.00     0.157 A 
ATOM     10  C   UNL     1      91.570  82.231  86.727  1.00  0.00     0.056 A 
ATOM     11  C   UNL     1      92.758  79.713  86.388  1.00  0.00     0.050 A 
ATOM     12  C   UNL     1      93.520  80.789  86.884  1.00  0.00     0.009 A 
BRANCH   8  13
ATOM     13  O   UNL     1      89.469  81.332  85.944  1.00  0.00    -0.493 OA
ATOM     14  C   UNL     1      88.657  81.571  87.109  1.00  0.00     0.278 C 
ENDBRANCH   8  13
BRANCH   9  15
ATOM     15  O   UNL     1      90.697  78.854  85.541  1.00  0.00    -0.504 OA
ATOM     16  H   UNL     1      91.016  78.036  85.929  1.00  0.00     0.293 HD
ENDBRANCH   9  15
ENDBRANCH   6   7
ENDBRANCH   3   6
ENDBRANCH   1   2
BRANCH   1  17
ATOM     17  C   UNL     1      96.715  83.611  84.314  1.00  0.00     0.010 C 
BRANCH  17  18
ATOM     18  C   UNL     1      97.801  82.519  84.520  1.00  0.00     0.005 C 
BRANCH  18  19
ATOM     19  C   UNL     1      98.886  82.547  83.409  1.00  0.00     0.027 C 
BRANCH  19  20
ATOM     20  C   UNL     1      98.319  82.824  82.098  1.00  0.00    -0.031 C 
ATOM     21  C   UNL     1      98.879  82.444  80.935  1.00  0.00    -0.028 C 
BRANCH  21  22
ATOM     22  C   UNL     1      98.281  82.716  79.629  1.00  0.00     0.005 C 
ATOM     23  C   UNL     1      97.082  83.700  79.723  1.00  0.00     0.012 C 
ATOM     24  C   UNL     1      99.357  83.249  78.647  1.00  0.00     0.012 C 
ENDBRANCH  21  22
ENDBRANCH  19  20
ENDBRANCH  18  19
ENDBRANCH  17  18
ENDBRANCH   1  17
TORSDOF 10
ENDMDL
MODEL 10
REMARK VINA RESULT:    -5.698      3.344      7.857
REMARK INTER + INTRA:          -9.701
REMARK INTER:                  -8.987
REMARK INTRA:                  -0.715
REMARK UNBOUND:                -0.839
REMARK SMILES COc1cc(CNC(=O)CCCC/C=C/C(C)C)ccc1O
REMARK SMILES IDX 10 1 8 2 7 3 9 5 6 6 5 7 3 8 21 9 4 10 20 11 19 12 2 13 1 14
REMARK SMILES IDX 22 15 11 17 12 18 13 19 14 20 15 21 16 22 17 23 18 24
REMARK H PARENT 7 4 22 16
REMARK Flexibility Score: inf
ROOT
ATOM      1  C   UNL     1      93.257 101.290  74.233  1.00  0.00     0.100 C 
ENDROOT
BRANCH   1   2
ATOM      2  C   UNL     1      91.964 101.855  73.802  1.00  0.00     0.220 C 
ATOM      3  N   UNL     1      91.427 101.512  72.598  1.00  0.00    -0.352 N 
ATOM      4  H   UNL     1      91.988 100.879  72.045  1.00  0.00     0.163 HD
ATOM      5  O   UNL     1      91.370 102.638  74.582  1.00  0.00    -0.275 OA
BRANCH   3   6
ATOM      6  C   UNL     1      90.170 101.976  72.103  1.00  0.00     0.151 C 
BRANCH   6   7
ATOM      7  C   UNL     1      89.681 101.135  70.977  1.00  0.00    -0.025 A 
ATOM      8  C   UNL     1      88.922  98.954  70.123  1.00  0.00     0.160 A 
ATOM      9  C   UNL     1      88.729  99.520  68.846  1.00  0.00     0.157 A 
ATOM     10  C   UNL     1      89.397  99.765  71.175  1.00  0.00     0.056 A 
ATOM     11  C   UNL     1      89.025 100.881  68.629  1.00  0.00     0.050 A 
ATOM     12  C   UNL     1      89.489 101.685  69.689  1.00  0.00     0.009 A 
BRANCH   8  13
ATOM     13  O   UNL     1      88.697  97.616  70.323  1.00  0.00    -0.493 OA
ATOM     14  C   UNL     1      89.819  96.776  69.994  1.00  0.00     0.278 C 
ENDBRANCH   8  13
BRANCH   9  15
ATOM     15  O   UNL     1      88.259  98.771  67.816  1.00  0.00    -0.504 OA
ATOM     16  H   UNL     1      87.310  98.659  67.907  1.00  0.00     0.293 HD
ENDBRANCH   9  15
ENDBRANCH   6   7
ENDBRANCH   3   6
ENDBRANCH   1   2
BRANCH   1  17
ATOM     17  C   UNL     1      93.077 100.254  75.374  1.00  0.00     0.010 C 
BRANCH  17  18
ATOM     18  C   UNL     1      92.853  98.808  74.849  1.00  0.00     0.005 C 
BRANCH  18  19
ATOM     19  C   UNL     1      93.941  97.821  75.350  1.00  0.00     0.027 C 
BRANCH  19  20
ATOM     20  C   UNL     1      93.365  96.651  75.994  1.00  0.00    -0.031 C 
ATOM     21  C   UNL     1      92.335  96.694  76.860  1.00  0.00    -0.028 C 
BRANCH  21  22
ATOM     22  C   UNL     1      91.758  95.502  77.480  1.00  0.00     0.005 C 
ATOM     23  C   UNL     1      90.205  95.507  77.436  1.00  0.00     0.012 C 
ATOM     24  C   UNL     1      92.326  94.222  76.813  1.00  0.00     0.012 C 
ENDBRANCH  21  22
ENDBRANCH  19  20
ENDBRANCH  18  19
ENDBRANCH  17  18
ENDBRANCH   1  17
TORSDOF 10
ENDMDL
