MODEL 1
REMARK VINA RESULT:    -7.492      0.000      0.000
REMARK INTER + INTRA:         -14.013
REMARK INTER:                 -13.186
REMARK INTRA:                  -0.827
REMARK UNBOUND:                -0.827
REMARK SMILES C=C(C)[C@]12C[C@@H](C)[C@@]34O[C@](Cc5ccccc5)(O[C@@H]1[C@@H]3C=C(COC(=O)Cc1ccc(O)c(OC)c1)C[C@]1(O)C(=O)C(C)=C[C@@H]41)O2
REMARK SMILES IDX 23 1 22 2 21 3 20 4 9 5 8 6 10 7 6 8 18 9 46 10 19 11 5 12
REMARK SMILES IDX 7 13 4 14 45 15 38 16 44 17 40 18 42 20 41 21 43 22 39 23
REMARK SMILES IDX 11 25 12 26 13 27 17 28 14 29 16 30 15 31 2 32 3 33 1 34
REMARK SMILES IDX 37 35 24 37 25 38 26 39 27 40 28 41 36 42 29 43 33 44 30 45
REMARK SMILES IDX 31 46 34 47 35 48 32 49
REMARK H PARENT 39 24 32 50
REMARK Flexibility Score: 90.00
ROOT
ATOM      1  C   UNL     1      95.958  81.520  83.823  1.00  0.00     0.264 C 
ENDROOT
BRANCH   1   2
ATOM      2  C   UNL     1      94.758  81.956  84.631  1.00  0.00    -0.033 C 
ATOM      3  C   UNL     1      93.602  81.272  84.517  1.00  0.00    -0.015 C 
BRANCH   3   4
ATOM      4  C   UNL     1      92.250  81.549  85.153  1.00  0.00     0.078 C 
ATOM      5  O   UNL     1      92.171  80.269  87.268  1.00  0.00    -0.319 OA
ATOM      6  C   UNL     1      92.162  81.624  86.723  1.00  0.00     0.095 C 
ATOM      7  C   UNL     1      91.356  79.315  86.562  1.00  0.00     0.289 C 
ATOM      8  C   UNL     1      90.791  82.328  87.094  1.00  0.00     0.023 C 
ATOM      9  O   UNL     1      91.735  79.224  85.192  1.00  0.00    -0.320 OA
ATOM     10  O   UNL     1      89.978  79.680  86.557  1.00  0.00    -0.313 OA
ATOM     11  C   UNL     1      91.227  80.476  84.706  1.00  0.00     0.170 C 
ATOM     12  C   UNL     1      89.676  81.987  86.058  1.00  0.00     0.049 C 
ATOM     13  C   UNL     1      90.271  82.053  88.514  1.00  0.00     0.011 C 
ATOM     14  C   UNL     1      89.874  80.599  85.449  1.00  0.00     0.122 C 
BRANCH   6  15
ATOM     15  C   UNL     1      93.437  82.291  87.316  1.00  0.00     0.086 C 
ATOM     16  C   UNL     1      93.971  83.527  86.563  1.00  0.00     0.140 CG0
ATOM     17  C   UNL     1      93.438  82.729  88.754  1.00  0.00    -0.010 C 
ATOM     18  C   UNL     1      94.520  84.381  87.687  1.00  0.00     0.190 C 
ATOM     19  G   UNL     1      95.037  83.159  85.533  1.00  0.00     0.000 G0
ATOM     20  C   UNL     1      94.063  83.886  88.999  1.00  0.00    -0.008 C 
ATOM     21  O   UNL     1      95.208  85.380  87.545  1.00  0.00    -0.291 OA
ATOM     22  C   UNL     1      94.329  84.571  90.281  1.00  0.00     0.048 C 
BRANCH  16  23
ATOM     23  O   UNL     1      92.954  84.334  85.991  1.00  0.00    -0.381 OA
ATOM     24  H   UNL     1      93.332  84.813  85.236  1.00  0.00     0.212 HD
ENDBRANCH  16  23
ENDBRANCH   6  15
BRANCH   7  25
ATOM     25  C   UNL     1      91.518  77.964  87.230  1.00  0.00     0.135 C 
BRANCH  25  26
ATOM     26  C   UNL     1      90.444  76.992  86.808  1.00  0.00    -0.040 A 
ATOM     27  C   UNL     1      89.412  76.668  87.689  1.00  0.00     0.004 A 
ATOM     28  C   UNL     1      90.482  76.419  85.537  1.00  0.00     0.004 A 
ATOM     29  C   UNL     1      88.419  75.769  87.299  1.00  0.00     0.000 A 
ATOM     30  C   UNL     1      89.488  75.520  85.147  1.00  0.00     0.000 A 
ATOM     31  C   UNL     1      88.457  75.196  86.029  1.00  0.00     0.000 A 
ENDBRANCH  25  26
ENDBRANCH   7  25
BRANCH  14  32
ATOM     32  C   UNL     1      88.724  80.177  84.594  1.00  0.00    -0.046 C 
ATOM     33  C   UNL     1      87.386  80.752  84.953  1.00  0.00     0.042 C 
ATOM     34  C   UNL     1      88.878  79.331  83.564  1.00  0.00     0.010 C 
ENDBRANCH  14  32
ENDBRANCH   3   4
BRANCH   2  35
ATOM     35  C   UNL     1      95.039  83.161  85.509  1.00  0.00     0.078 CG0
ATOM     36  G   UNL     1      93.993  83.514  86.566  1.00  0.00     0.000 G0
ENDBRANCH   2  35
ENDBRANCH   1   2
BRANCH   1  37
ATOM     37  O   UNL     1      95.718  80.237  83.286  1.00  0.00    -0.461 OA
BRANCH  37  38
ATOM     38  C   UNL     1      96.551  79.838  82.267  1.00  0.00     0.310 C 
ATOM     39  O   UNL     1      96.494  78.758  81.695  1.00  0.00    -0.252 OA
BRANCH  38  40
ATOM     40  C   UNL     1      97.542  80.937  81.967  1.00  0.00     0.158 C 
BRANCH  40  41
ATOM     41  C   UNL     1      98.009  80.933  80.534  1.00  0.00    -0.033 A 
ATOM     42  C   UNL     1      97.425  81.797  79.607  1.00  0.00     0.054 A 
ATOM     43  C   UNL     1      99.025  80.065  80.134  1.00  0.00     0.008 A 
ATOM     44  C   UNL     1      97.857  81.793  78.281  1.00  0.00     0.160 A 
ATOM     45  C   UNL     1      99.457  80.060  78.807  1.00  0.00     0.050 A 
ATOM     46  C   UNL     1      98.874  80.924  77.881  1.00  0.00     0.157 A 
BRANCH  44  47
ATOM     47  O   UNL     1      97.280  82.641  77.385  1.00  0.00    -0.493 OA
ATOM     48  C   UNL     1      95.938  82.354  76.992  1.00  0.00     0.278 C 
ENDBRANCH  44  47
BRANCH  46  49
ATOM     49  O   UNL     1      99.304  80.912  76.589  1.00  0.00    -0.504 OA
ATOM     50  H   UNL     1      99.793  80.087  76.426  1.00  0.00     0.293 HD
ENDBRANCH  46  49
ENDBRANCH  40  41
ENDBRANCH  38  40
ENDBRANCH  37  38
ENDBRANCH   1  37
TORSDOF 11
ENDMDL
MODEL 2
REMARK VINA RESULT:    -6.883     26.132     30.423
REMARK INTER + INTRA:         -12.941
REMARK INTER:                 -11.833
REMARK INTRA:                  -1.108
REMARK UNBOUND:                -0.827
REMARK SMILES C=C(C)[C@]12C[C@@H](C)[C@@]34O[C@](Cc5ccccc5)(O[C@@H]1[C@@H]3C=C(COC(=O)Cc1ccc(O)c(OC)c1)C[C@]1(O)C(=O)C(C)=C[C@@H]41)O2
REMARK SMILES IDX 23 1 22 2 21 3 20 4 9 5 8 6 10 7 6 8 18 9 46 10 19 11 5 12
REMARK SMILES IDX 7 13 4 14 45 15 38 16 44 17 40 18 42 20 41 21 43 22 39 23
REMARK SMILES IDX 11 25 12 26 13 27 17 28 14 29 16 30 15 31 2 32 3 33 1 34
REMARK SMILES IDX 37 35 24 37 25 38 26 39 27 40 28 41 36 42 29 43 33 44 30 45
REMARK SMILES IDX 31 46 34 47 35 48 32 49
REMARK H PARENT 39 24 32 50
REMARK Flexibility Score: 90.00
ROOT
ATOM      1  C   UNL     1      69.516  84.690  70.251  1.00  0.00     0.264 C 
ENDROOT
BRANCH   1   2
ATOM      2  C   UNL     1      70.071  85.428  69.055  1.00  0.00    -0.033 C 
ATOM      3  C   UNL     1      71.340  85.883  69.092  1.00  0.00    -0.015 C 
BRANCH   3   4
ATOM      4  C   UNL     1      72.098  86.710  68.066  1.00  0.00     0.078 C 
ATOM      5  O   UNL     1      73.292  85.117  66.597  1.00  0.00    -0.319 OA
ATOM      6  C   UNL     1      72.247  86.139  66.607  1.00  0.00     0.095 C 
ATOM      7  C   UNL     1      74.476  85.439  67.352  1.00  0.00     0.289 C 
ATOM      8  C   UNL     1      72.679  87.338  65.664  1.00  0.00     0.023 C 
ATOM      9  O   UNL     1      74.161  85.712  68.715  1.00  0.00    -0.320 OA
ATOM     10  O   UNL     1      75.126  86.610  66.865  1.00  0.00    -0.313 OA
ATOM     11  C   UNL     1      73.532  86.995  68.577  1.00  0.00     0.170 C 
ATOM     12  C   UNL     1      73.580  88.363  66.420  1.00  0.00     0.049 C 
ATOM     13  C   UNL     1      73.362  86.930  64.349  1.00  0.00     0.011 C 
ATOM     14  C   UNL     1      74.415  87.687  67.508  1.00  0.00     0.122 C 
BRANCH   6  15
ATOM     15  C   UNL     1      70.958  85.381  66.176  1.00  0.00     0.086 C 
ATOM     16  C   UNL     1      69.619  86.052  66.545  1.00  0.00     0.140 CG0
ATOM     17  C   UNL     1      70.774  85.003  64.733  1.00  0.00    -0.010 C 
ATOM     18  C   UNL     1      68.731  85.672  65.379  1.00  0.00     0.190 C 
ATOM     19  G   UNL     1      69.074  85.555  67.883  1.00  0.00     0.000 G0
ATOM     20  C   UNL     1      69.528  85.128  64.263  1.00  0.00    -0.008 C 
ATOM     21  O   UNL     1      67.521  85.832  65.329  1.00  0.00    -0.291 OA
ATOM     22  C   UNL     1      68.970  84.777  62.941  1.00  0.00     0.048 C 
BRANCH  16  23
ATOM     23  O   UNL     1      69.655  87.469  66.495  1.00  0.00    -0.381 OA
ATOM     24  H   UNL     1      70.278  87.736  65.799  1.00  0.00     0.212 HD
ENDBRANCH  16  23
ENDBRANCH   6  15
BRANCH   7  25
ATOM     25  C   UNL     1      75.426  84.261  67.271  1.00  0.00     0.135 C 
BRANCH  25  26
ATOM     26  C   UNL     1      75.329  83.547  65.946  1.00  0.00    -0.040 A 
ATOM     27  C   UNL     1      75.697  84.203  64.771  1.00  0.00     0.004 A 
ATOM     28  C   UNL     1      74.873  82.230  65.895  1.00  0.00     0.004 A 
ATOM     29  C   UNL     1      75.608  83.543  63.546  1.00  0.00     0.000 A 
ATOM     30  C   UNL     1      74.784  81.569  64.669  1.00  0.00     0.000 A 
ATOM     31  C   UNL     1      75.151  82.227  63.495  1.00  0.00     0.000 A 
ENDBRANCH  25  26
ENDBRANCH   7  25
BRANCH  14  32
ATOM     32  C   UNL     1      75.416  88.612  68.121  1.00  0.00    -0.046 C 
ATOM     33  C   UNL     1      74.872  89.652  69.054  1.00  0.00     0.042 C 
ATOM     34  C   UNL     1      76.727  88.517  67.852  1.00  0.00     0.010 C 
ENDBRANCH  14  32
ENDBRANCH   3   4
BRANCH   2  35
ATOM     35  C   UNL     1      69.074  85.554  67.919  1.00  0.00     0.078 CG0
ATOM     36  G   UNL     1      69.611  86.019  66.566  1.00  0.00     0.000 G0
ENDBRANCH   2  35
ENDBRANCH   1   2
BRANCH   1  37
ATOM     37  O   UNL     1      68.588  85.515  70.920  1.00  0.00    -0.461 OA
BRANCH  37  38
ATOM     38  C   UNL     1      67.310  85.020  71.041  1.00  0.00     0.310 C 
ATOM     39  O   UNL     1      66.418  85.532  71.703  1.00  0.00    -0.252 OA
BRANCH  38  40
ATOM     40  C   UNL     1      67.182  83.750  70.233  1.00  0.00     0.158 C 
BRANCH  40  41
ATOM     41  C   UNL     1      65.751  83.384  69.936  1.00  0.00    -0.033 A 
ATOM     42  C   UNL     1      65.051  84.058  68.935  1.00  0.00     0.054 A 
ATOM     43  C   UNL     1      65.126  82.370  70.662  1.00  0.00     0.008 A 
ATOM     44  C   UNL     1      63.726  83.719  68.660  1.00  0.00     0.160 A 
ATOM     45  C   UNL     1      63.801  82.030  70.387  1.00  0.00     0.050 A 
ATOM     46  C   UNL     1      63.101  82.705  69.387  1.00  0.00     0.157 A 
BRANCH  44  47
ATOM     47  O   UNL     1      63.053  84.385  67.681  1.00  0.00    -0.493 OA
ATOM     48  C   UNL     1      63.835  84.977  66.645  1.00  0.00     0.278 C 
ENDBRANCH  44  47
BRANCH  46  49
ATOM     49  O   UNL     1      61.808  82.364  69.127  1.00  0.00    -0.504 OA
ATOM     50  H   UNL     1      61.690  81.415  69.301  1.00  0.00     0.293 HD
ENDBRANCH  46  49
ENDBRANCH  40  41
ENDBRANCH  38  40
ENDBRANCH  37  38
ENDBRANCH   1  37
TORSDOF 11
ENDMDL
MODEL 3
REMARK VINA RESULT:    -6.738     18.685     23.265
REMARK INTER + INTRA:         -12.686
REMARK INTER:                 -12.082
REMARK INTRA:                  -0.605
REMARK UNBOUND:                -0.827
REMARK SMILES C=C(C)[C@]12C[C@@H](C)[C@@]34O[C@](Cc5ccccc5)(O[C@@H]1[C@@H]3C=C(COC(=O)Cc1ccc(O)c(OC)c1)C[C@]1(O)C(=O)C(C)=C[C@@H]41)O2
REMARK SMILES IDX 23 1 22 2 21 3 20 4 9 5 8 6 10 7 6 8 18 9 46 10 19 11 5 12
REMARK SMILES IDX 7 13 4 14 45 15 38 16 44 17 40 18 42 20 41 21 43 22 39 23
REMARK SMILES IDX 11 25 12 26 13 27 17 28 14 29 16 30 15 31 2 32 3 33 1 34
REMARK SMILES IDX 37 35 24 37 25 38 26 39 27 40 28 41 36 42 29 43 33 44 30 45
REMARK SMILES IDX 31 46 34 47 35 48 32 49
REMARK H PARENT 39 24 32 50
REMARK Flexibility Score: 90.00
ROOT
ATOM      1  C   UNL     1      96.849  98.542  73.167  1.00  0.00     0.264 C 
ENDROOT
BRANCH   1   2
ATOM      2  C   UNL     1      96.035  99.777  72.860  1.00  0.00    -0.033 C 
ATOM      3  C   UNL     1      95.318  99.828  71.719  1.00  0.00    -0.015 C 
BRANCH   3   4
ATOM      4  C   UNL     1      94.490 100.969  71.150  1.00  0.00     0.078 C 
ATOM      5  O   UNL     1      92.177 100.661  71.971  1.00  0.00    -0.319 OA
ATOM      6  C   UNL     1      93.326 101.561  72.029  1.00  0.00     0.095 C 
ATOM      7  C   UNL     1      91.874 100.131  70.667  1.00  0.00     0.289 C 
ATOM      8  C   UNL     1      92.924 102.964  71.411  1.00  0.00     0.023 C 
ATOM      9  O   UNL     1      92.989  99.431  70.121  1.00  0.00    -0.320 OA
ATOM     10  O   UNL     1      91.564 101.155  69.726  1.00  0.00    -0.313 OA
ATOM     11  C   UNL     1      93.851 100.536  69.807  1.00  0.00     0.170 C 
ATOM     12  C   UNL     1      93.093 102.974  69.860  1.00  0.00     0.049 C 
ATOM     13  C   UNL     1      91.518 103.467  71.776  1.00  0.00     0.011 C 
ATOM     14  C   UNL     1      92.858 101.589  69.256  1.00  0.00     0.122 C 
BRANCH   6  15
ATOM     15  C   UNL     1      93.727 101.583  73.533  1.00  0.00     0.086 C 
ATOM     16  C   UNL     1      95.164 102.049  73.846  1.00  0.00     0.140 CG0
ATOM     17  C   UNL     1      92.887 102.360  74.507  1.00  0.00    -0.010 C 
ATOM     18  C   UNL     1      94.993 102.767  75.169  1.00  0.00     0.190 C 
ATOM     19  G   UNL     1      96.143 100.880  73.938  1.00  0.00     0.000 G0
ATOM     20  C   UNL     1      93.567 103.014  75.455  1.00  0.00    -0.008 C 
ATOM     21  O   UNL     1      95.902 103.146  75.892  1.00  0.00    -0.291 OA
ATOM     22  C   UNL     1      93.078 103.797  76.609  1.00  0.00     0.048 C 
BRANCH  16  23
ATOM     23  O   UNL     1      95.644 103.058  72.973  1.00  0.00    -0.381 OA
ATOM     24  H   UNL     1      95.262 102.909  72.093  1.00  0.00     0.212 HD
ENDBRANCH  16  23
ENDBRANCH   6  15
BRANCH   7  25
ATOM     25  C   UNL     1      90.693  99.191  70.798  1.00  0.00     0.135 C 
BRANCH  25  26
ATOM     26  C   UNL     1      89.993  98.975  69.480  1.00  0.00    -0.040 A 
ATOM     27  C   UNL     1      89.064  99.910  69.022  1.00  0.00     0.004 A 
ATOM     28  C   UNL     1      90.275  97.842  68.717  1.00  0.00     0.004 A 
ATOM     29  C   UNL     1      88.417  99.711  67.802  1.00  0.00     0.000 A 
ATOM     30  C   UNL     1      89.628  97.642  67.497  1.00  0.00     0.000 A 
ATOM     31  C   UNL     1      88.698  98.577  67.041  1.00  0.00     0.000 A 
ENDBRANCH  25  26
ENDBRANCH   7  25
BRANCH  14  32
ATOM     32  C   UNL     1      92.833 101.610  67.763  1.00  0.00    -0.046 C 
ATOM     33  C   UNL     1      94.143 101.878  67.083  1.00  0.00     0.042 C 
ATOM     34  C   UNL     1      91.704 101.402  67.069  1.00  0.00     0.010 C 
ENDBRANCH  14  32
ENDBRANCH   3   4
BRANCH   2  35
ATOM     35  C   UNL     1      96.137 100.840  73.938  1.00  0.00     0.078 CG0
ATOM     36  G   UNL     1      95.169 102.018  73.852  1.00  0.00     0.000 G0
ENDBRANCH   2  35
ENDBRANCH   1   2
BRANCH   1  37
ATOM     37  O   UNL     1      97.298  98.599  74.503  1.00  0.00    -0.461 OA
BRANCH  37  38
ATOM     38  C   UNL     1      96.764  97.670  75.365  1.00  0.00     0.310 C 
ATOM     39  O   UNL     1      96.960  97.636  76.572  1.00  0.00    -0.252 OA
BRANCH  38  40
ATOM     40  C   UNL     1      95.900  96.701  74.591  1.00  0.00     0.158 C 
BRANCH  40  41
ATOM     41  C   UNL     1      94.882  96.002  75.454  1.00  0.00    -0.033 A 
ATOM     42  C   UNL     1      95.258  95.477  76.691  1.00  0.00     0.054 A 
ATOM     43  C   UNL     1      93.563  95.880  75.017  1.00  0.00     0.008 A 
ATOM     44  C   UNL     1      94.315  94.830  77.490  1.00  0.00     0.160 A 
ATOM     45  C   UNL     1      92.620  95.233  75.816  1.00  0.00     0.050 A 
ATOM     46  C   UNL     1      92.996  94.708  77.052  1.00  0.00     0.157 A 
BRANCH  44  47
ATOM     47  O   UNL     1      94.695  94.322  78.695  1.00  0.00    -0.493 OA
ATOM     48  C   UNL     1      96.040  93.861  78.810  1.00  0.00     0.278 C 
ENDBRANCH  44  47
BRANCH  46  49
ATOM     49  O   UNL     1      92.067  94.079  77.824  1.00  0.00    -0.504 OA
ATOM     50  H   UNL     1      92.496  93.752  78.633  1.00  0.00     0.293 HD
ENDBRANCH  46  49
ENDBRANCH  40  41
ENDBRANCH  38  40
ENDBRANCH  37  38
ENDBRANCH   1  37
TORSDOF 11
ENDMDL
MODEL 4
REMARK VINA RESULT:    -6.622     26.003     30.557
REMARK INTER + INTRA:         -12.482
REMARK INTER:                 -11.931
REMARK INTRA:                  -0.551
REMARK UNBOUND:                -0.827
REMARK SMILES C=C(C)[C@]12C[C@@H](C)[C@@]34O[C@](Cc5ccccc5)(O[C@@H]1[C@@H]3C=C(COC(=O)Cc1ccc(O)c(OC)c1)C[C@]1(O)C(=O)C(C)=C[C@@H]41)O2
REMARK SMILES IDX 23 1 22 2 21 3 20 4 9 5 8 6 10 7 6 8 18 9 46 10 19 11 5 12
REMARK SMILES IDX 7 13 4 14 45 15 38 16 44 17 40 18 42 20 41 21 43 22 39 23
REMARK SMILES IDX 11 25 12 26 13 27 17 28 14 29 16 30 15 31 2 32 3 33 1 34
REMARK SMILES IDX 37 35 24 37 25 38 26 39 27 40 28 41 36 42 29 43 33 44 30 45
REMARK SMILES IDX 31 46 34 47 35 48 32 49
REMARK H PARENT 39 24 32 50
REMARK Flexibility Score: 90.00
ROOT
ATOM      1  C   UNL     1      69.055  85.168  70.328  1.00  0.00     0.264 C 
ENDROOT
BRANCH   1   2
ATOM      2  C   UNL     1      69.613  85.513  68.967  1.00  0.00    -0.033 C 
ATOM      3  C   UNL     1      70.229  86.698  68.788  1.00  0.00    -0.015 C 
BRANCH   3   4
ATOM      4  C   UNL     1      70.800  87.307  67.518  1.00  0.00     0.078 C 
ATOM      5  O   UNL     1      73.187  86.666  67.420  1.00  0.00    -0.319 OA
ATOM      6  C   UNL     1      71.906  86.507  66.735  1.00  0.00     0.095 C 
ATOM      7  C   UNL     1      73.477  87.999  67.882  1.00  0.00     0.289 C 
ATOM      8  C   UNL     1      72.010  87.128  65.281  1.00  0.00     0.023 C 
ATOM      9  O   UNL     1      72.462  88.472  68.764  1.00  0.00    -0.320 OA
ATOM     10  O   UNL     1      73.530  88.942  66.815  1.00  0.00    -0.313 OA
ATOM     11  C   UNL     1      71.399  88.701  67.826  1.00  0.00     0.170 C 
ATOM     12  C   UNL     1      71.723  88.661  65.293  1.00  0.00     0.049 C 
ATOM     13  C   UNL     1      73.330  86.860  64.541  1.00  0.00     0.011 C 
ATOM     14  C   UNL     1      72.149  89.306  66.613  1.00  0.00     0.122 C 
BRANCH   6  15
ATOM     15  C   UNL     1      71.624  84.977  66.790  1.00  0.00     0.086 C 
ATOM     16  C   UNL     1      70.157  84.549  66.580  1.00  0.00     0.140 CG0
ATOM     17  C   UNL     1      72.390  84.054  65.885  1.00  0.00    -0.010 C 
ATOM     18  C   UNL     1      70.303  83.230  65.851  1.00  0.00     0.190 C 
ATOM     19  G   UNL     1      69.403  84.406  67.902  1.00  0.00     0.000 G0
ATOM     20  C   UNL     1      71.683  83.046  65.364  1.00  0.00    -0.008 C 
ATOM     21  O   UNL     1      69.401  82.434  65.638  1.00  0.00    -0.291 OA
ATOM     22  C   UNL     1      72.118  81.918  64.514  1.00  0.00     0.048 C 
BRANCH  16  23
ATOM     23  O   UNL     1      69.446  85.365  65.665  1.00  0.00    -0.381 OA
ATOM     24  H   UNL     1      70.087  85.899  65.167  1.00  0.00     0.212 HD
ENDBRANCH  16  23
ENDBRANCH   6  15
BRANCH   7  25
ATOM     25  C   UNL     1      74.810  87.973  68.602  1.00  0.00     0.135 C 
BRANCH  25  26
ATOM     26  C   UNL     1      75.639  86.775  68.214  1.00  0.00    -0.040 A 
ATOM     27  C   UNL     1      76.418  86.811  67.056  1.00  0.00     0.004 A 
ATOM     28  C   UNL     1      75.629  85.631  69.011  1.00  0.00     0.004 A 
ATOM     29  C   UNL     1      77.185  85.703  66.697  1.00  0.00     0.000 A 
ATOM     30  C   UNL     1      76.396  84.522  68.651  1.00  0.00     0.000 A 
ATOM     31  C   UNL     1      77.174  84.559  67.494  1.00  0.00     0.000 A 
ENDBRANCH  25  26
ENDBRANCH   7  25
BRANCH  14  32
ATOM     32  C   UNL     1      72.055  90.796  66.581  1.00  0.00    -0.046 C 
ATOM     33  C   UNL     1      73.316  91.533  66.240  1.00  0.00     0.042 C 
ATOM     34  C   UNL     1      70.907  91.440  66.841  1.00  0.00     0.010 C 
ENDBRANCH  14  32
ENDBRANCH   3   4
BRANCH   2  35
ATOM     35  C   UNL     1      69.396  84.417  67.940  1.00  0.00     0.078 CG0
ATOM     36  G   UNL     1      70.133  84.552  66.608  1.00  0.00     0.000 G0
ENDBRANCH   2  35
ENDBRANCH   1   2
BRANCH   1  37
ATOM     37  O   UNL     1      68.140  84.100  70.201  1.00  0.00    -0.461 OA
BRANCH  37  38
ATOM     38  C   UNL     1      66.859  84.341  70.638  1.00  0.00     0.310 C 
ATOM     39  O   UNL     1      66.541  85.212  71.437  1.00  0.00    -0.252 OA
BRANCH  38  40
ATOM     40  C   UNL     1      65.909  83.367  69.981  1.00  0.00     0.158 C 
BRANCH  40  41
ATOM     41  C   UNL     1      64.715  83.040  70.840  1.00  0.00    -0.033 A 
ATOM     42  C   UNL     1      63.887  84.063  71.303  1.00  0.00     0.054 A 
ATOM     43  C   UNL     1      64.438  81.714  71.173  1.00  0.00     0.008 A 
ATOM     44  C   UNL     1      62.782  83.760  72.098  1.00  0.00     0.160 A 
ATOM     45  C   UNL     1      63.333  81.411  71.968  1.00  0.00     0.050 A 
ATOM     46  C   UNL     1      62.505  82.433  72.431  1.00  0.00     0.157 A 
BRANCH  44  47
ATOM     47  O   UNL     1      61.981  84.767  72.544  1.00  0.00    -0.493 OA
ATOM     48  C   UNL     1      60.864  85.117  71.728  1.00  0.00     0.278 C 
ENDBRANCH  44  47
BRANCH  46  49
ATOM     49  O   UNL     1      61.428  82.125  73.206  1.00  0.00    -0.504 OA
ATOM     50  H   UNL     1      61.665  82.246  74.141  1.00  0.00     0.293 HD
ENDBRANCH  46  49
ENDBRANCH  40  41
ENDBRANCH  38  40
ENDBRANCH  37  38
ENDBRANCH   1  37
TORSDOF 11
ENDMDL
MODEL 5
REMARK VINA RESULT:    -6.427     28.901     33.534
REMARK INTER + INTRA:         -12.138
REMARK INTER:                 -10.440
REMARK INTRA:                  -1.698
REMARK UNBOUND:                -0.827
REMARK SMILES C=C(C)[C@]12C[C@@H](C)[C@@]34O[C@](Cc5ccccc5)(O[C@@H]1[C@@H]3C=C(COC(=O)Cc1ccc(O)c(OC)c1)C[C@]1(O)C(=O)C(C)=C[C@@H]41)O2
REMARK SMILES IDX 23 1 22 2 21 3 20 4 9 5 8 6 10 7 6 8 18 9 46 10 19 11 5 12
REMARK SMILES IDX 7 13 4 14 45 15 38 16 44 17 40 18 42 20 41 21 43 22 39 23
REMARK SMILES IDX 11 25 12 26 13 27 17 28 14 29 16 30 15 31 2 32 3 33 1 34
REMARK SMILES IDX 37 35 24 37 25 38 26 39 27 40 28 41 36 42 29 43 33 44 30 45
REMARK SMILES IDX 31 46 34 47 35 48 32 49
REMARK H PARENT 39 24 32 50
REMARK Flexibility Score: 90.00
ROOT
ATOM      1  C   UNL     1      67.945  85.732  70.427  1.00  0.00     0.264 C 
ENDROOT
BRANCH   1   2
ATOM      2  C   UNL     1      66.796  84.939  69.850  1.00  0.00    -0.033 C 
ATOM      3  C   UNL     1      65.862  84.431  70.679  1.00  0.00    -0.015 C 
BRANCH   3   4
ATOM      4  C   UNL     1      64.668  83.546  70.361  1.00  0.00     0.078 C 
ATOM      5  O   UNL     1      62.737  85.047  69.989  1.00  0.00    -0.319 OA
ATOM      6  C   UNL     1      63.601  84.070  69.330  1.00  0.00     0.095 C 
ATOM      7  C   UNL     1      62.316  84.697  71.321  1.00  0.00     0.289 C 
ATOM      8  C   UNL     1      62.730  82.829  68.868  1.00  0.00     0.023 C 
ATOM      9  O   UNL     1      63.435  84.475  72.176  1.00  0.00    -0.320 OA
ATOM     10  O   UNL     1      61.563  83.487  71.351  1.00  0.00    -0.313 OA
ATOM     11  C   UNL     1      63.897  83.215  71.663  1.00  0.00     0.170 C 
ATOM     12  C   UNL     1      62.563  81.789  70.018  1.00  0.00     0.049 C 
ATOM     13  C   UNL     1      61.350  83.172  68.284  1.00  0.00     0.011 C 
ATOM     14  C   UNL     1      62.573  82.458  71.393  1.00  0.00     0.122 C 
BRANCH   6  15
ATOM     15  C   UNL     1      64.287  84.869  68.184  1.00  0.00     0.086 C 
ATOM     16  C   UNL     1      65.583  84.260  67.612  1.00  0.00     0.140 CG0
ATOM     17  C   UNL     1      63.495  85.223  66.956  1.00  0.00    -0.010 C 
ATOM     18  C   UNL     1      65.510  84.650  66.151  1.00  0.00     0.190 C 
ATOM     19  G   UNL     1      66.832  84.807  68.301  1.00  0.00     0.000 G0
ATOM     20  C   UNL     1      64.162  85.136  65.801  1.00  0.00    -0.008 C 
ATOM     21  O   UNL     1      66.417  84.537  65.341  1.00  0.00    -0.291 OA
ATOM     22  C   UNL     1      63.736  85.481  64.428  1.00  0.00     0.048 C 
BRANCH  16  23
ATOM     23  O   UNL     1      65.587  82.842  67.584  1.00  0.00    -0.381 OA
ATOM     24  H   UNL     1      64.763  82.524  67.987  1.00  0.00     0.212 HD
ENDBRANCH  16  23
ENDBRANCH   6  15
BRANCH   7  25
ATOM     25  C   UNL     1      61.472  85.831  71.867  1.00  0.00     0.135 C 
BRANCH  25  26
ATOM     26  C   UNL     1      60.000  85.605  71.630  1.00  0.00    -0.040 A 
ATOM     27  C   UNL     1      59.170  85.247  72.694  1.00  0.00     0.004 A 
ATOM     28  C   UNL     1      59.467  85.754  70.350  1.00  0.00     0.004 A 
ATOM     29  C   UNL     1      57.808  85.038  72.475  1.00  0.00     0.000 A 
ATOM     30  C   UNL     1      58.105  85.545  70.132  1.00  0.00     0.000 A 
ATOM     31  C   UNL     1      57.276  85.187  71.195  1.00  0.00     0.000 A 
ENDBRANCH  25  26
ENDBRANCH   7  25
BRANCH  14  32
ATOM     32  C   UNL     1      62.233  81.510  72.496  1.00  0.00    -0.046 C 
ATOM     33  C   UNL     1      63.391  80.838  73.171  1.00  0.00     0.042 C 
ATOM     34  C   UNL     1      60.965  81.272  72.861  1.00  0.00     0.010 C 
ENDBRANCH  14  32
ENDBRANCH   3   4
BRANCH   2  35
ATOM     35  C   UNL     1      66.853  84.825  68.338  1.00  0.00     0.078 CG0
ATOM     36  G   UNL     1      65.608  84.290  67.630  1.00  0.00     0.000 G0
ENDBRANCH   2  35
ENDBRANCH   1   2
BRANCH   1  37
ATOM     37  O   UNL     1      67.644  87.109  70.356  1.00  0.00    -0.461 OA
BRANCH  37  38
ATOM     38  C   UNL     1      67.319  87.723  71.543  1.00  0.00     0.310 C 
ATOM     39  O   UNL     1      66.995  88.897  71.661  1.00  0.00    -0.252 OA
BRANCH  38  40
ATOM     40  C   UNL     1      67.426  86.726  72.673  1.00  0.00     0.158 C 
BRANCH  40  41
ATOM     41  C   UNL     1      66.420  86.969  73.769  1.00  0.00    -0.033 A 
ATOM     42  C   UNL     1      66.851  87.370  75.034  1.00  0.00     0.054 A 
ATOM     43  C   UNL     1      65.060  86.794  73.518  1.00  0.00     0.008 A 
ATOM     44  C   UNL     1      65.920  87.594  76.049  1.00  0.00     0.160 A 
ATOM     45  C   UNL     1      64.129  87.019  74.532  1.00  0.00     0.050 A 
ATOM     46  C   UNL     1      64.559  87.419  75.797  1.00  0.00     0.157 A 
BRANCH  44  47
ATOM     47  O   UNL     1      66.353  87.985  77.280  1.00  0.00    -0.493 OA
ATOM     48  C   UNL     1      66.624  86.954  78.228  1.00  0.00     0.278 C 
ENDBRANCH  44  47
BRANCH  46  49
ATOM     49  O   UNL     1      63.641  87.637  76.780  1.00  0.00    -0.504 OA
ATOM     50  H   UNL     1      63.300  86.781  77.090  1.00  0.00     0.293 HD
ENDBRANCH  46  49
ENDBRANCH  40  41
ENDBRANCH  38  40
ENDBRANCH  37  38
ENDBRANCH   1  37
TORSDOF 11
ENDMDL
MODEL 6
REMARK VINA RESULT:    -6.382      1.639      2.402
REMARK INTER + INTRA:         -12.059
REMARK INTER:                 -11.622
REMARK INTRA:                  -0.437
REMARK UNBOUND:                -0.827
REMARK SMILES C=C(C)[C@]12C[C@@H](C)[C@@]34O[C@](Cc5ccccc5)(O[C@@H]1[C@@H]3C=C(COC(=O)Cc1ccc(O)c(OC)c1)C[C@]1(O)C(=O)C(C)=C[C@@H]41)O2
REMARK SMILES IDX 23 1 22 2 21 3 20 4 9 5 8 6 10 7 6 8 18 9 46 10 19 11 5 12
REMARK SMILES IDX 7 13 4 14 45 15 38 16 44 17 40 18 42 20 41 21 43 22 39 23
REMARK SMILES IDX 11 25 12 26 13 27 17 28 14 29 16 30 15 31 2 32 3 33 1 34
REMARK SMILES IDX 37 35 24 37 25 38 26 39 27 40 28 41 36 42 29 43 33 44 30 45
REMARK SMILES IDX 31 46 34 47 35 48 32 49
REMARK H PARENT 39 24 32 50
REMARK Flexibility Score: 90.00
ROOT
ATOM      1  C   UNL     1      96.663  81.911  83.548  1.00  0.00     0.264 C 
ENDROOT
BRANCH   1   2
ATOM      2  C   UNL     1      95.434  82.301  84.334  1.00  0.00    -0.033 C 
ATOM      3  C   UNL     1      94.348  81.503  84.299  1.00  0.00    -0.015 C 
BRANCH   3   4
ATOM      4  C   UNL     1      92.980  81.706  84.929  1.00  0.00     0.078 C 
ATOM      5  O   UNL     1      93.039  80.611  87.147  1.00  0.00    -0.319 OA
ATOM      6  C   UNL     1      92.897  81.907  86.489  1.00  0.00     0.095 C 
ATOM      7  C   UNL     1      92.312  79.527  86.537  1.00  0.00     0.289 C 
ATOM      8  C   UNL     1      91.468  82.508  86.819  1.00  0.00     0.023 C 
ATOM      9  O   UNL     1      92.689  79.354  85.173  1.00  0.00    -0.320 OA
ATOM     10  O   UNL     1      90.906  79.760  86.522  1.00  0.00    -0.313 OA
ATOM     11  C   UNL     1      92.061  80.507  84.591  1.00  0.00     0.170 C 
ATOM     12  C   UNL     1      90.383  81.977  85.834  1.00  0.00     0.049 C 
ATOM     13  C   UNL     1      90.988  82.309  88.266  1.00  0.00     0.011 C 
ATOM     14  C   UNL     1      90.707  80.566  85.342  1.00  0.00     0.122 C 
BRANCH   6  15
ATOM     15  C   UNL     1      94.108  82.739  87.003  1.00  0.00     0.086 C 
ATOM     16  C   UNL     1      94.512  83.954  86.143  1.00  0.00     0.140 CG0
ATOM     17  C   UNL     1      94.081  83.292  88.400  1.00  0.00    -0.010 C 
ATOM     18  C   UNL     1      94.987  84.946  87.183  1.00  0.00     0.190 C 
ATOM     19  G   UNL     1      95.599  83.606  85.127  1.00  0.00     0.000 G0
ATOM     20  C   UNL     1      94.593  84.520  88.539  1.00  0.00    -0.008 C 
ATOM     21  O   UNL     1      95.575  85.991  86.949  1.00  0.00    -0.291 OA
ATOM     22  C   UNL     1      94.804  85.330  89.756  1.00  0.00     0.048 C 
BRANCH  16  23
ATOM     23  O   UNL     1      93.417  84.610  85.525  1.00  0.00    -0.381 OA
ATOM     24  H   UNL     1      92.978  85.167  86.189  1.00  0.00     0.212 HD
ENDBRANCH  16  23
ENDBRANCH   6  15
BRANCH   7  25
ATOM     25  C   UNL     1      92.607  78.260  87.314  1.00  0.00     0.135 C 
BRANCH  25  26
ATOM     26  C   UNL     1      93.470  77.304  86.530  1.00  0.00    -0.040 A 
ATOM     27  C   UNL     1      92.879  76.318  85.740  1.00  0.00     0.004 A 
ATOM     28  C   UNL     1      94.860  77.405  86.593  1.00  0.00     0.004 A 
ATOM     29  C   UNL     1      93.677  75.433  85.014  1.00  0.00     0.000 A 
ATOM     30  C   UNL     1      95.658  76.521  85.868  1.00  0.00     0.000 A 
ATOM     31  C   UNL     1      95.066  75.535  85.078  1.00  0.00     0.000 A 
ENDBRANCH  25  26
ENDBRANCH   7  25
BRANCH  14  32
ATOM     32  C   UNL     1      89.596  79.966  84.544  1.00  0.00    -0.046 C 
ATOM     33  C   UNL     1      89.812  78.564  84.057  1.00  0.00     0.042 C 
ATOM     34  C   UNL     1      88.468  80.642  84.278  1.00  0.00     0.010 C 
ENDBRANCH  14  32
ENDBRANCH   3   4
BRANCH   2  35
ATOM     35  C   UNL     1      95.605  83.599  85.100  1.00  0.00     0.078 CG0
ATOM     36  G   UNL     1      94.530  83.951  86.128  1.00  0.00     0.000 G0
ENDBRANCH   2  35
ENDBRANCH   1   2
BRANCH   1  37
ATOM     37  O   UNL     1      96.632  80.523  83.290  1.00  0.00    -0.461 OA
BRANCH  37  38
ATOM     38  C   UNL     1      96.945  80.136  82.008  1.00  0.00     0.310 C 
ATOM     39  O   UNL     1      96.679  79.046  81.519  1.00  0.00    -0.252 OA
BRANCH  38  40
ATOM     40  C   UNL     1      97.663  81.261  81.301  1.00  0.00     0.158 C 
BRANCH  40  41
ATOM     41  C   UNL     1      97.543  81.185  79.801  1.00  0.00    -0.033 A 
ATOM     42  C   UNL     1      98.198  80.173  79.099  1.00  0.00     0.054 A 
ATOM     43  C   UNL     1      96.776  82.126  79.114  1.00  0.00     0.008 A 
ATOM     44  C   UNL     1      98.087  80.103  77.710  1.00  0.00     0.160 A 
ATOM     45  C   UNL     1      96.665  82.056  77.725  1.00  0.00     0.050 A 
ATOM     46  C   UNL     1      97.320  81.045  77.023  1.00  0.00     0.157 A 
BRANCH  44  47
ATOM     47  O   UNL     1      98.731  79.110  77.036  1.00  0.00    -0.493 OA
ATOM     48  C   UNL     1      97.927  78.057  76.507  1.00  0.00     0.278 C 
ENDBRANCH  44  47
BRANCH  46  49
ATOM     49  O   UNL     1      97.203  80.986  75.668  1.00  0.00    -0.504 OA
ATOM     50  H   UNL     1      97.934  81.484  75.265  1.00  0.00     0.293 HD
ENDBRANCH  46  49
ENDBRANCH  40  41
ENDBRANCH  38  40
ENDBRANCH  37  38
ENDBRANCH   1  37
TORSDOF 11
ENDMDL
MODEL 7
REMARK VINA RESULT:    -6.070      4.086      9.040
REMARK INTER + INTRA:         -11.510
REMARK INTER:                 -10.442
REMARK INTRA:                  -1.068
REMARK UNBOUND:                -0.827
REMARK SMILES C=C(C)[C@]12C[C@@H](C)[C@@]34O[C@](Cc5ccccc5)(O[C@@H]1[C@@H]3C=C(COC(=O)Cc1ccc(O)c(OC)c1)C[C@]1(O)C(=O)C(C)=C[C@@H]41)O2
REMARK SMILES IDX 23 1 22 2 21 3 20 4 9 5 8 6 10 7 6 8 18 9 46 10 19 11 5 12
REMARK SMILES IDX 7 13 4 14 45 15 38 16 44 17 40 18 42 20 41 21 43 22 39 23
REMARK SMILES IDX 11 25 12 26 13 27 17 28 14 29 16 30 15 31 2 32 3 33 1 34
REMARK SMILES IDX 37 35 24 37 25 38 26 39 27 40 28 41 36 42 29 43 33 44 30 45
REMARK SMILES IDX 31 46 34 47 35 48 32 49
REMARK H PARENT 39 24 32 50
REMARK Flexibility Score: 90.00
ROOT
ATOM      1  C   UNL     1      88.826  76.453  87.080  1.00  0.00     0.264 C 
ENDROOT
BRANCH   1   2
ATOM      2  C   UNL     1      89.119  77.926  87.252  1.00  0.00    -0.033 C 
ATOM      3  C   UNL     1      90.210  78.304  87.946  1.00  0.00    -0.015 C 
BRANCH   3   4
ATOM      4  C   UNL     1      90.678  79.701  88.322  1.00  0.00     0.078 C 
ATOM      5  O   UNL     1      92.214  80.451  86.534  1.00  0.00    -0.319 OA
ATOM      6  C   UNL     1      90.930  80.742  87.168  1.00  0.00     0.095 C 
ATOM      7  C   UNL     1      93.288  80.127  87.436  1.00  0.00     0.289 C 
ATOM      8  C   UNL     1      90.985  82.183  87.825  1.00  0.00     0.023 C 
ATOM      9  O   UNL     1      92.957  79.009  88.255  1.00  0.00    -0.320 OA
ATOM     10  O   UNL     1      93.576  81.192  88.339  1.00  0.00    -0.313 OA
ATOM     11  C   UNL     1      91.995  79.614  89.132  1.00  0.00     0.170 C 
ATOM     12  C   UNL     1      91.595  82.133  89.260  1.00  0.00     0.049 C 
ATOM     13  C   UNL     1      91.709  83.258  86.999  1.00  0.00     0.011 C 
ATOM     14  C   UNL     1      92.619  81.007  89.401  1.00  0.00     0.122 C 
BRANCH   6  15
ATOM     15  C   UNL     1      89.885  80.566  86.029  1.00  0.00     0.086 C 
ATOM     16  C   UNL     1      88.428  80.323  86.474  1.00  0.00     0.140 CG0
ATOM     17  C   UNL     1      89.756  81.631  84.976  1.00  0.00    -0.010 C 
ATOM     18  C   UNL     1      87.635  81.029  85.394  1.00  0.00     0.190 C 
ATOM     19  G   UNL     1      88.094  78.835  86.568  1.00  0.00     0.000 G0
ATOM     20  C   UNL     1      88.507  81.895  84.578  1.00  0.00    -0.008 C 
ATOM     21  O   UNL     1      86.427  80.946  85.233  1.00  0.00    -0.291 OA
ATOM     22  C   UNL     1      88.017  82.805  83.523  1.00  0.00     0.048 C 
BRANCH  16  23
ATOM     23  O   UNL     1      88.069  81.011  87.661  1.00  0.00    -0.381 OA
ATOM     24  H   UNL     1      87.165  81.353  87.556  1.00  0.00     0.212 HD
ENDBRANCH  16  23
ENDBRANCH   6  15
BRANCH   7  25
ATOM     25  C   UNL     1      94.522  79.813  86.614  1.00  0.00     0.135 C 
BRANCH  25  26
ATOM     26  C   UNL     1      94.885  80.945  85.685  1.00  0.00    -0.040 A 
ATOM     27  C   UNL     1      95.228  82.192  86.207  1.00  0.00     0.004 A 
ATOM     28  C   UNL     1      94.880  80.743  84.305  1.00  0.00     0.004 A 
ATOM     29  C   UNL     1      95.564  83.239  85.348  1.00  0.00     0.000 A 
ATOM     30  C   UNL     1      95.216  81.790  83.446  1.00  0.00     0.000 A 
ATOM     31  C   UNL     1      95.558  83.038  83.968  1.00  0.00     0.000 A 
ENDBRANCH  25  26
ENDBRANCH   7  25
BRANCH  14  32
ATOM     32  C   UNL     1      93.347  81.053  90.705  1.00  0.00    -0.046 C 
ATOM     33  C   UNL     1      92.499  81.200  91.933  1.00  0.00     0.042 C 
ATOM     34  C   UNL     1      94.684  80.968  90.774  1.00  0.00     0.010 C 
ENDBRANCH  14  32
ENDBRANCH   3   4
BRANCH   2  35
ATOM     35  C   UNL     1      88.094  78.818  86.577  1.00  0.00     0.078 CG0
ATOM     36  G   UNL     1      88.423  80.307  86.476  1.00  0.00     0.000 G0
ENDBRANCH   2  35
ENDBRANCH   1   2
BRANCH   1  37
ATOM     37  O   UNL     1      89.961  75.812  86.540  1.00  0.00    -0.461 OA
BRANCH  37  38
ATOM     38  C   UNL     1      89.872  75.423  85.223  1.00  0.00     0.310 C 
ATOM     39  O   UNL     1      89.577  76.160  84.292  1.00  0.00    -0.252 OA
BRANCH  38  40
ATOM     40  C   UNL     1      90.193  73.952  85.108  1.00  0.00     0.158 C 
BRANCH  40  41
ATOM     41  C   UNL     1      89.023  73.130  84.633  1.00  0.00    -0.033 A 
ATOM     42  C   UNL     1      89.113  72.416  83.437  1.00  0.00     0.054 A 
ATOM     43  C   UNL     1      87.852  73.082  85.387  1.00  0.00     0.008 A 
ATOM     44  C   UNL     1      88.029  71.655  82.996  1.00  0.00     0.160 A 
ATOM     45  C   UNL     1      86.768  72.321  84.947  1.00  0.00     0.050 A 
ATOM     46  C   UNL     1      86.857  71.608  83.752  1.00  0.00     0.157 A 
BRANCH  44  47
ATOM     47  O   UNL     1      88.128  70.963  81.827  1.00  0.00    -0.493 OA
ATOM     48  C   UNL     1      89.176  71.342  80.936  1.00  0.00     0.278 C 
ENDBRANCH  44  47
BRANCH  46  49
ATOM     49  O   UNL     1      85.794  70.868  83.333  1.00  0.00    -0.504 OA
ATOM     50  H   UNL     1      85.223  71.422  82.774  1.00  0.00     0.293 HD
ENDBRANCH  46  49
ENDBRANCH  40  41
ENDBRANCH  38  40
ENDBRANCH  37  38
ENDBRANCH   1  37
TORSDOF 11
ENDMDL
MODEL 8
REMARK VINA RESULT:    -5.959     29.735     32.524
REMARK INTER + INTRA:         -11.314
REMARK INTER:                 -10.811
REMARK INTRA:                  -0.503
REMARK UNBOUND:                -0.827
REMARK SMILES C=C(C)[C@]12C[C@@H](C)[C@@]34O[C@](Cc5ccccc5)(O[C@@H]1[C@@H]3C=C(COC(=O)Cc1ccc(O)c(OC)c1)C[C@]1(O)C(=O)C(C)=C[C@@H]41)O2
REMARK SMILES IDX 23 1 22 2 21 3 20 4 9 5 8 6 10 7 6 8 18 9 46 10 19 11 5 12
REMARK SMILES IDX 7 13 4 14 45 15 38 16 44 17 40 18 42 20 41 21 43 22 39 23
REMARK SMILES IDX 11 25 12 26 13 27 17 28 14 29 16 30 15 31 2 32 3 33 1 34
REMARK SMILES IDX 37 35 24 37 25 38 26 39 27 40 28 41 36 42 29 43 33 44 30 45
REMARK SMILES IDX 31 46 34 47 35 48 32 49
REMARK H PARENT 39 24 32 50
REMARK Flexibility Score: 90.00
ROOT
ATOM      1  C   UNL     1      65.230  87.813  70.554  1.00  0.00     0.264 C 
ENDROOT
BRANCH   1   2
ATOM      2  C   UNL     1      64.178  87.689  71.631  1.00  0.00    -0.033 C 
ATOM      3  C   UNL     1      63.074  86.951  71.393  1.00  0.00    -0.015 C 
BRANCH   3   4
ATOM      4  C   UNL     1      61.851  86.734  72.270  1.00  0.00     0.078 C 
ATOM      5  O   UNL     1      62.276  84.698  73.608  1.00  0.00    -0.319 OA
ATOM      6  C   UNL     1      62.060  86.139  73.712  1.00  0.00     0.095 C 
ATOM      7  C   UNL     1      61.415  84.010  72.680  1.00  0.00     0.289 C 
ATOM      8  C   UNL     1      60.736  86.411  74.539  1.00  0.00     0.023 C 
ATOM      9  O   UNL     1      61.532  84.552  71.368  1.00  0.00    -0.320 OA
ATOM     10  O   UNL     1      60.038  84.134  73.027  1.00  0.00    -0.313 OA
ATOM     11  C   UNL     1      60.847  85.801  71.549  1.00  0.00     0.170 C 
ATOM     12  C   UNL     1      59.472  86.366  73.626  1.00  0.00     0.049 C 
ATOM     13  C   UNL     1      60.519  85.499  75.757  1.00  0.00     0.011 C 
ATOM     14  C   UNL     1      59.655  85.401  72.454  1.00  0.00     0.122 C 
BRANCH   6  15
ATOM     15  C   UNL     1      63.371  86.684  74.350  1.00  0.00     0.086 C 
ATOM     16  C   UNL     1      63.653  88.187  74.145  1.00  0.00     0.140 CG0
ATOM     17  C   UNL     1      63.616  86.479  75.818  1.00  0.00    -0.010 C 
ATOM     18  C   UNL     1      64.341  88.568  75.439  1.00  0.00     0.190 C 
ATOM     19  G   UNL     1      64.525  88.448  72.919  1.00  0.00     0.000 G0
ATOM     20  C   UNL     1      64.185  87.508  76.453  1.00  0.00    -0.008 C 
ATOM     21  O   UNL     1      64.911  89.627  75.652  1.00  0.00    -0.291 OA
ATOM     22  C   UNL     1      64.640  87.629  77.854  1.00  0.00     0.048 C 
BRANCH  16  23
ATOM     23  O   UNL     1      62.486  88.993  74.132  1.00  0.00    -0.381 OA
ATOM     24  H   UNL     1      61.804  88.554  74.667  1.00  0.00     0.212 HD
ENDBRANCH  16  23
ENDBRANCH   6  15
BRANCH   7  25
ATOM     25  C   UNL     1      61.804  82.546  72.666  1.00  0.00     0.135 C 
BRANCH  25  26
ATOM     26  C   UNL     1      62.577  82.178  71.424  1.00  0.00    -0.040 A 
ATOM     27  C   UNL     1      63.919  81.807  71.522  1.00  0.00     0.004 A 
ATOM     28  C   UNL     1      61.952  82.208  70.178  1.00  0.00     0.004 A 
ATOM     29  C   UNL     1      64.634  81.467  70.374  1.00  0.00     0.000 A 
ATOM     30  C   UNL     1      62.667  81.868  69.030  1.00  0.00     0.000 A 
ATOM     31  C   UNL     1      64.009  81.498  69.128  1.00  0.00     0.000 A 
ENDBRANCH  25  26
ENDBRANCH   7  25
BRANCH  14  32
ATOM     32  C   UNL     1      58.398  85.203  71.671  1.00  0.00    -0.046 C 
ATOM     33  C   UNL     1      58.520  85.318  70.181  1.00  0.00     0.042 C 
ATOM     34  C   UNL     1      57.226  84.937  72.268  1.00  0.00     0.010 C 
ENDBRANCH  14  32
ENDBRANCH   3   4
BRANCH   2  35
ATOM     35  C   UNL     1      64.531  88.445  72.898  1.00  0.00     0.078 CG0
ATOM     36  G   UNL     1      63.660  88.193  74.128  1.00  0.00     0.000 G0
ENDBRANCH   2  35
ENDBRANCH   1   2
BRANCH   1  37
ATOM     37  O   UNL     1      65.717  86.530  70.228  1.00  0.00    -0.461 OA
BRANCH  37  38
ATOM     38  C   UNL     1      66.325  85.832  71.246  1.00  0.00     0.310 C 
ATOM     39  O   UNL     1      65.750  85.089  72.029  1.00  0.00    -0.252 OA
BRANCH  38  40
ATOM     40  C   UNL     1      67.806  86.127  71.246  1.00  0.00     0.158 C 
BRANCH  40  41
ATOM     41  C   UNL     1      68.474  85.782  69.940  1.00  0.00    -0.033 A 
ATOM     42  C   UNL     1      68.955  86.797  69.112  1.00  0.00     0.054 A 
ATOM     43  C   UNL     1      68.612  84.447  69.558  1.00  0.00     0.008 A 
ATOM     44  C   UNL     1      69.574  86.477  67.903  1.00  0.00     0.160 A 
ATOM     45  C   UNL     1      69.231  84.127  68.349  1.00  0.00     0.050 A 
ATOM     46  C   UNL     1      69.711  85.142  67.522  1.00  0.00     0.157 A 
BRANCH  44  47
ATOM     47  O   UNL     1      70.039  87.477  67.104  1.00  0.00    -0.493 OA
ATOM     48  C   UNL     1      69.159  87.958  66.089  1.00  0.00     0.278 C 
ENDBRANCH  44  47
BRANCH  46  49
ATOM     49  O   UNL     1      70.314  84.818  66.345  1.00  0.00    -0.504 OA
ATOM     50  H   UNL     1      71.256  85.053  66.396  1.00  0.00     0.293 HD
ENDBRANCH  46  49
ENDBRANCH  40  41
ENDBRANCH  38  40
ENDBRANCH  37  38
ENDBRANCH   1  37
TORSDOF 11
ENDMDL
MODEL 9
REMARK VINA RESULT:    -5.943     30.361     35.415
REMARK INTER + INTRA:         -11.286
REMARK INTER:                  -9.836
REMARK INTRA:                  -1.449
REMARK UNBOUND:                -0.827
REMARK SMILES C=C(C)[C@]12C[C@@H](C)[C@@]34O[C@](Cc5ccccc5)(O[C@@H]1[C@@H]3C=C(COC(=O)Cc1ccc(O)c(OC)c1)C[C@]1(O)C(=O)C(C)=C[C@@H]41)O2
REMARK SMILES IDX 23 1 22 2 21 3 20 4 9 5 8 6 10 7 6 8 18 9 46 10 19 11 5 12
REMARK SMILES IDX 7 13 4 14 45 15 38 16 44 17 40 18 42 20 41 21 43 22 39 23
REMARK SMILES IDX 11 25 12 26 13 27 17 28 14 29 16 30 15 31 2 32 3 33 1 34
REMARK SMILES IDX 37 35 24 37 25 38 26 39 27 40 28 41 36 42 29 43 33 44 30 45
REMARK SMILES IDX 31 46 34 47 35 48 32 49
REMARK H PARENT 39 24 32 50
REMARK Flexibility Score: 90.00
ROOT
ATOM      1  C   UNL     1      58.401  88.206  73.854  1.00  0.00     0.264 C 
ENDROOT
BRANCH   1   2
ATOM      2  C   UNL     1      59.661  87.631  74.457  1.00  0.00    -0.033 C 
ATOM      3  C   UNL     1      60.232  86.552  73.886  1.00  0.00    -0.015 C 
BRANCH   3   4
ATOM      4  C   UNL     1      61.442  85.749  74.336  1.00  0.00     0.078 C 
ATOM      5  O   UNL     1      63.413  86.714  73.195  1.00  0.00    -0.319 OA
ATOM      6  C   UNL     1      62.815  86.498  74.511  1.00  0.00     0.095 C 
ATOM      7  C   UNL     1      63.331  85.598  72.290  1.00  0.00     0.289 C 
ATOM      8  C   UNL     1      63.765  85.565  75.370  1.00  0.00     0.023 C 
ATOM      9  O   UNL     1      61.978  85.200  72.081  1.00  0.00    -0.320 OA
ATOM     10  O   UNL     1      63.998  84.443  72.792  1.00  0.00    -0.313 OA
ATOM     11  C   UNL     1      61.698  84.585  73.347  1.00  0.00     0.170 C 
ATOM     12  C   UNL     1      63.493  84.055  75.085  1.00  0.00     0.049 C 
ATOM     13  C   UNL     1      65.269  85.848  75.233  1.00  0.00     0.011 C 
ATOM     14  C   UNL     1      63.015  83.828  73.650  1.00  0.00     0.122 C 
BRANCH   6  15
ATOM     15  C   UNL     1      62.594  87.930  75.078  1.00  0.00     0.086 C 
ATOM     16  C   UNL     1      61.561  88.059  76.215  1.00  0.00     0.140 CG0
ATOM     17  C   UNL     1      63.774  88.711  75.587  1.00  0.00    -0.010 C 
ATOM     18  C   UNL     1      62.149  89.164  77.067  1.00  0.00     0.190 C 
ATOM     19  G   UNL     1      60.167  88.403  75.692  1.00  0.00     0.000 G0
ATOM     20  C   UNL     1      63.548  89.436  76.687  1.00  0.00    -0.008 C 
ATOM     21  O   UNL     1      61.577  89.732  77.985  1.00  0.00    -0.291 OA
ATOM     22  C   UNL     1      64.435  90.374  77.407  1.00  0.00     0.048 C 
BRANCH  16  23
ATOM     23  O   UNL     1      61.525  86.942  77.088  1.00  0.00    -0.381 OA
ATOM     24  H   UNL     1      62.432  86.749  77.377  1.00  0.00     0.212 HD
ENDBRANCH  16  23
ENDBRANCH   6  15
BRANCH   7  25
ATOM     25  C   UNL     1      63.954  86.008  70.971  1.00  0.00     0.135 C 
BRANCH  25  26
ATOM     26  C   UNL     1      65.405  85.606  70.881  1.00  0.00    -0.040 A 
ATOM     27  C   UNL     1      65.787  84.558  70.044  1.00  0.00     0.004 A 
ATOM     28  C   UNL     1      66.364  86.283  71.634  1.00  0.00     0.004 A 
ATOM     29  C   UNL     1      67.130  84.186  69.961  1.00  0.00     0.000 A 
ATOM     30  C   UNL     1      67.706  85.911  71.551  1.00  0.00     0.000 A 
ATOM     31  C   UNL     1      68.088  84.862  70.714  1.00  0.00     0.000 A 
ENDBRANCH  25  26
ENDBRANCH   7  25
BRANCH  14  32
ATOM     32  C   UNL     1      62.924  82.379  73.298  1.00  0.00    -0.046 C 
ATOM     33  C   UNL     1      62.117  81.521  74.228  1.00  0.00     0.042 C 
ATOM     34  C   UNL     1      63.528  81.873  72.213  1.00  0.00     0.010 C 
ENDBRANCH  14  32
ENDBRANCH   3   4
BRANCH   2  35
ATOM     35  C   UNL     1      60.136  88.393  75.680  1.00  0.00     0.078 CG0
ATOM     36  G   UNL     1      61.536  88.072  76.203  1.00  0.00     0.000 G0
ENDBRANCH   2  35
ENDBRANCH   1   2
BRANCH   1  37
ATOM     37  O   UNL     1      57.404  87.207  73.815  1.00  0.00    -0.461 OA
BRANCH  37  38
ATOM     38  C   UNL     1      56.224  87.500  74.458  1.00  0.00     0.310 C 
ATOM     39  O   UNL     1      55.386  86.677  74.798  1.00  0.00    -0.252 OA
BRANCH  38  40
ATOM     40  C   UNL     1      56.125  88.992  74.676  1.00  0.00     0.158 C 
BRANCH  40  41
ATOM     41  C   UNL     1      55.712  89.354  76.079  1.00  0.00    -0.033 A 
ATOM     42  C   UNL     1      56.553  89.057  77.152  1.00  0.00     0.054 A 
ATOM     43  C   UNL     1      54.490  89.988  76.305  1.00  0.00     0.008 A 
ATOM     44  C   UNL     1      56.171  89.392  78.451  1.00  0.00     0.160 A 
ATOM     45  C   UNL     1      54.108  90.324  77.604  1.00  0.00     0.050 A 
ATOM     46  C   UNL     1      54.948  90.026  78.677  1.00  0.00     0.157 A 
BRANCH  44  47
ATOM     47  O   UNL     1      56.999  89.096  79.491  1.00  0.00    -0.493 OA
ATOM     48  C   UNL     1      57.390  87.732  79.641  1.00  0.00     0.278 C 
ENDBRANCH  44  47
BRANCH  46  49
ATOM     49  O   UNL     1      54.565  90.359  79.941  1.00  0.00    -0.504 OA
ATOM     50  H   UNL     1      54.004  91.152  79.903  1.00  0.00     0.293 HD
ENDBRANCH  46  49
ENDBRANCH  40  41
ENDBRANCH  38  40
ENDBRANCH  37  38
ENDBRANCH   1  37
TORSDOF 11
ENDMDL
MODEL 10
REMARK VINA RESULT:    -5.644     30.787     34.894
REMARK INTER + INTRA:         -10.760
REMARK INTER:                  -8.086
REMARK INTRA:                  -2.674
REMARK UNBOUND:                -0.827
REMARK SMILES C=C(C)[C@]12C[C@@H](C)[C@@]34O[C@](Cc5ccccc5)(O[C@@H]1[C@@H]3C=C(COC(=O)Cc1ccc(O)c(OC)c1)C[C@]1(O)C(=O)C(C)=C[C@@H]41)O2
REMARK SMILES IDX 23 1 22 2 21 3 20 4 9 5 8 6 10 7 6 8 18 9 46 10 19 11 5 12
REMARK SMILES IDX 7 13 4 14 45 15 38 16 44 17 40 18 42 20 41 21 43 22 39 23
REMARK SMILES IDX 11 25 12 26 13 27 17 28 14 29 16 30 15 31 2 32 3 33 1 34
REMARK SMILES IDX 37 35 24 37 25 38 26 39 27 40 28 41 36 42 29 43 33 44 30 45
REMARK SMILES IDX 31 46 34 47 35 48 32 49
REMARK H PARENT 39 24 32 50
REMARK Flexibility Score: 90.00
ROOT
ATOM      1  C   UNL     1      62.740  90.277  71.195  1.00  0.00     0.264 C 
ENDROOT
BRANCH   1   2
ATOM      2  C   UNL     1      61.775  89.220  70.711  1.00  0.00    -0.033 C 
ATOM      3  C   UNL     1      62.079  87.918  70.888  1.00  0.00    -0.015 C 
BRANCH   3   4
ATOM      4  C   UNL     1      61.325  86.680  70.430  1.00  0.00     0.078 C 
ATOM      5  O   UNL     1      59.825  86.023  72.284  1.00  0.00    -0.319 OA
ATOM      6  C   UNL     1      59.835  86.495  70.901  1.00  0.00     0.095 C 
ATOM      7  C   UNL     1      60.794  85.004  72.595  1.00  0.00     0.289 C 
ATOM      8  C   UNL     1      59.170  85.398  69.970  1.00  0.00     0.023 C 
ATOM      9  O   UNL     1      62.118  85.444  72.305  1.00  0.00    -0.320 OA
ATOM     10  O   UNL     1      60.603  83.823  71.821  1.00  0.00    -0.313 OA
ATOM     11  C   UNL     1      62.088  85.407  70.870  1.00  0.00     0.170 C 
ATOM     12  C   UNL     1      60.207  84.320  69.528  1.00  0.00     0.049 C 
ATOM     13  C   UNL     1      57.927  84.704  70.551  1.00  0.00     0.011 C 
ATOM     14  C   UNL     1      61.291  84.109  70.586  1.00  0.00     0.122 C 
BRANCH   6  15
ATOM     15  C   UNL     1      59.097  87.864  70.952  1.00  0.00     0.086 C 
ATOM     16  C   UNL     1      59.366  88.825  69.776  1.00  0.00     0.140 CG0
ATOM     17  C   UNL     1      57.601  87.890  71.089  1.00  0.00    -0.010 C 
ATOM     18  C   UNL     1      58.034  89.527  69.617  1.00  0.00     0.190 C 
ATOM     19  G   UNL     1      60.508  89.797  70.074  1.00  0.00     0.000 G0
ATOM     20  C   UNL     1      56.976  88.831  70.373  1.00  0.00    -0.008 C 
ATOM     21  O   UNL     1      57.830  90.509  68.919  1.00  0.00    -0.291 OA
ATOM     22  C   UNL     1      55.546  89.198  70.325  1.00  0.00     0.048 C 
BRANCH  16  23
ATOM     23  O   UNL     1      59.555  88.172  68.532  1.00  0.00    -0.381 OA
ATOM     24  H   UNL     1      60.357  88.529  68.115  1.00  0.00     0.212 HD
ENDBRANCH  16  23
ENDBRANCH   6  15
BRANCH   7  25
ATOM     25  C   UNL     1      60.676  84.669  74.068  1.00  0.00     0.135 C 
BRANCH  25  26
ATOM     26  C   UNL     1      61.973  84.892  74.804  1.00  0.00    -0.040 A 
ATOM     27  C   UNL     1      62.244  86.134  75.379  1.00  0.00     0.004 A 
ATOM     28  C   UNL     1      62.902  83.857  74.911  1.00  0.00     0.004 A 
ATOM     29  C   UNL     1      63.444  86.341  76.060  1.00  0.00     0.000 A 
ATOM     30  C   UNL     1      64.102  84.064  75.593  1.00  0.00     0.000 A 
ATOM     31  C   UNL     1      64.372  85.306  76.167  1.00  0.00     0.000 A 
ENDBRANCH  25  26
ENDBRANCH   7  25
BRANCH  14  32
ATOM     32  C   UNL     1      62.188  82.958  70.268  1.00  0.00    -0.046 C 
ATOM     33  C   UNL     1      62.862  82.301  71.436  1.00  0.00     0.042 C 
ATOM     34  C   UNL     1      62.380  82.534  69.010  1.00  0.00     0.010 C 
ENDBRANCH  14  32
ENDBRANCH   3   4
BRANCH   2  35
ATOM     35  C   UNL     1      60.530  89.801  70.067  1.00  0.00     0.078 CG0
ATOM     36  G   UNL     1      59.374  88.841  69.789  1.00  0.00     0.000 G0
ENDBRANCH   2  35
ENDBRANCH   1   2
BRANCH   1  37
ATOM     37  O   UNL     1      63.303  89.868  72.423  1.00  0.00    -0.461 OA
BRANCH  37  38
ATOM     38  C   UNL     1      64.672  89.744  72.453  1.00  0.00     0.310 C 
ATOM     39  O   UNL     1      65.458  90.496  71.895  1.00  0.00    -0.252 OA
BRANCH  38  40
ATOM     40  C   UNL     1      65.051  88.537  73.280  1.00  0.00     0.158 C 
BRANCH  40  41
ATOM     41  C   UNL     1      65.546  87.385  72.446  1.00  0.00    -0.033 A 
ATOM     42  C   UNL     1      66.104  87.623  71.189  1.00  0.00     0.054 A 
ATOM     43  C   UNL     1      65.448  86.080  72.929  1.00  0.00     0.008 A 
ATOM     44  C   UNL     1      66.563  86.555  70.416  1.00  0.00     0.160 A 
ATOM     45  C   UNL     1      65.907  85.013  72.157  1.00  0.00     0.050 A 
ATOM     46  C   UNL     1      66.464  85.250  70.901  1.00  0.00     0.157 A 
BRANCH  44  47
ATOM     47  O   UNL     1      67.105  86.800  69.191  1.00  0.00    -0.493 OA
ATOM     48  C   UNL     1      68.318  87.551  69.157  1.00  0.00     0.278 C 
ENDBRANCH  44  47
BRANCH  46  49
ATOM     49  O   UNL     1      66.909  84.201  70.156  1.00  0.00    -0.504 OA
ATOM     50  H   UNL     1      66.203  83.921  69.549  1.00  0.00     0.293 HD
ENDBRANCH  46  49
ENDBRANCH  40  41
ENDBRANCH  38  40
ENDBRANCH  37  38
ENDBRANCH   1  37
TORSDOF 11
ENDMDL
