MODEL 1
REMARK VINA RESULT:    -5.846      0.000      0.000
REMARK INTER + INTRA:         -10.425
REMARK INTER:                  -9.434
REMARK INTRA:                  -0.991
REMARK UNBOUND:                -0.991
REMARK SMILES COc1cc(CNC(=O)CCCCCCC(C)C)ccc1O
REMARK SMILES IDX 11 1 10 2 8 3 7 4 9 6 6 7 5 8 3 9 21 10 4 11 20 12 19 13
REMARK SMILES IDX 2 14 1 15 22 16 12 18 13 19 14 20 15 21 16 22 17 23 18 24
REMARK H PARENT 7 5 22 17
REMARK Flexibility Score: inf
ROOT
ATOM      1  C   UNL     1      93.357  97.572  75.549  1.00  0.00     0.010 C 
ENDROOT
BRANCH   1   2
ATOM      2  C   UNL     1      94.898  97.376  75.573  1.00  0.00     0.100 C 
BRANCH   2   3
ATOM      3  C   UNL     1      95.566  98.126  76.660  1.00  0.00     0.220 C 
ATOM      4  N   UNL     1      96.033  97.471  77.763  1.00  0.00    -0.352 N 
ATOM      5  H   UNL     1      95.843  96.480  77.776  1.00  0.00     0.163 HD
ATOM      6  O   UNL     1      95.714  99.366  76.533  1.00  0.00    -0.275 OA
BRANCH   4   7
ATOM      7  C   UNL     1      96.744  98.081  78.845  1.00  0.00     0.151 C 
BRANCH   7   8
ATOM      8  C   UNL     1      96.849  97.205  80.045  1.00  0.00    -0.025 A 
ATOM      9  C   UNL     1      96.292  95.111  81.208  1.00  0.00     0.160 A 
ATOM     10  C   UNL     1      97.079  95.511  82.310  1.00  0.00     0.157 A 
ATOM     11  C   UNL     1      96.168  95.968  80.094  1.00  0.00     0.056 A 
ATOM     12  C   UNL     1      97.731  96.757  82.289  1.00  0.00     0.050 A 
ATOM     13  C   UNL     1      97.626  97.595  81.161  1.00  0.00     0.009 A 
BRANCH   9  14
ATOM     14  O   UNL     1      95.623  93.918  81.234  1.00  0.00    -0.493 OA
ATOM     15  C   UNL     1      94.583  93.815  80.245  1.00  0.00     0.278 C 
ENDBRANCH   9  14
BRANCH  10  16
ATOM     16  O   UNL     1      97.216  94.707  83.397  1.00  0.00    -0.504 OA
ATOM     17  H   UNL     1      98.112  94.364  83.430  1.00  0.00     0.293 HD
ENDBRANCH  10  16
ENDBRANCH   7   8
ENDBRANCH   4   7
ENDBRANCH   2   3
ENDBRANCH   1   2
BRANCH   1  18
ATOM     18  C   UNL     1      92.619  96.538  76.447  1.00  0.00     0.001 C 
BRANCH  18  19
ATOM     19  C   UNL     1      93.473  95.285  76.790  1.00  0.00     0.000 C 
BRANCH  19  20
ATOM     20  C   UNL     1      92.585  94.024  76.985  1.00  0.00     0.000 C 
BRANCH  20  21
ATOM     21  C   UNL     1      91.528  94.157  78.116  1.00  0.00     0.003 C 
BRANCH  21  22
ATOM     22  C   UNL     1      90.054  93.894  77.663  1.00  0.00    -0.017 C 
ATOM     23  C   UNL     1      89.334  95.236  77.352  1.00  0.00     0.007 C 
ATOM     24  C   UNL     1      89.228  93.054  78.681  1.00  0.00     0.007 C 
ENDBRANCH  21  22
ENDBRANCH  20  21
ENDBRANCH  19  20
ENDBRANCH  18  19
ENDBRANCH   1  18
TORSDOF 11
ENDMDL
MODEL 2
REMARK VINA RESULT:    -5.843      2.997      4.864
REMARK INTER + INTRA:         -10.421
REMARK INTER:                  -9.494
REMARK INTRA:                  -0.927
REMARK UNBOUND:                -0.991
REMARK SMILES COc1cc(CNC(=O)CCCCCCC(C)C)ccc1O
REMARK SMILES IDX 11 1 10 2 8 3 7 4 9 6 6 7 5 8 3 9 21 10 4 11 20 12 19 13
REMARK SMILES IDX 2 14 1 15 22 16 12 18 13 19 14 20 15 21 16 22 17 23 18 24
REMARK H PARENT 7 5 22 17
REMARK Flexibility Score: inf
ROOT
ATOM      1  C   UNL     1      95.622  94.400  79.195  1.00  0.00     0.010 C 
ENDROOT
BRANCH   1   2
ATOM      2  C   UNL     1      95.121  93.579  80.416  1.00  0.00     0.100 C 
BRANCH   2   3
ATOM      3  C   UNL     1      95.636  94.081  81.709  1.00  0.00     0.220 C 
ATOM      4  N   UNL     1      96.586  95.061  81.739  1.00  0.00    -0.352 N 
ATOM      5  H   UNL     1      96.915  95.357  80.832  1.00  0.00     0.163 HD
ATOM      6  O   UNL     1      95.164  93.605  82.771  1.00  0.00    -0.275 OA
BRANCH   4   7
ATOM      7  C   UNL     1      97.115  95.663  82.926  1.00  0.00     0.151 C 
BRANCH   7   8
ATOM      8  C   UNL     1      96.578  97.028  83.180  1.00  0.00    -0.025 A 
ATOM      9  C   UNL     1      96.299  98.962  84.673  1.00  0.00     0.160 A 
ATOM     10  C   UNL     1      95.597  99.648  83.658  1.00  0.00     0.157 A 
ATOM     11  C   UNL     1      96.767  97.653  84.434  1.00  0.00     0.056 A 
ATOM     12  C   UNL     1      95.369  99.021  82.419  1.00  0.00     0.050 A 
ATOM     13  C   UNL     1      95.865  97.725  82.177  1.00  0.00     0.009 A 
BRANCH   9  14
ATOM     14  O   UNL     1      96.491  99.547  85.895  1.00  0.00    -0.493 OA
ATOM     15  C   UNL     1      95.718  98.950  86.952  1.00  0.00     0.278 C 
ENDBRANCH   9  14
BRANCH  10  16
ATOM     16  O   UNL     1      95.133 100.909  83.861  1.00  0.00    -0.504 OA
ATOM     17  H   UNL     1      95.823 101.541  83.645  1.00  0.00     0.293 HD
ENDBRANCH  10  16
ENDBRANCH   7   8
ENDBRANCH   4   7
ENDBRANCH   2   3
ENDBRANCH   1   2
BRANCH   1  18
ATOM     18  C   UNL     1      94.481  94.697  78.180  1.00  0.00     0.001 C 
BRANCH  18  19
ATOM     19  C   UNL     1      93.066  94.736  78.822  1.00  0.00     0.000 C 
BRANCH  19  20
ATOM     20  C   UNL     1      92.168  95.820  78.160  1.00  0.00     0.000 C 
BRANCH  20  21
ATOM     21  C   UNL     1      90.955  95.249  77.374  1.00  0.00     0.003 C 
BRANCH  21  22
ATOM     22  C   UNL     1      90.622  93.754  77.688  1.00  0.00    -0.017 C 
ATOM     23  C   UNL     1      90.803  92.878  76.416  1.00  0.00     0.007 C 
ATOM     24  C   UNL     1      89.205  93.544  78.298  1.00  0.00     0.007 C 
ENDBRANCH  21  22
ENDBRANCH  20  21
ENDBRANCH  19  20
ENDBRANCH  18  19
ENDBRANCH   1  18
TORSDOF 11
ENDMDL
MODEL 3
REMARK VINA RESULT:    -5.834      1.415      2.374
REMARK INTER + INTRA:         -10.407
REMARK INTER:                  -9.317
REMARK INTRA:                  -1.090
REMARK UNBOUND:                -0.991
REMARK SMILES COc1cc(CNC(=O)CCCCCCC(C)C)ccc1O
REMARK SMILES IDX 11 1 10 2 8 3 7 4 9 6 6 7 5 8 3 9 21 10 4 11 20 12 19 13
REMARK SMILES IDX 2 14 1 15 22 16 12 18 13 19 14 20 15 21 16 22 17 23 18 24
REMARK H PARENT 7 5 22 17
REMARK Flexibility Score: inf
ROOT
ATOM      1  C   UNL     1      93.712  97.931  75.179  1.00  0.00     0.010 C 
ENDROOT
BRANCH   1   2
ATOM      2  C   UNL     1      95.259  97.822  75.273  1.00  0.00     0.100 C 
BRANCH   2   3
ATOM      3  C   UNL     1      95.823  98.512  76.454  1.00  0.00     0.220 C 
ATOM      4  N   UNL     1      96.061  97.823  77.607  1.00  0.00    -0.352 N 
ATOM      5  H   UNL     1      95.782  96.853  77.583  1.00  0.00     0.163 HD
ATOM      6  O   UNL     1      96.099  99.734  76.363  1.00  0.00    -0.275 OA
BRANCH   4   7
ATOM      7  C   UNL     1      96.655  98.369  78.790  1.00  0.00     0.151 C 
BRANCH   7   8
ATOM      8  C   UNL     1      96.190  97.707  80.039  1.00  0.00    -0.025 A 
ATOM      9  C   UNL     1      96.237  97.514  82.491  1.00  0.00     0.160 A 
ATOM     10  C   UNL     1      95.277  96.480  82.430  1.00  0.00     0.157 A 
ATOM     11  C   UNL     1      96.699  98.105  81.296  1.00  0.00     0.056 A 
ATOM     12  C   UNL     1      94.792  96.048  81.182  1.00  0.00     0.050 A 
ATOM     13  C   UNL     1      95.236  96.663  79.995  1.00  0.00     0.009 A 
BRANCH   9  14
ATOM     14  O   UNL     1      96.745  97.914  83.697  1.00  0.00    -0.493 OA
ATOM     15  C   UNL     1      98.020  97.328  84.012  1.00  0.00     0.278 C 
ENDBRANCH   9  14
BRANCH  10  16
ATOM     16  O   UNL     1      94.815  95.891  83.564  1.00  0.00    -0.504 OA
ATOM     17  H   UNL     1      95.504  95.338  83.940  1.00  0.00     0.293 HD
ENDBRANCH  10  16
ENDBRANCH   7   8
ENDBRANCH   4   7
ENDBRANCH   2   3
ENDBRANCH   1   2
BRANCH   1  18
ATOM     18  C   UNL     1      92.994  96.900  76.097  1.00  0.00     0.001 C 
BRANCH  18  19
ATOM     19  C   UNL     1      93.832  95.621  76.377  1.00  0.00     0.000 C 
BRANCH  19  20
ATOM     20  C   UNL     1      92.956  94.483  76.973  1.00  0.00     0.000 C 
BRANCH  20  21
ATOM     21  C   UNL     1      92.153  94.893  78.238  1.00  0.00     0.003 C 
BRANCH  21  22
ATOM     22  C   UNL     1      90.680  94.368  78.271  1.00  0.00    -0.017 C 
ATOM     23  C   UNL     1      90.600  92.935  77.674  1.00  0.00     0.007 C 
ATOM     24  C   UNL     1      89.664  95.311  77.562  1.00  0.00     0.007 C 
ENDBRANCH  21  22
ENDBRANCH  20  21
ENDBRANCH  19  20
ENDBRANCH  18  19
ENDBRANCH   1  18
TORSDOF 11
ENDMDL
MODEL 4
REMARK VINA RESULT:    -5.807     22.934     26.532
REMARK INTER + INTRA:         -10.362
REMARK INTER:                  -9.312
REMARK INTRA:                  -1.050
REMARK UNBOUND:                -0.991
REMARK SMILES COc1cc(CNC(=O)CCCCCCC(C)C)ccc1O
REMARK SMILES IDX 11 1 10 2 8 3 7 4 9 6 6 7 5 8 3 9 21 10 4 11 20 12 19 13
REMARK SMILES IDX 2 14 1 15 22 16 12 18 13 19 14 20 15 21 16 22 17 23 18 24
REMARK H PARENT 7 5 22 17
REMARK Flexibility Score: inf
ROOT
ATOM      1  C   UNL     1      77.153  86.159  66.469  1.00  0.00     0.010 C 
ENDROOT
BRANCH   1   2
ATOM      2  C   UNL     1      77.878  85.259  67.507  1.00  0.00     0.100 C 
BRANCH   2   3
ATOM      3  C   UNL     1      78.032  83.857  67.060  1.00  0.00     0.220 C 
ATOM      4  N   UNL     1      77.088  83.280  66.261  1.00  0.00    -0.352 N 
ATOM      5  H   UNL     1      76.293  83.868  66.057  1.00  0.00     0.163 HD
ATOM      6  O   UNL     1      79.057  83.223  67.410  1.00  0.00    -0.275 OA
BRANCH   4   7
ATOM      7  C   UNL     1      77.159  81.956  65.721  1.00  0.00     0.151 C 
BRANCH   7   8
ATOM      8  C   UNL     1      75.921  81.549  65.001  1.00  0.00    -0.025 A 
ATOM      9  C   UNL     1      73.505  81.094  65.010  1.00  0.00     0.160 A 
ATOM     10  C   UNL     1      73.549  80.817  63.626  1.00  0.00     0.157 A 
ATOM     11  C   UNL     1      74.692  81.439  65.689  1.00  0.00     0.056 A 
ATOM     12  C   UNL     1      74.774  80.886  62.938  1.00  0.00     0.050 A 
ATOM     13  C   UNL     1      75.950  81.259  63.616  1.00  0.00     0.009 A 
BRANCH   9  14
ATOM     14  O   UNL     1      72.326  80.991  65.697  1.00  0.00    -0.493 OA
ATOM     15  C   UNL     1      71.858  82.241  66.235  1.00  0.00     0.278 C 
ENDBRANCH   9  14
BRANCH  10  16
ATOM     16  O   UNL     1      72.422  80.481  62.946  1.00  0.00    -0.504 OA
ATOM     17  H   UNL     1      71.787  80.091  63.553  1.00  0.00     0.293 HD
ENDBRANCH  10  16
ENDBRANCH   7   8
ENDBRANCH   4   7
ENDBRANCH   2   3
ENDBRANCH   1   2
BRANCH   1  18
ATOM     18  C   UNL     1      77.404  87.672  66.725  1.00  0.00     0.001 C 
BRANCH  18  19
ATOM     19  C   UNL     1      76.113  88.537  66.687  1.00  0.00     0.000 C 
BRANCH  19  20
ATOM     20  C   UNL     1      75.479  88.681  68.099  1.00  0.00     0.000 C 
BRANCH  20  21
ATOM     21  C   UNL     1      74.391  87.619  68.419  1.00  0.00     0.003 C 
BRANCH  21  22
ATOM     22  C   UNL     1      74.405  87.098  69.894  1.00  0.00    -0.017 C 
ATOM     23  C   UNL     1      75.058  88.149  70.835  1.00  0.00     0.007 C 
ATOM     24  C   UNL     1      75.095  85.713  70.061  1.00  0.00     0.007 C 
ENDBRANCH  21  22
ENDBRANCH  20  21
ENDBRANCH  19  20
ENDBRANCH  18  19
ENDBRANCH   1  18
TORSDOF 11
ENDMDL
MODEL 5
REMARK VINA RESULT:    -5.674     13.010     15.689
REMARK INTER + INTRA:         -10.148
REMARK INTER:                  -9.441
REMARK INTRA:                  -0.707
REMARK UNBOUND:                -0.991
REMARK SMILES COc1cc(CNC(=O)CCCCCCC(C)C)ccc1O
REMARK SMILES IDX 11 1 10 2 8 3 7 4 9 6 6 7 5 8 3 9 21 10 4 11 20 12 19 13
REMARK SMILES IDX 2 14 1 15 22 16 12 18 13 19 14 20 15 21 16 22 17 23 18 24
REMARK H PARENT 7 5 22 17
REMARK Flexibility Score: inf
ROOT
ATOM      1  C   UNL     1      97.138  83.239  84.751  1.00  0.00     0.010 C 
ENDROOT
BRANCH   1   2
ATOM      2  C   UNL     1      97.157  84.746  85.129  1.00  0.00     0.100 C 
BRANCH   2   3
ATOM      3  C   UNL     1      96.031  85.145  86.002  1.00  0.00     0.220 C 
ATOM      4  N   UNL     1      95.199  84.201  86.529  1.00  0.00    -0.352 N 
ATOM      5  H   UNL     1      95.398  83.255  86.237  1.00  0.00     0.163 HD
ATOM      6  O   UNL     1      95.875  86.363  86.263  1.00  0.00    -0.275 OA
BRANCH   4   7
ATOM      7  C   UNL     1      94.117  84.462  87.429  1.00  0.00     0.151 C 
BRANCH   7   8
ATOM      8  C   UNL     1      93.092  83.382  87.444  1.00  0.00    -0.025 A 
ATOM      9  C   UNL     1      90.943  82.497  88.247  1.00  0.00     0.160 A 
ATOM     10  C   UNL     1      91.114  81.348  87.444  1.00  0.00     0.157 A 
ATOM     11  C   UNL     1      91.941  83.495  88.255  1.00  0.00     0.056 A 
ATOM     12  C   UNL     1      92.274  81.207  86.662  1.00  0.00     0.050 A 
ATOM     13  C   UNL     1      93.252  82.220  86.653  1.00  0.00     0.009 A 
BRANCH   9  14
ATOM     14  O   UNL     1      89.837  82.627  89.041  1.00  0.00    -0.493 OA
ATOM     15  C   UNL     1      90.142  82.899  90.421  1.00  0.00     0.278 C 
ENDBRANCH   9  14
BRANCH  10  16
ATOM     16  O   UNL     1      90.170  80.371  87.418  1.00  0.00    -0.504 OA
ATOM     17  H   UNL     1      89.328  80.747  87.153  1.00  0.00     0.293 HD
ENDBRANCH  10  16
ENDBRANCH   7   8
ENDBRANCH   4   7
ENDBRANCH   2   3
ENDBRANCH   1   2
BRANCH   1  18
ATOM     18  C   UNL     1      98.529  82.735  84.272  1.00  0.00     0.001 C 
BRANCH  18  19
ATOM     19  C   UNL     1      98.512  82.105  82.851  1.00  0.00     0.000 C 
BRANCH  19  20
ATOM     20  C   UNL     1      98.248  83.174  81.754  1.00  0.00     0.000 C 
BRANCH  20  21
ATOM     21  C   UNL     1      99.252  83.132  80.569  1.00  0.00     0.003 C 
BRANCH  21  22
ATOM     22  C   UNL     1      98.599  82.882  79.171  1.00  0.00    -0.017 C 
ATOM     23  C   UNL     1      97.180  83.515  79.113  1.00  0.00     0.007 C 
ATOM     24  C   UNL     1      98.542  81.380  78.766  1.00  0.00     0.007 C 
ENDBRANCH  21  22
ENDBRANCH  20  21
ENDBRANCH  19  20
ENDBRANCH  18  19
ENDBRANCH   1  18
TORSDOF 11
ENDMDL
MODEL 6
REMARK VINA RESULT:    -5.464     23.353     26.676
REMARK INTER + INTRA:          -9.810
REMARK INTER:                  -7.822
REMARK INTRA:                  -1.988
REMARK UNBOUND:                -0.991
REMARK SMILES COc1cc(CNC(=O)CCCCCCC(C)C)ccc1O
REMARK SMILES IDX 11 1 10 2 8 3 7 4 9 6 6 7 5 8 3 9 21 10 4 11 20 12 19 13
REMARK SMILES IDX 2 14 1 15 22 16 12 18 13 19 14 20 15 21 16 22 17 23 18 24
REMARK H PARENT 7 5 22 17
REMARK Flexibility Score: inf
ROOT
ATOM      1  C   UNL     1      71.327  82.645  63.832  1.00  0.00     0.010 C 
ENDROOT
BRANCH   1   2
ATOM      2  C   UNL     1      71.720  81.858  65.112  1.00  0.00     0.100 C 
BRANCH   2   3
ATOM      3  C   UNL     1      73.134  81.421  65.119  1.00  0.00     0.220 C 
ATOM      4  N   UNL     1      73.997  81.894  66.064  1.00  0.00    -0.352 N 
ATOM      5  H   UNL     1      73.599  82.574  66.695  1.00  0.00     0.163 HD
ATOM      6  O   UNL     1      73.511  80.591  64.256  1.00  0.00    -0.275 OA
BRANCH   4   7
ATOM      7  C   UNL     1      75.366  81.500  66.204  1.00  0.00     0.151 C 
BRANCH   7   8
ATOM      8  C   UNL     1      76.219  82.551  66.823  1.00  0.00    -0.025 A 
ATOM      9  C   UNL     1      76.521  84.349  68.474  1.00  0.00     0.160 A 
ATOM     10  C   UNL     1      77.852  84.528  68.039  1.00  0.00     0.157 A 
ATOM     11  C   UNL     1      75.710  83.377  67.852  1.00  0.00     0.056 A 
ATOM     12  C   UNL     1      78.358  83.740  66.989  1.00  0.00     0.050 A 
ATOM     13  C   UNL     1      77.552  82.751  66.392  1.00  0.00     0.009 A 
BRANCH   9  14
ATOM     14  O   UNL     1      76.008  85.137  69.468  1.00  0.00    -0.493 OA
ATOM     15  C   UNL     1      74.693  85.648  69.181  1.00  0.00     0.278 C 
ENDBRANCH   9  14
BRANCH  10  16
ATOM     16  O   UNL     1      78.656  85.458  68.619  1.00  0.00    -0.504 OA
ATOM     17  H   UNL     1      78.460  85.509  69.557  1.00  0.00     0.293 HD
ENDBRANCH  10  16
ENDBRANCH   7   8
ENDBRANCH   4   7
ENDBRANCH   2   3
ENDBRANCH   1   2
BRANCH   1  18
ATOM     18  C   UNL     1      72.375  83.734  63.467  1.00  0.00     0.001 C 
BRANCH  18  19
ATOM     19  C   UNL     1      72.536  84.836  64.552  1.00  0.00     0.000 C 
BRANCH  19  20
ATOM     20  C   UNL     1      74.031  85.196  64.784  1.00  0.00     0.000 C 
BRANCH  20  21
ATOM     21  C   UNL     1      75.007  84.554  63.759  1.00  0.00     0.003 C 
BRANCH  21  22
ATOM     22  C   UNL     1      76.349  85.333  63.563  1.00  0.00    -0.017 C 
ATOM     23  C   UNL     1      77.506  84.348  63.238  1.00  0.00     0.007 C 
ATOM     24  C   UNL     1      76.728  86.239  64.771  1.00  0.00     0.007 C 
ENDBRANCH  21  22
ENDBRANCH  20  21
ENDBRANCH  19  20
ENDBRANCH  18  19
ENDBRANCH   1  18
TORSDOF 11
ENDMDL
MODEL 7
REMARK VINA RESULT:    -5.455     22.719     26.543
REMARK INTER + INTRA:          -9.795
REMARK INTER:                  -8.347
REMARK INTRA:                  -1.448
REMARK UNBOUND:                -0.991
REMARK SMILES COc1cc(CNC(=O)CCCCCCC(C)C)ccc1O
REMARK SMILES IDX 11 1 10 2 8 3 7 4 9 6 6 7 5 8 3 9 21 10 4 11 20 12 19 13
REMARK SMILES IDX 2 14 1 15 22 16 12 18 13 19 14 20 15 21 16 22 17 23 18 24
REMARK H PARENT 7 5 22 17
REMARK Flexibility Score: inf
ROOT
ATOM      1  C   UNL     1      71.909  84.144  64.575  1.00  0.00     0.010 C 
ENDROOT
BRANCH   1   2
ATOM      2  C   UNL     1      72.942  84.129  63.415  1.00  0.00     0.100 C 
BRANCH   2   3
ATOM      3  C   UNL     1      73.975  85.182  63.537  1.00  0.00     0.220 C 
ATOM      4  N   UNL     1      75.299  84.854  63.525  1.00  0.00    -0.352 N 
ATOM      5  H   UNL     1      75.487  83.864  63.473  1.00  0.00     0.163 HD
ATOM      6  O   UNL     1      73.605  86.379  63.627  1.00  0.00    -0.275 OA
BRANCH   4   7
ATOM      7  C   UNL     1      76.382  85.789  63.578  1.00  0.00     0.151 C 
BRANCH   7   8
ATOM      8  C   UNL     1      76.882  86.030  64.959  1.00  0.00    -0.025 A 
ATOM      9  C   UNL     1      77.590  85.163  67.149  1.00  0.00     0.160 A 
ATOM     10  C   UNL     1      77.878  86.477  67.578  1.00  0.00     0.157 A 
ATOM     11  C   UNL     1      77.078  84.951  65.852  1.00  0.00     0.056 A 
ATOM     12  C   UNL     1      77.651  87.562  66.713  1.00  0.00     0.050 A 
ATOM     13  C   UNL     1      77.167  87.341  65.409  1.00  0.00     0.009 A 
BRANCH   9  14
ATOM     14  O   UNL     1      77.770  84.104  67.997  1.00  0.00    -0.493 OA
ATOM     15  C   UNL     1      76.621  83.812  68.812  1.00  0.00     0.278 C 
ENDBRANCH   9  14
BRANCH  10  16
ATOM     16  O   UNL     1      78.371  86.710  68.823  1.00  0.00    -0.504 OA
ATOM     17  H   UNL     1      77.780  87.302  69.295  1.00  0.00     0.293 HD
ENDBRANCH  10  16
ENDBRANCH   7   8
ENDBRANCH   4   7
ENDBRANCH   2   3
ENDBRANCH   1   2
BRANCH   1  18
ATOM     18  C   UNL     1      71.394  82.718  64.922  1.00  0.00     0.001 C 
BRANCH  18  19
ATOM     19  C   UNL     1      71.633  81.674  63.794  1.00  0.00     0.000 C 
BRANCH  19  20
ATOM     20  C   UNL     1      72.532  80.503  64.281  1.00  0.00     0.000 C 
BRANCH  20  21
ATOM     21  C   UNL     1      73.932  80.453  63.609  1.00  0.00     0.003 C 
BRANCH  21  22
ATOM     22  C   UNL     1      75.007  81.370  64.278  1.00  0.00    -0.017 C 
ATOM     23  C   UNL     1      76.404  81.123  63.643  1.00  0.00     0.007 C 
ATOM     24  C   UNL     1      75.079  81.223  65.827  1.00  0.00     0.007 C 
ENDBRANCH  21  22
ENDBRANCH  20  21
ENDBRANCH  19  20
ENDBRANCH  18  19
ENDBRANCH   1  18
TORSDOF 11
ENDMDL
MODEL 8
REMARK VINA RESULT:    -5.436     21.910     25.515
REMARK INTER + INTRA:          -9.765
REMARK INTER:                  -8.697
REMARK INTRA:                  -1.068
REMARK UNBOUND:                -0.991
REMARK SMILES COc1cc(CNC(=O)CCCCCCC(C)C)ccc1O
REMARK SMILES IDX 11 1 10 2 8 3 7 4 9 6 6 7 5 8 3 9 21 10 4 11 20 12 19 13
REMARK SMILES IDX 2 14 1 15 22 16 12 18 13 19 14 20 15 21 16 22 17 23 18 24
REMARK H PARENT 7 5 22 17
REMARK Flexibility Score: inf
ROOT
ATOM      1  C   UNL     1      76.274  86.714  69.936  1.00  0.00     0.010 C 
ENDROOT
BRANCH   1   2
ATOM      2  C   UNL     1      77.654  87.049  69.305  1.00  0.00     0.100 C 
BRANCH   2   3
ATOM      3  C   UNL     1      77.936  86.279  68.073  1.00  0.00     0.220 C 
ATOM      4  N   UNL     1      78.075  84.923  68.124  1.00  0.00    -0.352 N 
ATOM      5  H   UNL     1      78.014  84.528  69.051  1.00  0.00     0.163 HD
ATOM      6  O   UNL     1      78.020  86.897  66.983  1.00  0.00    -0.275 OA
BRANCH   4   7
ATOM      7  C   UNL     1      78.291  84.071  66.994  1.00  0.00     0.151 C 
BRANCH   7   8
ATOM      8  C   UNL     1      77.096  83.259  66.635  1.00  0.00    -0.025 A 
ATOM      9  C   UNL     1      74.653  82.974  66.580  1.00  0.00     0.160 A 
ATOM     10  C   UNL     1      74.811  81.739  65.914  1.00  0.00     0.157 A 
ATOM     11  C   UNL     1      75.795  83.714  66.951  1.00  0.00     0.056 A 
ATOM     12  C   UNL     1      76.101  81.256  65.629  1.00  0.00     0.050 A 
ATOM     13  C   UNL     1      77.236  82.015  65.976  1.00  0.00     0.009 A 
BRANCH   9  14
ATOM     14  O   UNL     1      73.404  83.433  66.897  1.00  0.00    -0.493 OA
ATOM     15  C   UNL     1      72.880  84.386  65.955  1.00  0.00     0.278 C 
ENDBRANCH   9  14
BRANCH  10  16
ATOM     16  O   UNL     1      73.729  81.003  65.546  1.00  0.00    -0.504 OA
ATOM     17  H   UNL     1      73.142  81.544  65.011  1.00  0.00     0.293 HD
ENDBRANCH  10  16
ENDBRANCH   7   8
ENDBRANCH   4   7
ENDBRANCH   2   3
ENDBRANCH   1   2
BRANCH   1  18
ATOM     18  C   UNL     1      75.507  87.991  70.380  1.00  0.00     0.001 C 
BRANCH  18  19
ATOM     19  C   UNL     1      74.015  87.735  70.734  1.00  0.00     0.000 C 
BRANCH  19  20
ATOM     20  C   UNL     1      73.257  87.054  69.559  1.00  0.00     0.000 C 
BRANCH  20  21
ATOM     21  C   UNL     1      72.972  85.542  69.776  1.00  0.00     0.003 C 
BRANCH  21  22
ATOM     22  C   UNL     1      71.525  85.092  69.390  1.00  0.00    -0.017 C 
ATOM     23  C   UNL     1      70.676  86.314  68.941  1.00  0.00     0.007 C 
ATOM     24  C   UNL     1      70.793  84.305  70.518  1.00  0.00     0.007 C 
ENDBRANCH  21  22
ENDBRANCH  20  21
ENDBRANCH  19  20
ENDBRANCH  18  19
ENDBRANCH   1  18
TORSDOF 11
ENDMDL
MODEL 9
REMARK VINA RESULT:    -5.407     22.919     25.112
REMARK INTER + INTRA:          -9.717
REMARK INTER:                  -8.067
REMARK INTRA:                  -1.649
REMARK UNBOUND:                -0.991
REMARK SMILES COc1cc(CNC(=O)CCCCCCC(C)C)ccc1O
REMARK SMILES IDX 11 1 10 2 8 3 7 4 9 6 6 7 5 8 3 9 21 10 4 11 20 12 19 13
REMARK SMILES IDX 2 14 1 15 22 16 12 18 13 19 14 20 15 21 16 22 17 23 18 24
REMARK H PARENT 7 5 22 17
REMARK Flexibility Score: inf
ROOT
ATOM      1  C   UNL     1      74.538  88.551  67.495  1.00  0.00     0.010 C 
ENDROOT
BRANCH   1   2
ATOM      2  C   UNL     1      76.068  88.817  67.474  1.00  0.00     0.100 C 
BRANCH   2   3
ATOM      3  C   UNL     1      76.852  87.678  66.947  1.00  0.00     0.220 C 
ATOM      4  N   UNL     1      76.371  86.929  65.914  1.00  0.00    -0.352 N 
ATOM      5  H   UNL     1      75.450  87.193  65.595  1.00  0.00     0.163 HD
ATOM      6  O   UNL     1      77.975  87.434  67.454  1.00  0.00    -0.275 OA
BRANCH   4   7
ATOM      7  C   UNL     1      77.063  85.844  65.286  1.00  0.00     0.151 C 
BRANCH   7   8
ATOM      8  C   UNL     1      76.458  84.515  65.577  1.00  0.00    -0.025 A 
ATOM      9  C   UNL     1      74.526  83.161  66.271  1.00  0.00     0.160 A 
ATOM     10  C   UNL     1      75.284  81.984  66.091  1.00  0.00     0.157 A 
ATOM     11  C   UNL     1      75.123  84.417  66.032  1.00  0.00     0.056 A 
ATOM     12  C   UNL     1      76.625  82.071  65.676  1.00  0.00     0.050 A 
ATOM     13  C   UNL     1      77.206  83.326  65.411  1.00  0.00     0.009 A 
BRANCH   9  14
ATOM     14  O   UNL     1      73.233  83.090  66.712  1.00  0.00    -0.493 OA
ATOM     15  C   UNL     1      72.276  83.657  65.799  1.00  0.00     0.278 C 
ENDBRANCH   9  14
BRANCH  10  16
ATOM     16  O   UNL     1      74.735  80.761  66.316  1.00  0.00    -0.504 OA
ATOM     17  H   UNL     1      74.370  80.419  65.496  1.00  0.00     0.293 HD
ENDBRANCH  10  16
ENDBRANCH   7   8
ENDBRANCH   4   7
ENDBRANCH   2   3
ENDBRANCH   1   2
BRANCH   1  18
ATOM     18  C   UNL     1      73.955  88.591  68.937  1.00  0.00     0.001 C 
BRANCH  18  19
ATOM     19  C   UNL     1      75.029  88.432  70.051  1.00  0.00     0.000 C 
BRANCH  19  20
ATOM     20  C   UNL     1      74.906  87.060  70.771  1.00  0.00     0.000 C 
BRANCH  20  21
ATOM     21  C   UNL     1      75.233  85.836  69.872  1.00  0.00     0.003 C 
BRANCH  21  22
ATOM     22  C   UNL     1      76.409  84.944  70.390  1.00  0.00    -0.017 C 
ATOM     23  C   UNL     1      77.071  84.179  69.210  1.00  0.00     0.007 C 
ATOM     24  C   UNL     1      75.992  83.953  71.516  1.00  0.00     0.007 C 
ENDBRANCH  21  22
ENDBRANCH  20  21
ENDBRANCH  19  20
ENDBRANCH  18  19
ENDBRANCH   1  18
TORSDOF 11
ENDMDL
MODEL 10
REMARK VINA RESULT:    -5.329     32.317     34.747
REMARK INTER + INTRA:          -9.592
REMARK INTER:                  -8.412
REMARK INTRA:                  -1.180
REMARK UNBOUND:                -0.991
REMARK SMILES COc1cc(CNC(=O)CCCCCCC(C)C)ccc1O
REMARK SMILES IDX 11 1 10 2 8 3 7 4 9 6 6 7 5 8 3 9 21 10 4 11 20 12 19 13
REMARK SMILES IDX 2 14 1 15 22 16 12 18 13 19 14 20 15 21 16 22 17 23 18 24
REMARK H PARENT 7 5 22 17
REMARK Flexibility Score: inf
ROOT
ATOM      1  C   UNL     1      61.122  85.080  69.675  1.00  0.00     0.010 C 
ENDROOT
BRANCH   1   2
ATOM      2  C   UNL     1      59.864  85.091  70.587  1.00  0.00     0.100 C 
BRANCH   2   3
ATOM      3  C   UNL     1      60.122  85.647  71.934  1.00  0.00     0.220 C 
ATOM      4  N   UNL     1      60.036  84.850  73.037  1.00  0.00    -0.352 N 
ATOM      5  H   UNL     1      59.747  83.901  72.850  1.00  0.00     0.163 HD
ATOM      6  O   UNL     1      60.445  86.857  72.034  1.00  0.00    -0.275 OA
BRANCH   4   7
ATOM      7  C   UNL     1      60.320  85.261  74.379  1.00  0.00     0.151 C 
BRANCH   7   8
ATOM      8  C   UNL     1      61.571  84.666  74.923  1.00  0.00    -0.025 A 
ATOM      9  C   UNL     1      63.669  84.904  76.184  1.00  0.00     0.160 A 
ATOM     10  C   UNL     1      63.938  83.530  76.001  1.00  0.00     0.157 A 
ATOM     11  C   UNL     1      62.500  85.464  75.629  1.00  0.00     0.056 A 
ATOM     12  C   UNL     1      63.041  82.733  75.266  1.00  0.00     0.050 A 
ATOM     13  C   UNL     1      61.861  83.293  74.740  1.00  0.00     0.009 A 
BRANCH   9  14
ATOM     14  O   UNL     1      64.554  85.696  76.863  1.00  0.00    -0.493 OA
ATOM     15  C   UNL     1      63.989  86.337  78.021  1.00  0.00     0.278 C 
ENDBRANCH   9  14
BRANCH  10  16
ATOM     16  O   UNL     1      65.057  82.963  76.523  1.00  0.00    -0.504 OA
ATOM     17  H   UNL     1      64.827  82.473  77.316  1.00  0.00     0.293 HD
ENDBRANCH  10  16
ENDBRANCH   7   8
ENDBRANCH   4   7
ENDBRANCH   2   3
ENDBRANCH   1   2
BRANCH   1  18
ATOM     18  C   UNL     1      62.075  83.896  70.006  1.00  0.00     0.001 C 
BRANCH  18  19
ATOM     19  C   UNL     1      62.166  82.832  68.876  1.00  0.00     0.000 C 
BRANCH  19  20
ATOM     20  C   UNL     1      63.183  81.710  69.229  1.00  0.00     0.000 C 
BRANCH  20  21
ATOM     21  C   UNL     1      64.659  82.189  69.308  1.00  0.00     0.003 C 
BRANCH  21  22
ATOM     22  C   UNL     1      65.378  81.861  70.657  1.00  0.00    -0.017 C 
ATOM     23  C   UNL     1      64.335  81.612  71.783  1.00  0.00     0.007 C 
ATOM     24  C   UNL     1      66.406  82.945  71.097  1.00  0.00     0.007 C 
ENDBRANCH  21  22
ENDBRANCH  20  21
ENDBRANCH  19  20
ENDBRANCH  18  19
ENDBRANCH   1  18
TORSDOF 11
ENDMDL
