MODEL 1
REMARK VINA RESULT:    -6.977      0.000      0.000
REMARK INTER + INTRA:         -13.653
REMARK INTER:                 -12.280
REMARK INTRA:                  -1.373
REMARK UNBOUND:                -1.373
REMARK SMILES C=C(C)[C@]12C[C@@H](C)[C@@]34O[C@](Cc5ccccc5)(O[C@@H]1[C@@H]3C=C(COC(=O)Cc1ccc(O)c(OC)c1)C[C@]1(O)C(=O)C(C)=C[C@@H]41)O2
REMARK SMILES IDX 23 1 22 2 21 3 20 4 9 5 8 6 10 7 6 8 18 9 46 10 19 11 5 12
REMARK SMILES IDX 7 13 4 14 45 15 38 16 44 17 40 18 42 20 41 21 43 22 39 23
REMARK SMILES IDX 11 25 12 26 13 27 17 28 14 29 16 30 15 31 2 32 3 33 1 34
REMARK SMILES IDX 37 35 24 37 25 38 26 39 27 40 28 41 36 42 29 43 33 44 30 45
REMARK SMILES IDX 31 46 34 47 35 48 32 49
REMARK H PARENT 39 24 32 50
REMARK Flexibility Score: 90.00
ROOT
ATOM      1  C   UNL     1      67.386  86.711  71.226  1.00  0.00     0.264 C 
ENDROOT
BRANCH   1   2
ATOM      2  C   UNL     1      66.510  85.551  71.639  1.00  0.00    -0.033 C 
ATOM      3  C   UNL     1      65.980  85.534  72.879  1.00  0.00    -0.015 C 
BRANCH   3   4
ATOM      4  C   UNL     1      65.142  84.461  73.555  1.00  0.00     0.078 C 
ATOM      5  O   UNL     1      62.771  85.033  73.144  1.00  0.00    -0.319 OA
ATOM      6  C   UNL     1      63.793  84.024  72.873  1.00  0.00     0.095 C 
ATOM      7  C   UNL     1      62.746  85.539  74.492  1.00  0.00     0.289 C 
ATOM      8  C   UNL     1      63.352  82.646  73.520  1.00  0.00     0.023 C 
ATOM      9  O   UNL     1      64.005  86.101  74.856  1.00  0.00    -0.320 OA
ATOM     10  O   UNL     1      62.490  84.515  75.450  1.00  0.00    -0.313 OA
ATOM     11  C   UNL     1      64.785  84.903  74.996  1.00  0.00     0.170 C 
ATOM     12  C   UNL     1      63.773  82.558  75.019  1.00  0.00     0.049 C 
ATOM     13  C   UNL     1      61.859  82.302  73.387  1.00  0.00     0.011 C 
ATOM     14  C   UNL     1      63.790  83.935  75.684  1.00  0.00     0.122 C 
BRANCH   6  15
ATOM     15  C   UNL     1      63.934  84.021  71.323  1.00  0.00     0.086 C 
ATOM     16  C   UNL     1      65.246  83.436  70.761  1.00  0.00     0.140 CG0
ATOM     17  C   UNL     1      62.872  83.362  70.488  1.00  0.00    -0.010 C 
ATOM     18  C   UNL     1      64.788  82.787  69.472  1.00  0.00     0.190 C 
ATOM     19  G   UNL     1      66.305  84.512  70.530  1.00  0.00     0.000 G0
ATOM     20  C   UNL     1      63.317  82.684  69.425  1.00  0.00    -0.008 C 
ATOM     21  O   UNL     1      65.523  82.352  68.598  1.00  0.00    -0.291 OA
ATOM     22  C   UNL     1      62.569  81.993  68.355  1.00  0.00     0.048 C 
BRANCH  16  23
ATOM     23  O   UNL     1      65.763  82.355  71.519  1.00  0.00    -0.381 OA
ATOM     24  H   UNL     1      65.217  81.570  71.347  1.00  0.00     0.212 HD
ENDBRANCH  16  23
ENDBRANCH   6  15
BRANCH   7  25
ATOM     25  C   UNL     1      61.667  86.598  74.583  1.00  0.00     0.135 C 
BRANCH  25  26
ATOM     26  C   UNL     1      60.737  86.561  73.396  1.00  0.00    -0.040 A 
ATOM     27  C   UNL     1      60.966  87.398  72.304  1.00  0.00     0.004 A 
ATOM     28  C   UNL     1      59.649  85.689  73.389  1.00  0.00     0.004 A 
ATOM     29  C   UNL     1      60.106  87.364  71.206  1.00  0.00     0.000 A 
ATOM     30  C   UNL     1      58.789  85.654  72.291  1.00  0.00     0.000 A 
ATOM     31  C   UNL     1      59.018  86.492  71.200  1.00  0.00     0.000 A 
ENDBRANCH  25  26
ENDBRANCH   7  25
BRANCH  14  32
ATOM     32  C   UNL     1      64.012  83.857  77.159  1.00  0.00    -0.046 C 
ATOM     33  C   UNL     1      62.838  84.205  78.025  1.00  0.00     0.042 C 
ATOM     34  C   UNL     1      65.195  83.498  77.681  1.00  0.00     0.010 C 
ENDBRANCH  14  32
ENDBRANCH   3   4
BRANCH   2  35
ATOM     35  C   UNL     1      66.335  84.518  70.543  1.00  0.00     0.078 CG0
ATOM     36  G   UNL     1      65.260  83.452  70.752  1.00  0.00     0.000 G0
ENDBRANCH   2  35
ENDBRANCH   1   2
BRANCH   1  37
ATOM     37  O   UNL     1      68.408  86.243  70.372  1.00  0.00    -0.461 OA
BRANCH  37  38
ATOM     38  C   UNL     1      69.666  86.156  70.920  1.00  0.00     0.310 C 
ATOM     39  O   UNL     1      70.329  87.106  71.314  1.00  0.00    -0.252 OA
BRANCH  38  40
ATOM     40  C   UNL     1      70.099  84.709  70.961  1.00  0.00     0.158 C 
BRANCH  40  41
ATOM     41  C   UNL     1      70.390  84.144  69.594  1.00  0.00    -0.033 A 
ATOM     42  C   UNL     1      71.466  84.633  68.852  1.00  0.00     0.054 A 
ATOM     43  C   UNL     1      69.585  83.133  69.071  1.00  0.00     0.008 A 
ATOM     44  C   UNL     1      71.736  84.111  67.587  1.00  0.00     0.160 A 
ATOM     45  C   UNL     1      69.854  82.610  67.806  1.00  0.00     0.050 A 
ATOM     46  C   UNL     1      70.929  83.099  67.064  1.00  0.00     0.157 A 
BRANCH  44  47
ATOM     47  O   UNL     1      72.788  84.596  66.872  1.00  0.00    -0.493 OA
ATOM     48  C   UNL     1      73.148  85.959  67.092  1.00  0.00     0.278 C 
ENDBRANCH  44  47
BRANCH  46  49
ATOM     49  O   UNL     1      71.183  82.580  65.831  1.00  0.00    -0.504 OA
ATOM     50  H   UNL     1      71.450  83.299  65.233  1.00  0.00     0.293 HD
ENDBRANCH  46  49
ENDBRANCH  40  41
ENDBRANCH  38  40
ENDBRANCH  37  38
ENDBRANCH   1  37
TORSDOF 11
ENDMDL
MODEL 2
REMARK VINA RESULT:    -6.907     30.474     34.407
REMARK INTER + INTRA:         -13.529
REMARK INTER:                 -12.673
REMARK INTRA:                  -0.856
REMARK UNBOUND:                -1.373
REMARK SMILES C=C(C)[C@]12C[C@@H](C)[C@@]34O[C@](Cc5ccccc5)(O[C@@H]1[C@@H]3C=C(COC(=O)Cc1ccc(O)c(OC)c1)C[C@]1(O)C(=O)C(C)=C[C@@H]41)O2
REMARK SMILES IDX 23 1 22 2 21 3 20 4 9 5 8 6 10 7 6 8 18 9 46 10 19 11 5 12
REMARK SMILES IDX 7 13 4 14 45 15 38 16 44 17 40 18 42 20 41 21 43 22 39 23
REMARK SMILES IDX 11 25 12 26 13 27 17 28 14 29 16 30 15 31 2 32 3 33 1 34
REMARK SMILES IDX 37 35 24 37 25 38 26 39 27 40 28 41 36 42 29 43 33 44 30 45
REMARK SMILES IDX 31 46 34 47 35 48 32 49
REMARK H PARENT 39 24 32 50
REMARK Flexibility Score: 90.00
ROOT
ATOM      1  C   UNL     1      97.831  83.084  83.219  1.00  0.00     0.264 C 
ENDROOT
BRANCH   1   2
ATOM      2  C   UNL     1      97.810  83.022  84.729  1.00  0.00    -0.033 C 
ATOM      3  C   UNL     1      96.652  83.246  85.382  1.00  0.00    -0.015 C 
BRANCH   3   4
ATOM      4  C   UNL     1      96.386  83.316  86.877  1.00  0.00     0.078 C 
ATOM      5  O   UNL     1      95.731  81.043  87.599  1.00  0.00    -0.319 OA
ATOM      6  C   UNL     1      96.758  82.069  87.763  1.00  0.00     0.095 C 
ATOM      7  C   UNL     1      94.374  81.523  87.595  1.00  0.00     0.289 C 
ATOM      8  C   UNL     1      96.785  82.546  89.274  1.00  0.00     0.023 C 
ATOM      9  O   UNL     1      94.171  82.493  86.570  1.00  0.00    -0.320 OA
ATOM     10  O   UNL     1      94.026  82.174  88.814  1.00  0.00    -0.313 OA
ATOM     11  C   UNL     1      94.885  83.605  87.131  1.00  0.00     0.170 C 
ATOM     12  C   UNL     1      95.733  83.666  89.539  1.00  0.00     0.049 C 
ATOM     13  C   UNL     1      96.621  81.432  90.320  1.00  0.00     0.011 C 
ATOM     14  C   UNL     1      94.511  83.521  88.631  1.00  0.00     0.122 C 
BRANCH   6  15
ATOM     15  C   UNL     1      98.064  81.398  87.250  1.00  0.00     0.086 C 
ATOM     16  C   UNL     1      99.203  82.354  86.836  1.00  0.00     0.140 CG0
ATOM     17  C   UNL     1      98.758  80.381  88.112  1.00  0.00    -0.010 C 
ATOM     18  C   UNL     1     100.441  81.577  87.233  1.00  0.00     0.190 C 
ATOM     19  G   UNL     1      99.170  82.679  85.344  1.00  0.00     0.000 G0
ATOM     20  C   UNL     1     100.093  80.437  88.103  1.00  0.00    -0.008 C 
ATOM     21  O   UNL     1     101.587  81.867  86.927  1.00  0.00    -0.291 OA
ATOM     22  C   UNL     1     101.087  79.559  88.753  1.00  0.00     0.048 C 
BRANCH  16  23
ATOM     23  O   UNL     1      99.277  83.532  87.622  1.00  0.00    -0.381 OA
ATOM     24  H   UNL     1      98.407  83.965  87.608  1.00  0.00     0.212 HD
ENDBRANCH  16  23
ENDBRANCH   6  15
BRANCH   7  25
ATOM     25  C   UNL     1      93.451  80.342  87.372  1.00  0.00     0.135 C 
BRANCH  25  26
ATOM     26  C   UNL     1      92.001  80.754  87.344  1.00  0.00    -0.040 A 
ATOM     27  C   UNL     1      91.198  80.558  88.468  1.00  0.00     0.004 A 
ATOM     28  C   UNL     1      91.462  81.333  86.195  1.00  0.00     0.004 A 
ATOM     29  C   UNL     1      89.856  80.940  88.443  1.00  0.00     0.000 A 
ATOM     30  C   UNL     1      90.120  81.715  86.170  1.00  0.00     0.000 A 
ATOM     31  C   UNL     1      89.318  81.518  87.294  1.00  0.00     0.000 A 
ENDBRANCH  25  26
ENDBRANCH   7  25
BRANCH  14  32
ATOM     32  C   UNL     1      93.413  84.468  88.990  1.00  0.00    -0.046 C 
ATOM     33  C   UNL     1      92.027  84.061  88.586  1.00  0.00     0.042 C 
ATOM     34  C   UNL     1      93.652  85.619  89.637  1.00  0.00     0.010 C 
ENDBRANCH  14  32
ENDBRANCH   3   4
BRANCH   2  35
ATOM     35  C   UNL     1      99.163  82.690  85.329  1.00  0.00     0.078 CG0
ATOM     36  G   UNL     1      99.203  82.354  86.819  1.00  0.00     0.000 G0
ENDBRANCH   2  35
ENDBRANCH   1   2
BRANCH   1  37
ATOM     37  O   UNL     1      98.216  81.828  82.705  1.00  0.00    -0.461 OA
BRANCH  37  38
ATOM     38  C   UNL     1      99.313  81.820  81.875  1.00  0.00     0.310 C 
ATOM     39  O   UNL     1     100.052  80.862  81.697  1.00  0.00    -0.252 OA
BRANCH  38  40
ATOM     40  C   UNL     1      99.461  83.174  81.222  1.00  0.00     0.158 C 
BRANCH  40  41
ATOM     41  C   UNL     1      99.000  83.189  79.788  1.00  0.00    -0.033 A 
ATOM     42  C   UNL     1      99.885  82.841  78.767  1.00  0.00     0.054 A 
ATOM     43  C   UNL     1      97.688  83.550  79.480  1.00  0.00     0.008 A 
ATOM     44  C   UNL     1      99.458  82.855  77.439  1.00  0.00     0.160 A 
ATOM     45  C   UNL     1      97.261  83.563  78.152  1.00  0.00     0.050 A 
ATOM     46  C   UNL     1      98.146  83.216  77.132  1.00  0.00     0.157 A 
BRANCH  44  47
ATOM     47  O   UNL     1     100.332  82.514  76.451  1.00  0.00    -0.493 OA
ATOM     48  C   UNL     1     101.566  81.921  76.853  1.00  0.00     0.278 C 
ENDBRANCH  44  47
BRANCH  46  49
ATOM     49  O   UNL     1      97.717  83.232  75.839  1.00  0.00    -0.504 OA
ATOM     50  H   UNL     1      96.782  83.496  75.819  1.00  0.00     0.293 HD
ENDBRANCH  46  49
ENDBRANCH  40  41
ENDBRANCH  38  40
ENDBRANCH  37  38
ENDBRANCH   1  37
TORSDOF 11
ENDMDL
MODEL 3
REMARK VINA RESULT:    -6.802      1.674      2.169
REMARK INTER + INTRA:         -13.344
REMARK INTER:                 -12.590
REMARK INTRA:                  -0.754
REMARK UNBOUND:                -1.373
REMARK SMILES C=C(C)[C@]12C[C@@H](C)[C@@]34O[C@](Cc5ccccc5)(O[C@@H]1[C@@H]3C=C(COC(=O)Cc1ccc(O)c(OC)c1)C[C@]1(O)C(=O)C(C)=C[C@@H]41)O2
REMARK SMILES IDX 23 1 22 2 21 3 20 4 9 5 8 6 10 7 6 8 18 9 46 10 19 11 5 12
REMARK SMILES IDX 7 13 4 14 45 15 38 16 44 17 40 18 42 20 41 21 43 22 39 23
REMARK SMILES IDX 11 25 12 26 13 27 17 28 14 29 16 30 15 31 2 32 3 33 1 34
REMARK SMILES IDX 37 35 24 37 25 38 26 39 27 40 28 41 36 42 29 43 33 44 30 45
REMARK SMILES IDX 31 46 34 47 35 48 32 49
REMARK H PARENT 39 24 32 50
REMARK Flexibility Score: 90.00
ROOT
ATOM      1  C   UNL     1      65.640  87.896  71.070  1.00  0.00     0.264 C 
ENDROOT
BRANCH   1   2
ATOM      2  C   UNL     1      65.325  86.480  71.494  1.00  0.00    -0.033 C 
ATOM      3  C   UNL     1      64.856  86.253  72.738  1.00  0.00    -0.015 C 
BRANCH   3   4
ATOM      4  C   UNL     1      64.541  84.934  73.424  1.00  0.00     0.078 C 
ATOM      5  O   UNL     1      62.149  84.461  73.012  1.00  0.00    -0.319 OA
ATOM      6  C   UNL     1      63.498  83.969  72.748  1.00  0.00     0.095 C 
ATOM      7  C   UNL     1      61.912  84.922  74.356  1.00  0.00     0.289 C 
ATOM      8  C   UNL     1      63.672  82.538  73.407  1.00  0.00     0.023 C 
ATOM      9  O   UNL     1      62.821  85.960  74.714  1.00  0.00    -0.320 OA
ATOM     10  O   UNL     1      62.105  83.892  75.322  1.00  0.00    -0.313 OA
ATOM     11  C   UNL     1      64.029  85.199  74.862  1.00  0.00     0.170 C 
ATOM     12  C   UNL     1      64.089  82.646  74.906  1.00  0.00     0.049 C 
ATOM     13  C   UNL     1      62.459  81.601  73.279  1.00  0.00     0.011 C 
ATOM     14  C   UNL     1      63.528  83.909  75.559  1.00  0.00     0.122 C 
BRANCH   6  15
ATOM     15  C   UNL     1      63.631  84.012  71.198  1.00  0.00     0.086 C 
ATOM     16  C   UNL     1      65.069  84.028  70.639  1.00  0.00     0.140 CG0
ATOM     17  C   UNL     1      62.947  82.960  70.370  1.00  0.00    -0.010 C 
ATOM     18  C   UNL     1      64.930  83.236  69.356  1.00  0.00     0.190 C 
ATOM     19  G   UNL     1      65.578  85.449  70.397  1.00  0.00     0.000 G0
ATOM     20  C   UNL     1      63.639  82.523  69.313  1.00  0.00    -0.008 C 
ATOM     21  O   UNL     1      65.781  83.143  68.485  1.00  0.00    -0.291 OA
ATOM     22  C   UNL     1      63.253  81.572  68.250  1.00  0.00     0.048 C 
BRANCH  16  23
ATOM     23  O   UNL     1      65.992  83.272  71.406  1.00  0.00    -0.381 OA
ATOM     24  H   UNL     1      66.766  83.828  71.591  1.00  0.00     0.212 HD
ENDBRANCH  16  23
ENDBRANCH   6  15
BRANCH   7  25
ATOM     25  C   UNL     1      60.489  85.435  74.440  1.00  0.00     0.135 C 
BRANCH  25  26
ATOM     26  C   UNL     1      59.914  85.732  73.077  1.00  0.00    -0.040 A 
ATOM     27  C   UNL     1      59.468  84.688  72.266  1.00  0.00     0.004 A 
ATOM     28  C   UNL     1      59.827  87.049  72.628  1.00  0.00     0.004 A 
ATOM     29  C   UNL     1      58.936  84.962  71.006  1.00  0.00     0.000 A 
ATOM     30  C   UNL     1      59.295  87.323  71.368  1.00  0.00     0.000 A 
ATOM     31  C   UNL     1      58.850  86.279  70.557  1.00  0.00     0.000 A 
ENDBRANCH  25  26
ENDBRANCH   7  25
BRANCH  14  32
ATOM     32  C   UNL     1      63.759  83.944  77.035  1.00  0.00    -0.046 C 
ATOM     33  C   UNL     1      65.142  83.595  77.497  1.00  0.00     0.042 C 
ATOM     34  C   UNL     1      62.784  84.268  77.898  1.00  0.00     0.010 C 
ENDBRANCH  14  32
ENDBRANCH   3   4
BRANCH   2  35
ATOM     35  C   UNL     1      65.588  85.460  70.403  1.00  0.00     0.078 CG0
ATOM     36  G   UNL     1      65.085  84.037  70.641  1.00  0.00     0.000 G0
ENDBRANCH   2  35
ENDBRANCH   1   2
BRANCH   1  37
ATOM     37  O   UNL     1      66.497  88.489  72.022  1.00  0.00    -0.461 OA
BRANCH  37  38
ATOM     38  C   UNL     1      67.605  87.757  72.382  1.00  0.00     0.310 C 
ATOM     39  O   UNL     1      67.767  87.215  73.467  1.00  0.00    -0.252 OA
BRANCH  38  40
ATOM     40  C   UNL     1      68.586  87.727  71.233  1.00  0.00     0.158 C 
BRANCH  40  41
ATOM     41  C   UNL     1      68.871  86.332  70.740  1.00  0.00    -0.033 A 
ATOM     42  C   UNL     1      68.751  86.035  69.382  1.00  0.00     0.054 A 
ATOM     43  C   UNL     1      69.256  85.339  71.640  1.00  0.00     0.008 A 
ATOM     44  C   UNL     1      69.016  84.744  68.925  1.00  0.00     0.160 A 
ATOM     45  C   UNL     1      69.520  84.048  71.183  1.00  0.00     0.050 A 
ATOM     46  C   UNL     1      69.400  83.750  69.826  1.00  0.00     0.157 A 
BRANCH  44  47
ATOM     47  O   UNL     1      68.894  84.465  67.597  1.00  0.00    -0.493 OA
ATOM     48  C   UNL     1      68.011  85.291  66.839  1.00  0.00     0.278 C 
ENDBRANCH  44  47
BRANCH  46  49
ATOM     49  O   UNL     1      69.662  82.486  69.391  1.00  0.00    -0.504 OA
ATOM     50  H   UNL     1      70.624  82.353  69.365  1.00  0.00     0.293 HD
ENDBRANCH  46  49
ENDBRANCH  40  41
ENDBRANCH  38  40
ENDBRANCH  37  38
ENDBRANCH   1  37
TORSDOF 11
ENDMDL
MODEL 4
REMARK VINA RESULT:    -6.748      2.889      6.332
REMARK INTER + INTRA:         -13.250
REMARK INTER:                 -10.487
REMARK INTRA:                  -2.763
REMARK UNBOUND:                -1.373
REMARK SMILES C=C(C)[C@]12C[C@@H](C)[C@@]34O[C@](Cc5ccccc5)(O[C@@H]1[C@@H]3C=C(COC(=O)Cc1ccc(O)c(OC)c1)C[C@]1(O)C(=O)C(C)=C[C@@H]41)O2
REMARK SMILES IDX 23 1 22 2 21 3 20 4 9 5 8 6 10 7 6 8 18 9 46 10 19 11 5 12
REMARK SMILES IDX 7 13 4 14 45 15 38 16 44 17 40 18 42 20 41 21 43 22 39 23
REMARK SMILES IDX 11 25 12 26 13 27 17 28 14 29 16 30 15 31 2 32 3 33 1 34
REMARK SMILES IDX 37 35 24 37 25 38 26 39 27 40 28 41 36 42 29 43 33 44 30 45
REMARK SMILES IDX 31 46 34 47 35 48 32 49
REMARK H PARENT 39 24 32 50
REMARK Flexibility Score: 90.00
ROOT
ATOM      1  C   UNL     1      63.175  88.237  75.520  1.00  0.00     0.264 C 
ENDROOT
BRANCH   1   2
ATOM      2  C   UNL     1      62.178  87.395  74.757  1.00  0.00    -0.033 C 
ATOM      3  C   UNL     1      61.470  87.957  73.757  1.00  0.00    -0.015 C 
BRANCH   3   4
ATOM      4  C   UNL     1      60.367  87.356  72.900  1.00  0.00     0.078 C 
ATOM      5  O   UNL     1      61.451  86.419  70.883  1.00  0.00    -0.319 OA
ATOM      6  C   UNL     1      60.686  86.054  72.074  1.00  0.00     0.095 C 
ATOM      7  C   UNL     1      60.993  87.597  70.193  1.00  0.00     0.289 C 
ATOM      8  C   UNL     1      59.305  85.416  71.632  1.00  0.00     0.023 C 
ATOM      9  O   UNL     1      60.984  88.731  71.055  1.00  0.00    -0.320 OA
ATOM     10  O   UNL     1      59.655  87.461  69.721  1.00  0.00    -0.313 OA
ATOM     11  C   UNL     1      59.857  88.408  71.885  1.00  0.00     0.170 C 
ATOM     12  C   UNL     1      58.227  86.511  71.370  1.00  0.00     0.049 C 
ATOM     13  C   UNL     1      59.373  84.465  70.426  1.00  0.00     0.011 C 
ATOM     14  C   UNL     1      58.853  87.813  70.867  1.00  0.00     0.122 C 
BRANCH   6  15
ATOM     15  C   UNL     1      61.634  85.113  72.872  1.00  0.00     0.086 C 
ATOM     16  C   UNL     1      61.324  84.950  74.374  1.00  0.00     0.140 CG0
ATOM     17  C   UNL     1      61.836  83.700  72.401  1.00  0.00    -0.010 C 
ATOM     18  C   UNL     1      61.717  83.511  74.634  1.00  0.00     0.190 C 
ATOM     19  G   UNL     1      62.110  85.936  75.236  1.00  0.00     0.000 G0
ATOM     20  C   UNL     1      61.914  82.780  73.368  1.00  0.00    -0.008 C 
ATOM     21  O   UNL     1      61.814  82.991  75.735  1.00  0.00    -0.291 OA
ATOM     22  C   UNL     1      62.186  81.330  73.283  1.00  0.00     0.048 C 
BRANCH  16  23
ATOM     23  O   UNL     1      59.940  84.983  74.681  1.00  0.00    -0.381 OA
ATOM     24  H   UNL     1      59.581  84.086  74.580  1.00  0.00     0.212 HD
ENDBRANCH  16  23
ENDBRANCH   6  15
BRANCH   7  25
ATOM     25  C   UNL     1      61.920  87.851  69.021  1.00  0.00     0.135 C 
BRANCH  25  26
ATOM     26  C   UNL     1      63.091  86.901  69.009  1.00  0.00    -0.040 A 
ATOM     27  C   UNL     1      64.327  87.312  69.510  1.00  0.00     0.004 A 
ATOM     28  C   UNL     1      62.939  85.612  68.500  1.00  0.00     0.004 A 
ATOM     29  C   UNL     1      65.411  86.434  69.500  1.00  0.00     0.000 A 
ATOM     30  C   UNL     1      64.023  84.734  68.490  1.00  0.00     0.000 A 
ATOM     31  C   UNL     1      65.259  85.145  68.990  1.00  0.00     0.000 A 
ENDBRANCH  25  26
ENDBRANCH   7  25
BRANCH  14  32
ATOM     32  C   UNL     1      57.830  88.813  70.436  1.00  0.00    -0.046 C 
ATOM     33  C   UNL     1      57.741  90.065  71.258  1.00  0.00     0.042 C 
ATOM     34  C   UNL     1      57.037  88.604  69.375  1.00  0.00     0.010 C 
ENDBRANCH  14  32
ENDBRANCH   3   4
BRANCH   2  35
ATOM     35  C   UNL     1      62.116  85.960  75.244  1.00  0.00     0.078 CG0
ATOM     36  G   UNL     1      61.325  84.967  74.394  1.00  0.00     0.000 G0
ENDBRANCH   2  35
ENDBRANCH   1   2
BRANCH   1  37
ATOM     37  O   UNL     1      64.343  88.395  74.744  1.00  0.00    -0.461 OA
BRANCH  37  38
ATOM     38  C   UNL     1      65.323  87.446  74.919  1.00  0.00     0.310 C 
ATOM     39  O   UNL     1      65.428  86.717  75.896  1.00  0.00    -0.252 OA
BRANCH  38  40
ATOM     40  C   UNL     1      66.245  87.445  73.723  1.00  0.00     0.158 C 
BRANCH  40  41
ATOM     41  C   UNL     1      66.328  86.101  73.046  1.00  0.00    -0.033 A 
ATOM     42  C   UNL     1      67.553  85.639  72.563  1.00  0.00     0.054 A 
ATOM     43  C   UNL     1      65.183  85.319  72.903  1.00  0.00     0.008 A 
ATOM     44  C   UNL     1      67.631  84.395  71.937  1.00  0.00     0.160 A 
ATOM     45  C   UNL     1      65.260  84.075  72.277  1.00  0.00     0.050 A 
ATOM     46  C   UNL     1      66.484  83.613  71.793  1.00  0.00     0.157 A 
BRANCH  44  47
ATOM     47  O   UNL     1      68.832  83.954  71.469  1.00  0.00    -0.493 OA
ATOM     48  C   UNL     1      69.708  84.932  70.910  1.00  0.00     0.278 C 
ENDBRANCH  44  47
BRANCH  46  49
ATOM     49  O   UNL     1      66.548  82.396  71.185  1.00  0.00    -0.504 OA
ATOM     50  H   UNL     1      67.266  82.407  70.530  1.00  0.00     0.293 HD
ENDBRANCH  46  49
ENDBRANCH  40  41
ENDBRANCH  38  40
ENDBRANCH  37  38
ENDBRANCH   1  37
TORSDOF 11
ENDMDL
MODEL 5
REMARK VINA RESULT:    -6.326      4.307     11.723
REMARK INTER + INTRA:         -12.506
REMARK INTER:                 -11.689
REMARK INTRA:                  -0.818
REMARK UNBOUND:                -1.373
REMARK SMILES C=C(C)[C@]12C[C@@H](C)[C@@]34O[C@](Cc5ccccc5)(O[C@@H]1[C@@H]3C=C(COC(=O)Cc1ccc(O)c(OC)c1)C[C@]1(O)C(=O)C(C)=C[C@@H]41)O2
REMARK SMILES IDX 23 1 22 2 21 3 20 4 9 5 8 6 10 7 6 8 18 9 46 10 19 11 5 12
REMARK SMILES IDX 7 13 4 14 45 15 38 16 44 17 40 18 42 20 41 21 43 22 39 23
REMARK SMILES IDX 11 25 12 26 13 27 17 28 14 29 16 30 15 31 2 32 3 33 1 34
REMARK SMILES IDX 37 35 24 37 25 38 26 39 27 40 28 41 36 42 29 43 33 44 30 45
REMARK SMILES IDX 31 46 34 47 35 48 32 49
REMARK H PARENT 39 24 32 50
REMARK Flexibility Score: 90.00
ROOT
ATOM      1  C   UNL     1      70.474  84.052  67.880  1.00  0.00     0.264 C 
ENDROOT
BRANCH   1   2
ATOM      2  C   UNL     1      71.726  84.620  67.253  1.00  0.00    -0.033 C 
ATOM      3  C   UNL     1      72.067  85.900  67.504  1.00  0.00    -0.015 C 
BRANCH   3   4
ATOM      4  C   UNL     1      73.218  86.719  66.942  1.00  0.00     0.078 C 
ATOM      5  O   UNL     1      75.110  86.479  68.518  1.00  0.00    -0.319 OA
ATOM      6  C   UNL     1      74.686  86.189  67.150  1.00  0.00     0.095 C 
ATOM      7  C   UNL     1      74.757  87.786  69.009  1.00  0.00     0.289 C 
ATOM      8  C   UNL     1      75.624  86.965  66.136  1.00  0.00     0.023 C 
ATOM      9  O   UNL     1      73.349  87.999  68.947  1.00  0.00    -0.320 OA
ATOM     10  O   UNL     1      75.339  88.830  68.233  1.00  0.00    -0.313 OA
ATOM     11  C   UNL     1      73.179  88.151  67.530  1.00  0.00     0.170 C 
ATOM     12  C   UNL     1      75.125  88.424  65.899  1.00  0.00     0.049 C 
ATOM     13  C   UNL     1      77.116  86.988  66.503  1.00  0.00     0.011 C 
ATOM     14  C   UNL     1      74.420  88.989  67.133  1.00  0.00     0.122 C 
BRANCH   6  15
ATOM     15  C   UNL     1      74.731  84.637  67.049  1.00  0.00     0.086 C 
ATOM     16  C   UNL     1      73.895  84.004  65.917  1.00  0.00     0.140 CG0
ATOM     17  C   UNL     1      76.061  83.945  66.930  1.00  0.00    -0.010 C 
ATOM     18  C   UNL     1      74.735  82.808  65.522  1.00  0.00     0.190 C 
ATOM     19  G   UNL     1      72.496  83.608  66.386  1.00  0.00     0.000 G0
ATOM     20  C   UNL     1      76.088  82.897  66.101  1.00  0.00    -0.008 C 
ATOM     21  O   UNL     1      74.376  81.905  64.781  1.00  0.00    -0.291 OA
ATOM     22  C   UNL     1      77.180  81.947  65.805  1.00  0.00     0.048 C 
BRANCH  16  23
ATOM     23  O   UNL     1      73.843  84.787  64.736  1.00  0.00    -0.381 OA
ATOM     24  H   UNL     1      74.732  85.135  64.559  1.00  0.00     0.212 HD
ENDBRANCH  16  23
ENDBRANCH   6  15
BRANCH   7  25
ATOM     25  C   UNL     1      75.229  87.898  70.444  1.00  0.00     0.135 C 
BRANCH  25  26
ATOM     26  C   UNL     1      74.926  89.252  71.035  1.00  0.00    -0.040 A 
ATOM     27  C   UNL     1      75.830  90.302  70.872  1.00  0.00     0.004 A 
ATOM     28  C   UNL     1      73.742  89.455  71.743  1.00  0.00     0.004 A 
ATOM     29  C   UNL     1      75.549  91.555  71.418  1.00  0.00     0.000 A 
ATOM     30  C   UNL     1      73.461  90.708  72.290  1.00  0.00     0.000 A 
ATOM     31  C   UNL     1      74.366  91.758  72.127  1.00  0.00     0.000 A 
ENDBRANCH  25  26
ENDBRANCH   7  25
BRANCH  14  32
ATOM     32  C   UNL     1      74.097  90.441  66.995  1.00  0.00    -0.046 C 
ATOM     33  C   UNL     1      75.267  91.375  66.907  1.00  0.00     0.042 C 
ATOM     34  C   UNL     1      72.832  90.885  66.952  1.00  0.00     0.010 C 
ENDBRANCH  14  32
ENDBRANCH   3   4
BRANCH   2  35
ATOM     35  C   UNL     1      72.466  83.616  66.389  1.00  0.00     0.078 CG0
ATOM     36  G   UNL     1      73.866  84.001  65.913  1.00  0.00     0.000 G0
ENDBRANCH   2  35
ENDBRANCH   1   2
BRANCH   1  37
ATOM     37  O   UNL     1      69.734  83.358  66.900  1.00  0.00    -0.461 OA
BRANCH  37  38
ATOM     38  C   UNL     1      68.421  83.739  66.745  1.00  0.00     0.310 C 
ATOM     39  O   UNL     1      67.720  83.467  65.780  1.00  0.00    -0.252 OA
BRANCH  38  40
ATOM     40  C   UNL     1      67.983  84.541  67.948  1.00  0.00     0.158 C 
BRANCH  40  41
ATOM     41  C   UNL     1      67.026  83.792  68.838  1.00  0.00    -0.033 A 
ATOM     42  C   UNL     1      65.709  83.582  68.425  1.00  0.00     0.054 A 
ATOM     43  C   UNL     1      67.455  83.308  70.074  1.00  0.00     0.008 A 
ATOM     44  C   UNL     1      64.823  82.888  69.249  1.00  0.00     0.160 A 
ATOM     45  C   UNL     1      66.568  82.614  70.897  1.00  0.00     0.050 A 
ATOM     46  C   UNL     1      65.252  82.404  70.486  1.00  0.00     0.157 A 
BRANCH  44  47
ATOM     47  O   UNL     1      63.540  82.690  68.836  1.00  0.00    -0.493 OA
ATOM     48  C   UNL     1      62.662  83.813  68.883  1.00  0.00     0.278 C 
ENDBRANCH  44  47
BRANCH  46  49
ATOM     49  O   UNL     1      64.396  81.725  71.298  1.00  0.00    -0.504 OA
ATOM     50  H   UNL     1      64.858  81.492  72.121  1.00  0.00     0.293 HD
ENDBRANCH  46  49
ENDBRANCH  40  41
ENDBRANCH  38  40
ENDBRANCH  37  38
ENDBRANCH   1  37
TORSDOF 11
ENDMDL
MODEL 6
REMARK VINA RESULT:    -6.297     30.317     34.148
REMARK INTER + INTRA:         -12.457
REMARK INTER:                 -10.929
REMARK INTRA:                  -1.528
REMARK UNBOUND:                -1.373
REMARK SMILES C=C(C)[C@]12C[C@@H](C)[C@@]34O[C@](Cc5ccccc5)(O[C@@H]1[C@@H]3C=C(COC(=O)Cc1ccc(O)c(OC)c1)C[C@]1(O)C(=O)C(C)=C[C@@H]41)O2
REMARK SMILES IDX 23 1 22 2 21 3 20 4 9 5 8 6 10 7 6 8 18 9 46 10 19 11 5 12
REMARK SMILES IDX 7 13 4 14 45 15 38 16 44 17 40 18 42 20 41 21 43 22 39 23
REMARK SMILES IDX 11 25 12 26 13 27 17 28 14 29 16 30 15 31 2 32 3 33 1 34
REMARK SMILES IDX 37 35 24 37 25 38 26 39 27 40 28 41 36 42 29 43 33 44 30 45
REMARK SMILES IDX 31 46 34 47 35 48 32 49
REMARK H PARENT 39 24 32 50
REMARK Flexibility Score: 90.00
ROOT
ATOM      1  C   UNL     1      97.504  83.744  85.842  1.00  0.00     0.264 C 
ENDROOT
BRANCH   1   2
ATOM      2  C   UNL     1      96.242  83.803  86.671  1.00  0.00    -0.033 C 
ATOM      3  C   UNL     1      95.252  82.920  86.428  1.00  0.00    -0.015 C 
BRANCH   3   4
ATOM      4  C   UNL     1      93.873  82.820  87.059  1.00  0.00     0.078 C 
ATOM      5  O   UNL     1      94.069  81.269  88.976  1.00  0.00    -0.319 OA
ATOM      6  C   UNL     1      93.775  82.655  88.622  1.00  0.00     0.095 C 
ATOM      7  C   UNL     1      93.470  80.274  88.124  1.00  0.00     0.289 C 
ATOM      8  C   UNL     1      92.288  83.000  89.048  1.00  0.00     0.023 C 
ATOM      9  O   UNL     1      93.857  80.456  86.765  1.00  0.00    -0.320 OA
ATOM     10  O   UNL     1      92.046  80.343  88.132  1.00  0.00    -0.313 OA
ATOM     11  C   UNL     1      93.097  81.631  86.441  1.00  0.00     0.170 C 
ATOM     12  C   UNL     1      91.267  82.583  87.946  1.00  0.00     0.049 C 
ATOM     13  C   UNL     1      91.841  82.428  90.403  1.00  0.00     0.011 C 
ATOM     14  C   UNL     1      91.750  81.365  87.158  1.00  0.00     0.122 C 
BRANCH   6  15
ATOM     15  C   UNL     1      94.884  83.482  89.335  1.00  0.00     0.086 C 
ATOM     16  C   UNL     1      95.134  84.901  88.784  1.00  0.00     0.140 CG0
ATOM     17  C   UNL     1      94.805  83.693  90.821  1.00  0.00    -0.010 C 
ATOM     18  C   UNL     1      95.499  85.676  90.033  1.00  0.00     0.190 C 
ATOM     19  G   UNL     1      96.244  84.926  87.735  1.00  0.00     0.000 G0
ATOM     20  C   UNL     1      95.171  84.906  91.247  1.00  0.00    -0.008 C 
ATOM     21  O   UNL     1      95.957  86.808  90.055  1.00  0.00    -0.291 OA
ATOM     22  C   UNL     1      95.296  85.434  92.621  1.00  0.00     0.048 C 
BRANCH  16  23
ATOM     23  O   UNL     1      93.963  85.549  88.314  1.00  0.00    -0.381 OA
ATOM     24  H   UNL     1      94.181  86.016  87.491  1.00  0.00     0.212 HD
ENDBRANCH  16  23
ENDBRANCH   6  15
BRANCH   7  25
ATOM     25  C   UNL     1      93.912  78.907  88.604  1.00  0.00     0.135 C 
BRANCH  25  26
ATOM     26  C   UNL     1      94.845  78.239  87.625  1.00  0.00    -0.040 A 
ATOM     27  C   UNL     1      94.355  77.281  86.737  1.00  0.00     0.004 A 
ATOM     28  C   UNL     1      96.198  78.579  87.606  1.00  0.00     0.004 A 
ATOM     29  C   UNL     1      95.217  76.663  85.831  1.00  0.00     0.000 A 
ATOM     30  C   UNL     1      97.060  77.961  86.700  1.00  0.00     0.000 A 
ATOM     31  C   UNL     1      96.569  77.003  85.813  1.00  0.00     0.000 A 
ENDBRANCH  25  26
ENDBRANCH   7  25
BRANCH  14  32
ATOM     32  C   UNL     1      90.711  80.838  86.223  1.00  0.00    -0.046 C 
ATOM     33  C   UNL     1      91.131  79.701  85.339  1.00  0.00     0.042 C 
ATOM     34  C   UNL     1      89.472  81.351  86.176  1.00  0.00     0.010 C 
ENDBRANCH  14  32
ENDBRANCH   3   4
BRANCH   2  35
ATOM     35  C   UNL     1      96.270  84.898  87.720  1.00  0.00     0.078 CG0
ATOM     36  G   UNL     1      95.133  84.917  88.741  1.00  0.00     0.000 G0
ENDBRANCH   2  35
ENDBRANCH   1   2
BRANCH   1  37
ATOM     37  O   UNL     1      98.536  83.153  86.604  1.00  0.00    -0.461 OA
BRANCH  37  38
ATOM     38  C   UNL     1      99.172  82.076  86.033  1.00  0.00     0.310 C 
ATOM     39  O   UNL     1     100.374  81.857  86.094  1.00  0.00    -0.252 OA
BRANCH  38  40
ATOM     40  C   UNL     1      98.159  81.209  85.323  1.00  0.00     0.158 C 
BRANCH  40  41
ATOM     41  C   UNL     1      98.563  80.868  83.912  1.00  0.00    -0.033 A 
ATOM     42  C   UNL     1      98.859  81.887  83.006  1.00  0.00     0.054 A 
ATOM     43  C   UNL     1      98.642  79.534  83.512  1.00  0.00     0.008 A 
ATOM     44  C   UNL     1      99.234  81.572  81.699  1.00  0.00     0.160 A 
ATOM     45  C   UNL     1      99.017  79.219  82.205  1.00  0.00     0.050 A 
ATOM     46  C   UNL     1      99.312  80.237  81.299  1.00  0.00     0.157 A 
BRANCH  44  47
ATOM     47  O   UNL     1      99.519  82.575  80.824  1.00  0.00    -0.493 OA
ATOM     48  C   UNL     1      98.418  83.180  80.149  1.00  0.00     0.278 C 
ENDBRANCH  44  47
BRANCH  46  49
ATOM     49  O   UNL     1      99.677  79.917  80.027  1.00  0.00    -0.504 OA
ATOM     50  H   UNL     1      99.373  80.616  79.424  1.00  0.00     0.293 HD
ENDBRANCH  46  49
ENDBRANCH  40  41
ENDBRANCH  38  40
ENDBRANCH  37  38
ENDBRANCH   1  37
TORSDOF 11
ENDMDL
MODEL 7
REMARK VINA RESULT:    -6.290      3.206      5.959
REMARK INTER + INTRA:         -12.444
REMARK INTER:                 -10.086
REMARK INTRA:                  -2.358
REMARK UNBOUND:                -1.373
REMARK SMILES C=C(C)[C@]12C[C@@H](C)[C@@]34O[C@](Cc5ccccc5)(O[C@@H]1[C@@H]3C=C(COC(=O)Cc1ccc(O)c(OC)c1)C[C@]1(O)C(=O)C(C)=C[C@@H]41)O2
REMARK SMILES IDX 23 1 22 2 21 3 20 4 9 5 8 6 10 7 6 8 18 9 46 10 19 11 5 12
REMARK SMILES IDX 7 13 4 14 45 15 38 16 44 17 40 18 42 20 41 21 43 22 39 23
REMARK SMILES IDX 11 25 12 26 13 27 17 28 14 29 16 30 15 31 2 32 3 33 1 34
REMARK SMILES IDX 37 35 24 37 25 38 26 39 27 40 28 41 36 42 29 43 33 44 30 45
REMARK SMILES IDX 31 46 34 47 35 48 32 49
REMARK H PARENT 39 24 32 50
REMARK Flexibility Score: 90.00
ROOT
ATOM      1  C   UNL     1      64.785  89.220  73.435  1.00  0.00     0.264 C 
ENDROOT
BRANCH   1   2
ATOM      2  C   UNL     1      63.766  88.441  72.635  1.00  0.00    -0.033 C 
ATOM      3  C   UNL     1      63.872  87.099  72.562  1.00  0.00    -0.015 C 
BRANCH   3   4
ATOM      4  C   UNL     1      63.034  86.108  71.771  1.00  0.00     0.078 C 
ATOM      5  O   UNL     1      61.224  85.337  73.271  1.00  0.00    -0.319 OA
ATOM      6  C   UNL     1      61.482  86.065  72.030  1.00  0.00     0.095 C 
ATOM      7  C   UNL     1      62.002  84.139  73.456  1.00  0.00     0.289 C 
ATOM      8  C   UNL     1      60.815  85.289  70.820  1.00  0.00     0.023 C 
ATOM      9  O   UNL     1      63.399  84.418  73.410  1.00  0.00    -0.320 OA
ATOM     10  O   UNL     1      61.768  83.178  72.430  1.00  0.00    -0.313 OA
ATOM     11  C   UNL     1      63.560  84.670  72.006  1.00  0.00     0.170 C 
ATOM     12  C   UNL     1      61.754  84.173  70.269  1.00  0.00     0.049 C 
ATOM     13  C   UNL     1      59.425  84.695  71.103  1.00  0.00     0.011 C 
ATOM     14  C   UNL     1      62.648  83.593  71.366  1.00  0.00     0.122 C 
BRANCH   6  15
ATOM     15  C   UNL     1      60.927  87.494  72.296  1.00  0.00     0.086 C 
ATOM     16  C   UNL     1      61.471  88.615  71.386  1.00  0.00     0.140 CG0
ATOM     17  C   UNL     1      59.441  87.722  72.281  1.00  0.00    -0.010 C 
ATOM     18  C   UNL     1      60.274  89.530  71.244  1.00  0.00     0.190 C 
ATOM     19  G   UNL     1      62.678  89.322  72.001  1.00  0.00     0.000 G0
ATOM     20  C   UNL     1      59.044  88.870  71.721  1.00  0.00    -0.008 C 
ATOM     21  O   UNL     1      60.292  90.649  70.755  1.00  0.00    -0.291 OA
ATOM     22  C   UNL     1      57.692  89.454  71.606  1.00  0.00     0.048 C 
BRANCH  16  23
ATOM     23  O   UNL     1      61.737  88.197  70.057  1.00  0.00    -0.381 OA
ATOM     24  H   UNL     1      61.075  88.598  69.471  1.00  0.00     0.212 HD
ENDBRANCH  16  23
ENDBRANCH   6  15
BRANCH   7  25
ATOM     25  C   UNL     1      61.643  83.542  74.802  1.00  0.00     0.135 C 
BRANCH  25  26
ATOM     26  C   UNL     1      62.738  83.743  75.820  1.00  0.00    -0.040 A 
ATOM     27  C   UNL     1      62.570  84.667  76.851  1.00  0.00     0.004 A 
ATOM     28  C   UNL     1      63.917  83.003  75.732  1.00  0.00     0.004 A 
ATOM     29  C   UNL     1      63.582  84.853  77.793  1.00  0.00     0.000 A 
ATOM     30  C   UNL     1      64.929  83.189  76.674  1.00  0.00     0.000 A 
ATOM     31  C   UNL     1      64.761  84.114  77.704  1.00  0.00     0.000 A 
ENDBRANCH  25  26
ENDBRANCH   7  25
BRANCH  14  32
ATOM     32  C   UNL     1      63.424  82.403  70.906  1.00  0.00    -0.046 C 
ATOM     33  C   UNL     1      63.296  82.050  69.453  1.00  0.00     0.042 C 
ATOM     34  C   UNL     1      64.191  81.688  71.743  1.00  0.00     0.010 C 
ENDBRANCH  14  32
ENDBRANCH   3   4
BRANCH   2  35
ATOM     35  C   UNL     1      62.709  89.324  72.000  1.00  0.00     0.078 CG0
ATOM     36  G   UNL     1      61.481  88.630  71.411  1.00  0.00     0.000 G0
ENDBRANCH   2  35
ENDBRANCH   1   2
BRANCH   1  37
ATOM     37  O   UNL     1      65.440  90.140  72.588  1.00  0.00    -0.461 OA
BRANCH  37  38
ATOM     38  C   UNL     1      66.763  89.880  72.317  1.00  0.00     0.310 C 
ATOM     39  O   UNL     1      67.679  89.987  73.120  1.00  0.00    -0.252 OA
BRANCH  38  40
ATOM     40  C   UNL     1      66.907  89.446  70.877  1.00  0.00     0.158 C 
BRANCH  40  41
ATOM     41  C   UNL     1      66.817  87.951  70.702  1.00  0.00    -0.033 A 
ATOM     42  C   UNL     1      67.297  87.103  71.701  1.00  0.00     0.054 A 
ATOM     43  C   UNL     1      66.255  87.417  69.544  1.00  0.00     0.008 A 
ATOM     44  C   UNL     1      67.214  85.720  71.540  1.00  0.00     0.160 A 
ATOM     45  C   UNL     1      66.172  86.034  69.382  1.00  0.00     0.050 A 
ATOM     46  C   UNL     1      66.652  85.185  70.379  1.00  0.00     0.157 A 
BRANCH  44  47
ATOM     47  O   UNL     1      67.685  84.901  72.521  1.00  0.00    -0.493 OA
ATOM     48  C   UNL     1      66.996  84.923  73.770  1.00  0.00     0.278 C 
ENDBRANCH  44  47
BRANCH  46  49
ATOM     49  O   UNL     1      66.564  83.836  70.211  1.00  0.00    -0.504 OA
ATOM     50  H   UNL     1      66.581  83.407  71.083  1.00  0.00     0.293 HD
ENDBRANCH  46  49
ENDBRANCH  40  41
ENDBRANCH  38  40
ENDBRANCH  37  38
ENDBRANCH   1  37
TORSDOF 11
ENDMDL
MODEL 8
REMARK VINA RESULT:    -6.277     17.935     20.365
REMARK INTER + INTRA:         -12.421
REMARK INTER:                 -11.874
REMARK INTRA:                  -0.548
REMARK UNBOUND:                -1.373
REMARK SMILES C=C(C)[C@]12C[C@@H](C)[C@@]34O[C@](Cc5ccccc5)(O[C@@H]1[C@@H]3C=C(COC(=O)Cc1ccc(O)c(OC)c1)C[C@]1(O)C(=O)C(C)=C[C@@H]41)O2
REMARK SMILES IDX 23 1 22 2 21 3 20 4 9 5 8 6 10 7 6 8 18 9 46 10 19 11 5 12
REMARK SMILES IDX 7 13 4 14 45 15 38 16 44 17 40 18 42 20 41 21 43 22 39 23
REMARK SMILES IDX 11 25 12 26 13 27 17 28 14 29 16 30 15 31 2 32 3 33 1 34
REMARK SMILES IDX 37 35 24 37 25 38 26 39 27 40 28 41 36 42 29 43 33 44 30 45
REMARK SMILES IDX 31 46 34 47 35 48 32 49
REMARK H PARENT 39 24 32 50
REMARK Flexibility Score: 90.00
ROOT
ATOM      1  C   UNL     1      68.812  66.802  82.374  1.00  0.00     0.264 C 
ENDROOT
BRANCH   1   2
ATOM      2  C   UNL     1      67.421  66.376  81.964  1.00  0.00    -0.033 C 
ATOM      3  C   UNL     1      66.354  66.955  82.550  1.00  0.00    -0.015 C 
BRANCH   3   4
ATOM      4  C   UNL     1      64.875  66.654  82.373  1.00  0.00     0.078 C 
ATOM      5  O   UNL     1      64.048  68.138  80.575  1.00  0.00    -0.319 OA
ATOM      6  C   UNL     1      64.262  66.736  80.926  1.00  0.00     0.095 C 
ATOM      7  C   UNL     1      63.493  68.957  81.621  1.00  0.00     0.289 C 
ATOM      8  C   UNL     1      62.867  65.984  80.952  1.00  0.00     0.023 C 
ATOM      9  O   UNL     1      64.312  68.932  82.787  1.00  0.00    -0.320 OA
ATOM     10  O   UNL     1      62.210  68.501  82.043  1.00  0.00    -0.313 OA
ATOM     11  C   UNL     1      64.035  67.605  83.261  1.00  0.00     0.170 C 
ATOM     12  C   UNL     1      62.160  66.141  82.333  1.00  0.00     0.049 C 
ATOM     13  C   UNL     1      61.889  66.368  79.830  1.00  0.00     0.011 C 
ATOM     14  C   UNL     1      62.514  67.469  83.003  1.00  0.00     0.122 C 
BRANCH   6  15
ATOM     15  C   UNL     1      65.279  66.222  79.866  1.00  0.00     0.086 C 
ATOM     16  C   UNL     1      66.076  64.956  80.246  1.00  0.00     0.140 CG0
ATOM     17  C   UNL     1      64.804  65.929  78.470  1.00  0.00    -0.010 C 
ATOM     18  C   UNL     1      66.236  64.258  78.912  1.00  0.00     0.190 C 
ATOM     19  G   UNL     1      67.417  65.293  80.896  1.00  0.00     0.000 G0
ATOM     20  C   UNL     1      65.344  64.849  77.897  1.00  0.00    -0.008 C 
ATOM     21  O   UNL     1      66.962  63.300  78.697  1.00  0.00    -0.291 OA
ATOM     22  C   UNL     1      65.178  64.314  76.529  1.00  0.00     0.048 C 
BRANCH  16  23
ATOM     23  O   UNL     1      65.341  64.029  81.028  1.00  0.00    -0.381 OA
ATOM     24  H   UNL     1      64.706  64.522  81.573  1.00  0.00     0.212 HD
ENDBRANCH  16  23
ENDBRANCH   6  15
BRANCH   7  25
ATOM     25  C   UNL     1      63.381  70.377  81.105  1.00  0.00     0.135 C 
BRANCH  25  26
ATOM     26  C   UNL     1      63.010  71.349  82.198  1.00  0.00    -0.040 A 
ATOM     27  C   UNL     1      61.675  71.704  82.391  1.00  0.00     0.004 A 
ATOM     28  C   UNL     1      64.001  71.891  83.015  1.00  0.00     0.004 A 
ATOM     29  C   UNL     1      61.332  72.603  83.402  1.00  0.00     0.000 A 
ATOM     30  C   UNL     1      63.658  72.789  84.026  1.00  0.00     0.000 A 
ATOM     31  C   UNL     1      62.323  73.145  84.219  1.00  0.00     0.000 A 
ENDBRANCH  25  26
ENDBRANCH   7  25
BRANCH  14  32
ATOM     32  C   UNL     1      61.710  67.722  84.236  1.00  0.00    -0.046 C 
ATOM     33  C   UNL     1      61.084  69.080  84.352  1.00  0.00     0.042 C 
ATOM     34  C   UNL     1      61.556  66.788  85.187  1.00  0.00     0.010 C 
ENDBRANCH  14  32
ENDBRANCH   3   4
BRANCH   2  35
ATOM     35  C   UNL     1      67.420  65.306  80.889  1.00  0.00     0.078 CG0
ATOM     36  G   UNL     1      66.081  64.975  80.233  1.00  0.00     0.000 G0
ENDBRANCH   2  35
ENDBRANCH   1   2
BRANCH   1  37
ATOM     37  O   UNL     1      69.694  66.624  81.287  1.00  0.00    -0.461 OA
BRANCH  37  38
ATOM     38  C   UNL     1      70.998  67.013  81.492  1.00  0.00     0.310 C 
ATOM     39  O   UNL     1      71.631  67.762  80.761  1.00  0.00    -0.252 OA
BRANCH  38  40
ATOM     40  C   UNL     1      71.523  66.373  82.756  1.00  0.00     0.158 C 
BRANCH  40  41
ATOM     41  C   UNL     1      72.251  67.345  83.649  1.00  0.00    -0.033 A 
ATOM     42  C   UNL     1      71.542  68.346  84.314  1.00  0.00     0.054 A 
ATOM     43  C   UNL     1      73.632  67.243  83.810  1.00  0.00     0.008 A 
ATOM     44  C   UNL     1      72.215  69.245  85.141  1.00  0.00     0.160 A 
ATOM     45  C   UNL     1      74.306  68.143  84.637  1.00  0.00     0.050 A 
ATOM     46  C   UNL     1      73.598  69.144  85.302  1.00  0.00     0.157 A 
BRANCH  44  47
ATOM     47  O   UNL     1      71.513  70.218  85.785  1.00  0.00    -0.493 OA
ATOM     48  C   UNL     1      71.308  70.049  87.187  1.00  0.00     0.278 C 
ENDBRANCH  44  47
BRANCH  46  49
ATOM     49  O   UNL     1      74.266  70.015  86.107  1.00  0.00    -0.504 OA
ATOM     50  H   UNL     1      74.248  70.899  85.702  1.00  0.00     0.293 HD
ENDBRANCH  46  49
ENDBRANCH  40  41
ENDBRANCH  38  40
ENDBRANCH  37  38
ENDBRANCH   1  37
TORSDOF 11
ENDMDL
MODEL 9
REMARK VINA RESULT:    -6.130      4.071     11.092
REMARK INTER + INTRA:         -12.162
REMARK INTER:                 -11.206
REMARK INTRA:                  -0.956
REMARK UNBOUND:                -1.373
REMARK SMILES C=C(C)[C@]12C[C@@H](C)[C@@]34O[C@](Cc5ccccc5)(O[C@@H]1[C@@H]3C=C(COC(=O)Cc1ccc(O)c(OC)c1)C[C@]1(O)C(=O)C(C)=C[C@@H]41)O2
REMARK SMILES IDX 23 1 22 2 21 3 20 4 9 5 8 6 10 7 6 8 18 9 46 10 19 11 5 12
REMARK SMILES IDX 7 13 4 14 45 15 38 16 44 17 40 18 42 20 41 21 43 22 39 23
REMARK SMILES IDX 11 25 12 26 13 27 17 28 14 29 16 30 15 31 2 32 3 33 1 34
REMARK SMILES IDX 37 35 24 37 25 38 26 39 27 40 28 41 36 42 29 43 33 44 30 45
REMARK SMILES IDX 31 46 34 47 35 48 32 49
REMARK H PARENT 39 24 32 50
REMARK Flexibility Score: 90.00
ROOT
ATOM      1  C   UNL     1      70.037  83.747  70.758  1.00  0.00     0.264 C 
ENDROOT
BRANCH   1   2
ATOM      2  C   UNL     1      70.521  84.419  69.495  1.00  0.00    -0.033 C 
ATOM      3  C   UNL     1      71.747  84.979  69.475  1.00  0.00    -0.015 C 
BRANCH   3   4
ATOM      4  C   UNL     1      72.428  85.772  68.371  1.00  0.00     0.078 C 
ATOM      5  O   UNL     1      73.736  84.158  67.028  1.00  0.00    -0.319 OA
ATOM      6  C   UNL     1      72.612  85.089  66.964  1.00  0.00     0.095 C 
ATOM      7  C   UNL     1      74.896  84.638  67.734  1.00  0.00     0.289 C 
ATOM      8  C   UNL     1      72.938  86.232  65.916  1.00  0.00     0.023 C 
ATOM      9  O   UNL     1      74.571  85.003  69.073  1.00  0.00    -0.320 OA
ATOM     10  O   UNL     1      75.445  85.810  67.139  1.00  0.00    -0.313 OA
ATOM     11  C   UNL     1      73.838  86.214  68.834  1.00  0.00     0.170 C 
ATOM     12  C   UNL     1      73.759  87.388  66.567  1.00  0.00     0.049 C 
ATOM     13  C   UNL     1      73.641  85.767  64.630  1.00  0.00     0.011 C 
ATOM     14  C   UNL     1      74.654  86.879  67.697  1.00  0.00     0.122 C 
BRANCH   6  15
ATOM     15  C   UNL     1      71.386  84.195  66.620  1.00  0.00     0.086 C 
ATOM     16  C   UNL     1      70.000  84.785  66.954  1.00  0.00     0.140 CG0
ATOM     17  C   UNL     1      71.219  83.683  65.217  1.00  0.00    -0.010 C 
ATOM     18  C   UNL     1      69.135  84.236  65.839  1.00  0.00     0.190 C 
ATOM     19  G   UNL     1      69.510  84.359  68.338  1.00  0.00     0.000 G0
ATOM     20  C   UNL     1      69.963  83.668  64.759  1.00  0.00    -0.008 C 
ATOM     21  O   UNL     1      67.915  84.293  65.796  1.00  0.00    -0.291 OA
ATOM     22  C   UNL     1      69.422  83.162  63.480  1.00  0.00     0.048 C 
BRANCH  16  23
ATOM     23  O   UNL     1      69.918  86.190  66.786  1.00  0.00    -0.381 OA
ATOM     24  H   UNL     1      69.024  86.478  67.035  1.00  0.00     0.212 HD
ENDBRANCH  16  23
ENDBRANCH   6  15
BRANCH   7  25
ATOM     25  C   UNL     1      75.938  83.538  67.742  1.00  0.00     0.135 C 
BRANCH  25  26
ATOM     26  C   UNL     1      75.998  82.808  66.423  1.00  0.00    -0.040 A 
ATOM     27  C   UNL     1      76.764  83.321  65.376  1.00  0.00     0.004 A 
ATOM     28  C   UNL     1      75.290  81.619  66.251  1.00  0.00     0.004 A 
ATOM     29  C   UNL     1      76.821  82.646  64.157  1.00  0.00     0.000 A 
ATOM     30  C   UNL     1      75.346  80.944  65.031  1.00  0.00     0.000 A 
ATOM     31  C   UNL     1      76.112  81.458  63.984  1.00  0.00     0.000 A 
ENDBRANCH  25  26
ENDBRANCH   7  25
BRANCH  14  32
ATOM     32  C   UNL     1      75.581  87.931  68.213  1.00  0.00    -0.046 C 
ATOM     33  C   UNL     1      77.046  87.624  68.124  1.00  0.00     0.042 C 
ATOM     34  C   UNL     1      75.129  89.085  68.726  1.00  0.00     0.010 C 
ENDBRANCH  14  32
ENDBRANCH   3   4
BRANCH   2  35
ATOM     35  C   UNL     1      69.511  84.360  68.365  1.00  0.00     0.078 CG0
ATOM     36  G   UNL     1      69.997  84.756  66.972  1.00  0.00     0.000 G0
ENDBRANCH   2  35
ENDBRANCH   1   2
BRANCH   1  37
ATOM     37  O   UNL     1      68.627  83.804  70.807  1.00  0.00    -0.461 OA
BRANCH  37  38
ATOM     38  C   UNL     1      68.077  84.265  71.980  1.00  0.00     0.310 C 
ATOM     39  O   UNL     1      68.662  84.329  73.053  1.00  0.00    -0.252 OA
BRANCH  38  40
ATOM     40  C   UNL     1      66.645  84.679  71.737  1.00  0.00     0.158 C 
BRANCH  40  41
ATOM     41  C   UNL     1      65.916  83.752  70.798  1.00  0.00    -0.033 A 
ATOM     42  C   UNL     1      65.758  84.102  69.456  1.00  0.00     0.054 A 
ATOM     43  C   UNL     1      65.402  82.545  71.269  1.00  0.00     0.008 A 
ATOM     44  C   UNL     1      65.084  83.244  68.587  1.00  0.00     0.160 A 
ATOM     45  C   UNL     1      64.727  81.687  70.400  1.00  0.00     0.050 A 
ATOM     46  C   UNL     1      64.568  82.036  69.059  1.00  0.00     0.157 A 
BRANCH  44  47
ATOM     47  O   UNL     1      64.935  83.597  67.280  1.00  0.00    -0.493 OA
ATOM     48  C   UNL     1      63.606  83.837  66.821  1.00  0.00     0.278 C 
ENDBRANCH  44  47
BRANCH  46  49
ATOM     49  O   UNL     1      63.909  81.191  68.219  1.00  0.00    -0.504 OA
ATOM     50  H   UNL     1      63.933  80.293  68.591  1.00  0.00     0.293 HD
ENDBRANCH  46  49
ENDBRANCH  40  41
ENDBRANCH  38  40
ENDBRANCH  37  38
ENDBRANCH   1  37
TORSDOF 11
ENDMDL
MODEL 10
REMARK VINA RESULT:    -6.036     30.780     34.505
REMARK INTER + INTRA:         -11.997
REMARK INTER:                 -10.893
REMARK INTRA:                  -1.103
REMARK UNBOUND:                -1.373
REMARK SMILES C=C(C)[C@]12C[C@@H](C)[C@@]34O[C@](Cc5ccccc5)(O[C@@H]1[C@@H]3C=C(COC(=O)Cc1ccc(O)c(OC)c1)C[C@]1(O)C(=O)C(C)=C[C@@H]41)O2
REMARK SMILES IDX 23 1 22 2 21 3 20 4 9 5 8 6 10 7 6 8 18 9 46 10 19 11 5 12
REMARK SMILES IDX 7 13 4 14 45 15 38 16 44 17 40 18 42 20 41 21 43 22 39 23
REMARK SMILES IDX 11 25 12 26 13 27 17 28 14 29 16 30 15 31 2 32 3 33 1 34
REMARK SMILES IDX 37 35 24 37 25 38 26 39 27 40 28 41 36 42 29 43 33 44 30 45
REMARK SMILES IDX 31 46 34 47 35 48 32 49
REMARK H PARENT 39 24 32 50
REMARK Flexibility Score: 90.00
ROOT
ATOM      1  C   UNL     1      93.264  85.441  89.206  1.00  0.00     0.264 C 
ENDROOT
BRANCH   1   2
ATOM      2  C   UNL     1      94.364  84.468  88.854  1.00  0.00    -0.033 C 
ATOM      3  C   UNL     1      94.368  83.243  89.419  1.00  0.00    -0.015 C 
BRANCH   3   4
ATOM      4  C   UNL     1      95.391  82.126  89.292  1.00  0.00     0.078 C 
ATOM      5  O   UNL     1      94.644  80.674  87.434  1.00  0.00    -0.319 OA
ATOM      6  C   UNL     1      95.718  81.569  87.856  1.00  0.00     0.095 C 
ATOM      7  C   UNL     1      94.161  79.769  88.446  1.00  0.00     0.289 C 
ATOM      8  C   UNL     1      97.072  80.753  87.955  1.00  0.00     0.023 C 
ATOM      9  O   UNL     1      93.697  80.477  89.593  1.00  0.00    -0.320 OA
ATOM     10  O   UNL     1      95.181  78.894  88.920  1.00  0.00    -0.313 OA
ATOM     11  C   UNL     1      94.950  80.911  90.145  1.00  0.00     0.170 C 
ATOM     12  C   UNL     1      97.217  80.052  89.341  1.00  0.00     0.049 C 
ATOM     13  C   UNL     1      97.306  79.725  86.836  1.00  0.00     0.011 C 
ATOM     14  C   UNL     1      95.857  79.674  89.929  1.00  0.00     0.122 C 
BRANCH   6  15
ATOM     15  C   UNL     1      95.704  82.716  86.804  1.00  0.00     0.086 C 
ATOM     16  C   UNL     1      96.385  84.035  87.226  1.00  0.00     0.140 CG0
ATOM     17  C   UNL     1      96.257  82.461  85.430  1.00  0.00    -0.010 C 
ATOM     18  C   UNL     1      96.969  84.532  85.921  1.00  0.00     0.190 C 
ATOM     19  G   UNL     1      95.395  85.024  87.839  1.00  0.00     0.000 G0
ATOM     20  C   UNL     1      96.950  83.472  84.895  1.00  0.00    -0.008 C 
ATOM     21  O   UNL     1      97.447  85.641  85.736  1.00  0.00    -0.291 OA
ATOM     22  C   UNL     1      97.556  83.606  83.555  1.00  0.00     0.048 C 
BRANCH  16  23
ATOM     23  O   UNL     1      97.519  83.854  88.058  1.00  0.00    -0.381 OA
ATOM     24  H   UNL     1      98.052  83.127  87.697  1.00  0.00     0.212 HD
ENDBRANCH  16  23
ENDBRANCH   6  15
BRANCH   7  25
ATOM     25  C   UNL     1      93.029  78.954  87.854  1.00  0.00     0.135 C 
BRANCH  25  26
ATOM     26  C   UNL     1      91.832  79.808  87.520  1.00  0.00    -0.040 A 
ATOM     27  C   UNL     1      91.851  80.623  86.388  1.00  0.00     0.004 A 
ATOM     28  C   UNL     1      90.705  79.783  88.341  1.00  0.00     0.004 A 
ATOM     29  C   UNL     1      90.744  81.413  86.078  1.00  0.00     0.000 A 
ATOM     30  C   UNL     1      89.598  80.573  88.031  1.00  0.00     0.000 A 
ATOM     31  C   UNL     1      89.618  81.388  86.899  1.00  0.00     0.000 A 
ENDBRANCH  25  26
ENDBRANCH   7  25
BRANCH  14  32
ATOM     32  C   UNL     1      95.976  78.842  91.164  1.00  0.00    -0.046 C 
ATOM     33  C   UNL     1      96.762  79.441  92.292  1.00  0.00     0.042 C 
ATOM     34  C   UNL     1      95.412  77.628  91.260  1.00  0.00     0.010 C 
ENDBRANCH  14  32
ENDBRANCH   3   4
BRANCH   2  35
ATOM     35  C   UNL     1      95.359  85.030  87.856  1.00  0.00     0.078 CG0
ATOM     36  G   UNL     1      96.364  84.055  87.245  1.00  0.00     0.000 G0
ENDBRANCH   2  35
ENDBRANCH   1   2
BRANCH   1  37
ATOM     37  O   UNL     1      92.858  85.224  90.540  1.00  0.00    -0.461 OA
BRANCH  37  38
ATOM     38  C   UNL     1      92.173  86.253  91.143  1.00  0.00     0.310 C 
ATOM     39  O   UNL     1      91.015  86.563  90.901  1.00  0.00    -0.252 OA
BRANCH  38  40
ATOM     40  C   UNL     1      93.072  86.939  92.145  1.00  0.00     0.158 C 
BRANCH  40  41
ATOM     41  C   UNL     1      93.584  88.271  91.662  1.00  0.00    -0.033 A 
ATOM     42  C   UNL     1      94.685  88.326  90.806  1.00  0.00     0.054 A 
ATOM     43  C   UNL     1      92.957  89.449  92.069  1.00  0.00     0.008 A 
ATOM     44  C   UNL     1      95.158  89.559  90.358  1.00  0.00     0.160 A 
ATOM     45  C   UNL     1      93.431  90.682  91.621  1.00  0.00     0.050 A 
ATOM     46  C   UNL     1      94.531  90.738  90.766  1.00  0.00     0.157 A 
BRANCH  44  47
ATOM     47  O   UNL     1      96.234  89.601  89.523  1.00  0.00    -0.493 OA
ATOM     48  C   UNL     1      97.524  89.500  90.123  1.00  0.00     0.278 C 
ENDBRANCH  44  47
BRANCH  46  49
ATOM     49  O   UNL     1      94.984  91.947  90.334  1.00  0.00    -0.504 OA
ATOM     50  H   UNL     1      95.373  92.427  91.086  1.00  0.00     0.293 HD
ENDBRANCH  46  49
ENDBRANCH  40  41
ENDBRANCH  38  40
ENDBRANCH  37  38
ENDBRANCH   1  37
TORSDOF 11
ENDMDL
