MODEL 1
REMARK VINA RESULT:    -6.722      0.000      0.000
REMARK INTER + INTRA:         -11.025
REMARK INTER:                 -10.456
REMARK INTRA:                  -0.569
REMARK UNBOUND:                -0.569
REMARK SMILES COc1cc(CNC(=O)CCCC/C=C/C(C)C)ccc1O
REMARK SMILES IDX 10 1 8 2 7 3 9 5 6 6 5 7 3 8 21 9 4 10 20 11 19 12 2 13 1 14
REMARK SMILES IDX 22 15 11 17 12 18 13 19 14 20 15 21 16 22 17 23 18 24
REMARK H PARENT 7 4 22 16
REMARK Flexibility Score: inf
ROOT
ATOM      1  C   UNL     1      95.547  81.609  84.292  1.00  0.00     0.100 C 
ENDROOT
BRANCH   1   2
ATOM      2  C   UNL     1      94.351  82.428  84.570  1.00  0.00     0.220 C 
ATOM      3  N   UNL     1      93.122  81.849  84.661  1.00  0.00    -0.352 N 
ATOM      4  H   UNL     1      93.108  80.851  84.502  1.00  0.00     0.163 HD
ATOM      5  O   UNL     1      94.506  83.662  84.740  1.00  0.00    -0.275 OA
BRANCH   3   6
ATOM      6  C   UNL     1      91.911  82.546  84.956  1.00  0.00     0.151 C 
BRANCH   6   7
ATOM      7  C   UNL     1      90.713  81.737  84.601  1.00  0.00    -0.025 A 
ATOM      8  C   UNL     1      88.277  81.565  84.289  1.00  0.00     0.160 A 
ATOM      9  C   UNL     1      88.421  80.215  83.908  1.00  0.00     0.157 A 
ATOM     10  C   UNL     1      89.423  82.312  84.634  1.00  0.00     0.056 A 
ATOM     11  C   UNL     1      89.699  79.623  83.889  1.00  0.00     0.050 A 
ATOM     12  C   UNL     1      90.839  80.380  84.224  1.00  0.00     0.009 A 
BRANCH   8  13
ATOM     13  O   UNL     1      87.029  82.127  84.372  1.00  0.00    -0.493 OA
ATOM     14  C   UNL     1      87.035  83.566  84.419  1.00  0.00     0.278 C 
ENDBRANCH   8  13
BRANCH   9  15
ATOM     15  O   UNL     1      87.339  79.472  83.557  1.00  0.00    -0.504 OA
ATOM     16  H   UNL     1      87.359  78.635  84.028  1.00  0.00     0.293 HD
ENDBRANCH   9  15
ENDBRANCH   6   7
ENDBRANCH   3   6
ENDBRANCH   1   2
BRANCH   1  17
ATOM     17  C   UNL     1      95.949  81.672  82.794  1.00  0.00     0.010 C 
BRANCH  17  18
ATOM     18  C   UNL     1      97.059  82.722  82.510  1.00  0.00     0.005 C 
BRANCH  18  19
ATOM     19  C   UNL     1      97.965  82.315  81.316  1.00  0.00     0.027 C 
BRANCH  19  20
ATOM     20  C   UNL     1      97.372  82.665  80.034  1.00  0.00    -0.031 C 
ATOM     21  C   UNL     1      97.804  82.198  78.849  1.00  0.00    -0.028 C 
BRANCH  21  22
ATOM     22  C   UNL     1      97.179  82.547  77.573  1.00  0.00     0.005 C 
ATOM     23  C   UNL     1      96.341  83.852  77.666  1.00  0.00     0.012 C 
ATOM     24  C   UNL     1      98.255  82.658  76.462  1.00  0.00     0.012 C 
ENDBRANCH  21  22
ENDBRANCH  19  20
ENDBRANCH  18  19
ENDBRANCH  17  18
ENDBRANCH   1  17
TORSDOF 10
ENDMDL
MODEL 2
REMARK VINA RESULT:    -6.718      1.626      2.311
REMARK INTER + INTRA:         -11.018
REMARK INTER:                 -10.401
REMARK INTRA:                  -0.616
REMARK UNBOUND:                -0.569
REMARK SMILES COc1cc(CNC(=O)CCCC/C=C/C(C)C)ccc1O
REMARK SMILES IDX 10 1 8 2 7 3 9 5 6 6 5 7 3 8 21 9 4 10 20 11 19 12 2 13 1 14
REMARK SMILES IDX 22 15 11 17 12 18 13 19 14 20 15 21 16 22 17 23 18 24
REMARK H PARENT 7 4 22 16
REMARK Flexibility Score: inf
ROOT
ATOM      1  C   UNL     1      96.296  84.327  83.936  1.00  0.00     0.100 C 
ENDROOT
BRANCH   1   2
ATOM      2  C   UNL     1      95.210  83.986  84.875  1.00  0.00     0.220 C 
ATOM      3  N   UNL     1      94.004  83.553  84.410  1.00  0.00    -0.352 N 
ATOM      4  H   UNL     1      93.924  83.513  83.404  1.00  0.00     0.163 HD
ATOM      5  O   UNL     1      95.437  84.086  86.105  1.00  0.00    -0.275 OA
BRANCH   3   6
ATOM      6  C   UNL     1      92.903  83.169  85.234  1.00  0.00     0.151 C 
BRANCH   6   7
ATOM      7  C   UNL     1      92.393  81.819  84.871  1.00  0.00    -0.025 A 
ATOM      8  C   UNL     1      90.564  80.379  84.070  1.00  0.00     0.160 A 
ATOM      9  C   UNL     1      91.410  79.254  84.156  1.00  0.00     0.157 A 
ATOM     10  C   UNL     1      91.061  81.648  84.430  1.00  0.00     0.056 A 
ATOM     11  C   UNL     1      92.734  79.405  84.612  1.00  0.00     0.050 A 
ATOM     12  C   UNL     1      93.226  80.679  84.958  1.00  0.00     0.009 A 
BRANCH   8  13
ATOM     13  O   UNL     1      89.255  80.227  83.689  1.00  0.00    -0.493 OA
ATOM     14  C   UNL     1      88.345  81.133  84.340  1.00  0.00     0.278 C 
ENDBRANCH   8  13
BRANCH   9  15
ATOM     15  O   UNL     1      90.966  78.020  83.804  1.00  0.00    -0.504 OA
ATOM     16  H   UNL     1      90.657  77.555  84.585  1.00  0.00     0.293 HD
ENDBRANCH   9  15
ENDBRANCH   6   7
ENDBRANCH   3   6
ENDBRANCH   1   2
BRANCH   1  17
ATOM     17  C   UNL     1      96.561  83.178  82.926  1.00  0.00     0.010 C 
BRANCH  17  18
ATOM     18  C   UNL     1      96.391  83.621  81.446  1.00  0.00     0.005 C 
BRANCH  18  19
ATOM     19  C   UNL     1      97.058  82.632  80.453  1.00  0.00     0.027 C 
BRANCH  19  20
ATOM     20  C   UNL     1      97.555  83.305  79.262  1.00  0.00    -0.031 C 
ATOM     21  C   UNL     1      97.093  83.080  78.018  1.00  0.00    -0.028 C 
BRANCH  21  22
ATOM     22  C   UNL     1      97.594  83.782  76.837  1.00  0.00     0.005 C 
ATOM     23  C   UNL     1      98.026  82.804  75.709  1.00  0.00     0.012 C 
ATOM     24  C   UNL     1      96.532  84.787  76.321  1.00  0.00     0.012 C 
ENDBRANCH  21  22
ENDBRANCH  19  20
ENDBRANCH  18  19
ENDBRANCH  17  18
ENDBRANCH   1  17
TORSDOF 10
ENDMDL
MODEL 3
REMARK VINA RESULT:    -6.638     20.128     23.490
REMARK INTER + INTRA:         -10.894
REMARK INTER:                 -10.240
REMARK INTRA:                  -0.654
REMARK UNBOUND:                -0.569
REMARK SMILES COc1cc(CNC(=O)CCCC/C=C/C(C)C)ccc1O
REMARK SMILES IDX 10 1 8 2 7 3 9 5 6 6 5 7 3 8 21 9 4 10 20 11 19 12 2 13 1 14
REMARK SMILES IDX 22 15 11 17 12 18 13 19 14 20 15 21 16 22 17 23 18 24
REMARK H PARENT 7 4 22 16
REMARK Flexibility Score: inf
ROOT
ATOM      1  C   UNL     1      79.963  65.935  71.555  1.00  0.00     0.100 C 
ENDROOT
BRANCH   1   2
ATOM      2  C   UNL     1      80.726  66.231  72.783  1.00  0.00     0.220 C 
ATOM      3  N   UNL     1      81.946  65.660  72.993  1.00  0.00    -0.352 N 
ATOM      4  H   UNL     1      82.249  65.024  72.269  1.00  0.00     0.163 HD
ATOM      5  O   UNL     1      80.232  67.037  73.608  1.00  0.00    -0.275 OA
BRANCH   3   6
ATOM      6  C   UNL     1      82.776  65.905  74.129  1.00  0.00     0.151 C 
BRANCH   6   7
ATOM      7  C   UNL     1      83.705  67.043  73.891  1.00  0.00    -0.025 A 
ATOM      8  C   UNL     1      85.420  68.600  74.726  1.00  0.00     0.160 A 
ATOM      9  C   UNL     1      85.498  69.198  73.451  1.00  0.00     0.157 A 
ATOM     10  C   UNL     1      84.524  67.531  74.934  1.00  0.00     0.056 A 
ATOM     11  C   UNL     1      84.674  68.735  72.406  1.00  0.00     0.050 A 
ATOM     12  C   UNL     1      83.791  67.659  72.621  1.00  0.00     0.009 A 
BRANCH   8  13
ATOM     13  O   UNL     1      86.173  69.090  75.762  1.00  0.00    -0.493 OA
ATOM     14  C   UNL     1      87.337  68.301  76.067  1.00  0.00     0.278 C 
ENDBRANCH   8  13
BRANCH   9  15
ATOM     15  O   UNL     1      86.359  70.221  73.213  1.00  0.00    -0.504 OA
ATOM     16  H   UNL     1      85.870  71.045  73.153  1.00  0.00     0.293 HD
ENDBRANCH   9  15
ENDBRANCH   6   7
ENDBRANCH   3   6
ENDBRANCH   1   2
BRANCH   1  17
ATOM     17  C   UNL     1      80.600  64.770  70.751  1.00  0.00     0.010 C 
BRANCH  17  18
ATOM     18  C   UNL     1      80.030  64.647  69.310  1.00  0.00     0.005 C 
BRANCH  18  19
ATOM     19  C   UNL     1      78.851  63.641  69.225  1.00  0.00     0.027 C 
BRANCH  19  20
ATOM     20  C   UNL     1      77.812  64.092  68.312  1.00  0.00    -0.031 C 
ATOM     21  C   UNL     1      76.874  65.004  68.626  1.00  0.00    -0.028 C 
BRANCH  21  22
ATOM     22  C   UNL     1      75.850  65.458  67.685  1.00  0.00     0.005 C 
ATOM     23  C   UNL     1      76.042  64.852  66.267  1.00  0.00     0.012 C 
ATOM     24  C   UNL     1      74.436  65.138  68.236  1.00  0.00     0.012 C 
ENDBRANCH  21  22
ENDBRANCH  19  20
ENDBRANCH  18  19
ENDBRANCH  17  18
ENDBRANCH   1  17
TORSDOF 10
ENDMDL
MODEL 4
REMARK VINA RESULT:    -6.397      2.155      3.622
REMARK INTER + INTRA:         -10.518
REMARK INTER:                  -9.844
REMARK INTRA:                  -0.674
REMARK UNBOUND:                -0.569
REMARK SMILES COc1cc(CNC(=O)CCCC/C=C/C(C)C)ccc1O
REMARK SMILES IDX 10 1 8 2 7 3 9 5 6 6 5 7 3 8 21 9 4 10 20 11 19 12 2 13 1 14
REMARK SMILES IDX 22 15 11 17 12 18 13 19 14 20 15 21 16 22 17 23 18 24
REMARK H PARENT 7 4 22 16
REMARK Flexibility Score: inf
ROOT
ATOM      1  C   UNL     1      97.425  82.142  81.273  1.00  0.00     0.100 C 
ENDROOT
BRANCH   1   2
ATOM      2  C   UNL     1      96.942  82.237  82.664  1.00  0.00     0.220 C 
ATOM      3  N   UNL     1      95.719  82.771  82.936  1.00  0.00    -0.352 N 
ATOM      4  H   UNL     1      95.209  83.102  82.129  1.00  0.00     0.163 HD
ATOM      5  O   UNL     1      97.679  81.794  83.578  1.00  0.00    -0.275 OA
BRANCH   3   6
ATOM      6  C   UNL     1      95.148  82.879  84.241  1.00  0.00     0.151 C 
BRANCH   6   7
ATOM      7  C   UNL     1      94.138  81.814  84.486  1.00  0.00    -0.025 A 
ATOM      8  C   UNL     1      91.815  81.010  84.345  1.00  0.00     0.160 A 
ATOM      9  C   UNL     1      92.202  79.786  84.928  1.00  0.00     0.157 A 
ATOM     10  C   UNL     1      92.784  82.012  84.132  1.00  0.00     0.056 A 
ATOM     11  C   UNL     1      93.545  79.581  85.304  1.00  0.00     0.050 A 
ATOM     12  C   UNL     1      94.508  80.583  85.076  1.00  0.00     0.009 A 
BRANCH   8  13
ATOM     13  O   UNL     1      90.498  81.239  84.039  1.00  0.00    -0.493 OA
ATOM     14  C   UNL     1      89.778  81.970  85.049  1.00  0.00     0.278 C 
ENDBRANCH   8  13
BRANCH   9  15
ATOM     15  O   UNL     1      91.296  78.795  85.135  1.00  0.00    -0.504 OA
ATOM     16  H   UNL     1      90.410  79.164  85.128  1.00  0.00     0.293 HD
ENDBRANCH   9  15
ENDBRANCH   6   7
ENDBRANCH   3   6
ENDBRANCH   1   2
BRANCH   1  17
ATOM     17  C   UNL     1      96.923  83.330  80.410  1.00  0.00     0.010 C 
BRANCH  17  18
ATOM     18  C   UNL     1      97.260  83.167  78.901  1.00  0.00     0.005 C 
BRANCH  18  19
ATOM     19  C   UNL     1      96.190  83.817  77.983  1.00  0.00     0.027 C 
BRANCH  19  20
ATOM     20  C   UNL     1      96.730  84.171  76.679  1.00  0.00    -0.031 C 
ATOM     21  C   UNL     1      97.977  83.874  76.271  1.00  0.00    -0.028 C 
BRANCH  21  22
ATOM     22  C   UNL     1      98.492  84.223  74.947  1.00  0.00     0.005 C 
ATOM     23  C   UNL     1      99.956  83.743  74.739  1.00  0.00     0.012 C 
ATOM     24  C   UNL     1      97.562  83.655  73.843  1.00  0.00     0.012 C 
ENDBRANCH  21  22
ENDBRANCH  19  20
ENDBRANCH  18  19
ENDBRANCH  17  18
ENDBRANCH   1  17
TORSDOF 10
ENDMDL
MODEL 5
REMARK VINA RESULT:    -6.330     20.414     23.694
REMARK INTER + INTRA:         -10.415
REMARK INTER:                  -9.894
REMARK INTRA:                  -0.522
REMARK UNBOUND:                -0.569
REMARK SMILES COc1cc(CNC(=O)CCCC/C=C/C(C)C)ccc1O
REMARK SMILES IDX 10 1 8 2 7 3 9 5 6 6 5 7 3 8 21 9 4 10 20 11 19 12 2 13 1 14
REMARK SMILES IDX 22 15 11 17 12 18 13 19 14 20 15 21 16 22 17 23 18 24
REMARK H PARENT 7 4 22 16
REMARK Flexibility Score: inf
ROOT
ATOM      1  C   UNL     1      81.846  65.235  70.198  1.00  0.00     0.100 C 
ENDROOT
BRANCH   1   2
ATOM      2  C   UNL     1      82.222  65.341  71.621  1.00  0.00     0.220 C 
ATOM      3  N   UNL     1      81.701  66.328  72.403  1.00  0.00    -0.352 N 
ATOM      4  H   UNL     1      81.079  66.966  71.926  1.00  0.00     0.163 HD
ATOM      5  O   UNL     1      83.012  64.485  72.090  1.00  0.00    -0.275 OA
BRANCH   3   6
ATOM      6  C   UNL     1      81.975  66.496  73.794  1.00  0.00     0.151 C 
BRANCH   6   7
ATOM      7  C   UNL     1      83.254  67.226  74.015  1.00  0.00    -0.025 A 
ATOM      8  C   UNL     1      84.984  68.781  73.208  1.00  0.00     0.160 A 
ATOM      9  C   UNL     1      85.680  68.641  74.426  1.00  0.00     0.157 A 
ATOM     10  C   UNL     1      83.780  68.072  73.012  1.00  0.00     0.056 A 
ATOM     11  C   UNL     1      85.177  67.786  75.427  1.00  0.00     0.050 A 
ATOM     12  C   UNL     1      83.968  67.091  75.228  1.00  0.00     0.009 A 
BRANCH   8  13
ATOM     13  O   UNL     1      85.503  69.561  72.205  1.00  0.00    -0.493 OA
ATOM     14  C   UNL     1      84.825  70.818  72.029  1.00  0.00     0.278 C 
ENDBRANCH   8  13
BRANCH   9  15
ATOM     15  O   UNL     1      86.834  69.320  74.651  1.00  0.00    -0.504 OA
ATOM     16  H   UNL     1      86.681  70.005  75.305  1.00  0.00     0.293 HD
ENDBRANCH   9  15
ENDBRANCH   6   7
ENDBRANCH   3   6
ENDBRANCH   1   2
BRANCH   1  17
ATOM     17  C   UNL     1      80.334  64.928  70.027  1.00  0.00     0.010 C 
BRANCH  17  18
ATOM     18  C   UNL     1      80.070  63.606  69.252  1.00  0.00     0.005 C 
BRANCH  18  19
ATOM     19  C   UNL     1      78.560  63.251  69.188  1.00  0.00     0.027 C 
BRANCH  19  20
ATOM     20  C   UNL     1      77.758  64.356  68.686  1.00  0.00    -0.031 C 
ATOM     21  C   UNL     1      76.427  64.302  68.502  1.00  0.00    -0.028 C 
BRANCH  21  22
ATOM     22  C   UNL     1      75.638  65.433  68.014  1.00  0.00     0.005 C 
ATOM     23  C   UNL     1      76.105  65.918  66.614  1.00  0.00     0.012 C 
ATOM     24  C   UNL     1      74.130  65.068  67.998  1.00  0.00     0.012 C 
ENDBRANCH  21  22
ENDBRANCH  19  20
ENDBRANCH  18  19
ENDBRANCH  17  18
ENDBRANCH   1  17
TORSDOF 10
ENDMDL
MODEL 6
REMARK VINA RESULT:    -6.309      5.012      7.337
REMARK INTER + INTRA:         -10.382
REMARK INTER:                  -9.623
REMARK INTRA:                  -0.759
REMARK UNBOUND:                -0.569
REMARK SMILES COc1cc(CNC(=O)CCCC/C=C/C(C)C)ccc1O
REMARK SMILES IDX 10 1 8 2 7 3 9 5 6 6 5 7 3 8 21 9 4 10 20 11 19 12 2 13 1 14
REMARK SMILES IDX 22 15 11 17 12 18 13 19 14 20 15 21 16 22 17 23 18 24
REMARK H PARENT 7 4 22 16
REMARK Flexibility Score: inf
ROOT
ATOM      1  C   UNL     1      93.084  78.876  85.431  1.00  0.00     0.100 C 
ENDROOT
BRANCH   1   2
ATOM      2  C   UNL     1      92.569  80.230  85.147  1.00  0.00     0.220 C 
ATOM      3  N   UNL     1      91.318  80.592  85.547  1.00  0.00    -0.352 N 
ATOM      4  H   UNL     1      90.792  79.865  86.013  1.00  0.00     0.163 HD
ATOM      5  O   UNL     1      93.323  81.038  84.552  1.00  0.00    -0.275 OA
BRANCH   3   6
ATOM      6  C   UNL     1      90.740  81.883  85.350  1.00  0.00     0.151 C 
BRANCH   6   7
ATOM      7  C   UNL     1      89.387  81.788  84.736  1.00  0.00    -0.025 A 
ATOM      8  C   UNL     1      87.139  82.729  84.384  1.00  0.00     0.160 A 
ATOM      9  C   UNL     1      86.810  81.634  83.558  1.00  0.00     0.157 A 
ATOM     10  C   UNL     1      88.422  82.795  84.966  1.00  0.00     0.056 A 
ATOM     11  C   UNL     1      87.755  80.613  83.336  1.00  0.00     0.050 A 
ATOM     12  C   UNL     1      89.037  80.694  83.912  1.00  0.00     0.009 A 
BRANCH   8  13
ATOM     13  O   UNL     1      86.201  83.692  84.657  1.00  0.00    -0.493 OA
ATOM     14  C   UNL     1      86.247  84.191  86.006  1.00  0.00     0.278 C 
ENDBRANCH   8  13
BRANCH   9  15
ATOM     15  O   UNL     1      85.588  81.547  82.972  1.00  0.00    -0.504 OA
ATOM     16  H   UNL     1      85.677  81.150  82.103  1.00  0.00     0.293 HD
ENDBRANCH   9  15
ENDBRANCH   6   7
ENDBRANCH   3   6
ENDBRANCH   1   2
BRANCH   1  17
ATOM     17  C   UNL     1      93.057  77.977  84.166  1.00  0.00     0.010 C 
BRANCH  17  18
ATOM     18  C   UNL     1      91.662  77.343  83.904  1.00  0.00     0.005 C 
BRANCH  18  19
ATOM     19  C   UNL     1      91.762  75.864  83.441  1.00  0.00     0.027 C 
BRANCH  19  20
ATOM     20  C   UNL     1      91.186  74.946  84.412  1.00  0.00    -0.031 C 
ATOM     21  C   UNL     1      91.535  73.652  84.530  1.00  0.00    -0.028 C 
BRANCH  21  22
ATOM     22  C   UNL     1      90.956  72.752  85.527  1.00  0.00     0.005 C 
ATOM     23  C   UNL     1      91.791  72.709  86.837  1.00  0.00     0.012 C 
ATOM     24  C   UNL     1      89.487  73.152  85.820  1.00  0.00     0.012 C 
ENDBRANCH  21  22
ENDBRANCH  19  20
ENDBRANCH  18  19
ENDBRANCH  17  18
ENDBRANCH   1  17
TORSDOF 10
ENDMDL
MODEL 7
REMARK VINA RESULT:    -6.174      3.013      5.763
REMARK INTER + INTRA:         -10.171
REMARK INTER:                  -9.342
REMARK INTRA:                  -0.830
REMARK UNBOUND:                -0.569
REMARK SMILES COc1cc(CNC(=O)CCCC/C=C/C(C)C)ccc1O
REMARK SMILES IDX 10 1 8 2 7 3 9 5 6 6 5 7 3 8 21 9 4 10 20 11 19 12 2 13 1 14
REMARK SMILES IDX 22 15 11 17 12 18 13 19 14 20 15 21 16 22 17 23 18 24
REMARK H PARENT 7 4 22 16
REMARK Flexibility Score: inf
ROOT
ATOM      1  C   UNL     1      97.983  82.360  79.260  1.00  0.00     0.100 C 
ENDROOT
BRANCH   1   2
ATOM      2  C   UNL     1      97.945  82.009  80.693  1.00  0.00     0.220 C 
ATOM      3  N   UNL     1      96.775  81.631  81.281  1.00  0.00    -0.352 N 
ATOM      4  H   UNL     1      95.969  81.639  80.672  1.00  0.00     0.163 HD
ATOM      5  O   UNL     1      99.019  82.046  81.340  1.00  0.00    -0.275 OA
BRANCH   3   6
ATOM      6  C   UNL     1      96.639  81.242  82.649  1.00  0.00     0.151 C 
BRANCH   6   7
ATOM      7  C   UNL     1      95.990  82.309  83.458  1.00  0.00    -0.025 A 
ATOM      8  C   UNL     1      94.051  83.131  84.734  1.00  0.00     0.160 A 
ATOM      9  C   UNL     1      94.744  84.326  85.019  1.00  0.00     0.157 A 
ATOM     10  C   UNL     1      94.679  82.137  83.955  1.00  0.00     0.056 A 
ATOM     11  C   UNL     1      96.045  84.521  84.514  1.00  0.00     0.050 A 
ATOM     12  C   UNL     1      96.668  83.517  83.747  1.00  0.00     0.009 A 
BRANCH   8  13
ATOM     13  O   UNL     1      92.761  82.965  85.168  1.00  0.00    -0.493 OA
ATOM     14  C   UNL     1      92.000  82.016  84.398  1.00  0.00     0.278 C 
ENDBRANCH   8  13
BRANCH   9  15
ATOM     15  O   UNL     1      94.174  85.298  85.777  1.00  0.00    -0.504 OA
ATOM     16  H   UNL     1      94.192  86.130  85.299  1.00  0.00     0.293 HD
ENDBRANCH   9  15
ENDBRANCH   6   7
ENDBRANCH   3   6
ENDBRANCH   1   2
BRANCH   1  17
ATOM     17  C   UNL     1      97.030  83.541  78.934  1.00  0.00     0.010 C 
BRANCH  17  18
ATOM     18  C   UNL     1      96.397  83.436  77.518  1.00  0.00     0.005 C 
BRANCH  18  19
ATOM     19  C   UNL     1      96.404  84.794  76.766  1.00  0.00     0.027 C 
BRANCH  19  20
ATOM     20  C   UNL     1      97.150  84.726  75.519  1.00  0.00    -0.031 C 
ATOM     21  C   UNL     1      98.166  83.874  75.292  1.00  0.00    -0.028 C 
BRANCH  21  22
ATOM     22  C   UNL     1      98.890  83.808  74.022  1.00  0.00     0.005 C 
ATOM     23  C   UNL     1      98.155  82.934  72.969  1.00  0.00     0.012 C 
ATOM     24  C   UNL     1      99.142  85.237  73.475  1.00  0.00     0.012 C 
ENDBRANCH  21  22
ENDBRANCH  19  20
ENDBRANCH  18  19
ENDBRANCH  17  18
ENDBRANCH   1  17
TORSDOF 10
ENDMDL
MODEL 8
REMARK VINA RESULT:    -5.823      1.970      3.306
REMARK INTER + INTRA:          -9.626
REMARK INTER:                  -8.842
REMARK INTRA:                  -0.784
REMARK UNBOUND:                -0.569
REMARK SMILES COc1cc(CNC(=O)CCCC/C=C/C(C)C)ccc1O
REMARK SMILES IDX 10 1 8 2 7 3 9 5 6 6 5 7 3 8 21 9 4 10 20 11 19 12 2 13 1 14
REMARK SMILES IDX 22 15 11 17 12 18 13 19 14 20 15 21 16 22 17 23 18 24
REMARK H PARENT 7 4 22 16
REMARK Flexibility Score: inf
ROOT
ATOM      1  C   UNL     1      96.645  83.612  82.063  1.00  0.00     0.100 C 
ENDROOT
BRANCH   1   2
ATOM      2  C   UNL     1      96.072  83.229  83.368  1.00  0.00     0.220 C 
ATOM      3  N   UNL     1      95.668  81.948  83.596  1.00  0.00    -0.352 N 
ATOM      4  H   UNL     1      95.772  81.321  82.810  1.00  0.00     0.163 HD
ATOM      5  O   UNL     1      95.992  84.107  84.261  1.00  0.00    -0.275 OA
BRANCH   3   6
ATOM      6  C   UNL     1      95.133  81.469  84.831  1.00  0.00     0.151 C 
BRANCH   6   7
ATOM      7  C   UNL     1      93.688  81.135  84.706  1.00  0.00    -0.025 A 
ATOM      8  C   UNL     1      91.876  79.469  84.759  1.00  0.00     0.160 A 
ATOM      9  C   UNL     1      90.934  80.483  84.492  1.00  0.00     0.157 A 
ATOM     10  C   UNL     1      93.242  79.803  84.861  1.00  0.00     0.056 A 
ATOM     11  C   UNL     1      91.365  81.813  84.316  1.00  0.00     0.050 A 
ATOM     12  C   UNL     1      92.730  82.139  84.432  1.00  0.00     0.009 A 
BRANCH   8  13
ATOM     13  O   UNL     1      91.469  78.163  84.866  1.00  0.00    -0.493 OA
ATOM     14  C   UNL     1      91.598  77.406  83.648  1.00  0.00     0.278 C 
ENDBRANCH   8  13
BRANCH   9  15
ATOM     15  O   UNL     1      89.609  80.197  84.401  1.00  0.00    -0.504 OA
ATOM     16  H   UNL     1      89.440  79.718  83.586  1.00  0.00     0.293 HD
ENDBRANCH   9  15
ENDBRANCH   6   7
ENDBRANCH   3   6
ENDBRANCH   1   2
BRANCH   1  17
ATOM     17  C   UNL     1      96.748  82.396  81.104  1.00  0.00     0.010 C 
BRANCH  17  18
ATOM     18  C   UNL     1      98.157  81.740  81.108  1.00  0.00     0.005 C 
BRANCH  18  19
ATOM     19  C   UNL     1      99.066  82.286  79.973  1.00  0.00     0.027 C 
BRANCH  19  20
ATOM     20  C   UNL     1      98.309  83.026  78.975  1.00  0.00    -0.031 C 
ATOM     21  C   UNL     1      98.605  83.045  77.662  1.00  0.00    -0.028 C 
BRANCH  21  22
ATOM     22  C   UNL     1      97.819  83.782  76.673  1.00  0.00     0.005 C 
ATOM     23  C   UNL     1      97.795  83.071  75.291  1.00  0.00     0.012 C 
ATOM     24  C   UNL     1      96.379  84.016  77.199  1.00  0.00     0.012 C 
ENDBRANCH  21  22
ENDBRANCH  19  20
ENDBRANCH  18  19
ENDBRANCH  17  18
ENDBRANCH   1  17
TORSDOF 10
ENDMDL
MODEL 9
REMARK VINA RESULT:    -5.809     11.748     14.342
REMARK INTER + INTRA:          -9.604
REMARK INTER:                  -8.112
REMARK INTRA:                  -1.492
REMARK UNBOUND:                -0.569
REMARK SMILES COc1cc(CNC(=O)CCCC/C=C/C(C)C)ccc1O
REMARK SMILES IDX 10 1 8 2 7 3 9 5 6 6 5 7 3 8 21 9 4 10 20 11 19 12 2 13 1 14
REMARK SMILES IDX 22 15 11 17 12 18 13 19 14 20 15 21 16 22 17 23 18 24
REMARK H PARENT 7 4 22 16
REMARK Flexibility Score: inf
ROOT
ATOM      1  C   UNL     1      91.149  94.640  92.115  1.00  0.00     0.100 C 
ENDROOT
BRANCH   1   2
ATOM      2  C   UNL     1      91.300  93.172  92.095  1.00  0.00     0.220 C 
ATOM      3  N   UNL     1      91.640  92.528  90.943  1.00  0.00    -0.352 N 
ATOM      4  H   UNL     1      91.749  93.126  90.136  1.00  0.00     0.163 HD
ATOM      5  O   UNL     1      91.130  92.544  93.168  1.00  0.00    -0.275 OA
BRANCH   3   6
ATOM      6  C   UNL     1      91.841  91.119  90.826  1.00  0.00     0.151 C 
BRANCH   6   7
ATOM      7  C   UNL     1      92.846  90.796  89.776  1.00  0.00    -0.025 A 
ATOM      8  C   UNL     1      94.149  89.128  88.519  1.00  0.00     0.160 A 
ATOM      9  C   UNL     1      94.745  90.161  87.765  1.00  0.00     0.157 A 
ATOM     10  C   UNL     1      93.208  89.455  89.517  1.00  0.00     0.056 A 
ATOM     11  C   UNL     1      94.408  91.504  88.025  1.00  0.00     0.050 A 
ATOM     12  C   UNL     1      93.458  91.820  89.016  1.00  0.00     0.009 A 
BRANCH   8  13
ATOM     13  O   UNL     1      94.523  87.824  88.314  1.00  0.00    -0.493 OA
ATOM     14  C   UNL     1      93.507  87.012  87.697  1.00  0.00     0.278 C 
ENDBRANCH   8  13
BRANCH   9  15
ATOM     15  O   UNL     1      95.644  89.879  86.787  1.00  0.00    -0.504 OA
ATOM     16  H   UNL     1      95.643  90.586  86.137  1.00  0.00     0.293 HD
ENDBRANCH   9  15
ENDBRANCH   6   7
ENDBRANCH   3   6
ENDBRANCH   1   2
BRANCH   1  17
ATOM     17  C   UNL     1      90.749  95.194  90.721  1.00  0.00     0.010 C 
BRANCH  17  18
ATOM     18  C   UNL     1      91.793  96.190  90.144  1.00  0.00     0.005 C 
BRANCH  18  19
ATOM     19  C   UNL     1      93.014  95.467  89.515  1.00  0.00     0.027 C 
BRANCH  19  20
ATOM     20  C   UNL     1      94.222  95.643  90.307  1.00  0.00    -0.031 C 
ATOM     21  C   UNL     1      94.652  94.768  91.235  1.00  0.00    -0.028 C 
BRANCH  21  22
ATOM     22  C   UNL     1      95.880  94.955  92.006  1.00  0.00     0.005 C 
ATOM     23  C   UNL     1      97.037  94.049  91.501  1.00  0.00     0.012 C 
ATOM     24  C   UNL     1      96.300  96.448  91.992  1.00  0.00     0.012 C 
ENDBRANCH  21  22
ENDBRANCH  19  20
ENDBRANCH  18  19
ENDBRANCH  17  18
ENDBRANCH   1  17
TORSDOF 10
ENDMDL
MODEL 10
REMARK VINA RESULT:    -5.576      5.342      8.712
REMARK INTER + INTRA:          -9.242
REMARK INTER:                  -8.400
REMARK INTRA:                  -0.842
REMARK UNBOUND:                -0.569
REMARK SMILES COc1cc(CNC(=O)CCCC/C=C/C(C)C)ccc1O
REMARK SMILES IDX 10 1 8 2 7 3 9 5 6 6 5 7 3 8 21 9 4 10 20 11 19 12 2 13 1 14
REMARK SMILES IDX 22 15 11 17 12 18 13 19 14 20 15 21 16 22 17 23 18 24
REMARK H PARENT 7 4 22 16
REMARK Flexibility Score: inf
ROOT
ATOM      1  C   UNL     1      92.477  80.478  86.254  1.00  0.00     0.100 C 
ENDROOT
BRANCH   1   2
ATOM      2  C   UNL     1      92.773  81.061  87.577  1.00  0.00     0.220 C 
ATOM      3  N   UNL     1      93.718  82.034  87.707  1.00  0.00    -0.352 N 
ATOM      4  H   UNL     1      94.191  82.287  86.851  1.00  0.00     0.163 HD
ATOM      5  O   UNL     1      92.116  80.652  88.565  1.00  0.00    -0.275 OA
BRANCH   3   6
ATOM      6  C   UNL     1      94.055  82.683  88.934  1.00  0.00     0.151 C 
BRANCH   6   7
ATOM      7  C   UNL     1      93.772  84.143  88.875  1.00  0.00    -0.025 A 
ATOM      8  C   UNL     1      93.404  86.288  90.028  1.00  0.00     0.160 A 
ATOM      9  C   UNL     1      93.251  86.932  88.782  1.00  0.00     0.157 A 
ATOM     10  C   UNL     1      93.661  84.901  90.063  1.00  0.00     0.056 A 
ATOM     11  C   UNL     1      93.340  86.185  87.590  1.00  0.00     0.050 A 
ATOM     12  C   UNL     1      93.608  84.803  87.635  1.00  0.00     0.009 A 
BRANCH   8  13
ATOM     13  O   UNL     1      93.253  86.998  91.192  1.00  0.00    -0.493 OA
ATOM     14  C   UNL     1      93.665  86.284  92.372  1.00  0.00     0.278 C 
ENDBRANCH   8  13
BRANCH   9  15
ATOM     15  O   UNL     1      93.017  88.267  88.713  1.00  0.00    -0.504 OA
ATOM     16  H   UNL     1      93.298  88.685  89.530  1.00  0.00     0.293 HD
ENDBRANCH   9  15
ENDBRANCH   6   7
ENDBRANCH   3   6
ENDBRANCH   1   2
BRANCH   1  17
ATOM     17  C   UNL     1      92.418  81.566  85.149  1.00  0.00     0.010 C 
BRANCH  17  18
ATOM     18  C   UNL     1      91.402  81.230  84.021  1.00  0.00     0.005 C 
BRANCH  18  19
ATOM     19  C   UNL     1      90.006  80.844  84.581  1.00  0.00     0.027 C 
BRANCH  19  20
ATOM     20  C   UNL     1      88.968  81.768  84.148  1.00  0.00    -0.031 C 
ATOM     21  C   UNL     1      88.312  82.607  84.970  1.00  0.00    -0.028 C 
BRANCH  21  22
ATOM     22  C   UNL     1      87.286  83.542  84.510  1.00  0.00     0.005 C 
ATOM     23  C   UNL     1      86.469  82.979  83.314  1.00  0.00     0.012 C 
ATOM     24  C   UNL     1      86.350  83.931  85.684  1.00  0.00     0.012 C 
ENDBRANCH  21  22
ENDBRANCH  19  20
ENDBRANCH  18  19
ENDBRANCH  17  18
ENDBRANCH   1  17
TORSDOF 10
ENDMDL
