MODEL 1
REMARK VINA RESULT:    -6.360      0.000      0.000
REMARK INTER + INTRA:         -10.394
REMARK INTER:                  -9.892
REMARK INTRA:                  -0.502
REMARK UNBOUND:                -0.502
REMARK SMILES COc1cc(CNC(=O)CCCC/C=C/C(C)C)ccc1O
REMARK SMILES IDX 10 1 8 2 7 3 9 5 6 6 5 7 3 8 21 9 4 10 20 11 19 12 2 13 1 14
REMARK SMILES IDX 22 15 11 17 12 18 13 19 14 20 15 21 16 22 17 23 18 24
REMARK H PARENT 7 4 22 16
REMARK Flexibility Score: inf
ROOT
ATOM      1  C   UNL     1      95.188  81.276  83.911  1.00  0.00     0.100 C 
ENDROOT
BRANCH   1   2
ATOM      2  C   UNL     1      94.457  81.948  85.004  1.00  0.00     0.220 C 
ATOM      3  N   UNL     1      93.102  82.079  84.950  1.00  0.00    -0.352 N 
ATOM      4  H   UNL     1      92.670  81.710  84.114  1.00  0.00     0.163 HD
ATOM      5  O   UNL     1      95.115  82.369  85.986  1.00  0.00    -0.275 OA
BRANCH   3   6
ATOM      6  C   UNL     1      92.300  82.682  85.967  1.00  0.00     0.151 C 
BRANCH   6   7
ATOM      7  C   UNL     1      90.990  81.990  86.112  1.00  0.00    -0.025 A 
ATOM      8  C   UNL     1      89.154  80.681  85.125  1.00  0.00     0.160 A 
ATOM      9  C   UNL     1      88.503  80.650  86.376  1.00  0.00     0.157 A 
ATOM     10  C   UNL     1      90.389  81.351  85.005  1.00  0.00     0.056 A 
ATOM     11  C   UNL     1      89.081  81.299  87.484  1.00  0.00     0.050 A 
ATOM     12  C   UNL     1      90.320  81.957  87.357  1.00  0.00     0.009 A 
BRANCH   8  13
ATOM     13  O   UNL     1      88.564  80.107  84.028  1.00  0.00    -0.493 OA
ATOM     14  C   UNL     1      89.191  78.885  83.596  1.00  0.00     0.278 C 
ENDBRANCH   8  13
BRANCH   9  15
ATOM     15  O   UNL     1      87.319  80.002  86.529  1.00  0.00    -0.504 OA
ATOM     16  H   UNL     1      86.962  79.778  85.666  1.00  0.00     0.293 HD
ENDBRANCH   9  15
ENDBRANCH   6   7
ENDBRANCH   3   6
ENDBRANCH   1   2
BRANCH   1  17
ATOM     17  C   UNL     1      96.578  81.923  83.671  1.00  0.00     0.010 C 
BRANCH  17  18
ATOM     18  C   UNL     1      96.703  82.584  82.269  1.00  0.00     0.005 C 
BRANCH  18  19
ATOM     19  C   UNL     1      96.967  81.543  81.147  1.00  0.00     0.027 C 
BRANCH  19  20
ATOM     20  C   UNL     1      97.138  82.172  79.846  1.00  0.00    -0.031 C 
ATOM     21  C   UNL     1      97.133  81.505  78.677  1.00  0.00    -0.028 C 
BRANCH  21  22
ATOM     22  C   UNL     1      97.287  82.161  77.379  1.00  0.00     0.005 C 
ATOM     23  C   UNL     1      97.981  81.244  76.334  1.00  0.00     0.012 C 
ATOM     24  C   UNL     1      95.910  82.648  76.858  1.00  0.00     0.012 C 
ENDBRANCH  21  22
ENDBRANCH  19  20
ENDBRANCH  18  19
ENDBRANCH  17  18
ENDBRANCH   1  17
TORSDOF 10
ENDMDL
MODEL 2
REMARK VINA RESULT:    -6.215      6.545     12.847
REMARK INTER + INTRA:         -10.168
REMARK INTER:                  -9.380
REMARK INTRA:                  -0.788
REMARK UNBOUND:                -0.502
REMARK SMILES COc1cc(CNC(=O)CCCC/C=C/C(C)C)ccc1O
REMARK SMILES IDX 10 1 8 2 7 3 9 5 6 6 5 7 3 8 21 9 4 10 20 11 19 12 2 13 1 14
REMARK SMILES IDX 22 15 11 17 12 18 13 19 14 20 15 21 16 22 17 23 18 24
REMARK H PARENT 7 4 22 16
REMARK Flexibility Score: inf
ROOT
ATOM      1  C   UNL     1      96.261  82.430  77.509  1.00  0.00     0.100 C 
ENDROOT
BRANCH   1   2
ATOM      2  C   UNL     1      96.392  83.038  76.171  1.00  0.00     0.220 C 
ATOM      3  N   UNL     1      97.519  82.845  75.431  1.00  0.00    -0.352 N 
ATOM      4  H   UNL     1      98.235  82.290  75.880  1.00  0.00     0.163 HD
ATOM      5  O   UNL     1      95.429  83.712  75.730  1.00  0.00    -0.275 OA
BRANCH   3   6
ATOM      6  C   UNL     1      97.730  83.362  74.116  1.00  0.00     0.151 C 
BRANCH   6   7
ATOM      7  C   UNL     1      99.166  83.304  73.730  1.00  0.00    -0.025 A 
ATOM      8  C   UNL     1     101.028  84.102  72.329  1.00  0.00     0.160 A 
ATOM      9  C   UNL     1     101.906  83.221  72.994  1.00  0.00     0.157 A 
ATOM     10  C   UNL     1      99.667  84.133  72.701  1.00  0.00     0.056 A 
ATOM     11  C   UNL     1     101.417  82.375  74.008  1.00  0.00     0.050 A 
ATOM     12  C   UNL     1     100.059  82.422  74.381  1.00  0.00     0.009 A 
BRANCH   8  13
ATOM     13  O   UNL     1     101.485  84.880  71.297  1.00  0.00    -0.493 OA
ATOM     14  C   UNL     1     101.388  84.256  70.003  1.00  0.00     0.278 C 
ENDBRANCH   8  13
BRANCH   9  15
ATOM     15  O   UNL     1     103.224  83.176  72.669  1.00  0.00    -0.504 OA
ATOM     16  H   UNL     1     103.730  82.865  73.424  1.00  0.00     0.293 HD
ENDBRANCH   9  15
ENDBRANCH   6   7
ENDBRANCH   3   6
ENDBRANCH   1   2
BRANCH   1  17
ATOM     17  C   UNL     1      97.632  81.948  78.054  1.00  0.00     0.010 C 
BRANCH  17  18
ATOM     18  C   UNL     1      97.610  80.465  78.522  1.00  0.00     0.005 C 
BRANCH  18  19
ATOM     19  C   UNL     1      98.212  80.283  79.941  1.00  0.00     0.027 C 
BRANCH  19  20
ATOM     20  C   UNL     1      97.543  81.115  80.930  1.00  0.00    -0.031 C 
ATOM     21  C   UNL     1      96.677  80.649  81.848  1.00  0.00    -0.028 C 
BRANCH  21  22
ATOM     22  C   UNL     1      96.031  81.501  82.846  1.00  0.00     0.005 C 
ATOM     23  C   UNL     1      96.489  81.165  84.293  1.00  0.00     0.012 C 
ATOM     24  C   UNL     1      96.283  82.995  82.519  1.00  0.00     0.012 C 
ENDBRANCH  21  22
ENDBRANCH  19  20
ENDBRANCH  18  19
ENDBRANCH  17  18
ENDBRANCH   1  17
TORSDOF 10
ENDMDL
MODEL 3
REMARK VINA RESULT:    -6.029     13.896     17.415
REMARK INTER + INTRA:          -9.880
REMARK INTER:                  -9.144
REMARK INTRA:                  -0.737
REMARK UNBOUND:                -0.502
REMARK SMILES COc1cc(CNC(=O)CCCC/C=C/C(C)C)ccc1O
REMARK SMILES IDX 10 1 8 2 7 3 9 5 6 6 5 7 3 8 21 9 4 10 20 11 19 12 2 13 1 14
REMARK SMILES IDX 22 15 11 17 12 18 13 19 14 20 15 21 16 22 17 23 18 24
REMARK H PARENT 7 4 22 16
REMARK Flexibility Score: inf
ROOT
ATOM      1  C   UNL     1      92.360  95.784  76.018  1.00  0.00     0.100 C 
ENDROOT
BRANCH   1   2
ATOM      2  C   UNL     1      93.712  95.656  75.441  1.00  0.00     0.220 C 
ATOM      3  N   UNL     1      94.552  96.728  75.404  1.00  0.00    -0.352 N 
ATOM      4  H   UNL     1      94.165  97.586  75.772  1.00  0.00     0.163 HD
ATOM      5  O   UNL     1      94.068  94.533  75.010  1.00  0.00    -0.275 OA
BRANCH   3   6
ATOM      6  C   UNL     1      95.887  96.701  74.897  1.00  0.00     0.151 C 
BRANCH   6   7
ATOM      7  C   UNL     1      96.889  96.714  75.997  1.00  0.00    -0.025 A 
ATOM      8  C   UNL     1      99.186  97.133  76.779  1.00  0.00     0.160 A 
ATOM      9  C   UNL     1      98.809  96.764  78.086  1.00  0.00     0.157 A 
ATOM     10  C   UNL     1      98.225  97.103  75.747  1.00  0.00     0.056 A 
ATOM     11  C   UNL     1      97.486  96.355  78.347  1.00  0.00     0.050 A 
ATOM     12  C   UNL     1      96.530  96.340  77.313  1.00  0.00     0.009 A 
BRANCH   8  13
ATOM     13  O   UNL     1     100.488  97.469  76.507  1.00  0.00    -0.493 OA
ATOM     14  C   UNL     1     100.680  98.856  76.177  1.00  0.00     0.278 C 
ENDBRANCH   8  13
BRANCH   9  15
ATOM     15  O   UNL     1      99.707  96.795  79.105  1.00  0.00    -0.504 OA
ATOM     16  H   UNL     1      99.802  95.914  79.475  1.00  0.00     0.293 HD
ENDBRANCH   9  15
ENDBRANCH   6   7
ENDBRANCH   3   6
ENDBRANCH   1   2
BRANCH   1  17
ATOM     17  C   UNL     1      92.128  94.763  77.165  1.00  0.00     0.010 C 
BRANCH  17  18
ATOM     18  C   UNL     1      90.674  94.214  77.201  1.00  0.00     0.005 C 
BRANCH  18  19
ATOM     19  C   UNL     1      90.621  92.707  77.571  1.00  0.00     0.027 C 
BRANCH  19  20
ATOM     20  C   UNL     1      90.261  91.876  76.432  1.00  0.00    -0.031 C 
ATOM     21  C   UNL     1      91.078  91.621  75.394  1.00  0.00    -0.028 C 
BRANCH  21  22
ATOM     22  C   UNL     1      90.702  90.766  74.268  1.00  0.00     0.005 C 
ATOM     23  C   UNL     1      90.903  89.257  74.582  1.00  0.00     0.012 C 
ATOM     24  C   UNL     1      89.238  91.052  73.844  1.00  0.00     0.012 C 
ENDBRANCH  21  22
ENDBRANCH  19  20
ENDBRANCH  18  19
ENDBRANCH  17  18
ENDBRANCH   1  17
TORSDOF 10
ENDMDL
MODEL 4
REMARK VINA RESULT:    -6.012     17.176     20.974
REMARK INTER + INTRA:          -9.853
REMARK INTER:                  -8.413
REMARK INTRA:                  -1.440
REMARK UNBOUND:                -0.502
REMARK SMILES COc1cc(CNC(=O)CCCC/C=C/C(C)C)ccc1O
REMARK SMILES IDX 10 1 8 2 7 3 9 5 6 6 5 7 3 8 21 9 4 10 20 11 19 12 2 13 1 14
REMARK SMILES IDX 22 15 11 17 12 18 13 19 14 20 15 21 16 22 17 23 18 24
REMARK H PARENT 7 4 22 16
REMARK Flexibility Score: inf
ROOT
ATOM      1  C   UNL     1      82.154  63.865  76.385  1.00  0.00     0.100 C 
ENDROOT
BRANCH   1   2
ATOM      2  C   UNL     1      83.218  64.877  76.530  1.00  0.00     0.220 C 
ATOM      3  N   UNL     1      82.904  66.194  76.682  1.00  0.00    -0.352 N 
ATOM      4  H   UNL     1      81.915  66.402  76.660  1.00  0.00     0.163 HD
ATOM      5  O   UNL     1      84.410  64.486  76.534  1.00  0.00    -0.275 OA
BRANCH   3   6
ATOM      6  C   UNL     1      83.855  67.244  76.861  1.00  0.00     0.151 C 
BRANCH   6   7
ATOM      7  C   UNL     1      84.156  67.935  75.578  1.00  0.00    -0.025 A 
ATOM      8  C   UNL     1      85.557  69.480  74.269  1.00  0.00     0.160 A 
ATOM      9  C   UNL     1      84.756  69.245  73.133  1.00  0.00     0.157 A 
ATOM     10  C   UNL     1      85.248  68.825  75.480  1.00  0.00     0.056 A 
ATOM     11  C   UNL     1      83.651  68.374  73.220  1.00  0.00     0.050 A 
ATOM     12  C   UNL     1      83.358  67.716  74.430  1.00  0.00     0.009 A 
BRANCH   8  13
ATOM     13  O   UNL     1      86.593  70.377  74.207  1.00  0.00    -0.493 OA
ATOM     14  C   UNL     1      86.278  71.676  74.741  1.00  0.00     0.278 C 
ENDBRANCH   8  13
BRANCH   9  15
ATOM     15  O   UNL     1      85.033  69.849  71.948  1.00  0.00    -0.504 OA
ATOM     16  H   UNL     1      84.222  69.961  71.448  1.00  0.00     0.293 HD
ENDBRANCH   9  15
ENDBRANCH   6   7
ENDBRANCH   3   6
ENDBRANCH   1   2
BRANCH   1  17
ATOM     17  C   UNL     1      80.752  64.522  76.263  1.00  0.00     0.010 C 
BRANCH  17  18
ATOM     18  C   UNL     1      80.163  64.428  74.827  1.00  0.00     0.005 C 
BRANCH  18  19
ATOM     19  C   UNL     1      80.466  65.694  73.980  1.00  0.00     0.027 C 
BRANCH  19  20
ATOM     20  C   UNL     1      81.091  65.364  72.708  1.00  0.00    -0.031 C 
ATOM     21  C   UNL     1      80.861  66.026  71.559  1.00  0.00    -0.028 C 
BRANCH  21  22
ATOM     22  C   UNL     1      81.516  65.690  70.295  1.00  0.00     0.005 C 
ATOM     23  C   UNL     1      80.501  65.543  69.127  1.00  0.00     0.012 C 
ATOM     24  C   UNL     1      82.600  66.745  69.955  1.00  0.00     0.012 C 
ENDBRANCH  21  22
ENDBRANCH  19  20
ENDBRANCH  18  19
ENDBRANCH  17  18
ENDBRANCH   1  17
TORSDOF 10
ENDMDL
MODEL 5
REMARK VINA RESULT:    -5.993      4.995     10.072
REMARK INTER + INTRA:          -9.824
REMARK INTER:                  -9.202
REMARK INTRA:                  -0.622
REMARK UNBOUND:                -0.502
REMARK SMILES COc1cc(CNC(=O)CCCC/C=C/C(C)C)ccc1O
REMARK SMILES IDX 10 1 8 2 7 3 9 5 6 6 5 7 3 8 21 9 4 10 20 11 19 12 2 13 1 14
REMARK SMILES IDX 22 15 11 17 12 18 13 19 14 20 15 21 16 22 17 23 18 24
REMARK H PARENT 7 4 22 16
REMARK Flexibility Score: inf
ROOT
ATOM      1  C   UNL     1      98.055  80.012  82.263  1.00  0.00     0.100 C 
ENDROOT
BRANCH   1   2
ATOM      2  C   UNL     1      98.691  79.986  80.932  1.00  0.00     0.220 C 
ATOM      3  N   UNL     1      98.246  80.803  79.937  1.00  0.00    -0.352 N 
ATOM      4  H   UNL     1      97.456  81.384  80.183  1.00  0.00     0.163 HD
ATOM      5  O   UNL     1      99.662  79.211  80.755  1.00  0.00    -0.275 OA
BRANCH   3   6
ATOM      6  C   UNL     1      98.812  80.877  78.628  1.00  0.00     0.151 C 
BRANCH   6   7
ATOM      7  C   UNL     1      97.929  81.625  77.692  1.00  0.00    -0.025 A 
ATOM      8  C   UNL     1      97.513  82.576  75.460  1.00  0.00     0.160 A 
ATOM      9  C   UNL     1      96.249  83.033  75.889  1.00  0.00     0.157 A 
ATOM     10  C   UNL     1      98.340  81.880  76.365  1.00  0.00     0.056 A 
ATOM     11  C   UNL     1      95.833  82.803  77.215  1.00  0.00     0.050 A 
ATOM     12  C   UNL     1      96.662  82.097  78.108  1.00  0.00     0.009 A 
BRANCH   8  13
ATOM     13  O   UNL     1      97.949  82.854  74.189  1.00  0.00    -0.493 OA
ATOM     14  C   UNL     1      99.382  82.922  74.063  1.00  0.00     0.278 C 
ENDBRANCH   8  13
BRANCH   9  15
ATOM     15  O   UNL     1      95.422  83.695  75.039  1.00  0.00    -0.504 OA
ATOM     16  H   UNL     1      95.938  84.090  74.332  1.00  0.00     0.293 HD
ENDBRANCH   9  15
ENDBRANCH   6   7
ENDBRANCH   3   6
ENDBRANCH   1   2
BRANCH   1  17
ATOM     17  C   UNL     1      96.554  80.398  82.173  1.00  0.00     0.010 C 
BRANCH  17  18
ATOM     18  C   UNL     1      96.132  81.444  83.242  1.00  0.00     0.005 C 
BRANCH  18  19
ATOM     19  C   UNL     1      94.897  80.985  84.064  1.00  0.00     0.027 C 
BRANCH  19  20
ATOM     20  C   UNL     1      94.399  82.037  84.938  1.00  0.00    -0.031 C 
ATOM     21  C   UNL     1      93.160  82.062  85.461  1.00  0.00    -0.028 C 
BRANCH  21  22
ATOM     22  C   UNL     1      92.687  83.120  86.354  1.00  0.00     0.005 C 
ATOM     23  C   UNL     1      92.665  82.670  87.841  1.00  0.00     0.012 C 
ATOM     24  C   UNL     1      93.549  84.397  86.175  1.00  0.00     0.012 C 
ENDBRANCH  21  22
ENDBRANCH  19  20
ENDBRANCH  18  19
ENDBRANCH  17  18
ENDBRANCH   1  17
TORSDOF 10
ENDMDL
MODEL 6
REMARK VINA RESULT:    -5.889     23.177     25.146
REMARK INTER + INTRA:          -9.661
REMARK INTER:                  -8.942
REMARK INTRA:                  -0.720
REMARK UNBOUND:                -0.502
REMARK SMILES COc1cc(CNC(=O)CCCC/C=C/C(C)C)ccc1O
REMARK SMILES IDX 10 1 8 2 7 3 9 5 6 6 5 7 3 8 21 9 4 10 20 11 19 12 2 13 1 14
REMARK SMILES IDX 22 15 11 17 12 18 13 19 14 20 15 21 16 22 17 23 18 24
REMARK H PARENT 7 4 22 16
REMARK Flexibility Score: inf
ROOT
ATOM      1  C   UNL     1      77.239  85.982  68.320  1.00  0.00     0.100 C 
ENDROOT
BRANCH   1   2
ATOM      2  C   UNL     1      76.841  87.307  67.808  1.00  0.00     0.220 C 
ATOM      3  N   UNL     1      76.100  88.152  68.579  1.00  0.00    -0.352 N 
ATOM      4  H   UNL     1      75.842  87.786  69.485  1.00  0.00     0.163 HD
ATOM      5  O   UNL     1      77.223  87.638  66.660  1.00  0.00    -0.275 OA
BRANCH   3   6
ATOM      6  C   UNL     1      75.692  89.464  68.191  1.00  0.00     0.151 C 
BRANCH   6   7
ATOM      7  C   UNL     1      74.687  90.025  69.134  1.00  0.00    -0.025 A 
ATOM      8  C   UNL     1      73.975  91.813  70.671  1.00  0.00     0.160 A 
ATOM      9  C   UNL     1      72.773  91.120  70.921  1.00  0.00     0.157 A 
ATOM     10  C   UNL     1      74.921  91.259  69.783  1.00  0.00     0.056 A 
ATOM     11  C   UNL     1      72.534  89.880  70.297  1.00  0.00     0.050 A 
ATOM     12  C   UNL     1      73.479  89.340  69.402  1.00  0.00     0.009 A 
BRANCH   8  13
ATOM     13  O   UNL     1      74.241  92.988  71.327  1.00  0.00    -0.493 OA
ATOM     14  C   UNL     1      75.358  93.720  70.789  1.00  0.00     0.278 C 
ENDBRANCH   8  13
BRANCH   9  15
ATOM     15  O   UNL     1      71.836  91.632  71.761  1.00  0.00    -0.504 OA
ATOM     16  H   UNL     1      71.629  92.532  71.500  1.00  0.00     0.293 HD
ENDBRANCH   9  15
ENDBRANCH   6   7
ENDBRANCH   3   6
ENDBRANCH   1   2
BRANCH   1  17
ATOM     17  C   UNL     1      76.010  85.153  68.782  1.00  0.00     0.010 C 
BRANCH  17  18
ATOM     18  C   UNL     1      75.393  84.297  67.639  1.00  0.00     0.005 C 
BRANCH  18  19
ATOM     19  C   UNL     1      76.440  83.912  66.560  1.00  0.00     0.027 C 
BRANCH  19  20
ATOM     20  C   UNL     1      75.910  82.953  65.602  1.00  0.00    -0.031 C 
ATOM     21  C   UNL     1      74.754  82.284  65.762  1.00  0.00    -0.028 C 
BRANCH  21  22
ATOM     22  C   UNL     1      74.230  81.339  64.776  1.00  0.00     0.005 C 
ATOM     23  C   UNL     1      72.680  81.239  64.822  1.00  0.00     0.012 C 
ATOM     24  C   UNL     1      74.719  81.722  63.355  1.00  0.00     0.012 C 
ENDBRANCH  21  22
ENDBRANCH  19  20
ENDBRANCH  18  19
ENDBRANCH  17  18
ENDBRANCH   1  17
TORSDOF 10
ENDMDL
MODEL 7
REMARK VINA RESULT:    -5.835     23.556     26.394
REMARK INTER + INTRA:          -9.578
REMARK INTER:                  -7.770
REMARK INTRA:                  -1.808
REMARK UNBOUND:                -0.502
REMARK SMILES COc1cc(CNC(=O)CCCC/C=C/C(C)C)ccc1O
REMARK SMILES IDX 10 1 8 2 7 3 9 5 6 6 5 7 3 8 21 9 4 10 20 11 19 12 2 13 1 14
REMARK SMILES IDX 22 15 11 17 12 18 13 19 14 20 15 21 16 22 17 23 18 24
REMARK H PARENT 7 4 22 16
REMARK Flexibility Score: inf
ROOT
ATOM      1  C   UNL     1      73.235  81.474  65.035  1.00  0.00     0.100 C 
ENDROOT
BRANCH   1   2
ATOM      2  C   UNL     1      74.596  81.991  64.791  1.00  0.00     0.220 C 
ATOM      3  N   UNL     1      74.780  83.175  64.143  1.00  0.00    -0.352 N 
ATOM      4  H   UNL     1      73.931  83.631  63.838  1.00  0.00     0.163 HD
ATOM      5  O   UNL     1      75.568  81.322  65.217  1.00  0.00    -0.275 OA
BRANCH   3   6
ATOM      6  C   UNL     1      76.050  83.775  63.886  1.00  0.00     0.151 C 
BRANCH   6   7
ATOM      7  C   UNL     1      76.429  84.733  64.960  1.00  0.00    -0.025 A 
ATOM      8  C   UNL     1      76.396  87.014  65.887  1.00  0.00     0.160 A 
ATOM      9  C   UNL     1      77.126  86.570  67.009  1.00  0.00     0.157 A 
ATOM     10  C   UNL     1      76.056  86.093  64.874  1.00  0.00     0.056 A 
ATOM     11  C   UNL     1      77.522  85.220  67.099  1.00  0.00     0.050 A 
ATOM     12  C   UNL     1      77.168  84.306  66.088  1.00  0.00     0.009 A 
BRANCH   8  13
ATOM     13  O   UNL     1      76.066  88.340  65.762  1.00  0.00    -0.493 OA
ATOM     14  C   UNL     1      75.631  88.715  64.442  1.00  0.00     0.278 C 
ENDBRANCH   8  13
BRANCH   9  15
ATOM     15  O   UNL     1      77.458  87.427  68.008  1.00  0.00    -0.504 OA
ATOM     16  H   UNL     1      78.309  87.178  68.376  1.00  0.00     0.293 HD
ENDBRANCH   9  15
ENDBRANCH   6   7
ENDBRANCH   3   6
ENDBRANCH   1   2
BRANCH   1  17
ATOM     17  C   UNL     1      72.150  82.509  64.634  1.00  0.00     0.010 C 
BRANCH  17  18
ATOM     18  C   UNL     1      71.733  83.436  65.811  1.00  0.00     0.005 C 
BRANCH  18  19
ATOM     19  C   UNL     1      72.353  84.854  65.694  1.00  0.00     0.027 C 
BRANCH  19  20
ATOM     20  C   UNL     1      73.109  85.220  66.882  1.00  0.00    -0.031 C 
ATOM     21  C   UNL     1      72.727  86.166  67.760  1.00  0.00    -0.028 C 
BRANCH  21  22
ATOM     22  C   UNL     1      73.493  86.504  68.959  1.00  0.00     0.005 C 
ATOM     23  C   UNL     1      74.566  85.431  69.295  1.00  0.00     0.012 C 
ATOM     24  C   UNL     1      74.141  87.904  68.804  1.00  0.00     0.012 C 
ENDBRANCH  21  22
ENDBRANCH  19  20
ENDBRANCH  18  19
ENDBRANCH  17  18
ENDBRANCH   1  17
TORSDOF 10
ENDMDL
MODEL 8
REMARK VINA RESULT:    -5.814     18.161     21.344
REMARK INTER + INTRA:          -9.545
REMARK INTER:                  -8.480
REMARK INTRA:                  -1.065
REMARK UNBOUND:                -0.502
REMARK SMILES COc1cc(CNC(=O)CCCC/C=C/C(C)C)ccc1O
REMARK SMILES IDX 10 1 8 2 7 3 9 5 6 6 5 7 3 8 21 9 4 10 20 11 19 12 2 13 1 14
REMARK SMILES IDX 22 15 11 17 12 18 13 19 14 20 15 21 16 22 17 23 18 24
REMARK H PARENT 7 4 22 16
REMARK Flexibility Score: inf
ROOT
ATOM      1  C   UNL     1      95.345  98.916  72.362  1.00  0.00     0.100 C 
ENDROOT
BRANCH   1   2
ATOM      2  C   UNL     1      93.955  99.392  72.498  1.00  0.00     0.220 C 
ATOM      3  N   UNL     1      93.375 100.124  71.506  1.00  0.00    -0.352 N 
ATOM      4  H   UNL     1      93.973 100.321  70.716  1.00  0.00     0.163 HD
ATOM      5  O   UNL     1      93.322  99.083  73.537  1.00  0.00    -0.275 OA
BRANCH   3   6
ATOM      6  C   UNL     1      92.030 100.604  71.527  1.00  0.00     0.151 C 
BRANCH   6   7
ATOM      7  C   UNL     1      91.172  99.864  70.561  1.00  0.00    -0.025 A 
ATOM      8  C   UNL     1      90.036  99.745  68.380  1.00  0.00     0.160 A 
ATOM      9  C   UNL     1      89.552  98.460  68.701  1.00  0.00     0.157 A 
ATOM     10  C   UNL     1      90.839 100.435  69.312  1.00  0.00     0.056 A 
ATOM     11  C   UNL     1      89.860  97.886  69.951  1.00  0.00     0.050 A 
ATOM     12  C   UNL     1      90.671  98.578  70.871  1.00  0.00     0.009 A 
BRANCH   8  13
ATOM     13  O   UNL     1      89.685 100.335  67.192  1.00  0.00    -0.493 OA
ATOM     14  C   UNL     1      90.697 100.247  66.172  1.00  0.00     0.278 C 
ENDBRANCH   8  13
BRANCH   9  15
ATOM     15  O   UNL     1      88.788  97.763  67.821  1.00  0.00    -0.504 OA
ATOM     16  H   UNL     1      88.768  96.838  68.076  1.00  0.00     0.293 HD
ENDBRANCH   9  15
ENDBRANCH   6   7
ENDBRANCH   3   6
ENDBRANCH   1   2
BRANCH   1  17
ATOM     17  C   UNL     1      95.410  97.530  71.665  1.00  0.00     0.010 C 
BRANCH  17  18
ATOM     18  C   UNL     1      95.596  96.357  72.667  1.00  0.00     0.005 C 
BRANCH  18  19
ATOM     19  C   UNL     1      95.980  96.849  74.089  1.00  0.00     0.027 C 
BRANCH  19  20
ATOM     20  C   UNL     1      95.069  96.348  75.106  1.00  0.00    -0.031 C 
ATOM     21  C   UNL     1      93.998  95.575  74.848  1.00  0.00    -0.028 C 
BRANCH  21  22
ATOM     22  C   UNL     1      93.106  95.066  75.889  1.00  0.00     0.005 C 
ATOM     23  C   UNL     1      92.931  93.523  75.812  1.00  0.00     0.012 C 
ATOM     24  C   UNL     1      93.616  95.495  77.289  1.00  0.00     0.012 C 
ENDBRANCH  21  22
ENDBRANCH  19  20
ENDBRANCH  18  19
ENDBRANCH  17  18
ENDBRANCH   1  17
TORSDOF 10
ENDMDL
MODEL 9
REMARK VINA RESULT:    -5.795     22.324     24.083
REMARK INTER + INTRA:          -9.515
REMARK INTER:                  -8.845
REMARK INTRA:                  -0.670
REMARK UNBOUND:                -0.502
REMARK SMILES COc1cc(CNC(=O)CCCC/C=C/C(C)C)ccc1O
REMARK SMILES IDX 10 1 8 2 7 3 9 5 6 6 5 7 3 8 21 9 4 10 20 11 19 12 2 13 1 14
REMARK SMILES IDX 22 15 11 17 12 18 13 19 14 20 15 21 16 22 17 23 18 24
REMARK H PARENT 7 4 22 16
REMARK Flexibility Score: inf
ROOT
ATOM      1  C   UNL     1      74.078  90.317  69.538  1.00  0.00     0.100 C 
ENDROOT
BRANCH   1   2
ATOM      2  C   UNL     1      73.768  91.615  70.169  1.00  0.00     0.220 C 
ATOM      3  N   UNL     1      74.606  92.149  71.101  1.00  0.00    -0.352 N 
ATOM      4  H   UNL     1      75.412  91.582  71.324  1.00  0.00     0.163 HD
ATOM      5  O   UNL     1      72.728  92.216  69.805  1.00  0.00    -0.275 OA
BRANCH   3   6
ATOM      6  C   UNL     1      74.413  93.408  71.745  1.00  0.00     0.151 C 
BRANCH   6   7
ATOM      7  C   UNL     1      75.478  93.678  72.749  1.00  0.00    -0.025 A 
ATOM      8  C   UNL     1      77.660  94.661  73.325  1.00  0.00     0.160 A 
ATOM      9  C   UNL     1      77.510  94.218  74.655  1.00  0.00     0.157 A 
ATOM     10  C   UNL     1      76.645  94.386  72.385  1.00  0.00     0.056 A 
ATOM     11  C   UNL     1      76.360  93.494  75.028  1.00  0.00     0.050 A 
ATOM     12  C   UNL     1      75.346  93.234  74.085  1.00  0.00     0.009 A 
BRANCH   8  13
ATOM     13  O   UNL     1      78.807  95.309  72.942  1.00  0.00    -0.493 OA
ATOM     14  C   UNL     1      78.610  96.289  71.906  1.00  0.00     0.278 C 
ENDBRANCH   8  13
BRANCH   9  15
ATOM     15  O   UNL     1      78.462  94.478  75.588  1.00  0.00    -0.504 OA
ATOM     16  H   UNL     1      78.409  93.826  76.291  1.00  0.00     0.293 HD
ENDBRANCH   9  15
ENDBRANCH   6   7
ENDBRANCH   3   6
ENDBRANCH   1   2
BRANCH   1  17
ATOM     17  C   UNL     1      75.548  90.260  69.042  1.00  0.00     0.010 C 
BRANCH  17  18
ATOM     18  C   UNL     1      75.662  90.189  67.493  1.00  0.00     0.005 C 
BRANCH  18  19
ATOM     19  C   UNL     1      76.933  89.428  67.028  1.00  0.00     0.027 C 
BRANCH  19  20
ATOM     20  C   UNL     1      77.154  88.211  67.795  1.00  0.00    -0.031 C 
ATOM     21  C   UNL     1      76.781  86.984  67.390  1.00  0.00    -0.028 C 
BRANCH  21  22
ATOM     22  C   UNL     1      77.031  85.771  68.169  1.00  0.00     0.005 C 
ATOM     23  C   UNL     1      75.806  85.363  69.033  1.00  0.00     0.012 C 
ATOM     24  C   UNL     1      77.458  84.611  67.232  1.00  0.00     0.012 C 
ENDBRANCH  21  22
ENDBRANCH  19  20
ENDBRANCH  18  19
ENDBRANCH  17  18
ENDBRANCH   1  17
TORSDOF 10
ENDMDL
MODEL 10
REMARK VINA RESULT:    -5.713      4.973      7.364
REMARK INTER + INTRA:          -9.388
REMARK INTER:                  -8.940
REMARK INTRA:                  -0.448
REMARK UNBOUND:                -0.502
REMARK SMILES COc1cc(CNC(=O)CCCC/C=C/C(C)C)ccc1O
REMARK SMILES IDX 10 1 8 2 7 3 9 5 6 6 5 7 3 8 21 9 4 10 20 11 19 12 2 13 1 14
REMARK SMILES IDX 22 15 11 17 12 18 13 19 14 20 15 21 16 22 17 23 18 24
REMARK H PARENT 7 4 22 16
REMARK Flexibility Score: inf
ROOT
ATOM      1  C   UNL     1      94.176  83.668  86.113  1.00  0.00     0.100 C 
ENDROOT
BRANCH   1   2
ATOM      2  C   UNL     1      92.780  83.568  86.579  1.00  0.00     0.220 C 
ATOM      3  N   UNL     1      91.881  82.794  85.908  1.00  0.00    -0.352 N 
ATOM      4  H   UNL     1      92.244  82.336  85.083  1.00  0.00     0.163 HD
ATOM      5  O   UNL     1      92.455  84.194  87.617  1.00  0.00    -0.275 OA
BRANCH   3   6
ATOM      6  C   UNL     1      90.519  82.605  86.294  1.00  0.00     0.151 C 
BRANCH   6   7
ATOM      7  C   UNL     1      89.917  81.427  85.613  1.00  0.00    -0.025 A 
ATOM      8  C   UNL     1      88.115  80.446  84.252  1.00  0.00     0.160 A 
ATOM      9  C   UNL     1      88.764  79.194  84.294  1.00  0.00     0.157 A 
ATOM     10  C   UNL     1      88.695  81.548  84.913  1.00  0.00     0.056 A 
ATOM     11  C   UNL     1      89.972  79.053  85.004  1.00  0.00     0.050 A 
ATOM     12  C   UNL     1      90.550  80.162  85.651  1.00  0.00     0.009 A 
BRANCH   8  13
ATOM     13  O   UNL     1      86.905  80.573  83.617  1.00  0.00    -0.493 OA
ATOM     14  C   UNL     1      86.331  81.890  83.706  1.00  0.00     0.278 C 
ENDBRANCH   8  13
BRANCH   9  15
ATOM     15  O   UNL     1      88.238  78.116  83.656  1.00  0.00    -0.504 OA
ATOM     16  H   UNL     1      88.768  77.911  82.883  1.00  0.00     0.293 HD
ENDBRANCH   9  15
ENDBRANCH   6   7
ENDBRANCH   3   6
ENDBRANCH   1   2
BRANCH   1  17
ATOM     17  C   UNL     1      94.794  85.052  86.451  1.00  0.00     0.010 C 
BRANCH  17  18
ATOM     18  C   UNL     1      95.634  85.036  87.760  1.00  0.00     0.005 C 
BRANCH  18  19
ATOM     19  C   UNL     1      96.298  86.408  88.052  1.00  0.00     0.027 C 
BRANCH  19  20
ATOM     20  C   UNL     1      95.349  87.372  88.590  1.00  0.00    -0.031 C 
ATOM     21  C   UNL     1      95.515  88.706  88.537  1.00  0.00    -0.028 C 
BRANCH  21  22
ATOM     22  C   UNL     1      94.538  89.657  89.067  1.00  0.00     0.005 C 
ATOM     23  C   UNL     1      93.954  89.202  90.434  1.00  0.00     0.012 C 
ATOM     24  C   UNL     1      95.170  91.069  89.178  1.00  0.00     0.012 C 
ENDBRANCH  21  22
ENDBRANCH  19  20
ENDBRANCH  18  19
ENDBRANCH  17  18
ENDBRANCH   1  17
TORSDOF 10
ENDMDL
