MODEL 1
REMARK VINA RESULT:    -6.635      0.000      0.000
REMARK INTER + INTRA:         -12.489
REMARK INTER:                 -10.902
REMARK INTRA:                  -1.587
REMARK UNBOUND:                -1.587
REMARK SMILES CCCCC[C@H](O)CC(=O)CCc1ccc(O)c(OC)c1
REMARK SMILES IDX 8 1 6 2 7 3 5 5 4 6 3 7 2 8 1 9 9 10 10 11 11 12 12 13 13 14
REMARK SMILES IDX 21 15 14 16 18 17 15 18 16 19 19 20 20 21 17 22
REMARK H PARENT 7 4 17 23
REMARK Flexibility Score: inf
ROOT
ATOM      1  C   UNL     1      92.759  94.170  76.469  1.00  0.00     0.107 C 
ENDROOT
BRANCH   1   2
ATOM      2  C   UNL     1      93.147  93.768  75.044  1.00  0.00     0.121 C 
BRANCH   2   3
ATOM      3  O   UNL     1      94.566  93.712  74.927  1.00  0.00    -0.393 OA
ATOM      4  H   UNL     1      94.781  93.116  74.188  1.00  0.00     0.210 HD
ENDBRANCH   2   3
BRANCH   2   5
ATOM      5  C   UNL     1      92.552  92.420  74.617  1.00  0.00     0.032 C 
BRANCH   5   6
ATOM      6  C   UNL     1      91.408  92.588  73.610  1.00  0.00     0.003 C 
BRANCH   6   7
ATOM      7  C   UNL     1      91.139  91.326  72.783  1.00  0.00    -0.000 C 
BRANCH   7   8
ATOM      8  C   UNL     1      90.362  91.593  71.495  1.00  0.00    -0.003 C 
ATOM      9  C   UNL     1      90.005  90.297  70.784  1.00  0.00     0.004 C 
ENDBRANCH   7   8
ENDBRANCH   6   7
ENDBRANCH   5   6
ENDBRANCH   2   5
ENDBRANCH   1   2
BRANCH   1  10
ATOM     10  C   UNL     1      91.263  94.084  76.725  1.00  0.00     0.135 C 
ATOM     11  O   UNL     1      90.487  94.898  76.224  1.00  0.00    -0.300 OA
BRANCH  10  12
ATOM     12  C   UNL     1      90.784  92.925  77.586  1.00  0.00     0.080 C 
BRANCH  12  13
ATOM     13  C   UNL     1      89.410  92.387  77.184  1.00  0.00     0.043 C 
BRANCH  13  14
ATOM     14  C   UNL     1      89.477  91.036  76.513  1.00  0.00    -0.044 A 
ATOM     15  C   UNL     1      88.727  90.791  75.362  1.00  0.00     0.054 A 
ATOM     16  C   UNL     1      90.288  90.033  77.044  1.00  0.00     0.008 A 
ATOM     17  C   UNL     1      88.791  89.543  74.742  1.00  0.00     0.160 A 
ATOM     18  C   UNL     1      90.352  88.785  76.424  1.00  0.00     0.050 A 
ATOM     19  C   UNL     1      89.602  88.540  75.273  1.00  0.00     0.157 A 
BRANCH  17  20
ATOM     20  O   UNL     1      88.054  89.315  73.619  1.00  0.00    -0.493 OA
ATOM     21  C   UNL     1      87.256  90.395  73.137  1.00  0.00     0.278 C 
ENDBRANCH  17  20
BRANCH  19  22
ATOM     22  O   UNL     1      89.672  87.317  74.677  1.00  0.00    -0.504 OA
ATOM     23  H   UNL     1      89.683  87.436  73.712  1.00  0.00     0.293 HD
ENDBRANCH  19  22
ENDBRANCH  13  14
ENDBRANCH  12  13
ENDBRANCH  10  12
ENDBRANCH   1  10
TORSDOF 12
ENDMDL
MODEL 2
REMARK VINA RESULT:    -6.511      1.156      2.278
REMARK INTER + INTRA:         -12.285
REMARK INTER:                 -10.460
REMARK INTRA:                  -1.825
REMARK UNBOUND:                -1.587
REMARK SMILES CCCCC[C@H](O)CC(=O)CCc1ccc(O)c(OC)c1
REMARK SMILES IDX 8 1 6 2 7 3 5 5 4 6 3 7 2 8 1 9 9 10 10 11 11 12 12 13 13 14
REMARK SMILES IDX 21 15 14 16 18 17 15 18 16 19 19 20 20 21 17 22
REMARK H PARENT 7 4 17 23
REMARK Flexibility Score: inf
ROOT
ATOM      1  C   UNL     1      92.029  94.023  76.570  1.00  0.00     0.107 C 
ENDROOT
BRANCH   1   2
ATOM      2  C   UNL     1      92.587  93.594  75.211  1.00  0.00     0.121 C 
BRANCH   2   3
ATOM      3  O   UNL     1      93.970  93.927  75.129  1.00  0.00    -0.393 OA
ATOM      4  H   UNL     1      94.103  94.764  75.608  1.00  0.00     0.210 HD
ENDBRANCH   2   3
BRANCH   2   5
ATOM      5  C   UNL     1      92.412  92.095  74.936  1.00  0.00     0.032 C 
BRANCH   5   6
ATOM      6  C   UNL     1      91.725  91.831  73.591  1.00  0.00     0.003 C 
BRANCH   6   7
ATOM      7  C   UNL     1      90.714  92.915  73.203  1.00  0.00    -0.000 C 
BRANCH   7   8
ATOM      8  C   UNL     1      89.673  92.446  72.188  1.00  0.00    -0.003 C 
ATOM      9  C   UNL     1      90.262  91.435  71.217  1.00  0.00     0.004 C 
ENDBRANCH   7   8
ENDBRANCH   6   7
ENDBRANCH   5   6
ENDBRANCH   2   5
ENDBRANCH   1   2
BRANCH   1  10
ATOM     10  C   UNL     1      90.515  93.912  76.654  1.00  0.00     0.135 C 
ATOM     11  O   UNL     1      89.789  94.780  76.170  1.00  0.00    -0.300 OA
BRANCH  10  12
ATOM     12  C   UNL     1      89.959  92.664  77.321  1.00  0.00     0.080 C 
BRANCH  12  13
ATOM     13  C   UNL     1      88.837  91.991  76.528  1.00  0.00     0.043 C 
BRANCH  13  14
ATOM     14  C   UNL     1      89.195  90.601  76.059  1.00  0.00    -0.044 A 
ATOM     15  C   UNL     1      89.823  89.710  76.930  1.00  0.00     0.054 A 
ATOM     16  C   UNL     1      88.897  90.207  74.754  1.00  0.00     0.008 A 
ATOM     17  C   UNL     1      90.153  88.426  76.495  1.00  0.00     0.160 A 
ATOM     18  C   UNL     1      89.226  88.923  74.319  1.00  0.00     0.050 A 
ATOM     19  C   UNL     1      89.854  88.033  75.190  1.00  0.00     0.157 A 
BRANCH  17  20
ATOM     20  O   UNL     1      90.767  87.566  77.354  1.00  0.00    -0.493 OA
ATOM     21  C   UNL     1      90.246  87.491  78.680  1.00  0.00     0.278 C 
ENDBRANCH  17  20
BRANCH  19  22
ATOM     22  O   UNL     1      90.171  86.782  74.755  1.00  0.00    -0.504 OA
ATOM     23  H   UNL     1      90.155  86.772  73.782  1.00  0.00     0.293 HD
ENDBRANCH  19  22
ENDBRANCH  13  14
ENDBRANCH  12  13
ENDBRANCH  10  12
ENDBRANCH   1  10
TORSDOF 12
ENDMDL
MODEL 3
REMARK VINA RESULT:    -6.029      2.116      4.051
REMARK INTER + INTRA:         -11.493
REMARK INTER:                 -10.542
REMARK INTRA:                  -0.950
REMARK UNBOUND:                -1.587
REMARK SMILES CCCCC[C@H](O)CC(=O)CCc1ccc(O)c(OC)c1
REMARK SMILES IDX 8 1 6 2 7 3 5 5 4 6 3 7 2 8 1 9 9 10 10 11 11 12 12 13 13 14
REMARK SMILES IDX 21 15 14 16 18 17 15 18 16 19 19 20 20 21 17 22
REMARK H PARENT 7 4 17 23
REMARK Flexibility Score: inf
ROOT
ATOM      1  C   UNL     1      92.198  94.452  76.730  1.00  0.00     0.107 C 
ENDROOT
BRANCH   1   2
ATOM      2  C   UNL     1      93.209  93.899  75.722  1.00  0.00     0.121 C 
BRANCH   2   3
ATOM      3  O   UNL     1      92.525  93.403  74.574  1.00  0.00    -0.393 OA
ATOM      4  H   UNL     1      92.821  93.920  73.805  1.00  0.00     0.210 HD
ENDBRANCH   2   3
BRANCH   2   5
ATOM      5  C   UNL     1      94.247  94.938  75.282  1.00  0.00     0.032 C 
BRANCH   5   6
ATOM      6  C   UNL     1      95.654  94.337  75.172  1.00  0.00     0.003 C 
BRANCH   6   7
ATOM      7  C   UNL     1      96.757  95.284  75.656  1.00  0.00    -0.000 C 
BRANCH   7   8
ATOM      8  C   UNL     1      97.078  95.140  77.142  1.00  0.00    -0.003 C 
ATOM      9  C   UNL     1      96.753  96.415  77.906  1.00  0.00     0.004 C 
ENDBRANCH   7   8
ENDBRANCH   6   7
ENDBRANCH   5   6
ENDBRANCH   2   5
ENDBRANCH   1   2
BRANCH   1  10
ATOM     10  C   UNL     1      90.876  93.701  76.720  1.00  0.00     0.135 C 
ATOM     11  O   UNL     1      89.955  94.052  75.982  1.00  0.00    -0.300 OA
BRANCH  10  12
ATOM     12  C   UNL     1      90.776  92.484  77.627  1.00  0.00     0.080 C 
BRANCH  12  13
ATOM     13  C   UNL     1      89.571  91.591  77.326  1.00  0.00     0.043 C 
BRANCH  13  14
ATOM     14  C   UNL     1      89.946  90.303  76.633  1.00  0.00    -0.044 A 
ATOM     15  C   UNL     1      90.111  90.279  75.248  1.00  0.00     0.054 A 
ATOM     16  C   UNL     1      90.128  89.138  77.378  1.00  0.00     0.008 A 
ATOM     17  C   UNL     1      90.459  89.088  74.609  1.00  0.00     0.160 A 
ATOM     18  C   UNL     1      90.476  87.948  76.739  1.00  0.00     0.050 A 
ATOM     19  C   UNL     1      90.641  87.923  75.354  1.00  0.00     0.157 A 
BRANCH  17  20
ATOM     20  O   UNL     1      90.617  89.076  73.256  1.00  0.00    -0.493 OA
ATOM     21  C   UNL     1      89.824  89.992  72.502  1.00  0.00     0.278 C 
ENDBRANCH  17  20
BRANCH  19  22
ATOM     22  O   UNL     1      90.981  86.755  74.741  1.00  0.00    -0.504 OA
ATOM     23  H   UNL     1      90.470  86.029  75.139  1.00  0.00     0.293 HD
ENDBRANCH  19  22
ENDBRANCH  13  14
ENDBRANCH  12  13
ENDBRANCH  10  12
ENDBRANCH   1  10
TORSDOF 12
ENDMDL
MODEL 4
REMARK VINA RESULT:    -5.854      2.700      5.229
REMARK INTER + INTRA:         -11.205
REMARK INTER:                 -10.259
REMARK INTRA:                  -0.946
REMARK UNBOUND:                -1.587
REMARK SMILES CCCCC[C@H](O)CC(=O)CCc1ccc(O)c(OC)c1
REMARK SMILES IDX 8 1 6 2 7 3 5 5 4 6 3 7 2 8 1 9 9 10 10 11 11 12 12 13 13 14
REMARK SMILES IDX 21 15 14 16 18 17 15 18 16 19 19 20 20 21 17 22
REMARK H PARENT 7 4 17 23
REMARK Flexibility Score: inf
ROOT
ATOM      1  C   UNL     1      93.118  94.277  77.173  1.00  0.00     0.107 C 
ENDROOT
BRANCH   1   2
ATOM      2  C   UNL     1      94.451  93.688  76.706  1.00  0.00     0.121 C 
BRANCH   2   3
ATOM      3  O   UNL     1      94.789  94.213  75.424  1.00  0.00    -0.393 OA
ATOM      4  H   UNL     1      95.141  93.482  74.887  1.00  0.00     0.210 HD
ENDBRANCH   2   3
BRANCH   2   5
ATOM      5  C   UNL     1      95.602  93.961  77.682  1.00  0.00     0.032 C 
BRANCH   5   6
ATOM      6  C   UNL     1      95.102  94.505  79.026  1.00  0.00     0.003 C 
BRANCH   6   7
ATOM      7  C   UNL     1      95.759  93.832  80.235  1.00  0.00    -0.000 C 
BRANCH   7   8
ATOM      8  C   UNL     1      96.480  94.808  81.162  1.00  0.00    -0.003 C 
ATOM      9  C   UNL     1      95.803  96.171  81.167  1.00  0.00     0.004 C 
ENDBRANCH   7   8
ENDBRANCH   6   7
ENDBRANCH   5   6
ENDBRANCH   2   5
ENDBRANCH   1   2
BRANCH   1  10
ATOM     10  C   UNL     1      91.930  93.768  76.372  1.00  0.00     0.135 C 
ATOM     11  O   UNL     1      91.824  94.014  75.171  1.00  0.00    -0.300 OA
BRANCH  10  12
ATOM     12  C   UNL     1      90.919  92.913  77.121  1.00  0.00     0.080 C 
BRANCH  12  13
ATOM     13  C   UNL     1      89.874  92.261  76.214  1.00  0.00     0.043 C 
BRANCH  13  14
ATOM     14  C   UNL     1      90.285  90.893  75.725  1.00  0.00    -0.044 A 
ATOM     15  C   UNL     1      90.282  89.808  76.602  1.00  0.00     0.054 A 
ATOM     16  C   UNL     1      90.668  90.714  74.396  1.00  0.00     0.008 A 
ATOM     17  C   UNL     1      90.661  88.544  76.149  1.00  0.00     0.160 A 
ATOM     18  C   UNL     1      91.047  89.450  73.942  1.00  0.00     0.050 A 
ATOM     19  C   UNL     1      91.044  88.366  74.820  1.00  0.00     0.157 A 
BRANCH  17  20
ATOM     20  O   UNL     1      90.655  87.493  77.015  1.00  0.00    -0.493 OA
ATOM     21  C   UNL     1      89.883  87.638  78.206  1.00  0.00     0.278 C 
ENDBRANCH  17  20
BRANCH  19  22
ATOM     22  O   UNL     1      91.416  87.137  74.366  1.00  0.00    -0.504 OA
ATOM     23  H   UNL     1      90.619  86.605  74.199  1.00  0.00     0.293 HD
ENDBRANCH  19  22
ENDBRANCH  13  14
ENDBRANCH  12  13
ENDBRANCH  10  12
ENDBRANCH   1  10
TORSDOF 12
ENDMDL
MODEL 5
REMARK VINA RESULT:    -5.828      2.382      4.546
REMARK INTER + INTRA:         -11.162
REMARK INTER:                 -10.071
REMARK INTRA:                  -1.091
REMARK UNBOUND:                -1.587
REMARK SMILES CCCCC[C@H](O)CC(=O)CCc1ccc(O)c(OC)c1
REMARK SMILES IDX 8 1 6 2 7 3 5 5 4 6 3 7 2 8 1 9 9 10 10 11 11 12 12 13 13 14
REMARK SMILES IDX 21 15 14 16 18 17 15 18 16 19 19 20 20 21 17 22
REMARK H PARENT 7 4 17 23
REMARK Flexibility Score: inf
ROOT
ATOM      1  C   UNL     1      93.452  93.308  75.356  1.00  0.00     0.107 C 
ENDROOT
BRANCH   1   2
ATOM      2  C   UNL     1      94.679  94.217  75.246  1.00  0.00     0.121 C 
BRANCH   2   3
ATOM      3  O   UNL     1      94.348  95.531  75.689  1.00  0.00    -0.393 OA
ATOM      4  H   UNL     1      93.607  95.851  75.145  1.00  0.00     0.210 HD
ENDBRANCH   2   3
BRANCH   2   5
ATOM      5  C   UNL     1      95.882  93.702  76.046  1.00  0.00     0.032 C 
BRANCH   5   6
ATOM      6  C   UNL     1      96.244  94.636  77.207  1.00  0.00     0.003 C 
BRANCH   6   7
ATOM      7  C   UNL     1      95.907  94.053  78.583  1.00  0.00    -0.000 C 
BRANCH   7   8
ATOM      8  C   UNL     1      95.649  95.115  79.651  1.00  0.00    -0.003 C 
ATOM      9  C   UNL     1      96.934  95.509  80.362  1.00  0.00     0.004 C 
ENDBRANCH   7   8
ENDBRANCH   6   7
ENDBRANCH   5   6
ENDBRANCH   2   5
ENDBRANCH   1   2
BRANCH   1  10
ATOM     10  C   UNL     1      92.494  93.732  76.458  1.00  0.00     0.135 C 
ATOM     11  O   UNL     1      92.839  93.709  77.639  1.00  0.00    -0.300 OA
BRANCH  10  12
ATOM     12  C   UNL     1      91.123  94.222  76.018  1.00  0.00     0.080 C 
BRANCH  12  13
ATOM     13  C   UNL     1      89.967  93.593  76.797  1.00  0.00     0.043 C 
BRANCH  13  14
ATOM     14  C   UNL     1      89.877  92.096  76.620  1.00  0.00    -0.044 A 
ATOM     15  C   UNL     1      89.616  91.557  75.360  1.00  0.00     0.054 A 
ATOM     16  C   UNL     1      90.057  91.252  77.716  1.00  0.00     0.008 A 
ATOM     17  C   UNL     1      89.535  90.174  75.197  1.00  0.00     0.160 A 
ATOM     18  C   UNL     1      89.976  89.869  77.553  1.00  0.00     0.050 A 
ATOM     19  C   UNL     1      89.714  89.330  76.294  1.00  0.00     0.157 A 
BRANCH  17  20
ATOM     20  O   UNL     1      89.278  89.659  73.962  1.00  0.00    -0.493 OA
ATOM     21  C   UNL     1      88.128  90.155  73.280  1.00  0.00     0.278 C 
ENDBRANCH  17  20
BRANCH  19  22
ATOM     22  O   UNL     1      89.637  87.978  76.147  1.00  0.00    -0.504 OA
ATOM     23  H   UNL     1      90.273  87.697  75.466  1.00  0.00     0.293 HD
ENDBRANCH  19  22
ENDBRANCH  13  14
ENDBRANCH  12  13
ENDBRANCH  10  12
ENDBRANCH   1  10
TORSDOF 12
ENDMDL
MODEL 6
REMARK VINA RESULT:    -5.671      4.568      8.416
REMARK INTER + INTRA:         -10.904
REMARK INTER:                  -9.541
REMARK INTRA:                  -1.363
REMARK UNBOUND:                -1.587
REMARK SMILES CCCCC[C@H](O)CC(=O)CCc1ccc(O)c(OC)c1
REMARK SMILES IDX 8 1 6 2 7 3 5 5 4 6 3 7 2 8 1 9 9 10 10 11 11 12 12 13 13 14
REMARK SMILES IDX 21 15 14 16 18 17 15 18 16 19 19 20 20 21 17 22
REMARK H PARENT 7 4 17 23
REMARK Flexibility Score: inf
ROOT
ATOM      1  C   UNL     1      94.745  95.775  75.072  1.00  0.00     0.107 C 
ENDROOT
BRANCH   1   2
ATOM      2  C   UNL     1      94.623  94.249  75.077  1.00  0.00     0.121 C 
BRANCH   2   3
ATOM      3  O   UNL     1      95.870  93.667  75.449  1.00  0.00    -0.393 OA
ATOM      4  H   UNL     1      95.682  92.880  75.989  1.00  0.00     0.210 HD
ENDBRANCH   2   3
BRANCH   2   5
ATOM      5  C   UNL     1      93.527  93.738  76.019  1.00  0.00     0.032 C 
BRANCH   5   6
ATOM      6  C   UNL     1      92.175  94.411  75.749  1.00  0.00     0.003 C 
BRANCH   6   7
ATOM      7  C   UNL     1      91.108  94.067  76.793  1.00  0.00    -0.000 C 
BRANCH   7   8
ATOM      8  C   UNL     1      91.361  92.745  77.515  1.00  0.00    -0.003 C 
ATOM      9  C   UNL     1      90.073  91.956  77.695  1.00  0.00     0.004 C 
ENDBRANCH   7   8
ENDBRANCH   6   7
ENDBRANCH   5   6
ENDBRANCH   2   5
ENDBRANCH   1   2
BRANCH   1  10
ATOM     10  C   UNL     1      96.175  96.260  75.242  1.00  0.00     0.135 C 
ATOM     11  O   UNL     1      96.993  96.150  74.328  1.00  0.00    -0.300 OA
BRANCH  10  12
ATOM     12  C   UNL     1      96.519  96.919  76.568  1.00  0.00     0.080 C 
BRANCH  12  13
ATOM     13  C   UNL     1      97.381  96.047  77.483  1.00  0.00     0.043 C 
BRANCH  13  14
ATOM     14  C   UNL     1      96.683  95.666  78.767  1.00  0.00    -0.044 A 
ATOM     15  C   UNL     1      96.804  96.478  79.895  1.00  0.00     0.054 A 
ATOM     16  C   UNL     1      95.917  94.502  78.825  1.00  0.00     0.008 A 
ATOM     17  C   UNL     1      96.158  96.126  81.080  1.00  0.00     0.160 A 
ATOM     18  C   UNL     1      95.271  94.149  80.010  1.00  0.00     0.050 A 
ATOM     19  C   UNL     1      95.392  94.961  81.138  1.00  0.00     0.157 A 
BRANCH  17  20
ATOM     20  O   UNL     1      96.285  96.926  82.175  1.00  0.00    -0.493 OA
ATOM     21  C   UNL     1      97.576  97.003  82.777  1.00  0.00     0.278 C 
ENDBRANCH  17  20
BRANCH  19  22
ATOM     22  O   UNL     1      94.757  94.607  82.289  1.00  0.00    -0.504 OA
ATOM     23  H   UNL     1      93.976  94.071  82.069  1.00  0.00     0.293 HD
ENDBRANCH  19  22
ENDBRANCH  13  14
ENDBRANCH  12  13
ENDBRANCH  10  12
ENDBRANCH   1  10
TORSDOF 12
ENDMDL
MODEL 7
REMARK VINA RESULT:    -5.612      2.989      5.808
REMARK INTER + INTRA:         -10.808
REMARK INTER:                 -10.050
REMARK INTRA:                  -0.758
REMARK UNBOUND:                -1.587
REMARK SMILES CCCCC[C@H](O)CC(=O)CCc1ccc(O)c(OC)c1
REMARK SMILES IDX 8 1 6 2 7 3 5 5 4 6 3 7 2 8 1 9 9 10 10 11 11 12 12 13 13 14
REMARK SMILES IDX 21 15 14 16 18 17 15 18 16 19 19 20 20 21 17 22
REMARK H PARENT 7 4 17 23
REMARK Flexibility Score: inf
ROOT
ATOM      1  C   UNL     1      93.741  94.404  77.006  1.00  0.00     0.107 C 
ENDROOT
BRANCH   1   2
ATOM      2  C   UNL     1      95.184  93.922  77.179  1.00  0.00     0.121 C 
BRANCH   2   3
ATOM      3  O   UNL     1      95.908  94.118  75.967  1.00  0.00    -0.393 OA
ATOM      4  H   UNL     1      96.768  94.512  76.194  1.00  0.00     0.210 HD
ENDBRANCH   2   3
BRANCH   2   5
ATOM      5  C   UNL     1      95.918  94.626  78.326  1.00  0.00     0.032 C 
BRANCH   5   6
ATOM      6  C   UNL     1      95.199  94.446  79.668  1.00  0.00     0.003 C 
BRANCH   6   7
ATOM      7  C   UNL     1      95.963  95.050  80.851  1.00  0.00    -0.000 C 
BRANCH   7   8
ATOM      8  C   UNL     1      96.601  96.403  80.541  1.00  0.00    -0.003 C 
ATOM      9  C   UNL     1      96.248  97.437  81.598  1.00  0.00     0.004 C 
ENDBRANCH   7   8
ENDBRANCH   6   7
ENDBRANCH   5   6
ENDBRANCH   2   5
ENDBRANCH   1   2
BRANCH   1  10
ATOM     10  C   UNL     1      93.337  94.563  75.549  1.00  0.00     0.135 C 
ATOM     11  O   UNL     1      93.628  95.579  74.918  1.00  0.00    -0.300 OA
BRANCH  10  12
ATOM     12  C   UNL     1      92.604  93.391  74.913  1.00  0.00     0.080 C 
BRANCH  12  13
ATOM     13  C   UNL     1      91.183  93.193  75.445  1.00  0.00     0.043 C 
BRANCH  13  14
ATOM     14  C   UNL     1      90.254  92.566  74.432  1.00  0.00    -0.044 A 
ATOM     15  C   UNL     1      89.757  91.280  74.643  1.00  0.00     0.054 A 
ATOM     16  C   UNL     1      89.893  93.275  73.286  1.00  0.00     0.008 A 
ATOM     17  C   UNL     1      88.899  90.703  73.708  1.00  0.00     0.160 A 
ATOM     18  C   UNL     1      89.035  92.697  72.350  1.00  0.00     0.050 A 
ATOM     19  C   UNL     1      88.538  91.411  72.561  1.00  0.00     0.157 A 
BRANCH  17  20
ATOM     20  O   UNL     1      88.420  89.446  73.924  1.00  0.00    -0.493 OA
ATOM     21  C   UNL     1      89.237  88.565  74.694  1.00  0.00     0.278 C 
ENDBRANCH  17  20
BRANCH  19  22
ATOM     22  O   UNL     1      87.700  90.858  71.641  1.00  0.00    -0.504 OA
ATOM     23  H   UNL     1      87.166  90.169  72.072  1.00  0.00     0.293 HD
ENDBRANCH  19  22
ENDBRANCH  13  14
ENDBRANCH  12  13
ENDBRANCH  10  12
ENDBRANCH   1  10
TORSDOF 12
ENDMDL
MODEL 8
REMARK VINA RESULT:    -5.566      4.536      7.251
REMARK INTER + INTRA:         -10.732
REMARK INTER:                 -10.026
REMARK INTRA:                  -0.706
REMARK UNBOUND:                -1.587
REMARK SMILES CCCCC[C@H](O)CC(=O)CCc1ccc(O)c(OC)c1
REMARK SMILES IDX 8 1 6 2 7 3 5 5 4 6 3 7 2 8 1 9 9 10 10 11 11 12 12 13 13 14
REMARK SMILES IDX 21 15 14 16 18 17 15 18 16 19 19 20 20 21 17 22
REMARK H PARENT 7 4 17 23
REMARK Flexibility Score: inf
ROOT
ATOM      1  C   UNL     1      95.678  95.020  79.122  1.00  0.00     0.107 C 
ENDROOT
BRANCH   1   2
ATOM      2  C   UNL     1      95.514  94.378  80.503  1.00  0.00     0.121 C 
BRANCH   2   3
ATOM      3  O   UNL     1      95.214  92.992  80.359  1.00  0.00    -0.393 OA
ATOM      4  H   UNL     1      95.194  92.789  79.407  1.00  0.00     0.210 HD
ENDBRANCH   2   3
BRANCH   2   5
ATOM      5  C   UNL     1      96.755  94.537  81.389  1.00  0.00     0.032 C 
BRANCH   5   6
ATOM      6  C   UNL     1      97.276  95.979  81.399  1.00  0.00     0.003 C 
BRANCH   6   7
ATOM      7  C   UNL     1      96.486  96.903  82.331  1.00  0.00    -0.000 C 
BRANCH   7   8
ATOM      8  C   UNL     1      97.191  97.184  83.656  1.00  0.00    -0.003 C 
ATOM      9  C   UNL     1      96.207  97.640  84.722  1.00  0.00     0.004 C 
ENDBRANCH   7   8
ENDBRANCH   6   7
ENDBRANCH   5   6
ENDBRANCH   2   5
ENDBRANCH   1   2
BRANCH   1  10
ATOM     10  C   UNL     1      95.173  94.138  77.992  1.00  0.00     0.135 C 
ATOM     11  O   UNL     1      95.932  93.370  77.401  1.00  0.00    -0.300 OA
BRANCH  10  12
ATOM     12  C   UNL     1      93.689  94.225  77.670  1.00  0.00     0.080 C 
BRANCH  12  13
ATOM     13  C   UNL     1      93.334  93.726  76.268  1.00  0.00     0.043 C 
BRANCH  13  14
ATOM     14  C   UNL     1      92.031  92.963  76.224  1.00  0.00    -0.044 A 
ATOM     15  C   UNL     1      91.840  91.964  75.270  1.00  0.00     0.054 A 
ATOM     16  C   UNL     1      91.020  93.258  77.138  1.00  0.00     0.008 A 
ATOM     17  C   UNL     1      90.637  91.259  75.230  1.00  0.00     0.160 A 
ATOM     18  C   UNL     1      89.816  92.553  77.099  1.00  0.00     0.050 A 
ATOM     19  C   UNL     1      89.625  91.554  76.145  1.00  0.00     0.157 A 
BRANCH  17  20
ATOM     20  O   UNL     1      90.461  90.285  74.294  1.00  0.00    -0.493 OA
ATOM     21  C   UNL     1      91.009  89.001  74.583  1.00  0.00     0.278 C 
ENDBRANCH  17  20
BRANCH  19  22
ATOM     22  O   UNL     1      88.446  90.872  76.116  1.00  0.00    -0.504 OA
ATOM     23  H   UNL     1      88.457  90.191  76.810  1.00  0.00     0.293 HD
ENDBRANCH  19  22
ENDBRANCH  13  14
ENDBRANCH  12  13
ENDBRANCH  10  12
ENDBRANCH   1  10
TORSDOF 12
ENDMDL
MODEL 9
REMARK VINA RESULT:    -5.413     13.724     16.094
REMARK INTER + INTRA:         -10.480
REMARK INTER:                  -8.203
REMARK INTRA:                  -2.277
REMARK UNBOUND:                -1.587
REMARK SMILES CCCCC[C@H](O)CC(=O)CCc1ccc(O)c(OC)c1
REMARK SMILES IDX 8 1 6 2 7 3 5 5 4 6 3 7 2 8 1 9 9 10 10 11 11 12 12 13 13 14
REMARK SMILES IDX 21 15 14 16 18 17 15 18 16 19 19 20 20 21 17 22
REMARK H PARENT 7 4 17 23
REMARK Flexibility Score: inf
ROOT
ATOM      1  C   UNL     1      82.002  85.869  87.388  1.00  0.00     0.107 C 
ENDROOT
BRANCH   1   2
ATOM      2  C   UNL     1      82.806  86.359  86.182  1.00  0.00     0.121 C 
BRANCH   2   3
ATOM      3  O   UNL     1      82.222  85.867  84.978  1.00  0.00    -0.393 OA
ATOM      4  H   UNL     1      82.763  86.184  84.234  1.00  0.00     0.210 HD
ENDBRANCH   2   3
BRANCH   2   5
ATOM      5  C   UNL     1      82.905  87.888  86.107  1.00  0.00     0.032 C 
BRANCH   5   6
ATOM      6  C   UNL     1      82.456  88.428  84.744  1.00  0.00     0.003 C 
BRANCH   6   7
ATOM      7  C   UNL     1      81.437  89.567  84.849  1.00  0.00    -0.000 C 
BRANCH   7   8
ATOM      8  C   UNL     1      79.986  89.102  84.733  1.00  0.00    -0.003 C 
ATOM      9  C   UNL     1      79.837  88.006  83.690  1.00  0.00     0.004 C 
ENDBRANCH   7   8
ENDBRANCH   6   7
ENDBRANCH   5   6
ENDBRANCH   2   5
ENDBRANCH   1   2
BRANCH   1  10
ATOM     10  C   UNL     1      80.567  86.370  87.390  1.00  0.00     0.135 C 
ATOM     11  O   UNL     1      79.794  86.080  86.477  1.00  0.00    -0.300 OA
BRANCH  10  12
ATOM     12  C   UNL     1      80.136  87.199  88.590  1.00  0.00     0.080 C 
BRANCH  12  13
ATOM     13  C   UNL     1      80.082  88.703  88.312  1.00  0.00     0.043 C 
BRANCH  13  14
ATOM     14  C   UNL     1      81.274  89.449  88.862  1.00  0.00    -0.044 A 
ATOM     15  C   UNL     1      81.570  90.731  88.398  1.00  0.00     0.054 A 
ATOM     16  C   UNL     1      82.080  88.856  89.835  1.00  0.00     0.008 A 
ATOM     17  C   UNL     1      82.671  91.420  88.908  1.00  0.00     0.160 A 
ATOM     18  C   UNL     1      83.181  89.545  90.344  1.00  0.00     0.050 A 
ATOM     19  C   UNL     1      83.476  90.827  89.880  1.00  0.00     0.157 A 
BRANCH  17  20
ATOM     20  O   UNL     1      82.950  92.671  88.447  1.00  0.00    -0.493 OA
ATOM     21  C   UNL     1      83.659  92.763  87.212  1.00  0.00     0.278 C 
ENDBRANCH  17  20
BRANCH  19  22
ATOM     22  O   UNL     1      84.554  91.489  90.385  1.00  0.00    -0.504 OA
ATOM     23  H   UNL     1      84.242  92.230  90.933  1.00  0.00     0.293 HD
ENDBRANCH  19  22
ENDBRANCH  13  14
ENDBRANCH  12  13
ENDBRANCH  10  12
ENDBRANCH   1  10
TORSDOF 12
ENDMDL
MODEL 10
REMARK VINA RESULT:    -5.382     12.573     14.966
REMARK INTER + INTRA:         -10.430
REMARK INTER:                  -8.991
REMARK INTRA:                  -1.439
REMARK UNBOUND:                -1.587
REMARK SMILES CCCCC[C@H](O)CC(=O)CCc1ccc(O)c(OC)c1
REMARK SMILES IDX 8 1 6 2 7 3 5 5 4 6 3 7 2 8 1 9 9 10 10 11 11 12 12 13 13 14
REMARK SMILES IDX 21 15 14 16 18 17 15 18 16 19 19 20 20 21 17 22
REMARK H PARENT 7 4 17 23
REMARK Flexibility Score: inf
ROOT
ATOM      1  C   UNL     1      83.567  90.484  84.335  1.00  0.00     0.107 C 
ENDROOT
BRANCH   1   2
ATOM      2  C   UNL     1      82.784  89.213  84.671  1.00  0.00     0.121 C 
BRANCH   2   3
ATOM      3  O   UNL     1      83.668  88.225  85.196  1.00  0.00    -0.393 OA
ATOM      4  H   UNL     1      84.477  88.232  84.655  1.00  0.00     0.210 HD
ENDBRANCH   2   3
BRANCH   2   5
ATOM      5  C   UNL     1      81.647  89.455  85.672  1.00  0.00     0.032 C 
BRANCH   5   6
ATOM      6  C   UNL     1      80.435  88.556  85.397  1.00  0.00     0.003 C 
BRANCH   6   7
ATOM      7  C   UNL     1      80.235  88.246  83.910  1.00  0.00    -0.000 C 
BRANCH   7   8
ATOM      8  C   UNL     1      80.312  86.756  83.579  1.00  0.00    -0.003 C 
ATOM      9  C   UNL     1      80.792  85.947  84.774  1.00  0.00     0.004 C 
ENDBRANCH   7   8
ENDBRANCH   6   7
ENDBRANCH   5   6
ENDBRANCH   2   5
ENDBRANCH   1   2
BRANCH   1  10
ATOM     10  C   UNL     1      84.959  90.505  84.944  1.00  0.00     0.135 C 
ATOM     11  O   UNL     1      85.910  89.975  84.369  1.00  0.00    -0.300 OA
BRANCH  10  12
ATOM     12  C   UNL     1      85.115  91.247  86.262  1.00  0.00     0.080 C 
BRANCH  12  13
ATOM     13  C   UNL     1      84.641  92.701  86.210  1.00  0.00     0.043 C 
BRANCH  13  14
ATOM     14  C   UNL     1      83.665  93.045  87.309  1.00  0.00    -0.044 A 
ATOM     15  C   UNL     1      82.980  92.031  87.977  1.00  0.00     0.054 A 
ATOM     16  C   UNL     1      83.447  94.379  87.655  1.00  0.00     0.008 A 
ATOM     17  C   UNL     1      82.079  92.350  88.993  1.00  0.00     0.160 A 
ATOM     18  C   UNL     1      82.546  94.699  88.671  1.00  0.00     0.050 A 
ATOM     19  C   UNL     1      81.861  93.684  89.339  1.00  0.00     0.157 A 
BRANCH  17  20
ATOM     20  O   UNL     1      81.415  91.350  89.638  1.00  0.00    -0.493 OA
ATOM     21  C   UNL     1      81.794  90.012  89.323  1.00  0.00     0.278 C 
ENDBRANCH  17  20
BRANCH  19  22
ATOM     22  O   UNL     1      80.984  94.008  90.329  1.00  0.00    -0.504 OA
ATOM     23  H   UNL     1      80.965  94.975  90.431  1.00  0.00     0.293 HD
ENDBRANCH  19  22
ENDBRANCH  13  14
ENDBRANCH  12  13
ENDBRANCH  10  12
ENDBRANCH   1  10
TORSDOF 12
ENDMDL
