MODEL 1
REMARK VINA RESULT:    -6.177      0.000      0.000
REMARK INTER + INTRA:         -10.702
REMARK INTER:                  -9.969
REMARK INTRA:                  -0.733
REMARK UNBOUND:                -0.733
REMARK SMILES COc1cc(CNC(=O)CCCCCCC(C)C)ccc1O
REMARK SMILES IDX 11 1 10 2 8 3 7 4 9 6 6 7 5 8 3 9 21 10 4 11 20 12 19 13
REMARK SMILES IDX 2 14 1 15 22 16 12 18 13 19 14 20 15 21 16 22 17 23 18 24
REMARK H PARENT 7 5 22 17
REMARK Flexibility Score: inf
ROOT
ATOM      1  C   UNL     1      94.259  98.281  74.024  1.00  0.00     0.010 C 
ENDROOT
BRANCH   1   2
ATOM      2  C   UNL     1      95.146  98.311  72.748  1.00  0.00     0.100 C 
BRANCH   2   3
ATOM      3  C   UNL     1      94.529  99.050  71.624  1.00  0.00     0.220 C 
ATOM      4  N   UNL     1      93.498  99.914  71.850  1.00  0.00    -0.352 N 
ATOM      5  H   UNL     1      93.188  99.957  72.810  1.00  0.00     0.163 HD
ATOM      6  O   UNL     1      94.990  98.881  70.468  1.00  0.00    -0.275 OA
BRANCH   4   7
ATOM      7  C   UNL     1      92.863 100.722  70.854  1.00  0.00     0.151 C 
BRANCH   7   8
ATOM      8  C   UNL     1      91.668 100.075  70.246  1.00  0.00    -0.025 A 
ATOM      9  C   UNL     1      90.077  99.863  68.383  1.00  0.00     0.160 A 
ATOM     10  C   UNL     1      89.417  98.816  69.063  1.00  0.00     0.157 A 
ATOM     11  C   UNL     1      91.184 100.496  68.987  1.00  0.00     0.056 A 
ATOM     12  C   UNL     1      89.865  98.414  70.334  1.00  0.00     0.050 A 
ATOM     13  C   UNL     1      90.989  99.031  70.918  1.00  0.00     0.009 A 
BRANCH   9  14
ATOM     14  O   UNL     1      89.625 100.288  67.163  1.00  0.00    -0.493 OA
ATOM     15  C   UNL     1      90.602 100.177  66.112  1.00  0.00     0.278 C 
ENDBRANCH   9  14
BRANCH  10  16
ATOM     16  O   UNL     1      88.347  98.189  68.506  1.00  0.00    -0.504 OA
ATOM     17  H   UNL     1      88.097  98.643  67.697  1.00  0.00     0.293 HD
ENDBRANCH  10  16
ENDBRANCH   7   8
ENDBRANCH   4   7
ENDBRANCH   2   3
ENDBRANCH   1   2
BRANCH   1  18
ATOM     18  C   UNL     1      93.678  96.866  74.301  1.00  0.00     0.001 C 
BRANCH  18  19
ATOM     19  C   UNL     1      94.736  95.841  74.799  1.00  0.00     0.000 C 
BRANCH  19  20
ATOM     20  C   UNL     1      94.066  94.607  75.467  1.00  0.00     0.000 C 
BRANCH  20  21
ATOM     21  C   UNL     1      92.649  94.884  76.040  1.00  0.00     0.003 C 
BRANCH  21  22
ATOM     22  C   UNL     1      92.039  93.703  76.865  1.00  0.00    -0.017 C 
ATOM     23  C   UNL     1      90.551  93.993  77.211  1.00  0.00     0.007 C 
ATOM     24  C   UNL     1      92.841  93.361  78.154  1.00  0.00     0.007 C 
ENDBRANCH  21  22
ENDBRANCH  20  21
ENDBRANCH  19  20
ENDBRANCH  18  19
ENDBRANCH   1  18
TORSDOF 11
ENDMDL
MODEL 2
REMARK VINA RESULT:    -6.135      2.778      4.969
REMARK INTER + INTRA:         -10.634
REMARK INTER:                  -9.908
REMARK INTRA:                  -0.726
REMARK UNBOUND:                -0.733
REMARK SMILES COc1cc(CNC(=O)CCCCCCC(C)C)ccc1O
REMARK SMILES IDX 11 1 10 2 8 3 7 4 9 6 6 7 5 8 3 9 21 10 4 11 20 12 19 13
REMARK SMILES IDX 2 14 1 15 22 16 12 18 13 19 14 20 15 21 16 22 17 23 18 24
REMARK H PARENT 7 5 22 17
REMARK Flexibility Score: inf
ROOT
ATOM      1  C   UNL     1      91.433  99.768  70.814  1.00  0.00     0.010 C 
ENDROOT
BRANCH   1   2
ATOM      2  C   UNL     1      90.303  98.723  70.599  1.00  0.00     0.100 C 
BRANCH   2   3
ATOM      3  C   UNL     1      89.776  98.709  69.216  1.00  0.00     0.220 C 
ATOM      4  N   UNL     1      90.304  99.536  68.268  1.00  0.00    -0.352 N 
ATOM      5  H   UNL     1      91.023 100.159  68.606  1.00  0.00     0.163 HD
ATOM      6  O   UNL     1      88.855  97.905  68.932  1.00  0.00    -0.275 OA
BRANCH   4   7
ATOM      7  C   UNL     1      89.915  99.569  66.890  1.00  0.00     0.151 C 
BRANCH   7   8
ATOM      8  C   UNL     1      88.776 100.488  66.624  1.00  0.00    -0.025 A 
ATOM      9  C   UNL     1      87.920 102.759  66.225  1.00  0.00     0.160 A 
ATOM     10  C   UNL     1      86.615 102.243  66.071  1.00  0.00     0.157 A 
ATOM     11  C   UNL     1      88.985 101.882  66.518  1.00  0.00     0.056 A 
ATOM     12  C   UNL     1      86.387 100.862  66.213  1.00  0.00     0.050 A 
ATOM     13  C   UNL     1      87.460  99.989  66.476  1.00  0.00     0.009 A 
BRANCH   9  14
ATOM     14  O   UNL     1      88.147 104.105  66.128  1.00  0.00    -0.493 OA
ATOM     15  C   UNL     1      89.540 104.464  66.169  1.00  0.00     0.278 C 
ENDBRANCH   9  14
BRANCH  10  16
ATOM     16  O   UNL     1      85.570 103.065  65.790  1.00  0.00    -0.504 OA
ATOM     17  H   UNL     1      84.884 102.947  66.452  1.00  0.00     0.293 HD
ENDBRANCH  10  16
ENDBRANCH   7   8
ENDBRANCH   4   7
ENDBRANCH   2   3
ENDBRANCH   1   2
BRANCH   1  18
ATOM     18  C   UNL     1      92.350  99.402  72.016  1.00  0.00     0.001 C 
BRANCH  18  19
ATOM     19  C   UNL     1      93.858  99.315  71.649  1.00  0.00     0.000 C 
BRANCH  19  20
ATOM     20  C   UNL     1      94.691  98.684  72.800  1.00  0.00     0.000 C 
BRANCH  20  21
ATOM     21  C   UNL     1      93.838  98.134  73.976  1.00  0.00     0.003 C 
BRANCH  21  22
ATOM     22  C   UNL     1      94.407  96.839  74.643  1.00  0.00    -0.017 C 
ATOM     23  C   UNL     1      95.233  96.016  73.615  1.00  0.00     0.007 C 
ATOM     24  C   UNL     1      93.318  95.947  75.307  1.00  0.00     0.007 C 
ENDBRANCH  21  22
ENDBRANCH  20  21
ENDBRANCH  19  20
ENDBRANCH  18  19
ENDBRANCH   1  18
TORSDOF 11
ENDMDL
MODEL 3
REMARK VINA RESULT:    -6.098     18.403     21.422
REMARK INTER + INTRA:         -10.575
REMARK INTER:                  -9.963
REMARK INTRA:                  -0.613
REMARK UNBOUND:                -0.733
REMARK SMILES COc1cc(CNC(=O)CCCCCCC(C)C)ccc1O
REMARK SMILES IDX 11 1 10 2 8 3 7 4 9 6 6 7 5 8 3 9 21 10 4 11 20 12 19 13
REMARK SMILES IDX 2 14 1 15 22 16 12 18 13 19 14 20 15 21 16 22 17 23 18 24
REMARK H PARENT 7 5 22 17
REMARK Flexibility Score: inf
ROOT
ATOM      1  C   UNL     1      95.986  80.505  83.886  1.00  0.00     0.010 C 
ENDROOT
BRANCH   1   2
ATOM      2  C   UNL     1      95.295  81.882  84.086  1.00  0.00     0.100 C 
BRANCH   2   3
ATOM      3  C   UNL     1      94.193  81.845  85.074  1.00  0.00     0.220 C 
ATOM      4  N   UNL     1      92.902  82.027  84.674  1.00  0.00    -0.352 N 
ATOM      5  H   UNL     1      92.790  82.226  83.691  1.00  0.00     0.163 HD
ATOM      6  O   UNL     1      94.472  81.619  86.277  1.00  0.00    -0.275 OA
BRANCH   4   7
ATOM      7  C   UNL     1      91.754  81.956  85.527  1.00  0.00     0.151 C 
BRANCH   7   8
ATOM      8  C   UNL     1      90.772  80.920  85.104  1.00  0.00    -0.025 A 
ATOM      9  C   UNL     1      88.450  80.243  84.660  1.00  0.00     0.160 A 
ATOM     10  C   UNL     1      88.897  78.966  84.256  1.00  0.00     0.157 A 
ATOM     11  C   UNL     1      89.387  81.202  85.098  1.00  0.00     0.056 A 
ATOM     12  C   UNL     1      90.270  78.661  84.294  1.00  0.00     0.050 A 
ATOM     13  C   UNL     1      91.203  79.633  84.704  1.00  0.00     0.009 A 
BRANCH   9  14
ATOM     14  O   UNL     1      87.114  80.537  84.664  1.00  0.00    -0.493 OA
ATOM     15  C   UNL     1      86.778  81.722  83.920  1.00  0.00     0.278 C 
ENDBRANCH   9  14
BRANCH  10  16
ATOM     16  O   UNL     1      88.017  78.022  83.831  1.00  0.00    -0.504 OA
ATOM     17  H   UNL     1      87.477  78.384  83.124  1.00  0.00     0.293 HD
ENDBRANCH  10  16
ENDBRANCH   7   8
ENDBRANCH   4   7
ENDBRANCH   2   3
ENDBRANCH   1   2
BRANCH   1  18
ATOM     18  C   UNL     1      96.305  80.220  82.391  1.00  0.00     0.001 C 
BRANCH  18  19
ATOM     19  C   UNL     1      97.232  81.281  81.734  1.00  0.00     0.000 C 
BRANCH  19  20
ATOM     20  C   UNL     1      96.719  81.696  80.326  1.00  0.00     0.000 C 
BRANCH  20  21
ATOM     21  C   UNL     1      97.839  81.845  79.259  1.00  0.00     0.003 C 
BRANCH  21  22
ATOM     22  C   UNL     1      97.325  81.915  77.784  1.00  0.00    -0.017 C 
ATOM     23  C   UNL     1      95.919  82.576  77.728  1.00  0.00     0.007 C 
ATOM     24  C   UNL     1      97.308  80.536  77.061  1.00  0.00     0.007 C 
ENDBRANCH  21  22
ENDBRANCH  20  21
ENDBRANCH  19  20
ENDBRANCH  18  19
ENDBRANCH   1  18
TORSDOF 11
ENDMDL
MODEL 4
REMARK VINA RESULT:    -5.912     15.963     18.025
REMARK INTER + INTRA:         -10.274
REMARK INTER:                  -9.551
REMARK INTRA:                  -0.722
REMARK UNBOUND:                -0.733
REMARK SMILES COc1cc(CNC(=O)CCCCCCC(C)C)ccc1O
REMARK SMILES IDX 11 1 10 2 8 3 7 4 9 6 6 7 5 8 3 9 21 10 4 11 20 12 19 13
REMARK SMILES IDX 2 14 1 15 22 16 12 18 13 19 14 20 15 21 16 22 17 23 18 24
REMARK H PARENT 7 5 22 17
REMARK Flexibility Score: inf
ROOT
ATOM      1  C   UNL     1      97.026  81.733  77.887  1.00  0.00     0.010 C 
ENDROOT
BRANCH   1   2
ATOM      2  C   UNL     1      95.869  82.585  77.296  1.00  0.00     0.100 C 
BRANCH   2   3
ATOM      3  C   UNL     1      96.172  83.133  75.955  1.00  0.00     0.220 C 
ATOM      4  N   UNL     1      97.020  82.471  75.116  1.00  0.00    -0.352 N 
ATOM      5  H   UNL     1      97.433  81.637  75.506  1.00  0.00     0.163 HD
ATOM      6  O   UNL     1      95.614  84.200  75.600  1.00  0.00    -0.275 OA
BRANCH   4   7
ATOM      7  C   UNL     1      97.341  82.873  73.780  1.00  0.00     0.151 C 
BRANCH   7   8
ATOM      8  C   UNL     1      98.803  83.047  73.554  1.00  0.00    -0.025 A 
ATOM      9  C   UNL     1     101.112  82.254  73.849  1.00  0.00     0.160 A 
ATOM     10  C   UNL     1     101.586  83.348  73.092  1.00  0.00     0.157 A 
ATOM     11  C   UNL     1      99.728  82.123  74.090  1.00  0.00     0.056 A 
ATOM     12  C   UNL     1     100.678  84.296  72.587  1.00  0.00     0.050 A 
ATOM     13  C   UNL     1      99.296  84.142  72.806  1.00  0.00     0.009 A 
BRANCH   9  14
ATOM     14  O   UNL     1     101.990  81.348  74.379  1.00  0.00    -0.493 OA
ATOM     15  C   UNL     1     101.894  80.037  73.793  1.00  0.00     0.278 C 
ENDBRANCH   9  14
BRANCH  10  16
ATOM     16  O   UNL     1     102.914  83.501  72.846  1.00  0.00    -0.504 OA
ATOM     17  H   UNL     1     103.369  83.708  73.666  1.00  0.00     0.293 HD
ENDBRANCH  10  16
ENDBRANCH   7   8
ENDBRANCH   4   7
ENDBRANCH   2   3
ENDBRANCH   1   2
BRANCH   1  18
ATOM     18  C   UNL     1      97.340  82.112  79.362  1.00  0.00     0.001 C 
BRANCH  18  19
ATOM     19  C   UNL     1      97.831  80.915  80.225  1.00  0.00     0.000 C 
BRANCH  19  20
ATOM     20  C   UNL     1      97.281  80.994  81.677  1.00  0.00     0.000 C 
BRANCH  20  21
ATOM     21  C   UNL     1      96.739  82.393  82.078  1.00  0.00     0.003 C 
BRANCH  21  22
ATOM     22  C   UNL     1      95.544  82.363  83.087  1.00  0.00    -0.017 C 
ATOM     23  C   UNL     1      95.744  83.432  84.198  1.00  0.00     0.007 C 
ATOM     24  C   UNL     1      95.294  80.962  83.718  1.00  0.00     0.007 C 
ENDBRANCH  21  22
ENDBRANCH  20  21
ENDBRANCH  19  20
ENDBRANCH  18  19
ENDBRANCH   1  18
TORSDOF 11
ENDMDL
MODEL 5
REMARK VINA RESULT:    -5.876     20.961     23.379
REMARK INTER + INTRA:         -10.215
REMARK INTER:                  -9.228
REMARK INTRA:                  -0.987
REMARK UNBOUND:                -0.733
REMARK SMILES COc1cc(CNC(=O)CCCCCCC(C)C)ccc1O
REMARK SMILES IDX 11 1 10 2 8 3 7 4 9 6 6 7 5 8 3 9 21 10 4 11 20 12 19 13
REMARK SMILES IDX 2 14 1 15 22 16 12 18 13 19 14 20 15 21 16 22 17 23 18 24
REMARK H PARENT 7 5 22 17
REMARK Flexibility Score: inf
ROOT
ATOM      1  C   UNL     1      74.587  82.844  66.085  1.00  0.00     0.010 C 
ENDROOT
BRANCH   1   2
ATOM      2  C   UNL     1      75.985  82.999  65.424  1.00  0.00     0.100 C 
BRANCH   2   3
ATOM      3  C   UNL     1      76.894  83.889  66.181  1.00  0.00     0.220 C 
ATOM      4  N   UNL     1      76.430  85.058  66.711  1.00  0.00    -0.352 N 
ATOM      5  H   UNL     1      75.463  85.261  66.503  1.00  0.00     0.163 HD
ATOM      6  O   UNL     1      78.087  83.534  66.342  1.00  0.00    -0.275 OA
BRANCH   4   7
ATOM      7  C   UNL     1      77.198  85.966  67.507  1.00  0.00     0.151 C 
BRANCH   7   8
ATOM      8  C   UNL     1      76.443  87.188  67.898  1.00  0.00    -0.025 A 
ATOM      9  C   UNL     1      74.411  88.236  68.804  1.00  0.00     0.160 A 
ATOM     10  C   UNL     1      75.011  89.508  68.686  1.00  0.00     0.157 A 
ATOM     11  C   UNL     1      75.122  87.089  68.393  1.00  0.00     0.056 A 
ATOM     12  C   UNL     1      76.310  89.623  68.158  1.00  0.00     0.050 A 
ATOM     13  C   UNL     1      77.026  88.471  67.776  1.00  0.00     0.009 A 
BRANCH   9  14
ATOM     14  O   UNL     1      73.133  88.117  69.279  1.00  0.00    -0.493 OA
ATOM     15  C   UNL     1      72.154  87.871  68.254  1.00  0.00     0.278 C 
ENDBRANCH   9  14
BRANCH  10  16
ATOM     16  O   UNL     1      74.349  90.630  69.073  1.00  0.00    -0.504 OA
ATOM     17  H   UNL     1      74.220  90.612  70.024  1.00  0.00     0.293 HD
ENDBRANCH  10  16
ENDBRANCH   7   8
ENDBRANCH   4   7
ENDBRANCH   2   3
ENDBRANCH   1   2
BRANCH   1  18
ATOM     18  C   UNL     1      73.838  81.577  65.582  1.00  0.00     0.001 C 
BRANCH  18  19
ATOM     19  C   UNL     1      73.874  81.399  64.038  1.00  0.00     0.000 C 
BRANCH  19  20
ATOM     20  C   UNL     1      72.476  81.018  63.474  1.00  0.00     0.000 C 
BRANCH  20  21
ATOM     21  C   UNL     1      71.369  80.877  64.555  1.00  0.00     0.003 C 
BRANCH  21  22
ATOM     22  C   UNL     1      70.299  82.017  64.543  1.00  0.00    -0.017 C 
ATOM     23  C   UNL     1      70.544  82.980  63.348  1.00  0.00     0.007 C 
ATOM     24  C   UNL     1      70.221  82.815  65.878  1.00  0.00     0.007 C 
ENDBRANCH  21  22
ENDBRANCH  20  21
ENDBRANCH  19  20
ENDBRANCH  18  19
ENDBRANCH   1  18
TORSDOF 11
ENDMDL
MODEL 6
REMARK VINA RESULT:    -5.844      8.298     12.055
REMARK INTER + INTRA:         -10.165
REMARK INTER:                  -9.374
REMARK INTRA:                  -0.791
REMARK UNBOUND:                -0.733
REMARK SMILES COc1cc(CNC(=O)CCCCCCC(C)C)ccc1O
REMARK SMILES IDX 11 1 10 2 8 3 7 4 9 6 6 7 5 8 3 9 21 10 4 11 20 12 19 13
REMARK SMILES IDX 2 14 1 15 22 16 12 18 13 19 14 20 15 21 16 22 17 23 18 24
REMARK H PARENT 7 5 22 17
REMARK Flexibility Score: inf
ROOT
ATOM      1  C   UNL     1      96.685  94.428  79.045  1.00  0.00     0.010 C 
ENDROOT
BRANCH   1   2
ATOM      2  C   UNL     1      95.804  95.577  79.609  1.00  0.00     0.100 C 
BRANCH   2   3
ATOM      3  C   UNL     1      96.140  95.941  81.003  1.00  0.00     0.220 C 
ATOM      4  N   UNL     1      97.023  96.950  81.258  1.00  0.00    -0.352 N 
ATOM      5  H   UNL     1      97.434  97.367  80.437  1.00  0.00     0.163 HD
ATOM      6  O   UNL     1      95.579  95.320  81.939  1.00  0.00    -0.275 OA
BRANCH   4   7
ATOM      7  C   UNL     1      97.379  97.427  82.560  1.00  0.00     0.151 C 
BRANCH   7   8
ATOM      8  C   UNL     1      96.667  98.678  82.942  1.00  0.00    -0.025 A 
ATOM      9  C   UNL     1      95.985 100.300  84.660  1.00  0.00     0.160 A 
ATOM     10  C   UNL     1      95.351 101.084  83.671  1.00  0.00     0.157 A 
ATOM     11  C   UNL     1      96.620  99.095  84.291  1.00  0.00     0.056 A 
ATOM     12  C   UNL     1      95.358 100.659  82.330  1.00  0.00     0.050 A 
ATOM     13  C   UNL     1      96.020  99.470  81.965  1.00  0.00     0.009 A 
BRANCH   9  14
ATOM     14  O   UNL     1      95.950 100.684  85.972  1.00  0.00    -0.493 OA
ATOM     15  C   UNL     1      95.028  99.925  86.775  1.00  0.00     0.278 C 
ENDBRANCH   9  14
BRANCH  10  16
ATOM     16  O   UNL     1      94.730 102.248  83.997  1.00  0.00    -0.504 OA
ATOM     17  H   UNL     1      93.840 102.246  83.638  1.00  0.00     0.293 HD
ENDBRANCH  10  16
ENDBRANCH   7   8
ENDBRANCH   4   7
ENDBRANCH   2   3
ENDBRANCH   1   2
BRANCH   1  18
ATOM     18  C   UNL     1      95.938  93.064  79.039  1.00  0.00     0.001 C 
BRANCH  18  19
ATOM     19  C   UNL     1      94.401  93.191  79.233  1.00  0.00     0.000 C 
BRANCH  19  20
ATOM     20  C   UNL     1      93.658  93.288  77.871  1.00  0.00     0.000 C 
BRANCH  20  21
ATOM     21  C   UNL     1      92.152  93.654  77.991  1.00  0.00     0.003 C 
BRANCH  21  22
ATOM     22  C   UNL     1      91.621  94.598  76.865  1.00  0.00    -0.017 C 
ATOM     23  C   UNL     1      92.321  95.984  76.942  1.00  0.00     0.007 C 
ATOM     24  C   UNL     1      90.073  94.769  76.870  1.00  0.00     0.007 C 
ENDBRANCH  21  22
ENDBRANCH  20  21
ENDBRANCH  19  20
ENDBRANCH  18  19
ENDBRANCH   1  18
TORSDOF 11
ENDMDL
MODEL 7
REMARK VINA RESULT:    -5.787      1.466      2.278
REMARK INTER + INTRA:         -10.072
REMARK INTER:                  -9.592
REMARK INTRA:                  -0.480
REMARK UNBOUND:                -0.733
REMARK SMILES COc1cc(CNC(=O)CCCCCCC(C)C)ccc1O
REMARK SMILES IDX 11 1 10 2 8 3 7 4 9 6 6 7 5 8 3 9 21 10 4 11 20 12 19 13
REMARK SMILES IDX 2 14 1 15 22 16 12 18 13 19 14 20 15 21 16 22 17 23 18 24
REMARK H PARENT 7 5 22 17
REMARK Flexibility Score: inf
ROOT
ATOM      1  C   UNL     1      95.741  96.552  74.337  1.00  0.00     0.010 C 
ENDROOT
BRANCH   1   2
ATOM      2  C   UNL     1      95.333  97.199  72.985  1.00  0.00     0.100 C 
BRANCH   2   3
ATOM      3  C   UNL     1      94.668  98.512  73.142  1.00  0.00     0.220 C 
ATOM      4  N   UNL     1      93.726  98.919  72.242  1.00  0.00    -0.352 N 
ATOM      5  H   UNL     1      93.575  98.283  71.473  1.00  0.00     0.163 HD
ATOM      6  O   UNL     1      94.970  99.225  74.129  1.00  0.00    -0.275 OA
BRANCH   4   7
ATOM      7  C   UNL     1      92.978 100.137  72.324  1.00  0.00     0.151 C 
BRANCH   7   8
ATOM      8  C   UNL     1      91.940 100.259  71.264  1.00  0.00    -0.025 A 
ATOM      9  C   UNL     1      90.128  99.263  69.932  1.00  0.00     0.160 A 
ATOM     10  C   UNL     1      89.929 100.497  69.276  1.00  0.00     0.157 A 
ATOM     11  C   UNL     1      91.143  99.148  70.906  1.00  0.00     0.056 A 
ATOM     12  C   UNL     1      90.742 101.599  69.595  1.00  0.00     0.050 A 
ATOM     13  C   UNL     1      91.733 101.486  70.590  1.00  0.00     0.009 A 
BRANCH   9  14
ATOM     14  O   UNL     1      89.369  98.173  69.600  1.00  0.00    -0.493 OA
ATOM     15  C   UNL     1      89.970  97.331  68.600  1.00  0.00     0.278 C 
ENDBRANCH   9  14
BRANCH  10  16
ATOM     16  O   UNL     1      88.960 100.635  68.332  1.00  0.00    -0.504 OA
ATOM     17  H   UNL     1      89.282 101.199  67.625  1.00  0.00     0.293 HD
ENDBRANCH  10  16
ENDBRANCH   7   8
ENDBRANCH   4   7
ENDBRANCH   2   3
ENDBRANCH   1   2
BRANCH   1  18
ATOM     18  C   UNL     1      94.652  95.579  74.874  1.00  0.00     0.001 C 
BRANCH  18  19
ATOM     19  C   UNL     1      93.277  96.257  75.127  1.00  0.00     0.000 C 
BRANCH  19  20
ATOM     20  C   UNL     1      92.666  95.820  76.489  1.00  0.00     0.000 C 
BRANCH  20  21
ATOM     21  C   UNL     1      91.598  94.697  76.377  1.00  0.00     0.003 C 
BRANCH  21  22
ATOM     22  C   UNL     1      91.374  93.879  77.691  1.00  0.00    -0.017 C 
ATOM     23  C   UNL     1      92.723  93.310  78.213  1.00  0.00     0.007 C 
ATOM     24  C   UNL     1      90.322  92.741  77.547  1.00  0.00     0.007 C 
ENDBRANCH  21  22
ENDBRANCH  20  21
ENDBRANCH  19  20
ENDBRANCH  18  19
ENDBRANCH   1  18
TORSDOF 11
ENDMDL
MODEL 8
REMARK VINA RESULT:    -5.646      6.546     10.068
REMARK INTER + INTRA:          -9.845
REMARK INTER:                  -8.601
REMARK INTRA:                  -1.244
REMARK UNBOUND:                -0.733
REMARK SMILES COc1cc(CNC(=O)CCCCCCC(C)C)ccc1O
REMARK SMILES IDX 11 1 10 2 8 3 7 4 9 6 6 7 5 8 3 9 21 10 4 11 20 12 19 13
REMARK SMILES IDX 2 14 1 15 22 16 12 18 13 19 14 20 15 21 16 22 17 23 18 24
REMARK H PARENT 7 5 22 17
REMARK Flexibility Score: inf
ROOT
ATOM      1  C   UNL     1      96.280  97.501  75.158  1.00  0.00     0.010 C 
ENDROOT
BRANCH   1   2
ATOM      2  C   UNL     1      97.735  97.133  75.558  1.00  0.00     0.100 C 
BRANCH   2   3
ATOM      3  C   UNL     1      97.960  97.144  77.021  1.00  0.00     0.220 C 
ATOM      4  N   UNL     1      98.802  96.237  77.596  1.00  0.00    -0.352 N 
ATOM      5  H   UNL     1      99.198  95.565  76.955  1.00  0.00     0.163 HD
ATOM      6  O   UNL     1      97.380  98.016  77.713  1.00  0.00    -0.275 OA
BRANCH   4   7
ATOM      7  C   UNL     1      99.139  96.188  78.986  1.00  0.00     0.151 C 
BRANCH   7   8
ATOM      8  C   UNL     1      98.231  95.316  79.780  1.00  0.00    -0.025 A 
ATOM      9  C   UNL     1      96.542  93.531  79.880  1.00  0.00     0.160 A 
ATOM     10  C   UNL     1      96.528  93.620  81.289  1.00  0.00     0.157 A 
ATOM     11  C   UNL     1      97.378  94.391  79.137  1.00  0.00     0.056 A 
ATOM     12  C   UNL     1      97.343  94.565  81.939  1.00  0.00     0.050 A 
ATOM     13  C   UNL     1      98.197  95.400  81.192  1.00  0.00     0.009 A 
BRANCH   9  14
ATOM     14  O   UNL     1      95.724  92.643  79.236  1.00  0.00    -0.493 OA
ATOM     15  C   UNL     1      95.936  92.586  77.814  1.00  0.00     0.278 C 
ENDBRANCH   9  14
BRANCH  10  16
ATOM     16  O   UNL     1      95.732  92.806  82.031  1.00  0.00    -0.504 OA
ATOM     17  H   UNL     1      95.274  93.326  82.696  1.00  0.00     0.293 HD
ENDBRANCH  10  16
ENDBRANCH   7   8
ENDBRANCH   4   7
ENDBRANCH   2   3
ENDBRANCH   1   2
BRANCH   1  18
ATOM     18  C   UNL     1      95.759  96.633  73.977  1.00  0.00     0.001 C 
BRANCH  18  19
ATOM     19  C   UNL     1      94.360  96.004  74.232  1.00  0.00     0.000 C 
BRANCH  19  20
ATOM     20  C   UNL     1      94.453  94.754  75.153  1.00  0.00     0.000 C 
BRANCH  20  21
ATOM     21  C   UNL     1      93.098  94.319  75.775  1.00  0.00     0.003 C 
BRANCH  21  22
ATOM     22  C   UNL     1      92.766  94.992  77.147  1.00  0.00    -0.017 C 
ATOM     23  C   UNL     1      91.773  96.172  76.947  1.00  0.00     0.007 C 
ATOM     24  C   UNL     1      94.024  95.467  77.932  1.00  0.00     0.007 C 
ENDBRANCH  21  22
ENDBRANCH  20  21
ENDBRANCH  19  20
ENDBRANCH  18  19
ENDBRANCH   1  18
TORSDOF 11
ENDMDL
MODEL 9
REMARK VINA RESULT:    -5.521      4.676      6.777
REMARK INTER + INTRA:          -9.642
REMARK INTER:                  -8.899
REMARK INTRA:                  -0.744
REMARK UNBOUND:                -0.733
REMARK SMILES COc1cc(CNC(=O)CCCCCCC(C)C)ccc1O
REMARK SMILES IDX 11 1 10 2 8 3 7 4 9 6 6 7 5 8 3 9 21 10 4 11 20 12 19 13
REMARK SMILES IDX 2 14 1 15 22 16 12 18 13 19 14 20 15 21 16 22 17 23 18 24
REMARK H PARENT 7 5 22 17
REMARK Flexibility Score: inf
ROOT
ATOM      1  C   UNL     1      94.524  96.692  74.820  1.00  0.00     0.010 C 
ENDROOT
BRANCH   1   2
ATOM      2  C   UNL     1      95.702  96.289  73.891  1.00  0.00     0.100 C 
BRANCH   2   3
ATOM      3  C   UNL     1      95.635  96.921  72.554  1.00  0.00     0.220 C 
ATOM      4  N   UNL     1      95.979  96.213  71.440  1.00  0.00    -0.352 N 
ATOM      5  H   UNL     1      96.311  95.277  71.621  1.00  0.00     0.163 HD
ATOM      6  O   UNL     1      95.233  98.107  72.469  1.00  0.00    -0.275 OA
BRANCH   4   7
ATOM      7  C   UNL     1      95.899  96.699  70.095  1.00  0.00     0.151 C 
BRANCH   7   8
ATOM      8  C   UNL     1      97.226  97.042  69.515  1.00  0.00    -0.025 A 
ATOM      9  C   UNL     1      99.627  96.569  69.263  1.00  0.00     0.160 A 
ATOM     10  C   UNL     1      99.751  97.663  68.379  1.00  0.00     0.157 A 
ATOM     11  C   UNL     1      98.371  96.279  69.838  1.00  0.00     0.056 A 
ATOM     12  C   UNL     1      98.627  98.453  68.080  1.00  0.00     0.050 A 
ATOM     13  C   UNL     1      97.371  98.140  68.635  1.00  0.00     0.009 A 
BRANCH   9  14
ATOM     14  O   UNL     1     100.722  95.818  69.592  1.00  0.00    -0.493 OA
ATOM     15  C   UNL     1     101.292  96.152  70.870  1.00  0.00     0.278 C 
ENDBRANCH   9  14
BRANCH  10  16
ATOM     16  O   UNL     1     100.948  97.966  67.811  1.00  0.00    -0.504 OA
ATOM     17  H   UNL     1     101.283  98.783  68.190  1.00  0.00     0.293 HD
ENDBRANCH  10  16
ENDBRANCH   7   8
ENDBRANCH   4   7
ENDBRANCH   2   3
ENDBRANCH   1   2
BRANCH   1  18
ATOM     18  C   UNL     1      93.612  95.482  75.170  1.00  0.00     0.001 C 
BRANCH  18  19
ATOM     19  C   UNL     1      92.679  95.732  76.389  1.00  0.00     0.000 C 
BRANCH  19  20
ATOM     20  C   UNL     1      93.073  94.845  77.603  1.00  0.00     0.000 C 
BRANCH  20  21
ATOM     21  C   UNL     1      92.494  93.404  77.553  1.00  0.00     0.003 C 
BRANCH  21  22
ATOM     22  C   UNL     1      91.192  93.255  76.700  1.00  0.00    -0.017 C 
ATOM     23  C   UNL     1      89.942  93.194  77.622  1.00  0.00     0.007 C 
ATOM     24  C   UNL     1      91.214  92.037  75.731  1.00  0.00     0.007 C 
ENDBRANCH  21  22
ENDBRANCH  20  21
ENDBRANCH  19  20
ENDBRANCH  18  19
ENDBRANCH   1  18
TORSDOF 11
ENDMDL
MODEL 10
REMARK VINA RESULT:    -5.484     16.120     19.827
REMARK INTER + INTRA:          -9.583
REMARK INTER:                  -8.090
REMARK INTRA:                  -1.493
REMARK UNBOUND:                -0.733
REMARK SMILES COc1cc(CNC(=O)CCCCCCC(C)C)ccc1O
REMARK SMILES IDX 11 1 10 2 8 3 7 4 9 6 6 7 5 8 3 9 21 10 4 11 20 12 19 13
REMARK SMILES IDX 2 14 1 15 22 16 12 18 13 19 14 20 15 21 16 22 17 23 18 24
REMARK H PARENT 7 5 22 17
REMARK Flexibility Score: inf
ROOT
ATOM      1  C   UNL     1      97.627  81.679  74.074  1.00  0.00     0.010 C 
ENDROOT
BRANCH   1   2
ATOM      2  C   UNL     1      96.870  83.033  74.169  1.00  0.00     0.100 C 
BRANCH   2   3
ATOM      3  C   UNL     1      96.318  83.301  75.516  1.00  0.00     0.220 C 
ATOM      4  N   UNL     1      96.577  82.448  76.549  1.00  0.00    -0.352 N 
ATOM      5  H   UNL     1      97.119  81.634  76.298  1.00  0.00     0.163 HD
ATOM      6  O   UNL     1      95.630  84.337  75.690  1.00  0.00    -0.275 OA
BRANCH   4   7
ATOM      7  C   UNL     1      96.147  82.634  77.902  1.00  0.00     0.151 C 
BRANCH   7   8
ATOM      8  C   UNL     1      96.997  81.916  78.892  1.00  0.00    -0.025 A 
ATOM      9  C   UNL     1      97.545  81.367  81.225  1.00  0.00     0.160 A 
ATOM     10  C   UNL     1      98.584  80.518  80.783  1.00  0.00     0.157 A 
ATOM     11  C   UNL     1      96.774  82.073  80.279  1.00  0.00     0.056 A 
ATOM     12  C   UNL     1      98.841  80.384  79.407  1.00  0.00     0.050 A 
ATOM     13  C   UNL     1      98.047  81.069  78.466  1.00  0.00     0.009 A 
BRANCH   9  14
ATOM     14  O   UNL     1      97.313  81.535  82.563  1.00  0.00    -0.493 OA
ATOM     15  C   UNL     1      95.982  81.168  82.970  1.00  0.00     0.278 C 
ENDBRANCH   9  14
BRANCH  10  16
ATOM     16  O   UNL     1      99.344  79.827  81.673  1.00  0.00    -0.504 OA
ATOM     17  H   UNL     1      99.517  80.377  82.440  1.00  0.00     0.293 HD
ENDBRANCH  10  16
ENDBRANCH   7   8
ENDBRANCH   4   7
ENDBRANCH   2   3
ENDBRANCH   1   2
BRANCH   1  18
ATOM     18  C   UNL     1      96.971  80.712  73.048  1.00  0.00     0.001 C 
BRANCH  18  19
ATOM     19  C   UNL     1      97.996  79.865  72.242  1.00  0.00     0.000 C 
BRANCH  19  20
ATOM     20  C   UNL     1      98.236  78.478  72.901  1.00  0.00     0.000 C 
BRANCH  20  21
ATOM     21  C   UNL     1      97.071  77.993  73.808  1.00  0.00     0.003 C 
BRANCH  21  22
ATOM     22  C   UNL     1      97.447  77.829  75.317  1.00  0.00    -0.017 C 
ATOM     23  C   UNL     1      96.601  78.791  76.196  1.00  0.00     0.007 C 
ATOM     24  C   UNL     1      98.965  78.018  75.607  1.00  0.00     0.007 C 
ENDBRANCH  21  22
ENDBRANCH  20  21
ENDBRANCH  19  20
ENDBRANCH  18  19
ENDBRANCH   1  18
TORSDOF 11
ENDMDL
