MODEL 1
REMARK VINA RESULT:    -6.098      0.000      0.000
REMARK INTER + INTRA:         -11.750
REMARK INTER:                 -10.019
REMARK INTRA:                  -1.731
REMARK UNBOUND:                -1.731
REMARK SMILES CCCCC[C@H](O)CC(=O)CCc1ccc(O)c(OC)c1
REMARK SMILES IDX 8 1 6 2 7 3 5 5 4 6 3 7 2 8 1 9 9 10 10 11 11 12 12 13 13 14
REMARK SMILES IDX 21 15 14 16 18 17 15 18 16 19 19 20 20 21 17 22
REMARK H PARENT 7 4 17 23
REMARK Flexibility Score: inf
ROOT
ATOM      1  C   UNL     1      95.939  94.609  80.861  1.00  0.00     0.107 C 
ENDROOT
BRANCH   1   2
ATOM      2  C   UNL     1      97.404  94.781  81.272  1.00  0.00     0.121 C 
BRANCH   2   3
ATOM      3  O   UNL     1      97.824  93.658  82.043  1.00  0.00    -0.393 OA
ATOM      4  H   UNL     1      97.209  93.564  82.791  1.00  0.00     0.210 HD
ENDBRANCH   2   3
BRANCH   2   5
ATOM      5  C   UNL     1      98.347  94.953  80.075  1.00  0.00     0.032 C 
BRANCH   5   6
ATOM      6  C   UNL     1      98.168  96.314  79.391  1.00  0.00     0.003 C 
BRANCH   6   7
ATOM      7  C   UNL     1      98.066  96.217  77.865  1.00  0.00    -0.000 C 
BRANCH   7   8
ATOM      8  C   UNL     1      97.084  97.214  77.253  1.00  0.00    -0.003 C 
ATOM      9  C   UNL     1      96.616  96.760  75.879  1.00  0.00     0.004 C 
ENDBRANCH   7   8
ENDBRANCH   6   7
ENDBRANCH   5   6
ENDBRANCH   2   5
ENDBRANCH   1   2
BRANCH   1  10
ATOM     10  C   UNL     1      95.570  93.165  80.563  1.00  0.00     0.135 C 
ATOM     11  O   UNL     1      95.399  92.355  81.474  1.00  0.00    -0.300 OA
BRANCH  10  12
ATOM     12  C   UNL     1      95.381  92.797  79.099  1.00  0.00     0.080 C 
BRANCH  12  13
ATOM     13  C   UNL     1      95.239  94.008  78.175  1.00  0.00     0.043 C 
BRANCH  13  14
ATOM     14  C   UNL     1      93.805  94.307  77.807  1.00  0.00    -0.044 A 
ATOM     15  C   UNL     1      92.829  93.321  77.947  1.00  0.00     0.054 A 
ATOM     16  C   UNL     1      93.458  95.570  77.327  1.00  0.00     0.008 A 
ATOM     17  C   UNL     1      91.504  93.599  77.608  1.00  0.00     0.160 A 
ATOM     18  C   UNL     1      92.133  95.848  76.988  1.00  0.00     0.050 A 
ATOM     19  C   UNL     1      91.157  94.862  77.128  1.00  0.00     0.157 A 
BRANCH  17  20
ATOM     20  O   UNL     1      90.559  92.627  77.749  1.00  0.00    -0.493 OA
ATOM     21  C   UNL     1      90.285  91.819  76.606  1.00  0.00     0.278 C 
ENDBRANCH  17  20
BRANCH  19  22
ATOM     22  O   UNL     1      89.867  95.144  76.794  1.00  0.00    -0.504 OA
ATOM     23  H   UNL     1      89.322  94.351  76.934  1.00  0.00     0.293 HD
ENDBRANCH  19  22
ENDBRANCH  13  14
ENDBRANCH  12  13
ENDBRANCH  10  12
ENDBRANCH   1  10
TORSDOF 12
ENDMDL
MODEL 2
REMARK VINA RESULT:    -5.695      1.055      2.062
REMARK INTER + INTRA:         -11.088
REMARK INTER:                  -9.346
REMARK INTRA:                  -1.742
REMARK UNBOUND:                -1.731
REMARK SMILES CCCCC[C@H](O)CC(=O)CCc1ccc(O)c(OC)c1
REMARK SMILES IDX 8 1 6 2 7 3 5 5 4 6 3 7 2 8 1 9 9 10 10 11 11 12 12 13 13 14
REMARK SMILES IDX 21 15 14 16 18 17 15 18 16 19 19 20 20 21 17 22
REMARK H PARENT 7 4 17 23
REMARK Flexibility Score: inf
ROOT
ATOM      1  C   UNL     1      96.265  94.643  80.982  1.00  0.00     0.107 C 
ENDROOT
BRANCH   1   2
ATOM      2  C   UNL     1      97.721  94.784  81.433  1.00  0.00     0.121 C 
BRANCH   2   3
ATOM      3  O   UNL     1      98.141  93.590  82.088  1.00  0.00    -0.393 OA
ATOM      4  H   UNL     1      97.515  93.411  82.812  1.00  0.00     0.210 HD
ENDBRANCH   2   3
BRANCH   2   5
ATOM      5  C   UNL     1      98.680  95.090  80.277  1.00  0.00     0.032 C 
BRANCH   5   6
ATOM      6  C   UNL     1      98.343  96.416  79.584  1.00  0.00     0.003 C 
BRANCH   6   7
ATOM      7  C   UNL     1      98.400  96.332  78.055  1.00  0.00    -0.000 C 
BRANCH   7   8
ATOM      8  C   UNL     1      97.588  97.419  77.352  1.00  0.00    -0.003 C 
ATOM      9  C   UNL     1      97.144  96.971  75.968  1.00  0.00     0.004 C 
ENDBRANCH   7   8
ENDBRANCH   6   7
ENDBRANCH   5   6
ENDBRANCH   2   5
ENDBRANCH   1   2
BRANCH   1  10
ATOM     10  C   UNL     1      95.823  93.196  80.836  1.00  0.00     0.135 C 
ATOM     11  O   UNL     1      95.475  92.539  81.817  1.00  0.00    -0.300 OA
BRANCH  10  12
ATOM     12  C   UNL     1      95.793  92.631  79.425  1.00  0.00     0.080 C 
BRANCH  12  13
ATOM     13  C   UNL     1      95.745  93.702  78.334  1.00  0.00     0.043 C 
BRANCH  13  14
ATOM     14  C   UNL     1      94.337  94.069  77.927  1.00  0.00    -0.044 A 
ATOM     15  C   UNL     1      94.116  95.161  77.088  1.00  0.00     0.054 A 
ATOM     16  C   UNL     1      93.259  93.315  78.391  1.00  0.00     0.008 A 
ATOM     17  C   UNL     1      92.815  95.499  76.712  1.00  0.00     0.160 A 
ATOM     18  C   UNL     1      91.959  93.652  78.015  1.00  0.00     0.050 A 
ATOM     19  C   UNL     1      91.737  94.744  77.176  1.00  0.00     0.157 A 
BRANCH  17  20
ATOM     20  O   UNL     1      92.611  96.568  75.893  1.00  0.00    -0.493 OA
ATOM     21  C   UNL     1      93.577  96.792  74.867  1.00  0.00     0.278 C 
ENDBRANCH  17  20
BRANCH  19  22
ATOM     22  O   UNL     1      90.463  95.064  76.815  1.00  0.00    -0.504 OA
ATOM     23  H   UNL     1      90.347  94.884  75.867  1.00  0.00     0.293 HD
ENDBRANCH  19  22
ENDBRANCH  13  14
ENDBRANCH  12  13
ENDBRANCH  10  12
ENDBRANCH   1  10
TORSDOF 12
ENDMDL
MODEL 3
REMARK VINA RESULT:    -5.453      2.079      5.986
REMARK INTER + INTRA:         -10.690
REMARK INTER:                  -9.274
REMARK INTRA:                  -1.416
REMARK UNBOUND:                -1.731
REMARK SMILES CCCCC[C@H](O)CC(=O)CCc1ccc(O)c(OC)c1
REMARK SMILES IDX 8 1 6 2 7 3 5 5 4 6 3 7 2 8 1 9 9 10 10 11 11 12 12 13 13 14
REMARK SMILES IDX 21 15 14 16 18 17 15 18 16 19 19 20 20 21 17 22
REMARK H PARENT 7 4 17 23
REMARK Flexibility Score: inf
ROOT
ATOM      1  C   UNL     1      92.388  93.290  78.203  1.00  0.00     0.107 C 
ENDROOT
BRANCH   1   2
ATOM      2  C   UNL     1      92.340  93.540  76.694  1.00  0.00     0.121 C 
BRANCH   2   3
ATOM      3  O   UNL     1      91.538  92.544  76.064  1.00  0.00    -0.393 OA
ATOM      4  H   UNL     1      90.791  92.345  76.656  1.00  0.00     0.210 HD
ENDBRANCH   2   3
BRANCH   2   5
ATOM      5  C   UNL     1      91.797  94.928  76.332  1.00  0.00     0.032 C 
BRANCH   5   6
ATOM      6  C   UNL     1      92.893  96.000  76.358  1.00  0.00     0.003 C 
BRANCH   6   7
ATOM      7  C   UNL     1      93.491  96.291  74.978  1.00  0.00    -0.000 C 
BRANCH   7   8
ATOM      8  C   UNL     1      94.795  95.543  74.705  1.00  0.00    -0.003 C 
ATOM      9  C   UNL     1      95.464  96.041  73.434  1.00  0.00     0.004 C 
ENDBRANCH   7   8
ENDBRANCH   6   7
ENDBRANCH   5   6
ENDBRANCH   2   5
ENDBRANCH   1   2
BRANCH   1  10
ATOM     10  C   UNL     1      93.802  93.127  78.735  1.00  0.00     0.135 C 
ATOM     11  O   UNL     1      94.006  92.883  79.924  1.00  0.00    -0.300 OA
BRANCH  10  12
ATOM     12  C   UNL     1      94.929  93.236  77.720  1.00  0.00     0.080 C 
BRANCH  12  13
ATOM     13  C   UNL     1      96.321  93.297  78.352  1.00  0.00     0.043 C 
BRANCH  13  14
ATOM     14  C   UNL     1      96.736  94.698  78.737  1.00  0.00    -0.044 A 
ATOM     15  C   UNL     1      97.069  94.988  80.059  1.00  0.00     0.054 A 
ATOM     16  C   UNL     1      96.784  95.701  77.768  1.00  0.00     0.008 A 
ATOM     17  C   UNL     1      97.453  96.282  80.413  1.00  0.00     0.160 A 
ATOM     18  C   UNL     1      97.168  96.995  78.122  1.00  0.00     0.050 A 
ATOM     19  C   UNL     1      97.501  97.285  79.445  1.00  0.00     0.157 A 
BRANCH  17  20
ATOM     20  O   UNL     1      97.776  96.554  81.709  1.00  0.00    -0.493 OA
ATOM     21  C   UNL     1      96.696  96.802  82.608  1.00  0.00     0.278 C 
ENDBRANCH  17  20
BRANCH  19  22
ATOM     22  O   UNL     1      97.874  98.552  79.779  1.00  0.00    -0.504 OA
ATOM     23  H   UNL     1      98.605  98.509  80.419  1.00  0.00     0.293 HD
ENDBRANCH  19  22
ENDBRANCH  13  14
ENDBRANCH  12  13
ENDBRANCH  10  12
ENDBRANCH   1  10
TORSDOF 12
ENDMDL
MODEL 4
REMARK VINA RESULT:    -5.434     21.993     25.466
REMARK INTER + INTRA:         -10.659
REMARK INTER:                  -9.604
REMARK INTRA:                  -1.055
REMARK UNBOUND:                -1.731
REMARK SMILES CCCCC[C@H](O)CC(=O)CCc1ccc(O)c(OC)c1
REMARK SMILES IDX 8 1 6 2 7 3 5 5 4 6 3 7 2 8 1 9 9 10 10 11 11 12 12 13 13 14
REMARK SMILES IDX 21 15 14 16 18 17 15 18 16 19 19 20 20 21 17 22
REMARK H PARENT 7 4 17 23
REMARK Flexibility Score: inf
ROOT
ATOM      1  C   UNL     1      75.581  83.747  65.330  1.00  0.00     0.107 C 
ENDROOT
BRANCH   1   2
ATOM      2  C   UNL     1      75.882  82.476  64.531  1.00  0.00     0.121 C 
BRANCH   2   3
ATOM      3  O   UNL     1      76.736  81.620  65.287  1.00  0.00    -0.393 OA
ATOM      4  H   UNL     1      76.260  80.785  65.439  1.00  0.00     0.210 HD
ENDBRANCH   2   3
BRANCH   2   5
ATOM      5  C   UNL     1      74.619  81.705  64.132  1.00  0.00     0.032 C 
BRANCH   5   6
ATOM      6  C   UNL     1      73.662  81.513  65.315  1.00  0.00     0.003 C 
BRANCH   6   7
ATOM      7  C   UNL     1      72.214  81.251  64.888  1.00  0.00    -0.000 C 
BRANCH   7   8
ATOM      8  C   UNL     1      72.021  81.209  63.374  1.00  0.00    -0.003 C 
ATOM      9  C   UNL     1      71.342  79.919  62.938  1.00  0.00     0.004 C 
ENDBRANCH   7   8
ENDBRANCH   6   7
ENDBRANCH   5   6
ENDBRANCH   2   5
ENDBRANCH   1   2
BRANCH   1  10
ATOM     10  C   UNL     1      76.578  83.996  66.450  1.00  0.00     0.135 C 
ATOM     11  O   UNL     1      77.790  83.973  66.235  1.00  0.00    -0.300 OA
BRANCH  10  12
ATOM     12  C   UNL     1      75.999  84.315  67.820  1.00  0.00     0.080 C 
BRANCH  12  13
ATOM     13  C   UNL     1      76.818  85.338  68.610  1.00  0.00     0.043 C 
BRANCH  13  14
ATOM     14  C   UNL     1      76.477  86.767  68.260  1.00  0.00    -0.044 A 
ATOM     15  C   UNL     1      75.228  87.289  68.596  1.00  0.00     0.054 A 
ATOM     16  C   UNL     1      77.412  87.564  67.599  1.00  0.00     0.008 A 
ATOM     17  C   UNL     1      74.915  88.610  68.272  1.00  0.00     0.160 A 
ATOM     18  C   UNL     1      77.099  88.885  67.276  1.00  0.00     0.050 A 
ATOM     19  C   UNL     1      75.850  89.407  67.612  1.00  0.00     0.157 A 
BRANCH  17  20
ATOM     20  O   UNL     1      73.692  89.109  68.605  1.00  0.00    -0.493 OA
ATOM     21  C   UNL     1      72.568  88.600  67.889  1.00  0.00     0.278 C 
ENDBRANCH  17  20
BRANCH  19  22
ATOM     22  O   UNL     1      75.556  90.697  67.290  1.00  0.00    -0.504 OA
ATOM     23  H   UNL     1      75.595  90.800  66.324  1.00  0.00     0.293 HD
ENDBRANCH  19  22
ENDBRANCH  13  14
ENDBRANCH  12  13
ENDBRANCH  10  12
ENDBRANCH   1  10
TORSDOF 12
ENDMDL
MODEL 5
REMARK VINA RESULT:    -5.283     21.681     25.393
REMARK INTER + INTRA:         -10.411
REMARK INTER:                  -9.264
REMARK INTRA:                  -1.147
REMARK UNBOUND:                -1.731
REMARK SMILES CCCCC[C@H](O)CC(=O)CCc1ccc(O)c(OC)c1
REMARK SMILES IDX 8 1 6 2 7 3 5 5 4 6 3 7 2 8 1 9 9 10 10 11 11 12 12 13 13 14
REMARK SMILES IDX 21 15 14 16 18 17 15 18 16 19 19 20 20 21 17 22
REMARK H PARENT 7 4 17 23
REMARK Flexibility Score: inf
ROOT
ATOM      1  C   UNL     1      76.972  85.716  66.302  1.00  0.00     0.107 C 
ENDROOT
BRANCH   1   2
ATOM      2  C   UNL     1      76.601  85.987  67.762  1.00  0.00     0.121 C 
BRANCH   2   3
ATOM      3  O   UNL     1      77.663  85.568  68.616  1.00  0.00    -0.393 OA
ATOM      4  H   UNL     1      78.484  85.572  68.094  1.00  0.00     0.210 HD
ENDBRANCH   2   3
BRANCH   2   5
ATOM      5  C   UNL     1      76.284  87.462  68.037  1.00  0.00     0.032 C 
BRANCH   5   6
ATOM      6  C   UNL     1      77.366  88.397  67.482  1.00  0.00     0.003 C 
BRANCH   6   7
ATOM      7  C   UNL     1      76.797  89.590  66.708  1.00  0.00    -0.000 C 
BRANCH   7   8
ATOM      8  C   UNL     1      75.671  89.216  65.746  1.00  0.00    -0.003 C 
ATOM      9  C   UNL     1      76.169  89.143  64.311  1.00  0.00     0.004 C 
ENDBRANCH   7   8
ENDBRANCH   6   7
ENDBRANCH   5   6
ENDBRANCH   2   5
ENDBRANCH   1   2
BRANCH   1  10
ATOM     10  C   UNL     1      77.207  84.243  66.010  1.00  0.00     0.135 C 
ATOM     11  O   UNL     1      77.992  83.581  66.689  1.00  0.00    -0.300 OA
BRANCH  10  12
ATOM     12  C   UNL     1      76.394  83.633  64.879  1.00  0.00     0.080 C 
BRANCH  12  13
ATOM     13  C   UNL     1      75.783  82.274  65.223  1.00  0.00     0.043 C 
BRANCH  13  14
ATOM     14  C   UNL     1      74.275  82.308  65.314  1.00  0.00    -0.044 A 
ATOM     15  C   UNL     1      73.634  83.424  65.851  1.00  0.00     0.054 A 
ATOM     16  C   UNL     1      73.525  81.223  64.859  1.00  0.00     0.008 A 
ATOM     17  C   UNL     1      72.242  83.455  65.933  1.00  0.00     0.160 A 
ATOM     18  C   UNL     1      72.133  81.254  64.941  1.00  0.00     0.050 A 
ATOM     19  C   UNL     1      71.491  82.370  65.478  1.00  0.00     0.157 A 
BRANCH  17  20
ATOM     20  O   UNL     1      71.626  84.550  66.460  1.00  0.00    -0.493 OA
ATOM     21  C   UNL     1      72.458  85.517  67.097  1.00  0.00     0.278 C 
ENDBRANCH  17  20
BRANCH  19  22
ATOM     22  O   UNL     1      70.132  82.388  65.553  1.00  0.00    -0.504 OA
ATOM     23  H   UNL     1      69.860  83.038  66.224  1.00  0.00     0.293 HD
ENDBRANCH  19  22
ENDBRANCH  13  14
ENDBRANCH  12  13
ENDBRANCH  10  12
ENDBRANCH   1  10
TORSDOF 12
ENDMDL
MODEL 6
REMARK VINA RESULT:    -5.108     21.911     24.085
REMARK INTER + INTRA:         -10.124
REMARK INTER:                  -9.269
REMARK INTRA:                  -0.855
REMARK UNBOUND:                -1.731
REMARK SMILES CCCCC[C@H](O)CC(=O)CCc1ccc(O)c(OC)c1
REMARK SMILES IDX 8 1 6 2 7 3 5 5 4 6 3 7 2 8 1 9 9 10 10 11 11 12 12 13 13 14
REMARK SMILES IDX 21 15 14 16 18 17 15 18 16 19 19 20 20 21 17 22
REMARK H PARENT 7 4 17 23
REMARK Flexibility Score: inf
ROOT
ATOM      1  C   UNL     1      75.970  84.374  68.265  1.00  0.00     0.107 C 
ENDROOT
BRANCH   1   2
ATOM      2  C   UNL     1      76.899  85.132  67.313  1.00  0.00     0.121 C 
BRANCH   2   3
ATOM      3  O   UNL     1      77.954  85.742  68.052  1.00  0.00    -0.393 OA
ATOM      4  H   UNL     1      77.796  86.703  68.058  1.00  0.00     0.210 HD
ENDBRANCH   2   3
BRANCH   2   5
ATOM      5  C   UNL     1      77.498  84.238  66.221  1.00  0.00     0.032 C 
BRANCH   5   6
ATOM      6  C   UNL     1      76.450  83.812  65.185  1.00  0.00     0.003 C 
BRANCH   6   7
ATOM      7  C   UNL     1      76.204  82.300  65.158  1.00  0.00    -0.000 C 
BRANCH   7   8
ATOM      8  C   UNL     1      74.795  81.917  64.707  1.00  0.00    -0.003 C 
ATOM      9  C   UNL     1      73.954  81.427  65.875  1.00  0.00     0.004 C 
ENDBRANCH   7   8
ENDBRANCH   6   7
ENDBRANCH   5   6
ENDBRANCH   2   5
ENDBRANCH   1   2
BRANCH   1  10
ATOM     10  C   UNL     1      74.923  85.266  68.911  1.00  0.00     0.135 C 
ATOM     11  O   UNL     1      74.592  85.105  70.086  1.00  0.00    -0.300 OA
BRANCH  10  12
ATOM     12  C   UNL     1      74.349  86.380  68.049  1.00  0.00     0.080 C 
BRANCH  12  13
ATOM     13  C   UNL     1      73.303  87.235  68.765  1.00  0.00     0.043 C 
BRANCH  13  14
ATOM     14  C   UNL     1      73.811  88.610  69.130  1.00  0.00    -0.044 A 
ATOM     15  C   UNL     1      73.013  89.471  69.883  1.00  0.00     0.054 A 
ATOM     16  C   UNL     1      75.079  89.017  68.714  1.00  0.00     0.008 A 
ATOM     17  C   UNL     1      73.484  90.740  70.221  1.00  0.00     0.160 A 
ATOM     18  C   UNL     1      75.550  90.286  69.052  1.00  0.00     0.050 A 
ATOM     19  C   UNL     1      74.752  91.148  69.805  1.00  0.00     0.157 A 
BRANCH  17  20
ATOM     20  O   UNL     1      72.696  91.573  70.956  1.00  0.00    -0.493 OA
ATOM     21  C   UNL     1      71.294  91.534  70.699  1.00  0.00     0.278 C 
ENDBRANCH  17  20
BRANCH  19  22
ATOM     22  O   UNL     1      75.223  92.384  70.128  1.00  0.00    -0.504 OA
ATOM     23  H   UNL     1      76.194  92.356  70.156  1.00  0.00     0.293 HD
ENDBRANCH  19  22
ENDBRANCH  13  14
ENDBRANCH  12  13
ENDBRANCH  10  12
ENDBRANCH   1  10
TORSDOF 12
ENDMDL
MODEL 7
REMARK VINA RESULT:    -5.075      6.794      9.042
REMARK INTER + INTRA:         -10.070
REMARK INTER:                  -9.071
REMARK INTRA:                  -0.999
REMARK UNBOUND:                -1.731
REMARK SMILES CCCCC[C@H](O)CC(=O)CCc1ccc(O)c(OC)c1
REMARK SMILES IDX 8 1 6 2 7 3 5 5 4 6 3 7 2 8 1 9 9 10 10 11 11 12 12 13 13 14
REMARK SMILES IDX 21 15 14 16 18 17 15 18 16 19 19 20 20 21 17 22
REMARK H PARENT 7 4 17 23
REMARK Flexibility Score: inf
ROOT
ATOM      1  C   UNL     1      93.941  97.812  74.237  1.00  0.00     0.107 C 
ENDROOT
BRANCH   1   2
ATOM      2  C   UNL     1      94.605  96.450  74.020  1.00  0.00     0.121 C 
BRANCH   2   3
ATOM      3  O   UNL     1      96.007  96.552  74.257  1.00  0.00    -0.393 OA
ATOM      4  H   UNL     1      96.175  97.412  74.679  1.00  0.00     0.210 HD
ENDBRANCH   2   3
BRANCH   2   5
ATOM      5  C   UNL     1      94.021  95.348  74.912  1.00  0.00     0.032 C 
BRANCH   5   6
ATOM      6  C   UNL     1      94.263  95.624  76.401  1.00  0.00     0.003 C 
BRANCH   6   7
ATOM      7  C   UNL     1      93.042  95.331  77.279  1.00  0.00    -0.000 C 
BRANCH   7   8
ATOM      8  C   UNL     1      91.785  96.086  76.851  1.00  0.00    -0.003 C 
ATOM      9  C   UNL     1      90.572  95.169  76.815  1.00  0.00     0.004 C 
ENDBRANCH   7   8
ENDBRANCH   6   7
ENDBRANCH   5   6
ENDBRANCH   2   5
ENDBRANCH   1   2
BRANCH   1  10
ATOM     10  C   UNL     1      94.247  98.807  73.130  1.00  0.00     0.135 C 
ATOM     11  O   UNL     1      95.355  98.838  72.595  1.00  0.00    -0.300 OA
BRANCH  10  12
ATOM     12  C   UNL     1      93.108  99.717  72.697  1.00  0.00     0.080 C 
BRANCH  12  13
ATOM     13  C   UNL     1      93.134 100.070  71.209  1.00  0.00     0.043 C 
BRANCH  13  14
ATOM     14  C   UNL     1      91.863  99.688  70.488  1.00  0.00    -0.044 A 
ATOM     15  C   UNL     1      91.647 100.118  69.179  1.00  0.00     0.054 A 
ATOM     16  C   UNL     1      90.905  98.905  71.132  1.00  0.00     0.008 A 
ATOM     17  C   UNL     1      90.474  99.764  68.513  1.00  0.00     0.160 A 
ATOM     18  C   UNL     1      89.731  98.551  70.467  1.00  0.00     0.050 A 
ATOM     19  C   UNL     1      89.515  98.981  69.157  1.00  0.00     0.157 A 
BRANCH  17  20
ATOM     20  O   UNL     1      90.274 100.190  67.235  1.00  0.00    -0.493 OA
ATOM     21  C   UNL     1      89.862 101.544  67.060  1.00  0.00     0.278 C 
ENDBRANCH  17  20
BRANCH  19  22
ATOM     22  O   UNL     1      88.365  98.628  68.518  1.00  0.00    -0.504 OA
ATOM     23  H   UNL     1      88.247  97.666  68.587  1.00  0.00     0.293 HD
ENDBRANCH  19  22
ENDBRANCH  13  14
ENDBRANCH  12  13
ENDBRANCH  10  12
ENDBRANCH   1  10
TORSDOF 12
ENDMDL
MODEL 8
REMARK VINA RESULT:    -5.018     13.080     14.863
REMARK INTER + INTRA:          -9.976
REMARK INTER:                  -9.127
REMARK INTRA:                  -0.850
REMARK UNBOUND:                -1.731
REMARK SMILES CCCCC[C@H](O)CC(=O)CCc1ccc(O)c(OC)c1
REMARK SMILES IDX 8 1 6 2 7 3 5 5 4 6 3 7 2 8 1 9 9 10 10 11 11 12 12 13 13 14
REMARK SMILES IDX 21 15 14 16 18 17 15 18 16 19 19 20 20 21 17 22
REMARK H PARENT 7 4 17 23
REMARK Flexibility Score: inf
ROOT
ATOM      1  C   UNL     1      95.493  81.322  83.699  1.00  0.00     0.107 C 
ENDROOT
BRANCH   1   2
ATOM      2  C   UNL     1      96.082  82.612  83.122  1.00  0.00     0.121 C 
BRANCH   2   3
ATOM      3  O   UNL     1      96.990  83.189  84.057  1.00  0.00    -0.393 OA
ATOM      4  H   UNL     1      97.235  82.500  84.699  1.00  0.00     0.210 HD
ENDBRANCH   2   3
BRANCH   2   5
ATOM      5  C   UNL     1      96.801  82.398  81.785  1.00  0.00     0.032 C 
BRANCH   5   6
ATOM      6  C   UNL     1      96.705  80.945  81.305  1.00  0.00     0.003 C 
BRANCH   6   7
ATOM      7  C   UNL     1      97.459  80.687  79.996  1.00  0.00    -0.000 C 
BRANCH   7   8
ATOM      8  C   UNL     1      97.689  81.948  79.164  1.00  0.00    -0.003 C 
ATOM      9  C   UNL     1      96.726  82.019  77.988  1.00  0.00     0.004 C 
ENDBRANCH   7   8
ENDBRANCH   6   7
ENDBRANCH   5   6
ENDBRANCH   2   5
ENDBRANCH   1   2
BRANCH   1  10
ATOM     10  C   UNL     1      94.970  81.488  85.116  1.00  0.00     0.135 C 
ATOM     11  O   UNL     1      95.742  81.558  86.072  1.00  0.00    -0.300 OA
BRANCH  10  12
ATOM     12  C   UNL     1      93.462  81.607  85.277  1.00  0.00     0.080 C 
BRANCH  12  13
ATOM     13  C   UNL     1      92.742  80.259  85.339  1.00  0.00     0.043 C 
BRANCH  13  14
ATOM     14  C   UNL     1      91.279  80.351  84.973  1.00  0.00    -0.044 A 
ATOM     15  C   UNL     1      90.503  79.195  84.903  1.00  0.00     0.054 A 
ATOM     16  C   UNL     1      90.705  81.595  84.706  1.00  0.00     0.008 A 
ATOM     17  C   UNL     1      89.152  79.282  84.566  1.00  0.00     0.160 A 
ATOM     18  C   UNL     1      89.354  81.681  84.369  1.00  0.00     0.050 A 
ATOM     19  C   UNL     1      88.578  80.525  84.299  1.00  0.00     0.157 A 
BRANCH  17  20
ATOM     20  O   UNL     1      88.404  78.145  84.500  1.00  0.00    -0.493 OA
ATOM     21  C   UNL     1      89.073  76.912  84.760  1.00  0.00     0.278 C 
ENDBRANCH  17  20
BRANCH  19  22
ATOM     22  O   UNL     1      87.260  80.622  83.969  1.00  0.00    -0.504 OA
ATOM     23  H   UNL     1      86.869  79.732  83.960  1.00  0.00     0.293 HD
ENDBRANCH  19  22
ENDBRANCH  13  14
ENDBRANCH  12  13
ENDBRANCH  10  12
ENDBRANCH   1  10
TORSDOF 12
ENDMDL
MODEL 9
REMARK VINA RESULT:    -4.958      4.355      6.877
REMARK INTER + INTRA:          -9.877
REMARK INTER:                  -8.981
REMARK INTRA:                  -0.896
REMARK UNBOUND:                -1.731
REMARK SMILES CCCCC[C@H](O)CC(=O)CCc1ccc(O)c(OC)c1
REMARK SMILES IDX 8 1 6 2 7 3 5 5 4 6 3 7 2 8 1 9 9 10 10 11 11 12 12 13 13 14
REMARK SMILES IDX 21 15 14 16 18 17 15 18 16 19 19 20 20 21 17 22
REMARK H PARENT 7 4 17 23
REMARK Flexibility Score: inf
ROOT
ATOM      1  C   UNL     1      95.680  97.969  73.999  1.00  0.00     0.107 C 
ENDROOT
BRANCH   1   2
ATOM      2  C   UNL     1      95.036  99.086  73.174  1.00  0.00     0.121 C 
BRANCH   2   3
ATOM      3  O   UNL     1      95.441  98.976  71.812  1.00  0.00    -0.393 OA
ATOM      4  H   UNL     1      96.375  99.245  71.756  1.00  0.00     0.210 HD
ENDBRANCH   2   3
BRANCH   2   5
ATOM      5  C   UNL     1      93.504  99.080  73.248  1.00  0.00     0.032 C 
BRANCH   5   6
ATOM      6  C   UNL     1      92.893 100.355  72.654  1.00  0.00     0.003 C 
BRANCH   6   7
ATOM      7  C   UNL     1      92.467 100.200  71.191  1.00  0.00    -0.000 C 
BRANCH   7   8
ATOM      8  C   UNL     1      91.295  99.240  70.993  1.00  0.00    -0.003 C 
ATOM      9  C   UNL     1      89.965  99.975  71.032  1.00  0.00     0.004 C 
ENDBRANCH   7   8
ENDBRANCH   6   7
ENDBRANCH   5   6
ENDBRANCH   2   5
ENDBRANCH   1   2
BRANCH   1  10
ATOM     10  C   UNL     1      95.469  96.589  73.399  1.00  0.00     0.135 C 
ATOM     11  O   UNL     1      95.932  96.301  72.295  1.00  0.00    -0.300 OA
BRANCH  10  12
ATOM     12  C   UNL     1      94.705  95.585  74.249  1.00  0.00     0.080 C 
BRANCH  12  13
ATOM     13  C   UNL     1      94.064  96.197  75.495  1.00  0.00     0.043 C 
BRANCH  13  14
ATOM     14  C   UNL     1      94.035  95.251  76.672  1.00  0.00    -0.044 A 
ATOM     15  C   UNL     1      92.866  94.557  76.981  1.00  0.00     0.054 A 
ATOM     16  C   UNL     1      95.180  95.071  77.449  1.00  0.00     0.008 A 
ATOM     17  C   UNL     1      92.841  93.682  78.067  1.00  0.00     0.160 A 
ATOM     18  C   UNL     1      95.155  94.196  78.536  1.00  0.00     0.050 A 
ATOM     19  C   UNL     1      93.985  93.502  78.845  1.00  0.00     0.157 A 
BRANCH  17  20
ATOM     20  O   UNL     1      91.693  93.010  78.360  1.00  0.00    -0.493 OA
ATOM     21  C   UNL     1      90.540  93.327  77.582  1.00  0.00     0.278 C 
ENDBRANCH  17  20
BRANCH  19  22
ATOM     22  O   UNL     1      93.973  92.650  79.908  1.00  0.00    -0.504 OA
ATOM     23  H   UNL     1      93.360  92.993  80.581  1.00  0.00     0.293 HD
ENDBRANCH  19  22
ENDBRANCH  13  14
ENDBRANCH  12  13
ENDBRANCH  10  12
ENDBRANCH   1  10
TORSDOF 12
ENDMDL
MODEL 10
REMARK VINA RESULT:    -4.888     12.501     14.387
REMARK INTER + INTRA:          -9.762
REMARK INTER:                  -8.398
REMARK INTRA:                  -1.364
REMARK UNBOUND:                -1.731
REMARK SMILES CCCCC[C@H](O)CC(=O)CCc1ccc(O)c(OC)c1
REMARK SMILES IDX 8 1 6 2 7 3 5 5 4 6 3 7 2 8 1 9 9 10 10 11 11 12 12 13 13 14
REMARK SMILES IDX 21 15 14 16 18 17 15 18 16 19 19 20 20 21 17 22
REMARK H PARENT 7 4 17 23
REMARK Flexibility Score: inf
ROOT
ATOM      1  C   UNL     1      97.955  79.036  80.831  1.00  0.00     0.107 C 
ENDROOT
BRANCH   1   2
ATOM      2  C   UNL     1      98.465  78.757  82.247  1.00  0.00     0.121 C 
BRANCH   2   3
ATOM      3  O   UNL     1      99.724  79.396  82.442  1.00  0.00    -0.393 OA
ATOM      4  H   UNL     1     100.133  79.011  83.237  1.00  0.00     0.210 HD
ENDBRANCH   2   3
BRANCH   2   5
ATOM      5  C   UNL     1      97.490  79.220  83.337  1.00  0.00     0.032 C 
BRANCH   5   6
ATOM      6  C   UNL     1      96.149  79.681  82.753  1.00  0.00     0.003 C 
BRANCH   6   7
ATOM      7  C   UNL     1      95.793  81.126  83.120  1.00  0.00    -0.000 C 
BRANCH   7   8
ATOM      8  C   UNL     1      96.805  82.153  82.614  1.00  0.00    -0.003 C 
ATOM      9  C   UNL     1      96.664  82.378  81.116  1.00  0.00     0.004 C 
ENDBRANCH   7   8
ENDBRANCH   6   7
ENDBRANCH   5   6
ENDBRANCH   2   5
ENDBRANCH   1   2
BRANCH   1  10
ATOM     10  C   UNL     1      99.074  79.313  79.839  1.00  0.00     0.135 C 
ATOM     11  O   UNL     1     100.022  78.537  79.723  1.00  0.00    -0.300 OA
BRANCH  10  12
ATOM     12  C   UNL     1      98.931  80.560  78.981  1.00  0.00     0.080 C 
BRANCH  12  13
ATOM     13  C   UNL     1      98.703  80.264  77.498  1.00  0.00     0.043 C 
BRANCH  13  14
ATOM     14  C   UNL     1      97.854  81.306  76.810  1.00  0.00    -0.044 A 
ATOM     15  C   UNL     1      98.207  81.768  75.542  1.00  0.00     0.054 A 
ATOM     16  C   UNL     1      96.716  81.807  77.443  1.00  0.00     0.008 A 
ATOM     17  C   UNL     1      97.421  82.730  74.907  1.00  0.00     0.160 A 
ATOM     18  C   UNL     1      95.930  82.769  76.809  1.00  0.00     0.050 A 
ATOM     19  C   UNL     1      96.283  83.230  75.541  1.00  0.00     0.157 A 
BRANCH  17  20
ATOM     20  O   UNL     1      97.775  83.173  73.669  1.00  0.00    -0.493 OA
ATOM     21  C   UNL     1      99.046  82.758  73.171  1.00  0.00     0.278 C 
ENDBRANCH  17  20
BRANCH  19  22
ATOM     22  O   UNL     1      95.508  84.170  74.931  1.00  0.00    -0.504 OA
ATOM     23  H   UNL     1      95.777  84.246  73.999  1.00  0.00     0.293 HD
ENDBRANCH  19  22
ENDBRANCH  13  14
ENDBRANCH  12  13
ENDBRANCH  10  12
ENDBRANCH   1  10
TORSDOF 12
ENDMDL
