MODEL 1
REMARK VINA RESULT:    -6.522      0.000      0.000
REMARK INTER + INTRA:         -11.197
REMARK INTER:                 -10.526
REMARK INTRA:                  -0.671
REMARK UNBOUND:                -0.671
REMARK SMILES COc1cc(CNC(=O)CCCCC/C=C/C(C)C)ccc1O
REMARK SMILES IDX 11 1 10 2 8 3 7 4 9 6 6 7 5 8 3 9 22 10 4 11 21 12 20 13
REMARK SMILES IDX 2 14 1 15 23 16 12 18 13 19 14 20 15 21 16 22 17 23 18 24
REMARK SMILES IDX 19 25
REMARK H PARENT 7 5 23 17
REMARK Flexibility Score: inf
ROOT
ATOM      1  C   UNL     1      94.616  99.045  74.732  1.00  0.00     0.010 C 
ENDROOT
BRANCH   1   2
ATOM      2  C   UNL     1      94.578  99.834  73.398  1.00  0.00     0.100 C 
BRANCH   2   3
ATOM      3  C   UNL     1      93.314 100.557  73.164  1.00  0.00     0.220 C 
ATOM      4  N   UNL     1      92.434 100.099  72.231  1.00  0.00    -0.352 N 
ATOM      5  H   UNL     1      92.761  99.305  71.697  1.00  0.00     0.163 HD
ATOM      6  O   UNL     1      93.063 101.563  73.869  1.00  0.00    -0.275 OA
BRANCH   4   7
ATOM      7  C   UNL     1      91.140 100.642  71.973  1.00  0.00     0.151 C 
BRANCH   7   8
ATOM      8  C   UNL     1      90.332  99.790  71.064  1.00  0.00    -0.025 A 
ATOM      9  C   UNL     1      89.022  99.510  69.001  1.00  0.00     0.160 A 
ATOM     10  C   UNL     1      88.746  98.172  69.359  1.00  0.00     0.157 A 
ATOM     11  C   UNL     1      89.804 100.310  69.859  1.00  0.00     0.056 A 
ATOM     12  C   UNL     1      89.281  97.639  70.546  1.00  0.00     0.050 A 
ATOM     13  C   UNL     1      90.076  98.439  71.387  1.00  0.00     0.009 A 
BRANCH   9  14
ATOM     14  O   UNL     1      88.580 100.012  67.806  1.00  0.00    -0.493 OA
ATOM     15  C   UNL     1      88.453 101.443  67.781  1.00  0.00     0.278 C 
ENDBRANCH   9  14
BRANCH  10  16
ATOM     16  O   UNL     1      87.975  97.377  68.575  1.00  0.00    -0.504 OA
ATOM     17  H   UNL     1      88.255  97.462  67.661  1.00  0.00     0.293 HD
ENDBRANCH  10  16
ENDBRANCH   7   8
ENDBRANCH   4   7
ENDBRANCH   2   3
ENDBRANCH   1   2
BRANCH   1  18
ATOM     18  C   UNL     1      95.322  97.677  74.553  1.00  0.00     0.001 C 
BRANCH  18  19
ATOM     19  C   UNL     1      94.976  96.648  75.659  1.00  0.00     0.004 C 
BRANCH  19  20
ATOM     20  C   UNL     1      93.615  96.976  76.333  1.00  0.00     0.027 C 
BRANCH  20  21
ATOM     21  C   UNL     1      92.754  95.818  76.506  1.00  0.00    -0.031 C 
ATOM     22  C   UNL     1      91.622  95.866  77.231  1.00  0.00    -0.028 C 
BRANCH  22  23
ATOM     23  C   UNL     1      90.733  94.723  77.420  1.00  0.00     0.005 C 
ATOM     24  C   UNL     1      91.109  93.957  78.716  1.00  0.00     0.012 C 
ATOM     25  C   UNL     1      89.252  95.188  77.418  1.00  0.00     0.012 C 
ENDBRANCH  22  23
ENDBRANCH  20  21
ENDBRANCH  19  20
ENDBRANCH  18  19
ENDBRANCH   1  18
TORSDOF 11
ENDMDL
MODEL 2
REMARK VINA RESULT:    -6.378     17.358     20.401
REMARK INTER + INTRA:         -10.964
REMARK INTER:                 -10.196
REMARK INTRA:                  -0.768
REMARK UNBOUND:                -0.671
REMARK SMILES COc1cc(CNC(=O)CCCCC/C=C/C(C)C)ccc1O
REMARK SMILES IDX 11 1 10 2 8 3 7 4 9 6 6 7 5 8 3 9 22 10 4 11 21 12 20 13
REMARK SMILES IDX 2 14 1 15 23 16 12 18 13 19 14 20 15 21 16 22 17 23 18 24
REMARK SMILES IDX 19 25
REMARK H PARENT 7 5 23 17
REMARK Flexibility Score: inf
ROOT
ATOM      1  C   UNL     1      97.726  83.069  79.004  1.00  0.00     0.010 C 
ENDROOT
BRANCH   1   2
ATOM      2  C   UNL     1      98.967  83.223  79.921  1.00  0.00     0.100 C 
BRANCH   2   3
ATOM      3  C   UNL     1      98.900  82.426  81.160  1.00  0.00     0.220 C 
ATOM      4  N   UNL     1      98.479  83.007  82.318  1.00  0.00    -0.352 N 
ATOM      5  H   UNL     1      98.305  84.000  82.252  1.00  0.00     0.163 HD
ATOM      6  O   UNL     1      99.199  81.210  81.102  1.00  0.00    -0.275 OA
BRANCH   4   7
ATOM      7  C   UNL     1      98.276  82.332  83.558  1.00  0.00     0.151 C 
BRANCH   7   8
ATOM      8  C   UNL     1      97.983  83.265  84.676  1.00  0.00    -0.025 A 
ATOM      9  C   UNL     1      98.425  84.073  86.957  1.00  0.00     0.160 A 
ATOM     10  C   UNL     1      97.382  85.015  86.825  1.00  0.00     0.157 A 
ATOM     11  C   UNL     1      98.712  83.201  85.887  1.00  0.00     0.056 A 
ATOM     12  C   UNL     1      96.661  85.099  85.619  1.00  0.00     0.050 A 
ATOM     13  C   UNL     1      96.967  84.238  84.549  1.00  0.00     0.009 A 
BRANCH   9  14
ATOM     14  O   UNL     1      99.190  84.041  88.093  1.00  0.00    -0.493 OA
ATOM     15  C   UNL     1     100.579  84.338  87.875  1.00  0.00     0.278 C 
ENDBRANCH   9  14
BRANCH  10  16
ATOM     16  O   UNL     1      97.055  85.853  87.840  1.00  0.00    -0.504 OA
ATOM     17  H   UNL     1      96.285  85.511  88.301  1.00  0.00     0.293 HD
ENDBRANCH  10  16
ENDBRANCH   7   8
ENDBRANCH   4   7
ENDBRANCH   2   3
ENDBRANCH   1   2
BRANCH   1  18
ATOM     18  C   UNL     1      97.669  84.200  77.945  1.00  0.00     0.001 C 
BRANCH  18  19
ATOM     19  C   UNL     1      97.673  83.686  76.483  1.00  0.00     0.004 C 
BRANCH  19  20
ATOM     20  C   UNL     1      98.949  82.851  76.180  1.00  0.00     0.027 C 
BRANCH  20  21
ATOM     21  C   UNL     1     100.095  83.655  75.790  1.00  0.00    -0.031 C 
ATOM     22  C   UNL     1      99.969  84.919  75.350  1.00  0.00    -0.028 C 
BRANCH  22  23
ATOM     23  C   UNL     1     101.101  85.755  74.956  1.00  0.00     0.005 C 
ATOM     24  C   UNL     1     102.336  85.439  75.840  1.00  0.00     0.012 C 
ATOM     25  C   UNL     1     101.398  85.577  73.442  1.00  0.00     0.012 C 
ENDBRANCH  22  23
ENDBRANCH  20  21
ENDBRANCH  19  20
ENDBRANCH  18  19
ENDBRANCH   1  18
TORSDOF 11
ENDMDL
MODEL 3
REMARK VINA RESULT:    -6.032     17.518     20.699
REMARK INTER + INTRA:         -10.405
REMARK INTER:                  -9.515
REMARK INTRA:                  -0.890
REMARK UNBOUND:                -0.671
REMARK SMILES COc1cc(CNC(=O)CCCCC/C=C/C(C)C)ccc1O
REMARK SMILES IDX 11 1 10 2 8 3 7 4 9 6 6 7 5 8 3 9 22 10 4 11 21 12 20 13
REMARK SMILES IDX 2 14 1 15 23 16 12 18 13 19 14 20 15 21 16 22 17 23 18 24
REMARK SMILES IDX 19 25
REMARK H PARENT 7 5 23 17
REMARK Flexibility Score: inf
ROOT
ATOM      1  C   UNL     1      97.748  83.031  79.138  1.00  0.00     0.010 C 
ENDROOT
BRANCH   1   2
ATOM      2  C   UNL     1      99.131  83.184  79.822  1.00  0.00     0.100 C 
BRANCH   2   3
ATOM      3  C   UNL     1      99.251  82.465  81.103  1.00  0.00     0.220 C 
ATOM      4  N   UNL     1      98.700  82.993  82.232  1.00  0.00    -0.352 N 
ATOM      5  H   UNL     1      98.296  83.912  82.113  1.00  0.00     0.163 HD
ATOM      6  O   UNL     1      99.829  81.352  81.110  1.00  0.00    -0.275 OA
BRANCH   4   7
ATOM      7  C   UNL     1      98.658  82.359  83.509  1.00  0.00     0.151 C 
BRANCH   7   8
ATOM      8  C   UNL     1      98.154  83.260  84.578  1.00  0.00    -0.025 A 
ATOM      9  C   UNL     1      98.296  84.146  86.868  1.00  0.00     0.160 A 
ATOM     10  C   UNL     1      97.154  84.941  86.630  1.00  0.00     0.157 A 
ATOM     11  C   UNL     1      98.781  83.306  85.845  1.00  0.00     0.056 A 
ATOM     12  C   UNL     1      96.532  84.916  85.368  1.00  0.00     0.050 A 
ATOM     13  C   UNL     1      97.034  84.090  84.346  1.00  0.00     0.009 A 
BRANCH   9  14
ATOM     14  O   UNL     1      98.960  84.228  88.063  1.00  0.00    -0.493 OA
ATOM     15  C   UNL     1      98.789  83.081  88.911  1.00  0.00     0.278 C 
ENDBRANCH   9  14
BRANCH  10  16
ATOM     16  O   UNL     1      96.638  85.741  87.597  1.00  0.00    -0.504 OA
ATOM     17  H   UNL     1      96.650  86.653  87.296  1.00  0.00     0.293 HD
ENDBRANCH  10  16
ENDBRANCH   7   8
ENDBRANCH   4   7
ENDBRANCH   2   3
ENDBRANCH   1   2
BRANCH   1  18
ATOM     18  C   UNL     1      97.419  84.264  78.259  1.00  0.00     0.001 C 
BRANCH  18  19
ATOM     19  C   UNL     1      97.578  84.007  76.740  1.00  0.00     0.004 C 
BRANCH  19  20
ATOM     20  C   UNL     1      99.076  83.944  76.330  1.00  0.00     0.027 C 
BRANCH  20  21
ATOM     21  C   UNL     1      99.456  82.692  75.697  1.00  0.00    -0.031 C 
ATOM     22  C   UNL     1      98.687  81.591  75.761  1.00  0.00    -0.028 C 
BRANCH  22  23
ATOM     23  C   UNL     1      99.037  80.321  75.132  1.00  0.00     0.005 C 
ATOM     24  C   UNL     1      98.950  79.166  76.165  1.00  0.00     0.012 C 
ATOM     25  C   UNL     1      98.138  80.070  73.890  1.00  0.00     0.012 C 
ENDBRANCH  22  23
ENDBRANCH  20  21
ENDBRANCH  19  20
ENDBRANCH  18  19
ENDBRANCH   1  18
TORSDOF 11
ENDMDL
MODEL 4
REMARK VINA RESULT:    -5.977      7.340     11.503
REMARK INTER + INTRA:         -10.316
REMARK INTER:                  -9.371
REMARK INTRA:                  -0.945
REMARK UNBOUND:                -0.671
REMARK SMILES COc1cc(CNC(=O)CCCCC/C=C/C(C)C)ccc1O
REMARK SMILES IDX 11 1 10 2 8 3 7 4 9 6 6 7 5 8 3 9 22 10 4 11 21 12 20 13
REMARK SMILES IDX 2 14 1 15 23 16 12 18 13 19 14 20 15 21 16 22 17 23 18 24
REMARK SMILES IDX 19 25
REMARK H PARENT 7 5 23 17
REMARK Flexibility Score: inf
ROOT
ATOM      1  C   UNL     1      95.040  94.454  78.156  1.00  0.00     0.010 C 
ENDROOT
BRANCH   1   2
ATOM      2  C   UNL     1      95.852  93.896  79.354  1.00  0.00     0.100 C 
BRANCH   2   3
ATOM      3  C   UNL     1      95.275  94.219  80.672  1.00  0.00     0.220 C 
ATOM      4  N   UNL     1      95.974  94.994  81.547  1.00  0.00    -0.352 N 
ATOM      5  H   UNL     1      96.905  95.241  81.241  1.00  0.00     0.163 HD
ATOM      6  O   UNL     1      94.124  93.798  80.938  1.00  0.00    -0.275 OA
BRANCH   4   7
ATOM      7  C   UNL     1      95.496  95.460  82.808  1.00  0.00     0.151 C 
BRANCH   7   8
ATOM      8  C   UNL     1      95.713  96.917  83.000  1.00  0.00    -0.025 A 
ATOM      9  C   UNL     1      96.585  98.789  84.335  1.00  0.00     0.160 A 
ATOM     10  C   UNL     1      96.077  99.702  83.386  1.00  0.00     0.157 A 
ATOM     11  C   UNL     1      96.392  97.406  84.140  1.00  0.00     0.056 A 
ATOM     12  C   UNL     1      95.415  99.226  82.239  1.00  0.00     0.050 A 
ATOM     13  C   UNL     1      95.244  97.843  82.042  1.00  0.00     0.009 A 
BRANCH   9  14
ATOM     14  O   UNL     1      97.307  99.237  85.409  1.00  0.00    -0.493 OA
ATOM     15  C   UNL     1      98.548  98.541  85.616  1.00  0.00     0.278 C 
ENDBRANCH   9  14
BRANCH  10  16
ATOM     16  O   UNL     1      96.217 101.041  83.550  1.00  0.00    -0.504 OA
ATOM     17  H   UNL     1      96.404 101.232  84.473  1.00  0.00     0.293 HD
ENDBRANCH  10  16
ENDBRANCH   7   8
ENDBRANCH   4   7
ENDBRANCH   2   3
ENDBRANCH   1   2
BRANCH   1  18
ATOM     18  C   UNL     1      94.979  96.002  78.194  1.00  0.00     0.001 C 
BRANCH  18  19
ATOM     19  C   UNL     1      94.804  96.653  76.799  1.00  0.00     0.004 C 
BRANCH  19  20
ATOM     20  C   UNL     1      93.339  97.119  76.571  1.00  0.00     0.027 C 
BRANCH  20  21
ATOM     21  C   UNL     1      92.385  96.027  76.483  1.00  0.00    -0.031 C 
ATOM     22  C   UNL     1      91.600  95.673  77.515  1.00  0.00    -0.028 C 
BRANCH  22  23
ATOM     23  C   UNL     1      90.628  94.584  77.457  1.00  0.00     0.005 C 
ATOM     24  C   UNL     1      90.787  93.655  78.690  1.00  0.00     0.012 C 
ATOM     25  C   UNL     1      89.189  95.155  77.330  1.00  0.00     0.012 C 
ENDBRANCH  22  23
ENDBRANCH  20  21
ENDBRANCH  19  20
ENDBRANCH  18  19
ENDBRANCH   1  18
TORSDOF 11
ENDMDL
MODEL 5
REMARK VINA RESULT:    -5.895     20.846     23.929
REMARK INTER + INTRA:         -10.184
REMARK INTER:                  -8.146
REMARK INTRA:                  -2.038
REMARK UNBOUND:                -0.671
REMARK SMILES COc1cc(CNC(=O)CCCCC/C=C/C(C)C)ccc1O
REMARK SMILES IDX 11 1 10 2 8 3 7 4 9 6 6 7 5 8 3 9 22 10 4 11 21 12 20 13
REMARK SMILES IDX 2 14 1 15 23 16 12 18 13 19 14 20 15 21 16 22 17 23 18 24
REMARK SMILES IDX 19 25
REMARK H PARENT 7 5 23 17
REMARK Flexibility Score: inf
ROOT
ATOM      1  C   UNL     1      70.611  84.015  67.794  1.00  0.00     0.010 C 
ENDROOT
BRANCH   1   2
ATOM      2  C   UNL     1      70.445  82.646  67.087  1.00  0.00     0.100 C 
BRANCH   2   3
ATOM      3  C   UNL     1      71.413  82.410  65.999  1.00  0.00     0.220 C 
ATOM      4  N   UNL     1      72.346  81.426  66.123  1.00  0.00    -0.352 N 
ATOM      5  H   UNL     1      72.350  80.960  67.020  1.00  0.00     0.163 HD
ATOM      6  O   UNL     1      71.322  83.106  64.960  1.00  0.00    -0.275 OA
BRANCH   4   7
ATOM      7  C   UNL     1      73.274  81.031  65.114  1.00  0.00     0.151 C 
BRANCH   7   8
ATOM      8  C   UNL     1      74.580  81.728  65.233  1.00  0.00    -0.025 A 
ATOM      9  C   UNL     1      76.343  83.143  64.263  1.00  0.00     0.160 A 
ATOM     10  C   UNL     1      77.099  83.012  65.448  1.00  0.00     0.157 A 
ATOM     11  C   UNL     1      75.095  82.494  64.161  1.00  0.00     0.056 A 
ATOM     12  C   UNL     1      76.589  82.266  66.527  1.00  0.00     0.050 A 
ATOM     13  C   UNL     1      75.334  81.638  66.424  1.00  0.00     0.009 A 
BRANCH   9  14
ATOM     14  O   UNL     1      76.790  83.938  63.241  1.00  0.00    -0.493 OA
ATOM     15  C   UNL     1      76.465  85.330  63.394  1.00  0.00     0.278 C 
ENDBRANCH   9  14
BRANCH  10  16
ATOM     16  O   UNL     1      78.317  83.596  65.576  1.00  0.00    -0.504 OA
ATOM     17  H   UNL     1      78.624  83.887  64.714  1.00  0.00     0.293 HD
ENDBRANCH  10  16
ENDBRANCH   7   8
ENDBRANCH   4   7
ENDBRANCH   2   3
ENDBRANCH   1   2
BRANCH   1  18
ATOM     18  C   UNL     1      72.101  84.309  68.102  1.00  0.00     0.001 C 
BRANCH  18  19
ATOM     19  C   UNL     1      72.683  85.497  67.295  1.00  0.00     0.004 C 
BRANCH  19  20
ATOM     20  C   UNL     1      74.078  85.152  66.703  1.00  0.00     0.027 C 
BRANCH  20  21
ATOM     21  C   UNL     1      75.187  85.544  67.555  1.00  0.00    -0.031 C 
ATOM     22  C   UNL     1      75.524  84.855  68.659  1.00  0.00    -0.028 C 
BRANCH  22  23
ATOM     23  C   UNL     1      76.637  85.219  69.533  1.00  0.00     0.005 C 
ATOM     24  C   UNL     1      76.700  84.261  70.752  1.00  0.00     0.012 C 
ATOM     25  C   UNL     1      77.966  85.240  68.730  1.00  0.00     0.012 C 
ENDBRANCH  22  23
ENDBRANCH  20  21
ENDBRANCH  19  20
ENDBRANCH  18  19
ENDBRANCH   1  18
TORSDOF 11
ENDMDL
MODEL 6
REMARK VINA RESULT:    -5.806      1.041      2.089
REMARK INTER + INTRA:         -10.041
REMARK INTER:                  -9.231
REMARK INTRA:                  -0.810
REMARK UNBOUND:                -0.671
REMARK SMILES COc1cc(CNC(=O)CCCCC/C=C/C(C)C)ccc1O
REMARK SMILES IDX 11 1 10 2 8 3 7 4 9 6 6 7 5 8 3 9 22 10 4 11 21 12 20 13
REMARK SMILES IDX 2 14 1 15 23 16 12 18 13 19 14 20 15 21 16 22 17 23 18 24
REMARK SMILES IDX 19 25
REMARK H PARENT 7 5 23 17
REMARK Flexibility Score: inf
ROOT
ATOM      1  C   UNL     1      93.781  98.662  74.660  1.00  0.00     0.010 C 
ENDROOT
BRANCH   1   2
ATOM      2  C   UNL     1      93.946  99.687  73.508  1.00  0.00     0.100 C 
BRANCH   2   3
ATOM      3  C   UNL     1      92.718 100.440  73.194  1.00  0.00     0.220 C 
ATOM      4  N   UNL     1      92.224 100.435  71.925  1.00  0.00    -0.352 N 
ATOM      5  H   UNL     1      92.802  99.952  71.251  1.00  0.00     0.163 HD
ATOM      6  O   UNL     1      92.132 101.040  74.127  1.00  0.00    -0.275 OA
BRANCH   4   7
ATOM      7  C   UNL     1      91.000 101.037  71.509  1.00  0.00     0.151 C 
BRANCH   7   8
ATOM      8  C   UNL     1      90.245 100.192  70.547  1.00  0.00    -0.025 A 
ATOM      9  C   UNL     1      89.794  98.002  69.525  1.00  0.00     0.160 A 
ATOM     10  C   UNL     1      88.838  98.597  68.673  1.00  0.00     0.157 A 
ATOM     11  C   UNL     1      90.496  98.804  70.447  1.00  0.00     0.056 A 
ATOM     12  C   UNL     1      88.568  99.974  68.776  1.00  0.00     0.050 A 
ATOM     13  C   UNL     1      89.259 100.764  69.713  1.00  0.00     0.009 A 
BRANCH   9  14
ATOM     14  O   UNL     1      90.001  96.648  69.494  1.00  0.00    -0.493 OA
ATOM     15  C   UNL     1      89.613  95.967  70.698  1.00  0.00     0.278 C 
ENDBRANCH   9  14
BRANCH  10  16
ATOM     16  O   UNL     1      88.162  97.865  67.752  1.00  0.00    -0.504 OA
ATOM     17  H   UNL     1      87.994  98.405  66.976  1.00  0.00     0.293 HD
ENDBRANCH  10  16
ENDBRANCH   7   8
ENDBRANCH   4   7
ENDBRANCH   2   3
ENDBRANCH   1   2
BRANCH   1  18
ATOM     18  C   UNL     1      95.060  97.803  74.832  1.00  0.00     0.001 C 
BRANCH  18  19
ATOM     19  C   UNL     1      94.785  96.378  75.375  1.00  0.00     0.004 C 
BRANCH  19  20
ATOM     20  C   UNL     1      93.974  96.423  76.700  1.00  0.00     0.027 C 
BRANCH  20  21
ATOM     21  C   UNL     1      93.129  95.259  76.907  1.00  0.00    -0.031 C 
ATOM     22  C   UNL     1      91.787  95.326  76.856  1.00  0.00    -0.028 C 
BRANCH  22  23
ATOM     23  C   UNL     1      90.911  94.174  77.055  1.00  0.00     0.005 C 
ATOM     24  C   UNL     1      91.470  92.937  76.303  1.00  0.00     0.012 C 
ATOM     25  C   UNL     1      90.716  93.904  78.572  1.00  0.00     0.012 C 
ENDBRANCH  22  23
ENDBRANCH  20  21
ENDBRANCH  19  20
ENDBRANCH  18  19
ENDBRANCH   1  18
TORSDOF 11
ENDMDL
MODEL 7
REMARK VINA RESULT:    -5.780      7.103     10.075
REMARK INTER + INTRA:          -9.999
REMARK INTER:                  -9.020
REMARK INTRA:                  -0.979
REMARK UNBOUND:                -0.671
REMARK SMILES COc1cc(CNC(=O)CCCCC/C=C/C(C)C)ccc1O
REMARK SMILES IDX 11 1 10 2 8 3 7 4 9 6 6 7 5 8 3 9 22 10 4 11 21 12 20 13
REMARK SMILES IDX 2 14 1 15 23 16 12 18 13 19 14 20 15 21 16 22 17 23 18 24
REMARK SMILES IDX 19 25
REMARK H PARENT 7 5 23 17
REMARK Flexibility Score: inf
ROOT
ATOM      1  C   UNL     1      95.138  94.443  78.270  1.00  0.00     0.010 C 
ENDROOT
BRANCH   1   2
ATOM      2  C   UNL     1      95.912  93.918  79.507  1.00  0.00     0.100 C 
BRANCH   2   3
ATOM      3  C   UNL     1      95.564  94.601  80.767  1.00  0.00     0.220 C 
ATOM      4  N   UNL     1      96.457  95.450  81.347  1.00  0.00    -0.352 N 
ATOM      5  H   UNL     1      97.356  95.495  80.888  1.00  0.00     0.163 HD
ATOM      6  O   UNL     1      94.425  94.408  81.254  1.00  0.00    -0.275 OA
BRANCH   4   7
ATOM      7  C   UNL     1      96.213  96.245  82.507  1.00  0.00     0.151 C 
BRANCH   7   8
ATOM      8  C   UNL     1      96.058  97.688  82.189  1.00  0.00    -0.025 A 
ATOM      9  C   UNL     1      96.463  99.603  80.700  1.00  0.00     0.160 A 
ATOM     10  C   UNL     1      95.806 100.453  81.616  1.00  0.00     0.157 A 
ATOM     11  C   UNL     1      96.592  98.231  80.997  1.00  0.00     0.056 A 
ATOM     12  C   UNL     1      95.256  99.921  82.797  1.00  0.00     0.050 A 
ATOM     13  C   UNL     1      95.372  98.547  83.077  1.00  0.00     0.009 A 
BRANCH   9  14
ATOM     14  O   UNL     1      96.924 100.094  79.507  1.00  0.00    -0.493 OA
ATOM     15  C   UNL     1      96.024  99.899  78.404  1.00  0.00     0.278 C 
ENDBRANCH   9  14
BRANCH  10  16
ATOM     16  O   UNL     1      95.685 101.784  81.381  1.00  0.00    -0.504 OA
ATOM     17  H   UNL     1      95.134 101.923  80.607  1.00  0.00     0.293 HD
ENDBRANCH  10  16
ENDBRANCH   7   8
ENDBRANCH   4   7
ENDBRANCH   2   3
ENDBRANCH   1   2
BRANCH   1  18
ATOM     18  C   UNL     1      94.954  95.981  78.337  1.00  0.00     0.001 C 
BRANCH  18  19
ATOM     19  C   UNL     1      94.993  96.673  76.951  1.00  0.00     0.004 C 
BRANCH  19  20
ATOM     20  C   UNL     1      93.590  96.685  76.283  1.00  0.00     0.027 C 
BRANCH  20  21
ATOM     21  C   UNL     1      92.649  95.755  76.884  1.00  0.00    -0.031 C 
ATOM     22  C   UNL     1      91.388  96.108  77.192  1.00  0.00    -0.028 C 
BRANCH  22  23
ATOM     23  C   UNL     1      90.417  95.196  77.792  1.00  0.00     0.005 C 
ATOM     24  C   UNL     1      89.522  94.564  76.693  1.00  0.00     0.012 C 
ATOM     25  C   UNL     1      91.144  94.124  78.648  1.00  0.00     0.012 C 
ENDBRANCH  22  23
ENDBRANCH  20  21
ENDBRANCH  19  20
ENDBRANCH  18  19
ENDBRANCH   1  18
TORSDOF 11
ENDMDL
MODEL 8
REMARK VINA RESULT:    -5.713      2.584      7.927
REMARK INTER + INTRA:          -9.890
REMARK INTER:                  -8.744
REMARK INTRA:                  -1.146
REMARK UNBOUND:                -0.671
REMARK SMILES COc1cc(CNC(=O)CCCCC/C=C/C(C)C)ccc1O
REMARK SMILES IDX 11 1 10 2 8 3 7 4 9 6 6 7 5 8 3 9 22 10 4 11 21 12 20 13
REMARK SMILES IDX 2 14 1 15 23 16 12 18 13 19 14 20 15 21 16 22 17 23 18 24
REMARK SMILES IDX 19 25
REMARK H PARENT 7 5 23 17
REMARK Flexibility Score: inf
ROOT
ATOM      1  C   UNL     1      92.614 101.851  70.198  1.00  0.00     0.010 C 
ENDROOT
BRANCH   1   2
ATOM      2  C   UNL     1      92.636 100.443  70.848  1.00  0.00     0.100 C 
BRANCH   2   3
ATOM      3  C   UNL     1      92.344 100.444  72.293  1.00  0.00     0.220 C 
ATOM      4  N   UNL     1      93.150  99.757  73.148  1.00  0.00    -0.352 N 
ATOM      5  H   UNL     1      93.877  99.216  72.700  1.00  0.00     0.163 HD
ATOM      6  O   UNL     1      91.371 101.121  72.704  1.00  0.00    -0.275 OA
BRANCH   4   7
ATOM      7  C   UNL     1      93.039  99.752  74.571  1.00  0.00     0.151 C 
BRANCH   7   8
ATOM      8  C   UNL     1      93.455  98.460  75.173  1.00  0.00    -0.025 A 
ATOM      9  C   UNL     1      92.889  96.341  76.287  1.00  0.00     0.160 A 
ATOM     10  C   UNL     1      94.261  96.019  76.370  1.00  0.00     0.157 A 
ATOM     11  C   UNL     1      92.498  97.561  75.699  1.00  0.00     0.056 A 
ATOM     12  C   UNL     1      95.222  96.897  75.835  1.00  0.00     0.050 A 
ATOM     13  C   UNL     1      94.821  98.104  75.232  1.00  0.00     0.009 A 
BRANCH   9  14
ATOM     14  O   UNL     1      91.942  95.454  76.725  1.00  0.00    -0.493 OA
ATOM     15  C   UNL     1      90.969  96.025  77.616  1.00  0.00     0.278 C 
ENDBRANCH   9  14
BRANCH  10  16
ATOM     16  O   UNL     1      94.681  94.869  76.954  1.00  0.00    -0.504 OA
ATOM     17  H   UNL     1      95.635  94.796  76.866  1.00  0.00     0.293 HD
ENDBRANCH  10  16
ENDBRANCH   7   8
ENDBRANCH   4   7
ENDBRANCH   2   3
ENDBRANCH   1   2
BRANCH   1  18
ATOM     18  C   UNL     1      92.120 101.783  68.731  1.00  0.00     0.001 C 
BRANCH  18  19
ATOM     19  C   UNL     1      90.770 102.505  68.493  1.00  0.00     0.004 C 
BRANCH  19  20
ATOM     20  C   UNL     1      89.672 101.513  68.019  1.00  0.00     0.027 C 
BRANCH  20  21
ATOM     21  C   UNL     1      89.364 100.476  68.989  1.00  0.00    -0.031 C 
ATOM     22  C   UNL     1      89.246  99.181  68.644  1.00  0.00    -0.028 C 
BRANCH  22  23
ATOM     23  C   UNL     1      88.942  98.115  69.595  1.00  0.00     0.005 C 
ATOM     24  C   UNL     1      89.803  96.860  69.288  1.00  0.00     0.012 C 
ATOM     25  C   UNL     1      89.137  98.622  71.050  1.00  0.00     0.012 C 
ENDBRANCH  22  23
ENDBRANCH  20  21
ENDBRANCH  19  20
ENDBRANCH  18  19
ENDBRANCH   1  18
TORSDOF 11
ENDMDL
MODEL 9
REMARK VINA RESULT:    -5.644     20.083     23.134
REMARK INTER + INTRA:          -9.780
REMARK INTER:                  -7.550
REMARK INTRA:                  -2.230
REMARK UNBOUND:                -0.671
REMARK SMILES COc1cc(CNC(=O)CCCCC/C=C/C(C)C)ccc1O
REMARK SMILES IDX 11 1 10 2 8 3 7 4 9 6 6 7 5 8 3 9 22 10 4 11 21 12 20 13
REMARK SMILES IDX 2 14 1 15 23 16 12 18 13 19 14 20 15 21 16 22 17 23 18 24
REMARK SMILES IDX 19 25
REMARK H PARENT 7 5 23 17
REMARK Flexibility Score: inf
ROOT
ATOM      1  C   UNL     1      75.158  81.183  63.700  1.00  0.00     0.010 C 
ENDROOT
BRANCH   1   2
ATOM      2  C   UNL     1      73.991  80.591  64.531  1.00  0.00     0.100 C 
BRANCH   2   3
ATOM      3  C   UNL     1      73.006  81.592  64.981  1.00  0.00     0.220 C 
ATOM      4  N   UNL     1      73.079  82.094  66.245  1.00  0.00    -0.352 N 
ATOM      5  H   UNL     1      73.790  81.672  66.826  1.00  0.00     0.163 HD
ATOM      6  O   UNL     1      72.142  81.987  64.163  1.00  0.00    -0.275 OA
BRANCH   4   7
ATOM      7  C   UNL     1      72.254  83.132  66.774  1.00  0.00     0.151 C 
BRANCH   7   8
ATOM      8  C   UNL     1      72.991  84.409  66.959  1.00  0.00    -0.025 A 
ATOM      9  C   UNL     1      74.280  86.285  66.029  1.00  0.00     0.160 A 
ATOM     10  C   UNL     1      74.440  86.818  67.327  1.00  0.00     0.157 A 
ATOM     11  C   UNL     1      73.566  85.082  65.856  1.00  0.00     0.056 A 
ATOM     12  C   UNL     1      73.858  86.166  68.429  1.00  0.00     0.050 A 
ATOM     13  C   UNL     1      73.129  84.976  68.246  1.00  0.00     0.009 A 
BRANCH   9  14
ATOM     14  O   UNL     1      74.768  86.958  64.940  1.00  0.00    -0.493 OA
ATOM     15  C   UNL     1      76.087  86.551  64.540  1.00  0.00     0.278 C 
ENDBRANCH   9  14
BRANCH  10  16
ATOM     16  O   UNL     1      75.144  87.957  67.540  1.00  0.00    -0.504 OA
ATOM     17  H   UNL     1      74.602  88.716  67.307  1.00  0.00     0.293 HD
ENDBRANCH  10  16
ENDBRANCH   7   8
ENDBRANCH   4   7
ENDBRANCH   2   3
ENDBRANCH   1   2
BRANCH   1  18
ATOM     18  C   UNL     1      76.420  81.392  64.576  1.00  0.00     0.001 C 
BRANCH  18  19
ATOM     19  C   UNL     1      76.547  82.824  65.154  1.00  0.00     0.004 C 
BRANCH  19  20
ATOM     20  C   UNL     1      76.548  82.810  66.708  1.00  0.00     0.027 C 
BRANCH  20  21
ATOM     21  C   UNL     1      76.900  84.087  67.304  1.00  0.00    -0.031 C 
ATOM     22  C   UNL     1      77.747  84.186  68.344  1.00  0.00    -0.028 C 
BRANCH  22  23
ATOM     23  C   UNL     1      78.126  85.455  68.962  1.00  0.00     0.005 C 
ATOM     24  C   UNL     1      78.200  86.574  67.890  1.00  0.00     0.012 C 
ATOM     25  C   UNL     1      77.144  85.805  70.113  1.00  0.00     0.012 C 
ENDBRANCH  22  23
ENDBRANCH  20  21
ENDBRANCH  19  20
ENDBRANCH  18  19
ENDBRANCH   1  18
TORSDOF 11
ENDMDL
MODEL 10
REMARK VINA RESULT:    -5.624     21.827     24.717
REMARK INTER + INTRA:          -9.747
REMARK INTER:                  -8.320
REMARK INTRA:                  -1.427
REMARK UNBOUND:                -0.671
REMARK SMILES COc1cc(CNC(=O)CCCCC/C=C/C(C)C)ccc1O
REMARK SMILES IDX 11 1 10 2 8 3 7 4 9 6 6 7 5 8 3 9 22 10 4 11 21 12 20 13
REMARK SMILES IDX 2 14 1 15 23 16 12 18 13 19 14 20 15 21 16 22 17 23 18 24
REMARK SMILES IDX 19 25
REMARK H PARENT 7 5 23 17
REMARK Flexibility Score: inf
ROOT
ATOM      1  C   UNL     1      74.705  81.838  64.311  1.00  0.00     0.010 C 
ENDROOT
BRANCH   1   2
ATOM      2  C   UNL     1      73.274  81.661  63.742  1.00  0.00     0.100 C 
BRANCH   2   3
ATOM      3  C   UNL     1      72.347  82.751  64.098  1.00  0.00     0.220 C 
ATOM      4  N   UNL     1      71.337  82.521  64.982  1.00  0.00    -0.352 N 
ATOM      5  H   UNL     1      71.253  81.560  65.284  1.00  0.00     0.163 HD
ATOM      6  O   UNL     1      72.543  83.886  63.601  1.00  0.00    -0.275 OA
BRANCH   4   7
ATOM      7  C   UNL     1      70.434  83.505  65.485  1.00  0.00     0.151 C 
BRANCH   7   8
ATOM      8  C   UNL     1      70.439  83.579  66.969  1.00  0.00    -0.025 A 
ATOM      9  C   UNL     1      71.436  84.395  69.064  1.00  0.00     0.160 A 
ATOM     10  C   UNL     1      70.472  83.674  69.802  1.00  0.00     0.157 A 
ATOM     11  C   UNL     1      71.417  84.335  67.656  1.00  0.00     0.056 A 
ATOM     12  C   UNL     1      69.484  82.932  69.130  1.00  0.00     0.050 A 
ATOM     13  C   UNL     1      69.460  82.894  67.723  1.00  0.00     0.009 A 
BRANCH   9  14
ATOM     14  O   UNL     1      72.348  85.190  69.706  1.00  0.00    -0.493 OA
ATOM     15  C   UNL     1      72.034  86.592  69.670  1.00  0.00     0.278 C 
ENDBRANCH   9  14
BRANCH  10  16
ATOM     16  O   UNL     1      70.473  83.682  71.159  1.00  0.00    -0.504 OA
ATOM     17  H   UNL     1      71.379  83.665  71.478  1.00  0.00     0.293 HD
ENDBRANCH  10  16
ENDBRANCH   7   8
ENDBRANCH   4   7
ENDBRANCH   2   3
ENDBRANCH   1   2
BRANCH   1  18
ATOM     18  C   UNL     1      74.759  81.470  65.815  1.00  0.00     0.001 C 
BRANCH  18  19
ATOM     19  C   UNL     1      75.592  82.459  66.669  1.00  0.00     0.004 C 
BRANCH  19  20
ATOM     20  C   UNL     1      74.950  83.874  66.686  1.00  0.00     0.027 C 
BRANCH  20  21
ATOM     21  C   UNL     1      75.143  84.588  67.937  1.00  0.00    -0.031 C 
ATOM     22  C   UNL     1      76.190  84.351  68.746  1.00  0.00    -0.028 C 
BRANCH  22  23
ATOM     23  C   UNL     1      76.415  85.055  70.007  1.00  0.00     0.005 C 
ATOM     24  C   UNL     1      75.942  84.184  71.201  1.00  0.00     0.012 C 
ATOM     25  C   UNL     1      77.907  85.467  70.133  1.00  0.00     0.012 C 
ENDBRANCH  22  23
ENDBRANCH  20  21
ENDBRANCH  19  20
ENDBRANCH  18  19
ENDBRANCH   1  18
TORSDOF 11
ENDMDL
