MODEL 1
REMARK VINA RESULT:    -7.344      0.000      0.000
REMARK INTER + INTRA:          -8.965
REMARK INTER:                  -8.632
REMARK INTRA:                  -0.334
REMARK UNBOUND:                -0.334
REMARK SMILES O=C(/C=C/C=C/c1ccc2c(c1)OCO2)N1CCCCC1
REMARK SMILES IDX 3 1 4 2 2 3 1 4 16 5 17 6 21 7 18 8 20 9 19 10 5 11 6 12
REMARK SMILES IDX 7 13 12 14 8 15 11 16 9 17 13 18 10 19 14 20 15 21
REMARK H PARENT
REMARK Flexibility Score: inf
ROOT
ATOM      1  C   UNL     1      96.136  82.185  82.622  1.00  0.00     0.071 C 
ATOM      2  C   UNL     1      96.976  81.843  81.647  1.00  0.00     0.006 C 
ENDROOT
BRANCH   1   3
ATOM      3  C   UNL     1      96.522  81.874  84.013  1.00  0.00     0.246 C 
ATOM      4  O   UNL     1      97.704  82.026  84.323  1.00  0.00    -0.270 OA
ATOM      5  N   UNL     1      95.526  81.425  84.879  1.00  0.00    -0.339 N 
ATOM      6  C   UNL     1      95.880  81.103  86.264  1.00  0.00     0.120 C 
ATOM      7  C   UNL     1      94.116  81.189  84.534  1.00  0.00     0.120 C 
ATOM      8  C   UNL     1      94.981  81.835  87.254  1.00  0.00     0.022 C 
ATOM      9  C   UNL     1      93.181  81.905  85.507  1.00  0.00     0.022 C 
ATOM     10  C   UNL     1      93.509  81.565  86.958  1.00  0.00     0.004 C 
ENDBRANCH   1   3
BRANCH   2  11
ATOM     11  C   UNL     1      96.685  82.106  80.254  1.00  0.00     0.001 C 
ATOM     12  C   UNL     1      97.566  81.863  79.270  1.00  0.00     0.008 C 
BRANCH  12  13
ATOM     13  C   UNL     1      97.326  82.119  77.840  1.00  0.00    -0.022 A 
ATOM     14  C   UNL     1      98.303  81.771  76.918  1.00  0.00     0.058 A 
ATOM     15  C   UNL     1      96.119  82.705  77.450  1.00  0.00     0.012 A 
ATOM     16  C   UNL     1      98.032  82.030  75.590  1.00  0.00     0.166 A 
ATOM     17  C   UNL     1      95.871  82.956  76.098  1.00  0.00     0.051 A 
ATOM     18  O   UNL     1      98.858  81.765  74.540  1.00  0.00    -0.454 OA
ATOM     19  C   UNL     1      96.848  82.607  75.190  1.00  0.00     0.165 A 
ATOM     20  C   UNL     1      98.061  82.240  73.436  1.00  0.00     0.468 C 
ATOM     21  O   UNL     1      96.784  82.775  73.842  1.00  0.00    -0.454 OA
ENDBRANCH  12  13
ENDBRANCH   2  11
TORSDOF 3
ENDMDL
MODEL 2
REMARK VINA RESULT:    -7.338      2.838      9.148
REMARK INTER + INTRA:          -8.959
REMARK INTER:                  -8.564
REMARK INTRA:                  -0.395
REMARK UNBOUND:                -0.334
REMARK SMILES O=C(/C=C/C=C/c1ccc2c(c1)OCO2)N1CCCCC1
REMARK SMILES IDX 3 1 4 2 2 3 1 4 16 5 17 6 21 7 18 8 20 9 19 10 5 11 6 12
REMARK SMILES IDX 7 13 12 14 8 15 11 16 9 17 13 18 10 19 14 20 15 21
REMARK H PARENT
REMARK Flexibility Score: inf
ROOT
ATOM      1  C   UNL     1      97.721  81.454  78.750  1.00  0.00     0.071 C 
ATOM      2  C   UNL     1      97.797  80.610  79.778  1.00  0.00     0.006 C 
ENDROOT
BRANCH   1   3
ATOM      3  C   UNL     1      98.443  81.105  77.510  1.00  0.00     0.246 C 
ATOM      4  O   UNL     1      99.304  80.228  77.581  1.00  0.00    -0.270 OA
ATOM      5  N   UNL     1      98.105  81.794  76.346  1.00  0.00    -0.339 N 
ATOM      6  C   UNL     1      98.809  81.474  75.101  1.00  0.00     0.120 C 
ATOM      7  C   UNL     1      97.117  82.877  76.233  1.00  0.00     0.120 C 
ATOM      8  C   UNL     1      97.831  81.158  73.974  1.00  0.00     0.022 C 
ATOM      9  C   UNL     1      96.118  82.599  75.109  1.00  0.00     0.022 C 
ATOM     10  C   UNL     1      96.824  82.290  73.792  1.00  0.00     0.004 C 
ENDBRANCH   1   3
BRANCH   2  11
ATOM     11  C   UNL     1      97.124  80.865  81.034  1.00  0.00     0.001 C 
ATOM     12  C   UNL     1      96.783  82.099  81.438  1.00  0.00     0.008 C 
BRANCH  12  13
ATOM     13  C   UNL     1      96.107  82.416  82.707  1.00  0.00    -0.022 A 
ATOM     14  C   UNL     1      96.046  83.737  83.130  1.00  0.00     0.058 A 
ATOM     15  C   UNL     1      95.544  81.376  83.452  1.00  0.00     0.012 A 
ATOM     16  C   UNL     1      95.402  83.983  84.325  1.00  0.00     0.166 A 
ATOM     17  C   UNL     1      94.898  81.654  84.659  1.00  0.00     0.051 A 
ATOM     18  O   UNL     1      95.238  85.203  84.907  1.00  0.00    -0.454 OA
ATOM     19  C   UNL     1      94.843  82.970  85.069  1.00  0.00     0.165 A 
ATOM     20  C   UNL     1      94.514  84.843  86.100  1.00  0.00     0.468 C 
ATOM     21  O   UNL     1      94.259  83.427  86.210  1.00  0.00    -0.454 OA
ENDBRANCH  12  13
ENDBRANCH   2  11
TORSDOF 3
ENDMDL
MODEL 3
REMARK VINA RESULT:    -6.954      3.080      9.702
REMARK INTER + INTRA:          -8.508
REMARK INTER:                  -8.191
REMARK INTRA:                  -0.317
REMARK UNBOUND:                -0.334
REMARK SMILES O=C(/C=C/C=C/c1ccc2c(c1)OCO2)N1CCCCC1
REMARK SMILES IDX 3 1 4 2 2 3 1 4 16 5 17 6 21 7 18 8 20 9 19 10 5 11 6 12
REMARK SMILES IDX 7 13 12 14 8 15 11 16 9 17 13 18 10 19 14 20 15 21
REMARK H PARENT
REMARK Flexibility Score: inf
ROOT
ATOM      1  C   UNL     1      98.018  82.027  76.745  1.00  0.00     0.071 C 
ATOM      2  C   UNL     1      97.063  82.086  77.671  1.00  0.00     0.006 C 
ENDROOT
BRANCH   1   3
ATOM      3  C   UNL     1      97.680  82.450  75.371  1.00  0.00     0.246 C 
ATOM      4  O   UNL     1      96.496  82.680  75.122  1.00  0.00    -0.270 OA
ATOM      5  N   UNL     1      98.720  82.555  74.449  1.00  0.00    -0.339 N 
ATOM      6  C   UNL     1      98.415  82.967  73.076  1.00  0.00     0.120 C 
ATOM      7  C   UNL     1     100.136  82.246  74.698  1.00  0.00     0.120 C 
ATOM      8  C   UNL     1      99.280  84.146  72.643  1.00  0.00     0.022 C 
ATOM      9  C   UNL     1     101.038  83.404  74.272  1.00  0.00     0.022 C 
ATOM     10  C   UNL     1     100.761  83.836  72.835  1.00  0.00     0.004 C 
ENDBRANCH   1   3
BRANCH   2  11
ATOM     11  C   UNL     1      97.298  81.693  79.044  1.00  0.00     0.001 C 
ATOM     12  C   UNL     1      96.675  82.273  80.083  1.00  0.00     0.008 C 
BRANCH  12  13
ATOM     13  C   UNL     1      96.883  81.918  81.497  1.00  0.00    -0.022 A 
ATOM     14  C   UNL     1      97.730  80.865  81.812  1.00  0.00     0.058 A 
ATOM     15  C   UNL     1      96.220  82.653  82.484  1.00  0.00     0.012 A 
ATOM     16  C   UNL     1      97.893  80.571  83.151  1.00  0.00     0.166 A 
ATOM     17  C   UNL     1      96.403  82.333  83.831  1.00  0.00     0.051 A 
ATOM     18  O   UNL     1      98.675  79.580  83.661  1.00  0.00    -0.454 OA
ATOM     19  C   UNL     1      97.247  81.285  84.134  1.00  0.00     0.165 A 
ATOM     20  C   UNL     1      98.449  79.752  85.075  1.00  0.00     0.468 C 
ATOM     21  O   UNL     1      97.544  80.832  85.382  1.00  0.00    -0.454 OA
ENDBRANCH  12  13
ENDBRANCH   2  11
TORSDOF 3
ENDMDL
MODEL 4
REMARK VINA RESULT:    -6.816     16.339     19.576
REMARK INTER + INTRA:          -8.345
REMARK INTER:                  -8.028
REMARK INTRA:                  -0.318
REMARK UNBOUND:                -0.334
REMARK SMILES O=C(/C=C/C=C/c1ccc2c(c1)OCO2)N1CCCCC1
REMARK SMILES IDX 3 1 4 2 2 3 1 4 16 5 17 6 21 7 18 8 20 9 19 10 5 11 6 12
REMARK SMILES IDX 7 13 12 14 8 15 11 16 9 17 13 18 10 19 14 20 15 21
REMARK H PARENT
REMARK Flexibility Score: inf
ROOT
ATOM      1  C   UNL     1      92.505  99.253  71.960  1.00  0.00     0.071 C 
ATOM      2  C   UNL     1      93.618  99.029  72.657  1.00  0.00     0.006 C 
ENDROOT
BRANCH   1   3
ATOM      3  C   UNL     1      92.610 100.050  70.722  1.00  0.00     0.246 C 
ATOM      4  O   UNL     1      93.738 100.377  70.350  1.00  0.00    -0.270 OA
ATOM      5  N   UNL     1      91.429 100.381  70.061  1.00  0.00    -0.339 N 
ATOM      6  C   UNL     1      91.501 101.176  68.831  1.00  0.00     0.120 C 
ATOM      7  C   UNL     1      90.065 100.048  70.498  1.00  0.00     0.120 C 
ATOM      8  C   UNL     1      90.747 100.505  67.688  1.00  0.00     0.022 C 
ATOM      9  C   UNL     1      89.274  99.375  69.377  1.00  0.00     0.022 C 
ATOM     10  C   UNL     1      89.308 100.196  68.091  1.00  0.00     0.004 C 
ENDBRANCH   1   3
BRANCH   2  11
ATOM     11  C   UNL     1      93.616  98.260  73.884  1.00  0.00     0.001 C 
ATOM     12  C   UNL     1      94.168  97.040  73.977  1.00  0.00     0.008 C 
BRANCH  12  13
ATOM     13  C   UNL     1      94.187  96.213  75.196  1.00  0.00    -0.022 A 
ATOM     14  C   UNL     1      93.052  95.491  75.540  1.00  0.00     0.058 A 
ATOM     15  C   UNL     1      95.348  96.177  75.972  1.00  0.00     0.012 A 
ATOM     16  C   UNL     1      93.119  94.731  76.689  1.00  0.00     0.166 A 
ATOM     17  C   UNL     1      95.388  95.399  77.131  1.00  0.00     0.051 A 
ATOM     18  O   UNL     1      92.118  93.958  77.194  1.00  0.00    -0.454 OA
ATOM     19  C   UNL     1      94.255  94.685  77.464  1.00  0.00     0.165 A 
ATOM     20  C   UNL     1      92.752  93.422  78.372  1.00  0.00     0.468 C 
ATOM     21  O   UNL     1      94.108  93.879  78.550  1.00  0.00    -0.454 OA
ENDBRANCH  12  13
ENDBRANCH   2  11
TORSDOF 3
ENDMDL
MODEL 5
REMARK VINA RESULT:    -6.640      3.031      9.796
REMARK INTER + INTRA:          -8.138
REMARK INTER:                  -7.761
REMARK INTRA:                  -0.378
REMARK UNBOUND:                -0.334
REMARK SMILES O=C(/C=C/C=C/c1ccc2c(c1)OCO2)N1CCCCC1
REMARK SMILES IDX 3 1 4 2 2 3 1 4 16 5 17 6 21 7 18 8 20 9 19 10 5 11 6 12
REMARK SMILES IDX 7 13 12 14 8 15 11 16 9 17 13 18 10 19 14 20 15 21
REMARK H PARENT
REMARK Flexibility Score: inf
ROOT
ATOM      1  C   UNL     1      97.878  81.978  76.150  1.00  0.00     0.071 C 
ATOM      2  C   UNL     1      96.728  82.234  76.770  1.00  0.00     0.006 C 
ENDROOT
BRANCH   1   3
ATOM      3  C   UNL     1      97.880  81.948  74.673  1.00  0.00     0.246 C 
ATOM      4  O   UNL     1      96.832  82.243  74.097  1.00  0.00    -0.270 OA
ATOM      5  N   UNL     1      99.063  81.585  74.032  1.00  0.00    -0.339 N 
ATOM      6  C   UNL     1      99.093  81.541  72.567  1.00  0.00     0.120 C 
ATOM      7  C   UNL     1     100.318  81.184  74.685  1.00  0.00     0.120 C 
ATOM      8  C   UNL     1     100.248  82.366  72.009  1.00  0.00     0.022 C 
ATOM      9  C   UNL     1     101.502  81.988  74.149  1.00  0.00     0.022 C 
ATOM     10  C   UNL     1     101.575  81.937  72.626  1.00  0.00     0.004 C 
ENDBRANCH   1   3
BRANCH   2  11
ATOM     11  C   UNL     1      96.627  82.284  78.213  1.00  0.00     0.001 C 
ATOM     12  C   UNL     1      97.399  81.540  79.022  1.00  0.00     0.008 C 
BRANCH  12  13
ATOM     13  C   UNL     1      97.332  81.546  80.493  1.00  0.00    -0.022 A 
ATOM     14  C   UNL     1      96.510  82.467  81.128  1.00  0.00     0.058 A 
ATOM     15  C   UNL     1      98.098  80.623  81.209  1.00  0.00     0.012 A 
ATOM     16  C   UNL     1      96.481  82.433  82.507  1.00  0.00     0.166 A 
ATOM     17  C   UNL     1      98.049  80.611  82.605  1.00  0.00     0.051 A 
ATOM     18  O   UNL     1      95.744  83.250  83.310  1.00  0.00    -0.454 OA
ATOM     19  C   UNL     1      97.229  81.530  83.226  1.00  0.00     0.165 A 
ATOM     20  C   UNL     1      96.114  82.758  84.615  1.00  0.00     0.468 C 
ATOM     21  O   UNL     1      97.056  81.667  84.569  1.00  0.00    -0.454 OA
ENDBRANCH  12  13
ENDBRANCH   2  11
TORSDOF 3
ENDMDL
MODEL 6
REMARK VINA RESULT:    -6.507      2.791      9.562
REMARK INTER + INTRA:          -7.982
REMARK INTER:                  -7.615
REMARK INTRA:                  -0.367
REMARK UNBOUND:                -0.334
REMARK SMILES O=C(/C=C/C=C/c1ccc2c(c1)OCO2)N1CCCCC1
REMARK SMILES IDX 3 1 4 2 2 3 1 4 16 5 17 6 21 7 18 8 20 9 19 10 5 11 6 12
REMARK SMILES IDX 7 13 12 14 8 15 11 16 9 17 13 18 10 19 14 20 15 21
REMARK H PARENT
REMARK Flexibility Score: inf
ROOT
ATOM      1  C   UNL     1      96.765  81.547  77.242  1.00  0.00     0.071 C 
ATOM      2  C   UNL     1      97.523  82.048  78.216  1.00  0.00     0.006 C 
ENDROOT
BRANCH   1   3
ATOM      3  C   UNL     1      97.019  82.000  75.860  1.00  0.00     0.246 C 
ATOM      4  O   UNL     1      97.050  83.214  75.656  1.00  0.00    -0.270 OA
ATOM      5  N   UNL     1      97.201  81.026  74.880  1.00  0.00    -0.339 N 
ATOM      6  C   UNL     1      97.450  81.445  73.498  1.00  0.00     0.120 C 
ATOM      7  C   UNL     1      97.127  79.570  75.077  1.00  0.00     0.120 C 
ATOM      8  C   UNL     1      98.704  80.787  72.933  1.00  0.00     0.022 C 
ATOM      9  C   UNL     1      98.367  78.872  74.520  1.00  0.00     0.022 C 
ATOM     10  C   UNL     1      98.634  79.269  73.070  1.00  0.00     0.004 C 
ENDBRANCH   1   3
BRANCH   2  11
ATOM     11  C   UNL     1      97.349  81.666  79.601  1.00  0.00     0.001 C 
ATOM     12  C   UNL     1      96.619  82.386  80.467  1.00  0.00     0.008 C 
BRANCH  12  13
ATOM     13  C   UNL     1      96.416  82.047  81.886  1.00  0.00    -0.022 A 
ATOM     14  C   UNL     1      96.029  83.045  82.770  1.00  0.00     0.058 A 
ATOM     15  C   UNL     1      96.620  80.730  82.304  1.00  0.00     0.012 A 
ATOM     16  C   UNL     1      95.851  82.679  84.089  1.00  0.00     0.166 A 
ATOM     17  C   UNL     1      96.433  80.387  83.645  1.00  0.00     0.051 A 
ATOM     18  O   UNL     1      95.477  83.507  85.103  1.00  0.00    -0.454 OA
ATOM     19  C   UNL     1      96.048  81.386  84.515  1.00  0.00     0.165 A 
ATOM     20  C   UNL     1      95.460  82.588  86.215  1.00  0.00     0.468 C 
ATOM     21  O   UNL     1      95.821  81.241  85.849  1.00  0.00    -0.454 OA
ENDBRANCH  12  13
ENDBRANCH   2  11
TORSDOF 3
ENDMDL
MODEL 7
REMARK VINA RESULT:    -6.250      1.852      2.633
REMARK INTER + INTRA:          -7.681
REMARK INTER:                  -7.367
REMARK INTRA:                  -0.314
REMARK UNBOUND:                -0.334
REMARK SMILES O=C(/C=C/C=C/c1ccc2c(c1)OCO2)N1CCCCC1
REMARK SMILES IDX 3 1 4 2 2 3 1 4 16 5 17 6 21 7 18 8 20 9 19 10 5 11 6 12
REMARK SMILES IDX 7 13 12 14 8 15 11 16 9 17 13 18 10 19 14 20 15 21
REMARK H PARENT
REMARK Flexibility Score: inf
ROOT
ATOM      1  C   UNL     1      97.041  81.121  80.956  1.00  0.00     0.071 C 
ATOM      2  C   UNL     1      96.953  82.050  80.006  1.00  0.00     0.006 C 
ENDROOT
BRANCH   1   3
ATOM      3  C   UNL     1      96.437  81.413  82.271  1.00  0.00     0.246 C 
ATOM      4  O   UNL     1      96.038  82.561  82.472  1.00  0.00    -0.270 OA
ATOM      5  N   UNL     1      96.365  80.374  83.198  1.00  0.00    -0.339 N 
ATOM      6  C   UNL     1      95.775  80.636  84.514  1.00  0.00     0.120 C 
ATOM      7  C   UNL     1      96.870  79.006  83.011  1.00  0.00     0.120 C 
ATOM      8  C   UNL     1      94.674  79.633  84.840  1.00  0.00     0.022 C 
ATOM      9  C   UNL     1      95.794  77.970  83.332  1.00  0.00     0.022 C 
ATOM     10  C   UNL     1      95.182  78.201  84.711  1.00  0.00     0.004 C 
ENDBRANCH   1   3
BRANCH   2  11
ATOM     11  C   UNL     1      97.514  81.856  78.685  1.00  0.00     0.001 C 
ATOM     12  C   UNL     1      96.986  82.413  77.583  1.00  0.00     0.008 C 
BRANCH  12  13
ATOM     13  C   UNL     1      97.511  82.242  76.217  1.00  0.00    -0.022 A 
ATOM     14  C   UNL     1      98.798  81.752  76.044  1.00  0.00     0.058 A 
ATOM     15  C   UNL     1      96.697  82.579  75.133  1.00  0.00     0.012 A 
ATOM     16  C   UNL     1      99.244  81.609  74.746  1.00  0.00     0.166 A 
ATOM     17  C   UNL     1      97.175  82.425  73.829  1.00  0.00     0.051 A 
ATOM     18  O   UNL     1     100.468  81.148  74.370  1.00  0.00    -0.454 OA
ATOM     19  C   UNL     1      98.454  81.936  73.668  1.00  0.00     0.165 A 
ATOM     20  C   UNL     1     100.360  81.223  72.934  1.00  0.00     0.468 C 
ATOM     21  O   UNL     1      99.085  81.722  72.481  1.00  0.00    -0.454 OA
ENDBRANCH  12  13
ENDBRANCH   2  11
TORSDOF 3
ENDMDL
MODEL 8
REMARK VINA RESULT:    -6.241     23.675     25.127
REMARK INTER + INTRA:          -7.670
REMARK INTER:                  -7.310
REMARK INTRA:                  -0.359
REMARK UNBOUND:                -0.334
REMARK SMILES O=C(/C=C/C=C/c1ccc2c(c1)OCO2)N1CCCCC1
REMARK SMILES IDX 3 1 4 2 2 3 1 4 16 5 17 6 21 7 18 8 20 9 19 10 5 11 6 12
REMARK SMILES IDX 7 13 12 14 8 15 11 16 9 17 13 18 10 19 14 20 15 21
REMARK H PARENT
REMARK Flexibility Score: inf
ROOT
ATOM      1  C   UNL     1      75.438  92.586  71.175  1.00  0.00     0.071 C 
ATOM      2  C   UNL     1      74.611  92.171  70.218  1.00  0.00     0.006 C 
ENDROOT
BRANCH   1   3
ATOM      3  C   UNL     1      75.271  93.960  71.690  1.00  0.00     0.246 C 
ATOM      4  O   UNL     1      74.329  94.621  71.250  1.00  0.00    -0.270 OA
ATOM      5  N   UNL     1      76.191  94.418  72.631  1.00  0.00    -0.339 N 
ATOM      6  C   UNL     1      76.054  95.780  73.156  1.00  0.00     0.120 C 
ATOM      7  C   UNL     1      77.352  93.675  73.145  1.00  0.00     0.120 C 
ATOM      8  C   UNL     1      76.035  95.790  74.681  1.00  0.00     0.022 C 
ATOM      9  C   UNL     1      77.371  93.666  74.673  1.00  0.00     0.022 C 
ATOM     10  C   UNL     1      77.258  95.075  75.247  1.00  0.00     0.004 C 
ENDBRANCH   1   3
BRANCH   2  11
ATOM     11  C   UNL     1      74.697  90.842  69.651  1.00  0.00     0.001 C 
ATOM     12  C   UNL     1      75.765  90.416  68.957  1.00  0.00     0.008 C 
BRANCH  12  13
ATOM     13  C   UNL     1      75.900  89.080  68.352  1.00  0.00    -0.022 A 
ATOM     14  C   UNL     1      74.871  88.161  68.505  1.00  0.00     0.058 A 
ATOM     15  C   UNL     1      77.063  88.773  67.641  1.00  0.00     0.012 A 
ATOM     16  C   UNL     1      75.044  86.923  67.921  1.00  0.00     0.166 A 
ATOM     17  C   UNL     1      77.212  87.512  67.059  1.00  0.00     0.051 A 
ATOM     18  O   UNL     1      74.156  85.892  67.958  1.00  0.00    -0.454 OA
ATOM     19  C   UNL     1      76.183  86.607  67.217  1.00  0.00     0.165 A 
ATOM     20  C   UNL     1      74.865  84.891  67.199  1.00  0.00     0.468 C 
ATOM     21  O   UNL     1      76.152  85.338  66.725  1.00  0.00    -0.454 OA
ENDBRANCH  12  13
ENDBRANCH   2  11
TORSDOF 3
ENDMDL
MODEL 9
REMARK VINA RESULT:    -6.139      2.007      3.187
REMARK INTER + INTRA:          -7.550
REMARK INTER:                  -7.252
REMARK INTRA:                  -0.298
REMARK UNBOUND:                -0.334
REMARK SMILES O=C(/C=C/C=C/c1ccc2c(c1)OCO2)N1CCCCC1
REMARK SMILES IDX 3 1 4 2 2 3 1 4 16 5 17 6 21 7 18 8 20 9 19 10 5 11 6 12
REMARK SMILES IDX 7 13 12 14 8 15 11 16 9 17 13 18 10 19 14 20 15 21
REMARK H PARENT
REMARK Flexibility Score: inf
ROOT
ATOM      1  C   UNL     1      94.635  81.987  84.490  1.00  0.00     0.071 C 
ATOM      2  C   UNL     1      95.747  82.274  83.817  1.00  0.00     0.006 C 
ENDROOT
BRANCH   1   3
ATOM      3  C   UNL     1      94.534  82.440  85.891  1.00  0.00     0.246 C 
ATOM      4  O   UNL     1      95.523  82.982  86.387  1.00  0.00    -0.270 OA
ATOM      5  N   UNL     1      93.331  82.221  86.560  1.00  0.00    -0.339 N 
ATOM      6  C   UNL     1      93.203  82.656  87.954  1.00  0.00     0.120 C 
ATOM      7  C   UNL     1      92.147  81.539  86.017  1.00  0.00     0.120 C 
ATOM      8  C   UNL     1      91.971  83.532  88.154  1.00  0.00     0.022 C 
ATOM      9  C   UNL     1      90.888  82.386  86.202  1.00  0.00     0.022 C 
ATOM     10  C   UNL     1      90.713  82.829  87.652  1.00  0.00     0.004 C 
ENDBRANCH   1   3
BRANCH   2  11
ATOM     11  C   UNL     1      95.939  81.872  82.440  1.00  0.00     0.001 C 
ATOM     12  C   UNL     1      97.136  81.515  81.947  1.00  0.00     0.008 C 
BRANCH  12  13
ATOM     13  C   UNL     1      97.388  81.106  80.555  1.00  0.00    -0.022 A 
ATOM     14  C   UNL     1      97.430  82.076  79.563  1.00  0.00     0.058 A 
ATOM     15  C   UNL     1      97.580  79.751  80.271  1.00  0.00     0.012 A 
ATOM     16  C   UNL     1      97.669  81.644  78.274  1.00  0.00     0.166 A 
ATOM     17  C   UNL     1      97.820  79.342  78.957  1.00  0.00     0.051 A 
ATOM     18  O   UNL     1      97.746  82.435  77.169  1.00  0.00    -0.454 OA
ATOM     19  C   UNL     1      97.860  80.313  77.979  1.00  0.00     0.165 A 
ATOM     20  C   UNL     1      98.006  81.452  76.146  1.00  0.00     0.468 C 
ATOM     21  O   UNL     1      98.079  80.104  76.653  1.00  0.00    -0.454 OA
ENDBRANCH  12  13
ENDBRANCH   2  11
TORSDOF 3
ENDMDL
MODEL 10
REMARK VINA RESULT:    -6.137     15.182     18.008
REMARK INTER + INTRA:          -7.547
REMARK INTER:                  -7.196
REMARK INTRA:                  -0.351
REMARK UNBOUND:                -0.334
REMARK SMILES O=C(/C=C/C=C/c1ccc2c(c1)OCO2)N1CCCCC1
REMARK SMILES IDX 3 1 4 2 2 3 1 4 16 5 17 6 21 7 18 8 20 9 19 10 5 11 6 12
REMARK SMILES IDX 7 13 12 14 8 15 11 16 9 17 13 18 10 19 14 20 15 21
REMARK H PARENT
REMARK Flexibility Score: inf
ROOT
ATOM      1  C   UNL     1      94.902  98.217  73.815  1.00  0.00     0.071 C 
ATOM      2  C   UNL     1      94.987  96.888  73.799  1.00  0.00     0.006 C 
ENDROOT
BRANCH   1   3
ATOM      3  C   UNL     1      94.784  98.921  72.522  1.00  0.00     0.246 C 
ATOM      4  O   UNL     1      95.050  98.285  71.502  1.00  0.00    -0.270 OA
ATOM      5  N   UNL     1      94.385 100.256  72.544  1.00  0.00    -0.339 N 
ATOM      6  C   UNL     1      94.264 100.983  71.276  1.00  0.00     0.120 C 
ATOM      7  C   UNL     1      94.103 101.060  73.742  1.00  0.00     0.120 C 
ATOM      8  C   UNL     1      92.896 101.643  71.140  1.00  0.00     0.022 C 
ATOM      9  C   UNL     1      92.739 101.742  73.643  1.00  0.00     0.022 C 
ATOM     10  C   UNL     1      92.595 102.531  72.344  1.00  0.00     0.004 C 
ENDBRANCH   1   3
BRANCH   2  11
ATOM     11  C   UNL     1      95.106  96.111  75.014  1.00  0.00     0.001 C 
ATOM     12  C   UNL     1      94.050  95.548  75.623  1.00  0.00     0.008 C 
BRANCH  12  13
ATOM     13  C   UNL     1      94.113  94.755  76.862  1.00  0.00    -0.022 A 
ATOM     14  C   UNL     1      95.300  94.717  77.580  1.00  0.00     0.058 A 
ATOM     15  C   UNL     1      92.974  94.063  77.282  1.00  0.00     0.012 A 
ATOM     16  C   UNL     1      95.310  93.962  78.735  1.00  0.00     0.166 A 
ATOM     17  C   UNL     1      93.012  93.305  78.455  1.00  0.00     0.051 A 
ATOM     18  O   UNL     1      96.371  93.797  79.572  1.00  0.00    -0.454 OA
ATOM     19  C   UNL     1      94.197  93.274  79.161  1.00  0.00     0.165 A 
ATOM     20  C   UNL     1      95.800  92.930  80.572  1.00  0.00     0.468 C 
ATOM     21  O   UNL     1      94.420  92.594  80.318  1.00  0.00    -0.454 OA
ENDBRANCH  12  13
ENDBRANCH   2  11
TORSDOF 3
ENDMDL
