MODEL 1
REMARK VINA RESULT:    -6.452      0.000      0.000
REMARK INTER + INTRA:         -11.139
REMARK INTER:                 -10.413
REMARK INTRA:                  -0.726
REMARK UNBOUND:                -0.726
REMARK SMILES COc1cc(CNC(=O)CCCCC/C=C/C(C)C)ccc1O
REMARK SMILES IDX 11 1 10 2 8 3 7 4 9 6 6 7 5 8 3 9 22 10 4 11 21 12 20 13
REMARK SMILES IDX 2 14 1 15 23 16 12 18 13 19 14 20 15 21 16 22 17 23 18 24
REMARK SMILES IDX 19 25
REMARK H PARENT 7 5 23 17
REMARK Flexibility Score: inf
ROOT
ATOM      1  C   UNL     1      95.834  82.742  83.180  1.00  0.00     0.010 C 
ENDROOT
BRANCH   1   2
ATOM      2  C   UNL     1      95.367  81.314  83.561  1.00  0.00     0.100 C 
BRANCH   2   3
ATOM      3  C   UNL     1      94.371  81.278  84.649  1.00  0.00     0.220 C 
ATOM      4  N   UNL     1      93.094  81.686  84.412  1.00  0.00    -0.352 N 
ATOM      5  H   UNL     1      92.937  82.066  83.488  1.00  0.00     0.163 HD
ATOM      6  O   UNL     1      94.724  80.828  85.765  1.00  0.00    -0.275 OA
BRANCH   4   7
ATOM      7  C   UNL     1      92.013  81.613  85.341  1.00  0.00     0.151 C 
BRANCH   7   8
ATOM      8  C   UNL     1      90.988  80.612  84.948  1.00  0.00    -0.025 A 
ATOM      9  C   UNL     1      88.680  80.058  84.304  1.00  0.00     0.160 A 
ATOM     10  C   UNL     1      89.024  78.689  84.252  1.00  0.00     0.157 A 
ATOM     11  C   UNL     1      89.661  81.006  84.660  1.00  0.00     0.056 A 
ATOM     12  C   UNL     1      90.345  78.287  84.521  1.00  0.00     0.050 A 
ATOM     13  C   UNL     1      91.323  79.242  84.856  1.00  0.00     0.009 A 
BRANCH   9  14
ATOM     14  O   UNL     1      87.420  80.469  83.959  1.00  0.00    -0.493 OA
ATOM     15  C   UNL     1      86.747  81.223  84.982  1.00  0.00     0.278 C 
ENDBRANCH   9  14
BRANCH  10  16
ATOM     16  O   UNL     1      88.103  77.743  83.942  1.00  0.00    -0.504 OA
ATOM     17  H   UNL     1      88.467  77.147  83.283  1.00  0.00     0.293 HD
ENDBRANCH  10  16
ENDBRANCH   7   8
ENDBRANCH   4   7
ENDBRANCH   2   3
ENDBRANCH   1   2
BRANCH   1  18
ATOM     18  C   UNL     1      96.524  82.754  81.792  1.00  0.00     0.001 C 
BRANCH  18  19
ATOM     19  C   UNL     1      96.753  81.341  81.199  1.00  0.00     0.004 C 
BRANCH  19  20
ATOM     20  C   UNL     1      97.962  81.325  80.223  1.00  0.00     0.027 C 
BRANCH  20  21
ATOM     21  C   UNL     1      97.621  81.704  78.862  1.00  0.00    -0.031 C 
ATOM     22  C   UNL     1      96.990  80.868  78.020  1.00  0.00    -0.028 C 
BRANCH  22  23
ATOM     23  C   UNL     1      96.628  81.220  76.649  1.00  0.00     0.005 C 
ATOM     24  C   UNL     1      96.369  82.746  76.537  1.00  0.00     0.012 C 
ATOM     25  C   UNL     1      97.724  80.734  75.662  1.00  0.00     0.012 C 
ENDBRANCH  22  23
ENDBRANCH  20  21
ENDBRANCH  19  20
ENDBRANCH  18  19
ENDBRANCH   1  18
TORSDOF 11
ENDMDL
MODEL 2
REMARK VINA RESULT:    -6.304     14.967     19.010
REMARK INTER + INTRA:         -10.899
REMARK INTER:                  -9.984
REMARK INTRA:                  -0.915
REMARK UNBOUND:                -0.726
REMARK SMILES COc1cc(CNC(=O)CCCCC/C=C/C(C)C)ccc1O
REMARK SMILES IDX 11 1 10 2 8 3 7 4 9 6 6 7 5 8 3 9 22 10 4 11 21 12 20 13
REMARK SMILES IDX 2 14 1 15 23 16 12 18 13 19 14 20 15 21 16 22 17 23 18 24
REMARK SMILES IDX 19 25
REMARK H PARENT 7 5 23 17
REMARK Flexibility Score: inf
ROOT
ATOM      1  C   UNL     1      93.663  94.426  76.845  1.00  0.00     0.010 C 
ENDROOT
BRANCH   1   2
ATOM      2  C   UNL     1      94.197  94.444  75.390  1.00  0.00     0.100 C 
BRANCH   2   3
ATOM      3  C   UNL     1      94.914  95.681  75.029  1.00  0.00     0.220 C 
ATOM      4  N   UNL     1      94.713  96.251  73.808  1.00  0.00    -0.352 N 
ATOM      5  H   UNL     1      94.116  95.720  73.189  1.00  0.00     0.163 HD
ATOM      6  O   UNL     1      95.669  96.203  75.883  1.00  0.00    -0.275 OA
BRANCH   4   7
ATOM      7  C   UNL     1      95.264  97.491  73.370  1.00  0.00     0.151 C 
BRANCH   7   8
ATOM      8  C   UNL     1      96.285  97.319  72.304  1.00  0.00    -0.025 A 
ATOM      9  C   UNL     1      98.581  97.620  71.476  1.00  0.00     0.160 A 
ATOM     10  C   UNL     1      98.213  97.035  70.245  1.00  0.00     0.157 A 
ATOM     11  C   UNL     1      97.614  97.766  72.491  1.00  0.00     0.056 A 
ATOM     12  C   UNL     1      96.899  96.571  70.054  1.00  0.00     0.050 A 
ATOM     13  C   UNL     1      95.944  96.703  71.079  1.00  0.00     0.009 A 
BRANCH   9  14
ATOM     14  O   UNL     1      99.879  97.995  71.704  1.00  0.00    -0.493 OA
ATOM     15  C   UNL     1     100.333  97.752  73.046  1.00  0.00     0.278 C 
ENDBRANCH   9  14
BRANCH  10  16
ATOM     16  O   UNL     1      99.106  96.903  69.232  1.00  0.00    -0.504 OA
ATOM     17  H   UNL     1      99.749  96.226  69.460  1.00  0.00     0.293 HD
ENDBRANCH  10  16
ENDBRANCH   7   8
ENDBRANCH   4   7
ENDBRANCH   2   3
ENDBRANCH   1   2
BRANCH   1  18
ATOM     18  C   UNL     1      92.500  95.435  77.026  1.00  0.00     0.001 C 
BRANCH  18  19
ATOM     19  C   UNL     1      91.095  94.786  76.950  1.00  0.00     0.004 C 
BRANCH  19  20
ATOM     20  C   UNL     1      91.091  93.365  77.580  1.00  0.00     0.027 C 
BRANCH  20  21
ATOM     21  C   UNL     1      90.306  92.397  76.834  1.00  0.00    -0.031 C 
ATOM     22  C   UNL     1      90.821  91.684  75.817  1.00  0.00    -0.028 C 
BRANCH  22  23
ATOM     23  C   UNL     1      90.061  90.699  75.051  1.00  0.00     0.005 C 
ATOM     24  C   UNL     1      89.262  91.399  73.920  1.00  0.00     0.012 C 
ATOM     25  C   UNL     1      91.006  89.594  74.509  1.00  0.00     0.012 C 
ENDBRANCH  22  23
ENDBRANCH  20  21
ENDBRANCH  19  20
ENDBRANCH  18  19
ENDBRANCH   1  18
TORSDOF 11
ENDMDL
MODEL 3
REMARK VINA RESULT:    -5.945     13.954     16.516
REMARK INTER + INTRA:         -10.320
REMARK INTER:                  -9.285
REMARK INTRA:                  -1.035
REMARK UNBOUND:                -0.726
REMARK SMILES COc1cc(CNC(=O)CCCCC/C=C/C(C)C)ccc1O
REMARK SMILES IDX 11 1 10 2 8 3 7 4 9 6 6 7 5 8 3 9 22 10 4 11 21 12 20 13
REMARK SMILES IDX 2 14 1 15 23 16 12 18 13 19 14 20 15 21 16 22 17 23 18 24
REMARK SMILES IDX 19 25
REMARK H PARENT 7 5 23 17
REMARK Flexibility Score: inf
ROOT
ATOM      1  C   UNL     1      97.474  94.815  79.066  1.00  0.00     0.010 C 
ENDROOT
BRANCH   1   2
ATOM      2  C   UNL     1      97.468  94.336  80.541  1.00  0.00     0.100 C 
BRANCH   2   3
ATOM      3  C   UNL     1      96.765  95.246  81.464  1.00  0.00     0.220 C 
ATOM      4  N   UNL     1      97.402  96.350  81.945  1.00  0.00    -0.352 N 
ATOM      5  H   UNL     1      98.373  96.426  81.677  1.00  0.00     0.163 HD
ATOM      6  O   UNL     1      95.570  94.996  81.753  1.00  0.00    -0.275 OA
BRANCH   4   7
ATOM      7  C   UNL     1      96.811  97.359  82.762  1.00  0.00     0.151 C 
BRANCH   7   8
ATOM      8  C   UNL     1      97.326  97.340  84.156  1.00  0.00    -0.025 A 
ATOM      9  C   UNL     1      96.924  97.258  86.581  1.00  0.00     0.160 A 
ATOM     10  C   UNL     1      98.313  97.359  86.814  1.00  0.00     0.157 A 
ATOM     11  C   UNL     1      96.441  97.258  85.257  1.00  0.00     0.056 A 
ATOM     12  C   UNL     1      99.204  97.424  85.726  1.00  0.00     0.050 A 
ATOM     13  C   UNL     1      98.715  97.404  84.407  1.00  0.00     0.009 A 
BRANCH   9  14
ATOM     14  O   UNL     1      96.056  97.105  87.629  1.00  0.00    -0.493 OA
ATOM     15  C   UNL     1      95.288  98.282  87.932  1.00  0.00     0.278 C 
ENDBRANCH   9  14
BRANCH  10  16
ATOM     16  O   UNL     1      98.817  97.391  88.073  1.00  0.00    -0.504 OA
ATOM     17  H   UNL     1      98.744  96.518  88.468  1.00  0.00     0.293 HD
ENDBRANCH  10  16
ENDBRANCH   7   8
ENDBRANCH   4   7
ENDBRANCH   2   3
ENDBRANCH   1   2
BRANCH   1  18
ATOM     18  C   UNL     1      96.443  94.027  78.218  1.00  0.00     0.001 C 
BRANCH  18  19
ATOM     19  C   UNL     1      95.818  92.819  78.961  1.00  0.00     0.004 C 
BRANCH  19  20
ATOM     20  C   UNL     1      94.294  93.020  79.187  1.00  0.00     0.027 C 
BRANCH  20  21
ATOM     21  C   UNL     1      93.753  94.191  78.518  1.00  0.00    -0.031 C 
ATOM     22  C   UNL     1      92.618  94.147  77.798  1.00  0.00    -0.028 C 
BRANCH  22  23
ATOM     23  C   UNL     1      92.046  95.306  77.118  1.00  0.00     0.005 C 
ATOM     24  C   UNL     1      92.894  95.671  75.870  1.00  0.00     0.012 C 
ATOM     25  C   UNL     1      90.558  95.039  76.761  1.00  0.00     0.012 C 
ENDBRANCH  22  23
ENDBRANCH  20  21
ENDBRANCH  19  20
ENDBRANCH  18  19
ENDBRANCH   1  18
TORSDOF 11
ENDMDL
MODEL 4
REMARK VINA RESULT:    -5.889      3.360      7.836
REMARK INTER + INTRA:         -10.230
REMARK INTER:                  -8.836
REMARK INTRA:                  -1.394
REMARK UNBOUND:                -0.726
REMARK SMILES COc1cc(CNC(=O)CCCCC/C=C/C(C)C)ccc1O
REMARK SMILES IDX 11 1 10 2 8 3 7 4 9 6 6 7 5 8 3 9 22 10 4 11 21 12 20 13
REMARK SMILES IDX 2 14 1 15 23 16 12 18 13 19 14 20 15 21 16 22 17 23 18 24
REMARK SMILES IDX 19 25
REMARK H PARENT 7 5 23 17
REMARK Flexibility Score: inf
ROOT
ATOM      1  C   UNL     1      92.557  83.189  86.506  1.00  0.00     0.010 C 
ENDROOT
BRANCH   1   2
ATOM      2  C   UNL     1      93.569  84.363  86.547  1.00  0.00     0.100 C 
BRANCH   2   3
ATOM      3  C   UNL     1      94.813  84.110  85.797  1.00  0.00     0.220 C 
ATOM      4  N   UNL     1      94.791  84.085  84.436  1.00  0.00    -0.352 N 
ATOM      5  H   UNL     1      93.871  84.174  84.027  1.00  0.00     0.163 HD
ATOM      6  O   UNL     1      95.878  83.963  86.442  1.00  0.00    -0.275 OA
BRANCH   4   7
ATOM      7  C   UNL     1      95.932  83.947  83.590  1.00  0.00     0.151 C 
BRANCH   7   8
ATOM      8  C   UNL     1      96.097  82.565  83.071  1.00  0.00    -0.025 A 
ATOM      9  C   UNL     1      95.856  80.134  83.355  1.00  0.00     0.160 A 
ATOM     10  C   UNL     1      96.463  79.928  82.097  1.00  0.00     0.157 A 
ATOM     11  C   UNL     1      95.685  81.448  83.836  1.00  0.00     0.056 A 
ATOM     12  C   UNL     1      96.861  81.031  81.320  1.00  0.00     0.050 A 
ATOM     13  C   UNL     1      96.669  82.341  81.799  1.00  0.00     0.009 A 
BRANCH   9  14
ATOM     14  O   UNL     1      95.386  79.071  84.080  1.00  0.00    -0.493 OA
ATOM     15  C   UNL     1      96.092  78.840  85.310  1.00  0.00     0.278 C 
ENDBRANCH   9  14
BRANCH  10  16
ATOM     16  O   UNL     1      96.671  78.678  81.611  1.00  0.00    -0.504 OA
ATOM     17  H   UNL     1      96.099  78.058  82.070  1.00  0.00     0.293 HD
ENDBRANCH  10  16
ENDBRANCH   7   8
ENDBRANCH   4   7
ENDBRANCH   2   3
ENDBRANCH   1   2
BRANCH   1  18
ATOM     18  C   UNL     1      93.260  81.835  86.782  1.00  0.00     0.001 C 
BRANCH  18  19
ATOM     19  C   UNL     1      92.805  80.693  85.838  1.00  0.00     0.004 C 
BRANCH  19  20
ATOM     20  C   UNL     1      92.012  81.246  84.621  1.00  0.00     0.027 C 
BRANCH  20  21
ATOM     21  C   UNL     1      90.652  80.744  84.532  1.00  0.00    -0.031 C 
ATOM     22  C   UNL     1      89.582  81.559  84.543  1.00  0.00    -0.028 C 
BRANCH  22  23
ATOM     23  C   UNL     1      88.203  81.087  84.451  1.00  0.00     0.005 C 
ATOM     24  C   UNL     1      87.716  80.575  85.832  1.00  0.00     0.012 C 
ATOM     25  C   UNL     1      87.289  82.205  83.881  1.00  0.00     0.012 C 
ENDBRANCH  22  23
ENDBRANCH  20  21
ENDBRANCH  19  20
ENDBRANCH  18  19
ENDBRANCH   1  18
TORSDOF 11
ENDMDL
MODEL 5
REMARK VINA RESULT:    -5.841      8.110     11.832
REMARK INTER + INTRA:         -10.153
REMARK INTER:                  -8.164
REMARK INTRA:                  -1.989
REMARK UNBOUND:                -0.726
REMARK SMILES COc1cc(CNC(=O)CCCCC/C=C/C(C)C)ccc1O
REMARK SMILES IDX 11 1 10 2 8 3 7 4 9 6 6 7 5 8 3 9 22 10 4 11 21 12 20 13
REMARK SMILES IDX 2 14 1 15 23 16 12 18 13 19 14 20 15 21 16 22 17 23 18 24
REMARK SMILES IDX 19 25
REMARK H PARENT 7 5 23 17
REMARK Flexibility Score: inf
ROOT
ATOM      1  C   UNL     1      97.056  81.244  77.755  1.00  0.00     0.010 C 
ENDROOT
BRANCH   1   2
ATOM      2  C   UNL     1      96.136  82.438  77.396  1.00  0.00     0.100 C 
BRANCH   2   3
ATOM      3  C   UNL     1      96.425  83.046  76.084  1.00  0.00     0.220 C 
ATOM      4  N   UNL     1      97.619  82.808  75.475  1.00  0.00    -0.352 N 
ATOM      5  H   UNL     1      98.273  82.268  76.026  1.00  0.00     0.163 HD
ATOM      6  O   UNL     1      95.534  83.741  75.540  1.00  0.00    -0.275 OA
BRANCH   4   7
ATOM      7  C   UNL     1      97.988  83.251  74.170  1.00  0.00     0.151 C 
BRANCH   7   8
ATOM      8  C   UNL     1      98.270  82.125  73.242  1.00  0.00    -0.025 A 
ATOM      9  C   UNL     1      99.723  81.037  71.583  1.00  0.00     0.160 A 
ATOM     10  C   UNL     1      98.775  80.001  71.434  1.00  0.00     0.157 A 
ATOM     11  C   UNL     1      99.460  82.094  72.478  1.00  0.00     0.056 A 
ATOM     12  C   UNL     1      97.595  80.013  72.201  1.00  0.00     0.050 A 
ATOM     13  C   UNL     1      97.349  81.062  73.106  1.00  0.00     0.009 A 
BRANCH   9  14
ATOM     14  O   UNL     1     100.913  80.989  70.907  1.00  0.00    -0.493 OA
ATOM     15  C   UNL     1     101.492  82.278  70.646  1.00  0.00     0.278 C 
ENDBRANCH   9  14
BRANCH  10  16
ATOM     16  O   UNL     1      98.977  78.981  70.563  1.00  0.00    -0.504 OA
ATOM     17  H   UNL     1      99.778  78.509  70.803  1.00  0.00     0.293 HD
ENDBRANCH  10  16
ENDBRANCH   7   8
ENDBRANCH   4   7
ENDBRANCH   2   3
ENDBRANCH   1   2
BRANCH   1  18
ATOM     18  C   UNL     1      96.692  79.987  76.924  1.00  0.00     0.001 C 
BRANCH  18  19
ATOM     19  C   UNL     1      97.789  78.893  76.935  1.00  0.00     0.004 C 
BRANCH  19  20
ATOM     20  C   UNL     1      98.673  78.964  75.658  1.00  0.00     0.027 C 
BRANCH  20  21
ATOM     21  C   UNL     1      99.802  79.871  75.778  1.00  0.00    -0.031 C 
ATOM     22  C   UNL     1     101.028  79.557  75.323  1.00  0.00    -0.028 C 
BRANCH  22  23
ATOM     23  C   UNL     1     102.181  80.447  75.424  1.00  0.00     0.005 C 
ATOM     24  C   UNL     1     103.314  79.770  76.240  1.00  0.00     0.012 C 
ATOM     25  C   UNL     1     102.652  80.879  74.008  1.00  0.00     0.012 C 
ENDBRANCH  22  23
ENDBRANCH  20  21
ENDBRANCH  19  20
ENDBRANCH  18  19
ENDBRANCH   1  18
TORSDOF 11
ENDMDL
MODEL 6
REMARK VINA RESULT:    -5.835     23.067     25.862
REMARK INTER + INTRA:         -10.143
REMARK INTER:                  -8.119
REMARK INTRA:                  -2.025
REMARK UNBOUND:                -0.726
REMARK SMILES COc1cc(CNC(=O)CCCCC/C=C/C(C)C)ccc1O
REMARK SMILES IDX 11 1 10 2 8 3 7 4 9 6 6 7 5 8 3 9 22 10 4 11 21 12 20 13
REMARK SMILES IDX 2 14 1 15 23 16 12 18 13 19 14 20 15 21 16 22 17 23 18 24
REMARK SMILES IDX 19 25
REMARK H PARENT 7 5 23 17
REMARK Flexibility Score: inf
ROOT
ATOM      1  C   UNL     1      70.898  82.682  64.673  1.00  0.00     0.010 C 
ENDROOT
BRANCH   1   2
ATOM      2  C   UNL     1      70.605  83.429  65.999  1.00  0.00     0.100 C 
BRANCH   2   3
ATOM      3  C   UNL     1      71.226  84.764  66.086  1.00  0.00     0.220 C 
ATOM      4  N   UNL     1      71.453  85.328  67.305  1.00  0.00    -0.352 N 
ATOM      5  H   UNL     1      71.098  84.797  68.088  1.00  0.00     0.163 HD
ATOM      6  O   UNL     1      71.569  85.332  65.022  1.00  0.00    -0.275 OA
BRANCH   4   7
ATOM      7  C   UNL     1      72.130  86.563  67.534  1.00  0.00     0.151 C 
BRANCH   7   8
ATOM      8  C   UNL     1      73.549  86.371  67.934  1.00  0.00    -0.025 A 
ATOM      9  C   UNL     1      75.848  87.223  68.123  1.00  0.00     0.160 A 
ATOM     10  C   UNL     1      76.264  85.981  68.649  1.00  0.00     0.157 A 
ATOM     11  C   UNL     1      74.498  87.406  67.762  1.00  0.00     0.056 A 
ATOM     12  C   UNL     1      75.326  84.950  68.840  1.00  0.00     0.050 A 
ATOM     13  C   UNL     1      73.976  85.147  68.495  1.00  0.00     0.009 A 
BRANCH   9  14
ATOM     14  O   UNL     1      76.735  88.262  68.015  1.00  0.00    -0.493 OA
ATOM     15  C   UNL     1      76.122  89.562  68.026  1.00  0.00     0.278 C 
ENDBRANCH   9  14
BRANCH  10  16
ATOM     16  O   UNL     1      77.560  85.755  68.983  1.00  0.00    -0.504 OA
ATOM     17  H   UNL     1      77.601  85.077  69.662  1.00  0.00     0.293 HD
ENDBRANCH  10  16
ENDBRANCH   7   8
ENDBRANCH   4   7
ENDBRANCH   2   3
ENDBRANCH   1   2
BRANCH   1  18
ATOM     18  C   UNL     1      71.468  81.266  64.943  1.00  0.00     0.001 C 
BRANCH  18  19
ATOM     19  C   UNL     1      72.936  81.087  64.482  1.00  0.00     0.004 C 
BRANCH  19  20
ATOM     20  C   UNL     1      73.929  81.301  65.659  1.00  0.00     0.027 C 
BRANCH  20  21
ATOM     21  C   UNL     1      75.084  82.111  65.309  1.00  0.00    -0.031 C 
ATOM     22  C   UNL     1      75.012  83.447  65.180  1.00  0.00    -0.028 C 
BRANCH  22  23
ATOM     23  C   UNL     1      76.154  84.290  64.835  1.00  0.00     0.005 C 
ATOM     24  C   UNL     1      75.713  85.773  64.717  1.00  0.00     0.012 C 
ATOM     25  C   UNL     1      77.297  84.095  65.869  1.00  0.00     0.012 C 
ENDBRANCH  22  23
ENDBRANCH  20  21
ENDBRANCH  19  20
ENDBRANCH  18  19
ENDBRANCH   1  18
TORSDOF 11
ENDMDL
MODEL 7
REMARK VINA RESULT:    -5.789     23.057     26.256
REMARK INTER + INTRA:         -10.069
REMARK INTER:                  -8.087
REMARK INTRA:                  -1.982
REMARK UNBOUND:                -0.726
REMARK SMILES COc1cc(CNC(=O)CCCCC/C=C/C(C)C)ccc1O
REMARK SMILES IDX 11 1 10 2 8 3 7 4 9 6 6 7 5 8 3 9 22 10 4 11 21 12 20 13
REMARK SMILES IDX 2 14 1 15 23 16 12 18 13 19 14 20 15 21 16 22 17 23 18 24
REMARK SMILES IDX 19 25
REMARK H PARENT 7 5 23 17
REMARK Flexibility Score: inf
ROOT
ATOM      1  C   UNL     1      71.429  81.633  64.665  1.00  0.00     0.010 C 
ENDROOT
BRANCH   1   2
ATOM      2  C   UNL     1      72.730  82.234  64.072  1.00  0.00     0.100 C 
BRANCH   2   3
ATOM      3  C   UNL     1      73.918  82.054  64.928  1.00  0.00     0.220 C 
ATOM      4  N   UNL     1      75.025  82.820  64.721  1.00  0.00    -0.352 N 
ATOM      5  H   UNL     1      74.971  83.430  63.917  1.00  0.00     0.163 HD
ATOM      6  O   UNL     1      73.860  81.217  65.859  1.00  0.00    -0.275 OA
BRANCH   4   7
ATOM      7  C   UNL     1      76.199  82.817  65.531  1.00  0.00     0.151 C 
BRANCH   7   8
ATOM      8  C   UNL     1      76.531  84.165  66.063  1.00  0.00    -0.025 A 
ATOM      9  C   UNL     1      76.498  86.614  65.846  1.00  0.00     0.160 A 
ATOM     10  C   UNL     1      77.215  86.730  67.057  1.00  0.00     0.157 A 
ATOM     11  C   UNL     1      76.170  85.334  65.354  1.00  0.00     0.056 A 
ATOM     12  C   UNL     1      77.564  85.574  67.779  1.00  0.00     0.050 A 
ATOM     13  C   UNL     1      77.216  84.301  67.291  1.00  0.00     0.009 A 
BRANCH   9  14
ATOM     14  O   UNL     1      76.077  87.735  65.181  1.00  0.00    -0.493 OA
ATOM     15  C   UNL     1      75.261  87.463  64.029  1.00  0.00     0.278 C 
ENDBRANCH   9  14
BRANCH  10  16
ATOM     16  O   UNL     1      77.575  87.942  67.550  1.00  0.00    -0.504 OA
ATOM     17  H   UNL     1      77.741  87.866  68.493  1.00  0.00     0.293 HD
ENDBRANCH  10  16
ENDBRANCH   7   8
ENDBRANCH   4   7
ENDBRANCH   2   3
ENDBRANCH   1   2
BRANCH   1  18
ATOM     18  C   UNL     1      70.375  82.737  64.932  1.00  0.00     0.001 C 
BRANCH  18  19
ATOM     19  C   UNL     1      70.473  83.364  66.345  1.00  0.00     0.004 C 
BRANCH  19  20
ATOM     20  C   UNL     1      70.843  84.872  66.272  1.00  0.00     0.027 C 
BRANCH  20  21
ATOM     21  C   UNL     1      72.201  85.161  66.698  1.00  0.00    -0.031 C 
ATOM     22  C   UNL     1      72.471  85.897  67.791  1.00  0.00    -0.028 C 
BRANCH  22  23
ATOM     23  C   UNL     1      73.824  86.201  68.249  1.00  0.00     0.005 C 
ATOM     24  C   UNL     1      73.974  87.723  68.513  1.00  0.00     0.012 C 
ATOM     25  C   UNL     1      74.172  85.348  69.499  1.00  0.00     0.012 C 
ENDBRANCH  22  23
ENDBRANCH  20  21
ENDBRANCH  19  20
ENDBRANCH  18  19
ENDBRANCH   1  18
TORSDOF 11
ENDMDL
MODEL 8
REMARK VINA RESULT:    -5.762      5.284      7.870
REMARK INTER + INTRA:         -10.025
REMARK INTER:                  -9.152
REMARK INTRA:                  -0.874
REMARK UNBOUND:                -0.726
REMARK SMILES COc1cc(CNC(=O)CCCCC/C=C/C(C)C)ccc1O
REMARK SMILES IDX 11 1 10 2 8 3 7 4 9 6 6 7 5 8 3 9 22 10 4 11 21 12 20 13
REMARK SMILES IDX 2 14 1 15 23 16 12 18 13 19 14 20 15 21 16 22 17 23 18 24
REMARK SMILES IDX 19 25
REMARK H PARENT 7 5 23 17
REMARK Flexibility Score: inf
ROOT
ATOM      1  C   UNL     1      92.010  83.906  89.234  1.00  0.00     0.010 C 
ENDROOT
BRANCH   1   2
ATOM      2  C   UNL     1      91.037  83.588  88.069  1.00  0.00     0.100 C 
BRANCH   2   3
ATOM      3  C   UNL     1      91.446  82.437  87.242  1.00  0.00     0.220 C 
ATOM      4  N   UNL     1      91.435  82.540  85.885  1.00  0.00    -0.352 N 
ATOM      5  H   UNL     1      91.063  83.411  85.531  1.00  0.00     0.163 HD
ATOM      6  O   UNL     1      91.836  81.396  87.822  1.00  0.00    -0.275 OA
BRANCH   4   7
ATOM      7  C   UNL     1      91.894  81.543  84.973  1.00  0.00     0.151 C 
BRANCH   7   8
ATOM      8  C   UNL     1      90.867  80.507  84.693  1.00  0.00    -0.025 A 
ATOM      9  C   UNL     1      88.533  79.882  84.233  1.00  0.00     0.160 A 
ATOM     10  C   UNL     1      88.903  78.520  84.212  1.00  0.00     0.157 A 
ATOM     11  C   UNL     1      89.514  80.863  84.482  1.00  0.00     0.056 A 
ATOM     12  C   UNL     1      90.248  78.155  84.404  1.00  0.00     0.050 A 
ATOM     13  C   UNL     1      91.225  79.142  84.632  1.00  0.00     0.009 A 
BRANCH   9  14
ATOM     14  O   UNL     1      87.243  80.254  83.961  1.00  0.00    -0.493 OA
ATOM     15  C   UNL     1      87.018  81.672  84.011  1.00  0.00     0.278 C 
ENDBRANCH   9  14
BRANCH  10  16
ATOM     16  O   UNL     1      87.985  77.543  84.004  1.00  0.00    -0.504 OA
ATOM     17  H   UNL     1      87.393  77.495  84.759  1.00  0.00     0.293 HD
ENDBRANCH  10  16
ENDBRANCH   7   8
ENDBRANCH   4   7
ENDBRANCH   2   3
ENDBRANCH   1   2
BRANCH   1  18
ATOM     18  C   UNL     1      93.007  85.025  88.841  1.00  0.00     0.001 C 
BRANCH  18  19
ATOM     19  C   UNL     1      94.431  84.507  88.516  1.00  0.00     0.004 C 
BRANCH  19  20
ATOM     20  C   UNL     1      95.490  85.636  88.651  1.00  0.00     0.027 C 
BRANCH  20  21
ATOM     21  C   UNL     1      94.917  86.969  88.726  1.00  0.00    -0.031 C 
ATOM     22  C   UNL     1      95.239  87.836  89.702  1.00  0.00    -0.028 C 
BRANCH  22  23
ATOM     23  C   UNL     1      94.685  89.184  89.802  1.00  0.00     0.005 C 
ATOM     24  C   UNL     1      94.965  89.979  88.499  1.00  0.00     0.012 C 
ATOM     25  C   UNL     1      93.171  89.118  90.139  1.00  0.00     0.012 C 
ENDBRANCH  22  23
ENDBRANCH  20  21
ENDBRANCH  19  20
ENDBRANCH  18  19
ENDBRANCH   1  18
TORSDOF 11
ENDMDL
MODEL 9
REMARK VINA RESULT:    -5.743     19.099     22.515
REMARK INTER + INTRA:          -9.994
REMARK INTER:                  -9.093
REMARK INTRA:                  -0.901
REMARK UNBOUND:                -0.726
REMARK SMILES COc1cc(CNC(=O)CCCCC/C=C/C(C)C)ccc1O
REMARK SMILES IDX 11 1 10 2 8 3 7 4 9 6 6 7 5 8 3 9 22 10 4 11 21 12 20 13
REMARK SMILES IDX 2 14 1 15 23 16 12 18 13 19 14 20 15 21 16 22 17 23 18 24
REMARK SMILES IDX 19 25
REMARK H PARENT 7 5 23 17
REMARK Flexibility Score: inf
ROOT
ATOM      1  C   UNL     1      93.672  98.490  73.336  1.00  0.00     0.010 C 
ENDROOT
BRANCH   1   2
ATOM      2  C   UNL     1      93.649  99.696  72.362  1.00  0.00     0.100 C 
BRANCH   2   3
ATOM      3  C   UNL     1      92.348  99.910  71.701  1.00  0.00     0.220 C 
ATOM      4  N   UNL     1      92.032 101.139  71.207  1.00  0.00    -0.352 N 
ATOM      5  H   UNL     1      92.714 101.860  71.402  1.00  0.00     0.163 HD
ATOM      6  O   UNL     1      91.575  98.931  71.577  1.00  0.00    -0.275 OA
BRANCH   4   7
ATOM      7  C   UNL     1      90.856 101.458  70.464  1.00  0.00     0.151 C 
BRANCH   7   8
ATOM      8  C   UNL     1      91.031 101.257  69.002  1.00  0.00    -0.025 A 
ATOM      9  C   UNL     1      90.511 100.025  66.938  1.00  0.00     0.160 A 
ATOM     10  C   UNL     1      91.410 100.846  66.223  1.00  0.00     0.157 A 
ATOM     11  C   UNL     1      90.335 100.230  68.322  1.00  0.00     0.056 A 
ATOM     12  C   UNL     1      92.095 101.880  66.886  1.00  0.00     0.050 A 
ATOM     13  C   UNL     1      91.899 102.092  68.264  1.00  0.00     0.009 A 
BRANCH   9  14
ATOM     14  O   UNL     1      89.774  99.072  66.286  1.00  0.00    -0.493 OA
ATOM     15  C   UNL     1      89.124  98.133  67.158  1.00  0.00     0.278 C 
ENDBRANCH   9  14
BRANCH  10  16
ATOM     16  O   UNL     1      91.629 100.662  64.897  1.00  0.00    -0.504 OA
ATOM     17  H   UNL     1      92.552 100.842  64.698  1.00  0.00     0.293 HD
ENDBRANCH  10  16
ENDBRANCH   7   8
ENDBRANCH   4   7
ENDBRANCH   2   3
ENDBRANCH   1   2
BRANCH   1  18
ATOM     18  C   UNL     1      94.930  98.525  74.240  1.00  0.00     0.001 C 
BRANCH  18  19
ATOM     19  C   UNL     1      95.343  97.135  74.786  1.00  0.00     0.004 C 
BRANCH  19  20
ATOM     20  C   UNL     1      94.438  96.009  74.214  1.00  0.00     0.027 C 
BRANCH  20  21
ATOM     21  C   UNL     1      93.647  95.326  75.223  1.00  0.00    -0.031 C 
ATOM     22  C   UNL     1      93.128  95.967  76.286  1.00  0.00    -0.028 C 
BRANCH  22  23
ATOM     23  C   UNL     1      92.325  95.311  77.314  1.00  0.00     0.005 C 
ATOM     24  C   UNL     1      90.845  95.213  76.859  1.00  0.00     0.012 C 
ATOM     25  C   UNL     1      92.928  93.923  77.663  1.00  0.00     0.012 C 
ENDBRANCH  22  23
ENDBRANCH  20  21
ENDBRANCH  19  20
ENDBRANCH  18  19
ENDBRANCH   1  18
TORSDOF 11
ENDMDL
MODEL 10
REMARK VINA RESULT:    -5.672     15.186     19.142
REMARK INTER + INTRA:          -9.880
REMARK INTER:                  -9.007
REMARK INTRA:                  -0.873
REMARK UNBOUND:                -0.726
REMARK SMILES COc1cc(CNC(=O)CCCCC/C=C/C(C)C)ccc1O
REMARK SMILES IDX 11 1 10 2 8 3 7 4 9 6 6 7 5 8 3 9 22 10 4 11 21 12 20 13
REMARK SMILES IDX 2 14 1 15 23 16 12 18 13 19 14 20 15 21 16 22 17 23 18 24
REMARK SMILES IDX 19 25
REMARK H PARENT 7 5 23 17
REMARK Flexibility Score: inf
ROOT
ATOM      1  C   UNL     1      93.156  94.938  75.805  1.00  0.00     0.010 C 
ENDROOT
BRANCH   1   2
ATOM      2  C   UNL     1      93.713  96.045  74.873  1.00  0.00     0.100 C 
BRANCH   2   3
ATOM      3  C   UNL     1      94.982  96.637  75.336  1.00  0.00     0.220 C 
ATOM      4  N   UNL     1      95.441  97.787  74.769  1.00  0.00    -0.352 N 
ATOM      5  H   UNL     1      94.889  98.123  73.992  1.00  0.00     0.163 HD
ATOM      6  O   UNL     1      95.591  96.078  76.280  1.00  0.00    -0.275 OA
BRANCH   4   7
ATOM      7  C   UNL     1      96.596  98.513  75.185  1.00  0.00     0.151 C 
BRANCH   7   8
ATOM      8  C   UNL     1      97.815  98.137  74.422  1.00  0.00    -0.025 A 
ATOM      9  C   UNL     1      99.078  98.069  72.313  1.00  0.00     0.160 A 
ATOM     10  C   UNL     1     100.119  97.367  72.960  1.00  0.00     0.157 A 
ATOM     11  C   UNL     1      97.932  98.440  73.046  1.00  0.00     0.056 A 
ATOM     12  C   UNL     1     100.020  97.075  74.333  1.00  0.00     0.050 A 
ATOM     13  C   UNL     1      98.881  97.466  75.061  1.00  0.00     0.009 A 
BRANCH   9  14
ATOM     14  O   UNL     1      99.203  98.435  70.999  1.00  0.00    -0.493 OA
ATOM     15  C   UNL     1      97.978  98.885  70.396  1.00  0.00     0.278 C 
ENDBRANCH   9  14
BRANCH  10  16
ATOM     16  O   UNL     1     101.225  96.967  72.285  1.00  0.00    -0.504 OA
ATOM     17  H   UNL     1     101.207  97.333  71.397  1.00  0.00     0.293 HD
ENDBRANCH  10  16
ENDBRANCH   7   8
ENDBRANCH   4   7
ENDBRANCH   2   3
ENDBRANCH   1   2
BRANCH   1  18
ATOM     18  C   UNL     1      92.174  95.528  76.850  1.00  0.00     0.001 C 
BRANCH  18  19
ATOM     19  C   UNL     1      90.812  94.791  76.910  1.00  0.00     0.004 C 
BRANCH  19  20
ATOM     20  C   UNL     1      90.996  93.289  77.266  1.00  0.00     0.027 C 
BRANCH  20  21
ATOM     21  C   UNL     1      90.443  92.382  76.275  1.00  0.00    -0.031 C 
ATOM     22  C   UNL     1      91.208  91.769  75.356  1.00  0.00    -0.028 C 
BRANCH  22  23
ATOM     23  C   UNL     1      90.684  90.848  74.350  1.00  0.00     0.005 C 
ATOM     24  C   UNL     1      90.916  89.379  74.794  1.00  0.00     0.012 C 
ATOM     25  C   UNL     1      89.187  91.150  74.074  1.00  0.00     0.012 C 
ENDBRANCH  22  23
ENDBRANCH  20  21
ENDBRANCH  19  20
ENDBRANCH  18  19
ENDBRANCH   1  18
TORSDOF 11
ENDMDL
