MODEL 1
REMARK VINA RESULT:    -6.950      0.000      0.000
REMARK INTER + INTRA:         -12.083
REMARK INTER:                 -10.810
REMARK INTRA:                  -1.274
REMARK UNBOUND:                -1.274
REMARK SMILES CCCCC/C=C/C(=O)CCc1ccc(O)c(OC)c1
REMARK SMILES IDX 6 1 7 2 8 3 9 4 10 5 11 6 12 7 17 8 20 9 15 10 14 11 13 12
REMARK SMILES IDX 18 13 19 14 16 15 5 17 4 18 3 19 2 20 1 21
REMARK H PARENT 16 16
REMARK Flexibility Score: inf
ROOT
ATOM      1  C   UNL     1      91.943  94.775  76.288  1.00  0.00    -0.023 C 
ATOM      2  C   UNL     1      92.462  96.009  76.285  1.00  0.00     0.043 C 
ENDROOT
BRANCH   2   3
ATOM      3  C   UNL     1      93.573  96.344  75.354  1.00  0.00     0.155 C 
ATOM      4  O   UNL     1      93.456  97.208  74.487  1.00  0.00    -0.295 OA
BRANCH   3   5
ATOM      5  C   UNL     1      94.843  95.526  75.494  1.00  0.00     0.085 C 
BRANCH   5   6
ATOM      6  C   UNL     1      95.640  95.946  76.730  1.00  0.00     0.044 C 
BRANCH   6   7
ATOM      7  C   UNL     1      95.518  94.962  77.869  1.00  0.00    -0.044 A 
ATOM      8  C   UNL     1      95.547  94.502  80.224  1.00  0.00     0.160 A 
ATOM      9  C   UNL     1      95.661  95.411  79.172  1.00  0.00     0.054 A 
ATOM     10  C   UNL     1      95.294  93.156  79.960  1.00  0.00     0.157 A 
ATOM     11  C   UNL     1      95.153  92.720  78.642  1.00  0.00     0.050 A 
ATOM     12  C   UNL     1      95.266  93.629  77.590  1.00  0.00     0.008 A 
BRANCH   8  13
ATOM     13  O   UNL     1      95.687  94.941  81.507  1.00  0.00    -0.493 OA
ATOM     14  C   UNL     1      95.862  96.344  81.696  1.00  0.00     0.278 C 
ENDBRANCH   8  13
BRANCH  10  15
ATOM     15  O   UNL     1      95.181  92.259  80.978  1.00  0.00    -0.504 OA
ATOM     16  H   UNL     1      94.762  92.706  81.734  1.00  0.00     0.293 HD
ENDBRANCH  10  15
ENDBRANCH   6   7
ENDBRANCH   5   6
ENDBRANCH   3   5
ENDBRANCH   2   3
BRANCH   1  17
ATOM     17  C   UNL     1      90.822  94.358  77.196  1.00  0.00     0.027 C 
BRANCH  17  18
ATOM     18  C   UNL     1      90.561  92.848  77.175  1.00  0.00     0.004 C 
BRANCH  18  19
ATOM     19  C   UNL     1      91.235  92.125  76.005  1.00  0.00     0.000 C 
BRANCH  19  20
ATOM     20  C   UNL     1      90.461  90.863  75.617  1.00  0.00    -0.003 C 
ATOM     21  C   UNL     1      89.652  91.074  74.348  1.00  0.00     0.004 C 
ENDBRANCH  19  20
ENDBRANCH  18  19
ENDBRANCH  17  18
ENDBRANCH   1  17
TORSDOF 10
ENDMDL
MODEL 2
REMARK VINA RESULT:    -6.148      2.634      5.763
REMARK INTER + INTRA:         -10.836
REMARK INTER:                 -10.051
REMARK INTRA:                  -0.784
REMARK UNBOUND:                -1.274
REMARK SMILES CCCCC/C=C/C(=O)CCc1ccc(O)c(OC)c1
REMARK SMILES IDX 6 1 7 2 8 3 9 4 10 5 11 6 12 7 17 8 20 9 15 10 14 11 13 12
REMARK SMILES IDX 18 13 19 14 16 15 5 17 4 18 3 19 2 20 1 21
REMARK H PARENT 16 16
REMARK Flexibility Score: inf
ROOT
ATOM      1  C   UNL     1      91.119  93.402  77.215  1.00  0.00    -0.023 C 
ATOM      2  C   UNL     1      92.236  93.576  77.933  1.00  0.00     0.043 C 
ENDROOT
BRANCH   2   3
ATOM      3  C   UNL     1      93.265  94.551  77.479  1.00  0.00     0.155 C 
ATOM      4  O   UNL     1      94.007  95.127  78.272  1.00  0.00    -0.295 OA
BRANCH   3   5
ATOM      5  C   UNL     1      93.316  94.837  75.991  1.00  0.00     0.085 C 
BRANCH   5   6
ATOM      6  C   UNL     1      93.200  96.336  75.709  1.00  0.00     0.044 C 
BRANCH   6   7
ATOM      7  C   UNL     1      94.026  96.777  74.524  1.00  0.00    -0.044 A 
ATOM      8  C   UNL     1      94.547  98.420  72.855  1.00  0.00     0.160 A 
ATOM      9  C   UNL     1      93.783  98.013  73.949  1.00  0.00     0.054 A 
ATOM     10  C   UNL     1      95.543  97.585  72.350  1.00  0.00     0.157 A 
ATOM     11  C   UNL     1      95.776  96.342  72.940  1.00  0.00     0.050 A 
ATOM     12  C   UNL     1      95.012  95.935  74.034  1.00  0.00     0.008 A 
BRANCH   8  13
ATOM     13  O   UNL     1      94.310  99.636  72.287  1.00  0.00    -0.493 OA
ATOM     14  C   UNL     1      93.359 100.479  72.935  1.00  0.00     0.278 C 
ENDBRANCH   8  13
BRANCH  10  15
ATOM     15  O   UNL     1      96.296  97.971  71.282  1.00  0.00    -0.504 OA
ATOM     16  H   UNL     1      96.004  97.464  70.504  1.00  0.00     0.293 HD
ENDBRANCH  10  15
ENDBRANCH   6   7
ENDBRANCH   5   6
ENDBRANCH   3   5
ENDBRANCH   2   3
BRANCH   1  17
ATOM     17  C   UNL     1      90.035  92.440  77.604  1.00  0.00     0.027 C 
BRANCH  17  18
ATOM     18  C   UNL     1      89.795  91.349  76.555  1.00  0.00     0.004 C 
BRANCH  18  19
ATOM     19  C   UNL     1      90.918  91.235  75.519  1.00  0.00     0.000 C 
BRANCH  19  20
ATOM     20  C   UNL     1      90.410  90.600  74.224  1.00  0.00    -0.003 C 
ATOM     21  C   UNL     1      89.152  91.289  73.721  1.00  0.00     0.004 C 
ENDBRANCH  19  20
ENDBRANCH  18  19
ENDBRANCH  17  18
ENDBRANCH   1  17
TORSDOF 10
ENDMDL
MODEL 3
REMARK VINA RESULT:    -6.121      1.883      5.026
REMARK INTER + INTRA:         -10.794
REMARK INTER:                  -9.689
REMARK INTRA:                  -1.106
REMARK UNBOUND:                -1.274
REMARK SMILES CCCCC/C=C/C(=O)CCc1ccc(O)c(OC)c1
REMARK SMILES IDX 6 1 7 2 8 3 9 4 10 5 11 6 12 7 17 8 20 9 15 10 14 11 13 12
REMARK SMILES IDX 18 13 19 14 16 15 5 17 4 18 3 19 2 20 1 21
REMARK H PARENT 16 16
REMARK Flexibility Score: inf
ROOT
ATOM      1  C   UNL     1      91.940  94.132  77.738  1.00  0.00    -0.023 C 
ATOM      2  C   UNL     1      92.906  93.269  78.076  1.00  0.00     0.043 C 
ENDROOT
BRANCH   2   3
ATOM      3  C   UNL     1      94.130  93.759  78.766  1.00  0.00     0.155 C 
ATOM      4  O   UNL     1      94.747  93.059  79.567  1.00  0.00    -0.295 OA
BRANCH   3   5
ATOM      5  C   UNL     1      94.548  95.186  78.471  1.00  0.00     0.085 C 
BRANCH   5   6
ATOM      6  C   UNL     1      95.663  95.233  77.426  1.00  0.00     0.044 C 
BRANCH   6   7
ATOM      7  C   UNL     1      95.302  96.065  76.218  1.00  0.00    -0.044 A 
ATOM      8  C   UNL     1      95.918  97.677  74.550  1.00  0.00     0.160 A 
ATOM      9  C   UNL     1      96.252  96.909  75.666  1.00  0.00     0.054 A 
ATOM     10  C   UNL     1      94.639  97.591  74.001  1.00  0.00     0.157 A 
ATOM     11  C   UNL     1      93.692  96.737  74.569  1.00  0.00     0.050 A 
ATOM     12  C   UNL     1      94.027  95.969  75.685  1.00  0.00     0.008 A 
BRANCH   8  13
ATOM     13  O   UNL     1      96.851  98.507  74.005  1.00  0.00    -0.493 OA
ATOM     14  C   UNL     1      97.905  97.899  73.262  1.00  0.00     0.278 C 
ENDBRANCH   8  13
BRANCH  10  15
ATOM     15  O   UNL     1      94.301  98.335  72.912  1.00  0.00    -0.504 OA
ATOM     16  H   UNL     1      93.370  98.154  72.695  1.00  0.00     0.293 HD
ENDBRANCH  10  15
ENDBRANCH   6   7
ENDBRANCH   5   6
ENDBRANCH   3   5
ENDBRANCH   2   3
BRANCH   1  17
ATOM     17  C   UNL     1      90.677  93.719  77.041  1.00  0.00     0.027 C 
BRANCH  17  18
ATOM     18  C   UNL     1      89.991  92.517  77.700  1.00  0.00     0.004 C 
BRANCH  18  19
ATOM     19  C   UNL     1      89.726  91.357  76.736  1.00  0.00     0.000 C 
BRANCH  19  20
ATOM     20  C   UNL     1      90.824  91.258  75.676  1.00  0.00    -0.003 C 
ATOM     21  C   UNL     1      90.249  90.929  74.308  1.00  0.00     0.004 C 
ENDBRANCH  19  20
ENDBRANCH  18  19
ENDBRANCH  17  18
ENDBRANCH   1  17
TORSDOF 10
ENDMDL
MODEL 4
REMARK VINA RESULT:    -5.888      2.579      6.634
REMARK INTER + INTRA:         -10.432
REMARK INTER:                  -9.379
REMARK INTRA:                  -1.053
REMARK UNBOUND:                -1.274
REMARK SMILES CCCCC/C=C/C(=O)CCc1ccc(O)c(OC)c1
REMARK SMILES IDX 6 1 7 2 8 3 9 4 10 5 11 6 12 7 17 8 20 9 15 10 14 11 13 12
REMARK SMILES IDX 18 13 19 14 16 15 5 17 4 18 3 19 2 20 1 21
REMARK H PARENT 16 16
REMARK Flexibility Score: inf
ROOT
ATOM      1  C   UNL     1      94.841  94.721  77.817  1.00  0.00    -0.023 C 
ATOM      2  C   UNL     1      94.381  94.640  76.562  1.00  0.00     0.043 C 
ENDROOT
BRANCH   2   3
ATOM      3  C   UNL     1      93.322  95.578  76.098  1.00  0.00     0.155 C 
ATOM      4  O   UNL     1      93.330  96.057  74.967  1.00  0.00    -0.295 OA
BRANCH   3   5
ATOM      5  C   UNL     1      92.259  95.953  77.113  1.00  0.00     0.085 C 
BRANCH   5   6
ATOM      6  C   UNL     1      90.865  95.546  76.633  1.00  0.00     0.044 C 
BRANCH   6   7
ATOM      7  C   UNL     1      90.673  94.048  76.590  1.00  0.00    -0.044 A 
ATOM      8  C   UNL     1      90.318  92.038  75.327  1.00  0.00     0.160 A 
ATOM      9  C   UNL     1      90.496  93.421  75.367  1.00  0.00     0.054 A 
ATOM     10  C   UNL     1      90.320  91.301  76.511  1.00  0.00     0.157 A 
ATOM     11  C   UNL     1      90.498  91.947  77.735  1.00  0.00     0.050 A 
ATOM     12  C   UNL     1      90.676  93.330  77.774  1.00  0.00     0.008 A 
BRANCH   8  13
ATOM     13  O   UNL     1      90.145  91.419  74.126  1.00  0.00    -0.493 OA
ATOM     14  C   UNL     1      88.982  91.770  73.378  1.00  0.00     0.278 C 
ENDBRANCH   8  13
BRANCH  10  15
ATOM     15  O   UNL     1      90.148  89.950  76.485  1.00  0.00    -0.504 OA
ATOM     16  H   UNL     1      89.724  89.680  77.318  1.00  0.00     0.293 HD
ENDBRANCH  10  15
ENDBRANCH   6   7
ENDBRANCH   5   6
ENDBRANCH   3   5
ENDBRANCH   2   3
BRANCH   1  17
ATOM     17  C   UNL     1      95.906  93.814  78.360  1.00  0.00     0.027 C 
BRANCH  17  18
ATOM     18  C   UNL     1      95.433  92.980  79.556  1.00  0.00     0.004 C 
BRANCH  18  19
ATOM     19  C   UNL     1      96.153  93.321  80.865  1.00  0.00     0.000 C 
BRANCH  19  20
ATOM     20  C   UNL     1      97.424  94.129  80.601  1.00  0.00    -0.003 C 
ATOM     21  C   UNL     1      98.452  93.926  81.702  1.00  0.00     0.004 C 
ENDBRANCH  19  20
ENDBRANCH  18  19
ENDBRANCH  17  18
ENDBRANCH   1  17
TORSDOF 10
ENDMDL
MODEL 5
REMARK VINA RESULT:    -5.401      2.365      5.965
REMARK INTER + INTRA:          -9.674
REMARK INTER:                  -8.252
REMARK INTRA:                  -1.422
REMARK UNBOUND:                -1.274
REMARK SMILES CCCCC/C=C/C(=O)CCc1ccc(O)c(OC)c1
REMARK SMILES IDX 6 1 7 2 8 3 9 4 10 5 11 6 12 7 17 8 20 9 15 10 14 11 13 12
REMARK SMILES IDX 18 13 19 14 16 15 5 17 4 18 3 19 2 20 1 21
REMARK H PARENT 16 16
REMARK Flexibility Score: inf
ROOT
ATOM      1  C   UNL     1      97.146  97.010  75.921  1.00  0.00    -0.023 C 
ATOM      2  C   UNL     1      96.272  97.706  75.183  1.00  0.00     0.043 C 
ENDROOT
BRANCH   2   3
ATOM      3  C   UNL     1      95.741  97.127  73.919  1.00  0.00     0.155 C 
ATOM      4  O   UNL     1      96.123  97.515  72.817  1.00  0.00    -0.295 OA
BRANCH   3   5
ATOM      5  C   UNL     1      94.666  96.067  74.060  1.00  0.00     0.085 C 
BRANCH   5   6
ATOM      6  C   UNL     1      93.610  96.480  75.086  1.00  0.00     0.044 C 
BRANCH   6   7
ATOM      7  C   UNL     1      93.377  95.429  76.146  1.00  0.00    -0.044 A 
ATOM      8  C   UNL     1      92.153  93.527  76.947  1.00  0.00     0.160 A 
ATOM      9  C   UNL     1      92.367  94.498  75.968  1.00  0.00     0.054 A 
ATOM     10  C   UNL     1      92.951  93.500  78.090  1.00  0.00     0.157 A 
ATOM     11  C   UNL     1      93.965  94.445  78.254  1.00  0.00     0.050 A 
ATOM     12  C   UNL     1      94.179  95.416  77.275  1.00  0.00     0.008 A 
BRANCH   8  13
ATOM     13  O   UNL     1      91.160  92.610  76.774  1.00  0.00    -0.493 OA
ATOM     14  C   UNL     1      91.185  91.845  75.571  1.00  0.00     0.278 C 
ENDBRANCH   8  13
BRANCH  10  15
ATOM     15  O   UNL     1      92.752  92.557  79.052  1.00  0.00    -0.504 OA
ATOM     16  H   UNL     1      93.381  92.722  79.776  1.00  0.00     0.293 HD
ENDBRANCH  10  15
ENDBRANCH   6   7
ENDBRANCH   5   6
ENDBRANCH   3   5
ENDBRANCH   2   3
BRANCH   1  17
ATOM     17  C   UNL     1      97.727  97.524  77.206  1.00  0.00     0.027 C 
BRANCH  17  18
ATOM     18  C   UNL     1      98.587  96.487  77.935  1.00  0.00     0.004 C 
BRANCH  18  19
ATOM     19  C   UNL     1      97.819  95.685  78.990  1.00  0.00     0.000 C 
BRANCH  19  20
ATOM     20  C   UNL     1      96.725  96.533  79.640  1.00  0.00    -0.003 C 
ATOM     21  C   UNL     1      97.174  97.088  80.983  1.00  0.00     0.004 C 
ENDBRANCH  19  20
ENDBRANCH  18  19
ENDBRANCH  17  18
ENDBRANCH   1  17
TORSDOF 10
ENDMDL
MODEL 6
REMARK VINA RESULT:    -5.398      2.377      4.418
REMARK INTER + INTRA:          -9.669
REMARK INTER:                  -8.727
REMARK INTRA:                  -0.942
REMARK UNBOUND:                -1.274
REMARK SMILES CCCCC/C=C/C(=O)CCc1ccc(O)c(OC)c1
REMARK SMILES IDX 6 1 7 2 8 3 9 4 10 5 11 6 12 7 17 8 20 9 15 10 14 11 13 12
REMARK SMILES IDX 18 13 19 14 16 15 5 17 4 18 3 19 2 20 1 21
REMARK H PARENT 16 16
REMARK Flexibility Score: inf
ROOT
ATOM      1  C   UNL     1      94.433  94.887  74.622  1.00  0.00    -0.023 C 
ATOM      2  C   UNL     1      93.353  95.127  75.376  1.00  0.00     0.043 C 
ENDROOT
BRANCH   2   3
ATOM      3  C   UNL     1      92.711  94.014  76.127  1.00  0.00     0.155 C 
ATOM      4  O   UNL     1      91.707  93.442  75.707  1.00  0.00    -0.295 OA
BRANCH   3   5
ATOM      5  C   UNL     1      93.328  93.656  77.464  1.00  0.00     0.085 C 
BRANCH   5   6
ATOM      6  C   UNL     1      93.861  94.898  78.180  1.00  0.00     0.044 C 
BRANCH   6   7
ATOM      7  C   UNL     1      94.912  94.573  79.215  1.00  0.00    -0.044 A 
ATOM      8  C   UNL     1      96.716  95.280  80.632  1.00  0.00     0.160 A 
ATOM      9  C   UNL     1      95.746  95.580  79.675  1.00  0.00     0.054 A 
ATOM     10  C   UNL     1      96.840  93.978  81.115  1.00  0.00     0.157 A 
ATOM     11  C   UNL     1      95.993  92.975  80.642  1.00  0.00     0.050 A 
ATOM     12  C   UNL     1      95.023  93.275  79.685  1.00  0.00     0.008 A 
BRANCH   8  13
ATOM     13  O   UNL     1      97.537  96.268  81.085  1.00  0.00    -0.493 OA
ATOM     14  C   UNL     1      97.513  97.507  80.379  1.00  0.00     0.278 C 
ENDBRANCH   8  13
BRANCH  10  15
ATOM     15  O   UNL     1      97.783  93.672  82.049  1.00  0.00    -0.504 OA
ATOM     16  H   UNL     1      98.186  94.502  82.360  1.00  0.00     0.293 HD
ENDBRANCH  10  15
ENDBRANCH   6   7
ENDBRANCH   5   6
ENDBRANCH   3   5
ENDBRANCH   2   3
BRANCH   1  17
ATOM     17  C   UNL     1      95.137  95.953  73.834  1.00  0.00     0.027 C 
BRANCH  17  18
ATOM     18  C   UNL     1      95.360  97.242  74.633  1.00  0.00     0.004 C 
BRANCH  18  19
ATOM     19  C   UNL     1      95.050  98.516  73.840  1.00  0.00     0.000 C 
BRANCH  19  20
ATOM     20  C   UNL     1      93.547  98.799  73.816  1.00  0.00    -0.003 C 
ATOM     21  C   UNL     1      93.070  99.159  72.418  1.00  0.00     0.004 C 
ENDBRANCH  19  20
ENDBRANCH  18  19
ENDBRANCH  17  18
ENDBRANCH   1  17
TORSDOF 10
ENDMDL
MODEL 7
REMARK VINA RESULT:    -5.346      5.903      9.880
REMARK INTER + INTRA:          -9.589
REMARK INTER:                  -8.829
REMARK INTRA:                  -0.760
REMARK UNBOUND:                -1.274
REMARK SMILES CCCCC/C=C/C(=O)CCc1ccc(O)c(OC)c1
REMARK SMILES IDX 6 1 7 2 8 3 9 4 10 5 11 6 12 7 17 8 20 9 15 10 14 11 13 12
REMARK SMILES IDX 18 13 19 14 16 15 5 17 4 18 3 19 2 20 1 21
REMARK H PARENT 16 16
REMARK Flexibility Score: inf
ROOT
ATOM      1  C   UNL     1      93.997  97.789  74.215  1.00  0.00    -0.023 C 
ATOM      2  C   UNL     1      94.594  98.904  73.777  1.00  0.00     0.043 C 
ENDROOT
BRANCH   2   3
ATOM      3  C   UNL     1      93.820  99.898  72.984  1.00  0.00     0.155 C 
ATOM      4  O   UNL     1      93.205 100.818  73.519  1.00  0.00    -0.295 OA
BRANCH   3   5
ATOM      5  C   UNL     1      93.784  99.685  71.483  1.00  0.00     0.085 C 
BRANCH   5   6
ATOM      6  C   UNL     1      92.826 100.666  70.805  1.00  0.00     0.044 C 
BRANCH   6   7
ATOM      7  C   UNL     1      91.646  99.981  70.158  1.00  0.00    -0.044 A 
ATOM      8  C   UNL     1      90.308  99.553  68.212  1.00  0.00     0.160 A 
ATOM      9  C   UNL     1      91.398 100.186  68.810  1.00  0.00     0.054 A 
ATOM     10  C   UNL     1      89.480  98.725  68.970  1.00  0.00     0.157 A 
ATOM     11  C   UNL     1      89.743  98.529  70.326  1.00  0.00     0.050 A 
ATOM     12  C   UNL     1      90.833  99.162  70.924  1.00  0.00     0.008 A 
BRANCH   8  13
ATOM     13  O   UNL     1      90.062  99.753  66.887  1.00  0.00    -0.493 OA
ATOM     14  C   UNL     1      89.423 100.975  66.523  1.00  0.00     0.278 C 
ENDBRANCH   8  13
BRANCH  10  15
ATOM     15  O   UNL     1      88.413  98.101  68.398  1.00  0.00    -0.504 OA
ATOM     16  H   UNL     1      88.534  97.141  68.491  1.00  0.00     0.293 HD
ENDBRANCH  10  15
ENDBRANCH   6   7
ENDBRANCH   5   6
ENDBRANCH   3   5
ENDBRANCH   2   3
BRANCH   1  17
ATOM     17  C   UNL     1      94.708  96.740  75.019  1.00  0.00     0.027 C 
BRANCH  17  18
ATOM     18  C   UNL     1      94.387  95.312  74.563  1.00  0.00     0.004 C 
BRANCH  18  19
ATOM     19  C   UNL     1      93.551  94.519  75.573  1.00  0.00     0.000 C 
BRANCH  19  20
ATOM     20  C   UNL     1      93.259  95.351  76.823  1.00  0.00    -0.003 C 
ATOM     21  C   UNL     1      91.769  95.603  76.989  1.00  0.00     0.004 C 
ENDBRANCH  19  20
ENDBRANCH  18  19
ENDBRANCH  17  18
ENDBRANCH   1  17
TORSDOF 10
ENDMDL
MODEL 8
REMARK VINA RESULT:    -5.267      2.566      4.294
REMARK INTER + INTRA:          -9.467
REMARK INTER:                  -8.650
REMARK INTRA:                  -0.816
REMARK UNBOUND:                -1.274
REMARK SMILES CCCCC/C=C/C(=O)CCc1ccc(O)c(OC)c1
REMARK SMILES IDX 6 1 7 2 8 3 9 4 10 5 11 6 12 7 17 8 20 9 15 10 14 11 13 12
REMARK SMILES IDX 18 13 19 14 16 15 5 17 4 18 3 19 2 20 1 21
REMARK H PARENT 16 16
REMARK Flexibility Score: inf
ROOT
ATOM      1  C   UNL     1      93.929  94.863  77.722  1.00  0.00    -0.023 C 
ATOM      2  C   UNL     1      93.983  93.662  78.310  1.00  0.00     0.043 C 
ENDROOT
BRANCH   2   3
ATOM      3  C   UNL     1      95.293  93.109  78.747  1.00  0.00     0.155 C 
ATOM      4  O   UNL     1      96.076  92.591  77.953  1.00  0.00    -0.295 OA
BRANCH   3   5
ATOM      5  C   UNL     1      95.591  93.168  80.233  1.00  0.00     0.085 C 
BRANCH   5   6
ATOM      6  C   UNL     1      95.730  94.613  80.714  1.00  0.00     0.044 C 
BRANCH   6   7
ATOM      7  C   UNL     1      97.055  94.884  81.386  1.00  0.00    -0.044 A 
ATOM      8  C   UNL     1      98.523  96.385  82.547  1.00  0.00     0.160 A 
ATOM      9  C   UNL     1      97.299  96.136  81.927  1.00  0.00     0.054 A 
ATOM     10  C   UNL     1      99.487  95.380  82.618  1.00  0.00     0.157 A 
ATOM     11  C   UNL     1      99.227  94.125  82.068  1.00  0.00     0.050 A 
ATOM     12  C   UNL     1      98.003  93.875  81.447  1.00  0.00     0.008 A 
BRANCH   8  13
ATOM     13  O   UNL     1      98.765  97.616  83.081  1.00  0.00    -0.493 OA
ATOM     14  C   UNL     1      97.780  98.143  83.967  1.00  0.00     0.278 C 
ENDBRANCH   8  13
BRANCH  10  15
ATOM     15  O   UNL     1     100.686  95.612  83.222  1.00  0.00    -0.504 OA
ATOM     16  H   UNL     1     101.247  96.112  82.605  1.00  0.00     0.293 HD
ENDBRANCH  10  15
ENDBRANCH   6   7
ENDBRANCH   5   6
ENDBRANCH   3   5
ENDBRANCH   2   3
BRANCH   1  17
ATOM     17  C   UNL     1      92.648  95.490  77.253  1.00  0.00     0.027 C 
BRANCH  17  18
ATOM     18  C   UNL     1      92.120  94.878  75.951  1.00  0.00     0.004 C 
BRANCH  18  19
ATOM     19  C   UNL     1      90.741  94.226  76.094  1.00  0.00     0.000 C 
BRANCH  19  20
ATOM     20  C   UNL     1      90.863  92.772  76.552  1.00  0.00    -0.003 C 
ATOM     21  C   UNL     1      90.032  92.509  77.797  1.00  0.00     0.004 C 
ENDBRANCH  19  20
ENDBRANCH  18  19
ENDBRANCH  17  18
ENDBRANCH   1  17
TORSDOF 10
ENDMDL
MODEL 9
REMARK VINA RESULT:    -5.249     12.655     15.072
REMARK INTER + INTRA:          -9.439
REMARK INTER:                  -7.621
REMARK INTRA:                  -1.817
REMARK UNBOUND:                -1.274
REMARK SMILES CCCCC/C=C/C(=O)CCc1ccc(O)c(OC)c1
REMARK SMILES IDX 6 1 7 2 8 3 9 4 10 5 11 6 12 7 17 8 20 9 15 10 14 11 13 12
REMARK SMILES IDX 18 13 19 14 16 15 5 17 4 18 3 19 2 20 1 21
REMARK H PARENT 16 16
REMARK Flexibility Score: inf
ROOT
ATOM      1  C   UNL     1      97.556  80.792  77.103  1.00  0.00    -0.023 C 
ATOM      2  C   UNL     1      97.319  82.080  77.379  1.00  0.00     0.043 C 
ENDROOT
BRANCH   2   3
ATOM      3  C   UNL     1      96.055  82.718  76.917  1.00  0.00     0.155 C 
ATOM      4  O   UNL     1      95.199  83.107  77.708  1.00  0.00    -0.295 OA
BRANCH   3   5
ATOM      5  C   UNL     1      95.855  82.814  75.418  1.00  0.00     0.085 C 
BRANCH   5   6
ATOM      6  C   UNL     1      96.915  83.707  74.772  1.00  0.00     0.044 C 
BRANCH   6   7
ATOM      7  C   UNL     1      97.840  82.949  73.849  1.00  0.00    -0.044 A 
ATOM      8  C   UNL     1      98.401  80.934  72.672  1.00  0.00     0.160 A 
ATOM      9  C   UNL     1      97.548  81.634  73.525  1.00  0.00     0.054 A 
ATOM     10  C   UNL     1      99.536  81.559  72.154  1.00  0.00     0.157 A 
ATOM     11  C   UNL     1      99.817  82.884  72.490  1.00  0.00     0.050 A 
ATOM     12  C   UNL     1      98.963  83.583  73.343  1.00  0.00     0.008 A 
BRANCH   8  13
ATOM     13  O   UNL     1      98.116  79.641  72.353  1.00  0.00    -0.493 OA
ATOM     14  C   UNL     1      97.046  79.420  71.436  1.00  0.00     0.278 C 
ENDBRANCH   8  13
BRANCH  10  15
ATOM     15  O   UNL     1     100.377  80.886  71.320  1.00  0.00    -0.504 OA
ATOM     16  H   UNL     1     100.105  81.065  70.403  1.00  0.00     0.293 HD
ENDBRANCH  10  15
ENDBRANCH   6   7
ENDBRANCH   5   6
ENDBRANCH   3   5
ENDBRANCH   2   3
BRANCH   1  17
ATOM     17  C   UNL     1      98.804  80.077  77.532  1.00  0.00     0.027 C 
BRANCH  17  18
ATOM     18  C   UNL     1      99.735  79.739  76.363  1.00  0.00     0.004 C 
BRANCH  18  19
ATOM     19  C   UNL     1     100.422  80.964  75.750  1.00  0.00     0.000 C 
BRANCH  19  20
ATOM     20  C   UNL     1     101.708  80.569  75.023  1.00  0.00    -0.003 C 
ATOM     21  C   UNL     1     102.722  79.958  75.976  1.00  0.00     0.004 C 
ENDBRANCH  19  20
ENDBRANCH  18  19
ENDBRANCH  17  18
ENDBRANCH   1  17
TORSDOF 10
ENDMDL
MODEL 10
REMARK VINA RESULT:    -5.019      3.935      7.663
REMARK INTER + INTRA:          -9.081
REMARK INTER:                  -8.494
REMARK INTRA:                  -0.587
REMARK UNBOUND:                -1.274
REMARK SMILES CCCCC/C=C/C(=O)CCc1ccc(O)c(OC)c1
REMARK SMILES IDX 6 1 7 2 8 3 9 4 10 5 11 6 12 7 17 8 20 9 15 10 14 11 13 12
REMARK SMILES IDX 18 13 19 14 16 15 5 17 4 18 3 19 2 20 1 21
REMARK H PARENT 16 16
REMARK Flexibility Score: inf
ROOT
ATOM      1  C   UNL     1      93.230  95.534  76.359  1.00  0.00    -0.023 C 
ATOM      2  C   UNL     1      94.247  95.243  75.539  1.00  0.00     0.043 C 
ENDROOT
BRANCH   2   3
ATOM      3  C   UNL     1      94.558  96.142  74.395  1.00  0.00     0.155 C 
ATOM      4  O   UNL     1      95.535  95.957  73.671  1.00  0.00    -0.295 OA
BRANCH   3   5
ATOM      5  C   UNL     1      93.637  97.331  74.199  1.00  0.00     0.085 C 
BRANCH   5   6
ATOM      6  C   UNL     1      94.421  98.580  73.793  1.00  0.00     0.044 C 
BRANCH   6   7
ATOM      7  C   UNL     1      93.553  99.634  73.148  1.00  0.00    -0.044 A 
ATOM      8  C   UNL     1      91.920 100.256  71.503  1.00  0.00     0.160 A 
ATOM      9  C   UNL     1      92.722  99.281  72.097  1.00  0.00     0.054 A 
ATOM     10  C   UNL     1      91.960 101.570  71.967  1.00  0.00     0.157 A 
ATOM     11  C   UNL     1      92.802 101.910  73.026  1.00  0.00     0.050 A 
ATOM     12  C   UNL     1      93.604 100.936  73.621  1.00  0.00     0.008 A 
BRANCH   8  13
ATOM     13  O   UNL     1      91.103  99.911  70.469  1.00  0.00    -0.493 OA
ATOM     14  C   UNL     1      89.950  99.132  70.786  1.00  0.00     0.278 C 
ENDBRANCH   8  13
BRANCH  10  15
ATOM     15  O   UNL     1      91.181 102.530  71.395  1.00  0.00    -0.504 OA
ATOM     16  H   UNL     1      91.707 103.345  71.320  1.00  0.00     0.293 HD
ENDBRANCH  10  15
ENDBRANCH   6   7
ENDBRANCH   5   6
ENDBRANCH   3   5
ENDBRANCH   2   3
BRANCH   1  17
ATOM     17  C   UNL     1      92.852  94.679  77.534  1.00  0.00     0.027 C 
BRANCH  17  18
ATOM     18  C   UNL     1      91.591  93.844  77.288  1.00  0.00     0.004 C 
BRANCH  18  19
ATOM     19  C   UNL     1      91.831  92.616  76.404  1.00  0.00     0.000 C 
BRANCH  19  20
ATOM     20  C   UNL     1      90.551  91.793  76.244  1.00  0.00    -0.003 C 
ATOM     21  C   UNL     1      90.685  90.765  75.132  1.00  0.00     0.004 C 
ENDBRANCH  19  20
ENDBRANCH  18  19
ENDBRANCH  17  18
ENDBRANCH   1  17
TORSDOF 10
ENDMDL
