MODEL 1
REMARK VINA RESULT:    -6.083      0.000      0.000
REMARK INTER + INTRA:         -10.617
REMARK INTER:                  -9.817
REMARK INTRA:                  -0.800
REMARK UNBOUND:                -0.800
REMARK SMILES COc1cc(CNC(=O)CCCCC/C=C/C(C)C)ccc1O
REMARK SMILES IDX 11 1 10 2 8 3 7 4 9 6 6 7 5 8 3 9 22 10 4 11 21 12 20 13
REMARK SMILES IDX 2 14 1 15 23 16 12 18 13 19 14 20 15 21 16 22 17 23 18 24
REMARK SMILES IDX 19 25
REMARK H PARENT 7 5 23 17
REMARK Flexibility Score: inf
ROOT
ATOM      1  C   UNL     1      96.710  83.293  86.611  1.00  0.00     0.010 C 
ENDROOT
BRANCH   1   2
ATOM      2  C   UNL     1      96.187  84.651  87.148  1.00  0.00     0.100 C 
BRANCH   2   3
ATOM      3  C   UNL     1      94.873  84.567  87.812  1.00  0.00     0.220 C 
ATOM      4  N   UNL     1      93.832  83.956  87.181  1.00  0.00    -0.352 N 
ATOM      5  H   UNL     1      94.029  83.657  86.236  1.00  0.00     0.163 HD
ATOM      6  O   UNL     1      94.760  85.031  88.971  1.00  0.00    -0.275 OA
BRANCH   4   7
ATOM      7  C   UNL     1      92.542  83.721  87.745  1.00  0.00     0.151 C 
BRANCH   7   8
ATOM      8  C   UNL     1      91.803  82.637  87.049  1.00  0.00    -0.025 A 
ATOM      9  C   UNL     1      89.684  81.548  86.437  1.00  0.00     0.160 A 
ATOM     10  C   UNL     1      90.400  80.534  85.764  1.00  0.00     0.157 A 
ATOM     11  C   UNL     1      90.389  82.585  87.081  1.00  0.00     0.056 A 
ATOM     12  C   UNL     1      91.805  80.585  85.712  1.00  0.00     0.050 A 
ATOM     13  C   UNL     1      92.501  81.634  86.340  1.00  0.00     0.009 A 
BRANCH   9  14
ATOM     14  O   UNL     1      88.314  81.557  86.420  1.00  0.00    -0.493 OA
ATOM     15  C   UNL     1      87.744  82.386  85.394  1.00  0.00     0.278 C 
ENDBRANCH   9  14
BRANCH  10  16
ATOM     16  O   UNL     1      89.760  79.504  85.157  1.00  0.00    -0.504 OA
ATOM     17  H   UNL     1      89.285  79.832  84.389  1.00  0.00     0.293 HD
ENDBRANCH  10  16
ENDBRANCH   7   8
ENDBRANCH   4   7
ENDBRANCH   2   3
ENDBRANCH   1   2
BRANCH   1  18
ATOM     18  C   UNL     1      96.651  83.244  85.063  1.00  0.00     0.001 C 
BRANCH  18  19
ATOM     19  C   UNL     1      98.016  83.506  84.378  1.00  0.00     0.004 C 
BRANCH  19  20
ATOM     20  C   UNL     1      98.643  82.189  83.841  1.00  0.00     0.027 C 
BRANCH  20  21
ATOM     21  C   UNL     1      98.701  82.118  82.391  1.00  0.00    -0.031 C 
ATOM     22  C   UNL     1      98.427  83.177  81.608  1.00  0.00    -0.028 C 
BRANCH  22  23
ATOM     23  C   UNL     1      98.482  83.139  80.149  1.00  0.00     0.005 C 
ATOM     24  C   UNL     1      98.946  81.741  79.664  1.00  0.00     0.012 C 
ATOM     25  C   UNL     1      97.108  83.545  79.550  1.00  0.00     0.012 C 
ENDBRANCH  22  23
ENDBRANCH  20  21
ENDBRANCH  19  20
ENDBRANCH  18  19
ENDBRANCH   1  18
TORSDOF 11
ENDMDL
MODEL 2
REMARK VINA RESULT:    -5.902     29.952     32.538
REMARK INTER + INTRA:         -10.325
REMARK INTER:                  -8.155
REMARK INTRA:                  -2.170
REMARK UNBOUND:                -0.800
REMARK SMILES COc1cc(CNC(=O)CCCCC/C=C/C(C)C)ccc1O
REMARK SMILES IDX 11 1 10 2 8 3 7 4 9 6 6 7 5 8 3 9 22 10 4 11 21 12 20 13
REMARK SMILES IDX 2 14 1 15 23 16 12 18 13 19 14 20 15 21 16 22 17 23 18 24
REMARK SMILES IDX 19 25
REMARK H PARENT 7 5 23 17
REMARK Flexibility Score: inf
ROOT
ATOM      1  C   UNL     1      67.968  84.789  70.901  1.00  0.00     0.010 C 
ENDROOT
BRANCH   1   2
ATOM      2  C   UNL     1      67.711  83.316  70.491  1.00  0.00     0.100 C 
BRANCH   2   3
ATOM      3  C   UNL     1      66.300  83.013  70.190  1.00  0.00     0.220 C 
ATOM      4  N   UNL     1      65.638  82.072  70.918  1.00  0.00    -0.352 N 
ATOM      5  H   UNL     1      66.210  81.581  71.591  1.00  0.00     0.163 HD
ATOM      6  O   UNL     1      65.730  83.669  69.286  1.00  0.00    -0.275 OA
BRANCH   4   7
ATOM      7  C   UNL     1      64.253  81.752  70.797  1.00  0.00     0.151 C 
BRANCH   7   8
ATOM      8  C   UNL     1      63.484  82.066  72.030  1.00  0.00    -0.025 A 
ATOM      9  C   UNL     1      61.879  83.479  73.245  1.00  0.00     0.160 A 
ATOM     10  C   UNL     1      62.060  82.689  74.401  1.00  0.00     0.157 A 
ATOM     11  C   UNL     1      62.598  83.168  72.073  1.00  0.00     0.056 A 
ATOM     12  C   UNL     1      62.926  81.581  74.365  1.00  0.00     0.050 A 
ATOM     13  C   UNL     1      63.624  81.265  73.185  1.00  0.00     0.009 A 
BRANCH   9  14
ATOM     14  O   UNL     1      60.974  84.507  73.243  1.00  0.00    -0.493 OA
ATOM     15  C   UNL     1      60.121  84.537  72.086  1.00  0.00     0.278 C 
ENDBRANCH   9  14
BRANCH  10  16
ATOM     16  O   UNL     1      61.410  82.973  75.557  1.00  0.00    -0.504 OA
ATOM     17  H   UNL     1      62.021  82.899  76.294  1.00  0.00     0.293 HD
ENDBRANCH  10  16
ENDBRANCH   7   8
ENDBRANCH   4   7
ENDBRANCH   2   3
ENDBRANCH   1   2
BRANCH   1  18
ATOM     18  C   UNL     1      68.097  84.927  72.439  1.00  0.00     0.001 C 
BRANCH  18  19
ATOM     19  C   UNL     1      67.047  85.876  73.070  1.00  0.00     0.004 C 
BRANCH  19  20
ATOM     20  C   UNL     1      65.628  85.240  73.057  1.00  0.00     0.027 C 
BRANCH  20  21
ATOM     21  C   UNL     1      65.021  85.140  74.373  1.00  0.00    -0.031 C 
ATOM     22  C   UNL     1      65.340  84.162  75.240  1.00  0.00    -0.028 C 
BRANCH  22  23
ATOM     23  C   UNL     1      64.752  84.037  76.571  1.00  0.00     0.005 C 
ATOM     24  C   UNL     1      65.866  83.879  77.639  1.00  0.00     0.012 C 
ATOM     25  C   UNL     1      63.822  85.246  76.863  1.00  0.00     0.012 C 
ENDBRANCH  22  23
ENDBRANCH  20  21
ENDBRANCH  19  20
ENDBRANCH  18  19
ENDBRANCH   1  18
TORSDOF 11
ENDMDL
MODEL 3
REMARK VINA RESULT:    -5.861     28.186     31.077
REMARK INTER + INTRA:         -10.258
REMARK INTER:                  -9.406
REMARK INTRA:                  -0.852
REMARK UNBOUND:                -0.800
REMARK SMILES COc1cc(CNC(=O)CCCCC/C=C/C(C)C)ccc1O
REMARK SMILES IDX 11 1 10 2 8 3 7 4 9 6 6 7 5 8 3 9 22 10 4 11 21 12 20 13
REMARK SMILES IDX 2 14 1 15 23 16 12 18 13 19 14 20 15 21 16 22 17 23 18 24
REMARK SMILES IDX 19 25
REMARK H PARENT 7 5 23 17
REMARK Flexibility Score: inf
ROOT
ATOM      1  C   UNL     1      64.580  83.158  76.318  1.00  0.00     0.010 C 
ENDROOT
BRANCH   1   2
ATOM      2  C   UNL     1      64.624  84.474  77.137  1.00  0.00     0.100 C 
BRANCH   2   3
ATOM      3  C   UNL     1      64.185  84.324  78.537  1.00  0.00     0.220 C 
ATOM      4  N   UNL     1      65.031  84.656  79.551  1.00  0.00    -0.352 N 
ATOM      5  H   UNL     1      65.960  84.924  79.255  1.00  0.00     0.163 HD
ATOM      6  O   UNL     1      63.016  83.927  78.756  1.00  0.00    -0.275 OA
BRANCH   4   7
ATOM      7  C   UNL     1      64.703  84.652  80.940  1.00  0.00     0.151 C 
BRANCH   7   8
ATOM      8  C   UNL     1      65.043  83.367  81.604  1.00  0.00    -0.025 A 
ATOM      9  C   UNL     1      64.360  81.362  82.854  1.00  0.00     0.160 A 
ATOM     10  C   UNL     1      65.707  80.942  82.915  1.00  0.00     0.157 A 
ATOM     11  C   UNL     1      64.040  82.573  82.208  1.00  0.00     0.056 A 
ATOM     12  C   UNL     1      66.711  81.715  82.303  1.00  0.00     0.050 A 
ATOM     13  C   UNL     1      66.380  82.913  81.643  1.00  0.00     0.009 A 
BRANCH   9  14
ATOM     14  O   UNL     1      63.365  80.575  83.370  1.00  0.00    -0.493 OA
ATOM     15  C   UNL     1      62.181  80.516  82.557  1.00  0.00     0.278 C 
ENDBRANCH   9  14
BRANCH  10  16
ATOM     16  O   UNL     1      66.060  79.798  83.552  1.00  0.00    -0.504 OA
ATOM     17  H   UNL     1      65.276  79.269  83.717  1.00  0.00     0.293 HD
ENDBRANCH  10  16
ENDBRANCH   7   8
ENDBRANCH   4   7
ENDBRANCH   2   3
ENDBRANCH   1   2
BRANCH   1  18
ATOM     18  C   UNL     1      63.901  83.377  74.942  1.00  0.00     0.001 C 
BRANCH  18  19
ATOM     19  C   UNL     1      62.591  82.570  74.758  1.00  0.00     0.004 C 
BRANCH  19  20
ATOM     20  C   UNL     1      62.850  81.230  74.014  1.00  0.00     0.027 C 
BRANCH  20  21
ATOM     21  C   UNL     1      63.837  81.333  72.952  1.00  0.00    -0.031 C 
ATOM     22  C   UNL     1      63.501  81.634  71.685  1.00  0.00    -0.028 C 
BRANCH  22  23
ATOM     23  C   UNL     1      64.468  81.750  70.597  1.00  0.00     0.005 C 
ATOM     24  C   UNL     1      63.792  82.356  69.339  1.00  0.00     0.012 C 
ATOM     25  C   UNL     1      65.700  82.574  71.060  1.00  0.00     0.012 C 
ENDBRANCH  22  23
ENDBRANCH  20  21
ENDBRANCH  19  20
ENDBRANCH  18  19
ENDBRANCH   1  18
TORSDOF 11
ENDMDL
MODEL 4
REMARK VINA RESULT:    -5.793     22.249     23.556
REMARK INTER + INTRA:         -10.150
REMARK INTER:                  -9.209
REMARK INTRA:                  -0.941
REMARK UNBOUND:                -0.800
REMARK SMILES COc1cc(CNC(=O)CCCCC/C=C/C(C)C)ccc1O
REMARK SMILES IDX 11 1 10 2 8 3 7 4 9 6 6 7 5 8 3 9 22 10 4 11 21 12 20 13
REMARK SMILES IDX 2 14 1 15 23 16 12 18 13 19 14 20 15 21 16 22 17 23 18 24
REMARK SMILES IDX 19 25
REMARK H PARENT 7 5 23 17
REMARK Flexibility Score: inf
ROOT
ATOM      1  C   UNL     1      75.302  92.187  71.956  1.00  0.00     0.010 C 
ENDROOT
BRANCH   1   2
ATOM      2  C   UNL     1      76.812  92.006  71.653  1.00  0.00     0.100 C 
BRANCH   2   3
ATOM      3  C   UNL     1      77.703  92.681  72.615  1.00  0.00     0.220 C 
ATOM      4  N   UNL     1      77.177  93.507  73.561  1.00  0.00    -0.352 N 
ATOM      5  H   UNL     1      76.180  93.656  73.484  1.00  0.00     0.163 HD
ATOM      6  O   UNL     1      78.932  92.442  72.558  1.00  0.00    -0.275 OA
BRANCH   4   7
ATOM      7  C   UNL     1      77.910  94.144  74.607  1.00  0.00     0.151 C 
BRANCH   7   8
ATOM      8  C   UNL     1      77.294  93.940  75.944  1.00  0.00    -0.025 A 
ATOM      9  C   UNL     1      75.596  92.883  77.374  1.00  0.00     0.160 A 
ATOM     10  C   UNL     1      76.090  93.597  78.487  1.00  0.00     0.157 A 
ATOM     11  C   UNL     1      76.195  93.066  76.111  1.00  0.00     0.056 A 
ATOM     12  C   UNL     1      77.194  94.456  78.336  1.00  0.00     0.050 A 
ATOM     13  C   UNL     1      77.799  94.618  77.075  1.00  0.00     0.009 A 
BRANCH   9  14
ATOM     14  O   UNL     1      74.578  91.979  77.528  1.00  0.00    -0.493 OA
ATOM     15  C   UNL     1      73.351  92.361  76.885  1.00  0.00     0.278 C 
ENDBRANCH   9  14
BRANCH  10  16
ATOM     16  O   UNL     1      75.524  93.471  79.714  1.00  0.00    -0.504 OA
ATOM     17  H   UNL     1      75.859  94.161  80.292  1.00  0.00     0.293 HD
ENDBRANCH  10  16
ENDBRANCH   7   8
ENDBRANCH   4   7
ENDBRANCH   2   3
ENDBRANCH   1   2
BRANCH   1  18
ATOM     18  C   UNL     1      74.480  90.977  71.445  1.00  0.00     0.001 C 
BRANCH  18  19
ATOM     19  C   UNL     1      75.333  89.905  70.721  1.00  0.00     0.004 C 
BRANCH  19  20
ATOM     20  C   UNL     1      74.755  88.478  70.940  1.00  0.00     0.027 C 
BRANCH  20  21
ATOM     21  C   UNL     1      75.533  87.429  70.303  1.00  0.00    -0.031 C 
ATOM     22  C   UNL     1      76.799  87.622  69.891  1.00  0.00    -0.028 C 
BRANCH  22  23
ATOM     23  C   UNL     1      77.609  86.587  69.253  1.00  0.00     0.005 C 
ATOM     24  C   UNL     1      76.902  85.210  69.359  1.00  0.00     0.012 C 
ATOM     25  C   UNL     1      77.920  86.979  67.783  1.00  0.00     0.012 C 
ENDBRANCH  22  23
ENDBRANCH  20  21
ENDBRANCH  19  20
ENDBRANCH  18  19
ENDBRANCH   1  18
TORSDOF 11
ENDMDL
MODEL 5
REMARK VINA RESULT:    -5.747     24.287     27.341
REMARK INTER + INTRA:         -10.076
REMARK INTER:                  -7.685
REMARK INTRA:                  -2.390
REMARK UNBOUND:                -0.800
REMARK SMILES COc1cc(CNC(=O)CCCCC/C=C/C(C)C)ccc1O
REMARK SMILES IDX 11 1 10 2 8 3 7 4 9 6 6 7 5 8 3 9 22 10 4 11 21 12 20 13
REMARK SMILES IDX 2 14 1 15 23 16 12 18 13 19 14 20 15 21 16 22 17 23 18 24
REMARK SMILES IDX 19 25
REMARK H PARENT 7 5 23 17
REMARK Flexibility Score: inf
ROOT
ATOM      1  C   UNL     1      74.013  83.366  62.938  1.00  0.00     0.010 C 
ENDROOT
BRANCH   1   2
ATOM      2  C   UNL     1      72.738  82.882  63.677  1.00  0.00     0.100 C 
BRANCH   2   3
ATOM      3  C   UNL     1      72.834  82.952  65.147  1.00  0.00     0.220 C 
ATOM      4  N   UNL     1      73.395  84.043  65.739  1.00  0.00    -0.352 N 
ATOM      5  H   UNL     1      73.784  84.718  65.095  1.00  0.00     0.163 HD
ATOM      6  O   UNL     1      72.353  82.010  65.820  1.00  0.00    -0.275 OA
BRANCH   4   7
ATOM      7  C   UNL     1      73.462  84.281  67.144  1.00  0.00     0.151 C 
BRANCH   7   8
ATOM      8  C   UNL     1      74.844  84.571  67.609  1.00  0.00    -0.025 A 
ATOM      9  C   UNL     1      76.445  86.036  68.765  1.00  0.00     0.160 A 
ATOM     10  C   UNL     1      77.491  85.142  68.447  1.00  0.00     0.157 A 
ATOM     11  C   UNL     1      75.133  85.749  68.337  1.00  0.00     0.056 A 
ATOM     12  C   UNL     1      77.212  83.959  67.738  1.00  0.00     0.050 A 
ATOM     13  C   UNL     1      75.896  83.670  67.332  1.00  0.00     0.009 A 
BRANCH   9  14
ATOM     14  O   UNL     1      76.691  87.146  69.529  1.00  0.00    -0.493 OA
ATOM     15  C   UNL     1      75.592  87.536  70.369  1.00  0.00     0.278 C 
ENDBRANCH   9  14
BRANCH  10  16
ATOM     16  O   UNL     1      78.772  85.396  68.815  1.00  0.00    -0.504 OA
ATOM     17  H   UNL     1      79.323  84.640  68.597  1.00  0.00     0.293 HD
ENDBRANCH  10  16
ENDBRANCH   7   8
ENDBRANCH   4   7
ENDBRANCH   2   3
ENDBRANCH   1   2
BRANCH   1  18
ATOM     18  C   UNL     1      75.109  82.271  62.938  1.00  0.00     0.001 C 
BRANCH  18  19
ATOM     19  C   UNL     1      76.321  82.602  63.845  1.00  0.00     0.004 C 
BRANCH  19  20
ATOM     20  C   UNL     1      77.159  83.776  63.266  1.00  0.00     0.027 C 
BRANCH  20  21
ATOM     21  C   UNL     1      77.058  85.003  64.039  1.00  0.00    -0.031 C 
ATOM     22  C   UNL     1      76.242  86.011  63.684  1.00  0.00    -0.028 C 
BRANCH  22  23
ATOM     23  C   UNL     1      76.114  87.253  64.442  1.00  0.00     0.005 C 
ATOM     24  C   UNL     1      74.676  87.392  65.008  1.00  0.00     0.012 C 
ATOM     25  C   UNL     1      77.195  87.317  65.555  1.00  0.00     0.012 C 
ENDBRANCH  22  23
ENDBRANCH  20  21
ENDBRANCH  19  20
ENDBRANCH  18  19
ENDBRANCH   1  18
TORSDOF 11
ENDMDL
MODEL 6
REMARK VINA RESULT:    -5.717     23.386     27.282
REMARK INTER + INTRA:         -10.026
REMARK INTER:                  -9.004
REMARK INTRA:                  -1.022
REMARK UNBOUND:                -0.800
REMARK SMILES COc1cc(CNC(=O)CCCCC/C=C/C(C)C)ccc1O
REMARK SMILES IDX 11 1 10 2 8 3 7 4 9 6 6 7 5 8 3 9 22 10 4 11 21 12 20 13
REMARK SMILES IDX 2 14 1 15 23 16 12 18 13 19 14 20 15 21 16 22 17 23 18 24
REMARK SMILES IDX 19 25
REMARK H PARENT 7 5 23 17
REMARK Flexibility Score: inf
ROOT
ATOM      1  C   UNL     1      74.980  83.308  64.053  1.00  0.00     0.010 C 
ENDROOT
BRANCH   1   2
ATOM      2  C   UNL     1      76.391  82.666  64.102  1.00  0.00     0.100 C 
BRANCH   2   3
ATOM      3  C   UNL     1      76.943  82.534  65.463  1.00  0.00     0.220 C 
ATOM      4  N   UNL     1      77.891  83.410  65.897  1.00  0.00    -0.352 N 
ATOM      5  H   UNL     1      78.209  84.068  65.199  1.00  0.00     0.163 HD
ATOM      6  O   UNL     1      76.490  81.632  66.205  1.00  0.00    -0.275 OA
BRANCH   4   7
ATOM      7  C   UNL     1      78.437  83.456  67.215  1.00  0.00     0.151 C 
BRANCH   7   8
ATOM      8  C   UNL     1      77.902  84.587  68.017  1.00  0.00    -0.025 A 
ATOM      9  C   UNL     1      76.471  85.431  69.830  1.00  0.00     0.160 A 
ATOM     10  C   UNL     1      76.844  86.754  69.507  1.00  0.00     0.157 A 
ATOM     11  C   UNL     1      76.995  84.360  69.078  1.00  0.00     0.056 A 
ATOM     12  C   UNL     1      77.759  86.991  68.465  1.00  0.00     0.050 A 
ATOM     13  C   UNL     1      78.292  85.915  67.731  1.00  0.00     0.009 A 
BRANCH   9  14
ATOM     14  O   UNL     1      75.651  85.184  70.899  1.00  0.00    -0.493 OA
ATOM     15  C   UNL     1      75.973  83.985  71.623  1.00  0.00     0.278 C 
ENDBRANCH   9  14
BRANCH  10  16
ATOM     16  O   UNL     1      76.341  87.815  70.188  1.00  0.00    -0.504 OA
ATOM     17  H   UNL     1      76.420  88.606  69.650  1.00  0.00     0.293 HD
ENDBRANCH  10  16
ENDBRANCH   7   8
ENDBRANCH   4   7
ENDBRANCH   2   3
ENDBRANCH   1   2
BRANCH   1  18
ATOM     18  C   UNL     1      73.912  82.279  63.602  1.00  0.00     0.001 C 
BRANCH  18  19
ATOM     19  C   UNL     1      73.325  81.439  64.765  1.00  0.00     0.004 C 
BRANCH  19  20
ATOM     20  C   UNL     1      72.899  82.341  65.956  1.00  0.00     0.027 C 
BRANCH  20  21
ATOM     21  C   UNL     1      71.490  82.239  66.293  1.00  0.00    -0.031 C 
ATOM     22  C   UNL     1      70.981  82.757  67.425  1.00  0.00    -0.028 C 
BRANCH  22  23
ATOM     23  C   UNL     1      69.569  82.675  67.789  1.00  0.00     0.005 C 
ATOM     24  C   UNL     1      69.371  83.089  69.272  1.00  0.00     0.012 C 
ATOM     25  C   UNL     1      68.714  83.533  66.818  1.00  0.00     0.012 C 
ENDBRANCH  22  23
ENDBRANCH  20  21
ENDBRANCH  19  20
ENDBRANCH  18  19
ENDBRANCH   1  18
TORSDOF 11
ENDMDL
MODEL 7
REMARK VINA RESULT:    -5.625      7.993     10.008
REMARK INTER + INTRA:          -9.878
REMARK INTER:                  -7.652
REMARK INTRA:                  -2.226
REMARK UNBOUND:                -0.800
REMARK SMILES COc1cc(CNC(=O)CCCCC/C=C/C(C)C)ccc1O
REMARK SMILES IDX 11 1 10 2 8 3 7 4 9 6 6 7 5 8 3 9 22 10 4 11 21 12 20 13
REMARK SMILES IDX 2 14 1 15 23 16 12 18 13 19 14 20 15 21 16 22 17 23 18 24
REMARK SMILES IDX 19 25
REMARK H PARENT 7 5 23 17
REMARK Flexibility Score: inf
ROOT
ATOM      1  C   UNL     1     104.155  81.255  80.630  1.00  0.00     0.010 C 
ENDROOT
BRANCH   1   2
ATOM      2  C   UNL     1     103.143  80.262  81.256  1.00  0.00     0.100 C 
BRANCH   2   3
ATOM      3  C   UNL     1     101.914  80.898  81.766  1.00  0.00     0.220 C 
ATOM      4  N   UNL     1     101.357  81.938  81.086  1.00  0.00    -0.352 N 
ATOM      5  H   UNL     1     101.890  82.253  80.288  1.00  0.00     0.163 HD
ATOM      6  O   UNL     1     101.389  80.431  82.804  1.00  0.00    -0.275 OA
BRANCH   4   7
ATOM      7  C   UNL     1     100.124  82.577  81.413  1.00  0.00     0.151 C 
BRANCH   7   8
ATOM      8  C   UNL     1      99.317  82.912  80.211  1.00  0.00    -0.025 A 
ATOM      9  C   UNL     1      99.149  83.284  77.786  1.00  0.00     0.160 A 
ATOM     10  C   UNL     1      97.782  83.604  77.930  1.00  0.00     0.157 A 
ATOM     11  C   UNL     1      99.908  82.950  78.927  1.00  0.00     0.056 A 
ATOM     12  C   UNL     1      97.180  83.553  79.201  1.00  0.00     0.050 A 
ATOM     13  C   UNL     1      97.939  83.199  80.332  1.00  0.00     0.009 A 
BRANCH   9  14
ATOM     14  O   UNL     1      99.724  83.245  76.543  1.00  0.00    -0.493 OA
ATOM     15  C   UNL     1     100.961  83.970  76.445  1.00  0.00     0.278 C 
ENDBRANCH   9  14
BRANCH  10  16
ATOM     16  O   UNL     1      97.024  83.958  76.862  1.00  0.00    -0.504 OA
ATOM     17  H   UNL     1      96.926  84.913  76.843  1.00  0.00     0.293 HD
ENDBRANCH  10  16
ENDBRANCH   7   8
ENDBRANCH   4   7
ENDBRANCH   2   3
ENDBRANCH   1   2
BRANCH   1  18
ATOM     18  C   UNL     1     104.436  80.906  79.146  1.00  0.00     0.001 C 
BRANCH  18  19
ATOM     19  C   UNL     1     103.571  81.709  78.142  1.00  0.00     0.004 C 
BRANCH  19  20
ATOM     20  C   UNL     1     102.749  80.766  77.220  1.00  0.00     0.027 C 
BRANCH  20  21
ATOM     21  C   UNL     1     101.551  80.234  77.847  1.00  0.00    -0.031 C 
ATOM     22  C   UNL     1     101.398  78.924  78.110  1.00  0.00    -0.028 C 
BRANCH  22  23
ATOM     23  C   UNL     1     100.210  78.359  78.744  1.00  0.00     0.005 C 
ATOM     24  C   UNL     1     100.551  77.848  80.169  1.00  0.00     0.012 C 
ATOM     25  C   UNL     1      99.058  79.401  78.752  1.00  0.00     0.012 C 
ENDBRANCH  22  23
ENDBRANCH  20  21
ENDBRANCH  19  20
ENDBRANCH  18  19
ENDBRANCH   1  18
TORSDOF 11
ENDMDL
MODEL 8
REMARK VINA RESULT:    -5.561     23.045     25.297
REMARK INTER + INTRA:          -9.775
REMARK INTER:                  -9.131
REMARK INTRA:                  -0.645
REMARK UNBOUND:                -0.800
REMARK SMILES COc1cc(CNC(=O)CCCCC/C=C/C(C)C)ccc1O
REMARK SMILES IDX 11 1 10 2 8 3 7 4 9 6 6 7 5 8 3 9 22 10 4 11 21 12 20 13
REMARK SMILES IDX 2 14 1 15 23 16 12 18 13 19 14 20 15 21 16 22 17 23 18 24
REMARK SMILES IDX 19 25
REMARK H PARENT 7 5 23 17
REMARK Flexibility Score: inf
ROOT
ATOM      1  C   UNL     1      73.957  88.478  71.223  1.00  0.00     0.010 C 
ENDROOT
BRANCH   1   2
ATOM      2  C   UNL     1      74.119  87.677  69.905  1.00  0.00     0.100 C 
BRANCH   2   3
ATOM      3  C   UNL     1      75.366  86.892  69.830  1.00  0.00     0.220 C 
ATOM      4  N   UNL     1      75.370  85.587  70.219  1.00  0.00    -0.352 N 
ATOM      5  H   UNL     1      74.498  85.262  70.613  1.00  0.00     0.163 HD
ATOM      6  O   UNL     1      76.391  87.445  69.366  1.00  0.00    -0.275 OA
BRANCH   4   7
ATOM      7  C   UNL     1      76.476  84.692  70.108  1.00  0.00     0.151 C 
BRANCH   7   8
ATOM      8  C   UNL     1      76.750  84.294  68.703  1.00  0.00    -0.025 A 
ATOM      9  C   UNL     1      75.968  83.443  66.532  1.00  0.00     0.160 A 
ATOM     10  C   UNL     1      77.291  83.484  66.040  1.00  0.00     0.157 A 
ATOM     11  C   UNL     1      75.709  83.839  67.860  1.00  0.00     0.056 A 
ATOM     12  C   UNL     1      78.331  83.950  66.864  1.00  0.00     0.050 A 
ATOM     13  C   UNL     1      78.062  84.362  68.182  1.00  0.00     0.009 A 
BRANCH   9  14
ATOM     14  O   UNL     1      74.935  83.075  65.711  1.00  0.00    -0.493 OA
ATOM     15  C   UNL     1      73.657  83.015  66.366  1.00  0.00     0.278 C 
ENDBRANCH   9  14
BRANCH  10  16
ATOM     16  O   UNL     1      77.586  83.085  64.777  1.00  0.00    -0.504 OA
ATOM     17  H   UNL     1      78.183  83.720  64.373  1.00  0.00     0.293 HD
ENDBRANCH  10  16
ENDBRANCH   7   8
ENDBRANCH   4   7
ENDBRANCH   2   3
ENDBRANCH   1   2
BRANCH   1  18
ATOM     18  C   UNL     1      74.921  89.691  71.263  1.00  0.00     0.001 C 
BRANCH  18  19
ATOM     19  C   UNL     1      74.568  90.802  70.242  1.00  0.00     0.004 C 
BRANCH  19  20
ATOM     20  C   UNL     1      75.179  92.169  70.658  1.00  0.00     0.027 C 
BRANCH  20  21
ATOM     21  C   UNL     1      76.369  92.050  71.484  1.00  0.00    -0.031 C 
ATOM     22  C   UNL     1      76.904  93.102  72.129  1.00  0.00    -0.028 C 
BRANCH  22  23
ATOM     23  C   UNL     1      78.095  93.015  72.971  1.00  0.00     0.005 C 
ATOM     24  C   UNL     1      79.097  94.140  72.602  1.00  0.00     0.012 C 
ATOM     25  C   UNL     1      77.695  93.048  74.471  1.00  0.00     0.012 C 
ENDBRANCH  22  23
ENDBRANCH  20  21
ENDBRANCH  19  20
ENDBRANCH  18  19
ENDBRANCH   1  18
TORSDOF 11
ENDMDL
MODEL 9
REMARK VINA RESULT:    -5.501     24.218     26.533
REMARK INTER + INTRA:          -9.679
REMARK INTER:                  -7.367
REMARK INTRA:                  -2.312
REMARK UNBOUND:                -0.800
REMARK SMILES COc1cc(CNC(=O)CCCCC/C=C/C(C)C)ccc1O
REMARK SMILES IDX 11 1 10 2 8 3 7 4 9 6 6 7 5 8 3 9 22 10 4 11 21 12 20 13
REMARK SMILES IDX 2 14 1 15 23 16 12 18 13 19 14 20 15 21 16 22 17 23 18 24
REMARK SMILES IDX 19 25
REMARK H PARENT 7 5 23 17
REMARK Flexibility Score: inf
ROOT
ATOM      1  C   UNL     1      74.664  88.542  69.575  1.00  0.00     0.010 C 
ENDROOT
BRANCH   1   2
ATOM      2  C   UNL     1      74.623  87.331  70.542  1.00  0.00     0.100 C 
BRANCH   2   3
ATOM      3  C   UNL     1      74.195  86.070  69.907  1.00  0.00     0.220 C 
ATOM      4  N   UNL     1      73.434  86.104  68.778  1.00  0.00    -0.352 N 
ATOM      5  H   UNL     1      73.149  87.029  68.490  1.00  0.00     0.163 HD
ATOM      6  O   UNL     1      74.583  84.989  70.409  1.00  0.00    -0.275 OA
BRANCH   4   7
ATOM      7  C   UNL     1      73.035  84.968  68.013  1.00  0.00     0.151 C 
BRANCH   7   8
ATOM      8  C   UNL     1      73.725  84.892  66.699  1.00  0.00    -0.025 A 
ATOM      9  C   UNL     1      74.969  83.609  65.009  1.00  0.00     0.160 A 
ATOM     10  C   UNL     1      75.085  84.770  64.214  1.00  0.00     0.157 A 
ATOM     11  C   UNL     1      74.298  83.681  66.247  1.00  0.00     0.056 A 
ATOM     12  C   UNL     1      74.504  85.976  64.645  1.00  0.00     0.050 A 
ATOM     13  C   UNL     1      73.819  86.035  65.873  1.00  0.00     0.009 A 
BRANCH   9  14
ATOM     14  O   UNL     1      75.454  82.410  64.559  1.00  0.00    -0.493 OA
ATOM     15  C   UNL     1      75.554  81.398  65.575  1.00  0.00     0.278 C 
ENDBRANCH   9  14
BRANCH  10  16
ATOM     16  O   UNL     1      75.746  84.750  63.030  1.00  0.00    -0.504 OA
ATOM     17  H   UNL     1      76.434  84.079  63.059  1.00  0.00     0.293 HD
ENDBRANCH  10  16
ENDBRANCH   7   8
ENDBRANCH   4   7
ENDBRANCH   2   3
ENDBRANCH   1   2
BRANCH   1  18
ATOM     18  C   UNL     1      76.054  88.673  68.901  1.00  0.00     0.001 C 
BRANCH  18  19
ATOM     19  C   UNL     1      76.018  88.512  67.360  1.00  0.00     0.004 C 
BRANCH  19  20
ATOM     20  C   UNL     1      77.343  87.905  66.822  1.00  0.00     0.027 C 
BRANCH  20  21
ATOM     21  C   UNL     1      77.384  86.453  66.874  1.00  0.00    -0.031 C 
ATOM     22  C   UNL     1      78.156  85.787  67.751  1.00  0.00    -0.028 C 
BRANCH  22  23
ATOM     23  C   UNL     1      78.215  84.330  67.832  1.00  0.00     0.005 C 
ATOM     24  C   UNL     1      76.984  83.783  68.602  1.00  0.00     0.012 C 
ATOM     25  C   UNL     1      78.341  83.717  66.411  1.00  0.00     0.012 C 
ENDBRANCH  22  23
ENDBRANCH  20  21
ENDBRANCH  19  20
ENDBRANCH  18  19
ENDBRANCH   1  18
TORSDOF 11
ENDMDL
MODEL 10
REMARK VINA RESULT:    -5.389     31.297     34.055
REMARK INTER + INTRA:          -9.497
REMARK INTER:                  -7.155
REMARK INTRA:                  -2.342
REMARK UNBOUND:                -0.800
REMARK SMILES COc1cc(CNC(=O)CCCCC/C=C/C(C)C)ccc1O
REMARK SMILES IDX 11 1 10 2 8 3 7 4 9 6 6 7 5 8 3 9 22 10 4 11 21 12 20 13
REMARK SMILES IDX 2 14 1 15 23 16 12 18 13 19 14 20 15 21 16 22 17 23 18 24
REMARK SMILES IDX 19 25
REMARK H PARENT 7 5 23 17
REMARK Flexibility Score: inf
ROOT
ATOM      1  C   UNL     1      61.137  84.431  73.939  1.00  0.00     0.010 C 
ENDROOT
BRANCH   1   2
ATOM      2  C   UNL     1      61.038  82.904  73.686  1.00  0.00     0.100 C 
BRANCH   2   3
ATOM      3  C   UNL     1      62.344  82.233  73.548  1.00  0.00     0.220 C 
ATOM      4  N   UNL     1      62.890  82.060  72.313  1.00  0.00    -0.352 N 
ATOM      5  H   UNL     1      62.300  82.353  71.546  1.00  0.00     0.163 HD
ATOM      6  O   UNL     1      62.942  81.873  74.590  1.00  0.00    -0.275 OA
BRANCH   4   7
ATOM      7  C   UNL     1      64.183  81.518  72.046  1.00  0.00     0.151 C 
BRANCH   7   8
ATOM      8  C   UNL     1      65.141  82.540  71.553  1.00  0.00    -0.025 A 
ATOM      9  C   UNL     1      65.858  84.886  71.375  1.00  0.00     0.160 A 
ATOM     10  C   UNL     1      66.945  84.492  70.565  1.00  0.00     0.157 A 
ATOM     11  C   UNL     1      64.961  83.910  71.855  1.00  0.00     0.056 A 
ATOM     12  C   UNL     1      67.144  83.130  70.273  1.00  0.00     0.050 A 
ATOM     13  C   UNL     1      66.255  82.160  70.772  1.00  0.00     0.009 A 
BRANCH   9  14
ATOM     14  O   UNL     1      65.705  86.198  71.738  1.00  0.00    -0.493 OA
ATOM     15  C   UNL     1      64.337  86.635  71.800  1.00  0.00     0.278 C 
ENDBRANCH   9  14
BRANCH  10  16
ATOM     16  O   UNL     1      67.815  85.402  70.060  1.00  0.00    -0.504 OA
ATOM     17  H   UNL     1      68.607  85.423  70.603  1.00  0.00     0.293 HD
ENDBRANCH  10  16
ENDBRANCH   7   8
ENDBRANCH   4   7
ENDBRANCH   2   3
ENDBRANCH   1   2
BRANCH   1  18
ATOM     18  C   UNL     1      60.264  85.222  72.931  1.00  0.00     0.001 C 
BRANCH  18  19
ATOM     19  C   UNL     1      60.136  84.538  71.547  1.00  0.00     0.004 C 
BRANCH  19  20
ATOM     20  C   UNL     1      61.170  85.106  70.535  1.00  0.00     0.027 C 
BRANCH  20  21
ATOM     21  C   UNL     1      61.573  84.154  69.514  1.00  0.00    -0.031 C 
ATOM     22  C   UNL     1      62.821  84.120  69.015  1.00  0.00    -0.028 C 
BRANCH  22  23
ATOM     23  C   UNL     1      63.259  83.173  67.993  1.00  0.00     0.005 C 
ATOM     24  C   UNL     1      64.702  83.507  67.531  1.00  0.00     0.012 C 
ATOM     25  C   UNL     1      63.131  81.717  68.520  1.00  0.00     0.012 C 
ENDBRANCH  22  23
ENDBRANCH  20  21
ENDBRANCH  19  20
ENDBRANCH  18  19
ENDBRANCH   1  18
TORSDOF 11
ENDMDL
