MODEL 1
REMARK VINA RESULT:    -7.893      0.000      0.000
REMARK INTER + INTRA:         -13.673
REMARK INTER:                 -13.430
REMARK INTRA:                  -0.243
REMARK UNBOUND:                -0.243
REMARK SMILES C=C(C)[C@]12C[C@@H](C)[C@@]34O[C@](Cc5ccccc5)(O[C@@H]1[C@@H]3C=C(COC(=O)Cc1ccc(O)cc1)C[C@]1(O)C(=O)C(C)=C[C@@H]41)O2
REMARK SMILES IDX 23 1 22 2 21 3 20 4 9 5 8 6 10 7 6 8 18 10 44 11 19 12 5 13
REMARK SMILES IDX 7 14 4 15 11 16 12 17 13 18 17 19 14 20 16 21 15 22 2 23
REMARK SMILES IDX 3 24 1 25 35 26 36 27 43 28 38 29 42 30 39 32 40 33 41 34
REMARK SMILES IDX 37 35 24 37 25 38 26 39 27 40 28 41 29 42 34 43 30 44 33 45
REMARK SMILES IDX 31 46 32 47
REMARK H PARENT 37 36 32 48
REMARK Flexibility Score: 90.00
ROOT
ATOM      1  C   UNL     1      93.245  99.112  71.095  1.00  0.00     0.264 C 
ENDROOT
BRANCH   1   2
ATOM      2  C   UNL     1      94.663  98.957  71.594  1.00  0.00    -0.033 C 
ATOM      3  C   UNL     1      94.874  98.593  72.876  1.00  0.00    -0.015 C 
BRANCH   3   4
ATOM      4  C   UNL     1      96.183  98.445  73.634  1.00  0.00     0.078 C 
ATOM      5  O   UNL     1      96.878  96.081  73.415  1.00  0.00    -0.319 OA
ATOM      6  C   UNL     1      97.264  97.449  73.073  1.00  0.00     0.095 CG0
ATOM      7  C   UNL     1      96.379  95.900  74.755  1.00  0.00     0.289 C 
ATOM      8  C   UNL     1      98.643  97.794  73.772  1.00  0.00     0.023 C 
ATOM      9  G   UNL     1      97.280  97.469  71.517  1.00  0.00     0.000 G0
ATOM     10  O   UNL     1      95.252  96.734  75.005  1.00  0.00    -0.320 OA
ATOM     11  O   UNL     1      97.344  96.249  75.744  1.00  0.00    -0.313 OA
ATOM     12  C   UNL     1      95.900  98.012  75.094  1.00  0.00     0.170 C 
ATOM     13  C   UNL     1      98.434  98.302  75.231  1.00  0.00     0.049 C 
ATOM     14  C   UNL     1      99.687  96.664  73.770  1.00  0.00     0.011 C 
ATOM     15  C   UNL     1      97.194  97.678  75.875  1.00  0.00     0.122 C 
BRANCH   7  16
ATOM     16  C   UNL     1      95.989  94.445  74.923  1.00  0.00     0.135 C 
BRANCH  16  17
ATOM     17  C   UNL     1      94.653  94.292  75.606  1.00  0.00    -0.040 A 
ATOM     18  C   UNL     1      94.584  94.232  76.998  1.00  0.00     0.004 A 
ATOM     19  C   UNL     1      93.487  94.212  74.846  1.00  0.00     0.004 A 
ATOM     20  C   UNL     1      93.348  94.091  77.630  1.00  0.00     0.000 A 
ATOM     21  C   UNL     1      92.251  94.071  75.478  1.00  0.00     0.000 A 
ATOM     22  C   UNL     1      92.182  94.011  76.869  1.00  0.00     0.000 A 
ENDBRANCH  16  17
ENDBRANCH   7  16
BRANCH  15  23
ATOM     23  C   UNL     1      97.075  98.007  77.327  1.00  0.00    -0.046 C 
ATOM     24  C   UNL     1      97.138  96.847  78.276  1.00  0.00     0.042 C 
ATOM     25  C   UNL     1      96.920  99.268  77.758  1.00  0.00     0.010 C 
ENDBRANCH  15  23
ENDBRANCH   3   4
BRANCH   2  26
ATOM     26  C   UNL     1      95.704  99.238  70.528  1.00  0.00     0.078 C 
BRANCH  26  27
ATOM     27  C   UNL     1      97.150  98.866  70.849  1.00  0.00     0.140 C 
ATOM     28  C   UNL     1      97.262  97.478  71.514  1.00  0.00     0.086 CG0
ATOM     29  C   UNL     1      97.996  98.698  69.604  1.00  0.00     0.190 C 
ATOM     30  C   UNL     1      98.392  96.823  70.771  1.00  0.00    -0.010 C 
ATOM     31  G   UNL     1      97.261  97.463  73.071  1.00  0.00     0.000 G0
ATOM     32  O   UNL     1      98.051  99.488  68.673  1.00  0.00    -0.291 OA
ATOM     33  C   UNL     1      98.808  97.469  69.677  1.00  0.00    -0.008 C 
ATOM     34  C   UNL     1      99.824  97.085  68.675  1.00  0.00     0.048 C 
BRANCH  27  35
ATOM     35  O   UNL     1      97.805  99.899  71.565  1.00  0.00    -0.381 OA
ATOM     36  H   UNL     1      98.205  99.513  72.363  1.00  0.00     0.212 HD
ENDBRANCH  27  35
ENDBRANCH  26  27
ENDBRANCH   2  26
ENDBRANCH   1   2
BRANCH   1  37
ATOM     37  O   UNL     1      93.091 100.391  70.518  1.00  0.00    -0.461 OA
BRANCH  37  38
ATOM     38  C   UNL     1      91.833 100.702  70.055  1.00  0.00     0.310 C 
ATOM     39  O   UNL     1      90.881 101.007  70.760  1.00  0.00    -0.252 OA
BRANCH  38  40
ATOM     40  C   UNL     1      91.813 100.608  68.548  1.00  0.00     0.158 C 
BRANCH  40  41
ATOM     41  C   UNL     1      91.114  99.372  68.046  1.00  0.00    -0.037 A 
ATOM     42  C   UNL     1      90.926  98.282  68.896  1.00  0.00     0.008 A 
ATOM     43  C   UNL     1      90.654  99.316  66.730  1.00  0.00     0.008 A 
ATOM     44  C   UNL     1      90.279  97.137  68.430  1.00  0.00     0.046 A 
ATOM     45  C   UNL     1      90.006  98.172  66.264  1.00  0.00     0.046 A 
ATOM     46  C   UNL     1      89.819  97.082  67.114  1.00  0.00     0.115 A 
BRANCH  46  47
ATOM     47  O   UNL     1      89.189  95.965  66.660  1.00  0.00    -0.508 OA
ATOM     48  H   UNL     1      88.844  95.466  67.421  1.00  0.00     0.293 HD
ENDBRANCH  46  47
ENDBRANCH  40  41
ENDBRANCH  38  40
ENDBRANCH  37  38
ENDBRANCH   1  37
TORSDOF 10
ENDMDL
MODEL 2
REMARK VINA RESULT:    -7.368     29.613     33.783
REMARK INTER + INTRA:         -12.780
REMARK INTER:                 -11.471
REMARK INTRA:                  -1.309
REMARK UNBOUND:                -0.243
REMARK SMILES C=C(C)[C@]12C[C@@H](C)[C@@]34O[C@](Cc5ccccc5)(O[C@@H]1[C@@H]3C=C(COC(=O)Cc1ccc(O)cc1)C[C@]1(O)C(=O)C(C)=C[C@@H]41)O2
REMARK SMILES IDX 23 1 22 2 21 3 20 4 9 5 8 6 10 7 6 8 18 10 44 11 19 12 5 13
REMARK SMILES IDX 7 14 4 15 11 16 12 17 13 18 17 19 14 20 16 21 15 22 2 23
REMARK SMILES IDX 3 24 1 25 35 26 36 27 43 28 38 29 42 30 39 32 40 33 41 34
REMARK SMILES IDX 37 35 24 37 25 38 26 39 27 40 28 41 29 42 34 43 30 44 33 45
REMARK SMILES IDX 31 46 32 47
REMARK H PARENT 37 36 32 48
REMARK Flexibility Score: 90.00
ROOT
ATOM      1  C   UNL     1      62.312  87.697  78.768  1.00  0.00     0.264 C 
ENDROOT
BRANCH   1   2
ATOM      2  C   UNL     1      63.416  87.346  77.798  1.00  0.00    -0.033 C 
ATOM      3  C   UNL     1      63.367  86.168  77.142  1.00  0.00    -0.015 C 
BRANCH   3   4
ATOM      4  C   UNL     1      64.377  85.553  76.186  1.00  0.00     0.078 C 
ATOM      5  O   UNL     1      63.712  86.230  73.902  1.00  0.00    -0.319 OA
ATOM      6  C   UNL     1      64.775  86.361  74.897  1.00  0.00     0.095 CG0
ATOM      7  C   UNL     1      63.160  84.907  73.763  1.00  0.00     0.289 C 
ATOM      8  C   UNL     1      66.108  85.725  74.324  1.00  0.00     0.023 C 
ATOM      9  G   UNL     1      64.838  87.887  75.198  1.00  0.00     0.000 G0
ATOM     10  O   UNL     1      62.643  84.428  75.002  1.00  0.00    -0.320 OA
ATOM     11  O   UNL     1      64.137  83.951  73.358  1.00  0.00    -0.313 OA
ATOM     12  C   UNL     1      63.870  84.172  75.703  1.00  0.00     0.170 C 
ATOM     13  C   UNL     1      66.165  84.188  74.581  1.00  0.00     0.049 C 
ATOM     14  C   UNL     1      66.389  86.004  72.838  1.00  0.00     0.011 C 
ATOM     15  C   UNL     1      64.768  83.565  74.597  1.00  0.00     0.122 C 
BRANCH   7  16
ATOM     16  C   UNL     1      62.050  84.962  72.732  1.00  0.00     0.135 C 
BRANCH  16  17
ATOM     17  C   UNL     1      62.233  83.929  71.648  1.00  0.00    -0.040 A 
ATOM     18  C   UNL     1      62.617  84.323  70.366  1.00  0.00     0.004 A 
ATOM     19  C   UNL     1      62.018  82.580  71.928  1.00  0.00     0.004 A 
ATOM     20  C   UNL     1      62.786  83.367  69.364  1.00  0.00     0.000 A 
ATOM     21  C   UNL     1      62.188  81.624  70.926  1.00  0.00     0.000 A 
ATOM     22  C   UNL     1      62.571  82.018  69.644  1.00  0.00     0.000 A 
ENDBRANCH  16  17
ENDBRANCH   7  16
BRANCH  15  23
ATOM     23  C   UNL     1      64.805  82.073  74.660  1.00  0.00    -0.046 C 
ATOM     24  C   UNL     1      64.451  81.457  75.981  1.00  0.00     0.042 C 
ATOM     25  C   UNL     1      65.137  81.326  73.596  1.00  0.00     0.010 C 
ENDBRANCH  15  23
ENDBRANCH   3   4
BRANCH   2  26
ATOM     26  C   UNL     1      64.476  88.426  77.686  1.00  0.00     0.078 C 
BRANCH  26  27
ATOM     27  C   UNL     1      65.515  88.271  76.577  1.00  0.00     0.140 C 
ATOM     28  C   UNL     1      64.875  87.891  75.226  1.00  0.00     0.086 CG0
ATOM     29  C   UNL     1      66.213  89.575  76.250  1.00  0.00     0.190 C 
ATOM     30  C   UNL     1      65.547  88.814  74.248  1.00  0.00    -0.010 C 
ATOM     31  G   UNL     1      64.795  86.369  74.909  1.00  0.00     0.000 G0
ATOM     32  O   UNL     1      66.705  90.339  77.067  1.00  0.00    -0.291 OA
ATOM     33  C   UNL     1      66.282  89.787  74.792  1.00  0.00    -0.008 C 
ATOM     34  C   UNL     1      67.006  90.905  74.151  1.00  0.00     0.048 C 
BRANCH  27  35
ATOM     35  O   UNL     1      66.571  87.412  76.972  1.00  0.00    -0.381 OA
ATOM     36  H   UNL     1      66.430  86.543  76.560  1.00  0.00     0.212 HD
ENDBRANCH  27  35
ENDBRANCH  26  27
ENDBRANCH   2  26
ENDBRANCH   1   2
BRANCH   1  37
ATOM     37  O   UNL     1      62.813  88.584  79.745  1.00  0.00    -0.461 OA
BRANCH  37  38
ATOM     38  C   UNL     1      63.048  88.047  80.990  1.00  0.00     0.310 C 
ATOM     39  O   UNL     1      62.221  87.449  81.664  1.00  0.00    -0.252 OA
BRANCH  38  40
ATOM     40  C   UNL     1      64.480  88.310  81.390  1.00  0.00     0.158 C 
BRANCH  40  41
ATOM     41  C   UNL     1      65.283  87.047  81.564  1.00  0.00    -0.037 A 
ATOM     42  C   UNL     1      65.982  86.511  80.483  1.00  0.00     0.008 A 
ATOM     43  C   UNL     1      65.327  86.413  82.805  1.00  0.00     0.008 A 
ATOM     44  C   UNL     1      66.725  85.341  80.643  1.00  0.00     0.046 A 
ATOM     45  C   UNL     1      66.070  85.243  82.967  1.00  0.00     0.046 A 
ATOM     46  C   UNL     1      66.769  84.707  81.886  1.00  0.00     0.115 A 
BRANCH  46  47
ATOM     47  O   UNL     1      67.493  83.566  82.042  1.00  0.00    -0.508 OA
ATOM     48  H   UNL     1      67.060  82.847  81.550  1.00  0.00     0.293 HD
ENDBRANCH  46  47
ENDBRANCH  40  41
ENDBRANCH  38  40
ENDBRANCH  37  38
ENDBRANCH   1  37
TORSDOF 10
ENDMDL
MODEL 3
REMARK VINA RESULT:    -7.171     30.005     33.247
REMARK INTER + INTRA:         -12.444
REMARK INTER:                 -11.763
REMARK INTRA:                  -0.681
REMARK UNBOUND:                -0.243
REMARK SMILES C=C(C)[C@]12C[C@@H](C)[C@@]34O[C@](Cc5ccccc5)(O[C@@H]1[C@@H]3C=C(COC(=O)Cc1ccc(O)cc1)C[C@]1(O)C(=O)C(C)=C[C@@H]41)O2
REMARK SMILES IDX 23 1 22 2 21 3 20 4 9 5 8 6 10 7 6 8 18 10 44 11 19 12 5 13
REMARK SMILES IDX 7 14 4 15 11 16 12 17 13 18 17 19 14 20 16 21 15 22 2 23
REMARK SMILES IDX 3 24 1 25 35 26 36 27 43 28 38 29 42 30 39 32 40 33 41 34
REMARK SMILES IDX 37 35 24 37 25 38 26 39 27 40 28 41 29 42 34 43 30 44 33 45
REMARK SMILES IDX 31 46 32 47
REMARK H PARENT 37 36 32 48
REMARK Flexibility Score: 90.00
ROOT
ATOM      1  C   UNL     1      64.470  83.298  75.499  1.00  0.00     0.264 C 
ENDROOT
BRANCH   1   2
ATOM      2  C   UNL     1      64.374  84.806  75.537  1.00  0.00    -0.033 C 
ATOM      3  C   UNL     1      64.158  85.423  76.718  1.00  0.00    -0.015 C 
BRANCH   3   4
ATOM      4  C   UNL     1      63.948  86.900  77.011  1.00  0.00     0.078 C 
ATOM      5  O   UNL     1      66.170  87.854  77.529  1.00  0.00    -0.319 OA
ATOM      6  C   UNL     1      65.066  87.916  76.573  1.00  0.00     0.095 CG0
ATOM      7  C   UNL     1      65.781  87.787  78.915  1.00  0.00     0.289 C 
ATOM      8  C   UNL     1      64.432  89.367  76.599  1.00  0.00     0.023 C 
ATOM      9  G   UNL     1      65.702  87.488  75.218  1.00  0.00     0.000 G0
ATOM     10  O   UNL     1      64.941  86.663  79.163  1.00  0.00    -0.320 OA
ATOM     11  O   UNL     1      65.028  88.928  79.322  1.00  0.00    -0.313 OA
ATOM     12  C   UNL     1      63.731  87.109  78.530  1.00  0.00     0.170 C 
ATOM     13  C   UNL     1      63.361  89.504  77.724  1.00  0.00     0.049 C 
ATOM     14  C   UNL     1      65.437  90.527  76.708  1.00  0.00     0.011 C 
ATOM     15  C   UNL     1      63.680  88.606  78.921  1.00  0.00     0.122 C 
BRANCH   7  16
ATOM     16  C   UNL     1      67.037  87.685  79.756  1.00  0.00     0.135 C 
BRANCH  16  17
ATOM     17  C   UNL     1      66.908  86.648  80.844  1.00  0.00    -0.040 A 
ATOM     18  C   UNL     1      66.264  86.966  82.039  1.00  0.00     0.004 A 
ATOM     19  C   UNL     1      67.432  85.370  80.652  1.00  0.00     0.004 A 
ATOM     20  C   UNL     1      66.144  86.006  83.044  1.00  0.00     0.000 A 
ATOM     21  C   UNL     1      67.313  84.410  81.658  1.00  0.00     0.000 A 
ATOM     22  C   UNL     1      66.669  84.728  82.853  1.00  0.00     0.000 A 
ENDBRANCH  16  17
ENDBRANCH   7  16
BRANCH  15  23
ATOM     23  C   UNL     1      62.773  88.853  80.081  1.00  0.00    -0.046 C 
ATOM     24  C   UNL     1      61.475  89.539  79.773  1.00  0.00     0.042 C 
ATOM     25  C   UNL     1      63.099  88.483  81.328  1.00  0.00     0.010 C 
ENDBRANCH  15  23
ENDBRANCH   3   4
BRANCH   2  26
ATOM     26  C   UNL     1      64.549  85.449  74.175  1.00  0.00     0.078 C 
BRANCH  26  27
ATOM     27  C   UNL     1      64.709  86.967  74.135  1.00  0.00     0.140 C 
ATOM     28  C   UNL     1      65.693  87.479  75.207  1.00  0.00     0.086 CG0
ATOM     29  C   UNL     1      65.349  87.450  72.850  1.00  0.00     0.190 C 
ATOM     30  C   UNL     1      66.560  88.448  74.453  1.00  0.00    -0.010 C 
ATOM     31  G   UNL     1      65.064  87.913  76.564  1.00  0.00     0.000 G0
ATOM     32  O   UNL     1      65.013  87.118  71.723  1.00  0.00    -0.291 OA
ATOM     33  C   UNL     1      66.411  88.436  73.125  1.00  0.00    -0.008 C 
ATOM     34  C   UNL     1      67.142  89.181  72.079  1.00  0.00     0.048 C 
BRANCH  27  35
ATOM     35  O   UNL     1      63.452  87.622  74.153  1.00  0.00    -0.381 OA
ATOM     36  H   UNL     1      63.198  87.824  73.236  1.00  0.00     0.212 HD
ENDBRANCH  27  35
ENDBRANCH  26  27
ENDBRANCH   2  26
ENDBRANCH   1   2
BRANCH   1  37
ATOM     37  O   UNL     1      63.731  82.811  74.399  1.00  0.00    -0.461 OA
BRANCH  37  38
ATOM     38  C   UNL     1      62.537  82.196  74.694  1.00  0.00     0.310 C 
ATOM     39  O   UNL     1      61.903  82.351  75.728  1.00  0.00    -0.252 OA
BRANCH  38  40
ATOM     40  C   UNL     1      62.133  81.303  73.545  1.00  0.00     0.158 C 
BRANCH  40  41
ATOM     41  C   UNL     1      62.024  82.041  72.237  1.00  0.00    -0.037 A 
ATOM     42  C   UNL     1      62.661  81.544  71.100  1.00  0.00     0.008 A 
ATOM     43  C   UNL     1      61.286  83.222  72.162  1.00  0.00     0.008 A 
ATOM     44  C   UNL     1      62.561  82.229  69.888  1.00  0.00     0.046 A 
ATOM     45  C   UNL     1      61.185  83.907  70.950  1.00  0.00     0.046 A 
ATOM     46  C   UNL     1      61.822  83.410  69.814  1.00  0.00     0.115 A 
BRANCH  46  47
ATOM     47  O   UNL     1      61.724  84.078  68.632  1.00  0.00    -0.508 OA
ATOM     48  H   UNL     1      61.750  85.035  68.807  1.00  0.00     0.293 HD
ENDBRANCH  46  47
ENDBRANCH  40  41
ENDBRANCH  38  40
ENDBRANCH  37  38
ENDBRANCH   1  37
TORSDOF 10
ENDMDL
MODEL 4
REMARK VINA RESULT:    -7.017     27.977     31.775
REMARK INTER + INTRA:         -12.183
REMARK INTER:                 -11.332
REMARK INTRA:                  -0.851
REMARK UNBOUND:                -0.243
REMARK SMILES C=C(C)[C@]12C[C@@H](C)[C@@]34O[C@](Cc5ccccc5)(O[C@@H]1[C@@H]3C=C(COC(=O)Cc1ccc(O)cc1)C[C@]1(O)C(=O)C(C)=C[C@@H]41)O2
REMARK SMILES IDX 23 1 22 2 21 3 20 4 9 5 8 6 10 7 6 8 18 10 44 11 19 12 5 13
REMARK SMILES IDX 7 14 4 15 11 16 12 17 13 18 17 19 14 20 16 21 15 22 2 23
REMARK SMILES IDX 3 24 1 25 35 26 36 27 43 28 38 29 42 30 39 32 40 33 41 34
REMARK SMILES IDX 37 35 24 37 25 38 26 39 27 40 28 41 29 42 34 43 30 44 33 45
REMARK SMILES IDX 31 46 32 47
REMARK H PARENT 37 36 32 48
REMARK Flexibility Score: 90.00
ROOT
ATOM      1  C   UNL     1      87.138  66.608  70.952  1.00  0.00     0.264 C 
ENDROOT
BRANCH   1   2
ATOM      2  C   UNL     1      86.027  66.245  71.911  1.00  0.00    -0.033 C 
ATOM      3  C   UNL     1      86.287  66.199  73.234  1.00  0.00    -0.015 C 
BRANCH   3   4
ATOM      4  C   UNL     1      85.378  65.793  74.383  1.00  0.00     0.078 C 
ATOM      5  O   UNL     1      84.278  67.854  75.194  1.00  0.00    -0.319 OA
ATOM      6  C   UNL     1      84.017  66.559  74.567  1.00  0.00     0.095 CG0
ATOM      7  C   UNL     1      85.227  67.832  76.277  1.00  0.00     0.289 C 
ATOM      8  C   UNL     1      83.102  65.689  75.523  1.00  0.00     0.023 C 
ATOM      9  G   UNL     1      83.392  66.916  73.187  1.00  0.00     0.000 G0
ATOM     10  O   UNL     1      86.482  67.305  75.855  1.00  0.00    -0.320 OA
ATOM     11  O   UNL     1      84.803  67.001  77.354  1.00  0.00    -0.313 OA
ATOM     12  C   UNL     1      86.140  65.916  75.725  1.00  0.00     0.170 C 
ATOM     13  C   UNL     1      83.950  64.918  76.581  1.00  0.00     0.049 C 
ATOM     14  C   UNL     1      81.973  66.454  76.235  1.00  0.00     0.011 C 
ATOM     15  C   UNL     1      85.223  65.681  76.951  1.00  0.00     0.122 C 
BRANCH   7  16
ATOM     16  C   UNL     1      85.409  69.252  76.777  1.00  0.00     0.135 C 
BRANCH  16  17
ATOM     17  C   UNL     1      86.736  69.834  76.359  1.00  0.00    -0.040 A 
ATOM     18  C   UNL     1      87.838  69.740  77.209  1.00  0.00     0.004 A 
ATOM     19  C   UNL     1      86.861  70.466  75.122  1.00  0.00     0.004 A 
ATOM     20  C   UNL     1      89.066  70.278  76.821  1.00  0.00     0.000 A 
ATOM     21  C   UNL     1      88.089  71.004  74.735  1.00  0.00     0.000 A 
ATOM     22  C   UNL     1      89.190  70.910  75.584  1.00  0.00     0.000 A 
ENDBRANCH  16  17
ENDBRANCH   7  16
BRANCH  15  23
ATOM     23  C   UNL     1      85.958  65.053  78.090  1.00  0.00    -0.046 C 
ATOM     24  C   UNL     1      86.598  63.724  77.812  1.00  0.00     0.042 C 
ATOM     25  C   UNL     1      86.042  65.642  79.291  1.00  0.00     0.010 C 
ENDBRANCH  15  23
ENDBRANCH   3   4
BRANCH   2  26
ATOM     26  C   UNL     1      84.706  65.976  71.217  1.00  0.00     0.078 C 
BRANCH  26  27
ATOM     27  C   UNL     1      83.473  65.812  72.103  1.00  0.00     0.140 C 
ATOM     28  C   UNL     1      83.378  66.911  73.182  1.00  0.00     0.086 CG0
ATOM     29  C   UNL     1      82.179  65.996  71.337  1.00  0.00     0.190 C 
ATOM     30  C   UNL     1      81.941  67.346  73.114  1.00  0.00    -0.010 C 
ATOM     31  G   UNL     1      84.008  66.570  74.564  1.00  0.00     0.000 G0
ATOM     32  O   UNL     1      81.903  65.460  70.274  1.00  0.00    -0.291 OA
ATOM     33  C   UNL     1      81.248  66.872  72.073  1.00  0.00    -0.008 C 
ATOM     34  C   UNL     1      79.860  67.149  71.649  1.00  0.00     0.048 C 
BRANCH  27  35
ATOM     35  O   UNL     1      83.376  64.494  72.618  1.00  0.00    -0.381 OA
ATOM     36  H   UNL     1      83.675  63.874  71.931  1.00  0.00     0.212 HD
ENDBRANCH  27  35
ENDBRANCH  26  27
ENDBRANCH   2  26
ENDBRANCH   1   2
BRANCH   1  37
ATOM     37  O   UNL     1      86.944  67.929  70.493  1.00  0.00    -0.461 OA
BRANCH  37  38
ATOM     38  C   UNL     1      87.621  68.915  71.175  1.00  0.00     0.310 C 
ATOM     39  O   UNL     1      88.563  68.726  71.931  1.00  0.00    -0.252 OA
BRANCH  38  40
ATOM     40  C   UNL     1      87.019  70.260  70.845  1.00  0.00     0.158 C 
BRANCH  40  41
ATOM     41  C   UNL     1      87.677  70.924  69.664  1.00  0.00    -0.037 A 
ATOM     42  C   UNL     1      88.988  71.388  69.766  1.00  0.00     0.008 A 
ATOM     43  C   UNL     1      86.975  71.075  68.468  1.00  0.00     0.008 A 
ATOM     44  C   UNL     1      89.597  72.004  68.672  1.00  0.00     0.046 A 
ATOM     45  C   UNL     1      87.584  71.690  67.374  1.00  0.00     0.046 A 
ATOM     46  C   UNL     1      88.895  72.155  67.476  1.00  0.00     0.115 A 
BRANCH  46  47
ATOM     47  O   UNL     1      89.489  72.756  66.409  1.00  0.00    -0.508 OA
ATOM     48  H   UNL     1      89.712  73.673  66.648  1.00  0.00     0.293 HD
ENDBRANCH  46  47
ENDBRANCH  40  41
ENDBRANCH  38  40
ENDBRANCH  37  38
ENDBRANCH   1  37
TORSDOF 10
ENDMDL
MODEL 5
REMARK VINA RESULT:    -6.840     27.475     30.839
REMARK INTER + INTRA:         -11.881
REMARK INTER:                 -11.812
REMARK INTRA:                  -0.069
REMARK UNBOUND:                -0.243
REMARK SMILES C=C(C)[C@]12C[C@@H](C)[C@@]34O[C@](Cc5ccccc5)(O[C@@H]1[C@@H]3C=C(COC(=O)Cc1ccc(O)cc1)C[C@]1(O)C(=O)C(C)=C[C@@H]41)O2
REMARK SMILES IDX 23 1 22 2 21 3 20 4 9 5 8 6 10 7 6 8 18 10 44 11 19 12 5 13
REMARK SMILES IDX 7 14 4 15 11 16 12 17 13 18 17 19 14 20 16 21 15 22 2 23
REMARK SMILES IDX 3 24 1 25 35 26 36 27 43 28 38 29 42 30 39 32 40 33 41 34
REMARK SMILES IDX 37 35 24 37 25 38 26 39 27 40 28 41 29 42 34 43 30 44 33 45
REMARK SMILES IDX 31 46 32 47
REMARK H PARENT 37 36 32 48
REMARK Flexibility Score: 90.00
ROOT
ATOM      1  C   UNL     1      86.766  71.084  69.038  1.00  0.00     0.264 C 
ENDROOT
BRANCH   1   2
ATOM      2  C   UNL     1      86.756  69.765  69.776  1.00  0.00    -0.033 C 
ATOM      3  C   UNL     1      86.207  69.701  71.006  1.00  0.00    -0.015 C 
BRANCH   3   4
ATOM      4  C   UNL     1      86.139  68.531  71.974  1.00  0.00     0.078 C 
ATOM      5  O   UNL     1      83.996  67.371  71.554  1.00  0.00    -0.319 OA
ATOM      6  C   UNL     1      85.446  67.202  71.495  1.00  0.00     0.095 CG0
ATOM      7  C   UNL     1      83.502  68.040  72.731  1.00  0.00     0.289 C 
ATOM      8  C   UNL     1      85.880  66.049  72.491  1.00  0.00     0.023 C 
ATOM      9  G   UNL     1      85.745  66.934  69.991  1.00  0.00     0.000 G0
ATOM     10  O   UNL     1      84.085  69.332  72.875  1.00  0.00    -0.320 OA
ATOM     11  O   UNL     1      83.821  67.336  73.929  1.00  0.00    -0.313 OA
ATOM     12  C   UNL     1      85.415  68.963  73.273  1.00  0.00     0.170 C 
ATOM     13  C   UNL     1      86.081  66.589  73.940  1.00  0.00     0.049 C 
ATOM     14  C   UNL     1      84.952  64.823  72.528  1.00  0.00     0.011 C 
ATOM     15  C   UNL     1      85.161  67.776  74.233  1.00  0.00     0.122 C 
BRANCH   7  16
ATOM     16  C   UNL     1      81.996  68.167  72.607  1.00  0.00     0.135 C 
BRANCH  16  17
ATOM     17  C   UNL     1      81.286  66.894  72.994  1.00  0.00    -0.040 A 
ATOM     18  C   UNL     1      80.522  66.207  72.051  1.00  0.00     0.004 A 
ATOM     19  C   UNL     1      81.395  66.404  74.295  1.00  0.00     0.004 A 
ATOM     20  C   UNL     1      79.866  65.029  72.409  1.00  0.00     0.000 A 
ATOM     21  C   UNL     1      80.738  65.226  74.653  1.00  0.00     0.000 A 
ATOM     22  C   UNL     1      79.974  64.539  73.710  1.00  0.00     0.000 A 
ENDBRANCH  16  17
ENDBRANCH   7  16
BRANCH  15  23
ATOM     23  C   UNL     1      85.204  68.194  75.667  1.00  0.00    -0.046 C 
ATOM     24  C   UNL     1      86.064  69.382  75.984  1.00  0.00     0.042 C 
ATOM     25  C   UNL     1      84.514  67.545  76.616  1.00  0.00     0.010 C 
ENDBRANCH  15  23
ENDBRANCH   3   4
BRANCH   2  26
ATOM     26  C   UNL     1      87.392  68.636  68.986  1.00  0.00     0.078 C 
BRANCH  26  27
ATOM     27  C   UNL     1      87.226  67.220  69.534  1.00  0.00     0.140 C 
ATOM     28  C   UNL     1      85.780  66.938  69.993  1.00  0.00     0.086 CG0
ATOM     29  C   UNL     1      87.443  66.159  68.476  1.00  0.00     0.190 C 
ATOM     30  C   UNL     1      85.483  65.587  69.405  1.00  0.00    -0.010 C 
ATOM     31  G   UNL     1      85.474  67.201  71.496  1.00  0.00     0.000 G0
ATOM     32  O   UNL     1      88.391  66.112  67.706  1.00  0.00    -0.291 OA
ATOM     33  C   UNL     1      86.384  65.134  68.528  1.00  0.00    -0.008 C 
ATOM     34  C   UNL     1      86.378  63.906  67.706  1.00  0.00     0.048 C 
BRANCH  27  35
ATOM     35  O   UNL     1      88.205  66.925  70.516  1.00  0.00    -0.381 OA
ATOM     36  H   UNL     1      88.785  67.700  70.612  1.00  0.00     0.212 HD
ENDBRANCH  27  35
ENDBRANCH  26  27
ENDBRANCH   2  26
ENDBRANCH   1   2
BRANCH   1  37
ATOM     37  O   UNL     1      87.919  71.156  68.227  1.00  0.00    -0.461 OA
BRANCH  37  38
ATOM     38  C   UNL     1      87.736  71.644  66.953  1.00  0.00     0.310 C 
ATOM     39  O   UNL     1      87.733  70.966  65.935  1.00  0.00    -0.252 OA
BRANCH  38  40
ATOM     40  C   UNL     1      87.540  73.140  67.011  1.00  0.00     0.158 C 
BRANCH  40  41
ATOM     41  C   UNL     1      88.734  73.909  66.506  1.00  0.00    -0.037 A 
ATOM     42  C   UNL     1      89.806  74.172  67.359  1.00  0.00     0.008 A 
ATOM     43  C   UNL     1      88.768  74.357  65.186  1.00  0.00     0.008 A 
ATOM     44  C   UNL     1      90.911  74.885  66.892  1.00  0.00     0.046 A 
ATOM     45  C   UNL     1      89.873  75.069  64.718  1.00  0.00     0.046 A 
ATOM     46  C   UNL     1      90.944  75.333  65.571  1.00  0.00     0.115 A 
BRANCH  46  47
ATOM     47  O   UNL     1      92.021  76.028  65.116  1.00  0.00    -0.508 OA
ATOM     48  H   UNL     1      92.146  76.817  65.671  1.00  0.00     0.293 HD
ENDBRANCH  46  47
ENDBRANCH  40  41
ENDBRANCH  38  40
ENDBRANCH  37  38
ENDBRANCH   1  37
TORSDOF 10
ENDMDL
MODEL 6
REMARK VINA RESULT:    -6.764     29.882     34.796
REMARK INTER + INTRA:         -11.752
REMARK INTER:                 -11.606
REMARK INTRA:                  -0.145
REMARK UNBOUND:                -0.243
REMARK SMILES C=C(C)[C@]12C[C@@H](C)[C@@]34O[C@](Cc5ccccc5)(O[C@@H]1[C@@H]3C=C(COC(=O)Cc1ccc(O)cc1)C[C@]1(O)C(=O)C(C)=C[C@@H]41)O2
REMARK SMILES IDX 23 1 22 2 21 3 20 4 9 5 8 6 10 7 6 8 18 10 44 11 19 12 5 13
REMARK SMILES IDX 7 14 4 15 11 16 12 17 13 18 17 19 14 20 16 21 15 22 2 23
REMARK SMILES IDX 3 24 1 25 35 26 36 27 43 28 38 29 42 30 39 32 40 33 41 34
REMARK SMILES IDX 37 35 24 37 25 38 26 39 27 40 28 41 29 42 34 43 30 44 33 45
REMARK SMILES IDX 31 46 32 47
REMARK H PARENT 37 36 32 48
REMARK Flexibility Score: 90.00
ROOT
ATOM      1  C   UNL     1      64.337  88.608  73.889  1.00  0.00     0.264 C 
ENDROOT
BRANCH   1   2
ATOM      2  C   UNL     1      63.193  88.006  73.106  1.00  0.00    -0.033 C 
ATOM      3  C   UNL     1      63.342  86.784  72.555  1.00  0.00    -0.015 C 
BRANCH   3   4
ATOM      4  C   UNL     1      62.385  86.001  71.670  1.00  0.00     0.078 C 
ATOM      5  O   UNL     1      61.021  84.579  73.165  1.00  0.00    -0.319 OA
ATOM      6  C   UNL     1      60.944  85.690  72.218  1.00  0.00     0.095 CG0
ATOM      7  C   UNL     1      61.875  83.489  72.766  1.00  0.00     0.289 C 
ATOM      8  C   UNL     1      60.044  85.266  70.985  1.00  0.00     0.023 C 
ATOM      9  G   UNL     1      60.403  86.882  73.061  1.00  0.00     0.000 G0
ATOM     10  O   UNL     1      63.206  83.936  72.526  1.00  0.00    -0.320 OA
ATOM     11  O   UNL     1      61.447  82.883  71.549  1.00  0.00    -0.313 OA
ATOM     12  C   UNL     1      63.016  84.639  71.289  1.00  0.00     0.170 C 
ATOM     13  C   UNL     1      60.873  84.505  69.906  1.00  0.00     0.049 C 
ATOM     14  C   UNL     1      58.789  84.447  71.333  1.00  0.00     0.011 C 
ATOM     15  C   UNL     1      62.029  83.721  70.529  1.00  0.00     0.122 C 
BRANCH   7  16
ATOM     16  C   UNL     1      61.872  82.455  73.874  1.00  0.00     0.135 C 
BRANCH  16  17
ATOM     17  C   UNL     1      63.207  81.766  74.009  1.00  0.00    -0.040 A 
ATOM     18  C   UNL     1      63.675  80.944  72.984  1.00  0.00     0.004 A 
ATOM     19  C   UNL     1      63.973  81.952  75.159  1.00  0.00     0.004 A 
ATOM     20  C   UNL     1      64.910  80.307  73.109  1.00  0.00     0.000 A 
ATOM     21  C   UNL     1      65.208  81.315  75.284  1.00  0.00     0.000 A 
ATOM     22  C   UNL     1      65.676  80.493  74.260  1.00  0.00     0.000 A 
ENDBRANCH  16  17
ENDBRANCH   7  16
BRANCH  15  23
ATOM     23  C   UNL     1      62.725  82.843  69.541  1.00  0.00    -0.046 C 
ATOM     24  C   UNL     1      63.599  83.538  68.539  1.00  0.00     0.042 C 
ATOM     25  C   UNL     1      62.578  81.510  69.548  1.00  0.00     0.010 C 
ENDBRANCH  15  23
ENDBRANCH   3   4
BRANCH   2  26
ATOM     26  C   UNL     1      61.971  88.904  73.053  1.00  0.00     0.078 C 
BRANCH  26  27
ATOM     27  C   UNL     1      60.686  88.301  72.487  1.00  0.00     0.140 C 
ATOM     28  C   UNL     1      60.408  86.890  73.046  1.00  0.00     0.086 CG0
ATOM     29  C   UNL     1      59.451  89.068  72.910  1.00  0.00     0.190 C 
ATOM     30  C   UNL     1      58.950  86.938  73.407  1.00  0.00    -0.010 C 
ATOM     31  G   UNL     1      60.947  85.700  72.200  1.00  0.00     0.000 G0
ATOM     32  O   UNL     1      59.312  90.280  72.842  1.00  0.00    -0.291 OA
ATOM     33  C   UNL     1      58.390  88.151  73.368  1.00  0.00    -0.008 C 
ATOM     34  C   UNL     1      57.024  88.581  73.732  1.00  0.00     0.048 C 
BRANCH  27  35
ATOM     35  O   UNL     1      60.660  88.372  71.071  1.00  0.00    -0.381 OA
ATOM     36  H   UNL     1      60.362  87.513  70.727  1.00  0.00     0.212 HD
ENDBRANCH  27  35
ENDBRANCH  26  27
ENDBRANCH   2  26
ENDBRANCH   1   2
BRANCH   1  37
ATOM     37  O   UNL     1      65.513  88.560  73.108  1.00  0.00    -0.461 OA
BRANCH  37  38
ATOM     38  C   UNL     1      66.373  87.518  73.369  1.00  0.00     0.310 C 
ATOM     39  O   UNL     1      66.984  87.357  74.416  1.00  0.00    -0.252 OA
BRANCH  38  40
ATOM     40  C   UNL     1      66.443  86.610  72.165  1.00  0.00     0.158 C 
BRANCH  40  41
ATOM     41  C   UNL     1      67.511  87.017  71.183  1.00  0.00    -0.037 A 
ATOM     42  C   UNL     1      67.974  88.333  71.161  1.00  0.00     0.008 A 
ATOM     43  C   UNL     1      68.038  86.078  70.296  1.00  0.00     0.008 A 
ATOM     44  C   UNL     1      68.962  88.710  70.252  1.00  0.00     0.046 A 
ATOM     45  C   UNL     1      69.027  86.455  69.387  1.00  0.00     0.046 A 
ATOM     46  C   UNL     1      69.489  87.771  69.365  1.00  0.00     0.115 A 
BRANCH  46  47
ATOM     47  O   UNL     1      70.453  88.139  68.478  1.00  0.00    -0.508 OA
ATOM     48  H   UNL     1      71.228  87.563  68.596  1.00  0.00     0.293 HD
ENDBRANCH  46  47
ENDBRANCH  40  41
ENDBRANCH  38  40
ENDBRANCH  37  38
ENDBRANCH   1  37
TORSDOF 10
ENDMDL
MODEL 7
REMARK VINA RESULT:    -6.572      3.469      7.941
REMARK INTER + INTRA:         -11.426
REMARK INTER:                  -9.572
REMARK INTRA:                  -1.854
REMARK UNBOUND:                -0.243
REMARK SMILES C=C(C)[C@]12C[C@@H](C)[C@@]34O[C@](Cc5ccccc5)(O[C@@H]1[C@@H]3C=C(COC(=O)Cc1ccc(O)cc1)C[C@]1(O)C(=O)C(C)=C[C@@H]41)O2
REMARK SMILES IDX 23 1 22 2 21 3 20 4 9 5 8 6 10 7 6 8 18 10 44 11 19 12 5 13
REMARK SMILES IDX 7 14 4 15 11 16 12 17 13 18 17 19 14 20 16 21 15 22 2 23
REMARK SMILES IDX 3 24 1 25 35 26 36 27 43 28 38 29 42 30 39 32 40 33 41 34
REMARK SMILES IDX 37 35 24 37 25 38 26 39 27 40 28 41 29 42 34 43 30 44 33 45
REMARK SMILES IDX 31 46 32 47
REMARK H PARENT 37 36 32 48
REMARK Flexibility Score: 90.00
ROOT
ATOM      1  C   UNL     1      96.620  99.661  78.212  1.00  0.00     0.264 C 
ENDROOT
BRANCH   1   2
ATOM      2  C   UNL     1      96.146 100.463  77.022  1.00  0.00    -0.033 C 
ATOM      3  C   UNL     1      96.701 100.237  75.813  1.00  0.00    -0.015 C 
BRANCH   3   4
ATOM      4  C   UNL     1      96.459 100.950  74.492  1.00  0.00     0.078 C 
ATOM      5  O   UNL     1      94.703  99.682  73.299  1.00  0.00    -0.319 OA
ATOM      6  C   UNL     1      94.998 100.976  73.911  1.00  0.00     0.095 CG0
ATOM      7  C   UNL     1      95.767  99.120  72.506  1.00  0.00     0.289 C 
ATOM      8  C   UNL     1      94.942 102.105  72.802  1.00  0.00     0.023 C 
ATOM      9  G   UNL     1      93.951 101.110  75.055  1.00  0.00     0.000 G0
ATOM     10  O   UNL     1      96.958  98.965  73.273  1.00  0.00    -0.320 OA
ATOM     11  O   UNL     1      96.124  99.955  71.407  1.00  0.00    -0.313 OA
ATOM     12  C   UNL     1      97.361 100.338  73.392  1.00  0.00     0.170 C 
ATOM     13  C   UNL     1      96.303 102.238  72.052  1.00  0.00     0.049 C 
ATOM     14  C   UNL     1      93.806 101.967  71.774  1.00  0.00     0.011 C 
ATOM     15  C   UNL     1      97.045 100.902  71.985  1.00  0.00     0.122 C 
BRANCH   7  16
ATOM     16  C   UNL     1      95.312  97.770  71.988  1.00  0.00     0.135 C 
BRANCH  16  17
ATOM     17  C   UNL     1      96.312  97.161  71.037  1.00  0.00    -0.040 A 
ATOM     18  C   UNL     1      97.441  96.511  71.535  1.00  0.00     0.004 A 
ATOM     19  C   UNL     1      96.107  97.249  69.661  1.00  0.00     0.004 A 
ATOM     20  C   UNL     1      98.366  95.947  70.655  1.00  0.00     0.000 A 
ATOM     21  C   UNL     1      97.032  96.685  68.781  1.00  0.00     0.000 A 
ATOM     22  C   UNL     1      98.161  96.035  69.279  1.00  0.00     0.000 A 
ENDBRANCH  16  17
ENDBRANCH   7  16
BRANCH  15  23
ATOM     23  C   UNL     1      98.261 100.964  71.118  1.00  0.00    -0.046 C 
ATOM     24  C   UNL     1      98.664 102.328  70.641  1.00  0.00     0.042 C 
ATOM     25  C   UNL     1      98.952  99.864  70.786  1.00  0.00     0.010 C 
ENDBRANCH  15  23
ENDBRANCH   3   4
BRANCH   2  26
ATOM     26  C   UNL     1      95.052 101.455  77.368  1.00  0.00     0.078 C 
BRANCH  26  27
ATOM     27  C   UNL     1      94.320 102.121  76.205  1.00  0.00     0.140 C 
ATOM     28  C   UNL     1      93.967 101.119  75.087  1.00  0.00     0.086 CG0
ATOM     29  C   UNL     1      92.960 102.654  76.605  1.00  0.00     0.190 C 
ATOM     30  C   UNL     1      92.535 101.444  74.764  1.00  0.00    -0.010 C 
ATOM     31  G   UNL     1      95.001 100.991  73.930  1.00  0.00     0.000 G0
ATOM     32  O   UNL     1      92.731 103.345  77.586  1.00  0.00    -0.291 OA
ATOM     33  C   UNL     1      91.933 102.281  75.614  1.00  0.00    -0.008 C 
ATOM     34  C   UNL     1      90.532 102.750  75.655  1.00  0.00     0.048 C 
BRANCH  27  35
ATOM     35  O   UNL     1      95.012 103.270  75.747  1.00  0.00    -0.381 OA
ATOM     36  H   UNL     1      94.749 103.440  74.826  1.00  0.00     0.212 HD
ENDBRANCH  27  35
ENDBRANCH  26  27
ENDBRANCH   2  26
ENDBRANCH   1   2
BRANCH   1  37
ATOM     37  O   UNL     1      97.712  98.855  77.827  1.00  0.00    -0.461 OA
BRANCH  37  38
ATOM     38  C   UNL     1      97.525  97.495  77.919  1.00  0.00     0.310 C 
ATOM     39  O   UNL     1      97.170  96.901  78.928  1.00  0.00    -0.252 OA
BRANCH  38  40
ATOM     40  C   UNL     1      97.826  96.853  76.586  1.00  0.00     0.158 C 
BRANCH  40  41
ATOM     41  C   UNL     1      96.734  95.926  76.120  1.00  0.00    -0.037 A 
ATOM     42  C   UNL     1      95.671  96.425  75.366  1.00  0.00     0.008 A 
ATOM     43  C   UNL     1      96.784  94.571  76.442  1.00  0.00     0.008 A 
ATOM     44  C   UNL     1      94.658  95.567  74.935  1.00  0.00     0.046 A 
ATOM     45  C   UNL     1      95.772  93.712  76.011  1.00  0.00     0.046 A 
ATOM     46  C   UNL     1      94.709  94.210  75.257  1.00  0.00     0.115 A 
BRANCH  46  47
ATOM     47  O   UNL     1      93.722  93.374  74.837  1.00  0.00    -0.508 OA
ATOM     48  H   UNL     1      93.548  93.539  73.894  1.00  0.00     0.293 HD
ENDBRANCH  46  47
ENDBRANCH  40  41
ENDBRANCH  38  40
ENDBRANCH  37  38
ENDBRANCH   1  37
TORSDOF 10
ENDMDL
MODEL 8
REMARK VINA RESULT:    -6.314      2.926      6.516
REMARK INTER + INTRA:         -10.987
REMARK INTER:                 -10.105
REMARK INTRA:                  -0.882
REMARK UNBOUND:                -0.243
REMARK SMILES C=C(C)[C@]12C[C@@H](C)[C@@]34O[C@](Cc5ccccc5)(O[C@@H]1[C@@H]3C=C(COC(=O)Cc1ccc(O)cc1)C[C@]1(O)C(=O)C(C)=C[C@@H]41)O2
REMARK SMILES IDX 23 1 22 2 21 3 20 4 9 5 8 6 10 7 6 8 18 10 44 11 19 12 5 13
REMARK SMILES IDX 7 14 4 15 11 16 12 17 13 18 17 19 14 20 16 21 15 22 2 23
REMARK SMILES IDX 3 24 1 25 35 26 36 27 43 28 38 29 42 30 39 32 40 33 41 34
REMARK SMILES IDX 37 35 24 37 25 38 26 39 27 40 28 41 29 42 34 43 30 44 33 45
REMARK SMILES IDX 31 46 32 47
REMARK H PARENT 37 36 32 48
REMARK Flexibility Score: 90.00
ROOT
ATOM      1  C   UNL     1      93.173 101.645  69.329  1.00  0.00     0.264 C 
ENDROOT
BRANCH   1   2
ATOM      2  C   UNL     1      93.739 100.839  70.475  1.00  0.00    -0.033 C 
ATOM      3  C   UNL     1      94.835 100.081  70.269  1.00  0.00    -0.015 C 
BRANCH   3   4
ATOM      4  C   UNL     1      95.546  99.132  71.222  1.00  0.00     0.078 C 
ATOM      5  O   UNL     1      97.315 100.438  72.353  1.00  0.00    -0.319 OA
ATOM      6  C   UNL     1      96.075  99.702  72.589  1.00  0.00     0.095 CG0
ATOM      7  C   UNL     1      98.241  99.809  71.445  1.00  0.00     0.289 C 
ATOM      8  C   UNL     1      96.371  98.469  73.540  1.00  0.00     0.023 C 
ATOM      9  G   UNL     1      95.095 100.767  73.161  1.00  0.00     0.000 G0
ATOM     10  O   UNL     1      97.640  99.572  70.175  1.00  0.00    -0.320 OA
ATOM     11  O   UNL     1      98.674  98.533  71.910  1.00  0.00    -0.313 OA
ATOM     12  C   UNL     1      96.761  98.487  70.512  1.00  0.00     0.170 C 
ATOM     13  C   UNL     1      96.862  97.229  72.732  1.00  0.00     0.049 C 
ATOM     14  C   UNL     1      97.348  98.745  74.695  1.00  0.00     0.011 C 
ATOM     15  C   UNL     1      97.629  97.640  71.475  1.00  0.00     0.122 C 
BRANCH   7  16
ATOM     16  C   UNL     1      99.440 100.721  71.283  1.00  0.00     0.135 C 
BRANCH  16  17
ATOM     17  C   UNL     1      99.640 101.145  69.849  1.00  0.00    -0.040 A 
ATOM     18  C   UNL     1     100.304 100.302  68.959  1.00  0.00     0.004 A 
ATOM     19  C   UNL     1      99.160 102.380  69.415  1.00  0.00     0.004 A 
ATOM     20  C   UNL     1     100.488 100.694  67.632  1.00  0.00     0.000 A 
ATOM     21  C   UNL     1      99.344 102.772  68.088  1.00  0.00     0.000 A 
ATOM     22  C   UNL     1     100.008 101.929  67.198  1.00  0.00     0.000 A 
ENDBRANCH  16  17
ENDBRANCH   7  16
BRANCH  15  23
ATOM     23  C   UNL     1      98.262  96.477  70.783  1.00  0.00    -0.046 C 
ATOM     24  C   UNL     1      99.755  96.373  70.895  1.00  0.00     0.042 C 
ATOM     25  C   UNL     1      97.539  95.576  70.102  1.00  0.00     0.010 C 
ENDBRANCH  15  23
ENDBRANCH   3   4
BRANCH   2  26
ATOM     26  C   UNL     1      92.959 101.009  71.765  1.00  0.00     0.078 C 
BRANCH  26  27
ATOM     27  C   UNL     1      93.575 100.425  73.035  1.00  0.00     0.140 C 
ATOM     28  C   UNL     1      95.078 100.753  73.158  1.00  0.00     0.086 CG0
ATOM     29  C   UNL     1      93.004 101.044  74.294  1.00  0.00     0.190 C 
ATOM     30  C   UNL     1      95.222 101.201  74.586  1.00  0.00    -0.010 C 
ATOM     31  G   UNL     1      96.060  99.687  72.589  1.00  0.00     0.000 G0
ATOM     32  O   UNL     1      91.814 101.190  74.534  1.00  0.00    -0.291 OA
ATOM     33  C   UNL     1      94.075 101.401  75.242  1.00  0.00    -0.008 C 
ATOM     34  C   UNL     1      93.837 101.912  76.608  1.00  0.00     0.048 C 
BRANCH  27  35
ATOM     35  O   UNL     1      93.276  99.046  73.170  1.00  0.00    -0.381 OA
ATOM     36  H   UNL     1      93.643  98.734  74.015  1.00  0.00     0.212 HD
ENDBRANCH  27  35
ENDBRANCH  26  27
ENDBRANCH   2  26
ENDBRANCH   1   2
BRANCH   1  37
ATOM     37  O   UNL     1      93.578 101.067  68.107  1.00  0.00    -0.461 OA
BRANCH  37  38
ATOM     38  C   UNL     1      92.708 101.206  67.050  1.00  0.00     0.310 C 
ATOM     39  O   UNL     1      93.038 101.398  65.889  1.00  0.00    -0.252 OA
BRANCH  38  40
ATOM     40  C   UNL     1      91.288 101.085  67.549  1.00  0.00     0.158 C 
BRANCH  40  41
ATOM     41  C   UNL     1      90.738  99.688  67.423  1.00  0.00    -0.037 A 
ATOM     42  C   UNL     1      90.114  99.287  66.242  1.00  0.00     0.008 A 
ATOM     43  C   UNL     1      90.853  98.795  68.488  1.00  0.00     0.008 A 
ATOM     44  C   UNL     1      89.604  97.993  66.126  1.00  0.00     0.046 A 
ATOM     45  C   UNL     1      90.344  97.501  68.373  1.00  0.00     0.046 A 
ATOM     46  C   UNL     1      89.719  97.100  67.192  1.00  0.00     0.115 A 
BRANCH  46  47
ATOM     47  O   UNL     1      89.222  95.839  67.079  1.00  0.00    -0.508 OA
ATOM     48  H   UNL     1      89.247  95.410  67.952  1.00  0.00     0.293 HD
ENDBRANCH  46  47
ENDBRANCH  40  41
ENDBRANCH  38  40
ENDBRANCH  37  38
ENDBRANCH   1  37
TORSDOF 10
ENDMDL
MODEL 9
REMARK VINA RESULT:    -6.285     30.064     34.763
REMARK INTER + INTRA:         -10.937
REMARK INTER:                 -10.046
REMARK INTRA:                  -0.891
REMARK UNBOUND:                -0.243
REMARK SMILES C=C(C)[C@]12C[C@@H](C)[C@@]34O[C@](Cc5ccccc5)(O[C@@H]1[C@@H]3C=C(COC(=O)Cc1ccc(O)cc1)C[C@]1(O)C(=O)C(C)=C[C@@H]41)O2
REMARK SMILES IDX 23 1 22 2 21 3 20 4 9 5 8 6 10 7 6 8 18 10 44 11 19 12 5 13
REMARK SMILES IDX 7 14 4 15 11 16 12 17 13 18 17 19 14 20 16 21 15 22 2 23
REMARK SMILES IDX 3 24 1 25 35 26 36 27 43 28 38 29 42 30 39 32 40 33 41 34
REMARK SMILES IDX 37 35 24 37 25 38 26 39 27 40 28 41 29 42 34 43 30 44 33 45
REMARK SMILES IDX 31 46 32 47
REMARK H PARENT 37 36 32 48
REMARK Flexibility Score: 90.00
ROOT
ATOM      1  C   UNL     1      60.943  87.642  78.249  1.00  0.00     0.264 C 
ENDROOT
BRANCH   1   2
ATOM      2  C   UNL     1      62.164  87.129  77.522  1.00  0.00    -0.033 C 
ATOM      3  C   UNL     1      62.018  86.175  76.579  1.00  0.00    -0.015 C 
BRANCH   3   4
ATOM      4  C   UNL     1      63.079  85.447  75.769  1.00  0.00     0.078 C 
ATOM      5  O   UNL     1      63.389  86.724  73.675  1.00  0.00    -0.319 OA
ATOM      6  C   UNL     1      64.071  86.300  74.896  1.00  0.00     0.095 CG0
ATOM      7  C   UNL     1      62.580  85.715  73.040  1.00  0.00     0.289 C 
ATOM      8  C   UNL     1      65.297  85.371  74.517  1.00  0.00     0.023 C 
ATOM      9  G   UNL     1      64.438  87.630  75.617  1.00  0.00     0.000 G0
ATOM     10  O   UNL     1      61.585  85.215  73.929  1.00  0.00    -0.320 OA
ATOM     11  O   UNL     1      63.344  84.580  72.639  1.00  0.00    -0.313 OA
ATOM     12  C   UNL     1      62.406  84.433  74.811  1.00  0.00     0.170 C 
ATOM     13  C   UNL     1      64.856  83.886  74.340  1.00  0.00     0.049 C 
ATOM     14  C   UNL     1      66.105  85.813  73.285  1.00  0.00     0.011 C 
ATOM     15  C   UNL     1      63.416  83.779  73.837  1.00  0.00     0.122 C 
BRANCH   7  16
ATOM     16  C   UNL     1      61.918  86.333  71.824  1.00  0.00     0.135 C 
BRANCH  16  17
ATOM     17  C   UNL     1      61.894  85.386  70.650  1.00  0.00    -0.040 A 
ATOM     18  C   UNL     1      61.195  84.182  70.739  1.00  0.00     0.004 A 
ATOM     19  C   UNL     1      62.569  85.715  69.476  1.00  0.00     0.004 A 
ATOM     20  C   UNL     1      61.172  83.307  69.653  1.00  0.00     0.000 A 
ATOM     21  C   UNL     1      62.546  84.840  68.390  1.00  0.00     0.000 A 
ATOM     22  C   UNL     1      61.848  83.636  68.479  1.00  0.00     0.000 A 
ENDBRANCH  16  17
ENDBRANCH   7  16
BRANCH  15  23
ATOM     23  C   UNL     1      63.032  82.377  73.488  1.00  0.00    -0.046 C 
ATOM     24  C   UNL     1      62.234  81.634  74.518  1.00  0.00     0.042 C 
ATOM     25  C   UNL     1      63.382  81.815  72.322  1.00  0.00     0.010 C 
ENDBRANCH  15  23
ENDBRANCH   3   4
BRANCH   2  26
ATOM     26  C   UNL     1      63.450  87.798  77.971  1.00  0.00     0.078 C 
BRANCH  26  27
ATOM     27  C   UNL     1      64.699  87.543  77.130  1.00  0.00     0.140 C 
ATOM     28  C   UNL     1      64.413  87.633  75.617  1.00  0.00     0.086 CG0
ATOM     29  C   UNL     1      65.756  88.610  77.325  1.00  0.00     0.190 C 
ATOM     30  C   UNL     1      65.546  88.472  75.095  1.00  0.00    -0.010 C 
ATOM     31  G   UNL     1      64.065  86.293  74.905  1.00  0.00     0.000 G0
ATOM     32  O   UNL     1      66.155  89.023  78.403  1.00  0.00    -0.291 OA
ATOM     33  C   UNL     1      66.301  89.058  76.029  1.00  0.00    -0.008 C 
ATOM     34  C   UNL     1      67.429  90.001  75.887  1.00  0.00     0.048 C 
BRANCH  27  35
ATOM     35  O   UNL     1      65.351  86.346  77.520  1.00  0.00    -0.381 OA
ATOM     36  H   UNL     1      64.786  85.884  78.161  1.00  0.00     0.212 HD
ENDBRANCH  27  35
ENDBRANCH  26  27
ENDBRANCH   2  26
ENDBRANCH   1   2
BRANCH   1  37
ATOM     37  O   UNL     1      61.347  88.512  79.284  1.00  0.00    -0.461 OA
BRANCH  37  38
ATOM     38  C   UNL     1      60.815  88.264  80.529  1.00  0.00     0.310 C 
ATOM     39  O   UNL     1      59.757  87.687  80.738  1.00  0.00    -0.252 OA
BRANCH  38  40
ATOM     40  C   UNL     1      61.738  88.813  81.590  1.00  0.00     0.158 C 
BRANCH  40  41
ATOM     41  C   UNL     1      62.799  87.830  82.012  1.00  0.00    -0.037 A 
ATOM     42  C   UNL     1      62.532  86.906  83.022  1.00  0.00     0.008 A 
ATOM     43  C   UNL     1      64.049  87.844  81.393  1.00  0.00     0.008 A 
ATOM     44  C   UNL     1      63.515  85.996  83.414  1.00  0.00     0.046 A 
ATOM     45  C   UNL     1      65.032  86.934  81.784  1.00  0.00     0.046 A 
ATOM     46  C   UNL     1      64.765  86.011  82.794  1.00  0.00     0.115 A 
BRANCH  46  47
ATOM     47  O   UNL     1      65.723  85.124  83.177  1.00  0.00    -0.508 OA
ATOM     48  H   UNL     1      66.059  85.380  84.053  1.00  0.00     0.293 HD
ENDBRANCH  46  47
ENDBRANCH  40  41
ENDBRANCH  38  40
ENDBRANCH  37  38
ENDBRANCH   1  37
TORSDOF 10
ENDMDL
MODEL 10
REMARK VINA RESULT:    -6.267     29.332     32.098
REMARK INTER + INTRA:         -10.907
REMARK INTER:                 -10.628
REMARK INTRA:                  -0.279
REMARK UNBOUND:                -0.243
REMARK SMILES C=C(C)[C@]12C[C@@H](C)[C@@]34O[C@](Cc5ccccc5)(O[C@@H]1[C@@H]3C=C(COC(=O)Cc1ccc(O)cc1)C[C@]1(O)C(=O)C(C)=C[C@@H]41)O2
REMARK SMILES IDX 23 1 22 2 21 3 20 4 9 5 8 6 10 7 6 8 18 10 44 11 19 12 5 13
REMARK SMILES IDX 7 14 4 15 11 16 12 17 13 18 17 19 14 20 16 21 15 22 2 23
REMARK SMILES IDX 3 24 1 25 35 26 36 27 43 28 38 29 42 30 39 32 40 33 41 34
REMARK SMILES IDX 37 35 24 37 25 38 26 39 27 40 28 41 29 42 34 43 30 44 33 45
REMARK SMILES IDX 31 46 32 47
REMARK H PARENT 37 36 32 48
REMARK Flexibility Score: 90.00
ROOT
ATOM      1  C   UNL     1      82.967  67.120  75.928  1.00  0.00     0.264 C 
ENDROOT
BRANCH   1   2
ATOM      2  C   UNL     1      84.357  67.710  75.854  1.00  0.00    -0.033 C 
ATOM      3  C   UNL     1      85.017  67.987  76.998  1.00  0.00    -0.015 C 
BRANCH   3   4
ATOM      4  C   UNL     1      86.374  68.644  77.195  1.00  0.00     0.078 C 
ATOM      5  O   UNL     1      88.049  66.826  77.281  1.00  0.00    -0.319 OA
ATOM      6  C   UNL     1      87.628  67.992  76.505  1.00  0.00     0.095 CG0
ATOM      7  C   UNL     1      88.042  67.004  78.711  1.00  0.00     0.289 C 
ATOM      8  C   UNL     1      88.790  69.069  76.507  1.00  0.00     0.023 C 
ATOM      9  G   UNL     1      87.254  67.414  75.109  1.00  0.00     0.000 G0
ATOM     10  O   UNL     1      86.751  67.382  79.180  1.00  0.00    -0.320 OA
ATOM     11  O   UNL     1      88.924  68.042  79.132  1.00  0.00    -0.313 OA
ATOM     12  C   UNL     1      86.699  68.737  78.706  1.00  0.00     0.170 C 
ATOM     13  C   UNL     1      88.722  69.982  77.769  1.00  0.00     0.049 C 
ATOM     14  C   UNL     1      90.214  68.506  76.361  1.00  0.00     0.011 C 
ATOM     15  C   UNL     1      88.138  69.241  78.973  1.00  0.00     0.122 C 
BRANCH   7  16
ATOM     16  C   UNL     1      88.459  65.696  79.353  1.00  0.00     0.135 C 
BRANCH  16  17
ATOM     17  C   UNL     1      87.300  64.998  80.021  1.00  0.00    -0.040 A 
ATOM     18  C   UNL     1      86.693  63.906  79.402  1.00  0.00     0.004 A 
ATOM     19  C   UNL     1      86.837  65.446  81.257  1.00  0.00     0.004 A 
ATOM     20  C   UNL     1      85.621  63.261  80.020  1.00  0.00     0.000 A 
ATOM     21  C   UNL     1      85.765  64.800  81.875  1.00  0.00     0.000 A 
ATOM     22  C   UNL     1      85.158  63.709  81.256  1.00  0.00     0.000 A 
ENDBRANCH  16  17
ENDBRANCH   7  16
BRANCH  15  23
ATOM     23  C   UNL     1      88.230  70.035  80.235  1.00  0.00    -0.046 C 
ATOM     24  C   UNL     1      89.518  69.921  80.996  1.00  0.00     0.042 C 
ATOM     25  C   UNL     1      87.220  70.805  80.664  1.00  0.00     0.010 C 
ENDBRANCH  15  23
ENDBRANCH   3   4
BRANCH   2  26
ATOM     26  C   UNL     1      84.843  67.913  74.432  1.00  0.00     0.078 C 
BRANCH  26  27
ATOM     27  C   UNL     1      86.314  68.278  74.243  1.00  0.00     0.140 C 
ATOM     28  C   UNL     1      87.247  67.413  75.116  1.00  0.00     0.086 CG0
ATOM     29  C   UNL     1      86.811  67.980  72.844  1.00  0.00     0.190 C 
ATOM     30  C   UNL     1      88.340  67.009  74.167  1.00  0.00    -0.010 C 
ATOM     31  G   UNL     1      87.623  68.000  76.508  1.00  0.00     0.000 G0
ATOM     32  O   UNL     1      86.248  68.305  71.809  1.00  0.00    -0.291 OA
ATOM     33  C   UNL     1      88.112  67.287  72.880  1.00  0.00    -0.008 C 
ATOM     34  C   UNL     1      88.914  66.967  71.681  1.00  0.00     0.048 C 
BRANCH  27  35
ATOM     35  O   UNL     1      86.526  69.672  74.387  1.00  0.00    -0.381 OA
ATOM     36  H   UNL     1      85.846  70.140  73.872  1.00  0.00     0.212 HD
ENDBRANCH  27  35
ENDBRANCH  26  27
ENDBRANCH   2  26
ENDBRANCH   1   2
BRANCH   1  37
ATOM     37  O   UNL     1      83.030  65.741  75.636  1.00  0.00    -0.461 OA
BRANCH  37  38
ATOM     38  C   UNL     1      81.904  65.006  75.928  1.00  0.00     0.310 C 
ATOM     39  O   UNL     1      81.547  64.685  77.052  1.00  0.00    -0.252 OA
BRANCH  38  40
ATOM     40  C   UNL     1      81.183  64.660  74.647  1.00  0.00     0.158 C 
BRANCH  40  41
ATOM     41  C   UNL     1      81.397  65.679  73.558  1.00  0.00    -0.037 A 
ATOM     42  C   UNL     1      82.407  65.489  72.614  1.00  0.00     0.008 A 
ATOM     43  C   UNL     1      80.588  66.812  73.493  1.00  0.00     0.008 A 
ATOM     44  C   UNL     1      82.607  66.433  71.606  1.00  0.00     0.046 A 
ATOM     45  C   UNL     1      80.786  67.756  72.485  1.00  0.00     0.046 A 
ATOM     46  C   UNL     1      81.796  67.566  71.542  1.00  0.00     0.115 A 
BRANCH  46  47
ATOM     47  O   UNL     1      81.991  68.487  70.559  1.00  0.00    -0.508 OA
ATOM     48  H   UNL     1      81.485  68.220  69.772  1.00  0.00     0.293 HD
ENDBRANCH  46  47
ENDBRANCH  40  41
ENDBRANCH  38  40
ENDBRANCH  37  38
ENDBRANCH   1  37
TORSDOF 10
ENDMDL
