MODEL 1
REMARK VINA RESULT:    -7.383      0.000      0.000
REMARK INTER + INTRA:         -13.902
REMARK INTER:                 -12.994
REMARK INTRA:                  -0.907
REMARK UNBOUND:                -0.907
REMARK SMILES C=C(C)[C@]12C[C@@H](C)[C@@]34O[C@](Cc5ccccc5)(O[C@@H]1[C@@H]3C=C(COC(=O)Cc1ccc(O)c(OC)c1)C[C@]1(O)C(=O)C(C)=C[C@@H]41)O2
REMARK SMILES IDX 23 1 22 2 21 3 20 4 9 5 8 6 10 7 6 8 18 9 46 10 19 11 5 12
REMARK SMILES IDX 7 13 4 14 45 15 38 16 44 17 40 18 42 20 41 21 43 22 39 23
REMARK SMILES IDX 11 25 12 26 13 27 17 28 14 29 16 30 15 31 2 32 3 33 1 34
REMARK SMILES IDX 37 35 24 37 25 38 26 39 27 40 28 41 36 42 29 43 33 44 30 45
REMARK SMILES IDX 31 46 34 47 35 48 32 49
REMARK H PARENT 39 24 32 50
REMARK Flexibility Score: 90.00
ROOT
ATOM      1  C   UNL     1      59.489  88.678  72.488  1.00  0.00     0.264 C 
ENDROOT
BRANCH   1   2
ATOM      2  C   UNL     1      60.504  87.793  73.172  1.00  0.00    -0.033 C 
ATOM      3  C   UNL     1      61.039  86.757  72.494  1.00  0.00    -0.015 C 
BRANCH   3   4
ATOM      4  C   UNL     1      62.009  85.689  72.973  1.00  0.00     0.078 C 
ATOM      5  O   UNL     1      64.287  86.495  72.447  1.00  0.00    -0.319 OA
ATOM      6  C   UNL     1      63.399  86.145  73.553  1.00  0.00     0.095 C 
ATOM      7  C   UNL     1      64.254  85.596  71.322  1.00  0.00     0.289 C 
ATOM      8  C   UNL     1      64.012  84.919  74.349  1.00  0.00     0.023 C 
ATOM      9  O   UNL     1      62.937  85.483  70.789  1.00  0.00    -0.320 OA
ATOM     10  O   UNL     1      64.641  84.271  71.676  1.00  0.00    -0.313 OA
ATOM     11  C   UNL     1      62.315  84.701  71.820  1.00  0.00     0.170 C 
ATOM     12  C   UNL     1      63.612  83.559  73.700  1.00  0.00     0.049 C 
ATOM     13  C   UNL     1      65.536  84.961  74.553  1.00  0.00     0.011 C 
ATOM     14  C   UNL     1      63.426  83.687  72.188  1.00  0.00     0.122 C 
BRANCH   6  15
ATOM     15  C   UNL     1      63.253  87.464  74.366  1.00  0.00     0.086 C 
ATOM     16  C   UNL     1      62.017  87.563  75.285  1.00  0.00     0.140 CG0
ATOM     17  C   UNL     1      64.382  87.914  75.249  1.00  0.00    -0.010 C 
ATOM     18  C   UNL     1      62.544  88.368  76.453  1.00  0.00     0.190 C 
ATOM     19  G   UNL     1      60.836  88.240  74.592  1.00  0.00     0.000 G0
ATOM     20  C   UNL     1      64.016  88.452  76.417  1.00  0.00    -0.008 C 
ATOM     21  O   UNL     1      61.862  88.849  77.346  1.00  0.00    -0.291 OA
ATOM     22  C   UNL     1      64.837  89.068  77.480  1.00  0.00     0.048 C 
BRANCH  16  23
ATOM     23  O   UNL     1      61.636  86.328  75.869  1.00  0.00    -0.381 OA
ATOM     24  H   UNL     1      61.560  86.453  76.829  1.00  0.00     0.212 HD
ENDBRANCH  16  23
ENDBRANCH   6  15
BRANCH   7  25
ATOM     25  C   UNL     1      65.193  86.130  70.259  1.00  0.00     0.135 C 
BRANCH  25  26
ATOM     26  C   UNL     1      66.543  85.459  70.307  1.00  0.00    -0.040 A 
ATOM     27  C   UNL     1      67.423  85.738  71.354  1.00  0.00     0.004 A 
ATOM     28  C   UNL     1      66.911  84.559  69.308  1.00  0.00     0.004 A 
ATOM     29  C   UNL     1      68.671  85.117  71.399  1.00  0.00     0.000 A 
ATOM     30  C   UNL     1      68.160  83.938  69.354  1.00  0.00     0.000 A 
ATOM     31  C   UNL     1      69.039  84.218  70.399  1.00  0.00     0.000 A 
ENDBRANCH  25  26
ENDBRANCH   7  25
BRANCH  14  32
ATOM     32  C   UNL     1      63.222  82.365  71.521  1.00  0.00    -0.046 C 
ATOM     33  C   UNL     1      62.289  81.414  72.207  1.00  0.00     0.042 C 
ATOM     34  C   UNL     1      63.840  82.048  70.373  1.00  0.00     0.010 C 
ENDBRANCH  14  32
ENDBRANCH   3   4
BRANCH   2  35
ATOM     35  C   UNL     1      60.801  88.220  74.597  1.00  0.00     0.078 CG0
ATOM     36  G   UNL     1      62.012  87.585  75.279  1.00  0.00     0.000 G0
ENDBRANCH   2  35
ENDBRANCH   1   2
BRANCH   1  37
ATOM     37  O   UNL     1      59.540  88.457  71.095  1.00  0.00    -0.461 OA
BRANCH  37  38
ATOM     38  C   UNL     1      58.497  87.742  70.553  1.00  0.00     0.310 C 
ATOM     39  O   UNL     1      57.748  87.006  71.181  1.00  0.00    -0.252 OA
BRANCH  38  40
ATOM     40  C   UNL     1      58.421  88.008  69.068  1.00  0.00     0.158 C 
BRANCH  40  41
ATOM     41  C   UNL     1      57.308  88.953  68.696  1.00  0.00    -0.033 A 
ATOM     42  C   UNL     1      56.642  88.803  67.478  1.00  0.00     0.054 A 
ATOM     43  C   UNL     1      56.942  89.978  69.568  1.00  0.00     0.008 A 
ATOM     44  C   UNL     1      55.612  89.678  67.134  1.00  0.00     0.160 A 
ATOM     45  C   UNL     1      55.912  90.853  69.224  1.00  0.00     0.050 A 
ATOM     46  C   UNL     1      55.247  90.704  68.007  1.00  0.00     0.157 A 
BRANCH  44  47
ATOM     47  O   UNL     1      54.970  89.521  65.943  1.00  0.00    -0.493 OA
ATOM     48  C   UNL     1      55.785  89.316  64.790  1.00  0.00     0.278 C 
ENDBRANCH  44  47
BRANCH  46  49
ATOM     49  O   UNL     1      54.242  91.563  67.682  1.00  0.00    -0.504 OA
ATOM     50  H   UNL     1      53.541  91.072  67.221  1.00  0.00     0.293 HD
ENDBRANCH  46  49
ENDBRANCH  40  41
ENDBRANCH  38  40
ENDBRANCH  37  38
ENDBRANCH   1  37
TORSDOF 11
ENDMDL
MODEL 2
REMARK VINA RESULT:    -7.060     30.812     36.343
REMARK INTER + INTRA:         -13.332
REMARK INTER:                 -12.014
REMARK INTRA:                  -1.318
REMARK UNBOUND:                -0.907
REMARK SMILES C=C(C)[C@]12C[C@@H](C)[C@@]34O[C@](Cc5ccccc5)(O[C@@H]1[C@@H]3C=C(COC(=O)Cc1ccc(O)c(OC)c1)C[C@]1(O)C(=O)C(C)=C[C@@H]41)O2
REMARK SMILES IDX 23 1 22 2 21 3 20 4 9 5 8 6 10 7 6 8 18 9 46 10 19 11 5 12
REMARK SMILES IDX 7 13 4 14 45 15 38 16 44 17 40 18 42 20 41 21 43 22 39 23
REMARK SMILES IDX 11 25 12 26 13 27 17 28 14 29 16 30 15 31 2 32 3 33 1 34
REMARK SMILES IDX 37 35 24 37 25 38 26 39 27 40 28 41 36 42 29 43 33 44 30 45
REMARK SMILES IDX 31 46 34 47 35 48 32 49
REMARK H PARENT 39 24 32 50
REMARK Flexibility Score: 90.00
ROOT
ATOM      1  C   UNL     1      94.173  76.742  83.368  1.00  0.00     0.264 C 
ENDROOT
BRANCH   1   2
ATOM      2  C   UNL     1      94.992  77.824  84.031  1.00  0.00    -0.033 C 
ATOM      3  C   UNL     1      96.151  78.214  83.464  1.00  0.00    -0.015 C 
BRANCH   3   4
ATOM      4  C   UNL     1      97.182  79.213  83.964  1.00  0.00     0.078 C 
ATOM      5  O   UNL     1      96.614  81.400  82.956  1.00  0.00    -0.319 OA
ATOM      6  C   UNL     1      96.720  80.695  84.231  1.00  0.00     0.095 C 
ATOM      7  C   UNL     1      97.684  81.153  82.024  1.00  0.00     0.289 C 
ATOM      8  C   UNL     1      97.831  81.389  85.123  1.00  0.00     0.023 C 
ATOM      9  O   UNL     1      97.804  79.763  81.732  1.00  0.00    -0.320 OA
ATOM     10  O   UNL     1      98.952  81.549  82.539  1.00  0.00    -0.313 OA
ATOM     11  C   UNL     1      98.364  79.293  82.968  1.00  0.00     0.170 C 
ATOM     12  C   UNL     1      99.254  80.844  84.791  1.00  0.00     0.049 C 
ATOM     13  C   UNL     1      97.849  82.926  85.076  1.00  0.00     0.011 C 
ATOM     14  C   UNL     1      99.369  80.416  83.328  1.00  0.00     0.122 C 
BRANCH   6  15
ATOM     15  C   UNL     1      95.278  80.727  84.815  1.00  0.00     0.086 C 
ATOM     16  C   UNL     1      94.961  79.679  85.902  1.00  0.00     0.140 CG0
ATOM     17  C   UNL     1      94.748  82.007  85.398  1.00  0.00    -0.010 C 
ATOM     18  C   UNL     1      94.000  80.425  86.803  1.00  0.00     0.190 C 
ATOM     19  G   UNL     1      94.346  78.408  85.316  1.00  0.00     0.000 G0
ATOM     20  C   UNL     1      94.003  81.869  86.500  1.00  0.00    -0.008 C 
ATOM     21  O   UNL     1      93.340  79.926  87.703  1.00  0.00    -0.291 OA
ATOM     22  C   UNL     1      93.264  82.881  87.281  1.00  0.00     0.048 C 
BRANCH  16  23
ATOM     23  O   UNL     1      96.058  79.380  86.749  1.00  0.00    -0.381 OA
ATOM     24  H   UNL     1      96.432  80.216  87.072  1.00  0.00     0.212 HD
ENDBRANCH  16  23
ENDBRANCH   6  15
BRANCH   7  25
ATOM     25  C   UNL     1      97.392  81.921  80.751  1.00  0.00     0.135 C 
BRANCH  25  26
ATOM     26  C   UNL     1      98.258  81.463  79.604  1.00  0.00    -0.040 A 
ATOM     27  C   UNL     1      97.786  80.494  78.718  1.00  0.00     0.004 A 
ATOM     28  C   UNL     1      99.529  82.010  79.427  1.00  0.00     0.004 A 
ATOM     29  C   UNL     1      98.587  80.070  77.657  1.00  0.00     0.000 A 
ATOM     30  C   UNL     1     100.329  81.586  78.365  1.00  0.00     0.000 A 
ATOM     31  C   UNL     1      99.857  80.616  77.481  1.00  0.00     0.000 A 
ENDBRANCH  25  26
ENDBRANCH   7  25
BRANCH  14  32
ATOM     32  C   UNL     1     100.768  80.062  82.941  1.00  0.00    -0.046 C 
ATOM     33  C   UNL     1     101.539  81.117  82.205  1.00  0.00     0.042 C 
ATOM     34  C   UNL     1     101.305  78.868  83.235  1.00  0.00     0.010 C 
ENDBRANCH  14  32
ENDBRANCH   3   4
BRANCH   2  35
ATOM     35  C   UNL     1      94.359  78.354  85.304  1.00  0.00     0.078 CG0
ATOM     36  G   UNL     1      94.949  79.632  85.898  1.00  0.00     0.000 G0
ENDBRANCH   2  35
ENDBRANCH   1   2
BRANCH   1  37
ATOM     37  O   UNL     1      93.053  76.443  84.174  1.00  0.00    -0.461 OA
BRANCH  37  38
ATOM     38  C   UNL     1      91.842  76.359  83.527  1.00  0.00     0.310 C 
ATOM     39  O   UNL     1      91.681  75.929  82.393  1.00  0.00    -0.252 OA
BRANCH  38  40
ATOM     40  C   UNL     1      90.749  76.877  84.431  1.00  0.00     0.158 C 
BRANCH  40  41
ATOM     41  C   UNL     1      90.529  78.362  84.296  1.00  0.00    -0.033 A 
ATOM     42  C   UNL     1      89.232  78.872  84.237  1.00  0.00     0.054 A 
ATOM     43  C   UNL     1      91.622  79.226  84.231  1.00  0.00     0.008 A 
ATOM     44  C   UNL     1      89.028  80.247  84.112  1.00  0.00     0.160 A 
ATOM     45  C   UNL     1      91.419  80.600  84.106  1.00  0.00     0.050 A 
ATOM     46  C   UNL     1      90.122  81.111  84.046  1.00  0.00     0.157 A 
BRANCH  44  47
ATOM     47  O   UNL     1      87.757  80.733  84.055  1.00  0.00    -0.493 OA
ATOM     48  C   UNL     1      87.054  80.566  82.825  1.00  0.00     0.278 C 
ENDBRANCH  44  47
BRANCH  46  49
ATOM     49  O   UNL     1      89.936  82.454  83.925  1.00  0.00    -0.504 OA
ATOM     50  H   UNL     1      90.226  82.736  83.041  1.00  0.00     0.293 HD
ENDBRANCH  46  49
ENDBRANCH  40  41
ENDBRANCH  38  40
ENDBRANCH  37  38
ENDBRANCH   1  37
TORSDOF 11
ENDMDL
MODEL 3
REMARK VINA RESULT:    -6.713     31.646     34.091
REMARK INTER + INTRA:         -12.721
REMARK INTER:                 -11.996
REMARK INTRA:                  -0.725
REMARK UNBOUND:                -0.907
REMARK SMILES C=C(C)[C@]12C[C@@H](C)[C@@]34O[C@](Cc5ccccc5)(O[C@@H]1[C@@H]3C=C(COC(=O)Cc1ccc(O)c(OC)c1)C[C@]1(O)C(=O)C(C)=C[C@@H]41)O2
REMARK SMILES IDX 23 1 22 2 21 3 20 4 9 5 8 6 10 7 6 8 18 9 46 10 19 11 5 12
REMARK SMILES IDX 7 13 4 14 45 15 38 16 44 17 40 18 42 20 41 21 43 22 39 23
REMARK SMILES IDX 11 25 12 26 13 27 17 28 14 29 16 30 15 31 2 32 3 33 1 34
REMARK SMILES IDX 37 35 24 37 25 38 26 39 27 40 28 41 36 42 29 43 33 44 30 45
REMARK SMILES IDX 31 46 34 47 35 48 32 49
REMARK H PARENT 39 24 32 50
REMARK Flexibility Score: 90.00
ROOT
ATOM      1  C   UNL     1      90.790  75.180  84.234  1.00  0.00     0.264 C 
ENDROOT
BRANCH   1   2
ATOM      2  C   UNL     1      90.418  74.447  82.966  1.00  0.00    -0.033 C 
ATOM      3  C   UNL     1      90.918  74.872  81.788  1.00  0.00    -0.015 C 
BRANCH   3   4
ATOM      4  C   UNL     1      90.641  74.363  80.383  1.00  0.00     0.078 C 
ATOM      5  O   UNL     1      92.342  72.635  79.895  1.00  0.00    -0.319 OA
ATOM      6  C   UNL     1      90.906  72.843  80.071  1.00  0.00     0.095 C 
ATOM      7  C   UNL     1      93.020  73.641  79.119  1.00  0.00     0.289 C 
ATOM      8  C   UNL     1      90.156  72.493  78.720  1.00  0.00     0.023 C 
ATOM      9  O   UNL     1      92.847  74.936  79.688  1.00  0.00    -0.320 OA
ATOM     10  O   UNL     1      92.513  73.733  77.791  1.00  0.00    -0.313 OA
ATOM     11  C   UNL     1      91.470  75.175  79.357  1.00  0.00     0.170 C 
ATOM     12  C   UNL     1      90.134  73.711  77.746  1.00  0.00     0.049 C 
ATOM     13  C   UNL     1      90.680  71.253  77.977  1.00  0.00     0.011 C 
ATOM     14  C   UNL     1      91.367  74.599  77.923  1.00  0.00     0.122 C 
BRANCH   6  15
ATOM     15  C   UNL     1      90.532  71.956  81.294  1.00  0.00     0.086 C 
ATOM     16  C   UNL     1      89.226  72.324  82.027  1.00  0.00     0.140 CG0
ATOM     17  C   UNL     1      90.427  70.467  81.118  1.00  0.00    -0.010 C 
ATOM     18  C   UNL     1      88.708  70.972  82.470  1.00  0.00     0.190 C 
ATOM     19  G   UNL     1      89.470  73.271  83.201  1.00  0.00     0.000 G0
ATOM     20  C   UNL     1      89.429  69.880  81.788  1.00  0.00    -0.008 C 
ATOM     21  O   UNL     1      87.784  70.787  83.247  1.00  0.00    -0.291 OA
ATOM     22  C   UNL     1      89.079  68.451  81.915  1.00  0.00     0.048 C 
BRANCH  16  23
ATOM     23  O   UNL     1      88.206  72.813  81.172  1.00  0.00    -0.381 OA
ATOM     24  H   UNL     1      87.376  72.361  81.394  1.00  0.00     0.212 HD
ENDBRANCH  16  23
ENDBRANCH   6  15
BRANCH   7  25
ATOM     25  C   UNL     1      94.495  73.294  79.076  1.00  0.00     0.135 C 
BRANCH  25  26
ATOM     26  C   UNL     1      95.073  73.107  80.456  1.00  0.00    -0.040 A 
ATOM     27  C   UNL     1      95.597  74.201  81.146  1.00  0.00     0.004 A 
ATOM     28  C   UNL     1      95.081  71.843  81.044  1.00  0.00     0.004 A 
ATOM     29  C   UNL     1      96.132  74.029  82.423  1.00  0.00     0.000 A 
ATOM     30  C   UNL     1      95.616  71.671  82.322  1.00  0.00     0.000 A 
ATOM     31  C   UNL     1      96.141  72.764  83.011  1.00  0.00     0.000 A 
ENDBRANCH  25  26
ENDBRANCH   7  25
BRANCH  14  32
ATOM     32  C   UNL     1      91.460  75.666  76.881  1.00  0.00    -0.046 C 
ATOM     33  C   UNL     1      92.025  75.250  75.556  1.00  0.00     0.042 C 
ATOM     34  C   UNL     1      91.061  76.924  77.118  1.00  0.00     0.010 C 
ENDBRANCH  14  32
ENDBRANCH   3   4
BRANCH   2  35
ATOM     35  C   UNL     1      89.492  73.270  83.209  1.00  0.00     0.078 CG0
ATOM     36  G   UNL     1      89.253  72.316  82.040  1.00  0.00     0.000 G0
ENDBRANCH   2  35
ENDBRANCH   1   2
BRANCH   1  37
ATOM     37  O   UNL     1      89.674  75.911  84.696  1.00  0.00    -0.461 OA
BRANCH  37  38
ATOM     38  C   UNL     1      89.635  77.243  84.354  1.00  0.00     0.310 C 
ATOM     39  O   UNL     1      88.625  77.932  84.328  1.00  0.00    -0.252 OA
BRANCH  38  40
ATOM     40  C   UNL     1      91.029  77.718  84.016  1.00  0.00     0.158 C 
BRANCH  40  41
ATOM     41  C   UNL     1      91.247  79.174  84.335  1.00  0.00    -0.033 A 
ATOM     42  C   UNL     1      92.074  79.539  85.399  1.00  0.00     0.054 A 
ATOM     43  C   UNL     1      90.624  80.158  83.568  1.00  0.00     0.008 A 
ATOM     44  C   UNL     1      92.276  80.887  85.695  1.00  0.00     0.160 A 
ATOM     45  C   UNL     1      90.826  81.506  83.864  1.00  0.00     0.050 A 
ATOM     46  C   UNL     1      91.652  81.871  84.927  1.00  0.00     0.157 A 
BRANCH  44  47
ATOM     47  O   UNL     1      93.085  81.230  86.736  1.00  0.00    -0.493 OA
ATOM     48  C   UNL     1      92.580  81.003  88.051  1.00  0.00     0.278 C 
ENDBRANCH  44  47
BRANCH  46  49
ATOM     49  O   UNL     1      91.842  83.190  85.206  1.00  0.00    -0.504 OA
ATOM     50  H   UNL     1      92.415  83.269  85.987  1.00  0.00     0.293 HD
ENDBRANCH  46  49
ENDBRANCH  40  41
ENDBRANCH  38  40
ENDBRANCH  37  38
ENDBRANCH   1  37
TORSDOF 11
ENDMDL
MODEL 4
REMARK VINA RESULT:    -6.626     11.411     15.304
REMARK INTER + INTRA:         -12.570
REMARK INTER:                 -11.299
REMARK INTRA:                  -1.271
REMARK UNBOUND:                -0.907
REMARK SMILES C=C(C)[C@]12C[C@@H](C)[C@@]34O[C@](Cc5ccccc5)(O[C@@H]1[C@@H]3C=C(COC(=O)Cc1ccc(O)c(OC)c1)C[C@]1(O)C(=O)C(C)=C[C@@H]41)O2
REMARK SMILES IDX 23 1 22 2 21 3 20 4 9 5 8 6 10 7 6 8 18 9 46 10 19 11 5 12
REMARK SMILES IDX 7 13 4 14 45 15 38 16 44 17 40 18 42 20 41 21 43 22 39 23
REMARK SMILES IDX 11 25 12 26 13 27 17 28 14 29 16 30 15 31 2 32 3 33 1 34
REMARK SMILES IDX 37 35 24 37 25 38 26 39 27 40 28 41 36 42 29 43 33 44 30 45
REMARK SMILES IDX 31 46 34 47 35 48 32 49
REMARK H PARENT 39 24 32 50
REMARK Flexibility Score: 90.00
ROOT
ATOM      1  C   UNL     1      73.273  91.823  72.974  1.00  0.00     0.264 C 
ENDROOT
BRANCH   1   2
ATOM      2  C   UNL     1      73.301  91.823  71.464  1.00  0.00    -0.033 C 
ATOM      3  C   UNL     1      74.108  90.955  70.819  1.00  0.00    -0.015 C 
BRANCH   3   4
ATOM      4  C   UNL     1      74.374  90.809  69.330  1.00  0.00     0.078 C 
ATOM      5  O   UNL     1      72.774  89.128  68.474  1.00  0.00    -0.319 OA
ATOM      6  C   UNL     1      73.153  90.536  68.375  1.00  0.00     0.095 C 
ATOM      7  C   UNL     1      73.870  88.195  68.500  1.00  0.00     0.289 C 
ATOM      8  C   UNL     1      73.623  90.848  66.894  1.00  0.00     0.023 C 
ATOM      9  O   UNL     1      74.759  88.472  69.579  1.00  0.00    -0.320 OA
ATOM     10  O   UNL     1      74.665  88.261  67.319  1.00  0.00    -0.313 OA
ATOM     11  C   UNL     1      75.388  89.665  69.087  1.00  0.00     0.170 C 
ATOM     12  C   UNL     1      75.131  90.508  66.690  1.00  0.00     0.049 C 
ATOM     13  C   UNL     1      72.794  90.182  65.784  1.00  0.00     0.011 C 
ATOM     14  C   UNL     1      75.576  89.348  67.582  1.00  0.00     0.122 C 
BRANCH   6  15
ATOM     15  C   UNL     1      71.892  91.312  68.854  1.00  0.00     0.086 C 
ATOM     16  C   UNL     1      72.127  92.760  69.333  1.00  0.00     0.140 CG0
ATOM     17  C   UNL     1      70.709  91.436  67.935  1.00  0.00    -0.010 C 
ATOM     18  C   UNL     1      70.856  93.458  68.897  1.00  0.00     0.190 C 
ATOM     19  G   UNL     1      72.350  92.840  70.842  1.00  0.00     0.000 G0
ATOM     20  C   UNL     1      70.089  92.620  67.956  1.00  0.00    -0.008 C 
ATOM     21  O   UNL     1      70.517  94.584  69.227  1.00  0.00    -0.291 OA
ATOM     22  C   UNL     1      68.864  93.065  67.259  1.00  0.00     0.048 C 
BRANCH  16  23
ATOM     23  O   UNL     1      73.148  93.441  68.622  1.00  0.00    -0.381 OA
ATOM     24  H   UNL     1      72.829  93.620  67.722  1.00  0.00     0.212 HD
ENDBRANCH  16  23
ENDBRANCH   6  15
BRANCH   7  25
ATOM     25  C   UNL     1      73.302  86.798  68.650  1.00  0.00     0.135 C 
BRANCH  25  26
ATOM     26  C   UNL     1      74.177  85.758  67.996  1.00  0.00    -0.040 A 
ATOM     27  C   UNL     1      73.865  85.286  66.720  1.00  0.00     0.004 A 
ATOM     28  C   UNL     1      75.300  85.270  68.664  1.00  0.00     0.004 A 
ATOM     29  C   UNL     1      74.675  84.325  66.115  1.00  0.00     0.000 A 
ATOM     30  C   UNL     1      76.109  84.309  68.058  1.00  0.00     0.000 A 
ATOM     31  C   UNL     1      75.796  83.836  66.784  1.00  0.00     0.000 A 
ENDBRANCH  25  26
ENDBRANCH   7  25
BRANCH  14  32
ATOM     32  C   UNL     1      76.962  88.885  67.274  1.00  0.00    -0.046 C 
ATOM     33  C   UNL     1      77.078  87.704  66.357  1.00  0.00     0.042 C 
ATOM     34  C   UNL     1      78.043  89.492  67.788  1.00  0.00     0.010 C 
ENDBRANCH  14  32
ENDBRANCH   3   4
BRANCH   2  35
ATOM     35  C   UNL     1      72.365  92.847  70.851  1.00  0.00     0.078 CG0
ATOM     36  G   UNL     1      72.139  92.773  69.342  1.00  0.00     0.000 G0
ENDBRANCH   2  35
ENDBRANCH   1   2
BRANCH   1  37
ATOM     37  O   UNL     1      73.137  93.148  73.439  1.00  0.00    -0.461 OA
BRANCH  37  38
ATOM     38  C   UNL     1      72.964  93.303  74.795  1.00  0.00     0.310 C 
ATOM     39  O   UNL     1      72.093  93.983  75.319  1.00  0.00    -0.252 OA
BRANCH  38  40
ATOM     40  C   UNL     1      74.015  92.506  75.531  1.00  0.00     0.158 C 
BRANCH  40  41
ATOM     41  C   UNL     1      75.239  93.317  75.870  1.00  0.00    -0.033 A 
ATOM     42  C   UNL     1      76.189  93.590  74.885  1.00  0.00     0.054 A 
ATOM     43  C   UNL     1      75.422  93.795  77.167  1.00  0.00     0.008 A 
ATOM     44  C   UNL     1      77.322  94.341  75.199  1.00  0.00     0.160 A 
ATOM     45  C   UNL     1      76.555  94.547  77.481  1.00  0.00     0.050 A 
ATOM     46  C   UNL     1      77.505  94.819  76.497  1.00  0.00     0.157 A 
BRANCH  44  47
ATOM     47  O   UNL     1      78.243  94.601  74.229  1.00  0.00    -0.493 OA
ATOM     48  C   UNL     1      77.939  95.651  73.311  1.00  0.00     0.278 C 
ENDBRANCH  44  47
BRANCH  46  49
ATOM     49  O   UNL     1      78.606  95.555  76.814  1.00  0.00    -0.504 OA
ATOM     50  H   UNL     1      79.148  95.675  76.016  1.00  0.00     0.293 HD
ENDBRANCH  46  49
ENDBRANCH  40  41
ENDBRANCH  38  40
ENDBRANCH  37  38
ENDBRANCH   1  37
TORSDOF 11
ENDMDL
MODEL 5
REMARK VINA RESULT:    -6.421     31.602     33.849
REMARK INTER + INTRA:         -12.207
REMARK INTER:                 -11.915
REMARK INTRA:                  -0.293
REMARK UNBOUND:                -0.907
REMARK SMILES C=C(C)[C@]12C[C@@H](C)[C@@]34O[C@](Cc5ccccc5)(O[C@@H]1[C@@H]3C=C(COC(=O)Cc1ccc(O)c(OC)c1)C[C@]1(O)C(=O)C(C)=C[C@@H]41)O2
REMARK SMILES IDX 23 1 22 2 21 3 20 4 9 5 8 6 10 7 6 8 18 9 46 10 19 11 5 12
REMARK SMILES IDX 7 13 4 14 45 15 38 16 44 17 40 18 42 20 41 21 43 22 39 23
REMARK SMILES IDX 11 25 12 26 13 27 17 28 14 29 16 30 15 31 2 32 3 33 1 34
REMARK SMILES IDX 37 35 24 37 25 38 26 39 27 40 28 41 36 42 29 43 33 44 30 45
REMARK SMILES IDX 31 46 34 47 35 48 32 49
REMARK H PARENT 39 24 32 50
REMARK Flexibility Score: 90.00
ROOT
ATOM      1  C   UNL     1      90.934  74.814  84.029  1.00  0.00     0.264 C 
ENDROOT
BRANCH   1   2
ATOM      2  C   UNL     1      90.513  74.143  82.742  1.00  0.00    -0.033 C 
ATOM      3  C   UNL     1      90.961  74.630  81.567  1.00  0.00    -0.015 C 
BRANCH   3   4
ATOM      4  C   UNL     1      90.627  74.191  80.151  1.00  0.00     0.078 C 
ATOM      5  O   UNL     1      92.324  72.514  79.498  1.00  0.00    -0.319 OA
ATOM      6  C   UNL     1      90.896  72.693  79.749  1.00  0.00     0.095 C 
ATOM      7  C   UNL     1      92.956  73.569  78.748  1.00  0.00     0.289 C 
ATOM      8  C   UNL     1      90.091  72.403  78.415  1.00  0.00     0.023 C 
ATOM      9  O   UNL     1      92.793  74.830  79.391  1.00  0.00    -0.320 OA
ATOM     10  O   UNL     1      92.389  73.723  77.449  1.00  0.00    -0.313 OA
ATOM     11  C   UNL     1      91.400  75.066  79.133  1.00  0.00     0.170 C 
ATOM     12  C   UNL     1      90.011  73.669  77.508  1.00  0.00     0.049 C 
ATOM     13  C   UNL     1      90.595  71.211  77.586  1.00  0.00     0.011 C 
ATOM     14  C   UNL     1      91.239  74.564  77.677  1.00  0.00     0.122 C 
BRANCH   6  15
ATOM     15  C   UNL     1      90.588  71.739  80.938  1.00  0.00     0.086 C 
ATOM     16  C   UNL     1      89.308  72.047  81.743  1.00  0.00     0.140 CG0
ATOM     17  C   UNL     1      90.496  70.259  80.690  1.00  0.00    -0.010 C 
ATOM     18  C   UNL     1      88.830  70.666  82.137  1.00  0.00     0.190 C 
ATOM     19  G   UNL     1      89.589  72.936  82.954  1.00  0.00     0.000 G0
ATOM     20  C   UNL     1      89.536  69.623  81.370  1.00  0.00    -0.008 C 
ATOM     21  O   UNL     1      87.943  70.426  82.942  1.00  0.00    -0.291 OA
ATOM     22  C   UNL     1      89.213  68.183  81.438  1.00  0.00     0.048 C 
BRANCH  16  23
ATOM     23  O   UNL     1      88.246  72.562  80.958  1.00  0.00    -0.381 OA
ATOM     24  H   UNL     1      88.623  72.974  80.164  1.00  0.00     0.212 HD
ENDBRANCH  16  23
ENDBRANCH   6  15
BRANCH   7  25
ATOM     25  C   UNL     1      94.431  73.246  78.621  1.00  0.00     0.135 C 
BRANCH  25  26
ATOM     26  C   UNL     1      94.805  72.857  77.213  1.00  0.00    -0.040 A 
ATOM     27  C   UNL     1      94.600  71.549  76.773  1.00  0.00     0.004 A 
ATOM     28  C   UNL     1      95.355  73.804  76.350  1.00  0.00     0.004 A 
ATOM     29  C   UNL     1      94.947  71.189  75.470  1.00  0.00     0.000 A 
ATOM     30  C   UNL     1      95.701  73.444  75.047  1.00  0.00     0.000 A 
ATOM     31  C   UNL     1      95.497  72.136  74.608  1.00  0.00     0.000 A 
ENDBRANCH  25  26
ENDBRANCH   7  25
BRANCH  14  32
ATOM     32  C   UNL     1      91.273  75.685  76.690  1.00  0.00    -0.046 C 
ATOM     33  C   UNL     1      91.133  77.068  77.253  1.00  0.00     0.042 C 
ATOM     34  C   UNL     1      91.420  75.467  75.374  1.00  0.00     0.010 C 
ENDBRANCH  14  32
ENDBRANCH   3   4
BRANCH   2  35
ATOM     35  C   UNL     1      89.604  72.949  82.964  1.00  0.00     0.078 CG0
ATOM     36  G   UNL     1      89.320  72.054  81.758  1.00  0.00     0.000 G0
ENDBRANCH   2  35
ENDBRANCH   1   2
BRANCH   1  37
ATOM     37  O   UNL     1      89.830  75.496  84.583  1.00  0.00    -0.461 OA
BRANCH  37  38
ATOM     38  C   UNL     1      89.742  76.840  84.303  1.00  0.00     0.310 C 
ATOM     39  O   UNL     1      88.709  77.494  84.313  1.00  0.00    -0.252 OA
BRANCH  38  40
ATOM     40  C   UNL     1      91.117  77.379  83.983  1.00  0.00     0.158 C 
BRANCH  40  41
ATOM     41  C   UNL     1      91.206  78.878  84.115  1.00  0.00    -0.033 A 
ATOM     42  C   UNL     1      92.384  79.469  84.573  1.00  0.00     0.054 A 
ATOM     43  C   UNL     1      90.111  79.674  83.779  1.00  0.00     0.008 A 
ATOM     44  C   UNL     1      92.467  80.856  84.695  1.00  0.00     0.160 A 
ATOM     45  C   UNL     1      90.194  81.062  83.901  1.00  0.00     0.050 A 
ATOM     46  C   UNL     1      91.371  81.653  84.359  1.00  0.00     0.157 A 
BRANCH  44  47
ATOM     47  O   UNL     1      93.622  81.421  85.143  1.00  0.00    -0.493 OA
ATOM     48  C   UNL     1      94.762  81.331  84.290  1.00  0.00     0.278 C 
ENDBRANCH  44  47
BRANCH  46  49
ATOM     49  O   UNL     1      91.440  83.008  84.473  1.00  0.00    -0.504 OA
ATOM     50  H   UNL     1      91.751  83.381  83.631  1.00  0.00     0.293 HD
ENDBRANCH  46  49
ENDBRANCH  40  41
ENDBRANCH  38  40
ENDBRANCH  37  38
ENDBRANCH   1  37
TORSDOF 11
ENDMDL
MODEL 6
REMARK VINA RESULT:    -6.120     20.082     23.536
REMARK INTER + INTRA:         -11.678
REMARK INTER:                  -9.934
REMARK INTRA:                  -1.745
REMARK UNBOUND:                -0.907
REMARK SMILES C=C(C)[C@]12C[C@@H](C)[C@@]34O[C@](Cc5ccccc5)(O[C@@H]1[C@@H]3C=C(COC(=O)Cc1ccc(O)c(OC)c1)C[C@]1(O)C(=O)C(C)=C[C@@H]41)O2
REMARK SMILES IDX 23 1 22 2 21 3 20 4 9 5 8 6 10 7 6 8 18 9 46 10 19 11 5 12
REMARK SMILES IDX 7 13 4 14 45 15 38 16 44 17 40 18 42 20 41 21 43 22 39 23
REMARK SMILES IDX 11 25 12 26 13 27 17 28 14 29 16 30 15 31 2 32 3 33 1 34
REMARK SMILES IDX 37 35 24 37 25 38 26 39 27 40 28 41 36 42 29 43 33 44 30 45
REMARK SMILES IDX 31 46 34 47 35 48 32 49
REMARK H PARENT 39 24 32 50
REMARK Flexibility Score: 90.00
ROOT
ATOM      1  C   UNL     1      68.516  67.067  81.823  1.00  0.00     0.264 C 
ENDROOT
BRANCH   1   2
ATOM      2  C   UNL     1      67.089  66.582  81.710  1.00  0.00    -0.033 C 
ATOM      3  C   UNL     1      66.148  67.110  82.518  1.00  0.00    -0.015 C 
BRANCH   3   4
ATOM      4  C   UNL     1      64.678  66.746  82.654  1.00  0.00     0.078 C 
ATOM      5  O   UNL     1      63.424  68.223  81.116  1.00  0.00    -0.319 OA
ATOM      6  C   UNL     1      63.765  66.826  81.374  1.00  0.00     0.095 C 
ATOM      7  C   UNL     1      63.075  68.997  82.280  1.00  0.00     0.289 C 
ATOM      8  C   UNL     1      62.441  66.011  81.678  1.00  0.00     0.023 C 
ATOM      9  O   UNL     1      64.126  68.988  83.242  1.00  0.00    -0.320 OA
ATOM     10  O   UNL     1      61.932  68.476  82.953  1.00  0.00    -0.313 OA
ATOM     11  C   UNL     1      64.011  67.641  83.727  1.00  0.00     0.170 C 
ATOM     12  C   UNL     1      62.041  66.110  83.182  1.00  0.00     0.049 C 
ATOM     13  C   UNL     1      61.229  66.371  80.802  1.00  0.00     0.011 C 
ATOM     14  C   UNL     1      62.477  67.441  83.797  1.00  0.00     0.122 C 
BRANCH   6  15
ATOM     15  C   UNL     1      64.551  66.378  80.107  1.00  0.00     0.086 C 
ATOM     16  C   UNL     1      65.445  65.131  80.268  1.00  0.00     0.140 CG0
ATOM     17  C   UNL     1      63.801  66.109  78.833  1.00  0.00    -0.010 C 
ATOM     18  C   UNL     1      65.340  64.477  78.906  1.00  0.00     0.190 C 
ATOM     19  G   UNL     1      66.883  65.496  80.632  1.00  0.00     0.000 G0
ATOM     20  C   UNL     1      64.238  65.064  78.121  1.00  0.00    -0.008 C 
ATOM     21  O   UNL     1      66.031  63.551  78.510  1.00  0.00    -0.291 OA
ATOM     22  C   UNL     1      63.803  64.564  76.801  1.00  0.00     0.048 C 
BRANCH  16  23
ATOM     23  O   UNL     1      64.918  64.156  81.153  1.00  0.00    -0.381 OA
ATOM     24  H   UNL     1      63.987  64.004  80.922  1.00  0.00     0.212 HD
ENDBRANCH  16  23
ENDBRANCH   6  15
BRANCH   7  25
ATOM     25  C   UNL     1      62.797  70.420  81.838  1.00  0.00     0.135 C 
BRANCH  25  26
ATOM     26  C   UNL     1      62.026  71.194  82.879  1.00  0.00    -0.040 A 
ATOM     27  C   UNL     1      62.649  71.575  84.068  1.00  0.00     0.004 A 
ATOM     28  C   UNL     1      60.692  71.530  82.652  1.00  0.00     0.004 A 
ATOM     29  C   UNL     1      61.936  72.291  85.030  1.00  0.00     0.000 A 
ATOM     30  C   UNL     1      59.979  72.246  83.614  1.00  0.00     0.000 A 
ATOM     31  C   UNL     1      60.602  72.626  84.803  1.00  0.00     0.000 A 
ENDBRANCH  25  26
ENDBRANCH   7  25
BRANCH  14  32
ATOM     32  C   UNL     1      61.948  67.635  85.180  1.00  0.00    -0.046 C 
ATOM     33  C   UNL     1      60.886  66.673  85.624  1.00  0.00     0.042 C 
ATOM     34  C   UNL     1      62.396  68.614  85.981  1.00  0.00     0.010 C 
ENDBRANCH  14  32
ENDBRANCH   3   4
BRANCH   2  35
ATOM     35  C   UNL     1      66.904  65.520  80.643  1.00  0.00     0.078 CG0
ATOM     36  G   UNL     1      65.471  65.138  80.279  1.00  0.00     0.000 G0
ENDBRANCH   2  35
ENDBRANCH   1   2
BRANCH   1  37
ATOM     37  O   UNL     1      68.557  68.457  81.584  1.00  0.00    -0.461 OA
BRANCH  37  38
ATOM     38  C   UNL     1      69.715  69.103  81.950  1.00  0.00     0.310 C 
ATOM     39  O   UNL     1      70.447  69.718  81.187  1.00  0.00    -0.252 OA
BRANCH  38  40
ATOM     40  C   UNL     1      69.940  68.933  83.434  1.00  0.00     0.158 C 
BRANCH  40  41
ATOM     41  C   UNL     1      69.094  69.862  84.267  1.00  0.00    -0.033 A 
ATOM     42  C   UNL     1      68.425  69.375  85.390  1.00  0.00     0.054 A 
ATOM     43  C   UNL     1      68.981  71.206  83.915  1.00  0.00     0.008 A 
ATOM     44  C   UNL     1      67.641  70.234  86.161  1.00  0.00     0.160 A 
ATOM     45  C   UNL     1      68.197  72.065  84.686  1.00  0.00     0.050 A 
ATOM     46  C   UNL     1      67.527  71.580  85.809  1.00  0.00     0.157 A 
BRANCH  44  47
ATOM     47  O   UNL     1      66.992  69.748  87.255  1.00  0.00    -0.493 OA
ATOM     48  C   UNL     1      67.440  68.495  87.772  1.00  0.00     0.278 C 
ENDBRANCH  44  47
BRANCH  46  49
ATOM     49  O   UNL     1      66.766  72.428  86.555  1.00  0.00    -0.504 OA
ATOM     50  H   UNL     1      66.181  71.906  87.129  1.00  0.00     0.293 HD
ENDBRANCH  46  49
ENDBRANCH  40  41
ENDBRANCH  38  40
ENDBRANCH  37  38
ENDBRANCH   1  37
TORSDOF 11
ENDMDL
MODEL 7
REMARK VINA RESULT:    -6.119     29.479     33.424
REMARK INTER + INTRA:         -11.677
REMARK INTER:                 -10.878
REMARK INTRA:                  -0.799
REMARK UNBOUND:                -0.907
REMARK SMILES C=C(C)[C@]12C[C@@H](C)[C@@]34O[C@](Cc5ccccc5)(O[C@@H]1[C@@H]3C=C(COC(=O)Cc1ccc(O)c(OC)c1)C[C@]1(O)C(=O)C(C)=C[C@@H]41)O2
REMARK SMILES IDX 23 1 22 2 21 3 20 4 9 5 8 6 10 7 6 8 18 9 46 10 19 11 5 12
REMARK SMILES IDX 7 13 4 14 45 15 38 16 44 17 40 18 42 20 41 21 43 22 39 23
REMARK SMILES IDX 11 25 12 26 13 27 17 28 14 29 16 30 15 31 2 32 3 33 1 34
REMARK SMILES IDX 37 35 24 37 25 38 26 39 27 40 28 41 36 42 29 43 33 44 30 45
REMARK SMILES IDX 31 46 34 47 35 48 32 49
REMARK H PARENT 39 24 32 50
REMARK Flexibility Score: 90.00
ROOT
ATOM      1  C   UNL     1      92.025  75.078  81.991  1.00  0.00     0.264 C 
ENDROOT
BRANCH   1   2
ATOM      2  C   UNL     1      91.422  74.586  80.696  1.00  0.00    -0.033 C 
ATOM      3  C   UNL     1      91.927  75.023  79.525  1.00  0.00    -0.015 C 
BRANCH   3   4
ATOM      4  C   UNL     1      91.457  74.743  78.107  1.00  0.00     0.078 C 
ATOM      5  O   UNL     1      92.725  72.777  77.303  1.00  0.00    -0.319 OA
ATOM      6  C   UNL     1      91.379  73.246  77.626  1.00  0.00     0.095 C 
ATOM      7  C   UNL     1      93.544  73.710  76.572  1.00  0.00     0.289 C 
ATOM      8  C   UNL     1      90.484  73.208  76.319  1.00  0.00     0.023 C 
ATOM      9  O   UNL     1      93.682  74.940  77.279  1.00  0.00    -0.320 OA
ATOM     10  O   UNL     1      92.980  74.052  75.309  1.00  0.00    -0.313 OA
ATOM     11  C   UNL     1      92.366  75.484  77.096  1.00  0.00     0.170 C 
ATOM     12  C   UNL     1      90.650  74.509  75.475  1.00  0.00     0.049 C 
ATOM     13  C   UNL     1      90.688  71.982  75.415  1.00  0.00     0.011 C 
ATOM     14  C   UNL     1      92.049  75.108  75.627  1.00  0.00     0.122 C 
BRANCH   6  15
ATOM     15  C   UNL     1      90.912  72.318  78.784  1.00  0.00     0.086 C 
ATOM     16  C   UNL     1      89.765  72.854  79.665  1.00  0.00     0.140 CG0
ATOM     17  C   UNL     1      90.485  70.910  78.473  1.00  0.00    -0.010 C 
ATOM     18  C   UNL     1      89.007  71.592  80.018  1.00  0.00     0.190 C 
ATOM     19  G   UNL     1      90.282  73.591  80.899  1.00  0.00     0.000 G0
ATOM     20  C   UNL     1      89.434  70.464  79.169  1.00  0.00    -0.008 C 
ATOM     21  O   UNL     1      88.120  71.509  80.854  1.00  0.00    -0.291 OA
ATOM     22  C   UNL     1      88.802  69.129  79.186  1.00  0.00     0.048 C 
BRANCH  16  23
ATOM     23  O   UNL     1      88.814  73.633  78.957  1.00  0.00    -0.381 OA
ATOM     24  H   UNL     1      87.998  73.114  78.866  1.00  0.00     0.212 HD
ENDBRANCH  16  23
ENDBRANCH   6  15
BRANCH   7  25
ATOM     25  C   UNL     1      94.908  73.083  76.364  1.00  0.00     0.135 C 
BRANCH  25  26
ATOM     26  C   UNL     1      95.320  73.095  74.913  1.00  0.00    -0.040 A 
ATOM     27  C   UNL     1      95.703  74.292  74.307  1.00  0.00     0.004 A 
ATOM     28  C   UNL     1      95.319  71.910  74.177  1.00  0.00     0.004 A 
ATOM     29  C   UNL     1      96.084  74.303  72.964  1.00  0.00     0.000 A 
ATOM     30  C   UNL     1      95.700  71.921  72.835  1.00  0.00     0.000 A 
ATOM     31  C   UNL     1      96.082  73.118  72.229  1.00  0.00     0.000 A 
ENDBRANCH  25  26
ENDBRANCH   7  25
BRANCH  14  32
ATOM     32  C   UNL     1      92.292  76.246  74.691  1.00  0.00    -0.046 C 
ATOM     33  C   UNL     1      92.203  77.621  75.283  1.00  0.00     0.042 C 
ATOM     34  C   UNL     1      92.573  76.051  73.394  1.00  0.00     0.010 C 
ENDBRANCH  14  32
ENDBRANCH   3   4
BRANCH   2  35
ATOM     35  C   UNL     1      90.278  73.612  80.906  1.00  0.00     0.078 CG0
ATOM     36  G   UNL     1      89.760  72.867  79.676  1.00  0.00     0.000 G0
ENDBRANCH   2  35
ENDBRANCH   1   2
BRANCH   1  37
ATOM     37  O   UNL     1      91.544  76.376  82.266  1.00  0.00    -0.461 OA
BRANCH  37  38
ATOM     38  C   UNL     1      90.826  76.525  83.430  1.00  0.00     0.310 C 
ATOM     39  O   UNL     1      89.747  75.998  83.662  1.00  0.00    -0.252 OA
BRANCH  38  40
ATOM     40  C   UNL     1      91.576  77.439  84.371  1.00  0.00     0.158 C 
BRANCH  40  41
ATOM     41  C   UNL     1      91.127  78.875  84.279  1.00  0.00    -0.033 A 
ATOM     42  C   UNL     1      89.778  79.172  84.083  1.00  0.00     0.054 A 
ATOM     43  C   UNL     1      92.060  79.905  84.389  1.00  0.00     0.008 A 
ATOM     44  C   UNL     1      89.363  80.502  83.997  1.00  0.00     0.160 A 
ATOM     45  C   UNL     1      91.645  81.234  84.303  1.00  0.00     0.050 A 
ATOM     46  C   UNL     1      90.297  81.533  84.107  1.00  0.00     0.157 A 
BRANCH  44  47
ATOM     47  O   UNL     1      88.044  80.780  83.805  1.00  0.00    -0.493 OA
ATOM     48  C   UNL     1      87.326  79.933  82.909  1.00  0.00     0.278 C 
ENDBRANCH  44  47
BRANCH  46  49
ATOM     49  O   UNL     1      89.903  82.834  84.026  1.00  0.00    -0.504 OA
ATOM     50  H   UNL     1      89.066  82.881  83.534  1.00  0.00     0.293 HD
ENDBRANCH  46  49
ENDBRANCH  40  41
ENDBRANCH  38  40
ENDBRANCH  37  38
ENDBRANCH   1  37
TORSDOF 11
ENDMDL
MODEL 8
REMARK VINA RESULT:    -5.943     34.646     38.232
REMARK INTER + INTRA:         -11.367
REMARK INTER:                  -9.205
REMARK INTRA:                  -2.162
REMARK UNBOUND:                -0.907
REMARK SMILES C=C(C)[C@]12C[C@@H](C)[C@@]34O[C@](Cc5ccccc5)(O[C@@H]1[C@@H]3C=C(COC(=O)Cc1ccc(O)c(OC)c1)C[C@]1(O)C(=O)C(C)=C[C@@H]41)O2
REMARK SMILES IDX 23 1 22 2 21 3 20 4 9 5 8 6 10 7 6 8 18 9 46 10 19 11 5 12
REMARK SMILES IDX 7 13 4 14 45 15 38 16 44 17 40 18 42 20 41 21 43 22 39 23
REMARK SMILES IDX 11 25 12 26 13 27 17 28 14 29 16 30 15 31 2 32 3 33 1 34
REMARK SMILES IDX 37 35 24 37 25 38 26 39 27 40 28 41 36 42 29 43 33 44 30 45
REMARK SMILES IDX 31 46 34 47 35 48 32 49
REMARK H PARENT 39 24 32 50
REMARK Flexibility Score: 90.00
ROOT
ATOM      1  C   UNL     1      97.398  83.811  85.467  1.00  0.00     0.264 C 
ENDROOT
BRANCH   1   2
ATOM      2  C   UNL     1      97.429  82.375  85.937  1.00  0.00    -0.033 C 
ATOM      3  C   UNL     1      96.843  81.422  85.184  1.00  0.00    -0.015 C 
BRANCH   3   4
ATOM      4  C   UNL     1      96.671  79.939  85.467  1.00  0.00     0.078 C 
ATOM      5  O   UNL     1      98.609  78.782  84.454  1.00  0.00    -0.319 OA
ATOM      6  C   UNL     1      97.959  79.072  85.730  1.00  0.00     0.095 C 
ATOM      7  C   UNL     1      97.722  78.417  83.379  1.00  0.00     0.289 C 
ATOM      8  C   UNL     1      97.495  77.714  86.402  1.00  0.00     0.023 C 
ATOM      9  O   UNL     1      96.753  79.435  83.140  1.00  0.00    -0.320 OA
ATOM     10  O   UNL     1      96.977  77.237  83.670  1.00  0.00    -0.313 OA
ATOM     11  C   UNL     1      95.917  79.263  84.295  1.00  0.00     0.170 C 
ATOM     12  C   UNL     1      96.095  77.268  85.879  1.00  0.00     0.049 C 
ATOM     13  C   UNL     1      98.484  76.544  86.277  1.00  0.00     0.011 C 
ATOM     14  C   UNL     1      95.857  77.722  84.439  1.00  0.00     0.122 C 
BRANCH   6  15
ATOM     15  C   UNL     1      99.018  79.886  86.529  1.00  0.00     0.086 C 
ATOM     16  C   UNL     1      98.482  80.729  87.705  1.00  0.00     0.140 CG0
ATOM     17  C   UNL     1     100.201  79.173  87.121  1.00  0.00    -0.010 C 
ATOM     18  C   UNL     1      99.615  80.650  88.706  1.00  0.00     0.190 C 
ATOM     19  G   UNL     1      98.169  82.166  87.288  1.00  0.00     0.000 G0
ATOM     20  C   UNL     1     100.579  79.598  88.331  1.00  0.00    -0.008 C 
ATOM     21  O   UNL     1      99.711  81.322  89.721  1.00  0.00    -0.291 OA
ATOM     22  C   UNL     1     101.729  79.193  89.166  1.00  0.00     0.048 C 
BRANCH  16  23
ATOM     23  O   UNL     1      97.388  80.137  88.384  1.00  0.00    -0.381 OA
ATOM     24  H   UNL     1      96.576  80.602  88.123  1.00  0.00     0.212 HD
ENDBRANCH  16  23
ENDBRANCH   6  15
BRANCH   7  25
ATOM     25  C   UNL     1      98.552  78.197  82.131  1.00  0.00     0.135 C 
BRANCH  25  26
ATOM     26  C   UNL     1      98.627  79.437  81.276  1.00  0.00    -0.040 A 
ATOM     27  C   UNL     1      97.760  79.591  80.194  1.00  0.00     0.004 A 
ATOM     28  C   UNL     1      99.561  80.431  81.568  1.00  0.00     0.004 A 
ATOM     29  C   UNL     1      97.829  80.738  79.402  1.00  0.00     0.000 A 
ATOM     30  C   UNL     1      99.629  81.578  80.777  1.00  0.00     0.000 A 
ATOM     31  C   UNL     1      98.763  81.731  79.694  1.00  0.00     0.000 A 
ENDBRANCH  25  26
ENDBRANCH   7  25
BRANCH  14  32
ATOM     32  C   UNL     1      94.605  77.152  83.856  1.00  0.00    -0.046 C 
ATOM     33  C   UNL     1      94.780  76.206  82.706  1.00  0.00     0.042 C 
ATOM     34  C   UNL     1      93.392  77.469  84.335  1.00  0.00     0.010 C 
ENDBRANCH  14  32
ENDBRANCH   3   4
BRANCH   2  35
ATOM     35  C   UNL     1      98.159  82.196  87.254  1.00  0.00     0.078 CG0
ATOM     36  G   UNL     1      98.480  80.766  87.686  1.00  0.00     0.000 G0
ENDBRANCH   2  35
ENDBRANCH   1   2
BRANCH   1  37
ATOM     37  O   UNL     1      96.495  83.930  84.389  1.00  0.00    -0.461 OA
BRANCH  37  38
ATOM     38  C   UNL     1      95.736  85.076  84.355  1.00  0.00     0.310 C 
ATOM     39  O   UNL     1      95.882  85.992  83.557  1.00  0.00    -0.252 OA
BRANCH  38  40
ATOM     40  C   UNL     1      94.699  85.027  85.452  1.00  0.00     0.158 C 
BRANCH  40  41
ATOM     41  C   UNL     1      93.993  83.698  85.535  1.00  0.00    -0.033 A 
ATOM     42  C   UNL     1      93.705  83.138  86.780  1.00  0.00     0.054 A 
ATOM     43  C   UNL     1      93.627  83.029  84.368  1.00  0.00     0.008 A 
ATOM     44  C   UNL     1      93.051  81.908  86.857  1.00  0.00     0.160 A 
ATOM     45  C   UNL     1      92.974  81.799  84.444  1.00  0.00     0.050 A 
ATOM     46  C   UNL     1      92.686  81.238  85.688  1.00  0.00     0.157 A 
BRANCH  44  47
ATOM     47  O   UNL     1      92.775  81.371  88.078  1.00  0.00    -0.493 OA
ATOM     48  C   UNL     1      93.831  80.666  88.729  1.00  0.00     0.278 C 
ENDBRANCH  44  47
BRANCH  46  49
ATOM     49  O   UNL     1      92.046  80.037  85.751  1.00  0.00    -0.504 OA
ATOM     50  H   UNL     1      92.115  79.596  84.887  1.00  0.00     0.293 HD
ENDBRANCH  46  49
ENDBRANCH  40  41
ENDBRANCH  38  40
ENDBRANCH  37  38
ENDBRANCH   1  37
TORSDOF 11
ENDMDL
MODEL 9
REMARK VINA RESULT:    -5.847     29.803     33.731
REMARK INTER + INTRA:         -11.198
REMARK INTER:                 -11.530
REMARK INTRA:                   0.332
REMARK UNBOUND:                -0.907
REMARK SMILES C=C(C)[C@]12C[C@@H](C)[C@@]34O[C@](Cc5ccccc5)(O[C@@H]1[C@@H]3C=C(COC(=O)Cc1ccc(O)c(OC)c1)C[C@]1(O)C(=O)C(C)=C[C@@H]41)O2
REMARK SMILES IDX 23 1 22 2 21 3 20 4 9 5 8 6 10 7 6 8 18 9 46 10 19 11 5 12
REMARK SMILES IDX 7 13 4 14 45 15 38 16 44 17 40 18 42 20 41 21 43 22 39 23
REMARK SMILES IDX 11 25 12 26 13 27 17 28 14 29 16 30 15 31 2 32 3 33 1 34
REMARK SMILES IDX 37 35 24 37 25 38 26 39 27 40 28 41 36 42 29 43 33 44 30 45
REMARK SMILES IDX 31 46 34 47 35 48 32 49
REMARK H PARENT 39 24 32 50
REMARK Flexibility Score: 90.00
ROOT
ATOM      1  C   UNL     1      92.369  74.680  82.014  1.00  0.00     0.264 C 
ENDROOT
BRANCH   1   2
ATOM      2  C   UNL     1      91.757  74.185  80.725  1.00  0.00    -0.033 C 
ATOM      3  C   UNL     1      91.915  74.910  79.599  1.00  0.00    -0.015 C 
BRANCH   3   4
ATOM      4  C   UNL     1      91.342  74.674  78.211  1.00  0.00     0.078 C 
ATOM      5  O   UNL     1      93.023  73.367  76.951  1.00  0.00    -0.319 OA
ATOM      6  C   UNL     1      91.666  73.312  77.489  1.00  0.00     0.095 C 
ATOM      7  C   UNL     1      93.383  74.606  76.311  1.00  0.00     0.289 C 
ATOM      8  C   UNL     1      90.636  73.145  76.297  1.00  0.00     0.023 C 
ATOM      9  O   UNL     1      93.234  75.710  77.200  1.00  0.00    -0.320 OA
ATOM     10  O   UNL     1      92.550  74.899  75.192  1.00  0.00    -0.313 OA
ATOM     11  C   UNL     1      91.802  75.800  77.253  1.00  0.00     0.170 C 
ATOM     12  C   UNL     1      90.251  74.523  75.676  1.00  0.00     0.049 C 
ATOM     13  C   UNL     1      91.072  72.185  75.178  1.00  0.00     0.011 C 
ATOM     14  C   UNL     1      91.396  75.531  75.783  1.00  0.00     0.122 C 
BRANCH   6  15
ATOM     15  C   UNL     1      91.700  72.140  78.512  1.00  0.00     0.086 C 
ATOM     16  C   UNL     1      90.582  72.132  79.575  1.00  0.00     0.140 CG0
ATOM     17  C   UNL     1      91.715  70.724  78.010  1.00  0.00    -0.010 C 
ATOM     18  C   UNL     1      90.337  70.652  79.779  1.00  0.00     0.190 C 
ATOM     19  G   UNL     1      91.004  72.838  80.863  1.00  0.00     0.000 G0
ATOM     20  C   UNL     1      90.981  69.858  78.716  1.00  0.00    -0.008 C 
ATOM     21  O   UNL     1      89.657  70.163  80.669  1.00  0.00    -0.291 OA
ATOM     22  C   UNL     1      90.829  68.396  78.566  1.00  0.00     0.048 C 
BRANCH  16  23
ATOM     23  O   UNL     1      89.337  72.619  79.102  1.00  0.00    -0.381 OA
ATOM     24  H   UNL     1      88.731  71.866  79.001  1.00  0.00     0.212 HD
ENDBRANCH  16  23
ENDBRANCH   6  15
BRANCH   7  25
ATOM     25  C   UNL     1      94.825  74.505  75.856  1.00  0.00     0.135 C 
BRANCH  25  26
ATOM     26  C   UNL     1      95.791  74.870  76.956  1.00  0.00    -0.040 A 
ATOM     27  C   UNL     1      95.828  74.117  78.129  1.00  0.00     0.004 A 
ATOM     28  C   UNL     1      96.648  75.959  76.799  1.00  0.00     0.004 A 
ATOM     29  C   UNL     1      96.722  74.454  79.146  1.00  0.00     0.000 A 
ATOM     30  C   UNL     1      97.542  76.296  77.816  1.00  0.00     0.000 A 
ATOM     31  C   UNL     1      97.578  75.543  78.989  1.00  0.00     0.000 A 
ENDBRANCH  25  26
ENDBRANCH   7  25
BRANCH  14  32
ATOM     32  C   UNL     1      91.119  76.796  75.036  1.00  0.00    -0.046 C 
ATOM     33  C   UNL     1      90.694  77.973  75.863  1.00  0.00     0.042 C 
ATOM     34  C   UNL     1      91.244  76.874  73.703  1.00  0.00     0.010 C 
ENDBRANCH  14  32
ENDBRANCH   3   4
BRANCH   2  35
ATOM     35  C   UNL     1      91.019  72.869  80.883  1.00  0.00     0.078 CG0
ATOM     36  G   UNL     1      90.588  72.151  79.605  1.00  0.00     0.000 G0
ENDBRANCH   2  35
ENDBRANCH   1   2
BRANCH   1  37
ATOM     37  O   UNL     1      91.956  76.010  82.247  1.00  0.00    -0.461 OA
BRANCH  37  38
ATOM     38  C   UNL     1      91.043  76.195  83.259  1.00  0.00     0.310 C 
ATOM     39  O   UNL     1      89.923  75.702  83.294  1.00  0.00    -0.252 OA
BRANCH  38  40
ATOM     40  C   UNL     1      91.636  77.097  84.315  1.00  0.00     0.158 C 
BRANCH  40  41
ATOM     41  C   UNL     1      91.164  78.524  84.203  1.00  0.00    -0.033 A 
ATOM     42  C   UNL     1      89.808  78.797  84.020  1.00  0.00     0.054 A 
ATOM     43  C   UNL     1      92.082  79.571  84.282  1.00  0.00     0.008 A 
ATOM     44  C   UNL     1      89.371  80.118  83.916  1.00  0.00     0.160 A 
ATOM     45  C   UNL     1      91.645  80.891  84.177  1.00  0.00     0.050 A 
ATOM     46  C   UNL     1      90.290  81.165  83.994  1.00  0.00     0.157 A 
BRANCH  44  47
ATOM     47  O   UNL     1      88.045  80.372  83.737  1.00  0.00    -0.493 OA
ATOM     48  C   UNL     1      87.580  81.672  84.097  1.00  0.00     0.278 C 
ENDBRANCH  44  47
BRANCH  46  49
ATOM     49  O   UNL     1      89.875  82.458  83.895  1.00  0.00    -0.504 OA
ATOM     50  H   UNL     1      89.030  82.484  83.414  1.00  0.00     0.293 HD
ENDBRANCH  46  49
ENDBRANCH  40  41
ENDBRANCH  38  40
ENDBRANCH  37  38
ENDBRANCH   1  37
TORSDOF 11
ENDMDL
MODEL 10
REMARK VINA RESULT:    -5.658     30.597     33.960
REMARK INTER + INTRA:         -10.866
REMARK INTER:                  -9.745
REMARK INTRA:                  -1.121
REMARK UNBOUND:                -0.907
REMARK SMILES C=C(C)[C@]12C[C@@H](C)[C@@]34O[C@](Cc5ccccc5)(O[C@@H]1[C@@H]3C=C(COC(=O)Cc1ccc(O)c(OC)c1)C[C@]1(O)C(=O)C(C)=C[C@@H]41)O2
REMARK SMILES IDX 23 1 22 2 21 3 20 4 9 5 8 6 10 7 6 8 18 9 46 10 19 11 5 12
REMARK SMILES IDX 7 13 4 14 45 15 38 16 44 17 40 18 42 20 41 21 43 22 39 23
REMARK SMILES IDX 11 25 12 26 13 27 17 28 14 29 16 30 15 31 2 32 3 33 1 34
REMARK SMILES IDX 37 35 24 37 25 38 26 39 27 40 28 41 36 42 29 43 33 44 30 45
REMARK SMILES IDX 31 46 34 47 35 48 32 49
REMARK H PARENT 39 24 32 50
REMARK Flexibility Score: 90.00
ROOT
ATOM      1  C   UNL     1      92.536  73.477  81.232  1.00  0.00     0.264 C 
ENDROOT
BRANCH   1   2
ATOM      2  C   UNL     1      92.604  73.469  79.722  1.00  0.00    -0.033 C 
ATOM      3  C   UNL     1      92.852  72.310  79.080  1.00  0.00    -0.015 C 
BRANCH   3   4
ATOM      4  C   UNL     1      93.044  72.053  77.594  1.00  0.00     0.078 C 
ATOM      5  O   UNL     1      90.826  71.462  76.672  1.00  0.00    -0.319 OA
ATOM      6  C   UNL     1      91.889  72.463  76.607  1.00  0.00     0.095 C 
ATOM      7  C   UNL     1      91.271  70.093  76.704  1.00  0.00     0.289 C 
ATOM      8  C   UNL     1      92.494  72.490  75.143  1.00  0.00     0.023 C 
ATOM      9  O   UNL     1      92.142  69.858  77.807  1.00  0.00    -0.320 OA
ATOM     10  O   UNL     1      92.016  69.738  75.542  1.00  0.00    -0.313 OA
ATOM     11  C   UNL     1      93.317  70.548  77.352  1.00  0.00     0.170 C 
ATOM     12  C   UNL     1      93.607  71.411  74.966  1.00  0.00     0.049 C 
ATOM     13  C   UNL     1      91.471  72.362  74.003  1.00  0.00     0.011 C 
ATOM     14  C   UNL     1      93.353  70.186  75.846  1.00  0.00     0.122 C 
BRANCH   6  15
ATOM     15  C   UNL     1      91.208  73.783  77.073  1.00  0.00     0.086 C 
ATOM     16  C   UNL     1      92.153  74.897  77.568  1.00  0.00     0.140 CG0
ATOM     17  C   UNL     1      90.279  74.503  76.136  1.00  0.00    -0.010 C 
ATOM     18  C   UNL     1      91.439  76.154  77.119  1.00  0.00     0.190 C 
ATOM     19  G   UNL     1      92.357  74.850  79.082  1.00  0.00     0.000 G0
ATOM     20  C   UNL     1      90.365  75.837  76.158  1.00  0.00    -0.008 C 
ATOM     21  O   UNL     1      91.730  77.293  77.453  1.00  0.00    -0.291 OA
ATOM     22  C   UNL     1      89.564  76.854  75.446  1.00  0.00     0.048 C 
BRANCH  16  23
ATOM     23  O   UNL     1      93.392  74.947  76.880  1.00  0.00    -0.381 OA
ATOM     24  H   UNL     1      93.868  74.117  77.045  1.00  0.00     0.212 HD
ENDBRANCH  16  23
ENDBRANCH   6  15
BRANCH   7  25
ATOM     25  C   UNL     1      90.052  69.200  76.816  1.00  0.00     0.135 C 
BRANCH  25  26
ATOM     26  C   UNL     1      88.948  69.631  75.883  1.00  0.00    -0.040 A 
ATOM     27  C   UNL     1      89.160  69.631  74.504  1.00  0.00     0.004 A 
ATOM     28  C   UNL     1      87.714  70.029  76.398  1.00  0.00     0.004 A 
ATOM     29  C   UNL     1      88.139  70.030  73.640  1.00  0.00     0.000 A 
ATOM     30  C   UNL     1      86.693  70.427  75.534  1.00  0.00     0.000 A 
ATOM     31  C   UNL     1      86.907  70.428  74.156  1.00  0.00     0.000 A 
ENDBRANCH  25  26
ENDBRANCH   7  25
BRANCH  14  32
ATOM     32  C   UNL     1      94.301  69.067  75.560  1.00  0.00    -0.046 C 
ATOM     33  C   UNL     1      93.684  67.721  75.321  1.00  0.00     0.042 C 
ATOM     34  C   UNL     1      95.628  69.255  75.518  1.00  0.00     0.010 C 
ENDBRANCH  14  32
ENDBRANCH   3   4
BRANCH   2  35
ATOM     35  C   UNL     1      92.365  74.836  79.109  1.00  0.00     0.078 CG0
ATOM     36  G   UNL     1      92.148  74.895  77.598  1.00  0.00     0.000 G0
ENDBRANCH   2  35
ENDBRANCH   1   2
BRANCH   1  37
ATOM     37  O   UNL     1      91.601  74.447  81.652  1.00  0.00    -0.461 OA
BRANCH  37  38
ATOM     38  C   UNL     1      90.785  74.092  82.701  1.00  0.00     0.310 C 
ATOM     39  O   UNL     1      89.798  73.376  82.613  1.00  0.00    -0.252 OA
BRANCH  38  40
ATOM     40  C   UNL     1      91.298  74.723  83.974  1.00  0.00     0.158 C 
BRANCH  40  41
ATOM     41  C   UNL     1      90.908  76.172  84.111  1.00  0.00    -0.033 A 
ATOM     42  C   UNL     1      91.893  77.161  84.136  1.00  0.00     0.054 A 
ATOM     43  C   UNL     1      89.562  76.526  84.212  1.00  0.00     0.008 A 
ATOM     44  C   UNL     1      91.531  78.502  84.262  1.00  0.00     0.160 A 
ATOM     45  C   UNL     1      89.201  77.867  84.339  1.00  0.00     0.050 A 
ATOM     46  C   UNL     1      90.185  78.855  84.364  1.00  0.00     0.157 A 
BRANCH  44  47
ATOM     47  O   UNL     1      92.501  79.458  84.286  1.00  0.00    -0.493 OA
ATOM     48  C   UNL     1      93.635  79.210  85.116  1.00  0.00     0.278 C 
ENDBRANCH  44  47
BRANCH  46  49
ATOM     49  O   UNL     1      89.820  80.161  84.487  1.00  0.00    -0.504 OA
ATOM     50  H   UNL     1      90.373  80.582  85.167  1.00  0.00     0.293 HD
ENDBRANCH  46  49
ENDBRANCH  40  41
ENDBRANCH  38  40
ENDBRANCH  37  38
ENDBRANCH   1  37
TORSDOF 11
ENDMDL
