MODEL 1
REMARK VINA RESULT:    -5.894      0.000      0.000
REMARK INTER + INTRA:         -10.652
REMARK INTER:                  -9.684
REMARK INTRA:                  -0.968
REMARK UNBOUND:                -0.968
REMARK SMILES CCCCC[C@H](O)CC(=O)CCc1ccc(O)c(OC)c1
REMARK SMILES IDX 8 1 6 2 7 3 5 5 4 6 3 7 2 8 1 9 9 10 10 11 11 12 12 13 13 14
REMARK SMILES IDX 21 15 14 16 18 17 15 18 16 19 19 20 20 21 17 22
REMARK H PARENT 7 4 17 23
REMARK Flexibility Score: inf
ROOT
ATOM      1  C   UNL     1      78.232  84.438  68.057  1.00  0.00     0.107 C 
ENDROOT
BRANCH   1   2
ATOM      2  C   UNL     1      78.063  85.959  68.034  1.00  0.00     0.121 C 
BRANCH   2   3
ATOM      3  O   UNL     1      77.066  86.320  67.081  1.00  0.00    -0.393 OA
ATOM      4  H   UNL     1      77.340  85.971  66.216  1.00  0.00     0.210 HD
ENDBRANCH   2   3
BRANCH   2   5
ATOM      5  C   UNL     1      77.690  86.543  69.402  1.00  0.00     0.032 C 
BRANCH   5   6
ATOM      6  C   UNL     1      76.610  85.714  70.107  1.00  0.00     0.003 C 
BRANCH   6   7
ATOM      7  C   UNL     1      75.317  86.496  70.363  1.00  0.00    -0.000 C 
BRANCH   7   8
ATOM      8  C   UNL     1      75.475  88.007  70.208  1.00  0.00    -0.003 C 
ATOM      9  C   UNL     1      74.592  88.760  71.191  1.00  0.00     0.004 C 
ENDBRANCH   7   8
ENDBRANCH   6   7
ENDBRANCH   5   6
ENDBRANCH   2   5
ENDBRANCH   1   2
BRANCH   1  10
ATOM     10  C   UNL     1      77.916  83.783  66.723  1.00  0.00     0.135 C 
ATOM     11  O   UNL     1      78.604  84.009  65.727  1.00  0.00    -0.300 OA
BRANCH  10  12
ATOM     12  C   UNL     1      76.745  82.811  66.700  1.00  0.00     0.080 C 
BRANCH  12  13
ATOM     13  C   UNL     1      76.863  81.732  65.623  1.00  0.00     0.043 C 
BRANCH  13  14
ATOM     14  C   UNL     1      75.540  81.392  64.979  1.00  0.00    -0.044 A 
ATOM     15  C   UNL     1      74.359  81.497  65.713  1.00  0.00     0.054 A 
ATOM     16  C   UNL     1      75.500  80.973  63.649  1.00  0.00     0.008 A 
ATOM     17  C   UNL     1      73.137  81.183  65.117  1.00  0.00     0.160 A 
ATOM     18  C   UNL     1      74.278  80.659  63.052  1.00  0.00     0.050 A 
ATOM     19  C   UNL     1      73.097  80.764  63.787  1.00  0.00     0.157 A 
BRANCH  17  20
ATOM     20  O   UNL     1      71.990  81.289  65.844  1.00  0.00    -0.493 OA
ATOM     21  C   UNL     1      71.713  82.557  66.437  1.00  0.00     0.278 C 
ENDBRANCH  17  20
BRANCH  19  22
ATOM     22  O   UNL     1      71.911  80.455  63.194  1.00  0.00    -0.504 OA
ATOM     23  H   UNL     1      72.005  79.614  62.715  1.00  0.00     0.293 HD
ENDBRANCH  19  22
ENDBRANCH  13  14
ENDBRANCH  12  13
ENDBRANCH  10  12
ENDBRANCH   1  10
TORSDOF 12
ENDMDL
MODEL 2
REMARK VINA RESULT:    -5.882      1.450      2.244
REMARK INTER + INTRA:         -10.631
REMARK INTER:                  -9.038
REMARK INTRA:                  -1.593
REMARK UNBOUND:                -0.968
REMARK SMILES CCCCC[C@H](O)CC(=O)CCc1ccc(O)c(OC)c1
REMARK SMILES IDX 8 1 6 2 7 3 5 5 4 6 3 7 2 8 1 9 9 10 10 11 11 12 12 13 13 14
REMARK SMILES IDX 21 15 14 16 18 17 15 18 16 19 19 20 20 21 17 22
REMARK H PARENT 7 4 17 23
REMARK Flexibility Score: inf
ROOT
ATOM      1  C   UNL     1      77.640  86.835  66.877  1.00  0.00     0.107 C 
ENDROOT
BRANCH   1   2
ATOM      2  C   UNL     1      76.467  87.601  67.493  1.00  0.00     0.121 C 
BRANCH   2   3
ATOM      3  O   UNL     1      75.236  87.010  67.085  1.00  0.00    -0.393 OA
ATOM      4  H   UNL     1      74.636  87.013  67.851  1.00  0.00     0.210 HD
ENDBRANCH   2   3
BRANCH   2   5
ATOM      5  C   UNL     1      76.521  87.650  69.025  1.00  0.00     0.032 C 
BRANCH   5   6
ATOM      6  C   UNL     1      76.192  86.292  69.657  1.00  0.00     0.003 C 
BRANCH   6   7
ATOM      7  C   UNL     1      77.426  85.557  70.190  1.00  0.00    -0.000 C 
BRANCH   7   8
ATOM      8  C   UNL     1      77.110  84.192  70.798  1.00  0.00    -0.003 C 
ATOM      9  C   UNL     1      75.773  84.204  71.524  1.00  0.00     0.004 C 
ENDBRANCH   7   8
ENDBRANCH   6   7
ENDBRANCH   5   6
ENDBRANCH   2   5
ENDBRANCH   1   2
BRANCH   1  10
ATOM     10  C   UNL     1      77.203  85.613  66.085  1.00  0.00     0.135 C 
ATOM     11  O   UNL     1      76.593  85.733  65.022  1.00  0.00    -0.300 OA
BRANCH  10  12
ATOM     12  C   UNL     1      77.597  84.257  66.650  1.00  0.00     0.080 C 
BRANCH  12  13
ATOM     13  C   UNL     1      76.424  83.474  67.242  1.00  0.00     0.043 C 
BRANCH  13  14
ATOM     14  C   UNL     1      75.732  82.589  66.232  1.00  0.00    -0.044 A 
ATOM     15  C   UNL     1      74.360  82.358  66.331  1.00  0.00     0.054 A 
ATOM     16  C   UNL     1      76.466  82.004  65.200  1.00  0.00     0.008 A 
ATOM     17  C   UNL     1      73.722  81.542  65.396  1.00  0.00     0.160 A 
ATOM     18  C   UNL     1      75.828  81.188  64.265  1.00  0.00     0.050 A 
ATOM     19  C   UNL     1      74.456  80.957  64.364  1.00  0.00     0.157 A 
BRANCH  17  20
ATOM     20  O   UNL     1      72.382  81.322  65.503  1.00  0.00    -0.493 OA
ATOM     21  C   UNL     1      71.656  82.168  66.393  1.00  0.00     0.278 C 
ENDBRANCH  17  20
BRANCH  19  22
ATOM     22  O   UNL     1      73.845  80.158  63.446  1.00  0.00    -0.504 OA
ATOM     23  H   UNL     1      74.509  79.836  62.813  1.00  0.00     0.293 HD
ENDBRANCH  19  22
ENDBRANCH  13  14
ENDBRANCH  12  13
ENDBRANCH  10  12
ENDBRANCH   1  10
TORSDOF 12
ENDMDL
MODEL 3
REMARK VINA RESULT:    -5.767      1.885      6.171
REMARK INTER + INTRA:         -10.444
REMARK INTER:                  -8.562
REMARK INTRA:                  -1.882
REMARK UNBOUND:                -0.968
REMARK SMILES CCCCC[C@H](O)CC(=O)CCc1ccc(O)c(OC)c1
REMARK SMILES IDX 8 1 6 2 7 3 5 5 4 6 3 7 2 8 1 9 9 10 10 11 11 12 12 13 13 14
REMARK SMILES IDX 21 15 14 16 18 17 15 18 16 19 19 20 20 21 17 22
REMARK H PARENT 7 4 17 23
REMARK Flexibility Score: inf
ROOT
ATOM      1  C   UNL     1      74.227  81.672  65.721  1.00  0.00     0.107 C 
ENDROOT
BRANCH   1   2
ATOM      2  C   UNL     1      72.718  81.568  65.486  1.00  0.00     0.121 C 
BRANCH   2   3
ATOM      3  O   UNL     1      72.308  80.206  65.574  1.00  0.00    -0.393 OA
ATOM      4  H   UNL     1      73.048  79.652  65.271  1.00  0.00     0.210 HD
ENDBRANCH   2   3
BRANCH   2   5
ATOM      5  C   UNL     1      71.898  82.407  66.474  1.00  0.00     0.032 C 
BRANCH   5   6
ATOM      6  C   UNL     1      72.171  83.909  66.321  1.00  0.00     0.003 C 
BRANCH   6   7
ATOM      7  C   UNL     1      72.656  84.572  67.614  1.00  0.00    -0.000 C 
BRANCH   7   8
ATOM      8  C   UNL     1      74.139  84.939  67.595  1.00  0.00    -0.003 C 
ATOM      9  C   UNL     1      74.628  85.340  68.978  1.00  0.00     0.004 C 
ENDBRANCH   7   8
ENDBRANCH   6   7
ENDBRANCH   5   6
ENDBRANCH   2   5
ENDBRANCH   1   2
BRANCH   1  10
ATOM     10  C   UNL     1      75.047  81.299  64.497  1.00  0.00     0.135 C 
ATOM     11  O   UNL     1      74.579  80.576  63.617  1.00  0.00    -0.300 OA
BRANCH  10  12
ATOM     12  C   UNL     1      76.442  81.899  64.401  1.00  0.00     0.080 C 
BRANCH  12  13
ATOM     13  C   UNL     1      76.453  83.428  64.387  1.00  0.00     0.043 C 
BRANCH  13  14
ATOM     14  C   UNL     1      77.076  84.027  65.625  1.00  0.00    -0.044 A 
ATOM     15  C   UNL     1      77.162  85.412  65.764  1.00  0.00     0.054 A 
ATOM     16  C   UNL     1      77.566  83.194  66.631  1.00  0.00     0.008 A 
ATOM     17  C   UNL     1      77.736  85.964  66.909  1.00  0.00     0.160 A 
ATOM     18  C   UNL     1      78.141  83.746  67.777  1.00  0.00     0.050 A 
ATOM     19  C   UNL     1      78.227  85.131  67.915  1.00  0.00     0.157 A 
BRANCH  17  20
ATOM     20  O   UNL     1      77.815  87.319  67.033  1.00  0.00    -0.493 OA
ATOM     21  C   UNL     1      76.583  88.035  67.106  1.00  0.00     0.278 C 
ENDBRANCH  17  20
BRANCH  19  22
ATOM     22  O   UNL     1      78.790  85.658  69.037  1.00  0.00    -0.504 OA
ATOM     23  H   UNL     1      79.565  86.188  68.784  1.00  0.00     0.293 HD
ENDBRANCH  19  22
ENDBRANCH  13  14
ENDBRANCH  12  13
ENDBRANCH  10  12
ENDBRANCH   1  10
TORSDOF 12
ENDMDL
MODEL 4
REMARK VINA RESULT:    -5.744     23.248     25.734
REMARK INTER + INTRA:         -10.406
REMARK INTER:                  -8.571
REMARK INTRA:                  -1.835
REMARK UNBOUND:                -0.968
REMARK SMILES CCCCC[C@H](O)CC(=O)CCc1ccc(O)c(OC)c1
REMARK SMILES IDX 8 1 6 2 7 3 5 5 4 6 3 7 2 8 1 9 9 10 10 11 11 12 12 13 13 14
REMARK SMILES IDX 21 15 14 16 18 17 15 18 16 19 19 20 20 21 17 22
REMARK H PARENT 7 4 17 23
REMARK Flexibility Score: inf
ROOT
ATOM      1  C   UNL     1      93.326  95.426  79.463  1.00  0.00     0.107 C 
ENDROOT
BRANCH   1   2
ATOM      2  C   UNL     1      94.283  94.527  80.249  1.00  0.00     0.121 C 
BRANCH   2   3
ATOM      3  O   UNL     1      93.619  93.322  80.622  1.00  0.00    -0.393 OA
ATOM      4  H   UNL     1      93.274  92.909  79.810  1.00  0.00     0.210 HD
ENDBRANCH   2   3
BRANCH   2   5
ATOM      5  C   UNL     1      95.558  94.181  79.470  1.00  0.00     0.032 C 
BRANCH   5   6
ATOM      6  C   UNL     1      96.350  95.433  79.075  1.00  0.00     0.003 C 
BRANCH   6   7
ATOM      7  C   UNL     1      96.746  96.303  80.272  1.00  0.00    -0.000 C 
BRANCH   7   8
ATOM      8  C   UNL     1      96.253  97.745  80.171  1.00  0.00    -0.003 C 
ATOM      9  C   UNL     1      95.943  98.125  78.731  1.00  0.00     0.004 C 
ENDBRANCH   7   8
ENDBRANCH   6   7
ENDBRANCH   5   6
ENDBRANCH   2   5
ENDBRANCH   1   2
BRANCH   1  10
ATOM     10  C   UNL     1      92.360  94.645  78.586  1.00  0.00     0.135 C 
ATOM     11  O   UNL     1      91.488  93.933  79.084  1.00  0.00    -0.300 OA
BRANCH  10  12
ATOM     12  C   UNL     1      92.503  94.829  77.083  1.00  0.00     0.080 C 
BRANCH  12  13
ATOM     13  C   UNL     1      92.123  96.228  76.596  1.00  0.00     0.043 C 
BRANCH  13  14
ATOM     14  C   UNL     1      93.259  96.943  75.904  1.00  0.00    -0.044 A 
ATOM     15  C   UNL     1      93.057  98.212  75.361  1.00  0.00     0.054 A 
ATOM     16  C   UNL     1      94.510  96.334  75.807  1.00  0.00     0.008 A 
ATOM     17  C   UNL     1      94.107  98.872  74.723  1.00  0.00     0.160 A 
ATOM     18  C   UNL     1      95.560  96.993  75.169  1.00  0.00     0.050 A 
ATOM     19  C   UNL     1      95.359  98.263  74.627  1.00  0.00     0.157 A 
BRANCH  17  20
ATOM     20  O   UNL     1      93.899 100.111  74.196  1.00  0.00    -0.493 OA
ATOM     21  C   UNL     1      92.651 100.335  73.542  1.00  0.00     0.278 C 
ENDBRANCH  17  20
BRANCH  19  22
ATOM     22  O   UNL     1      96.392  98.897  74.006  1.00  0.00    -0.504 OA
ATOM     23  H   UNL     1      97.196  98.357  74.096  1.00  0.00     0.293 HD
ENDBRANCH  19  22
ENDBRANCH  13  14
ENDBRANCH  12  13
ENDBRANCH  10  12
ENDBRANCH   1  10
TORSDOF 12
ENDMDL
MODEL 5
REMARK VINA RESULT:    -5.342     24.926     27.750
REMARK INTER + INTRA:          -9.745
REMARK INTER:                  -9.047
REMARK INTRA:                  -0.697
REMARK UNBOUND:                -0.968
REMARK SMILES CCCCC[C@H](O)CC(=O)CCc1ccc(O)c(OC)c1
REMARK SMILES IDX 8 1 6 2 7 3 5 5 4 6 3 7 2 8 1 9 9 10 10 11 11 12 12 13 13 14
REMARK SMILES IDX 21 15 14 16 18 17 15 18 16 19 19 20 20 21 17 22
REMARK H PARENT 7 4 17 23
REMARK Flexibility Score: inf
ROOT
ATOM      1  C   UNL     1      97.601  82.567  78.560  1.00  0.00     0.107 C 
ENDROOT
BRANCH   1   2
ATOM      2  C   UNL     1      97.505  83.520  77.366  1.00  0.00     0.121 C 
BRANCH   2   3
ATOM      3  O   UNL     1      98.198  84.731  77.657  1.00  0.00    -0.393 OA
ATOM      4  H   UNL     1      98.291  84.796  78.624  1.00  0.00     0.210 HD
ENDBRANCH   2   3
BRANCH   2   5
ATOM      5  C   UNL     1      98.062  82.917  76.071  1.00  0.00     0.032 C 
BRANCH   5   6
ATOM      6  C   UNL     1      99.507  82.431  76.237  1.00  0.00     0.003 C 
BRANCH   6   7
ATOM      7  C   UNL     1     100.510  83.205  75.375  1.00  0.00    -0.000 C 
BRANCH   7   8
ATOM      8  C   UNL     1     101.766  83.632  76.133  1.00  0.00    -0.003 C 
ATOM      9  C   UNL     1     101.997  85.131  76.023  1.00  0.00     0.004 C 
ENDBRANCH   7   8
ENDBRANCH   6   7
ENDBRANCH   5   6
ENDBRANCH   2   5
ENDBRANCH   1   2
BRANCH   1  10
ATOM     10  C   UNL     1      98.464  83.110  79.687  1.00  0.00     0.135 C 
ATOM     11  O   UNL     1      99.648  83.390  79.500  1.00  0.00    -0.300 OA
BRANCH  10  12
ATOM     12  C   UNL     1      97.778  83.327  81.027  1.00  0.00     0.080 C 
BRANCH  12  13
ATOM     13  C   UNL     1      98.654  82.976  82.231  1.00  0.00     0.043 C 
BRANCH  13  14
ATOM     14  C   UNL     1      97.867  82.820  83.511  1.00  0.00    -0.044 A 
ATOM     15  C   UNL     1      97.174  83.908  84.041  1.00  0.00     0.054 A 
ATOM     16  C   UNL     1      97.834  81.586  84.162  1.00  0.00     0.008 A 
ATOM     17  C   UNL     1      96.446  83.762  85.222  1.00  0.00     0.160 A 
ATOM     18  C   UNL     1      97.106  81.440  85.343  1.00  0.00     0.050 A 
ATOM     19  C   UNL     1      96.413  82.528  85.874  1.00  0.00     0.157 A 
BRANCH  17  20
ATOM     20  O   UNL     1      95.774  84.832  85.731  1.00  0.00    -0.493 OA
ATOM     21  C   UNL     1      96.415  85.565  86.773  1.00  0.00     0.278 C 
ENDBRANCH  17  20
BRANCH  19  22
ATOM     22  O   UNL     1      95.706  82.374  87.028  1.00  0.00    -0.504 OA
ATOM     23  H   UNL     1      94.851  81.960  86.822  1.00  0.00     0.293 HD
ENDBRANCH  19  22
ENDBRANCH  13  14
ENDBRANCH  12  13
ENDBRANCH  10  12
ENDBRANCH   1  10
TORSDOF 12
ENDMDL
MODEL 6
REMARK VINA RESULT:    -5.338     25.733     27.680
REMARK INTER + INTRA:          -9.738
REMARK INTER:                  -8.597
REMARK INTRA:                  -1.142
REMARK UNBOUND:                -0.968
REMARK SMILES CCCCC[C@H](O)CC(=O)CCc1ccc(O)c(OC)c1
REMARK SMILES IDX 8 1 6 2 7 3 5 5 4 6 3 7 2 8 1 9 9 10 10 11 11 12 12 13 13 14
REMARK SMILES IDX 21 15 14 16 18 17 15 18 16 19 19 20 20 21 17 22
REMARK H PARENT 7 4 17 23
REMARK Flexibility Score: inf
ROOT
ATOM      1  C   UNL     1      96.297  85.751  86.227  1.00  0.00     0.107 C 
ENDROOT
BRANCH   1   2
ATOM      2  C   UNL     1      97.345  85.358  85.183  1.00  0.00     0.121 C 
BRANCH   2   3
ATOM      3  O   UNL     1      98.570  85.021  85.831  1.00  0.00    -0.393 OA
ATOM      4  H   UNL     1      98.532  85.370  86.739  1.00  0.00     0.210 HD
ENDBRANCH   2   3
BRANCH   2   5
ATOM      5  C   UNL     1      96.903  84.186  84.300  1.00  0.00     0.032 C 
BRANCH   5   6
ATOM      6  C   UNL     1      97.784  82.947  84.501  1.00  0.00     0.003 C 
BRANCH   6   7
ATOM      7  C   UNL     1      98.651  82.615  83.282  1.00  0.00    -0.000 C 
BRANCH   7   8
ATOM      8  C   UNL     1      98.099  83.167  81.970  1.00  0.00    -0.003 C 
ATOM      9  C   UNL     1      99.133  83.091  80.857  1.00  0.00     0.004 C 
ENDBRANCH   7   8
ENDBRANCH   6   7
ENDBRANCH   5   6
ENDBRANCH   2   5
ENDBRANCH   1   2
BRANCH   1  10
ATOM     10  C   UNL     1      96.070  84.676  87.278  1.00  0.00     0.135 C 
ATOM     11  O   UNL     1      96.979  84.325  88.029  1.00  0.00    -0.300 OA
BRANCH  10  12
ATOM     12  C   UNL     1      94.665  84.103  87.374  1.00  0.00     0.080 C 
BRANCH  12  13
ATOM     13  C   UNL     1      94.532  82.698  86.783  1.00  0.00     0.043 C 
BRANCH  13  14
ATOM     14  C   UNL     1      93.136  82.134  86.905  1.00  0.00    -0.044 A 
ATOM     15  C   UNL     1      92.893  80.798  86.587  1.00  0.00     0.054 A 
ATOM     16  C   UNL     1      92.090  82.951  87.337  1.00  0.00     0.008 A 
ATOM     17  C   UNL     1      91.603  80.278  86.701  1.00  0.00     0.160 A 
ATOM     18  C   UNL     1      90.801  82.431  87.451  1.00  0.00     0.050 A 
ATOM     19  C   UNL     1      90.557  81.095  87.133  1.00  0.00     0.157 A 
BRANCH  17  20
ATOM     20  O   UNL     1      91.378  78.972  86.386  1.00  0.00    -0.493 OA
ATOM     21  C   UNL     1      92.520  78.169  86.097  1.00  0.00     0.278 C 
ENDBRANCH  17  20
BRANCH  19  22
ATOM     22  O   UNL     1      89.294  80.598  87.248  1.00  0.00    -0.504 OA
ATOM     23  H   UNL     1      89.307  79.836  87.853  1.00  0.00     0.293 HD
ENDBRANCH  19  22
ENDBRANCH  13  14
ENDBRANCH  12  13
ENDBRANCH  10  12
ENDBRANCH   1  10
TORSDOF 12
ENDMDL
MODEL 7
REMARK VINA RESULT:    -5.336     21.334     24.562
REMARK INTER + INTRA:          -9.735
REMARK INTER:                  -8.899
REMARK INTRA:                  -0.836
REMARK UNBOUND:                -0.968
REMARK SMILES CCCCC[C@H](O)CC(=O)CCc1ccc(O)c(OC)c1
REMARK SMILES IDX 8 1 6 2 7 3 5 5 4 6 3 7 2 8 1 9 9 10 10 11 11 12 12 13 13 14
REMARK SMILES IDX 21 15 14 16 18 17 15 18 16 19 19 20 20 21 17 22
REMARK H PARENT 7 4 17 23
REMARK Flexibility Score: inf
ROOT
ATOM      1  C   UNL     1      92.857 100.800  74.264  1.00  0.00     0.107 C 
ENDROOT
BRANCH   1   2
ATOM      2  C   UNL     1      92.634 100.950  72.757  1.00  0.00     0.121 C 
BRANCH   2   3
ATOM      3  O   UNL     1      93.481 100.047  72.050  1.00  0.00    -0.393 OA
ATOM      4  H   UNL     1      93.776  99.364  72.677  1.00  0.00     0.210 HD
ENDBRANCH   2   3
BRANCH   2   5
ATOM      5  C   UNL     1      91.178 100.708  72.338  1.00  0.00     0.032 C 
BRANCH   5   6
ATOM      6  C   UNL     1      91.042  99.510  71.391  1.00  0.00     0.003 C 
BRANCH   6   7
ATOM      7  C   UNL     1      90.049  99.749  70.249  1.00  0.00    -0.000 C 
BRANCH   7   8
ATOM      8  C   UNL     1      89.092  98.582  70.015  1.00  0.00    -0.003 C 
ATOM      9  C   UNL     1      89.565  97.326  70.731  1.00  0.00     0.004 C 
ENDBRANCH   7   8
ENDBRANCH   6   7
ENDBRANCH   5   6
ENDBRANCH   2   5
ENDBRANCH   1   2
BRANCH   1  10
ATOM     10  C   UNL     1      93.720  99.601  74.621  1.00  0.00     0.135 C 
ATOM     11  O   UNL     1      94.920  99.581  74.347  1.00  0.00    -0.300 OA
BRANCH  10  12
ATOM     12  C   UNL     1      93.036  98.465  75.366  1.00  0.00     0.080 C 
BRANCH  12  13
ATOM     13  C   UNL     1      93.796  97.140  75.301  1.00  0.00     0.043 C 
BRANCH  13  14
ATOM     14  C   UNL     1      93.481  96.218  76.455  1.00  0.00    -0.044 A 
ATOM     15  C   UNL     1      94.508  95.531  77.100  1.00  0.00     0.054 A 
ATOM     16  C   UNL     1      92.160  96.054  76.875  1.00  0.00     0.008 A 
ATOM     17  C   UNL     1      94.215  94.680  78.167  1.00  0.00     0.160 A 
ATOM     18  C   UNL     1      91.867  95.204  77.941  1.00  0.00     0.050 A 
ATOM     19  C   UNL     1      92.895  94.517  78.587  1.00  0.00     0.157 A 
BRANCH  17  20
ATOM     20  O   UNL     1      95.228  94.014  78.789  1.00  0.00    -0.493 OA
ATOM     21  C   UNL     1      95.870  94.679  79.876  1.00  0.00     0.278 C 
ENDBRANCH  17  20
BRANCH  19  22
ATOM     22  O   UNL     1      92.597  93.689  79.626  1.00  0.00    -0.504 OA
ATOM     23  H   UNL     1      93.425  93.359  80.016  1.00  0.00     0.293 HD
ENDBRANCH  19  22
ENDBRANCH  13  14
ENDBRANCH  12  13
ENDBRANCH  10  12
ENDBRANCH   1  10
TORSDOF 12
ENDMDL
MODEL 8
REMARK VINA RESULT:    -5.305     25.978     28.720
REMARK INTER + INTRA:          -9.685
REMARK INTER:                  -8.860
REMARK INTRA:                  -0.825
REMARK UNBOUND:                -0.968
REMARK SMILES CCCCC[C@H](O)CC(=O)CCc1ccc(O)c(OC)c1
REMARK SMILES IDX 8 1 6 2 7 3 5 5 4 6 3 7 2 8 1 9 9 10 10 11 11 12 12 13 13 14
REMARK SMILES IDX 21 15 14 16 18 17 15 18 16 19 19 20 20 21 17 22
REMARK H PARENT 7 4 17 23
REMARK Flexibility Score: inf
ROOT
ATOM      1  C   UNL     1      99.342  83.257  79.631  1.00  0.00     0.107 C 
ENDROOT
BRANCH   1   2
ATOM      2  C   UNL     1      98.521  82.944  78.377  1.00  0.00     0.121 C 
BRANCH   2   3
ATOM      3  O   UNL     1      97.330  83.727  78.372  1.00  0.00    -0.393 OA
ATOM      4  H   UNL     1      96.584  83.133  78.180  1.00  0.00     0.210 HD
ENDBRANCH   2   3
BRANCH   2   5
ATOM      5  C   UNL     1      99.294  83.193  77.077  1.00  0.00     0.032 C 
BRANCH   5   6
ATOM      6  C   UNL     1     100.812  83.191  77.299  1.00  0.00     0.003 C 
BRANCH   6   7
ATOM      7  C   UNL     1     101.558  84.179  76.395  1.00  0.00    -0.000 C 
BRANCH   7   8
ATOM      8  C   UNL     1     100.937  84.328  75.008  1.00  0.00    -0.003 C 
ATOM      9  C   UNL     1     100.612  85.781  74.699  1.00  0.00     0.004 C 
ENDBRANCH   7   8
ENDBRANCH   6   7
ENDBRANCH   5   6
ENDBRANCH   2   5
ENDBRANCH   1   2
BRANCH   1  10
ATOM     10  C   UNL     1      98.566  83.041  80.920  1.00  0.00     0.135 C 
ATOM     11  O   UNL     1      97.454  83.545  81.081  1.00  0.00    -0.300 OA
BRANCH  10  12
ATOM     12  C   UNL     1      99.213  82.144  81.964  1.00  0.00     0.080 C 
BRANCH  12  13
ATOM     13  C   UNL     1      98.267  81.733  83.093  1.00  0.00     0.043 C 
BRANCH  13  14
ATOM     14  C   UNL     1      98.437  82.567  84.341  1.00  0.00    -0.044 A 
ATOM     15  C   UNL     1      97.672  83.719  84.519  1.00  0.00     0.054 A 
ATOM     16  C   UNL     1      99.359  82.183  85.315  1.00  0.00     0.008 A 
ATOM     17  C   UNL     1      97.829  84.488  85.673  1.00  0.00     0.160 A 
ATOM     18  C   UNL     1      99.517  82.952  86.468  1.00  0.00     0.050 A 
ATOM     19  C   UNL     1      98.752  84.105  86.647  1.00  0.00     0.157 A 
BRANCH  17  20
ATOM     20  O   UNL     1      97.077  85.613  85.836  1.00  0.00    -0.493 OA
ATOM     21  C   UNL     1      95.723  85.433  86.246  1.00  0.00     0.278 C 
ENDBRANCH  17  20
BRANCH  19  22
ATOM     22  O   UNL     1      98.914  84.848  87.777  1.00  0.00    -0.504 OA
ATOM     23  H   UNL     1      98.282  85.587  87.763  1.00  0.00     0.293 HD
ENDBRANCH  19  22
ENDBRANCH  13  14
ENDBRANCH  12  13
ENDBRANCH  10  12
ENDBRANCH   1  10
TORSDOF 12
ENDMDL
MODEL 9
REMARK VINA RESULT:    -5.239     11.558     14.647
REMARK INTER + INTRA:          -9.576
REMARK INTER:                  -7.494
REMARK INTRA:                  -2.082
REMARK UNBOUND:                -0.968
REMARK SMILES CCCCC[C@H](O)CC(=O)CCc1ccc(O)c(OC)c1
REMARK SMILES IDX 8 1 6 2 7 3 5 5 4 6 3 7 2 8 1 9 9 10 10 11 11 12 12 13 13 14
REMARK SMILES IDX 21 15 14 16 18 17 15 18 16 19 19 20 20 21 17 22
REMARK H PARENT 7 4 17 23
REMARK Flexibility Score: inf
ROOT
ATOM      1  C   UNL     1      61.844  84.728  73.145  1.00  0.00     0.107 C 
ENDROOT
BRANCH   1   2
ATOM      2  C   UNL     1      61.995  83.802  74.355  1.00  0.00     0.121 C 
BRANCH   2   3
ATOM      3  O   UNL     1      61.001  84.113  75.329  1.00  0.00    -0.393 OA
ATOM      4  H   UNL     1      60.567  84.941  75.057  1.00  0.00     0.210 HD
ENDBRANCH   2   3
BRANCH   2   5
ATOM      5  C   UNL     1      61.895  82.316  73.989  1.00  0.00     0.032 C 
BRANCH   5   6
ATOM      6  C   UNL     1      62.508  82.018  72.615  1.00  0.00     0.003 C 
BRANCH   6   7
ATOM      7  C   UNL     1      63.894  81.369  72.698  1.00  0.00    -0.000 C 
BRANCH   7   8
ATOM      8  C   UNL     1      64.775  81.651  71.482  1.00  0.00    -0.003 C 
ATOM      9  C   UNL     1      65.383  83.043  71.548  1.00  0.00     0.004 C 
ENDBRANCH   7   8
ENDBRANCH   6   7
ENDBRANCH   5   6
ENDBRANCH   2   5
ENDBRANCH   1   2
BRANCH   1  10
ATOM     10  C   UNL     1      60.394  85.045  72.814  1.00  0.00     0.135 C 
ATOM     11  O   UNL     1      59.714  85.750  73.560  1.00  0.00    -0.300 OA
BRANCH  10  12
ATOM     12  C   UNL     1      59.856  84.487  71.506  1.00  0.00     0.080 C 
BRANCH  12  13
ATOM     13  C   UNL     1      60.338  85.246  70.269  1.00  0.00     0.043 C 
BRANCH  13  14
ATOM     14  C   UNL     1      61.507  84.579  69.583  1.00  0.00    -0.044 A 
ATOM     15  C   UNL     1      62.669  85.306  69.320  1.00  0.00     0.054 A 
ATOM     16  C   UNL     1      61.425  83.237  69.214  1.00  0.00     0.008 A 
ATOM     17  C   UNL     1      63.748  84.688  68.687  1.00  0.00     0.160 A 
ATOM     18  C   UNL     1      62.504  82.619  68.582  1.00  0.00     0.050 A 
ATOM     19  C   UNL     1      63.665  83.345  68.318  1.00  0.00     0.157 A 
BRANCH  17  20
ATOM     20  O   UNL     1      64.877  85.408  68.435  1.00  0.00    -0.493 OA
ATOM     21  C   UNL     1      65.115  86.549  69.256  1.00  0.00     0.278 C 
ENDBRANCH  17  20
BRANCH  19  22
ATOM     22  O   UNL     1      64.713  82.732  67.700  1.00  0.00    -0.504 OA
ATOM     23  H   UNL     1      64.875  81.874  68.129  1.00  0.00     0.293 HD
ENDBRANCH  19  22
ENDBRANCH  13  14
ENDBRANCH  12  13
ENDBRANCH  10  12
ENDBRANCH   1  10
TORSDOF 12
ENDMDL
MODEL 10
REMARK VINA RESULT:    -5.235      4.574      8.809
REMARK INTER + INTRA:          -9.570
REMARK INTER:                  -8.263
REMARK INTRA:                  -1.307
REMARK UNBOUND:                -0.968
REMARK SMILES CCCCC[C@H](O)CC(=O)CCc1ccc(O)c(OC)c1
REMARK SMILES IDX 8 1 6 2 7 3 5 5 4 6 3 7 2 8 1 9 9 10 10 11 11 12 12 13 13 14
REMARK SMILES IDX 21 15 14 16 18 17 15 18 16 19 19 20 20 21 17 22
REMARK H PARENT 7 4 17 23
REMARK Flexibility Score: inf
ROOT
ATOM      1  C   UNL     1      75.960  86.524  66.756  1.00  0.00     0.107 C 
ENDROOT
BRANCH   1   2
ATOM      2  C   UNL     1      77.477  86.341  66.666  1.00  0.00     0.121 C 
BRANCH   2   3
ATOM      3  O   UNL     1      78.130  87.303  67.491  1.00  0.00    -0.393 OA
ATOM      4  H   UNL     1      77.465  87.678  68.094  1.00  0.00     0.210 HD
ENDBRANCH   2   3
BRANCH   2   5
ATOM      5  C   UNL     1      77.936  84.934  67.071  1.00  0.00     0.032 C 
BRANCH   5   6
ATOM      6  C   UNL     1      76.902  84.221  67.951  1.00  0.00     0.003 C 
BRANCH   6   7
ATOM      7  C   UNL     1      77.278  84.204  69.436  1.00  0.00    -0.000 C 
BRANCH   7   8
ATOM      8  C   UNL     1      76.215  84.821  70.343  1.00  0.00    -0.003 C 
ATOM      9  C   UNL     1      75.984  83.971  71.584  1.00  0.00     0.004 C 
ENDBRANCH   7   8
ENDBRANCH   6   7
ENDBRANCH   5   6
ENDBRANCH   2   5
ENDBRANCH   1   2
BRANCH   1  10
ATOM     10  C   UNL     1      75.556  87.821  67.438  1.00  0.00     0.135 C 
ATOM     11  O   UNL     1      75.741  88.908  66.890  1.00  0.00    -0.300 OA
BRANCH  10  12
ATOM     12  C   UNL     1      74.880  87.697  68.794  1.00  0.00     0.080 C 
BRANCH  12  13
ATOM     13  C   UNL     1      75.732  88.211  69.956  1.00  0.00     0.043 C 
BRANCH  13  14
ATOM     14  C   UNL     1      74.995  89.182  70.847  1.00  0.00    -0.044 A 
ATOM     15  C   UNL     1      75.439  90.499  70.963  1.00  0.00     0.054 A 
ATOM     16  C   UNL     1      73.868  88.761  71.555  1.00  0.00     0.008 A 
ATOM     17  C   UNL     1      74.757  91.395  71.786  1.00  0.00     0.160 A 
ATOM     18  C   UNL     1      73.186  89.657  72.377  1.00  0.00     0.050 A 
ATOM     19  C   UNL     1      73.630  90.974  72.493  1.00  0.00     0.157 A 
BRANCH  17  20
ATOM     20  O   UNL     1      75.201  92.679  71.891  1.00  0.00    -0.493 OA
ATOM     21  C   UNL     1      76.604  92.867  72.065  1.00  0.00     0.278 C 
ENDBRANCH  17  20
BRANCH  19  22
ATOM     22  O   UNL     1      72.956  91.839  73.300  1.00  0.00    -0.504 OA
ATOM     23  H   UNL     1      72.456  91.332  73.962  1.00  0.00     0.293 HD
ENDBRANCH  19  22
ENDBRANCH  13  14
ENDBRANCH  12  13
ENDBRANCH  10  12
ENDBRANCH   1  10
TORSDOF 12
ENDMDL
