MODEL 1
REMARK VINA RESULT:    -7.406      0.000      0.000
REMARK INTER + INTRA:          -9.041
REMARK INTER:                  -8.705
REMARK INTRA:                  -0.336
REMARK UNBOUND:                -0.336
REMARK SMILES O=C(/C=C/C=C/c1ccc2c(c1)OCO2)N1CCCCC1
REMARK SMILES IDX 3 1 4 2 2 3 1 4 16 5 17 6 21 7 18 8 20 9 19 10 5 11 6 12
REMARK SMILES IDX 7 13 12 14 8 15 11 16 9 17 13 18 10 19 14 20 15 21
REMARK H PARENT
REMARK Flexibility Score: inf
ROOT
ATOM      1  C   UNL     1      96.307  82.275  82.628  1.00  0.00     0.071 C 
ATOM      2  C   UNL     1      97.043  81.802  81.624  1.00  0.00     0.006 C 
ENDROOT
BRANCH   1   3
ATOM      3  C   UNL     1      96.654  81.857  84.000  1.00  0.00     0.246 C 
ATOM      4  O   UNL     1      97.836  81.933  84.337  1.00  0.00    -0.270 OA
ATOM      5  N   UNL     1      95.623  81.400  84.821  1.00  0.00    -0.339 N 
ATOM      6  C   UNL     1      95.938  80.973  86.187  1.00  0.00     0.120 C 
ATOM      7  C   UNL     1      94.210  81.253  84.441  1.00  0.00     0.120 C 
ATOM      8  C   UNL     1      95.056  81.682  87.210  1.00  0.00     0.022 C 
ATOM      9  C   UNL     1      93.292  81.949  85.445  1.00  0.00     0.022 C 
ATOM     10  C   UNL     1      93.579  81.501  86.876  1.00  0.00     0.004 C 
ENDBRANCH   1   3
BRANCH   2  11
ATOM     11  C   UNL     1      96.780  82.154  80.244  1.00  0.00     0.001 C 
ATOM     12  C   UNL     1      97.524  81.698  79.224  1.00  0.00     0.008 C 
BRANCH  12  13
ATOM     13  C   UNL     1      97.306  82.030  77.806  1.00  0.00    -0.022 A 
ATOM     14  C   UNL     1      98.305  81.748  76.884  1.00  0.00     0.058 A 
ATOM     15  C   UNL     1      96.098  82.621  77.426  1.00  0.00     0.012 A 
ATOM     16  C   UNL     1      98.054  82.078  75.568  1.00  0.00     0.166 A 
ATOM     17  C   UNL     1      95.871  82.944  76.087  1.00  0.00     0.051 A 
ATOM     18  O   UNL     1      98.903  81.884  74.521  1.00  0.00    -0.454 OA
ATOM     19  C   UNL     1      96.870  82.660  75.179  1.00  0.00     0.165 A 
ATOM     20  C   UNL     1      98.119  82.409  73.431  1.00  0.00     0.468 C 
ATOM     21  O   UNL     1      96.827  82.903  73.841  1.00  0.00    -0.454 OA
ENDBRANCH  12  13
ENDBRANCH   2  11
TORSDOF 3
ENDMDL
MODEL 2
REMARK VINA RESULT:    -7.189      2.787      9.152
REMARK INTER + INTRA:          -8.786
REMARK INTER:                  -8.407
REMARK INTRA:                  -0.379
REMARK UNBOUND:                -0.336
REMARK SMILES O=C(/C=C/C=C/c1ccc2c(c1)OCO2)N1CCCCC1
REMARK SMILES IDX 3 1 4 2 2 3 1 4 16 5 17 6 21 7 18 8 20 9 19 10 5 11 6 12
REMARK SMILES IDX 7 13 12 14 8 15 11 16 9 17 13 18 10 19 14 20 15 21
REMARK H PARENT
REMARK Flexibility Score: inf
ROOT
ATOM      1  C   UNL     1      97.427  80.833  78.800  1.00  0.00     0.071 C 
ATOM      2  C   UNL     1      98.017  81.274  79.909  1.00  0.00     0.006 C 
ENDROOT
BRANCH   1   3
ATOM      3  C   UNL     1      98.225  80.793  77.558  1.00  0.00     0.246 C 
ATOM      4  O   UNL     1      99.099  79.930  77.471  1.00  0.00    -0.270 OA
ATOM      5  N   UNL     1      97.939  81.736  76.572  1.00  0.00    -0.339 N 
ATOM      6  C   UNL     1      98.718  81.724  75.330  1.00  0.00     0.120 C 
ATOM      7  C   UNL     1      96.936  82.808  76.658  1.00  0.00     0.120 C 
ATOM      8  C   UNL     1      97.812  81.678  74.104  1.00  0.00     0.022 C 
ATOM      9  C   UNL     1      96.009  82.797  75.443  1.00  0.00     0.022 C 
ATOM     10  C   UNL     1      96.793  82.813  74.135  1.00  0.00     0.004 C 
ENDBRANCH   1   3
BRANCH   2  11
ATOM     11  C   UNL     1      97.318  81.350  81.174  1.00  0.00     0.001 C 
ATOM     12  C   UNL     1      96.713  82.470  81.603  1.00  0.00     0.008 C 
BRANCH  12  13
ATOM     13  C   UNL     1      95.996  82.605  82.883  1.00  0.00    -0.022 A 
ATOM     14  C   UNL     1      95.906  83.855  83.478  1.00  0.00     0.058 A 
ATOM     15  C   UNL     1      95.425  81.469  83.462  1.00  0.00     0.012 A 
ATOM     16  C   UNL     1      95.224  83.931  84.675  1.00  0.00     0.166 A 
ATOM     17  C   UNL     1      94.740  81.575  84.675  1.00  0.00     0.051 A 
ATOM     18  O   UNL     1      95.029  85.059  85.412  1.00  0.00    -0.454 OA
ATOM     19  C   UNL     1      94.657  82.822  85.258  1.00  0.00     0.165 A 
ATOM     20  C   UNL     1      94.275  84.535  86.524  1.00  0.00     0.468 C 
ATOM     21  O   UNL     1      94.035  83.115  86.433  1.00  0.00    -0.454 OA
ENDBRANCH  12  13
ENDBRANCH   2  11
TORSDOF 3
ENDMDL
MODEL 3
REMARK VINA RESULT:    -6.874      2.873      9.413
REMARK INTER + INTRA:          -8.416
REMARK INTER:                  -8.064
REMARK INTRA:                  -0.352
REMARK UNBOUND:                -0.336
REMARK SMILES O=C(/C=C/C=C/c1ccc2c(c1)OCO2)N1CCCCC1
REMARK SMILES IDX 3 1 4 2 2 3 1 4 16 5 17 6 21 7 18 8 20 9 19 10 5 11 6 12
REMARK SMILES IDX 7 13 12 14 8 15 11 16 9 17 13 18 10 19 14 20 15 21
REMARK H PARENT
REMARK Flexibility Score: inf
ROOT
ATOM      1  C   UNL     1      96.679  81.577  77.481  1.00  0.00     0.071 C 
ATOM      2  C   UNL     1      97.070  82.253  78.559  1.00  0.00     0.006 C 
ENDROOT
BRANCH   1   3
ATOM      3  C   UNL     1      96.530  82.319  76.213  1.00  0.00     0.246 C 
ATOM      4  O   UNL     1      95.573  83.088  76.112  1.00  0.00    -0.270 OA
ATOM      5  N   UNL     1      97.477  82.095  75.214  1.00  0.00    -0.339 N 
ATOM      6  C   UNL     1      97.352  82.813  73.942  1.00  0.00     0.120 C 
ATOM      7  C   UNL     1      98.604  81.154  75.281  1.00  0.00     0.120 C 
ATOM      8  C   UNL     1      98.645  83.536  73.581  1.00  0.00     0.022 C 
ATOM      9  C   UNL     1      99.921  81.841  74.921  1.00  0.00     0.022 C 
ATOM     10  C   UNL     1      99.828  82.573  73.585  1.00  0.00     0.004 C 
ENDBRANCH   1   3
BRANCH   2  11
ATOM     11  C   UNL     1      97.243  81.615  79.847  1.00  0.00     0.001 C 
ATOM     12  C   UNL     1      96.688  82.088  80.974  1.00  0.00     0.008 C 
BRANCH  12  13
ATOM     13  C   UNL     1      96.839  81.484  82.308  1.00  0.00    -0.022 A 
ATOM     14  C   UNL     1      98.063  80.935  82.667  1.00  0.00     0.058 A 
ATOM     15  C   UNL     1      95.745  81.479  83.177  1.00  0.00     0.012 A 
ATOM     16  C   UNL     1      98.155  80.381  83.927  1.00  0.00     0.166 A 
ATOM     17  C   UNL     1      95.867  80.911  84.447  1.00  0.00     0.051 A 
ATOM     18  O   UNL     1      99.261  79.795  84.462  1.00  0.00    -0.454 OA
ATOM     19  C   UNL     1      97.086  80.369  84.794  1.00  0.00     0.165 A 
ATOM     20  C   UNL     1      98.769  79.415  85.763  1.00  0.00     0.468 C 
ATOM     21  O   UNL     1      97.389  79.776  85.980  1.00  0.00    -0.454 OA
ENDBRANCH  12  13
ENDBRANCH   2  11
TORSDOF 3
ENDMDL
MODEL 4
REMARK VINA RESULT:    -6.865     16.009     19.155
REMARK INTER + INTRA:          -8.405
REMARK INTER:                  -8.014
REMARK INTRA:                  -0.390
REMARK UNBOUND:                -0.336
REMARK SMILES O=C(/C=C/C=C/c1ccc2c(c1)OCO2)N1CCCCC1
REMARK SMILES IDX 3 1 4 2 2 3 1 4 16 5 17 6 21 7 18 8 20 9 19 10 5 11 6 12
REMARK SMILES IDX 7 13 12 14 8 15 11 16 9 17 13 18 10 19 14 20 15 21
REMARK H PARENT
REMARK Flexibility Score: inf
ROOT
ATOM      1  C   UNL     1      92.874  99.056  72.395  1.00  0.00     0.071 C 
ATOM      2  C   UNL     1      94.111  98.695  72.731  1.00  0.00     0.006 C 
ENDROOT
BRANCH   1   3
ATOM      3  C   UNL     1      92.700  99.918  71.209  1.00  0.00     0.246 C 
ATOM      4  O   UNL     1      93.655 100.615  70.867  1.00  0.00    -0.270 OA
ATOM      5  N   UNL     1      91.466  99.889  70.561  1.00  0.00    -0.339 N 
ATOM      6  C   UNL     1      91.261 100.738  69.383  1.00  0.00     0.120 C 
ATOM      7  C   UNL     1      90.290  99.104  70.965  1.00  0.00     0.120 C 
ATOM      8  C   UNL     1      90.751  99.929  68.195  1.00  0.00     0.022 C 
ATOM      9  C   UNL     1      89.746  98.281  69.798  1.00  0.00     0.022 C 
ATOM     10  C   UNL     1      89.496  99.146  68.566  1.00  0.00     0.004 C 
ENDBRANCH   1   3
BRANCH   2  11
ATOM     11  C   UNL     1      94.383  97.852  73.876  1.00  0.00     0.001 C 
ATOM     12  C   UNL     1      93.421  97.183  74.530  1.00  0.00     0.008 C 
BRANCH  12  13
ATOM     13  C   UNL     1      93.640  96.321  75.704  1.00  0.00    -0.022 A 
ATOM     14  C   UNL     1      94.940  96.034  76.098  1.00  0.00     0.058 A 
ATOM     15  C   UNL     1      92.533  95.814  76.388  1.00  0.00     0.012 A 
ATOM     16  C   UNL     1      95.094  95.223  77.203  1.00  0.00     0.166 A 
ATOM     17  C   UNL     1      92.718  94.994  77.504  1.00  0.00     0.051 A 
ATOM     18  O   UNL     1      96.280  94.827  77.743  1.00  0.00    -0.454 OA
ATOM     19  C   UNL     1      94.014  94.716  77.888  1.00  0.00     0.165 A 
ATOM     20  C   UNL     1      95.823  94.015  78.844  1.00  0.00     0.468 C 
ATOM     21  O   UNL     1      94.386  93.940  78.942  1.00  0.00    -0.454 OA
ENDBRANCH  12  13
ENDBRANCH   2  11
TORSDOF 3
ENDMDL
MODEL 5
REMARK VINA RESULT:    -6.732      2.953      9.467
REMARK INTER + INTRA:          -8.249
REMARK INTER:                  -7.907
REMARK INTRA:                  -0.342
REMARK UNBOUND:                -0.336
REMARK SMILES O=C(/C=C/C=C/c1ccc2c(c1)OCO2)N1CCCCC1
REMARK SMILES IDX 3 1 4 2 2 3 1 4 16 5 17 6 21 7 18 8 20 9 19 10 5 11 6 12
REMARK SMILES IDX 7 13 12 14 8 15 11 16 9 17 13 18 10 19 14 20 15 21
REMARK H PARENT
REMARK Flexibility Score: inf
ROOT
ATOM      1  C   UNL     1      96.948  81.648  76.429  1.00  0.00     0.071 C 
ATOM      2  C   UNL     1      97.248  82.270  77.568  1.00  0.00     0.006 C 
ENDROOT
BRANCH   1   3
ATOM      3  C   UNL     1      97.594  82.122  75.189  1.00  0.00     0.246 C 
ATOM      4  O   UNL     1      97.064  83.061  74.595  1.00  0.00    -0.270 OA
ATOM      5  N   UNL     1      98.754  81.471  74.771  1.00  0.00    -0.339 N 
ATOM      6  C   UNL     1      99.414  81.916  73.540  1.00  0.00     0.120 C 
ATOM      7  C   UNL     1      99.389  80.320  75.429  1.00  0.00     0.120 C 
ATOM      8  C   UNL     1     100.892  82.211  73.776  1.00  0.00     0.022 C 
ATOM      9  C   UNL     1     100.875  80.576  75.679  1.00  0.00     0.022 C 
ATOM     10  C   UNL     1     101.595  81.013  74.406  1.00  0.00     0.004 C 
ENDBRANCH   1   3
BRANCH   2  11
ATOM     11  C   UNL     1      96.666  81.879  78.835  1.00  0.00     0.001 C 
ATOM     12  C   UNL     1      97.291  82.062  80.009  1.00  0.00     0.008 C 
BRANCH  12  13
ATOM     13  C   UNL     1      96.750  81.676  81.323  1.00  0.00    -0.022 A 
ATOM     14  C   UNL     1      96.354  82.669  82.209  1.00  0.00     0.058 A 
ATOM     15  C   UNL     1      96.649  80.320  81.643  1.00  0.00     0.012 A 
ATOM     16  C   UNL     1      95.853  82.259  83.427  1.00  0.00     0.166 A 
ATOM     17  C   UNL     1      96.138  79.932  82.883  1.00  0.00     0.051 A 
ATOM     18  O   UNL     1      95.416  83.074  84.426  1.00  0.00    -0.454 OA
ATOM     19  C   UNL     1      95.748  80.926  83.755  1.00  0.00     0.165 A 
ATOM     20  C   UNL     1      95.023  82.105  85.419  1.00  0.00     0.468 C 
ATOM     21  O   UNL     1      95.231  80.740  85.001  1.00  0.00    -0.454 OA
ENDBRANCH  12  13
ENDBRANCH   2  11
TORSDOF 3
ENDMDL
MODEL 6
REMARK VINA RESULT:    -6.704      1.375      2.350
REMARK INTER + INTRA:          -8.216
REMARK INTER:                  -7.821
REMARK INTRA:                  -0.394
REMARK UNBOUND:                -0.336
REMARK SMILES O=C(/C=C/C=C/c1ccc2c(c1)OCO2)N1CCCCC1
REMARK SMILES IDX 3 1 4 2 2 3 1 4 16 5 17 6 21 7 18 8 20 9 19 10 5 11 6 12
REMARK SMILES IDX 7 13 12 14 8 15 11 16 9 17 13 18 10 19 14 20 15 21
REMARK H PARENT
REMARK Flexibility Score: inf
ROOT
ATOM      1  C   UNL     1      95.543  81.601  83.712  1.00  0.00     0.071 C 
ATOM      2  C   UNL     1      96.027  82.709  83.155  1.00  0.00     0.006 C 
ENDROOT
BRANCH   1   3
ATOM      3  C   UNL     1      95.300  81.605  85.169  1.00  0.00     0.246 C 
ATOM      4  O   UNL     1      96.240  81.914  85.902  1.00  0.00    -0.270 OA
ATOM      5  N   UNL     1      94.026  81.256  85.616  1.00  0.00    -0.339 N 
ATOM      6  C   UNL     1      93.756  81.247  87.057  1.00  0.00     0.120 C 
ATOM      7  C   UNL     1      92.894  80.840  84.776  1.00  0.00     0.120 C 
ATOM      8  C   UNL     1      92.529  82.084  87.400  1.00  0.00     0.022 C 
ATOM      9  C   UNL     1      91.640  81.655  85.092  1.00  0.00     0.022 C 
ATOM     10  C   UNL     1      91.319  81.639  86.584  1.00  0.00     0.004 C 
ENDBRANCH   1   3
BRANCH   2  11
ATOM     11  C   UNL     1      96.298  82.801  81.736  1.00  0.00     0.001 C 
ATOM     12  C   UNL     1      96.820  81.785  81.028  1.00  0.00     0.008 C 
BRANCH  12  13
ATOM     13  C   UNL     1      97.122  81.827  79.588  1.00  0.00    -0.022 A 
ATOM     14  C   UNL     1      96.202  82.400  78.721  1.00  0.00     0.058 A 
ATOM     15  C   UNL     1      98.329  81.289  79.133  1.00  0.00     0.012 A 
ATOM     16  C   UNL     1      96.531  82.417  77.381  1.00  0.00     0.166 A 
ATOM     17  C   UNL     1      98.636  81.319  77.771  1.00  0.00     0.051 A 
ATOM     18  O   UNL     1      95.766  82.929  76.378  1.00  0.00    -0.454 OA
ATOM     19  C   UNL     1      97.715  81.891  76.918  1.00  0.00     0.165 A 
ATOM     20  C   UNL     1      96.602  82.666  75.233  1.00  0.00     0.468 C 
ATOM     21  O   UNL     1      97.840  82.008  75.568  1.00  0.00    -0.454 OA
ENDBRANCH  12  13
ENDBRANCH   2  11
TORSDOF 3
ENDMDL
MODEL 7
REMARK VINA RESULT:    -6.490     16.691     19.990
REMARK INTER + INTRA:          -7.964
REMARK INTER:                  -7.575
REMARK INTRA:                  -0.389
REMARK UNBOUND:                -0.336
REMARK SMILES O=C(/C=C/C=C/c1ccc2c(c1)OCO2)N1CCCCC1
REMARK SMILES IDX 3 1 4 2 2 3 1 4 16 5 17 6 21 7 18 8 20 9 19 10 5 11 6 12
REMARK SMILES IDX 7 13 12 14 8 15 11 16 9 17 13 18 10 19 14 20 15 21
REMARK H PARENT
REMARK Flexibility Score: inf
ROOT
ATOM      1  C   UNL     1      92.711  99.292  70.955  1.00  0.00     0.071 C 
ATOM      2  C   UNL     1      92.930  99.917  72.111  1.00  0.00     0.006 C 
ENDROOT
BRANCH   1   3
ATOM      3  C   UNL     1      92.108 100.064  69.851  1.00  0.00     0.246 C 
ATOM      4  O   UNL     1      92.661 101.115  69.524  1.00  0.00    -0.270 OA
ATOM      5  N   UNL     1      90.954  99.556  69.257  1.00  0.00    -0.339 N 
ATOM      6  C   UNL     1      90.330 100.304  68.161  1.00  0.00     0.120 C 
ATOM      7  C   UNL     1      90.242  98.331  69.649  1.00  0.00     0.120 C 
ATOM      8  C   UNL     1      90.115  99.422  66.936  1.00  0.00     0.022 C 
ATOM      9  C   UNL     1      90.004  97.420  68.445  1.00  0.00     0.022 C 
ATOM     10  C   UNL     1      89.329  98.166  67.298  1.00  0.00     0.004 C 
ENDBRANCH   1   3
BRANCH   2  11
ATOM     11  C   UNL     1      93.515  99.245  73.251  1.00  0.00     0.001 C 
ATOM     12  C   UNL     1      93.471  97.912  73.410  1.00  0.00     0.008 C 
BRANCH  12  13
ATOM     13  C   UNL     1      94.042  97.179  74.552  1.00  0.00    -0.022 A 
ATOM     14  C   UNL     1      95.350  97.438  74.936  1.00  0.00     0.058 A 
ATOM     15  C   UNL     1      93.250  96.241  75.219  1.00  0.00     0.012 A 
ATOM     16  C   UNL     1      95.840  96.727  76.011  1.00  0.00     0.166 A 
ATOM     17  C   UNL     1      93.771  95.534  76.305  1.00  0.00     0.051 A 
ATOM     18  O   UNL     1      97.092  96.835  76.537  1.00  0.00    -0.454 OA
ATOM     19  C   UNL     1      95.072  95.800  76.678  1.00  0.00     0.165 A 
ATOM     20  C   UNL     1      97.024  95.873  77.608  1.00  0.00     0.468 C 
ATOM     21  O   UNL     1      95.746  95.212  77.704  1.00  0.00    -0.454 OA
ENDBRANCH  12  13
ENDBRANCH   2  11
TORSDOF 3
ENDMDL
MODEL 8
REMARK VINA RESULT:    -6.478      3.274      9.234
REMARK INTER + INTRA:          -7.950
REMARK INTER:                  -7.562
REMARK INTRA:                  -0.388
REMARK UNBOUND:                -0.336
REMARK SMILES O=C(/C=C/C=C/c1ccc2c(c1)OCO2)N1CCCCC1
REMARK SMILES IDX 3 1 4 2 2 3 1 4 16 5 17 6 21 7 18 8 20 9 19 10 5 11 6 12
REMARK SMILES IDX 7 13 12 14 8 15 11 16 9 17 13 18 10 19 14 20 15 21
REMARK H PARENT
REMARK Flexibility Score: inf
ROOT
ATOM      1  C   UNL     1      98.246  80.930  77.625  1.00  0.00     0.071 C 
ATOM      2  C   UNL     1      97.567  82.024  77.966  1.00  0.00     0.006 C 
ENDROOT
BRANCH   1   3
ATOM      3  C   UNL     1      98.915  80.910  76.309  1.00  0.00     0.246 C 
ATOM      4  O   UNL     1      98.391  81.546  75.395  1.00  0.00    -0.270 OA
ATOM      5  N   UNL     1     100.090  80.170  76.190  1.00  0.00    -0.339 N 
ATOM      6  C   UNL     1     100.775  80.126  74.894  1.00  0.00     0.120 C 
ATOM      7  C   UNL     1     100.720  79.362  77.245  1.00  0.00     0.120 C 
ATOM      8  C   UNL     1     102.244  80.513  75.027  1.00  0.00     0.022 C 
ATOM      9  C   UNL     1     102.198  79.719  77.406  1.00  0.00     0.022 C 
ATOM     10  C   UNL     1     102.942  79.654  76.076  1.00  0.00     0.004 C 
ENDBRANCH   1   3
BRANCH   2  11
ATOM     11  C   UNL     1      96.877  82.138  79.234  1.00  0.00     0.001 C 
ATOM     12  C   UNL     1      97.318  81.546  80.356  1.00  0.00     0.008 C 
BRANCH  12  13
ATOM     13  C   UNL     1      96.653  81.623  81.668  1.00  0.00    -0.022 A 
ATOM     14  C   UNL     1      96.295  80.447  82.313  1.00  0.00     0.058 A 
ATOM     15  C   UNL     1      96.400  82.878  82.227  1.00  0.00     0.012 A 
ATOM     16  C   UNL     1      95.675  80.569  83.539  1.00  0.00     0.166 A 
ATOM     17  C   UNL     1      95.770  82.973  83.470  1.00  0.00     0.051 A 
ATOM     18  O   UNL     1      95.248  79.542  84.324  1.00  0.00    -0.454 OA
ATOM     19  C   UNL     1      95.419  81.799  84.103  1.00  0.00     0.165 A 
ATOM     20  C   UNL     1      94.696  80.263  85.444  1.00  0.00     0.468 C 
ATOM     21  O   UNL     1      94.801  81.695  85.311  1.00  0.00    -0.454 OA
ENDBRANCH  12  13
ENDBRANCH   2  11
TORSDOF 3
ENDMDL
MODEL 9
REMARK VINA RESULT:    -6.457      2.919      9.498
REMARK INTER + INTRA:          -7.926
REMARK INTER:                  -7.682
REMARK INTRA:                  -0.243
REMARK UNBOUND:                -0.336
REMARK SMILES O=C(/C=C/C=C/c1ccc2c(c1)OCO2)N1CCCCC1
REMARK SMILES IDX 3 1 4 2 2 3 1 4 16 5 17 6 21 7 18 8 20 9 19 10 5 11 6 12
REMARK SMILES IDX 7 13 12 14 8 15 11 16 9 17 13 18 10 19 14 20 15 21
REMARK H PARENT
REMARK Flexibility Score: inf
ROOT
ATOM      1  C   UNL     1      96.895  80.826  77.400  1.00  0.00     0.071 C 
ATOM      2  C   UNL     1      97.717  80.787  78.447  1.00  0.00     0.006 C 
ENDROOT
BRANCH   1   3
ATOM      3  C   UNL     1      97.296  80.104  76.175  1.00  0.00     0.246 C 
ATOM      4  O   UNL     1      96.868  78.959  76.025  1.00  0.00    -0.270 OA
ATOM      5  N   UNL     1      98.133  80.763  75.277  1.00  0.00    -0.339 N 
ATOM      6  C   UNL     1      98.552  80.070  74.055  1.00  0.00     0.120 C 
ATOM      7  C   UNL     1      98.699  82.110  75.444  1.00  0.00     0.120 C 
ATOM      8  C   UNL     1      98.262  80.905  72.813  1.00  0.00     0.022 C 
ATOM      9  C   UNL     1      98.431  82.979  74.215  1.00  0.00     0.022 C 
ATOM     10  C   UNL     1      98.884  82.293  72.930  1.00  0.00     0.004 C 
ENDBRANCH   1   3
BRANCH   2  11
ATOM     11  C   UNL     1      97.411  81.464  79.690  1.00  0.00     0.001 C 
ATOM     12  C   UNL     1      96.959  80.817  80.776  1.00  0.00     0.008 C 
BRANCH  12  13
ATOM     13  C   UNL     1      96.625  81.456  82.061  1.00  0.00    -0.022 A 
ATOM     14  C   UNL     1      96.329  80.656  83.156  1.00  0.00     0.058 A 
ATOM     15  C   UNL     1      96.617  82.851  82.142  1.00  0.00     0.012 A 
ATOM     16  C   UNL     1      96.023  81.301  84.337  1.00  0.00     0.166 A 
ATOM     17  C   UNL     1      96.303  83.477  83.350  1.00  0.00     0.051 A 
ATOM     18  O   UNL     1      95.705  80.698  85.516  1.00  0.00    -0.454 OA
ATOM     19  C   UNL     1      96.011  82.673  84.432  1.00  0.00     0.165 A 
ATOM     20  C   UNL     1      95.492  81.846  86.363  1.00  0.00     0.468 C 
ATOM     21  O   UNL     1      95.684  83.103  85.682  1.00  0.00    -0.454 OA
ENDBRANCH  12  13
ENDBRANCH   2  11
TORSDOF 3
ENDMDL
MODEL 10
REMARK VINA RESULT:    -6.356      8.221      9.807
REMARK INTER + INTRA:          -7.806
REMARK INTER:                  -7.475
REMARK INTRA:                  -0.331
REMARK UNBOUND:                -0.336
REMARK SMILES O=C(/C=C/C=C/c1ccc2c(c1)OCO2)N1CCCCC1
REMARK SMILES IDX 3 1 4 2 2 3 1 4 16 5 17 6 21 7 18 8 20 9 19 10 5 11 6 12
REMARK SMILES IDX 7 13 12 14 8 15 11 16 9 17 13 18 10 19 14 20 15 21
REMARK H PARENT
REMARK Flexibility Score: inf
ROOT
ATOM      1  C   UNL     1      94.065  85.037  88.136  1.00  0.00     0.071 C 
ATOM      2  C   UNL     1      93.867  84.319  87.033  1.00  0.00     0.006 C 
ENDROOT
BRANCH   1   3
ATOM      3  C   UNL     1      95.357  85.735  88.289  1.00  0.00     0.246 C 
ATOM      4  O   UNL     1      96.329  85.269  87.694  1.00  0.00    -0.270 OA
ATOM      5  N   UNL     1      95.391  86.870  89.097  1.00  0.00    -0.339 N 
ATOM      6  C   UNL     1      96.661  87.582  89.272  1.00  0.00     0.120 C 
ATOM      7  C   UNL     1      94.263  87.430  89.857  1.00  0.00     0.120 C 
ATOM      8  C   UNL     1      96.516  89.066  88.954  1.00  0.00     0.022 C 
ATOM      9  C   UNL     1      94.087  88.921  89.568  1.00  0.00     0.022 C 
ATOM     10  C   UNL     1      95.388  89.692  89.770  1.00  0.00     0.004 C 
ENDBRANCH   1   3
BRANCH   2  11
ATOM     11  C   UNL     1      92.634  83.599  86.794  1.00  0.00     0.001 C 
ATOM     12  C   UNL     1      92.545  82.579  85.926  1.00  0.00     0.008 C 
BRANCH  12  13
ATOM     13  C   UNL     1      91.317  81.819  85.639  1.00  0.00    -0.022 A 
ATOM     14  C   UNL     1      91.319  80.899  84.599  1.00  0.00     0.058 A 
ATOM     15  C   UNL     1      90.182  82.044  86.422  1.00  0.00     0.012 A 
ATOM     16  C   UNL     1      90.145  80.212  84.369  1.00  0.00     0.166 A 
ATOM     17  C   UNL     1      89.007  81.334  86.167  1.00  0.00     0.051 A 
ATOM     18  O   UNL     1      89.945  79.275  83.401  1.00  0.00    -0.454 OA
ATOM     19  C   UNL     1      89.019  80.423  85.132  1.00  0.00     0.165 A 
ATOM     20  C   UNL     1      88.567  78.921  83.642  1.00  0.00     0.468 C 
ATOM     21  O   UNL     1      87.974  79.646  84.739  1.00  0.00    -0.454 OA
ENDBRANCH  12  13
ENDBRANCH   2  11
TORSDOF 3
ENDMDL
