MODEL 1
REMARK VINA RESULT:    -6.230      0.000      0.000
REMARK INTER + INTRA:         -10.709
REMARK INTER:                  -9.689
REMARK INTRA:                  -1.020
REMARK UNBOUND:                -1.020
REMARK SMILES CCCCC/C=C/C(=O)CCc1ccc(O)c(OC)c1
REMARK SMILES IDX 6 1 7 2 8 3 9 4 10 5 11 6 12 7 17 8 20 9 15 10 14 11 13 12
REMARK SMILES IDX 18 13 19 14 16 15 5 17 4 18 3 19 2 20 1 21
REMARK H PARENT 16 16
REMARK Flexibility Score: inf
ROOT
ATOM      1  C   UNL     1      94.214  94.064  75.871  1.00  0.00    -0.023 C 
ATOM      2  C   UNL     1      94.336  95.329  75.449  1.00  0.00     0.043 C 
ENDROOT
BRANCH   2   3
ATOM      3  C   UNL     1      95.659  96.008  75.509  1.00  0.00     0.155 C 
ATOM      4  O   UNL     1      95.885  97.045  74.890  1.00  0.00    -0.295 OA
BRANCH   3   5
ATOM      5  C   UNL     1      96.732  95.324  76.334  1.00  0.00     0.085 C 
BRANCH   5   6
ATOM      6  C   UNL     1      97.169  96.198  77.511  1.00  0.00     0.044 C 
BRANCH   6   7
ATOM      7  C   UNL     1      96.569  95.757  78.825  1.00  0.00    -0.044 A 
ATOM      8  C   UNL     1      96.095  96.189  81.137  1.00  0.00     0.160 A 
ATOM      9  C   UNL     1      96.650  96.597  79.924  1.00  0.00     0.054 A 
ATOM     10  C   UNL     1      95.467  94.948  81.236  1.00  0.00     0.157 A 
ATOM     11  C   UNL     1      95.394  94.114  80.119  1.00  0.00     0.050 A 
ATOM     12  C   UNL     1      95.949  94.521  78.906  1.00  0.00     0.008 A 
BRANCH   8  13
ATOM     13  O   UNL     1      96.174  97.013  82.220  1.00  0.00    -0.493 OA
ATOM     14  C   UNL     1      97.334  96.896  83.041  1.00  0.00     0.278 C 
ENDBRANCH   8  13
BRANCH  10  15
ATOM     15  O   UNL     1      94.921  94.539  82.414  1.00  0.00    -0.504 OA
ATOM     16  H   UNL     1      93.974  94.758  82.404  1.00  0.00     0.293 HD
ENDBRANCH  10  15
ENDBRANCH   6   7
ENDBRANCH   5   6
ENDBRANCH   3   5
ENDBRANCH   2   3
BRANCH   1  17
ATOM     17  C   UNL     1      92.916  93.311  75.843  1.00  0.00     0.027 C 
BRANCH  17  18
ATOM     18  C   UNL     1      91.869  93.881  76.806  1.00  0.00     0.004 C 
BRANCH  18  19
ATOM     19  C   UNL     1      90.432  93.767  76.288  1.00  0.00     0.000 C 
BRANCH  19  20
ATOM     20  C   UNL     1      89.561  92.959  77.251  1.00  0.00    -0.003 C 
ATOM     21  C   UNL     1      90.335  91.806  77.869  1.00  0.00     0.004 C 
ENDBRANCH  19  20
ENDBRANCH  18  19
ENDBRANCH  17  18
ENDBRANCH   1  17
TORSDOF 10
ENDMDL
MODEL 2
REMARK VINA RESULT:    -6.179     13.589     17.542
REMARK INTER + INTRA:         -10.631
REMARK INTER:                  -8.933
REMARK INTRA:                  -1.698
REMARK UNBOUND:                -1.020
REMARK SMILES CCCCC/C=C/C(=O)CCc1ccc(O)c(OC)c1
REMARK SMILES IDX 6 1 7 2 8 3 9 4 10 5 11 6 12 7 17 8 20 9 15 10 14 11 13 12
REMARK SMILES IDX 18 13 19 14 16 15 5 17 4 18 3 19 2 20 1 21
REMARK H PARENT 16 16
REMARK Flexibility Score: inf
ROOT
ATOM      1  C   UNL     1      80.971  86.487  87.163  1.00  0.00    -0.023 C 
ATOM      2  C   UNL     1      80.207  85.944  86.207  1.00  0.00     0.043 C 
ENDROOT
BRANCH   2   3
ATOM      3  C   UNL     1      80.646  85.999  84.786  1.00  0.00     0.155 C 
ATOM      4  O   UNL     1      81.621  85.367  84.384  1.00  0.00    -0.295 OA
BRANCH   3   5
ATOM      5  C   UNL     1      79.859  86.916  83.870  1.00  0.00     0.085 C 
BRANCH   5   6
ATOM      6  C   UNL     1      80.704  88.109  83.420  1.00  0.00     0.044 C 
BRANCH   6   7
ATOM      7  C   UNL     1      81.264  88.902  84.578  1.00  0.00    -0.044 A 
ATOM      8  C   UNL     1      83.149  89.650  85.861  1.00  0.00     0.160 A 
ATOM      9  C   UNL     1      82.632  88.917  84.792  1.00  0.00     0.054 A 
ATOM     10  C   UNL     1      82.290  90.357  86.702  1.00  0.00     0.157 A 
ATOM     11  C   UNL     1      80.913  90.332  86.473  1.00  0.00     0.050 A 
ATOM     12  C   UNL     1      80.397  89.599  85.404  1.00  0.00     0.008 A 
BRANCH   8  13
ATOM     13  O   UNL     1      84.494  89.666  86.074  1.00  0.00    -0.493 OA
ATOM     14  C   UNL     1      85.284  90.436  85.170  1.00  0.00     0.278 C 
ENDBRANCH   8  13
BRANCH  10  15
ATOM     15  O   UNL     1      82.782  91.077  87.748  1.00  0.00    -0.504 OA
ATOM     16  H   UNL     1      82.047  91.569  88.153  1.00  0.00     0.293 HD
ENDBRANCH  10  15
ENDBRANCH   6   7
ENDBRANCH   5   6
ENDBRANCH   3   5
ENDBRANCH   2   3
BRANCH   1  17
ATOM     17  C   UNL     1      80.599  86.474  88.617  1.00  0.00     0.027 C 
BRANCH  17  18
ATOM     18  C   UNL     1      79.227  87.098  88.892  1.00  0.00     0.004 C 
BRANCH  18  19
ATOM     19  C   UNL     1      79.295  88.402  89.694  1.00  0.00     0.000 C 
BRANCH  19  20
ATOM     20  C   UNL     1      80.740  88.756  90.049  1.00  0.00    -0.003 C 
ATOM     21  C   UNL     1      80.862  90.197  90.517  1.00  0.00     0.004 C 
ENDBRANCH  19  20
ENDBRANCH  18  19
ENDBRANCH  17  18
ENDBRANCH   1  17
TORSDOF 10
ENDMDL
MODEL 3
REMARK VINA RESULT:    -6.039     13.818     17.367
REMARK INTER + INTRA:         -10.412
REMARK INTER:                  -9.105
REMARK INTRA:                  -1.307
REMARK UNBOUND:                -1.020
REMARK SMILES CCCCC/C=C/C(=O)CCc1ccc(O)c(OC)c1
REMARK SMILES IDX 6 1 7 2 8 3 9 4 10 5 11 6 12 7 17 8 20 9 15 10 14 11 13 12
REMARK SMILES IDX 18 13 19 14 16 15 5 17 4 18 3 19 2 20 1 21
REMARK H PARENT 16 16
REMARK Flexibility Score: inf
ROOT
ATOM      1  C   UNL     1      82.947  89.490  84.640  1.00  0.00    -0.023 C 
ATOM      2  C   UNL     1      81.858  89.781  85.362  1.00  0.00     0.043 C 
ENDROOT
BRANCH   2   3
ATOM      3  C   UNL     1      80.505  89.590  84.773  1.00  0.00     0.155 C 
ATOM      4  O   UNL     1      79.551  90.295  85.097  1.00  0.00    -0.295 OA
BRANCH   3   5
ATOM      5  C   UNL     1      80.350  88.447  83.789  1.00  0.00     0.085 C 
BRANCH   5   6
ATOM      6  C   UNL     1      79.707  87.227  84.452  1.00  0.00     0.044 C 
BRANCH   6   7
ATOM      7  C   UNL     1      80.480  86.736  85.653  1.00  0.00    -0.044 A 
ATOM      8  C   UNL     1      80.698  86.523  88.034  1.00  0.00     0.160 A 
ATOM      9  C   UNL     1      79.984  86.978  86.925  1.00  0.00     0.054 A 
ATOM     10  C   UNL     1      81.897  85.834  87.858  1.00  0.00     0.157 A 
ATOM     11  C   UNL     1      82.384  85.599  86.571  1.00  0.00     0.050 A 
ATOM     12  C   UNL     1      81.670  86.053  85.462  1.00  0.00     0.008 A 
BRANCH   8  13
ATOM     13  O   UNL     1      80.212  86.760  89.285  1.00  0.00    -0.493 OA
ATOM     14  C   UNL     1      78.976  87.465  89.378  1.00  0.00     0.278 C 
ENDBRANCH   8  13
BRANCH  10  15
ATOM     15  O   UNL     1      82.603  85.385  88.933  1.00  0.00    -0.504 OA
ATOM     16  H   UNL     1      82.038  85.459  89.721  1.00  0.00     0.293 HD
ENDBRANCH  10  15
ENDBRANCH   6   7
ENDBRANCH   5   6
ENDBRANCH   3   5
ENDBRANCH   2   3
BRANCH   1  17
ATOM     17  C   UNL     1      84.345  89.654  85.162  1.00  0.00     0.027 C 
BRANCH  17  18
ATOM     18  C   UNL     1      84.906  91.064  84.946  1.00  0.00     0.004 C 
BRANCH  18  19
ATOM     19  C   UNL     1      85.199  91.814  86.249  1.00  0.00     0.000 C 
BRANCH  19  20
ATOM     20  C   UNL     1      84.057  92.767  86.606  1.00  0.00    -0.003 C 
ATOM     21  C   UNL     1      83.316  92.305  87.851  1.00  0.00     0.004 C 
ENDBRANCH  19  20
ENDBRANCH  18  19
ENDBRANCH  17  18
ENDBRANCH   1  17
TORSDOF 10
ENDMDL
MODEL 4
REMARK VINA RESULT:    -5.637     31.422     33.917
REMARK INTER + INTRA:          -9.788
REMARK INTER:                  -8.039
REMARK INTRA:                  -1.749
REMARK UNBOUND:                -1.020
REMARK SMILES CCCCC/C=C/C(=O)CCc1ccc(O)c(OC)c1
REMARK SMILES IDX 6 1 7 2 8 3 9 4 10 5 11 6 12 7 17 8 20 9 15 10 14 11 13 12
REMARK SMILES IDX 18 13 19 14 16 15 5 17 4 18 3 19 2 20 1 21
REMARK H PARENT 16 16
REMARK Flexibility Score: inf
ROOT
ATOM      1  C   UNL     1      63.451  81.641  72.182  1.00  0.00    -0.023 C 
ATOM      2  C   UNL     1      63.971  80.494  72.637  1.00  0.00     0.043 C 
ENDROOT
BRANCH   2   3
ATOM      3  C   UNL     1      65.235  80.513  73.422  1.00  0.00     0.155 C 
ATOM      4  O   UNL     1      66.102  79.654  73.277  1.00  0.00    -0.295 OA
BRANCH   3   5
ATOM      5  C   UNL     1      65.376  81.619  74.450  1.00  0.00     0.085 C 
BRANCH   5   6
ATOM      6  C   UNL     1      64.300  81.513  75.531  1.00  0.00     0.044 C 
BRANCH   6   7
ATOM      7  C   UNL     1      63.585  82.820  75.779  1.00  0.00    -0.044 A 
ATOM      8  C   UNL     1      63.658  85.201  76.072  1.00  0.00     0.160 A 
ATOM      9  C   UNL     1      64.319  83.994  75.843  1.00  0.00     0.054 A 
ATOM     10  C   UNL     1      62.273  85.219  76.233  1.00  0.00     0.157 A 
ATOM     11  C   UNL     1      61.548  84.028  76.166  1.00  0.00     0.050 A 
ATOM     12  C   UNL     1      62.209  82.821  75.938  1.00  0.00     0.008 A 
BRANCH   8  13
ATOM     13  O   UNL     1      64.377  86.356  76.135  1.00  0.00    -0.493 OA
ATOM     14  C   UNL     1      64.826  86.909  74.899  1.00  0.00     0.278 C 
ENDBRANCH   8  13
BRANCH  10  15
ATOM     15  O   UNL     1      61.616  86.391  76.456  1.00  0.00    -0.504 OA
ATOM     16  H   UNL     1      60.892  86.463  75.810  1.00  0.00     0.293 HD
ENDBRANCH  10  15
ENDBRANCH   6   7
ENDBRANCH   5   6
ENDBRANCH   3   5
ENDBRANCH   2   3
BRANCH   1  17
ATOM     17  C   UNL     1      62.181  81.706  71.383  1.00  0.00     0.027 C 
BRANCH  17  18
ATOM     18  C   UNL     1      61.735  83.140  71.079  1.00  0.00     0.004 C 
BRANCH  18  19
ATOM     19  C   UNL     1      60.807  83.733  72.144  1.00  0.00     0.000 C 
BRANCH  19  20
ATOM     20  C   UNL     1      61.373  85.038  72.705  1.00  0.00    -0.003 C 
ATOM     21  C   UNL     1      62.843  85.203  72.355  1.00  0.00     0.004 C 
ENDBRANCH  19  20
ENDBRANCH  18  19
ENDBRANCH  17  18
ENDBRANCH   1  17
TORSDOF 10
ENDMDL
MODEL 5
REMARK VINA RESULT:    -5.621      4.029      7.618
REMARK INTER + INTRA:          -9.763
REMARK INTER:                  -8.846
REMARK INTRA:                  -0.917
REMARK UNBOUND:                -1.020
REMARK SMILES CCCCC/C=C/C(=O)CCc1ccc(O)c(OC)c1
REMARK SMILES IDX 6 1 7 2 8 3 9 4 10 5 11 6 12 7 17 8 20 9 15 10 14 11 13 12
REMARK SMILES IDX 18 13 19 14 16 15 5 17 4 18 3 19 2 20 1 21
REMARK H PARENT 16 16
REMARK Flexibility Score: inf
ROOT
ATOM      1  C   UNL     1      94.297  96.738  74.091  1.00  0.00    -0.023 C 
ATOM      2  C   UNL     1      95.017  96.193  75.080  1.00  0.00     0.043 C 
ENDROOT
BRANCH   2   3
ATOM      3  C   UNL     1      94.571  94.918  75.706  1.00  0.00     0.155 C 
ATOM      4  O   UNL     1      95.373  94.100  76.152  1.00  0.00    -0.295 OA
BRANCH   3   5
ATOM      5  C   UNL     1      93.078  94.656  75.717  1.00  0.00     0.085 C 
BRANCH   5   6
ATOM      6  C   UNL     1      92.734  93.370  74.963  1.00  0.00     0.044 C 
BRANCH   6   7
ATOM      7  C   UNL     1      91.895  92.417  75.781  1.00  0.00    -0.044 A 
ATOM      8  C   UNL     1      90.699  90.345  75.969  1.00  0.00     0.160 A 
ATOM      9  C   UNL     1      91.474  91.225  75.214  1.00  0.00     0.054 A 
ATOM     10  C   UNL     1      90.354  90.668  77.281  1.00  0.00     0.157 A 
ATOM     11  C   UNL     1      90.785  91.873  77.838  1.00  0.00     0.050 A 
ATOM     12  C   UNL     1      91.560  92.753  77.082  1.00  0.00     0.008 A 
BRANCH   8  13
ATOM     13  O   UNL     1      90.285  89.171  75.414  1.00  0.00    -0.493 OA
ATOM     14  C   UNL     1      91.252  88.128  75.305  1.00  0.00     0.278 C 
ENDBRANCH   8  13
BRANCH  10  15
ATOM     15  O   UNL     1      89.599  89.817  78.029  1.00  0.00    -0.504 OA
ATOM     16  H   UNL     1      89.041  90.347  78.624  1.00  0.00     0.293 HD
ENDBRANCH  10  15
ENDBRANCH   6   7
ENDBRANCH   5   6
ENDBRANCH   3   5
ENDBRANCH   2   3
BRANCH   1  17
ATOM     17  C   UNL     1      94.678  98.020  73.410  1.00  0.00     0.027 C 
BRANCH  17  18
ATOM     18  C   UNL     1      95.735  97.830  72.316  1.00  0.00     0.004 C 
BRANCH  18  19
ATOM     19  C   UNL     1      97.146  98.238  72.748  1.00  0.00     0.000 C 
BRANCH  19  20
ATOM     20  C   UNL     1      98.034  97.012  72.963  1.00  0.00    -0.003 C 
ATOM     21  C   UNL     1      97.777  95.947  71.909  1.00  0.00     0.004 C 
ENDBRANCH  19  20
ENDBRANCH  18  19
ENDBRANCH  17  18
ENDBRANCH   1  17
TORSDOF 10
ENDMDL
MODEL 6
REMARK VINA RESULT:    -5.451     27.651     30.873
REMARK INTER + INTRA:          -9.497
REMARK INTER:                  -8.022
REMARK INTRA:                  -1.476
REMARK UNBOUND:                -1.020
REMARK SMILES CCCCC/C=C/C(=O)CCc1ccc(O)c(OC)c1
REMARK SMILES IDX 6 1 7 2 8 3 9 4 10 5 11 6 12 7 17 8 20 9 15 10 14 11 13 12
REMARK SMILES IDX 18 13 19 14 16 15 5 17 4 18 3 19 2 20 1 21
REMARK H PARENT 16 16
REMARK Flexibility Score: inf
ROOT
ATOM      1  C   UNL     1      80.337  64.819  72.620  1.00  0.00    -0.023 C 
ATOM      2  C   UNL     1      80.064  66.123  72.484  1.00  0.00     0.043 C 
ENDROOT
BRANCH   2   3
ATOM      3  C   UNL     1      80.273  66.792  71.172  1.00  0.00     0.155 C 
ATOM      4  O   UNL     1      79.621  66.486  70.176  1.00  0.00    -0.295 OA
BRANCH   3   5
ATOM      5  C   UNL     1      81.371  67.837  71.113  1.00  0.00     0.085 C 
BRANCH   5   6
ATOM      6  C   UNL     1      81.917  68.148  72.507  1.00  0.00     0.044 C 
BRANCH   6   7
ATOM      7  C   UNL     1      83.340  68.655  72.480  1.00  0.00    -0.044 A 
ATOM      8  C   UNL     1      85.555  68.666  73.403  1.00  0.00     0.160 A 
ATOM      9  C   UNL     1      84.242  68.197  73.428  1.00  0.00     0.054 A 
ATOM     10  C   UNL     1      85.950  69.585  72.431  1.00  0.00     0.157 A 
ATOM     11  C   UNL     1      85.030  70.037  71.484  1.00  0.00     0.050 A 
ATOM     12  C   UNL     1      83.716  69.568  71.509  1.00  0.00     0.008 A 
BRANCH   8  13
ATOM     13  O   UNL     1      86.444  68.217  74.333  1.00  0.00    -0.493 OA
ATOM     14  C   UNL     1      85.922  67.429  75.401  1.00  0.00     0.278 C 
ENDBRANCH   8  13
BRANCH  10  15
ATOM     15  O   UNL     1      87.230  70.049  72.396  1.00  0.00    -0.504 OA
ATOM     16  H   UNL     1      87.382  70.461  71.528  1.00  0.00     0.293 HD
ENDBRANCH  10  15
ENDBRANCH   6   7
ENDBRANCH   5   6
ENDBRANCH   3   5
ENDBRANCH   2   3
BRANCH   1  17
ATOM     17  C   UNL     1      80.154  64.072  73.908  1.00  0.00     0.027 C 
BRANCH  17  18
ATOM     18  C   UNL     1      81.479  63.708  74.587  1.00  0.00     0.004 C 
BRANCH  18  19
ATOM     19  C   UNL     1      82.539  64.810  74.494  1.00  0.00     0.000 C 
BRANCH  19  20
ATOM     20  C   UNL     1      82.737  65.501  75.844  1.00  0.00    -0.003 C 
ATOM     21  C   UNL     1      81.736  66.627  76.045  1.00  0.00     0.004 C 
ENDBRANCH  19  20
ENDBRANCH  18  19
ENDBRANCH  17  18
ENDBRANCH   1  17
TORSDOF 10
ENDMDL
MODEL 7
REMARK VINA RESULT:    -5.402     13.522     16.437
REMARK INTER + INTRA:          -9.422
REMARK INTER:                  -7.777
REMARK INTRA:                  -1.645
REMARK UNBOUND:                -1.020
REMARK SMILES CCCCC/C=C/C(=O)CCc1ccc(O)c(OC)c1
REMARK SMILES IDX 6 1 7 2 8 3 9 4 10 5 11 6 12 7 17 8 20 9 15 10 14 11 13 12
REMARK SMILES IDX 18 13 19 14 16 15 5 17 4 18 3 19 2 20 1 21
REMARK H PARENT 16 16
REMARK Flexibility Score: inf
ROOT
ATOM      1  C   UNL     1      81.970  90.105  84.665  1.00  0.00    -0.023 C 
ATOM      2  C   UNL     1      83.138  89.451  84.672  1.00  0.00     0.043 C 
ENDROOT
BRANCH   2   3
ATOM      3  C   UNL     1      84.395  90.181  84.994  1.00  0.00     0.155 C 
ATOM      4  O   UNL     1      85.422  90.026  84.337  1.00  0.00    -0.295 OA
BRANCH   3   5
ATOM      5  C   UNL     1      84.358  91.087  86.209  1.00  0.00     0.085 C 
BRANCH   5   6
ATOM      6  C   UNL     1      84.314  90.277  87.506  1.00  0.00     0.044 C 
BRANCH   6   7
ATOM      7  C   UNL     1      82.926  90.184  88.094  1.00  0.00    -0.044 A 
ATOM      8  C   UNL     1      81.032  91.244  89.117  1.00  0.00     0.160 A 
ATOM      9  C   UNL     1      82.314  91.330  88.574  1.00  0.00     0.054 A 
ATOM     10  C   UNL     1      80.380  90.012  89.173  1.00  0.00     0.157 A 
ATOM     11  C   UNL     1      81.010  88.866  88.687  1.00  0.00     0.050 A 
ATOM     12  C   UNL     1      82.292  88.953  88.144  1.00  0.00     0.008 A 
BRANCH   8  13
ATOM     13  O   UNL     1      80.427  92.370  89.589  1.00  0.00    -0.493 OA
ATOM     14  C   UNL     1      81.220  93.554  89.652  1.00  0.00     0.278 C 
ENDBRANCH   8  13
BRANCH  10  15
ATOM     15  O   UNL     1      79.128  89.915  89.701  1.00  0.00    -0.504 OA
ATOM     16  H   UNL     1      78.839  90.804  89.969  1.00  0.00     0.293 HD
ENDBRANCH  10  15
ENDBRANCH   6   7
ENDBRANCH   5   6
ENDBRANCH   3   5
ENDBRANCH   2   3
BRANCH   1  17
ATOM     17  C   UNL     1      80.661  89.442  84.350  1.00  0.00     0.027 C 
BRANCH  17  18
ATOM     18  C   UNL     1      80.800  87.945  84.054  1.00  0.00     0.004 C 
BRANCH  18  19
ATOM     19  C   UNL     1      80.406  87.047  85.230  1.00  0.00     0.000 C 
BRANCH  19  20
ATOM     20  C   UNL     1      81.189  85.733  85.208  1.00  0.00    -0.003 C 
ATOM     21  C   UNL     1      82.228  85.685  86.317  1.00  0.00     0.004 C 
ENDBRANCH  19  20
ENDBRANCH  18  19
ENDBRANCH  17  18
ENDBRANCH   1  17
TORSDOF 10
ENDMDL
MODEL 8
REMARK VINA RESULT:    -5.398     15.339     17.480
REMARK INTER + INTRA:          -9.416
REMARK INTER:                  -8.593
REMARK INTRA:                  -0.823
REMARK UNBOUND:                -1.020
REMARK SMILES CCCCC/C=C/C(=O)CCc1ccc(O)c(OC)c1
REMARK SMILES IDX 6 1 7 2 8 3 9 4 10 5 11 6 12 7 17 8 20 9 15 10 14 11 13 12
REMARK SMILES IDX 18 13 19 14 16 15 5 17 4 18 3 19 2 20 1 21
REMARK H PARENT 16 16
REMARK Flexibility Score: inf
ROOT
ATOM      1  C   UNL     1      82.979  93.184  87.935  1.00  0.00    -0.023 C 
ATOM      2  C   UNL     1      82.131  92.966  88.947  1.00  0.00     0.043 C 
ENDROOT
BRANCH   2   3
ATOM      3  C   UNL     1      81.505  91.626  89.115  1.00  0.00     0.155 C 
ATOM      4  O   UNL     1      80.838  91.341  90.108  1.00  0.00    -0.295 OA
BRANCH   3   5
ATOM      5  C   UNL     1      81.778  90.611  88.022  1.00  0.00     0.085 C 
BRANCH   5   6
ATOM      6  C   UNL     1      80.580  90.473  87.081  1.00  0.00     0.044 C 
BRANCH   6   7
ATOM      7  C   UNL     1      80.737  89.343  86.091  1.00  0.00    -0.044 A 
ATOM      8  C   UNL     1      81.882  87.361  85.371  1.00  0.00     0.160 A 
ATOM      9  C   UNL     1      81.738  88.405  86.286  1.00  0.00     0.054 A 
ATOM     10  C   UNL     1      81.025  87.270  84.275  1.00  0.00     0.157 A 
ATOM     11  C   UNL     1      80.023  88.223  84.093  1.00  0.00     0.050 A 
ATOM     12  C   UNL     1      79.878  89.267  85.007  1.00  0.00     0.008 A 
BRANCH   8  13
ATOM     13  O   UNL     1      82.866  86.437  85.560  1.00  0.00    -0.493 OA
ATOM     14  C   UNL     1      82.615  85.411  86.518  1.00  0.00     0.278 C 
ENDBRANCH   8  13
BRANCH  10  15
ATOM     15  O   UNL     1      81.156  86.255  83.376  1.00  0.00    -0.504 OA
ATOM     16  H   UNL     1      80.768  85.452  83.763  1.00  0.00     0.293 HD
ENDBRANCH  10  15
ENDBRANCH   6   7
ENDBRANCH   5   6
ENDBRANCH   3   5
ENDBRANCH   2   3
BRANCH   1  17
ATOM     17  C   UNL     1      83.649  94.506  87.697  1.00  0.00     0.027 C 
BRANCH  17  18
ATOM     18  C   UNL     1      83.386  95.524  88.811  1.00  0.00     0.004 C 
BRANCH  18  19
ATOM     19  C   UNL     1      82.730  96.818  88.319  1.00  0.00     0.000 C 
BRANCH  19  20
ATOM     20  C   UNL     1      81.316  96.556  87.799  1.00  0.00    -0.003 C 
ATOM     21  C   UNL     1      81.012  97.390  86.565  1.00  0.00     0.004 C 
ENDBRANCH  19  20
ENDBRANCH  18  19
ENDBRANCH  17  18
ENDBRANCH   1  17
TORSDOF 10
ENDMDL
MODEL 9
REMARK VINA RESULT:    -5.388      3.929      7.782
REMARK INTER + INTRA:          -9.399
REMARK INTER:                  -8.335
REMARK INTRA:                  -1.064
REMARK UNBOUND:                -1.020
REMARK SMILES CCCCC/C=C/C(=O)CCc1ccc(O)c(OC)c1
REMARK SMILES IDX 6 1 7 2 8 3 9 4 10 5 11 6 12 7 17 8 20 9 15 10 14 11 13 12
REMARK SMILES IDX 18 13 19 14 16 15 5 17 4 18 3 19 2 20 1 21
REMARK H PARENT 16 16
REMARK Flexibility Score: inf
ROOT
ATOM      1  C   UNL     1      94.093  96.535  74.205  1.00  0.00    -0.023 C 
ATOM      2  C   UNL     1      94.766  96.111  75.282  1.00  0.00     0.043 C 
ENDROOT
BRANCH   2   3
ATOM      3  C   UNL     1      94.596  94.711  75.758  1.00  0.00     0.155 C 
ATOM      4  O   UNL     1      95.169  93.768  75.216  1.00  0.00    -0.295 OA
BRANCH   3   5
ATOM      5  C   UNL     1      93.638  94.502  76.914  1.00  0.00     0.085 C 
BRANCH   5   6
ATOM      6  C   UNL     1      92.183  94.627  76.460  1.00  0.00     0.044 C 
BRANCH   6   7
ATOM      7  C   UNL     1      91.670  93.378  75.782  1.00  0.00    -0.044 A 
ATOM      8  C   UNL     1      90.771  92.293  73.839  1.00  0.00     0.160 A 
ATOM      9  C   UNL     1      91.244  93.446  74.465  1.00  0.00     0.054 A 
ATOM     10  C   UNL     1      90.730  91.087  74.538  1.00  0.00     0.157 A 
ATOM     11  C   UNL     1      91.161  91.034  75.864  1.00  0.00     0.050 A 
ATOM     12  C   UNL     1      91.635  92.188  76.490  1.00  0.00     0.008 A 
BRANCH   8  13
ATOM     13  O   UNL     1      90.352  92.357  72.544  1.00  0.00    -0.493 OA
ATOM     14  C   UNL     1      89.062  92.917  72.308  1.00  0.00     0.278 C 
ENDBRANCH   8  13
BRANCH  10  15
ATOM     15  O   UNL     1      90.270  89.954  73.938  1.00  0.00    -0.504 OA
ATOM     16  H   UNL     1      90.976  89.285  73.967  1.00  0.00     0.293 HD
ENDBRANCH  10  15
ENDBRANCH   6   7
ENDBRANCH   5   6
ENDBRANCH   3   5
ENDBRANCH   2   3
BRANCH   1  17
ATOM     17  C   UNL     1      94.209  97.930  73.662  1.00  0.00     0.027 C 
BRANCH  17  18
ATOM     18  C   UNL     1      95.421  98.690  74.211  1.00  0.00     0.004 C 
BRANCH  18  19
ATOM     19  C   UNL     1      95.112 100.140  74.599  1.00  0.00     0.000 C 
BRANCH  19  20
ATOM     20  C   UNL     1      95.407 100.390  76.078  1.00  0.00    -0.003 C 
ATOM     21  C   UNL     1      96.431  99.403  76.617  1.00  0.00     0.004 C 
ENDBRANCH  19  20
ENDBRANCH  18  19
ENDBRANCH  17  18
ENDBRANCH   1  17
TORSDOF 10
ENDMDL
MODEL 10
REMARK VINA RESULT:    -5.346     31.574     34.316
REMARK INTER + INTRA:          -9.334
REMARK INTER:                  -8.222
REMARK INTRA:                  -1.112
REMARK UNBOUND:                -1.020
REMARK SMILES CCCCC/C=C/C(=O)CCc1ccc(O)c(OC)c1
REMARK SMILES IDX 6 1 7 2 8 3 9 4 10 5 11 6 12 7 17 8 20 9 15 10 14 11 13 12
REMARK SMILES IDX 18 13 19 14 16 15 5 17 4 18 3 19 2 20 1 21
REMARK H PARENT 16 16
REMARK Flexibility Score: inf
ROOT
ATOM      1  C   UNL     1      62.845  82.162  72.100  1.00  0.00    -0.023 C 
ATOM      2  C   UNL     1      63.620  81.089  72.296  1.00  0.00     0.043 C 
ENDROOT
BRANCH   2   3
ATOM      3  C   UNL     1      63.754  80.511  73.661  1.00  0.00     0.155 C 
ATOM      4  O   UNL     1      62.890  79.785  74.147  1.00  0.00    -0.295 OA
BRANCH   3   5
ATOM      5  C   UNL     1      64.991  80.907  74.444  1.00  0.00     0.085 C 
BRANCH   5   6
ATOM      6  C   UNL     1      64.621  81.479  75.814  1.00  0.00     0.044 C 
BRANCH   6   7
ATOM      7  C   UNL     1      63.806  82.747  75.720  1.00  0.00    -0.044 A 
ATOM      8  C   UNL     1      63.648  85.075  75.158  1.00  0.00     0.160 A 
ATOM      9  C   UNL     1      64.402  83.904  75.245  1.00  0.00     0.054 A 
ATOM     10  C   UNL     1      62.309  85.073  75.548  1.00  0.00     0.157 A 
ATOM     11  C   UNL     1      61.723  83.900  76.025  1.00  0.00     0.050 A 
ATOM     12  C   UNL     1      62.477  82.729  76.112  1.00  0.00     0.008 A 
BRANCH   8  13
ATOM     13  O   UNL     1      64.231  86.214  74.691  1.00  0.00    -0.493 OA
ATOM     14  C   UNL     1      65.115  86.081  73.580  1.00  0.00     0.278 C 
ENDBRANCH   8  13
BRANCH  10  15
ATOM     15  O   UNL     1      61.562  86.209  75.468  1.00  0.00    -0.504 OA
ATOM     16  H   UNL     1      62.080  86.942  75.844  1.00  0.00     0.293 HD
ENDBRANCH  10  15
ENDBRANCH   6   7
ENDBRANCH   5   6
ENDBRANCH   3   5
ENDBRANCH   2   3
BRANCH   1  17
ATOM     17  C   UNL     1      62.657  82.804  70.756  1.00  0.00     0.027 C 
BRANCH  17  18
ATOM     18  C   UNL     1      62.567  81.789  69.611  1.00  0.00     0.004 C 
BRANCH  18  19
ATOM     19  C   UNL     1      63.023  82.345  68.259  1.00  0.00     0.000 C 
BRANCH  19  20
ATOM     20  C   UNL     1      61.833  82.840  67.436  1.00  0.00    -0.003 C 
ATOM     21  C   UNL     1      61.842  84.354  67.299  1.00  0.00     0.004 C 
ENDBRANCH  19  20
ENDBRANCH  18  19
ENDBRANCH  17  18
ENDBRANCH   1  17
TORSDOF 10
ENDMDL
