MODEL 1
REMARK VINA RESULT:    -7.335      0.000      0.000
REMARK INTER + INTRA:          -8.957
REMARK INTER:                  -8.621
REMARK INTRA:                  -0.336
REMARK UNBOUND:                -0.336
REMARK SMILES O=C(/C=C/C=C/c1ccc2c(c1)OCO2)N1CCCCC1
REMARK SMILES IDX 3 1 4 2 2 3 1 4 16 5 17 6 21 7 18 8 20 9 19 10 5 11 6 12
REMARK SMILES IDX 7 13 12 14 8 15 11 16 9 17 13 18 10 19 14 20 15 21
REMARK H PARENT
REMARK Flexibility Score: inf
ROOT
ATOM      1  C   UNL     1      96.282  82.127  82.629  1.00  0.00     0.071 C 
ATOM      2  C   UNL     1      97.015  81.647  81.626  1.00  0.00     0.006 C 
ENDROOT
BRANCH   1   3
ATOM      3  C   UNL     1      96.660  81.752  84.006  1.00  0.00     0.246 C 
ATOM      4  O   UNL     1      97.856  81.789  84.298  1.00  0.00    -0.270 OA
ATOM      5  N   UNL     1      95.641  81.378  84.880  1.00  0.00    -0.339 N 
ATOM      6  C   UNL     1      95.985  80.996  86.253  1.00  0.00     0.120 C 
ATOM      7  C   UNL     1      94.210  81.279  84.555  1.00  0.00     0.120 C 
ATOM      8  C   UNL     1      95.172  81.786  87.272  1.00  0.00     0.022 C 
ATOM      9  C   UNL     1      93.359  82.057  85.559  1.00  0.00     0.022 C 
ATOM     10  C   UNL     1      93.678  81.658  86.997  1.00  0.00     0.004 C 
ENDBRANCH   1   3
BRANCH   2  11
ATOM     11  C   UNL     1      96.723  81.957  80.243  1.00  0.00     0.001 C 
ATOM     12  C   UNL     1      97.608  81.762  79.252  1.00  0.00     0.008 C 
BRANCH  12  13
ATOM     13  C   UNL     1      97.367  82.068  77.832  1.00  0.00    -0.022 A 
ATOM     14  C   UNL     1      98.356  81.780  76.901  1.00  0.00     0.058 A 
ATOM     15  C   UNL     1      96.147  82.639  77.459  1.00  0.00     0.012 A 
ATOM     16  C   UNL     1      98.083  82.084  75.583  1.00  0.00     0.166 A 
ATOM     17  C   UNL     1      95.898  82.936  76.118  1.00  0.00     0.051 A 
ATOM     18  O   UNL     1      98.919  81.881  74.528  1.00  0.00    -0.454 OA
ATOM     19  C   UNL     1      96.887  82.647  75.201  1.00  0.00     0.165 A 
ATOM     20  C   UNL     1      98.114  82.379  73.440  1.00  0.00     0.468 C 
ATOM     21  O   UNL     1      96.823  82.866  73.860  1.00  0.00    -0.454 OA
ENDBRANCH  12  13
ENDBRANCH   2  11
TORSDOF 3
ENDMDL
MODEL 2
REMARK VINA RESULT:    -7.262      2.845      9.091
REMARK INTER + INTRA:          -8.871
REMARK INTER:                  -8.478
REMARK INTRA:                  -0.394
REMARK UNBOUND:                -0.336
REMARK SMILES O=C(/C=C/C=C/c1ccc2c(c1)OCO2)N1CCCCC1
REMARK SMILES IDX 3 1 4 2 2 3 1 4 16 5 17 6 21 7 18 8 20 9 19 10 5 11 6 12
REMARK SMILES IDX 7 13 12 14 8 15 11 16 9 17 13 18 10 19 14 20 15 21
REMARK H PARENT
REMARK Flexibility Score: inf
ROOT
ATOM      1  C   UNL     1      97.399  80.771  78.765  1.00  0.00     0.071 C 
ATOM      2  C   UNL     1      98.144  81.085  79.823  1.00  0.00     0.006 C 
ENDROOT
BRANCH   1   3
ATOM      3  C   UNL     1      98.080  80.570  77.471  1.00  0.00     0.246 C 
ATOM      4  O   UNL     1      98.787  79.569  77.349  1.00  0.00    -0.270 OA
ATOM      5  N   UNL     1      97.882  81.528  76.477  1.00  0.00    -0.339 N 
ATOM      6  C   UNL     1      98.550  81.358  75.183  1.00  0.00     0.120 C 
ATOM      7  C   UNL     1      97.083  82.756  76.601  1.00  0.00     0.120 C 
ATOM      8  C   UNL     1      97.557  81.442  74.029  1.00  0.00     0.022 C 
ATOM      9  C   UNL     1      96.077  82.879  75.457  1.00  0.00     0.022 C 
ATOM     10  C   UNL     1      96.750  82.735  74.095  1.00  0.00     0.004 C 
ENDBRANCH   1   3
BRANCH   2  11
ATOM     11  C   UNL     1      97.567  81.302  81.133  1.00  0.00     0.001 C 
ATOM     12  C   UNL     1      96.691  82.287  81.388  1.00  0.00     0.008 C 
BRANCH  12  13
ATOM     13  C   UNL     1      96.081  82.557  82.701  1.00  0.00    -0.022 A 
ATOM     14  C   UNL     1      96.013  83.866  83.158  1.00  0.00     0.058 A 
ATOM     15  C   UNL     1      95.588  81.486  83.452  1.00  0.00     0.012 A 
ATOM     16  C   UNL     1      95.433  84.068  84.393  1.00  0.00     0.166 A 
ATOM     17  C   UNL     1      95.006  81.720  84.699  1.00  0.00     0.051 A 
ATOM     18  O   UNL     1      95.274  85.270  85.013  1.00  0.00    -0.454 OA
ATOM     19  C   UNL     1      94.943  83.024  85.144  1.00  0.00     0.165 A 
ATOM     20  C   UNL     1      94.628  84.864  86.237  1.00  0.00     0.468 C 
ATOM     21  O   UNL     1      94.415  83.441  86.327  1.00  0.00    -0.454 OA
ENDBRANCH  12  13
ENDBRANCH   2  11
TORSDOF 3
ENDMDL
MODEL 3
REMARK VINA RESULT:    -7.145      2.760      9.527
REMARK INTER + INTRA:          -8.735
REMARK INTER:                  -8.431
REMARK INTRA:                  -0.304
REMARK UNBOUND:                -0.336
REMARK SMILES O=C(/C=C/C=C/c1ccc2c(c1)OCO2)N1CCCCC1
REMARK SMILES IDX 3 1 4 2 2 3 1 4 16 5 17 6 21 7 18 8 20 9 19 10 5 11 6 12
REMARK SMILES IDX 7 13 12 14 8 15 11 16 9 17 13 18 10 19 14 20 15 21
REMARK H PARENT
REMARK Flexibility Score: inf
ROOT
ATOM      1  C   UNL     1      96.354  81.930  77.142  1.00  0.00     0.071 C 
ATOM      2  C   UNL     1      97.127  82.268  78.173  1.00  0.00     0.006 C 
ENDROOT
BRANCH   1   3
ATOM      3  C   UNL     1      96.479  82.710  75.895  1.00  0.00     0.246 C 
ATOM      4  O   UNL     1      95.679  83.630  75.717  1.00  0.00    -0.270 OA
ATOM      5  N   UNL     1      97.487  82.351  75.002  1.00  0.00    -0.339 N 
ATOM      6  C   UNL     1      97.632  83.104  73.752  1.00  0.00     0.120 C 
ATOM      7  C   UNL     1      98.429  81.233  75.159  1.00  0.00     0.120 C 
ATOM      8  C   UNL     1      99.059  83.607  73.567  1.00  0.00     0.022 C 
ATOM      9  C   UNL     1      99.874  81.697  74.976  1.00  0.00     0.022 C 
ATOM     10  C   UNL     1     100.060  82.460  73.668  1.00  0.00     0.004 C 
ENDBRANCH   1   3
BRANCH   2  11
ATOM     11  C   UNL     1      97.077  81.564  79.436  1.00  0.00     0.001 C 
ATOM     12  C   UNL     1      96.619  82.128  80.565  1.00  0.00     0.008 C 
BRANCH  12  13
ATOM     13  C   UNL     1      96.553  81.461  81.876  1.00  0.00    -0.022 A 
ATOM     14  C   UNL     1      96.430  82.235  83.022  1.00  0.00     0.058 A 
ATOM     15  C   UNL     1      96.617  80.067  81.931  1.00  0.00     0.012 A 
ATOM     16  C   UNL     1      96.372  81.565  84.227  1.00  0.00     0.166 A 
ATOM     17  C   UNL     1      96.556  79.414  83.164  1.00  0.00     0.051 A 
ATOM     18  O   UNL     1      96.253  82.140  85.455  1.00  0.00    -0.454 OA
ATOM     19  C   UNL     1      96.434  80.192  84.296  1.00  0.00     0.165 A 
ATOM     20  C   UNL     1      96.247  80.974  86.305  1.00  0.00     0.468 C 
ATOM     21  O   UNL     1      96.361  79.735  85.576  1.00  0.00    -0.454 OA
ENDBRANCH  12  13
ENDBRANCH   2  11
TORSDOF 3
ENDMDL
MODEL 4
REMARK VINA RESULT:    -7.126     14.072     17.481
REMARK INTER + INTRA:          -8.712
REMARK INTER:                  -8.346
REMARK INTRA:                  -0.366
REMARK UNBOUND:                -0.336
REMARK SMILES O=C(/C=C/C=C/c1ccc2c(c1)OCO2)N1CCCCC1
REMARK SMILES IDX 3 1 4 2 2 3 1 4 16 5 17 6 21 7 18 8 20 9 19 10 5 11 6 12
REMARK SMILES IDX 7 13 12 14 8 15 11 16 9 17 13 18 10 19 14 20 15 21
REMARK H PARENT
REMARK Flexibility Score: inf
ROOT
ATOM      1  C   UNL     1      95.552  96.780  73.411  1.00  0.00     0.071 C 
ATOM      2  C   UNL     1      94.606  97.243  74.226  1.00  0.00     0.006 C 
ENDROOT
BRANCH   1   3
ATOM      3  C   UNL     1      96.630  97.703  73.003  1.00  0.00     0.246 C 
ATOM      4  O   UNL     1      97.448  98.037  73.861  1.00  0.00    -0.270 OA
ATOM      5  N   UNL     1      96.646  98.138  71.679  1.00  0.00    -0.339 N 
ATOM      6  C   UNL     1      97.701  99.059  71.245  1.00  0.00     0.120 C 
ATOM      7  C   UNL     1      95.663  97.798  70.640  1.00  0.00     0.120 C 
ATOM      8  C   UNL     1      98.423  98.537  70.008  1.00  0.00     0.022 C 
ATOM      9  C   UNL     1      96.349  97.273  69.379  1.00  0.00     0.022 C 
ATOM     10  C   UNL     1      97.434  98.227  68.889  1.00  0.00     0.004 C 
ENDBRANCH   1   3
BRANCH   2  11
ATOM     11  C   UNL     1      93.509  96.415  74.681  1.00  0.00     0.001 C 
ATOM     12  C   UNL     1      93.682  95.367  75.502  1.00  0.00     0.008 C 
BRANCH  12  13
ATOM     13  C   UNL     1      92.605  94.488  75.988  1.00  0.00    -0.022 A 
ATOM     14  C   UNL     1      92.454  93.229  75.424  1.00  0.00     0.058 A 
ATOM     15  C   UNL     1      91.763  94.947  77.004  1.00  0.00     0.012 A 
ATOM     16  C   UNL     1      91.431  92.442  75.912  1.00  0.00     0.166 A 
ATOM     17  C   UNL     1      90.735  94.129  77.480  1.00  0.00     0.051 A 
ATOM     18  O   UNL     1      91.121  91.185  75.492  1.00  0.00    -0.454 OA
ATOM     19  C   UNL     1      90.595  92.880  76.913  1.00  0.00     0.165 A 
ATOM     20  C   UNL     1      89.995  90.881  76.340  1.00  0.00     0.468 C 
ATOM     21  O   UNL     1      89.656  91.952  77.245  1.00  0.00    -0.454 OA
ENDBRANCH  12  13
ENDBRANCH   2  11
TORSDOF 3
ENDMDL
MODEL 5
REMARK VINA RESULT:    -7.108     12.933     13.978
REMARK INTER + INTRA:          -8.691
REMARK INTER:                  -8.544
REMARK INTRA:                  -0.147
REMARK UNBOUND:                -0.336
REMARK SMILES O=C(/C=C/C=C/c1ccc2c(c1)OCO2)N1CCCCC1
REMARK SMILES IDX 3 1 4 2 2 3 1 4 16 5 17 6 21 7 18 8 20 9 19 10 5 11 6 12
REMARK SMILES IDX 7 13 12 14 8 15 11 16 9 17 13 18 10 19 14 20 15 21
REMARK H PARENT
REMARK Flexibility Score: inf
ROOT
ATOM      1  C   UNL     1      96.867  94.886  78.410  1.00  0.00     0.071 C 
ATOM      2  C   UNL     1      95.569  95.182  78.376  1.00  0.00     0.006 C 
ENDROOT
BRANCH   1   3
ATOM      3  C   UNL     1      97.807  95.935  78.852  1.00  0.00     0.246 C 
ATOM      4  O   UNL     1      98.537  96.440  77.998  1.00  0.00    -0.270 OA
ATOM      5  N   UNL     1      97.809  96.279  80.202  1.00  0.00    -0.339 N 
ATOM      6  C   UNL     1      98.736  97.314  80.671  1.00  0.00     0.120 C 
ATOM      7  C   UNL     1      96.986  95.667  81.256  1.00  0.00     0.120 C 
ATOM      8  C   UNL     1      98.007  98.404  81.449  1.00  0.00     0.022 C 
ATOM      9  C   UNL     1      96.240  96.730  82.062  1.00  0.00     0.022 C 
ATOM     10  C   UNL     1      97.186  97.807  82.588  1.00  0.00     0.004 C 
ENDBRANCH   1   3
BRANCH   2  11
ATOM     11  C   UNL     1      94.571  94.220  77.958  1.00  0.00     0.001 C 
ATOM     12  C   UNL     1      93.328  94.574  77.595  1.00  0.00     0.008 C 
BRANCH  12  13
ATOM     13  C   UNL     1      92.273  93.638  77.170  1.00  0.00    -0.022 A 
ATOM     14  C   UNL     1      92.433  92.934  75.984  1.00  0.00     0.058 A 
ATOM     15  C   UNL     1      91.140  93.485  77.972  1.00  0.00     0.012 A 
ATOM     16  C   UNL     1      91.419  92.069  75.628  1.00  0.00     0.166 A 
ATOM     17  C   UNL     1      90.128  92.602  77.587  1.00  0.00     0.051 A 
ATOM     18  O   UNL     1      91.387  91.294  74.509  1.00  0.00    -0.454 OA
ATOM     19  C   UNL     1      90.297  91.907  76.408  1.00  0.00     0.165 A 
ATOM     20  C   UNL     1      90.119  90.627  74.673  1.00  0.00     0.468 C 
ATOM     21  O   UNL     1      89.422  91.011  75.876  1.00  0.00    -0.454 OA
ENDBRANCH  12  13
ENDBRANCH   2  11
TORSDOF 3
ENDMDL
MODEL 6
REMARK VINA RESULT:    -6.997      1.316      1.972
REMARK INTER + INTRA:          -8.560
REMARK INTER:                  -8.242
REMARK INTRA:                  -0.319
REMARK UNBOUND:                -0.336
REMARK SMILES O=C(/C=C/C=C/c1ccc2c(c1)OCO2)N1CCCCC1
REMARK SMILES IDX 3 1 4 2 2 3 1 4 16 5 17 6 21 7 18 8 20 9 19 10 5 11 6 12
REMARK SMILES IDX 7 13 12 14 8 15 11 16 9 17 13 18 10 19 14 20 15 21
REMARK H PARENT
REMARK Flexibility Score: inf
ROOT
ATOM      1  C   UNL     1      95.816  82.022  83.318  1.00  0.00     0.071 C 
ATOM      2  C   UNL     1      96.848  81.867  82.491  1.00  0.00     0.006 C 
ENDROOT
BRANCH   1   3
ATOM      3  C   UNL     1      96.032  81.761  84.755  1.00  0.00     0.246 C 
ATOM      4  O   UNL     1      97.026  81.108  85.072  1.00  0.00    -0.270 OA
ATOM      5  N   UNL     1      95.094  82.267  85.655  1.00  0.00    -0.339 N 
ATOM      6  C   UNL     1      95.279  82.019  87.088  1.00  0.00     0.120 C 
ATOM      7  C   UNL     1      93.873  83.011  85.311  1.00  0.00     0.120 C 
ATOM      8  C   UNL     1      95.227  83.316  87.888  1.00  0.00     0.022 C 
ATOM      9  C   UNL     1      93.783  84.318  86.098  1.00  0.00     0.022 C 
ATOM     10  C   UNL     1      93.943  84.087  87.597  1.00  0.00     0.004 C 
ENDBRANCH   1   3
BRANCH   2  11
ATOM     11  C   UNL     1      96.735  82.099  81.067  1.00  0.00     0.001 C 
ATOM     12  C   UNL     1      97.522  81.487  80.167  1.00  0.00     0.008 C 
BRANCH  12  13
ATOM     13  C   UNL     1      97.455  81.692  78.710  1.00  0.00    -0.022 A 
ATOM     14  C   UNL     1      96.448  82.491  78.185  1.00  0.00     0.058 A 
ATOM     15  C   UNL     1      98.409  81.076  77.895  1.00  0.00     0.012 A 
ATOM     16  C   UNL     1      96.428  82.653  76.815  1.00  0.00     0.166 A 
ATOM     17  C   UNL     1      98.364  81.257  76.510  1.00  0.00     0.051 A 
ATOM     18  O   UNL     1      95.525  83.392  76.112  1.00  0.00    -0.454 OA
ATOM     19  C   UNL     1      97.359  82.053  76.000  1.00  0.00     0.165 A 
ATOM     20  C   UNL     1      95.994  83.189  74.764  1.00  0.00     0.468 C 
ATOM     21  O   UNL     1      97.158  82.340  74.685  1.00  0.00    -0.454 OA
ENDBRANCH  12  13
ENDBRANCH   2  11
TORSDOF 3
ENDMDL
MODEL 7
REMARK VINA RESULT:    -6.858     14.236     17.690
REMARK INTER + INTRA:          -8.397
REMARK INTER:                  -8.038
REMARK INTRA:                  -0.359
REMARK UNBOUND:                -0.336
REMARK SMILES O=C(/C=C/C=C/c1ccc2c(c1)OCO2)N1CCCCC1
REMARK SMILES IDX 3 1 4 2 2 3 1 4 16 5 17 6 21 7 18 8 20 9 19 10 5 11 6 12
REMARK SMILES IDX 7 13 12 14 8 15 11 16 9 17 13 18 10 19 14 20 15 21
REMARK H PARENT
REMARK Flexibility Score: inf
ROOT
ATOM      1  C   UNL     1      95.203  97.747  73.348  1.00  0.00     0.071 C 
ATOM      2  C   UNL     1      94.107  97.458  74.048  1.00  0.00     0.006 C 
ENDROOT
BRANCH   1   3
ATOM      3  C   UNL     1      95.042  98.486  72.080  1.00  0.00     0.246 C 
ATOM      4  O   UNL     1      94.428  99.553  72.117  1.00  0.00    -0.270 OA
ATOM      5  N   UNL     1      95.590  97.925  70.928  1.00  0.00    -0.339 N 
ATOM      6  C   UNL     1      95.442  98.633  69.652  1.00  0.00     0.120 C 
ATOM      7  C   UNL     1      96.289  96.634  70.837  1.00  0.00     0.120 C 
ATOM      8  C   UNL     1      96.788  98.827  68.963  1.00  0.00     0.022 C 
ATOM      9  C   UNL     1      97.644  96.787  70.147  1.00  0.00     0.022 C 
ATOM     10  C   UNL     1      97.516  97.496  68.802  1.00  0.00     0.004 C 
ENDBRANCH   1   3
BRANCH   2  11
ATOM     11  C   UNL     1      94.163  96.738  75.302  1.00  0.00     0.001 C 
ATOM     12  C   UNL     1      93.804  95.449  75.416  1.00  0.00     0.008 C 
BRANCH  12  13
ATOM     13  C   UNL     1      93.834  94.671  76.667  1.00  0.00    -0.022 A 
ATOM     14  C   UNL     1      95.031  94.552  77.360  1.00  0.00     0.058 A 
ATOM     15  C   UNL     1      92.655  94.075  77.121  1.00  0.00     0.012 A 
ATOM     16  C   UNL     1      95.008  93.814  78.526  1.00  0.00     0.166 A 
ATOM     17  C   UNL     1      92.661  93.333  78.305  1.00  0.00     0.051 A 
ATOM     18  O   UNL     1      96.072  93.580  79.343  1.00  0.00    -0.454 OA
ATOM     19  C   UNL     1      93.855  93.221  78.986  1.00  0.00     0.165 A 
ATOM     20  C   UNL     1      95.458  92.773  80.369  1.00  0.00     0.468 C 
ATOM     21  O   UNL     1      94.051  92.541  80.149  1.00  0.00    -0.454 OA
ENDBRANCH  12  13
ENDBRANCH   2  11
TORSDOF 3
ENDMDL
MODEL 8
REMARK VINA RESULT:    -6.794      2.403      3.283
REMARK INTER + INTRA:          -8.322
REMARK INTER:                  -7.923
REMARK INTRA:                  -0.399
REMARK UNBOUND:                -0.336
REMARK SMILES O=C(/C=C/C=C/c1ccc2c(c1)OCO2)N1CCCCC1
REMARK SMILES IDX 3 1 4 2 2 3 1 4 16 5 17 6 21 7 18 8 20 9 19 10 5 11 6 12
REMARK SMILES IDX 7 13 12 14 8 15 11 16 9 17 13 18 10 19 14 20 15 21
REMARK H PARENT
REMARK Flexibility Score: inf
ROOT
ATOM      1  C   UNL     1      97.786  81.126  82.242  1.00  0.00     0.071 C 
ATOM      2  C   UNL     1      96.832  81.972  81.859  1.00  0.00     0.006 C 
ENDROOT
BRANCH   1   3
ATOM      3  C   UNL     1      97.903  80.815  83.681  1.00  0.00     0.246 C 
ATOM      4  O   UNL     1      97.170  81.429  84.457  1.00  0.00    -0.270 OA
ATOM      5  N   UNL     1      98.838  79.855  84.064  1.00  0.00    -0.339 N 
ATOM      6  C   UNL     1      98.981  79.530  85.486  1.00  0.00     0.120 C 
ATOM      7  C   UNL     1      99.760  79.136  83.173  1.00  0.00     0.120 C 
ATOM      8  C   UNL     1      98.862  78.029  85.729  1.00  0.00     0.022 C 
ATOM      9  C   UNL     1      99.673  77.625  83.389  1.00  0.00     0.022 C 
ATOM     10  C   UNL     1      99.848  77.255  84.860  1.00  0.00     0.004 C 
ENDBRANCH   1   3
BRANCH   2  11
ATOM     11  C   UNL     1      96.639  82.338  80.472  1.00  0.00     0.001 C 
ATOM     12  C   UNL     1      97.287  81.732  79.464  1.00  0.00     0.008 C 
BRANCH  12  13
ATOM     13  C   UNL     1      97.134  82.069  78.039  1.00  0.00    -0.022 A 
ATOM     14  C   UNL     1      98.161  81.758  77.157  1.00  0.00     0.058 A 
ATOM     15  C   UNL     1      95.959  82.693  77.612  1.00  0.00     0.012 A 
ATOM     16  C   UNL     1      97.971  82.093  75.832  1.00  0.00     0.166 A 
ATOM     17  C   UNL     1      95.794  83.022  76.265  1.00  0.00     0.051 A 
ATOM     18  O   UNL     1      98.854  81.875  74.820  1.00  0.00    -0.454 OA
ATOM     19  C   UNL     1      96.819  82.708  75.397  1.00  0.00     0.165 A 
ATOM     20  C   UNL     1      98.129  82.421  73.699  1.00  0.00     0.468 C 
ATOM     21  O   UNL     1      96.837  82.952  74.059  1.00  0.00    -0.454 OA
ENDBRANCH  12  13
ENDBRANCH   2  11
TORSDOF 3
ENDMDL
MODEL 9
REMARK VINA RESULT:    -6.788      1.427      2.032
REMARK INTER + INTRA:          -8.315
REMARK INTER:                  -7.969
REMARK INTRA:                  -0.346
REMARK UNBOUND:                -0.336
REMARK SMILES O=C(/C=C/C=C/c1ccc2c(c1)OCO2)N1CCCCC1
REMARK SMILES IDX 3 1 4 2 2 3 1 4 16 5 17 6 21 7 18 8 20 9 19 10 5 11 6 12
REMARK SMILES IDX 7 13 12 14 8 15 11 16 9 17 13 18 10 19 14 20 15 21
REMARK H PARENT
REMARK Flexibility Score: inf
ROOT
ATOM      1  C   UNL     1      95.668  82.067  83.185  1.00  0.00     0.071 C 
ATOM      2  C   UNL     1      96.738  81.964  82.399  1.00  0.00     0.006 C 
ENDROOT
BRANCH   1   3
ATOM      3  C   UNL     1      95.847  81.851  84.635  1.00  0.00     0.246 C 
ATOM      4  O   UNL     1      96.354  82.763  85.288  1.00  0.00    -0.270 OA
ATOM      5  N   UNL     1      95.436  80.628  85.164  1.00  0.00    -0.339 N 
ATOM      6  C   UNL     1      95.606  80.382  86.600  1.00  0.00     0.120 C 
ATOM      7  C   UNL     1      94.870  79.500  84.410  1.00  0.00     0.120 C 
ATOM      8  C   UNL     1      94.300  79.937  87.247  1.00  0.00     0.022 C 
ATOM      9  C   UNL     1      93.558  79.022  85.032  1.00  0.00     0.022 C 
ATOM     10  C   UNL     1      93.713  78.730  86.521  1.00  0.00     0.004 C 
ENDBRANCH   1   3
BRANCH   2  11
ATOM     11  C   UNL     1      96.662  82.159  80.967  1.00  0.00     0.001 C 
ATOM     12  C   UNL     1      97.507  81.567  80.108  1.00  0.00     0.008 C 
BRANCH  12  13
ATOM     13  C   UNL     1      97.480  81.736  78.645  1.00  0.00    -0.022 A 
ATOM     14  C   UNL     1      96.465  82.489  78.071  1.00  0.00     0.058 A 
ATOM     15  C   UNL     1      98.478  81.134  77.875  1.00  0.00     0.012 A 
ATOM     16  C   UNL     1      96.482  82.619  76.697  1.00  0.00     0.166 A 
ATOM     17  C   UNL     1      98.472  81.282  76.486  1.00  0.00     0.051 A 
ATOM     18  O   UNL     1      95.579  83.311  75.950  1.00  0.00    -0.454 OA
ATOM     19  C   UNL     1      97.459  82.032  75.926  1.00  0.00     0.165 A 
ATOM     20  C   UNL     1      96.098  83.094  74.622  1.00  0.00     0.468 C 
ATOM     21  O   UNL     1      97.290  82.283  74.599  1.00  0.00    -0.454 OA
ENDBRANCH  12  13
ENDBRANCH   2  11
TORSDOF 3
ENDMDL
MODEL 10
REMARK VINA RESULT:    -6.706     24.621     26.619
REMARK INTER + INTRA:          -8.218
REMARK INTER:                  -7.840
REMARK INTRA:                  -0.378
REMARK UNBOUND:                -0.336
REMARK SMILES O=C(/C=C/C=C/c1ccc2c(c1)OCO2)N1CCCCC1
REMARK SMILES IDX 3 1 4 2 2 3 1 4 16 5 17 6 21 7 18 8 20 9 19 10 5 11 6 12
REMARK SMILES IDX 7 13 12 14 8 15 11 16 9 17 13 18 10 19 14 20 15 21
REMARK H PARENT
REMARK Flexibility Score: inf
ROOT
ATOM      1  C   UNL     1      76.130  85.834  67.349  1.00  0.00     0.071 C 
ATOM      2  C   UNL     1      76.756  87.010  67.361  1.00  0.00     0.006 C 
ENDROOT
BRANCH   1   3
ATOM      3  C   UNL     1      76.668  84.770  66.479  1.00  0.00     0.246 C 
ATOM      4  O   UNL     1      77.881  84.562  66.517  1.00  0.00    -0.270 OA
ATOM      5  N   UNL     1      75.769  84.076  65.670  1.00  0.00    -0.339 N 
ATOM      6  C   UNL     1      76.274  83.017  64.791  1.00  0.00     0.120 C 
ATOM      7  C   UNL     1      74.324  84.326  65.565  1.00  0.00     0.120 C 
ATOM      8  C   UNL     1      75.512  81.712  64.997  1.00  0.00     0.022 C 
ATOM      9  C   UNL     1      73.524  83.038  65.762  1.00  0.00     0.022 C 
ATOM     10  C   UNL     1      74.010  81.925  64.838  1.00  0.00     0.004 C 
ENDBRANCH   1   3
BRANCH   2  11
ATOM     11  C   UNL     1      76.305  88.114  68.181  1.00  0.00     0.001 C 
ATOM     12  C   UNL     1      75.006  88.411  68.348  1.00  0.00     0.008 C 
BRANCH  12  13
ATOM     13  C   UNL     1      74.493  89.526  69.162  1.00  0.00    -0.022 A 
ATOM     14  C   UNL     1      75.291  90.645  69.355  1.00  0.00     0.058 A 
ATOM     15  C   UNL     1      73.216  89.426  69.720  1.00  0.00     0.012 A 
ATOM     16  C   UNL     1      74.767  91.663  70.125  1.00  0.00     0.166 A 
ATOM     17  C   UNL     1      72.710  90.471  70.495  1.00  0.00     0.051 A 
ATOM     18  O   UNL     1      75.389  92.835  70.429  1.00  0.00    -0.454 OA
ATOM     19  C   UNL     1      73.510  91.579  70.680  1.00  0.00     0.165 A 
ATOM     20  C   UNL     1      74.383  93.478  71.238  1.00  0.00     0.468 C 
ATOM     21  O   UNL     1      73.188  92.687  71.401  1.00  0.00    -0.454 OA
ENDBRANCH  12  13
ENDBRANCH   2  11
TORSDOF 3
ENDMDL
