MODEL 1
REMARK VINA RESULT:    -5.597      0.000      0.000
REMARK INTER + INTRA:         -11.092
REMARK INTER:                  -9.032
REMARK INTRA:                  -2.060
REMARK UNBOUND:                -2.060
REMARK SMILES COc1cc(CNC(=O)CCCCC/C=C/C(C)C)ccc1O
REMARK SMILES IDX 11 1 10 2 8 3 7 4 9 6 6 7 5 8 3 9 22 10 4 11 21 12 20 13
REMARK SMILES IDX 2 14 1 15 23 16 12 18 13 19 14 20 15 21 16 22 17 23 18 24
REMARK SMILES IDX 19 25
REMARK H PARENT 7 5 23 17
REMARK Flexibility Score: inf
ROOT
ATOM      1  C   UNL     1      80.715  87.037  83.608  1.00  0.00     0.010 C 
ENDROOT
BRANCH   1   2
ATOM      2  C   UNL     1      80.770  85.798  84.539  1.00  0.00     0.100 C 
BRANCH   2   3
ATOM      3  C   UNL     1      81.571  86.001  85.761  1.00  0.00     0.220 C 
ATOM      4  N   UNL     1      80.948  86.128  86.966  1.00  0.00    -0.352 N 
ATOM      5  H   UNL     1      79.939  86.145  86.919  1.00  0.00     0.163 HD
ATOM      6  O   UNL     1      82.820  86.012  85.660  1.00  0.00    -0.275 OA
BRANCH   4   7
ATOM      7  C   UNL     1      81.602  86.231  88.230  1.00  0.00     0.151 C 
BRANCH   7   8
ATOM      8  C   UNL     1      81.383  87.548  88.881  1.00  0.00    -0.025 A 
ATOM      9  C   UNL     1      81.732  89.080  90.774  1.00  0.00     0.160 A 
ATOM     10  C   UNL     1      80.917  90.044  90.142  1.00  0.00     0.157 A 
ATOM     11  C   UNL     1      81.951  87.838  90.144  1.00  0.00     0.056 A 
ATOM     12  C   UNL     1      80.360  89.774  88.879  1.00  0.00     0.050 A 
ATOM     13  C   UNL     1      80.600  88.539  88.248  1.00  0.00     0.009 A 
BRANCH   9  14
ATOM     14  O   UNL     1      82.349  89.366  91.962  1.00  0.00    -0.493 OA
ATOM     15  C   UNL     1      83.769  89.139  91.957  1.00  0.00     0.278 C 
ENDBRANCH   9  14
BRANCH  10  16
ATOM     16  O   UNL     1      80.658  91.241  90.727  1.00  0.00    -0.504 OA
ATOM     17  H   UNL     1      81.081  91.941  90.224  1.00  0.00     0.293 HD
ENDBRANCH  10  16
ENDBRANCH   7   8
ENDBRANCH   4   7
ENDBRANCH   2   3
ENDBRANCH   1   2
BRANCH   1  18
ATOM     18  C   UNL     1      79.573  87.999  84.022  1.00  0.00     0.001 C 
BRANCH  18  19
ATOM     19  C   UNL     1      80.047  89.195  84.885  1.00  0.00     0.004 C 
BRANCH  19  20
ATOM     20  C   UNL     1      81.350  89.823  84.315  1.00  0.00     0.027 C 
BRANCH  20  21
ATOM     21  C   UNL     1      82.539  89.501  85.087  1.00  0.00    -0.031 C 
ATOM     22  C   UNL     1      83.086  90.367  85.959  1.00  0.00    -0.028 C 
BRANCH  22  23
ATOM     23  C   UNL     1      84.276  90.072  86.753  1.00  0.00     0.005 C 
ATOM     24  C   UNL     1      85.520  90.766  86.135  1.00  0.00     0.012 C 
ATOM     25  C   UNL     1      84.048  90.480  88.234  1.00  0.00     0.012 C 
ENDBRANCH  22  23
ENDBRANCH  20  21
ENDBRANCH  19  20
ENDBRANCH  18  19
ENDBRANCH   1  18
TORSDOF 11
ENDMDL
MODEL 2
REMARK VINA RESULT:    -5.527      1.586      2.308
REMARK INTER + INTRA:         -10.979
REMARK INTER:                  -9.032
REMARK INTRA:                  -1.947
REMARK UNBOUND:                -2.060
REMARK SMILES COc1cc(CNC(=O)CCCCC/C=C/C(C)C)ccc1O
REMARK SMILES IDX 11 1 10 2 8 3 7 4 9 6 6 7 5 8 3 9 22 10 4 11 21 12 20 13
REMARK SMILES IDX 2 14 1 15 23 16 12 18 13 19 14 20 15 21 16 22 17 23 18 24
REMARK SMILES IDX 19 25
REMARK H PARENT 7 5 23 17
REMARK Flexibility Score: inf
ROOT
ATOM      1  C   UNL     1      80.770  86.471  83.683  1.00  0.00     0.010 C 
ENDROOT
BRANCH   1   2
ATOM      2  C   UNL     1      80.615  85.809  85.077  1.00  0.00     0.100 C 
BRANCH   2   3
ATOM      3  C   UNL     1      81.540  86.335  86.098  1.00  0.00     0.220 C 
ATOM      4  N   UNL     1      81.051  86.803  87.279  1.00  0.00    -0.352 N 
ATOM      5  H   UNL     1      80.042  86.821  87.340  1.00  0.00     0.163 HD
ATOM      6  O   UNL     1      82.771  86.299  85.862  1.00  0.00    -0.275 OA
BRANCH   4   7
ATOM      7  C   UNL     1      81.836  87.247  88.385  1.00  0.00     0.151 C 
BRANCH   7   8
ATOM      8  C   UNL     1      81.682  88.701  88.648  1.00  0.00    -0.025 A 
ATOM      9  C   UNL     1      80.263  90.702  88.826  1.00  0.00     0.160 A 
ATOM     10  C   UNL     1      81.405  91.486  89.099  1.00  0.00     0.157 A 
ATOM     11  C   UNL     1      80.411  89.319  88.594  1.00  0.00     0.056 A 
ATOM     12  C   UNL     1      82.672  90.880  89.172  1.00  0.00     0.050 A 
ATOM     13  C   UNL     1      82.809  89.495  88.959  1.00  0.00     0.009 A 
BRANCH   9  14
ATOM     14  O   UNL     1      79.015  91.266  88.839  1.00  0.00    -0.493 OA
ATOM     15  C   UNL     1      78.169  90.797  89.902  1.00  0.00     0.278 C 
ENDBRANCH   9  14
BRANCH  10  16
ATOM     16  O   UNL     1      81.309  92.825  89.299  1.00  0.00    -0.504 OA
ATOM     17  H   UNL     1      80.708  92.996  90.030  1.00  0.00     0.293 HD
ENDBRANCH  10  16
ENDBRANCH   7   8
ENDBRANCH   4   7
ENDBRANCH   2   3
ENDBRANCH   1   2
BRANCH   1  18
ATOM     18  C   UNL     1      79.776  87.648  83.509  1.00  0.00     0.001 C 
BRANCH  18  19
ATOM     19  C   UNL     1      79.874  88.717  84.626  1.00  0.00     0.004 C 
BRANCH  19  20
ATOM     20  C   UNL     1      80.916  89.814  84.270  1.00  0.00     0.027 C 
BRANCH  20  21
ATOM     21  C   UNL     1      82.093  89.801  85.123  1.00  0.00    -0.031 C 
ATOM     22  C   UNL     1      83.117  90.655  84.948  1.00  0.00    -0.028 C 
BRANCH  22  23
ATOM     23  C   UNL     1      84.310  90.671  85.791  1.00  0.00     0.005 C 
ATOM     24  C   UNL     1      84.865  89.233  85.965  1.00  0.00     0.012 C 
ATOM     25  C   UNL     1      85.368  91.645  85.204  1.00  0.00     0.012 C 
ENDBRANCH  22  23
ENDBRANCH  20  21
ENDBRANCH  19  20
ENDBRANCH  18  19
ENDBRANCH   1  18
TORSDOF 11
ENDMDL
MODEL 3
REMARK VINA RESULT:    -4.978     20.350     22.468
REMARK INTER + INTRA:         -10.093
REMARK INTER:                  -8.320
REMARK INTRA:                  -1.774
REMARK UNBOUND:                -2.060
REMARK SMILES COc1cc(CNC(=O)CCCCC/C=C/C(C)C)ccc1O
REMARK SMILES IDX 11 1 10 2 8 3 7 4 9 6 6 7 5 8 3 9 22 10 4 11 21 12 20 13
REMARK SMILES IDX 2 14 1 15 23 16 12 18 13 19 14 20 15 21 16 22 17 23 18 24
REMARK SMILES IDX 19 25
REMARK H PARENT 7 5 23 17
REMARK Flexibility Score: inf
ROOT
ATOM      1  C   UNL     1      73.447  90.165  68.970  1.00  0.00     0.010 C 
ENDROOT
BRANCH   1   2
ATOM      2  C   UNL     1      73.048  88.831  69.651  1.00  0.00     0.100 C 
BRANCH   2   3
ATOM      3  C   UNL     1      72.821  87.720  68.709  1.00  0.00     0.220 C 
ATOM      4  N   UNL     1      73.689  86.671  68.675  1.00  0.00    -0.352 N 
ATOM      5  H   UNL     1      74.497  86.772  69.275  1.00  0.00     0.163 HD
ATOM      6  O   UNL     1      71.800  87.753  67.983  1.00  0.00    -0.275 OA
BRANCH   4   7
ATOM      7  C   UNL     1      73.537  85.492  67.885  1.00  0.00     0.151 C 
BRANCH   7   8
ATOM      8  C   UNL     1      74.831  84.979  67.368  1.00  0.00    -0.025 A 
ATOM      9  C   UNL     1      76.173  84.021  65.543  1.00  0.00     0.160 A 
ATOM     10  C   UNL     1      77.291  83.951  66.403  1.00  0.00     0.157 A 
ATOM     11  C   UNL     1      74.952  84.525  66.033  1.00  0.00     0.056 A 
ATOM     12  C   UNL     1      77.188  84.416  67.726  1.00  0.00     0.050 A 
ATOM     13  C   UNL     1      75.970  84.936  68.203  1.00  0.00     0.009 A 
BRANCH   9  14
ATOM     14  O   UNL     1      76.287  83.653  64.228  1.00  0.00    -0.493 OA
ATOM     15  C   UNL     1      75.102  83.048  63.683  1.00  0.00     0.278 C 
ENDBRANCH   9  14
BRANCH  10  16
ATOM     16  O   UNL     1      78.477  83.446  65.978  1.00  0.00    -0.504 OA
ATOM     17  H   UNL     1      78.705  83.837  65.131  1.00  0.00     0.293 HD
ENDBRANCH  10  16
ENDBRANCH   7   8
ENDBRANCH   4   7
ENDBRANCH   2   3
ENDBRANCH   1   2
BRANCH   1  18
ATOM     18  C   UNL     1      74.984  90.364  68.985  1.00  0.00     0.001 C 
BRANCH  18  19
ATOM     19  C   UNL     1      75.667  90.046  67.631  1.00  0.00     0.004 C 
BRANCH  19  20
ATOM     20  C   UNL     1      76.270  88.613  67.623  1.00  0.00     0.027 C 
BRANCH  20  21
ATOM     21  C   UNL     1      76.664  88.153  66.302  1.00  0.00    -0.031 C 
ATOM     22  C   UNL     1      77.206  88.975  65.386  1.00  0.00    -0.028 C 
BRANCH  22  23
ATOM     23  C   UNL     1      77.617  88.542  64.053  1.00  0.00     0.005 C 
ATOM     24  C   UNL     1      77.080  87.116  63.761  1.00  0.00     0.012 C 
ATOM     25  C   UNL     1      77.159  89.575  62.988  1.00  0.00     0.012 C 
ENDBRANCH  22  23
ENDBRANCH  20  21
ENDBRANCH  19  20
ENDBRANCH  18  19
ENDBRANCH   1  18
TORSDOF 11
ENDMDL
MODEL 4
REMARK VINA RESULT:    -4.943     20.600     23.048
REMARK INTER + INTRA:         -10.037
REMARK INTER:                  -7.893
REMARK INTRA:                  -2.144
REMARK UNBOUND:                -2.060
REMARK SMILES COc1cc(CNC(=O)CCCCC/C=C/C(C)C)ccc1O
REMARK SMILES IDX 11 1 10 2 8 3 7 4 9 6 6 7 5 8 3 9 22 10 4 11 21 12 20 13
REMARK SMILES IDX 2 14 1 15 23 16 12 18 13 19 14 20 15 21 16 22 17 23 18 24
REMARK SMILES IDX 19 25
REMARK H PARENT 7 5 23 17
REMARK Flexibility Score: inf
ROOT
ATOM      1  C   UNL     1      74.139  91.591  65.216  1.00  0.00     0.010 C 
ENDROOT
BRANCH   1   2
ATOM      2  C   UNL     1      73.455  90.537  64.307  1.00  0.00     0.100 C 
BRANCH   2   3
ATOM      3  C   UNL     1      74.387  89.558  63.717  1.00  0.00     0.220 C 
ATOM      4  N   UNL     1      75.717  89.843  63.649  1.00  0.00    -0.352 N 
ATOM      5  H   UNL     1      75.965  90.773  63.957  1.00  0.00     0.163 HD
ATOM      6  O   UNL     1      73.927  88.459  63.326  1.00  0.00    -0.275 OA
BRANCH   4   7
ATOM      7  C   UNL     1      76.734  88.952  63.195  1.00  0.00     0.151 C 
BRANCH   7   8
ATOM      8  C   UNL     1      77.313  88.136  64.294  1.00  0.00    -0.025 A 
ATOM      9  C   UNL     1      77.895  85.947  65.251  1.00  0.00     0.160 A 
ATOM     10  C   UNL     1      78.371  86.584  66.417  1.00  0.00     0.157 A 
ATOM     11  C   UNL     1      77.363  86.726  64.203  1.00  0.00     0.056 A 
ATOM     12  C   UNL     1      78.342  87.988  66.511  1.00  0.00     0.050 A 
ATOM     13  C   UNL     1      77.827  88.759  65.453  1.00  0.00     0.009 A 
BRANCH   9  14
ATOM     14  O   UNL     1      77.999  84.588  65.113  1.00  0.00    -0.493 OA
ATOM     15  C   UNL     1      76.901  83.983  64.409  1.00  0.00     0.278 C 
ENDBRANCH   9  14
BRANCH  10  16
ATOM     16  O   UNL     1      78.865  85.870  67.460  1.00  0.00    -0.504 OA
ATOM     17  H   UNL     1      79.148  86.471  68.153  1.00  0.00     0.293 HD
ENDBRANCH  10  16
ENDBRANCH   7   8
ENDBRANCH   4   7
ENDBRANCH   2   3
ENDBRANCH   1   2
BRANCH   1  18
ATOM     18  C   UNL     1      74.023  91.199  66.711  1.00  0.00     0.001 C 
BRANCH  18  19
ATOM     19  C   UNL     1      75.354  90.700  67.330  1.00  0.00     0.004 C 
BRANCH  19  20
ATOM     20  C   UNL     1      75.107  89.920  68.652  1.00  0.00     0.027 C 
BRANCH  20  21
ATOM     21  C   UNL     1      74.481  88.623  68.457  1.00  0.00    -0.031 C 
ATOM     22  C   UNL     1      75.085  87.628  67.783  1.00  0.00    -0.028 C 
BRANCH  22  23
ATOM     23  C   UNL     1      74.485  86.312  67.575  1.00  0.00     0.005 C 
ATOM     24  C   UNL     1      75.417  85.203  68.131  1.00  0.00     0.012 C 
ATOM     25  C   UNL     1      73.068  86.262  68.207  1.00  0.00     0.012 C 
ENDBRANCH  22  23
ENDBRANCH  20  21
ENDBRANCH  19  20
ENDBRANCH  18  19
ENDBRANCH   1  18
TORSDOF 11
ENDMDL
MODEL 5
REMARK VINA RESULT:    -4.887     20.529     23.757
REMARK INTER + INTRA:          -9.947
REMARK INTER:                  -8.795
REMARK INTRA:                  -1.152
REMARK UNBOUND:                -2.060
REMARK SMILES COc1cc(CNC(=O)CCCCC/C=C/C(C)C)ccc1O
REMARK SMILES IDX 11 1 10 2 8 3 7 4 9 6 6 7 5 8 3 9 22 10 4 11 21 12 20 13
REMARK SMILES IDX 2 14 1 15 23 16 12 18 13 19 14 20 15 21 16 22 17 23 18 24
REMARK SMILES IDX 19 25
REMARK H PARENT 7 5 23 17
REMARK Flexibility Score: inf
ROOT
ATOM      1  C   UNL     1      71.421  86.181  66.673  1.00  0.00     0.010 C 
ENDROOT
BRANCH   1   2
ATOM      2  C   UNL     1      71.938  87.191  67.730  1.00  0.00     0.100 C 
BRANCH   2   3
ATOM      3  C   UNL     1      73.164  86.756  68.426  1.00  0.00     0.220 C 
ATOM      4  N   UNL     1      73.597  85.471  68.298  1.00  0.00    -0.352 N 
ATOM      5  H   UNL     1      72.979  84.869  67.771  1.00  0.00     0.163 HD
ATOM      6  O   UNL     1      73.803  87.604  69.092  1.00  0.00    -0.275 OA
BRANCH   4   7
ATOM      7  C   UNL     1      74.810  84.948  68.835  1.00  0.00     0.151 C 
BRANCH   7   8
ATOM      8  C   UNL     1      75.904  84.894  67.830  1.00  0.00    -0.025 A 
ATOM      9  C   UNL     1      77.050  83.749  65.979  1.00  0.00     0.160 A 
ATOM     10  C   UNL     1      78.024  84.771  65.951  1.00  0.00     0.157 A 
ATOM     11  C   UNL     1      76.004  83.813  66.922  1.00  0.00     0.056 A 
ATOM     12  C   UNL     1      77.925  85.859  66.838  1.00  0.00     0.050 A 
ATOM     13  C   UNL     1      76.867  85.925  67.763  1.00  0.00     0.009 A 
BRANCH   9  14
ATOM     14  O   UNL     1      77.087  82.731  65.063  1.00  0.00    -0.493 OA
ATOM     15  C   UNL     1      75.810  82.126  64.804  1.00  0.00     0.278 C 
ENDBRANCH   9  14
BRANCH  10  16
ATOM     16  O   UNL     1      79.061  84.732  65.078  1.00  0.00    -0.504 OA
ATOM     17  H   UNL     1      79.440  83.849  65.071  1.00  0.00     0.293 HD
ENDBRANCH  10  16
ENDBRANCH   7   8
ENDBRANCH   4   7
ENDBRANCH   2   3
ENDBRANCH   1   2
BRANCH   1  18
ATOM     18  C   UNL     1      69.975  85.725  66.996  1.00  0.00     0.001 C 
BRANCH  18  19
ATOM     19  C   UNL     1      69.904  84.438  67.855  1.00  0.00     0.004 C 
BRANCH  19  20
ATOM     20  C   UNL     1      68.977  83.373  67.206  1.00  0.00     0.027 C 
BRANCH  20  21
ATOM     21  C   UNL     1      69.217  83.176  65.787  1.00  0.00    -0.031 C 
ATOM     22  C   UNL     1      70.231  82.422  65.327  1.00  0.00    -0.028 C 
BRANCH  22  23
ATOM     23  C   UNL     1      70.496  82.201  63.908  1.00  0.00     0.005 C 
ATOM     24  C   UNL     1      71.178  80.823  63.696  1.00  0.00     0.012 C 
ATOM     25  C   UNL     1      69.184  82.342  63.088  1.00  0.00     0.012 C 
ENDBRANCH  22  23
ENDBRANCH  20  21
ENDBRANCH  19  20
ENDBRANCH  18  19
ENDBRANCH   1  18
TORSDOF 11
ENDMDL
MODEL 6
REMARK VINA RESULT:    -4.878     25.829     27.853
REMARK INTER + INTRA:          -9.932
REMARK INTER:                  -8.286
REMARK INTRA:                  -1.646
REMARK UNBOUND:                -2.060
REMARK SMILES COc1cc(CNC(=O)CCCCC/C=C/C(C)C)ccc1O
REMARK SMILES IDX 11 1 10 2 8 3 7 4 9 6 6 7 5 8 3 9 22 10 4 11 21 12 20 13
REMARK SMILES IDX 2 14 1 15 23 16 12 18 13 19 14 20 15 21 16 22 17 23 18 24
REMARK SMILES IDX 19 25
REMARK H PARENT 7 5 23 17
REMARK Flexibility Score: inf
ROOT
ATOM      1  C   UNL     1      80.553  66.925  71.627  1.00  0.00     0.010 C 
ENDROOT
BRANCH   1   2
ATOM      2  C   UNL     1      80.567  67.416  73.097  1.00  0.00     0.100 C 
BRANCH   2   3
ATOM      3  C   UNL     1      80.911  66.369  74.077  1.00  0.00     0.220 C 
ATOM      4  N   UNL     1      81.202  65.109  73.648  1.00  0.00    -0.352 N 
ATOM      5  H   UNL     1      81.085  64.965  72.655  1.00  0.00     0.163 HD
ATOM      6  O   UNL     1      80.966  66.682  75.290  1.00  0.00    -0.275 OA
BRANCH   4   7
ATOM      7  C   UNL     1      81.642  64.033  74.475  1.00  0.00     0.151 C 
BRANCH   7   8
ATOM      8  C   UNL     1      83.120  63.996  74.628  1.00  0.00    -0.025 A 
ATOM      9  C   UNL     1      85.115  63.547  75.993  1.00  0.00     0.160 A 
ATOM     10  C   UNL     1      85.938  63.979  74.930  1.00  0.00     0.157 A 
ATOM     11  C   UNL     1      83.714  63.567  75.837  1.00  0.00     0.056 A 
ATOM     12  C   UNL     1      85.358  64.392  73.717  1.00  0.00     0.050 A 
ATOM     13  C   UNL     1      83.960  64.390  73.562  1.00  0.00     0.009 A 
BRANCH   9  14
ATOM     14  O   UNL     1      85.672  63.061  77.146  1.00  0.00    -0.493 OA
ATOM     15  C   UNL     1      85.144  63.650  78.347  1.00  0.00     0.278 C 
ENDBRANCH   9  14
BRANCH  10  16
ATOM     16  O   UNL     1      87.290  64.002  75.049  1.00  0.00    -0.504 OA
ATOM     17  H   UNL     1      87.566  64.857  75.388  1.00  0.00     0.293 HD
ENDBRANCH  10  16
ENDBRANCH   7   8
ENDBRANCH   4   7
ENDBRANCH   2   3
ENDBRANCH   1   2
BRANCH   1  18
ATOM     18  C   UNL     1      81.334  67.897  70.705  1.00  0.00     0.001 C 
BRANCH  18  19
ATOM     19  C   UNL     1      82.695  68.352  71.290  1.00  0.00     0.004 C 
BRANCH  19  20
ATOM     20  C   UNL     1      83.726  67.189  71.297  1.00  0.00     0.027 C 
BRANCH  20  21
ATOM     21  C   UNL     1      83.815  66.479  70.033  1.00  0.00    -0.031 C 
ATOM     22  C   UNL     1      83.486  65.181  69.913  1.00  0.00    -0.028 C 
BRANCH  22  23
ATOM     23  C   UNL     1      83.559  64.440  68.656  1.00  0.00     0.005 C 
ATOM     24  C   UNL     1      82.133  64.082  68.159  1.00  0.00     0.012 C 
ATOM     25  C   UNL     1      84.365  65.247  67.603  1.00  0.00     0.012 C 
ENDBRANCH  22  23
ENDBRANCH  20  21
ENDBRANCH  19  20
ENDBRANCH  18  19
ENDBRANCH   1  18
TORSDOF 11
ENDMDL
MODEL 7
REMARK VINA RESULT:    -4.863      2.205      2.574
REMARK INTER + INTRA:          -9.907
REMARK INTER:                  -8.723
REMARK INTRA:                  -1.184
REMARK UNBOUND:                -2.060
REMARK SMILES COc1cc(CNC(=O)CCCCC/C=C/C(C)C)ccc1O
REMARK SMILES IDX 11 1 10 2 8 3 7 4 9 6 6 7 5 8 3 9 22 10 4 11 21 12 20 13
REMARK SMILES IDX 2 14 1 15 23 16 12 18 13 19 14 20 15 21 16 22 17 23 18 24
REMARK SMILES IDX 19 25
REMARK H PARENT 7 5 23 17
REMARK Flexibility Score: inf
ROOT
ATOM      1  C   UNL     1      80.879  86.550  83.977  1.00  0.00     0.010 C 
ENDROOT
BRANCH   1   2
ATOM      2  C   UNL     1      80.413  85.792  85.246  1.00  0.00     0.100 C 
BRANCH   2   3
ATOM      3  C   UNL     1      81.268  86.015  86.427  1.00  0.00     0.220 C 
ATOM      4  N   UNL     1      80.765  86.659  87.516  1.00  0.00    -0.352 N 
ATOM      5  H   UNL     1      79.825  87.012  87.400  1.00  0.00     0.163 HD
ATOM      6  O   UNL     1      82.438  85.564  86.409  1.00  0.00    -0.275 OA
BRANCH   4   7
ATOM      7  C   UNL     1      81.449  86.854  88.753  1.00  0.00     0.151 C 
BRANCH   7   8
ATOM      8  C   UNL     1      80.571  87.426  89.808  1.00  0.00    -0.025 A 
ATOM      9  C   UNL     1      78.761  87.167  91.452  1.00  0.00     0.160 A 
ATOM     10  C   UNL     1      78.865  88.537  91.780  1.00  0.00     0.157 A 
ATOM     11  C   UNL     1      79.608  86.625  90.464  1.00  0.00     0.056 A 
ATOM     12  C   UNL     1      79.831  89.339  91.146  1.00  0.00     0.050 A 
ATOM     13  C   UNL     1      80.686  88.785  90.175  1.00  0.00     0.009 A 
BRANCH   9  14
ATOM     14  O   UNL     1      77.884  86.358  92.125  1.00  0.00    -0.493 OA
ATOM     15  C   UNL     1      78.310  84.989  92.230  1.00  0.00     0.278 C 
ENDBRANCH   9  14
BRANCH  10  16
ATOM     16  O   UNL     1      78.050  89.104  92.705  1.00  0.00    -0.504 OA
ATOM     17  H   UNL     1      78.144  88.640  93.541  1.00  0.00     0.293 HD
ENDBRANCH  10  16
ENDBRANCH   7   8
ENDBRANCH   4   7
ENDBRANCH   2   3
ENDBRANCH   1   2
BRANCH   1  18
ATOM     18  C   UNL     1      79.862  87.649  83.576  1.00  0.00     0.001 C 
BRANCH  18  19
ATOM     19  C   UNL     1      79.798  88.832  84.574  1.00  0.00     0.004 C 
BRANCH  19  20
ATOM     20  C   UNL     1      80.966  89.832  84.345  1.00  0.00     0.027 C 
BRANCH  20  21
ATOM     21  C   UNL     1      81.882  89.927  85.468  1.00  0.00    -0.031 C 
ATOM     22  C   UNL     1      83.171  90.279  85.317  1.00  0.00    -0.028 C 
BRANCH  22  23
ATOM     23  C   UNL     1      84.116  90.389  86.425  1.00  0.00     0.005 C 
ATOM     24  C   UNL     1      83.504  89.782  87.716  1.00  0.00     0.012 C 
ATOM     25  C   UNL     1      85.468  89.727  86.046  1.00  0.00     0.012 C 
ENDBRANCH  22  23
ENDBRANCH  20  21
ENDBRANCH  19  20
ENDBRANCH  18  19
ENDBRANCH   1  18
TORSDOF 11
ENDMDL
MODEL 8
REMARK VINA RESULT:    -4.838     19.482     22.924
REMARK INTER + INTRA:          -9.867
REMARK INTER:                  -8.152
REMARK INTRA:                  -1.715
REMARK UNBOUND:                -2.060
REMARK SMILES COc1cc(CNC(=O)CCCCC/C=C/C(C)C)ccc1O
REMARK SMILES IDX 11 1 10 2 8 3 7 4 9 6 6 7 5 8 3 9 22 10 4 11 21 12 20 13
REMARK SMILES IDX 2 14 1 15 23 16 12 18 13 19 14 20 15 21 16 22 17 23 18 24
REMARK SMILES IDX 19 25
REMARK H PARENT 7 5 23 17
REMARK Flexibility Score: inf
ROOT
ATOM      1  C   UNL     1      63.325  86.866  78.094  1.00  0.00     0.010 C 
ENDROOT
BRANCH   1   2
ATOM      2  C   UNL     1      62.333  87.038  76.915  1.00  0.00     0.100 C 
BRANCH   2   3
ATOM      3  C   UNL     1      61.662  85.790  76.508  1.00  0.00     0.220 C 
ATOM      4  N   UNL     1      62.380  84.638  76.399  1.00  0.00    -0.352 N 
ATOM      5  H   UNL     1      63.375  84.746  76.543  1.00  0.00     0.163 HD
ATOM      6  O   UNL     1      60.424  85.817  76.309  1.00  0.00    -0.275 OA
BRANCH   4   7
ATOM      7  C   UNL     1      61.842  83.349  76.111  1.00  0.00     0.151 C 
BRANCH   7   8
ATOM      8  C   UNL     1      62.766  82.510  75.305  1.00  0.00    -0.025 A 
ATOM      9  C   UNL     1      63.290  81.295  73.232  1.00  0.00     0.160 A 
ATOM     10  C   UNL     1      64.511  80.864  73.794  1.00  0.00     0.157 A 
ATOM     11  C   UNL     1      62.424  82.105  73.993  1.00  0.00     0.056 A 
ATOM     12  C   UNL     1      64.870  81.274  75.091  1.00  0.00     0.050 A 
ATOM     13  C   UNL     1      64.009  82.100  75.837  1.00  0.00     0.009 A 
BRANCH   9  14
ATOM     14  O   UNL     1      62.971  80.974  71.939  1.00  0.00    -0.493 OA
ATOM     15  C   UNL     1      62.936  82.100  71.046  1.00  0.00     0.278 C 
ENDBRANCH   9  14
BRANCH  10  16
ATOM     16  O   UNL     1      65.360  80.061  73.105  1.00  0.00    -0.504 OA
ATOM     17  H   UNL     1      65.545  80.452  72.247  1.00  0.00     0.293 HD
ENDBRANCH  10  16
ENDBRANCH   7   8
ENDBRANCH   4   7
ENDBRANCH   2   3
ENDBRANCH   1   2
BRANCH   1  18
ATOM     18  C   UNL     1      64.750  87.332  77.700  1.00  0.00     0.001 C 
BRANCH  18  19
ATOM     19  C   UNL     1      65.847  86.268  77.958  1.00  0.00     0.004 C 
BRANCH  19  20
ATOM     20  C   UNL     1      67.098  86.517  77.069  1.00  0.00     0.027 C 
BRANCH  20  21
ATOM     21  C   UNL     1      66.827  86.432  75.644  1.00  0.00    -0.031 C 
ATOM     22  C   UNL     1      65.981  85.524  75.125  1.00  0.00    -0.028 C 
BRANCH  22  23
ATOM     23  C   UNL     1      65.684  85.417  73.699  1.00  0.00     0.005 C 
ATOM     24  C   UNL     1      64.150  85.437  73.466  1.00  0.00     0.012 C 
ATOM     25  C   UNL     1      66.415  86.539  72.913  1.00  0.00     0.012 C 
ENDBRANCH  22  23
ENDBRANCH  20  21
ENDBRANCH  19  20
ENDBRANCH  18  19
ENDBRANCH   1  18
TORSDOF 11
ENDMDL
MODEL 9
REMARK VINA RESULT:    -4.825      2.766      6.370
REMARK INTER + INTRA:          -9.846
REMARK INTER:                  -8.469
REMARK INTRA:                  -1.377
REMARK UNBOUND:                -2.060
REMARK SMILES COc1cc(CNC(=O)CCCCC/C=C/C(C)C)ccc1O
REMARK SMILES IDX 11 1 10 2 8 3 7 4 9 6 6 7 5 8 3 9 22 10 4 11 21 12 20 13
REMARK SMILES IDX 2 14 1 15 23 16 12 18 13 19 14 20 15 21 16 22 17 23 18 24
REMARK SMILES IDX 19 25
REMARK H PARENT 7 5 23 17
REMARK Flexibility Score: inf
ROOT
ATOM      1  C   UNL     1      82.277  91.968  88.320  1.00  0.00     0.010 C 
ENDROOT
BRANCH   1   2
ATOM      2  C   UNL     1      83.572  92.415  87.593  1.00  0.00     0.100 C 
BRANCH   2   3
ATOM      3  C   UNL     1      84.046  91.462  86.572  1.00  0.00     0.220 C 
ATOM      4  N   UNL     1      83.620  90.169  86.602  1.00  0.00    -0.352 N 
ATOM      5  H   UNL     1      83.044  89.933  87.398  1.00  0.00     0.163 HD
ATOM      6  O   UNL     1      84.805  91.886  85.669  1.00  0.00    -0.275 OA
BRANCH   4   7
ATOM      7  C   UNL     1      83.922  89.174  85.626  1.00  0.00     0.151 C 
BRANCH   7   8
ATOM      8  C   UNL     1      82.876  88.123  85.537  1.00  0.00    -0.025 A 
ATOM      9  C   UNL     1      80.702  87.338  84.695  1.00  0.00     0.160 A 
ATOM     10  C   UNL     1      80.858  86.134  85.417  1.00  0.00     0.157 A 
ATOM     11  C   UNL     1      81.706  88.325  84.768  1.00  0.00     0.056 A 
ATOM     12  C   UNL     1      82.025  85.915  86.172  1.00  0.00     0.050 A 
ATOM     13  C   UNL     1      83.031  86.898  86.223  1.00  0.00     0.009 A 
BRANCH   9  14
ATOM     14  O   UNL     1      79.612  87.525  83.888  1.00  0.00    -0.493 OA
ATOM     15  C   UNL     1      79.826  87.155  82.516  1.00  0.00     0.278 C 
ENDBRANCH   9  14
BRANCH  10  16
ATOM     16  O   UNL     1      79.903  85.171  85.397  1.00  0.00    -0.504 OA
ATOM     17  H   UNL     1      80.248  84.388  84.962  1.00  0.00     0.293 HD
ENDBRANCH  10  16
ENDBRANCH   7   8
ENDBRANCH   4   7
ENDBRANCH   2   3
ENDBRANCH   1   2
BRANCH   1  18
ATOM     18  C   UNL     1      81.682  93.125  89.164  1.00  0.00     0.001 C 
BRANCH  18  19
ATOM     19  C   UNL     1      80.744  92.648  90.301  1.00  0.00     0.004 C 
BRANCH  19  20
ATOM     20  C   UNL     1      79.703  91.616  89.783  1.00  0.00     0.027 C 
BRANCH  20  21
ATOM     21  C   UNL     1      80.015  90.242  90.140  1.00  0.00    -0.031 C 
ATOM     22  C   UNL     1      79.838  89.219  89.285  1.00  0.00    -0.028 C 
BRANCH  22  23
ATOM     23  C   UNL     1      80.146  87.829  89.611  1.00  0.00     0.005 C 
ATOM     24  C   UNL     1      79.453  86.874  88.603  1.00  0.00     0.012 C 
ATOM     25  C   UNL     1      81.684  87.618  89.661  1.00  0.00     0.012 C 
ENDBRANCH  22  23
ENDBRANCH  20  21
ENDBRANCH  19  20
ENDBRANCH  18  19
ENDBRANCH   1  18
TORSDOF 11
ENDMDL
MODEL 10
REMARK VINA RESULT:    -4.797      1.849      2.298
REMARK INTER + INTRA:          -9.801
REMARK INTER:                  -8.701
REMARK INTRA:                  -1.100
REMARK UNBOUND:                -2.060
REMARK SMILES COc1cc(CNC(=O)CCCCC/C=C/C(C)C)ccc1O
REMARK SMILES IDX 11 1 10 2 8 3 7 4 9 6 6 7 5 8 3 9 22 10 4 11 21 12 20 13
REMARK SMILES IDX 2 14 1 15 23 16 12 18 13 19 14 20 15 21 16 22 17 23 18 24
REMARK SMILES IDX 19 25
REMARK H PARENT 7 5 23 17
REMARK Flexibility Score: inf
ROOT
ATOM      1  C   UNL     1      80.931  86.367  84.005  1.00  0.00     0.010 C 
ENDROOT
BRANCH   1   2
ATOM      2  C   UNL     1      80.625  85.786  85.409  1.00  0.00     0.100 C 
BRANCH   2   3
ATOM      3  C   UNL     1      81.472  86.336  86.484  1.00  0.00     0.220 C 
ATOM      4  N   UNL     1      80.927  87.159  87.423  1.00  0.00    -0.352 N 
ATOM      5  H   UNL     1      79.957  87.397  87.263  1.00  0.00     0.163 HD
ATOM      6  O   UNL     1      82.677  85.993  86.528  1.00  0.00    -0.275 OA
BRANCH   4   7
ATOM      7  C   UNL     1      81.605  87.680  88.564  1.00  0.00     0.151 C 
BRANCH   7   8
ATOM      8  C   UNL     1      80.892  87.390  89.835  1.00  0.00    -0.025 A 
ATOM      9  C   UNL     1      80.653  87.685  92.265  1.00  0.00     0.160 A 
ATOM     10  C   UNL     1      79.559  86.792  92.265  1.00  0.00     0.157 A 
ATOM     11  C   UNL     1      81.315  87.970  91.054  1.00  0.00     0.056 A 
ATOM     12  C   UNL     1      79.119  86.222  91.056  1.00  0.00     0.050 A 
ATOM     13  C   UNL     1      79.774  86.527  89.848  1.00  0.00     0.009 A 
BRANCH   9  14
ATOM     14  O   UNL     1      81.034  88.312  93.422  1.00  0.00    -0.493 OA
ATOM     15  C   UNL     1      81.753  89.540  93.215  1.00  0.00     0.278 C 
ENDBRANCH   9  14
BRANCH  10  16
ATOM     16  O   UNL     1      78.913  86.469  93.413  1.00  0.00    -0.504 OA
ATOM     17  H   UNL     1      78.050  86.890  93.423  1.00  0.00     0.293 HD
ENDBRANCH  10  16
ENDBRANCH   7   8
ENDBRANCH   4   7
ENDBRANCH   2   3
ENDBRANCH   1   2
BRANCH   1  18
ATOM     18  C   UNL     1      79.841  87.380  83.570  1.00  0.00     0.001 C 
BRANCH  18  19
ATOM     19  C   UNL     1      79.811  88.670  84.429  1.00  0.00     0.004 C 
BRANCH  19  20
ATOM     20  C   UNL     1      80.935  89.658  84.007  1.00  0.00     0.027 C 
BRANCH  20  21
ATOM     21  C   UNL     1      81.938  89.875  85.036  1.00  0.00    -0.031 C 
ATOM     22  C   UNL     1      83.109  90.485  84.780  1.00  0.00    -0.028 C 
BRANCH  22  23
ATOM     23  C   UNL     1      84.135  90.723  85.792  1.00  0.00     0.005 C 
ATOM     24  C   UNL     1      84.289  89.478  86.706  1.00  0.00     0.012 C 
ATOM     25  C   UNL     1      85.474  91.127  85.116  1.00  0.00     0.012 C 
ENDBRANCH  22  23
ENDBRANCH  20  21
ENDBRANCH  19  20
ENDBRANCH  18  19
ENDBRANCH   1  18
TORSDOF 11
ENDMDL
