MODEL 1
REMARK VINA RESULT:    -6.646      0.000      0.000
REMARK INTER + INTRA:         -10.883
REMARK INTER:                 -10.338
REMARK INTRA:                  -0.545
REMARK UNBOUND:                -0.545
REMARK SMILES COc1cc(CNC(=O)CCCCCC(C)C)ccc1O
REMARK SMILES IDX 10 1 8 2 7 3 9 5 6 6 5 7 3 8 20 9 4 10 19 11 18 12 2 13 1 14
REMARK SMILES IDX 21 15 11 17 12 18 13 19 14 20 15 21 16 22 17 23
REMARK H PARENT 7 4 21 16
REMARK Flexibility Score: inf
ROOT
ATOM      1  C   UNL     1      91.510  94.807  77.514  1.00  0.00     0.100 C 
ENDROOT
BRANCH   1   2
ATOM      2  C   UNL     1      92.937  95.172  77.403  1.00  0.00     0.220 C 
ATOM      3  N   UNL     1      93.876  94.402  78.022  1.00  0.00    -0.352 N 
ATOM      4  H   UNL     1      93.504  93.692  78.637  1.00  0.00     0.163 HD
ATOM      5  O   UNL     1      93.260  96.163  76.703  1.00  0.00    -0.275 OA
BRANCH   3   6
ATOM      6  C   UNL     1      95.288  94.536  77.858  1.00  0.00     0.151 C 
BRANCH   6   7
ATOM      7  C   UNL     1      95.876  95.605  78.708  1.00  0.00    -0.025 A 
ATOM      8  C   UNL     1      96.683  96.389  80.895  1.00  0.00     0.160 A 
ATOM      9  C   UNL     1      97.059  97.618  80.314  1.00  0.00     0.157 A 
ATOM     10  C   UNL     1      96.077  95.398  80.094  1.00  0.00     0.056 A 
ATOM     11  C   UNL     1      96.840  97.845  78.943  1.00  0.00     0.050 A 
ATOM     12  C   UNL     1      96.258  96.845  78.145  1.00  0.00     0.009 A 
BRANCH   8  13
ATOM     13  O   UNL     1      96.870  96.155  82.232  1.00  0.00    -0.493 OA
ATOM     14  C   UNL     1      98.147  95.569  82.548  1.00  0.00     0.278 C 
ENDBRANCH   8  13
BRANCH   9  15
ATOM     15  O   UNL     1      97.640  98.578  81.076  1.00  0.00    -0.504 OA
ATOM     16  H   UNL     1      97.635  98.303  81.996  1.00  0.00     0.293 HD
ENDBRANCH   9  15
ENDBRANCH   6   7
ENDBRANCH   3   6
ENDBRANCH   1   2
BRANCH   1  17
ATOM     17  C   UNL     1      90.662  95.157  76.262  1.00  0.00     0.010 C 
BRANCH  17  18
ATOM     18  C   UNL     1      91.124  94.355  75.014  1.00  0.00     0.001 C 
BRANCH  18  19
ATOM     19  C   UNL     1      89.976  93.567  74.328  1.00  0.00     0.000 C 
BRANCH  19  20
ATOM     20  C   UNL     1      90.334  92.067  74.121  1.00  0.00     0.003 C 
BRANCH  20  21
ATOM     21  C   UNL     1      89.535  91.068  75.020  1.00  0.00    -0.017 C 
ATOM     22  C   UNL     1      89.625  91.476  76.520  1.00  0.00     0.007 C 
ATOM     23  C   UNL     1      89.996  89.592  74.840  1.00  0.00     0.007 C 
ENDBRANCH  20  21
ENDBRANCH  19  20
ENDBRANCH  18  19
ENDBRANCH  17  18
ENDBRANCH   1  17
TORSDOF 10
ENDMDL
MODEL 2
REMARK VINA RESULT:    -6.416     16.076     18.460
REMARK INTER + INTRA:         -10.525
REMARK INTER:                  -9.896
REMARK INTRA:                  -0.629
REMARK UNBOUND:                -0.545
REMARK SMILES COc1cc(CNC(=O)CCCCCC(C)C)ccc1O
REMARK SMILES IDX 10 1 8 2 7 3 9 5 6 6 5 7 3 8 20 9 4 10 19 11 18 12 2 13 1 14
REMARK SMILES IDX 21 15 11 17 12 18 13 19 14 20 15 21 16 22 17 23
REMARK H PARENT 7 4 21 16
REMARK Flexibility Score: inf
ROOT
ATOM      1  C   UNL     1      91.702  74.683  81.532  1.00  0.00     0.100 C 
ENDROOT
BRANCH   1   2
ATOM      2  C   UNL     1      90.739  75.087  82.578  1.00  0.00     0.220 C 
ATOM      3  N   UNL     1      91.031  76.147  83.383  1.00  0.00    -0.352 N 
ATOM      4  H   UNL     1      91.970  76.507  83.289  1.00  0.00     0.163 HD
ATOM      5  O   UNL     1      89.650  74.471  82.674  1.00  0.00    -0.275 OA
BRANCH   3   6
ATOM      6  C   UNL     1      90.127  76.749  84.309  1.00  0.00     0.151 C 
BRANCH   6   7
ATOM      7  C   UNL     1      90.076  78.232  84.197  1.00  0.00    -0.025 A 
ATOM      8  C   UNL     1      88.783  80.322  84.115  1.00  0.00     0.160 A 
ATOM      9  C   UNL     1      89.983  81.060  84.050  1.00  0.00     0.157 A 
ATOM     10  C   UNL     1      88.836  78.913  84.169  1.00  0.00     0.056 A 
ATOM     11  C   UNL     1      91.222  80.392  84.050  1.00  0.00     0.050 A 
ATOM     12  C   UNL     1      91.269  78.990  84.128  1.00  0.00     0.009 A 
BRANCH   8  13
ATOM     13  O   UNL     1      87.566  80.952  84.096  1.00  0.00    -0.493 OA
ATOM     14  C   UNL     1      86.931  80.953  82.803  1.00  0.00     0.278 C 
ENDBRANCH   8  13
BRANCH   9  15
ATOM     15  O   UNL     1      89.943  82.415  83.995  1.00  0.00    -0.504 OA
ATOM     16  H   UNL     1      89.096  82.724  84.325  1.00  0.00     0.293 HD
ENDBRANCH   9  15
ENDBRANCH   6   7
ENDBRANCH   3   6
ENDBRANCH   1   2
BRANCH   1  17
ATOM     17  C   UNL     1      91.722  75.612  80.289  1.00  0.00     0.010 C 
BRANCH  17  18
ATOM     18  C   UNL     1      90.745  75.117  79.188  1.00  0.00     0.001 C 
BRANCH  18  19
ATOM     19  C   UNL     1      91.229  75.430  77.747  1.00  0.00     0.000 C 
BRANCH  19  20
ATOM     20  C   UNL     1      91.283  76.959  77.464  1.00  0.00     0.003 C 
BRANCH  20  21
ATOM     21  C   UNL     1      90.463  77.429  76.219  1.00  0.00    -0.017 C 
ATOM     22  C   UNL     1      89.963  76.210  75.390  1.00  0.00     0.007 C 
ATOM     23  C   UNL     1      91.260  78.405  75.305  1.00  0.00     0.007 C 
ENDBRANCH  20  21
ENDBRANCH  19  20
ENDBRANCH  18  19
ENDBRANCH  17  18
ENDBRANCH   1  17
TORSDOF 10
ENDMDL
MODEL 3
REMARK VINA RESULT:    -6.365     28.239     32.902
REMARK INTER + INTRA:         -10.446
REMARK INTER:                  -9.815
REMARK INTRA:                  -0.630
REMARK UNBOUND:                -0.545
REMARK SMILES COc1cc(CNC(=O)CCCCCC(C)C)ccc1O
REMARK SMILES IDX 10 1 8 2 7 3 9 5 6 6 5 7 3 8 20 9 4 10 19 11 18 12 2 13 1 14
REMARK SMILES IDX 21 15 11 17 12 18 13 19 14 20 15 21 16 22 17 23
REMARK H PARENT 7 4 21 16
REMARK Flexibility Score: inf
ROOT
ATOM      1  C   UNL     1      79.128  64.992  70.086  1.00  0.00     0.100 C 
ENDROOT
BRANCH   1   2
ATOM      2  C   UNL     1      80.494  64.488  70.336  1.00  0.00     0.220 C 
ATOM      3  N   UNL     1      81.310  65.162  71.195  1.00  0.00    -0.352 N 
ATOM      4  H   UNL     1      80.955  66.056  71.505  1.00  0.00     0.163 HD
ATOM      5  O   UNL     1      80.861  63.422  69.784  1.00  0.00    -0.275 OA
BRANCH   3   6
ATOM      6  C   UNL     1      82.578  64.699  71.659  1.00  0.00     0.151 C 
BRANCH   6   7
ATOM      7  C   UNL     1      83.166  65.564  72.717  1.00  0.00    -0.025 A 
ATOM      8  C   UNL     1      84.332  67.624  73.382  1.00  0.00     0.160 A 
ATOM      9  C   UNL     1      84.225  67.245  74.737  1.00  0.00     0.157 A 
ATOM     10  C   UNL     1      83.819  66.774  72.380  1.00  0.00     0.056 A 
ATOM     11  C   UNL     1      83.601  66.031  75.081  1.00  0.00     0.050 A 
ATOM     12  C   UNL     1      83.070  65.200  74.080  1.00  0.00     0.009 A 
BRANCH   8  13
ATOM     13  O   UNL     1      84.953  68.792  73.025  1.00  0.00    -0.493 OA
ATOM     14  C   UNL     1      84.104  69.707  72.305  1.00  0.00     0.278 C 
ENDBRANCH   8  13
BRANCH   9  15
ATOM     15  O   UNL     1      84.716  68.054  75.708  1.00  0.00    -0.504 OA
ATOM     16  H   UNL     1      85.669  68.127  75.613  1.00  0.00     0.293 HD
ENDBRANCH   9  15
ENDBRANCH   6   7
ENDBRANCH   3   6
ENDBRANCH   1   2
BRANCH   1  17
ATOM     17  C   UNL     1      78.630  64.790  68.629  1.00  0.00     0.010 C 
BRANCH  17  18
ATOM     18  C   UNL     1      77.743  63.520  68.499  1.00  0.00     0.001 C 
BRANCH  18  19
ATOM     19  C   UNL     1      77.102  63.359  67.095  1.00  0.00     0.000 C 
BRANCH  19  20
ATOM     20  C   UNL     1      75.547  63.333  67.159  1.00  0.00     0.003 C 
BRANCH  20  21
ATOM     21  C   UNL     1      74.866  64.739  67.218  1.00  0.00    -0.017 C 
ATOM     22  C   UNL     1      75.740  65.811  66.501  1.00  0.00     0.007 C 
ATOM     23  C   UNL     1      74.546  65.196  68.671  1.00  0.00     0.007 C 
ENDBRANCH  20  21
ENDBRANCH  19  20
ENDBRANCH  18  19
ENDBRANCH  17  18
ENDBRANCH   1  17
TORSDOF 10
ENDMDL
MODEL 4
REMARK VINA RESULT:    -6.309     12.116     14.257
REMARK INTER + INTRA:         -10.358
REMARK INTER:                  -9.697
REMARK INTRA:                  -0.661
REMARK UNBOUND:                -0.545
REMARK SMILES COc1cc(CNC(=O)CCCCCC(C)C)ccc1O
REMARK SMILES IDX 10 1 8 2 7 3 9 5 6 6 5 7 3 8 20 9 4 10 19 11 18 12 2 13 1 14
REMARK SMILES IDX 21 15 11 17 12 18 13 19 14 20 15 21 16 22 17 23
REMARK H PARENT 7 4 21 16
REMARK Flexibility Score: inf
ROOT
ATOM      1  C   UNL     1      97.154  82.247  82.941  1.00  0.00     0.100 C 
ENDROOT
BRANCH   1   2
ATOM      2  C   UNL     1      97.461  81.806  81.564  1.00  0.00     0.220 C 
ATOM      3  N   UNL     1      98.179  82.624  80.744  1.00  0.00    -0.352 N 
ATOM      4  H   UNL     1      98.342  83.552  81.107  1.00  0.00     0.163 HD
ATOM      5  O   UNL     1      97.088  80.667  81.192  1.00  0.00    -0.275 OA
BRANCH   3   6
ATOM      6  C   UNL     1      98.691  82.258  79.463  1.00  0.00     0.151 C 
BRANCH   6   7
ATOM      7  C   UNL     1      98.027  82.976  78.342  1.00  0.00    -0.025 A 
ATOM      8  C   UNL     1      98.001  83.702  75.992  1.00  0.00     0.160 A 
ATOM      9  C   UNL     1      96.732  84.286  76.189  1.00  0.00     0.157 A 
ATOM     10  C   UNL     1      98.649  83.068  77.074  1.00  0.00     0.056 A 
ATOM     11  C   UNL     1      96.116  84.224  77.453  1.00  0.00     0.050 A 
ATOM     12  C   UNL     1      96.756  83.570  78.519  1.00  0.00     0.009 A 
BRANCH   8  13
ATOM     13  O   UNL     1      98.627  83.769  74.775  1.00  0.00    -0.493 OA
ATOM     14  C   UNL     1      99.248  82.533  74.371  1.00  0.00     0.278 C 
ENDBRANCH   8  13
BRANCH   9  15
ATOM     15  O   UNL     1      96.102  84.900  75.157  1.00  0.00    -0.504 OA
ATOM     16  H   UNL     1      95.595  84.254  74.660  1.00  0.00     0.293 HD
ENDBRANCH   9  15
ENDBRANCH   6   7
ENDBRANCH   3   6
ENDBRANCH   1   2
BRANCH   1  17
ATOM     17  C   UNL     1      95.788  81.745  83.482  1.00  0.00     0.010 C 
BRANCH  17  18
ATOM     18  C   UNL     1      94.866  82.926  83.894  1.00  0.00     0.001 C 
BRANCH  18  19
ATOM     19  C   UNL     1      94.136  82.697  85.243  1.00  0.00     0.000 C 
BRANCH  19  20
ATOM     20  C   UNL     1      92.588  82.735  85.089  1.00  0.00     0.003 C 
BRANCH  20  21
ATOM     21  C   UNL     1      91.983  81.587  84.217  1.00  0.00    -0.017 C 
ATOM     22  C   UNL     1      90.435  81.721  84.120  1.00  0.00     0.007 C 
ATOM     23  C   UNL     1      92.366  80.170  84.734  1.00  0.00     0.007 C 
ENDBRANCH  20  21
ENDBRANCH  19  20
ENDBRANCH  18  19
ENDBRANCH  17  18
ENDBRANCH   1  17
TORSDOF 10
ENDMDL
MODEL 5
REMARK VINA RESULT:    -6.296     16.117     18.493
REMARK INTER + INTRA:         -10.338
REMARK INTER:                  -9.723
REMARK INTRA:                  -0.616
REMARK UNBOUND:                -0.545
REMARK SMILES COc1cc(CNC(=O)CCCCCC(C)C)ccc1O
REMARK SMILES IDX 10 1 8 2 7 3 9 5 6 6 5 7 3 8 20 9 4 10 19 11 18 12 2 13 1 14
REMARK SMILES IDX 21 15 11 17 12 18 13 19 14 20 15 21 16 22 17 23
REMARK H PARENT 7 4 21 16
REMARK Flexibility Score: inf
ROOT
ATOM      1  C   UNL     1      90.922  74.528  81.356  1.00  0.00     0.100 C 
ENDROOT
BRANCH   1   2
ATOM      2  C   UNL     1      91.112  75.367  82.558  1.00  0.00     0.220 C 
ATOM      3  N   UNL     1      90.025  75.918  83.168  1.00  0.00    -0.352 N 
ATOM      4  H   UNL     1      89.156  75.815  82.663  1.00  0.00     0.163 HD
ATOM      5  O   UNL     1      92.270  75.519  83.017  1.00  0.00    -0.275 OA
BRANCH   3   6
ATOM      6  C   UNL     1      90.044  76.599  84.423  1.00  0.00     0.151 C 
BRANCH   6   7
ATOM      7  C   UNL     1      89.675  78.036  84.313  1.00  0.00    -0.025 A 
ATOM      8  C   UNL     1      90.328  80.390  84.031  1.00  0.00     0.160 A 
ATOM      9  C   UNL     1      88.968  80.766  84.038  1.00  0.00     0.157 A 
ATOM     10  C   UNL     1      90.673  79.031  84.188  1.00  0.00     0.056 A 
ATOM     11  C   UNL     1      87.967  79.788  84.189  1.00  0.00     0.050 A 
ATOM     12  C   UNL     1      88.317  78.433  84.320  1.00  0.00     0.009 A 
BRANCH   8  13
ATOM     13  O   UNL     1      91.318  81.329  83.905  1.00  0.00    -0.493 OA
ATOM     14  C   UNL     1      92.515  81.015  84.642  1.00  0.00     0.278 C 
ENDBRANCH   8  13
BRANCH   9  15
ATOM     15  O   UNL     1      88.625  82.070  83.890  1.00  0.00    -0.504 OA
ATOM     16  H   UNL     1      89.187  82.614  84.446  1.00  0.00     0.293 HD
ENDBRANCH   9  15
ENDBRANCH   6   7
ENDBRANCH   3   6
ENDBRANCH   1   2
BRANCH   1  17
ATOM     17  C   UNL     1      91.314  75.223  80.024  1.00  0.00     0.010 C 
BRANCH  17  18
ATOM     18  C   UNL     1      90.668  74.518  78.800  1.00  0.00     0.001 C 
BRANCH  18  19
ATOM     19  C   UNL     1      91.118  75.113  77.439  1.00  0.00     0.000 C 
BRANCH  19  20
ATOM     20  C   UNL     1      89.962  75.861  76.713  1.00  0.00     0.003 C 
BRANCH  20  21
ATOM     21  C   UNL     1      90.376  77.200  76.019  1.00  0.00    -0.017 C 
ATOM     22  C   UNL     1      90.718  76.965  74.518  1.00  0.00     0.007 C 
ATOM     23  C   UNL     1      91.564  77.908  76.733  1.00  0.00     0.007 C 
ENDBRANCH  20  21
ENDBRANCH  19  20
ENDBRANCH  18  19
ENDBRANCH  17  18
ENDBRANCH   1  17
TORSDOF 10
ENDMDL
MODEL 6
REMARK VINA RESULT:    -6.269     27.898     31.719
REMARK INTER + INTRA:         -10.297
REMARK INTER:                  -9.720
REMARK INTRA:                  -0.576
REMARK UNBOUND:                -0.545
REMARK SMILES COc1cc(CNC(=O)CCCCCC(C)C)ccc1O
REMARK SMILES IDX 10 1 8 2 7 3 9 5 6 6 5 7 3 8 20 9 4 10 19 11 18 12 2 13 1 14
REMARK SMILES IDX 21 15 11 17 12 18 13 19 14 20 15 21 16 22 17 23
REMARK H PARENT 7 4 21 16
REMARK Flexibility Score: inf
ROOT
ATOM      1  C   UNL     1      79.689  65.389  71.193  1.00  0.00     0.100 C 
ENDROOT
BRANCH   1   2
ATOM      2  C   UNL     1      81.049  65.267  71.759  1.00  0.00     0.220 C 
ATOM      3  N   UNL     1      81.344  65.893  72.933  1.00  0.00    -0.352 N 
ATOM      4  H   UNL     1      80.628  66.519  73.272  1.00  0.00     0.163 HD
ATOM      5  O   UNL     1      81.893  64.551  71.166  1.00  0.00    -0.275 OA
BRANCH   3   6
ATOM      6  C   UNL     1      82.551  65.720  73.675  1.00  0.00     0.151 C 
BRANCH   6   7
ATOM      7  C   UNL     1      83.450  66.905  73.613  1.00  0.00    -0.025 A 
ATOM      8  C   UNL     1      85.188  68.318  74.627  1.00  0.00     0.160 A 
ATOM      9  C   UNL     1      85.208  69.121  73.467  1.00  0.00     0.157 A 
ATOM     10  C   UNL     1      84.296  67.227  74.700  1.00  0.00     0.056 A 
ATOM     11  C   UNL     1      84.352  68.825  72.390  1.00  0.00     0.050 A 
ATOM     12  C   UNL     1      83.484  67.723  72.460  1.00  0.00     0.009 A 
BRANCH   8  13
ATOM     13  O   UNL     1      85.999  68.601  75.694  1.00  0.00    -0.493 OA
ATOM     14  C   UNL     1      87.205  67.813  75.733  1.00  0.00     0.278 C 
ENDBRANCH   8  13
BRANCH   9  15
ATOM     15  O   UNL     1      86.060  70.174  73.387  1.00  0.00    -0.504 OA
ATOM     16  H   UNL     1      85.657  70.874  72.869  1.00  0.00     0.293 HD
ENDBRANCH   9  15
ENDBRANCH   6   7
ENDBRANCH   3   6
ENDBRANCH   1   2
BRANCH   1  17
ATOM     17  C   UNL     1      79.594  65.046  69.682  1.00  0.00     0.010 C 
BRANCH  17  18
ATOM     18  C   UNL     1      78.848  63.703  69.446  1.00  0.00     0.001 C 
BRANCH  18  19
ATOM     19  C   UNL     1      77.659  63.824  68.456  1.00  0.00     0.000 C 
BRANCH  19  20
ATOM     20  C   UNL     1      76.871  65.154  68.643  1.00  0.00     0.003 C 
BRANCH  20  21
ATOM     21  C   UNL     1      75.625  65.319  67.713  1.00  0.00    -0.017 C 
ATOM     22  C   UNL     1      75.030  63.931  67.331  1.00  0.00     0.007 C 
ATOM     23  C   UNL     1      75.935  66.139  66.427  1.00  0.00     0.007 C 
ENDBRANCH  20  21
ENDBRANCH  19  20
ENDBRANCH  18  19
ENDBRANCH  17  18
ENDBRANCH   1  17
TORSDOF 10
ENDMDL
MODEL 7
REMARK VINA RESULT:    -5.862     14.098     16.716
REMARK INTER + INTRA:          -9.663
REMARK INTER:                  -8.946
REMARK INTRA:                  -0.716
REMARK UNBOUND:                -0.545
REMARK SMILES COc1cc(CNC(=O)CCCCCC(C)C)ccc1O
REMARK SMILES IDX 10 1 8 2 7 3 9 5 6 6 5 7 3 8 20 9 4 10 19 11 18 12 2 13 1 14
REMARK SMILES IDX 21 15 11 17 12 18 13 19 14 20 15 21 16 22 17 23
REMARK H PARENT 7 4 21 16
REMARK Flexibility Score: inf
ROOT
ATOM      1  C   UNL     1      96.668  79.063  83.605  1.00  0.00     0.100 C 
ENDROOT
BRANCH   1   2
ATOM      2  C   UNL     1      95.362  78.484  83.984  1.00  0.00     0.220 C 
ATOM      3  N   UNL     1      94.492  79.223  84.728  1.00  0.00    -0.352 N 
ATOM      4  H   UNL     1      94.869  80.089  85.087  1.00  0.00     0.163 HD
ATOM      5  O   UNL     1      95.063  77.335  83.574  1.00  0.00    -0.275 OA
BRANCH   3   6
ATOM      6  C   UNL     1      93.142  78.859  85.016  1.00  0.00     0.151 C 
BRANCH   6   7
ATOM      7  C   UNL     1      92.165  79.932  84.685  1.00  0.00    -0.025 A 
ATOM      8  C   UNL     1      89.924  80.619  83.943  1.00  0.00     0.160 A 
ATOM      9  C   UNL     1      90.283  81.972  84.119  1.00  0.00     0.157 A 
ATOM     10  C   UNL     1      90.872  79.609  84.209  1.00  0.00     0.056 A 
ATOM     11  C   UNL     1      91.575  82.306  84.566  1.00  0.00     0.050 A 
ATOM     12  C   UNL     1      92.507  81.294  84.853  1.00  0.00     0.009 A 
BRANCH   8  13
ATOM     13  O   UNL     1      88.678  80.274  83.489  1.00  0.00    -0.493 OA
ATOM     14  C   UNL     1      88.035  79.251  84.274  1.00  0.00     0.278 C 
ENDBRANCH   8  13
BRANCH   9  15
ATOM     15  O   UNL     1      89.380  82.951  83.863  1.00  0.00    -0.504 OA
ATOM     16  H   UNL     1      89.076  82.879  82.956  1.00  0.00     0.293 HD
ENDBRANCH   9  15
ENDBRANCH   6   7
ENDBRANCH   3   6
ENDBRANCH   1   2
BRANCH   1  17
ATOM     17  C   UNL     1      96.899  80.508  84.122  1.00  0.00     0.010 C 
BRANCH  17  18
ATOM     18  C   UNL     1      97.591  81.395  83.051  1.00  0.00     0.001 C 
BRANCH  18  19
ATOM     19  C   UNL     1      96.774  81.527  81.739  1.00  0.00     0.000 C 
BRANCH  19  20
ATOM     20  C   UNL     1      96.879  82.951  81.120  1.00  0.00     0.003 C 
BRANCH  20  21
ATOM     21  C   UNL     1      97.672  83.030  79.775  1.00  0.00    -0.017 C 
ATOM     22  C   UNL     1      96.761  83.546  78.622  1.00  0.00     0.007 C 
ATOM     23  C   UNL     1      98.321  81.672  79.375  1.00  0.00     0.007 C 
ENDBRANCH  20  21
ENDBRANCH  19  20
ENDBRANCH  18  19
ENDBRANCH  17  18
ENDBRANCH   1  17
TORSDOF 10
ENDMDL
MODEL 8
REMARK VINA RESULT:    -5.738     20.765     23.782
REMARK INTER + INTRA:          -9.471
REMARK INTER:                  -7.870
REMARK INTRA:                  -1.600
REMARK UNBOUND:                -0.545
REMARK SMILES COc1cc(CNC(=O)CCCCCC(C)C)ccc1O
REMARK SMILES IDX 10 1 8 2 7 3 9 5 6 6 5 7 3 8 20 9 4 10 19 11 18 12 2 13 1 14
REMARK SMILES IDX 21 15 11 17 12 18 13 19 14 20 15 21 16 22 17 23
REMARK H PARENT 7 4 21 16
REMARK Flexibility Score: inf
ROOT
ATOM      1  C   UNL     1      72.285  89.226  69.593  1.00  0.00     0.100 C 
ENDROOT
BRANCH   1   2
ATOM      2  C   UNL     1      72.076  88.028  68.754  1.00  0.00     0.220 C 
ATOM      3  N   UNL     1      73.102  87.150  68.573  1.00  0.00    -0.352 N 
ATOM      4  H   UNL     1      73.995  87.459  68.930  1.00  0.00     0.163 HD
ATOM      5  O   UNL     1      70.941  87.822  68.259  1.00  0.00    -0.275 OA
BRANCH   3   6
ATOM      6  C   UNL     1      72.991  85.876  67.937  1.00  0.00     0.151 C 
BRANCH   6   7
ATOM      7  C   UNL     1      74.307  85.305  67.540  1.00  0.00    -0.025 A 
ATOM      8  C   UNL     1      75.865  84.553  65.793  1.00  0.00     0.160 A 
ATOM      9  C   UNL     1      76.836  84.279  66.780  1.00  0.00     0.157 A 
ATOM     10  C   UNL     1      74.601  85.045  66.181  1.00  0.00     0.056 A 
ATOM     11  C   UNL     1      76.545  84.508  68.137  1.00  0.00     0.050 A 
ATOM     12  C   UNL     1      75.292  85.022  68.515  1.00  0.00     0.009 A 
BRANCH   8  13
ATOM     13  O   UNL     1      76.122  84.318  64.468  1.00  0.00    -0.493 OA
ATOM     14  C   UNL     1      75.366  85.155  63.572  1.00  0.00     0.278 C 
ENDBRANCH   8  13
BRANCH   9  15
ATOM     15  O   UNL     1      78.054  83.803  66.418  1.00  0.00    -0.504 OA
ATOM     16  H   UNL     1      78.560  84.504  66.001  1.00  0.00     0.293 HD
ENDBRANCH   9  15
ENDBRANCH   6   7
ENDBRANCH   3   6
ENDBRANCH   1   2
BRANCH   1  17
ATOM     17  C   UNL     1      73.588  89.195  70.437  1.00  0.00     0.010 C 
BRANCH  17  18
ATOM     18  C   UNL     1      74.580  90.307  70.000  1.00  0.00     0.001 C 
BRANCH  18  19
ATOM     19  C   UNL     1      75.374  89.954  68.714  1.00  0.00     0.000 C 
BRANCH  19  20
ATOM     20  C   UNL     1      76.129  88.599  68.842  1.00  0.00     0.003 C 
BRANCH  20  21
ATOM     21  C   UNL     1      77.057  88.244  67.635  1.00  0.00    -0.017 C 
ATOM     22  C   UNL     1      78.275  89.211  67.568  1.00  0.00     0.007 C 
ATOM     23  C   UNL     1      76.303  88.240  66.273  1.00  0.00     0.007 C 
ENDBRANCH  20  21
ENDBRANCH  19  20
ENDBRANCH  18  19
ENDBRANCH  17  18
ENDBRANCH   1  17
TORSDOF 10
ENDMDL
MODEL 9
REMARK VINA RESULT:    -5.521     13.855     16.339
REMARK INTER + INTRA:          -9.133
REMARK INTER:                  -8.371
REMARK INTRA:                  -0.762
REMARK UNBOUND:                -0.545
REMARK SMILES COc1cc(CNC(=O)CCCCCC(C)C)ccc1O
REMARK SMILES IDX 10 1 8 2 7 3 9 5 6 6 5 7 3 8 20 9 4 10 19 11 18 12 2 13 1 14
REMARK SMILES IDX 21 15 11 17 12 18 13 19 14 20 15 21 16 22 17 23
REMARK H PARENT 7 4 21 16
REMARK Flexibility Score: inf
ROOT
ATOM      1  C   UNL     1      97.124  79.078  81.519  1.00  0.00     0.100 C 
ENDROOT
BRANCH   1   2
ATOM      2  C   UNL     1      96.337  78.419  82.582  1.00  0.00     0.220 C 
ATOM      3  N   UNL     1      95.997  79.124  83.698  1.00  0.00    -0.352 N 
ATOM      4  H   UNL     1      96.433  80.031  83.776  1.00  0.00     0.163 HD
ATOM      5  O   UNL     1      95.960  77.233  82.415  1.00  0.00    -0.275 OA
BRANCH   3   6
ATOM      6  C   UNL     1      95.102  78.672  84.714  1.00  0.00     0.151 C 
BRANCH   6   7
ATOM      7  C   UNL     1      93.728  79.226  84.572  1.00  0.00    -0.025 A 
ATOM      8  C   UNL     1      92.216  81.156  84.393  1.00  0.00     0.160 A 
ATOM      9  C   UNL     1      91.121  80.281  84.233  1.00  0.00     0.157 A 
ATOM     10  C   UNL     1      93.509  80.624  84.580  1.00  0.00     0.056 A 
ATOM     11  C   UNL     1      91.324  78.889  84.250  1.00  0.00     0.050 A 
ATOM     12  C   UNL     1      92.617  78.365  84.413  1.00  0.00     0.009 A 
BRANCH   8  13
ATOM     13  O   UNL     1      92.037  82.515  84.398  1.00  0.00    -0.493 OA
ATOM     14  C   UNL     1      92.691  83.183  85.495  1.00  0.00     0.278 C 
ENDBRANCH   8  13
BRANCH   9  15
ATOM     15  O   UNL     1      89.873  80.783  84.055  1.00  0.00    -0.504 OA
ATOM     16  H   UNL     1      89.240  80.244  84.534  1.00  0.00     0.293 HD
ENDBRANCH   9  15
ENDBRANCH   6   7
ENDBRANCH   3   6
ENDBRANCH   1   2
BRANCH   1  17
ATOM     17  C   UNL     1      97.669  80.480  81.904  1.00  0.00     0.010 C 
BRANCH  17  18
ATOM     18  C   UNL     1      96.966  81.608  81.100  1.00  0.00     0.001 C 
BRANCH  18  19
ATOM     19  C   UNL     1      97.927  82.389  80.166  1.00  0.00     0.000 C 
BRANCH  19  20
ATOM     20  C   UNL     1      97.193  83.506  79.367  1.00  0.00     0.003 C 
BRANCH  20  21
ATOM     21  C   UNL     1      96.636  83.064  77.975  1.00  0.00    -0.017 C 
ATOM     22  C   UNL     1      97.487  81.903  77.380  1.00  0.00     0.007 C 
ATOM     23  C   UNL     1      96.551  84.238  76.957  1.00  0.00     0.007 C 
ENDBRANCH  20  21
ENDBRANCH  19  20
ENDBRANCH  18  19
ENDBRANCH  17  18
ENDBRANCH   1  17
TORSDOF 10
ENDMDL
MODEL 10
REMARK VINA RESULT:    -5.423     12.277     14.124
REMARK INTER + INTRA:          -8.981
REMARK INTER:                  -8.286
REMARK INTRA:                  -0.695
REMARK UNBOUND:                -0.545
REMARK SMILES COc1cc(CNC(=O)CCCCCC(C)C)ccc1O
REMARK SMILES IDX 10 1 8 2 7 3 9 5 6 6 5 7 3 8 20 9 4 10 19 11 18 12 2 13 1 14
REMARK SMILES IDX 21 15 11 17 12 18 13 19 14 20 15 21 16 22 17 23
REMARK H PARENT 7 4 21 16
REMARK Flexibility Score: inf
ROOT
ATOM      1  C   UNL     1      97.439  83.194  75.871  1.00  0.00     0.100 C 
ENDROOT
BRANCH   1   2
ATOM      2  C   UNL     1      96.966  83.555  77.224  1.00  0.00     0.220 C 
ATOM      3  N   UNL     1      97.667  83.132  78.313  1.00  0.00    -0.352 N 
ATOM      4  H   UNL     1      98.407  82.474  78.113  1.00  0.00     0.163 HD
ATOM      5  O   UNL     1      95.949  84.281  77.340  1.00  0.00    -0.275 OA
BRANCH   3   6
ATOM      6  C   UNL     1      97.426  83.547  79.658  1.00  0.00     0.151 C 
BRANCH   6   7
ATOM      7  C   UNL     1      97.178  82.411  80.585  1.00  0.00    -0.025 A 
ATOM      8  C   UNL     1      96.362  81.557  82.743  1.00  0.00     0.160 A 
ATOM      9  C   UNL     1      96.644  80.239  82.325  1.00  0.00     0.157 A 
ATOM     10  C   UNL     1      96.648  82.635  81.878  1.00  0.00     0.056 A 
ATOM     11  C   UNL     1      97.196  80.006  81.052  1.00  0.00     0.050 A 
ATOM     12  C   UNL     1      97.456  81.082  80.186  1.00  0.00     0.009 A 
BRANCH   8  13
ATOM     13  O   UNL     1      95.844  81.807  83.986  1.00  0.00    -0.493 OA
ATOM     14  C   UNL     1      94.513  82.358  83.961  1.00  0.00     0.278 C 
ENDBRANCH   8  13
BRANCH   9  15
ATOM     15  O   UNL     1      96.375  79.196  83.149  1.00  0.00    -0.504 OA
ATOM     16  H   UNL     1      97.170  78.673  83.274  1.00  0.00     0.293 HD
ENDBRANCH   9  15
ENDBRANCH   6   7
ENDBRANCH   3   6
ENDBRANCH   1   2
BRANCH   1  17
ATOM     17  C   UNL     1      98.660  84.017  75.381  1.00  0.00     0.010 C 
BRANCH  17  18
ATOM     18  C   UNL     1      98.360  84.741  74.039  1.00  0.00     0.001 C 
BRANCH  18  19
ATOM     19  C   UNL     1      99.265  84.271  72.870  1.00  0.00     0.000 C 
BRANCH  19  20
ATOM     20  C   UNL     1     100.777  84.327  73.237  1.00  0.00     0.003 C 
BRANCH  20  21
ATOM     21  C   UNL     1     101.334  85.758  73.527  1.00  0.00    -0.017 C 
ATOM     22  C   UNL     1     102.293  86.222  72.391  1.00  0.00     0.007 C 
ATOM     23  C   UNL     1     102.050  85.861  74.905  1.00  0.00     0.007 C 
ENDBRANCH  20  21
ENDBRANCH  19  20
ENDBRANCH  18  19
ENDBRANCH  17  18
ENDBRANCH   1  17
TORSDOF 10
ENDMDL
