MODEL 1
REMARK VINA RESULT:    -6.518      0.000      0.000
REMARK INTER + INTRA:         -11.284
REMARK INTER:                 -10.138
REMARK INTRA:                  -1.146
REMARK UNBOUND:                -1.146
REMARK SMILES COc1cc(CNC(=O)CCCCCC(C)C)ccc1O
REMARK SMILES IDX 10 1 8 2 7 3 9 5 6 6 5 7 3 8 20 9 4 10 19 11 18 12 2 13 1 14
REMARK SMILES IDX 21 15 11 17 12 18 13 19 14 20 15 21 16 22 17 23
REMARK H PARENT 7 4 21 16
REMARK Flexibility Score: inf
ROOT
ATOM      1  C   UNL     1      89.592  90.346  76.565  1.00  0.00     0.100 C 
ENDROOT
BRANCH   1   2
ATOM      2  C   UNL     1      90.233  91.545  77.142  1.00  0.00     0.220 C 
ATOM      3  N   UNL     1      90.402  92.653  76.365  1.00  0.00    -0.352 N 
ATOM      4  H   UNL     1      90.188  92.523  75.387  1.00  0.00     0.163 HD
ATOM      5  O   UNL     1      90.572  91.533  78.350  1.00  0.00    -0.275 OA
BRANCH   3   6
ATOM      6  C   UNL     1      90.845  93.926  76.836  1.00  0.00     0.151 C 
BRANCH   6   7
ATOM      7  C   UNL     1      92.275  94.198  76.529  1.00  0.00    -0.025 A 
ATOM      8  C   UNL     1      94.652  94.058  77.143  1.00  0.00     0.160 A 
ATOM      9  C   UNL     1      95.002  94.655  75.914  1.00  0.00     0.157 A 
ATOM     10  C   UNL     1      93.290  93.850  77.451  1.00  0.00     0.056 A 
ATOM     11  C   UNL     1      93.999  95.030  75.001  1.00  0.00     0.050 A 
ATOM     12  C   UNL     1      92.647  94.798  75.303  1.00  0.00     0.009 A 
BRANCH   8  13
ATOM     13  O   UNL     1      95.612  93.704  78.054  1.00  0.00    -0.493 OA
ATOM     14  C   UNL     1      95.559  94.460  79.279  1.00  0.00     0.278 C 
ENDBRANCH   8  13
BRANCH   9  15
ATOM     15  O   UNL     1      96.308  94.861  75.609  1.00  0.00    -0.504 OA
ATOM     16  H   UNL     1      96.834  94.131  75.944  1.00  0.00     0.293 HD
ENDBRANCH   9  15
ENDBRANCH   6   7
ENDBRANCH   3   6
ENDBRANCH   1   2
BRANCH   1  17
ATOM     17  C   UNL     1      88.717  90.628  75.314  1.00  0.00     0.010 C 
BRANCH  17  18
ATOM     18  C   UNL     1      88.847  89.497  74.257  1.00  0.00     0.001 C 
BRANCH  18  19
ATOM     19  C   UNL     1      88.481  89.951  72.820  1.00  0.00     0.000 C 
BRANCH  19  20
ATOM     20  C   UNL     1      88.151  91.470  72.749  1.00  0.00     0.003 C 
BRANCH  20  21
ATOM     21  C   UNL     1      89.227  92.347  72.028  1.00  0.00    -0.017 C 
ATOM     22  C   UNL     1      90.450  91.483  71.598  1.00  0.00     0.007 C 
ATOM     23  C   UNL     1      89.701  93.552  72.891  1.00  0.00     0.007 C 
ENDBRANCH  20  21
ENDBRANCH  19  20
ENDBRANCH  18  19
ENDBRANCH  17  18
ENDBRANCH   1  17
TORSDOF 10
ENDMDL
MODEL 2
REMARK VINA RESULT:    -6.010      2.620      4.365
REMARK INTER + INTRA:         -10.494
REMARK INTER:                  -9.921
REMARK INTRA:                  -0.573
REMARK UNBOUND:                -1.146
REMARK SMILES COc1cc(CNC(=O)CCCCCC(C)C)ccc1O
REMARK SMILES IDX 10 1 8 2 7 3 9 5 6 6 5 7 3 8 20 9 4 10 19 11 18 12 2 13 1 14
REMARK SMILES IDX 21 15 11 17 12 18 13 19 14 20 15 21 16 22 17 23
REMARK H PARENT 7 4 21 16
REMARK Flexibility Score: inf
ROOT
ATOM      1  C   UNL     1      91.527  92.926  77.260  1.00  0.00     0.100 C 
ENDROOT
BRANCH   1   2
ATOM      2  C   UNL     1      92.682  93.838  77.123  1.00  0.00     0.220 C 
ATOM      3  N   UNL     1      93.746  93.704  77.964  1.00  0.00    -0.352 N 
ATOM      4  H   UNL     1      93.606  93.055  78.726  1.00  0.00     0.163 HD
ATOM      5  O   UNL     1      92.677  94.693  76.203  1.00  0.00    -0.275 OA
BRANCH   3   6
ATOM      6  C   UNL     1      94.989  94.394  77.834  1.00  0.00     0.151 C 
BRANCH   6   7
ATOM      7  C   UNL     1      95.618  94.714  79.144  1.00  0.00    -0.025 A 
ATOM      8  C   UNL     1      96.834  96.280  80.599  1.00  0.00     0.160 A 
ATOM      9  C   UNL     1      96.759  95.350  81.658  1.00  0.00     0.157 A 
ATOM     10  C   UNL     1      96.281  95.949  79.344  1.00  0.00     0.056 A 
ATOM     11  C   UNL     1      96.126  94.109  81.462  1.00  0.00     0.050 A 
ATOM     12  C   UNL     1      95.556  93.795  80.217  1.00  0.00     0.009 A 
BRANCH   8  13
ATOM     13  O   UNL     1      97.464  97.486  80.764  1.00  0.00    -0.493 OA
ATOM     14  C   UNL     1      96.587  98.546  81.192  1.00  0.00     0.278 C 
ENDBRANCH   8  13
BRANCH   9  15
ATOM     15  O   UNL     1      97.290  95.657  82.868  1.00  0.00    -0.504 OA
ATOM     16  H   UNL     1      96.904  95.091  83.540  1.00  0.00     0.293 HD
ENDBRANCH   9  15
ENDBRANCH   6   7
ENDBRANCH   3   6
ENDBRANCH   1   2
BRANCH   1  17
ATOM     17  C   UNL     1      90.454  93.083  76.150  1.00  0.00     0.010 C 
BRANCH  17  18
ATOM     18  C   UNL     1      90.636  92.028  75.024  1.00  0.00     0.001 C 
BRANCH  18  19
ATOM     19  C   UNL     1      90.967  92.652  73.643  1.00  0.00     0.000 C 
BRANCH  19  20
ATOM     20  C   UNL     1      89.736  92.661  72.691  1.00  0.00     0.003 C 
BRANCH  20  21
ATOM     21  C   UNL     1      89.129  91.253  72.384  1.00  0.00    -0.017 C 
ATOM     22  C   UNL     1      89.868  90.577  71.192  1.00  0.00     0.007 C 
ATOM     23  C   UNL     1      87.598  91.303  72.105  1.00  0.00     0.007 C 
ENDBRANCH  20  21
ENDBRANCH  19  20
ENDBRANCH  18  19
ENDBRANCH  17  18
ENDBRANCH   1  17
TORSDOF 10
ENDMDL
MODEL 3
REMARK VINA RESULT:    -6.003      1.668      2.803
REMARK INTER + INTRA:         -10.483
REMARK INTER:                  -9.362
REMARK INTRA:                  -1.122
REMARK UNBOUND:                -1.146
REMARK SMILES COc1cc(CNC(=O)CCCCCC(C)C)ccc1O
REMARK SMILES IDX 10 1 8 2 7 3 9 5 6 6 5 7 3 8 20 9 4 10 19 11 18 12 2 13 1 14
REMARK SMILES IDX 21 15 11 17 12 18 13 19 14 20 15 21 16 22 17 23
REMARK H PARENT 7 4 21 16
REMARK Flexibility Score: inf
ROOT
ATOM      1  C   UNL     1      89.701  92.671  76.819  1.00  0.00     0.100 C 
ENDROOT
BRANCH   1   2
ATOM      2  C   UNL     1      90.592  93.730  76.302  1.00  0.00     0.220 C 
ATOM      3  N   UNL     1      91.748  93.382  75.670  1.00  0.00    -0.352 N 
ATOM      4  H   UNL     1      91.980  92.400  75.718  1.00  0.00     0.163 HD
ATOM      5  O   UNL     1      90.244  94.930  76.420  1.00  0.00    -0.275 OA
BRANCH   3   6
ATOM      6  C   UNL     1      92.609  94.285  74.976  1.00  0.00     0.151 C 
BRANCH   6   7
ATOM      7  C   UNL     1      93.847  94.611  75.734  1.00  0.00    -0.025 A 
ATOM      8  C   UNL     1      95.879  95.967  76.017  1.00  0.00     0.160 A 
ATOM      9  C   UNL     1      96.170  95.278  77.213  1.00  0.00     0.157 A 
ATOM     10  C   UNL     1      94.731  95.617  75.275  1.00  0.00     0.056 A 
ATOM     11  C   UNL     1      95.313  94.258  77.664  1.00  0.00     0.050 A 
ATOM     12  C   UNL     1      94.158  93.930  76.934  1.00  0.00     0.009 A 
BRANCH   8  13
ATOM     13  O   UNL     1      96.712  96.950  75.550  1.00  0.00    -0.493 OA
ATOM     14  C   UNL     1      97.385  96.609  74.323  1.00  0.00     0.278 C 
ENDBRANCH   8  13
BRANCH   9  15
ATOM     15  O   UNL     1      97.273  95.605  77.932  1.00  0.00    -0.504 OA
ATOM     16  H   UNL     1      97.014  95.842  78.826  1.00  0.00     0.293 HD
ENDBRANCH   9  15
ENDBRANCH   6   7
ENDBRANCH   3   6
ENDBRANCH   1   2
BRANCH   1  17
ATOM     17  C   UNL     1      90.200  91.226  76.546  1.00  0.00     0.010 C 
BRANCH  17  18
ATOM     18  C   UNL     1      89.048  90.306  76.056  1.00  0.00     0.001 C 
BRANCH  18  19
ATOM     19  C   UNL     1      88.703  90.496  74.555  1.00  0.00     0.000 C 
BRANCH  19  20
ATOM     20  C   UNL     1      89.919  90.200  73.630  1.00  0.00     0.003 C 
BRANCH  20  21
ATOM     21  C   UNL     1      90.342  91.381  72.697  1.00  0.00    -0.017 C 
ATOM     22  C   UNL     1      89.454  92.635  72.951  1.00  0.00     0.007 C 
ATOM     23  C   UNL     1      90.311  91.001  71.188  1.00  0.00     0.007 C 
ENDBRANCH  20  21
ENDBRANCH  19  20
ENDBRANCH  18  19
ENDBRANCH  17  18
ENDBRANCH   1  17
TORSDOF 10
ENDMDL
MODEL 4
REMARK VINA RESULT:    -5.682     13.468     16.309
REMARK INTER + INTRA:          -9.984
REMARK INTER:                  -8.458
REMARK INTRA:                  -1.527
REMARK UNBOUND:                -1.146
REMARK SMILES COc1cc(CNC(=O)CCCCCC(C)C)ccc1O
REMARK SMILES IDX 10 1 8 2 7 3 9 5 6 6 5 7 3 8 20 9 4 10 19 11 18 12 2 13 1 14
REMARK SMILES IDX 21 15 11 17 12 18 13 19 14 20 15 21 16 22 17 23
REMARK H PARENT 7 4 21 16
REMARK Flexibility Score: inf
ROOT
ATOM      1  C   UNL     1      83.240  92.806  88.043  1.00  0.00     0.100 C 
ENDROOT
BRANCH   1   2
ATOM      2  C   UNL     1      83.696  92.083  86.837  1.00  0.00     0.220 C 
ATOM      3  N   UNL     1      82.999  90.994  86.406  1.00  0.00    -0.352 N 
ATOM      4  H   UNL     1      82.277  90.675  87.036  1.00  0.00     0.163 HD
ATOM      5  O   UNL     1      84.694  92.514  86.210  1.00  0.00    -0.275 OA
BRANCH   3   6
ATOM      6  C   UNL     1      83.222  90.312  85.172  1.00  0.00     0.151 C 
BRANCH   6   7
ATOM      7  C   UNL     1      82.234  89.229  84.917  1.00  0.00    -0.025 A 
ATOM      8  C   UNL     1      81.605  86.853  85.003  1.00  0.00     0.160 A 
ATOM      9  C   UNL     1      80.329  87.175  84.494  1.00  0.00     0.157 A 
ATOM     10  C   UNL     1      82.556  87.879  85.193  1.00  0.00     0.056 A 
ATOM     11  C   UNL     1      80.008  88.510  84.190  1.00  0.00     0.050 A 
ATOM     12  C   UNL     1      80.951  89.530  84.405  1.00  0.00     0.009 A 
BRANCH   8  13
ATOM     13  O   UNL     1      81.945  85.556  85.286  1.00  0.00    -0.493 OA
ATOM     14  C   UNL     1      82.616  85.393  86.550  1.00  0.00     0.278 C 
ENDBRANCH   8  13
BRANCH   9  15
ATOM     15  O   UNL     1      79.409  86.196  84.304  1.00  0.00    -0.504 OA
ATOM     16  H   UNL     1      79.733  85.375  84.682  1.00  0.00     0.293 HD
ENDBRANCH   9  15
ENDBRANCH   6   7
ENDBRANCH   3   6
ENDBRANCH   1   2
BRANCH   1  17
ATOM     17  C   UNL     1      82.636  91.894  89.144  1.00  0.00     0.010 C 
BRANCH  17  18
ATOM     18  C   UNL     1      83.518  90.640  89.397  1.00  0.00     0.001 C 
BRANCH  18  19
ATOM     19  C   UNL     1      82.717  89.419  89.922  1.00  0.00     0.000 C 
BRANCH  19  20
ATOM     20  C   UNL     1      82.036  88.623  88.771  1.00  0.00     0.003 C 
BRANCH  20  21
ATOM     21  C   UNL     1      80.476  88.714  88.738  1.00  0.00    -0.017 C 
ATOM     22  C   UNL     1      79.854  87.397  88.189  1.00  0.00     0.007 C 
ATOM     23  C   UNL     1      79.959  89.932  87.918  1.00  0.00     0.007 C 
ENDBRANCH  20  21
ENDBRANCH  19  20
ENDBRANCH  18  19
ENDBRANCH  17  18
ENDBRANCH   1  17
TORSDOF 10
ENDMDL
MODEL 5
REMARK VINA RESULT:    -5.568     13.405     16.552
REMARK INTER + INTRA:          -9.806
REMARK INTER:                  -8.445
REMARK INTRA:                  -1.361
REMARK UNBOUND:                -1.146
REMARK SMILES COc1cc(CNC(=O)CCCCCC(C)C)ccc1O
REMARK SMILES IDX 10 1 8 2 7 3 9 5 6 6 5 7 3 8 20 9 4 10 19 11 18 12 2 13 1 14
REMARK SMILES IDX 21 15 11 17 12 18 13 19 14 20 15 21 16 22 17 23
REMARK H PARENT 7 4 21 16
REMARK Flexibility Score: inf
ROOT
ATOM      1  C   UNL     1      81.421  91.462  89.934  1.00  0.00     0.100 C 
ENDROOT
BRANCH   1   2
ATOM      2  C   UNL     1      80.625  90.218  89.877  1.00  0.00     0.220 C 
ATOM      3  N   UNL     1      80.392  89.627  88.671  1.00  0.00    -0.352 N 
ATOM      4  H   UNL     1      80.679  90.169  87.869  1.00  0.00     0.163 HD
ATOM      5  O   UNL     1      80.215  89.708  90.948  1.00  0.00    -0.275 OA
BRANCH   3   6
ATOM      6  C   UNL     1      79.793  88.344  88.488  1.00  0.00     0.151 C 
BRANCH   6   7
ATOM      7  C   UNL     1      80.595  87.444  87.615  1.00  0.00    -0.025 A 
ATOM      8  C   UNL     1      81.447  86.836  85.389  1.00  0.00     0.160 A 
ATOM      9  C   UNL     1      82.176  85.772  85.962  1.00  0.00     0.157 A 
ATOM     10  C   UNL     1      80.647  87.654  86.216  1.00  0.00     0.056 A 
ATOM     11  C   UNL     1      82.111  85.539  87.348  1.00  0.00     0.050 A 
ATOM     12  C   UNL     1      81.332  86.371  88.169  1.00  0.00     0.009 A 
BRANCH   8  13
ATOM     13  O   UNL     1      81.482  87.069  84.039  1.00  0.00    -0.493 OA
ATOM     14  C   UNL     1      80.206  86.910  83.389  1.00  0.00     0.278 C 
ENDBRANCH   8  13
BRANCH   9  15
ATOM     15  O   UNL     1      82.947  84.980  85.176  1.00  0.00    -0.504 OA
ATOM     16  H   UNL     1      82.723  84.059  85.331  1.00  0.00     0.293 HD
ENDBRANCH   9  15
ENDBRANCH   6   7
ENDBRANCH   3   6
ENDBRANCH   1   2
BRANCH   1  17
ATOM     17  C   UNL     1      82.265  91.738  88.661  1.00  0.00     0.010 C 
BRANCH  17  18
ATOM     18  C   UNL     1      83.610  90.961  88.685  1.00  0.00     0.001 C 
BRANCH  18  19
ATOM     19  C   UNL     1      83.682  89.821  87.636  1.00  0.00     0.000 C 
BRANCH  19  20
ATOM     20  C   UNL     1      83.371  90.325  86.197  1.00  0.00     0.003 C 
BRANCH  20  21
ATOM     21  C   UNL     1      84.624  90.539  85.287  1.00  0.00    -0.017 C 
ATOM     22  C   UNL     1      85.878  89.844  85.896  1.00  0.00     0.007 C 
ATOM     23  C   UNL     1      84.925  92.042  85.017  1.00  0.00     0.007 C 
ENDBRANCH  20  21
ENDBRANCH  19  20
ENDBRANCH  18  19
ENDBRANCH  17  18
ENDBRANCH   1  17
TORSDOF 10
ENDMDL
MODEL 6
REMARK VINA RESULT:    -5.485      2.547      8.182
REMARK INTER + INTRA:          -9.677
REMARK INTER:                  -8.623
REMARK INTRA:                  -1.054
REMARK UNBOUND:                -1.146
REMARK SMILES COc1cc(CNC(=O)CCCCCC(C)C)ccc1O
REMARK SMILES IDX 10 1 8 2 7 3 9 5 6 6 5 7 3 8 20 9 4 10 19 11 18 12 2 13 1 14
REMARK SMILES IDX 21 15 11 17 12 18 13 19 14 20 15 21 16 22 17 23
REMARK H PARENT 7 4 21 16
REMARK Flexibility Score: inf
ROOT
ATOM      1  C   UNL     1      95.926  94.043  78.632  1.00  0.00     0.100 C 
ENDROOT
BRANCH   1   2
ATOM      2  C   UNL     1      95.197  94.083  77.347  1.00  0.00     0.220 C 
ATOM      3  N   UNL     1      93.844  93.923  77.340  1.00  0.00    -0.352 N 
ATOM      4  H   UNL     1      93.444  93.650  78.226  1.00  0.00     0.163 HD
ATOM      5  O   UNL     1      95.837  94.308  76.291  1.00  0.00    -0.275 OA
BRANCH   3   6
ATOM      6  C   UNL     1      93.000  94.110  76.204  1.00  0.00     0.151 C 
BRANCH   6   7
ATOM      7  C   UNL     1      91.785  93.251  76.230  1.00  0.00    -0.025 A 
ATOM      8  C   UNL     1      90.099  91.905  75.049  1.00  0.00     0.160 A 
ATOM      9  C   UNL     1      89.512  91.562  76.285  1.00  0.00     0.157 A 
ATOM     10  C   UNL     1      91.220  92.762  75.028  1.00  0.00     0.056 A 
ATOM     11  C   UNL     1      90.049  92.064  77.485  1.00  0.00     0.050 A 
ATOM     12  C   UNL     1      91.180  92.897  77.458  1.00  0.00     0.009 A 
BRANCH   8  13
ATOM     13  O   UNL     1      89.580  91.443  73.869  1.00  0.00    -0.493 OA
ATOM     14  C   UNL     1      90.265  90.289  73.344  1.00  0.00     0.278 C 
ENDBRANCH   8  13
BRANCH   9  15
ATOM     15  O   UNL     1      88.433  90.740  76.317  1.00  0.00    -0.504 OA
ATOM     16  H   UNL     1      88.723  89.827  76.256  1.00  0.00     0.293 HD
ENDBRANCH   9  15
ENDBRANCH   6   7
ENDBRANCH   3   6
ENDBRANCH   1   2
BRANCH   1  17
ATOM     17  C   UNL     1      95.208  94.774  79.797  1.00  0.00     0.010 C 
BRANCH  17  18
ATOM     18  C   UNL     1      96.210  95.570  80.678  1.00  0.00     0.001 C 
BRANCH  18  19
ATOM     19  C   UNL     1      96.710  96.879  80.012  1.00  0.00     0.000 C 
BRANCH  19  20
ATOM     20  C   UNL     1      98.171  96.753  79.491  1.00  0.00     0.003 C 
BRANCH  20  21
ATOM     21  C   UNL     1      98.358  97.061  77.970  1.00  0.00    -0.017 C 
ATOM     22  C   UNL     1      97.023  97.549  77.333  1.00  0.00     0.007 C 
ATOM     23  C   UNL     1      98.918  95.848  77.172  1.00  0.00     0.007 C 
ENDBRANCH  20  21
ENDBRANCH  19  20
ENDBRANCH  18  19
ENDBRANCH  17  18
ENDBRANCH   1  17
TORSDOF 10
ENDMDL
MODEL 7
REMARK VINA RESULT:    -5.456     25.952     28.187
REMARK INTER + INTRA:          -9.633
REMARK INTER:                  -8.990
REMARK INTRA:                  -0.643
REMARK UNBOUND:                -1.146
REMARK SMILES COc1cc(CNC(=O)CCCCCC(C)C)ccc1O
REMARK SMILES IDX 10 1 8 2 7 3 9 5 6 6 5 7 3 8 20 9 4 10 19 11 18 12 2 13 1 14
REMARK SMILES IDX 21 15 11 17 12 18 13 19 14 20 15 21 16 22 17 23
REMARK H PARENT 7 4 21 16
REMARK Flexibility Score: inf
ROOT
ATOM      1  C   UNL     1      65.109  86.069  75.612  1.00  0.00     0.100 C 
ENDROOT
BRANCH   1   2
ATOM      2  C   UNL     1      66.236  86.247  76.552  1.00  0.00     0.220 C 
ATOM      3  N   UNL     1      66.059  85.953  77.871  1.00  0.00    -0.352 N 
ATOM      4  H   UNL     1      65.106  85.754  78.138  1.00  0.00     0.163 HD
ATOM      5  O   UNL     1      67.346  86.626  76.107  1.00  0.00    -0.275 OA
BRANCH   3   6
ATOM      6  C   UNL     1      67.098  85.913  78.850  1.00  0.00     0.151 C 
BRANCH   6   7
ATOM      7  C   UNL     1      66.587  85.733  80.236  1.00  0.00    -0.025 A 
ATOM      8  C   UNL     1      64.837  86.088  81.927  1.00  0.00     0.160 A 
ATOM      9  C   UNL     1      65.585  85.335  82.856  1.00  0.00     0.157 A 
ATOM     10  C   UNL     1      65.351  86.299  80.629  1.00  0.00     0.056 A 
ATOM     11  C   UNL     1      66.828  84.790  82.484  1.00  0.00     0.050 A 
ATOM     12  C   UNL     1      67.323  84.983  81.183  1.00  0.00     0.009 A 
BRANCH   8  13
ATOM     13  O   UNL     1      63.634  86.644  82.275  1.00  0.00    -0.493 OA
ATOM     14  C   UNL     1      63.371  87.909  81.639  1.00  0.00     0.278 C 
ENDBRANCH   8  13
BRANCH   9  15
ATOM     15  O   UNL     1      65.101  85.129  84.106  1.00  0.00    -0.504 OA
ATOM     16  H   UNL     1      65.828  85.114  84.733  1.00  0.00     0.293 HD
ENDBRANCH   9  15
ENDBRANCH   6   7
ENDBRANCH   3   6
ENDBRANCH   1   2
BRANCH   1  17
ATOM     17  C   UNL     1      64.075  84.998  76.050  1.00  0.00     0.010 C 
BRANCH  17  18
ATOM     18  C   UNL     1      64.493  83.575  75.588  1.00  0.00     0.001 C 
BRANCH  18  19
ATOM     19  C   UNL     1      63.380  82.828  74.807  1.00  0.00     0.000 C 
BRANCH  19  20
ATOM     20  C   UNL     1      63.509  81.282  74.933  1.00  0.00     0.003 C 
BRANCH  20  21
ATOM     21  C   UNL     1      63.809  80.534  73.594  1.00  0.00    -0.017 C 
ATOM     22  C   UNL     1      65.325  80.198  73.474  1.00  0.00     0.007 C 
ATOM     23  C   UNL     1      63.337  81.325  72.340  1.00  0.00     0.007 C 
ENDBRANCH  20  21
ENDBRANCH  19  20
ENDBRANCH  18  19
ENDBRANCH  17  18
ENDBRANCH   1  17
TORSDOF 10
ENDMDL
MODEL 8
REMARK VINA RESULT:    -5.454     13.961     16.318
REMARK INTER + INTRA:          -9.629
REMARK INTER:                  -8.692
REMARK INTRA:                  -0.936
REMARK UNBOUND:                -1.146
REMARK SMILES COc1cc(CNC(=O)CCCCCC(C)C)ccc1O
REMARK SMILES IDX 10 1 8 2 7 3 9 5 6 6 5 7 3 8 20 9 4 10 19 11 18 12 2 13 1 14
REMARK SMILES IDX 21 15 11 17 12 18 13 19 14 20 15 21 16 22 17 23
REMARK H PARENT 7 4 21 16
REMARK Flexibility Score: inf
ROOT
ATOM      1  C   UNL     1      83.189  91.784  88.989  1.00  0.00     0.100 C 
ENDROOT
BRANCH   1   2
ATOM      2  C   UNL     1      83.477  90.972  87.788  1.00  0.00     0.220 C 
ATOM      3  N   UNL     1      82.670  91.084  86.696  1.00  0.00    -0.352 N 
ATOM      4  H   UNL     1      81.834  91.632  86.839  1.00  0.00     0.163 HD
ATOM      5  O   UNL     1      84.487  90.227  87.785  1.00  0.00    -0.275 OA
BRANCH   3   6
ATOM      6  C   UNL     1      82.929  90.497  85.420  1.00  0.00     0.151 C 
BRANCH   6   7
ATOM      7  C   UNL     1      82.030  89.352  85.111  1.00  0.00    -0.025 A 
ATOM      8  C   UNL     1      81.599  86.931  85.066  1.00  0.00     0.160 A 
ATOM      9  C   UNL     1      80.295  87.174  84.586  1.00  0.00     0.157 A 
ATOM     10  C   UNL     1      82.465  88.020  85.308  1.00  0.00     0.056 A 
ATOM     11  C   UNL     1      79.862  88.494  84.361  1.00  0.00     0.050 A 
ATOM     12  C   UNL     1      80.720  89.575  84.627  1.00  0.00     0.009 A 
BRANCH   8  13
ATOM     13  O   UNL     1      82.048  85.653  85.272  1.00  0.00    -0.493 OA
ATOM     14  C   UNL     1      82.454  85.391  86.629  1.00  0.00     0.278 C 
ENDBRANCH   8  13
BRANCH   9  15
ATOM     15  O   UNL     1      79.456  86.135  84.348  1.00  0.00    -0.504 OA
ATOM     16  H   UNL     1      78.554  86.458  84.293  1.00  0.00     0.293 HD
ENDBRANCH   9  15
ENDBRANCH   6   7
ENDBRANCH   3   6
ENDBRANCH   1   2
BRANCH   1  17
ATOM     17  C   UNL     1      81.683  92.097  89.202  1.00  0.00     0.010 C 
BRANCH  17  18
ATOM     18  C   UNL     1      81.454  93.593  89.554  1.00  0.00     0.001 C 
BRANCH  18  19
ATOM     19  C   UNL     1      82.771  94.398  89.708  1.00  0.00     0.000 C 
BRANCH  19  20
ATOM     20  C   UNL     1      82.576  95.910  89.390  1.00  0.00     0.003 C 
BRANCH  20  21
ATOM     21  C   UNL     1      82.941  96.329  87.929  1.00  0.00    -0.017 C 
ATOM     22  C   UNL     1      81.667  96.750  87.138  1.00  0.00     0.007 C 
ATOM     23  C   UNL     1      83.707  95.218  87.154  1.00  0.00     0.007 C 
ENDBRANCH  20  21
ENDBRANCH  19  20
ENDBRANCH  18  19
ENDBRANCH  17  18
ENDBRANCH   1  17
TORSDOF 10
ENDMDL
MODEL 9
REMARK VINA RESULT:    -5.402     15.436     18.670
REMARK INTER + INTRA:          -9.548
REMARK INTER:                  -8.652
REMARK INTRA:                  -0.896
REMARK UNBOUND:                -1.146
REMARK SMILES COc1cc(CNC(=O)CCCCCC(C)C)ccc1O
REMARK SMILES IDX 10 1 8 2 7 3 9 5 6 6 5 7 3 8 20 9 4 10 19 11 18 12 2 13 1 14
REMARK SMILES IDX 21 15 11 17 12 18 13 19 14 20 15 21 16 22 17 23
REMARK H PARENT 7 4 21 16
REMARK Flexibility Score: inf
ROOT
ATOM      1  C   UNL     1      76.410  92.855  64.864  1.00  0.00     0.100 C 
ENDROOT
BRANCH   1   2
ATOM      2  C   UNL     1      76.225  91.566  64.165  1.00  0.00     0.220 C 
ATOM      3  N   UNL     1      77.303  90.759  63.953  1.00  0.00    -0.352 N 
ATOM      4  H   UNL     1      78.195  91.173  64.181  1.00  0.00     0.163 HD
ATOM      5  O   UNL     1      75.069  91.222  63.818  1.00  0.00    -0.275 OA
BRANCH   3   6
ATOM      6  C   UNL     1      77.243  89.424  63.451  1.00  0.00     0.151 C 
BRANCH   6   7
ATOM      7  C   UNL     1      77.599  88.400  64.470  1.00  0.00    -0.025 A 
ATOM      8  C   UNL     1      78.042  86.058  65.076  1.00  0.00     0.160 A 
ATOM      9  C   UNL     1      78.341  86.459  66.396  1.00  0.00     0.157 A 
ATOM     10  C   UNL     1      77.655  87.028  64.127  1.00  0.00     0.056 A 
ATOM     11  C   UNL     1      78.263  87.817  66.755  1.00  0.00     0.050 A 
ATOM     12  C   UNL     1      77.900  88.781  65.799  1.00  0.00     0.009 A 
BRANCH   8  13
ATOM     13  O   UNL     1      78.093  84.739  64.711  1.00  0.00    -0.493 OA
ATOM     14  C   UNL     1      76.800  84.112  64.611  1.00  0.00     0.278 C 
ENDBRANCH   8  13
BRANCH   9  15
ATOM     15  O   UNL     1      78.712  85.534  67.316  1.00  0.00    -0.504 OA
ATOM     16  H   UNL     1      78.012  84.885  67.418  1.00  0.00     0.293 HD
ENDBRANCH   9  15
ENDBRANCH   6   7
ENDBRANCH   3   6
ENDBRANCH   1   2
BRANCH   1  17
ATOM     17  C   UNL     1      77.300  93.873  64.102  1.00  0.00     0.010 C 
BRANCH  17  18
ATOM     18  C   UNL     1      78.702  94.011  64.756  1.00  0.00     0.001 C 
BRANCH  18  19
ATOM     19  C   UNL     1      79.205  95.476  64.835  1.00  0.00     0.000 C 
BRANCH  19  20
ATOM     20  C   UNL     1      78.749  96.185  66.143  1.00  0.00     0.003 C 
BRANCH  20  21
ATOM     21  C   UNL     1      78.829  95.305  67.433  1.00  0.00    -0.017 C 
ATOM     22  C   UNL     1      77.406  95.004  67.989  1.00  0.00     0.007 C 
ATOM     23  C   UNL     1      79.713  95.940  68.545  1.00  0.00     0.007 C 
ENDBRANCH  20  21
ENDBRANCH  19  20
ENDBRANCH  18  19
ENDBRANCH  17  18
ENDBRANCH   1  17
TORSDOF 10
ENDMDL
MODEL 10
REMARK VINA RESULT:    -5.216      2.892      8.579
REMARK INTER + INTRA:          -9.259
REMARK INTER:                  -8.861
REMARK INTRA:                  -0.398
REMARK UNBOUND:                -1.146
REMARK SMILES COc1cc(CNC(=O)CCCCCC(C)C)ccc1O
REMARK SMILES IDX 10 1 8 2 7 3 9 5 6 6 5 7 3 8 20 9 4 10 19 11 18 12 2 13 1 14
REMARK SMILES IDX 21 15 11 17 12 18 13 19 14 20 15 21 16 22 17 23
REMARK H PARENT 7 4 21 16
REMARK Flexibility Score: inf
ROOT
ATOM      1  C   UNL     1      95.899  93.728  78.173  1.00  0.00     0.100 C 
ENDROOT
BRANCH   1   2
ATOM      2  C   UNL     1      94.840  94.134  77.226  1.00  0.00     0.220 C 
ATOM      3  N   UNL     1      93.536  93.875  77.528  1.00  0.00    -0.352 N 
ATOM      4  H   UNL     1      93.396  93.290  78.340  1.00  0.00     0.163 HD
ATOM      5  O   UNL     1      95.161  94.750  76.181  1.00  0.00    -0.275 OA
BRANCH   3   6
ATOM      6  C   UNL     1      92.411  94.360  76.796  1.00  0.00     0.151 C 
BRANCH   6   7
ATOM      7  C   UNL     1      91.439  93.291  76.441  1.00  0.00    -0.025 A 
ATOM      8  C   UNL     1      90.833  91.318  75.105  1.00  0.00     0.160 A 
ATOM      9  C   UNL     1      89.617  91.215  75.812  1.00  0.00     0.157 A 
ATOM     10  C   UNL     1      91.728  92.366  75.411  1.00  0.00     0.056 A 
ATOM     11  C   UNL     1      89.307  92.146  76.821  1.00  0.00     0.050 A 
ATOM     12  C   UNL     1      90.213  93.172  77.137  1.00  0.00     0.009 A 
BRANCH   8  13
ATOM     13  O   UNL     1      91.145  90.433  74.106  1.00  0.00    -0.493 OA
ATOM     14  C   UNL     1      91.576  89.144  74.583  1.00  0.00     0.278 C 
ENDBRANCH   8  13
BRANCH   9  15
ATOM     15  O   UNL     1      88.749  90.212  75.524  1.00  0.00    -0.504 OA
ATOM     16  H   UNL     1      88.976  89.827  74.675  1.00  0.00     0.293 HD
ENDBRANCH   9  15
ENDBRANCH   6   7
ENDBRANCH   3   6
ENDBRANCH   1   2
BRANCH   1  17
ATOM     17  C   UNL     1      95.628  94.133  79.647  1.00  0.00     0.010 C 
BRANCH  17  18
ATOM     18  C   UNL     1      96.826  94.911  80.257  1.00  0.00     0.001 C 
BRANCH  18  19
ATOM     19  C   UNL     1      96.691  96.451  80.126  1.00  0.00     0.000 C 
BRANCH  19  20
ATOM     20  C   UNL     1      96.026  97.092  81.378  1.00  0.00     0.003 C 
BRANCH  20  21
ATOM     21  C   UNL     1      96.769  98.342  81.954  1.00  0.00    -0.017 C 
ATOM     22  C   UNL     1      95.949  99.641  81.702  1.00  0.00     0.007 C 
ATOM     23  C   UNL     1      98.210  98.502  81.387  1.00  0.00     0.007 C 
ENDBRANCH  20  21
ENDBRANCH  19  20
ENDBRANCH  18  19
ENDBRANCH  17  18
ENDBRANCH   1  17
TORSDOF 10
ENDMDL
