MODEL 1
REMARK VINA RESULT:    -5.879      0.000      0.000
REMARK INTER + INTRA:         -10.189
REMARK INTER:                  -9.487
REMARK INTRA:                  -0.702
REMARK UNBOUND:                -0.702
REMARK SMILES COc1cc(CNC(=O)CCCCC/C=C/C(C)C)ccc1O
REMARK SMILES IDX 11 1 10 2 8 3 7 4 9 6 6 7 5 8 3 9 22 10 4 11 21 12 20 13
REMARK SMILES IDX 2 14 1 15 23 16 12 18 13 19 14 20 15 21 16 22 17 23 18 24
REMARK SMILES IDX 19 25
REMARK H PARENT 7 5 23 17
REMARK Flexibility Score: inf
ROOT
ATOM      1  C   UNL     1      96.512  83.123  82.201  1.00  0.00     0.010 C 
ENDROOT
BRANCH   1   2
ATOM      2  C   UNL     1      97.427  83.872  83.204  1.00  0.00     0.100 C 
BRANCH   2   3
ATOM      3  C   UNL     1      96.694  84.666  84.208  1.00  0.00     0.220 C 
ATOM      4  N   UNL     1      96.481  84.155  85.452  1.00  0.00    -0.352 N 
ATOM      5  H   UNL     1      96.792  83.201  85.575  1.00  0.00     0.163 HD
ATOM      6  O   UNL     1      96.319  85.820  83.896  1.00  0.00    -0.275 OA
BRANCH   4   7
ATOM      7  C   UNL     1      95.875  84.849  86.541  1.00  0.00     0.151 C 
BRANCH   7   8
ATOM      8  C   UNL     1      94.443  84.496  86.720  1.00  0.00    -0.025 A 
ATOM      9  C   UNL     1      92.483  83.145  86.102  1.00  0.00     0.160 A 
ATOM     10  C   UNL     1      91.697  83.863  87.030  1.00  0.00     0.157 A 
ATOM     11  C   UNL     1      93.846  83.472  85.948  1.00  0.00     0.056 A 
ATOM     12  C   UNL     1      92.285  84.872  87.815  1.00  0.00     0.050 A 
ATOM     13  C   UNL     1      93.650  85.179  87.669  1.00  0.00     0.009 A 
BRANCH   9  14
ATOM     14  O   UNL     1      91.942  82.103  85.396  1.00  0.00    -0.493 OA
ATOM     15  C   UNL     1      92.889  81.084  85.036  1.00  0.00     0.278 C 
ENDBRANCH   9  14
BRANCH  10  16
ATOM     16  O   UNL     1      90.376  83.599  87.188  1.00  0.00    -0.504 OA
ATOM     17  H   UNL     1      90.136  82.839  86.652  1.00  0.00     0.293 HD
ENDBRANCH  10  16
ENDBRANCH   7   8
ENDBRANCH   4   7
ENDBRANCH   2   3
ENDBRANCH   1   2
BRANCH   1  18
ATOM     18  C   UNL     1      97.229  81.884  81.607  1.00  0.00     0.001 C 
BRANCH  18  19
ATOM     19  C   UNL     1      97.879  82.143  80.224  1.00  0.00     0.004 C 
BRANCH  19  20
ATOM     20  C   UNL     1      96.823  82.597  79.178  1.00  0.00     0.027 C 
BRANCH  20  21
ATOM     21  C   UNL     1      97.374  82.829  77.854  1.00  0.00    -0.031 C 
ATOM     22  C   UNL     1      96.831  82.294  76.746  1.00  0.00    -0.028 C 
BRANCH  22  23
ATOM     23  C   UNL     1      97.358  82.512  75.401  1.00  0.00     0.005 C 
ATOM     24  C   UNL     1      98.457  83.608  75.424  1.00  0.00     0.012 C 
ATOM     25  C   UNL     1      97.872  81.174  74.802  1.00  0.00     0.012 C 
ENDBRANCH  22  23
ENDBRANCH  20  21
ENDBRANCH  19  20
ENDBRANCH  18  19
ENDBRANCH   1  18
TORSDOF 11
ENDMDL
MODEL 2
REMARK VINA RESULT:    -5.844     20.187     22.464
REMARK INTER + INTRA:         -10.133
REMARK INTER:                  -9.310
REMARK INTRA:                  -0.824
REMARK UNBOUND:                -0.702
REMARK SMILES COc1cc(CNC(=O)CCCCC/C=C/C(C)C)ccc1O
REMARK SMILES IDX 11 1 10 2 8 3 7 4 9 6 6 7 5 8 3 9 22 10 4 11 21 12 20 13
REMARK SMILES IDX 2 14 1 15 23 16 12 18 13 19 14 20 15 21 16 22 17 23 18 24
REMARK SMILES IDX 19 25
REMARK H PARENT 7 5 23 17
REMARK Flexibility Score: inf
ROOT
ATOM      1  C   UNL     1      81.195  65.234  75.149  1.00  0.00     0.010 C 
ENDROOT
BRANCH   1   2
ATOM      2  C   UNL     1      81.645  66.153  76.314  1.00  0.00     0.100 C 
BRANCH   2   3
ATOM      3  C   UNL     1      83.076  66.039  76.650  1.00  0.00     0.220 C 
ATOM      4  N   UNL     1      83.623  64.812  76.876  1.00  0.00    -0.352 N 
ATOM      5  H   UNL     1      82.962  64.048  76.865  1.00  0.00     0.163 HD
ATOM      6  O   UNL     1      83.766  67.085  76.680  1.00  0.00    -0.275 OA
BRANCH   4   7
ATOM      7  C   UNL     1      85.006  64.552  77.114  1.00  0.00     0.151 C 
BRANCH   7   8
ATOM      8  C   UNL     1      85.354  64.587  78.558  1.00  0.00    -0.025 A 
ATOM      9  C   UNL     1      86.402  65.716  80.475  1.00  0.00     0.160 A 
ATOM     10  C   UNL     1      86.064  64.623  81.302  1.00  0.00     0.157 A 
ATOM     11  C   UNL     1      86.054  65.686  79.109  1.00  0.00     0.056 A 
ATOM     12  C   UNL     1      85.353  63.533  80.768  1.00  0.00     0.050 A 
ATOM     13  C   UNL     1      84.992  63.519  79.408  1.00  0.00     0.009 A 
BRANCH   9  14
ATOM     14  O   UNL     1      87.016  66.821  81.004  1.00  0.00    -0.493 OA
ATOM     15  C   UNL     1      88.101  67.327  80.209  1.00  0.00     0.278 C 
ENDBRANCH   9  14
BRANCH  10  16
ATOM     16  O   UNL     1      86.406  64.600  82.615  1.00  0.00    -0.504 OA
ATOM     17  H   UNL     1      86.197  65.449  83.014  1.00  0.00     0.293 HD
ENDBRANCH  10  16
ENDBRANCH   7   8
ENDBRANCH   4   7
ENDBRANCH   2   3
ENDBRANCH   1   2
BRANCH   1  18
ATOM     18  C   UNL     1      80.471  66.045  74.044  1.00  0.00     0.001 C 
BRANCH  18  19
ATOM     19  C   UNL     1      80.107  65.206  72.793  1.00  0.00     0.004 C 
BRANCH  19  20
ATOM     20  C   UNL     1      80.098  66.080  71.507  1.00  0.00     0.027 C 
BRANCH  20  21
ATOM     21  C   UNL     1      81.414  66.553  71.114  1.00  0.00    -0.031 C 
ATOM     22  C   UNL     1      81.724  67.861  71.071  1.00  0.00    -0.028 C 
BRANCH  22  23
ATOM     23  C   UNL     1      83.038  68.369  70.685  1.00  0.00     0.005 C 
ATOM     24  C   UNL     1      83.417  69.597  71.555  1.00  0.00     0.012 C 
ATOM     25  C   UNL     1      84.097  67.237  70.770  1.00  0.00     0.012 C 
ENDBRANCH  22  23
ENDBRANCH  20  21
ENDBRANCH  19  20
ENDBRANCH  18  19
ENDBRANCH   1  18
TORSDOF 11
ENDMDL
MODEL 3
REMARK VINA RESULT:    -5.829     24.786     26.323
REMARK INTER + INTRA:         -10.109
REMARK INTER:                  -9.385
REMARK INTRA:                  -0.724
REMARK UNBOUND:                -0.702
REMARK SMILES COc1cc(CNC(=O)CCCCC/C=C/C(C)C)ccc1O
REMARK SMILES IDX 11 1 10 2 8 3 7 4 9 6 6 7 5 8 3 9 22 10 4 11 21 12 20 13
REMARK SMILES IDX 2 14 1 15 23 16 12 18 13 19 14 20 15 21 16 22 17 23 18 24
REMARK SMILES IDX 19 25
REMARK H PARENT 7 5 23 17
REMARK Flexibility Score: inf
ROOT
ATOM      1  C   UNL     1      77.827  91.089  63.346  1.00  0.00     0.010 C 
ENDROOT
BRANCH   1   2
ATOM      2  C   UNL     1      77.107  89.734  63.127  1.00  0.00     0.100 C 
BRANCH   2   3
ATOM      3  C   UNL     1      77.510  88.680  64.076  1.00  0.00     0.220 C 
ATOM      4  N   UNL     1      77.971  89.020  65.312  1.00  0.00    -0.352 N 
ATOM      5  H   UNL     1      78.072  90.014  65.465  1.00  0.00     0.163 HD
ATOM      6  O   UNL     1      77.378  87.482  63.728  1.00  0.00    -0.275 OA
BRANCH   4   7
ATOM      7  C   UNL     1      78.301  88.104  66.355  1.00  0.00     0.151 C 
BRANCH   7   8
ATOM      8  C   UNL     1      77.102  87.470  66.961  1.00  0.00    -0.025 A 
ATOM      9  C   UNL     1      75.813  85.457  67.540  1.00  0.00     0.160 A 
ATOM     10  C   UNL     1      74.786  86.268  68.070  1.00  0.00     0.157 A 
ATOM     11  C   UNL     1      76.957  86.063  66.982  1.00  0.00     0.056 A 
ATOM     12  C   UNL     1      74.927  87.668  68.070  1.00  0.00     0.050 A 
ATOM     13  C   UNL     1      76.082  88.264  67.529  1.00  0.00     0.009 A 
BRANCH   9  14
ATOM     14  O   UNL     1      75.725  84.092  67.614  1.00  0.00    -0.493 OA
ATOM     15  C   UNL     1      75.604  83.441  66.339  1.00  0.00     0.278 C 
ENDBRANCH   9  14
BRANCH  10  16
ATOM     16  O   UNL     1      73.657  85.726  68.590  1.00  0.00    -0.504 OA
ATOM     17  H   UNL     1      73.566  84.820  68.283  1.00  0.00     0.293 HD
ENDBRANCH  10  16
ENDBRANCH   7   8
ENDBRANCH   4   7
ENDBRANCH   2   3
ENDBRANCH   1   2
BRANCH   1  18
ATOM     18  C   UNL     1      76.807  92.246  63.505  1.00  0.00     0.001 C 
BRANCH  18  19
ATOM     19  C   UNL     1      76.923  92.997  64.856  1.00  0.00     0.004 C 
BRANCH  19  20
ATOM     20  C   UNL     1      78.029  94.087  64.805  1.00  0.00     0.027 C 
BRANCH  20  21
ATOM     21  C   UNL     1      78.249  94.756  66.076  1.00  0.00    -0.031 C 
ATOM     22  C   UNL     1      79.429  95.316  66.399  1.00  0.00    -0.028 C 
BRANCH  22  23
ATOM     23  C   UNL     1      79.680  96.001  67.665  1.00  0.00     0.005 C 
ATOM     24  C   UNL     1      79.733  97.536  67.445  1.00  0.00     0.012 C 
ATOM     25  C   UNL     1      78.614  95.592  68.717  1.00  0.00     0.012 C 
ENDBRANCH  22  23
ENDBRANCH  20  21
ENDBRANCH  19  20
ENDBRANCH  18  19
ENDBRANCH   1  18
TORSDOF 11
ENDMDL
MODEL 4
REMARK VINA RESULT:    -5.810     14.446     18.268
REMARK INTER + INTRA:         -10.079
REMARK INTER:                  -9.409
REMARK INTRA:                  -0.669
REMARK UNBOUND:                -0.702
REMARK SMILES COc1cc(CNC(=O)CCCCC/C=C/C(C)C)ccc1O
REMARK SMILES IDX 11 1 10 2 8 3 7 4 9 6 6 7 5 8 3 9 22 10 4 11 21 12 20 13
REMARK SMILES IDX 2 14 1 15 23 16 12 18 13 19 14 20 15 21 16 22 17 23 18 24
REMARK SMILES IDX 19 25
REMARK H PARENT 7 5 23 17
REMARK Flexibility Score: inf
ROOT
ATOM      1  C   UNL     1      83.444  93.808  87.843  1.00  0.00     0.010 C 
ENDROOT
BRANCH   1   2
ATOM      2  C   UNL     1      83.024  92.447  88.455  1.00  0.00     0.100 C 
BRANCH   2   3
ATOM      3  C   UNL     1      83.480  91.276  87.683  1.00  0.00     0.220 C 
ATOM      4  N   UNL     1      83.085  91.121  86.389  1.00  0.00    -0.352 N 
ATOM      5  H   UNL     1      82.423  91.813  86.064  1.00  0.00     0.163 HD
ATOM      6  O   UNL     1      84.262  90.465  88.235  1.00  0.00    -0.275 OA
BRANCH   4   7
ATOM      7  C   UNL     1      83.527  90.093  85.503  1.00  0.00     0.151 C 
BRANCH   7   8
ATOM      8  C   UNL     1      82.451  89.124  85.170  1.00  0.00    -0.025 A 
ATOM      9  C   UNL     1      81.500  86.860  85.303  1.00  0.00     0.160 A 
ATOM     10  C   UNL     1      80.422  87.266  84.486  1.00  0.00     0.157 A 
ATOM     11  C   UNL     1      82.509  87.787  85.631  1.00  0.00     0.056 A 
ATOM     12  C   UNL     1      80.345  88.596  84.036  1.00  0.00     0.050 A 
ATOM     13  C   UNL     1      81.346  89.522  84.385  1.00  0.00     0.009 A 
BRANCH   9  14
ATOM     14  O   UNL     1      81.538  85.591  85.818  1.00  0.00    -0.493 OA
ATOM     15  C   UNL     1      82.588  85.378  86.777  1.00  0.00     0.278 C 
ENDBRANCH   9  14
BRANCH  10  16
ATOM     16  O   UNL     1      79.445  86.396  84.124  1.00  0.00    -0.504 OA
ATOM     17  H   UNL     1      79.427  85.661  84.742  1.00  0.00     0.293 HD
ENDBRANCH  10  16
ENDBRANCH   7   8
ENDBRANCH   4   7
ENDBRANCH   2   3
ENDBRANCH   1   2
BRANCH   1  18
ATOM     18  C   UNL     1      82.416  94.916  88.186  1.00  0.00     0.001 C 
BRANCH  18  19
ATOM     19  C   UNL     1      82.572  96.198  87.329  1.00  0.00     0.004 C 
BRANCH  19  20
ATOM     20  C   UNL     1      81.217  96.942  87.171  1.00  0.00     0.027 C 
BRANCH  20  21
ATOM     21  C   UNL     1      81.300  98.370  87.430  1.00  0.00    -0.031 C 
ATOM     22  C   UNL     1      82.078  98.879  88.402  1.00  0.00    -0.028 C 
BRANCH  22  23
ATOM     23  C   UNL     1      82.188 100.308  88.685  1.00  0.00     0.005 C 
ATOM     24  C   UNL     1      83.676 100.705  88.877  1.00  0.00     0.012 C 
ATOM     25  C   UNL     1      81.498 101.132  87.564  1.00  0.00     0.012 C 
ENDBRANCH  22  23
ENDBRANCH  20  21
ENDBRANCH  19  20
ENDBRANCH  18  19
ENDBRANCH   1  18
TORSDOF 11
ENDMDL
MODEL 5
REMARK VINA RESULT:    -5.768     20.665     23.176
REMARK INTER + INTRA:         -10.011
REMARK INTER:                  -7.962
REMARK INTRA:                  -2.049
REMARK UNBOUND:                -0.702
REMARK SMILES COc1cc(CNC(=O)CCCCC/C=C/C(C)C)ccc1O
REMARK SMILES IDX 11 1 10 2 8 3 7 4 9 6 6 7 5 8 3 9 22 10 4 11 21 12 20 13
REMARK SMILES IDX 2 14 1 15 23 16 12 18 13 19 14 20 15 21 16 22 17 23 18 24
REMARK SMILES IDX 19 25
REMARK H PARENT 7 5 23 17
REMARK Flexibility Score: inf
ROOT
ATOM      1  C   UNL     1      81.228  67.491  71.289  1.00  0.00     0.010 C 
ENDROOT
BRANCH   1   2
ATOM      2  C   UNL     1      80.615  67.778  72.684  1.00  0.00     0.100 C 
BRANCH   2   3
ATOM      3  C   UNL     1      80.636  66.620  73.598  1.00  0.00     0.220 C 
ATOM      4  N   UNL     1      81.337  66.688  74.763  1.00  0.00    -0.352 N 
ATOM      5  H   UNL     1      81.871  67.538  74.884  1.00  0.00     0.163 HD
ATOM      6  O   UNL     1      79.965  65.606  73.290  1.00  0.00    -0.275 OA
BRANCH   4   7
ATOM      7  C   UNL     1      81.362  65.684  75.776  1.00  0.00     0.151 C 
BRANCH   7   8
ATOM      8  C   UNL     1      82.648  64.941  75.812  1.00  0.00    -0.025 A 
ATOM      9  C   UNL     1      84.354  63.682  77.060  1.00  0.00     0.160 A 
ATOM     10  C   UNL     1      85.129  63.570  75.885  1.00  0.00     0.157 A 
ATOM     11  C   UNL     1      83.126  64.374  77.017  1.00  0.00     0.056 A 
ATOM     12  C   UNL     1      84.656  64.115  74.678  1.00  0.00     0.050 A 
ATOM     13  C   UNL     1      83.420  64.786  74.639  1.00  0.00     0.009 A 
BRANCH   9  14
ATOM     14  O   UNL     1      84.763  63.080  78.220  1.00  0.00    -0.493 OA
ATOM     15  C   UNL     1      85.334  63.983  79.182  1.00  0.00     0.278 C 
ENDBRANCH   9  14
BRANCH  10  16
ATOM     16  O   UNL     1      86.329  62.938  75.891  1.00  0.00    -0.504 OA
ATOM     17  H   UNL     1      87.005  63.532  75.555  1.00  0.00     0.293 HD
ENDBRANCH  10  16
ENDBRANCH   7   8
ENDBRANCH   4   7
ENDBRANCH   2   3
ENDBRANCH   1   2
BRANCH   1  18
ATOM     18  C   UNL     1      82.771  67.368  71.370  1.00  0.00     0.001 C 
BRANCH  18  19
ATOM     19  C   UNL     1      83.443  68.495  72.195  1.00  0.00     0.004 C 
BRANCH  19  20
ATOM     20  C   UNL     1      84.599  67.941  73.074  1.00  0.00     0.027 C 
BRANCH  20  21
ATOM     21  C   UNL     1      84.659  68.531  74.401  1.00  0.00    -0.031 C 
ATOM     22  C   UNL     1      84.833  67.791  75.510  1.00  0.00    -0.028 C 
BRANCH  22  23
ATOM     23  C   UNL     1      84.903  68.354  76.856  1.00  0.00     0.005 C 
ATOM     24  C   UNL     1      85.512  67.321  77.840  1.00  0.00     0.012 C 
ATOM     25  C   UNL     1      85.695  69.690  76.838  1.00  0.00     0.012 C 
ENDBRANCH  22  23
ENDBRANCH  20  21
ENDBRANCH  19  20
ENDBRANCH  18  19
ENDBRANCH   1  18
TORSDOF 11
ENDMDL
MODEL 6
REMARK VINA RESULT:    -5.646     13.399     16.197
REMARK INTER + INTRA:          -9.813
REMARK INTER:                  -8.078
REMARK INTRA:                  -1.735
REMARK UNBOUND:                -0.702
REMARK SMILES COc1cc(CNC(=O)CCCCC/C=C/C(C)C)ccc1O
REMARK SMILES IDX 11 1 10 2 8 3 7 4 9 6 6 7 5 8 3 9 22 10 4 11 21 12 20 13
REMARK SMILES IDX 2 14 1 15 23 16 12 18 13 19 14 20 15 21 16 22 17 23 18 24
REMARK SMILES IDX 19 25
REMARK H PARENT 7 5 23 17
REMARK Flexibility Score: inf
ROOT
ATOM      1  C   UNL     1      83.314  90.667  91.597  1.00  0.00     0.010 C 
ENDROOT
BRANCH   1   2
ATOM      2  C   UNL     1      83.155  89.134  91.769  1.00  0.00     0.100 C 
BRANCH   2   3
ATOM      3  C   UNL     1      82.113  88.539  90.912  1.00  0.00     0.220 C 
ATOM      4  N   UNL     1      82.466  87.886  89.770  1.00  0.00    -0.352 N 
ATOM      5  H   UNL     1      83.453  87.923  89.551  1.00  0.00     0.163 HD
ATOM      6  O   UNL     1      80.919  88.617  91.285  1.00  0.00    -0.275 OA
BRANCH   4   7
ATOM      7  C   UNL     1      81.574  87.185  88.906  1.00  0.00     0.151 C 
BRANCH   7   8
ATOM      8  C   UNL     1      81.294  87.927  87.649  1.00  0.00    -0.025 A 
ATOM      9  C   UNL     1      81.380  88.083  85.196  1.00  0.00     0.160 A 
ATOM     10  C   UNL     1      80.806  89.371  85.259  1.00  0.00     0.157 A 
ATOM     11  C   UNL     1      81.628  87.375  86.390  1.00  0.00     0.056 A 
ATOM     12  C   UNL     1      80.454  89.922  86.504  1.00  0.00     0.050 A 
ATOM     13  C   UNL     1      80.687  89.201  87.690  1.00  0.00     0.009 A 
BRANCH   9  14
ATOM     14  O   UNL     1      81.646  87.501  83.985  1.00  0.00    -0.493 OA
ATOM     15  C   UNL     1      80.597  86.645  83.502  1.00  0.00     0.278 C 
ENDBRANCH   9  14
BRANCH  10  16
ATOM     16  O   UNL     1      80.578  90.096  84.135  1.00  0.00    -0.504 OA
ATOM     17  H   UNL     1      79.746  89.823  83.742  1.00  0.00     0.293 HD
ENDBRANCH  10  16
ENDBRANCH   7   8
ENDBRANCH   4   7
ENDBRANCH   2   3
ENDBRANCH   1   2
BRANCH   1  18
ATOM     18  C   UNL     1      82.833  91.125  90.196  1.00  0.00     0.001 C 
BRANCH  18  19
ATOM     19  C   UNL     1      82.965  92.651  89.960  1.00  0.00     0.004 C 
BRANCH  19  20
ATOM     20  C   UNL     1      83.163  92.977  88.453  1.00  0.00     0.027 C 
BRANCH  20  21
ATOM     21  C   UNL     1      83.292  91.798  87.613  1.00  0.00    -0.031 C 
ATOM     22  C   UNL     1      84.212  91.710  86.636  1.00  0.00    -0.028 C 
BRANCH  22  23
ATOM     23  C   UNL     1      84.370  90.538  85.778  1.00  0.00     0.005 C 
ATOM     24  C   UNL     1      84.033  90.898  84.307  1.00  0.00     0.012 C 
ATOM     25  C   UNL     1      85.801  89.953  85.928  1.00  0.00     0.012 C 
ENDBRANCH  22  23
ENDBRANCH  20  21
ENDBRANCH  19  20
ENDBRANCH  18  19
ENDBRANCH   1  18
TORSDOF 11
ENDMDL
MODEL 7
REMARK VINA RESULT:    -5.643     24.255     26.129
REMARK INTER + INTRA:          -9.809
REMARK INTER:                  -9.081
REMARK INTRA:                  -0.728
REMARK UNBOUND:                -0.702
REMARK SMILES COc1cc(CNC(=O)CCCCC/C=C/C(C)C)ccc1O
REMARK SMILES IDX 11 1 10 2 8 3 7 4 9 6 6 7 5 8 3 9 22 10 4 11 21 12 20 13
REMARK SMILES IDX 2 14 1 15 23 16 12 18 13 19 14 20 15 21 16 22 17 23 18 24
REMARK SMILES IDX 19 25
REMARK H PARENT 7 5 23 17
REMARK Flexibility Score: inf
ROOT
ATOM      1  C   UNL     1      76.189  91.189  64.076  1.00  0.00     0.010 C 
ENDROOT
BRANCH   1   2
ATOM      2  C   UNL     1      77.503  91.905  63.671  1.00  0.00     0.100 C 
BRANCH   2   3
ATOM      3  C   UNL     1      77.579  93.312  64.108  1.00  0.00     0.220 C 
ATOM      4  N   UNL     1      78.682  93.756  64.771  1.00  0.00    -0.352 N 
ATOM      5  H   UNL     1      79.363  93.040  64.985  1.00  0.00     0.163 HD
ATOM      6  O   UNL     1      76.631  94.078  63.818  1.00  0.00    -0.275 OA
BRANCH   4   7
ATOM      7  C   UNL     1      78.927  95.106  65.163  1.00  0.00     0.151 C 
BRANCH   7   8
ATOM      8  C   UNL     1      78.803  95.307  66.630  1.00  0.00    -0.025 A 
ATOM      9  C   UNL     1      77.545  95.033  68.726  1.00  0.00     0.160 A 
ATOM     10  C   UNL     1      78.549  95.742  69.420  1.00  0.00     0.157 A 
ATOM     11  C   UNL     1      77.675  94.829  67.337  1.00  0.00     0.056 A 
ATOM     12  C   UNL     1      79.684  96.207  68.731  1.00  0.00     0.050 A 
ATOM     13  C   UNL     1      79.815  95.983  67.348  1.00  0.00     0.009 A 
BRANCH   9  14
ATOM     14  O   UNL     1      76.480  94.500  69.402  1.00  0.00    -0.493 OA
ATOM     15  C   UNL     1      75.576  93.747  68.575  1.00  0.00     0.278 C 
ENDBRANCH   9  14
BRANCH  10  16
ATOM     16  O   UNL     1      78.448  95.984  70.751  1.00  0.00    -0.504 OA
ATOM     17  H   UNL     1      78.999  96.736  70.982  1.00  0.00     0.293 HD
ENDBRANCH  10  16
ENDBRANCH   7   8
ENDBRANCH   4   7
ENDBRANCH   2   3
ENDBRANCH   1   2
BRANCH   1  18
ATOM     18  C   UNL     1      76.457  90.078  65.124  1.00  0.00     0.001 C 
BRANCH  18  19
ATOM     19  C   UNL     1      77.576  89.089  64.710  1.00  0.00     0.004 C 
BRANCH  19  20
ATOM     20  C   UNL     1      78.208  88.397  65.951  1.00  0.00     0.027 C 
BRANCH  20  21
ATOM     21  C   UNL     1      77.514  87.188  66.361  1.00  0.00    -0.031 C 
ATOM     22  C   UNL     1      78.067  86.292  67.198  1.00  0.00    -0.028 C 
BRANCH  22  23
ATOM     23  C   UNL     1      77.394  85.071  67.634  1.00  0.00     0.005 C 
ATOM     24  C   UNL     1      75.920  85.374  68.013  1.00  0.00     0.012 C 
ATOM     25  C   UNL     1      77.508  83.975  66.540  1.00  0.00     0.012 C 
ENDBRANCH  22  23
ENDBRANCH  20  21
ENDBRANCH  19  20
ENDBRANCH  18  19
ENDBRANCH   1  18
TORSDOF 11
ENDMDL
MODEL 8
REMARK VINA RESULT:    -5.642     25.073     26.565
REMARK INTER + INTRA:          -9.807
REMARK INTER:                  -8.557
REMARK INTRA:                  -1.250
REMARK UNBOUND:                -0.702
REMARK SMILES COc1cc(CNC(=O)CCCCC/C=C/C(C)C)ccc1O
REMARK SMILES IDX 11 1 10 2 8 3 7 4 9 6 6 7 5 8 3 9 22 10 4 11 21 12 20 13
REMARK SMILES IDX 2 14 1 15 23 16 12 18 13 19 14 20 15 21 16 22 17 23 18 24
REMARK SMILES IDX 19 25
REMARK H PARENT 7 5 23 17
REMARK Flexibility Score: inf
ROOT
ATOM      1  C   UNL     1      75.390  89.882  68.588  1.00  0.00     0.010 C 
ENDROOT
BRANCH   1   2
ATOM      2  C   UNL     1      74.602  90.831  69.527  1.00  0.00     0.100 C 
BRANCH   2   3
ATOM      3  C   UNL     1      74.981  92.251  69.401  1.00  0.00     0.220 C 
ATOM      4  N   UNL     1      74.985  92.846  68.176  1.00  0.00    -0.352 N 
ATOM      5  H   UNL     1      74.788  92.223  67.405  1.00  0.00     0.163 HD
ATOM      6  O   UNL     1      75.254  92.889  70.445  1.00  0.00    -0.275 OA
BRANCH   4   7
ATOM      7  C   UNL     1      75.235  94.228  67.926  1.00  0.00     0.151 C 
BRANCH   7   8
ATOM      8  C   UNL     1      76.478  94.451  67.142  1.00  0.00    -0.025 A 
ATOM      9  C   UNL     1      78.825  95.174  67.019  1.00  0.00     0.160 A 
ATOM     10  C   UNL     1      78.829  94.925  65.630  1.00  0.00     0.157 A 
ATOM     11  C   UNL     1      77.649  94.944  67.762  1.00  0.00     0.056 A 
ATOM     12  C   UNL     1      77.674  94.417  65.005  1.00  0.00     0.050 A 
ATOM     13  C   UNL     1      76.511  94.172  65.757  1.00  0.00     0.009 A 
BRANCH   9  14
ATOM     14  O   UNL     1      79.969  95.585  67.652  1.00  0.00    -0.493 OA
ATOM     15  C   UNL     1      79.754  96.577  68.669  1.00  0.00     0.278 C 
ENDBRANCH   9  14
BRANCH  10  16
ATOM     16  O   UNL     1      79.930  95.159  64.874  1.00  0.00    -0.504 OA
ATOM     17  H   UNL     1      79.776  95.923  64.312  1.00  0.00     0.293 HD
ENDBRANCH  10  16
ENDBRANCH   7   8
ENDBRANCH   4   7
ENDBRANCH   2   3
ENDBRANCH   1   2
BRANCH   1  18
ATOM     18  C   UNL     1      74.581  88.594  68.287  1.00  0.00     0.001 C 
BRANCH  18  19
ATOM     19  C   UNL     1      75.336  87.579  67.393  1.00  0.00     0.004 C 
BRANCH  19  20
ATOM     20  C   UNL     1      76.861  87.877  67.359  1.00  0.00     0.027 C 
BRANCH  20  21
ATOM     21  C   UNL     1      77.384  88.097  66.021  1.00  0.00    -0.031 C 
ATOM     22  C   UNL     1      77.226  89.263  65.370  1.00  0.00    -0.028 C 
BRANCH  22  23
ATOM     23  C   UNL     1      77.744  89.517  64.028  1.00  0.00     0.005 C 
ATOM     24  C   UNL     1      77.111  88.531  63.011  1.00  0.00     0.012 C 
ATOM     25  C   UNL     1      77.509  91.001  63.635  1.00  0.00     0.012 C 
ENDBRANCH  22  23
ENDBRANCH  20  21
ENDBRANCH  19  20
ENDBRANCH  18  19
ENDBRANCH   1  18
TORSDOF 11
ENDMDL
MODEL 9
REMARK VINA RESULT:    -5.621      3.167      9.209
REMARK INTER + INTRA:          -9.774
REMARK INTER:                  -8.710
REMARK INTRA:                  -1.064
REMARK UNBOUND:                -0.702
REMARK SMILES COc1cc(CNC(=O)CCCCC/C=C/C(C)C)ccc1O
REMARK SMILES IDX 11 1 10 2 8 3 7 4 9 6 6 7 5 8 3 9 22 10 4 11 21 12 20 13
REMARK SMILES IDX 2 14 1 15 23 16 12 18 13 19 14 20 15 21 16 22 17 23 18 24
REMARK SMILES IDX 19 25
REMARK H PARENT 7 5 23 17
REMARK Flexibility Score: inf
ROOT
ATOM      1  C   UNL     1      96.212  80.540  83.728  1.00  0.00     0.010 C 
ENDROOT
BRANCH   1   2
ATOM      2  C   UNL     1      96.092  82.082  83.613  1.00  0.00     0.100 C 
BRANCH   2   3
ATOM      3  C   UNL     1      97.152  82.708  82.801  1.00  0.00     0.220 C 
ATOM      4  N   UNL     1      97.713  82.017  81.770  1.00  0.00    -0.352 N 
ATOM      5  H   UNL     1      97.397  81.061  81.682  1.00  0.00     0.163 HD
ATOM      6  O   UNL     1      97.482  83.889  83.062  1.00  0.00    -0.275 OA
BRANCH   4   7
ATOM      7  C   UNL     1      98.673  82.535  80.850  1.00  0.00     0.151 C 
BRANCH   7   8
ATOM      8  C   UNL     1      98.163  82.578  79.455  1.00  0.00    -0.025 A 
ATOM      9  C   UNL     1      98.572  82.570  77.030  1.00  0.00     0.160 A 
ATOM     10  C   UNL     1      97.187  82.713  76.797  1.00  0.00     0.157 A 
ATOM     11  C   UNL     1      99.050  82.512  78.355  1.00  0.00     0.056 A 
ATOM     12  C   UNL     1      96.294  82.763  77.883  1.00  0.00     0.050 A 
ATOM     13  C   UNL     1      96.777  82.685  79.202  1.00  0.00     0.009 A 
BRANCH   9  14
ATOM     14  O   UNL     1      99.441  82.433  75.980  1.00  0.00    -0.493 OA
ATOM     15  C   UNL     1     100.782  82.863  76.267  1.00  0.00     0.278 C 
ENDBRANCH   9  14
BRANCH  10  16
ATOM     16  O   UNL     1      96.690  82.801  75.538  1.00  0.00    -0.504 OA
ATOM     17  H   UNL     1      96.242  83.644  75.429  1.00  0.00     0.293 HD
ENDBRANCH  10  16
ENDBRANCH   7   8
ENDBRANCH   4   7
ENDBRANCH   2   3
ENDBRANCH   1   2
BRANCH   1  18
ATOM     18  C   UNL     1      95.056  79.950  84.575  1.00  0.00     0.001 C 
BRANCH  18  19
ATOM     19  C   UNL     1      93.913  80.958  84.857  1.00  0.00     0.004 C 
BRANCH  19  20
ATOM     20  C   UNL     1      93.668  81.124  86.383  1.00  0.00     0.027 C 
BRANCH  20  21
ATOM     21  C   UNL     1      94.110  82.404  86.910  1.00  0.00    -0.031 C 
ATOM     22  C   UNL     1      94.008  83.545  86.206  1.00  0.00    -0.028 C 
BRANCH  22  23
ATOM     23  C   UNL     1      94.438  84.848  86.709  1.00  0.00     0.005 C 
ATOM     24  C   UNL     1      94.808  85.785  85.529  1.00  0.00     0.012 C 
ATOM     25  C   UNL     1      93.342  85.458  87.625  1.00  0.00     0.012 C 
ENDBRANCH  22  23
ENDBRANCH  20  21
ENDBRANCH  19  20
ENDBRANCH  18  19
ENDBRANCH   1  18
TORSDOF 11
ENDMDL
MODEL 10
REMARK VINA RESULT:    -5.501     25.177     27.257
REMARK INTER + INTRA:          -9.579
REMARK INTER:                  -7.824
REMARK INTRA:                  -1.756
REMARK UNBOUND:                -0.702
REMARK SMILES COc1cc(CNC(=O)CCCCC/C=C/C(C)C)ccc1O
REMARK SMILES IDX 11 1 10 2 8 3 7 4 9 6 6 7 5 8 3 9 22 10 4 11 21 12 20 13
REMARK SMILES IDX 2 14 1 15 23 16 12 18 13 19 14 20 15 21 16 22 17 23 18 24
REMARK SMILES IDX 19 25
REMARK H PARENT 7 5 23 17
REMARK Flexibility Score: inf
ROOT
ATOM      1  C   UNL     1      71.476  87.711  68.287  1.00  0.00     0.010 C 
ENDROOT
BRANCH   1   2
ATOM      2  C   UNL     1      71.595  88.115  66.795  1.00  0.00     0.100 C 
BRANCH   2   3
ATOM      3  C   UNL     1      72.049  87.024  65.913  1.00  0.00     0.220 C 
ATOM      4  N   UNL     1      72.469  85.846  66.452  1.00  0.00    -0.352 N 
ATOM      5  H   UNL     1      72.507  85.835  67.462  1.00  0.00     0.163 HD
ATOM      6  O   UNL     1      71.996  87.199  64.672  1.00  0.00    -0.275 OA
BRANCH   4   7
ATOM      7  C   UNL     1      72.840  84.682  65.715  1.00  0.00     0.151 C 
BRANCH   7   8
ATOM      8  C   UNL     1      74.300  84.412  65.769  1.00  0.00    -0.025 A 
ATOM      9  C   UNL     1      76.287  83.231  64.928  1.00  0.00     0.160 A 
ATOM     10  C   UNL     1      77.078  83.861  65.913  1.00  0.00     0.157 A 
ATOM     11  C   UNL     1      74.905  83.503  64.869  1.00  0.00     0.056 A 
ATOM     12  C   UNL     1      76.490  84.779  66.803  1.00  0.00     0.050 A 
ATOM     13  C   UNL     1      75.114  85.061  66.725  1.00  0.00     0.009 A 
BRANCH   9  14
ATOM     14  O   UNL     1      76.864  82.403  64.002  1.00  0.00    -0.493 OA
ATOM     15  C   UNL     1      76.554  81.011  64.183  1.00  0.00     0.278 C 
ENDBRANCH   9  14
BRANCH  10  16
ATOM     16  O   UNL     1      78.406  83.605  66.022  1.00  0.00    -0.504 OA
ATOM     17  H   UNL     1      78.866  84.407  66.283  1.00  0.00     0.293 HD
ENDBRANCH  10  16
ENDBRANCH   7   8
ENDBRANCH   4   7
ENDBRANCH   2   3
ENDBRANCH   1   2
BRANCH   1  18
ATOM     18  C   UNL     1      72.347  88.627  69.185  1.00  0.00     0.001 C 
BRANCH  18  19
ATOM     19  C   UNL     1      73.838  88.206  69.243  1.00  0.00     0.004 C 
BRANCH  19  20
ATOM     20  C   UNL     1      74.740  89.210  68.472  1.00  0.00     0.027 C 
BRANCH  20  21
ATOM     21  C   UNL     1      75.749  88.571  67.644  1.00  0.00    -0.031 C 
ATOM     22  C   UNL     1      76.156  89.094  66.474  1.00  0.00    -0.028 C 
BRANCH  22  23
ATOM     23  C   UNL     1      77.171  88.480  65.622  1.00  0.00     0.005 C 
ATOM     24  C   UNL     1      77.619  89.474  64.518  1.00  0.00     0.012 C 
ATOM     25  C   UNL     1      78.363  87.978  66.483  1.00  0.00     0.012 C 
ENDBRANCH  22  23
ENDBRANCH  20  21
ENDBRANCH  19  20
ENDBRANCH  18  19
ENDBRANCH   1  18
TORSDOF 11
ENDMDL
