MODEL 1
REMARK VINA RESULT:    -5.815      0.000      0.000
REMARK INTER + INTRA:         -10.209
REMARK INTER:                  -9.045
REMARK INTRA:                  -1.164
REMARK UNBOUND:                -1.164
REMARK SMILES COc1cc(CNC(=O)CCCCCC(C)C)ccc1O
REMARK SMILES IDX 10 1 8 2 7 3 9 5 6 6 5 7 3 8 20 9 4 10 19 11 18 12 2 13 1 14
REMARK SMILES IDX 21 15 11 17 12 18 13 19 14 20 15 21 16 22 17 23
REMARK H PARENT 7 4 21 16
REMARK Flexibility Score: inf
ROOT
ATOM      1  C   UNL     1      77.542  85.272  66.258  1.00  0.00     0.100 C 
ENDROOT
BRANCH   1   2
ATOM      2  C   UNL     1      77.521  84.000  65.506  1.00  0.00     0.220 C 
ATOM      3  N   UNL     1      77.286  82.834  66.170  1.00  0.00    -0.352 N 
ATOM      4  H   UNL     1      77.273  82.913  67.177  1.00  0.00     0.163 HD
ATOM      5  O   UNL     1      77.679  84.026  64.261  1.00  0.00    -0.275 OA
BRANCH   3   6
ATOM      6  C   UNL     1      77.068  81.565  65.552  1.00  0.00     0.151 C 
BRANCH   6   7
ATOM      7  C   UNL     1      75.675  81.386  65.062  1.00  0.00    -0.025 A 
ATOM      8  C   UNL     1      73.249  81.537  65.431  1.00  0.00     0.160 A 
ATOM      9  C   UNL     1      73.022  81.109  64.106  1.00  0.00     0.157 A 
ATOM     10  C   UNL     1      74.572  81.655  65.906  1.00  0.00     0.056 A 
ATOM     11  C   UNL     1      74.111  80.814  63.265  1.00  0.00     0.050 A 
ATOM     12  C   UNL     1      75.427  80.956  63.737  1.00  0.00     0.009 A 
BRANCH   8  13
ATOM     13  O   UNL     1      72.202  81.811  66.272  1.00  0.00    -0.493 OA
ATOM     14  C   UNL     1      72.088  83.203  66.625  1.00  0.00     0.278 C 
ENDBRANCH   8  13
BRANCH   9  15
ATOM     15  O   UNL     1      71.754  80.991  63.640  1.00  0.00    -0.504 OA
ATOM     16  H   UNL     1      71.772  80.637  62.748  1.00  0.00     0.293 HD
ENDBRANCH   9  15
ENDBRANCH   6   7
ENDBRANCH   3   6
ENDBRANCH   1   2
BRANCH   1  17
ATOM     17  C   UNL     1      78.039  85.140  67.723  1.00  0.00     0.010 C 
BRANCH  17  18
ATOM     18  C   UNL     1      78.156  86.525  68.415  1.00  0.00     0.001 C 
BRANCH  18  19
ATOM     19  C   UNL     1      76.787  87.222  68.636  1.00  0.00     0.000 C 
BRANCH  19  20
ATOM     20  C   UNL     1      76.254  87.026  70.085  1.00  0.00     0.003 C 
BRANCH  20  21
ATOM     21  C   UNL     1      75.291  85.809  70.275  1.00  0.00    -0.017 C 
ATOM     22  C   UNL     1      76.059  84.576  70.838  1.00  0.00     0.007 C 
ATOM     23  C   UNL     1      74.543  85.420  68.967  1.00  0.00     0.007 C 
ENDBRANCH  20  21
ENDBRANCH  19  20
ENDBRANCH  18  19
ENDBRANCH  17  18
ENDBRANCH   1  17
TORSDOF 10
ENDMDL
MODEL 2
REMARK VINA RESULT:    -5.607     25.885     28.011
REMARK INTER + INTRA:          -9.885
REMARK INTER:                  -9.182
REMARK INTRA:                  -0.703
REMARK UNBOUND:                -1.164
REMARK SMILES COc1cc(CNC(=O)CCCCCC(C)C)ccc1O
REMARK SMILES IDX 10 1 8 2 7 3 9 5 6 6 5 7 3 8 20 9 4 10 19 11 18 12 2 13 1 14
REMARK SMILES IDX 21 15 11 17 12 18 13 19 14 20 15 21 16 22 17 23
REMARK H PARENT 7 4 21 16
REMARK Flexibility Score: inf
ROOT
ATOM      1  C   UNL     1      99.083  83.182  80.364  1.00  0.00     0.100 C 
ENDROOT
BRANCH   1   2
ATOM      2  C   UNL     1      99.320  82.816  81.776  1.00  0.00     0.220 C 
ATOM      3  N   UNL     1      98.396  83.154  82.719  1.00  0.00    -0.352 N 
ATOM      4  H   UNL     1      97.658  83.762  82.393  1.00  0.00     0.163 HD
ATOM      5  O   UNL     1     100.350  82.162  82.071  1.00  0.00    -0.275 OA
BRANCH   3   6
ATOM      6  C   UNL     1      98.412  82.717  84.079  1.00  0.00     0.151 C 
BRANCH   6   7
ATOM      7  C   UNL     1      97.414  83.419  84.930  1.00  0.00    -0.025 A 
ATOM      8  C   UNL     1      95.591  83.347  86.579  1.00  0.00     0.160 A 
ATOM      9  C   UNL     1      95.558  84.758  86.601  1.00  0.00     0.157 A 
ATOM     10  C   UNL     1      96.505  82.687  85.730  1.00  0.00     0.056 A 
ATOM     11  C   UNL     1      96.439  85.496  85.789  1.00  0.00     0.050 A 
ATOM     12  C   UNL     1      97.363  84.832  84.964  1.00  0.00     0.009 A 
BRANCH   8  13
ATOM     13  O   UNL     1      94.729  82.610  87.347  1.00  0.00    -0.493 OA
ATOM     14  C   UNL     1      93.607  82.079  86.616  1.00  0.00     0.278 C 
ENDBRANCH   8  13
BRANCH   9  15
ATOM     15  O   UNL     1      94.682  85.402  87.411  1.00  0.00    -0.504 OA
ATOM     16  H   UNL     1      94.537  84.882  88.205  1.00  0.00     0.293 HD
ENDBRANCH   9  15
ENDBRANCH   6   7
ENDBRANCH   3   6
ENDBRANCH   1   2
BRANCH   1  17
ATOM     17  C   UNL     1      97.602  83.508  80.029  1.00  0.00     0.010 C 
BRANCH  17  18
ATOM     18  C   UNL     1      97.278  83.226  78.536  1.00  0.00     0.001 C 
BRANCH  18  19
ATOM     19  C   UNL     1      97.977  84.207  77.558  1.00  0.00     0.000 C 
BRANCH  19  20
ATOM     20  C   UNL     1      98.403  83.512  76.232  1.00  0.00     0.003 C 
BRANCH  20  21
ATOM     21  C   UNL     1      99.918  83.649  75.872  1.00  0.00    -0.017 C 
ATOM     22  C   UNL     1     100.808  83.473  77.137  1.00  0.00     0.007 C 
ATOM     23  C   UNL     1     100.252  84.996  75.168  1.00  0.00     0.007 C 
ENDBRANCH  20  21
ENDBRANCH  19  20
ENDBRANCH  18  19
ENDBRANCH  17  18
ENDBRANCH   1  17
TORSDOF 10
ENDMDL
MODEL 3
REMARK VINA RESULT:    -5.551     22.293     25.979
REMARK INTER + INTRA:          -9.798
REMARK INTER:                  -8.804
REMARK INTRA:                  -0.994
REMARK UNBOUND:                -1.164
REMARK SMILES COc1cc(CNC(=O)CCCCCC(C)C)ccc1O
REMARK SMILES IDX 10 1 8 2 7 3 9 5 6 6 5 7 3 8 20 9 4 10 19 11 18 12 2 13 1 14
REMARK SMILES IDX 21 15 11 17 12 18 13 19 14 20 15 21 16 22 17 23
REMARK H PARENT 7 4 21 16
REMARK Flexibility Score: inf
ROOT
ATOM      1  C   UNL     1      95.825  94.759  80.771  1.00  0.00     0.100 C 
ENDROOT
BRANCH   1   2
ATOM      2  C   UNL     1      96.464  95.862  80.023  1.00  0.00     0.220 C 
ATOM      3  N   UNL     1      95.802  96.433  78.977  1.00  0.00    -0.352 N 
ATOM      4  H   UNL     1      94.954  95.959  78.701  1.00  0.00     0.163 HD
ATOM      5  O   UNL     1      97.588  96.279  80.395  1.00  0.00    -0.275 OA
BRANCH   3   6
ATOM      6  C   UNL     1      96.221  97.609  78.284  1.00  0.00     0.151 C 
BRANCH   6   7
ATOM      7  C   UNL     1      95.244  98.061  77.256  1.00  0.00    -0.025 A 
ATOM      8  C   UNL     1      94.343  99.826  75.801  1.00  0.00     0.160 A 
ATOM      9  C   UNL     1      93.427  98.903  75.252  1.00  0.00     0.157 A 
ATOM     10  C   UNL     1      95.232  99.404  76.812  1.00  0.00     0.056 A 
ATOM     11  C   UNL     1      93.411  97.571  75.706  1.00  0.00     0.050 A 
ATOM     12  C   UNL     1      94.316  97.152  76.696  1.00  0.00     0.009 A 
BRANCH   8  13
ATOM     13  O   UNL     1      94.361 101.132  75.387  1.00  0.00    -0.493 OA
ATOM     14  C   UNL     1      93.701 102.038  76.291  1.00  0.00     0.278 C 
ENDBRANCH   8  13
BRANCH   9  15
ATOM     15  O   UNL     1      92.566  99.299  74.281  1.00  0.00    -0.504 OA
ATOM     16  H   UNL     1      91.665  99.117  74.558  1.00  0.00     0.293 HD
ENDBRANCH   9  15
ENDBRANCH   6   7
ENDBRANCH   3   6
ENDBRANCH   1   2
BRANCH   1  17
ATOM     17  C   UNL     1      95.072  93.736  79.879  1.00  0.00     0.010 C 
BRANCH  17  18
ATOM     18  C   UNL     1      93.552  94.050  79.806  1.00  0.00     0.001 C 
BRANCH  18  19
ATOM     19  C   UNL     1      93.020  94.188  78.355  1.00  0.00     0.000 C 
BRANCH  19  20
ATOM     20  C   UNL     1      91.694  95.001  78.289  1.00  0.00     0.003 C 
BRANCH  20  21
ATOM     21  C   UNL     1      90.468  94.218  77.716  1.00  0.00    -0.017 C 
ATOM     22  C   UNL     1      89.312  95.192  77.343  1.00  0.00     0.007 C 
ATOM     23  C   UNL     1      89.947  93.117  78.685  1.00  0.00     0.007 C 
ENDBRANCH  20  21
ENDBRANCH  19  20
ENDBRANCH  18  19
ENDBRANCH  17  18
ENDBRANCH   1  17
TORSDOF 10
ENDMDL
MODEL 4
REMARK VINA RESULT:    -5.442     21.405     24.600
REMARK INTER + INTRA:          -9.629
REMARK INTER:                  -8.964
REMARK INTRA:                  -0.665
REMARK UNBOUND:                -1.164
REMARK SMILES COc1cc(CNC(=O)CCCCCC(C)C)ccc1O
REMARK SMILES IDX 10 1 8 2 7 3 9 5 6 6 5 7 3 8 20 9 4 10 19 11 18 12 2 13 1 14
REMARK SMILES IDX 21 15 11 17 12 18 13 19 14 20 15 21 16 22 17 23
REMARK H PARENT 7 4 21 16
REMARK Flexibility Score: inf
ROOT
ATOM      1  C   UNL     1      93.603  99.926  74.907  1.00  0.00     0.100 C 
ENDROOT
BRANCH   1   2
ATOM      2  C   UNL     1      94.404  98.728  75.231  1.00  0.00     0.220 C 
ATOM      3  N   UNL     1      94.429  98.265  76.513  1.00  0.00    -0.352 N 
ATOM      4  H   UNL     1      93.988  98.870  77.191  1.00  0.00     0.163 HD
ATOM      5  O   UNL     1      95.014  98.135  74.308  1.00  0.00    -0.275 OA
BRANCH   3   6
ATOM      6  C   UNL     1      95.014  97.032  76.930  1.00  0.00     0.151 C 
BRANCH   6   7
ATOM      7  C   UNL     1      94.025  96.082  77.509  1.00  0.00    -0.025 A 
ATOM      8  C   UNL     1      93.377  94.485  79.263  1.00  0.00     0.160 A 
ATOM      9  C   UNL     1      92.117  94.324  78.648  1.00  0.00     0.157 A 
ATOM     10  C   UNL     1      94.330  95.347  78.680  1.00  0.00     0.056 A 
ATOM     11  C   UNL     1      91.814  95.030  77.468  1.00  0.00     0.050 A 
ATOM     12  C   UNL     1      92.758  95.906  76.906  1.00  0.00     0.009 A 
BRANCH   8  13
ATOM     13  O   UNL     1      93.699  93.792  80.400  1.00  0.00    -0.493 OA
ATOM     14  C   UNL     1      95.117  93.671  80.625  1.00  0.00     0.278 C 
ENDBRANCH   8  13
BRANCH   9  15
ATOM     15  O   UNL     1      91.195  93.496  79.199  1.00  0.00    -0.504 OA
ATOM     16  H   UNL     1      91.079  92.727  78.636  1.00  0.00     0.293 HD
ENDBRANCH   9  15
ENDBRANCH   6   7
ENDBRANCH   3   6
ENDBRANCH   1   2
BRANCH   1  17
ATOM     17  C   UNL     1      92.524  99.697  73.814  1.00  0.00     0.010 C 
BRANCH  17  18
ATOM     18  C   UNL     1      92.072 101.034  73.166  1.00  0.00     0.001 C 
BRANCH  18  19
ATOM     19  C   UNL     1      91.587 100.876  71.701  1.00  0.00     0.000 C 
BRANCH  19  20
ATOM     20  C   UNL     1      91.250  99.398  71.349  1.00  0.00     0.003 C 
BRANCH  20  21
ATOM     21  C   UNL     1      89.725  99.086  71.202  1.00  0.00    -0.017 C 
ATOM     22  C   UNL     1      89.495  97.583  70.862  1.00  0.00     0.007 C 
ATOM     23  C   UNL     1      89.023  99.986  70.144  1.00  0.00     0.007 C 
ENDBRANCH  20  21
ENDBRANCH  19  20
ENDBRANCH  18  19
ENDBRANCH  17  18
ENDBRANCH   1  17
TORSDOF 10
ENDMDL
MODEL 5
REMARK VINA RESULT:    -5.432     25.220     27.653
REMARK INTER + INTRA:          -9.613
REMARK INTER:                  -8.853
REMARK INTRA:                  -0.760
REMARK UNBOUND:                -1.164
REMARK SMILES COc1cc(CNC(=O)CCCCCC(C)C)ccc1O
REMARK SMILES IDX 10 1 8 2 7 3 9 5 6 6 5 7 3 8 20 9 4 10 19 11 18 12 2 13 1 14
REMARK SMILES IDX 21 15 11 17 12 18 13 19 14 20 15 21 16 22 17 23
REMARK H PARENT 7 4 21 16
REMARK Flexibility Score: inf
ROOT
ATOM      1  C   UNL     1      98.084  82.926  84.676  1.00  0.00     0.100 C 
ENDROOT
BRANCH   1   2
ATOM      2  C   UNL     1      98.971  82.448  83.595  1.00  0.00     0.220 C 
ATOM      3  N   UNL     1      98.881  83.010  82.357  1.00  0.00    -0.352 N 
ATOM      4  H   UNL     1      98.102  83.640  82.232  1.00  0.00     0.163 HD
ATOM      5  O   UNL     1      99.821  81.560  83.853  1.00  0.00    -0.275 OA
BRANCH   3   6
ATOM      6  C   UNL     1      99.784  82.769  81.277  1.00  0.00     0.151 C 
BRANCH   6   7
ATOM      7  C   UNL     1      99.186  83.042  79.943  1.00  0.00    -0.025 A 
ATOM      8  C   UNL     1      99.377  83.103  77.492  1.00  0.00     0.160 A 
ATOM      9  C   UNL     1      98.026  83.496  77.398  1.00  0.00     0.157 A 
ATOM     10  C   UNL     1      99.954  82.896  78.763  1.00  0.00     0.056 A 
ATOM     11  C   UNL     1      97.260  83.670  78.566  1.00  0.00     0.050 A 
ATOM     12  C   UNL     1      97.833  83.439  79.828  1.00  0.00     0.009 A 
BRANCH   8  13
ATOM     13  O   UNL     1     100.146  82.948  76.368  1.00  0.00    -0.493 OA
ATOM     14  C   UNL     1     100.697  84.180  75.865  1.00  0.00     0.278 C 
ENDBRANCH   8  13
BRANCH   9  15
ATOM     15  O   UNL     1      97.463  83.700  76.181  1.00  0.00    -0.504 OA
ATOM     16  H   UNL     1      98.136  83.631  75.501  1.00  0.00     0.293 HD
ENDBRANCH   9  15
ENDBRANCH   6   7
ENDBRANCH   3   6
ENDBRANCH   1   2
BRANCH   1  17
ATOM     17  C   UNL     1      97.182  84.125  84.277  1.00  0.00     0.010 C 
BRANCH  17  18
ATOM     18  C   UNL     1      97.229  85.255  85.342  1.00  0.00     0.001 C 
BRANCH  18  19
ATOM     19  C   UNL     1      96.965  84.753  86.786  1.00  0.00     0.000 C 
BRANCH  19  20
ATOM     20  C   UNL     1      95.446  84.692  87.119  1.00  0.00     0.003 C 
BRANCH  20  21
ATOM     21  C   UNL     1      94.940  83.309  87.646  1.00  0.00    -0.017 C 
ATOM     22  C   UNL     1      94.687  82.325  86.466  1.00  0.00     0.007 C 
ATOM     23  C   UNL     1      93.661  83.428  88.525  1.00  0.00     0.007 C 
ENDBRANCH  20  21
ENDBRANCH  19  20
ENDBRANCH  18  19
ENDBRANCH  17  18
ENDBRANCH   1  17
TORSDOF 10
ENDMDL
MODEL 6
REMARK VINA RESULT:    -5.413     25.204     27.801
REMARK INTER + INTRA:          -9.583
REMARK INTER:                  -8.519
REMARK INTRA:                  -1.064
REMARK UNBOUND:                -1.164
REMARK SMILES COc1cc(CNC(=O)CCCCCC(C)C)ccc1O
REMARK SMILES IDX 10 1 8 2 7 3 9 5 6 6 5 7 3 8 20 9 4 10 19 11 18 12 2 13 1 14
REMARK SMILES IDX 21 15 11 17 12 18 13 19 14 20 15 21 16 22 17 23
REMARK H PARENT 7 4 21 16
REMARK Flexibility Score: inf
ROOT
ATOM      1  C   UNL     1      99.414  81.948  83.860  1.00  0.00     0.100 C 
ENDROOT
BRANCH   1   2
ATOM      2  C   UNL     1     100.021  81.707  82.535  1.00  0.00     0.220 C 
ATOM      3  N   UNL     1      99.344  80.968  81.612  1.00  0.00    -0.352 N 
ATOM      4  H   UNL     1      98.509  80.517  81.959  1.00  0.00     0.163 HD
ATOM      5  O   UNL     1     101.134  82.226  82.272  1.00  0.00    -0.275 OA
BRANCH   3   6
ATOM      6  C   UNL     1      99.729  80.804  80.247  1.00  0.00     0.151 C 
BRANCH   6   7
ATOM      7  C   UNL     1      99.026  81.736  79.325  1.00  0.00    -0.025 A 
ATOM      8  C   UNL     1      98.586  82.557  77.049  1.00  0.00     0.160 A 
ATOM      9  C   UNL     1      97.637  83.465  77.563  1.00  0.00     0.157 A 
ATOM     10  C   UNL     1      99.288  81.711  77.935  1.00  0.00     0.056 A 
ATOM     11  C   UNL     1      97.387  83.517  78.946  1.00  0.00     0.050 A 
ATOM     12  C   UNL     1      98.072  82.655  79.820  1.00  0.00     0.009 A 
BRANCH   8  13
ATOM     13  O   UNL     1      98.858  82.504  75.707  1.00  0.00    -0.493 OA
ATOM     14  C   UNL     1     100.255  82.331  75.403  1.00  0.00     0.278 C 
ENDBRANCH   8  13
BRANCH   9  15
ATOM     15  O   UNL     1      96.958  84.284  76.720  1.00  0.00    -0.504 OA
ATOM     16  H   UNL     1      97.208  85.195  76.888  1.00  0.00     0.293 HD
ENDBRANCH   9  15
ENDBRANCH   6   7
ENDBRANCH   3   6
ENDBRANCH   1   2
BRANCH   1  17
ATOM     17  C   UNL     1      97.869  82.103  83.836  1.00  0.00     0.010 C 
BRANCH  17  18
ATOM     18  C   UNL     1      97.445  83.549  83.457  1.00  0.00     0.001 C 
BRANCH  18  19
ATOM     19  C   UNL     1      96.788  84.325  84.628  1.00  0.00     0.000 C 
BRANCH  19  20
ATOM     20  C   UNL     1      97.843  84.931  85.598  1.00  0.00     0.003 C 
BRANCH  20  21
ATOM     21  C   UNL     1      98.207  84.031  86.824  1.00  0.00    -0.017 C 
ATOM     22  C   UNL     1      97.273  84.335  88.033  1.00  0.00     0.007 C 
ATOM     23  C   UNL     1      99.697  84.167  87.252  1.00  0.00     0.007 C 
ENDBRANCH  20  21
ENDBRANCH  19  20
ENDBRANCH  18  19
ENDBRANCH  17  18
ENDBRANCH   1  17
TORSDOF 10
ENDMDL
MODEL 7
REMARK VINA RESULT:    -5.402     25.769     28.843
REMARK INTER + INTRA:          -9.567
REMARK INTER:                  -8.982
REMARK INTRA:                  -0.585
REMARK UNBOUND:                -1.164
REMARK SMILES COc1cc(CNC(=O)CCCCCC(C)C)ccc1O
REMARK SMILES IDX 10 1 8 2 7 3 9 5 6 6 5 7 3 8 20 9 4 10 19 11 18 12 2 13 1 14
REMARK SMILES IDX 21 15 11 17 12 18 13 19 14 20 15 21 16 22 17 23
REMARK H PARENT 7 4 21 16
REMARK Flexibility Score: inf
ROOT
ATOM      1  C   UNL     1      98.705  83.449  79.965  1.00  0.00     0.100 C 
ENDROOT
BRANCH   1   2
ATOM      2  C   UNL     1      98.781  82.621  81.186  1.00  0.00     0.220 C 
ATOM      3  N   UNL     1      98.564  83.199  82.401  1.00  0.00    -0.352 N 
ATOM      4  H   UNL     1      98.494  84.206  82.386  1.00  0.00     0.163 HD
ATOM      5  O   UNL     1      99.002  81.391  81.075  1.00  0.00    -0.275 OA
BRANCH   3   6
ATOM      6  C   UNL     1      98.436  82.493  83.636  1.00  0.00     0.151 C 
BRANCH   6   7
ATOM      7  C   UNL     1      97.954  83.350  84.752  1.00  0.00    -0.025 A 
ATOM      8  C   UNL     1      98.246  84.271  87.013  1.00  0.00     0.160 A 
ATOM      9  C   UNL     1      97.071  85.035  86.852  1.00  0.00     0.157 A 
ATOM     10  C   UNL     1      98.670  83.420  85.970  1.00  0.00     0.056 A 
ATOM     11  C   UNL     1      96.336  84.953  85.655  1.00  0.00     0.050 A 
ATOM     12  C   UNL     1      96.777  84.122  84.611  1.00  0.00     0.009 A 
BRANCH   8  13
ATOM     13  O   UNL     1      98.965  84.322  88.179  1.00  0.00    -0.493 OA
ATOM     14  C   UNL     1     100.142  83.490  88.173  1.00  0.00     0.278 C 
ENDBRANCH   8  13
BRANCH   9  15
ATOM     15  O   UNL     1      96.654  85.855  87.849  1.00  0.00    -0.504 OA
ATOM     16  H   UNL     1      95.697  85.817  87.916  1.00  0.00     0.293 HD
ENDBRANCH   9  15
ENDBRANCH   6   7
ENDBRANCH   3   6
ENDBRANCH   1   2
BRANCH   1  17
ATOM     17  C   UNL     1      97.315  83.444  79.275  1.00  0.00     0.010 C 
BRANCH  17  18
ATOM     18  C   UNL     1      97.443  83.357  77.729  1.00  0.00     0.001 C 
BRANCH  18  19
ATOM     19  C   UNL     1      98.912  83.266  77.236  1.00  0.00     0.000 C 
BRANCH  19  20
ATOM     20  C   UNL     1      99.128  84.010  75.887  1.00  0.00     0.003 C 
BRANCH  20  21
ATOM     21  C   UNL     1     100.622  84.271  75.508  1.00  0.00    -0.017 C 
ATOM     22  C   UNL     1     101.549  84.081  76.745  1.00  0.00     0.007 C 
ATOM     23  C   UNL     1     100.850  85.677  74.882  1.00  0.00     0.007 C 
ENDBRANCH  20  21
ENDBRANCH  19  20
ENDBRANCH  18  19
ENDBRANCH  17  18
ENDBRANCH   1  17
TORSDOF 10
ENDMDL
MODEL 8
REMARK VINA RESULT:    -5.395      3.070      5.834
REMARK INTER + INTRA:          -9.556
REMARK INTER:                  -8.577
REMARK INTRA:                  -0.979
REMARK UNBOUND:                -1.164
REMARK SMILES COc1cc(CNC(=O)CCCCCC(C)C)ccc1O
REMARK SMILES IDX 10 1 8 2 7 3 9 5 6 6 5 7 3 8 20 9 4 10 19 11 18 12 2 13 1 14
REMARK SMILES IDX 21 15 11 17 12 18 13 19 14 20 15 21 16 22 17 23
REMARK H PARENT 7 4 21 16
REMARK Flexibility Score: inf
ROOT
ATOM      1  C   UNL     1      71.642  81.714  66.284  1.00  0.00     0.100 C 
ENDROOT
BRANCH   1   2
ATOM      2  C   UNL     1      72.937  82.099  65.686  1.00  0.00     0.220 C 
ATOM      3  N   UNL     1      74.095  81.720  66.296  1.00  0.00    -0.352 N 
ATOM      4  H   UNL     1      73.978  81.304  67.209  1.00  0.00     0.163 HD
ATOM      5  O   UNL     1      72.943  82.732  64.602  1.00  0.00    -0.275 OA
BRANCH   3   6
ATOM      6  C   UNL     1      75.403  81.872  65.744  1.00  0.00     0.151 C 
BRANCH   6   7
ATOM      7  C   UNL     1      76.262  82.804  66.523  1.00  0.00    -0.025 A 
ATOM      8  C   UNL     1      76.639  84.196  68.515  1.00  0.00     0.160 A 
ATOM      9  C   UNL     1      77.925  84.527  68.038  1.00  0.00     0.157 A 
ATOM     10  C   UNL     1      75.809  83.352  67.746  1.00  0.00     0.056 A 
ATOM     11  C   UNL     1      78.375  84.009  66.809  1.00  0.00     0.050 A 
ATOM     12  C   UNL     1      77.553  83.150  66.060  1.00  0.00     0.009 A 
BRANCH   8  13
ATOM     13  O   UNL     1      76.174  84.705  69.699  1.00  0.00    -0.493 OA
ATOM     14  C   UNL     1      74.908  85.383  69.583  1.00  0.00     0.278 C 
ENDBRANCH   8  13
BRANCH   9  15
ATOM     15  O   UNL     1      78.730  85.339  68.768  1.00  0.00    -0.504 OA
ATOM     16  H   UNL     1      78.198  85.848  69.383  1.00  0.00     0.293 HD
ENDBRANCH   9  15
ENDBRANCH   6   7
ENDBRANCH   3   6
ENDBRANCH   1   2
BRANCH   1  17
ATOM     17  C   UNL     1      70.800  82.909  66.807  1.00  0.00     0.010 C 
BRANCH  17  18
ATOM     18  C   UNL     1      71.679  83.940  67.567  1.00  0.00     0.001 C 
BRANCH  18  19
ATOM     19  C   UNL     1      70.890  84.767  68.616  1.00  0.00     0.000 C 
BRANCH  19  20
ATOM     20  C   UNL     1      71.154  84.279  70.070  1.00  0.00     0.003 C 
BRANCH  20  21
ATOM     21  C   UNL     1      69.881  83.821  70.854  1.00  0.00    -0.017 C 
ATOM     22  C   UNL     1      68.950  82.963  69.948  1.00  0.00     0.007 C 
ATOM     23  C   UNL     1      69.084  85.013  71.461  1.00  0.00     0.007 C 
ENDBRANCH  20  21
ENDBRANCH  19  20
ENDBRANCH  18  19
ENDBRANCH  17  18
ENDBRANCH   1  17
TORSDOF 10
ENDMDL
MODEL 9
REMARK VINA RESULT:    -5.269      6.926     11.078
REMARK INTER + INTRA:          -9.360
REMARK INTER:                  -8.577
REMARK INTRA:                  -0.783
REMARK UNBOUND:                -1.164
REMARK SMILES COc1cc(CNC(=O)CCCCCC(C)C)ccc1O
REMARK SMILES IDX 10 1 8 2 7 3 9 5 6 6 5 7 3 8 20 9 4 10 19 11 18 12 2 13 1 14
REMARK SMILES IDX 21 15 11 17 12 18 13 19 14 20 15 21 16 22 17 23
REMARK H PARENT 7 4 21 16
REMARK Flexibility Score: inf
ROOT
ATOM      1  C   UNL     1      75.580  88.117  70.230  1.00  0.00     0.100 C 
ENDROOT
BRANCH   1   2
ATOM      2  C   UNL     1      75.094  89.339  70.903  1.00  0.00     0.220 C 
ATOM      3  N   UNL     1      75.680  90.537  70.621  1.00  0.00    -0.352 N 
ATOM      4  H   UNL     1      76.513  90.479  70.053  1.00  0.00     0.163 HD
ATOM      5  O   UNL     1      74.121  89.255  71.692  1.00  0.00    -0.275 OA
BRANCH   3   6
ATOM      6  C   UNL     1      75.204  91.809  71.062  1.00  0.00     0.151 C 
BRANCH   6   7
ATOM      7  C   UNL     1      75.925  92.319  72.259  1.00  0.00    -0.025 A 
ATOM      8  C   UNL     1      75.917  93.005  74.621  1.00  0.00     0.160 A 
ATOM      9  C   UNL     1      77.309  93.228  74.559  1.00  0.00     0.157 A 
ATOM     10  C   UNL     1      75.231  92.571  73.467  1.00  0.00     0.056 A 
ATOM     11  C   UNL     1      78.004  93.006  73.356  1.00  0.00     0.050 A 
ATOM     12  C   UNL     1      77.319  92.551  72.217  1.00  0.00     0.009 A 
BRANCH   8  13
ATOM     13  O   UNL     1      75.217  93.233  75.777  1.00  0.00    -0.493 OA
ATOM     14  C   UNL     1      73.944  92.561  75.829  1.00  0.00     0.278 C 
ENDBRANCH   8  13
BRANCH   9  15
ATOM     15  O   UNL     1      77.977  93.647  75.662  1.00  0.00    -0.504 OA
ATOM     16  H   UNL     1      78.869  93.906  75.417  1.00  0.00     0.293 HD
ENDBRANCH   9  15
ENDBRANCH   6   7
ENDBRANCH   3   6
ENDBRANCH   1   2
BRANCH   1  17
ATOM     17  C   UNL     1      74.627  86.897  70.356  1.00  0.00     0.010 C 
BRANCH  17  18
ATOM     18  C   UNL     1      75.413  85.582  70.612  1.00  0.00     0.001 C 
BRANCH  18  19
ATOM     19  C   UNL     1      75.915  84.901  69.312  1.00  0.00     0.000 C 
BRANCH  19  20
ATOM     20  C   UNL     1      77.423  84.522  69.391  1.00  0.00     0.003 C 
BRANCH  20  21
ATOM     21  C   UNL     1      78.291  85.015  68.187  1.00  0.00    -0.017 C 
ATOM     22  C   UNL     1      77.847  86.435  67.727  1.00  0.00     0.007 C 
ATOM     23  C   UNL     1      78.267  84.031  66.982  1.00  0.00     0.007 C 
ENDBRANCH  20  21
ENDBRANCH  19  20
ENDBRANCH  18  19
ENDBRANCH  17  18
ENDBRANCH   1  17
TORSDOF 10
ENDMDL
MODEL 10
REMARK VINA RESULT:    -5.027     23.691     27.722
REMARK INTER + INTRA:          -8.983
REMARK INTER:                  -8.309
REMARK INTRA:                  -0.673
REMARK UNBOUND:                -1.164
REMARK SMILES COc1cc(CNC(=O)CCCCCC(C)C)ccc1O
REMARK SMILES IDX 10 1 8 2 7 3 9 5 6 6 5 7 3 8 20 9 4 10 19 11 18 12 2 13 1 14
REMARK SMILES IDX 21 15 11 17 12 18 13 19 14 20 15 21 16 22 17 23
REMARK H PARENT 7 4 21 16
REMARK Flexibility Score: inf
ROOT
ATOM      1  C   UNL     1      94.219  97.074  76.331  1.00  0.00     0.100 C 
ENDROOT
BRANCH   1   2
ATOM      2  C   UNL     1      95.451  97.578  76.974  1.00  0.00     0.220 C 
ATOM      3  N   UNL     1      95.481  97.743  78.326  1.00  0.00    -0.352 N 
ATOM      4  H   UNL     1      94.590  97.629  78.788  1.00  0.00     0.163 HD
ATOM      5  O   UNL     1      96.460  97.804  76.262  1.00  0.00    -0.275 OA
BRANCH   3   6
ATOM      6  C   UNL     1      96.647  98.054  79.090  1.00  0.00     0.151 C 
BRANCH   6   7
ATOM      7  C   UNL     1      96.489  97.764  80.541  1.00  0.00    -0.025 A 
ATOM      8  C   UNL     1      97.407  97.733  82.822  1.00  0.00     0.160 A 
ATOM      9  C   UNL     1      96.167  97.275  83.313  1.00  0.00     0.157 A 
ATOM     10  C   UNL     1      97.566  97.956  81.437  1.00  0.00     0.056 A 
ATOM     11  C   UNL     1      95.096  97.055  82.427  1.00  0.00     0.050 A 
ATOM     12  C   UNL     1      95.253  97.302  81.053  1.00  0.00     0.009 A 
BRANCH   8  13
ATOM     13  O   UNL     1      98.468  97.935  83.665  1.00  0.00    -0.493 OA
ATOM     14  C   UNL     1      99.584  98.604  83.047  1.00  0.00     0.278 C 
ENDBRANCH   8  13
BRANCH   9  15
ATOM     15  O   UNL     1      96.004  97.056  84.642  1.00  0.00    -0.504 OA
ATOM     16  H   UNL     1      96.356  97.800  85.135  1.00  0.00     0.293 HD
ENDBRANCH   9  15
ENDBRANCH   6   7
ENDBRANCH   3   6
ENDBRANCH   1   2
BRANCH   1  17
ATOM     17  C   UNL     1      93.758  95.682  76.840  1.00  0.00     0.010 C 
BRANCH  17  18
ATOM     18  C   UNL     1      92.929  95.796  78.149  1.00  0.00     0.001 C 
BRANCH  18  19
ATOM     19  C   UNL     1      92.632  94.426  78.813  1.00  0.00     0.000 C 
BRANCH  19  20
ATOM     20  C   UNL     1      91.149  93.992  78.630  1.00  0.00     0.003 C 
BRANCH  20  21
ATOM     21  C   UNL     1      90.531  94.327  77.233  1.00  0.00    -0.017 C 
ATOM     22  C   UNL     1      89.143  95.015  77.391  1.00  0.00     0.007 C 
ATOM     23  C   UNL     1      90.407  93.078  76.313  1.00  0.00     0.007 C 
ENDBRANCH  20  21
ENDBRANCH  19  20
ENDBRANCH  18  19
ENDBRANCH  17  18
ENDBRANCH   1  17
TORSDOF 10
ENDMDL
