MODEL 1
REMARK VINA RESULT:    -5.956      0.000      0.000
REMARK INTER + INTRA:         -10.289
REMARK INTER:                  -9.264
REMARK INTRA:                  -1.025
REMARK UNBOUND:                -1.025
REMARK SMILES COc1cc(CNC(=O)CCCC/C=C/C(C)C)ccc1O
REMARK SMILES IDX 10 1 8 2 7 3 9 5 6 6 5 7 3 8 21 9 4 10 20 11 19 12 2 13 1 14
REMARK SMILES IDX 22 15 11 17 12 18 13 19 14 20 15 21 16 22 17 23 18 24
REMARK H PARENT 7 4 22 16
REMARK Flexibility Score: inf
ROOT
ATOM      1  C   UNL     1      78.139  86.254  67.948  1.00  0.00     0.100 C 
ENDROOT
BRANCH   1   2
ATOM      2  C   UNL     1      77.513  86.007  66.635  1.00  0.00     0.220 C 
ATOM      3  N   UNL     1      77.325  84.734  66.187  1.00  0.00    -0.352 N 
ATOM      4  H   UNL     1      77.665  84.010  66.805  1.00  0.00     0.163 HD
ATOM      5  O   UNL     1      77.140  86.998  65.961  1.00  0.00    -0.275 OA
BRANCH   3   6
ATOM      6  C   UNL     1      76.702  84.389  64.950  1.00  0.00     0.151 C 
BRANCH   6   7
ATOM      7  C   UNL     1      75.669  83.333  65.134  1.00  0.00    -0.025 A 
ATOM      8  C   UNL     1      73.411  82.666  65.855  1.00  0.00     0.160 A 
ATOM      9  C   UNL     1      73.681  81.336  65.474  1.00  0.00     0.157 A 
ATOM     10  C   UNL     1      74.407  83.651  65.684  1.00  0.00     0.056 A 
ATOM     11  C   UNL     1      74.942  81.000  64.942  1.00  0.00     0.050 A 
ATOM     12  C   UNL     1      75.926  81.992  64.764  1.00  0.00     0.009 A 
BRANCH   8  13
ATOM     13  O   UNL     1      72.209  82.985  66.434  1.00  0.00    -0.493 OA
ATOM     14  C   UNL     1      72.269  84.113  67.327  1.00  0.00     0.278 C 
ENDBRANCH   8  13
BRANCH   9  15
ATOM     15  O   UNL     1      72.740  80.367  65.613  1.00  0.00    -0.504 OA
ATOM     16  H   UNL     1      72.566  79.964  64.760  1.00  0.00     0.293 HD
ENDBRANCH   9  15
ENDBRANCH   6   7
ENDBRANCH   3   6
ENDBRANCH   1   2
BRANCH   1  17
ATOM     17  C   UNL     1      78.096  84.991  68.850  1.00  0.00     0.010 C 
BRANCH  17  18
ATOM     18  C   UNL     1      77.613  85.295  70.296  1.00  0.00     0.005 C 
BRANCH  18  19
ATOM     19  C   UNL     1      76.123  84.915  70.513  1.00  0.00     0.027 C 
BRANCH  19  20
ATOM     20  C   UNL     1      75.249  86.077  70.467  1.00  0.00    -0.031 C 
ATOM     21  C   UNL     1      75.685  87.350  70.437  1.00  0.00    -0.028 C 
BRANCH  21  22
ATOM     22  C   UNL     1      74.788  88.504  70.371  1.00  0.00     0.005 C 
ATOM     23  C   UNL     1      73.599  88.383  71.365  1.00  0.00     0.012 C 
ATOM     24  C   UNL     1      75.581  89.814  70.613  1.00  0.00     0.012 C 
ENDBRANCH  21  22
ENDBRANCH  19  20
ENDBRANCH  18  19
ENDBRANCH  17  18
ENDBRANCH   1  17
TORSDOF 10
ENDMDL
MODEL 2
REMARK VINA RESULT:    -5.853     24.807     27.374
REMARK INTER + INTRA:         -10.128
REMARK INTER:                  -9.512
REMARK INTRA:                  -0.616
REMARK UNBOUND:                -1.025
REMARK SMILES COc1cc(CNC(=O)CCCC/C=C/C(C)C)ccc1O
REMARK SMILES IDX 10 1 8 2 7 3 9 5 6 6 5 7 3 8 21 9 4 10 20 11 19 12 2 13 1 14
REMARK SMILES IDX 22 15 11 17 12 18 13 19 14 20 15 21 16 22 17 23 18 24
REMARK H PARENT 7 4 22 16
REMARK Flexibility Score: inf
ROOT
ATOM      1  C   UNL     1      98.385  82.669  84.886  1.00  0.00     0.100 C 
ENDROOT
BRANCH   1   2
ATOM      2  C   UNL     1      99.282  82.368  83.755  1.00  0.00     0.220 C 
ATOM      3  N   UNL     1      99.008  82.846  82.509  1.00  0.00    -0.352 N 
ATOM      4  H   UNL     1      98.155  83.383  82.436  1.00  0.00     0.163 HD
ATOM      5  O   UNL     1     100.309  81.683  83.979  1.00  0.00    -0.275 OA
BRANCH   3   6
ATOM      6  C   UNL     1      99.827  82.639  81.357  1.00  0.00     0.151 C 
BRANCH   6   7
ATOM      7  C   UNL     1      99.109  82.998  80.104  1.00  0.00    -0.025 A 
ATOM      8  C   UNL     1      99.120  83.330  77.664  1.00  0.00     0.160 A 
ATOM      9  C   UNL     1      97.750  83.661  77.702  1.00  0.00     0.157 A 
ATOM     10  C   UNL     1      99.786  83.004  78.864  1.00  0.00     0.056 A 
ATOM     11  C   UNL     1      97.065  83.678  78.934  1.00  0.00     0.050 A 
ATOM     12  C   UNL     1      97.736  83.340  80.125  1.00  0.00     0.009 A 
BRANCH   8  13
ATOM     13  O   UNL     1      99.806  83.376  76.477  1.00  0.00    -0.493 OA
ATOM     14  C   UNL     1     100.360  82.111  76.070  1.00  0.00     0.278 C 
ENDBRANCH   8  13
BRANCH   9  15
ATOM     15  O   UNL     1      97.075  83.966  76.564  1.00  0.00    -0.504 OA
ATOM     16  H   UNL     1      96.655  84.824  76.660  1.00  0.00     0.293 HD
ENDBRANCH   9  15
ENDBRANCH   6   7
ENDBRANCH   3   6
ENDBRANCH   1   2
BRANCH   1  17
ATOM     17  C   UNL     1      97.686  84.044  84.712  1.00  0.00     0.010 C 
BRANCH  17  18
ATOM     18  C   UNL     1      96.333  84.136  85.474  1.00  0.00     0.005 C 
BRANCH  18  19
ATOM     19  C   UNL     1      95.970  85.596  85.859  1.00  0.00     0.027 C 
BRANCH  19  20
ATOM     20  C   UNL     1      95.349  85.677  87.172  1.00  0.00    -0.031 C 
ATOM     21  C   UNL     1      95.890  86.313  88.226  1.00  0.00    -0.028 C 
BRANCH  21  22
ATOM     22  C   UNL     1      95.239  86.399  89.533  1.00  0.00     0.005 C 
ATOM     23  C   UNL     1      95.207  87.853  90.082  1.00  0.00     0.012 C 
ATOM     24  C   UNL     1      93.808  85.805  89.459  1.00  0.00     0.012 C 
ENDBRANCH  21  22
ENDBRANCH  19  20
ENDBRANCH  18  19
ENDBRANCH  17  18
ENDBRANCH   1  17
TORSDOF 10
ENDMDL
MODEL 3
REMARK VINA RESULT:    -5.746      2.455      4.838
REMARK INTER + INTRA:          -9.963
REMARK INTER:                  -8.837
REMARK INTRA:                  -1.126
REMARK UNBOUND:                -1.025
REMARK SMILES COc1cc(CNC(=O)CCCC/C=C/C(C)C)ccc1O
REMARK SMILES IDX 10 1 8 2 7 3 9 5 6 6 5 7 3 8 21 9 4 10 20 11 19 12 2 13 1 14
REMARK SMILES IDX 22 15 11 17 12 18 13 19 14 20 15 21 16 22 17 23 18 24
REMARK H PARENT 7 4 22 16
REMARK Flexibility Score: inf
ROOT
ATOM      1  C   UNL     1      76.080  81.309  64.511  1.00  0.00     0.100 C 
ENDROOT
BRANCH   1   2
ATOM      2  C   UNL     1      74.613  81.433  64.410  1.00  0.00     0.220 C 
ATOM      3  N   UNL     1      73.824  81.201  65.496  1.00  0.00    -0.352 N 
ATOM      4  H   UNL     1      74.319  80.925  66.332  1.00  0.00     0.163 HD
ATOM      5  O   UNL     1      74.123  81.779  63.308  1.00  0.00    -0.275 OA
BRANCH   3   6
ATOM      6  C   UNL     1      72.401  81.325  65.511  1.00  0.00     0.151 C 
BRANCH   6   7
ATOM      7  C   UNL     1      71.957  82.413  66.424  1.00  0.00    -0.025 A 
ATOM      8  C   UNL     1      72.454  84.467  67.688  1.00  0.00     0.160 A 
ATOM      9  C   UNL     1      71.121  84.507  68.149  1.00  0.00     0.157 A 
ATOM     10  C   UNL     1      72.859  83.421  66.833  1.00  0.00     0.056 A 
ATOM     11  C   UNL     1      70.216  83.498  67.765  1.00  0.00     0.050 A 
ATOM     12  C   UNL     1      70.626  82.464  66.902  1.00  0.00     0.009 A 
BRANCH   8  13
ATOM     13  O   UNL     1      73.356  85.410  68.111  1.00  0.00    -0.493 OA
ATOM     14  C   UNL     1      74.207  85.918  67.067  1.00  0.00     0.278 C 
ENDBRANCH   8  13
BRANCH   9  15
ATOM     15  O   UNL     1      70.695  85.507  68.962  1.00  0.00    -0.504 OA
ATOM     16  H   UNL     1      69.876  85.246  69.389  1.00  0.00     0.293 HD
ENDBRANCH   9  15
ENDBRANCH   6   7
ENDBRANCH   3   6
ENDBRANCH   1   2
BRANCH   1  17
ATOM     17  C   UNL     1      76.746  82.665  64.869  1.00  0.00     0.010 C 
BRANCH  17  18
ATOM     18  C   UNL     1      77.014  82.823  66.392  1.00  0.00     0.005 C 
BRANCH  18  19
ATOM     19  C   UNL     1      78.242  83.728  66.685  1.00  0.00     0.027 C 
BRANCH  19  20
ATOM     20  C   UNL     1      78.062  84.521  67.891  1.00  0.00    -0.031 C 
ATOM     21  C   UNL     1      77.333  84.129  68.952  1.00  0.00    -0.028 C 
BRANCH  21  22
ATOM     22  C   UNL     1      77.182  84.935  70.163  1.00  0.00     0.005 C 
ATOM     23  C   UNL     1      76.791  86.405  69.848  1.00  0.00     0.012 C 
ATOM     24  C   UNL     1      76.149  84.280  71.117  1.00  0.00     0.012 C 
ENDBRANCH  21  22
ENDBRANCH  19  20
ENDBRANCH  18  19
ENDBRANCH  17  18
ENDBRANCH   1  17
TORSDOF 10
ENDMDL
MODEL 4
REMARK VINA RESULT:    -5.704      2.458      4.284
REMARK INTER + INTRA:          -9.897
REMARK INTER:                  -8.036
REMARK INTRA:                  -1.862
REMARK UNBOUND:                -1.025
REMARK SMILES COc1cc(CNC(=O)CCCC/C=C/C(C)C)ccc1O
REMARK SMILES IDX 10 1 8 2 7 3 9 5 6 6 5 7 3 8 21 9 4 10 20 11 19 12 2 13 1 14
REMARK SMILES IDX 22 15 11 17 12 18 13 19 14 20 15 21 16 22 17 23 18 24
REMARK H PARENT 7 4 22 16
REMARK Flexibility Score: inf
ROOT
ATOM      1  C   UNL     1      74.895  87.029  70.693  1.00  0.00     0.100 C 
ENDROOT
BRANCH   1   2
ATOM      2  C   UNL     1      75.689  85.813  70.433  1.00  0.00     0.220 C 
ATOM      3  N   UNL     1      76.695  85.827  69.514  1.00  0.00    -0.352 N 
ATOM      4  H   UNL     1      76.821  86.707  69.033  1.00  0.00     0.163 HD
ATOM      5  O   UNL     1      75.425  84.780  71.095  1.00  0.00    -0.275 OA
BRANCH   3   6
ATOM      6  C   UNL     1      77.540  84.716  69.212  1.00  0.00     0.151 C 
BRANCH   6   7
ATOM      7  C   UNL     1      77.247  84.157  67.864  1.00  0.00    -0.025 A 
ATOM      8  C   UNL     1      75.662  83.136  66.281  1.00  0.00     0.160 A 
ATOM      9  C   UNL     1      76.667  83.107  65.292  1.00  0.00     0.157 A 
ATOM     10  C   UNL     1      75.961  83.658  67.557  1.00  0.00     0.056 A 
ATOM     11  C   UNL     1      77.959  83.583  65.590  1.00  0.00     0.050 A 
ATOM     12  C   UNL     1      78.245  84.113  66.863  1.00  0.00     0.009 A 
BRANCH   8  13
ATOM     13  O   UNL     1      74.421  82.613  66.017  1.00  0.00    -0.493 OA
ATOM     14  C   UNL     1      73.335  83.356  66.600  1.00  0.00     0.278 C 
ENDBRANCH   8  13
BRANCH   9  15
ATOM     15  O   UNL     1      76.407  82.623  64.050  1.00  0.00    -0.504 OA
ATOM     16  H   UNL     1      75.464  82.472  63.955  1.00  0.00     0.293 HD
ENDBRANCH   9  15
ENDBRANCH   6   7
ENDBRANCH   3   6
ENDBRANCH   1   2
BRANCH   1  17
ATOM     17  C   UNL     1      75.671  88.314  70.298  1.00  0.00     0.010 C 
BRANCH  17  18
ATOM     18  C   UNL     1      74.734  89.498  69.930  1.00  0.00     0.005 C 
BRANCH  18  19
ATOM     19  C   UNL     1      74.807  89.865  68.423  1.00  0.00     0.027 C 
BRANCH  19  20
ATOM     20  C   UNL     1      75.650  88.943  67.677  1.00  0.00    -0.031 C 
ATOM     21  C   UNL     1      75.184  88.022  66.814  1.00  0.00    -0.028 C 
BRANCH  21  22
ATOM     22  C   UNL     1      76.051  87.118  66.059  1.00  0.00     0.005 C 
ATOM     23  C   UNL     1      75.708  87.101  64.544  1.00  0.00     0.012 C 
ATOM     24  C   UNL     1      77.540  87.491  66.285  1.00  0.00     0.012 C 
ENDBRANCH  21  22
ENDBRANCH  19  20
ENDBRANCH  18  19
ENDBRANCH  17  18
ENDBRANCH   1  17
TORSDOF 10
ENDMDL
MODEL 5
REMARK VINA RESULT:    -5.660     24.995     27.776
REMARK INTER + INTRA:          -9.828
REMARK INTER:                  -8.806
REMARK INTRA:                  -1.023
REMARK UNBOUND:                -1.025
REMARK SMILES COc1cc(CNC(=O)CCCC/C=C/C(C)C)ccc1O
REMARK SMILES IDX 10 1 8 2 7 3 9 5 6 6 5 7 3 8 21 9 4 10 20 11 19 12 2 13 1 14
REMARK SMILES IDX 22 15 11 17 12 18 13 19 14 20 15 21 16 22 17 23 18 24
REMARK H PARENT 7 4 22 16
REMARK Flexibility Score: inf
ROOT
ATOM      1  C   UNL     1     100.867  79.276  82.790  1.00  0.00     0.100 C 
ENDROOT
BRANCH   1   2
ATOM      2  C   UNL     1     100.821  80.742  82.628  1.00  0.00     0.220 C 
ATOM      3  N   UNL     1     100.282  81.297  81.506  1.00  0.00    -0.352 N 
ATOM      4  H   UNL     1      99.955  80.634  80.817  1.00  0.00     0.163 HD
ATOM      5  O   UNL     1     101.268  81.455  83.559  1.00  0.00    -0.275 OA
BRANCH   3   6
ATOM      6  C   UNL     1     100.162  82.700  81.268  1.00  0.00     0.151 C 
BRANCH   6   7
ATOM      7  C   UNL     1      99.326  82.981  80.069  1.00  0.00    -0.025 A 
ATOM      8  C   UNL     1      99.114  83.202  77.626  1.00  0.00     0.160 A 
ATOM      9  C   UNL     1      97.742  83.494  77.770  1.00  0.00     0.157 A 
ATOM     10  C   UNL     1      99.893  82.951  78.775  1.00  0.00     0.056 A 
ATOM     11  C   UNL     1      97.167  83.546  79.056  1.00  0.00     0.050 A 
ATOM     12  C   UNL     1      97.949  83.282  80.196  1.00  0.00     0.009 A 
BRANCH   8  13
ATOM     13  O   UNL     1      99.693  83.215  76.382  1.00  0.00    -0.493 OA
ATOM     14  C   UNL     1     100.874  84.033  76.293  1.00  0.00     0.278 C 
ENDBRANCH   8  13
BRANCH   9  15
ATOM     15  O   UNL     1      96.961  83.728  76.684  1.00  0.00    -0.504 OA
ATOM     16  H   UNL     1      97.506  83.737  75.894  1.00  0.00     0.293 HD
ENDBRANCH   9  15
ENDBRANCH   6   7
ENDBRANCH   3   6
ENDBRANCH   1   2
BRANCH   1  17
ATOM     17  C   UNL     1     100.064  78.812  84.035  1.00  0.00     0.010 C 
BRANCH  17  18
ATOM     18  C   UNL     1      98.525  78.904  83.830  1.00  0.00     0.005 C 
BRANCH  18  19
ATOM     19  C   UNL     1      97.822  79.679  84.978  1.00  0.00     0.027 C 
BRANCH  19  20
ATOM     20  C   UNL     1      97.756  81.108  84.713  1.00  0.00    -0.031 C 
ATOM     21  C   UNL     1      97.024  81.978  85.432  1.00  0.00    -0.028 C 
BRANCH  21  22
ATOM     22  C   UNL     1      96.987  83.414  85.160  1.00  0.00     0.005 C 
ATOM     23  C   UNL     1      97.909  84.219  86.117  1.00  0.00     0.012 C 
ATOM     24  C   UNL     1      97.354  83.688  83.678  1.00  0.00     0.012 C 
ENDBRANCH  21  22
ENDBRANCH  19  20
ENDBRANCH  18  19
ENDBRANCH  17  18
ENDBRANCH   1  17
TORSDOF 10
ENDMDL
MODEL 6
REMARK VINA RESULT:    -5.599     15.187     17.812
REMARK INTER + INTRA:          -9.733
REMARK INTER:                  -8.906
REMARK INTRA:                  -0.827
REMARK UNBOUND:                -1.025
REMARK SMILES COc1cc(CNC(=O)CCCC/C=C/C(C)C)ccc1O
REMARK SMILES IDX 10 1 8 2 7 3 9 5 6 6 5 7 3 8 21 9 4 10 20 11 19 12 2 13 1 14
REMARK SMILES IDX 22 15 11 17 12 18 13 19 14 20 15 21 16 22 17 23 18 24
REMARK H PARENT 7 4 22 16
REMARK Flexibility Score: inf
ROOT
ATOM      1  C   UNL     1      65.574  84.313  79.495  1.00  0.00     0.100 C 
ENDROOT
BRANCH   1   2
ATOM      2  C   UNL     1      65.705  83.732  80.845  1.00  0.00     0.220 C 
ATOM      3  N   UNL     1      66.407  82.580  81.037  1.00  0.00    -0.352 N 
ATOM      4  H   UNL     1      66.790  82.169  80.197  1.00  0.00     0.163 HD
ATOM      5  O   UNL     1      65.174  84.340  81.806  1.00  0.00    -0.275 OA
BRANCH   3   6
ATOM      6  C   UNL     1      66.619  81.955  82.303  1.00  0.00     0.151 C 
BRANCH   6   7
ATOM      7  C   UNL     1      65.865  80.677  82.416  1.00  0.00    -0.025 A 
ATOM      8  C   UNL     1      63.747  79.482  82.803  1.00  0.00     0.160 A 
ATOM      9  C   UNL     1      64.407  78.250  82.614  1.00  0.00     0.157 A 
ATOM     10  C   UNL     1      64.482  80.683  82.705  1.00  0.00     0.056 A 
ATOM     11  C   UNL     1      65.789  78.229  82.344  1.00  0.00     0.050 A 
ATOM     12  C   UNL     1      66.512  79.433  82.236  1.00  0.00     0.009 A 
BRANCH   8  13
ATOM     13  O   UNL     1      62.415  79.506  83.131  1.00  0.00    -0.493 OA
ATOM     14  C   UNL     1      61.554  79.931  82.058  1.00  0.00     0.278 C 
ENDBRANCH   8  13
BRANCH   9  15
ATOM     15  O   UNL     1      63.726  77.077  82.688  1.00  0.00    -0.504 OA
ATOM     16  H   UNL     1      64.348  76.346  82.690  1.00  0.00     0.293 HD
ENDBRANCH   9  15
ENDBRANCH   6   7
ENDBRANCH   3   6
ENDBRANCH   1   2
BRANCH   1  17
ATOM     17  C   UNL     1      64.086  84.454  79.075  1.00  0.00     0.010 C 
BRANCH  17  18
ATOM     18  C   UNL     1      63.897  84.521  77.533  1.00  0.00     0.005 C 
BRANCH  18  19
ATOM     19  C   UNL     1      64.887  83.594  76.776  1.00  0.00     0.027 C 
BRANCH  19  20
ATOM     20  C   UNL     1      64.268  82.961  75.621  1.00  0.00    -0.031 C 
ATOM     21  C   UNL     1      62.950  82.717  75.508  1.00  0.00    -0.028 C 
BRANCH  21  22
ATOM     22  C   UNL     1      62.347  82.097  74.328  1.00  0.00     0.005 C 
ATOM     23  C   UNL     1      61.756  83.147  73.347  1.00  0.00     0.012 C 
ATOM     24  C   UNL     1      63.382  81.191  73.610  1.00  0.00     0.012 C 
ENDBRANCH  21  22
ENDBRANCH  19  20
ENDBRANCH  18  19
ENDBRANCH  17  18
ENDBRANCH   1  17
TORSDOF 10
ENDMDL
MODEL 7
REMARK VINA RESULT:    -5.566     19.617     22.634
REMARK INTER + INTRA:          -9.683
REMARK INTER:                  -8.886
REMARK INTRA:                  -0.797
REMARK UNBOUND:                -1.025
REMARK SMILES COc1cc(CNC(=O)CCCC/C=C/C(C)C)ccc1O
REMARK SMILES IDX 10 1 8 2 7 3 9 5 6 6 5 7 3 8 21 9 4 10 20 11 19 12 2 13 1 14
REMARK SMILES IDX 22 15 11 17 12 18 13 19 14 20 15 21 16 22 17 23 18 24
REMARK H PARENT 7 4 22 16
REMARK Flexibility Score: inf
ROOT
ATOM      1  C   UNL     1      94.027  99.440  75.437  1.00  0.00     0.100 C 
ENDROOT
BRANCH   1   2
ATOM      2  C   UNL     1      94.121 100.229  74.194  1.00  0.00     0.220 C 
ATOM      3  N   UNL     1      93.397  99.877  73.095  1.00  0.00    -0.352 N 
ATOM      4  H   UNL     1      92.834  99.045  73.203  1.00  0.00     0.163 HD
ATOM      5  O   UNL     1      94.865 101.240  74.189  1.00  0.00    -0.275 OA
BRANCH   3   6
ATOM      6  C   UNL     1      93.393 100.591  71.858  1.00  0.00     0.151 C 
BRANCH   6   7
ATOM      7  C   UNL     1      92.116 100.394  71.118  1.00  0.00    -0.025 A 
ATOM      8  C   UNL     1      90.003  99.170  70.806  1.00  0.00     0.160 A 
ATOM      9  C   UNL     1      89.670 100.018  69.730  1.00  0.00     0.157 A 
ATOM     10  C   UNL     1      91.223  99.364  71.488  1.00  0.00     0.056 A 
ATOM     11  C   UNL     1      90.560 101.037  69.337  1.00  0.00     0.050 A 
ATOM     12  C   UNL     1      91.770 101.231  70.031  1.00  0.00     0.009 A 
BRANCH   8  13
ATOM     13  O   UNL     1      89.171  98.135  71.150  1.00  0.00    -0.493 OA
ATOM     14  C   UNL     1      89.588  96.853  70.645  1.00  0.00     0.278 C 
ENDBRANCH   8  13
BRANCH   9  15
ATOM     15  O   UNL     1      88.497  99.866  69.061  1.00  0.00    -0.504 OA
ATOM     16  H   UNL     1      87.821 100.409  69.472  1.00  0.00     0.293 HD
ENDBRANCH   9  15
ENDBRANCH   6   7
ENDBRANCH   3   6
ENDBRANCH   1   2
BRANCH   1  17
ATOM     17  C   UNL     1      94.663  98.033  75.271  1.00  0.00     0.010 C 
BRANCH  17  18
ATOM     18  C   UNL     1      94.341  97.080  76.457  1.00  0.00     0.005 C 
BRANCH  18  19
ATOM     19  C   UNL     1      94.031  95.634  75.985  1.00  0.00     0.027 C 
BRANCH  19  20
ATOM     20  C   UNL     1      92.876  95.072  76.668  1.00  0.00    -0.031 C 
ATOM     21  C   UNL     1      91.862  95.803  77.166  1.00  0.00    -0.028 C 
BRANCH  21  22
ATOM     22  C   UNL     1      90.700  95.214  77.832  1.00  0.00     0.005 C 
ATOM     23  C   UNL     1      89.583  94.819  76.827  1.00  0.00     0.012 C 
ATOM     24  C   UNL     1      91.133  93.994  78.686  1.00  0.00     0.012 C 
ENDBRANCH  21  22
ENDBRANCH  19  20
ENDBRANCH  18  19
ENDBRANCH  17  18
ENDBRANCH   1  17
TORSDOF 10
ENDMDL
MODEL 8
REMARK VINA RESULT:    -5.409      2.939      4.891
REMARK INTER + INTRA:          -9.438
REMARK INTER:                  -8.813
REMARK INTRA:                  -0.626
REMARK UNBOUND:                -1.025
REMARK SMILES COc1cc(CNC(=O)CCCC/C=C/C(C)C)ccc1O
REMARK SMILES IDX 10 1 8 2 7 3 9 5 6 6 5 7 3 8 21 9 4 10 20 11 19 12 2 13 1 14
REMARK SMILES IDX 22 15 11 17 12 18 13 19 14 20 15 21 16 22 17 23 18 24
REMARK H PARENT 7 4 22 16
REMARK Flexibility Score: inf
ROOT
ATOM      1  C   UNL     1      75.017  87.783  70.381  1.00  0.00     0.100 C 
ENDROOT
BRANCH   1   2
ATOM      2  C   UNL     1      76.114  86.832  70.116  1.00  0.00     0.220 C 
ATOM      3  N   UNL     1      75.927  85.494  70.291  1.00  0.00    -0.352 N 
ATOM      4  H   UNL     1      75.011  85.232  70.629  1.00  0.00     0.163 HD
ATOM      5  O   UNL     1      77.208  87.289  69.704  1.00  0.00    -0.275 OA
BRANCH   3   6
ATOM      6  C   UNL     1      76.911  84.492  70.032  1.00  0.00     0.151 C 
BRANCH   6   7
ATOM      7  C   UNL     1      77.005  84.181  68.580  1.00  0.00    -0.025 A 
ATOM      8  C   UNL     1      75.911  83.613  66.448  1.00  0.00     0.160 A 
ATOM      9  C   UNL     1      77.166  83.606  65.805  1.00  0.00     0.157 A 
ATOM     10  C   UNL     1      75.843  83.898  67.828  1.00  0.00     0.056 A 
ATOM     11  C   UNL     1      78.336  83.867  66.545  1.00  0.00     0.050 A 
ATOM     12  C   UNL     1      78.256  84.162  67.920  1.00  0.00     0.009 A 
BRANCH   8  13
ATOM     13  O   UNL     1      74.776  83.295  65.746  1.00  0.00    -0.493 OA
ATOM     14  C   UNL     1      74.192  82.032  66.116  1.00  0.00     0.278 C 
ENDBRANCH   8  13
BRANCH   9  15
ATOM     15  O   UNL     1      77.265  83.349  64.475  1.00  0.00    -0.504 OA
ATOM     16  H   UNL     1      78.023  83.814  64.114  1.00  0.00     0.293 HD
ENDBRANCH   9  15
ENDBRANCH   6   7
ENDBRANCH   3   6
ENDBRANCH   1   2
BRANCH   1  17
ATOM     17  C   UNL     1      75.343  89.199  69.836  1.00  0.00     0.010 C 
BRANCH  17  18
ATOM     18  C   UNL     1      75.800  90.185  70.947  1.00  0.00     0.005 C 
BRANCH  18  19
ATOM     19  C   UNL     1      74.799  91.355  71.148  1.00  0.00     0.027 C 
BRANCH  19  20
ATOM     20  C   UNL     1      75.476  92.616  71.413  1.00  0.00    -0.031 C 
ATOM     21  C   UNL     1      76.683  92.717  71.998  1.00  0.00    -0.028 C 
BRANCH  21  22
ATOM     22  C   UNL     1      77.355  93.994  72.237  1.00  0.00     0.005 C 
ATOM     23  C   UNL     1      76.712  94.787  73.409  1.00  0.00     0.012 C 
ATOM     24  C   UNL     1      78.868  93.766  72.488  1.00  0.00     0.012 C 
ENDBRANCH  21  22
ENDBRANCH  19  20
ENDBRANCH  18  19
ENDBRANCH  17  18
ENDBRANCH   1  17
TORSDOF 10
ENDMDL
MODEL 9
REMARK VINA RESULT:    -5.406      2.177      5.294
REMARK INTER + INTRA:          -9.434
REMARK INTER:                  -7.665
REMARK INTRA:                  -1.770
REMARK UNBOUND:                -1.025
REMARK SMILES COc1cc(CNC(=O)CCCC/C=C/C(C)C)ccc1O
REMARK SMILES IDX 10 1 8 2 7 3 9 5 6 6 5 7 3 8 21 9 4 10 20 11 19 12 2 13 1 14
REMARK SMILES IDX 22 15 11 17 12 18 13 19 14 20 15 21 16 22 17 23 18 24
REMARK H PARENT 7 4 22 16
REMARK Flexibility Score: inf
ROOT
ATOM      1  C   UNL     1      75.516  81.681  64.680  1.00  0.00     0.100 C 
ENDROOT
BRANCH   1   2
ATOM      2  C   UNL     1      74.271  82.387  65.038  1.00  0.00     0.220 C 
ATOM      3  N   UNL     1      74.011  82.716  66.334  1.00  0.00    -0.352 N 
ATOM      4  H   UNL     1      74.713  82.420  66.998  1.00  0.00     0.163 HD
ATOM      5  O   UNL     1      73.477  82.692  64.116  1.00  0.00    -0.275 OA
BRANCH   3   6
ATOM      6  C   UNL     1      72.854  83.425  66.780  1.00  0.00     0.151 C 
BRANCH   6   7
ATOM      7  C   UNL     1      73.221  84.697  67.459  1.00  0.00    -0.025 A 
ATOM      8  C   UNL     1      74.630  86.712  67.589  1.00  0.00     0.160 A 
ATOM      9  C   UNL     1      73.920  87.136  68.731  1.00  0.00     0.157 A 
ATOM     10  C   UNL     1      74.276  85.497  66.966  1.00  0.00     0.056 A 
ATOM     11  C   UNL     1      72.878  86.340  69.245  1.00  0.00     0.050 A 
ATOM     12  C   UNL     1      72.523  85.134  68.610  1.00  0.00     0.009 A 
BRANCH   8  13
ATOM     13  O   UNL     1      75.688  87.451  67.123  1.00  0.00    -0.493 OA
ATOM     14  C   UNL     1      75.481  88.011  65.813  1.00  0.00     0.278 C 
ENDBRANCH   8  13
BRANCH   9  15
ATOM     15  O   UNL     1      74.227  88.307  69.346  1.00  0.00    -0.504 OA
ATOM     16  H   UNL     1      75.130  88.272  69.670  1.00  0.00     0.293 HD
ENDBRANCH   9  15
ENDBRANCH   6   7
ENDBRANCH   3   6
ENDBRANCH   1   2
BRANCH   1  17
ATOM     17  C   UNL     1      76.755  82.609  64.799  1.00  0.00     0.010 C 
BRANCH  17  18
ATOM     18  C   UNL     1      77.258  82.761  66.262  1.00  0.00     0.005 C 
BRANCH  18  19
ATOM     19  C   UNL     1      78.256  83.940  66.423  1.00  0.00     0.027 C 
BRANCH  19  20
ATOM     20  C   UNL     1      78.037  84.677  67.658  1.00  0.00    -0.031 C 
ATOM     21  C   UNL     1      77.533  84.136  68.783  1.00  0.00    -0.028 C 
BRANCH  21  22
ATOM     22  C   UNL     1      77.339  84.892  70.020  1.00  0.00     0.005 C 
ATOM     23  C   UNL     1      77.570  86.416  69.821  1.00  0.00     0.012 C 
ATOM     24  C   UNL     1      75.927  84.618  70.600  1.00  0.00     0.012 C 
ENDBRANCH  21  22
ENDBRANCH  19  20
ENDBRANCH  18  19
ENDBRANCH  17  18
ENDBRANCH   1  17
TORSDOF 10
ENDMDL
MODEL 10
REMARK VINA RESULT:    -5.349      1.712      2.208
REMARK INTER + INTRA:          -9.345
REMARK INTER:                  -8.737
REMARK INTRA:                  -0.608
REMARK UNBOUND:                -1.025
REMARK SMILES COc1cc(CNC(=O)CCCC/C=C/C(C)C)ccc1O
REMARK SMILES IDX 10 1 8 2 7 3 9 5 6 6 5 7 3 8 21 9 4 10 20 11 19 12 2 13 1 14
REMARK SMILES IDX 22 15 11 17 12 18 13 19 14 20 15 21 16 22 17 23 18 24
REMARK H PARENT 7 4 22 16
REMARK Flexibility Score: inf
ROOT
ATOM      1  C   UNL     1      77.350  84.120  68.362  1.00  0.00     0.100 C 
ENDROOT
BRANCH   1   2
ATOM      2  C   UNL     1      77.595  83.420  67.087  1.00  0.00     0.220 C 
ATOM      3  N   UNL     1      76.751  82.437  66.664  1.00  0.00    -0.352 N 
ATOM      4  H   UNL     1      75.989  82.229  67.295  1.00  0.00     0.163 HD
ATOM      5  O   UNL     1      78.583  83.771  66.398  1.00  0.00    -0.275 OA
BRANCH   3   6
ATOM      6  C   UNL     1      76.881  81.723  65.434  1.00  0.00     0.151 C 
BRANCH   6   7
ATOM      7  C   UNL     1      75.553  81.395  64.849  1.00  0.00    -0.025 A 
ATOM      8  C   UNL     1      73.120  81.119  65.112  1.00  0.00     0.160 A 
ATOM      9  C   UNL     1      73.009  80.791  63.745  1.00  0.00     0.157 A 
ATOM     10  C   UNL     1      74.390  81.415  65.651  1.00  0.00     0.056 A 
ATOM     11  C   UNL     1      74.162  80.747  62.937  1.00  0.00     0.050 A 
ATOM     12  C   UNL     1      75.424  81.056  63.482  1.00  0.00     0.009 A 
BRANCH   8  13
ATOM     13  O   UNL     1      72.010  81.099  65.917  1.00  0.00    -0.493 OA
ATOM     14  C   UNL     1      71.562  82.402  66.332  1.00  0.00     0.278 C 
ENDBRANCH   8  13
BRANCH   9  15
ATOM     15  O   UNL     1      71.800  80.513  63.192  1.00  0.00    -0.504 OA
ATOM     16  H   UNL     1      71.415  79.750  63.629  1.00  0.00     0.293 HD
ENDBRANCH   9  15
ENDBRANCH   6   7
ENDBRANCH   3   6
ENDBRANCH   1   2
BRANCH   1  17
ATOM     17  C   UNL     1      77.866  85.583  68.320  1.00  0.00     0.010 C 
BRANCH  17  18
ATOM     18  C   UNL     1      77.772  86.298  69.697  1.00  0.00     0.005 C 
BRANCH  18  19
ATOM     19  C   UNL     1      77.018  87.653  69.609  1.00  0.00     0.027 C 
BRANCH  19  20
ATOM     20  C   UNL     1      75.603  87.513  69.914  1.00  0.00    -0.031 C 
ATOM     21  C   UNL     1      74.948  88.255  70.825  1.00  0.00    -0.028 C 
BRANCH  21  22
ATOM     22  C   UNL     1      73.519  88.111  71.101  1.00  0.00     0.005 C 
ATOM     23  C   UNL     1      72.982  89.232  72.033  1.00  0.00     0.012 C 
ATOM     24  C   UNL     1      72.719  88.065  69.774  1.00  0.00     0.012 C 
ENDBRANCH  21  22
ENDBRANCH  19  20
ENDBRANCH  18  19
ENDBRANCH  17  18
ENDBRANCH   1  17
TORSDOF 10
ENDMDL
