MODEL 1
REMARK VINA RESULT:    -6.381      0.000      0.000
REMARK INTER + INTRA:         -11.210
REMARK INTER:                 -10.297
REMARK INTRA:                  -0.913
REMARK UNBOUND:                -0.913
REMARK SMILES COc1cc(CNC(=O)CCCCCCC(C)C)ccc1O
REMARK SMILES IDX 11 1 10 2 8 3 7 4 9 6 6 7 5 8 3 9 21 10 4 11 20 12 19 13
REMARK SMILES IDX 2 14 1 15 22 16 12 18 13 19 14 20 15 21 16 22 17 23 18 24
REMARK H PARENT 7 5 22 17
REMARK Flexibility Score: inf
ROOT
ATOM      1  C   UNL     1      92.075  94.734  76.272  1.00  0.00     0.010 C 
ENDROOT
BRANCH   1   2
ATOM      2  C   UNL     1      92.506  95.403  74.937  1.00  0.00     0.100 C 
BRANCH   2   3
ATOM      3  C   UNL     1      93.670  96.305  75.084  1.00  0.00     0.220 C 
ATOM      4  N   UNL     1      93.784  97.110  76.180  1.00  0.00    -0.352 N 
ATOM      5  H   UNL     1      93.007  97.060  76.822  1.00  0.00     0.163 HD
ATOM      6  O   UNL     1      94.556  96.294  74.194  1.00  0.00    -0.275 OA
BRANCH   4   7
ATOM      7  C   UNL     1      94.889  97.977  76.456  1.00  0.00     0.151 C 
BRANCH   7   8
ATOM      8  C   UNL     1      95.413  97.836  77.843  1.00  0.00    -0.025 A 
ATOM      9  C   UNL     1      95.909  96.430  79.799  1.00  0.00     0.160 A 
ATOM     10  C   UNL     1      96.450  97.550  80.469  1.00  0.00     0.157 A 
ATOM     11  C   UNL     1      95.379  96.586  78.501  1.00  0.00     0.056 A 
ATOM     12  C   UNL     1      96.454  98.808  79.839  1.00  0.00     0.050 A 
ATOM     13  C   UNL     1      95.949  98.949  78.532  1.00  0.00     0.009 A 
BRANCH   9  14
ATOM     14  O   UNL     1      95.865  95.210  80.417  1.00  0.00    -0.493 OA
ATOM     15  C   UNL     1      94.782  94.374  79.971  1.00  0.00     0.278 C 
ENDBRANCH   9  14
BRANCH  10  16
ATOM     16  O   UNL     1      96.966  97.430  81.720  1.00  0.00    -0.504 OA
ATOM     17  H   UNL     1      97.689  96.798  81.708  1.00  0.00     0.293 HD
ENDBRANCH  10  16
ENDBRANCH   7   8
ENDBRANCH   4   7
ENDBRANCH   2   3
ENDBRANCH   1   2
BRANCH   1  18
ATOM     18  C   UNL     1      90.650  95.171  76.715  1.00  0.00     0.001 C 
BRANCH  18  19
ATOM     19  C   UNL     1      89.611  94.015  76.713  1.00  0.00     0.000 C 
BRANCH  19  20
ATOM     20  C   UNL     1      90.294  92.633  76.509  1.00  0.00     0.000 C 
BRANCH  20  21
ATOM     21  C   UNL     1      89.301  91.454  76.314  1.00  0.00     0.003 C 
BRANCH  21  22
ATOM     22  C   UNL     1      89.456  90.690  74.958  1.00  0.00    -0.017 C 
ATOM     23  C   UNL     1      89.869  89.213  75.210  1.00  0.00     0.007 C 
ATOM     24  C   UNL     1      90.445  91.371  73.967  1.00  0.00     0.007 C 
ENDBRANCH  21  22
ENDBRANCH  20  21
ENDBRANCH  19  20
ENDBRANCH  18  19
ENDBRANCH   1  18
TORSDOF 11
ENDMDL
MODEL 2
REMARK VINA RESULT:    -6.018      2.579      5.070
REMARK INTER + INTRA:         -10.625
REMARK INTER:                  -9.883
REMARK INTRA:                  -0.742
REMARK UNBOUND:                -0.913
REMARK SMILES COc1cc(CNC(=O)CCCCCCC(C)C)ccc1O
REMARK SMILES IDX 11 1 10 2 8 3 7 4 9 6 6 7 5 8 3 9 21 10 4 11 20 12 19 13
REMARK SMILES IDX 2 14 1 15 22 16 12 18 13 19 14 20 15 21 16 22 17 23 18 24
REMARK H PARENT 7 5 22 17
REMARK Flexibility Score: inf
ROOT
ATOM      1  C   UNL     1      91.774  95.710  77.112  1.00  0.00     0.010 C 
ENDROOT
BRANCH   1   2
ATOM      2  C   UNL     1      93.012  95.406  78.001  1.00  0.00     0.100 C 
BRANCH   2   3
ATOM      3  C   UNL     1      94.230  96.130  77.575  1.00  0.00     0.220 C 
ATOM      4  N   UNL     1      94.135  97.210  76.747  1.00  0.00    -0.352 N 
ATOM      5  H   UNL     1      93.199  97.422  76.436  1.00  0.00     0.163 HD
ATOM      6  O   UNL     1      95.342  95.745  78.010  1.00  0.00    -0.275 OA
BRANCH   4   7
ATOM      7  C   UNL     1      95.235  98.020  76.316  1.00  0.00     0.151 C 
BRANCH   7   8
ATOM      8  C   UNL     1      95.619  97.782  74.898  1.00  0.00    -0.025 A 
ATOM      9  C   UNL     1      97.255  97.983  73.073  1.00  0.00     0.160 A 
ATOM     10  C   UNL     1      96.379  97.292  72.208  1.00  0.00     0.157 A 
ATOM     11  C   UNL     1      96.862  98.239  74.403  1.00  0.00     0.056 A 
ATOM     12  C   UNL     1      95.123  96.866  72.678  1.00  0.00     0.050 A 
ATOM     13  C   UNL     1      94.749  97.099  74.016  1.00  0.00     0.009 A 
BRANCH   9  14
ATOM     14  O   UNL     1      98.463  98.436  72.615  1.00  0.00    -0.493 OA
ATOM     15  C   UNL     1      98.480  99.845  72.321  1.00  0.00     0.278 C 
ENDBRANCH   9  14
BRANCH  10  16
ATOM     16  O   UNL     1      96.730  97.033  70.921  1.00  0.00    -0.504 OA
ATOM     17  H   UNL     1      97.521  97.531  70.700  1.00  0.00     0.293 HD
ENDBRANCH  10  16
ENDBRANCH   7   8
ENDBRANCH   4   7
ENDBRANCH   2   3
ENDBRANCH   1   2
BRANCH   1  18
ATOM     18  C   UNL     1      91.404  94.511  76.193  1.00  0.00     0.001 C 
BRANCH  18  19
ATOM     19  C   UNL     1      90.511  93.443  76.885  1.00  0.00     0.000 C 
BRANCH  19  20
ATOM     20  C   UNL     1      89.626  92.684  75.857  1.00  0.00     0.000 C 
BRANCH  20  21
ATOM     21  C   UNL     1      89.578  91.145  76.070  1.00  0.00     0.003 C 
BRANCH  21  22
ATOM     22  C   UNL     1      89.537  90.307  74.751  1.00  0.00    -0.017 C 
ATOM     23  C   UNL     1      89.964  88.838  75.026  1.00  0.00     0.007 C 
ATOM     24  C   UNL     1      90.387  90.915  73.597  1.00  0.00     0.007 C 
ENDBRANCH  21  22
ENDBRANCH  20  21
ENDBRANCH  19  20
ENDBRANCH  18  19
ENDBRANCH   1  18
TORSDOF 11
ENDMDL
MODEL 3
REMARK VINA RESULT:    -5.915     12.780     14.863
REMARK INTER + INTRA:         -10.459
REMARK INTER:                  -9.931
REMARK INTRA:                  -0.529
REMARK UNBOUND:                -0.913
REMARK SMILES COc1cc(CNC(=O)CCCCCCC(C)C)ccc1O
REMARK SMILES IDX 11 1 10 2 8 3 7 4 9 6 6 7 5 8 3 9 21 10 4 11 20 12 19 13
REMARK SMILES IDX 2 14 1 15 22 16 12 18 13 19 14 20 15 21 16 22 17 23 18 24
REMARK H PARENT 7 5 22 17
REMARK Flexibility Score: inf
ROOT
ATOM      1  C   UNL     1      96.802  83.450  80.141  1.00  0.00     0.010 C 
ENDROOT
BRANCH   1   2
ATOM      2  C   UNL     1      97.019  82.310  81.175  1.00  0.00     0.100 C 
BRANCH   2   3
ATOM      3  C   UNL     1      96.851  82.752  82.577  1.00  0.00     0.220 C 
ATOM      4  N   UNL     1      95.794  83.539  82.930  1.00  0.00    -0.352 N 
ATOM      5  H   UNL     1      95.197  83.810  82.163  1.00  0.00     0.163 HD
ATOM      6  O   UNL     1      97.686  82.368  83.433  1.00  0.00    -0.275 OA
BRANCH   4   7
ATOM      7  C   UNL     1      95.499  83.978  84.260  1.00  0.00     0.151 C 
BRANCH   7   8
ATOM      8  C   UNL     1      94.558  83.077  84.980  1.00  0.00    -0.025 A 
ATOM      9  C   UNL     1      92.666  81.506  84.944  1.00  0.00     0.160 A 
ATOM     10  C   UNL     1      92.787  81.325  86.339  1.00  0.00     0.157 A 
ATOM     11  C   UNL     1      93.538  82.393  84.279  1.00  0.00     0.056 A 
ATOM     12  C   UNL     1      93.772  82.030  87.054  1.00  0.00     0.050 A 
ATOM     13  C   UNL     1      94.659  82.892  86.379  1.00  0.00     0.009 A 
BRANCH   9  14
ATOM     14  O   UNL     1      91.686  80.855  84.245  1.00  0.00    -0.493 OA
ATOM     15  C   UNL     1      90.479  81.623  84.087  1.00  0.00     0.278 C 
ENDBRANCH   9  14
BRANCH  10  16
ATOM     16  O   UNL     1      91.960  80.477  87.005  1.00  0.00    -0.504 OA
ATOM     17  H   UNL     1      92.472  79.949  87.622  1.00  0.00     0.293 HD
ENDBRANCH  10  16
ENDBRANCH   7   8
ENDBRANCH   4   7
ENDBRANCH   2   3
ENDBRANCH   1   2
BRANCH   1  18
ATOM     18  C   UNL     1      97.289  83.053  78.719  1.00  0.00     0.001 C 
BRANCH  18  19
ATOM     19  C   UNL     1      96.673  83.916  77.582  1.00  0.00     0.000 C 
BRANCH  19  20
ATOM     20  C   UNL     1      97.599  83.963  76.334  1.00  0.00     0.000 C 
BRANCH  20  21
ATOM     21  C   UNL     1      96.899  84.464  75.040  1.00  0.00     0.003 C 
BRANCH  21  22
ATOM     22  C   UNL     1      97.818  84.498  73.775  1.00  0.00    -0.017 C 
ATOM     23  C   UNL     1      97.982  83.069  73.185  1.00  0.00     0.007 C 
ATOM     24  C   UNL     1      99.211  85.146  74.031  1.00  0.00     0.007 C 
ENDBRANCH  21  22
ENDBRANCH  20  21
ENDBRANCH  19  20
ENDBRANCH  18  19
ENDBRANCH   1  18
TORSDOF 11
ENDMDL
MODEL 4
REMARK VINA RESULT:    -5.701      3.198      5.581
REMARK INTER + INTRA:         -10.114
REMARK INTER:                  -9.381
REMARK INTRA:                  -0.733
REMARK UNBOUND:                -0.913
REMARK SMILES COc1cc(CNC(=O)CCCCCCC(C)C)ccc1O
REMARK SMILES IDX 11 1 10 2 8 3 7 4 9 6 6 7 5 8 3 9 21 10 4 11 20 12 19 13
REMARK SMILES IDX 2 14 1 15 22 16 12 18 13 19 14 20 15 21 16 22 17 23 18 24
REMARK H PARENT 7 5 22 17
REMARK Flexibility Score: inf
ROOT
ATOM      1  C   UNL     1      91.267  95.603  76.584  1.00  0.00     0.010 C 
ENDROOT
BRANCH   1   2
ATOM      2  C   UNL     1      92.556  94.817  76.219  1.00  0.00     0.100 C 
BRANCH   2   3
ATOM      3  C   UNL     1      93.605  95.665  75.608  1.00  0.00     0.220 C 
ATOM      4  N   UNL     1      93.726  96.976  75.965  1.00  0.00    -0.352 N 
ATOM      5  H   UNL     1      93.031  97.300  76.622  1.00  0.00     0.163 HD
ATOM      6  O   UNL     1      94.390  95.146  74.777  1.00  0.00    -0.275 OA
BRANCH   4   7
ATOM      7  C   UNL     1      94.734  97.873  75.486  1.00  0.00     0.151 C 
BRANCH   7   8
ATOM      8  C   UNL     1      94.308  98.649  74.289  1.00  0.00    -0.025 A 
ATOM      9  C   UNL     1      93.807 100.804  73.216  1.00  0.00     0.160 A 
ATOM     10  C   UNL     1      93.539 100.139  72.000  1.00  0.00     0.157 A 
ATOM     11  C   UNL     1      94.170 100.054  74.354  1.00  0.00     0.056 A 
ATOM     12  C   UNL     1      93.634  98.737  71.933  1.00  0.00     0.050 A 
ATOM     13  C   UNL     1      94.026  97.997  73.065  1.00  0.00     0.009 A 
BRANCH   9  14
ATOM     14  O   UNL     1      93.679 102.164  73.302  1.00  0.00    -0.493 OA
ATOM     15  C   UNL     1      92.417 102.594  73.843  1.00  0.00     0.278 C 
ENDBRANCH   9  14
BRANCH  10  16
ATOM     16  O   UNL     1      93.185 100.836  70.888  1.00  0.00    -0.504 OA
ATOM     17  H   UNL     1      92.572 101.534  71.130  1.00  0.00     0.293 HD
ENDBRANCH  10  16
ENDBRANCH   7   8
ENDBRANCH   4   7
ENDBRANCH   2   3
ENDBRANCH   1   2
BRANCH   1  18
ATOM     18  C   UNL     1      89.977  94.799  76.258  1.00  0.00     0.001 C 
BRANCH  18  19
ATOM     19  C   UNL     1      89.629  93.716  77.319  1.00  0.00     0.000 C 
BRANCH  19  20
ATOM     20  C   UNL     1      89.876  92.281  76.774  1.00  0.00     0.000 C 
BRANCH  20  21
ATOM     21  C   UNL     1      90.032  92.204  75.230  1.00  0.00     0.003 C 
BRANCH  21  22
ATOM     22  C   UNL     1      89.801  90.781  74.623  1.00  0.00    -0.017 C 
ATOM     23  C   UNL     1      88.480  90.747  73.804  1.00  0.00     0.007 C 
ATOM     24  C   UNL     1      89.815  89.640  75.683  1.00  0.00     0.007 C 
ENDBRANCH  21  22
ENDBRANCH  20  21
ENDBRANCH  19  20
ENDBRANCH  18  19
ENDBRANCH   1  18
TORSDOF 11
ENDMDL
MODEL 5
REMARK VINA RESULT:    -5.688      3.443      5.449
REMARK INTER + INTRA:         -10.092
REMARK INTER:                  -8.954
REMARK INTRA:                  -1.138
REMARK UNBOUND:                -0.913
REMARK SMILES COc1cc(CNC(=O)CCCCCCC(C)C)ccc1O
REMARK SMILES IDX 11 1 10 2 8 3 7 4 9 6 6 7 5 8 3 9 21 10 4 11 20 12 19 13
REMARK SMILES IDX 2 14 1 15 22 16 12 18 13 19 14 20 15 21 16 22 17 23 18 24
REMARK H PARENT 7 5 22 17
REMARK Flexibility Score: inf
ROOT
ATOM      1  C   UNL     1      93.594  95.127  76.529  1.00  0.00     0.010 C 
ENDROOT
BRANCH   1   2
ATOM      2  C   UNL     1      93.285  95.588  75.077  1.00  0.00     0.100 C 
BRANCH   2   3
ATOM      3  C   UNL     1      94.258  96.574  74.557  1.00  0.00     0.220 C 
ATOM      4  N   UNL     1      94.635  97.639  75.321  1.00  0.00    -0.352 N 
ATOM      5  H   UNL     1      94.168  97.704  76.213  1.00  0.00     0.163 HD
ATOM      6  O   UNL     1      94.743  96.394  73.413  1.00  0.00    -0.275 OA
BRANCH   4   7
ATOM      7  C   UNL     1      95.608  98.621  74.947  1.00  0.00     0.151 C 
BRANCH   7   8
ATOM      8  C   UNL     1      95.013  99.954  74.653  1.00  0.00    -0.025 A 
ATOM      9  C   UNL     1      93.294 101.322  73.548  1.00  0.00     0.160 A 
ATOM     10  C   UNL     1      93.847 102.486  74.123  1.00  0.00     0.157 A 
ATOM     11  C   UNL     1      93.891 100.069  73.802  1.00  0.00     0.056 A 
ATOM     12  C   UNL     1      94.988 102.389  74.941  1.00  0.00     0.050 A 
ATOM     13  C   UNL     1      95.561 101.132  75.214  1.00  0.00     0.009 A 
BRANCH   9  14
ATOM     14  O   UNL     1      92.208 101.409  72.720  1.00  0.00    -0.493 OA
ATOM     15  C   UNL     1      92.545 101.415  71.321  1.00  0.00     0.278 C 
ENDBRANCH   9  14
BRANCH  10  16
ATOM     16  O   UNL     1      93.294 103.706  73.895  1.00  0.00    -0.504 OA
ATOM     17  H   UNL     1      93.290 103.884  72.952  1.00  0.00     0.293 HD
ENDBRANCH  10  16
ENDBRANCH   7   8
ENDBRANCH   4   7
ENDBRANCH   2   3
ENDBRANCH   1   2
BRANCH   1  18
ATOM     18  C   UNL     1      92.304  94.988  77.387  1.00  0.00     0.001 C 
BRANCH  18  19
ATOM     19  C   UNL     1      91.070  95.719  76.788  1.00  0.00     0.000 C 
BRANCH  19  20
ATOM     20  C   UNL     1      89.913  94.729  76.478  1.00  0.00     0.000 C 
BRANCH  20  21
ATOM     21  C   UNL     1      90.285  93.233  76.673  1.00  0.00     0.003 C 
BRANCH  21  22
ATOM     22  C   UNL     1      90.454  92.426  75.345  1.00  0.00    -0.017 C 
ATOM     23  C   UNL     1      90.122  93.321  74.118  1.00  0.00     0.007 C 
ATOM     24  C   UNL     1      89.621  91.111  75.301  1.00  0.00     0.007 C 
ENDBRANCH  21  22
ENDBRANCH  20  21
ENDBRANCH  19  20
ENDBRANCH  18  19
ENDBRANCH   1  18
TORSDOF 11
ENDMDL
MODEL 6
REMARK VINA RESULT:    -5.680     12.064     14.901
REMARK INTER + INTRA:         -10.080
REMARK INTER:                  -9.436
REMARK INTRA:                  -0.643
REMARK UNBOUND:                -0.913
REMARK SMILES COc1cc(CNC(=O)CCCCCCC(C)C)ccc1O
REMARK SMILES IDX 11 1 10 2 8 3 7 4 9 6 6 7 5 8 3 9 21 10 4 11 20 12 19 13
REMARK SMILES IDX 2 14 1 15 22 16 12 18 13 19 14 20 15 21 16 22 17 23 18 24
REMARK H PARENT 7 5 22 17
REMARK Flexibility Score: inf
ROOT
ATOM      1  C   UNL     1      97.592  82.679  77.616  1.00  0.00     0.010 C 
ENDROOT
BRANCH   1   2
ATOM      2  C   UNL     1      96.620  83.860  77.345  1.00  0.00     0.100 C 
BRANCH   2   3
ATOM      3  C   UNL     1      96.898  84.567  76.075  1.00  0.00     0.220 C 
ATOM      4  N   UNL     1      98.091  84.394  75.436  1.00  0.00    -0.352 N 
ATOM      5  H   UNL     1      98.746  83.799  75.922  1.00  0.00     0.163 HD
ATOM      6  O   UNL     1      96.006  85.306  75.590  1.00  0.00    -0.275 OA
BRANCH   4   7
ATOM      7  C   UNL     1      98.448  84.977  74.178  1.00  0.00     0.151 C 
BRANCH   7   8
ATOM      8  C   UNL     1      98.845  83.970  73.156  1.00  0.00    -0.025 A 
ATOM      9  C   UNL     1     100.406  83.201  71.419  1.00  0.00     0.160 A 
ATOM     10  C   UNL     1      99.632  82.035  71.236  1.00  0.00     0.157 A 
ATOM     11  C   UNL     1      99.997  84.167  72.362  1.00  0.00     0.056 A 
ATOM     12  C   UNL     1      98.462  81.846  71.993  1.00  0.00     0.050 A 
ATOM     13  C   UNL     1      98.075  82.800  72.954  1.00  0.00     0.009 A 
BRANCH   9  14
ATOM     14  O   UNL     1     101.525  83.414  70.660  1.00  0.00    -0.493 OA
ATOM     15  C   UNL     1     101.496  84.645  69.916  1.00  0.00     0.278 C 
ENDBRANCH   9  14
BRANCH  10  16
ATOM     16  O   UNL     1     100.002  81.088  70.334  1.00  0.00    -0.504 OA
ATOM     17  H   UNL     1      99.458  81.168  69.546  1.00  0.00     0.293 HD
ENDBRANCH  10  16
ENDBRANCH   7   8
ENDBRANCH   4   7
ENDBRANCH   2   3
ENDBRANCH   1   2
BRANCH   1  18
ATOM     18  C   UNL     1      98.074  82.643  79.094  1.00  0.00     0.001 C 
BRANCH  18  19
ATOM     19  C   UNL     1      97.026  83.182  80.108  1.00  0.00     0.000 C 
BRANCH  19  20
ATOM     20  C   UNL     1      96.943  82.286  81.376  1.00  0.00     0.000 C 
BRANCH  20  21
ATOM     21  C   UNL     1      96.435  83.023  82.645  1.00  0.00     0.003 C 
BRANCH  21  22
ATOM     22  C   UNL     1      95.810  82.090  83.733  1.00  0.00    -0.017 C 
ATOM     23  C   UNL     1      96.066  80.598  83.381  1.00  0.00     0.007 C 
ATOM     24  C   UNL     1      94.292  82.341  83.974  1.00  0.00     0.007 C 
ENDBRANCH  21  22
ENDBRANCH  20  21
ENDBRANCH  19  20
ENDBRANCH  18  19
ENDBRANCH   1  18
TORSDOF 11
ENDMDL
MODEL 7
REMARK VINA RESULT:    -5.649      2.989      4.026
REMARK INTER + INTRA:         -10.030
REMARK INTER:                  -9.225
REMARK INTRA:                  -0.805
REMARK UNBOUND:                -0.913
REMARK SMILES COc1cc(CNC(=O)CCCCCCC(C)C)ccc1O
REMARK SMILES IDX 11 1 10 2 8 3 7 4 9 6 6 7 5 8 3 9 21 10 4 11 20 12 19 13
REMARK SMILES IDX 2 14 1 15 22 16 12 18 13 19 14 20 15 21 16 22 17 23 18 24
REMARK H PARENT 7 5 22 17
REMARK Flexibility Score: inf
ROOT
ATOM      1  C   UNL     1      91.387  95.818  77.107  1.00  0.00     0.010 C 
ENDROOT
BRANCH   1   2
ATOM      2  C   UNL     1      92.743  95.091  77.323  1.00  0.00     0.100 C 
BRANCH   2   3
ATOM      3  C   UNL     1      93.704  95.305  76.218  1.00  0.00     0.220 C 
ATOM      4  N   UNL     1      93.517  96.323  75.329  1.00  0.00    -0.352 N 
ATOM      5  H   UNL     1      92.672  96.856  75.471  1.00  0.00     0.163 HD
ATOM      6  O   UNL     1      94.703  94.548  76.134  1.00  0.00    -0.275 OA
BRANCH   4   7
ATOM      7  C   UNL     1      94.407  96.660  74.260  1.00  0.00     0.151 C 
BRANCH   7   8
ATOM      8  C   UNL     1      95.091  97.968  74.458  1.00  0.00    -0.025 A 
ATOM      9  C   UNL     1      97.156  99.263  74.783  1.00  0.00     0.160 A 
ATOM     10  C   UNL     1      96.407 100.460  74.790  1.00  0.00     0.157 A 
ATOM     11  C   UNL     1      96.492  98.027  74.636  1.00  0.00     0.056 A 
ATOM     12  C   UNL     1      95.008 100.411  74.652  1.00  0.00     0.050 A 
ATOM     13  C   UNL     1      94.354  99.176  74.477  1.00  0.00     0.009 A 
BRANCH   9  14
ATOM     14  O   UNL     1      98.513  99.297  74.956  1.00  0.00    -0.493 OA
ATOM     15  C   UNL     1      98.933  99.030  76.306  1.00  0.00     0.278 C 
ENDBRANCH   9  14
BRANCH  10  16
ATOM     16  O   UNL     1      97.020 101.665  74.931  1.00  0.00    -0.504 OA
ATOM     17  H   UNL     1      97.969 101.552  74.841  1.00  0.00     0.293 HD
ENDBRANCH  10  16
ENDBRANCH   7   8
ENDBRANCH   4   7
ENDBRANCH   2   3
ENDBRANCH   1   2
BRANCH   1  18
ATOM     18  C   UNL     1      90.379  94.953  76.296  1.00  0.00     0.001 C 
BRANCH  18  19
ATOM     19  C   UNL     1      89.541  93.981  77.174  1.00  0.00     0.000 C 
BRANCH  19  20
ATOM     20  C   UNL     1      89.870  92.496  76.855  1.00  0.00     0.000 C 
BRANCH  20  21
ATOM     21  C   UNL     1      90.390  92.254  75.411  1.00  0.00     0.003 C 
BRANCH  21  22
ATOM     22  C   UNL     1      89.778  91.002  74.701  1.00  0.00    -0.017 C 
ATOM     23  C   UNL     1      89.680  89.808  75.692  1.00  0.00     0.007 C 
ATOM     24  C   UNL     1      90.543  90.578  73.412  1.00  0.00     0.007 C 
ENDBRANCH  21  22
ENDBRANCH  20  21
ENDBRANCH  19  20
ENDBRANCH  18  19
ENDBRANCH   1  18
TORSDOF 11
ENDMDL
MODEL 8
REMARK VINA RESULT:    -5.638     17.008     20.221
REMARK INTER + INTRA:         -10.012
REMARK INTER:                  -8.986
REMARK INTRA:                  -1.026
REMARK UNBOUND:                -0.913
REMARK SMILES COc1cc(CNC(=O)CCCCCCC(C)C)ccc1O
REMARK SMILES IDX 11 1 10 2 8 3 7 4 9 6 6 7 5 8 3 9 21 10 4 11 20 12 19 13
REMARK SMILES IDX 2 14 1 15 22 16 12 18 13 19 14 20 15 21 16 22 17 23 18 24
REMARK H PARENT 7 5 22 17
REMARK Flexibility Score: inf
ROOT
ATOM      1  C   UNL     1      75.568  89.814  68.829  1.00  0.00     0.010 C 
ENDROOT
BRANCH   1   2
ATOM      2  C   UNL     1      74.577  89.008  69.712  1.00  0.00     0.100 C 
BRANCH   2   3
ATOM      3  C   UNL     1      73.606  89.863  70.432  1.00  0.00     0.220 C 
ATOM      4  N   UNL     1      74.020  91.007  71.048  1.00  0.00    -0.352 N 
ATOM      5  H   UNL     1      75.015  91.175  71.001  1.00  0.00     0.163 HD
ATOM      6  O   UNL     1      72.397  89.524  70.441  1.00  0.00    -0.275 OA
BRANCH   4   7
ATOM      7  C   UNL     1      73.167  91.938  71.722  1.00  0.00     0.151 C 
BRANCH   7   8
ATOM      8  C   UNL     1      73.741  92.440  73.001  1.00  0.00    -0.025 A 
ATOM      9  C   UNL     1      75.398  93.805  74.201  1.00  0.00     0.160 A 
ATOM     10  C   UNL     1      74.812  93.437  75.432  1.00  0.00     0.157 A 
ATOM     11  C   UNL     1      74.870  93.290  72.998  1.00  0.00     0.056 A 
ATOM     12  C   UNL     1      73.712  92.561  75.450  1.00  0.00     0.050 A 
ATOM     13  C   UNL     1      73.172  92.074  74.243  1.00  0.00     0.009 A 
BRANCH   9  14
ATOM     14  O   UNL     1      76.493  94.625  74.174  1.00  0.00    -0.493 OA
ATOM     15  C   UNL     1      77.746  93.918  74.128  1.00  0.00     0.278 C 
ENDBRANCH   9  14
BRANCH  10  16
ATOM     16  O   UNL     1      75.301  93.917  76.606  1.00  0.00    -0.504 OA
ATOM     17  H   UNL     1      75.996  94.554  76.426  1.00  0.00     0.293 HD
ENDBRANCH  10  16
ENDBRANCH   7   8
ENDBRANCH   4   7
ENDBRANCH   2   3
ENDBRANCH   1   2
BRANCH   1  18
ATOM     18  C   UNL     1      76.901  89.048  68.593  1.00  0.00     0.001 C 
BRANCH  18  19
ATOM     19  C   UNL     1      76.927  88.228  67.272  1.00  0.00     0.000 C 
BRANCH  19  20
ATOM     20  C   UNL     1      77.094  86.707  67.547  1.00  0.00     0.000 C 
BRANCH  20  21
ATOM     21  C   UNL     1      77.072  86.325  69.053  1.00  0.00     0.003 C 
BRANCH  21  22
ATOM     22  C   UNL     1      75.772  85.592  69.520  1.00  0.00    -0.017 C 
ATOM     23  C   UNL     1      76.113  84.180  70.074  1.00  0.00     0.007 C 
ATOM     24  C   UNL     1      74.678  85.495  68.415  1.00  0.00     0.007 C 
ENDBRANCH  21  22
ENDBRANCH  20  21
ENDBRANCH  19  20
ENDBRANCH  18  19
ENDBRANCH   1  18
TORSDOF 11
ENDMDL
MODEL 9
REMARK VINA RESULT:    -5.523      2.966      4.129
REMARK INTER + INTRA:          -9.826
REMARK INTER:                  -8.698
REMARK INTRA:                  -1.128
REMARK UNBOUND:                -0.913
REMARK SMILES COc1cc(CNC(=O)CCCCCCC(C)C)ccc1O
REMARK SMILES IDX 11 1 10 2 8 3 7 4 9 6 6 7 5 8 3 9 21 10 4 11 20 12 19 13
REMARK SMILES IDX 2 14 1 15 22 16 12 18 13 19 14 20 15 21 16 22 17 23 18 24
REMARK H PARENT 7 5 22 17
REMARK Flexibility Score: inf
ROOT
ATOM      1  C   UNL     1      93.769  95.048  76.363  1.00  0.00     0.010 C 
ENDROOT
BRANCH   1   2
ATOM      2  C   UNL     1      93.420  95.524  74.926  1.00  0.00     0.100 C 
BRANCH   2   3
ATOM      3  C   UNL     1      94.223  96.687  74.485  1.00  0.00     0.220 C 
ATOM      4  N   UNL     1      94.347  97.783  75.287  1.00  0.00    -0.352 N 
ATOM      5  H   UNL     1      93.822  97.737  76.148  1.00  0.00     0.163 HD
ATOM      6  O   UNL     1      94.804  96.630  73.373  1.00  0.00    -0.275 OA
BRANCH   4   7
ATOM      7  C   UNL     1      95.141  98.938  74.992  1.00  0.00     0.151 C 
BRANCH   7   8
ATOM      8  C   UNL     1      96.549  98.817  75.460  1.00  0.00    -0.025 A 
ATOM      9  C   UNL     1      98.956  98.712  74.966  1.00  0.00     0.160 A 
ATOM     10  C   UNL     1      99.238  98.630  76.348  1.00  0.00     0.157 A 
ATOM     11  C   UNL     1      97.615  98.785  74.533  1.00  0.00     0.056 A 
ATOM     12  C   UNL     1      98.183  98.621  77.278  1.00  0.00     0.050 A 
ATOM     13  C   UNL     1      96.848  98.724  76.840  1.00  0.00     0.009 A 
BRANCH   9  14
ATOM     14  O   UNL     1      99.972  98.682  74.051  1.00  0.00    -0.493 OA
ATOM     15  C   UNL     1     100.261  99.964  73.463  1.00  0.00     0.278 C 
ENDBRANCH   9  14
BRANCH  10  16
ATOM     16  O   UNL     1     100.520  98.557  76.793  1.00  0.00    -0.504 OA
ATOM     17  H   UNL     1     100.596  99.032  77.624  1.00  0.00     0.293 HD
ENDBRANCH  10  16
ENDBRANCH   7   8
ENDBRANCH   4   7
ENDBRANCH   2   3
ENDBRANCH   1   2
BRANCH   1  18
ATOM     18  C   UNL     1      92.499  94.837  77.236  1.00  0.00     0.001 C 
BRANCH  18  19
ATOM     19  C   UNL     1      91.288  95.711  76.802  1.00  0.00     0.000 C 
BRANCH  19  20
ATOM     20  C   UNL     1      90.024  94.846  76.539  1.00  0.00     0.000 C 
BRANCH  20  21
ATOM     21  C   UNL     1      90.057  94.060  75.199  1.00  0.00     0.003 C 
BRANCH  21  22
ATOM     22  C   UNL     1      90.389  92.539  75.345  1.00  0.00    -0.017 C 
ATOM     23  C   UNL     1      90.057  91.780  74.030  1.00  0.00     0.007 C 
ATOM     24  C   UNL     1      89.688  91.859  76.559  1.00  0.00     0.007 C 
ENDBRANCH  21  22
ENDBRANCH  20  21
ENDBRANCH  19  20
ENDBRANCH  18  19
ENDBRANCH   1  18
TORSDOF 11
ENDMDL
MODEL 10
REMARK VINA RESULT:    -5.491     11.981     14.711
REMARK INTER + INTRA:          -9.775
REMARK INTER:                  -8.472
REMARK INTRA:                  -1.303
REMARK UNBOUND:                -0.913
REMARK SMILES COc1cc(CNC(=O)CCCCCCC(C)C)ccc1O
REMARK SMILES IDX 11 1 10 2 8 3 7 4 9 6 6 7 5 8 3 9 21 10 4 11 20 12 19 13
REMARK SMILES IDX 2 14 1 15 22 16 12 18 13 19 14 20 15 21 16 22 17 23 18 24
REMARK H PARENT 7 5 22 17
REMARK Flexibility Score: inf
ROOT
ATOM      1  C   UNL     1      90.937  93.833  92.257  1.00  0.00     0.010 C 
ENDROOT
BRANCH   1   2
ATOM      2  C   UNL     1      92.388  93.348  92.529  1.00  0.00     0.100 C 
BRANCH   2   3
ATOM      3  C   UNL     1      92.623  91.946  92.115  1.00  0.00     0.220 C 
ATOM      4  N   UNL     1      91.943  91.417  91.057  1.00  0.00    -0.352 N 
ATOM      5  H   UNL     1      91.266  92.037  90.639  1.00  0.00     0.163 HD
ATOM      6  O   UNL     1      93.474  91.269  92.741  1.00  0.00    -0.275 OA
BRANCH   4   7
ATOM      7  C   UNL     1      92.129  90.098  90.532  1.00  0.00     0.151 C 
BRANCH   7   8
ATOM      8  C   UNL     1      93.048  90.057  89.361  1.00  0.00    -0.025 A 
ATOM      9  C   UNL     1      94.261  88.771  87.651  1.00  0.00     0.160 A 
ATOM     10  C   UNL     1      94.764  89.971  87.103  1.00  0.00     0.157 A 
ATOM     11  C   UNL     1      93.423  88.822  88.785  1.00  0.00     0.056 A 
ATOM     12  C   UNL     1      94.429  91.204  87.692  1.00  0.00     0.050 A 
ATOM     13  C   UNL     1      93.569  91.249  88.806  1.00  0.00     0.009 A 
BRANCH   9  14
ATOM     14  O   UNL     1      94.612  87.565  87.110  1.00  0.00    -0.493 OA
ATOM     15  C   UNL     1      93.638  86.527  87.326  1.00  0.00     0.278 C 
ENDBRANCH   9  14
BRANCH  10  16
ATOM     16  O   UNL     1      95.574  89.953  86.012  1.00  0.00    -0.504 OA
ATOM     17  H   UNL     1      95.411  90.736  85.480  1.00  0.00     0.293 HD
ENDBRANCH  10  16
ENDBRANCH   7   8
ENDBRANCH   4   7
ENDBRANCH   2   3
ENDBRANCH   1   2
BRANCH   1  18
ATOM     18  C   UNL     1      90.834  94.672  90.951  1.00  0.00     0.001 C 
BRANCH  18  19
ATOM     19  C   UNL     1      91.987  95.700  90.774  1.00  0.00     0.000 C 
BRANCH  19  20
ATOM     20  C   UNL     1      92.996  95.246  89.682  1.00  0.00     0.000 C 
BRANCH  20  21
ATOM     21  C   UNL     1      94.458  95.704  89.935  1.00  0.00     0.003 C 
BRANCH  21  22
ATOM     22  C   UNL     1      95.228  94.864  91.006  1.00  0.00    -0.017 C 
ATOM     23  C   UNL     1      96.330  95.725  91.684  1.00  0.00     0.007 C 
ATOM     24  C   UNL     1      95.834  93.543  90.446  1.00  0.00     0.007 C 
ENDBRANCH  21  22
ENDBRANCH  20  21
ENDBRANCH  19  20
ENDBRANCH  18  19
ENDBRANCH   1  18
TORSDOF 11
ENDMDL
