MODEL 1
REMARK VINA RESULT:    -6.136      0.000      0.000
REMARK INTER + INTRA:         -13.288
REMARK INTER:                 -10.799
REMARK INTRA:                  -2.489
REMARK UNBOUND:                -2.489
REMARK SMILES C=C(C)[C@]12C[C@@H](C)[C@@]34O[C@](Cc5ccccc5)(O[C@@H]1[C@@H]3C=C(COC(=O)Cc1ccc(O)c(OC)c1)C[C@]1(O)C(=O)C(C)=C[C@@H]41)O2
REMARK SMILES IDX 23 1 22 2 21 3 20 4 9 5 8 6 10 7 6 8 18 9 46 10 19 11 5 12
REMARK SMILES IDX 7 13 4 14 45 15 38 16 44 17 40 18 42 20 41 21 43 22 39 23
REMARK SMILES IDX 11 25 12 26 13 27 17 28 14 29 16 30 15 31 2 32 3 33 1 34
REMARK SMILES IDX 37 35 24 37 25 38 26 39 27 40 28 41 36 42 29 43 33 44 30 45
REMARK SMILES IDX 31 46 34 47 35 48 32 49
REMARK H PARENT 39 24 32 50
REMARK Flexibility Score: 90.00
ROOT
ATOM      1  C   UNL     1      65.424  88.671  71.483  1.00  0.00     0.264 C 
ENDROOT
BRANCH   1   2
ATOM      2  C   UNL     1      65.625  87.227  71.088  1.00  0.00    -0.033 C 
ATOM      3  C   UNL     1      64.792  86.287  71.578  1.00  0.00    -0.015 C 
BRANCH   3   4
ATOM      4  C   UNL     1      64.827  84.778  71.399  1.00  0.00     0.078 C 
ATOM      5  O   UNL     1      63.415  84.252  69.437  1.00  0.00    -0.319 OA
ATOM      6  C   UNL     1      64.787  84.197  69.936  1.00  0.00     0.095 C 
ATOM      7  C   UNL     1      62.399  83.858  70.380  1.00  0.00     0.289 C 
ATOM      8  C   UNL     1      65.257  82.685  70.008  1.00  0.00     0.023 C 
ATOM      9  O   UNL     1      62.454  84.654  71.561  1.00  0.00    -0.320 OA
ATOM     10  O   UNL     1      62.559  82.511  70.816  1.00  0.00    -0.313 OA
ATOM     11  C   UNL     1      63.647  84.130  72.163  1.00  0.00     0.170 C 
ATOM     12  C   UNL     1      64.825  82.015  71.348  1.00  0.00     0.049 C 
ATOM     13  C   UNL     1      64.818  81.801  68.829  1.00  0.00     0.011 C 
ATOM     14  C   UNL     1      63.522  82.611  71.885  1.00  0.00     0.122 C 
BRANCH   6  15
ATOM     15  C   UNL     1      65.592  85.102  68.960  1.00  0.00     0.086 C 
ATOM     16  C   UNL     1      66.937  85.644  69.488  1.00  0.00     0.140 CG0
ATOM     17  C   UNL     1      65.936  84.586  67.591  1.00  0.00    -0.010 C 
ATOM     18  C   UNL     1      67.790  85.674  68.237  1.00  0.00     0.190 C 
ATOM     19  G   UNL     1      66.792  87.022  70.130  1.00  0.00     0.000 G0
ATOM     20  C   UNL     1      67.154  84.913  67.145  1.00  0.00    -0.008 C 
ATOM     21  O   UNL     1      68.885  86.207  68.139  1.00  0.00    -0.291 OA
ATOM     22  C   UNL     1      67.789  84.655  65.837  1.00  0.00     0.048 C 
BRANCH  16  23
ATOM     23  O   UNL     1      67.622  84.744  70.343  1.00  0.00    -0.381 OA
ATOM     24  H   UNL     1      67.016  84.473  71.053  1.00  0.00     0.212 HD
ENDBRANCH  16  23
ENDBRANCH   6  15
BRANCH   7  25
ATOM     25  C   UNL     1      61.046  84.018  69.716  1.00  0.00     0.135 C 
BRANCH  25  26
ATOM     26  C   UNL     1      60.204  85.068  70.397  1.00  0.00    -0.040 A 
ATOM     27  C   UNL     1      59.295  84.698  71.389  1.00  0.00     0.004 A 
ATOM     28  C   UNL     1      60.333  86.409  70.036  1.00  0.00     0.004 A 
ATOM     29  C   UNL     1      58.516  85.669  72.018  1.00  0.00     0.000 A 
ATOM     30  C   UNL     1      59.554  87.380  70.666  1.00  0.00     0.000 A 
ATOM     31  C   UNL     1      58.645  87.009  71.657  1.00  0.00     0.000 A 
ENDBRANCH  25  26
ENDBRANCH   7  25
BRANCH  14  32
ATOM     32  C   UNL     1      62.993  81.865  73.066  1.00  0.00    -0.046 C 
ATOM     33  C   UNL     1      61.617  82.243  73.525  1.00  0.00     0.042 C 
ATOM     34  C   UNL     1      63.709  80.912  73.681  1.00  0.00     0.010 C 
ENDBRANCH  14  32
ENDBRANCH   3   4
BRANCH   2  35
ATOM     35  C   UNL     1      66.793  87.027  70.140  1.00  0.00     0.078 CG0
ATOM     36  G   UNL     1      66.963  85.639  69.525  1.00  0.00     0.000 G0
ENDBRANCH   2  35
ENDBRANCH   1   2
BRANCH   1  37
ATOM     37  O   UNL     1      64.422  88.749  72.474  1.00  0.00    -0.461 OA
BRANCH  37  38
ATOM     38  C   UNL     1      63.156  89.063  72.036  1.00  0.00     0.310 C 
ATOM     39  O   UNL     1      62.821  89.157  70.863  1.00  0.00    -0.252 OA
BRANCH  38  40
ATOM     40  C   UNL     1      62.248  89.273  73.225  1.00  0.00     0.158 C 
BRANCH  40  41
ATOM     41  C   UNL     1      62.147  88.057  74.109  1.00  0.00    -0.033 A 
ATOM     42  C   UNL     1      62.727  88.067  75.379  1.00  0.00     0.054 A 
ATOM     43  C   UNL     1      61.474  86.921  73.659  1.00  0.00     0.008 A 
ATOM     44  C   UNL     1      62.633  86.941  76.197  1.00  0.00     0.160 A 
ATOM     45  C   UNL     1      61.381  85.795  74.478  1.00  0.00     0.050 A 
ATOM     46  C   UNL     1      61.960  85.805  75.746  1.00  0.00     0.157 A 
BRANCH  44  47
ATOM     47  O   UNL     1      63.203  86.964  77.434  1.00  0.00    -0.493 OA
ATOM     48  C   UNL     1      63.798  88.191  77.852  1.00  0.00     0.278 C 
ENDBRANCH  44  47
BRANCH  46  49
ATOM     49  O   UNL     1      61.861  84.701  76.537  1.00  0.00    -0.504 OA
ATOM     50  H   UNL     1      60.986  84.691  76.959  1.00  0.00     0.293 HD
ENDBRANCH  46  49
ENDBRANCH  40  41
ENDBRANCH  38  40
ENDBRANCH  37  38
ENDBRANCH   1  37
TORSDOF 11
ENDMDL
MODEL 2
REMARK VINA RESULT:    -6.042     33.176     36.328
REMARK INTER + INTRA:         -13.124
REMARK INTER:                 -12.090
REMARK INTRA:                  -1.034
REMARK UNBOUND:                -2.489
REMARK SMILES C=C(C)[C@]12C[C@@H](C)[C@@]34O[C@](Cc5ccccc5)(O[C@@H]1[C@@H]3C=C(COC(=O)Cc1ccc(O)c(OC)c1)C[C@]1(O)C(=O)C(C)=C[C@@H]41)O2
REMARK SMILES IDX 23 1 22 2 21 3 20 4 9 5 8 6 10 7 6 8 18 9 46 10 19 11 5 12
REMARK SMILES IDX 7 13 4 14 45 15 38 16 44 17 40 18 42 20 41 21 43 22 39 23
REMARK SMILES IDX 11 25 12 26 13 27 17 28 14 29 16 30 15 31 2 32 3 33 1 34
REMARK SMILES IDX 37 35 24 37 25 38 26 39 27 40 28 41 36 42 29 43 33 44 30 45
REMARK SMILES IDX 31 46 34 47 35 48 32 49
REMARK H PARENT 39 24 32 50
REMARK Flexibility Score: 90.00
ROOT
ATOM      1  C   UNL     1      97.907  82.729  86.328  1.00  0.00     0.264 C 
ENDROOT
BRANCH   1   2
ATOM      2  C   UNL     1      96.587  83.328  86.754  1.00  0.00    -0.033 C 
ATOM      3  C   UNL     1      95.537  82.513  86.981  1.00  0.00    -0.015 C 
BRANCH   3   4
ATOM      4  C   UNL     1      94.102  82.866  87.339  1.00  0.00     0.078 C 
ATOM      5  O   UNL     1      93.948  82.842  89.808  1.00  0.00    -0.319 OA
ATOM      6  C   UNL     1      93.841  83.713  88.640  1.00  0.00     0.095 C 
ATOM      7  C   UNL     1      93.325  81.550  89.672  1.00  0.00     0.289 C 
ATOM      8  C   UNL     1      92.368  84.290  88.550  1.00  0.00     0.023 C 
ATOM      9  O   UNL     1      93.855  80.835  88.558  1.00  0.00    -0.320 OA
ATOM     10  O   UNL     1      91.923  81.648  89.434  1.00  0.00    -0.313 OA
ATOM     11  C   UNL     1      93.262  81.573  87.479  1.00  0.00     0.170 C 
ATOM     12  C   UNL     1      91.414  83.306  87.805  1.00  0.00     0.049 C 
ATOM     13  C   UNL     1      91.736  84.699  89.890  1.00  0.00     0.011 C 
ATOM     14  C   UNL     1      91.832  81.850  88.009  1.00  0.00     0.122 C 
BRANCH   6  15
ATOM     15  C   UNL     1      94.963  84.773  88.843  1.00  0.00     0.086 C 
ATOM     16  C   UNL     1      95.414  85.536  87.580  1.00  0.00     0.140 CG0
ATOM     17  C   UNL     1      94.771  85.863  89.860  1.00  0.00    -0.010 C 
ATOM     18  C   UNL     1      95.744  86.908  88.128  1.00  0.00     0.190 C 
ATOM     19  G   UNL     1      96.612  84.872  86.902  1.00  0.00     0.000 G0
ATOM     20  C   UNL     1      95.225  87.068  89.499  1.00  0.00    -0.008 C 
ATOM     21  O   UNL     1      96.317  87.796  87.516  1.00  0.00    -0.291 OA
ATOM     22  C   UNL     1      95.280  88.331  90.263  1.00  0.00     0.048 C 
BRANCH  16  23
ATOM     23  O   UNL     1      94.368  85.783  86.655  1.00  0.00    -0.381 OA
ATOM     24  H   UNL     1      94.645  85.456  85.783  1.00  0.00     0.212 HD
ENDBRANCH  16  23
ENDBRANCH   6  15
BRANCH   7  25
ATOM     25  C   UNL     1      93.569  80.768  90.946  1.00  0.00     0.135 C 
BRANCH  25  26
ATOM     26  C   UNL     1      94.699  81.349  91.758  1.00  0.00    -0.040 A 
ATOM     27  C   UNL     1      94.422  82.176  92.847  1.00  0.00     0.004 A 
ATOM     28  C   UNL     1      96.021  81.058  91.422  1.00  0.00     0.004 A 
ATOM     29  C   UNL     1      95.468  82.713  93.599  1.00  0.00     0.000 A 
ATOM     30  C   UNL     1      97.067  81.595  92.174  1.00  0.00     0.000 A 
ATOM     31  C   UNL     1      96.789  82.423  93.262  1.00  0.00     0.000 A 
ENDBRANCH  25  26
ENDBRANCH   7  25
BRANCH  14  32
ATOM     32  C   UNL     1      90.834  80.883  87.460  1.00  0.00    -0.046 C 
ATOM     33  C   UNL     1      90.229  79.926  88.443  1.00  0.00     0.042 C 
ATOM     34  C   UNL     1      90.497  80.873  86.161  1.00  0.00     0.010 C 
ENDBRANCH  14  32
ENDBRANCH   3   4
BRANCH   2  35
ATOM     35  C   UNL     1      96.632  84.839  86.881  1.00  0.00     0.078 CG0
ATOM     36  G   UNL     1      95.448  85.518  87.567  1.00  0.00     0.000 G0
ENDBRANCH   2  35
ENDBRANCH   1   2
BRANCH   1  37
ATOM     37  O   UNL     1      98.256  83.227  85.054  1.00  0.00    -0.461 OA
BRANCH  37  38
ATOM     38  C   UNL     1      97.824  82.492  83.975  1.00  0.00     0.310 C 
ATOM     39  O   UNL     1      97.544  81.301  84.002  1.00  0.00    -0.252 OA
BRANCH  38  40
ATOM     40  C   UNL     1      97.751  83.381  82.756  1.00  0.00     0.158 C 
BRANCH  40  41
ATOM     41  C   UNL     1      98.668  82.934  81.646  1.00  0.00    -0.033 A 
ATOM     42  C   UNL     1      98.325  83.179  80.316  1.00  0.00     0.054 A 
ATOM     43  C   UNL     1      99.860  82.277  81.949  1.00  0.00     0.008 A 
ATOM     44  C   UNL     1      99.174  82.766  79.289  1.00  0.00     0.160 A 
ATOM     45  C   UNL     1     100.709  81.864  80.922  1.00  0.00     0.050 A 
ATOM     46  C   UNL     1     100.366  82.108  79.592  1.00  0.00     0.157 A 
BRANCH  44  47
ATOM     47  O   UNL     1      98.827  83.010  77.995  1.00  0.00    -0.493 OA
ATOM     48  C   UNL     1      97.549  83.601  77.766  1.00  0.00     0.278 C 
ENDBRANCH  44  47
BRANCH  46  49
ATOM     49  O   UNL     1     101.203  81.701  78.598  1.00  0.00    -0.504 OA
ATOM     50  H   UNL     1     101.084  82.280  77.827  1.00  0.00     0.293 HD
ENDBRANCH  46  49
ENDBRANCH  40  41
ENDBRANCH  38  40
ENDBRANCH  37  38
ENDBRANCH   1  37
TORSDOF 11
ENDMDL
MODEL 3
REMARK VINA RESULT:    -6.025     32.343     35.356
REMARK INTER + INTRA:         -13.093
REMARK INTER:                 -12.382
REMARK INTRA:                  -0.711
REMARK UNBOUND:                -2.489
REMARK SMILES C=C(C)[C@]12C[C@@H](C)[C@@]34O[C@](Cc5ccccc5)(O[C@@H]1[C@@H]3C=C(COC(=O)Cc1ccc(O)c(OC)c1)C[C@]1(O)C(=O)C(C)=C[C@@H]41)O2
REMARK SMILES IDX 23 1 22 2 21 3 20 4 9 5 8 6 10 7 6 8 18 9 46 10 19 11 5 12
REMARK SMILES IDX 7 13 4 14 45 15 38 16 44 17 40 18 42 20 41 21 43 22 39 23
REMARK SMILES IDX 11 25 12 26 13 27 17 28 14 29 16 30 15 31 2 32 3 33 1 34
REMARK SMILES IDX 37 35 24 37 25 38 26 39 27 40 28 41 36 42 29 43 33 44 30 45
REMARK SMILES IDX 31 46 34 47 35 48 32 49
REMARK H PARENT 39 24 32 50
REMARK Flexibility Score: 90.00
ROOT
ATOM      1  C   UNL     1      96.464  84.585  87.270  1.00  0.00     0.264 C 
ENDROOT
BRANCH   1   2
ATOM      2  C   UNL     1      95.143  84.423  87.985  1.00  0.00    -0.033 C 
ATOM      3  C   UNL     1      94.245  83.532  87.518  1.00  0.00    -0.015 C 
BRANCH   3   4
ATOM      4  C   UNL     1      92.835  83.238  88.002  1.00  0.00     0.078 C 
ATOM      5  O   UNL     1      93.004  81.384  89.631  1.00  0.00    -0.319 OA
ATOM      6  C   UNL     1      92.635  82.792  89.499  1.00  0.00     0.095 C 
ATOM      7  C   UNL     1      92.543  80.524  88.573  1.00  0.00     0.289 C 
ATOM      8  C   UNL     1      91.100  82.966  89.850  1.00  0.00     0.023 C 
ATOM      9  O   UNL     1      93.015  80.968  87.303  1.00  0.00    -0.320 OA
ATOM     10  O   UNL     1      91.122  80.505  88.470  1.00  0.00    -0.313 OA
ATOM     11  C   UNL     1      92.196  82.134  87.124  1.00  0.00     0.170 C 
ATOM     12  C   UNL     1      90.195  82.692  88.610  1.00  0.00     0.049 C 
ATOM     13  C   UNL     1      90.598  82.135  91.043  1.00  0.00     0.011 C 
ATOM     14  C   UNL     1      90.823  81.665  87.667  1.00  0.00     0.122 C 
BRANCH   6  15
ATOM     15  C   UNL     1      93.625  83.543  90.435  1.00  0.00     0.086 C 
ATOM     16  C   UNL     1      93.801  85.052  90.168  1.00  0.00     0.140 CG0
ATOM     17  C   UNL     1      93.428  83.472  91.924  1.00  0.00    -0.010 C 
ATOM     18  C   UNL     1      94.018  85.607  91.560  1.00  0.00     0.190 C 
ATOM     19  G   UNL     1      94.976  85.339  89.235  1.00  0.00     0.000 G0
ATOM     20  C   UNL     1      93.668  84.608  92.588  1.00  0.00    -0.008 C 
ATOM     21  O   UNL     1      94.384  86.743  91.821  1.00  0.00    -0.291 OA
ATOM     22  C   UNL     1      93.657  84.882  94.039  1.00  0.00     0.048 C 
BRANCH  16  23
ATOM     23  O   UNL     1      92.619  85.699  89.727  1.00  0.00    -0.381 OA
ATOM     24  H   UNL     1      92.238  86.186  90.476  1.00  0.00     0.212 HD
ENDBRANCH  16  23
ENDBRANCH   6  15
BRANCH   7  25
ATOM     25  C   UNL     1      93.050  79.122  88.845  1.00  0.00     0.135 C 
BRANCH  25  26
ATOM     26  C   UNL     1      92.533  78.128  87.834  1.00  0.00    -0.040 A 
ATOM     27  C   UNL     1      91.591  77.172  88.215  1.00  0.00     0.004 A 
ATOM     28  C   UNL     1      92.996  78.165  86.519  1.00  0.00     0.004 A 
ATOM     29  C   UNL     1      91.113  76.253  87.281  1.00  0.00     0.000 A 
ATOM     30  C   UNL     1      92.518  77.246  85.585  1.00  0.00     0.000 A 
ATOM     31  C   UNL     1      91.576  76.290  85.966  1.00  0.00     0.000 A 
ENDBRANCH  25  26
ENDBRANCH   7  25
BRANCH  14  32
ATOM     32  C   UNL     1      89.897  81.251  86.569  1.00  0.00    -0.046 C 
ATOM     33  C   UNL     1      88.484  81.742  86.675  1.00  0.00     0.042 C 
ATOM     34  C   UNL     1      90.307  80.485  85.547  1.00  0.00     0.010 C 
ENDBRANCH  14  32
ENDBRANCH   3   4
BRANCH   2  35
ATOM     35  C   UNL     1      95.007  85.326  89.196  1.00  0.00     0.078 CG0
ATOM     36  G   UNL     1      93.835  85.058  90.140  1.00  0.00     0.000 G0
ENDBRANCH   2  35
ENDBRANCH   1   2
BRANCH   1  37
ATOM     37  O   UNL     1      96.385  83.975  86.000  1.00  0.00    -0.461 OA
BRANCH  37  38
ATOM     38  C   UNL     1      97.579  83.773  85.348  1.00  0.00     0.310 C 
ATOM     39  O   UNL     1      98.646  83.526  85.894  1.00  0.00    -0.252 OA
BRANCH  38  40
ATOM     40  C   UNL     1      97.368  83.902  83.857  1.00  0.00     0.158 C 
BRANCH  40  41
ATOM     41  C   UNL     1      98.084  82.836  83.068  1.00  0.00    -0.033 A 
ATOM     42  C   UNL     1      98.633  83.142  81.822  1.00  0.00     0.054 A 
ATOM     43  C   UNL     1      98.197  81.545  83.581  1.00  0.00     0.008 A 
ATOM     44  C   UNL     1      99.295  82.156  81.091  1.00  0.00     0.160 A 
ATOM     45  C   UNL     1      98.859  80.558  82.850  1.00  0.00     0.050 A 
ATOM     46  C   UNL     1      99.408  80.863  81.605  1.00  0.00     0.157 A 
BRANCH  44  47
ATOM     47  O   UNL     1      99.828  82.466  79.876  1.00  0.00    -0.493 OA
ATOM     48  C   UNL     1      98.953  82.404  78.750  1.00  0.00     0.278 C 
ENDBRANCH  44  47
BRANCH  46  49
ATOM     49  O   UNL     1     100.053  79.892  80.901  1.00  0.00    -0.504 OA
ATOM     50  H   UNL     1      99.414  79.443  80.323  1.00  0.00     0.293 HD
ENDBRANCH  46  49
ENDBRANCH  40  41
ENDBRANCH  38  40
ENDBRANCH  37  38
ENDBRANCH   1  37
TORSDOF 11
ENDMDL
MODEL 4
REMARK VINA RESULT:    -6.015     32.967     35.978
REMARK INTER + INTRA:         -13.077
REMARK INTER:                 -11.510
REMARK INTRA:                  -1.566
REMARK UNBOUND:                -2.489
REMARK SMILES C=C(C)[C@]12C[C@@H](C)[C@@]34O[C@](Cc5ccccc5)(O[C@@H]1[C@@H]3C=C(COC(=O)Cc1ccc(O)c(OC)c1)C[C@]1(O)C(=O)C(C)=C[C@@H]41)O2
REMARK SMILES IDX 23 1 22 2 21 3 20 4 9 5 8 6 10 7 6 8 18 9 46 10 19 11 5 12
REMARK SMILES IDX 7 13 4 14 45 15 38 16 44 17 40 18 42 20 41 21 43 22 39 23
REMARK SMILES IDX 11 25 12 26 13 27 17 28 14 29 16 30 15 31 2 32 3 33 1 34
REMARK SMILES IDX 37 35 24 37 25 38 26 39 27 40 28 41 36 42 29 43 33 44 30 45
REMARK SMILES IDX 31 46 34 47 35 48 32 49
REMARK H PARENT 39 24 32 50
REMARK Flexibility Score: 90.00
ROOT
ATOM      1  C   UNL     1      97.671  82.377  88.433  1.00  0.00     0.264 C 
ENDROOT
BRANCH   1   2
ATOM      2  C   UNL     1      96.332  83.075  88.489  1.00  0.00    -0.033 C 
ATOM      3  C   UNL     1      95.207  82.337  88.583  1.00  0.00    -0.015 C 
BRANCH   3   4
ATOM      4  C   UNL     1      93.755  82.786  88.579  1.00  0.00     0.078 C 
ATOM      5  O   UNL     1      93.096  83.118  90.940  1.00  0.00    -0.319 OA
ATOM      6  C   UNL     1      93.287  83.818  89.671  1.00  0.00     0.095 C 
ATOM      7  C   UNL     1      92.434  81.843  90.847  1.00  0.00     0.289 C 
ATOM      8  C   UNL     1      91.903  84.426  89.195  1.00  0.00     0.023 C 
ATOM      9  O   UNL     1      93.135  80.959  89.976  1.00  0.00    -0.320 OA
ATOM     10  O   UNL     1      91.120  81.954  90.306  1.00  0.00    -0.313 OA
ATOM     11  C   UNL     1      92.824  81.555  88.707  1.00  0.00     0.170 C 
ATOM     12  C   UNL     1      91.062  83.379  88.402  1.00  0.00     0.049 C 
ATOM     13  C   UNL     1      91.037  85.043  90.305  1.00  0.00     0.011 C 
ATOM     14  C   UNL     1      91.337  81.953  88.880  1.00  0.00     0.122 C 
BRANCH   6  15
ATOM     15  C   UNL     1      94.408  84.857  89.965  1.00  0.00     0.086 C 
ATOM     16  C   UNL     1      95.166  85.405  88.738  1.00  0.00     0.140 CG0
ATOM     17  C   UNL     1      94.078  86.093  90.754  1.00  0.00    -0.010 C 
ATOM     18  C   UNL     1      95.462  86.832  89.150  1.00  0.00     0.190 C 
ATOM     19  G   UNL     1      96.434  84.607  88.439  1.00  0.00     0.000 G0
ATOM     20  C   UNL     1      94.676  87.214  90.338  1.00  0.00    -0.008 C 
ATOM     21  O   UNL     1      96.210  87.598  88.560  1.00  0.00    -0.291 OA
ATOM     22  C   UNL     1      94.652  88.575  90.912  1.00  0.00     0.048 C 
BRANCH  16  23
ATOM     23  O   UNL     1      94.358  85.547  87.582  1.00  0.00    -0.381 OA
ATOM     24  H   UNL     1      94.859  85.222  86.815  1.00  0.00     0.212 HD
ENDBRANCH  16  23
ENDBRANCH   6  15
BRANCH   7  25
ATOM     25  C   UNL     1      92.361  81.242  92.236  1.00  0.00     0.135 C 
BRANCH  25  26
ATOM     26  C   UNL     1      91.549  79.971  92.260  1.00  0.00    -0.040 A 
ATOM     27  C   UNL     1      92.133  78.764  91.875  1.00  0.00     0.004 A 
ATOM     28  C   UNL     1      90.216  80.002  92.668  1.00  0.00     0.004 A 
ATOM     29  C   UNL     1      91.383  77.587  91.897  1.00  0.00     0.000 A 
ATOM     30  C   UNL     1      89.466  78.825  92.691  1.00  0.00     0.000 A 
ATOM     31  C   UNL     1      90.050  77.619  92.305  1.00  0.00     0.000 A 
ENDBRANCH  25  26
ENDBRANCH   7  25
BRANCH  14  32
ATOM     32  C   UNL     1      90.413  80.953  88.264  1.00  0.00    -0.046 C 
ATOM     33  C   UNL     1      89.724  81.377  87.002  1.00  0.00     0.042 C 
ATOM     34  C   UNL     1      90.211  79.744  88.810  1.00  0.00     0.010 C 
ENDBRANCH  14  32
ENDBRANCH   3   4
BRANCH   2  35
ATOM     35  C   UNL     1      96.446  84.586  88.435  1.00  0.00     0.078 CG0
ATOM     36  G   UNL     1      95.178  85.393  88.710  1.00  0.00     0.000 G0
ENDBRANCH   2  35
ENDBRANCH   1   2
BRANCH   1  37
ATOM     37  O   UNL     1      97.468  80.991  88.263  1.00  0.00    -0.461 OA
BRANCH  37  38
ATOM     38  C   UNL     1      98.068  80.418  87.165  1.00  0.00     0.310 C 
ATOM     39  O   UNL     1      99.217  80.000  87.130  1.00  0.00    -0.252 OA
BRANCH  38  40
ATOM     40  C   UNL     1      97.089  80.386  86.015  1.00  0.00     0.158 C 
BRANCH  40  41
ATOM     41  C   UNL     1      97.515  81.249  84.856  1.00  0.00    -0.033 A 
ATOM     42  C   UNL     1      98.373  80.735  83.882  1.00  0.00     0.054 A 
ATOM     43  C   UNL     1      97.053  82.561  84.755  1.00  0.00     0.008 A 
ATOM     44  C   UNL     1      98.768  81.534  82.809  1.00  0.00     0.160 A 
ATOM     45  C   UNL     1      97.448  83.360  83.682  1.00  0.00     0.050 A 
ATOM     46  C   UNL     1      98.305  82.847  82.709  1.00  0.00     0.157 A 
BRANCH  44  47
ATOM     47  O   UNL     1      99.606  81.022  81.866  1.00  0.00    -0.493 OA
ATOM     48  C   UNL     1     100.111  79.707  82.093  1.00  0.00     0.278 C 
ENDBRANCH  44  47
BRANCH  46  49
ATOM     49  O   UNL     1      98.683  83.636  81.666  1.00  0.00    -0.504 OA
ATOM     50  H   UNL     1      99.558  84.014  81.855  1.00  0.00     0.293 HD
ENDBRANCH  46  49
ENDBRANCH  40  41
ENDBRANCH  38  40
ENDBRANCH  37  38
ENDBRANCH   1  37
TORSDOF 11
ENDMDL
MODEL 5
REMARK VINA RESULT:    -5.893      6.627     11.170
REMARK INTER + INTRA:         -12.861
REMARK INTER:                 -10.533
REMARK INTRA:                  -2.328
REMARK UNBOUND:                -2.489
REMARK SMILES C=C(C)[C@]12C[C@@H](C)[C@@]34O[C@](Cc5ccccc5)(O[C@@H]1[C@@H]3C=C(COC(=O)Cc1ccc(O)c(OC)c1)C[C@]1(O)C(=O)C(C)=C[C@@H]41)O2
REMARK SMILES IDX 23 1 22 2 21 3 20 4 9 5 8 6 10 7 6 8 18 9 46 10 19 11 5 12
REMARK SMILES IDX 7 13 4 14 45 15 38 16 44 17 40 18 42 20 41 21 43 22 39 23
REMARK SMILES IDX 11 25 12 26 13 27 17 28 14 29 16 30 15 31 2 32 3 33 1 34
REMARK SMILES IDX 37 35 24 37 25 38 26 39 27 40 28 41 36 42 29 43 33 44 30 45
REMARK SMILES IDX 31 46 34 47 35 48 32 49
REMARK H PARENT 39 24 32 50
REMARK Flexibility Score: 90.00
ROOT
ATOM      1  C   UNL     1      70.141  82.952  67.781  1.00  0.00     0.264 C 
ENDROOT
BRANCH   1   2
ATOM      2  C   UNL     1      71.362  83.574  67.143  1.00  0.00    -0.033 C 
ATOM      3  C   UNL     1      71.646  84.869  67.387  1.00  0.00    -0.015 C 
BRANCH   3   4
ATOM      4  C   UNL     1      72.754  85.738  66.815  1.00  0.00     0.078 C 
ATOM      5  O   UNL     1      74.671  85.577  68.370  1.00  0.00    -0.319 OA
ATOM      6  C   UNL     1      74.246  85.272  67.007  1.00  0.00     0.095 C 
ATOM      7  C   UNL     1      74.268  86.867  68.868  1.00  0.00     0.289 C 
ATOM      8  C   UNL     1      75.139  86.089  65.984  1.00  0.00     0.023 C 
ATOM      9  O   UNL     1      72.852  87.019  68.822  1.00  0.00    -0.320 OA
ATOM     10  O   UNL     1      74.796  87.936  68.089  1.00  0.00    -0.313 OA
ATOM     11  C   UNL     1      72.661  87.167  67.406  1.00  0.00     0.170 C 
ATOM     12  C   UNL     1      74.576  87.525  65.756  1.00  0.00     0.049 C 
ATOM     13  C   UNL     1      76.633  86.175  66.336  1.00  0.00     0.011 C 
ATOM     14  C   UNL     1      73.860  88.057  66.998  1.00  0.00     0.122 C 
BRANCH   6  15
ATOM     15  C   UNL     1      74.357  83.723  66.902  1.00  0.00     0.086 C 
ATOM     16  C   UNL     1      73.539  83.057  65.776  1.00  0.00     0.140 CG0
ATOM     17  C   UNL     1      75.713  83.089  66.770  1.00  0.00    -0.010 C 
ATOM     18  C   UNL     1      74.425  81.898  65.371  1.00  0.00     0.190 C 
ATOM     19  G   UNL     1      72.162  82.600  66.257  1.00  0.00     0.000 G0
ATOM     20  C   UNL     1      75.779  82.044  65.938  1.00  0.00    -0.008 C 
ATOM     21  O   UNL     1      74.099  80.982  64.631  1.00  0.00    -0.291 OA
ATOM     22  C   UNL     1      76.907  81.142  65.630  1.00  0.00     0.048 C 
BRANCH  16  23
ATOM     23  O   UNL     1      73.442  83.838  64.597  1.00  0.00    -0.381 OA
ATOM     24  H   UNL     1      74.271  83.745  64.098  1.00  0.00     0.212 HD
ENDBRANCH  16  23
ENDBRANCH   6  15
BRANCH   7  25
ATOM     25  C   UNL     1      74.750  86.996  70.299  1.00  0.00     0.135 C 
BRANCH  25  26
ATOM     26  C   UNL     1      74.704  88.424  70.783  1.00  0.00    -0.040 A 
ATOM     27  C   UNL     1      73.627  88.864  71.554  1.00  0.00     0.004 A 
ATOM     28  C   UNL     1      75.738  89.304  70.463  1.00  0.00     0.004 A 
ATOM     29  C   UNL     1      73.584  90.185  72.003  1.00  0.00     0.000 A 
ATOM     30  C   UNL     1      75.694  90.624  70.912  1.00  0.00     0.000 A 
ATOM     31  C   UNL     1      74.617  91.064  71.681  1.00  0.00     0.000 A 
ENDBRANCH  25  26
ENDBRANCH   7  25
BRANCH  14  32
ATOM     32  C   UNL     1      73.474  89.494  66.867  1.00  0.00    -0.046 C 
ATOM     33  C   UNL     1      72.098  89.764  66.334  1.00  0.00     0.042 C 
ATOM     34  C   UNL     1      74.309  90.488  67.206  1.00  0.00     0.010 C 
ENDBRANCH  14  32
ENDBRANCH   3   4
BRANCH   2  35
ATOM     35  C   UNL     1      72.142  82.601  66.279  1.00  0.00     0.078 CG0
ATOM     36  G   UNL     1      73.517  83.051  65.787  1.00  0.00     0.000 G0
ENDBRANCH   2  35
ENDBRANCH   1   2
BRANCH   1  37
ATOM     37  O   UNL     1      68.984  83.615  67.317  1.00  0.00    -0.461 OA
BRANCH  37  38
ATOM     38  C   UNL     1      68.018  83.881  68.259  1.00  0.00     0.310 C 
ATOM     39  O   UNL     1      66.820  83.975  68.029  1.00  0.00    -0.252 OA
BRANCH  38  40
ATOM     40  C   UNL     1      68.665  84.040  69.615  1.00  0.00     0.158 C 
BRANCH  40  41
ATOM     41  C   UNL     1      69.082  85.459  69.904  1.00  0.00    -0.033 A 
ATOM     42  C   UNL     1      68.624  86.500  69.095  1.00  0.00     0.054 A 
ATOM     43  C   UNL     1      69.925  85.733  70.981  1.00  0.00     0.008 A 
ATOM     44  C   UNL     1      69.010  87.813  69.363  1.00  0.00     0.160 A 
ATOM     45  C   UNL     1      70.311  87.046  71.249  1.00  0.00     0.050 A 
ATOM     46  C   UNL     1      69.854  88.086  70.440  1.00  0.00     0.157 A 
BRANCH  44  47
ATOM     47  O   UNL     1      68.557  88.820  68.566  1.00  0.00    -0.493 OA
ATOM     48  C   UNL     1      67.638  88.466  67.533  1.00  0.00     0.278 C 
ENDBRANCH  44  47
BRANCH  46  49
ATOM     49  O   UNL     1      70.237  89.365  70.712  1.00  0.00    -0.504 OA
ATOM     50  H   UNL     1      70.145  89.901  69.907  1.00  0.00     0.293 HD
ENDBRANCH  46  49
ENDBRANCH  40  41
ENDBRANCH  38  40
ENDBRANCH  37  38
ENDBRANCH   1  37
TORSDOF 11
ENDMDL
MODEL 6
REMARK VINA RESULT:    -5.846      6.135     10.648
REMARK INTER + INTRA:         -12.779
REMARK INTER:                 -12.253
REMARK INTRA:                  -0.526
REMARK UNBOUND:                -2.489
REMARK SMILES C=C(C)[C@]12C[C@@H](C)[C@@]34O[C@](Cc5ccccc5)(O[C@@H]1[C@@H]3C=C(COC(=O)Cc1ccc(O)c(OC)c1)C[C@]1(O)C(=O)C(C)=C[C@@H]41)O2
REMARK SMILES IDX 23 1 22 2 21 3 20 4 9 5 8 6 10 7 6 8 18 9 46 10 19 11 5 12
REMARK SMILES IDX 7 13 4 14 45 15 38 16 44 17 40 18 42 20 41 21 43 22 39 23
REMARK SMILES IDX 11 25 12 26 13 27 17 28 14 29 16 30 15 31 2 32 3 33 1 34
REMARK SMILES IDX 37 35 24 37 25 38 26 39 27 40 28 41 36 42 29 43 33 44 30 45
REMARK SMILES IDX 31 46 34 47 35 48 32 49
REMARK H PARENT 39 24 32 50
REMARK Flexibility Score: 90.00
ROOT
ATOM      1  C   UNL     1      70.343  83.144  68.318  1.00  0.00     0.264 C 
ENDROOT
BRANCH   1   2
ATOM      2  C   UNL     1      71.484  83.751  67.535  1.00  0.00    -0.033 C 
ATOM      3  C   UNL     1      71.784  85.054  67.712  1.00  0.00    -0.015 C 
BRANCH   3   4
ATOM      4  C   UNL     1      72.819  85.910  66.999  1.00  0.00     0.078 C 
ATOM      5  O   UNL     1      74.888  85.815  68.352  1.00  0.00    -0.319 OA
ATOM      6  C   UNL     1      74.326  85.460  67.050  1.00  0.00     0.095 C 
ATOM      7  C   UNL     1      74.525  87.118  68.845  1.00  0.00     0.289 C 
ATOM      8  C   UNL     1      75.101  86.249  65.914  1.00  0.00     0.023 C 
ATOM      9  O   UNL     1      73.110  87.259  68.941  1.00  0.00    -0.320 OA
ATOM     10  O   UNL     1      74.958  88.164  67.980  1.00  0.00    -0.313 OA
ATOM     11  C   UNL     1      72.772  87.357  67.549  1.00  0.00     0.170 C 
ATOM     12  C   UNL     1      74.503  87.673  65.697  1.00  0.00     0.049 C 
ATOM     13  C   UNL     1      76.622  86.357  66.106  1.00  0.00     0.011 C 
ATOM     14  C   UNL     1      73.914  88.242  66.989  1.00  0.00     0.122 C 
BRANCH   6  15
ATOM     15  C   UNL     1      74.442  83.910  66.986  1.00  0.00     0.086 C 
ATOM     16  C   UNL     1      73.520  83.200  65.973  1.00  0.00     0.140 CG0
ATOM     17  C   UNL     1      75.785  83.281  66.737  1.00  0.00    -0.010 C 
ATOM     18  C   UNL     1      74.372  82.035  65.518  1.00  0.00     0.190 C 
ATOM     19  G   UNL     1      72.204  82.751  66.607  1.00  0.00     0.000 G0
ATOM     20  C   UNL     1      75.775  82.209  65.938  1.00  0.00    -0.008 C 
ATOM     21  O   UNL     1      73.981  81.092  64.846  1.00  0.00    -0.291 OA
ATOM     22  C   UNL     1      76.876  81.305  65.546  1.00  0.00     0.048 C 
BRANCH  16  23
ATOM     23  O   UNL     1      73.296  83.941  64.785  1.00  0.00    -0.381 OA
ATOM     24  H   UNL     1      72.509  84.495  64.913  1.00  0.00     0.212 HD
ENDBRANCH  16  23
ENDBRANCH   6  15
BRANCH   7  25
ATOM     25  C   UNL     1      75.151  87.300  70.213  1.00  0.00     0.135 C 
BRANCH  25  26
ATOM     26  C   UNL     1      74.816  88.643  70.814  1.00  0.00    -0.040 A 
ATOM     27  C   UNL     1      73.677  88.786  71.607  1.00  0.00     0.004 A 
ATOM     28  C   UNL     1      75.645  89.739  70.580  1.00  0.00     0.004 A 
ATOM     29  C   UNL     1      73.366  90.028  72.163  1.00  0.00     0.000 A 
ATOM     30  C   UNL     1      75.334  90.980  71.136  1.00  0.00     0.000 A 
ATOM     31  C   UNL     1      74.195  91.124  71.928  1.00  0.00     0.000 A 
ENDBRANCH  25  26
ENDBRANCH   7  25
BRANCH  14  32
ATOM     32  C   UNL     1      73.501  89.671  66.851  1.00  0.00    -0.046 C 
ATOM     33  C   UNL     1      74.435  90.689  67.433  1.00  0.00     0.042 C 
ATOM     34  C   UNL     1      72.359  90.023  66.241  1.00  0.00     0.010 C 
ENDBRANCH  14  32
ENDBRANCH   3   4
BRANCH   2  35
ATOM     35  C   UNL     1      72.171  82.758  66.617  1.00  0.00     0.078 CG0
ATOM     36  G   UNL     1      73.493  83.190  65.984  1.00  0.00     0.000 G0
ENDBRANCH   2  35
ENDBRANCH   1   2
BRANCH   1  37
ATOM     37  O   UNL     1      69.411  84.152  68.644  1.00  0.00    -0.461 OA
BRANCH  37  38
ATOM     38  C   UNL     1      68.592  83.898  69.719  1.00  0.00     0.310 C 
ATOM     39  O   UNL     1      68.974  83.724  70.868  1.00  0.00    -0.252 OA
BRANCH  38  40
ATOM     40  C   UNL     1      67.153  83.869  69.261  1.00  0.00     0.158 C 
BRANCH  40  41
ATOM     41  C   UNL     1      66.200  83.432  70.344  1.00  0.00    -0.033 A 
ATOM     42  C   UNL     1      65.694  84.367  71.247  1.00  0.00     0.054 A 
ATOM     43  C   UNL     1      65.823  82.093  70.442  1.00  0.00     0.008 A 
ATOM     44  C   UNL     1      64.812  83.962  72.249  1.00  0.00     0.160 A 
ATOM     45  C   UNL     1      64.940  81.688  71.444  1.00  0.00     0.050 A 
ATOM     46  C   UNL     1      64.435  82.622  72.348  1.00  0.00     0.157 A 
BRANCH  44  47
ATOM     47  O   UNL     1      64.326  84.884  73.126  1.00  0.00    -0.493 OA
ATOM     48  C   UNL     1      64.727  84.757  74.489  1.00  0.00     0.278 C 
ENDBRANCH  44  47
BRANCH  46  49
ATOM     49  O   UNL     1      63.574  82.215  73.321  1.00  0.00    -0.504 OA
ATOM     50  H   UNL     1      62.698  82.601  73.150  1.00  0.00     0.293 HD
ENDBRANCH  46  49
ENDBRANCH  40  41
ENDBRANCH  38  40
ENDBRANCH  37  38
ENDBRANCH   1  37
TORSDOF 11
ENDMDL
MODEL 7
REMARK VINA RESULT:    -5.795      7.202     11.793
REMARK INTER + INTRA:         -12.689
REMARK INTER:                 -10.614
REMARK INTRA:                  -2.075
REMARK UNBOUND:                -2.489
REMARK SMILES C=C(C)[C@]12C[C@@H](C)[C@@]34O[C@](Cc5ccccc5)(O[C@@H]1[C@@H]3C=C(COC(=O)Cc1ccc(O)c(OC)c1)C[C@]1(O)C(=O)C(C)=C[C@@H]41)O2
REMARK SMILES IDX 23 1 22 2 21 3 20 4 9 5 8 6 10 7 6 8 18 9 46 10 19 11 5 12
REMARK SMILES IDX 7 13 4 14 45 15 38 16 44 17 40 18 42 20 41 21 43 22 39 23
REMARK SMILES IDX 11 25 12 26 13 27 17 28 14 29 16 30 15 31 2 32 3 33 1 34
REMARK SMILES IDX 37 35 24 37 25 38 26 39 27 40 28 41 36 42 29 43 33 44 30 45
REMARK SMILES IDX 31 46 34 47 35 48 32 49
REMARK H PARENT 39 24 32 50
REMARK Flexibility Score: 90.00
ROOT
ATOM      1  C   UNL     1      71.498  89.094  71.983  1.00  0.00     0.264 C 
ENDROOT
BRANCH   1   2
ATOM      2  C   UNL     1      72.801  89.065  71.219  1.00  0.00    -0.033 C 
ATOM      3  C   UNL     1      73.398  87.881  70.977  1.00  0.00    -0.015 C 
BRANCH   3   4
ATOM      4  C   UNL     1      74.731  87.592  70.307  1.00  0.00     0.078 C 
ATOM      5  O   UNL     1      74.270  87.241  67.903  1.00  0.00    -0.319 OA
ATOM      6  C   UNL     1      74.964  88.119  68.842  1.00  0.00     0.095 C 
ATOM      7  C   UNL     1      74.391  85.831  68.171  1.00  0.00     0.289 C 
ATOM      8  C   UNL     1      76.521  88.066  68.555  1.00  0.00     0.023 C 
ATOM      9  O   UNL     1      73.919  85.512  69.477  1.00  0.00    -0.320 OA
ATOM     10  O   UNL     1      75.744  85.387  68.131  1.00  0.00    -0.313 OA
ATOM     11  C   UNL     1      74.981  86.064  70.271  1.00  0.00     0.170 C 
ATOM     12  C   UNL     1      77.198  86.870  69.292  1.00  0.00     0.049 C 
ATOM     13  C   UNL     1      76.918  88.041  67.070  1.00  0.00     0.011 C 
ATOM     14  C   UNL     1      76.241  85.688  69.451  1.00  0.00     0.122 C 
BRANCH   6  15
ATOM     15  C   UNL     1      74.294  89.509  68.643  1.00  0.00     0.086 C 
ATOM     16  C   UNL     1      74.464  90.518  69.798  1.00  0.00     0.140 CG0
ATOM     17  C   UNL     1      74.626  90.318  67.421  1.00  0.00    -0.010 C 
ATOM     18  C   UNL     1      74.540  91.841  69.067  1.00  0.00     0.190 C 
ATOM     19  G   UNL     1      73.302  90.462  70.789  1.00  0.00     0.000 G0
ATOM     20  C   UNL     1      74.743  91.635  67.620  1.00  0.00    -0.008 C 
ATOM     21  O   UNL     1      74.493  92.944  69.591  1.00  0.00    -0.291 OA
ATOM     22  C   UNL     1      74.976  92.727  66.653  1.00  0.00     0.048 C 
BRANCH  16  23
ATOM     23  O   UNL     1      75.714  90.425  70.461  1.00  0.00    -0.381 OA
ATOM     24  H   UNL     1      76.393  90.193  69.806  1.00  0.00     0.212 HD
ENDBRANCH  16  23
ENDBRANCH   6  15
BRANCH   7  25
ATOM     25  C   UNL     1      73.580  85.079  67.135  1.00  0.00     0.135 C 
BRANCH  25  26
ATOM     26  C   UNL     1      74.430  84.120  66.339  1.00  0.00    -0.040 A 
ATOM     27  C   UNL     1      75.181  84.586  65.259  1.00  0.00     0.004 A 
ATOM     28  C   UNL     1      74.468  82.769  66.684  1.00  0.00     0.004 A 
ATOM     29  C   UNL     1      75.967  83.699  64.523  1.00  0.00     0.000 A 
ATOM     30  C   UNL     1      75.254  81.883  65.947  1.00  0.00     0.000 A 
ATOM     31  C   UNL     1      76.004  82.349  64.867  1.00  0.00     0.000 A 
ENDBRANCH  25  26
ENDBRANCH   7  25
BRANCH  14  32
ATOM     32  C   UNL     1      76.917  84.469  69.989  1.00  0.00    -0.046 C 
ATOM     33  C   UNL     1      78.040  83.916  69.162  1.00  0.00     0.042 C 
ATOM     34  C   UNL     1      76.542  83.901  71.145  1.00  0.00     0.010 C 
ENDBRANCH  14  32
ENDBRANCH   3   4
BRANCH   2  35
ATOM     35  C   UNL     1      73.276  90.445  70.802  1.00  0.00     0.078 CG0
ATOM     36  G   UNL     1      74.436  90.514  69.810  1.00  0.00     0.000 G0
ENDBRANCH   2  35
ENDBRANCH   1   2
BRANCH   1  37
ATOM     37  O   UNL     1      70.775  87.911  71.717  1.00  0.00    -0.461 OA
BRANCH  37  38
ATOM     38  C   UNL     1      69.653  88.046  70.934  1.00  0.00     0.310 C 
ATOM     39  O   UNL     1      68.506  88.111  71.354  1.00  0.00    -0.252 OA
BRANCH  38  40
ATOM     40  C   UNL     1      70.057  88.102  69.479  1.00  0.00     0.158 C 
BRANCH  40  41
ATOM     41  C   UNL     1      70.057  86.748  68.817  1.00  0.00    -0.033 A 
ATOM     42  C   UNL     1      70.056  85.591  69.596  1.00  0.00     0.054 A 
ATOM     43  C   UNL     1      70.058  86.652  67.426  1.00  0.00     0.008 A 
ATOM     44  C   UNL     1      70.057  84.337  68.983  1.00  0.00     0.160 A 
ATOM     45  C   UNL     1      70.058  85.399  66.813  1.00  0.00     0.050 A 
ATOM     46  C   UNL     1      70.058  84.242  67.591  1.00  0.00     0.157 A 
BRANCH  44  47
ATOM     47  O   UNL     1      70.056  83.215  69.754  1.00  0.00    -0.493 OA
ATOM     48  C   UNL     1      69.930  83.396  71.164  1.00  0.00     0.278 C 
ENDBRANCH  44  47
BRANCH  46  49
ATOM     49  O   UNL     1      70.057  83.024  66.981  1.00  0.00    -0.504 OA
ATOM     50  H   UNL     1      69.750  82.353  67.614  1.00  0.00     0.293 HD
ENDBRANCH  46  49
ENDBRANCH  40  41
ENDBRANCH  38  40
ENDBRANCH  37  38
ENDBRANCH   1  37
TORSDOF 11
ENDMDL
MODEL 8
REMARK VINA RESULT:    -5.786      8.021     12.467
REMARK INTER + INTRA:         -12.673
REMARK INTER:                  -9.992
REMARK INTRA:                  -2.682
REMARK UNBOUND:                -2.489
REMARK SMILES C=C(C)[C@]12C[C@@H](C)[C@@]34O[C@](Cc5ccccc5)(O[C@@H]1[C@@H]3C=C(COC(=O)Cc1ccc(O)c(OC)c1)C[C@]1(O)C(=O)C(C)=C[C@@H]41)O2
REMARK SMILES IDX 23 1 22 2 21 3 20 4 9 5 8 6 10 7 6 8 18 9 46 10 19 11 5 12
REMARK SMILES IDX 7 13 4 14 45 15 38 16 44 17 40 18 42 20 41 21 43 22 39 23
REMARK SMILES IDX 11 25 12 26 13 27 17 28 14 29 16 30 15 31 2 32 3 33 1 34
REMARK SMILES IDX 37 35 24 37 25 38 26 39 27 40 28 41 36 42 29 43 33 44 30 45
REMARK SMILES IDX 31 46 34 47 35 48 32 49
REMARK H PARENT 39 24 32 50
REMARK Flexibility Score: 90.00
ROOT
ATOM      1  C   UNL     1      71.461  88.435  71.511  1.00  0.00     0.264 C 
ENDROOT
BRANCH   1   2
ATOM      2  C   UNL     1      72.791  88.550  70.802  1.00  0.00    -0.033 C 
ATOM      3  C   UNL     1      73.463  87.428  70.475  1.00  0.00    -0.015 C 
BRANCH   3   4
ATOM      4  C   UNL     1      74.834  87.276  69.837  1.00  0.00     0.078 C 
ATOM      5  O   UNL     1      74.481  87.139  67.393  1.00  0.00    -0.319 OA
ATOM      6  C   UNL     1      75.090  87.955  68.440  1.00  0.00     0.095 C 
ATOM      7  C   UNL     1      74.671  85.718  67.530  1.00  0.00     0.289 C 
ATOM      8  C   UNL     1      76.657  88.012  68.214  1.00  0.00     0.023 C 
ATOM      9  O   UNL     1      74.171  85.247  68.779  1.00  0.00    -0.320 OA
ATOM     10  O   UNL     1      76.048  85.351  67.504  1.00  0.00    -0.313 OA
ATOM     11  C   UNL     1      75.170  85.774  69.665  1.00  0.00     0.170 C 
ATOM     12  C   UNL     1      77.373  86.787  68.862  1.00  0.00     0.049 C 
ATOM     13  C   UNL     1      77.108  88.154  66.752  1.00  0.00     0.011 C 
ATOM     14  C   UNL     1      76.478  85.547  68.866  1.00  0.00     0.122 C 
BRANCH   6  15
ATOM     15  C   UNL     1      74.350  89.321  68.347  1.00  0.00     0.086 C 
ATOM     16  C   UNL     1      74.423  90.220  69.599  1.00  0.00     0.140 CG0
ATOM     17  C   UNL     1      74.679  90.261  67.222  1.00  0.00    -0.010 C 
ATOM     18  C   UNL     1      74.450  91.611  69.000  1.00  0.00     0.190 C 
ATOM     19  G   UNL     1      73.232  90.008  70.532  1.00  0.00     0.000 G0
ATOM     20  C   UNL     1      74.715  91.557  67.550  1.00  0.00    -0.008 C 
ATOM     21  O   UNL     1      74.323  92.653  69.624  1.00  0.00    -0.291 OA
ATOM     22  C   UNL     1      74.920  92.748  66.701  1.00  0.00     0.048 C 
BRANCH  16  23
ATOM     23  O   UNL     1      75.653  90.130  70.300  1.00  0.00    -0.381 OA
ATOM     24  H   UNL     1      76.378  90.203  69.658  1.00  0.00     0.212 HD
ENDBRANCH  16  23
ENDBRANCH   6  15
BRANCH   7  25
ATOM     25  C   UNL     1      73.942  85.028  66.394  1.00  0.00     0.135 C 
BRANCH  25  26
ATOM     26  C   UNL     1      74.667  83.792  65.925  1.00  0.00    -0.040 A 
ATOM     27  C   UNL     1      75.356  83.806  64.711  1.00  0.00     0.004 A 
ATOM     28  C   UNL     1      74.652  82.636  66.704  1.00  0.00     0.004 A 
ATOM     29  C   UNL     1      76.027  82.663  64.276  1.00  0.00     0.000 A 
ATOM     30  C   UNL     1      75.323  81.492  66.269  1.00  0.00     0.000 A 
ATOM     31  C   UNL     1      76.010  81.507  65.055  1.00  0.00     0.000 A 
ENDBRANCH  25  26
ENDBRANCH   7  25
BRANCH  14  32
ATOM     32  C   UNL     1      77.202  84.318  69.312  1.00  0.00    -0.046 C 
ATOM     33  C   UNL     1      77.082  83.970  70.766  1.00  0.00     0.042 C 
ATOM     34  C   UNL     1      77.919  83.569  68.461  1.00  0.00     0.010 C 
ENDBRANCH  14  32
ENDBRANCH   3   4
BRANCH   2  35
ATOM     35  C   UNL     1      73.201  89.986  70.537  1.00  0.00     0.078 CG0
ATOM     36  G   UNL     1      74.408  90.211  69.628  1.00  0.00     0.000 G0
ENDBRANCH   2  35
ENDBRANCH   1   2
BRANCH   1  37
ATOM     37  O   UNL     1      70.853  87.209  71.167  1.00  0.00    -0.461 OA
BRANCH  37  38
ATOM     38  C   UNL     1      70.164  87.185  69.976  1.00  0.00     0.310 C 
ATOM     39  O   UNL     1      69.273  87.963  69.664  1.00  0.00    -0.252 OA
BRANCH  38  40
ATOM     40  C   UNL     1      70.678  86.052  69.119  1.00  0.00     0.158 C 
BRANCH  40  41
ATOM     41  C   UNL     1      70.727  86.399  67.654  1.00  0.00    -0.033 A 
ATOM     42  C   UNL     1      70.246  85.495  66.706  1.00  0.00     0.054 A 
ATOM     43  C   UNL     1      71.253  87.624  67.244  1.00  0.00     0.008 A 
ATOM     44  C   UNL     1      70.292  85.817  65.349  1.00  0.00     0.160 A 
ATOM     45  C   UNL     1      71.299  87.946  65.888  1.00  0.00     0.050 A 
ATOM     46  C   UNL     1      70.819  87.043  64.940  1.00  0.00     0.157 A 
BRANCH  44  47
ATOM     47  O   UNL     1      69.820  84.926  64.433  1.00  0.00    -0.493 OA
ATOM     48  C   UNL     1      70.706  83.885  64.025  1.00  0.00     0.278 C 
ENDBRANCH  44  47
BRANCH  46  49
ATOM     49  O   UNL     1      70.868  87.368  63.619  1.00  0.00    -0.504 OA
ATOM     50  H   UNL     1      70.128  86.936  63.159  1.00  0.00     0.293 HD
ENDBRANCH  46  49
ENDBRANCH  40  41
ENDBRANCH  38  40
ENDBRANCH  37  38
ENDBRANCH   1  37
TORSDOF 11
ENDMDL
MODEL 9
REMARK VINA RESULT:    -5.720      5.367     10.183
REMARK INTER + INTRA:         -12.557
REMARK INTER:                 -11.580
REMARK INTRA:                  -0.977
REMARK UNBOUND:                -2.489
REMARK SMILES C=C(C)[C@]12C[C@@H](C)[C@@]34O[C@](Cc5ccccc5)(O[C@@H]1[C@@H]3C=C(COC(=O)Cc1ccc(O)c(OC)c1)C[C@]1(O)C(=O)C(C)=C[C@@H]41)O2
REMARK SMILES IDX 23 1 22 2 21 3 20 4 9 5 8 6 10 7 6 8 18 9 46 10 19 11 5 12
REMARK SMILES IDX 7 13 4 14 45 15 38 16 44 17 40 18 42 20 41 21 43 22 39 23
REMARK SMILES IDX 11 25 12 26 13 27 17 28 14 29 16 30 15 31 2 32 3 33 1 34
REMARK SMILES IDX 37 35 24 37 25 38 26 39 27 40 28 41 36 42 29 43 33 44 30 45
REMARK SMILES IDX 31 46 34 47 35 48 32 49
REMARK H PARENT 39 24 32 50
REMARK Flexibility Score: 90.00
ROOT
ATOM      1  C   UNL     1      68.453  83.464  68.199  1.00  0.00     0.264 C 
ENDROOT
BRANCH   1   2
ATOM      2  C   UNL     1      69.661  83.958  67.437  1.00  0.00    -0.033 C 
ATOM      3  C   UNL     1      70.131  85.199  67.679  1.00  0.00    -0.015 C 
BRANCH   3   4
ATOM      4  C   UNL     1      71.266  85.949  67.003  1.00  0.00     0.078 C 
ATOM      5  O   UNL     1      73.319  85.471  68.299  1.00  0.00    -0.319 OA
ATOM      6  C   UNL     1      72.696  85.290  66.990  1.00  0.00     0.095 C 
ATOM      7  C   UNL     1      73.150  86.775  68.887  1.00  0.00     0.289 C 
ATOM      8  C   UNL     1      73.559  86.039  65.892  1.00  0.00     0.023 C 
ATOM      9  O   UNL     1      71.771  87.106  69.024  1.00  0.00    -0.320 OA
ATOM     10  O   UNL     1      73.716  87.807  68.084  1.00  0.00    -0.313 OA
ATOM     11  C   UNL     1      71.432  87.347  67.649  1.00  0.00     0.170 C 
ATOM     12  C   UNL     1      73.166  87.544  65.785  1.00  0.00     0.049 C 
ATOM     13  C   UNL     1      75.083  85.919  66.056  1.00  0.00     0.011 C 
ATOM     14  C   UNL     1      72.680  88.099  67.124  1.00  0.00     0.122 C 
BRANCH   6  15
ATOM     15  C   UNL     1      72.591  83.747  66.819  1.00  0.00     0.086 C 
ATOM     16  C   UNL     1      71.555  83.245  65.791  1.00  0.00     0.140 CG0
ATOM     17  C   UNL     1      73.825  82.957  66.486  1.00  0.00    -0.010 C 
ATOM     18  C   UNL     1      72.224  82.007  65.232  1.00  0.00     0.190 C 
ATOM     19  G   UNL     1      70.204  82.940  66.436  1.00  0.00     0.000 G0
ATOM     20  C   UNL     1      73.647  81.955  65.618  1.00  0.00    -0.008 C 
ATOM     21  O   UNL     1      71.689  81.177  64.513  1.00  0.00    -0.291 OA
ATOM     22  C   UNL     1      74.599  80.936  65.132  1.00  0.00     0.048 C 
BRANCH  16  23
ATOM     23  O   UNL     1      71.411  84.091  64.663  1.00  0.00    -0.381 OA
ATOM     24  H   UNL     1      72.236  84.591  64.546  1.00  0.00     0.212 HD
ENDBRANCH  16  23
ENDBRANCH   6  15
BRANCH   7  25
ATOM     25  C   UNL     1      73.814  86.771  70.249  1.00  0.00     0.135 C 
BRANCH  25  26
ATOM     26  C   UNL     1      75.234  86.267  70.185  1.00  0.00    -0.040 A 
ATOM     27  C   UNL     1      75.542  84.988  70.650  1.00  0.00     0.004 A 
ATOM     28  C   UNL     1      76.239  87.079  69.660  1.00  0.00     0.004 A 
ATOM     29  C   UNL     1      76.855  84.522  70.591  1.00  0.00     0.000 A 
ATOM     30  C   UNL     1      77.553  86.612  69.601  1.00  0.00     0.000 A 
ATOM     31  C   UNL     1      77.860  85.334  70.066  1.00  0.00     0.000 A 
ENDBRANCH  25  26
ENDBRANCH   7  25
BRANCH  14  32
ATOM     32  C   UNL     1      72.472  89.578  67.092  1.00  0.00    -0.046 C 
ATOM     33  C   UNL     1      73.652  90.404  66.675  1.00  0.00     0.042 C 
ATOM     34  C   UNL     1      71.296  90.136  67.417  1.00  0.00     0.010 C 
ENDBRANCH  14  32
ENDBRANCH   3   4
BRANCH   2  35
ATOM     35  C   UNL     1      70.209  82.934  66.462  1.00  0.00     0.078 CG0
ATOM     36  G   UNL     1      71.549  83.248  65.798  1.00  0.00     0.000 G0
ENDBRANCH   2  35
ENDBRANCH   1   2
BRANCH   1  37
ATOM     37  O   UNL     1      67.282  83.805  67.488  1.00  0.00    -0.461 OA
BRANCH  37  38
ATOM     38  C   UNL     1      66.149  84.003  68.243  1.00  0.00     0.310 C 
ATOM     39  O   UNL     1      65.003  83.955  67.816  1.00  0.00    -0.252 OA
BRANCH  38  40
ATOM     40  C   UNL     1      66.539  84.288  69.674  1.00  0.00     0.158 C 
BRANCH  40  41
ATOM     41  C   UNL     1      65.767  83.462  70.670  1.00  0.00    -0.033 A 
ATOM     42  C   UNL     1      65.129  84.082  71.745  1.00  0.00     0.054 A 
ATOM     43  C   UNL     1      65.688  82.078  70.516  1.00  0.00     0.008 A 
ATOM     44  C   UNL     1      64.414  83.317  72.667  1.00  0.00     0.160 A 
ATOM     45  C   UNL     1      64.973  81.313  71.438  1.00  0.00     0.050 A 
ATOM     46  C   UNL     1      64.336  81.932  72.513  1.00  0.00     0.157 A 
BRANCH  44  47
ATOM     47  O   UNL     1      63.797  83.934  73.713  1.00  0.00    -0.493 OA
ATOM     48  C   UNL     1      62.598  84.652  73.426  1.00  0.00     0.278 C 
ENDBRANCH  44  47
BRANCH  46  49
ATOM     49  O   UNL     1      63.640  81.175  73.406  1.00  0.00    -0.504 OA
ATOM     50  H   UNL     1      63.708  80.240  73.150  1.00  0.00     0.293 HD
ENDBRANCH  46  49
ENDBRANCH  40  41
ENDBRANCH  38  40
ENDBRANCH  37  38
ENDBRANCH   1  37
TORSDOF 11
ENDMDL
MODEL 10
REMARK VINA RESULT:    -5.662     32.788     35.826
REMARK INTER + INTRA:         -12.455
REMARK INTER:                 -12.163
REMARK INTRA:                  -0.292
REMARK UNBOUND:                -2.489
REMARK SMILES C=C(C)[C@]12C[C@@H](C)[C@@]34O[C@](Cc5ccccc5)(O[C@@H]1[C@@H]3C=C(COC(=O)Cc1ccc(O)c(OC)c1)C[C@]1(O)C(=O)C(C)=C[C@@H]41)O2
REMARK SMILES IDX 23 1 22 2 21 3 20 4 9 5 8 6 10 7 6 8 18 9 46 10 19 11 5 12
REMARK SMILES IDX 7 13 4 14 45 15 38 16 44 17 40 18 42 20 41 21 43 22 39 23
REMARK SMILES IDX 11 25 12 26 13 27 17 28 14 29 16 30 15 31 2 32 3 33 1 34
REMARK SMILES IDX 37 35 24 37 25 38 26 39 27 40 28 41 36 42 29 43 33 44 30 45
REMARK SMILES IDX 31 46 34 47 35 48 32 49
REMARK H PARENT 39 24 32 50
REMARK Flexibility Score: 90.00
ROOT
ATOM      1  C   UNL     1      98.124  82.900  86.164  1.00  0.00     0.264 C 
ENDROOT
BRANCH   1   2
ATOM      2  C   UNL     1      96.729  83.340  86.542  1.00  0.00    -0.033 C 
ATOM      3  C   UNL     1      95.728  82.437  86.534  1.00  0.00    -0.015 C 
BRANCH   3   4
ATOM      4  C   UNL     1      94.244  82.639  86.795  1.00  0.00     0.078 C 
ATOM      5  O   UNL     1      93.877  82.242  89.209  1.00  0.00    -0.319 OA
ATOM      6  C   UNL     1      93.805  83.267  88.170  1.00  0.00     0.095 C 
ATOM      7  C   UNL     1      93.372  80.947  88.833  1.00  0.00     0.289 C 
ATOM      8  C   UNL     1      92.304  83.753  88.017  1.00  0.00     0.023 C 
ATOM      9  O   UNL     1      94.052  80.439  87.688  1.00  0.00    -0.320 OA
ATOM     10  O   UNL     1      91.993  80.986  88.476  1.00  0.00    -0.313 OA
ATOM     11  C   UNL     1      93.500  81.287  86.670  1.00  0.00     0.170 C 
ATOM     12  C   UNL     1      91.499  82.828  87.053  1.00  0.00     0.049 C 
ATOM     13  C   UNL     1      91.527  83.918  89.334  1.00  0.00     0.011 C 
ATOM     14  C   UNL     1      92.012  81.388  87.091  1.00  0.00     0.122 C 
BRANCH   6  15
ATOM     15  C   UNL     1      94.817  84.357  88.627  1.00  0.00     0.086 C 
ATOM     16  C   UNL     1      95.323  85.318  87.532  1.00  0.00     0.140 CG0
ATOM     17  C   UNL     1      94.448  85.277  89.757  1.00  0.00    -0.010 C 
ATOM     18  C   UNL     1      95.493  86.617  88.291  1.00  0.00     0.190 C 
ATOM     19  G   UNL     1      96.627  84.835  86.898  1.00  0.00     0.000 G0
ATOM     20  C   UNL     1      94.838  86.548  89.610  1.00  0.00    -0.008 C 
ATOM     21  O   UNL     1      96.050  87.618  87.866  1.00  0.00    -0.291 OA
ATOM     22  C   UNL     1      94.723  87.691  90.539  1.00  0.00     0.048 C 
BRANCH  16  23
ATOM     23  O   UNL     1      94.352  85.626  86.546  1.00  0.00    -0.381 OA
ATOM     24  H   UNL     1      93.545  85.930  86.994  1.00  0.00     0.212 HD
ENDBRANCH  16  23
ENDBRANCH   6  15
BRANCH   7  25
ATOM     25  C   UNL     1      93.565  80.004  90.004  1.00  0.00     0.135 C 
BRANCH  25  26
ATOM     26  C   UNL     1      92.294  79.818  90.795  1.00  0.00    -0.040 A 
ATOM     27  C   UNL     1      91.783  78.536  91.002  1.00  0.00     0.004 A 
ATOM     28  C   UNL     1      91.631  80.926  91.321  1.00  0.00     0.004 A 
ATOM     29  C   UNL     1      90.608  78.364  91.734  1.00  0.00     0.000 A 
ATOM     30  C   UNL     1      90.456  80.754  92.052  1.00  0.00     0.000 A 
ATOM     31  C   UNL     1      89.945  79.472  92.259  1.00  0.00     0.000 A 
ENDBRANCH  25  26
ENDBRANCH   7  25
BRANCH  14  32
ATOM     32  C   UNL     1      91.145  80.449  86.317  1.00  0.00    -0.046 C 
ATOM     33  C   UNL     1      91.661  79.050  86.157  1.00  0.00     0.042 C 
ATOM     34  C   UNL     1      89.971  80.835  85.794  1.00  0.00     0.010 C 
ENDBRANCH  14  32
ENDBRANCH   3   4
BRANCH   2  35
ATOM     35  C   UNL     1      96.646  84.811  86.903  1.00  0.00     0.078 CG0
ATOM     36  G   UNL     1      95.346  85.303  87.536  1.00  0.00     0.000 G0
ENDBRANCH   2  35
ENDBRANCH   1   2
BRANCH   1  37
ATOM     37  O   UNL     1      98.098  82.320  84.877  1.00  0.00    -0.461 OA
BRANCH  37  38
ATOM     38  C   UNL     1      99.165  81.516  84.551  1.00  0.00     0.310 C 
ATOM     39  O   UNL     1     100.241  81.505  85.134  1.00  0.00    -0.252 OA
BRANCH  38  40
ATOM     40  C   UNL     1      98.802  80.652  83.366  1.00  0.00     0.158 C 
BRANCH  40  41
ATOM     41  C   UNL     1      99.002  81.350  82.046  1.00  0.00    -0.033 A 
ATOM     42  C   UNL     1      99.634  80.686  80.994  1.00  0.00     0.054 A 
ATOM     43  C   UNL     1      98.556  82.660  81.875  1.00  0.00     0.008 A 
ATOM     44  C   UNL     1      99.819  81.332  79.772  1.00  0.00     0.160 A 
ATOM     45  C   UNL     1      98.741  83.307  80.653  1.00  0.00     0.050 A 
ATOM     46  C   UNL     1      99.372  82.643  79.602  1.00  0.00     0.157 A 
BRANCH  44  47
ATOM     47  O   UNL     1     100.437  80.673  78.753  1.00  0.00    -0.493 OA
ATOM     48  C   UNL     1     100.595  79.262  78.894  1.00  0.00     0.278 C 
ENDBRANCH  44  47
BRANCH  46  49
ATOM     49  O   UNL     1      99.547  83.284  78.413  1.00  0.00    -0.504 OA
ATOM     50  H   UNL     1      98.775  83.851  78.242  1.00  0.00     0.293 HD
ENDBRANCH  46  49
ENDBRANCH  40  41
ENDBRANCH  38  40
ENDBRANCH  37  38
ENDBRANCH   1  37
TORSDOF 11
ENDMDL
