MODEL 1
REMARK VINA RESULT:    -6.069      0.000      0.000
REMARK INTER + INTRA:         -10.374
REMARK INTER:                  -9.439
REMARK INTRA:                  -0.935
REMARK UNBOUND:                -0.935
REMARK SMILES COc1cc(CNC(=O)CCCCCC(C)C)ccc1O
REMARK SMILES IDX 10 1 8 2 7 3 9 5 6 6 5 7 3 8 20 9 4 10 19 11 18 12 2 13 1 14
REMARK SMILES IDX 21 15 11 17 12 18 13 19 14 20 15 21 16 22 17 23
REMARK H PARENT 7 4 21 16
REMARK Flexibility Score: inf
ROOT
ATOM      1  C   UNL     1      77.540  84.704  68.494  1.00  0.00     0.100 C 
ENDROOT
BRANCH   1   2
ATOM      2  C   UNL     1      77.831  83.784  67.375  1.00  0.00     0.220 C 
ATOM      3  N   UNL     1      76.806  83.122  66.768  1.00  0.00    -0.352 N 
ATOM      4  H   UNL     1      75.911  83.212  67.228  1.00  0.00     0.163 HD
ATOM      5  O   UNL     1      79.016  83.665  66.977  1.00  0.00    -0.275 OA
BRANCH   3   6
ATOM      6  C   UNL     1      76.921  82.345  65.576  1.00  0.00     0.151 C 
BRANCH   6   7
ATOM      7  C   UNL     1      75.619  81.796  65.109  1.00  0.00    -0.025 A 
ATOM      8  C   UNL     1      73.188  81.546  65.384  1.00  0.00     0.160 A 
ATOM      9  C   UNL     1      73.131  80.807  64.183  1.00  0.00     0.157 A 
ATOM     10  C   UNL     1      74.434  82.020  65.848  1.00  0.00     0.056 A 
ATOM     11  C   UNL     1      74.307  80.555  63.454  1.00  0.00     0.050 A 
ATOM     12  C   UNL     1      75.541  81.050  63.909  1.00  0.00     0.009 A 
BRANCH   8  13
ATOM     13  O   UNL     1      72.057  81.785  66.119  1.00  0.00    -0.493 OA
ATOM     14  C   UNL     1      72.042  83.075  66.761  1.00  0.00     0.278 C 
ENDBRANCH   8  13
BRANCH   9  15
ATOM     15  O   UNL     1      71.939  80.345  63.729  1.00  0.00    -0.504 OA
ATOM     16  H   UNL     1      71.263  81.012  63.868  1.00  0.00     0.293 HD
ENDBRANCH   9  15
ENDBRANCH   6   7
ENDBRANCH   3   6
ENDBRANCH   1   2
BRANCH   1  17
ATOM     17  C   UNL     1      78.308  86.052  68.430  1.00  0.00     0.010 C 
BRANCH  17  18
ATOM     18  C   UNL     1      77.636  87.046  67.443  1.00  0.00     0.001 C 
BRANCH  18  19
ATOM     19  C   UNL     1      76.314  87.652  67.983  1.00  0.00     0.000 C 
BRANCH  19  20
ATOM     20  C   UNL     1      76.413  88.031  69.490  1.00  0.00     0.003 C 
BRANCH  20  21
ATOM     21  C   UNL     1      75.321  87.387  70.405  1.00  0.00    -0.017 C 
ATOM     22  C   UNL     1      74.416  86.416  69.592  1.00  0.00     0.007 C 
ATOM     23  C   UNL     1      74.446  88.445  71.137  1.00  0.00     0.007 C 
ENDBRANCH  20  21
ENDBRANCH  19  20
ENDBRANCH  18  19
ENDBRANCH  17  18
ENDBRANCH   1  17
TORSDOF 10
ENDMDL
MODEL 2
REMARK VINA RESULT:    -5.711      2.147      2.791
REMARK INTER + INTRA:          -9.818
REMARK INTER:                  -8.247
REMARK INTRA:                  -1.571
REMARK UNBOUND:                -0.935
REMARK SMILES COc1cc(CNC(=O)CCCCCC(C)C)ccc1O
REMARK SMILES IDX 10 1 8 2 7 3 9 5 6 6 5 7 3 8 20 9 4 10 19 11 18 12 2 13 1 14
REMARK SMILES IDX 21 15 11 17 12 18 13 19 14 20 15 21 16 22 17 23
REMARK H PARENT 7 4 21 16
REMARK Flexibility Score: inf
ROOT
ATOM      1  C   UNL     1      76.884  87.449  66.414  1.00  0.00     0.100 C 
ENDROOT
BRANCH   1   2
ATOM      2  C   UNL     1      76.920  86.439  65.337  1.00  0.00     0.220 C 
ATOM      3  N   UNL     1      77.345  85.175  65.618  1.00  0.00    -0.352 N 
ATOM      4  H   UNL     1      77.739  85.054  66.540  1.00  0.00     0.163 HD
ATOM      5  O   UNL     1      76.516  86.756  64.191  1.00  0.00    -0.275 OA
BRANCH   3   6
ATOM      6  C   UNL     1      77.268  84.064  64.724  1.00  0.00     0.151 C 
BRANCH   6   7
ATOM      7  C   UNL     1      76.105  83.176  64.995  1.00  0.00    -0.025 A 
ATOM      8  C   UNL     1      73.771  82.530  64.570  1.00  0.00     0.160 A 
ATOM      9  C   UNL     1      73.911  81.445  65.460  1.00  0.00     0.157 A 
ATOM     10  C   UNL     1      74.862  83.399  64.357  1.00  0.00     0.056 A 
ATOM     11  C   UNL     1      75.135  81.229  66.120  1.00  0.00     0.050 A 
ATOM     12  C   UNL     1      76.225  82.084  65.886  1.00  0.00     0.009 A 
BRANCH   8  13
ATOM     13  O   UNL     1      72.582  82.769  63.932  1.00  0.00    -0.493 OA
ATOM     14  C   UNL     1      71.857  83.899  64.456  1.00  0.00     0.278 C 
ENDBRANCH   8  13
BRANCH   9  15
ATOM     15  O   UNL     1      72.868  80.604  65.673  1.00  0.00    -0.504 OA
ATOM     16  H   UNL     1      72.055  81.022  65.381  1.00  0.00     0.293 HD
ENDBRANCH   9  15
ENDBRANCH   6   7
ENDBRANCH   3   6
ENDBRANCH   1   2
BRANCH   1  17
ATOM     17  C   UNL     1      77.970  87.257  67.507  1.00  0.00     0.010 C 
BRANCH  17  18
ATOM     18  C   UNL     1      77.403  87.515  68.930  1.00  0.00     0.001 C 
BRANCH  18  19
ATOM     19  C   UNL     1      77.738  86.387  69.941  1.00  0.00     0.000 C 
BRANCH  19  20
ATOM     20  C   UNL     1      77.814  84.990  69.259  1.00  0.00     0.003 C 
BRANCH  20  21
ATOM     21  C   UNL     1      76.571  84.071  69.496  1.00  0.00    -0.017 C 
ATOM     22  C   UNL     1      75.416  84.438  68.518  1.00  0.00     0.007 C 
ATOM     23  C   UNL     1      76.060  84.112  70.965  1.00  0.00     0.007 C 
ENDBRANCH  20  21
ENDBRANCH  19  20
ENDBRANCH  18  19
ENDBRANCH  17  18
ENDBRANCH   1  17
TORSDOF 10
ENDMDL
MODEL 3
REMARK VINA RESULT:    -5.554      1.731      2.394
REMARK INTER + INTRA:          -9.573
REMARK INTER:                  -8.589
REMARK INTRA:                  -0.984
REMARK UNBOUND:                -0.935
REMARK SMILES COc1cc(CNC(=O)CCCCCC(C)C)ccc1O
REMARK SMILES IDX 10 1 8 2 7 3 9 5 6 6 5 7 3 8 20 9 4 10 19 11 18 12 2 13 1 14
REMARK SMILES IDX 21 15 11 17 12 18 13 19 14 20 15 21 16 22 17 23
REMARK H PARENT 7 4 21 16
REMARK Flexibility Score: inf
ROOT
ATOM      1  C   UNL     1      77.811  86.476  67.890  1.00  0.00     0.100 C 
ENDROOT
BRANCH   1   2
ATOM      2  C   UNL     1      77.586  85.925  66.537  1.00  0.00     0.220 C 
ATOM      3  N   UNL     1      77.931  84.632  66.276  1.00  0.00    -0.352 N 
ATOM      4  H   UNL     1      78.450  84.173  67.011  1.00  0.00     0.163 HD
ATOM      5  O   UNL     1      77.042  86.648  65.668  1.00  0.00    -0.275 OA
BRANCH   3   6
ATOM      6  C   UNL     1      77.614  83.924  65.077  1.00  0.00     0.151 C 
BRANCH   6   7
ATOM      7  C   UNL     1      76.392  83.085  65.200  1.00  0.00    -0.025 A 
ATOM      8  C   UNL     1      74.194  82.380  64.351  1.00  0.00     0.160 A 
ATOM      9  C   UNL     1      74.094  81.439  65.397  1.00  0.00     0.157 A 
ATOM     10  C   UNL     1      75.333  83.210  64.270  1.00  0.00     0.056 A 
ATOM     11  C   UNL     1      75.129  81.324  66.343  1.00  0.00     0.050 A 
ATOM     12  C   UNL     1      76.271  82.136  66.243  1.00  0.00     0.009 A 
BRANCH   8  13
ATOM     13  O   UNL     1      73.189  82.522  63.430  1.00  0.00    -0.493 OA
ATOM     14  C   UNL     1      72.240  83.554  63.759  1.00  0.00     0.278 C 
ENDBRANCH   8  13
BRANCH   9  15
ATOM     15  O   UNL     1      73.002  80.638  65.485  1.00  0.00    -0.504 OA
ATOM     16  H   UNL     1      73.010  80.005  64.763  1.00  0.00     0.293 HD
ENDBRANCH   9  15
ENDBRANCH   6   7
ENDBRANCH   3   6
ENDBRANCH   1   2
BRANCH   1  17
ATOM     17  C   UNL     1      77.989  85.402  68.996  1.00  0.00     0.010 C 
BRANCH  17  18
ATOM     18  C   UNL     1      77.213  85.777  70.289  1.00  0.00     0.001 C 
BRANCH  18  19
ATOM     19  C   UNL     1      75.718  85.366  70.252  1.00  0.00     0.000 C 
BRANCH  19  20
ATOM     20  C   UNL     1      74.784  86.571  69.940  1.00  0.00     0.003 C 
BRANCH  20  21
ATOM     21  C   UNL     1      75.067  87.860  70.778  1.00  0.00    -0.017 C 
ATOM     22  C   UNL     1      73.765  88.376  71.459  1.00  0.00     0.007 C 
ATOM     23  C   UNL     1      75.717  88.997  69.938  1.00  0.00     0.007 C 
ENDBRANCH  20  21
ENDBRANCH  19  20
ENDBRANCH  18  19
ENDBRANCH  17  18
ENDBRANCH   1  17
TORSDOF 10
ENDMDL
MODEL 4
REMARK VINA RESULT:    -5.344      2.405      7.042
REMARK INTER + INTRA:          -9.246
REMARK INTER:                  -7.750
REMARK INTRA:                  -1.496
REMARK UNBOUND:                -0.935
REMARK SMILES COc1cc(CNC(=O)CCCCCC(C)C)ccc1O
REMARK SMILES IDX 10 1 8 2 7 3 9 5 6 6 5 7 3 8 20 9 4 10 19 11 18 12 2 13 1 14
REMARK SMILES IDX 21 15 11 17 12 18 13 19 14 20 15 21 16 22 17 23
REMARK H PARENT 7 4 21 16
REMARK Flexibility Score: inf
ROOT
ATOM      1  C   UNL     1      71.675  82.840  64.993  1.00  0.00     0.100 C 
ENDROOT
BRANCH   1   2
ATOM      2  C   UNL     1      72.347  84.148  64.853  1.00  0.00     0.220 C 
ATOM      3  N   UNL     1      73.464  84.408  65.590  1.00  0.00    -0.352 N 
ATOM      4  H   UNL     1      73.681  83.716  66.293  1.00  0.00     0.163 HD
ATOM      5  O   UNL     1      71.899  84.978  64.026  1.00  0.00    -0.275 OA
BRANCH   3   6
ATOM      6  C   UNL     1      74.306  85.550  65.430  1.00  0.00     0.151 C 
BRANCH   6   7
ATOM      7  C   UNL     1      75.463  85.559  66.366  1.00  0.00    -0.025 A 
ATOM      8  C   UNL     1      76.576  84.711  68.388  1.00  0.00     0.160 A 
ATOM      9  C   UNL     1      77.693  85.527  68.112  1.00  0.00     0.157 A 
ATOM     10  C   UNL     1      75.461  84.746  67.524  1.00  0.00     0.056 A 
ATOM     11  C   UNL     1      77.695  86.360  66.978  1.00  0.00     0.050 A 
ATOM     12  C   UNL     1      76.591  86.372  66.109  1.00  0.00     0.009 A 
BRANCH   8  13
ATOM     13  O   UNL     1      76.546  83.908  69.498  1.00  0.00    -0.493 OA
ATOM     14  C   UNL     1      76.017  84.555  70.671  1.00  0.00     0.278 C 
ENDBRANCH   8  13
BRANCH   9  15
ATOM     15  O   UNL     1      78.770  85.503  68.938  1.00  0.00    -0.504 OA
ATOM     16  H   UNL     1      79.569  85.650  68.426  1.00  0.00     0.293 HD
ENDBRANCH   9  15
ENDBRANCH   6   7
ENDBRANCH   3   6
ENDBRANCH   1   2
BRANCH   1  17
ATOM     17  C   UNL     1      72.498  81.778  65.771  1.00  0.00     0.010 C 
BRANCH  17  18
ATOM     18  C   UNL     1      72.866  80.566  64.872  1.00  0.00     0.001 C 
BRANCH  18  19
ATOM     19  C   UNL     1      73.523  80.974  63.526  1.00  0.00     0.000 C 
BRANCH  19  20
ATOM     20  C   UNL     1      75.077  80.976  63.607  1.00  0.00     0.003 C 
BRANCH  20  21
ATOM     21  C   UNL     1      75.693  82.136  64.455  1.00  0.00    -0.017 C 
ATOM     22  C   UNL     1      76.602  83.044  63.575  1.00  0.00     0.007 C 
ATOM     23  C   UNL     1      76.486  81.626  65.693  1.00  0.00     0.007 C 
ENDBRANCH  20  21
ENDBRANCH  19  20
ENDBRANCH  18  19
ENDBRANCH  17  18
ENDBRANCH   1  17
TORSDOF 10
ENDMDL
MODEL 5
REMARK VINA RESULT:    -5.286     22.423     25.965
REMARK INTER + INTRA:          -9.156
REMARK INTER:                  -8.060
REMARK INTRA:                  -1.097
REMARK UNBOUND:                -0.935
REMARK SMILES COc1cc(CNC(=O)CCCCCC(C)C)ccc1O
REMARK SMILES IDX 10 1 8 2 7 3 9 5 6 6 5 7 3 8 20 9 4 10 19 11 18 12 2 13 1 14
REMARK SMILES IDX 21 15 11 17 12 18 13 19 14 20 15 21 16 22 17 23
REMARK H PARENT 7 4 21 16
REMARK Flexibility Score: inf
ROOT
ATOM      1  C   UNL     1      96.897  98.572  77.163  1.00  0.00     0.100 C 
ENDROOT
BRANCH   1   2
ATOM      2  C   UNL     1      95.469  98.601  76.782  1.00  0.00     0.220 C 
ATOM      3  N   UNL     1      94.850  97.444  76.415  1.00  0.00    -0.352 N 
ATOM      4  H   UNL     1      95.464  96.650  76.303  1.00  0.00     0.163 HD
ATOM      5  O   UNL     1      94.844  99.688  76.845  1.00  0.00    -0.275 OA
BRANCH   3   6
ATOM      6  C   UNL     1      93.447  97.297  76.193  1.00  0.00     0.151 C 
BRANCH   6   7
ATOM      7  C   UNL     1      92.836  96.214  77.010  1.00  0.00    -0.025 A 
ATOM      8  C   UNL     1      92.973  94.608  78.867  1.00  0.00     0.160 A 
ATOM      9  C   UNL     1      91.648  94.199  78.609  1.00  0.00     0.157 A 
ATOM     10  C   UNL     1      93.565  95.599  78.055  1.00  0.00     0.056 A 
ATOM     11  C   UNL     1      90.923  94.785  77.555  1.00  0.00     0.050 A 
ATOM     12  C   UNL     1      91.509  95.788  76.765  1.00  0.00     0.009 A 
BRANCH   8  13
ATOM     13  O   UNL     1      93.703  94.036  79.876  1.00  0.00    -0.493 OA
ATOM     14  C   UNL     1      95.080  93.790  79.531  1.00  0.00     0.278 C 
ENDBRANCH   8  13
BRANCH   9  15
ATOM     15  O   UNL     1      91.070  93.246  79.382  1.00  0.00    -0.504 OA
ATOM     16  H   UNL     1      90.332  92.854  78.910  1.00  0.00     0.293 HD
ENDBRANCH   9  15
ENDBRANCH   6   7
ENDBRANCH   3   6
ENDBRANCH   1   2
BRANCH   1  17
ATOM     17  C   UNL     1      97.148  98.507  78.693  1.00  0.00     0.010 C 
BRANCH  17  18
ATOM     18  C   UNL     1      96.166  97.527  79.393  1.00  0.00     0.001 C 
BRANCH  18  19
ATOM     19  C   UNL     1      95.642  98.049  80.757  1.00  0.00     0.000 C 
BRANCH  19  20
ATOM     20  C   UNL     1      94.852  96.960  81.539  1.00  0.00     0.003 C 
BRANCH  20  21
ATOM     21  C   UNL     1      95.550  96.443  82.839  1.00  0.00    -0.017 C 
ATOM     22  C   UNL     1      96.310  97.597  83.558  1.00  0.00     0.007 C 
ATOM     23  C   UNL     1      96.516  95.252  82.573  1.00  0.00     0.007 C 
ENDBRANCH  20  21
ENDBRANCH  19  20
ENDBRANCH  18  19
ENDBRANCH  17  18
ENDBRANCH   1  17
TORSDOF 10
ENDMDL
MODEL 6
REMARK VINA RESULT:    -5.268     25.100     27.314
REMARK INTER + INTRA:          -9.129
REMARK INTER:                  -8.534
REMARK INTRA:                  -0.594
REMARK UNBOUND:                -0.935
REMARK SMILES COc1cc(CNC(=O)CCCCCC(C)C)ccc1O
REMARK SMILES IDX 10 1 8 2 7 3 9 5 6 6 5 7 3 8 20 9 4 10 19 11 18 12 2 13 1 14
REMARK SMILES IDX 21 15 11 17 12 18 13 19 14 20 15 21 16 22 17 23
REMARK H PARENT 7 4 21 16
REMARK Flexibility Score: inf
ROOT
ATOM      1  C   UNL     1      97.741  81.252  84.320  1.00  0.00     0.100 C 
ENDROOT
BRANCH   1   2
ATOM      2  C   UNL     1      98.794  81.455  83.304  1.00  0.00     0.220 C 
ATOM      3  N   UNL     1      98.612  82.390  82.328  1.00  0.00    -0.352 N 
ATOM      4  H   UNL     1      97.688  82.795  82.295  1.00  0.00     0.163 HD
ATOM      5  O   UNL     1      99.856  80.791  83.386  1.00  0.00    -0.275 OA
BRANCH   3   6
ATOM      6  C   UNL     1      99.609  82.809  81.395  1.00  0.00     0.151 C 
BRANCH   6   7
ATOM      7  C   UNL     1      99.063  83.070  80.036  1.00  0.00    -0.025 A 
ATOM      8  C   UNL     1      99.350  83.105  77.594  1.00  0.00     0.160 A 
ATOM      9  C   UNL     1      98.005  83.504  77.444  1.00  0.00     0.157 A 
ATOM     10  C   UNL     1      99.876  82.909  78.889  1.00  0.00     0.056 A 
ATOM     11  C   UNL     1      97.195  83.693  78.579  1.00  0.00     0.050 A 
ATOM     12  C   UNL     1      97.718  83.473  79.865  1.00  0.00     0.009 A 
BRANCH   8  13
ATOM     13  O   UNL     1     100.161  82.935  76.502  1.00  0.00    -0.493 OA
ATOM     14  C   UNL     1     101.107  84.004  76.308  1.00  0.00     0.278 C 
ENDBRANCH   8  13
BRANCH   9  15
ATOM     15  O   UNL     1      97.490  83.698  76.204  1.00  0.00    -0.504 OA
ATOM     16  H   UNL     1      96.952  84.493  76.201  1.00  0.00     0.293 HD
ENDBRANCH   9  15
ENDBRANCH   6   7
ENDBRANCH   3   6
ENDBRANCH   1   2
BRANCH   1  17
ATOM     17  C   UNL     1      97.525  82.463  85.267  1.00  0.00     0.010 C 
BRANCH  17  18
ATOM     18  C   UNL     1      96.063  82.529  85.788  1.00  0.00     0.001 C 
BRANCH  18  19
ATOM     19  C   UNL     1      95.812  81.638  87.033  1.00  0.00     0.000 C 
BRANCH  19  20
ATOM     20  C   UNL     1      94.411  80.960  86.999  1.00  0.00     0.003 C 
BRANCH  20  21
ATOM     21  C   UNL     1      93.235  81.896  86.570  1.00  0.00    -0.017 C 
ATOM     22  C   UNL     1      92.914  82.932  87.687  1.00  0.00     0.007 C 
ATOM     23  C   UNL     1      91.948  81.112  86.183  1.00  0.00     0.007 C 
ENDBRANCH  20  21
ENDBRANCH  19  20
ENDBRANCH  18  19
ENDBRANCH  17  18
ENDBRANCH   1  17
TORSDOF 10
ENDMDL
MODEL 7
REMARK VINA RESULT:    -5.175      9.479     12.396
REMARK INTER + INTRA:          -8.984
REMARK INTER:                  -8.141
REMARK INTRA:                  -0.843
REMARK UNBOUND:                -0.935
REMARK SMILES COc1cc(CNC(=O)CCCCCC(C)C)ccc1O
REMARK SMILES IDX 10 1 8 2 7 3 9 5 6 6 5 7 3 8 20 9 4 10 19 11 18 12 2 13 1 14
REMARK SMILES IDX 21 15 11 17 12 18 13 19 14 20 15 21 16 22 17 23
REMARK H PARENT 7 4 21 16
REMARK Flexibility Score: inf
ROOT
ATOM      1  C   UNL     1      67.354  83.095  70.704  1.00  0.00     0.100 C 
ENDROOT
BRANCH   1   2
ATOM      2  C   UNL     1      65.891  83.154  70.498  1.00  0.00     0.220 C 
ATOM      3  N   UNL     1      65.151  82.017  70.624  1.00  0.00    -0.352 N 
ATOM      4  H   UNL     1      65.689  81.168  70.724  1.00  0.00     0.163 HD
ATOM      5  O   UNL     1      65.356  84.262  70.253  1.00  0.00    -0.275 OA
BRANCH   3   6
ATOM      6  C   UNL     1      63.724  81.961  70.623  1.00  0.00     0.151 C 
BRANCH   6   7
ATOM      7  C   UNL     1      63.126  82.271  71.950  1.00  0.00    -0.025 A 
ATOM      8  C   UNL     1      61.884  83.797  73.425  1.00  0.00     0.160 A 
ATOM      9  C   UNL     1      61.930  82.835  74.456  1.00  0.00     0.157 A 
ATOM     10  C   UNL     1      62.498  83.517  72.185  1.00  0.00     0.056 A 
ATOM     11  C   UNL     1      62.576  81.603  74.241  1.00  0.00     0.050 A 
ATOM     12  C   UNL     1      63.164  81.321  72.997  1.00  0.00     0.009 A 
BRANCH   8  13
ATOM     13  O   UNL     1      61.277  85.010  73.619  1.00  0.00    -0.493 OA
ATOM     14  C   UNL     1      60.003  85.137  72.959  1.00  0.00     0.278 C 
ENDBRANCH   8  13
BRANCH   9  15
ATOM     15  O   UNL     1      61.345  83.095  75.651  1.00  0.00    -0.504 OA
ATOM     16  H   UNL     1      61.186  82.270  76.116  1.00  0.00     0.293 HD
ENDBRANCH   9  15
ENDBRANCH   6   7
ENDBRANCH   3   6
ENDBRANCH   1   2
BRANCH   1  17
ATOM     17  C   UNL     1      68.040  84.483  70.814  1.00  0.00     0.010 C 
BRANCH  17  18
ATOM     18  C   UNL     1      69.471  84.369  71.407  1.00  0.00     0.001 C 
BRANCH  18  19
ATOM     19  C   UNL     1      70.505  83.781  70.411  1.00  0.00     0.000 C 
BRANCH  19  20
ATOM     20  C   UNL     1      70.249  84.252  68.950  1.00  0.00     0.003 C 
BRANCH  20  21
ATOM     21  C   UNL     1      69.921  83.109  67.935  1.00  0.00    -0.017 C 
ATOM     22  C   UNL     1      71.130  82.841  66.991  1.00  0.00     0.007 C 
ATOM     23  C   UNL     1      68.641  83.394  67.096  1.00  0.00     0.007 C 
ENDBRANCH  20  21
ENDBRANCH  19  20
ENDBRANCH  18  19
ENDBRANCH  17  18
ENDBRANCH   1  17
TORSDOF 10
ENDMDL
MODEL 8
REMARK VINA RESULT:    -5.145     11.632     15.210
REMARK INTER + INTRA:          -8.938
REMARK INTER:                  -7.543
REMARK INTRA:                  -1.395
REMARK UNBOUND:                -0.935
REMARK SMILES COc1cc(CNC(=O)CCCCCC(C)C)ccc1O
REMARK SMILES IDX 10 1 8 2 7 3 9 5 6 6 5 7 3 8 20 9 4 10 19 11 18 12 2 13 1 14
REMARK SMILES IDX 21 15 11 17 12 18 13 19 14 20 15 21 16 22 17 23
REMARK H PARENT 7 4 21 16
REMARK Flexibility Score: inf
ROOT
ATOM      1  C   UNL     1      60.243  85.484  70.314  1.00  0.00     0.100 C 
ENDROOT
BRANCH   1   2
ATOM      2  C   UNL     1      60.077  84.757  71.589  1.00  0.00     0.220 C 
ATOM      3  N   UNL     1      61.152  84.592  72.411  1.00  0.00    -0.352 N 
ATOM      4  H   UNL     1      62.037  84.875  72.014  1.00  0.00     0.163 HD
ATOM      5  O   UNL     1      58.937  84.342  71.910  1.00  0.00    -0.275 OA
BRANCH   3   6
ATOM      6  C   UNL     1      61.100  84.068  73.738  1.00  0.00     0.151 C 
BRANCH   6   7
ATOM      7  C   UNL     1      62.423  84.065  74.417  1.00  0.00    -0.025 A 
ATOM      8  C   UNL     1      64.721  84.920  74.615  1.00  0.00     0.160 A 
ATOM      9  C   UNL     1      64.922  84.110  75.753  1.00  0.00     0.157 A 
ATOM     10  C   UNL     1      63.480  84.878  73.944  1.00  0.00     0.056 A 
ATOM     11  C   UNL     1      63.886  83.278  76.217  1.00  0.00     0.050 A 
ATOM     12  C   UNL     1      62.645  83.259  75.558  1.00  0.00     0.009 A 
BRANCH   8  13
ATOM     13  O   UNL     1      65.722  85.722  74.135  1.00  0.00    -0.493 OA
ATOM     14  C   UNL     1      66.525  85.103  73.111  1.00  0.00     0.278 C 
ENDBRANCH   8  13
BRANCH   9  15
ATOM     15  O   UNL     1      66.111  84.140  76.404  1.00  0.00    -0.504 OA
ATOM     16  H   UNL     1      66.214  83.338  76.921  1.00  0.00     0.293 HD
ENDBRANCH   9  15
ENDBRANCH   6   7
ENDBRANCH   3   6
ENDBRANCH   1   2
BRANCH   1  17
ATOM     17  C   UNL     1      61.595  85.219  69.599  1.00  0.00     0.010 C 
BRANCH  17  18
ATOM     18  C   UNL     1      61.723  83.738  69.147  1.00  0.00     0.001 C 
BRANCH  18  19
ATOM     19  C   UNL     1      63.160  83.172  69.290  1.00  0.00     0.000 C 
BRANCH  19  20
ATOM     20  C   UNL     1      63.233  82.003  70.315  1.00  0.00     0.003 C 
BRANCH  20  21
ATOM     21  C   UNL     1      64.269  82.201  71.470  1.00  0.00    -0.017 C 
ATOM     22  C   UNL     1      65.722  81.974  70.957  1.00  0.00     0.007 C 
ATOM     23  C   UNL     1      63.987  81.287  72.697  1.00  0.00     0.007 C 
ENDBRANCH  20  21
ENDBRANCH  19  20
ENDBRANCH  18  19
ENDBRANCH  17  18
ENDBRANCH   1  17
TORSDOF 10
ENDMDL
MODEL 9
REMARK VINA RESULT:    -5.021     11.179     14.701
REMARK INTER + INTRA:          -8.744
REMARK INTER:                  -7.039
REMARK INTRA:                  -1.706
REMARK UNBOUND:                -0.935
REMARK SMILES COc1cc(CNC(=O)CCCCCC(C)C)ccc1O
REMARK SMILES IDX 10 1 8 2 7 3 9 5 6 6 5 7 3 8 20 9 4 10 19 11 18 12 2 13 1 14
REMARK SMILES IDX 21 15 11 17 12 18 13 19 14 20 15 21 16 22 17 23
REMARK H PARENT 7 4 21 16
REMARK Flexibility Score: inf
ROOT
ATOM      1  C   UNL     1      58.729  84.974  71.948  1.00  0.00     0.100 C 
ENDROOT
BRANCH   1   2
ATOM      2  C   UNL     1      59.893  85.063  72.855  1.00  0.00     0.220 C 
ATOM      3  N   UNL     1      60.608  83.938  73.137  1.00  0.00    -0.352 N 
ATOM      4  H   UNL     1      60.199  83.078  72.799  1.00  0.00     0.163 HD
ATOM      5  O   UNL     1      60.224  86.183  73.313  1.00  0.00    -0.275 OA
BRANCH   3   6
ATOM      6  C   UNL     1      61.845  83.908  73.850  1.00  0.00     0.151 C 
BRANCH   6   7
ATOM      7  C   UNL     1      62.989  83.452  73.016  1.00  0.00    -0.025 A 
ATOM      8  C   UNL     1      65.131  83.913  71.899  1.00  0.00     0.160 A 
ATOM      9  C   UNL     1      65.202  82.567  71.484  1.00  0.00     0.157 A 
ATOM     10  C   UNL     1      64.017  84.352  72.646  1.00  0.00     0.056 A 
ATOM     11  C   UNL     1      64.173  81.669  71.824  1.00  0.00     0.050 A 
ATOM     12  C   UNL     1      63.078  82.106  72.588  1.00  0.00     0.009 A 
BRANCH   8  13
ATOM     13  O   UNL     1      66.113  84.808  71.563  1.00  0.00    -0.493 OA
ATOM     14  C   UNL     1      67.069  85.045  72.613  1.00  0.00     0.278 C 
ENDBRANCH   8  13
BRANCH   9  15
ATOM     15  O   UNL     1      66.268  82.135  70.764  1.00  0.00    -0.504 OA
ATOM     16  H   UNL     1      67.062  82.193  71.301  1.00  0.00     0.293 HD
ENDBRANCH   9  15
ENDBRANCH   6   7
ENDBRANCH   3   6
ENDBRANCH   1   2
BRANCH   1  17
ATOM     17  C   UNL     1      59.011  85.453  70.499  1.00  0.00     0.010 C 
BRANCH  17  18
ATOM     18  C   UNL     1      59.887  84.433  69.719  1.00  0.00     0.001 C 
BRANCH  18  19
ATOM     19  C   UNL     1      61.392  84.807  69.693  1.00  0.00     0.000 C 
BRANCH  19  20
ATOM     20  C   UNL     1      62.280  83.639  69.172  1.00  0.00     0.003 C 
BRANCH  20  21
ATOM     21  C   UNL     1      63.644  84.076  68.546  1.00  0.00    -0.017 C 
ATOM     22  C   UNL     1      63.910  85.590  68.793  1.00  0.00     0.007 C 
ATOM     23  C   UNL     1      63.741  83.758  67.026  1.00  0.00     0.007 C 
ENDBRANCH  20  21
ENDBRANCH  19  20
ENDBRANCH  18  19
ENDBRANCH  17  18
ENDBRANCH   1  17
TORSDOF 10
ENDMDL
MODEL 10
REMARK VINA RESULT:    -4.987      1.600      2.713
REMARK INTER + INTRA:          -8.691
REMARK INTER:                  -7.101
REMARK INTRA:                  -1.590
REMARK UNBOUND:                -0.935
REMARK SMILES COc1cc(CNC(=O)CCCCCC(C)C)ccc1O
REMARK SMILES IDX 10 1 8 2 7 3 9 5 6 6 5 7 3 8 20 9 4 10 19 11 18 12 2 13 1 14
REMARK SMILES IDX 21 15 11 17 12 18 13 19 14 20 15 21 16 22 17 23
REMARK H PARENT 7 4 21 16
REMARK Flexibility Score: inf
ROOT
ATOM      1  C   UNL     1      77.990  86.608  68.026  1.00  0.00     0.100 C 
ENDROOT
BRANCH   1   2
ATOM      2  C   UNL     1      77.786  85.154  67.861  1.00  0.00     0.220 C 
ATOM      3  N   UNL     1      76.556  84.619  68.103  1.00  0.00    -0.352 N 
ATOM      4  H   UNL     1      75.888  85.255  68.514  1.00  0.00     0.163 HD
ATOM      5  O   UNL     1      78.742  84.447  67.460  1.00  0.00    -0.275 OA
BRANCH   3   6
ATOM      6  C   UNL     1      76.176  83.272  67.819  1.00  0.00     0.151 C 
BRANCH   6   7
ATOM      7  C   UNL     1      75.304  83.151  66.619  1.00  0.00    -0.025 A 
ATOM      8  C   UNL     1      74.659  81.967  64.563  1.00  0.00     0.160 A 
ATOM      9  C   UNL     1      73.602  82.882  64.371  1.00  0.00     0.157 A 
ATOM     10  C   UNL     1      75.514  82.119  65.675  1.00  0.00     0.056 A 
ATOM     11  C   UNL     1      73.400  83.928  65.289  1.00  0.00     0.050 A 
ATOM     12  C   UNL     1      74.240  84.059  66.408  1.00  0.00     0.009 A 
BRANCH   8  13
ATOM     13  O   UNL     1      74.885  80.953  63.669  1.00  0.00    -0.493 OA
ATOM     14  C   UNL     1      76.122  81.082  62.943  1.00  0.00     0.278 C 
ENDBRANCH   8  13
BRANCH   9  15
ATOM     15  O   UNL     1      72.775  82.747  63.304  1.00  0.00    -0.504 OA
ATOM     16  H   UNL     1      72.207  81.983  63.433  1.00  0.00     0.293 HD
ENDBRANCH   9  15
ENDBRANCH   6   7
ENDBRANCH   3   6
ENDBRANCH   1   2
BRANCH   1  17
ATOM     17  C   UNL     1      77.706  87.442  66.748  1.00  0.00     0.010 C 
BRANCH  17  18
ATOM     18  C   UNL     1      76.181  87.616  66.505  1.00  0.00     0.001 C 
BRANCH  18  19
ATOM     19  C   UNL     1      75.415  88.141  67.747  1.00  0.00     0.000 C 
BRANCH  19  20
ATOM     20  C   UNL     1      74.079  87.378  67.980  1.00  0.00     0.003 C 
BRANCH  20  21
ATOM     21  C   UNL     1      73.807  86.960  69.462  1.00  0.00    -0.017 C 
ATOM     22  C   UNL     1      75.117  87.010  70.303  1.00  0.00     0.007 C 
ATOM     23  C   UNL     1      73.148  85.555  69.583  1.00  0.00     0.007 C 
ENDBRANCH  20  21
ENDBRANCH  19  20
ENDBRANCH  18  19
ENDBRANCH  17  18
ENDBRANCH   1  17
TORSDOF 10
ENDMDL
