MODEL 1
REMARK VINA RESULT:    -7.638      0.000      0.000
REMARK INTER + INTRA:         -13.354
REMARK INTER:                 -12.996
REMARK INTRA:                  -0.357
REMARK UNBOUND:                -0.357
REMARK SMILES C=C(C)[C@]12C[C@@H](C)[C@@]34O[C@](Cc5ccccc5)(O[C@@H]1[C@@H]3C=C(COC(=O)Cc1ccc(O)cc1)C[C@]1(O)C(=O)C(C)=C[C@@H]41)O2
REMARK SMILES IDX 23 1 22 2 21 3 20 4 9 5 8 6 10 7 6 8 18 10 44 11 19 12 5 13
REMARK SMILES IDX 7 14 4 15 11 16 12 17 13 18 17 19 14 20 16 21 15 22 2 23
REMARK SMILES IDX 3 24 1 25 35 26 36 27 43 28 38 29 42 30 39 32 40 33 41 34
REMARK SMILES IDX 37 35 24 37 25 38 26 39 27 40 28 41 29 42 34 43 30 44 33 45
REMARK SMILES IDX 31 46 32 47
REMARK H PARENT 37 36 32 48
REMARK Flexibility Score: 90.00
ROOT
ATOM      1  C   UNL     1      91.485 100.060  70.811  1.00  0.00     0.264 C 
ENDROOT
BRANCH   1   2
ATOM      2  C   UNL     1      92.981 100.219  70.946  1.00  0.00    -0.033 C 
ATOM      3  C   UNL     1      93.562  99.999  72.144  1.00  0.00    -0.015 C 
BRANCH   3   4
ATOM      4  C   UNL     1      95.016 100.163  72.557  1.00  0.00     0.078 C 
ATOM      5  O   UNL     1      96.101  97.960  72.263  1.00  0.00    -0.319 OA
ATOM      6  C   UNL     1      96.111  99.341  71.783  1.00  0.00     0.095 CG0
ATOM      7  C   UNL     1      95.981  97.806  73.690  1.00  0.00     0.289 C 
ATOM      8  C   UNL     1      97.517  99.996  72.102  1.00  0.00     0.023 C 
ATOM      9  G   UNL     1      95.753  99.228  70.272  1.00  0.00     0.000 G0
ATOM     10  O   UNL     1      94.800  98.434  74.181  1.00  0.00    -0.320 OA
ATOM     11  O   UNL     1      97.062  98.413  74.394  1.00  0.00    -0.313 OA
ATOM     12  C   UNL     1      95.179  99.814  74.057  1.00  0.00     0.170 C 
ATOM     13  C   UNL     1      97.562 100.580  73.547  1.00  0.00     0.049 C 
ATOM     14  C   UNL     1      98.737  99.084  71.884  1.00  0.00     0.011 C 
ATOM     15  C   UNL     1      96.662  99.795  74.503  1.00  0.00     0.122 C 
BRANCH   7  16
ATOM     16  C   UNL     1      95.943  96.324  74.006  1.00  0.00     0.135 C 
BRANCH  16  17
ATOM     17  C   UNL     1      95.017  96.013  75.155  1.00  0.00    -0.040 A 
ATOM     18  C   UNL     1      93.644  95.905  74.935  1.00  0.00     0.004 A 
ATOM     19  C   UNL     1      95.534  95.833  76.437  1.00  0.00     0.004 A 
ATOM     20  C   UNL     1      92.787  95.617  75.998  1.00  0.00     0.000 A 
ATOM     21  C   UNL     1      94.678  95.545  77.500  1.00  0.00     0.000 A 
ATOM     22  C   UNL     1      93.305  95.437  77.280  1.00  0.00     0.000 A 
ENDBRANCH  16  17
ENDBRANCH   7  16
BRANCH  15  23
ATOM     23  C   UNL     1      96.826 100.221  75.925  1.00  0.00    -0.046 C 
ATOM     24  C   UNL     1      96.360 101.608  76.259  1.00  0.00     0.042 C 
ATOM     25  C   UNL     1      97.359  99.411  76.852  1.00  0.00     0.010 C 
ENDBRANCH  15  23
ENDBRANCH   3   4
BRANCH   2  26
ATOM     26  C   UNL     1      93.658 100.618  69.648  1.00  0.00     0.078 C 
BRANCH  26  27
ATOM     27  C   UNL     1      95.184 100.558  69.610  1.00  0.00     0.140 C 
ATOM     28  C   UNL     1      95.734  99.266  70.249  1.00  0.00     0.086 CG0
ATOM     29  C   UNL     1      95.725 100.478  68.198  1.00  0.00     0.190 C 
ATOM     30  C   UNL     1      96.765  98.798  69.261  1.00  0.00    -0.010 C 
ATOM     31  G   UNL     1      96.106  99.353  71.758  1.00  0.00     0.000 G0
ATOM     32  O   UNL     1      95.394 101.201  67.270  1.00  0.00    -0.291 OA
ATOM     33  C   UNL     1      96.767  99.439  68.088  1.00  0.00    -0.008 C 
ATOM     34  C   UNL     1      97.572  99.198  66.873  1.00  0.00     0.048 C 
BRANCH  27  35
ATOM     35  O   UNL     1      95.763 101.744  70.127  1.00  0.00    -0.381 OA
ATOM     36  H   UNL     1      95.176 102.490  69.914  1.00  0.00     0.212 HD
ENDBRANCH  27  35
ENDBRANCH  26  27
ENDBRANCH   2  26
ENDBRANCH   1   2
BRANCH   1  37
ATOM     37  O   UNL     1      91.154  99.908  69.447  1.00  0.00    -0.461 OA
BRANCH  37  38
ATOM     38  C   UNL     1      90.163  98.997  69.160  1.00  0.00     0.310 C 
ATOM     39  O   UNL     1      89.565  98.326  69.988  1.00  0.00    -0.252 OA
BRANCH  38  40
ATOM     40  C   UNL     1      89.931  98.958  67.668  1.00  0.00     0.158 C 
BRANCH  40  41
ATOM     41  C   UNL     1      88.930  99.982  67.202  1.00  0.00    -0.037 A 
ATOM     42  C   UNL     1      87.639  99.586  66.851  1.00  0.00     0.008 A 
ATOM     43  C   UNL     1      89.292 101.326  67.120  1.00  0.00     0.008 A 
ATOM     44  C   UNL     1      86.712 100.535  66.418  1.00  0.00     0.046 A 
ATOM     45  C   UNL     1      88.365 102.275  66.688  1.00  0.00     0.046 A 
ATOM     46  C   UNL     1      87.075 101.879  66.336  1.00  0.00     0.115 A 
BRANCH  46  47
ATOM     47  O   UNL     1      86.171 102.804  65.914  1.00  0.00    -0.508 OA
ATOM     48  H   UNL     1      85.657 103.116  66.679  1.00  0.00     0.293 HD
ENDBRANCH  46  47
ENDBRANCH  40  41
ENDBRANCH  38  40
ENDBRANCH  37  38
ENDBRANCH   1  37
TORSDOF 10
ENDMDL
MODEL 2
REMARK VINA RESULT:    -7.580      6.674      9.147
REMARK INTER + INTRA:         -13.254
REMARK INTER:                 -12.320
REMARK INTRA:                  -0.934
REMARK UNBOUND:                -0.357
REMARK SMILES C=C(C)[C@]12C[C@@H](C)[C@@]34O[C@](Cc5ccccc5)(O[C@@H]1[C@@H]3C=C(COC(=O)Cc1ccc(O)cc1)C[C@]1(O)C(=O)C(C)=C[C@@H]41)O2
REMARK SMILES IDX 23 1 22 2 21 3 20 4 9 5 8 6 10 7 6 8 18 10 44 11 19 12 5 13
REMARK SMILES IDX 7 14 4 15 11 16 12 17 13 18 17 19 14 20 16 21 15 22 2 23
REMARK SMILES IDX 3 24 1 25 35 26 36 27 43 28 38 29 42 30 39 32 40 33 41 34
REMARK SMILES IDX 37 35 24 37 25 38 26 39 27 40 28 41 29 42 34 43 30 44 33 45
REMARK SMILES IDX 31 46 32 47
REMARK H PARENT 37 36 32 48
REMARK Flexibility Score: 90.00
ROOT
ATOM      1  C   UNL     1      96.876  97.624  75.399  1.00  0.00     0.264 C 
ENDROOT
BRANCH   1   2
ATOM      2  C   UNL     1      97.933  97.705  76.476  1.00  0.00    -0.033 C 
ATOM      3  C   UNL     1      97.572  98.053  77.729  1.00  0.00    -0.015 C 
BRANCH   3   4
ATOM      4  C   UNL     1      98.440  98.276  78.957  1.00  0.00     0.078 C 
ATOM      5  O   UNL     1      98.516  96.132  80.186  1.00  0.00    -0.319 OA
ATOM      6  C   UNL     1      99.345  97.092  79.460  1.00  0.00     0.095 CG0
ATOM      7  C   UNL     1      97.547  96.710  81.083  1.00  0.00     0.289 C 
ATOM      8  C   UNL     1     100.427  97.700  80.444  1.00  0.00     0.023 C 
ATOM      9  G   UNL     1      99.914  96.282  78.259  1.00  0.00     0.000 G0
ATOM     10  O   UNL     1      96.668  97.594  80.394  1.00  0.00    -0.320 OA
ATOM     11  O   UNL     1      98.156  97.493  82.107  1.00  0.00    -0.313 OA
ATOM     12  C   UNL     1      97.556  98.698  80.156  1.00  0.00     0.170 C 
ATOM     13  C   UNL     1      99.858  98.913  81.241  1.00  0.00     0.049 C 
ATOM     14  C   UNL     1     101.065  96.700  81.424  1.00  0.00     0.011 C 
ATOM     15  C   UNL     1      98.353  98.777  81.481  1.00  0.00     0.122 C 
BRANCH   7  16
ATOM     16  C   UNL     1      96.753  95.584  81.713  1.00  0.00     0.135 C 
BRANCH  16  17
ATOM     17  C   UNL     1      96.087  94.711  80.678  1.00  0.00    -0.040 A 
ATOM     18  C   UNL     1      95.370  95.292  79.633  1.00  0.00     0.004 A 
ATOM     19  C   UNL     1      96.190  93.323  80.768  1.00  0.00     0.004 A 
ATOM     20  C   UNL     1      94.755  94.485  78.675  1.00  0.00     0.000 A 
ATOM     21  C   UNL     1      95.575  92.516  79.810  1.00  0.00     0.000 A 
ATOM     22  C   UNL     1      94.858  93.097  78.765  1.00  0.00     0.000 A 
ENDBRANCH  16  17
ENDBRANCH   7  16
BRANCH  15  23
ATOM     23  C   UNL     1      97.820  99.832  82.395  1.00  0.00    -0.046 C 
ATOM     24  C   UNL     1      96.327  99.952  82.468  1.00  0.00     0.042 C 
ATOM     25  C   UNL     1      98.631 100.628  83.109  1.00  0.00     0.010 C 
ENDBRANCH  15  23
ENDBRANCH   3   4
BRANCH   2  26
ATOM     26  C   UNL     1      99.322  97.359  75.975  1.00  0.00     0.078 C 
BRANCH  26  27
ATOM     27  C   UNL     1     100.407  97.134  77.026  1.00  0.00     0.140 C 
ATOM     28  C   UNL     1      99.899  96.300  78.221  1.00  0.00     0.086 CG0
ATOM     29  C   UNL     1     101.553  96.291  76.506  1.00  0.00     0.190 C 
ATOM     30  C   UNL     1     100.993  95.292  78.435  1.00  0.00    -0.010 C 
ATOM     31  G   UNL     1      99.353  97.106  79.436  1.00  0.00     0.000 G0
ATOM     32  O   UNL     1     102.140  96.469  75.449  1.00  0.00    -0.291 OA
ATOM     33  C   UNL     1     101.922  95.242  77.476  1.00  0.00    -0.008 C 
ATOM     34  C   UNL     1     103.077  94.335  77.316  1.00  0.00     0.048 C 
BRANCH  27  35
ATOM     35  O   UNL     1     101.027  98.352  77.401  1.00  0.00    -0.381 OA
ATOM     36  H   UNL     1     101.024  98.412  78.371  1.00  0.00     0.212 HD
ENDBRANCH  27  35
ENDBRANCH  26  27
ENDBRANCH   2  26
ENDBRANCH   1   2
BRANCH   1  37
ATOM     37  O   UNL     1      95.911  96.661  75.763  1.00  0.00    -0.461 OA
BRANCH  37  38
ATOM     38  C   UNL     1      95.056  96.250  74.766  1.00  0.00     0.310 C 
ATOM     39  O   UNL     1      95.398  95.696  73.731  1.00  0.00    -0.252 OA
BRANCH  38  40
ATOM     40  C   UNL     1      93.636  96.590  75.150  1.00  0.00     0.158 C 
BRANCH  40  41
ATOM     41  C   UNL     1      92.892  95.423  75.745  1.00  0.00    -0.037 A 
ATOM     42  C   UNL     1      93.246  94.119  75.396  1.00  0.00     0.008 A 
ATOM     43  C   UNL     1      91.850  95.645  76.644  1.00  0.00     0.008 A 
ATOM     44  C   UNL     1      92.557  93.038  75.946  1.00  0.00     0.046 A 
ATOM     45  C   UNL     1      91.161  94.564  77.195  1.00  0.00     0.046 A 
ATOM     46  C   UNL     1      91.514  93.261  76.846  1.00  0.00     0.115 A 
BRANCH  46  47
ATOM     47  O   UNL     1      90.842  92.206  77.382  1.00  0.00    -0.508 OA
ATOM     48  H   UNL     1      91.482  91.602  77.797  1.00  0.00     0.293 HD
ENDBRANCH  46  47
ENDBRANCH  40  41
ENDBRANCH  38  40
ENDBRANCH  37  38
ENDBRANCH   1  37
TORSDOF 10
ENDMDL
MODEL 3
REMARK VINA RESULT:    -6.884     21.516     25.123
REMARK INTER + INTRA:         -12.071
REMARK INTER:                 -10.356
REMARK INTRA:                  -1.715
REMARK UNBOUND:                -0.357
REMARK SMILES C=C(C)[C@]12C[C@@H](C)[C@@]34O[C@](Cc5ccccc5)(O[C@@H]1[C@@H]3C=C(COC(=O)Cc1ccc(O)cc1)C[C@]1(O)C(=O)C(C)=C[C@@H]41)O2
REMARK SMILES IDX 23 1 22 2 21 3 20 4 9 5 8 6 10 7 6 8 18 10 44 11 19 12 5 13
REMARK SMILES IDX 7 14 4 15 11 16 12 17 13 18 17 19 14 20 16 21 15 22 2 23
REMARK SMILES IDX 3 24 1 25 35 26 36 27 43 28 38 29 42 30 39 32 40 33 41 34
REMARK SMILES IDX 37 35 24 37 25 38 26 39 27 40 28 41 29 42 34 43 30 44 33 45
REMARK SMILES IDX 31 46 32 47
REMARK H PARENT 37 36 32 48
REMARK Flexibility Score: 90.00
ROOT
ATOM      1  C   UNL     1      70.240  88.794  69.664  1.00  0.00     0.264 C 
ENDROOT
BRANCH   1   2
ATOM      2  C   UNL     1      71.677  88.950  69.225  1.00  0.00    -0.033 C 
ATOM      3  C   UNL     1      72.399  87.849  68.929  1.00  0.00    -0.015 C 
BRANCH   3   4
ATOM      4  C   UNL     1      73.865  87.731  68.544  1.00  0.00     0.078 C 
ATOM      5  O   UNL     1      73.965  87.766  66.073  1.00  0.00    -0.319 OA
ATOM      6  C   UNL     1      74.368  88.503  67.269  1.00  0.00     0.095 CG0
ATOM      7  C   UNL     1      74.134  86.337  66.144  1.00  0.00     0.289 C 
ATOM      8  C   UNL     1      75.950  88.564  67.338  1.00  0.00     0.023 C 
ATOM      9  G   UNL     1      73.651  89.879  67.137  1.00  0.00     0.000 G0
ATOM     10  O   UNL     1      73.416  85.785  67.244  1.00  0.00    -0.320 OA
ATOM     11  O   UNL     1      75.495  85.962  66.345  1.00  0.00    -0.313 OA
ATOM     12  C   UNL     1      74.235  86.242  68.333  1.00  0.00     0.170 C 
ATOM     13  C   UNL     1      76.542  87.291  68.017  1.00  0.00     0.049 C 
ATOM     14  C   UNL     1      76.662  88.803  65.996  1.00  0.00     0.011 C 
ATOM     15  C   UNL     1      75.667  86.060  67.774  1.00  0.00     0.122 C 
BRANCH   7  16
ATOM     16  C   UNL     1      73.630  85.734  64.848  1.00  0.00     0.135 C 
BRANCH  16  17
ATOM     17  C   UNL     1      74.188  84.353  64.612  1.00  0.00    -0.040 A 
ATOM     18  C   UNL     1      75.056  84.124  63.545  1.00  0.00     0.004 A 
ATOM     19  C   UNL     1      73.834  83.305  65.461  1.00  0.00     0.004 A 
ATOM     20  C   UNL     1      75.572  82.846  63.327  1.00  0.00     0.000 A 
ATOM     21  C   UNL     1      74.350  82.027  65.243  1.00  0.00     0.000 A 
ATOM     22  C   UNL     1      75.219  81.798  64.176  1.00  0.00     0.000 A 
ENDBRANCH  16  17
ENDBRANCH   7  16
BRANCH  15  23
ATOM     23  C   UNL     1      76.304  84.799  68.258  1.00  0.00    -0.046 C 
ATOM     24  C   UNL     1      77.178  84.078  67.275  1.00  0.00     0.042 C 
ATOM     25  C   UNL     1      76.105  84.336  69.502  1.00  0.00     0.010 C 
ENDBRANCH  15  23
ENDBRANCH   3   4
BRANCH   2  26
ATOM     26  C   UNL     1      72.130  90.397  69.169  1.00  0.00     0.078 C 
BRANCH  26  27
ATOM     27  C   UNL     1      73.457  90.686  68.471  1.00  0.00     0.140 C 
ATOM     28  C   UNL     1      73.617  89.882  67.164  1.00  0.00     0.086 CG0
ATOM     29  C   UNL     1      73.558  92.117  67.987  1.00  0.00     0.190 C 
ATOM     30  C   UNL     1      74.113  90.907  66.182  1.00  0.00    -0.010 C 
ATOM     31  G   UNL     1      74.358  88.519  67.284  1.00  0.00     0.000 G0
ATOM     32  O   UNL     1      73.305  93.110  68.654  1.00  0.00    -0.291 OA
ATOM     33  C   UNL     1      74.066  92.174  66.603  1.00  0.00    -0.008 C 
ATOM     34  C   UNL     1      74.390  93.427  65.890  1.00  0.00     0.048 C 
BRANCH  27  35
ATOM     35  O   UNL     1      74.551  90.553  69.363  1.00  0.00    -0.381 OA
ATOM     36  H   UNL     1      74.238  90.746  70.263  1.00  0.00     0.212 HD
ENDBRANCH  27  35
ENDBRANCH  26  27
ENDBRANCH   2  26
ENDBRANCH   1   2
BRANCH   1  37
ATOM     37  O   UNL     1      69.523  88.090  68.672  1.00  0.00    -0.461 OA
BRANCH  37  38
ATOM     38  C   UNL     1      68.880  86.945  69.083  1.00  0.00     0.310 C 
ATOM     39  O   UNL     1      69.024  86.413  70.175  1.00  0.00    -0.252 OA
BRANCH  38  40
ATOM     40  C   UNL     1      67.974  86.452  67.981  1.00  0.00     0.158 C 
BRANCH  40  41
ATOM     41  C   UNL     1      68.633  85.429  67.093  1.00  0.00    -0.037 A 
ATOM     42  C   UNL     1      68.026  85.052  65.894  1.00  0.00     0.008 A 
ATOM     43  C   UNL     1      69.848  84.857  67.468  1.00  0.00     0.008 A 
ATOM     44  C   UNL     1      68.635  84.103  65.072  1.00  0.00     0.046 A 
ATOM     45  C   UNL     1      70.458  83.909  66.646  1.00  0.00     0.046 A 
ATOM     46  C   UNL     1      69.851  83.532  65.448  1.00  0.00     0.115 A 
BRANCH  46  47
ATOM     47  O   UNL     1      70.445  82.607  64.647  1.00  0.00    -0.508 OA
ATOM     48  H   UNL     1      69.808  82.321  63.969  1.00  0.00     0.293 HD
ENDBRANCH  46  47
ENDBRANCH  40  41
ENDBRANCH  38  40
ENDBRANCH  37  38
ENDBRANCH   1  37
TORSDOF 10
ENDMDL
MODEL 4
REMARK VINA RESULT:    -6.866      4.254      6.699
REMARK INTER + INTRA:         -12.040
REMARK INTER:                 -10.183
REMARK INTRA:                  -1.858
REMARK UNBOUND:                -0.357
REMARK SMILES C=C(C)[C@]12C[C@@H](C)[C@@]34O[C@](Cc5ccccc5)(O[C@@H]1[C@@H]3C=C(COC(=O)Cc1ccc(O)cc1)C[C@]1(O)C(=O)C(C)=C[C@@H]41)O2
REMARK SMILES IDX 23 1 22 2 21 3 20 4 9 5 8 6 10 7 6 8 18 10 44 11 19 12 5 13
REMARK SMILES IDX 7 14 4 15 11 16 12 17 13 18 17 19 14 20 16 21 15 22 2 23
REMARK SMILES IDX 3 24 1 25 35 26 36 27 43 28 38 29 42 30 39 32 40 33 41 34
REMARK SMILES IDX 37 35 24 37 25 38 26 39 27 40 28 41 29 42 34 43 30 44 33 45
REMARK SMILES IDX 31 46 32 47
REMARK H PARENT 37 36 32 48
REMARK Flexibility Score: 90.00
ROOT
ATOM      1  C   UNL     1      89.766  98.474  70.478  1.00  0.00     0.264 C 
ENDROOT
BRANCH   1   2
ATOM      2  C   UNL     1      90.651  99.697  70.558  1.00  0.00    -0.033 C 
ATOM      3  C   UNL     1      90.105 100.885  70.892  1.00  0.00    -0.015 C 
BRANCH   3   4
ATOM      4  C   UNL     1      90.754 102.258  70.966  1.00  0.00     0.078 C 
ATOM      5  O   UNL     1      91.508 102.573  73.300  1.00  0.00    -0.319 OA
ATOM      6  C   UNL     1      91.986 102.453  71.924  1.00  0.00     0.095 CG0
ATOM      7  C   UNL     1      90.341 103.398  73.476  1.00  0.00     0.289 C 
ATOM      8  C   UNL     1      92.713 103.796  71.503  1.00  0.00     0.023 C 
ATOM      9  G   UNL     1      92.885 101.181  71.936  1.00  0.00     0.000 G0
ATOM     10  O   UNL     1      89.251 102.928  72.688  1.00  0.00    -0.320 OA
ATOM     11  O   UNL     1      90.561 104.745  73.063  1.00  0.00    -0.313 OA
ATOM     12  C   UNL     1      89.701 103.315  71.380  1.00  0.00     0.170 C 
ATOM     13  C   UNL     1      91.698 104.855  70.976  1.00  0.00     0.049 C 
ATOM     14  C   UNL     1      93.600 104.435  72.586  1.00  0.00     0.011 C 
ATOM     15  C   UNL     1      90.328 104.706  71.640  1.00  0.00     0.122 C 
BRANCH   7  16
ATOM     16  C   UNL     1      89.960 103.376  74.943  1.00  0.00     0.135 C 
BRANCH  16  17
ATOM     17  C   UNL     1      89.607 104.750  75.457  1.00  0.00    -0.040 A 
ATOM     18  C   UNL     1      88.394 105.338  75.099  1.00  0.00     0.004 A 
ATOM     19  C   UNL     1      90.493 105.430  76.291  1.00  0.00     0.004 A 
ATOM     20  C   UNL     1      88.067 106.608  75.575  1.00  0.00     0.000 A 
ATOM     21  C   UNL     1      90.166 106.701  76.767  1.00  0.00     0.000 A 
ATOM     22  C   UNL     1      88.954 107.289  76.409  1.00  0.00     0.000 A 
ENDBRANCH  16  17
ENDBRANCH   7  16
BRANCH  15  23
ATOM     23  C   UNL     1      89.395 105.818  71.286  1.00  0.00    -0.046 C 
ATOM     24  C   UNL     1      89.878 107.207  71.584  1.00  0.00     0.042 C 
ATOM     25  C   UNL     1      88.195 105.588  70.734  1.00  0.00     0.010 C 
ENDBRANCH  15  23
ENDBRANCH   3   4
BRANCH   2  26
ATOM     26  C   UNL     1      92.105  99.401  70.242  1.00  0.00     0.078 C 
BRANCH  26  27
ATOM     27  C   UNL     1      93.122 100.500  70.543  1.00  0.00     0.140 C 
ATOM     28  C   UNL     1      92.880 101.160  71.917  1.00  0.00     0.086 CG0
ATOM     29  C   UNL     1      94.531  99.964  70.684  1.00  0.00     0.190 C 
ATOM     30  C   UNL     1      94.253 101.215  72.526  1.00  0.00    -0.010 C 
ATOM     31  G   UNL     1      91.993 102.439  71.916  1.00  0.00     0.000 G0
ATOM     32  O   UNL     1      95.081  99.203  69.902  1.00  0.00    -0.291 OA
ATOM     33  C   UNL     1      95.196 100.530  71.873  1.00  0.00    -0.008 C 
ATOM     34  C   UNL     1      96.614 100.297  72.219  1.00  0.00     0.048 C 
BRANCH  27  35
ATOM     35  O   UNL     1      93.218 101.425  69.473  1.00  0.00    -0.381 OA
ATOM     36  H   UNL     1      93.880 102.098  69.707  1.00  0.00     0.212 HD
ENDBRANCH  27  35
ENDBRANCH  26  27
ENDBRANCH   2  26
ENDBRANCH   1   2
BRANCH   1  37
ATOM     37  O   UNL     1      89.018  98.517  69.282  1.00  0.00    -0.461 OA
BRANCH  37  38
ATOM     38  C   UNL     1      89.590  97.914  68.186  1.00  0.00     0.310 C 
ATOM     39  O   UNL     1      90.413  97.010  68.231  1.00  0.00    -0.252 OA
BRANCH  38  40
ATOM     40  C   UNL     1      89.044  98.539  66.924  1.00  0.00     0.158 C 
BRANCH  40  41
ATOM     41  C   UNL     1      89.230 100.034  66.881  1.00  0.00    -0.037 A 
ATOM     42  C   UNL     1      90.515 100.577  66.899  1.00  0.00     0.008 A 
ATOM     43  C   UNL     1      88.119 100.874  66.824  1.00  0.00     0.008 A 
ATOM     44  C   UNL     1      90.687 101.961  66.860  1.00  0.00     0.046 A 
ATOM     45  C   UNL     1      88.291 102.258  66.784  1.00  0.00     0.046 A 
ATOM     46  C   UNL     1      89.575 102.802  66.803  1.00  0.00     0.115 A 
BRANCH  46  47
ATOM     47  O   UNL     1      89.744 104.151  66.765  1.00  0.00    -0.508 OA
ATOM     48  H   UNL     1      90.030 104.458  67.643  1.00  0.00     0.293 HD
ENDBRANCH  46  47
ENDBRANCH  40  41
ENDBRANCH  38  40
ENDBRANCH  37  38
ENDBRANCH   1  37
TORSDOF 10
ENDMDL
MODEL 5
REMARK VINA RESULT:    -6.861      1.769      2.443
REMARK INTER + INTRA:         -12.031
REMARK INTER:                 -11.923
REMARK INTRA:                  -0.108
REMARK UNBOUND:                -0.357
REMARK SMILES C=C(C)[C@]12C[C@@H](C)[C@@]34O[C@](Cc5ccccc5)(O[C@@H]1[C@@H]3C=C(COC(=O)Cc1ccc(O)cc1)C[C@]1(O)C(=O)C(C)=C[C@@H]41)O2
REMARK SMILES IDX 23 1 22 2 21 3 20 4 9 5 8 6 10 7 6 8 18 10 44 11 19 12 5 13
REMARK SMILES IDX 7 14 4 15 11 16 12 17 13 18 17 19 14 20 16 21 15 22 2 23
REMARK SMILES IDX 3 24 1 25 35 26 36 27 43 28 38 29 42 30 39 32 40 33 41 34
REMARK SMILES IDX 37 35 24 37 25 38 26 39 27 40 28 41 29 42 34 43 30 44 33 45
REMARK SMILES IDX 31 46 32 47
REMARK H PARENT 37 36 32 48
REMARK Flexibility Score: 90.00
ROOT
ATOM      1  C   UNL     1      90.341  99.016  69.706  1.00  0.00     0.264 C 
ENDROOT
BRANCH   1   2
ATOM      2  C   UNL     1      91.489  99.988  69.851  1.00  0.00    -0.033 C 
ATOM      3  C   UNL     1      92.170 100.035  71.015  1.00  0.00    -0.015 C 
BRANCH   3   4
ATOM      4  C   UNL     1      93.298 100.962  71.436  1.00  0.00     0.078 C 
ATOM      5  O   UNL     1      95.418  99.827  70.857  1.00  0.00    -0.319 OA
ATOM      6  C   UNL     1      94.602 101.002  70.557  1.00  0.00     0.095 CG0
ATOM      7  C   UNL     1      95.519  99.489  72.254  1.00  0.00     0.289 C 
ATOM      8  C   UNL     1      95.405 102.310  70.948  1.00  0.00     0.023 C 
ATOM      9  G   UNL     1      94.255 100.857  69.046  1.00  0.00     0.000 G0
ATOM     10  O   UNL     1      94.234  99.271  72.828  1.00  0.00    -0.320 OA
ATOM     11  O   UNL     1      96.112 100.533  73.023  1.00  0.00    -0.313 OA
ATOM     12  C   UNL     1      93.748 100.621  72.878  1.00  0.00     0.170 C 
ATOM     13  C   UNL     1      95.221 102.665  72.456  1.00  0.00     0.049 C 
ATOM     14  C   UNL     1      96.905 102.293  70.608  1.00  0.00     0.011 C 
ATOM     15  C   UNL     1      95.007 101.414  73.309  1.00  0.00     0.122 C 
BRANCH   7  16
ATOM     16  C   UNL     1      96.357  98.232  72.378  1.00  0.00     0.135 C 
BRANCH  16  17
ATOM     17  C   UNL     1      95.947  97.393  73.563  1.00  0.00    -0.040 A 
ATOM     18  C   UNL     1      94.904  96.475  73.441  1.00  0.00     0.004 A 
ATOM     19  C   UNL     1      96.612  97.536  74.781  1.00  0.00     0.004 A 
ATOM     20  C   UNL     1      94.526  95.699  74.537  1.00  0.00     0.000 A 
ATOM     21  C   UNL     1      96.233  96.760  75.877  1.00  0.00     0.000 A 
ATOM     22  C   UNL     1      95.191  95.842  75.755  1.00  0.00     0.000 A 
ENDBRANCH  16  17
ENDBRANCH   7  16
BRANCH  15  23
ATOM     23  C   UNL     1      95.009 101.711  74.773  1.00  0.00    -0.046 C 
ATOM     24  C   UNL     1      94.031 102.747  75.240  1.00  0.00     0.042 C 
ATOM     25  C   UNL     1      95.839 101.087  75.622  1.00  0.00     0.010 C 
ENDBRANCH  15  23
ENDBRANCH   3   4
BRANCH   2  26
ATOM     26  C   UNL     1      91.732 100.813  68.601  1.00  0.00     0.078 C 
BRANCH  26  27
ATOM     27  C   UNL     1      93.002 101.662  68.562  1.00  0.00     0.140 C 
ATOM     28  C   UNL     1      94.242 100.880  69.042  1.00  0.00     0.086 CG0
ATOM     29  C   UNL     1      93.391 102.057  67.153  1.00  0.00     0.190 C 
ATOM     30  C   UNL     1      95.283 101.207  68.008  1.00  0.00    -0.010 C 
ATOM     31  G   UNL     1      94.596 101.014  70.551  1.00  0.00     0.000 G0
ATOM     32  O   UNL     1      92.639 102.539  66.320  1.00  0.00    -0.291 OA
ATOM     33  C   UNL     1      94.832 101.843  66.923  1.00  0.00    -0.008 C 
ATOM     34  C   UNL     1      95.543 102.243  65.690  1.00  0.00     0.048 C 
BRANCH  27  35
ATOM     35  O   UNL     1      92.816 102.902  69.223  1.00  0.00    -0.381 OA
ATOM     36  H   UNL     1      93.508 102.996  69.900  1.00  0.00     0.212 HD
ENDBRANCH  27  35
ENDBRANCH  26  27
ENDBRANCH   2  26
ENDBRANCH   1   2
BRANCH   1  37
ATOM     37  O   UNL     1      89.676  99.259  68.485  1.00  0.00    -0.461 OA
BRANCH  37  38
ATOM     38  C   UNL     1      89.491  98.168  67.666  1.00  0.00     0.310 C 
ATOM     39  O   UNL     1      89.861  97.030  67.918  1.00  0.00    -0.252 OA
BRANCH  38  40
ATOM     40  C   UNL     1      88.763  98.595  66.414  1.00  0.00     0.158 C 
BRANCH  40  41
ATOM     41  C   UNL     1      88.381 100.053  66.425  1.00  0.00    -0.037 A 
ATOM     42  C   UNL     1      87.035 100.421  66.451  1.00  0.00     0.008 A 
ATOM     43  C   UNL     1      89.371 101.034  66.409  1.00  0.00     0.008 A 
ATOM     44  C   UNL     1      86.681 101.771  66.460  1.00  0.00     0.046 A 
ATOM     45  C   UNL     1      89.018 102.384  66.418  1.00  0.00     0.046 A 
ATOM     46  C   UNL     1      87.673 102.752  66.444  1.00  0.00     0.115 A 
BRANCH  46  47
ATOM     47  O   UNL     1      87.328 104.068  66.452  1.00  0.00    -0.508 OA
ATOM     48  H   UNL     1      88.003 104.575  65.968  1.00  0.00     0.293 HD
ENDBRANCH  46  47
ENDBRANCH  40  41
ENDBRANCH  38  40
ENDBRANCH  37  38
ENDBRANCH   1  37
TORSDOF 10
ENDMDL
MODEL 6
REMARK VINA RESULT:    -6.719      1.973      2.484
REMARK INTER + INTRA:         -11.790
REMARK INTER:                 -10.946
REMARK INTRA:                  -0.844
REMARK UNBOUND:                -0.357
REMARK SMILES C=C(C)[C@]12C[C@@H](C)[C@@]34O[C@](Cc5ccccc5)(O[C@@H]1[C@@H]3C=C(COC(=O)Cc1ccc(O)cc1)C[C@]1(O)C(=O)C(C)=C[C@@H]41)O2
REMARK SMILES IDX 23 1 22 2 21 3 20 4 9 5 8 6 10 7 6 8 18 10 44 11 19 12 5 13
REMARK SMILES IDX 7 14 4 15 11 16 12 17 13 18 17 19 14 20 16 21 15 22 2 23
REMARK SMILES IDX 3 24 1 25 35 26 36 27 43 28 38 29 42 30 39 32 40 33 41 34
REMARK SMILES IDX 37 35 24 37 25 38 26 39 27 40 28 41 29 42 34 43 30 44 33 45
REMARK SMILES IDX 31 46 32 47
REMARK H PARENT 37 36 32 48
REMARK Flexibility Score: 90.00
ROOT
ATOM      1  C   UNL     1      92.159 101.137  72.463  1.00  0.00     0.264 C 
ENDROOT
BRANCH   1   2
ATOM      2  C   UNL     1      93.611 100.735  72.340  1.00  0.00    -0.033 C 
ATOM      3  C   UNL     1      94.208 100.099  73.370  1.00  0.00    -0.015 C 
BRANCH   3   4
ATOM      4  C   UNL     1      95.656  99.662  73.526  1.00  0.00     0.078 C 
ATOM      5  O   UNL     1      95.802  97.341  72.687  1.00  0.00    -0.319 OA
ATOM      6  C   UNL     1      96.269  98.704  72.440  1.00  0.00     0.095 CG0
ATOM      7  C   UNL     1      95.799  96.932  74.068  1.00  0.00     0.289 C 
ATOM      8  C   UNL     1      97.845  98.753  72.593  1.00  0.00     0.023 C 
ATOM      9  G   UNL     1      95.723  99.050  71.024  1.00  0.00     0.000 G0
ATOM     10  O   UNL     1      95.001  97.804  74.864  1.00  0.00    -0.320 OA
ATOM     11  O   UNL     1      97.101  96.965  74.646  1.00  0.00    -0.313 OA
ATOM     12  C   UNL     1      95.849  98.963  74.894  1.00  0.00     0.170 C 
ATOM     13  C   UNL     1      98.270  98.959  74.079  1.00  0.00     0.049 C 
ATOM     14  C   UNL     1      98.604  97.549  72.008  1.00  0.00     0.011 C 
ATOM     15  C   UNL     1      97.260  98.342  75.047  1.00  0.00     0.122 C 
BRANCH   7  16
ATOM     16  C   UNL     1      95.249  95.521  74.144  1.00  0.00     0.135 C 
BRANCH  16  17
ATOM     17  C   UNL     1      94.470  95.285  75.414  1.00  0.00    -0.040 A 
ATOM     18  C   UNL     1      93.093  95.507  75.439  1.00  0.00     0.004 A 
ATOM     19  C   UNL     1      95.127  94.844  76.562  1.00  0.00     0.004 A 
ATOM     20  C   UNL     1      92.373  95.287  76.614  1.00  0.00     0.000 A 
ATOM     21  C   UNL     1      94.406  94.625  77.737  1.00  0.00     0.000 A 
ATOM     22  C   UNL     1      93.030  94.847  77.762  1.00  0.00     0.000 A 
ENDBRANCH  16  17
ENDBRANCH   7  16
BRANCH  15  23
ATOM     23  C   UNL     1      97.733  98.368  76.464  1.00  0.00    -0.046 C 
ATOM     24  C   UNL     1      97.979  97.034  77.104  1.00  0.00     0.042 C 
ATOM     25  C   UNL     1      97.927  99.518  77.126  1.00  0.00     0.010 C 
ENDBRANCH  15  23
ENDBRANCH   3   4
BRANCH   2  26
ATOM     26  C   UNL     1      94.224 101.114  71.005  1.00  0.00     0.078 C 
BRANCH  26  27
ATOM     27  C   UNL     1      95.617 100.568  70.696  1.00  0.00     0.140 C 
ATOM     28  C   UNL     1      95.740  99.065  71.021  1.00  0.00     0.086 CG0
ATOM     29  C   UNL     1      95.941 100.609  69.218  1.00  0.00     0.190 C 
ATOM     30  C   UNL     1      96.427  98.500  69.809  1.00  0.00    -0.010 C 
ATOM     31  G   UNL     1      96.277  98.711  72.438  1.00  0.00     0.000 G0
ATOM     32  O   UNL     1      95.789 101.576  68.486  1.00  0.00    -0.291 OA
ATOM     33  C   UNL     1      96.531  99.333  68.770  1.00  0.00    -0.008 C 
ATOM     34  C   UNL     1      97.064  99.099  67.412  1.00  0.00     0.048 C 
BRANCH  27  35
ATOM     35  O   UNL     1      96.629 101.366  71.287  1.00  0.00    -0.381 OA
ATOM     36  H   UNL     1      96.492 101.373  72.249  1.00  0.00     0.212 HD
ENDBRANCH  27  35
ENDBRANCH  26  27
ENDBRANCH   2  26
ENDBRANCH   1   2
BRANCH   1  37
ATOM     37  O   UNL     1      91.900 102.218  71.592  1.00  0.00    -0.461 OA
BRANCH  37  38
ATOM     38  C   UNL     1      90.578 102.558  71.422  1.00  0.00     0.310 C 
ATOM     39  O   UNL     1      89.801 102.831  72.327  1.00  0.00    -0.252 OA
BRANCH  38  40
ATOM     40  C   UNL     1      90.238 102.540  69.951  1.00  0.00     0.158 C 
BRANCH  40  41
ATOM     41  C   UNL     1      90.222 101.151  69.368  1.00  0.00    -0.037 A 
ATOM     42  C   UNL     1      89.691 100.092  70.105  1.00  0.00     0.008 A 
ATOM     43  C   UNL     1      90.737 100.923  68.093  1.00  0.00     0.008 A 
ATOM     44  C   UNL     1      89.677  98.805  69.566  1.00  0.00     0.046 A 
ATOM     45  C   UNL     1      90.722  99.637  67.553  1.00  0.00     0.046 A 
ATOM     46  C   UNL     1      90.192  98.578  68.289  1.00  0.00     0.115 A 
BRANCH  46  47
ATOM     47  O   UNL     1      90.179  97.323  67.764  1.00  0.00    -0.508 OA
ATOM     48  H   UNL     1      89.843  97.366  66.851  1.00  0.00     0.293 HD
ENDBRANCH  46  47
ENDBRANCH  40  41
ENDBRANCH  38  40
ENDBRANCH  37  38
ENDBRANCH   1  37
TORSDOF 10
ENDMDL
MODEL 7
REMARK VINA RESULT:    -6.630     22.961     26.724
REMARK INTER + INTRA:         -11.639
REMARK INTER:                 -11.024
REMARK INTRA:                  -0.615
REMARK UNBOUND:                -0.357
REMARK SMILES C=C(C)[C@]12C[C@@H](C)[C@@]34O[C@](Cc5ccccc5)(O[C@@H]1[C@@H]3C=C(COC(=O)Cc1ccc(O)cc1)C[C@]1(O)C(=O)C(C)=C[C@@H]41)O2
REMARK SMILES IDX 23 1 22 2 21 3 20 4 9 5 8 6 10 7 6 8 18 10 44 11 19 12 5 13
REMARK SMILES IDX 7 14 4 15 11 16 12 17 13 18 17 19 14 20 16 21 15 22 2 23
REMARK SMILES IDX 3 24 1 25 35 26 36 27 43 28 38 29 42 30 39 32 40 33 41 34
REMARK SMILES IDX 37 35 24 37 25 38 26 39 27 40 28 41 29 42 34 43 30 44 33 45
REMARK SMILES IDX 31 46 32 47
REMARK H PARENT 37 36 32 48
REMARK Flexibility Score: 90.00
ROOT
ATOM      1  C   UNL     1      70.549  86.794  68.960  1.00  0.00     0.264 C 
ENDROOT
BRANCH   1   2
ATOM      2  C   UNL     1      71.808  87.148  68.202  1.00  0.00    -0.033 C 
ATOM      3  C   UNL     1      72.532  86.164  67.631  1.00  0.00    -0.015 C 
BRANCH   3   4
ATOM      4  C   UNL     1      73.857  86.246  66.889  1.00  0.00     0.078 C 
ATOM      5  O   UNL     1      73.324  86.495  64.487  1.00  0.00    -0.319 OA
ATOM      6  C   UNL     1      73.948  87.173  65.621  1.00  0.00     0.095 CG0
ATOM      7  C   UNL     1      73.634  85.093  64.361  1.00  0.00     0.289 C 
ATOM      8  C   UNL     1      75.484  87.408  65.309  1.00  0.00     0.023 C 
ATOM      9  G   UNL     1      73.100  88.463  65.816  1.00  0.00     0.000 G0
ATOM     10  O   UNL     1      73.271  84.375  65.537  1.00  0.00    -0.320 OA
ATOM     11  O   UNL     1      75.029  84.861  64.182  1.00  0.00    -0.313 OA
ATOM     12  C   UNL     1      74.294  84.832  66.436  1.00  0.00     0.170 C 
ATOM     13  C   UNL     1      76.341  86.161  65.683  1.00  0.00     0.049 C 
ATOM     14  C   UNL     1      75.808  87.836  63.868  1.00  0.00     0.011 C 
ATOM     15  C   UNL     1      75.548  84.862  65.528  1.00  0.00     0.122 C 
BRANCH   7  16
ATOM     16  C   UNL     1      72.875  84.544  63.169  1.00  0.00     0.135 C 
BRANCH  16  17
ATOM     17  C   UNL     1      72.284  83.186  63.451  1.00  0.00    -0.040 A 
ATOM     18  C   UNL     1      71.011  83.081  64.011  1.00  0.00     0.004 A 
ATOM     19  C   UNL     1      73.011  82.034  63.152  1.00  0.00     0.004 A 
ATOM     20  C   UNL     1      70.464  81.824  64.271  1.00  0.00     0.000 A 
ATOM     21  C   UNL     1      72.465  80.777  63.413  1.00  0.00     0.000 A 
ATOM     22  C   UNL     1      71.192  80.672  63.972  1.00  0.00     0.000 A 
ENDBRANCH  16  17
ENDBRANCH   7  16
BRANCH  15  23
ATOM     23  C   UNL     1      76.399  83.646  65.705  1.00  0.00    -0.046 C 
ATOM     24  C   UNL     1      77.554  83.778  66.652  1.00  0.00     0.042 C 
ATOM     25  C   UNL     1      76.144  82.502  65.054  1.00  0.00     0.010 C 
ENDBRANCH  15  23
ENDBRANCH   3   4
BRANCH   2  26
ATOM     26  C   UNL     1      72.091  88.638  68.182  1.00  0.00     0.078 C 
BRANCH  26  27
ATOM     27  C   UNL     1      73.190  89.127  67.240  1.00  0.00     0.140 C 
ATOM     28  C   UNL     1      73.099  88.470  65.847  1.00  0.00     0.086 CG0
ATOM     29  C   UNL     1      73.062  90.600  66.914  1.00  0.00     0.190 C 
ATOM     30  C   UNL     1      73.268  89.628  64.903  1.00  0.00    -0.010 C 
ATOM     31  G   UNL     1      73.951  87.184  65.639  1.00  0.00     0.000 G0
ATOM     32  O   UNL     1      72.897  91.494  67.730  1.00  0.00    -0.291 OA
ATOM     33  C   UNL     1      73.223  90.838  65.467  1.00  0.00    -0.008 C 
ATOM     34  C   UNL     1      73.270  92.179  64.848  1.00  0.00     0.048 C 
BRANCH  27  35
ATOM     35  O   UNL     1      74.471  89.024  67.840  1.00  0.00    -0.381 OA
ATOM     36  H   UNL     1      74.717  89.897  68.190  1.00  0.00     0.212 HD
ENDBRANCH  27  35
ENDBRANCH  26  27
ENDBRANCH   2  26
ENDBRANCH   1   2
BRANCH   1  37
ATOM     37  O   UNL     1      69.614  86.223  68.071  1.00  0.00    -0.461 OA
BRANCH  37  38
ATOM     38  C   UNL     1      69.461  84.858  68.143  1.00  0.00     0.310 C 
ATOM     39  O   UNL     1      69.340  84.112  67.181  1.00  0.00    -0.252 OA
BRANCH  38  40
ATOM     40  C   UNL     1      69.468  84.426  69.590  1.00  0.00     0.158 C 
BRANCH  40  41
ATOM     41  C   UNL     1      68.128  84.592  70.259  1.00  0.00    -0.037 A 
ATOM     42  C   UNL     1      68.010  85.388  71.398  1.00  0.00     0.008 A 
ATOM     43  C   UNL     1      67.005  83.949  69.739  1.00  0.00     0.008 A 
ATOM     44  C   UNL     1      66.770  85.540  72.018  1.00  0.00     0.046 A 
ATOM     45  C   UNL     1      65.764  84.101  70.358  1.00  0.00     0.046 A 
ATOM     46  C   UNL     1      65.646  84.897  71.498  1.00  0.00     0.115 A 
BRANCH  46  47
ATOM     47  O   UNL     1      64.436  85.045  72.103  1.00  0.00    -0.508 OA
ATOM     48  H   UNL     1      63.816  84.395  71.731  1.00  0.00     0.293 HD
ENDBRANCH  46  47
ENDBRANCH  40  41
ENDBRANCH  38  40
ENDBRANCH  37  38
ENDBRANCH   1  37
TORSDOF 10
ENDMDL
MODEL 8
REMARK VINA RESULT:    -6.584      5.878     10.135
REMARK INTER + INTRA:         -11.561
REMARK INTER:                  -9.900
REMARK INTRA:                  -1.661
REMARK UNBOUND:                -0.357
REMARK SMILES C=C(C)[C@]12C[C@@H](C)[C@@]34O[C@](Cc5ccccc5)(O[C@@H]1[C@@H]3C=C(COC(=O)Cc1ccc(O)cc1)C[C@]1(O)C(=O)C(C)=C[C@@H]41)O2
REMARK SMILES IDX 23 1 22 2 21 3 20 4 9 5 8 6 10 7 6 8 18 10 44 11 19 12 5 13
REMARK SMILES IDX 7 14 4 15 11 16 12 17 13 18 17 19 14 20 16 21 15 22 2 23
REMARK SMILES IDX 3 24 1 25 35 26 36 27 43 28 38 29 42 30 39 32 40 33 41 34
REMARK SMILES IDX 37 35 24 37 25 38 26 39 27 40 28 41 29 42 34 43 30 44 33 45
REMARK SMILES IDX 31 46 32 47
REMARK H PARENT 37 36 32 48
REMARK Flexibility Score: 90.00
ROOT
ATOM      1  C   UNL     1      98.068  94.181  80.273  1.00  0.00     0.264 C 
ENDROOT
BRANCH   1   2
ATOM      2  C   UNL     1      98.529  95.571  79.900  1.00  0.00    -0.033 C 
ATOM      3  C   UNL     1      98.708  95.880  78.599  1.00  0.00    -0.015 C 
BRANCH   3   4
ATOM      4  C   UNL     1      99.230  97.163  77.974  1.00  0.00     0.078 C 
ATOM      5  O   UNL     1      97.260  98.567  77.457  1.00  0.00    -0.319 OA
ATOM      6  C   UNL     1      98.469  98.507  78.276  1.00  0.00     0.095 CG0
ATOM      7  C   UNL     1      97.421  98.139  76.091  1.00  0.00     0.289 C 
ATOM      8  C   UNL     1      99.431  99.702  77.880  1.00  0.00     0.023 C 
ATOM      9  G   UNL     1      97.946  98.528  79.742  1.00  0.00     0.000 G0
ATOM     10  O   UNL     1      97.915  96.805  76.020  1.00  0.00    -0.320 OA
ATOM     11  O   UNL     1      98.365  98.937  75.380  1.00  0.00    -0.313 OA
ATOM     12  C   UNL     1      99.274  97.018  76.433  1.00  0.00     0.170 C 
ATOM     13  C   UNL     1     100.331  99.332  76.662  1.00  0.00     0.049 C 
ATOM     14  C   UNL     1      98.736 101.048  77.609  1.00  0.00     0.011 C 
ATOM     15  C   UNL     1      99.635  98.345  75.722  1.00  0.00     0.122 C 
BRANCH   7  16
ATOM     16  C   UNL     1      96.072  98.224  75.405  1.00  0.00     0.135 C 
BRANCH  16  17
ATOM     17  C   UNL     1      96.156  97.867  73.942  1.00  0.00    -0.040 A 
ATOM     18  C   UNL     1      96.507  98.838  73.006  1.00  0.00     0.004 A 
ATOM     19  C   UNL     1      95.884  96.564  73.527  1.00  0.00     0.004 A 
ATOM     20  C   UNL     1      96.586  98.507  71.652  1.00  0.00     0.000 A 
ATOM     21  C   UNL     1      95.962  96.233  72.174  1.00  0.00     0.000 A 
ATOM     22  C   UNL     1      96.313  97.204  71.237  1.00  0.00     0.000 A 
ENDBRANCH  16  17
ENDBRANCH   7  16
BRANCH  15  23
ATOM     23  C   UNL     1     100.402  98.116  74.460  1.00  0.00    -0.046 C 
ATOM     24  C   UNL     1     101.795  98.673  74.422  1.00  0.00     0.042 C 
ATOM     25  C   UNL     1      99.876  97.452  73.421  1.00  0.00     0.010 C 
ENDBRANCH  15  23
ENDBRANCH   3   4
BRANCH   2  26
ATOM     26  C   UNL     1      98.730  96.475  81.102  1.00  0.00     0.078 C 
BRANCH  26  27
ATOM     27  C   UNL     1      98.938  97.963  80.829  1.00  0.00     0.140 C 
ATOM     28  C   UNL     1      97.963  98.504  79.763  1.00  0.00     0.086 CG0
ATOM     29  C   UNL     1      98.614  98.824  82.032  1.00  0.00     0.190 C 
ATOM     30  C   UNL     1      97.461  99.786  80.366  1.00  0.00    -0.010 C 
ATOM     31  G   UNL     1      98.481  98.501  78.295  1.00  0.00     0.000 G0
ATOM     32  O   UNL     1      99.017  98.631  83.170  1.00  0.00    -0.291 OA
ATOM     33  C   UNL     1      97.786  99.982  81.647  1.00  0.00    -0.008 C 
ATOM     34  C   UNL     1      97.404 101.071  82.569  1.00  0.00     0.048 C 
BRANCH  27  35
ATOM     35  O   UNL     1     100.299  98.256  80.561  1.00  0.00    -0.381 OA
ATOM     36  H   UNL     1     100.507  99.126  80.942  1.00  0.00     0.212 HD
ENDBRANCH  27  35
ENDBRANCH  26  27
ENDBRANCH   2  26
ENDBRANCH   1   2
BRANCH   1  37
ATOM     37  O   UNL     1      96.809  93.934  79.684  1.00  0.00    -0.461 OA
BRANCH  37  38
ATOM     38  C   UNL     1      95.759  94.686  80.156  1.00  0.00     0.310 C 
ATOM     39  O   UNL     1      95.338  94.662  81.304  1.00  0.00    -0.252 OA
BRANCH  38  40
ATOM     40  C   UNL     1      95.211  95.543  79.040  1.00  0.00     0.158 C 
BRANCH  40  41
ATOM     41  C   UNL     1      94.406  94.757  78.038  1.00  0.00    -0.037 A 
ATOM     42  C   UNL     1      94.734  94.812  76.683  1.00  0.00     0.008 A 
ATOM     43  C   UNL     1      93.333  93.975  78.463  1.00  0.00     0.008 A 
ATOM     44  C   UNL     1      93.988  94.086  75.754  1.00  0.00     0.046 A 
ATOM     45  C   UNL     1      92.587  93.247  77.535  1.00  0.00     0.046 A 
ATOM     46  C   UNL     1      92.914  93.303  76.181  1.00  0.00     0.115 A 
BRANCH  46  47
ATOM     47  O   UNL     1      92.187  92.595  75.275  1.00  0.00    -0.508 OA
ATOM     48  H   UNL     1      91.527  93.184  74.869  1.00  0.00     0.293 HD
ENDBRANCH  46  47
ENDBRANCH  40  41
ENDBRANCH  38  40
ENDBRANCH  37  38
ENDBRANCH   1  37
TORSDOF 10
ENDMDL
MODEL 9
REMARK VINA RESULT:    -6.518      7.354     12.007
REMARK INTER + INTRA:         -11.448
REMARK INTER:                 -10.344
REMARK INTRA:                  -1.104
REMARK UNBOUND:                -0.357
REMARK SMILES C=C(C)[C@]12C[C@@H](C)[C@@]34O[C@](Cc5ccccc5)(O[C@@H]1[C@@H]3C=C(COC(=O)Cc1ccc(O)cc1)C[C@]1(O)C(=O)C(C)=C[C@@H]41)O2
REMARK SMILES IDX 23 1 22 2 21 3 20 4 9 5 8 6 10 7 6 8 18 10 44 11 19 12 5 13
REMARK SMILES IDX 7 14 4 15 11 16 12 17 13 18 17 19 14 20 16 21 15 22 2 23
REMARK SMILES IDX 3 24 1 25 35 26 36 27 43 28 38 29 42 30 39 32 40 33 41 34
REMARK SMILES IDX 37 35 24 37 25 38 26 39 27 40 28 41 29 42 34 43 30 44 33 45
REMARK SMILES IDX 31 46 32 47
REMARK H PARENT 37 36 32 48
REMARK Flexibility Score: 90.00
ROOT
ATOM      1  C   UNL     1      95.774 100.814  83.005  1.00  0.00     0.264 C 
ENDROOT
BRANCH   1   2
ATOM      2  C   UNL     1      96.337  99.412  83.049  1.00  0.00    -0.033 C 
ATOM      3  C   UNL     1      96.214  98.618  81.965  1.00  0.00    -0.015 C 
BRANCH   3   4
ATOM      4  C   UNL     1      96.620  97.164  81.782  1.00  0.00     0.078 C 
ATOM      5  O   UNL     1      98.910  97.168  80.847  1.00  0.00    -0.319 OA
ATOM      6  C   UNL     1      98.126  96.773  82.016  1.00  0.00     0.095 CG0
ATOM      7  C   UNL     1      98.299  96.890  79.573  1.00  0.00     0.289 C 
ATOM      8  C   UNL     1      98.192  95.199  82.183  1.00  0.00     0.023 C 
ATOM      9  G   UNL     1      98.736  97.595  83.188  1.00  0.00     0.000 G0
ATOM     10  O   UNL     1      97.025  97.519  79.462  1.00  0.00    -0.320 OA
ATOM     11  O   UNL     1      98.059  95.498  79.379  1.00  0.00    -0.313 OA
ATOM     12  C   UNL     1      96.258  96.693  80.352  1.00  0.00     0.170 C 
ATOM     13  C   UNL     1      97.111  94.486  81.313  1.00  0.00     0.049 C 
ATOM     14  C   UNL     1      99.566  94.562  81.912  1.00  0.00     0.011 C 
ATOM     15  C   UNL     1      96.797  95.275  80.041  1.00  0.00     0.122 C 
BRANCH   7  16
ATOM     16  C   UNL     1      99.220  97.400  78.483  1.00  0.00     0.135 C 
BRANCH  16  17
ATOM     17  C   UNL     1      98.455  97.921  77.292  1.00  0.00    -0.040 A 
ATOM     18  C   UNL     1      97.955  97.033  76.341  1.00  0.00     0.004 A 
ATOM     19  C   UNL     1      98.247  99.292  77.145  1.00  0.00     0.004 A 
ATOM     20  C   UNL     1      97.246  97.516  75.240  1.00  0.00     0.000 A 
ATOM     21  C   UNL     1      97.538  99.775  76.043  1.00  0.00     0.000 A 
ATOM     22  C   UNL     1      97.039  98.887  75.092  1.00  0.00     0.000 A 
ENDBRANCH  16  17
ENDBRANCH   7  16
BRANCH  15  23
ATOM     23  C   UNL     1      95.902  94.526  79.108  1.00  0.00    -0.046 C 
ATOM     24  C   UNL     1      96.107  93.042  79.043  1.00  0.00     0.042 C 
ATOM     25  C   UNL     1      94.969  95.146  78.370  1.00  0.00     0.010 C 
ENDBRANCH  15  23
ENDBRANCH   3   4
BRANCH   2  26
ATOM     26  C   UNL     1      97.002  99.078  84.371  1.00  0.00     0.078 C 
BRANCH  26  27
ATOM     27  C   UNL     1      97.826  97.794  84.433  1.00  0.00     0.140 C 
ATOM     28  C   UNL     1      98.712  97.607  83.183  1.00  0.00     0.086 CG0
ATOM     29  C   UNL     1      98.845  97.811  85.553  1.00  0.00     0.190 C 
ATOM     30  C   UNL     1     100.046  97.214  83.755  1.00  0.00    -0.010 C 
ATOM     31  G   UNL     1      98.098  96.765  82.027  1.00  0.00     0.000 G0
ATOM     32  O   UNL     1      98.616  98.120  86.713  1.00  0.00    -0.291 OA
ATOM     33  C   UNL     1     100.161  97.344  85.080  1.00  0.00    -0.008 C 
ATOM     34  C   UNL     1     101.330  97.132  85.958  1.00  0.00     0.048 C 
BRANCH  27  35
ATOM     35  O   UNL     1      97.014  96.671  84.731  1.00  0.00    -0.381 OA
ATOM     36  H   UNL     1      97.143  96.005  84.035  1.00  0.00     0.212 HD
ENDBRANCH  27  35
ENDBRANCH  26  27
ENDBRANCH   2  26
ENDBRANCH   1   2
BRANCH   1  37
ATOM     37  O   UNL     1      94.499 100.786  82.399  1.00  0.00    -0.461 OA
BRANCH  37  38
ATOM     38  C   UNL     1      93.801 101.971  82.398  1.00  0.00     0.310 C 
ATOM     39  O   UNL     1      92.653 102.111  82.796  1.00  0.00    -0.252 OA
BRANCH  38  40
ATOM     40  C   UNL     1      94.671 103.067  81.831  1.00  0.00     0.158 C 
BRANCH  40  41
ATOM     41  C   UNL     1      94.837 102.972  80.336  1.00  0.00    -0.037 A 
ATOM     42  C   UNL     1      93.877 103.527  79.491  1.00  0.00     0.008 A 
ATOM     43  C   UNL     1      95.951 102.328  79.797  1.00  0.00     0.008 A 
ATOM     44  C   UNL     1      94.030 103.438  78.107  1.00  0.00     0.046 A 
ATOM     45  C   UNL     1      96.105 102.239  78.414  1.00  0.00     0.046 A 
ATOM     46  C   UNL     1      95.144 102.793  77.568  1.00  0.00     0.115 A 
BRANCH  46  47
ATOM     47  O   UNL     1      95.293 102.706  76.219  1.00  0.00    -0.508 OA
ATOM     48  H   UNL     1      95.979 103.336  75.935  1.00  0.00     0.293 HD
ENDBRANCH  46  47
ENDBRANCH  40  41
ENDBRANCH  38  40
ENDBRANCH  37  38
ENDBRANCH   1  37
TORSDOF 10
ENDMDL
MODEL 10
REMARK VINA RESULT:    -6.366     22.457     27.388
REMARK INTER + INTRA:         -11.189
REMARK INTER:                  -9.996
REMARK INTRA:                  -1.193
REMARK UNBOUND:                -0.357
REMARK SMILES C=C(C)[C@]12C[C@@H](C)[C@@]34O[C@](Cc5ccccc5)(O[C@@H]1[C@@H]3C=C(COC(=O)Cc1ccc(O)cc1)C[C@]1(O)C(=O)C(C)=C[C@@H]41)O2
REMARK SMILES IDX 23 1 22 2 21 3 20 4 9 5 8 6 10 7 6 8 18 10 44 11 19 12 5 13
REMARK SMILES IDX 7 14 4 15 11 16 12 17 13 18 17 19 14 20 16 21 15 22 2 23
REMARK SMILES IDX 3 24 1 25 35 26 36 27 43 28 38 29 42 30 39 32 40 33 41 34
REMARK SMILES IDX 37 35 24 37 25 38 26 39 27 40 28 41 29 42 34 43 30 44 33 45
REMARK SMILES IDX 31 46 32 47
REMARK H PARENT 37 36 32 48
REMARK Flexibility Score: 90.00
ROOT
ATOM      1  C   UNL     1      68.101  87.811  70.820  1.00  0.00     0.264 C 
ENDROOT
BRANCH   1   2
ATOM      2  C   UNL     1      68.894  87.933  69.539  1.00  0.00    -0.033 C 
ATOM      3  C   UNL     1      70.210  88.222  69.604  1.00  0.00    -0.015 C 
BRANCH   3   4
ATOM      4  C   UNL     1      71.200  88.470  68.478  1.00  0.00     0.078 C 
ATOM      5  O   UNL     1      72.277  86.301  67.974  1.00  0.00    -0.319 OA
ATOM      6  C   UNL     1      71.415  87.338  67.407  1.00  0.00     0.095 CG0
ATOM      7  C   UNL     1      73.406  86.784  68.727  1.00  0.00     0.289 C 
ATOM      8  C   UNL     1      72.136  87.991  66.156  1.00  0.00     0.023 C 
ATOM      9  G   UNL     1      70.077  86.605  67.100  1.00  0.00     0.000 G0
ATOM     10  O   UNL     1      72.991  87.624  69.800  1.00  0.00    -0.320 OA
ATOM     11  O   UNL     1      74.287  87.577  67.935  1.00  0.00    -0.313 OA
ATOM     12  C   UNL     1      72.596  88.793  69.066  1.00  0.00     0.170 C 
ATOM     13  C   UNL     1      73.101  89.138  66.586  1.00  0.00     0.049 C 
ATOM     14  C   UNL     1      72.886  87.011  65.238  1.00  0.00     0.011 C 
ATOM     15  C   UNL     1      73.691  88.890  67.976  1.00  0.00     0.122 C 
BRANCH   7  16
ATOM     16  C   UNL     1      74.158  85.586  69.273  1.00  0.00     0.135 C 
BRANCH  16  17
ATOM     17  C   UNL     1      75.251  85.130  68.340  1.00  0.00    -0.040 A 
ATOM     18  C   UNL     1      74.946  84.305  67.258  1.00  0.00     0.004 A 
ATOM     19  C   UNL     1      76.568  85.535  68.559  1.00  0.00     0.004 A 
ATOM     20  C   UNL     1      75.957  83.883  66.394  1.00  0.00     0.000 A 
ATOM     21  C   UNL     1      77.579  85.113  67.695  1.00  0.00     0.000 A 
ATOM     22  C   UNL     1      77.274  84.288  66.613  1.00  0.00     0.000 A 
ENDBRANCH  16  17
ENDBRANCH   7  16
BRANCH  15  23
ATOM     23  C   UNL     1      74.753  89.878  68.333  1.00  0.00    -0.046 C 
ATOM     24  C   UNL     1      76.165  89.469  68.033  1.00  0.00     0.042 C 
ATOM     25  C   UNL     1      74.462  91.062  68.890  1.00  0.00     0.010 C 
ENDBRANCH  15  23
ENDBRANCH   3   4
BRANCH   2  26
ATOM     26  C   UNL     1      68.058  87.694  68.296  1.00  0.00     0.078 C 
BRANCH  26  27
ATOM     27  C   UNL     1      68.806  87.512  66.977  1.00  0.00     0.140 C 
ATOM     28  C   UNL     1      70.051  86.614  67.130  1.00  0.00     0.086 CG0
ATOM     29  C   UNL     1      67.990  86.761  65.946  1.00  0.00     0.190 C 
ATOM     30  C   UNL     1      69.953  85.675  65.960  1.00  0.00    -0.010 C 
ATOM     31  G   UNL     1      71.395  87.348  67.409  1.00  0.00     0.000 G0
ATOM     32  O   UNL     1      66.831  87.007  65.644  1.00  0.00    -0.291 OA
ATOM     33  C   UNL     1      68.796  85.714  65.292  1.00  0.00    -0.008 C 
ATOM     34  C   UNL     1      68.324  84.890  64.160  1.00  0.00     0.048 C 
BRANCH  27  35
ATOM     35  O   UNL     1      69.072  88.759  66.355  1.00  0.00    -0.381 OA
ATOM     36  H   UNL     1      69.646  89.278  66.944  1.00  0.00     0.212 HD
ENDBRANCH  27  35
ENDBRANCH  26  27
ENDBRANCH   2  26
ENDBRANCH   1   2
BRANCH   1  37
ATOM     37  O   UNL     1      67.203  86.727  70.711  1.00  0.00    -0.461 OA
BRANCH  37  38
ATOM     38  C   UNL     1      67.603  85.546  71.294  1.00  0.00     0.310 C 
ATOM     39  O   UNL     1      67.825  85.391  72.486  1.00  0.00    -0.252 OA
BRANCH  38  40
ATOM     40  C   UNL     1      67.726  84.478  70.234  1.00  0.00     0.158 C 
BRANCH  40  41
ATOM     41  C   UNL     1      66.392  83.946  69.779  1.00  0.00    -0.037 A 
ATOM     42  C   UNL     1      65.854  82.805  70.376  1.00  0.00     0.008 A 
ATOM     43  C   UNL     1      65.693  84.593  68.760  1.00  0.00     0.008 A 
ATOM     44  C   UNL     1      64.619  82.312  69.953  1.00  0.00     0.046 A 
ATOM     45  C   UNL     1      64.458  84.101  68.338  1.00  0.00     0.046 A 
ATOM     46  C   UNL     1      63.921  82.961  68.934  1.00  0.00     0.115 A 
BRANCH  46  47
ATOM     47  O   UNL     1      62.717  82.480  68.522  1.00  0.00    -0.508 OA
ATOM     48  H   UNL     1      62.040  82.719  69.179  1.00  0.00     0.293 HD
ENDBRANCH  46  47
ENDBRANCH  40  41
ENDBRANCH  38  40
ENDBRANCH  37  38
ENDBRANCH   1  37
TORSDOF 10
ENDMDL
