MODEL 1
REMARK VINA RESULT:    -6.174      0.000      0.000
REMARK INTER + INTRA:         -10.703
REMARK INTER:                  -9.603
REMARK INTRA:                  -1.100
REMARK UNBOUND:                -1.100
REMARK SMILES COc1cc(CNC(=O)CCCCCC(C)C)ccc1O
REMARK SMILES IDX 10 1 8 2 7 3 9 5 6 6 5 7 3 8 20 9 4 10 19 11 18 12 2 13 1 14
REMARK SMILES IDX 21 15 11 17 12 18 13 19 14 20 15 21 16 22 17 23
REMARK H PARENT 7 4 21 16
REMARK Flexibility Score: inf
ROOT
ATOM      1  C   UNL     1      89.595  92.960  77.216  1.00  0.00     0.100 C 
ENDROOT
BRANCH   1   2
ATOM      2  C   UNL     1      90.363  93.802  76.275  1.00  0.00     0.220 C 
ATOM      3  N   UNL     1      91.721  93.855  76.380  1.00  0.00    -0.352 N 
ATOM      4  H   UNL     1      92.102  93.404  77.199  1.00  0.00     0.163 HD
ATOM      5  O   UNL     1      89.750  94.419  75.370  1.00  0.00    -0.275 OA
BRANCH   3   6
ATOM      6  C   UNL     1      92.594  94.483  75.440  1.00  0.00     0.151 C 
BRANCH   6   7
ATOM      7  C   UNL     1      93.936  94.789  76.004  1.00  0.00    -0.025 A 
ATOM      8  C   UNL     1      95.601  94.551  77.798  1.00  0.00     0.160 A 
ATOM      9  C   UNL     1      96.517  95.316  77.047  1.00  0.00     0.157 A 
ATOM     10  C   UNL     1      94.311  94.308  77.281  1.00  0.00     0.056 A 
ATOM     11  C   UNL     1      96.147  95.823  75.787  1.00  0.00     0.050 A 
ATOM     12  C   UNL     1      94.869  95.557  75.267  1.00  0.00     0.009 A 
BRANCH   8  13
ATOM     13  O   UNL     1      95.935  94.065  79.035  1.00  0.00    -0.493 OA
ATOM     14  C   UNL     1      95.360  94.808  80.127  1.00  0.00     0.278 C 
ENDBRANCH   8  13
BRANCH   9  15
ATOM     15  O   UNL     1      97.759  95.557  77.536  1.00  0.00    -0.504 OA
ATOM     16  H   UNL     1      98.211  96.185  76.968  1.00  0.00     0.293 HD
ENDBRANCH   9  15
ENDBRANCH   6   7
ENDBRANCH   3   6
ENDBRANCH   1   2
BRANCH   1  17
ATOM     17  C   UNL     1      89.854  91.437  77.067  1.00  0.00     0.010 C 
BRANCH  17  18
ATOM     18  C   UNL     1      88.810  90.768  76.131  1.00  0.00     0.001 C 
BRANCH  18  19
ATOM     19  C   UNL     1      89.442  89.811  75.086  1.00  0.00     0.000 C 
BRANCH  19  20
ATOM     20  C   UNL     1      89.276  90.336  73.631  1.00  0.00     0.003 C 
BRANCH  20  21
ATOM     21  C   UNL     1      90.259  91.482  73.226  1.00  0.00    -0.017 C 
ATOM     22  C   UNL     1      90.300  91.660  71.680  1.00  0.00     0.007 C 
ATOM     23  C   UNL     1      91.699  91.266  73.777  1.00  0.00     0.007 C 
ENDBRANCH  20  21
ENDBRANCH  19  20
ENDBRANCH  18  19
ENDBRANCH  17  18
ENDBRANCH   1  17
TORSDOF 10
ENDMDL
MODEL 2
REMARK VINA RESULT:    -5.896      2.271      3.618
REMARK INTER + INTRA:         -10.270
REMARK INTER:                  -9.567
REMARK INTRA:                  -0.703
REMARK UNBOUND:                -1.100
REMARK SMILES COc1cc(CNC(=O)CCCCCC(C)C)ccc1O
REMARK SMILES IDX 10 1 8 2 7 3 9 5 6 6 5 7 3 8 20 9 4 10 19 11 18 12 2 13 1 14
REMARK SMILES IDX 21 15 11 17 12 18 13 19 14 20 15 21 16 22 17 23
REMARK H PARENT 7 4 21 16
REMARK Flexibility Score: inf
ROOT
ATOM      1  C   UNL     1      91.614  93.620  76.584  1.00  0.00     0.100 C 
ENDROOT
BRANCH   1   2
ATOM      2  C   UNL     1      93.080  93.763  76.471  1.00  0.00     0.220 C 
ATOM      3  N   UNL     1      93.782  94.302  77.508  1.00  0.00    -0.352 N 
ATOM      4  H   UNL     1      93.215  94.695  78.246  1.00  0.00     0.163 HD
ATOM      5  O   UNL     1      93.655  93.344  75.436  1.00  0.00    -0.275 OA
BRANCH   3   6
ATOM      6  C   UNL     1      95.206  94.339  77.604  1.00  0.00     0.151 C 
BRANCH   6   7
ATOM      7  C   UNL     1      95.691  94.644  78.977  1.00  0.00    -0.025 A 
ATOM      8  C   UNL     1      96.820  96.156  80.553  1.00  0.00     0.160 A 
ATOM      9  C   UNL     1      96.555  95.255  81.606  1.00  0.00     0.157 A 
ATOM     10  C   UNL     1      96.403  95.837  79.243  1.00  0.00     0.056 A 
ATOM     11  C   UNL     1      95.870  94.053  81.348  1.00  0.00     0.050 A 
ATOM     12  C   UNL     1      95.436  93.752  80.045  1.00  0.00     0.009 A 
BRANCH   8  13
ATOM     13  O   UNL     1      97.503  97.323  80.780  1.00  0.00    -0.493 OA
ATOM     14  C   UNL     1      96.650  98.467  80.978  1.00  0.00     0.278 C 
ENDBRANCH   8  13
BRANCH   9  15
ATOM     15  O   UNL     1      96.953  95.551  82.868  1.00  0.00    -0.504 OA
ATOM     16  H   UNL     1      96.917  94.759  83.409  1.00  0.00     0.293 HD
ENDBRANCH   9  15
ENDBRANCH   6   7
ENDBRANCH   3   6
ENDBRANCH   1   2
BRANCH   1  17
ATOM     17  C   UNL     1      91.153  92.563  77.623  1.00  0.00     0.010 C 
BRANCH  17  18
ATOM     18  C   UNL     1      90.754  91.225  76.942  1.00  0.00     0.001 C 
BRANCH  18  19
ATOM     19  C   UNL     1      90.555  91.351  75.408  1.00  0.00     0.000 C 
BRANCH  19  20
ATOM     20  C   UNL     1      91.399  90.309  74.618  1.00  0.00     0.003 C 
BRANCH  20  21
ATOM     21  C   UNL     1      90.621  89.028  74.175  1.00  0.00    -0.017 C 
ATOM     22  C   UNL     1      89.083  89.245  74.289  1.00  0.00     0.007 C 
ATOM     23  C   UNL     1      91.041  87.759  74.971  1.00  0.00     0.007 C 
ENDBRANCH  20  21
ENDBRANCH  19  20
ENDBRANCH  18  19
ENDBRANCH  17  18
ENDBRANCH   1  17
TORSDOF 10
ENDMDL
MODEL 3
REMARK VINA RESULT:    -5.428     27.693     29.697
REMARK INTER + INTRA:          -9.543
REMARK INTER:                  -8.851
REMARK INTRA:                  -0.692
REMARK UNBOUND:                -1.100
REMARK SMILES COc1cc(CNC(=O)CCCCCC(C)C)ccc1O
REMARK SMILES IDX 10 1 8 2 7 3 9 5 6 6 5 7 3 8 20 9 4 10 19 11 18 12 2 13 1 14
REMARK SMILES IDX 21 15 11 17 12 18 13 19 14 20 15 21 16 22 17 23
REMARK H PARENT 7 4 21 16
REMARK Flexibility Score: inf
ROOT
ATOM      1  C   UNL     1      82.110  64.828  76.066  1.00  0.00     0.100 C 
ENDROOT
BRANCH   1   2
ATOM      2  C   UNL     1      83.435  64.964  76.707  1.00  0.00     0.220 C 
ATOM      3  N   UNL     1      84.097  63.846  77.119  1.00  0.00    -0.352 N 
ATOM      4  H   UNL     1      83.559  62.992  77.072  1.00  0.00     0.163 HD
ATOM      5  O   UNL     1      83.942  66.106  76.820  1.00  0.00    -0.275 OA
BRANCH   3   6
ATOM      6  C   UNL     1      85.444  63.816  77.591  1.00  0.00     0.151 C 
BRANCH   6   7
ATOM      7  C   UNL     1      85.568  64.180  79.028  1.00  0.00    -0.025 A 
ATOM      8  C   UNL     1      86.327  65.735  80.775  1.00  0.00     0.160 A 
ATOM      9  C   UNL     1      85.747  64.908  81.760  1.00  0.00     0.157 A 
ATOM     10  C   UNL     1      86.251  65.357  79.418  1.00  0.00     0.056 A 
ATOM     11  C   UNL     1      85.089  63.722  81.386  1.00  0.00     0.050 A 
ATOM     12  C   UNL     1      84.995  63.363  80.030  1.00  0.00     0.009 A 
BRANCH   8  13
ATOM     13  O   UNL     1      86.989  66.884  81.120  1.00  0.00    -0.493 OA
ATOM     14  C   UNL     1      88.422  66.789  80.999  1.00  0.00     0.278 C 
ENDBRANCH   8  13
BRANCH   9  15
ATOM     15  O   UNL     1      85.816  65.261  83.068  1.00  0.00    -0.504 OA
ATOM     16  H   UNL     1      84.929  65.353  83.423  1.00  0.00     0.293 HD
ENDBRANCH   9  15
ENDBRANCH   6   7
ENDBRANCH   3   6
ENDBRANCH   1   2
BRANCH   1  17
ATOM     17  C   UNL     1      82.162  64.640  74.526  1.00  0.00     0.010 C 
BRANCH  17  18
ATOM     18  C   UNL     1      80.818  64.093  73.970  1.00  0.00     0.001 C 
BRANCH  18  19
ATOM     19  C   UNL     1      79.819  65.209  73.565  1.00  0.00     0.000 C 
BRANCH  19  20
ATOM     20  C   UNL     1      80.508  66.598  73.438  1.00  0.00     0.003 C 
BRANCH  20  21
ATOM     21  C   UNL     1      80.503  67.209  71.999  1.00  0.00    -0.017 C 
ATOM     22  C   UNL     1      80.062  66.149  70.948  1.00  0.00     0.007 C 
ATOM     23  C   UNL     1      81.877  67.820  71.597  1.00  0.00     0.007 C 
ENDBRANCH  20  21
ENDBRANCH  19  20
ENDBRANCH  18  19
ENDBRANCH  17  18
ENDBRANCH   1  17
TORSDOF 10
ENDMDL
MODEL 4
REMARK VINA RESULT:    -5.339     26.208     29.016
REMARK INTER + INTRA:          -9.404
REMARK INTER:                  -7.672
REMARK INTRA:                  -1.732
REMARK UNBOUND:                -1.100
REMARK SMILES COc1cc(CNC(=O)CCCCCC(C)C)ccc1O
REMARK SMILES IDX 10 1 8 2 7 3 9 5 6 6 5 7 3 8 20 9 4 10 19 11 18 12 2 13 1 14
REMARK SMILES IDX 21 15 11 17 12 18 13 19 14 20 15 21 16 22 17 23
REMARK H PARENT 7 4 21 16
REMARK Flexibility Score: inf
ROOT
ATOM      1  C   UNL     1      80.214  65.560  72.518  1.00  0.00     0.100 C 
ENDROOT
BRANCH   1   2
ATOM      2  C   UNL     1      80.572  65.197  73.905  1.00  0.00     0.220 C 
ATOM      3  N   UNL     1      81.075  66.151  74.738  1.00  0.00    -0.352 N 
ATOM      4  H   UNL     1      81.294  67.031  74.294  1.00  0.00     0.163 HD
ATOM      5  O   UNL     1      80.365  64.024  74.301  1.00  0.00    -0.275 OA
BRANCH   3   6
ATOM      6  C   UNL     1      81.299  65.984  76.139  1.00  0.00     0.151 C 
BRANCH   6   7
ATOM      7  C   UNL     1      82.726  65.733  76.476  1.00  0.00    -0.025 A 
ATOM      8  C   UNL     1      84.976  66.580  76.994  1.00  0.00     0.160 A 
ATOM      9  C   UNL     1      85.428  65.257  77.185  1.00  0.00     0.157 A 
ATOM     10  C   UNL     1      83.634  66.809  76.622  1.00  0.00     0.056 A 
ATOM     11  C   UNL     1      84.540  64.179  77.017  1.00  0.00     0.050 A 
ATOM     12  C   UNL     1      83.199  64.414  76.671  1.00  0.00     0.009 A 
BRANCH   8  13
ATOM     13  O   UNL     1      85.829  67.644  77.133  1.00  0.00    -0.493 OA
ATOM     14  C   UNL     1      85.225  68.917  76.835  1.00  0.00     0.278 C 
ENDBRANCH   8  13
BRANCH   9  15
ATOM     15  O   UNL     1      86.717  65.027  77.540  1.00  0.00    -0.504 OA
ATOM     16  H   UNL     1      87.286  65.154  76.778  1.00  0.00     0.293 HD
ENDBRANCH   9  15
ENDBRANCH   6   7
ENDBRANCH   3   6
ENDBRANCH   1   2
BRANCH   1  17
ATOM     17  C   UNL     1      80.328  67.076  72.206  1.00  0.00     0.010 C 
BRANCH  17  18
ATOM     18  C   UNL     1      80.951  67.327  70.804  1.00  0.00     0.001 C 
BRANCH  18  19
ATOM     19  C   UNL     1      82.271  68.141  70.853  1.00  0.00     0.000 C 
BRANCH  19  20
ATOM     20  C   UNL     1      83.528  67.224  70.820  1.00  0.00     0.003 C 
BRANCH  20  21
ATOM     21  C   UNL     1      84.257  67.054  72.193  1.00  0.00    -0.017 C 
ATOM     22  C   UNL     1      84.059  65.615  72.752  1.00  0.00     0.007 C 
ATOM     23  C   UNL     1      83.808  68.105  73.250  1.00  0.00     0.007 C 
ENDBRANCH  20  21
ENDBRANCH  19  20
ENDBRANCH  18  19
ENDBRANCH  17  18
ENDBRANCH   1  17
TORSDOF 10
ENDMDL
MODEL 5
REMARK VINA RESULT:    -5.312     13.937     17.244
REMARK INTER + INTRA:          -9.362
REMARK INTER:                  -8.026
REMARK INTRA:                  -1.336
REMARK UNBOUND:                -1.100
REMARK SMILES COc1cc(CNC(=O)CCCCCC(C)C)ccc1O
REMARK SMILES IDX 10 1 8 2 7 3 9 5 6 6 5 7 3 8 20 9 4 10 19 11 18 12 2 13 1 14
REMARK SMILES IDX 21 15 11 17 12 18 13 19 14 20 15 21 16 22 17 23
REMARK H PARENT 7 4 21 16
REMARK Flexibility Score: inf
ROOT
ATOM      1  C   UNL     1      84.150  90.625  84.558  1.00  0.00     0.100 C 
ENDROOT
BRANCH   1   2
ATOM      2  C   UNL     1      83.052  89.659  84.770  1.00  0.00     0.220 C 
ATOM      3  N   UNL     1      81.796  90.119  85.030  1.00  0.00    -0.352 N 
ATOM      4  H   UNL     1      81.733  91.114  85.192  1.00  0.00     0.163 HD
ATOM      5  O   UNL     1      83.293  88.431  84.664  1.00  0.00    -0.275 OA
BRANCH   3   6
ATOM      6  C   UNL     1      80.620  89.311  85.084  1.00  0.00     0.151 C 
BRANCH   6   7
ATOM      7  C   UNL     1      80.572  88.426  86.279  1.00  0.00    -0.025 A 
ATOM      8  C   UNL     1      80.589  88.138  88.721  1.00  0.00     0.160 A 
ATOM      9  C   UNL     1      80.414  86.748  88.556  1.00  0.00     0.157 A 
ATOM     10  C   UNL     1      80.686  88.966  87.582  1.00  0.00     0.056 A 
ATOM     11  C   UNL     1      80.326  86.197  87.264  1.00  0.00     0.050 A 
ATOM     12  C   UNL     1      80.399  87.030  86.135  1.00  0.00     0.009 A 
BRANCH   8  13
ATOM     13  O   UNL     1      80.697  88.692  89.970  1.00  0.00    -0.493 OA
ATOM     14  C   UNL     1      82.041  88.701  90.489  1.00  0.00     0.278 C 
ENDBRANCH   8  13
BRANCH   9  15
ATOM     15  O   UNL     1      80.322  85.944  89.644  1.00  0.00    -0.504 OA
ATOM     16  H   UNL     1      79.973  85.089  89.382  1.00  0.00     0.293 HD
ENDBRANCH   9  15
ENDBRANCH   6   7
ENDBRANCH   3   6
ENDBRANCH   1   2
BRANCH   1  17
ATOM     17  C   UNL     1      84.584  91.389  85.838  1.00  0.00     0.010 C 
BRANCH  17  18
ATOM     18  C   UNL     1      84.703  90.437  87.060  1.00  0.00     0.001 C 
BRANCH  18  19
ATOM     19  C   UNL     1      83.845  90.883  88.274  1.00  0.00     0.000 C 
BRANCH  19  20
ATOM     20  C   UNL     1      82.860  92.031  87.908  1.00  0.00     0.003 C 
BRANCH  20  21
ATOM     21  C   UNL     1      82.231  92.775  89.131  1.00  0.00    -0.017 C 
ATOM     22  C   UNL     1      83.216  92.795  90.336  1.00  0.00     0.007 C 
ATOM     23  C   UNL     1      80.864  92.172  89.568  1.00  0.00     0.007 C 
ENDBRANCH  20  21
ENDBRANCH  19  20
ENDBRANCH  18  19
ENDBRANCH  17  18
ENDBRANCH   1  17
TORSDOF 10
ENDMDL
MODEL 6
REMARK VINA RESULT:    -5.270      2.491      3.899
REMARK INTER + INTRA:          -9.297
REMARK INTER:                  -8.622
REMARK INTRA:                  -0.675
REMARK UNBOUND:                -1.100
REMARK SMILES COc1cc(CNC(=O)CCCCCC(C)C)ccc1O
REMARK SMILES IDX 10 1 8 2 7 3 9 5 6 6 5 7 3 8 20 9 4 10 19 11 18 12 2 13 1 14
REMARK SMILES IDX 21 15 11 17 12 18 13 19 14 20 15 21 16 22 17 23
REMARK H PARENT 7 4 21 16
REMARK Flexibility Score: inf
ROOT
ATOM      1  C   UNL     1      91.430  93.564  75.686  1.00  0.00     0.100 C 
ENDROOT
BRANCH   1   2
ATOM      2  C   UNL     1      92.827  93.615  76.163  1.00  0.00     0.220 C 
ATOM      3  N   UNL     1      93.842  93.697  75.257  1.00  0.00    -0.352 N 
ATOM      4  H   UNL     1      93.561  93.582  74.293  1.00  0.00     0.163 HD
ATOM      5  O   UNL     1      93.049  93.624  77.399  1.00  0.00    -0.275 OA
BRANCH   3   6
ATOM      6  C   UNL     1      95.214  93.926  75.577  1.00  0.00     0.151 C 
BRANCH   6   7
ATOM      7  C   UNL     1      95.614  95.353  75.448  1.00  0.00    -0.025 A 
ATOM      8  C   UNL     1      95.181  97.621  74.602  1.00  0.00     0.160 A 
ATOM      9  C   UNL     1      96.341  98.085  75.259  1.00  0.00     0.157 A 
ATOM     10  C   UNL     1      94.836  96.255  74.685  1.00  0.00     0.056 A 
ATOM     11  C   UNL     1      97.137  97.191  75.998  1.00  0.00     0.050 A 
ATOM     12  C   UNL     1      96.774  95.837  76.097  1.00  0.00     0.009 A 
BRANCH   8  13
ATOM     13  O   UNL     1      94.403  98.471  73.861  1.00  0.00    -0.493 OA
ATOM     14  C   UNL     1      94.523  98.278  72.438  1.00  0.00     0.278 C 
ENDBRANCH   8  13
BRANCH   9  15
ATOM     15  O   UNL     1      96.683  99.395  75.183  1.00  0.00    -0.504 OA
ATOM     16  H   UNL     1      97.619  99.471  74.986  1.00  0.00     0.293 HD
ENDBRANCH   9  15
ENDBRANCH   6   7
ENDBRANCH   3   6
ENDBRANCH   1   2
BRANCH   1  17
ATOM     17  C   UNL     1      90.367  93.758  76.801  1.00  0.00     0.010 C 
BRANCH  17  18
ATOM     18  C   UNL     1      89.575  92.449  77.072  1.00  0.00     0.001 C 
BRANCH  18  19
ATOM     19  C   UNL     1      89.723  91.395  75.943  1.00  0.00     0.000 C 
BRANCH  19  20
ATOM     20  C   UNL     1      90.539  90.151  76.403  1.00  0.00     0.003 C 
BRANCH  20  21
ATOM     21  C   UNL     1      89.945  88.773  75.962  1.00  0.00    -0.017 C 
ATOM     22  C   UNL     1      91.061  87.690  75.876  1.00  0.00     0.007 C 
ATOM     23  C   UNL     1      89.172  88.852  74.613  1.00  0.00     0.007 C 
ENDBRANCH  20  21
ENDBRANCH  19  20
ENDBRANCH  18  19
ENDBRANCH  17  18
ENDBRANCH   1  17
TORSDOF 10
ENDMDL
MODEL 7
REMARK VINA RESULT:    -5.244     16.867     19.987
REMARK INTER + INTRA:          -9.257
REMARK INTER:                  -8.607
REMARK INTRA:                  -0.650
REMARK UNBOUND:                -1.100
REMARK SMILES COc1cc(CNC(=O)CCCCCC(C)C)ccc1O
REMARK SMILES IDX 10 1 8 2 7 3 9 5 6 6 5 7 3 8 20 9 4 10 19 11 18 12 2 13 1 14
REMARK SMILES IDX 21 15 11 17 12 18 13 19 14 20 15 21 16 22 17 23
REMARK H PARENT 7 4 21 16
REMARK Flexibility Score: inf
ROOT
ATOM      1  C   UNL     1      76.110  92.494  63.733  1.00  0.00     0.100 C 
ENDROOT
BRANCH   1   2
ATOM      2  C   UNL     1      75.998  91.093  63.277  1.00  0.00     0.220 C 
ATOM      3  N   UNL     1      77.117  90.318  63.215  1.00  0.00    -0.352 N 
ATOM      4  H   UNL     1      77.985  90.812  63.365  1.00  0.00     0.163 HD
ATOM      5  O   UNL     1      74.864  90.632  62.997  1.00  0.00    -0.275 OA
BRANCH   3   6
ATOM      6  C   UNL     1      77.131  88.913  62.961  1.00  0.00     0.151 C 
BRANCH   6   7
ATOM      7  C   UNL     1      77.529  88.109  64.148  1.00  0.00    -0.025 A 
ATOM      8  C   UNL     1      77.957  85.928  65.200  1.00  0.00     0.160 A 
ATOM      9  C   UNL     1      78.351  86.580  66.387  1.00  0.00     0.157 A 
ATOM     10  C   UNL     1      77.531  86.695  64.094  1.00  0.00     0.056 A 
ATOM     11  C   UNL     1      78.327  87.985  66.460  1.00  0.00     0.050 A 
ATOM     12  C   UNL     1      77.925  88.744  65.348  1.00  0.00     0.009 A 
BRANCH   8  13
ATOM     13  O   UNL     1      77.954  84.560  65.114  1.00  0.00    -0.493 OA
ATOM     14  C   UNL     1      76.979  84.037  64.192  1.00  0.00     0.278 C 
ENDBRANCH   8  13
BRANCH   9  15
ATOM     15  O   UNL     1      78.760  85.852  67.456  1.00  0.00    -0.504 OA
ATOM     16  H   UNL     1      79.714  85.745  67.425  1.00  0.00     0.293 HD
ENDBRANCH   9  15
ENDBRANCH   6   7
ENDBRANCH   3   6
ENDBRANCH   1   2
BRANCH   1  17
ATOM     17  C   UNL     1      77.536  92.906  64.188  1.00  0.00     0.010 C 
BRANCH  17  18
ATOM     18  C   UNL     1      77.634  94.434  64.452  1.00  0.00     0.001 C 
BRANCH  18  19
ATOM     19  C   UNL     1      79.071  94.909  64.792  1.00  0.00     0.000 C 
BRANCH  19  20
ATOM     20  C   UNL     1      79.116  96.416  65.178  1.00  0.00     0.003 C 
BRANCH  20  21
ATOM     21  C   UNL     1      78.938  96.713  66.702  1.00  0.00    -0.017 C 
ATOM     22  C   UNL     1      79.560  98.091  67.076  1.00  0.00     0.007 C 
ATOM     23  C   UNL     1      79.531  95.596  67.609  1.00  0.00     0.007 C 
ENDBRANCH  20  21
ENDBRANCH  19  20
ENDBRANCH  18  19
ENDBRANCH  17  18
ENDBRANCH   1  17
TORSDOF 10
ENDMDL
MODEL 8
REMARK VINA RESULT:    -5.204      6.326      9.134
REMARK INTER + INTRA:          -9.194
REMARK INTER:                  -8.556
REMARK INTRA:                  -0.637
REMARK UNBOUND:                -1.100
REMARK SMILES COc1cc(CNC(=O)CCCCCC(C)C)ccc1O
REMARK SMILES IDX 10 1 8 2 7 3 9 5 6 6 5 7 3 8 20 9 4 10 19 11 18 12 2 13 1 14
REMARK SMILES IDX 21 15 11 17 12 18 13 19 14 20 15 21 16 22 17 23
REMARK H PARENT 7 4 21 16
REMARK Flexibility Score: inf
ROOT
ATOM      1  C   UNL     1      94.034  97.099  73.802  1.00  0.00     0.100 C 
ENDROOT
BRANCH   1   2
ATOM      2  C   UNL     1      94.036  98.301  72.943  1.00  0.00     0.220 C 
ATOM      3  N   UNL     1      93.265  98.322  71.819  1.00  0.00    -0.352 N 
ATOM      4  H   UNL     1      92.837  97.439  71.581  1.00  0.00     0.163 HD
ATOM      5  O   UNL     1      94.717  99.297  73.290  1.00  0.00    -0.275 OA
BRANCH   3   6
ATOM      6  C   UNL     1      93.039  99.469  70.999  1.00  0.00     0.151 C 
BRANCH   6   7
ATOM      7  C   UNL     1      92.053  99.224  69.912  1.00  0.00    -0.025 A 
ATOM      8  C   UNL     1      91.142  99.777  67.695  1.00  0.00     0.160 A 
ATOM      9  C   UNL     1      90.219  98.716  67.813  1.00  0.00     0.157 A 
ATOM     10  C   UNL     1      92.040 100.036  68.753  1.00  0.00     0.056 A 
ATOM     11  C   UNL     1      90.205  97.919  68.973  1.00  0.00     0.050 A 
ATOM     12  C   UNL     1      91.118  98.168  70.012  1.00  0.00     0.009 A 
BRANCH   8  13
ATOM     13  O   UNL     1      91.159 100.576  66.583  1.00  0.00    -0.493 OA
ATOM     14  C   UNL     1      91.229 101.984  66.879  1.00  0.00     0.278 C 
ENDBRANCH   8  13
BRANCH   9  15
ATOM     15  O   UNL     1      89.350  98.460  66.803  1.00  0.00    -0.504 OA
ATOM     16  H   UNL     1      89.589  97.634  66.377  1.00  0.00     0.293 HD
ENDBRANCH   9  15
ENDBRANCH   6   7
ENDBRANCH   3   6
ENDBRANCH   1   2
BRANCH   1  17
ATOM     17  C   UNL     1      95.371  96.847  74.550  1.00  0.00     0.010 C 
BRANCH  17  18
ATOM     18  C   UNL     1      95.209  95.780  75.668  1.00  0.00     0.001 C 
BRANCH  18  19
ATOM     19  C   UNL     1      94.203  94.656  75.306  1.00  0.00     0.000 C 
BRANCH  19  20
ATOM     20  C   UNL     1      93.013  94.587  76.307  1.00  0.00     0.003 C 
BRANCH  20  21
ATOM     21  C   UNL     1      91.625  94.270  75.661  1.00  0.00    -0.017 C 
ATOM     22  C   UNL     1      90.611  93.779  76.736  1.00  0.00     0.007 C 
ATOM     23  C   UNL     1      91.719  93.235  74.503  1.00  0.00     0.007 C 
ENDBRANCH  20  21
ENDBRANCH  19  20
ENDBRANCH  18  19
ENDBRANCH  17  18
ENDBRANCH   1  17
TORSDOF 10
ENDMDL
MODEL 9
REMARK VINA RESULT:    -5.186     24.737     28.038
REMARK INTER + INTRA:          -9.165
REMARK INTER:                  -8.085
REMARK INTRA:                  -1.080
REMARK UNBOUND:                -1.100
REMARK SMILES COc1cc(CNC(=O)CCCCCC(C)C)ccc1O
REMARK SMILES IDX 10 1 8 2 7 3 9 5 6 6 5 7 3 8 20 9 4 10 19 11 18 12 2 13 1 14
REMARK SMILES IDX 21 15 11 17 12 18 13 19 14 20 15 21 16 22 17 23
REMARK H PARENT 7 4 21 16
REMARK Flexibility Score: inf
ROOT
ATOM      1  C   UNL     1      82.505  63.852  74.265  1.00  0.00     0.100 C 
ENDROOT
BRANCH   1   2
ATOM      2  C   UNL     1      83.194  64.573  75.354  1.00  0.00     0.220 C 
ATOM      3  N   UNL     1      83.045  65.924  75.462  1.00  0.00    -0.352 N 
ATOM      4  H   UNL     1      82.564  66.361  74.689  1.00  0.00     0.163 HD
ATOM      5  O   UNL     1      83.871  63.920  76.185  1.00  0.00    -0.275 OA
BRANCH   3   6
ATOM      6  C   UNL     1      83.508  66.717  76.556  1.00  0.00     0.151 C 
BRANCH   6   7
ATOM      7  C   UNL     1      84.446  67.794  76.140  1.00  0.00    -0.025 A 
ATOM      8  C   UNL     1      85.685  68.980  74.378  1.00  0.00     0.160 A 
ATOM      9  C   UNL     1      86.180  69.887  75.339  1.00  0.00     0.157 A 
ATOM     10  C   UNL     1      84.837  67.929  74.787  1.00  0.00     0.056 A 
ATOM     11  C   UNL     1      85.819  69.746  76.692  1.00  0.00     0.050 A 
ATOM     12  C   UNL     1      84.955  68.712  77.089  1.00  0.00     0.009 A 
BRANCH   8  13
ATOM     13  O   UNL     1      86.040  69.088  73.059  1.00  0.00    -0.493 OA
ATOM     14  C   UNL     1      85.060  69.761  72.245  1.00  0.00     0.278 C 
ENDBRANCH   8  13
BRANCH   9  15
ATOM     15  O   UNL     1      86.998  70.900  74.957  1.00  0.00    -0.504 OA
ATOM     16  H   UNL     1      86.502  71.530  74.428  1.00  0.00     0.293 HD
ENDBRANCH   9  15
ENDBRANCH   6   7
ENDBRANCH   3   6
ENDBRANCH   1   2
BRANCH   1  17
ATOM     17  C   UNL     1      80.965  63.752  74.440  1.00  0.00     0.010 C 
BRANCH  17  18
ATOM     18  C   UNL     1      80.213  64.618  73.392  1.00  0.00     0.001 C 
BRANCH  18  19
ATOM     19  C   UNL     1      79.920  66.061  73.881  1.00  0.00     0.000 C 
BRANCH  19  20
ATOM     20  C   UNL     1      80.630  67.134  73.005  1.00  0.00     0.003 C 
BRANCH  20  21
ATOM     21  C   UNL     1      81.044  66.652  71.577  1.00  0.00    -0.017 C 
ATOM     22  C   UNL     1      82.259  67.469  71.045  1.00  0.00     0.007 C 
ATOM     23  C   UNL     1      79.872  66.712  70.555  1.00  0.00     0.007 C 
ENDBRANCH  20  21
ENDBRANCH  19  20
ENDBRANCH  18  19
ENDBRANCH  17  18
ENDBRANCH   1  17
TORSDOF 10
ENDMDL
MODEL 10
REMARK VINA RESULT:    -5.154     25.699     28.272
REMARK INTER + INTRA:          -9.117
REMARK INTER:                  -7.859
REMARK INTRA:                  -1.258
REMARK UNBOUND:                -1.100
REMARK SMILES COc1cc(CNC(=O)CCCCCC(C)C)ccc1O
REMARK SMILES IDX 10 1 8 2 7 3 9 5 6 6 5 7 3 8 20 9 4 10 19 11 18 12 2 13 1 14
REMARK SMILES IDX 21 15 11 17 12 18 13 19 14 20 15 21 16 22 17 23
REMARK H PARENT 7 4 21 16
REMARK Flexibility Score: inf
ROOT
ATOM      1  C   UNL     1      83.089  64.559  76.743  1.00  0.00     0.100 C 
ENDROOT
BRANCH   1   2
ATOM      2  C   UNL     1      84.259  65.393  76.397  1.00  0.00     0.220 C 
ATOM      3  N   UNL     1      84.432  65.801  75.108  1.00  0.00    -0.352 N 
ATOM      4  H   UNL     1      83.800  65.383  74.441  1.00  0.00     0.163 HD
ATOM      5  O   UNL     1      85.048  65.743  77.308  1.00  0.00    -0.275 OA
BRANCH   3   6
ATOM      6  C   UNL     1      85.412  66.743  74.670  1.00  0.00     0.151 C 
BRANCH   6   7
ATOM      7  C   UNL     1      84.884  67.714  73.674  1.00  0.00    -0.025 A 
ATOM      8  C   UNL     1      85.272  69.385  71.912  1.00  0.00     0.160 A 
ATOM      9  C   UNL     1      83.878  69.514  71.731  1.00  0.00     0.157 A 
ATOM     10  C   UNL     1      85.765  68.500  72.895  1.00  0.00     0.056 A 
ATOM     11  C   UNL     1      82.992  68.756  72.518  1.00  0.00     0.050 A 
ATOM     12  C   UNL     1      83.490  67.859  73.478  1.00  0.00     0.009 A 
BRANCH   8  13
ATOM     13  O   UNL     1      86.151  70.128  71.169  1.00  0.00    -0.493 OA
ATOM     14  C   UNL     1      86.689  69.428  70.031  1.00  0.00     0.278 C 
ENDBRANCH   8  13
BRANCH   9  15
ATOM     15  O   UNL     1      83.394  70.363  70.790  1.00  0.00    -0.504 OA
ATOM     16  H   UNL     1      84.118  70.861  70.405  1.00  0.00     0.293 HD
ENDBRANCH   9  15
ENDBRANCH   6   7
ENDBRANCH   3   6
ENDBRANCH   1   2
BRANCH   1  17
ATOM     17  C   UNL     1      81.723  65.176  76.337  1.00  0.00     0.010 C 
BRANCH  17  18
ATOM     18  C   UNL     1      81.261  64.674  74.941  1.00  0.00     0.001 C 
BRANCH  18  19
ATOM     19  C   UNL     1      80.435  65.724  74.151  1.00  0.00     0.000 C 
BRANCH  19  20
ATOM     20  C   UNL     1      80.132  65.260  72.697  1.00  0.00     0.003 C 
BRANCH  20  21
ATOM     21  C   UNL     1      80.755  66.154  71.576  1.00  0.00    -0.017 C 
ATOM     22  C   UNL     1      79.717  66.436  70.449  1.00  0.00     0.007 C 
ATOM     23  C   UNL     1      82.051  65.545  70.967  1.00  0.00     0.007 C 
ENDBRANCH  20  21
ENDBRANCH  19  20
ENDBRANCH  18  19
ENDBRANCH  17  18
ENDBRANCH   1  17
TORSDOF 10
ENDMDL
