MODEL 1
REMARK VINA RESULT:    -6.851      0.000      0.000
REMARK INTER + INTRA:         -11.993
REMARK INTER:                 -11.657
REMARK INTRA:                  -0.336
REMARK UNBOUND:                -0.336
REMARK SMILES C=C(C)[C@]12C[C@@H](C)[C@@]34O[C@](Cc5ccccc5)(O[C@@H]1[C@@H]3C=C(COC(=O)Cc1ccc(O)cc1)C[C@]1(O)C(=O)C(C)=C[C@@H]41)O2
REMARK SMILES IDX 23 1 22 2 21 3 20 4 9 5 8 6 10 7 6 8 18 10 44 11 19 12 5 13
REMARK SMILES IDX 7 14 4 15 11 16 12 17 13 18 17 19 14 20 16 21 15 22 2 23
REMARK SMILES IDX 3 24 1 25 35 26 36 27 43 28 38 29 42 30 39 32 40 33 41 34
REMARK SMILES IDX 37 35 24 37 25 38 26 39 27 40 28 41 29 42 34 43 30 44 33 45
REMARK SMILES IDX 31 46 32 47
REMARK H PARENT 37 36 32 48
REMARK Flexibility Score: 90.00
ROOT
ATOM      1  C   UNL     1      92.149  77.176  83.871  1.00  0.00     0.264 C 
ENDROOT
BRANCH   1   2
ATOM      2  C   UNL     1      91.483  76.002  83.190  1.00  0.00    -0.033 C 
ATOM      3  C   UNL     1      91.673  75.812  81.868  1.00  0.00    -0.015 C 
BRANCH   3   4
ATOM      4  C   UNL     1      91.065  74.768  80.945  1.00  0.00     0.078 C 
ATOM      5  O   UNL     1      92.641  72.863  80.876  1.00  0.00    -0.319 OA
ATOM      6  C   UNL     1      91.291  73.248  81.283  1.00  0.00     0.095 CG0
ATOM      7  C   UNL     1      93.066  73.372  79.597  1.00  0.00     0.289 C 
ATOM      8  C   UNL     1      90.234  72.410  80.453  1.00  0.00     0.023 C 
ATOM      9  G   UNL     1      91.269  73.015  82.822  1.00  0.00     0.000 G0
ATOM     10  O   UNL     1      93.002  74.795  79.558  1.00  0.00    -0.320 OA
ATOM     11  O   UNL     1      92.236  72.920  78.530  1.00  0.00    -0.313 OA
ATOM     12  C   UNL     1      91.578  74.980  79.500  1.00  0.00     0.170 C 
ATOM     13  C   UNL     1      89.926  73.079  79.078  1.00  0.00     0.049 C 
ATOM     14  C   UNL     1      90.590  70.930  80.230  1.00  0.00     0.011 C 
ATOM     15  C   UNL     1      91.133  73.850  78.541  1.00  0.00     0.122 C 
BRANCH   7  16
ATOM     16  C   UNL     1      94.491  72.916  79.355  1.00  0.00     0.135 C 
BRANCH  16  17
ATOM     17  C   UNL     1      95.276  73.917  78.543  1.00  0.00    -0.040 A 
ATOM     18  C   UNL     1      94.945  74.144  77.207  1.00  0.00     0.004 A 
ATOM     19  C   UNL     1      96.332  74.614  79.129  1.00  0.00     0.004 A 
ATOM     20  C   UNL     1      95.671  75.070  76.457  1.00  0.00     0.000 A 
ATOM     21  C   UNL     1      97.057  75.540  78.378  1.00  0.00     0.000 A 
ATOM     22  C   UNL     1      96.727  75.768  77.043  1.00  0.00     0.000 A 
ENDBRANCH  16  17
ENDBRANCH   7  16
BRANCH  15  23
ATOM     23  C   UNL     1      90.922  74.346  77.147  1.00  0.00    -0.046 C 
ATOM     24  C   UNL     1      90.236  75.673  77.014  1.00  0.00     0.042 C 
ATOM     25  C   UNL     1      91.324  73.645  76.076  1.00  0.00     0.010 C 
ENDBRANCH  15  23
ENDBRANCH   3   4
BRANCH   2  26
ATOM     26  C   UNL     1      90.658  75.153  84.139  1.00  0.00     0.078 C 
BRANCH  26  27
ATOM     27  C   UNL     1      90.187  73.793  83.627  1.00  0.00     0.140 C 
ATOM     28  C   UNL     1      91.291  73.048  82.848  1.00  0.00     0.086 CG0
ATOM     29  C   UNL     1      89.875  72.827  84.751  1.00  0.00     0.190 C 
ATOM     30  C   UNL     1      91.232  71.653  83.405  1.00  0.00    -0.010 C 
ATOM     31  G   UNL     1      91.298  73.254  81.305  1.00  0.00     0.000 G0
ATOM     32  O   UNL     1      89.184  73.077  85.728  1.00  0.00    -0.291 OA
ATOM     33  C   UNL     1      90.468  71.502  84.491  1.00  0.00    -0.008 C 
ATOM     34  C   UNL     1      90.243  70.312  85.338  1.00  0.00     0.048 C 
BRANCH  27  35
ATOM     35  O   UNL     1      88.961  73.900  82.923  1.00  0.00    -0.381 OA
ATOM     36  H   UNL     1      88.511  73.039  82.959  1.00  0.00     0.212 HD
ENDBRANCH  27  35
ENDBRANCH  26  27
ENDBRANCH   2  26
ENDBRANCH   1   2
BRANCH   1  37
ATOM     37  O   UNL     1      91.232  78.246  83.957  1.00  0.00    -0.461 OA
BRANCH  37  38
ATOM     38  C   UNL     1      91.725  79.430  84.454  1.00  0.00     0.310 C 
ATOM     39  O   UNL     1      92.463  79.531  85.424  1.00  0.00    -0.252 OA
BRANCH  38  40
ATOM     40  C   UNL     1      91.214  80.579  83.618  1.00  0.00     0.158 C 
BRANCH  40  41
ATOM     41  C   UNL     1      89.800  80.971  83.959  1.00  0.00    -0.037 A 
ATOM     42  C   UNL     1      89.560  82.085  84.765  1.00  0.00     0.008 A 
ATOM     43  C   UNL     1      88.731  80.221  83.471  1.00  0.00     0.008 A 
ATOM     44  C   UNL     1      88.250  82.447  85.081  1.00  0.00     0.046 A 
ATOM     45  C   UNL     1      87.421  80.583  83.787  1.00  0.00     0.046 A 
ATOM     46  C   UNL     1      87.181  81.696  84.592  1.00  0.00     0.115 A 
BRANCH  46  47
ATOM     47  O   UNL     1      85.904  82.050  84.901  1.00  0.00    -0.508 OA
ATOM     48  H   UNL     1      85.292  81.410  84.497  1.00  0.00     0.293 HD
ENDBRANCH  46  47
ENDBRANCH  40  41
ENDBRANCH  38  40
ENDBRANCH  37  38
ENDBRANCH   1  37
TORSDOF 10
ENDMDL
MODEL 2
REMARK VINA RESULT:    -6.591      6.399     11.121
REMARK INTER + INTRA:         -11.551
REMARK INTER:                 -11.302
REMARK INTRA:                  -0.249
REMARK UNBOUND:                -0.336
REMARK SMILES C=C(C)[C@]12C[C@@H](C)[C@@]34O[C@](Cc5ccccc5)(O[C@@H]1[C@@H]3C=C(COC(=O)Cc1ccc(O)cc1)C[C@]1(O)C(=O)C(C)=C[C@@H]41)O2
REMARK SMILES IDX 23 1 22 2 21 3 20 4 9 5 8 6 10 7 6 8 18 10 44 11 19 12 5 13
REMARK SMILES IDX 7 14 4 15 11 16 12 17 13 18 17 19 14 20 16 21 15 22 2 23
REMARK SMILES IDX 3 24 1 25 35 26 36 27 43 28 38 29 42 30 39 32 40 33 41 34
REMARK SMILES IDX 37 35 24 37 25 38 26 39 27 40 28 41 29 42 34 43 30 44 33 45
REMARK SMILES IDX 31 46 32 47
REMARK H PARENT 37 36 32 48
REMARK Flexibility Score: 90.00
ROOT
ATOM      1  C   UNL     1      97.153  78.648  81.578  1.00  0.00     0.264 C 
ENDROOT
BRANCH   1   2
ATOM      2  C   UNL     1      97.426  79.451  82.829  1.00  0.00    -0.033 C 
ATOM      3  C   UNL     1      96.527  80.374  83.230  1.00  0.00    -0.015 C 
BRANCH   3   4
ATOM      4  C   UNL     1      96.600  81.351  84.392  1.00  0.00     0.078 C 
ATOM      5  O   UNL     1      95.495  80.262  86.318  1.00  0.00    -0.319 OA
ATOM      6  C   UNL     1      96.779  80.774  85.845  1.00  0.00     0.095 CG0
ATOM      7  C   UNL     1      94.355  81.094  86.025  1.00  0.00     0.289 C 
ATOM      8  C   UNL     1      97.245  81.965  86.779  1.00  0.00     0.023 C 
ATOM      9  G   UNL     1      97.713  79.528  85.834  1.00  0.00     0.000 G0
ATOM     10  O   UNL     1      94.229  81.325  84.625  1.00  0.00    -0.320 OA
ATOM     11  O   UNL     1      94.459  82.385  86.621  1.00  0.00    -0.313 OA
ATOM     12  C   UNL     1      95.325  82.230  84.420  1.00  0.00     0.170 C 
ATOM     13  C   UNL     1      96.626  83.323  86.327  1.00  0.00     0.049 C 
ATOM     14  C   UNL     1      96.991  81.764  88.283  1.00  0.00     0.011 C 
ATOM     15  C   UNL     1      95.255  83.131  85.677  1.00  0.00     0.122 C 
BRANCH   7  16
ATOM     16  C   UNL     1      93.113  80.397  86.544  1.00  0.00     0.135 C 
BRANCH  16  17
ATOM     17  C   UNL     1      91.997  80.399  85.530  1.00  0.00    -0.040 A 
ATOM     18  C   UNL     1      91.644  79.218  84.878  1.00  0.00     0.004 A 
ATOM     19  C   UNL     1      91.318  81.583  85.245  1.00  0.00     0.004 A 
ATOM     20  C   UNL     1      90.611  79.220  83.940  1.00  0.00     0.000 A 
ATOM     21  C   UNL     1      90.285  81.586  84.307  1.00  0.00     0.000 A 
ATOM     22  C   UNL     1      89.932  80.405  83.655  1.00  0.00     0.000 A 
ENDBRANCH  16  17
ENDBRANCH   7  16
BRANCH  15  23
ATOM     23  C   UNL     1      94.564  84.427  85.401  1.00  0.00    -0.046 C 
ATOM     24  C   UNL     1      95.238  85.340  84.419  1.00  0.00     0.042 C 
ATOM     25  C   UNL     1      93.409  84.756  85.998  1.00  0.00     0.010 C 
ENDBRANCH  15  23
ENDBRANCH   3   4
BRANCH   2  26
ATOM     26  C   UNL     1      98.737  79.083  83.498  1.00  0.00     0.078 C 
BRANCH  26  27
ATOM     27  C   UNL     1      98.975  79.618  84.909  1.00  0.00     0.140 C 
ATOM     28  C   UNL     1      97.712  79.522  85.790  1.00  0.00     0.086 CG0
ATOM     29  C   UNL     1      99.975  78.786  85.683  1.00  0.00     0.190 C 
ATOM     30  C   UNL     1      98.229  78.952  87.081  1.00  0.00    -0.010 C 
ATOM     31  G   UNL     1      96.801  80.784  85.822  1.00  0.00     0.000 G0
ATOM     32  O   UNL     1     101.069  78.428  85.271  1.00  0.00    -0.291 OA
ATOM     33  C   UNL     1      99.487  78.504  87.046  1.00  0.00    -0.008 C 
ATOM     34  C   UNL     1     100.282  77.819  88.086  1.00  0.00     0.048 C 
BRANCH  27  35
ATOM     35  O   UNL     1      99.558  80.910  84.882  1.00  0.00    -0.381 OA
ATOM     36  H   UNL     1     100.027  81.018  84.037  1.00  0.00     0.212 HD
ENDBRANCH  27  35
ENDBRANCH  26  27
ENDBRANCH   2  26
ENDBRANCH   1   2
BRANCH   1  37
ATOM     37  O   UNL     1      97.175  79.508  80.458  1.00  0.00    -0.461 OA
BRANCH  37  38
ATOM     38  C   UNL     1      98.394  79.674  79.843  1.00  0.00     0.310 C 
ATOM     39  O   UNL     1      99.455  79.853  80.425  1.00  0.00    -0.252 OA
BRANCH  38  40
ATOM     40  C   UNL     1      98.218  79.601  78.346  1.00  0.00     0.158 C 
BRANCH  40  41
ATOM     41  C   UNL     1      98.133  80.958  77.697  1.00  0.00    -0.037 A 
ATOM     42  C   UNL     1      98.773  81.190  76.479  1.00  0.00     0.008 A 
ATOM     43  C   UNL     1      97.417  81.983  78.314  1.00  0.00     0.008 A 
ATOM     44  C   UNL     1      98.696  82.447  75.879  1.00  0.00     0.046 A 
ATOM     45  C   UNL     1      97.339  83.240  77.713  1.00  0.00     0.046 A 
ATOM     46  C   UNL     1      97.978  83.472  76.496  1.00  0.00     0.115 A 
BRANCH  46  47
ATOM     47  O   UNL     1      97.903  84.698  75.911  1.00  0.00    -0.508 OA
ATOM     48  H   UNL     1      97.183  85.203  76.327  1.00  0.00     0.293 HD
ENDBRANCH  46  47
ENDBRANCH  40  41
ENDBRANCH  38  40
ENDBRANCH  37  38
ENDBRANCH   1  37
TORSDOF 10
ENDMDL
MODEL 3
REMARK VINA RESULT:    -6.580     29.858     33.817
REMARK INTER + INTRA:         -11.532
REMARK INTER:                 -10.651
REMARK INTRA:                  -0.880
REMARK UNBOUND:                -0.336
REMARK SMILES C=C(C)[C@]12C[C@@H](C)[C@@]34O[C@](Cc5ccccc5)(O[C@@H]1[C@@H]3C=C(COC(=O)Cc1ccc(O)cc1)C[C@]1(O)C(=O)C(C)=C[C@@H]41)O2
REMARK SMILES IDX 23 1 22 2 21 3 20 4 9 5 8 6 10 7 6 8 18 10 44 11 19 12 5 13
REMARK SMILES IDX 7 14 4 15 11 16 12 17 13 18 17 19 14 20 16 21 15 22 2 23
REMARK SMILES IDX 3 24 1 25 35 26 36 27 43 28 38 29 42 30 39 32 40 33 41 34
REMARK SMILES IDX 37 35 24 37 25 38 26 39 27 40 28 41 29 42 34 43 30 44 33 45
REMARK SMILES IDX 31 46 32 47
REMARK H PARENT 37 36 32 48
REMARK Flexibility Score: 90.00
ROOT
ATOM      1  C   UNL     1      60.876  89.132  68.433  1.00  0.00     0.264 C 
ENDROOT
BRANCH   1   2
ATOM      2  C   UNL     1      61.079  88.024  69.440  1.00  0.00    -0.033 C 
ATOM      3  C   UNL     1      62.056  87.117  69.234  1.00  0.00    -0.015 C 
BRANCH   3   4
ATOM      4  C   UNL     1      62.412  85.880  70.045  1.00  0.00     0.078 C 
ATOM      5  O   UNL     1      64.165  86.553  71.654  1.00  0.00    -0.319 OA
ATOM      6  C   UNL     1      62.791  86.062  71.560  1.00  0.00     0.095 CG0
ATOM      7  C   UNL     1      65.105  85.925  70.762  1.00  0.00     0.289 C 
ATOM      8  C   UNL     1      62.695  84.641  72.253  1.00  0.00     0.023 C 
ATOM      9  G   UNL     1      61.933  87.184  72.214  1.00  0.00     0.000 G0
ATOM     10  O   UNL     1      64.699  86.059  69.403  1.00  0.00    -0.320 OA
ATOM     11  O   UNL     1      65.218  84.522  70.994  1.00  0.00    -0.313 OA
ATOM     12  C   UNL     1      63.596  85.138  69.379  1.00  0.00     0.170 C 
ATOM     13  C   UNL     1      63.088  83.497  71.268  1.00  0.00     0.049 C 
ATOM     14  C   UNL     1      63.493  84.486  73.559  1.00  0.00     0.011 C 
ATOM     15  C   UNL     1      64.121  83.964  70.241  1.00  0.00     0.122 C 
BRANCH   7  16
ATOM     16  C   UNL     1      66.458  86.579  70.960  1.00  0.00     0.135 C 
BRANCH  16  17
ATOM     17  C   UNL     1      67.580  85.739  70.405  1.00  0.00    -0.040 A 
ATOM     18  C   UNL     1      67.925  85.838  69.057  1.00  0.00     0.004 A 
ATOM     19  C   UNL     1      68.273  84.863  71.240  1.00  0.00     0.004 A 
ATOM     20  C   UNL     1      68.965  85.061  68.544  1.00  0.00     0.000 A 
ATOM     21  C   UNL     1      69.312  84.086  70.727  1.00  0.00     0.000 A 
ATOM     22  C   UNL     1      69.657  84.185  69.379  1.00  0.00     0.000 A 
ENDBRANCH  16  17
ENDBRANCH   7  16
BRANCH  15  23
ATOM     23  C   UNL     1      64.646  82.843  69.405  1.00  0.00    -0.046 C 
ATOM     24  C   UNL     1      63.644  81.816  68.970  1.00  0.00     0.042 C 
ATOM     25  C   UNL     1      65.940  82.760  69.063  1.00  0.00     0.010 C 
ENDBRANCH  15  23
ENDBRANCH   3   4
BRANCH   2  26
ATOM     26  C   UNL     1      60.110  88.093  70.606  1.00  0.00     0.078 C 
BRANCH  26  27
ATOM     27  C   UNL     1      60.404  87.203  71.812  1.00  0.00     0.140 C 
ATOM     28  C   UNL     1      61.901  87.200  72.185  1.00  0.00     0.086 CG0
ATOM     29  C   UNL     1      59.753  87.711  73.081  1.00  0.00     0.190 C 
ATOM     30  C   UNL     1      61.890  87.376  73.678  1.00  0.00    -0.010 C 
ATOM     31  G   UNL     1      62.762  86.067  71.555  1.00  0.00     0.000 G0
ATOM     32  O   UNL     1      58.585  88.051  73.190  1.00  0.00    -0.291 OA
ATOM     33  C   UNL     1      60.704  87.691  74.208  1.00  0.00    -0.008 C 
ATOM     34  C   UNL     1      60.342  88.013  75.604  1.00  0.00     0.048 C 
BRANCH  27  35
ATOM     35  O   UNL     1      59.853  85.907  71.645  1.00  0.00    -0.381 OA
ATOM     36  H   UNL     1      59.597  85.568  72.520  1.00  0.00     0.212 HD
ENDBRANCH  27  35
ENDBRANCH  26  27
ENDBRANCH   2  26
ENDBRANCH   1   2
BRANCH   1  37
ATOM     37  O   UNL     1      59.595  89.698  68.614  1.00  0.00    -0.461 OA
BRANCH  37  38
ATOM     38  C   UNL     1      58.666  89.425  67.637  1.00  0.00     0.310 C 
ATOM     39  O   UNL     1      58.863  89.522  66.434  1.00  0.00    -0.252 OA
BRANCH  38  40
ATOM     40  C   UNL     1      57.372  88.988  68.280  1.00  0.00     0.158 C 
BRANCH  40  41
ATOM     41  C   UNL     1      56.548  90.144  68.786  1.00  0.00    -0.037 A 
ATOM     42  C   UNL     1      56.810  90.692  70.042  1.00  0.00     0.008 A 
ATOM     43  C   UNL     1      55.522  90.666  67.999  1.00  0.00     0.008 A 
ATOM     44  C   UNL     1      56.047  91.761  70.510  1.00  0.00     0.046 A 
ATOM     45  C   UNL     1      54.758  91.736  68.467  1.00  0.00     0.046 A 
ATOM     46  C   UNL     1      55.020  92.283  69.722  1.00  0.00     0.115 A 
BRANCH  46  47
ATOM     47  O   UNL     1      54.275  93.326  70.180  1.00  0.00    -0.508 OA
ATOM     48  H   UNL     1      54.400  94.087  69.587  1.00  0.00     0.293 HD
ENDBRANCH  46  47
ENDBRANCH  40  41
ENDBRANCH  38  40
ENDBRANCH  37  38
ENDBRANCH   1  37
TORSDOF 10
ENDMDL
MODEL 4
REMARK VINA RESULT:    -6.433     23.573     27.292
REMARK INTER + INTRA:         -11.282
REMARK INTER:                  -9.220
REMARK INTRA:                  -2.061
REMARK UNBOUND:                -0.336
REMARK SMILES C=C(C)[C@]12C[C@@H](C)[C@@]34O[C@](Cc5ccccc5)(O[C@@H]1[C@@H]3C=C(COC(=O)Cc1ccc(O)cc1)C[C@]1(O)C(=O)C(C)=C[C@@H]41)O2
REMARK SMILES IDX 23 1 22 2 21 3 20 4 9 5 8 6 10 7 6 8 18 10 44 11 19 12 5 13
REMARK SMILES IDX 7 14 4 15 11 16 12 17 13 18 17 19 14 20 16 21 15 22 2 23
REMARK SMILES IDX 3 24 1 25 35 26 36 27 43 28 38 29 42 30 39 32 40 33 41 34
REMARK SMILES IDX 37 35 24 37 25 38 26 39 27 40 28 41 29 42 34 43 30 44 33 45
REMARK SMILES IDX 31 46 32 47
REMARK H PARENT 37 36 32 48
REMARK Flexibility Score: 90.00
ROOT
ATOM      1  C   UNL     1      69.283  87.933  70.732  1.00  0.00     0.264 C 
ENDROOT
BRANCH   1   2
ATOM      2  C   UNL     1      69.989  88.156  69.415  1.00  0.00    -0.033 C 
ATOM      3  C   UNL     1      71.337  88.206  69.390  1.00  0.00    -0.015 C 
BRANCH   3   4
ATOM      4  C   UNL     1      72.271  88.490  68.225  1.00  0.00     0.078 C 
ATOM      5  O   UNL     1      72.879  86.305  67.239  1.00  0.00    -0.319 OA
ATOM      6  C   UNL     1      72.190  87.563  66.957  1.00  0.00     0.095 CG0
ATOM      7  C   UNL     1      74.131  86.433  67.940  1.00  0.00     0.289 C 
ATOM      8  C   UNL     1      72.927  88.309  65.769  1.00  0.00     0.023 C 
ATOM      9  G   UNL     1      70.718  87.144  66.672  1.00  0.00     0.000 G0
ATOM     10  O   UNL     1      73.962  87.112  69.181  1.00  0.00    -0.320 OA
ATOM     11  O   UNL     1      75.086  87.199  67.208  1.00  0.00    -0.313 OA
ATOM     12  C   UNL     1      73.742  88.450  68.708  1.00  0.00     0.170 C 
ATOM     13  C   UNL     1      74.120  89.169  66.286  1.00  0.00     0.049 C 
ATOM     14  C   UNL     1      73.408  87.407  64.620  1.00  0.00     0.011 C 
ATOM     15  C   UNL     1      74.753  88.563  67.540  1.00  0.00     0.122 C 
BRANCH   7  16
ATOM     16  C   UNL     1      74.681  85.042  68.186  1.00  0.00     0.135 C 
BRANCH  16  17
ATOM     17  C   UNL     1      75.430  84.510  66.989  1.00  0.00    -0.040 A 
ATOM     18  C   UNL     1      76.819  84.403  67.027  1.00  0.00     0.004 A 
ATOM     19  C   UNL     1      74.730  84.123  65.846  1.00  0.00     0.004 A 
ATOM     20  C   UNL     1      77.511  83.910  65.920  1.00  0.00     0.000 A 
ATOM     21  C   UNL     1      75.422  83.630  64.740  1.00  0.00     0.000 A 
ATOM     22  C   UNL     1      76.812  83.523  64.777  1.00  0.00     0.000 A 
ENDBRANCH  16  17
ENDBRANCH   7  16
BRANCH  15  23
ATOM     23  C   UNL     1      76.006  89.266  67.948  1.00  0.00    -0.046 C 
ATOM     24  C   UNL     1      75.993  89.910  69.303  1.00  0.00     0.042 C 
ATOM     25  C   UNL     1      77.081  89.321  67.148  1.00  0.00     0.010 C 
ENDBRANCH  15  23
ENDBRANCH   3   4
BRANCH   2  26
ATOM     26  C   UNL     1      69.036  88.292  68.243  1.00  0.00     0.078 C 
BRANCH  26  27
ATOM     27  C   UNL     1      69.645  88.278  66.842  1.00  0.00     0.140 C 
ATOM     28  C   UNL     1      70.697  87.162  66.674  1.00  0.00     0.086 CG0
ATOM     29  C   UNL     1      68.631  87.932  65.772  1.00  0.00     0.190 C 
ATOM     30  C   UNL     1      70.339  86.539  65.353  1.00  0.00    -0.010 C 
ATOM     31  G   UNL     1      72.174  87.565  66.953  1.00  0.00     0.000 G0
ATOM     32  O   UNL     1      67.526  88.441  65.653  1.00  0.00    -0.291 OA
ATOM     33  C   UNL     1      69.171  86.930  64.834  1.00  0.00    -0.008 C 
ATOM     34  C   UNL     1      68.473  86.475  63.614  1.00  0.00     0.048 C 
BRANCH  27  35
ATOM     35  O   UNL     1      70.109  89.564  66.466  1.00  0.00    -0.381 OA
ATOM     36  H   UNL     1      70.557  89.488  65.607  1.00  0.00     0.212 HD
ENDBRANCH  27  35
ENDBRANCH  26  27
ENDBRANCH   2  26
ENDBRANCH   1   2
BRANCH   1  37
ATOM     37  O   UNL     1      67.924  87.639  70.489  1.00  0.00    -0.461 OA
BRANCH  37  38
ATOM     38  C   UNL     1      67.398  86.576  71.186  1.00  0.00     0.310 C 
ATOM     39  O   UNL     1      67.395  86.467  72.404  1.00  0.00    -0.252 OA
BRANCH  38  40
ATOM     40  C   UNL     1      66.828  85.569  70.216  1.00  0.00     0.158 C 
BRANCH  40  41
ATOM     41  C   UNL     1      67.880  84.933  69.344  1.00  0.00    -0.037 A 
ATOM     42  C   UNL     1      67.587  84.616  68.017  1.00  0.00     0.008 A 
ATOM     43  C   UNL     1      69.145  84.660  69.862  1.00  0.00     0.008 A 
ATOM     44  C   UNL     1      68.560  84.026  67.210  1.00  0.00     0.046 A 
ATOM     45  C   UNL     1      70.119  84.071  69.055  1.00  0.00     0.046 A 
ATOM     46  C   UNL     1      69.826  83.753  67.730  1.00  0.00     0.115 A 
BRANCH  46  47
ATOM     47  O   UNL     1      70.775  83.178  66.942  1.00  0.00    -0.508 OA
ATOM     48  H   UNL     1      71.435  82.742  67.510  1.00  0.00     0.293 HD
ENDBRANCH  46  47
ENDBRANCH  40  41
ENDBRANCH  38  40
ENDBRANCH  37  38
ENDBRANCH   1  37
TORSDOF 10
ENDMDL
MODEL 5
REMARK VINA RESULT:    -6.299     22.769     26.772
REMARK INTER + INTRA:         -11.053
REMARK INTER:                 -10.259
REMARK INTRA:                  -0.795
REMARK UNBOUND:                -0.336
REMARK SMILES C=C(C)[C@]12C[C@@H](C)[C@@]34O[C@](Cc5ccccc5)(O[C@@H]1[C@@H]3C=C(COC(=O)Cc1ccc(O)cc1)C[C@]1(O)C(=O)C(C)=C[C@@H]41)O2
REMARK SMILES IDX 23 1 22 2 21 3 20 4 9 5 8 6 10 7 6 8 18 10 44 11 19 12 5 13
REMARK SMILES IDX 7 14 4 15 11 16 12 17 13 18 17 19 14 20 16 21 15 22 2 23
REMARK SMILES IDX 3 24 1 25 35 26 36 27 43 28 38 29 42 30 39 32 40 33 41 34
REMARK SMILES IDX 37 35 24 37 25 38 26 39 27 40 28 41 29 42 34 43 30 44 33 45
REMARK SMILES IDX 31 46 32 47
REMARK H PARENT 37 36 32 48
REMARK Flexibility Score: 90.00
ROOT
ATOM      1  C   UNL     1      74.868  94.964  66.818  1.00  0.00     0.264 C 
ENDROOT
BRANCH   1   2
ATOM      2  C   UNL     1      74.151  93.845  67.537  1.00  0.00    -0.033 C 
ATOM      3  C   UNL     1      74.224  92.592  67.043  1.00  0.00    -0.015 C 
BRANCH   3   4
ATOM      4  C   UNL     1      73.541  91.322  67.528  1.00  0.00     0.078 C 
ATOM      5  O   UNL     1      75.099  90.223  69.102  1.00  0.00    -0.319 OA
ATOM      6  C   UNL     1      73.787  90.860  69.011  1.00  0.00     0.095 CG0
ATOM      7  C   UNL     1      75.425  89.328  68.021  1.00  0.00     0.289 C 
ATOM      8  C   UNL     1      72.665  89.803  69.376  1.00  0.00     0.023 C 
ATOM      9  G   UNL     1      73.885  92.087  69.964  1.00  0.00     0.000 G0
ATOM     10  O   UNL     1      75.363  89.992  66.762  1.00  0.00    -0.320 OA
ATOM     11  O   UNL     1      74.512  88.237  67.926  1.00  0.00    -0.313 OA
ATOM     12  C   UNL     1      73.940  90.132  66.622  1.00  0.00     0.170 C 
ATOM     13  C   UNL     1      72.253  88.954  68.135  1.00  0.00     0.049 C 
ATOM     14  C   UNL     1      72.998  88.863  70.548  1.00  0.00     0.011 C 
ATOM     15  C   UNL     1      73.416  88.777  67.158  1.00  0.00     0.122 C 
BRANCH   7  16
ATOM     16  C   UNL     1      76.825  88.795  68.251  1.00  0.00     0.135 C 
BRANCH  16  17
ATOM     17  C   UNL     1      76.882  87.291  68.154  1.00  0.00    -0.040 A 
ATOM     18  C   UNL     1      77.004  86.676  66.909  1.00  0.00     0.004 A 
ATOM     19  C   UNL     1      76.812  86.515  69.312  1.00  0.00     0.004 A 
ATOM     20  C   UNL     1      77.057  85.284  66.819  1.00  0.00     0.000 A 
ATOM     21  C   UNL     1      76.865  85.124  69.222  1.00  0.00     0.000 A 
ATOM     22  C   UNL     1      76.987  84.509  67.977  1.00  0.00     0.000 A 
ENDBRANCH  16  17
ENDBRANCH   7  16
BRANCH  15  23
ATOM     23  C   UNL     1      73.099  87.821  66.055  1.00  0.00    -0.046 C 
ATOM     24  C   UNL     1      72.452  88.408  64.836  1.00  0.00     0.042 C 
ATOM     25  C   UNL     1      73.377  86.512  66.149  1.00  0.00     0.010 C 
ENDBRANCH  15  23
ENDBRANCH   3   4
BRANCH   2  26
ATOM     26  C   UNL     1      73.419  94.310  68.782  1.00  0.00     0.078 C 
BRANCH  26  27
ATOM     27  C   UNL     1      72.871  93.230  69.713  1.00  0.00     0.140 C 
ATOM     28  C   UNL     1      73.886  92.092  69.947  1.00  0.00     0.086 CG0
ATOM     29  C   UNL     1      72.629  93.743  71.117  1.00  0.00     0.190 C 
ATOM     30  C   UNL     1      73.837  91.880  71.435  1.00  0.00    -0.010 C 
ATOM     31  G   UNL     1      73.770  90.864  68.998  1.00  0.00     0.000 G0
ATOM     32  O   UNL     1      72.028  94.769  71.401  1.00  0.00    -0.291 OA
ATOM     33  C   UNL     1      73.163  92.807  72.123  1.00  0.00    -0.008 C 
ATOM     34  C   UNL     1      72.979  92.963  73.581  1.00  0.00     0.048 C 
BRANCH  27  35
ATOM     35  O   UNL     1      71.594  92.781  69.292  1.00  0.00    -0.381 OA
ATOM     36  H   UNL     1      71.707  92.247  68.487  1.00  0.00     0.212 HD
ENDBRANCH  27  35
ENDBRANCH  26  27
ENDBRANCH   2  26
ENDBRANCH   1   2
BRANCH   1  37
ATOM     37  O   UNL     1      75.797  95.564  67.696  1.00  0.00    -0.461 OA
BRANCH  37  38
ATOM     38  C   UNL     1      76.632  96.508  67.145  1.00  0.00     0.310 C 
ATOM     39  O   UNL     1      77.124  96.444  66.027  1.00  0.00    -0.252 OA
BRANCH  38  40
ATOM     40  C   UNL     1      76.846  97.629  68.133  1.00  0.00     0.158 C 
BRANCH  40  41
ATOM     41  C   UNL     1      77.478  97.167  69.420  1.00  0.00    -0.037 A 
ATOM     42  C   UNL     1      76.680  96.900  70.533  1.00  0.00     0.008 A 
ATOM     43  C   UNL     1      78.861  97.006  69.500  1.00  0.00     0.008 A 
ATOM     44  C   UNL     1      77.265  96.472  71.725  1.00  0.00     0.046 A 
ATOM     45  C   UNL     1      79.447  96.578  70.692  1.00  0.00     0.046 A 
ATOM     46  C   UNL     1      78.649  96.311  71.804  1.00  0.00     0.115 A 
BRANCH  46  47
ATOM     47  O   UNL     1      79.220  95.895  72.967  1.00  0.00    -0.508 OA
ATOM     48  H   UNL     1      78.540  95.877  73.663  1.00  0.00     0.293 HD
ENDBRANCH  46  47
ENDBRANCH  40  41
ENDBRANCH  38  40
ENDBRANCH  37  38
ENDBRANCH   1  37
TORSDOF 10
ENDMDL
MODEL 6
REMARK VINA RESULT:    -6.275      6.530     11.063
REMARK INTER + INTRA:         -11.013
REMARK INTER:                 -11.078
REMARK INTRA:                   0.065
REMARK UNBOUND:                -0.336
REMARK SMILES C=C(C)[C@]12C[C@@H](C)[C@@]34O[C@](Cc5ccccc5)(O[C@@H]1[C@@H]3C=C(COC(=O)Cc1ccc(O)cc1)C[C@]1(O)C(=O)C(C)=C[C@@H]41)O2
REMARK SMILES IDX 23 1 22 2 21 3 20 4 9 5 8 6 10 7 6 8 18 10 44 11 19 12 5 13
REMARK SMILES IDX 7 14 4 15 11 16 12 17 13 18 17 19 14 20 16 21 15 22 2 23
REMARK SMILES IDX 3 24 1 25 35 26 36 27 43 28 38 29 42 30 39 32 40 33 41 34
REMARK SMILES IDX 37 35 24 37 25 38 26 39 27 40 28 41 29 42 34 43 30 44 33 45
REMARK SMILES IDX 31 46 32 47
REMARK H PARENT 37 36 32 48
REMARK Flexibility Score: 90.00
ROOT
ATOM      1  C   UNL     1      97.876  81.799  80.453  1.00  0.00     0.264 C 
ENDROOT
BRANCH   1   2
ATOM      2  C   UNL     1      97.877  80.858  81.636  1.00  0.00    -0.033 C 
ATOM      3  C   UNL     1      98.144  81.345  82.865  1.00  0.00    -0.015 C 
BRANCH   3   4
ATOM      4  C   UNL     1      98.280  80.606  84.187  1.00  0.00     0.078 C 
ATOM      5  O   UNL     1      96.045  80.609  85.247  1.00  0.00    -0.319 OA
ATOM      6  C   UNL     1      97.070  79.732  84.684  1.00  0.00     0.095 CG0
ATOM      7  C   UNL     1      96.539  81.672  86.085  1.00  0.00     0.289 C 
ATOM      8  C   UNL     1      97.610  78.764  85.815  1.00  0.00     0.023 C 
ATOM      9  G   UNL     1      96.365  79.032  83.486  1.00  0.00     0.000 G0
ATOM     10  O   UNL     1      97.464  82.497  85.383  1.00  0.00    -0.320 OA
ATOM     11  O   UNL     1      97.244  81.183  87.223  1.00  0.00    -0.313 OA
ATOM     12  C   UNL     1      98.594  81.612  85.322  1.00  0.00     0.170 C 
ATOM     13  C   UNL     1      98.749  79.433  86.644  1.00  0.00     0.049 C 
ATOM     14  C   UNL     1      96.543  78.205  86.773  1.00  0.00     0.011 C 
ATOM     15  C   UNL     1      98.577  80.950  86.722  1.00  0.00     0.122 C 
BRANCH   7  16
ATOM     16  C   UNL     1      95.356  82.503  86.543  1.00  0.00     0.135 C 
BRANCH  16  17
ATOM     17  C   UNL     1      94.055  82.000  85.970  1.00  0.00    -0.040 A 
ATOM     18  C   UNL     1      93.607  80.716  86.277  1.00  0.00     0.004 A 
ATOM     19  C   UNL     1      93.300  82.821  85.133  1.00  0.00     0.004 A 
ATOM     20  C   UNL     1      92.403  80.251  85.747  1.00  0.00     0.000 A 
ATOM     21  C   UNL     1      92.095  82.356  84.603  1.00  0.00     0.000 A 
ATOM     22  C   UNL     1      91.648  81.072  84.910  1.00  0.00     0.000 A 
ENDBRANCH  16  17
ENDBRANCH   7  16
BRANCH  15  23
ATOM     23  C   UNL     1      99.550  81.591  87.657  1.00  0.00    -0.046 C 
ATOM     24  C   UNL     1     100.896  80.939  87.761  1.00  0.00     0.042 C 
ATOM     25  C   UNL     1      99.237  82.687  88.364  1.00  0.00     0.010 C 
ENDBRANCH  15  23
ENDBRANCH   3   4
BRANCH   2  26
ATOM     26  C   UNL     1      97.554  79.425  81.257  1.00  0.00     0.078 C 
BRANCH  26  27
ATOM     27  C   UNL     1      97.296  78.442  82.397  1.00  0.00     0.140 C 
ATOM     28  C   UNL     1      96.375  79.037  83.483  1.00  0.00     0.086 CG0
ATOM     29  C   UNL     1      96.522  77.221  81.947  1.00  0.00     0.190 C 
ATOM     30  C   UNL     1      95.389  77.933  83.748  1.00  0.00    -0.010 C 
ATOM     31  G   UNL     1      97.087  79.729  84.682  1.00  0.00     0.000 G0
ATOM     32  O   UNL     1      96.784  76.538  80.968  1.00  0.00    -0.291 OA
ATOM     33  C   UNL     1      95.427  76.913  82.886  1.00  0.00    -0.008 C 
ATOM     34  C   UNL     1      94.567  75.715  82.791  1.00  0.00     0.048 C 
BRANCH  27  35
ATOM     35  O   UNL     1      98.507  77.907  82.904  1.00  0.00    -0.381 OA
ATOM     36  H   UNL     1      98.654  78.270  83.794  1.00  0.00     0.212 HD
ENDBRANCH  27  35
ENDBRANCH  26  27
ENDBRANCH   2  26
ENDBRANCH   1   2
BRANCH   1  37
ATOM     37  O   UNL     1      98.972  81.498  79.616  1.00  0.00    -0.461 OA
BRANCH  37  38
ATOM     38  C   UNL     1      98.666  81.099  78.335  1.00  0.00     0.310 C 
ATOM     39  O   UNL     1      97.917  80.177  78.046  1.00  0.00    -0.252 OA
BRANCH  38  40
ATOM     40  C   UNL     1      99.399  81.975  77.347  1.00  0.00     0.158 C 
BRANCH  40  41
ATOM     41  C   UNL     1      98.482  82.901  76.591  1.00  0.00    -0.037 A 
ATOM     42  C   UNL     1      98.666  83.101  75.222  1.00  0.00     0.008 A 
ATOM     43  C   UNL     1      97.449  83.560  77.258  1.00  0.00     0.008 A 
ATOM     44  C   UNL     1      97.817  83.959  74.522  1.00  0.00     0.046 A 
ATOM     45  C   UNL     1      96.600  84.417  76.558  1.00  0.00     0.046 A 
ATOM     46  C   UNL     1      96.784  84.617  75.190  1.00  0.00     0.115 A 
BRANCH  46  47
ATOM     47  O   UNL     1      95.958  85.455  74.507  1.00  0.00    -0.508 OA
ATOM     48  H   UNL     1      96.458  85.872  73.784  1.00  0.00     0.293 HD
ENDBRANCH  46  47
ENDBRANCH  40  41
ENDBRANCH  38  40
ENDBRANCH  37  38
ENDBRANCH   1  37
TORSDOF 10
ENDMDL
MODEL 7
REMARK VINA RESULT:    -6.169     21.334     25.080
REMARK INTER + INTRA:         -10.832
REMARK INTER:                 -10.045
REMARK INTRA:                  -0.787
REMARK UNBOUND:                -0.336
REMARK SMILES C=C(C)[C@]12C[C@@H](C)[C@@]34O[C@](Cc5ccccc5)(O[C@@H]1[C@@H]3C=C(COC(=O)Cc1ccc(O)cc1)C[C@]1(O)C(=O)C(C)=C[C@@H]41)O2
REMARK SMILES IDX 23 1 22 2 21 3 20 4 9 5 8 6 10 7 6 8 18 10 44 11 19 12 5 13
REMARK SMILES IDX 7 14 4 15 11 16 12 17 13 18 17 19 14 20 16 21 15 22 2 23
REMARK SMILES IDX 3 24 1 25 35 26 36 27 43 28 38 29 42 30 39 32 40 33 41 34
REMARK SMILES IDX 37 35 24 37 25 38 26 39 27 40 28 41 29 42 34 43 30 44 33 45
REMARK SMILES IDX 31 46 32 47
REMARK H PARENT 37 36 32 48
REMARK Flexibility Score: 90.00
ROOT
ATOM      1  C   UNL     1      95.355  97.936  77.043  1.00  0.00     0.264 C 
ENDROOT
BRANCH   1   2
ATOM      2  C   UNL     1      96.116  98.489  75.861  1.00  0.00    -0.033 C 
ATOM      3  C   UNL     1      97.374  98.943  76.042  1.00  0.00    -0.015 C 
BRANCH   3   4
ATOM      4  C   UNL     1      98.312  99.608  75.047  1.00  0.00     0.078 C 
ATOM      5  O   UNL     1      99.686  97.813  74.042  1.00  0.00    -0.319 OA
ATOM      6  C   UNL     1      98.681  98.829  73.731  1.00  0.00     0.095 CG0
ATOM      7  C   UNL     1     100.738  98.240  74.928  1.00  0.00     0.289 C 
ATOM      8  C   UNL     1      99.293  99.875  72.710  1.00  0.00     0.023 C 
ATOM      9  G   UNL     1      97.460  98.019  73.206  1.00  0.00     0.000 G0
ATOM     10  O   UNL     1     100.213  98.711  76.167  1.00  0.00    -0.320 OA
ATOM     11  O   UNL     1     101.492  99.325  74.392  1.00  0.00    -0.313 OA
ATOM     12  C   UNL     1      99.650  99.962  75.741  1.00  0.00     0.170 C 
ATOM     13  C   UNL     1     100.087 100.997  73.448  1.00  0.00     0.049 C 
ATOM     14  C   UNL     1     100.171  99.277  71.597  1.00  0.00     0.011 C 
ATOM     15  C   UNL     1     100.713 100.487  74.746  1.00  0.00     0.122 C 
BRANCH   7  16
ATOM     16  C   UNL     1     101.658  97.061  75.176  1.00  0.00     0.135 C 
BRANCH  16  17
ATOM     17  C   UNL     1     102.523  96.757  73.979  1.00  0.00    -0.040 A 
ATOM     18  C   UNL     1     103.893  97.016  74.024  1.00  0.00     0.004 A 
ATOM     19  C   UNL     1     101.953  96.215  72.827  1.00  0.00     0.004 A 
ATOM     20  C   UNL     1     104.693  96.734  72.917  1.00  0.00     0.000 A 
ATOM     21  C   UNL     1     102.754  95.933  71.720  1.00  0.00     0.000 A 
ATOM     22  C   UNL     1     104.123  96.193  71.765  1.00  0.00     0.000 A 
ENDBRANCH  16  17
ENDBRANCH   7  16
BRANCH  15  23
ATOM     23  C   UNL     1     101.625 101.490  75.375  1.00  0.00    -0.046 C 
ATOM     24  C   UNL     1     101.263 101.935  76.761  1.00  0.00     0.042 C 
ATOM     25  C   UNL     1     102.705 101.965  74.738  1.00  0.00     0.010 C 
ENDBRANCH  15  23
ENDBRANCH   3   4
BRANCH   2  26
ATOM     26  C   UNL     1      95.323  98.447  74.569  1.00  0.00     0.078 C 
BRANCH  26  27
ATOM     27  C   UNL     1      96.073  98.773  73.278  1.00  0.00     0.140 C 
ATOM     28  C   UNL     1      97.435  98.053  73.197  1.00  0.00     0.086 CG0
ATOM     29  C   UNL     1      95.359  98.257  72.047  1.00  0.00     0.190 C 
ATOM     30  C   UNL     1      97.457  97.501  71.799  1.00  0.00    -0.010 C 
ATOM     31  G   UNL     1      98.664  98.850  73.723  1.00  0.00     0.000 G0
ATOM     32  O   UNL     1      94.174  98.417  71.796  1.00  0.00    -0.291 OA
ATOM     33  C   UNL     1      96.298  97.575  71.137  1.00  0.00    -0.008 C 
ATOM     34  C   UNL     1      95.934  97.068  69.797  1.00  0.00     0.048 C 
BRANCH  27  35
ATOM     35  O   UNL     1      96.151 100.172  73.063  1.00  0.00    -0.381 OA
ATOM     36  H   UNL     1      97.036 100.380  72.718  1.00  0.00     0.212 HD
ENDBRANCH  27  35
ENDBRANCH  26  27
ENDBRANCH   2  26
ENDBRANCH   1   2
BRANCH   1  37
ATOM     37  O   UNL     1      96.085  96.869  77.611  1.00  0.00    -0.461 OA
BRANCH  37  38
ATOM     38  C   UNL     1      95.430  96.124  78.565  1.00  0.00     0.310 C 
ATOM     39  O   UNL     1      95.194  96.496  79.706  1.00  0.00    -0.252 OA
BRANCH  38  40
ATOM     40  C   UNL     1      95.051  94.783  77.984  1.00  0.00     0.158 C 
BRANCH  40  41
ATOM     41  C   UNL     1      93.699  94.792  77.319  1.00  0.00    -0.037 A 
ATOM     42  C   UNL     1      93.606  94.864  75.929  1.00  0.00     0.008 A 
ATOM     43  C   UNL     1      92.541  94.728  78.093  1.00  0.00     0.008 A 
ATOM     44  C   UNL     1      92.354  94.873  75.313  1.00  0.00     0.046 A 
ATOM     45  C   UNL     1      91.289  94.736  77.477  1.00  0.00     0.046 A 
ATOM     46  C   UNL     1      91.195  94.809  76.088  1.00  0.00     0.115 A 
BRANCH  46  47
ATOM     47  O   UNL     1      89.974  94.818  75.487  1.00  0.00    -0.508 OA
ATOM     48  H   UNL     1      89.353  95.322  76.042  1.00  0.00     0.293 HD
ENDBRANCH  46  47
ENDBRANCH  40  41
ENDBRANCH  38  40
ENDBRANCH  37  38
ENDBRANCH   1  37
TORSDOF 10
ENDMDL
MODEL 8
REMARK VINA RESULT:    -5.997      6.922     10.706
REMARK INTER + INTRA:         -10.540
REMARK INTER:                  -8.179
REMARK INTRA:                  -2.361
REMARK UNBOUND:                -0.336
REMARK SMILES C=C(C)[C@]12C[C@@H](C)[C@@]34O[C@](Cc5ccccc5)(O[C@@H]1[C@@H]3C=C(COC(=O)Cc1ccc(O)cc1)C[C@]1(O)C(=O)C(C)=C[C@@H]41)O2
REMARK SMILES IDX 23 1 22 2 21 3 20 4 9 5 8 6 10 7 6 8 18 10 44 11 19 12 5 13
REMARK SMILES IDX 7 14 4 15 11 16 12 17 13 18 17 19 14 20 16 21 15 22 2 23
REMARK SMILES IDX 3 24 1 25 35 26 36 27 43 28 38 29 42 30 39 32 40 33 41 34
REMARK SMILES IDX 37 35 24 37 25 38 26 39 27 40 28 41 29 42 34 43 30 44 33 45
REMARK SMILES IDX 31 46 32 47
REMARK H PARENT 37 36 32 48
REMARK Flexibility Score: 90.00
ROOT
ATOM      1  C   UNL     1      97.707  76.338  80.428  1.00  0.00     0.264 C 
ENDROOT
BRANCH   1   2
ATOM      2  C   UNL     1      97.886  77.130  81.702  1.00  0.00    -0.033 C 
ATOM      3  C   UNL     1      99.129  77.494  82.082  1.00  0.00    -0.015 C 
BRANCH   3   4
ATOM      4  C   UNL     1      99.580  78.217  83.341  1.00  0.00     0.078 C 
ATOM      5  O   UNL     1      99.641  80.630  82.802  1.00  0.00    -0.319 OA
ATOM      6  C   UNL     1      98.976  79.638  83.645  1.00  0.00     0.095 CG0
ATOM      7  C   UNL     1     101.069  80.481  82.686  1.00  0.00     0.289 C 
ATOM      8  C   UNL     1      99.265  79.966  85.167  1.00  0.00     0.023 C 
ATOM      9  G   UNL     1      97.481  79.706  83.218  1.00  0.00     0.000 G0
ATOM     10  O   UNL     1     101.416  79.195  82.180  1.00  0.00    -0.320 OA
ATOM     11  O   UNL     1     101.731  80.590  83.944  1.00  0.00    -0.313 OA
ATOM     12  C   UNL     1     101.119  78.385  83.328  1.00  0.00     0.170 C 
ATOM     13  C   UNL     1     100.616  79.347  85.640  1.00  0.00     0.049 C 
ATOM     14  C   UNL     1      99.229  81.458  85.541  1.00  0.00     0.011 C 
ATOM     15  C   UNL     1     101.630  79.262  84.497  1.00  0.00     0.122 C 
BRANCH   7  16
ATOM     16  C   UNL     1     101.584  81.556  81.749  1.00  0.00     0.135 C 
BRANCH  16  17
ATOM     17  C   UNL     1     102.172  80.975  80.488  1.00  0.00    -0.040 A 
ATOM     18  C   UNL     1     103.511  80.586  80.457  1.00  0.00     0.004 A 
ATOM     19  C   UNL     1     101.376  80.826  79.353  1.00  0.00     0.004 A 
ATOM     20  C   UNL     1     104.055  80.048  79.290  1.00  0.00     0.000 A 
ATOM     21  C   UNL     1     101.920  80.288  78.186  1.00  0.00     0.000 A 
ATOM     22  C   UNL     1     103.258  79.899  78.155  1.00  0.00     0.000 A 
ENDBRANCH  16  17
ENDBRANCH   7  16
BRANCH  15  23
ATOM     23  C   UNL     1     102.986  78.843  84.963  1.00  0.00    -0.046 C 
ATOM     24  C   UNL     1     103.547  77.601  84.336  1.00  0.00     0.042 C 
ATOM     25  C   UNL     1     103.663  79.537  85.890  1.00  0.00     0.010 C 
ENDBRANCH  15  23
ENDBRANCH   3   4
BRANCH   2  26
ATOM     26  C   UNL     1      96.577  77.428  82.408  1.00  0.00     0.078 C 
BRANCH  26  27
ATOM     27  C   UNL     1      96.615  78.442  83.550  1.00  0.00     0.140 C 
ATOM     28  C   UNL     1      97.471  79.678  83.205  1.00  0.00     0.086 CG0
ATOM     29  C   UNL     1      95.258  79.053  83.828  1.00  0.00     0.190 C 
ATOM     30  C   UNL     1      96.613  80.832  83.647  1.00  0.00    -0.010 C 
ATOM     31  G   UNL     1      98.963  79.624  83.645  1.00  0.00     0.000 G0
ATOM     32  O   UNL     1      94.216  78.430  83.966  1.00  0.00    -0.291 OA
ATOM     33  C   UNL     1      95.357  80.517  83.976  1.00  0.00    -0.008 C 
ATOM     34  C   UNL     1      94.230  81.388  84.370  1.00  0.00     0.048 C 
BRANCH  27  35
ATOM     35  O   UNL     1      96.967  77.826  84.778  1.00  0.00    -0.381 OA
ATOM     36  H   UNL     1      96.974  78.507  85.471  1.00  0.00     0.212 HD
ENDBRANCH  27  35
ENDBRANCH  26  27
ENDBRANCH   2  26
ENDBRANCH   1   2
BRANCH   1  37
ATOM     37  O   UNL     1      97.273  77.201  79.398  1.00  0.00    -0.461 OA
BRANCH  37  38
ATOM     38  C   UNL     1      98.250  77.679  78.555  1.00  0.00     0.310 C 
ATOM     39  O   UNL     1      99.411  77.296  78.536  1.00  0.00    -0.252 OA
BRANCH  38  40
ATOM     40  C   UNL     1      97.665  78.746  77.661  1.00  0.00     0.158 C 
BRANCH  40  41
ATOM     41  C   UNL     1      97.799  80.133  78.236  1.00  0.00    -0.037 A 
ATOM     42  C   UNL     1      97.448  80.375  79.564  1.00  0.00     0.008 A 
ATOM     43  C   UNL     1      98.274  81.175  77.440  1.00  0.00     0.008 A 
ATOM     44  C   UNL     1      97.571  81.658  80.096  1.00  0.00     0.046 A 
ATOM     45  C   UNL     1      98.398  82.459  77.972  1.00  0.00     0.046 A 
ATOM     46  C   UNL     1      98.047  82.701  79.299  1.00  0.00     0.115 A 
BRANCH  46  47
ATOM     47  O   UNL     1      98.167  83.953  79.818  1.00  0.00    -0.508 OA
ATOM     48  H   UNL     1      97.686  84.578  79.248  1.00  0.00     0.293 HD
ENDBRANCH  46  47
ENDBRANCH  40  41
ENDBRANCH  38  40
ENDBRANCH  37  38
ENDBRANCH   1  37
TORSDOF 10
ENDMDL
MODEL 9
REMARK VINA RESULT:    -5.921     26.077     28.835
REMARK INTER + INTRA:         -10.411
REMARK INTER:                  -8.197
REMARK INTRA:                  -2.214
REMARK UNBOUND:                -0.336
REMARK SMILES C=C(C)[C@]12C[C@@H](C)[C@@]34O[C@](Cc5ccccc5)(O[C@@H]1[C@@H]3C=C(COC(=O)Cc1ccc(O)cc1)C[C@]1(O)C(=O)C(C)=C[C@@H]41)O2
REMARK SMILES IDX 23 1 22 2 21 3 20 4 9 5 8 6 10 7 6 8 18 10 44 11 19 12 5 13
REMARK SMILES IDX 7 14 4 15 11 16 12 17 13 18 17 19 14 20 16 21 15 22 2 23
REMARK SMILES IDX 3 24 1 25 35 26 36 27 43 28 38 29 42 30 39 32 40 33 41 34
REMARK SMILES IDX 37 35 24 37 25 38 26 39 27 40 28 41 29 42 34 43 30 44 33 45
REMARK SMILES IDX 31 46 32 47
REMARK H PARENT 37 36 32 48
REMARK Flexibility Score: 90.00
ROOT
ATOM      1  C   UNL     1      64.427  64.904  86.482  1.00  0.00     0.264 C 
ENDROOT
BRANCH   1   2
ATOM      2  C   UNL     1      65.306  64.652  85.279  1.00  0.00    -0.033 C 
ATOM      3  C   UNL     1      64.765  64.703  84.044  1.00  0.00    -0.015 C 
BRANCH   3   4
ATOM      4  C   UNL     1      65.407  64.416  82.696  1.00  0.00     0.078 C 
ATOM      5  O   UNL     1      66.260  66.571  81.833  1.00  0.00    -0.319 OA
ATOM      6  C   UNL     1      66.678  65.244  82.282  1.00  0.00     0.095 CG0
ATOM      7  C   UNL     1      65.096  66.594  80.985  1.00  0.00     0.289 C 
ATOM      8  C   UNL     1      67.377  64.481  81.082  1.00  0.00     0.023 C 
ATOM      9  G   UNL     1      67.585  65.521  83.517  1.00  0.00     0.000 G0
ATOM     10  O   UNL     1      63.976  65.992  81.626  1.00  0.00    -0.320 OA
ATOM     11  O   UNL     1      65.290  65.861  79.777  1.00  0.00    -0.313 OA
ATOM     12  C   UNL     1      64.366  64.610  81.566  1.00  0.00     0.170 C 
ATOM     13  C   UNL     1      66.332  63.760  80.177  1.00  0.00     0.049 C 
ATOM     14  C   UNL     1      68.306  65.338  80.205  1.00  0.00     0.011 C 
ATOM     15  C   UNL     1      64.994  64.501  80.156  1.00  0.00     0.122 C 
BRANCH   7  16
ATOM     16  C   UNL     1      64.781  68.039  80.652  1.00  0.00     0.135 C 
BRANCH  16  17
ATOM     17  C   UNL     1      64.140  68.761  81.811  1.00  0.00    -0.040 A 
ATOM     18  C   UNL     1      64.890  69.060  82.948  1.00  0.00     0.004 A 
ATOM     19  C   UNL     1      62.796  69.127  81.746  1.00  0.00     0.004 A 
ATOM     20  C   UNL     1      64.297  69.728  84.020  1.00  0.00     0.000 A 
ATOM     21  C   UNL     1      62.203  69.795  82.818  1.00  0.00     0.000 A 
ATOM     22  C   UNL     1      62.953  70.095  83.954  1.00  0.00     0.000 A 
ENDBRANCH  16  17
ENDBRANCH   7  16
BRANCH  15  23
ATOM     23  C   UNL     1      64.039  63.932  79.158  1.00  0.00    -0.046 C 
ATOM     24  C   UNL     1      64.416  64.093  77.715  1.00  0.00     0.042 C 
ATOM     25  C   UNL     1      62.909  63.313  79.530  1.00  0.00     0.010 C 
ENDBRANCH  15  23
ENDBRANCH   3   4
BRANCH   2  26
ATOM     26  C   UNL     1      66.751  64.369  85.646  1.00  0.00     0.078 C 
BRANCH  26  27
ATOM     27  C   UNL     1      67.764  64.317  84.504  1.00  0.00     0.140 C 
ATOM     28  C   UNL     1      67.604  65.501  83.527  1.00  0.00     0.086 CG0
ATOM     29  C   UNL     1      69.190  64.482  84.985  1.00  0.00     0.190 C 
ATOM     30  C   UNL     1      69.016  65.976  83.320  1.00  0.00    -0.010 C 
ATOM     31  G   UNL     1      66.694  65.251  82.290  1.00  0.00     0.000 G0
ATOM     32  O   UNL     1      69.699  63.872  85.913  1.00  0.00    -0.291 OA
ATOM     33  C   UNL     1      69.925  65.444  84.142  1.00  0.00    -0.008 C 
ATOM     34  C   UNL     1      71.368  65.732  84.279  1.00  0.00     0.048 C 
BRANCH  27  35
ATOM     35  O   UNL     1      67.765  63.048  83.870  1.00  0.00    -0.381 OA
ATOM     36  H   UNL     1      68.629  62.920  83.443  1.00  0.00     0.212 HD
ENDBRANCH  27  35
ENDBRANCH  26  27
ENDBRANCH   2  26
ENDBRANCH   1   2
BRANCH   1  37
ATOM     37  O   UNL     1      63.971  66.240  86.454  1.00  0.00    -0.461 OA
BRANCH  37  38
ATOM     38  C   UNL     1      62.723  66.467  86.988  1.00  0.00     0.310 C 
ATOM     39  O   UNL     1      62.411  66.268  88.154  1.00  0.00    -0.252 OA
BRANCH  38  40
ATOM     40  C   UNL     1      61.805  66.998  85.914  1.00  0.00     0.158 C 
BRANCH  40  41
ATOM     41  C   UNL     1      61.308  65.924  84.981  1.00  0.00    -0.037 A 
ATOM     42  C   UNL     1      61.410  66.097  83.601  1.00  0.00     0.008 A 
ATOM     43  C   UNL     1      60.747  64.756  85.497  1.00  0.00     0.008 A 
ATOM     44  C   UNL     1      60.949  65.102  82.737  1.00  0.00     0.046 A 
ATOM     45  C   UNL     1      60.286  63.761  84.634  1.00  0.00     0.046 A 
ATOM     46  C   UNL     1      60.388  63.934  83.254  1.00  0.00     0.115 A 
BRANCH  46  47
ATOM     47  O   UNL     1      59.938  62.965  82.412  1.00  0.00    -0.508 OA
ATOM     48  H   UNL     1      59.237  62.459  82.858  1.00  0.00     0.293 HD
ENDBRANCH  46  47
ENDBRANCH  40  41
ENDBRANCH  38  40
ENDBRANCH  37  38
ENDBRANCH   1  37
TORSDOF 10
ENDMDL
MODEL 10
REMARK VINA RESULT:    -5.849     20.775     24.650
REMARK INTER + INTRA:         -10.288
REMARK INTER:                  -8.402
REMARK INTRA:                  -1.886
REMARK UNBOUND:                -0.336
REMARK SMILES C=C(C)[C@]12C[C@@H](C)[C@@]34O[C@](Cc5ccccc5)(O[C@@H]1[C@@H]3C=C(COC(=O)Cc1ccc(O)cc1)C[C@]1(O)C(=O)C(C)=C[C@@H]41)O2
REMARK SMILES IDX 23 1 22 2 21 3 20 4 9 5 8 6 10 7 6 8 18 10 44 11 19 12 5 13
REMARK SMILES IDX 7 14 4 15 11 16 12 17 13 18 17 19 14 20 16 21 15 22 2 23
REMARK SMILES IDX 3 24 1 25 35 26 36 27 43 28 38 29 42 30 39 32 40 33 41 34
REMARK SMILES IDX 37 35 24 37 25 38 26 39 27 40 28 41 29 42 34 43 30 44 33 45
REMARK SMILES IDX 31 46 32 47
REMARK H PARENT 37 36 32 48
REMARK Flexibility Score: 90.00
ROOT
ATOM      1  C   UNL     1      96.536  96.668  79.566  1.00  0.00     0.264 C 
ENDROOT
BRANCH   1   2
ATOM      2  C   UNL     1      95.695  97.122  78.395  1.00  0.00    -0.033 C 
ATOM      3  C   UNL     1      96.186  98.056  77.554  1.00  0.00    -0.015 C 
BRANCH   3   4
ATOM      4  C   UNL     1      95.520  98.727  76.363  1.00  0.00     0.078 C 
ATOM      5  O   UNL     1      96.113  97.400  74.363  1.00  0.00    -0.319 OA
ATOM      6  C   UNL     1      94.987  97.820  75.194  1.00  0.00     0.095 CG0
ATOM      7  C   UNL     1      97.081  98.427  74.074  1.00  0.00     0.289 C 
ATOM      8  C   UNL     1      93.992  98.694  74.325  1.00  0.00     0.023 C 
ATOM      9  G   UNL     1      94.398  96.491  75.750  1.00  0.00     0.000 G0
ATOM     10  O   UNL     1      97.621  98.982  75.270  1.00  0.00    -0.320 OA
ATOM     11  O   UNL     1      96.512  99.524  73.363  1.00  0.00    -0.313 OA
ATOM     12  C   UNL     1      96.493  99.747  75.723  1.00  0.00     0.170 C 
ATOM     13  C   UNL     1      94.425 100.192  74.291  1.00  0.00     0.049 C 
ATOM     14  C   UNL     1      93.760  98.199  72.887  1.00  0.00     0.011 C 
ATOM     15  C   UNL     1      95.943 100.344  74.405  1.00  0.00     0.122 C 
BRANCH   7  16
ATOM     16  C   UNL     1      98.193  97.812  73.246  1.00  0.00     0.135 C 
BRANCH  16  17
ATOM     17  C   UNL     1      99.515  98.501  73.474  1.00  0.00    -0.040 A 
ATOM     18  C   UNL     1     100.526  97.855  74.185  1.00  0.00     0.004 A 
ATOM     19  C   UNL     1      99.727  99.785  72.972  1.00  0.00     0.004 A 
ATOM     20  C   UNL     1     101.749  98.493  74.394  1.00  0.00     0.000 A 
ATOM     21  C   UNL     1     100.950 100.423  73.181  1.00  0.00     0.000 A 
ATOM     22  C   UNL     1     101.960  99.776  73.892  1.00  0.00     0.000 A 
ENDBRANCH  16  17
ENDBRANCH   7  16
BRANCH  15  23
ATOM     23  C   UNL     1      96.395 101.753  74.194  1.00  0.00    -0.046 C 
ATOM     24  C   UNL     1      96.672 102.154  72.775  1.00  0.00     0.042 C 
ATOM     25  C   UNL     1      96.546 102.610  75.215  1.00  0.00     0.010 C 
ENDBRANCH  15  23
ENDBRANCH   3   4
BRANCH   2  26
ATOM     26  C   UNL     1      94.350  96.424  78.322  1.00  0.00     0.078 C 
BRANCH  26  27
ATOM     27  C   UNL     1      93.533  96.616  77.046  1.00  0.00     0.140 C 
ATOM     28  C   UNL     1      94.399  96.497  75.775  1.00  0.00     0.086 CG0
ATOM     29  C   UNL     1      92.508  95.520  76.844  1.00  0.00     0.190 C 
ATOM     30  C   UNL     1      93.584  95.608  74.877  1.00  0.00    -0.010 C 
ATOM     31  G   UNL     1      94.975  97.829  75.211  1.00  0.00     0.000 G0
ATOM     32  O   UNL     1      91.721  95.122  77.690  1.00  0.00    -0.291 OA
ATOM     33  C   UNL     1      92.531  95.022  75.456  1.00  0.00    -0.008 C 
ATOM     34  C   UNL     1      91.572  94.039  74.912  1.00  0.00     0.048 C 
BRANCH  27  35
ATOM     35  O   UNL     1      92.756  97.800  77.101  1.00  0.00    -0.381 OA
ATOM     36  H   UNL     1      93.360  98.561  77.140  1.00  0.00     0.212 HD
ENDBRANCH  27  35
ENDBRANCH  26  27
ENDBRANCH   2  26
ENDBRANCH   1   2
BRANCH   1  37
ATOM     37  O   UNL     1      97.728  97.425  79.605  1.00  0.00    -0.461 OA
BRANCH  37  38
ATOM     38  C   UNL     1      98.795  96.844  80.251  1.00  0.00     0.310 C 
ATOM     39  O   UNL     1      98.708  96.019  81.149  1.00  0.00    -0.252 OA
BRANCH  38  40
ATOM     40  C   UNL     1     100.084  97.383  79.677  1.00  0.00     0.158 C 
BRANCH  40  41
ATOM     41  C   UNL     1      99.942  98.775  79.119  1.00  0.00    -0.037 A 
ATOM     42  C   UNL     1      99.424  99.797  79.916  1.00  0.00     0.008 A 
ATOM     43  C   UNL     1     100.328  99.044  77.807  1.00  0.00     0.008 A 
ATOM     44  C   UNL     1      99.292 101.086  79.399  1.00  0.00     0.046 A 
ATOM     45  C   UNL     1     100.197 100.333  77.289  1.00  0.00     0.046 A 
ATOM     46  C   UNL     1      99.678 101.354  78.085  1.00  0.00     0.115 A 
BRANCH  46  47
ATOM     47  O   UNL     1      99.549 102.611  77.582  1.00  0.00    -0.508 OA
ATOM     48  H   UNL     1      99.465 102.556  76.614  1.00  0.00     0.293 HD
ENDBRANCH  46  47
ENDBRANCH  40  41
ENDBRANCH  38  40
ENDBRANCH  37  38
ENDBRANCH   1  37
TORSDOF 10
ENDMDL
