MODEL 1
REMARK VINA RESULT:    -6.555      0.000      0.000
REMARK INTER + INTRA:         -12.715
REMARK INTER:                 -11.154
REMARK INTRA:                  -1.560
REMARK UNBOUND:                -1.560
REMARK SMILES C=C(C)[C@]12C[C@@H](C)[C@@]34O[C@](Cc5ccccc5)(O[C@@H]1[C@@H]3C=C(COC(=O)Cc1ccc(O)cc1)C[C@]1(O)C(=O)C(C)=C[C@@H]41)O2
REMARK SMILES IDX 23 1 22 2 21 3 20 4 9 5 8 6 10 7 6 8 18 10 44 11 19 12 5 13
REMARK SMILES IDX 7 14 4 15 11 16 12 17 13 18 17 19 14 20 16 21 15 22 2 23
REMARK SMILES IDX 3 24 1 25 35 26 36 27 43 28 38 29 42 30 39 32 40 33 41 34
REMARK SMILES IDX 37 35 24 37 25 38 26 39 27 40 28 41 29 42 34 43 30 44 33 45
REMARK SMILES IDX 31 46 32 47
REMARK H PARENT 37 36 32 48
REMARK Flexibility Score: 90.00
ROOT
ATOM      1  C   UNL     1      93.041  75.041  83.572  1.00  0.00     0.264 C 
ENDROOT
BRANCH   1   2
ATOM      2  C   UNL     1      94.288  75.687  84.131  1.00  0.00    -0.033 C 
ATOM      3  C   UNL     1      94.417  77.029  84.073  1.00  0.00    -0.015 C 
BRANCH   3   4
ATOM      4  C   UNL     1      95.589  77.904  84.490  1.00  0.00     0.078 C 
ATOM      5  O   UNL     1      95.171  78.605  86.824  1.00  0.00    -0.319 OA
ATOM      6  C   UNL     1      96.083  77.834  85.981  1.00  0.00     0.095 CG0
ATOM      7  C   UNL     1      94.751  79.870  86.279  1.00  0.00     0.289 C 
ATOM      8  C   UNL     1      97.526  78.485  86.039  1.00  0.00     0.023 C 
ATOM      9  G   UNL     1      95.983  76.380  86.529  1.00  0.00     0.000 G0
ATOM     10  O   UNL     1      94.120  79.705  85.013  1.00  0.00    -0.320 OA
ATOM     11  O   UNL     1      95.847  80.753  86.051  1.00  0.00    -0.313 OA
ATOM     12  C   UNL     1      95.263  79.391  84.202  1.00  0.00     0.170 C 
ATOM     13  C   UNL     1      97.674  79.643  85.006  1.00  0.00     0.049 C 
ATOM     14  C   UNL     1      97.974  78.979  87.426  1.00  0.00     0.011 C 
ATOM     15  C   UNL     1      96.342  80.352  84.757  1.00  0.00     0.122 C 
BRANCH   7  16
ATOM     16  C   UNL     1      93.784  80.510  87.256  1.00  0.00     0.135 C 
BRANCH  16  17
ATOM     17  C   UNL     1      93.563  81.972  86.959  1.00  0.00    -0.040 A 
ATOM     18  C   UNL     1      93.031  82.362  85.730  1.00  0.00     0.004 A 
ATOM     19  C   UNL     1      93.891  82.933  87.914  1.00  0.00     0.004 A 
ATOM     20  C   UNL     1      92.827  83.715  85.456  1.00  0.00     0.000 A 
ATOM     21  C   UNL     1      93.687  84.286  87.640  1.00  0.00     0.000 A 
ATOM     22  C   UNL     1      93.155  84.676  86.412  1.00  0.00     0.000 A 
ENDBRANCH  16  17
ENDBRANCH   7  16
BRANCH  15  23
ATOM     23  C   UNL     1      96.493  81.575  83.912  1.00  0.00    -0.046 C 
ATOM     24  C   UNL     1      96.317  81.384  82.434  1.00  0.00     0.042 C 
ATOM     25  C   UNL     1      96.769  82.775  84.443  1.00  0.00     0.010 C 
ENDBRANCH  15  23
ENDBRANCH   3   4
BRANCH   2  26
ATOM     26  C   UNL     1      95.267  74.686  84.714  1.00  0.00     0.078 C 
BRANCH  26  27
ATOM     27  C   UNL     1      96.413  75.241  85.559  1.00  0.00     0.140 C 
ATOM     28  C   UNL     1      95.950  76.374  86.498  1.00  0.00     0.086 CG0
ATOM     29  C   UNL     1      96.965  74.220  86.530  1.00  0.00     0.190 C 
ATOM     30  C   UNL     1      96.584  76.019  87.814  1.00  0.00    -0.010 C 
ATOM     31  G   UNL     1      96.094  77.823  85.947  1.00  0.00     0.000 G0
ATOM     32  O   UNL     1      97.281  73.073  86.248  1.00  0.00    -0.291 OA
ATOM     33  C   UNL     1      97.138  74.804  87.873  1.00  0.00    -0.008 C 
ATOM     34  C   UNL     1      97.768  74.100  89.009  1.00  0.00     0.048 C 
BRANCH  27  35
ATOM     35  O   UNL     1      97.530  75.584  84.756  1.00  0.00    -0.381 OA
ATOM     36  H   UNL     1      97.670  76.544  84.819  1.00  0.00     0.212 HD
ENDBRANCH  27  35
ENDBRANCH  26  27
ENDBRANCH   2  26
ENDBRANCH   1   2
BRANCH   1  37
ATOM     37  O   UNL     1      91.920  75.473  84.313  1.00  0.00    -0.461 OA
BRANCH  37  38
ATOM     38  C   UNL     1      90.794  75.783  83.586  1.00  0.00     0.310 C 
ATOM     39  O   UNL     1      90.654  75.581  82.388  1.00  0.00    -0.252 OA
BRANCH  38  40
ATOM     40  C   UNL     1      89.763  76.408  84.495  1.00  0.00     0.158 C 
BRANCH  40  41
ATOM     41  C   UNL     1      89.653  77.900  84.321  1.00  0.00    -0.037 A 
ATOM     42  C   UNL     1      88.398  78.510  84.301  1.00  0.00     0.008 A 
ATOM     43  C   UNL     1      90.805  78.673  84.178  1.00  0.00     0.008 A 
ATOM     44  C   UNL     1      88.296  79.892  84.138  1.00  0.00     0.046 A 
ATOM     45  C   UNL     1      90.704  80.055  84.017  1.00  0.00     0.046 A 
ATOM     46  C   UNL     1      89.449  80.664  83.996  1.00  0.00     0.115 A 
BRANCH  46  47
ATOM     47  O   UNL     1      89.350  82.012  83.837  1.00  0.00    -0.508 OA
ATOM     48  H   UNL     1      90.064  82.443  84.338  1.00  0.00     0.293 HD
ENDBRANCH  46  47
ENDBRANCH  40  41
ENDBRANCH  38  40
ENDBRANCH  37  38
ENDBRANCH   1  37
TORSDOF 10
ENDMDL
MODEL 2
REMARK VINA RESULT:    -6.417      5.069      9.418
REMARK INTER + INTRA:         -12.480
REMARK INTER:                 -12.015
REMARK INTRA:                  -0.465
REMARK UNBOUND:                -1.560
REMARK SMILES C=C(C)[C@]12C[C@@H](C)[C@@]34O[C@](Cc5ccccc5)(O[C@@H]1[C@@H]3C=C(COC(=O)Cc1ccc(O)cc1)C[C@]1(O)C(=O)C(C)=C[C@@H]41)O2
REMARK SMILES IDX 23 1 22 2 21 3 20 4 9 5 8 6 10 7 6 8 18 10 44 11 19 12 5 13
REMARK SMILES IDX 7 14 4 15 11 16 12 17 13 18 17 19 14 20 16 21 15 22 2 23
REMARK SMILES IDX 3 24 1 25 35 26 36 27 43 28 38 29 42 30 39 32 40 33 41 34
REMARK SMILES IDX 37 35 24 37 25 38 26 39 27 40 28 41 29 42 34 43 30 44 33 45
REMARK SMILES IDX 31 46 32 47
REMARK H PARENT 37 36 32 48
REMARK Flexibility Score: 90.00
ROOT
ATOM      1  C   UNL     1      93.890  87.023  90.292  1.00  0.00     0.264 C 
ENDROOT
BRANCH   1   2
ATOM      2  C   UNL     1      93.929  85.525  90.100  1.00  0.00    -0.033 C 
ATOM      3  C   UNL     1      93.877  85.019  88.850  1.00  0.00    -0.015 C 
BRANCH   3   4
ATOM      4  C   UNL     1      93.824  83.568  88.397  1.00  0.00     0.078 C 
ATOM      5  O   UNL     1      96.158  82.853  88.002  1.00  0.00    -0.319 OA
ATOM      6  C   UNL     1      94.986  82.604  88.839  1.00  0.00     0.095 CG0
ATOM      7  C   UNL     1      95.886  83.032  86.599  1.00  0.00     0.289 C 
ATOM      8  C   UNL     1      94.487  81.117  88.614  1.00  0.00     0.023 C 
ATOM      9  G   UNL     1      95.463  82.937  90.283  1.00  0.00     0.000 G0
ATOM     10  O   UNL     1      94.975  84.105  86.382  1.00  0.00    -0.320 OA
ATOM     11  O   UNL     1      95.275  81.884  86.014  1.00  0.00    -0.313 OA
ATOM     12  C   UNL     1      93.759  83.502  86.852  1.00  0.00     0.170 C 
ATOM     13  C   UNL     1      93.534  81.014  87.383  1.00  0.00     0.049 C 
ATOM     14  C   UNL     1      95.597  80.059  88.489  1.00  0.00     0.011 C 
ATOM     15  C   UNL     1      93.875  82.054  86.315  1.00  0.00     0.122 C 
BRANCH   7  16
ATOM     16  C   UNL     1      97.197  83.321  85.894  1.00  0.00     0.135 C 
BRANCH  16  17
ATOM     17  C   UNL     1      97.123  83.021  84.418  1.00  0.00    -0.040 A 
ATOM     18  C   UNL     1      96.403  83.862  83.570  1.00  0.00     0.004 A 
ATOM     19  C   UNL     1      97.777  81.903  83.901  1.00  0.00     0.004 A 
ATOM     20  C   UNL     1      96.336  83.585  82.204  1.00  0.00     0.000 A 
ATOM     21  C   UNL     1      97.710  81.626  82.535  1.00  0.00     0.000 A 
ATOM     22  C   UNL     1      96.989  82.467  81.687  1.00  0.00     0.000 A 
ENDBRANCH  16  17
ENDBRANCH   7  16
BRANCH  15  23
ATOM     23  C   UNL     1      93.096  81.858  85.055  1.00  0.00    -0.046 C 
ATOM     24  C   UNL     1      93.761  81.042  83.987  1.00  0.00     0.042 C 
ATOM     25  C   UNL     1      91.873  82.383  84.888  1.00  0.00     0.010 C 
ENDBRANCH  15  23
ENDBRANCH   3   4
BRANCH   2  26
ATOM     26  C   UNL     1      94.036  84.759  91.405  1.00  0.00     0.078 C 
BRANCH  26  27
ATOM     27  C   UNL     1      94.325  83.262  91.315  1.00  0.00     0.140 C 
ATOM     28  C   UNL     1      95.443  82.943  90.301  1.00  0.00     0.086 CG0
ATOM     29  C   UNL     1      94.885  82.700  92.604  1.00  0.00     0.190 C 
ATOM     30  C   UNL     1      96.320  81.971  91.041  1.00  0.00    -0.010 C 
ATOM     31  G   UNL     1      94.980  82.605  88.854  1.00  0.00     0.000 G0
ATOM     32  O   UNL     1      94.420  82.886  93.719  1.00  0.00    -0.291 OA
ATOM     33  C   UNL     1      96.050  81.834  92.343  1.00  0.00    -0.008 C 
ATOM     34  C   UNL     1      96.745  81.044  93.380  1.00  0.00     0.048 C 
BRANCH  27  35
ATOM     35  O   UNL     1      93.136  82.516  91.109  1.00  0.00    -0.381 OA
ATOM     36  H   UNL     1      93.097  81.811  91.777  1.00  0.00     0.212 HD
ENDBRANCH  27  35
ENDBRANCH  26  27
ENDBRANCH   2  26
ENDBRANCH   1   2
BRANCH   1  37
ATOM     37  O   UNL     1      93.239  87.320  91.509  1.00  0.00    -0.461 OA
BRANCH  37  38
ATOM     38  C   UNL     1      92.367  88.384  91.487  1.00  0.00     0.310 C 
ATOM     39  O   UNL     1      91.844  88.884  92.474  1.00  0.00    -0.252 OA
BRANCH  38  40
ATOM     40  C   UNL     1      92.158  88.836  90.062  1.00  0.00     0.158 C 
BRANCH  40  41
ATOM     41  C   UNL     1      92.840  90.143  89.753  1.00  0.00    -0.037 A 
ATOM     42  C   UNL     1      92.555  91.276  90.516  1.00  0.00     0.008 A 
ATOM     43  C   UNL     1      93.757  90.222  88.705  1.00  0.00     0.008 A 
ATOM     44  C   UNL     1      93.186  92.487  90.230  1.00  0.00     0.046 A 
ATOM     45  C   UNL     1      94.388  91.433  88.419  1.00  0.00     0.046 A 
ATOM     46  C   UNL     1      94.103  92.565  89.181  1.00  0.00     0.115 A 
BRANCH  46  47
ATOM     47  O   UNL     1      94.717  93.747  88.902  1.00  0.00    -0.508 OA
ATOM     48  H   UNL     1      94.607  94.347  89.660  1.00  0.00     0.293 HD
ENDBRANCH  46  47
ENDBRANCH  40  41
ENDBRANCH  38  40
ENDBRANCH  37  38
ENDBRANCH   1  37
TORSDOF 10
ENDMDL
MODEL 3
REMARK VINA RESULT:    -6.407     17.230     20.615
REMARK INTER + INTRA:         -12.463
REMARK INTER:                 -12.586
REMARK INTRA:                   0.123
REMARK UNBOUND:                -1.560
REMARK SMILES C=C(C)[C@]12C[C@@H](C)[C@@]34O[C@](Cc5ccccc5)(O[C@@H]1[C@@H]3C=C(COC(=O)Cc1ccc(O)cc1)C[C@]1(O)C(=O)C(C)=C[C@@H]41)O2
REMARK SMILES IDX 23 1 22 2 21 3 20 4 9 5 8 6 10 7 6 8 18 10 44 11 19 12 5 13
REMARK SMILES IDX 7 14 4 15 11 16 12 17 13 18 17 19 14 20 16 21 15 22 2 23
REMARK SMILES IDX 3 24 1 25 35 26 36 27 43 28 38 29 42 30 39 32 40 33 41 34
REMARK SMILES IDX 37 35 24 37 25 38 26 39 27 40 28 41 29 42 34 43 30 44 33 45
REMARK SMILES IDX 31 46 32 47
REMARK H PARENT 37 36 32 48
REMARK Flexibility Score: 90.00
ROOT
ATOM      1  C   UNL     1      93.702  96.111  77.791  1.00  0.00     0.264 C 
ENDROOT
BRANCH   1   2
ATOM      2  C   UNL     1      94.746  97.185  77.995  1.00  0.00    -0.033 C 
ATOM      3  C   UNL     1      95.117  97.514  79.249  1.00  0.00    -0.015 C 
BRANCH   3   4
ATOM      4  C   UNL     1      96.075  98.597  79.719  1.00  0.00     0.078 C 
ATOM      5  O   UNL     1      98.298  97.538  79.952  1.00  0.00    -0.319 OA
ATOM      6  C   UNL     1      97.561  98.555  79.205  1.00  0.00     0.095 CG0
ATOM      7  C   UNL     1      98.042  97.510  81.369  1.00  0.00     0.289 C 
ATOM      8  C   UNL     1      98.204  99.977  79.481  1.00  0.00     0.023 C 
ATOM      9  G   UNL     1      97.621  98.070  77.727  1.00  0.00     0.000 G0
ATOM     10  O   UNL     1      96.657  97.315  81.641  1.00  0.00    -0.320 OA
ATOM     11  O   UNL     1      98.391  98.735  82.009  1.00  0.00    -0.313 OA
ATOM     12  C   UNL     1      96.144  98.603  81.266  1.00  0.00     0.170 C 
ATOM     13  C   UNL     1      97.627 100.623  80.777  1.00  0.00     0.049 C 
ATOM     14  C   UNL     1      99.741 100.008  79.536  1.00  0.00     0.011 C 
ATOM     15  C   UNL     1      97.228  99.566  81.808  1.00  0.00     0.122 C 
BRANCH   7  16
ATOM     16  C   UNL     1      98.848  96.378  81.975  1.00  0.00     0.135 C 
BRANCH  16  17
ATOM     17  C   UNL     1      99.729  96.851  83.104  1.00  0.00    -0.040 A 
ATOM     18  C   UNL     1     100.987  97.385  82.830  1.00  0.00     0.004 A 
ATOM     19  C   UNL     1      99.284  96.753  84.422  1.00  0.00     0.004 A 
ATOM     20  C   UNL     1     101.802  97.823  83.875  1.00  0.00     0.000 A 
ATOM     21  C   UNL     1     100.099  97.191  85.467  1.00  0.00     0.000 A 
ATOM     22  C   UNL     1     101.357  97.726  85.193  1.00  0.00     0.000 A 
ENDBRANCH  16  17
ENDBRANCH   7  16
BRANCH  15  23
ATOM     23  C   UNL     1      96.844 100.162  83.123  1.00  0.00    -0.046 C 
ATOM     24  C   UNL     1      97.958 100.761  83.929  1.00  0.00     0.042 C 
ATOM     25  C   UNL     1      95.576 100.162  83.558  1.00  0.00     0.010 C 
ENDBRANCH  15  23
ENDBRANCH   3   4
BRANCH   2  26
ATOM     26  C   UNL     1      95.264  97.766  76.692  1.00  0.00     0.078 C 
BRANCH  26  27
ATOM     27  C   UNL     1      96.502  98.657  76.770  1.00  0.00     0.140 C 
ATOM     28  C   UNL     1      97.579  98.080  77.711  1.00  0.00     0.086 CG0
ATOM     29  C   UNL     1      97.237  98.744  75.449  1.00  0.00     0.190 C 
ATOM     30  C   UNL     1      98.849  98.224  76.920  1.00  0.00    -0.010 C 
ATOM     31  G   UNL     1      97.538  98.575  79.186  1.00  0.00     0.000 G0
ATOM     32  O   UNL     1      96.721  98.978  74.366  1.00  0.00    -0.291 OA
ATOM     33  C   UNL     1      98.689  98.569  75.638  1.00  0.00    -0.008 C 
ATOM     34  C   UNL     1      99.690  98.719  74.562  1.00  0.00     0.048 C 
BRANCH  27  35
ATOM     35  O   UNL     1      96.155 100.003  77.053  1.00  0.00    -0.381 OA
ATOM     36  H   UNL     1      96.614 100.578  76.417  1.00  0.00     0.212 HD
ENDBRANCH  27  35
ENDBRANCH  26  27
ENDBRANCH   2  26
ENDBRANCH   1   2
BRANCH   1  37
ATOM     37  O   UNL     1      92.698  96.595  76.925  1.00  0.00    -0.461 OA
BRANCH  37  38
ATOM     38  C   UNL     1      92.152  95.678  76.056  1.00  0.00     0.310 C 
ATOM     39  O   UNL     1      92.666  95.310  75.009  1.00  0.00    -0.252 OA
BRANCH  38  40
ATOM     40  C   UNL     1      90.825  95.201  76.595  1.00  0.00     0.158 C 
BRANCH  40  41
ATOM     41  C   UNL     1      90.422  93.853  76.056  1.00  0.00    -0.037 A 
ATOM     42  C   UNL     1      89.933  92.874  76.921  1.00  0.00     0.008 A 
ATOM     43  C   UNL     1      90.539  93.583  74.693  1.00  0.00     0.008 A 
ATOM     44  C   UNL     1      89.561  91.625  76.423  1.00  0.00     0.046 A 
ATOM     45  C   UNL     1      90.166  92.334  74.194  1.00  0.00     0.046 A 
ATOM     46  C   UNL     1      89.678  91.355  75.059  1.00  0.00     0.115 A 
BRANCH  46  47
ATOM     47  O   UNL     1      89.315  90.137  74.573  1.00  0.00    -0.508 OA
ATOM     48  H   UNL     1      89.969  89.854  73.911  1.00  0.00     0.293 HD
ENDBRANCH  46  47
ENDBRANCH  40  41
ENDBRANCH  38  40
ENDBRANCH  37  38
ENDBRANCH   1  37
TORSDOF 10
ENDMDL
MODEL 4
REMARK VINA RESULT:    -6.222      4.772      8.874
REMARK INTER + INTRA:         -12.147
REMARK INTER:                 -11.682
REMARK INTRA:                  -0.465
REMARK UNBOUND:                -1.560
REMARK SMILES C=C(C)[C@]12C[C@@H](C)[C@@]34O[C@](Cc5ccccc5)(O[C@@H]1[C@@H]3C=C(COC(=O)Cc1ccc(O)cc1)C[C@]1(O)C(=O)C(C)=C[C@@H]41)O2
REMARK SMILES IDX 23 1 22 2 21 3 20 4 9 5 8 6 10 7 6 8 18 10 44 11 19 12 5 13
REMARK SMILES IDX 7 14 4 15 11 16 12 17 13 18 17 19 14 20 16 21 15 22 2 23
REMARK SMILES IDX 3 24 1 25 35 26 36 27 43 28 38 29 42 30 39 32 40 33 41 34
REMARK SMILES IDX 37 35 24 37 25 38 26 39 27 40 28 41 29 42 34 43 30 44 33 45
REMARK SMILES IDX 31 46 32 47
REMARK H PARENT 37 36 32 48
REMARK Flexibility Score: 90.00
ROOT
ATOM      1  C   UNL     1      92.317  77.069  83.875  1.00  0.00     0.264 C 
ENDROOT
BRANCH   1   2
ATOM      2  C   UNL     1      91.675  75.881  83.195  1.00  0.00    -0.033 C 
ATOM      3  C   UNL     1      91.779  75.754  81.856  1.00  0.00    -0.015 C 
BRANCH   3   4
ATOM      4  C   UNL     1      91.169  74.708  80.936  1.00  0.00     0.078 C 
ATOM      5  O   UNL     1      92.843  72.906  80.683  1.00  0.00    -0.319 OA
ATOM      6  C   UNL     1      91.506  73.194  81.196  1.00  0.00     0.095 CG0
ATOM      7  C   UNL     1      93.148  73.485  79.400  1.00  0.00     0.289 C 
ATOM      8  C   UNL     1      90.443  72.324  80.407  1.00  0.00     0.023 C 
ATOM      9  G   UNL     1      91.605  72.904  82.723  1.00  0.00     0.000 G0
ATOM     10  O   UNL     1      92.998  74.902  79.423  1.00  0.00    -0.320 OA
ATOM     11  O   UNL     1      92.272  73.022  78.374  1.00  0.00    -0.313 OA
ATOM     12  C   UNL     1      91.566  75.003  79.468  1.00  0.00     0.170 C 
ATOM     13  C   UNL     1      90.001  73.022  79.084  1.00  0.00     0.049 C 
ATOM     14  C   UNL     1      90.868  70.877  80.102  1.00  0.00     0.011 C 
ATOM     15  C   UNL     1      91.120  73.883  78.497  1.00  0.00     0.122 C 
BRANCH   7  16
ATOM     16  C   UNL     1      94.576  73.126  79.043  1.00  0.00     0.135 C 
BRANCH  16  17
ATOM     17  C   UNL     1      94.875  73.370  77.585  1.00  0.00    -0.040 A 
ATOM     18  C   UNL     1      94.885  74.671  77.083  1.00  0.00     0.004 A 
ATOM     19  C   UNL     1      95.142  72.294  76.739  1.00  0.00     0.004 A 
ATOM     20  C   UNL     1      95.162  74.897  75.734  1.00  0.00     0.000 A 
ATOM     21  C   UNL     1      95.419  72.520  75.390  1.00  0.00     0.000 A 
ATOM     22  C   UNL     1      95.428  73.821  74.889  1.00  0.00     0.000 A 
ENDBRANCH  16  17
ENDBRANCH   7  16
BRANCH  15  23
ATOM     23  C   UNL     1      90.784  74.415  77.142  1.00  0.00    -0.046 C 
ATOM     24  C   UNL     1      90.966  73.466  75.995  1.00  0.00     0.042 C 
ATOM     25  C   UNL     1      90.346  75.669  76.961  1.00  0.00     0.010 C 
ENDBRANCH  15  23
ENDBRANCH   3   4
BRANCH   2  26
ATOM     26  C   UNL     1      90.975  74.947  84.163  1.00  0.00     0.078 C 
BRANCH  26  27
ATOM     27  C   UNL     1      90.504  73.600  83.617  1.00  0.00     0.140 C 
ATOM     28  C   UNL     1      91.580  72.914  82.749  1.00  0.00     0.086 CG0
ATOM     29  C   UNL     1      90.270  72.580  84.711  1.00  0.00     0.190 C 
ATOM     30  C   UNL     1      91.578  71.495  83.246  1.00  0.00    -0.010 C 
ATOM     31  G   UNL     1      91.504  73.188  81.219  1.00  0.00     0.000 G0
ATOM     32  O   UNL     1      89.626  72.772  85.731  1.00  0.00    -0.291 OA
ATOM     33  C   UNL     1      90.875  71.281  84.362  1.00  0.00    -0.008 C 
ATOM     34  C   UNL     1      90.718  70.051  85.166  1.00  0.00     0.048 C 
BRANCH  27  35
ATOM     35  O   UNL     1      89.242  73.711  82.981  1.00  0.00    -0.381 OA
ATOM     36  H   UNL     1      88.568  73.331  83.570  1.00  0.00     0.212 HD
ENDBRANCH  27  35
ENDBRANCH  26  27
ENDBRANCH   2  26
ENDBRANCH   1   2
BRANCH   1  37
ATOM     37  O   UNL     1      91.544  78.223  83.624  1.00  0.00    -0.461 OA
BRANCH  37  38
ATOM     38  C   UNL     1      91.616  79.220  84.570  1.00  0.00     0.310 C 
ATOM     39  O   UNL     1      91.905  79.052  85.746  1.00  0.00    -0.252 OA
BRANCH  38  40
ATOM     40  C   UNL     1      91.284  80.547  83.930  1.00  0.00     0.158 C 
BRANCH  40  41
ATOM     41  C   UNL     1      89.845  80.949  84.124  1.00  0.00    -0.037 A 
ATOM     42  C   UNL     1      89.533  82.099  84.849  1.00  0.00     0.008 A 
ATOM     43  C   UNL     1      88.824  80.171  83.579  1.00  0.00     0.008 A 
ATOM     44  C   UNL     1      88.201  82.471  85.030  1.00  0.00     0.046 A 
ATOM     45  C   UNL     1      87.491  80.543  83.758  1.00  0.00     0.046 A 
ATOM     46  C   UNL     1      87.180  81.692  84.484  1.00  0.00     0.115 A 
BRANCH  46  47
ATOM     47  O   UNL     1      85.880  82.055  84.660  1.00  0.00    -0.508 OA
ATOM     48  H   UNL     1      85.450  81.411  85.249  1.00  0.00     0.293 HD
ENDBRANCH  46  47
ENDBRANCH  40  41
ENDBRANCH  38  40
ENDBRANCH  37  38
ENDBRANCH   1  37
TORSDOF 10
ENDMDL
MODEL 5
REMARK VINA RESULT:    -6.023     21.910     26.003
REMARK INTER + INTRA:         -11.808
REMARK INTER:                 -11.350
REMARK INTRA:                  -0.458
REMARK UNBOUND:                -1.560
REMARK SMILES C=C(C)[C@]12C[C@@H](C)[C@@]34O[C@](Cc5ccccc5)(O[C@@H]1[C@@H]3C=C(COC(=O)Cc1ccc(O)cc1)C[C@]1(O)C(=O)C(C)=C[C@@H]41)O2
REMARK SMILES IDX 23 1 22 2 21 3 20 4 9 5 8 6 10 7 6 8 18 10 44 11 19 12 5 13
REMARK SMILES IDX 7 14 4 15 11 16 12 17 13 18 17 19 14 20 16 21 15 22 2 23
REMARK SMILES IDX 3 24 1 25 35 26 36 27 43 28 38 29 42 30 39 32 40 33 41 34
REMARK SMILES IDX 37 35 24 37 25 38 26 39 27 40 28 41 29 42 34 43 30 44 33 45
REMARK SMILES IDX 31 46 32 47
REMARK H PARENT 37 36 32 48
REMARK Flexibility Score: 90.00
ROOT
ATOM      1  C   UNL     1      94.372  97.530  73.036  1.00  0.00     0.264 C 
ENDROOT
BRANCH   1   2
ATOM      2  C   UNL     1      94.195  98.491  71.883  1.00  0.00    -0.033 C 
ATOM      3  C   UNL     1      93.070  99.232  71.810  1.00  0.00    -0.015 C 
BRANCH   3   4
ATOM      4  C   UNL     1      92.622 100.202  70.728  1.00  0.00     0.078 C 
ATOM      5  O   UNL     1      93.356 102.456  71.431  1.00  0.00    -0.319 OA
ATOM      6  C   UNL     1      93.541 101.436  70.401  1.00  0.00     0.095 CG0
ATOM      7  C   UNL     1      91.993 102.681  71.838  1.00  0.00     0.289 C 
ATOM      8  C   UNL     1      93.083 102.017  69.000  1.00  0.00     0.023 C 
ATOM      9  G   UNL     1      95.045 101.048  70.505  1.00  0.00     0.000 G0
ATOM     10  O   UNL     1      91.391 101.481  72.316  1.00  0.00    -0.320 OA
ATOM     11  O   UNL     1      91.171 103.120  70.759  1.00  0.00    -0.313 OA
ATOM     12  C   UNL     1      91.225 100.772  71.078  1.00  0.00     0.170 C 
ATOM     13  C   UNL     1      91.549 101.847  68.784  1.00  0.00     0.049 C 
ATOM     14  C   UNL     1      93.477 103.480  68.731  1.00  0.00     0.011 C 
ATOM     15  C   UNL     1      90.782 101.893  70.107  1.00  0.00     0.122 C 
BRANCH   7  16
ATOM     16  C   UNL     1      91.990 103.729  72.933  1.00  0.00     0.135 C 
BRANCH  16  17
ATOM     17  C   UNL     1      90.619 103.916  73.534  1.00  0.00    -0.040 A 
ATOM     18  C   UNL     1      90.339 103.414  74.804  1.00  0.00     0.004 A 
ATOM     19  C   UNL     1      89.632 104.592  72.818  1.00  0.00     0.004 A 
ATOM     20  C   UNL     1      89.071 103.588  75.360  1.00  0.00     0.000 A 
ATOM     21  C   UNL     1      88.364 104.766  73.373  1.00  0.00     0.000 A 
ATOM     22  C   UNL     1      88.084 104.264  74.644  1.00  0.00     0.000 A 
ENDBRANCH  16  17
ENDBRANCH   7  16
BRANCH  15  23
ATOM     23  C   UNL     1      89.301 101.913  69.911  1.00  0.00    -0.046 C 
ATOM     24  C   UNL     1      88.701 103.236  69.535  1.00  0.00     0.042 C 
ATOM     25  C   UNL     1      88.550 100.813  70.063  1.00  0.00     0.010 C 
ENDBRANCH  15  23
ENDBRANCH   3   4
BRANCH   2  26
ATOM     26  C   UNL     1      95.371  98.494  70.924  1.00  0.00     0.078 C 
BRANCH  26  27
ATOM     27  C   UNL     1      95.444  99.638  69.914  1.00  0.00     0.140 C 
ATOM     28  C   UNL     1      95.052 100.993  70.537  1.00  0.00     0.086 CG0
ATOM     29  C   UNL     1      96.857  99.897  69.434  1.00  0.00     0.190 C 
ATOM     30  C   UNL     1      96.124 101.927  70.048  1.00  0.00    -0.010 C 
ATOM     31  G   UNL     1      93.558 101.406  70.396  1.00  0.00     0.000 G0
ATOM     32  O   UNL     1      97.637  99.046  69.035  1.00  0.00    -0.291 OA
ATOM     33  C   UNL     1      97.165 101.340  69.450  1.00  0.00    -0.008 C 
ATOM     34  C   UNL     1      98.417 101.926  68.928  1.00  0.00     0.048 C 
BRANCH  27  35
ATOM     35  O   UNL     1      94.735  99.327  68.726  1.00  0.00    -0.381 OA
ATOM     36  H   UNL     1      94.539 100.157  68.260  1.00  0.00     0.212 HD
ENDBRANCH  27  35
ENDBRANCH  26  27
ENDBRANCH   2  26
ENDBRANCH   1   2
BRANCH   1  37
ATOM     37  O   UNL     1      94.562  98.262  74.228  1.00  0.00    -0.461 OA
BRANCH  37  38
ATOM     38  C   UNL     1      94.245  97.610  75.398  1.00  0.00     0.310 C 
ATOM     39  O   UNL     1      94.062  98.154  76.478  1.00  0.00    -0.252 OA
BRANCH  38  40
ATOM     40  C   UNL     1      94.159  96.125  75.140  1.00  0.00     0.158 C 
BRANCH  40  41
ATOM     41  C   UNL     1      93.024  95.465  75.879  1.00  0.00    -0.037 A 
ATOM     42  C   UNL     1      93.091  95.310  77.264  1.00  0.00     0.008 A 
ATOM     43  C   UNL     1      91.908  95.007  75.180  1.00  0.00     0.008 A 
ATOM     44  C   UNL     1      92.041  94.698  77.949  1.00  0.00     0.046 A 
ATOM     45  C   UNL     1      90.858  94.395  75.865  1.00  0.00     0.046 A 
ATOM     46  C   UNL     1      90.924  94.240  77.249  1.00  0.00     0.115 A 
BRANCH  46  47
ATOM     47  O   UNL     1      89.901  93.643  77.917  1.00  0.00    -0.508 OA
ATOM     48  H   UNL     1      89.057  93.974  77.564  1.00  0.00     0.293 HD
ENDBRANCH  46  47
ENDBRANCH  40  41
ENDBRANCH  38  40
ENDBRANCH  37  38
ENDBRANCH   1  37
TORSDOF 10
ENDMDL
MODEL 6
REMARK VINA RESULT:    -5.884     25.480     28.885
REMARK INTER + INTRA:         -11.573
REMARK INTER:                 -10.893
REMARK INTRA:                  -0.680
REMARK UNBOUND:                -1.560
REMARK SMILES C=C(C)[C@]12C[C@@H](C)[C@@]34O[C@](Cc5ccccc5)(O[C@@H]1[C@@H]3C=C(COC(=O)Cc1ccc(O)cc1)C[C@]1(O)C(=O)C(C)=C[C@@H]41)O2
REMARK SMILES IDX 23 1 22 2 21 3 20 4 9 5 8 6 10 7 6 8 18 10 44 11 19 12 5 13
REMARK SMILES IDX 7 14 4 15 11 16 12 17 13 18 17 19 14 20 16 21 15 22 2 23
REMARK SMILES IDX 3 24 1 25 35 26 36 27 43 28 38 29 42 30 39 32 40 33 41 34
REMARK SMILES IDX 37 35 24 37 25 38 26 39 27 40 28 41 29 42 34 43 30 44 33 45
REMARK SMILES IDX 31 46 32 47
REMARK H PARENT 37 36 32 48
REMARK Flexibility Score: 90.00
ROOT
ATOM      1  C   UNL     1      73.203  90.245  70.489  1.00  0.00     0.264 C 
ENDROOT
BRANCH   1   2
ATOM      2  C   UNL     1      72.986  91.253  71.594  1.00  0.00    -0.033 C 
ATOM      3  C   UNL     1      73.995  92.078  71.941  1.00  0.00    -0.015 C 
BRANCH   3   4
ATOM      4  C   UNL     1      74.056  93.113  73.053  1.00  0.00     0.078 C 
ATOM      5  O   UNL     1      73.366  95.273  72.067  1.00  0.00    -0.319 OA
ATOM      6  C   UNL     1      72.989  94.269  73.060  1.00  0.00     0.095 CG0
ATOM      7  C   UNL     1      74.767  95.606  72.030  1.00  0.00     0.289 C 
ATOM      8  C   UNL     1      73.004  94.926  74.501  1.00  0.00     0.023 C 
ATOM      9  G   UNL     1      71.604  93.746  72.578  1.00  0.00     0.000 G0
ATOM     10  O   UNL     1      75.567  94.453  71.790  1.00  0.00    -0.320 OA
ATOM     11  O   UNL     1      75.229  96.146  73.266  1.00  0.00    -0.313 OA
ATOM     12  C   UNL     1      75.446  93.795  73.061  1.00  0.00     0.170 C 
ATOM     13  C   UNL     1      74.431  94.899  75.129  1.00  0.00     0.049 C 
ATOM     14  C   UNL     1      72.439  96.355  74.582  1.00  0.00     0.011 C 
ATOM     15  C   UNL     1      75.521  94.977  74.059  1.00  0.00     0.122 C 
BRANCH   7  16
ATOM     16  C   UNL     1      74.984  96.620  70.924  1.00  0.00     0.135 C 
BRANCH  16  17
ATOM     17  C   UNL     1      76.393  96.579  70.386  1.00  0.00    -0.040 A 
ATOM     18  C   UNL     1      77.474  96.771  71.246  1.00  0.00     0.004 A 
ATOM     19  C   UNL     1      76.613  96.348  69.029  1.00  0.00     0.004 A 
ATOM     20  C   UNL     1      78.777  96.732  70.748  1.00  0.00     0.000 A 
ATOM     21  C   UNL     1      77.916  96.309  68.531  1.00  0.00     0.000 A 
ATOM     22  C   UNL     1      78.997  96.501  69.391  1.00  0.00     0.000 A 
ENDBRANCH  16  17
ENDBRANCH   7  16
BRANCH  15  23
ATOM     23  C   UNL     1      76.888  95.134  74.642  1.00  0.00    -0.046 C 
ATOM     24  C   UNL     1      77.687  93.875  74.803  1.00  0.00     0.042 C 
ATOM     25  C   UNL     1      77.372  96.332  75.001  1.00  0.00     0.010 C 
ENDBRANCH  15  23
ENDBRANCH   3   4
BRANCH   2  26
ATOM     26  C   UNL     1      71.589  91.197  72.184  1.00  0.00     0.078 C 
BRANCH  26  27
ATOM     27  C   UNL     1      71.188  92.324  73.134  1.00  0.00     0.140 C 
ATOM     28  C   UNL     1      71.593  93.713  72.597  1.00  0.00     0.086 CG0
ATOM     29  C   UNL     1      69.686  92.456  73.275  1.00  0.00     0.190 C 
ATOM     30  C   UNL     1      70.361  94.546  72.814  1.00  0.00    -0.010 C 
ATOM     31  G   UNL     1      72.974  94.254  73.069  1.00  0.00     0.000 G0
ATOM     32  O   UNL     1      68.912  91.537  73.499  1.00  0.00    -0.291 OA
ATOM     33  C   UNL     1      69.266  93.866  73.168  1.00  0.00    -0.008 C 
ATOM     34  C   UNL     1      67.882  94.337  73.383  1.00  0.00     0.048 C 
BRANCH  27  35
ATOM     35  O   UNL     1      71.631  92.070  74.456  1.00  0.00    -0.381 OA
ATOM     36  H   UNL     1      72.090  91.213  74.467  1.00  0.00     0.212 HD
ENDBRANCH  27  35
ENDBRANCH  26  27
ENDBRANCH   2  26
ENDBRANCH   1   2
BRANCH   1  37
ATOM     37  O   UNL     1      73.298  90.920  69.253  1.00  0.00    -0.461 OA
BRANCH  37  38
ATOM     38  C   UNL     1      74.368  90.584  68.457  1.00  0.00     0.310 C 
ATOM     39  O   UNL     1      74.428  90.762  67.249  1.00  0.00    -0.252 OA
BRANCH  38  40
ATOM     40  C   UNL     1      75.452  89.963  69.306  1.00  0.00     0.158 C 
BRANCH  40  41
ATOM     41  C   UNL     1      75.937  88.643  68.765  1.00  0.00    -0.037 A 
ATOM     42  C   UNL     1      77.106  88.587  68.005  1.00  0.00     0.008 A 
ATOM     43  C   UNL     1      75.218  87.476  69.024  1.00  0.00     0.008 A 
ATOM     44  C   UNL     1      77.555  87.365  67.504  1.00  0.00     0.046 A 
ATOM     45  C   UNL     1      75.667  86.253  68.524  1.00  0.00     0.046 A 
ATOM     46  C   UNL     1      76.835  86.198  67.764  1.00  0.00     0.115 A 
BRANCH  46  47
ATOM     47  O   UNL     1      77.273  85.006  67.274  1.00  0.00    -0.508 OA
ATOM     48  H   UNL     1      76.574  84.615  66.722  1.00  0.00     0.293 HD
ENDBRANCH  46  47
ENDBRANCH  40  41
ENDBRANCH  38  40
ENDBRANCH  37  38
ENDBRANCH   1  37
TORSDOF 10
ENDMDL
MODEL 7
REMARK VINA RESULT:    -5.722     13.371     18.723
REMARK INTER + INTRA:         -11.297
REMARK INTER:                  -9.350
REMARK INTRA:                  -1.947
REMARK UNBOUND:                -1.560
REMARK SMILES C=C(C)[C@]12C[C@@H](C)[C@@]34O[C@](Cc5ccccc5)(O[C@@H]1[C@@H]3C=C(COC(=O)Cc1ccc(O)cc1)C[C@]1(O)C(=O)C(C)=C[C@@H]41)O2
REMARK SMILES IDX 23 1 22 2 21 3 20 4 9 5 8 6 10 7 6 8 18 10 44 11 19 12 5 13
REMARK SMILES IDX 7 14 4 15 11 16 12 17 13 18 17 19 14 20 16 21 15 22 2 23
REMARK SMILES IDX 3 24 1 25 35 26 36 27 43 28 38 29 42 30 39 32 40 33 41 34
REMARK SMILES IDX 37 35 24 37 25 38 26 39 27 40 28 41 29 42 34 43 30 44 33 45
REMARK SMILES IDX 31 46 32 47
REMARK H PARENT 37 36 32 48
REMARK Flexibility Score: 90.00
ROOT
ATOM      1  C   UNL     1      78.611  73.553  83.373  1.00  0.00     0.264 C 
ENDROOT
BRANCH   1   2
ATOM      2  C   UNL     1      77.810  72.917  84.485  1.00  0.00    -0.033 C 
ATOM      3  C   UNL     1      77.453  71.620  84.382  1.00  0.00    -0.015 C 
BRANCH   3   4
ATOM      4  C   UNL     1      76.596  70.777  85.313  1.00  0.00     0.078 C 
ATOM      5  O   UNL     1      78.134  69.659  86.894  1.00  0.00    -0.319 OA
ATOM      6  C   UNL     1      77.043  70.629  86.814  1.00  0.00     0.095 CG0
ATOM      7  C   UNL     1      77.965  68.477  86.088  1.00  0.00     0.289 C 
ATOM      8  C   UNL     1      75.800  70.090  87.634  1.00  0.00     0.023 C 
ATOM      9  G   UNL     1      77.666  71.956  87.339  1.00  0.00     0.000 G0
ATOM     10  O   UNL     1      77.793  68.808  84.713  1.00  0.00    -0.320 OA
ATOM     11  O   UNL     1      76.806  67.732  86.453  1.00  0.00    -0.313 OA
ATOM     12  C   UNL     1      76.460  69.342  84.749  1.00  0.00     0.170 C 
ATOM     13  C   UNL     1      74.914  69.140  86.771  1.00  0.00     0.049 C 
ATOM     14  C   UNL     1      76.137  69.401  88.968  1.00  0.00     0.011 C 
ATOM     15  C   UNL     1      75.742  68.384  85.730  1.00  0.00     0.122 C 
BRANCH   7  16
ATOM     16  C   UNL     1      79.196  67.608  86.256  1.00  0.00     0.135 C 
BRANCH  16  17
ATOM     17  C   UNL     1      80.297  68.324  86.998  1.00  0.00    -0.040 A 
ATOM     18  C   UNL     1      80.356  68.263  88.390  1.00  0.00     0.004 A 
ATOM     19  C   UNL     1      81.257  69.048  86.291  1.00  0.00     0.004 A 
ATOM     20  C   UNL     1      81.375  68.925  89.076  1.00  0.00     0.000 A 
ATOM     21  C   UNL     1      82.276  69.710  86.977  1.00  0.00     0.000 A 
ATOM     22  C   UNL     1      82.334  69.648  88.368  1.00  0.00     0.000 A 
ENDBRANCH  16  17
ENDBRANCH   7  16
BRANCH  15  23
ATOM     23  C   UNL     1      74.949  67.339  85.016  1.00  0.00    -0.046 C 
ATOM     24  C   UNL     1      75.518  65.951  85.031  1.00  0.00     0.042 C 
ATOM     25  C   UNL     1      73.794  67.624  84.396  1.00  0.00     0.010 C 
ENDBRANCH  15  23
ENDBRANCH   3   4
BRANCH   2  26
ATOM     26  C   UNL     1      77.510  73.872  85.625  1.00  0.00     0.078 C 
BRANCH  26  27
ATOM     27  C   UNL     1      76.931  73.272  86.905  1.00  0.00     0.140 C 
ATOM     28  C   UNL     1      77.668  71.985  87.331  1.00  0.00     0.086 CG0
ATOM     29  C   UNL     1      77.126  74.171  88.107  1.00  0.00     0.190 C 
ATOM     30  C   UNL     1      77.889  72.181  88.805  1.00  0.00    -0.010 C 
ATOM     31  G   UNL     1      77.059  70.646  86.822  1.00  0.00     0.000 G0
ATOM     32  O   UNL     1      76.866  75.365  88.148  1.00  0.00    -0.291 OA
ATOM     33  C   UNL     1      77.621  73.406  89.267  1.00  0.00    -0.008 C 
ATOM     34  C   UNL     1      77.797  73.972  90.620  1.00  0.00     0.048 C 
BRANCH  27  35
ATOM     35  O   UNL     1      75.524  73.124  86.818  1.00  0.00    -0.381 OA
ATOM     36  H   UNL     1      75.227  73.511  85.976  1.00  0.00     0.212 HD
ENDBRANCH  27  35
ENDBRANCH  26  27
ENDBRANCH   2  26
ENDBRANCH   1   2
BRANCH   1  37
ATOM     37  O   UNL     1      79.863  72.910  83.273  1.00  0.00    -0.461 OA
BRANCH  37  38
ATOM     38  C   UNL     1      80.904  73.499  83.954  1.00  0.00     0.310 C 
ATOM     39  O   UNL     1      81.553  74.455  83.554  1.00  0.00    -0.252 OA
BRANCH  38  40
ATOM     40  C   UNL     1      81.118  72.782  85.265  1.00  0.00     0.158 C 
BRANCH  40  41
ATOM     41  C   UNL     1      81.561  73.702  86.373  1.00  0.00    -0.037 A 
ATOM     42  C   UNL     1      82.756  73.456  87.048  1.00  0.00     0.008 A 
ATOM     43  C   UNL     1      80.776  74.800  86.724  1.00  0.00     0.008 A 
ATOM     44  C   UNL     1      83.166  74.307  88.075  1.00  0.00     0.046 A 
ATOM     45  C   UNL     1      81.186  75.652  87.750  1.00  0.00     0.046 A 
ATOM     46  C   UNL     1      82.380  75.406  88.425  1.00  0.00     0.115 A 
BRANCH  46  47
ATOM     47  O   UNL     1      82.780  76.236  89.427  1.00  0.00    -0.508 OA
ATOM     48  H   UNL     1      82.179  76.129  90.184  1.00  0.00     0.293 HD
ENDBRANCH  46  47
ENDBRANCH  40  41
ENDBRANCH  38  40
ENDBRANCH  37  38
ENDBRANCH   1  37
TORSDOF 10
ENDMDL
MODEL 8
REMARK VINA RESULT:    -5.639      4.053      7.325
REMARK INTER + INTRA:         -11.155
REMARK INTER:                 -10.244
REMARK INTRA:                  -0.910
REMARK UNBOUND:                -1.560
REMARK SMILES C=C(C)[C@]12C[C@@H](C)[C@@]34O[C@](Cc5ccccc5)(O[C@@H]1[C@@H]3C=C(COC(=O)Cc1ccc(O)cc1)C[C@]1(O)C(=O)C(C)=C[C@@H]41)O2
REMARK SMILES IDX 23 1 22 2 21 3 20 4 9 5 8 6 10 7 6 8 18 10 44 11 19 12 5 13
REMARK SMILES IDX 7 14 4 15 11 16 12 17 13 18 17 19 14 20 16 21 15 22 2 23
REMARK SMILES IDX 3 24 1 25 35 26 36 27 43 28 38 29 42 30 39 32 40 33 41 34
REMARK SMILES IDX 37 35 24 37 25 38 26 39 27 40 28 41 29 42 34 43 30 44 33 45
REMARK SMILES IDX 31 46 32 47
REMARK H PARENT 37 36 32 48
REMARK Flexibility Score: 90.00
ROOT
ATOM      1  C   UNL     1      95.236  82.983  83.959  1.00  0.00     0.264 C 
ENDROOT
BRANCH   1   2
ATOM      2  C   UNL     1      96.240  81.862  83.823  1.00  0.00    -0.033 C 
ATOM      3  C   UNL     1      96.527  81.379  82.597  1.00  0.00    -0.015 C 
BRANCH   3   4
ATOM      4  C   UNL     1      97.431  80.222  82.202  1.00  0.00     0.078 C 
ATOM      5  O   UNL     1      99.660  81.178  81.722  1.00  0.00    -0.319 OA
ATOM      6  C   UNL     1      98.945  80.277  82.623  1.00  0.00     0.095 CG0
ATOM      7  C   UNL     1      99.320  81.052  80.328  1.00  0.00     0.289 C 
ATOM      8  C   UNL     1      99.537  78.814  82.478  1.00  0.00     0.023 C 
ATOM      9  G   UNL     1      99.105  80.926  84.029  1.00  0.00     0.000 G0
ATOM     10  O   UNL     1      97.926  81.257  80.115  1.00  0.00    -0.320 OA
ATOM     11  O   UNL     1      99.601  79.751  79.817  1.00  0.00    -0.313 OA
ATOM     12  C   UNL     1      97.406  80.036  80.665  1.00  0.00     0.170 C 
ATOM     13  C   UNL     1      98.869  78.041  81.300  1.00  0.00     0.049 C 
ATOM     14  C   UNL     1     101.067  78.730  82.340  1.00  0.00     0.011 C 
ATOM     15  C   UNL     1      98.434  78.985  80.178  1.00  0.00     0.122 C 
BRANCH   7  16
ATOM     16  C   UNL     1     100.115  82.082  79.550  1.00  0.00     0.135 C 
BRANCH  16  17
ATOM     17  C   UNL     1      99.730  82.112  78.092  1.00  0.00    -0.040 A 
ATOM     18  C   UNL     1      98.565  82.766  77.692  1.00  0.00     0.004 A 
ATOM     19  C   UNL     1     100.540  81.486  77.145  1.00  0.00     0.004 A 
ATOM     20  C   UNL     1      98.209  82.794  76.343  1.00  0.00     0.000 A 
ATOM     21  C   UNL     1     100.184  81.515  75.796  1.00  0.00     0.000 A 
ATOM     22  C   UNL     1      99.019  82.168  75.396  1.00  0.00     0.000 A 
ENDBRANCH  16  17
ENDBRANCH   7  16
BRANCH  15  23
ATOM     23  C   UNL     1      97.958  78.254  78.966  1.00  0.00    -0.046 C 
ATOM     24  C   UNL     1      97.580  76.816  79.165  1.00  0.00     0.042 C 
ATOM     25  C   UNL     1      97.873  78.848  77.766  1.00  0.00     0.010 C 
ENDBRANCH  15  23
ENDBRANCH   3   4
BRANCH   2  26
ATOM     26  C   UNL     1      96.821  81.418  85.153  1.00  0.00     0.078 C 
BRANCH  26  27
ATOM     27  C   UNL     1      98.037  80.495  85.110  1.00  0.00     0.140 C 
ATOM     28  C   UNL     1      99.068  80.937  84.050  1.00  0.00     0.086 CG0
ATOM     29  C   UNL     1      98.846  80.542  86.389  1.00  0.00     0.190 C 
ATOM     30  C   UNL     1     100.379  80.854  84.781  1.00  0.00    -0.010 C 
ATOM     31  G   UNL     1      98.933  80.279  82.646  1.00  0.00     0.000 G0
ATOM     32  O   UNL     1      98.390  80.444  87.519  1.00  0.00    -0.291 OA
ATOM     33  C   UNL     1     100.288  80.661  86.101  1.00  0.00    -0.008 C 
ATOM     34  C   UNL     1     101.346  80.611  87.130  1.00  0.00     0.048 C 
BRANCH  27  35
ATOM     35  O   UNL     1      97.653  79.135  85.002  1.00  0.00    -0.381 OA
ATOM     36  H   UNL     1      98.340  78.588  85.419  1.00  0.00     0.212 HD
ENDBRANCH  27  35
ENDBRANCH  26  27
ENDBRANCH   2  26
ENDBRANCH   1   2
BRANCH   1  37
ATOM     37  O   UNL     1      95.169  83.388  85.310  1.00  0.00    -0.461 OA
BRANCH  37  38
ATOM     38  C   UNL     1      94.151  84.254  85.635  1.00  0.00     0.310 C 
ATOM     39  O   UNL     1      94.058  85.409  85.241  1.00  0.00    -0.252 OA
BRANCH  38  40
ATOM     40  C   UNL     1      93.170  83.559  86.548  1.00  0.00     0.158 C 
BRANCH  40  41
ATOM     41  C   UNL     1      92.641  82.272  85.971  1.00  0.00    -0.037 A 
ATOM     42  C   UNL     1      91.868  82.294  84.810  1.00  0.00     0.008 A 
ATOM     43  C   UNL     1      92.922  81.058  86.598  1.00  0.00     0.008 A 
ATOM     44  C   UNL     1      91.377  81.102  84.276  1.00  0.00     0.046 A 
ATOM     45  C   UNL     1      92.431  79.866  86.064  1.00  0.00     0.046 A 
ATOM     46  C   UNL     1      91.658  79.888  84.904  1.00  0.00     0.115 A 
BRANCH  46  47
ATOM     47  O   UNL     1      91.179  78.726  84.383  1.00  0.00    -0.508 OA
ATOM     48  H   UNL     1      91.897  78.272  83.910  1.00  0.00     0.293 HD
ENDBRANCH  46  47
ENDBRANCH  40  41
ENDBRANCH  38  40
ENDBRANCH  37  38
ENDBRANCH   1  37
TORSDOF 10
ENDMDL
MODEL 9
REMARK VINA RESULT:    -5.558     13.258     18.301
REMARK INTER + INTRA:         -11.018
REMARK INTER:                 -10.024
REMARK INTRA:                  -0.994
REMARK UNBOUND:                -1.560
REMARK SMILES C=C(C)[C@]12C[C@@H](C)[C@@]34O[C@](Cc5ccccc5)(O[C@@H]1[C@@H]3C=C(COC(=O)Cc1ccc(O)cc1)C[C@]1(O)C(=O)C(C)=C[C@@H]41)O2
REMARK SMILES IDX 23 1 22 2 21 3 20 4 9 5 8 6 10 7 6 8 18 10 44 11 19 12 5 13
REMARK SMILES IDX 7 14 4 15 11 16 12 17 13 18 17 19 14 20 16 21 15 22 2 23
REMARK SMILES IDX 3 24 1 25 35 26 36 27 43 28 38 29 42 30 39 32 40 33 41 34
REMARK SMILES IDX 37 35 24 37 25 38 26 39 27 40 28 41 29 42 34 43 30 44 33 45
REMARK SMILES IDX 31 46 32 47
REMARK H PARENT 37 36 32 48
REMARK Flexibility Score: 90.00
ROOT
ATOM      1  C   UNL     1      92.029  91.762  92.101  1.00  0.00     0.264 C 
ENDROOT
BRANCH   1   2
ATOM      2  C   UNL     1      92.520  93.123  91.666  1.00  0.00    -0.033 C 
ATOM      3  C   UNL     1      91.641  94.143  91.574  1.00  0.00    -0.015 C 
BRANCH   3   4
ATOM      4  C   UNL     1      91.864  95.568  91.094  1.00  0.00     0.078 C 
ATOM      5  O   UNL     1      92.381  96.928  93.094  1.00  0.00    -0.319 OA
ATOM      6  C   UNL     1      92.940  96.447  91.832  1.00  0.00     0.095 CG0
ATOM      7  C   UNL     1      91.018  97.391  93.026  1.00  0.00     0.289 C 
ATOM      8  C   UNL     1      93.270  97.684  90.899  1.00  0.00     0.023 C 
ATOM      9  G   UNL     1      94.164  95.583  92.255  1.00  0.00     0.000 G0
ATOM     10  O   UNL     1      90.149  96.373  92.539  1.00  0.00    -0.320 OA
ATOM     11  O   UNL     1      90.862  98.491  92.132  1.00  0.00    -0.313 OA
ATOM     12  C   UNL     1      90.532  96.357  91.154  1.00  0.00     0.170 C 
ATOM     13  C   UNL     1      92.020  98.135  90.083  1.00  0.00     0.049 C 
ATOM     14  C   UNL     1      93.882  98.904  91.610  1.00  0.00     0.011 C 
ATOM     15  C   UNL     1      90.720  97.861  90.841  1.00  0.00     0.122 C 
BRANCH   7  16
ATOM     16  C   UNL     1      90.589  97.809  94.419  1.00  0.00     0.135 C 
BRANCH  16  17
ATOM     17  C   UNL     1      89.099  98.025  94.511  1.00  0.00    -0.040 A 
ATOM     18  C   UNL     1      88.241  96.931  94.623  1.00  0.00     0.004 A 
ATOM     19  C   UNL     1      88.580  99.319  94.485  1.00  0.00     0.004 A 
ATOM     20  C   UNL     1      86.863  97.131  94.709  1.00  0.00     0.000 A 
ATOM     21  C   UNL     1      87.202  99.519  94.571  1.00  0.00     0.000 A 
ATOM     22  C   UNL     1      86.344  98.425  94.683  1.00  0.00     0.000 A 
ENDBRANCH  16  17
ENDBRANCH   7  16
BRANCH  15  23
ATOM     23  C   UNL     1      89.525  98.447  90.162  1.00  0.00    -0.046 C 
ATOM     24  C   UNL     1      89.743  98.969  88.773  1.00  0.00     0.042 C 
ATOM     25  C   UNL     1      88.326  98.504  90.760  1.00  0.00     0.010 C 
ENDBRANCH  15  23
ENDBRANCH   3   4
BRANCH   2  26
ATOM     26  C   UNL     1      94.011  93.157  91.387  1.00  0.00     0.078 C 
BRANCH  26  27
ATOM     27  C   UNL     1      94.653  94.529  91.190  1.00  0.00     0.140 C 
ATOM     28  C   UNL     1      94.166  95.557  92.233  1.00  0.00     0.086 CG0
ATOM     29  C   UNL     1      96.148  94.510  91.428  1.00  0.00     0.190 C 
ATOM     30  C   UNL     1      95.435  96.224  92.687  1.00  0.00    -0.010 C 
ATOM     31  G   UNL     1      92.949  96.433  91.815  1.00  0.00     0.000 G0
ATOM     32  O   UNL     1      96.931  93.701  90.950  1.00  0.00    -0.291 OA
ATOM     33  C   UNL     1      96.565  95.643  92.275  1.00  0.00    -0.008 C 
ATOM     34  C   UNL     1      97.972  95.970  92.588  1.00  0.00     0.048 C 
BRANCH  27  35
ATOM     35  O   UNL     1      94.530  94.972  89.849  1.00  0.00    -0.381 OA
ATOM     36  H   UNL     1      94.133  95.860  89.855  1.00  0.00     0.212 HD
ENDBRANCH  27  35
ENDBRANCH  26  27
ENDBRANCH   2  26
ENDBRANCH   1   2
BRANCH   1  37
ATOM     37  O   UNL     1      93.128  90.883  92.213  1.00  0.00    -0.461 OA
BRANCH  37  38
ATOM     38  C   UNL     1      92.984  89.651  91.618  1.00  0.00     0.310 C 
ATOM     39  O   UNL     1      93.414  88.599  92.069  1.00  0.00    -0.252 OA
BRANCH  38  40
ATOM     40  C   UNL     1      92.215  89.801  90.327  1.00  0.00     0.158 C 
BRANCH  40  41
ATOM     41  C   UNL     1      93.106  89.829  89.112  1.00  0.00    -0.037 A 
ATOM     42  C   UNL     1      93.692  88.650  88.650  1.00  0.00     0.008 A 
ATOM     43  C   UNL     1      93.345  91.032  88.449  1.00  0.00     0.008 A 
ATOM     44  C   UNL     1      94.518  88.676  87.526  1.00  0.00     0.046 A 
ATOM     45  C   UNL     1      94.170  91.058  87.324  1.00  0.00     0.046 A 
ATOM     46  C   UNL     1      94.756  89.880  86.863  1.00  0.00     0.115 A 
BRANCH  46  47
ATOM     47  O   UNL     1      95.562  89.905  85.766  1.00  0.00    -0.508 OA
ATOM     48  H   UNL     1      96.482  90.037  86.054  1.00  0.00     0.293 HD
ENDBRANCH  46  47
ENDBRANCH  40  41
ENDBRANCH  38  40
ENDBRANCH  37  38
ENDBRANCH   1  37
TORSDOF 10
ENDMDL
MODEL 10
REMARK VINA RESULT:    -5.341     17.944     22.229
REMARK INTER + INTRA:         -10.648
REMARK INTER:                 -10.209
REMARK INTRA:                  -0.439
REMARK UNBOUND:                -1.560
REMARK SMILES C=C(C)[C@]12C[C@@H](C)[C@@]34O[C@](Cc5ccccc5)(O[C@@H]1[C@@H]3C=C(COC(=O)Cc1ccc(O)cc1)C[C@]1(O)C(=O)C(C)=C[C@@H]41)O2
REMARK SMILES IDX 23 1 22 2 21 3 20 4 9 5 8 6 10 7 6 8 18 10 44 11 19 12 5 13
REMARK SMILES IDX 7 14 4 15 11 16 12 17 13 18 17 19 14 20 16 21 15 22 2 23
REMARK SMILES IDX 3 24 1 25 35 26 36 27 43 28 38 29 42 30 39 32 40 33 41 34
REMARK SMILES IDX 37 35 24 37 25 38 26 39 27 40 28 41 29 42 34 43 30 44 33 45
REMARK SMILES IDX 31 46 32 47
REMARK H PARENT 37 36 32 48
REMARK Flexibility Score: 90.00
ROOT
ATOM      1  C   UNL     1      94.437  99.548  74.384  1.00  0.00     0.264 C 
ENDROOT
BRANCH   1   2
ATOM      2  C   UNL     1      94.656  98.345  75.272  1.00  0.00    -0.033 C 
ATOM      3  C   UNL     1      95.563  98.418  76.268  1.00  0.00    -0.015 C 
BRANCH   3   4
ATOM      4  C   UNL     1      96.019  97.340  77.239  1.00  0.00     0.078 C 
ATOM      5  O   UNL     1      94.601  97.540  79.255  1.00  0.00    -0.319 OA
ATOM      6  C   UNL     1      94.939  96.647  78.148  1.00  0.00     0.095 CG0
ATOM      7  C   UNL     1      95.720  98.206  79.871  1.00  0.00     0.289 C 
ATOM      8  C   UNL     1      95.580  95.317  78.725  1.00  0.00     0.023 C 
ATOM      9  G   UNL     1      93.600  96.463  77.376  1.00  0.00     0.000 G0
ATOM     10  O   UNL     1      96.455  98.970  78.920  1.00  0.00    -0.320 OA
ATOM     11  O   UNL     1      96.654  97.289  80.435  1.00  0.00    -0.313 OA
ATOM     12  C   UNL     1      97.098  97.912  78.191  1.00  0.00     0.170 C 
ATOM     13  C   UNL     1      97.113  95.477  78.962  1.00  0.00     0.049 C 
ATOM     14  C   UNL     1      94.921  94.766  80.002  1.00  0.00     0.011 C 
ATOM     15  C   UNL     1      97.484  96.918  79.314  1.00  0.00     0.122 C 
BRANCH   7  16
ATOM     16  C   UNL     1      95.188  99.118  80.960  1.00  0.00     0.135 C 
BRANCH  16  17
ATOM     17  C   UNL     1      96.273  99.979  81.557  1.00  0.00    -0.040 A 
ATOM     18  C   UNL     1      96.894  99.595  82.745  1.00  0.00     0.004 A 
ATOM     19  C   UNL     1      96.654 101.160  80.921  1.00  0.00     0.004 A 
ATOM     20  C   UNL     1      97.898 100.391  83.297  1.00  0.00     0.000 A 
ATOM     21  C   UNL     1      97.657 101.957  81.473  1.00  0.00     0.000 A 
ATOM     22  C   UNL     1      98.279 101.572  82.660  1.00  0.00     0.000 A 
ENDBRANCH  16  17
ENDBRANCH   7  16
BRANCH  15  23
ATOM     23  C   UNL     1      98.914  97.059  79.721  1.00  0.00    -0.046 C 
ATOM     24  C   UNL     1      99.314  96.362  80.988  1.00  0.00     0.042 C 
ATOM     25  C   UNL     1      99.792  97.769  78.996  1.00  0.00     0.010 C 
ENDBRANCH  15  23
ENDBRANCH   3   4
BRANCH   2  26
ATOM     26  C   UNL     1      93.774  97.166  74.906  1.00  0.00     0.078 C 
BRANCH  26  27
ATOM     27  C   UNL     1      93.732  95.995  75.886  1.00  0.00     0.140 C 
ATOM     28  C   UNL     1      93.602  96.464  77.350  1.00  0.00     0.086 CG0
ATOM     29  C   UNL     1      92.498  95.136  75.710  1.00  0.00     0.190 C 
ATOM     30  C   UNL     1      92.531  95.571  77.910  1.00  0.00    -0.010 C 
ATOM     31  G   UNL     1      94.936  96.642  78.134  1.00  0.00     0.000 G0
ATOM     32  O   UNL     1      92.086  94.698  74.646  1.00  0.00    -0.291 OA
ATOM     33  C   UNL     1      91.873  94.834  77.011  1.00  0.00    -0.008 C 
ATOM     34  C   UNL     1      90.724  93.920  77.187  1.00  0.00     0.048 C 
BRANCH  27  35
ATOM     35  O   UNL     1      94.805  95.096  75.666  1.00  0.00    -0.381 OA
ATOM     36  H   UNL     1      95.559  95.598  75.313  1.00  0.00     0.212 HD
ENDBRANCH  27  35
ENDBRANCH  26  27
ENDBRANCH   2  26
ENDBRANCH   1   2
BRANCH   1  37
ATOM     37  O   UNL     1      95.634 100.293  74.304  1.00  0.00    -0.461 OA
BRANCH  37  38
ATOM     38  C   UNL     1      95.586 101.575  74.802  1.00  0.00     0.310 C 
ATOM     39  O   UNL     1      95.970 101.912  75.913  1.00  0.00    -0.252 OA
BRANCH  38  40
ATOM     40  C   UNL     1      94.987 102.495  73.766  1.00  0.00     0.158 C 
BRANCH  40  41
ATOM     41  C   UNL     1      93.703 103.138  74.223  1.00  0.00    -0.037 A 
ATOM     42  C   UNL     1      93.739 104.222  75.100  1.00  0.00     0.008 A 
ATOM     43  C   UNL     1      92.478 102.649  73.769  1.00  0.00     0.008 A 
ATOM     44  C   UNL     1      92.550 104.817  75.524  1.00  0.00     0.046 A 
ATOM     45  C   UNL     1      91.289 103.244  74.193  1.00  0.00     0.046 A 
ATOM     46  C   UNL     1      91.325 104.327  75.070  1.00  0.00     0.115 A 
BRANCH  46  47
ATOM     47  O   UNL     1      90.165 104.907  75.484  1.00  0.00    -0.508 OA
ATOM     48  H   UNL     1      89.415 104.373  75.168  1.00  0.00     0.293 HD
ENDBRANCH  46  47
ENDBRANCH  40  41
ENDBRANCH  38  40
ENDBRANCH  37  38
ENDBRANCH   1  37
TORSDOF 10
ENDMDL
