MODEL 1
REMARK VINA RESULT:    -6.183      0.000      0.000
REMARK INTER + INTRA:         -10.161
REMARK INTER:                  -9.617
REMARK INTRA:                  -0.544
REMARK UNBOUND:                -0.544
REMARK SMILES CCCCC/C=C/C(=O)CCc1ccc(O)c(OC)c1
REMARK SMILES IDX 6 1 7 2 8 3 9 4 10 5 11 6 12 7 17 8 20 9 15 10 14 11 13 12
REMARK SMILES IDX 18 13 19 14 16 15 5 17 4 18 3 19 2 20 1 21
REMARK H PARENT 16 16
REMARK Flexibility Score: inf
ROOT
ATOM      1  C   UNL     1      76.482  84.635  69.052  1.00  0.00    -0.023 C 
ATOM      2  C   UNL     1      77.700  84.485  68.516  1.00  0.00     0.043 C 
ENDROOT
BRANCH   2   3
ATOM      3  C   UNL     1      77.877  83.647  67.300  1.00  0.00     0.155 C 
ATOM      4  O   UNL     1      78.969  83.530  66.746  1.00  0.00    -0.295 OA
BRANCH   3   5
ATOM      5  C   UNL     1      76.630  82.987  66.746  1.00  0.00     0.085 C 
BRANCH   5   6
ATOM      6  C   UNL     1      76.842  82.519  65.305  1.00  0.00     0.044 C 
BRANCH   6   7
ATOM      7  C   UNL     1      75.646  81.787  64.743  1.00  0.00    -0.044 A 
ATOM      8  C   UNL     1      73.391  81.004  64.987  1.00  0.00     0.160 A 
ATOM      9  C   UNL     1      74.495  81.680  65.507  1.00  0.00     0.054 A 
ATOM     10  C   UNL     1      73.452  80.444  63.711  1.00  0.00     0.157 A 
ATOM     11  C   UNL     1      74.619  80.561  62.954  1.00  0.00     0.050 A 
ATOM     12  C   UNL     1      75.723  81.237  63.474  1.00  0.00     0.008 A 
BRANCH   8  13
ATOM     13  O   UNL     1      72.258  80.897  65.736  1.00  0.00    -0.493 OA
ATOM     14  C   UNL     1      71.705  82.106  66.253  1.00  0.00     0.278 C 
ENDBRANCH   8  13
BRANCH  10  15
ATOM     15  O   UNL     1      72.381  79.782  63.193  1.00  0.00    -0.504 OA
ATOM     16  H   UNL     1      72.666  78.886  62.946  1.00  0.00     0.293 HD
ENDBRANCH  10  15
ENDBRANCH   6   7
ENDBRANCH   5   6
ENDBRANCH   3   5
ENDBRANCH   2   3
BRANCH   1  17
ATOM     17  C   UNL     1      76.221  85.462  70.277  1.00  0.00     0.027 C 
BRANCH  17  18
ATOM     18  C   UNL     1      76.450  86.960  70.051  1.00  0.00     0.004 C 
BRANCH  18  19
ATOM     19  C   UNL     1      75.234  87.826  70.398  1.00  0.00     0.000 C 
BRANCH  19  20
ATOM     20  C   UNL     1      75.610  89.308  70.454  1.00  0.00    -0.003 C 
ATOM     21  C   UNL     1      74.655  90.091  71.341  1.00  0.00     0.004 C 
ENDBRANCH  19  20
ENDBRANCH  18  19
ENDBRANCH  17  18
ENDBRANCH   1  17
TORSDOF 10
ENDMDL
MODEL 2
REMARK VINA RESULT:    -6.130     22.908     26.153
REMARK INTER + INTRA:         -10.079
REMARK INTER:                  -8.690
REMARK INTRA:                  -1.388
REMARK UNBOUND:                -0.544
REMARK SMILES CCCCC/C=C/C(=O)CCc1ccc(O)c(OC)c1
REMARK SMILES IDX 6 1 7 2 8 3 9 4 10 5 11 6 12 7 17 8 20 9 15 10 14 11 13 12
REMARK SMILES IDX 18 13 19 14 16 15 5 17 4 18 3 19 2 20 1 21
REMARK H PARENT 16 16
REMARK Flexibility Score: inf
ROOT
ATOM      1  C   UNL     1      94.997  96.500  82.017  1.00  0.00    -0.023 C 
ATOM      2  C   UNL     1      95.833  95.534  81.618  1.00  0.00     0.043 C 
ENDROOT
BRANCH   2   3
ATOM      3  C   UNL     1      95.395  94.112  81.656  1.00  0.00     0.155 C 
ATOM      4  O   UNL     1      95.185  93.526  82.715  1.00  0.00    -0.295 OA
BRANCH   3   5
ATOM      5  C   UNL     1      95.274  93.406  80.319  1.00  0.00     0.085 C 
BRANCH   5   6
ATOM      6  C   UNL     1      95.245  94.407  79.163  1.00  0.00     0.044 C 
BRANCH   6   7
ATOM      7  C   UNL     1      93.845  94.709  78.682  1.00  0.00    -0.044 A 
ATOM      8  C   UNL     1      92.356  96.000  77.313  1.00  0.00     0.160 A 
ATOM      9  C   UNL     1      93.649  95.722  77.757  1.00  0.00     0.054 A 
ATOM     10  C   UNL     1      91.277  95.262  77.799  1.00  0.00     0.157 A 
ATOM     11  C   UNL     1      91.491  94.245  78.730  1.00  0.00     0.050 A 
ATOM     12  C   UNL     1      92.784  93.967  79.175  1.00  0.00     0.008 A 
BRANCH   8  13
ATOM     13  O   UNL     1      92.160  96.995  76.403  1.00  0.00    -0.493 OA
ATOM     14  C   UNL     1      93.310  97.478  75.713  1.00  0.00     0.278 C 
ENDBRANCH   8  13
BRANCH  10  15
ATOM     15  O   UNL     1      90.010  95.523  77.372  1.00  0.00    -0.504 OA
ATOM     16  H   UNL     1      89.507  95.891  78.118  1.00  0.00     0.293 HD
ENDBRANCH  10  15
ENDBRANCH   6   7
ENDBRANCH   5   6
ENDBRANCH   3   5
ENDBRANCH   2   3
BRANCH   1  17
ATOM     17  C   UNL     1      95.363  97.956  82.010  1.00  0.00     0.027 C 
BRANCH  17  18
ATOM     18  C   UNL     1      96.874  98.196  81.928  1.00  0.00     0.004 C 
BRANCH  18  19
ATOM     19  C   UNL     1      97.368  98.515  80.513  1.00  0.00     0.000 C 
BRANCH  19  20
ATOM     20  C   UNL     1      96.229  99.033  79.634  1.00  0.00    -0.003 C 
ATOM     21  C   UNL     1      96.143  98.267  78.324  1.00  0.00     0.004 C 
ENDBRANCH  19  20
ENDBRANCH  18  19
ENDBRANCH  17  18
ENDBRANCH   1  17
TORSDOF 10
ENDMDL
MODEL 3
REMARK VINA RESULT:    -6.039      2.642      7.477
REMARK INTER + INTRA:          -9.937
REMARK INTER:                  -9.076
REMARK INTRA:                  -0.861
REMARK UNBOUND:                -0.544
REMARK SMILES CCCCC/C=C/C(=O)CCc1ccc(O)c(OC)c1
REMARK SMILES IDX 6 1 7 2 8 3 9 4 10 5 11 6 12 7 17 8 20 9 15 10 14 11 13 12
REMARK SMILES IDX 18 13 19 14 16 15 5 17 4 18 3 19 2 20 1 21
REMARK H PARENT 16 16
REMARK Flexibility Score: inf
ROOT
ATOM      1  C   UNL     1      76.089  82.547  66.494  1.00  0.00    -0.023 C 
ATOM      2  C   UNL     1      77.143  83.202  65.992  1.00  0.00     0.043 C 
ENDROOT
BRANCH   2   3
ATOM      3  C   UNL     1      78.067  83.930  66.904  1.00  0.00     0.155 C 
ATOM      4  O   UNL     1      78.940  83.347  67.543  1.00  0.00    -0.295 OA
BRANCH   3   5
ATOM      5  C   UNL     1      77.842  85.423  67.044  1.00  0.00     0.085 C 
BRANCH   5   6
ATOM      6  C   UNL     1      78.042  85.881  68.490  1.00  0.00     0.044 C 
BRANCH   6   7
ATOM      7  C   UNL     1      76.779  86.427  69.112  1.00  0.00    -0.044 A 
ATOM      8  C   UNL     1      74.441  86.200  69.602  1.00  0.00     0.160 A 
ATOM      9  C   UNL     1      75.607  85.694  69.026  1.00  0.00     0.054 A 
ATOM     10  C   UNL     1      74.463  87.431  70.256  1.00  0.00     0.157 A 
ATOM     11  C   UNL     1      75.651  88.158  70.334  1.00  0.00     0.050 A 
ATOM     12  C   UNL     1      76.817  87.653  69.758  1.00  0.00     0.008 A 
BRANCH   8  13
ATOM     13  O   UNL     1      73.287  85.480  69.518  1.00  0.00    -0.493 OA
ATOM     14  C   UNL     1      72.857  85.093  68.215  1.00  0.00     0.278 C 
ENDBRANCH   8  13
BRANCH  10  15
ATOM     15  O   UNL     1      73.331  87.935  70.822  1.00  0.00    -0.504 OA
ATOM     16  H   UNL     1      73.458  88.889  70.961  1.00  0.00     0.293 HD
ENDBRANCH  10  15
ENDBRANCH   6   7
ENDBRANCH   5   6
ENDBRANCH   3   5
ENDBRANCH   2   3
BRANCH   1  17
ATOM     17  C   UNL     1      75.112  81.790  65.642  1.00  0.00     0.027 C 
BRANCH  17  18
ATOM     18  C   UNL     1      75.721  81.288  64.329  1.00  0.00     0.004 C 
BRANCH  18  19
ATOM     19  C   UNL     1      74.679  80.825  63.306  1.00  0.00     0.000 C 
BRANCH  19  20
ATOM     20  C   UNL     1      73.263  81.187  63.758  1.00  0.00    -0.003 C 
ATOM     21  C   UNL     1      72.355  79.968  63.777  1.00  0.00     0.004 C 
ENDBRANCH  19  20
ENDBRANCH  18  19
ENDBRANCH  17  18
ENDBRANCH   1  17
TORSDOF 10
ENDMDL
MODEL 4
REMARK VINA RESULT:    -6.024     12.249     14.994
REMARK INTER + INTRA:          -9.914
REMARK INTER:                  -8.322
REMARK INTRA:                  -1.591
REMARK UNBOUND:                -0.544
REMARK SMILES CCCCC/C=C/C(=O)CCc1ccc(O)c(OC)c1
REMARK SMILES IDX 6 1 7 2 8 3 9 4 10 5 11 6 12 7 17 8 20 9 15 10 14 11 13 12
REMARK SMILES IDX 18 13 19 14 16 15 5 17 4 18 3 19 2 20 1 21
REMARK H PARENT 16 16
REMARK Flexibility Score: inf
ROOT
ATOM      1  C   UNL     1      62.120  84.783  69.852  1.00  0.00    -0.023 C 
ATOM      2  C   UNL     1      62.404  83.714  69.098  1.00  0.00     0.043 C 
ENDROOT
BRANCH   2   3
ATOM      3  C   UNL     1      63.746  83.078  69.189  1.00  0.00     0.155 C 
ATOM      4  O   UNL     1      64.735  83.570  68.649  1.00  0.00    -0.295 OA
BRANCH   3   5
ATOM      5  C   UNL     1      63.822  81.762  69.938  1.00  0.00     0.085 C 
BRANCH   5   6
ATOM      6  C   UNL     1      64.660  81.895  71.211  1.00  0.00     0.044 C 
BRANCH   6   7
ATOM      7  C   UNL     1      63.831  82.237  72.426  1.00  0.00    -0.044 A 
ATOM      8  C   UNL     1      63.463  83.595  74.370  1.00  0.00     0.160 A 
ATOM      9  C   UNL     1      64.229  83.279  73.248  1.00  0.00     0.054 A 
ATOM     10  C   UNL     1      62.311  82.863  74.657  1.00  0.00     0.157 A 
ATOM     11  C   UNL     1      61.924  81.815  73.821  1.00  0.00     0.050 A 
ATOM     12  C   UNL     1      62.690  81.500  72.698  1.00  0.00     0.008 A 
BRANCH   8  13
ATOM     13  O   UNL     1      63.851  84.620  75.179  1.00  0.00    -0.493 OA
ATOM     14  C   UNL     1      63.475  85.937  74.783  1.00  0.00     0.278 C 
ENDBRANCH   8  13
BRANCH  10  15
ATOM     15  O   UNL     1      61.554  83.162  75.750  1.00  0.00    -0.504 OA
ATOM     16  H   UNL     1      61.031  83.957  75.551  1.00  0.00     0.293 HD
ENDBRANCH  10  15
ENDBRANCH   6   7
ENDBRANCH   5   6
ENDBRANCH   3   5
ENDBRANCH   2   3
BRANCH   1  17
ATOM     17  C   UNL     1      60.792  85.481  69.819  1.00  0.00     0.027 C 
BRANCH  17  18
ATOM     18  C   UNL     1      59.610  84.540  70.079  1.00  0.00     0.004 C 
BRANCH  18  19
ATOM     19  C   UNL     1      58.857  84.845  71.378  1.00  0.00     0.000 C 
BRANCH  19  20
ATOM     20  C   UNL     1      59.723  84.542  72.601  1.00  0.00    -0.003 C 
ATOM     21  C   UNL     1      59.958  85.789  73.439  1.00  0.00     0.004 C 
ENDBRANCH  19  20
ENDBRANCH  18  19
ENDBRANCH  17  18
ENDBRANCH   1  17
TORSDOF 10
ENDMDL
MODEL 5
REMARK VINA RESULT:    -5.897     19.952     23.521
REMARK INTER + INTRA:          -9.715
REMARK INTER:                  -8.271
REMARK INTRA:                  -1.444
REMARK UNBOUND:                -0.544
REMARK SMILES CCCCC/C=C/C(=O)CCc1ccc(O)c(OC)c1
REMARK SMILES IDX 6 1 7 2 8 3 9 4 10 5 11 6 12 7 17 8 20 9 15 10 14 11 13 12
REMARK SMILES IDX 18 13 19 14 16 15 5 17 4 18 3 19 2 20 1 21
REMARK H PARENT 16 16
REMARK Flexibility Score: inf
ROOT
ATOM      1  C   UNL     1      88.749  99.892  68.170  1.00  0.00    -0.023 C 
ATOM      2  C   UNL     1      89.253  98.776  67.629  1.00  0.00     0.043 C 
ENDROOT
BRANCH   2   3
ATOM      3  C   UNL     1      89.112  97.477  68.341  1.00  0.00     0.155 C 
ATOM      4  O   UNL     1      88.242  96.663  68.040  1.00  0.00    -0.295 OA
BRANCH   3   5
ATOM      5  C   UNL     1      90.066  97.231  69.494  1.00  0.00     0.085 C 
BRANCH   5   6
ATOM      6  C   UNL     1      89.464  97.694  70.821  1.00  0.00     0.044 C 
BRANCH   6   7
ATOM      7  C   UNL     1      89.835  99.115  71.171  1.00  0.00    -0.044 A 
ATOM      8  C   UNL     1      91.513 100.797  71.509  1.00  0.00     0.160 A 
ATOM      9  C   UNL     1      91.171  99.484  71.186  1.00  0.00     0.054 A 
ATOM     10  C   UNL     1      90.516 101.724  71.813  1.00  0.00     0.157 A 
ATOM     11  C   UNL     1      89.175 101.337  71.794  1.00  0.00     0.050 A 
ATOM     12  C   UNL     1      88.833 100.024  71.471  1.00  0.00     0.008 A 
BRANCH   8  13
ATOM     13  O   UNL     1      92.826 101.163  71.525  1.00  0.00    -0.493 OA
ATOM     14  C   UNL     1      93.666 100.521  72.482  1.00  0.00     0.278 C 
ENDBRANCH   8  13
BRANCH  10  15
ATOM     15  O   UNL     1      90.838 103.009  72.130  1.00  0.00    -0.504 OA
ATOM     16  H   UNL     1      91.740 103.185  71.813  1.00  0.00     0.293 HD
ENDBRANCH  10  15
ENDBRANCH   6   7
ENDBRANCH   5   6
ENDBRANCH   3   5
ENDBRANCH   2   3
BRANCH   1  17
ATOM     17  C   UNL     1      88.849 101.239  67.516  1.00  0.00     0.027 C 
BRANCH  17  18
ATOM     18  C   UNL     1      89.857 102.168  68.203  1.00  0.00     0.004 C 
BRANCH  18  19
ATOM     19  C   UNL     1      91.317 101.837  67.877  1.00  0.00     0.000 C 
BRANCH  19  20
ATOM     20  C   UNL     1      91.635 102.130  66.410  1.00  0.00    -0.003 C 
ATOM     21  C   UNL     1      91.205 103.534  66.017  1.00  0.00     0.004 C 
ENDBRANCH  19  20
ENDBRANCH  18  19
ENDBRANCH  17  18
ENDBRANCH   1  17
TORSDOF 10
ENDMDL
MODEL 6
REMARK VINA RESULT:    -5.864      2.185      3.082
REMARK INTER + INTRA:          -9.664
REMARK INTER:                  -8.763
REMARK INTRA:                  -0.901
REMARK UNBOUND:                -0.544
REMARK SMILES CCCCC/C=C/C(=O)CCc1ccc(O)c(OC)c1
REMARK SMILES IDX 6 1 7 2 8 3 9 4 10 5 11 6 12 7 17 8 20 9 15 10 14 11 13 12
REMARK SMILES IDX 18 13 19 14 16 15 5 17 4 18 3 19 2 20 1 21
REMARK H PARENT 16 16
REMARK Flexibility Score: inf
ROOT
ATOM      1  C   UNL     1      77.766  83.935  66.701  1.00  0.00    -0.023 C 
ATOM      2  C   UNL     1      77.165  82.870  66.155  1.00  0.00     0.043 C 
ENDROOT
BRANCH   2   3
ATOM      3  C   UNL     1      76.818  82.875  64.708  1.00  0.00     0.155 C 
ATOM      4  O   UNL     1      76.938  83.883  64.016  1.00  0.00    -0.295 OA
BRANCH   3   5
ATOM      5  C   UNL     1      76.258  81.584  64.143  1.00  0.00     0.085 C 
BRANCH   5   6
ATOM      6  C   UNL     1      75.199  80.985  65.071  1.00  0.00     0.044 C 
BRANCH   6   7
ATOM      7  C   UNL     1      73.791  81.366  64.678  1.00  0.00    -0.044 A 
ATOM      8  C   UNL     1      71.610  82.158  65.290  1.00  0.00     0.160 A 
ATOM      9  C   UNL     1      72.910  81.806  65.653  1.00  0.00     0.054 A 
ATOM     10  C   UNL     1      71.208  82.065  63.958  1.00  0.00     0.157 A 
ATOM     11  C   UNL     1      72.107  81.619  62.988  1.00  0.00     0.050 A 
ATOM     12  C   UNL     1      73.407  81.267  63.351  1.00  0.00     0.008 A 
BRANCH   8  13
ATOM     13  O   UNL     1      70.742  82.591  66.246  1.00  0.00    -0.493 OA
ATOM     14  C   UNL     1      71.263  83.462  67.249  1.00  0.00     0.278 C 
ENDBRANCH   8  13
BRANCH  10  15
ATOM     15  O   UNL     1      69.941  82.406  63.591  1.00  0.00    -0.504 OA
ATOM     16  H   UNL     1      69.935  83.350  63.357  1.00  0.00     0.293 HD
ENDBRANCH  10  15
ENDBRANCH   6   7
ENDBRANCH   5   6
ENDBRANCH   3   5
ENDBRANCH   2   3
BRANCH   1  17
ATOM     17  C   UNL     1      78.148  84.008  68.151  1.00  0.00     0.027 C 
BRANCH  17  18
ATOM     18  C   UNL     1      78.246  85.445  68.675  1.00  0.00     0.004 C 
BRANCH  18  19
ATOM     19  C   UNL     1      77.253  85.757  69.799  1.00  0.00     0.000 C 
BRANCH  19  20
ATOM     20  C   UNL     1      76.213  84.645  69.941  1.00  0.00    -0.003 C 
ATOM     21  C   UNL     1      76.166  84.104  71.360  1.00  0.00     0.004 C 
ENDBRANCH  19  20
ENDBRANCH  18  19
ENDBRANCH  17  18
ENDBRANCH   1  17
TORSDOF 10
ENDMDL
MODEL 7
REMARK VINA RESULT:    -5.782      3.255      5.441
REMARK INTER + INTRA:          -9.536
REMARK INTER:                  -7.934
REMARK INTRA:                  -1.602
REMARK UNBOUND:                -0.544
REMARK SMILES CCCCC/C=C/C(=O)CCc1ccc(O)c(OC)c1
REMARK SMILES IDX 6 1 7 2 8 3 9 4 10 5 11 6 12 7 17 8 20 9 15 10 14 11 13 12
REMARK SMILES IDX 18 13 19 14 16 15 5 17 4 18 3 19 2 20 1 21
REMARK H PARENT 16 16
REMARK Flexibility Score: inf
ROOT
ATOM      1  C   UNL     1      77.940  83.933  66.552  1.00  0.00    -0.023 C 
ATOM      2  C   UNL     1      77.168  83.015  65.959  1.00  0.00     0.043 C 
ENDROOT
BRANCH   2   3
ATOM      3  C   UNL     1      76.930  83.081  64.492  1.00  0.00     0.155 C 
ATOM      4  O   UNL     1      76.362  82.175  63.885  1.00  0.00    -0.295 OA
BRANCH   3   5
ATOM      5  C   UNL     1      77.471  84.302  63.773  1.00  0.00     0.085 C 
BRANCH   5   6
ATOM      6  C   UNL     1      76.390  85.370  63.600  1.00  0.00     0.044 C 
BRANCH   6   7
ATOM      7  C   UNL     1      76.207  86.224  64.832  1.00  0.00    -0.044 A 
ATOM      8  C   UNL     1      74.898  86.857  66.741  1.00  0.00     0.160 A 
ATOM      9  C   UNL     1      75.066  86.067  65.604  1.00  0.00     0.054 A 
ATOM     10  C   UNL     1      75.870  87.792  67.092  1.00  0.00     0.157 A 
ATOM     11  C   UNL     1      77.013  87.939  66.305  1.00  0.00     0.050 A 
ATOM     12  C   UNL     1      77.181  87.150  65.167  1.00  0.00     0.008 A 
BRANCH   8  13
ATOM     13  O   UNL     1      73.777  86.704  67.502  1.00  0.00    -0.493 OA
ATOM     14  C   UNL     1      73.719  85.557  68.347  1.00  0.00     0.278 C 
ENDBRANCH   8  13
BRANCH  10  15
ATOM     15  O   UNL     1      75.717  88.568  68.201  1.00  0.00    -0.504 OA
ATOM     16  H   UNL     1      76.338  88.256  68.881  1.00  0.00     0.293 HD
ENDBRANCH  10  15
ENDBRANCH   6   7
ENDBRANCH   5   6
ENDBRANCH   3   5
ENDBRANCH   2   3
BRANCH   1  17
ATOM     17  C   UNL     1      78.228  83.936  68.025  1.00  0.00     0.027 C 
BRANCH  17  18
ATOM     18  C   UNL     1      78.242  85.343  68.633  1.00  0.00     0.004 C 
BRANCH  18  19
ATOM     19  C   UNL     1      77.207  85.541  69.745  1.00  0.00     0.000 C 
BRANCH  19  20
ATOM     20  C   UNL     1      77.071  84.282  70.603  1.00  0.00    -0.003 C 
ATOM     21  C   UNL     1      75.788  84.299  71.418  1.00  0.00     0.004 C 
ENDBRANCH  19  20
ENDBRANCH  18  19
ENDBRANCH  17  18
ENDBRANCH   1  17
TORSDOF 10
ENDMDL
MODEL 8
REMARK VINA RESULT:    -5.737      2.304      5.663
REMARK INTER + INTRA:          -9.467
REMARK INTER:                  -7.726
REMARK INTRA:                  -1.741
REMARK UNBOUND:                -0.544
REMARK SMILES CCCCC/C=C/C(=O)CCc1ccc(O)c(OC)c1
REMARK SMILES IDX 6 1 7 2 8 3 9 4 10 5 11 6 12 7 17 8 20 9 15 10 14 11 13 12
REMARK SMILES IDX 18 13 19 14 16 15 5 17 4 18 3 19 2 20 1 21
REMARK H PARENT 16 16
REMARK Flexibility Score: inf
ROOT
ATOM      1  C   UNL     1      74.043  83.676  66.210  1.00  0.00    -0.023 C 
ATOM      2  C   UNL     1      74.434  82.424  66.477  1.00  0.00     0.043 C 
ENDROOT
BRANCH   2   3
ATOM      3  C   UNL     1      75.206  81.656  65.463  1.00  0.00     0.155 C 
ATOM      4  O   UNL     1      74.652  80.947  64.626  1.00  0.00    -0.295 OA
BRANCH   3   5
ATOM      5  C   UNL     1      76.717  81.752  65.549  1.00  0.00     0.085 C 
BRANCH   5   6
ATOM      6  C   UNL     1      77.219  83.096  65.021  1.00  0.00     0.044 C 
BRANCH   6   7
ATOM      7  C   UNL     1      77.531  84.081  66.123  1.00  0.00    -0.044 A 
ATOM      8  C   UNL     1      77.631  86.344  66.915  1.00  0.00     0.160 A 
ATOM      9  C   UNL     1      77.343  85.435  65.897  1.00  0.00     0.054 A 
ATOM     10  C   UNL     1      78.104  85.888  68.145  1.00  0.00     0.157 A 
ATOM     11  C   UNL     1      78.288  84.521  68.357  1.00  0.00     0.050 A 
ATOM     12  C   UNL     1      78.001  83.612  67.339  1.00  0.00     0.008 A 
BRANCH   8  13
ATOM     13  O   UNL     1      77.447  87.676  66.695  1.00  0.00    -0.493 OA
ATOM     14  C   UNL     1      76.131  88.099  66.345  1.00  0.00     0.278 C 
ENDBRANCH   8  13
BRANCH  10  15
ATOM     15  O   UNL     1      78.388  86.765  69.147  1.00  0.00    -0.504 OA
ATOM     16  H   UNL     1      78.980  87.451  68.793  1.00  0.00     0.293 HD
ENDBRANCH  10  15
ENDBRANCH   6   7
ENDBRANCH   5   6
ENDBRANCH   3   5
ENDBRANCH   2   3
BRANCH   1  17
ATOM     17  C   UNL     1      73.261  84.516  67.178  1.00  0.00     0.027 C 
BRANCH  17  18
ATOM     18  C   UNL     1      74.023  84.805  68.476  1.00  0.00     0.004 C 
BRANCH  18  19
ATOM     19  C   UNL     1      74.232  86.298  68.746  1.00  0.00     0.000 C 
BRANCH  19  20
ATOM     20  C   UNL     1      74.964  86.523  70.069  1.00  0.00    -0.003 C 
ATOM     21  C   UNL     1      75.456  85.213  70.663  1.00  0.00     0.004 C 
ENDBRANCH  19  20
ENDBRANCH  18  19
ENDBRANCH  17  18
ENDBRANCH   1  17
TORSDOF 10
ENDMDL
MODEL 9
REMARK VINA RESULT:    -5.608      2.118      2.534
REMARK INTER + INTRA:          -9.266
REMARK INTER:                  -7.923
REMARK INTRA:                  -1.342
REMARK UNBOUND:                -0.544
REMARK SMILES CCCCC/C=C/C(=O)CCc1ccc(O)c(OC)c1
REMARK SMILES IDX 6 1 7 2 8 3 9 4 10 5 11 6 12 7 17 8 20 9 15 10 14 11 13 12
REMARK SMILES IDX 18 13 19 14 16 15 5 17 4 18 3 19 2 20 1 21
REMARK H PARENT 16 16
REMARK Flexibility Score: inf
ROOT
ATOM      1  C   UNL     1      77.952  85.790  67.714  1.00  0.00    -0.023 C 
ATOM      2  C   UNL     1      77.648  84.958  66.711  1.00  0.00     0.043 C 
ENDROOT
BRANCH   2   3
ATOM      3  C   UNL     1      78.079  83.535  66.771  1.00  0.00     0.155 C 
ATOM      4  O   UNL     1      79.015  83.170  67.480  1.00  0.00    -0.295 OA
BRANCH   3   5
ATOM      5  C   UNL     1      77.337  82.565  65.872  1.00  0.00     0.085 C 
BRANCH   5   6
ATOM      6  C   UNL     1      76.161  83.246  65.170  1.00  0.00     0.044 C 
BRANCH   6   7
ATOM      7  C   UNL     1      75.047  82.287  64.825  1.00  0.00    -0.044 A 
ATOM      8  C   UNL     1      72.888  81.356  65.304  1.00  0.00     0.160 A 
ATOM      9  C   UNL     1      73.916  82.242  65.625  1.00  0.00     0.054 A 
ATOM     10  C   UNL     1      73.003  80.526  64.190  1.00  0.00     0.157 A 
ATOM     11  C   UNL     1      74.149  80.581  63.395  1.00  0.00     0.050 A 
ATOM     12  C   UNL     1      75.177  81.468  63.715  1.00  0.00     0.008 A 
BRANCH   8  13
ATOM     13  O   UNL     1      71.775  81.311  66.089  1.00  0.00    -0.493 OA
ATOM     14  C   UNL     1      71.196  82.559  66.466  1.00  0.00     0.278 C 
ENDBRANCH   8  13
BRANCH  10  15
ATOM     15  O   UNL     1      72.006  79.656  63.867  1.00  0.00    -0.504 OA
ATOM     16  H   UNL     1      72.397  78.907  63.386  1.00  0.00     0.293 HD
ENDBRANCH  10  15
ENDBRANCH   6   7
ENDBRANCH   5   6
ENDBRANCH   3   5
ENDBRANCH   2   3
BRANCH   1  17
ATOM     17  C   UNL     1      77.554  87.238  67.729  1.00  0.00     0.027 C 
BRANCH  17  18
ATOM     18  C   UNL     1      77.023  87.729  66.378  1.00  0.00     0.004 C 
BRANCH  18  19
ATOM     19  C   UNL     1      75.511  87.979  66.367  1.00  0.00     0.000 C 
BRANCH  19  20
ATOM     20  C   UNL     1      74.771  86.850  65.650  1.00  0.00    -0.003 C 
ATOM     21  C   UNL     1      74.003  85.976  66.629  1.00  0.00     0.004 C 
ENDBRANCH  19  20
ENDBRANCH  18  19
ENDBRANCH  17  18
ENDBRANCH   1  17
TORSDOF 10
ENDMDL
MODEL 10
REMARK VINA RESULT:    -5.527      3.247      6.986
REMARK INTER + INTRA:          -9.140
REMARK INTER:                  -7.723
REMARK INTRA:                  -1.417
REMARK UNBOUND:                -0.544
REMARK SMILES CCCCC/C=C/C(=O)CCc1ccc(O)c(OC)c1
REMARK SMILES IDX 6 1 7 2 8 3 9 4 10 5 11 6 12 7 17 8 20 9 15 10 14 11 13 12
REMARK SMILES IDX 18 13 19 14 16 15 5 17 4 18 3 19 2 20 1 21
REMARK H PARENT 16 16
REMARK Flexibility Score: inf
ROOT
ATOM      1  C   UNL     1      77.709  84.687  66.261  1.00  0.00    -0.023 C 
ATOM      2  C   UNL     1      77.914  84.541  67.575  1.00  0.00     0.043 C 
ENDROOT
BRANCH   2   3
ATOM      3  C   UNL     1      78.047  85.743  68.443  1.00  0.00     0.155 C 
ATOM      4  O   UNL     1      78.315  86.850  67.981  1.00  0.00    -0.295 OA
BRANCH   3   5
ATOM      5  C   UNL     1      77.886  85.521  69.934  1.00  0.00     0.085 C 
BRANCH   5   6
ATOM      6  C   UNL     1      76.563  84.824  70.253  1.00  0.00     0.044 C 
BRANCH   6   7
ATOM      7  C   UNL     1      75.358  85.633  69.834  1.00  0.00    -0.044 A 
ATOM      8  C   UNL     1      74.020  87.615  70.031  1.00  0.00     0.160 A 
ATOM      9  C   UNL     1      75.133  86.869  70.418  1.00  0.00     0.054 A 
ATOM     10  C   UNL     1      73.146  87.116  69.065  1.00  0.00     0.157 A 
ATOM     11  C   UNL     1      73.386  85.869  68.486  1.00  0.00     0.050 A 
ATOM     12  C   UNL     1      74.499  85.123  68.874  1.00  0.00     0.008 A 
BRANCH   8  13
ATOM     13  O   UNL     1      73.796  88.831  70.604  1.00  0.00    -0.493 OA
ATOM     14  C   UNL     1      74.943  89.591  70.979  1.00  0.00     0.278 C 
ENDBRANCH   8  13
BRANCH  10  15
ATOM     15  O   UNL     1      72.057  87.835  68.678  1.00  0.00    -0.504 OA
ATOM     16  H   UNL     1      72.356  88.553  68.093  1.00  0.00     0.293 HD
ENDBRANCH  10  15
ENDBRANCH   6   7
ENDBRANCH   5   6
ENDBRANCH   3   5
ENDBRANCH   2   3
BRANCH   1  17
ATOM     17  C   UNL     1      77.565  83.526  65.319  1.00  0.00     0.027 C 
BRANCH  17  18
ATOM     18  C   UNL     1      77.194  82.219  66.028  1.00  0.00     0.004 C 
BRANCH  18  19
ATOM     19  C   UNL     1      75.903  81.582  65.504  1.00  0.00     0.000 C 
BRANCH  19  20
ATOM     20  C   UNL     1      74.717  81.910  66.412  1.00  0.00    -0.003 C 
ATOM     21  C   UNL     1      73.881  83.046  65.847  1.00  0.00     0.004 C 
ENDBRANCH  19  20
ENDBRANCH  18  19
ENDBRANCH  17  18
ENDBRANCH   1  17
TORSDOF 10
ENDMDL
