MODEL 1
REMARK VINA RESULT:    -7.183      0.000      0.000
REMARK INTER + INTRA:         -13.743
REMARK INTER:                 -12.222
REMARK INTRA:                  -1.521
REMARK UNBOUND:                -1.521
REMARK SMILES C=C(C)[C@]12C[C@@H](C)[C@@]34O[C@](Cc5ccccc5)(O[C@@H]1[C@@H]3C=C(COC(=O)Cc1ccc(O)cc1)C[C@]1(O)C(=O)C(C)=C[C@@H]41)O2
REMARK SMILES IDX 23 1 22 2 21 3 20 4 9 5 8 6 10 7 6 8 18 10 44 11 19 12 5 13
REMARK SMILES IDX 7 14 4 15 11 16 12 17 13 18 17 19 14 20 16 21 15 22 2 23
REMARK SMILES IDX 3 24 1 25 35 26 36 27 43 28 38 29 42 30 39 32 40 33 41 34
REMARK SMILES IDX 37 35 24 37 25 38 26 39 27 40 28 41 29 42 34 43 30 44 33 45
REMARK SMILES IDX 31 46 32 47
REMARK H PARENT 37 36 32 48
REMARK Flexibility Score: 90.00
ROOT
ATOM      1  C   UNL     1      77.871  92.907  90.489  1.00  0.00     0.264 C 
ENDROOT
BRANCH   1   2
ATOM      2  C   UNL     1      78.187  91.488  90.078  1.00  0.00    -0.033 C 
ATOM      3  C   UNL     1      78.965  91.273  88.996  1.00  0.00    -0.015 C 
BRANCH   3   4
ATOM      4  C   UNL     1      79.362  89.961  88.339  1.00  0.00     0.078 C 
ATOM      5  O   UNL     1      81.541  89.302  89.305  1.00  0.00    -0.319 OA
ATOM      6  C   UNL     1      80.140  88.898  89.199  1.00  0.00     0.095 CG0
ATOM      7  C   UNL     1      82.133  89.795  88.087  1.00  0.00     0.289 C 
ATOM      8  C   UNL     1      80.051  87.510  88.441  1.00  0.00     0.023 C 
ATOM      9  G   UNL     1      79.627  88.892  90.668  1.00  0.00     0.000 G0
ATOM     10  O   UNL     1      81.409  90.908  87.573  1.00  0.00    -0.320 OA
ATOM     11  O   UNL     1      82.128  88.819  87.048  1.00  0.00    -0.313 OA
ATOM     12  C   UNL     1      80.232  90.241  87.089  1.00  0.00     0.170 C 
ATOM     13  C   UNL     1      80.032  87.703  86.894  1.00  0.00     0.049 C 
ATOM     14  C   UNL     1      81.135  86.483  88.813  1.00  0.00     0.011 C 
ATOM     15  C   UNL     1      80.813  88.947  86.468  1.00  0.00     0.122 C 
BRANCH   7  16
ATOM     16  C   UNL     1      83.561  90.205  88.386  1.00  0.00     0.135 C 
BRANCH  16  17
ATOM     17  C   UNL     1      84.320  90.570  87.134  1.00  0.00    -0.040 A 
ATOM     18  C   UNL     1      84.200  91.850  86.595  1.00  0.00     0.004 A 
ATOM     19  C   UNL     1      85.140  89.626  86.517  1.00  0.00     0.004 A 
ATOM     20  C   UNL     1      84.903  92.188  85.437  1.00  0.00     0.000 A 
ATOM     21  C   UNL     1      85.842  89.964  85.360  1.00  0.00     0.000 A 
ATOM     22  C   UNL     1      85.723  91.244  84.820  1.00  0.00     0.000 A 
ENDBRANCH  16  17
ENDBRANCH   7  16
BRANCH  15  23
ATOM     23  C   UNL     1      80.961  89.053  84.986  1.00  0.00    -0.046 C 
ATOM     24  C   UNL     1      80.489  87.873  84.188  1.00  0.00     0.042 C 
ATOM     25  C   UNL     1      81.486  90.139  84.401  1.00  0.00     0.010 C 
ENDBRANCH  15  23
ENDBRANCH   3   4
BRANCH   2  26
ATOM     26  C   UNL     1      77.559  90.450  90.988  1.00  0.00     0.078 C 
BRANCH  26  27
ATOM     27  C   UNL     1      78.052  89.011  90.851  1.00  0.00     0.140 C 
ATOM     28  C   UNL     1      79.583  88.933  90.672  1.00  0.00     0.086 CG0
ATOM     29  C   UNL     1      77.831  88.199  92.110  1.00  0.00     0.190 C 
ATOM     30  C   UNL     1      79.991  87.842  91.623  1.00  0.00    -0.010 C 
ATOM     31  G   UNL     1      80.101  88.901  89.205  1.00  0.00     0.000 G0
ATOM     32  O   UNL     1      76.784  88.137  92.736  1.00  0.00    -0.291 OA
ATOM     33  C   UNL     1      79.038  87.428  92.462  1.00  0.00    -0.008 C 
ATOM     34  C   UNL     1      79.102  86.448  93.567  1.00  0.00     0.048 C 
BRANCH  27  35
ATOM     35  O   UNL     1      77.324  88.305  89.860  1.00  0.00    -0.381 OA
ATOM     36  H   UNL     1      77.807  87.488  89.648  1.00  0.00     0.212 HD
ENDBRANCH  27  35
ENDBRANCH  26  27
ENDBRANCH   2  26
ENDBRANCH   1   2
BRANCH   1  37
ATOM     37  O   UNL     1      78.934  93.752  90.103  1.00  0.00    -0.461 OA
BRANCH  37  38
ATOM     38  C   UNL     1      79.483  94.531  91.095  1.00  0.00     0.310 C 
ATOM     39  O   UNL     1      78.854  95.284  91.826  1.00  0.00    -0.252 OA
BRANCH  38  40
ATOM     40  C   UNL     1      80.976  94.313  91.140  1.00  0.00     0.158 C 
BRANCH  40  41
ATOM     41  C   UNL     1      81.684  94.839  89.918  1.00  0.00    -0.037 A 
ATOM     42  C   UNL     1      82.475  93.985  89.149  1.00  0.00     0.008 A 
ATOM     43  C   UNL     1      81.549  96.178  89.556  1.00  0.00     0.008 A 
ATOM     44  C   UNL     1      83.131  94.472  88.018  1.00  0.00     0.046 A 
ATOM     45  C   UNL     1      82.205  96.666  88.425  1.00  0.00     0.046 A 
ATOM     46  C   UNL     1      82.996  95.813  87.657  1.00  0.00     0.115 A 
BRANCH  46  47
ATOM     47  O   UNL     1      83.636  96.288  86.554  1.00  0.00    -0.508 OA
ATOM     48  H   UNL     1      84.299  95.635  86.268  1.00  0.00     0.293 HD
ENDBRANCH  46  47
ENDBRANCH  40  41
ENDBRANCH  38  40
ENDBRANCH  37  38
ENDBRANCH   1  37
TORSDOF 10
ENDMDL
MODEL 2
REMARK VINA RESULT:    -6.992     21.351     24.541
REMARK INTER + INTRA:         -13.417
REMARK INTER:                 -12.832
REMARK INTRA:                  -0.585
REMARK UNBOUND:                -1.521
REMARK SMILES C=C(C)[C@]12C[C@@H](C)[C@@]34O[C@](Cc5ccccc5)(O[C@@H]1[C@@H]3C=C(COC(=O)Cc1ccc(O)cc1)C[C@]1(O)C(=O)C(C)=C[C@@H]41)O2
REMARK SMILES IDX 23 1 22 2 21 3 20 4 9 5 8 6 10 7 6 8 18 10 44 11 19 12 5 13
REMARK SMILES IDX 7 14 4 15 11 16 12 17 13 18 17 19 14 20 16 21 15 22 2 23
REMARK SMILES IDX 3 24 1 25 35 26 36 27 43 28 38 29 42 30 39 32 40 33 41 34
REMARK SMILES IDX 37 35 24 37 25 38 26 39 27 40 28 41 29 42 34 43 30 44 33 45
REMARK SMILES IDX 31 46 32 47
REMARK H PARENT 37 36 32 48
REMARK Flexibility Score: 90.00
ROOT
ATOM      1  C   UNL     1      64.453  88.255  74.494  1.00  0.00     0.264 C 
ENDROOT
BRANCH   1   2
ATOM      2  C   UNL     1      63.330  87.799  73.591  1.00  0.00    -0.033 C 
ATOM      3  C   UNL     1      63.447  86.626  72.935  1.00  0.00    -0.015 C 
BRANCH   3   4
ATOM      4  C   UNL     1      62.508  85.987  71.924  1.00  0.00     0.078 C 
ATOM      5  O   UNL     1      60.978  84.514  73.192  1.00  0.00    -0.319 OA
ATOM      6  C   UNL     1      61.020  85.712  72.355  1.00  0.00     0.095 CG0
ATOM      7  C   UNL     1      61.796  83.418  72.740  1.00  0.00     0.289 C 
ATOM      8  C   UNL     1      60.179  85.458  71.037  1.00  0.00     0.023 C 
ATOM      9  G   UNL     1      60.492  86.849  73.277  1.00  0.00     0.000 G0
ATOM     10  O   UNL     1      63.162  83.806  72.622  1.00  0.00    -0.320 OA
ATOM     11  O   UNL     1      61.415  82.954  71.447  1.00  0.00    -0.313 OA
ATOM     12  C   UNL     1      63.089  84.632  71.450  1.00  0.00     0.170 C 
ATOM     13  C   UNL     1      61.034  84.755  69.938  1.00  0.00     0.049 C 
ATOM     14  C   UNL     1      58.863  84.686  71.230  1.00  0.00     0.011 C 
ATOM     15  C   UNL     1      62.104  83.848  70.548  1.00  0.00     0.122 C 
BRANCH   7  16
ATOM     16  C   UNL     1      61.668  82.286  73.740  1.00  0.00     0.135 C 
BRANCH  16  17
ATOM     17  C   UNL     1      62.996  81.630  74.025  1.00  0.00    -0.040 A 
ATOM     18  C   UNL     1      63.684  80.973  73.006  1.00  0.00     0.004 A 
ATOM     19  C   UNL     1      63.536  81.682  75.310  1.00  0.00     0.004 A 
ATOM     20  C   UNL     1      64.912  80.367  73.270  1.00  0.00     0.000 A 
ATOM     21  C   UNL     1      64.764  81.075  75.575  1.00  0.00     0.000 A 
ATOM     22  C   UNL     1      65.452  80.418  74.555  1.00  0.00     0.000 A 
ENDBRANCH  16  17
ENDBRANCH   7  16
BRANCH  15  23
ATOM     23  C   UNL     1      62.814  83.028  69.521  1.00  0.00    -0.046 C 
ATOM     24  C   UNL     1      62.454  81.572  69.473  1.00  0.00     0.042 C 
ATOM     25  C   UNL     1      63.721  83.561  68.690  1.00  0.00     0.010 C 
ENDBRANCH  15  23
ENDBRANCH   3   4
BRANCH   2  26
ATOM     26  C   UNL     1      62.165  88.770  73.551  1.00  0.00     0.078 C 
BRANCH  26  27
ATOM     27  C   UNL     1      60.893  88.306  72.844  1.00  0.00     0.140 C 
ATOM     28  C   UNL     1      60.487  86.875  73.254  1.00  0.00     0.086 CG0
ATOM     29  C   UNL     1      59.679  89.116  73.245  1.00  0.00     0.190 C 
ATOM     30  C   UNL     1      59.011  86.991  73.514  1.00  0.00    -0.010 C 
ATOM     31  G   UNL     1      61.015  85.726  72.346  1.00  0.00     0.000 G0
ATOM     32  O   UNL     1      59.620  90.336  73.276  1.00  0.00    -0.291 OA
ATOM     33  C   UNL     1      58.531  88.238  73.543  1.00  0.00    -0.008 C 
ATOM     34  C   UNL     1      57.170  88.727  73.847  1.00  0.00     0.048 C 
BRANCH  27  35
ATOM     35  O   UNL     1      60.980  88.498  71.442  1.00  0.00    -0.381 OA
ATOM     36  H   UNL     1      60.652  87.695  71.002  1.00  0.00     0.212 HD
ENDBRANCH  27  35
ENDBRANCH  26  27
ENDBRANCH   2  26
ENDBRANCH   1   2
BRANCH   1  37
ATOM     37  O   UNL     1      64.400  87.532  75.705  1.00  0.00    -0.461 OA
BRANCH  37  38
ATOM     38  C   UNL     1      65.539  86.841  76.050  1.00  0.00     0.310 C 
ATOM     39  O   UNL     1      66.625  86.958  75.500  1.00  0.00    -0.252 OA
BRANCH  38  40
ATOM     40  C   UNL     1      65.238  85.920  77.208  1.00  0.00     0.158 C 
BRANCH  40  41
ATOM     41  C   UNL     1      65.841  86.392  78.506  1.00  0.00    -0.037 A 
ATOM     42  C   UNL     1      65.727  87.730  78.882  1.00  0.00     0.008 A 
ATOM     43  C   UNL     1      66.513  85.491  79.331  1.00  0.00     0.008 A 
ATOM     44  C   UNL     1      66.287  88.167  80.084  1.00  0.00     0.046 A 
ATOM     45  C   UNL     1      67.072  85.927  80.533  1.00  0.00     0.046 A 
ATOM     46  C   UNL     1      66.959  87.265  80.909  1.00  0.00     0.115 A 
BRANCH  46  47
ATOM     47  O   UNL     1      67.504  87.691  82.080  1.00  0.00    -0.508 OA
ATOM     48  H   UNL     1      68.412  87.348  82.149  1.00  0.00     0.293 HD
ENDBRANCH  46  47
ENDBRANCH  40  41
ENDBRANCH  38  40
ENDBRANCH  37  38
ENDBRANCH   1  37
TORSDOF 10
ENDMDL
MODEL 3
REMARK VINA RESULT:    -6.975     21.003     24.248
REMARK INTER + INTRA:         -13.389
REMARK INTER:                 -12.733
REMARK INTRA:                  -0.656
REMARK UNBOUND:                -1.521
REMARK SMILES C=C(C)[C@]12C[C@@H](C)[C@@]34O[C@](Cc5ccccc5)(O[C@@H]1[C@@H]3C=C(COC(=O)Cc1ccc(O)cc1)C[C@]1(O)C(=O)C(C)=C[C@@H]41)O2
REMARK SMILES IDX 23 1 22 2 21 3 20 4 9 5 8 6 10 7 6 8 18 10 44 11 19 12 5 13
REMARK SMILES IDX 7 14 4 15 11 16 12 17 13 18 17 19 14 20 16 21 15 22 2 23
REMARK SMILES IDX 3 24 1 25 35 26 36 27 43 28 38 29 42 30 39 32 40 33 41 34
REMARK SMILES IDX 37 35 24 37 25 38 26 39 27 40 28 41 29 42 34 43 30 44 33 45
REMARK SMILES IDX 31 46 32 47
REMARK H PARENT 37 36 32 48
REMARK Flexibility Score: 90.00
ROOT
ATOM      1  C   UNL     1      65.610  86.673  75.657  1.00  0.00     0.264 C 
ENDROOT
BRANCH   1   2
ATOM      2  C   UNL     1      64.558  85.726  75.126  1.00  0.00    -0.033 C 
ATOM      3  C   UNL     1      63.694  86.161  74.185  1.00  0.00    -0.015 C 
BRANCH   3   4
ATOM      4  C   UNL     1      62.514  85.441  73.553  1.00  0.00     0.078 C 
ATOM      5  O   UNL     1      63.341  84.394  71.470  1.00  0.00    -0.319 OA
ATOM      6  C   UNL     1      62.782  84.093  72.787  1.00  0.00     0.095 CG0
ATOM      7  C   UNL     1      62.717  85.489  70.773  1.00  0.00     0.289 C 
ATOM      8  C   UNL     1      61.391  83.357  72.610  1.00  0.00     0.023 C 
ATOM      9  G   UNL     1      63.891  83.264  73.499  1.00  0.00     0.000 G0
ATOM     10  O   UNL     1      62.770  86.689  71.540  1.00  0.00    -0.320 OA
ATOM     11  O   UNL     1      61.334  85.254  70.521  1.00  0.00    -0.313 OA
ATOM     12  C   UNL     1      61.799  86.382  72.552  1.00  0.00     0.170 C 
ATOM     13  C   UNL     1      60.223  84.376  72.433  1.00  0.00     0.049 C 
ATOM     14  C   UNL     1      61.333  82.315  71.480  1.00  0.00     0.011 C 
ATOM     15  C   UNL     1      60.691  85.660  71.747  1.00  0.00     0.122 C 
BRANCH   7  16
ATOM     16  C   UNL     1      63.443  85.689  69.457  1.00  0.00     0.135 C 
BRANCH  16  17
ATOM     17  C   UNL     1      62.741  85.002  68.313  1.00  0.00    -0.040 A 
ATOM     18  C   UNL     1      62.101  85.758  67.332  1.00  0.00     0.004 A 
ATOM     19  C   UNL     1      62.732  83.609  68.237  1.00  0.00     0.004 A 
ATOM     20  C   UNL     1      61.451  85.122  66.273  1.00  0.00     0.000 A 
ATOM     21  C   UNL     1      62.082  82.973  67.178  1.00  0.00     0.000 A 
ATOM     22  C   UNL     1      61.442  83.730  66.197  1.00  0.00     0.000 A 
ENDBRANCH  16  17
ENDBRANCH   7  16
BRANCH  15  23
ATOM     23  C   UNL     1      59.560  86.573  71.404  1.00  0.00    -0.046 C 
ATOM     24  C   UNL     1      58.180  86.005  71.563  1.00  0.00     0.042 C 
ATOM     25  C   UNL     1      59.765  87.828  70.979  1.00  0.00     0.010 C 
ENDBRANCH  15  23
ENDBRANCH   3   4
BRANCH   2  26
ATOM     26  C   UNL     1      64.629  84.346  75.752  1.00  0.00     0.078 C 
BRANCH  26  27
ATOM     27  C   UNL     1      63.845  83.228  75.068  1.00  0.00     0.140 C 
ATOM     28  C   UNL     1      63.919  83.322  73.529  1.00  0.00     0.086 CG0
ATOM     29  C   UNL     1      64.432  81.859  75.338  1.00  0.00     0.190 C 
ATOM     30  C   UNL     1      64.211  81.909  73.107  1.00  0.00    -0.010 C 
ATOM     31  G   UNL     1      62.767  84.104  72.834  1.00  0.00     0.000 G0
ATOM     32  O   UNL     1      64.743  81.427  76.439  1.00  0.00    -0.291 OA
ATOM     33  C   UNL     1      64.531  81.070  74.096  1.00  0.00    -0.008 C 
ATOM     34  C   UNL     1      64.950  79.654  74.045  1.00  0.00     0.048 C 
BRANCH  27  35
ATOM     35  O   UNL     1      62.524  83.136  75.573  1.00  0.00    -0.381 OA
ATOM     36  H   UNL     1      61.992  83.843  75.171  1.00  0.00     0.212 HD
ENDBRANCH  27  35
ENDBRANCH  26  27
ENDBRANCH   2  26
ENDBRANCH   1   2
BRANCH   1  37
ATOM     37  O   UNL     1      66.097  86.186  76.889  1.00  0.00    -0.461 OA
BRANCH  37  38
ATOM     38  C   UNL     1      65.957  87.024  77.971  1.00  0.00     0.310 C 
ATOM     39  O   UNL     1      66.537  88.091  78.114  1.00  0.00    -0.252 OA
BRANCH  38  40
ATOM     40  C   UNL     1      64.979  86.421  78.951  1.00  0.00     0.158 C 
BRANCH  40  41
ATOM     41  C   UNL     1      65.637  85.945  80.220  1.00  0.00    -0.037 A 
ATOM     42  C   UNL     1      65.059  86.235  81.457  1.00  0.00     0.008 A 
ATOM     43  C   UNL     1      66.823  85.214  80.160  1.00  0.00     0.008 A 
ATOM     44  C   UNL     1      65.669  85.795  82.632  1.00  0.00     0.046 A 
ATOM     45  C   UNL     1      67.433  84.773  81.335  1.00  0.00     0.046 A 
ATOM     46  C   UNL     1      66.856  85.064  82.571  1.00  0.00     0.115 A 
BRANCH  46  47
ATOM     47  O   UNL     1      67.450  84.635  83.717  1.00  0.00    -0.508 OA
ATOM     48  H   UNL     1      67.786  83.732  83.580  1.00  0.00     0.293 HD
ENDBRANCH  46  47
ENDBRANCH  40  41
ENDBRANCH  38  40
ENDBRANCH  37  38
ENDBRANCH   1  37
TORSDOF 10
ENDMDL
MODEL 4
REMARK VINA RESULT:    -6.833      1.527      2.079
REMARK INTER + INTRA:         -13.147
REMARK INTER:                 -11.079
REMARK INTRA:                  -2.068
REMARK UNBOUND:                -1.521
REMARK SMILES C=C(C)[C@]12C[C@@H](C)[C@@]34O[C@](Cc5ccccc5)(O[C@@H]1[C@@H]3C=C(COC(=O)Cc1ccc(O)cc1)C[C@]1(O)C(=O)C(C)=C[C@@H]41)O2
REMARK SMILES IDX 23 1 22 2 21 3 20 4 9 5 8 6 10 7 6 8 18 10 44 11 19 12 5 13
REMARK SMILES IDX 7 14 4 15 11 16 12 17 13 18 17 19 14 20 16 21 15 22 2 23
REMARK SMILES IDX 3 24 1 25 35 26 36 27 43 28 38 29 42 30 39 32 40 33 41 34
REMARK SMILES IDX 37 35 24 37 25 38 26 39 27 40 28 41 29 42 34 43 30 44 33 45
REMARK SMILES IDX 31 46 32 47
REMARK H PARENT 37 36 32 48
REMARK Flexibility Score: 90.00
ROOT
ATOM      1  C   UNL     1      78.038  92.805  90.350  1.00  0.00     0.264 C 
ENDROOT
BRANCH   1   2
ATOM      2  C   UNL     1      78.340  91.381  89.943  1.00  0.00    -0.033 C 
ATOM      3  C   UNL     1      79.098  91.155  88.850  1.00  0.00    -0.015 C 
BRANCH   3   4
ATOM      4  C   UNL     1      79.478  89.836  88.195  1.00  0.00     0.078 C 
ATOM      5  O   UNL     1      81.643  89.146  89.169  1.00  0.00    -0.319 OA
ATOM      6  C   UNL     1      80.237  88.763  89.059  1.00  0.00     0.095 CG0
ATOM      7  C   UNL     1      82.247  89.629  87.954  1.00  0.00     0.289 C 
ATOM      8  C   UNL     1      80.130  87.376  88.302  1.00  0.00     0.023 C 
ATOM      9  G   UNL     1      79.718  88.766  90.526  1.00  0.00     0.000 G0
ATOM     10  O   UNL     1      81.541  90.753  87.436  1.00  0.00    -0.320 OA
ATOM     11  O   UNL     1      82.231  88.652  86.915  1.00  0.00    -0.313 OA
ATOM     12  C   UNL     1      80.357  90.103  86.948  1.00  0.00     0.170 C 
ATOM     13  C   UNL     1      80.119  87.567  86.754  1.00  0.00     0.049 C 
ATOM     14  C   UNL     1      81.196  86.333  88.678  1.00  0.00     0.011 C 
ATOM     15  C   UNL     1      80.920  88.800  86.331  1.00  0.00     0.122 C 
BRANCH   7  16
ATOM     16  C   UNL     1      83.680  90.018  88.258  1.00  0.00     0.135 C 
BRANCH  16  17
ATOM     17  C   UNL     1      84.378  90.597  87.052  1.00  0.00    -0.040 A 
ATOM     18  C   UNL     1      84.246  91.953  86.754  1.00  0.00     0.004 A 
ATOM     19  C   UNL     1      85.154  89.775  86.236  1.00  0.00     0.004 A 
ATOM     20  C   UNL     1      84.892  92.488  85.639  1.00  0.00     0.000 A 
ATOM     21  C   UNL     1      85.800  90.310  85.120  1.00  0.00     0.000 A 
ATOM     22  C   UNL     1      85.668  91.666  84.822  1.00  0.00     0.000 A 
ENDBRANCH  16  17
ENDBRANCH   7  16
BRANCH  15  23
ATOM     23  C   UNL     1      81.075  88.902  84.848  1.00  0.00    -0.046 C 
ATOM     24  C   UNL     1      80.375  87.853  84.036  1.00  0.00     0.042 C 
ATOM     25  C   UNL     1      81.799  89.875  84.276  1.00  0.00     0.010 C 
ENDBRANCH  15  23
ENDBRANCH   3   4
BRANCH   2  26
ATOM     26  C   UNL     1      77.724  90.352  90.873  1.00  0.00     0.078 C 
BRANCH  26  27
ATOM     27  C   UNL     1      78.152  88.898  90.686  1.00  0.00     0.140 C 
ATOM     28  C   UNL     1      79.679  88.756  90.518  1.00  0.00     0.086 CG0
ATOM     29  C   UNL     1      77.880  88.051  91.911  1.00  0.00     0.190 C 
ATOM     30  C   UNL     1      80.027  87.613  91.430  1.00  0.00    -0.010 C 
ATOM     31  G   UNL     1      80.211  88.754  89.055  1.00  0.00     0.000 G0
ATOM     32  O   UNL     1      76.824  88.014  92.526  1.00  0.00    -0.291 OA
ATOM     33  C   UNL     1      79.046  87.213  92.245  1.00  0.00    -0.008 C 
ATOM     34  C   UNL     1      79.054  86.191  93.312  1.00  0.00     0.048 C 
BRANCH  27  35
ATOM     35  O   UNL     1      77.402  88.264  89.663  1.00  0.00    -0.381 OA
ATOM     36  H   UNL     1      76.861  88.938  89.217  1.00  0.00     0.212 HD
ENDBRANCH  27  35
ENDBRANCH  26  27
ENDBRANCH   2  26
ENDBRANCH   1   2
BRANCH   1  37
ATOM     37  O   UNL     1      78.155  92.924  91.752  1.00  0.00    -0.461 OA
BRANCH  37  38
ATOM     38  C   UNL     1      79.268  93.588  92.215  1.00  0.00     0.310 C 
ATOM     39  O   UNL     1      79.433  93.964  93.366  1.00  0.00    -0.252 OA
BRANCH  38  40
ATOM     40  C   UNL     1      80.248  93.778  91.082  1.00  0.00     0.158 C 
BRANCH  40  41
ATOM     41  C   UNL     1      81.530  93.012  91.279  1.00  0.00    -0.037 A 
ATOM     42  C   UNL     1      82.754  93.614  90.989  1.00  0.00     0.008 A 
ATOM     43  C   UNL     1      81.493  91.700  91.751  1.00  0.00     0.008 A 
ATOM     44  C   UNL     1      83.942  92.904  91.170  1.00  0.00     0.046 A 
ATOM     45  C   UNL     1      82.681  90.990  91.934  1.00  0.00     0.046 A 
ATOM     46  C   UNL     1      83.904  91.592  91.643  1.00  0.00     0.115 A 
BRANCH  46  47
ATOM     47  O   UNL     1      85.062  90.900  91.820  1.00  0.00    -0.508 OA
ATOM     48  H   UNL     1      84.902  89.960  91.623  1.00  0.00     0.293 HD
ENDBRANCH  46  47
ENDBRANCH  40  41
ENDBRANCH  38  40
ENDBRANCH  37  38
ENDBRANCH   1  37
TORSDOF 10
ENDMDL
MODEL 5
REMARK VINA RESULT:    -6.826     19.676     22.719
REMARK INTER + INTRA:         -13.135
REMARK INTER:                 -11.771
REMARK INTRA:                  -1.364
REMARK UNBOUND:                -1.521
REMARK SMILES C=C(C)[C@]12C[C@@H](C)[C@@]34O[C@](Cc5ccccc5)(O[C@@H]1[C@@H]3C=C(COC(=O)Cc1ccc(O)cc1)C[C@]1(O)C(=O)C(C)=C[C@@H]41)O2
REMARK SMILES IDX 23 1 22 2 21 3 20 4 9 5 8 6 10 7 6 8 18 10 44 11 19 12 5 13
REMARK SMILES IDX 7 14 4 15 11 16 12 17 13 18 17 19 14 20 16 21 15 22 2 23
REMARK SMILES IDX 3 24 1 25 35 26 36 27 43 28 38 29 42 30 39 32 40 33 41 34
REMARK SMILES IDX 37 35 24 37 25 38 26 39 27 40 28 41 29 42 34 43 30 44 33 45
REMARK SMILES IDX 31 46 32 47
REMARK H PARENT 37 36 32 48
REMARK Flexibility Score: 90.00
ROOT
ATOM      1  C   UNL     1      61.189  88.110  79.191  1.00  0.00     0.264 C 
ENDROOT
BRANCH   1   2
ATOM      2  C   UNL     1      61.509  87.951  77.723  1.00  0.00    -0.033 C 
ATOM      3  C   UNL     1      62.583  87.220  77.358  1.00  0.00    -0.015 C 
BRANCH   3   4
ATOM      4  C   UNL     1      63.156  86.973  75.972  1.00  0.00     0.078 C 
ATOM      5  O   UNL     1      62.123  84.892  75.124  1.00  0.00    -0.319 OA
ATOM      6  C   UNL     1      62.224  86.330  74.880  1.00  0.00     0.095 CG0
ATOM      7  C   UNL     1      63.359  84.239  75.471  1.00  0.00     0.289 C 
ATOM      8  C   UNL     1      62.900  86.574  73.468  1.00  0.00     0.023 C 
ATOM      9  G   UNL     1      60.765  86.851  75.021  1.00  0.00     0.000 G0
ATOM     10  O   UNL     1      63.948  84.825  76.628  1.00  0.00    -0.320 OA
ATOM     11  O   UNL     1      64.339  84.350  74.442  1.00  0.00    -0.313 OA
ATOM     12  C   UNL     1      64.408  86.067  76.074  1.00  0.00     0.170 C 
ATOM     13  C   UNL     1      64.456  86.560  73.568  1.00  0.00     0.049 C 
ATOM     14  C   UNL     1      62.454  85.621  72.347  1.00  0.00     0.011 C 
ATOM     15  C   UNL     1      64.943  85.637  74.686  1.00  0.00     0.122 C 
BRANCH   7  16
ATOM     16  C   UNL     1      63.065  82.774  75.731  1.00  0.00     0.135 C 
BRANCH  16  17
ATOM     17  C   UNL     1      63.920  81.866  74.884  1.00  0.00    -0.040 A 
ATOM     18  C   UNL     1      63.535  81.560  73.579  1.00  0.00     0.004 A 
ATOM     19  C   UNL     1      65.097  81.331  75.407  1.00  0.00     0.004 A 
ATOM     20  C   UNL     1      64.327  80.720  72.796  1.00  0.00     0.000 A 
ATOM     21  C   UNL     1      65.890  80.491  74.624  1.00  0.00     0.000 A 
ATOM     22  C   UNL     1      65.504  80.186  73.319  1.00  0.00     0.000 A 
ENDBRANCH  16  17
ENDBRANCH   7  16
BRANCH  15  23
ATOM     23  C   UNL     1      66.427  85.467  74.685  1.00  0.00    -0.046 C 
ATOM     24  C   UNL     1      67.216  86.528  75.394  1.00  0.00     0.042 C 
ATOM     25  C   UNL     1      67.022  84.426  74.084  1.00  0.00     0.010 C 
ENDBRANCH  15  23
ENDBRANCH   3   4
BRANCH   2  26
ATOM     26  C   UNL     1      60.524  88.667  76.817  1.00  0.00     0.078 C 
BRANCH  26  27
ATOM     27  C   UNL     1      60.618  88.380  75.320  1.00  0.00     0.140 C 
ATOM     28  C   UNL     1      60.755  86.873  75.021  1.00  0.00     0.086 CG0
ATOM     29  C   UNL     1      59.348  88.743  74.580  1.00  0.00     0.190 C 
ATOM     30  C   UNL     1      59.771  86.645  73.908  1.00  0.00    -0.010 C 
ATOM     31  G   UNL     1      62.208  86.332  74.879  1.00  0.00     0.000 G0
ATOM     32  O   UNL     1      58.746  89.802  74.683  1.00  0.00    -0.291 OA
ATOM     33  C   UNL     1      58.947  87.666  73.655  1.00  0.00    -0.008 C 
ATOM     34  C   UNL     1      57.821  87.767  72.704  1.00  0.00     0.048 C 
BRANCH  27  35
ATOM     35  O   UNL     1      61.611  89.180  74.700  1.00  0.00    -0.381 OA
ATOM     36  H   UNL     1      61.815  88.796  73.831  1.00  0.00     0.212 HD
ENDBRANCH  27  35
ENDBRANCH  26  27
ENDBRANCH   2  26
ENDBRANCH   1   2
BRANCH   1  37
ATOM     37  O   UNL     1      62.298  87.693  79.958  1.00  0.00    -0.461 OA
BRANCH  37  38
ATOM     38  C   UNL     1      62.918  88.666  80.708  1.00  0.00     0.310 C 
ATOM     39  O   UNL     1      62.364  89.374  81.537  1.00  0.00    -0.252 OA
BRANCH  38  40
ATOM     40  C   UNL     1      64.384  88.721  80.348  1.00  0.00     0.158 C 
BRANCH  40  41
ATOM     41  C   UNL     1      65.127  87.463  80.715  1.00  0.00    -0.037 A 
ATOM     42  C   UNL     1      65.562  86.593  79.715  1.00  0.00     0.008 A 
ATOM     43  C   UNL     1      65.380  87.168  82.054  1.00  0.00     0.008 A 
ATOM     44  C   UNL     1      66.250  85.427  80.055  1.00  0.00     0.046 A 
ATOM     45  C   UNL     1      66.069  86.003  82.395  1.00  0.00     0.046 A 
ATOM     46  C   UNL     1      66.503  85.133  81.395  1.00  0.00     0.115 A 
BRANCH  46  47
ATOM     47  O   UNL     1      67.173  83.996  81.726  1.00  0.00    -0.508 OA
ATOM     48  H   UNL     1      68.051  84.236  82.071  1.00  0.00     0.293 HD
ENDBRANCH  46  47
ENDBRANCH  40  41
ENDBRANCH  38  40
ENDBRANCH  37  38
ENDBRANCH   1  37
TORSDOF 10
ENDMDL
MODEL 6
REMARK VINA RESULT:    -6.384     21.236     24.365
REMARK INTER + INTRA:         -12.384
REMARK INTER:                 -11.912
REMARK INTRA:                  -0.472
REMARK UNBOUND:                -1.521
REMARK SMILES C=C(C)[C@]12C[C@@H](C)[C@@]34O[C@](Cc5ccccc5)(O[C@@H]1[C@@H]3C=C(COC(=O)Cc1ccc(O)cc1)C[C@]1(O)C(=O)C(C)=C[C@@H]41)O2
REMARK SMILES IDX 23 1 22 2 21 3 20 4 9 5 8 6 10 7 6 8 18 10 44 11 19 12 5 13
REMARK SMILES IDX 7 14 4 15 11 16 12 17 13 18 17 19 14 20 16 21 15 22 2 23
REMARK SMILES IDX 3 24 1 25 35 26 36 27 43 28 38 29 42 30 39 32 40 33 41 34
REMARK SMILES IDX 37 35 24 37 25 38 26 39 27 40 28 41 29 42 34 43 30 44 33 45
REMARK SMILES IDX 31 46 32 47
REMARK H PARENT 37 36 32 48
REMARK Flexibility Score: 90.00
ROOT
ATOM      1  C   UNL     1      63.915  86.665  76.489  1.00  0.00     0.264 C 
ENDROOT
BRANCH   1   2
ATOM      2  C   UNL     1      63.275  85.582  75.651  1.00  0.00    -0.033 C 
ATOM      3  C   UNL     1      62.404  85.928  74.681  1.00  0.00    -0.015 C 
BRANCH   3   4
ATOM      4  C   UNL     1      61.578  85.039  73.764  1.00  0.00     0.078 C 
ATOM      5  O   UNL     1      62.888  84.732  71.689  1.00  0.00    -0.319 OA
ATOM      6  C   UNL     1      62.331  84.017  72.836  1.00  0.00     0.095 CG0
ATOM      7  C   UNL     1      62.017  85.715  71.095  1.00  0.00     0.289 C 
ATOM      8  C   UNL     1      61.269  82.958  72.327  1.00  0.00     0.023 C 
ATOM      9  G   UNL     1      63.573  83.422  73.561  1.00  0.00     0.000 G0
ATOM     10  O   UNL     1      61.614  86.693  72.050  1.00  0.00    -0.320 OA
ATOM     11  O   UNL     1      60.811  85.141  70.598  1.00  0.00    -0.313 OA
ATOM     12  C   UNL     1      60.699  85.914  72.836  1.00  0.00     0.170 C 
ATOM     13  C   UNL     1      59.860  83.602  72.145  1.00  0.00     0.049 C 
ATOM     14  C   UNL     1      61.652  82.199  71.045  1.00  0.00     0.011 C 
ATOM     15  C   UNL     1      59.960  85.080  71.762  1.00  0.00     0.122 C 
BRANCH   7  16
ATOM     16  C   UNL     1      62.763  86.384  69.958  1.00  0.00     0.135 C 
BRANCH  16  17
ATOM     17  C   UNL     1      62.015  87.575  69.414  1.00  0.00    -0.040 A 
ATOM     18  C   UNL     1      62.348  88.861  69.838  1.00  0.00     0.004 A 
ATOM     19  C   UNL     1      60.991  87.390  68.486  1.00  0.00     0.004 A 
ATOM     20  C   UNL     1      61.656  89.963  69.334  1.00  0.00     0.000 A 
ATOM     21  C   UNL     1      60.299  88.492  67.982  1.00  0.00     0.000 A 
ATOM     22  C   UNL     1      60.631  89.778  68.406  1.00  0.00     0.000 A 
ENDBRANCH  16  17
ENDBRANCH   7  16
BRANCH  15  23
ATOM     23  C   UNL     1      58.634  85.670  71.406  1.00  0.00    -0.046 C 
ATOM     24  C   UNL     1      57.514  84.698  71.185  1.00  0.00     0.042 C 
ATOM     25  C   UNL     1      58.456  86.995  71.290  1.00  0.00     0.010 C 
ENDBRANCH  15  23
ENDBRANCH   3   4
BRANCH   2  26
ATOM     26  C   UNL     1      63.730  84.186  76.034  1.00  0.00     0.078 C 
BRANCH  26  27
ATOM     27  C   UNL     1      63.352  83.046  75.091  1.00  0.00     0.140 C 
ATOM     28  C   UNL     1      63.561  83.421  73.609  1.00  0.00     0.086 CG0
ATOM     29  C   UNL     1      64.252  81.839  75.250  1.00  0.00     0.190 C 
ATOM     30  C   UNL     1      64.264  82.220  73.039  1.00  0.00    -0.010 C 
ATOM     31  G   UNL     1      62.321  84.003  72.868  1.00  0.00     0.000 G0
ATOM     32  O   UNL     1      64.548  81.312  76.312  1.00  0.00    -0.291 OA
ATOM     33  C   UNL     1      64.689  81.327  73.938  1.00  0.00    -0.008 C 
ATOM     34  C   UNL     1      65.475  80.090  73.751  1.00  0.00     0.048 C 
BRANCH  27  35
ATOM     35  O   UNL     1      62.057  82.544  75.377  1.00  0.00    -0.381 OA
ATOM     36  H   UNL     1      62.088  82.090  76.237  1.00  0.00     0.212 HD
ENDBRANCH  27  35
ENDBRANCH  26  27
ENDBRANCH   2  26
ENDBRANCH   1   2
BRANCH   1  37
ATOM     37  O   UNL     1      64.104  86.188  77.804  1.00  0.00    -0.461 OA
BRANCH  37  38
ATOM     38  C   UNL     1      64.079  87.134  78.803  1.00  0.00     0.310 C 
ATOM     39  O   UNL     1      63.069  87.666  79.240  1.00  0.00    -0.252 OA
BRANCH  38  40
ATOM     40  C   UNL     1      65.488  87.408  79.272  1.00  0.00     0.158 C 
BRANCH  40  41
ATOM     41  C   UNL     1      65.918  86.507  80.400  1.00  0.00    -0.037 A 
ATOM     42  C   UNL     1      66.882  85.523  80.178  1.00  0.00     0.008 A 
ATOM     43  C   UNL     1      65.352  86.654  81.666  1.00  0.00     0.008 A 
ATOM     44  C   UNL     1      67.280  84.688  81.222  1.00  0.00     0.046 A 
ATOM     45  C   UNL     1      65.750  85.819  82.710  1.00  0.00     0.046 A 
ATOM     46  C   UNL     1      66.713  84.836  82.488  1.00  0.00     0.115 A 
BRANCH  46  47
ATOM     47  O   UNL     1      67.101  84.021  83.506  1.00  0.00    -0.508 OA
ATOM     48  H   UNL     1      67.286  84.563  84.293  1.00  0.00     0.293 HD
ENDBRANCH  46  47
ENDBRANCH  40  41
ENDBRANCH  38  40
ENDBRANCH  37  38
ENDBRANCH   1  37
TORSDOF 10
ENDMDL
MODEL 7
REMARK VINA RESULT:    -6.306     19.906     22.775
REMARK INTER + INTRA:         -12.251
REMARK INTER:                 -10.026
REMARK INTRA:                  -2.225
REMARK UNBOUND:                -1.521
REMARK SMILES C=C(C)[C@]12C[C@@H](C)[C@@]34O[C@](Cc5ccccc5)(O[C@@H]1[C@@H]3C=C(COC(=O)Cc1ccc(O)cc1)C[C@]1(O)C(=O)C(C)=C[C@@H]41)O2
REMARK SMILES IDX 23 1 22 2 21 3 20 4 9 5 8 6 10 7 6 8 18 10 44 11 19 12 5 13
REMARK SMILES IDX 7 14 4 15 11 16 12 17 13 18 17 19 14 20 16 21 15 22 2 23
REMARK SMILES IDX 3 24 1 25 35 26 36 27 43 28 38 29 42 30 39 32 40 33 41 34
REMARK SMILES IDX 37 35 24 37 25 38 26 39 27 40 28 41 29 42 34 43 30 44 33 45
REMARK SMILES IDX 31 46 32 47
REMARK H PARENT 37 36 32 48
REMARK Flexibility Score: 90.00
ROOT
ATOM      1  C   UNL     1      61.419  88.403  79.201  1.00  0.00     0.264 C 
ENDROOT
BRANCH   1   2
ATOM      2  C   UNL     1      61.692  88.228  77.725  1.00  0.00    -0.033 C 
ATOM      3  C   UNL     1      62.689  87.408  77.331  1.00  0.00    -0.015 C 
BRANCH   3   4
ATOM      4  C   UNL     1      63.208  87.124  75.931  1.00  0.00     0.078 C 
ATOM      5  O   UNL     1      62.008  85.123  75.111  1.00  0.00    -0.319 OA
ATOM      6  C   UNL     1      62.206  86.550  74.863  1.00  0.00     0.095 CG0
ATOM      7  C   UNL     1      63.202  84.382  75.426  1.00  0.00     0.289 C 
ATOM      8  C   UNL     1      62.861  86.748  73.435  1.00  0.00     0.023 C 
ATOM      9  G   UNL     1      60.791  87.174  75.042  1.00  0.00     0.000 G0
ATOM     10  O   UNL     1      63.861  84.923  76.568  1.00  0.00    -0.320 OA
ATOM     11  O   UNL     1      64.162  84.425  74.372  1.00  0.00    -0.313 OA
ATOM     12  C   UNL     1      64.394  86.130  76.002  1.00  0.00     0.170 C 
ATOM     13  C   UNL     1      64.415  86.623  73.496  1.00  0.00     0.049 C 
ATOM     14  C   UNL     1      62.320  85.830  72.325  1.00  0.00     0.011 C 
ATOM     15  C   UNL     1      64.862  85.665  74.601  1.00  0.00     0.122 C 
BRANCH   7  16
ATOM     16  C   UNL     1      62.811  82.942  75.694  1.00  0.00     0.135 C 
BRANCH  16  17
ATOM     17  C   UNL     1      63.651  81.971  74.903  1.00  0.00    -0.040 A 
ATOM     18  C   UNL     1      63.223  81.538  73.649  1.00  0.00     0.004 A 
ATOM     19  C   UNL     1      64.857  81.506  75.427  1.00  0.00     0.004 A 
ATOM     20  C   UNL     1      64.000  80.639  72.917  1.00  0.00     0.000 A 
ATOM     21  C   UNL     1      65.635  80.608  74.696  1.00  0.00     0.000 A 
ATOM     22  C   UNL     1      65.206  80.175  73.442  1.00  0.00     0.000 A 
ENDBRANCH  16  17
ENDBRANCH   7  16
BRANCH  15  23
ATOM     23  C   UNL     1      66.330  85.390  74.562  1.00  0.00    -0.046 C 
ATOM     24  C   UNL     1      67.193  86.280  75.407  1.00  0.00     0.042 C 
ATOM     25  C   UNL     1      66.847  84.404  73.815  1.00  0.00     0.010 C 
ENDBRANCH  15  23
ENDBRANCH   3   4
BRANCH   2  26
ATOM     26  C   UNL     1      60.755  89.035  76.846  1.00  0.00     0.078 C 
BRANCH  26  27
ATOM     27  C   UNL     1      60.755  88.720  75.352  1.00  0.00     0.140 C 
ATOM     28  C   UNL     1      60.778  87.202  75.076  1.00  0.00     0.086 CG0
ATOM     29  C   UNL     1      59.476  89.155  74.668  1.00  0.00     0.190 C 
ATOM     30  C   UNL     1      59.726  87.023  74.016  1.00  0.00    -0.010 C 
ATOM     31  G   UNL     1      62.183  86.563  74.873  1.00  0.00     0.000 G0
ATOM     32  O   UNL     1      58.952  90.253  74.779  1.00  0.00    -0.291 OA
ATOM     33  C   UNL     1      58.960  88.093  73.784  1.00  0.00    -0.008 C 
ATOM     34  C   UNL     1      57.797  88.253  72.887  1.00  0.00     0.048 C 
BRANCH  27  35
ATOM     35  O   UNL     1      61.766  89.441  74.670  1.00  0.00    -0.381 OA
ATOM     36  H   UNL     1      61.650  90.387  74.861  1.00  0.00     0.212 HD
ENDBRANCH  27  35
ENDBRANCH  26  27
ENDBRANCH   2  26
ENDBRANCH   1   2
BRANCH   1  37
ATOM     37  O   UNL     1      62.573  88.049  79.934  1.00  0.00    -0.461 OA
BRANCH  37  38
ATOM     38  C   UNL     1      63.153  89.053  80.675  1.00  0.00     0.310 C 
ATOM     39  O   UNL     1      62.547  89.841  81.387  1.00  0.00    -0.252 OA
BRANCH  38  40
ATOM     40  C   UNL     1      64.649  89.028  80.472  1.00  0.00     0.158 C 
BRANCH  40  41
ATOM     41  C   UNL     1      65.066  89.530  79.114  1.00  0.00    -0.037 A 
ATOM     42  C   UNL     1      64.559  90.736  78.629  1.00  0.00     0.008 A 
ATOM     43  C   UNL     1      65.959  88.790  78.340  1.00  0.00     0.008 A 
ATOM     44  C   UNL     1      64.944  91.200  77.371  1.00  0.00     0.046 A 
ATOM     45  C   UNL     1      66.345  89.254  77.082  1.00  0.00     0.046 A 
ATOM     46  C   UNL     1      65.837  90.459  76.598  1.00  0.00     0.115 A 
BRANCH  46  47
ATOM     47  O   UNL     1      66.213  90.912  75.371  1.00  0.00    -0.508 OA
ATOM     48  H   UNL     1      65.421  91.203  74.886  1.00  0.00     0.293 HD
ENDBRANCH  46  47
ENDBRANCH  40  41
ENDBRANCH  38  40
ENDBRANCH  37  38
ENDBRANCH   1  37
TORSDOF 10
ENDMDL
MODEL 8
REMARK VINA RESULT:    -6.259     22.049     25.201
REMARK INTER + INTRA:         -12.171
REMARK INTER:                  -9.990
REMARK INTRA:                  -2.181
REMARK UNBOUND:                -1.521
REMARK SMILES C=C(C)[C@]12C[C@@H](C)[C@@]34O[C@](Cc5ccccc5)(O[C@@H]1[C@@H]3C=C(COC(=O)Cc1ccc(O)cc1)C[C@]1(O)C(=O)C(C)=C[C@@H]41)O2
REMARK SMILES IDX 23 1 22 2 21 3 20 4 9 5 8 6 10 7 6 8 18 10 44 11 19 12 5 13
REMARK SMILES IDX 7 14 4 15 11 16 12 17 13 18 17 19 14 20 16 21 15 22 2 23
REMARK SMILES IDX 3 24 1 25 35 26 36 27 43 28 38 29 42 30 39 32 40 33 41 34
REMARK SMILES IDX 37 35 24 37 25 38 26 39 27 40 28 41 29 42 34 43 30 44 33 45
REMARK SMILES IDX 31 46 32 47
REMARK H PARENT 37 36 32 48
REMARK Flexibility Score: 90.00
ROOT
ATOM      1  C   UNL     1      65.235  86.674  75.655  1.00  0.00     0.264 C 
ENDROOT
BRANCH   1   2
ATOM      2  C   UNL     1      64.267  85.684  75.049  1.00  0.00    -0.033 C 
ATOM      3  C   UNL     1      63.455  86.083  74.049  1.00  0.00    -0.015 C 
BRANCH   3   4
ATOM      4  C   UNL     1      62.357  85.314  73.332  1.00  0.00     0.078 C 
ATOM      5  O   UNL     1      63.384  84.293  71.327  1.00  0.00    -0.319 OA
ATOM      6  C   UNL     1      62.737  83.975  72.599  1.00  0.00     0.095 CG0
ATOM      7  C   UNL     1      62.773  85.359  70.576  1.00  0.00     0.289 C 
ATOM      8  C   UNL     1      61.393  83.184  72.320  1.00  0.00     0.023 C 
ATOM      9  G   UNL     1      63.818  83.194  73.400  1.00  0.00     0.000 G0
ATOM     10  O   UNL     1      62.719  86.563  71.336  1.00  0.00    -0.320 OA
ATOM     11  O   UNL     1      61.424  85.068  70.219  1.00  0.00    -0.313 OA
ATOM     12  C   UNL     1      61.684  86.222  72.272  1.00  0.00     0.170 C 
ATOM     13  C   UNL     1      60.203  84.154  72.046  1.00  0.00     0.049 C 
ATOM     14  C   UNL     1      61.464  82.135  71.196  1.00  0.00     0.011 C 
ATOM     15  C   UNL     1      60.672  85.453  71.389  1.00  0.00     0.122 C 
BRANCH   7  16
ATOM     16  C   UNL     1      63.590  85.582  69.319  1.00  0.00     0.135 C 
BRANCH  16  17
ATOM     17  C   UNL     1      62.773  86.207  68.215  1.00  0.00    -0.040 A 
ATOM     18  C   UNL     1      62.478  87.569  68.251  1.00  0.00     0.004 A 
ATOM     19  C   UNL     1      62.314  85.421  67.159  1.00  0.00     0.004 A 
ATOM     20  C   UNL     1      61.723  88.147  67.230  1.00  0.00     0.000 A 
ATOM     21  C   UNL     1      61.558  85.999  66.138  1.00  0.00     0.000 A 
ATOM     22  C   UNL     1      61.263  87.361  66.174  1.00  0.00     0.000 A 
ENDBRANCH  16  17
ENDBRANCH   7  16
BRANCH  15  23
ATOM     23  C   UNL     1      59.535  86.319  70.953  1.00  0.00    -0.046 C 
ATOM     24  C   UNL     1      58.167  85.878  71.379  1.00  0.00     0.042 C 
ATOM     25  C   UNL     1      59.727  87.427  70.222  1.00  0.00     0.010 C 
ENDBRANCH  15  23
ENDBRANCH   3   4
BRANCH   2  26
ATOM     26  C   UNL     1      64.355  84.305  75.676  1.00  0.00     0.078 C 
BRANCH  26  27
ATOM     27  C   UNL     1      63.637  83.164  74.958  1.00  0.00     0.140 C 
ATOM     28  C   UNL     1      63.830  83.224  73.429  1.00  0.00     0.086 CG0
ATOM     29  C   UNL     1      64.211  81.807  75.306  1.00  0.00     0.190 C 
ATOM     30  C   UNL     1      64.166  81.805  73.063  1.00  0.00    -0.010 C 
ATOM     31  G   UNL     1      62.730  83.979  72.628  1.00  0.00     0.000 G0
ATOM     32  O   UNL     1      64.438  81.403  76.436  1.00  0.00    -0.291 OA
ATOM     33  C   UNL     1      64.413  80.991  74.093  1.00  0.00    -0.008 C 
ATOM     34  C   UNL     1      64.846  79.579  74.108  1.00  0.00     0.048 C 
BRANCH  27  35
ATOM     35  O   UNL     1      62.281  83.071  75.361  1.00  0.00    -0.381 OA
ATOM     36  H   UNL     1      62.253  82.710  76.263  1.00  0.00     0.212 HD
ENDBRANCH  27  35
ENDBRANCH  26  27
ENDBRANCH   2  26
ENDBRANCH   1   2
BRANCH   1  37
ATOM     37  O   UNL     1      65.214  86.546  77.061  1.00  0.00    -0.461 OA
BRANCH  37  38
ATOM     38  C   UNL     1      64.714  87.620  77.761  1.00  0.00     0.310 C 
ATOM     39  O   UNL     1      65.286  88.691  77.906  1.00  0.00    -0.252 OA
BRANCH  38  40
ATOM     40  C   UNL     1      63.356  87.269  78.319  1.00  0.00     0.158 C 
BRANCH  40  41
ATOM     41  C   UNL     1      62.251  87.399  77.303  1.00  0.00    -0.037 A 
ATOM     42  C   UNL     1      61.335  86.361  77.131  1.00  0.00     0.008 A 
ATOM     43  C   UNL     1      62.143  88.557  76.533  1.00  0.00     0.008 A 
ATOM     44  C   UNL     1      60.313  86.481  76.190  1.00  0.00     0.046 A 
ATOM     45  C   UNL     1      61.121  88.678  75.592  1.00  0.00     0.046 A 
ATOM     46  C   UNL     1      60.206  87.640  75.420  1.00  0.00     0.115 A 
BRANCH  46  47
ATOM     47  O   UNL     1      59.209  87.756  74.501  1.00  0.00    -0.508 OA
ATOM     48  H   UNL     1      58.783  88.625  74.606  1.00  0.00     0.293 HD
ENDBRANCH  46  47
ENDBRANCH  40  41
ENDBRANCH  38  40
ENDBRANCH  37  38
ENDBRANCH   1  37
TORSDOF 10
ENDMDL
MODEL 9
REMARK VINA RESULT:    -5.972      2.691      7.281
REMARK INTER + INTRA:         -11.682
REMARK INTER:                 -10.369
REMARK INTRA:                  -1.313
REMARK UNBOUND:                -1.521
REMARK SMILES C=C(C)[C@]12C[C@@H](C)[C@@]34O[C@](Cc5ccccc5)(O[C@@H]1[C@@H]3C=C(COC(=O)Cc1ccc(O)cc1)C[C@]1(O)C(=O)C(C)=C[C@@H]41)O2
REMARK SMILES IDX 23 1 22 2 21 3 20 4 9 5 8 6 10 7 6 8 18 10 44 11 19 12 5 13
REMARK SMILES IDX 7 14 4 15 11 16 12 17 13 18 17 19 14 20 16 21 15 22 2 23
REMARK SMILES IDX 3 24 1 25 35 26 36 27 43 28 38 29 42 30 39 32 40 33 41 34
REMARK SMILES IDX 37 35 24 37 25 38 26 39 27 40 28 41 29 42 34 43 30 44 33 45
REMARK SMILES IDX 31 46 32 47
REMARK H PARENT 37 36 32 48
REMARK Flexibility Score: 90.00
ROOT
ATOM      1  C   UNL     1      84.199  92.317  86.390  1.00  0.00     0.264 C 
ENDROOT
BRANCH   1   2
ATOM      2  C   UNL     1      83.287  92.400  87.592  1.00  0.00    -0.033 C 
ATOM      3  C   UNL     1      82.665  91.284  88.026  1.00  0.00    -0.015 C 
BRANCH   3   4
ATOM      4  C   UNL     1      81.653  91.117  89.149  1.00  0.00     0.078 C 
ATOM      5  O   UNL     1      82.927  90.524  91.184  1.00  0.00    -0.319 OA
ATOM      6  C   UNL     1      82.069  91.554  90.602  1.00  0.00     0.095 CG0
ATOM      7  C   UNL     1      82.504  89.167  90.950  1.00  0.00     0.289 C 
ATOM      8  C   UNL     1      80.744  91.681  91.462  1.00  0.00     0.023 C 
ATOM      9  G   UNL     1      82.964  92.827  90.562  1.00  0.00     0.000 G0
ATOM     10  O   UNL     1      82.398  88.892  89.556  1.00  0.00    -0.320 OA
ATOM     11  O   UNL     1      81.215  88.898  91.495  1.00  0.00    -0.313 OA
ATOM     12  C   UNL     1      81.210  89.636  89.243  1.00  0.00     0.170 C 
ATOM     13  C   UNL     1      79.670  90.643  91.014  1.00  0.00     0.049 C 
ATOM     14  C   UNL     1      80.934  91.592  92.986  1.00  0.00     0.011 C 
ATOM     15  C   UNL     1      80.310  89.364  90.472  1.00  0.00     0.122 C 
BRANCH   7  16
ATOM     16  C   UNL     1      83.523  88.237  91.580  1.00  0.00     0.135 C 
BRANCH  16  17
ATOM     17  C   UNL     1      83.287  88.059  93.059  1.00  0.00    -0.040 A 
ATOM     18  C   UNL     1      82.548  86.971  93.521  1.00  0.00     0.004 A 
ATOM     19  C   UNL     1      83.809  88.983  93.964  1.00  0.00     0.004 A 
ATOM     20  C   UNL     1      82.330  86.805  94.890  1.00  0.00     0.000 A 
ATOM     21  C   UNL     1      83.592  88.817  95.332  1.00  0.00     0.000 A 
ATOM     22  C   UNL     1      82.853  87.729  95.794  1.00  0.00     0.000 A 
ENDBRANCH  16  17
ENDBRANCH   7  16
BRANCH  15  23
ATOM     23  C   UNL     1      79.307  88.288  90.207  1.00  0.00    -0.046 C 
ATOM     24  C   UNL     1      77.946  88.490  90.804  1.00  0.00     0.042 C 
ATOM     25  C   UNL     1      79.607  87.204  89.476  1.00  0.00     0.010 C 
ENDBRANCH  15  23
ENDBRANCH   3   4
BRANCH   2  26
ATOM     26  C   UNL     1      83.198  93.797  88.178  1.00  0.00     0.078 C 
BRANCH  26  27
ATOM     27  C   UNL     1      82.529  93.940  89.543  1.00  0.00     0.140 C 
ATOM     28  C   UNL     1      82.973  92.840  90.529  1.00  0.00     0.086 CG0
ATOM     29  C   UNL     1      82.944  95.207  90.262  1.00  0.00     0.190 C 
ATOM     30  C   UNL     1      83.264  93.599  91.793  1.00  0.00    -0.010 C 
ATOM     31  G   UNL     1      82.073  91.571  90.591  1.00  0.00     0.000 G0
ATOM     32  O   UNL     1      82.954  96.327  89.773  1.00  0.00    -0.291 OA
ATOM     33  C   UNL     1      83.283  94.930  91.670  1.00  0.00    -0.008 C 
ATOM     34  C   UNL     1      83.609  95.973  92.665  1.00  0.00     0.048 C 
BRANCH  27  35
ATOM     35  O   UNL     1      81.122  94.066  89.420  1.00  0.00    -0.381 OA
ATOM     36  H   UNL     1      80.849  94.890  89.858  1.00  0.00     0.212 HD
ENDBRANCH  27  35
ENDBRANCH  26  27
ENDBRANCH   2  26
ENDBRANCH   1   2
BRANCH   1  37
ATOM     37  O   UNL     1      85.137  91.280  86.587  1.00  0.00    -0.461 OA
BRANCH  37  38
ATOM     38  C   UNL     1      85.237  90.351  85.577  1.00  0.00     0.310 C 
ATOM     39  O   UNL     1      86.189  89.604  85.402  1.00  0.00    -0.252 OA
BRANCH  38  40
ATOM     40  C   UNL     1      83.993  90.399  84.724  1.00  0.00     0.158 C 
BRANCH  40  41
ATOM     41  C   UNL     1      82.976  89.356  85.107  1.00  0.00    -0.037 A 
ATOM     42  C   UNL     1      81.627  89.553  84.810  1.00  0.00     0.008 A 
ATOM     43  C   UNL     1      83.382  88.192  85.760  1.00  0.00     0.008 A 
ATOM     44  C   UNL     1      80.685  88.587  85.166  1.00  0.00     0.046 A 
ATOM     45  C   UNL     1      82.441  87.226  86.115  1.00  0.00     0.046 A 
ATOM     46  C   UNL     1      81.093  87.423  85.819  1.00  0.00     0.115 A 
BRANCH  46  47
ATOM     47  O   UNL     1      80.174  86.482  86.166  1.00  0.00    -0.508 OA
ATOM     48  H   UNL     1      80.635  85.647  86.361  1.00  0.00     0.293 HD
ENDBRANCH  46  47
ENDBRANCH  40  41
ENDBRANCH  38  40
ENDBRANCH  37  38
ENDBRANCH   1  37
TORSDOF 10
ENDMDL
MODEL 10
REMARK VINA RESULT:    -5.700     18.315     23.763
REMARK INTER + INTRA:         -11.220
REMARK INTER:                 -10.799
REMARK INTRA:                  -0.421
REMARK UNBOUND:                -1.521
REMARK SMILES C=C(C)[C@]12C[C@@H](C)[C@@]34O[C@](Cc5ccccc5)(O[C@@H]1[C@@H]3C=C(COC(=O)Cc1ccc(O)cc1)C[C@]1(O)C(=O)C(C)=C[C@@H]41)O2
REMARK SMILES IDX 23 1 22 2 21 3 20 4 9 5 8 6 10 7 6 8 18 10 44 11 19 12 5 13
REMARK SMILES IDX 7 14 4 15 11 16 12 17 13 18 17 19 14 20 16 21 15 22 2 23
REMARK SMILES IDX 3 24 1 25 35 26 36 27 43 28 38 29 42 30 39 32 40 33 41 34
REMARK SMILES IDX 37 35 24 37 25 38 26 39 27 40 28 41 29 42 34 43 30 44 33 45
REMARK SMILES IDX 31 46 32 47
REMARK H PARENT 37 36 32 48
REMARK Flexibility Score: 90.00
ROOT
ATOM      1  C   UNL     1     101.038  96.089  77.327  1.00  0.00     0.264 C 
ENDROOT
BRANCH   1   2
ATOM      2  C   UNL     1      99.641  96.523  76.947  1.00  0.00    -0.033 C 
ATOM      3  C   UNL     1      99.439  97.125  75.757  1.00  0.00    -0.015 C 
BRANCH   3   4
ATOM      4  C   UNL     1      98.163  97.715  75.178  1.00  0.00     0.078 C 
ATOM      5  O   UNL     1      97.090  95.936  73.837  1.00  0.00    -0.319 OA
ATOM      6  C   UNL     1      96.910  96.777  75.019  1.00  0.00     0.095 CG0
ATOM      7  C   UNL     1      97.620  96.607  72.678  1.00  0.00     0.289 C 
ATOM      8  C   UNL     1      95.641  97.704  74.813  1.00  0.00     0.023 C 
ATOM      9  G   UNL     1      96.818  95.771  76.202  1.00  0.00     0.000 G0
ATOM     10  O   UNL     1      98.878  97.213  72.962  1.00  0.00    -0.320 OA
ATOM     11  O   UNL     1      96.776  97.664  72.230  1.00  0.00    -0.313 OA
ATOM     12  C   UNL     1      98.448  98.314  73.779  1.00  0.00     0.170 C 
ATOM     13  C   UNL     1      96.003  99.006  74.036  1.00  0.00     0.049 C 
ATOM     14  C   UNL     1      94.432  97.030  74.143  1.00  0.00     0.011 C 
ATOM     15  C   UNL     1      97.159  98.780  73.060  1.00  0.00     0.122 C 
BRANCH   7  16
ATOM     16  C   UNL     1      97.782  95.585  71.570  1.00  0.00     0.135 C 
BRANCH  16  17
ATOM     17  C   UNL     1      98.019  96.235  70.230  1.00  0.00    -0.040 A 
ATOM     18  C   UNL     1      99.300  96.657  69.876  1.00  0.00     0.004 A 
ATOM     19  C   UNL     1      96.956  96.415  69.345  1.00  0.00     0.004 A 
ATOM     20  C   UNL     1      99.520  97.258  68.636  1.00  0.00     0.000 A 
ATOM     21  C   UNL     1      97.176  97.016  68.105  1.00  0.00     0.000 A 
ATOM     22  C   UNL     1      98.457  97.437  67.752  1.00  0.00     0.000 A 
ENDBRANCH  16  17
ENDBRANCH   7  16
BRANCH  15  23
ATOM     23  C   UNL     1      97.403  99.960  72.177  1.00  0.00    -0.046 C 
ATOM     24  C   UNL     1      97.298 101.307  72.829  1.00  0.00     0.042 C 
ATOM     25  C   UNL     1      97.700  99.824  70.876  1.00  0.00     0.010 C 
ENDBRANCH  15  23
ENDBRANCH   3   4
BRANCH   2  26
ATOM     26  C   UNL     1      98.607  96.197  78.008  1.00  0.00     0.078 C 
BRANCH  26  27
ATOM     27  C   UNL     1      97.138  96.362  77.624  1.00  0.00     0.140 C 
ATOM     28  C   UNL     1      96.832  95.790  76.225  1.00  0.00     0.086 CG0
ATOM     29  C   UNL     1      96.212  95.558  78.513  1.00  0.00     0.190 C 
ATOM     30  C   UNL     1      95.571  94.999  76.437  1.00  0.00    -0.010 C 
ATOM     31  G   UNL     1      96.911  96.796  75.040  1.00  0.00     0.000 G0
ATOM     32  O   UNL     1      96.241  95.543  79.735  1.00  0.00    -0.291 OA
ATOM     33  C   UNL     1      95.211  94.828  77.713  1.00  0.00    -0.008 C 
ATOM     34  C   UNL     1      94.095  94.051  78.291  1.00  0.00     0.048 C 
BRANCH  27  35
ATOM     35  O   UNL     1      96.702  97.699  77.804  1.00  0.00    -0.381 OA
ATOM     36  H   UNL     1      96.840  97.944  78.734  1.00  0.00     0.212 HD
ENDBRANCH  27  35
ENDBRANCH  26  27
ENDBRANCH   2  26
ENDBRANCH   1   2
BRANCH   1  37
ATOM     37  O   UNL     1     101.445  96.789  78.484  1.00  0.00    -0.461 OA
BRANCH  37  38
ATOM     38  C   UNL     1     101.824  96.019  79.559  1.00  0.00     0.310 C 
ATOM     39  O   UNL     1     101.064  95.583  80.412  1.00  0.00    -0.252 OA
BRANCH  38  40
ATOM     40  C   UNL     1     103.317  95.798  79.519  1.00  0.00     0.158 C 
BRANCH  40  41
ATOM     41  C   UNL     1     103.692  94.374  79.198  1.00  0.00    -0.037 A 
ATOM     42  C   UNL     1     102.731  93.365  79.275  1.00  0.00     0.008 A 
ATOM     43  C   UNL     1     104.999  94.065  78.823  1.00  0.00     0.008 A 
ATOM     44  C   UNL     1     103.079  92.047  78.978  1.00  0.00     0.046 A 
ATOM     45  C   UNL     1     105.346  92.747  78.525  1.00  0.00     0.046 A 
ATOM     46  C   UNL     1     104.387  91.738  78.603  1.00  0.00     0.115 A 
BRANCH  46  47
ATOM     47  O   UNL     1     104.725  90.452  78.314  1.00  0.00    -0.508 OA
ATOM     48  H   UNL     1     105.381  90.145  78.964  1.00  0.00     0.293 HD
ENDBRANCH  46  47
ENDBRANCH  40  41
ENDBRANCH  38  40
ENDBRANCH  37  38
ENDBRANCH   1  37
TORSDOF 10
ENDMDL
