MODEL 1
REMARK VINA RESULT:    -6.699      0.000      0.000
REMARK INTER + INTRA:         -12.254
REMARK INTER:                 -11.006
REMARK INTRA:                  -1.248
REMARK UNBOUND:                -1.248
REMARK SMILES CCCCC[C@H](O)CC(=O)CCc1ccc(O)c(OC)c1
REMARK SMILES IDX 8 1 6 2 7 3 5 5 4 6 3 7 2 8 1 9 9 10 10 11 11 12 12 13 13 14
REMARK SMILES IDX 21 15 14 16 18 17 15 18 16 19 19 20 20 21 17 22
REMARK H PARENT 7 4 17 23
REMARK Flexibility Score: inf
ROOT
ATOM      1  C   UNL     1      92.600  93.761  74.903  1.00  0.00     0.107 C 
ENDROOT
BRANCH   1   2
ATOM      2  C   UNL     1      91.796  93.003  73.843  1.00  0.00     0.121 C 
BRANCH   2   3
ATOM      3  O   UNL     1      92.142  91.620  73.871  1.00  0.00    -0.393 OA
ATOM      4  H   UNL     1      92.622  91.417  73.049  1.00  0.00     0.210 HD
ENDBRANCH   2   3
BRANCH   2   5
ATOM      5  C   UNL     1      90.280  93.148  74.022  1.00  0.00     0.032 C 
BRANCH   5   6
ATOM      6  C   UNL     1      89.506  92.682  72.783  1.00  0.00     0.003 C 
BRANCH   6   7
ATOM      7  C   UNL     1      88.663  91.427  73.032  1.00  0.00    -0.000 C 
BRANCH   7   8
ATOM      8  C   UNL     1      89.245  90.163  72.401  1.00  0.00    -0.003 C 
ATOM      9  C   UNL     1      89.970  90.476  71.101  1.00  0.00     0.004 C 
ENDBRANCH   7   8
ENDBRANCH   6   7
ENDBRANCH   5   6
ENDBRANCH   2   5
ENDBRANCH   1   2
BRANCH   1  10
ATOM     10  C   UNL     1      91.791  94.078  76.150  1.00  0.00     0.135 C 
ATOM     11  O   UNL     1      91.184  95.144  76.256  1.00  0.00    -0.300 OA
BRANCH  10  12
ATOM     12  C   UNL     1      91.738  93.000  77.221  1.00  0.00     0.080 C 
BRANCH  12  13
ATOM     13  C   UNL     1      90.319  92.553  77.575  1.00  0.00     0.043 C 
BRANCH  13  14
ATOM     14  C   UNL     1      90.176  91.053  77.666  1.00  0.00    -0.044 A 
ATOM     15  C   UNL     1      90.200  90.277  76.507  1.00  0.00     0.054 A 
ATOM     16  C   UNL     1      90.021  90.442  78.911  1.00  0.00     0.008 A 
ATOM     17  C   UNL     1      90.069  88.891  76.593  1.00  0.00     0.160 A 
ATOM     18  C   UNL     1      89.891  89.056  78.997  1.00  0.00     0.050 A 
ATOM     19  C   UNL     1      89.914  88.280  77.838  1.00  0.00     0.157 A 
BRANCH  17  20
ATOM     20  O   UNL     1      90.092  88.145  75.454  1.00  0.00    -0.493 OA
ATOM     21  C   UNL     1      91.341  88.042  74.772  1.00  0.00     0.278 C 
ENDBRANCH  17  20
BRANCH  19  22
ATOM     22  O   UNL     1      89.785  86.928  77.934  1.00  0.00    -0.504 OA
ATOM     23  H   UNL     1      89.412  86.706  78.804  1.00  0.00     0.293 HD
ENDBRANCH  19  22
ENDBRANCH  13  14
ENDBRANCH  12  13
ENDBRANCH  10  12
ENDBRANCH   1  10
TORSDOF 12
ENDMDL
MODEL 2
REMARK VINA RESULT:    -5.987     11.761     15.243
REMARK INTER + INTRA:         -11.085
REMARK INTER:                  -9.378
REMARK INTRA:                  -1.707
REMARK UNBOUND:                -1.248
REMARK SMILES CCCCC[C@H](O)CC(=O)CCc1ccc(O)c(OC)c1
REMARK SMILES IDX 8 1 6 2 7 3 5 5 4 6 3 7 2 8 1 9 9 10 10 11 11 12 12 13 13 14
REMARK SMILES IDX 21 15 14 16 18 17 15 18 16 19 19 20 20 21 17 22
REMARK H PARENT 7 4 17 23
REMARK Flexibility Score: inf
ROOT
ATOM      1  C   UNL     1      81.246  86.602  84.285  1.00  0.00     0.107 C 
ENDROOT
BRANCH   1   2
ATOM      2  C   UNL     1      80.777  86.152  85.671  1.00  0.00     0.121 C 
BRANCH   2   3
ATOM      3  O   UNL     1      79.964  84.987  85.551  1.00  0.00    -0.393 OA
ATOM      4  H   UNL     1      79.430  85.079  84.743  1.00  0.00     0.210 HD
ENDBRANCH   2   3
BRANCH   2   5
ATOM      5  C   UNL     1      81.936  85.863  86.633  1.00  0.00     0.032 C 
BRANCH   5   6
ATOM      6  C   UNL     1      81.547  86.112  88.095  1.00  0.00     0.003 C 
BRANCH   6   7
ATOM      7  C   UNL     1      80.260  86.928  88.250  1.00  0.00    -0.000 C 
BRANCH   7   8
ATOM      8  C   UNL     1      80.081  87.530  89.643  1.00  0.00    -0.003 C 
ATOM      9  C   UNL     1      78.618  87.829  89.934  1.00  0.00     0.004 C 
ENDBRANCH   7   8
ENDBRANCH   6   7
ENDBRANCH   5   6
ENDBRANCH   2   5
ENDBRANCH   1   2
BRANCH   1  10
ATOM     10  C   UNL     1      80.233  87.481  83.569  1.00  0.00     0.135 C 
ATOM     11  O   UNL     1      79.787  87.163  82.467  1.00  0.00    -0.300 OA
BRANCH  10  12
ATOM     12  C   UNL     1      79.776  88.732  84.303  1.00  0.00     0.080 C 
BRANCH  12  13
ATOM     13  C   UNL     1      80.800  89.868  84.279  1.00  0.00     0.043 C 
BRANCH  13  14
ATOM     14  C   UNL     1      81.607  89.964  85.552  1.00  0.00    -0.044 A 
ATOM     15  C   UNL     1      82.987  89.763  85.520  1.00  0.00     0.054 A 
ATOM     16  C   UNL     1      80.972  90.254  86.760  1.00  0.00     0.008 A 
ATOM     17  C   UNL     1      83.732  89.853  86.696  1.00  0.00     0.160 A 
ATOM     18  C   UNL     1      81.717  90.344  87.936  1.00  0.00     0.050 A 
ATOM     19  C   UNL     1      83.097  90.143  87.904  1.00  0.00     0.157 A 
BRANCH  17  20
ATOM     20  O   UNL     1      85.079  89.654  86.653  1.00  0.00    -0.493 OA
ATOM     21  C   UNL     1      85.780  90.203  85.539  1.00  0.00     0.278 C 
ENDBRANCH  17  20
BRANCH  19  22
ATOM     22  O   UNL     1      83.813  90.233  89.059  1.00  0.00    -0.504 OA
ATOM     23  H   UNL     1      84.747  90.396  88.841  1.00  0.00     0.293 HD
ENDBRANCH  19  22
ENDBRANCH  13  14
ENDBRANCH  12  13
ENDBRANCH  10  12
ENDBRANCH   1  10
TORSDOF 12
ENDMDL
MODEL 3
REMARK VINA RESULT:    -5.922     12.371     14.784
REMARK INTER + INTRA:         -10.978
REMARK INTER:                  -9.336
REMARK INTRA:                  -1.642
REMARK UNBOUND:                -1.248
REMARK SMILES CCCCC[C@H](O)CC(=O)CCc1ccc(O)c(OC)c1
REMARK SMILES IDX 8 1 6 2 7 3 5 5 4 6 3 7 2 8 1 9 9 10 10 11 11 12 12 13 13 14
REMARK SMILES IDX 21 15 14 16 18 17 15 18 16 19 19 20 20 21 17 22
REMARK H PARENT 7 4 17 23
REMARK Flexibility Score: inf
ROOT
ATOM      1  C   UNL     1      83.203  91.405  87.807  1.00  0.00     0.107 C 
ENDROOT
BRANCH   1   2
ATOM      2  C   UNL     1      83.889  90.497  88.830  1.00  0.00     0.121 C 
BRANCH   2   3
ATOM      3  O   UNL     1      84.345  91.273  89.936  1.00  0.00    -0.393 OA
ATOM      4  H   UNL     1      85.258  91.002  90.134  1.00  0.00     0.210 HD
ENDBRANCH   2   3
BRANCH   2   5
ATOM      5  C   UNL     1      82.979  89.374  89.343  1.00  0.00     0.032 C 
BRANCH   5   6
ATOM      6  C   UNL     1      81.875  89.023  88.337  1.00  0.00     0.003 C 
BRANCH   6   7
ATOM      7  C   UNL     1      80.493  88.876  88.982  1.00  0.00    -0.000 C 
BRANCH   7   8
ATOM      8  C   UNL     1      79.730  87.637  88.517  1.00  0.00    -0.003 C 
ATOM      9  C   UNL     1      79.601  86.613  89.634  1.00  0.00     0.004 C 
ENDBRANCH   7   8
ENDBRANCH   6   7
ENDBRANCH   5   6
ENDBRANCH   2   5
ENDBRANCH   1   2
BRANCH   1  10
ATOM     10  C   UNL     1      83.969  91.513  86.499  1.00  0.00     0.135 C 
ATOM     11  O   UNL     1      84.672  92.494  86.256  1.00  0.00    -0.300 OA
BRANCH  10  12
ATOM     12  C   UNL     1      83.855  90.336  85.542  1.00  0.00     0.080 C 
BRANCH  12  13
ATOM     13  C   UNL     1      82.660  90.431  84.591  1.00  0.00     0.043 C 
BRANCH  13  14
ATOM     14  C   UNL     1      81.755  89.224  84.657  1.00  0.00    -0.044 A 
ATOM     15  C   UNL     1      82.288  87.966  84.940  1.00  0.00     0.054 A 
ATOM     16  C   UNL     1      80.385  89.367  84.435  1.00  0.00     0.008 A 
ATOM     17  C   UNL     1      81.450  86.852  85.002  1.00  0.00     0.160 A 
ATOM     18  C   UNL     1      79.547  88.253  84.497  1.00  0.00     0.050 A 
ATOM     19  C   UNL     1      80.080  86.996  84.779  1.00  0.00     0.157 A 
BRANCH  17  20
ATOM     20  O   UNL     1      81.982  85.629  85.278  1.00  0.00    -0.493 OA
ATOM     21  C   UNL     1      82.412  85.397  86.618  1.00  0.00     0.278 C 
ENDBRANCH  17  20
BRANCH  19  22
ATOM     22  O   UNL     1      79.253  85.915  84.837  1.00  0.00    -0.504 OA
ATOM     23  H   UNL     1      78.586  85.989  84.133  1.00  0.00     0.293 HD
ENDBRANCH  19  22
ENDBRANCH  13  14
ENDBRANCH  12  13
ENDBRANCH  10  12
ENDBRANCH   1  10
TORSDOF 12
ENDMDL
MODEL 4
REMARK VINA RESULT:    -5.865     13.334     15.755
REMARK INTER + INTRA:         -10.884
REMARK INTER:                  -9.295
REMARK INTRA:                  -1.589
REMARK UNBOUND:                -1.248
REMARK SMILES CCCCC[C@H](O)CC(=O)CCc1ccc(O)c(OC)c1
REMARK SMILES IDX 8 1 6 2 7 3 5 5 4 6 3 7 2 8 1 9 9 10 10 11 11 12 12 13 13 14
REMARK SMILES IDX 21 15 14 16 18 17 15 18 16 19 19 20 20 21 17 22
REMARK H PARENT 7 4 17 23
REMARK Flexibility Score: inf
ROOT
ATOM      1  C   UNL     1      80.371  85.813  85.893  1.00  0.00     0.107 C 
ENDROOT
BRANCH   1   2
ATOM      2  C   UNL     1      81.261  86.020  84.664  1.00  0.00     0.121 C 
BRANCH   2   3
ATOM      3  O   UNL     1      81.882  84.788  84.305  1.00  0.00    -0.393 OA
ATOM      4  H   UNL     1      81.181  84.121  84.200  1.00  0.00     0.210 HD
ENDBRANCH   2   3
BRANCH   2   5
ATOM      5  C   UNL     1      80.496  86.572  83.455  1.00  0.00     0.032 C 
BRANCH   5   6
ATOM      6  C   UNL     1      80.196  88.069  83.598  1.00  0.00     0.003 C 
BRANCH   6   7
ATOM      7  C   UNL     1      81.347  88.862  84.226  1.00  0.00    -0.000 C 
BRANCH   7   8
ATOM      8  C   UNL     1      80.941  90.254  84.704  1.00  0.00    -0.003 C 
ATOM      9  C   UNL     1      79.481  90.291  85.129  1.00  0.00     0.004 C 
ENDBRANCH   7   8
ENDBRANCH   6   7
ENDBRANCH   5   6
ENDBRANCH   2   5
ENDBRANCH   1   2
BRANCH   1  10
ATOM     10  C   UNL     1      81.130  85.928  87.204  1.00  0.00     0.135 C 
ATOM     11  O   UNL     1      82.238  85.410  87.342  1.00  0.00    -0.300 OA
BRANCH  10  12
ATOM     12  C   UNL     1      80.472  86.747  88.304  1.00  0.00     0.080 C 
BRANCH  12  13
ATOM     13  C   UNL     1      80.375  88.240  87.986  1.00  0.00     0.043 C 
BRANCH  13  14
ATOM     14  C   UNL     1      81.470  89.055  88.631  1.00  0.00    -0.044 A 
ATOM     15  C   UNL     1      82.118  88.577  89.770  1.00  0.00     0.054 A 
ATOM     16  C   UNL     1      81.835  90.287  88.086  1.00  0.00     0.008 A 
ATOM     17  C   UNL     1      83.130  89.330  90.364  1.00  0.00     0.160 A 
ATOM     18  C   UNL     1      82.847  91.040  88.681  1.00  0.00     0.050 A 
ATOM     19  C   UNL     1      83.495  90.562  89.820  1.00  0.00     0.157 A 
BRANCH  17  20
ATOM     20  O   UNL     1      83.755  88.853  91.477  1.00  0.00    -0.493 OA
ATOM     21  C   UNL     1      83.158  89.158  92.736  1.00  0.00     0.278 C 
ENDBRANCH  17  20
BRANCH  19  22
ATOM     22  O   UNL     1      84.482  91.306  90.391  1.00  0.00    -0.504 OA
ATOM     23  H   UNL     1      84.132  92.190  90.599  1.00  0.00     0.293 HD
ENDBRANCH  19  22
ENDBRANCH  13  14
ENDBRANCH  12  13
ENDBRANCH  10  12
ENDBRANCH   1  10
TORSDOF 12
ENDMDL
MODEL 5
REMARK VINA RESULT:    -5.855     11.632     14.743
REMARK INTER + INTRA:         -10.868
REMARK INTER:                  -9.051
REMARK INTRA:                  -1.818
REMARK UNBOUND:                -1.248
REMARK SMILES CCCCC[C@H](O)CC(=O)CCc1ccc(O)c(OC)c1
REMARK SMILES IDX 8 1 6 2 7 3 5 5 4 6 3 7 2 8 1 9 9 10 10 11 11 12 12 13 13 14
REMARK SMILES IDX 21 15 14 16 18 17 15 18 16 19 19 20 20 21 17 22
REMARK H PARENT 7 4 17 23
REMARK Flexibility Score: inf
ROOT
ATOM      1  C   UNL     1      81.069  90.297  88.627  1.00  0.00     0.107 C 
ENDROOT
BRANCH   1   2
ATOM      2  C   UNL     1      82.264  90.353  87.672  1.00  0.00     0.121 C 
BRANCH   2   3
ATOM      3  O   UNL     1      83.198  89.329  88.005  1.00  0.00    -0.393 OA
ATOM      4  H   UNL     1      82.709  88.614  88.449  1.00  0.00     0.210 HD
ENDBRANCH   2   3
BRANCH   2   5
ATOM      5  C   UNL     1      81.861  90.211  86.199  1.00  0.00     0.032 C 
BRANCH   5   6
ATOM      6  C   UNL     1      83.005  89.657  85.340  1.00  0.00     0.003 C 
BRANCH   6   7
ATOM      7  C   UNL     1      83.800  90.746  84.613  1.00  0.00    -0.000 C 
BRANCH   7   8
ATOM      8  C   UNL     1      85.313  90.587  84.739  1.00  0.00    -0.003 C 
ATOM      9  C   UNL     1      85.779  90.825  86.167  1.00  0.00     0.004 C 
ENDBRANCH   7   8
ENDBRANCH   6   7
ENDBRANCH   5   6
ENDBRANCH   2   5
ENDBRANCH   1   2
BRANCH   1  10
ATOM     10  C   UNL     1      81.253  89.292  89.753  1.00  0.00     0.135 C 
ATOM     11  O   UNL     1      81.990  89.540  90.708  1.00  0.00    -0.300 OA
BRANCH  10  12
ATOM     12  C   UNL     1      80.452  88.003  89.654  1.00  0.00     0.080 C 
BRANCH  12  13
ATOM     13  C   UNL     1      79.807  87.783  88.285  1.00  0.00     0.043 C 
BRANCH  13  14
ATOM     14  C   UNL     1      80.643  86.922  87.368  1.00  0.00    -0.044 A 
ATOM     15  C   UNL     1      80.422  86.950  85.991  1.00  0.00     0.054 A 
ATOM     16  C   UNL     1      81.636  86.098  87.899  1.00  0.00     0.008 A 
ATOM     17  C   UNL     1      81.195  86.154  85.145  1.00  0.00     0.160 A 
ATOM     18  C   UNL     1      82.409  85.302  87.054  1.00  0.00     0.050 A 
ATOM     19  C   UNL     1      82.188  85.330  85.677  1.00  0.00     0.157 A 
BRANCH  17  20
ATOM     20  O   UNL     1      80.970  86.189  83.802  1.00  0.00    -0.493 OA
ATOM     21  C   UNL     1      80.086  87.199  83.319  1.00  0.00     0.278 C 
ENDBRANCH  17  20
BRANCH  19  22
ATOM     22  O   UNL     1      82.949  84.549  84.861  1.00  0.00    -0.504 OA
ATOM     23  H   UNL     1      82.575  83.652  84.842  1.00  0.00     0.293 HD
ENDBRANCH  19  22
ENDBRANCH  13  14
ENDBRANCH  12  13
ENDBRANCH  10  12
ENDBRANCH   1  10
TORSDOF 12
ENDMDL
MODEL 6
REMARK VINA RESULT:    -5.434     13.449     16.489
REMARK INTER + INTRA:         -10.176
REMARK INTER:                  -8.382
REMARK INTRA:                  -1.793
REMARK UNBOUND:                -1.248
REMARK SMILES CCCCC[C@H](O)CC(=O)CCc1ccc(O)c(OC)c1
REMARK SMILES IDX 8 1 6 2 7 3 5 5 4 6 3 7 2 8 1 9 9 10 10 11 11 12 12 13 13 14
REMARK SMILES IDX 21 15 14 16 18 17 15 18 16 19 19 20 20 21 17 22
REMARK H PARENT 7 4 17 23
REMARK Flexibility Score: inf
ROOT
ATOM      1  C   UNL     1      80.517  85.818  85.025  1.00  0.00     0.107 C 
ENDROOT
BRANCH   1   2
ATOM      2  C   UNL     1      80.660  86.609  83.722  1.00  0.00     0.121 C 
BRANCH   2   3
ATOM      3  O   UNL     1      79.436  86.568  82.994  1.00  0.00    -0.393 OA
ATOM      4  H   UNL     1      78.875  85.880  83.393  1.00  0.00     0.210 HD
ENDBRANCH   2   3
BRANCH   2   5
ATOM      5  C   UNL     1      81.063  88.071  83.950  1.00  0.00     0.032 C 
BRANCH   5   6
ATOM      6  C   UNL     1      79.920  88.897  84.552  1.00  0.00     0.003 C 
BRANCH   6   7
ATOM      7  C   UNL     1      80.364  89.794  85.712  1.00  0.00    -0.000 C 
BRANCH   7   8
ATOM      8  C   UNL     1      81.879  89.833  85.909  1.00  0.00    -0.003 C 
ATOM      9  C   UNL     1      82.267  90.787  87.028  1.00  0.00     0.004 C 
ENDBRANCH   7   8
ENDBRANCH   6   7
ENDBRANCH   5   6
ENDBRANCH   2   5
ENDBRANCH   1   2
BRANCH   1  10
ATOM     10  C   UNL     1      81.758  85.881  85.900  1.00  0.00     0.135 C 
ATOM     11  O   UNL     1      82.862  85.568  85.456  1.00  0.00    -0.300 OA
BRANCH  10  12
ATOM     12  C   UNL     1      81.565  86.389  87.321  1.00  0.00     0.080 C 
BRANCH  12  13
ATOM     13  C   UNL     1      80.108  86.700  87.671  1.00  0.00     0.043 C 
BRANCH  13  14
ATOM     14  C   UNL     1      79.948  87.326  89.035  1.00  0.00    -0.044 A 
ATOM     15  C   UNL     1      80.299  88.661  89.236  1.00  0.00     0.054 A 
ATOM     16  C   UNL     1      79.448  86.569  90.095  1.00  0.00     0.008 A 
ATOM     17  C   UNL     1      80.150  89.239  90.497  1.00  0.00     0.160 A 
ATOM     18  C   UNL     1      79.298  87.147  91.356  1.00  0.00     0.050 A 
ATOM     19  C   UNL     1      79.650  88.482  91.557  1.00  0.00     0.157 A 
BRANCH  17  20
ATOM     20  O   UNL     1      80.497  90.543  90.681  1.00  0.00    -0.493 OA
ATOM     21  C   UNL     1      81.888  90.833  90.800  1.00  0.00     0.278 C 
ENDBRANCH  17  20
BRANCH  19  22
ATOM     22  O   UNL     1      79.500  89.035  92.792  1.00  0.00    -0.504 OA
ATOM     23  H   UNL     1      79.532  90.004  92.712  1.00  0.00     0.293 HD
ENDBRANCH  19  22
ENDBRANCH  13  14
ENDBRANCH  12  13
ENDBRANCH  10  12
ENDBRANCH   1  10
TORSDOF 12
ENDMDL
MODEL 7
REMARK VINA RESULT:    -5.363      3.795      6.614
REMARK INTER + INTRA:         -10.059
REMARK INTER:                  -9.244
REMARK INTRA:                  -0.815
REMARK UNBOUND:                -1.248
REMARK SMILES CCCCC[C@H](O)CC(=O)CCc1ccc(O)c(OC)c1
REMARK SMILES IDX 8 1 6 2 7 3 5 5 4 6 3 7 2 8 1 9 9 10 10 11 11 12 12 13 13 14
REMARK SMILES IDX 21 15 14 16 18 17 15 18 16 19 19 20 20 21 17 22
REMARK H PARENT 7 4 17 23
REMARK Flexibility Score: inf
ROOT
ATOM      1  C   UNL     1      90.798  92.946  75.545  1.00  0.00     0.107 C 
ENDROOT
BRANCH   1   2
ATOM      2  C   UNL     1      90.113  91.930  76.463  1.00  0.00     0.121 C 
BRANCH   2   3
ATOM      3  O   UNL     1      89.753  92.556  77.693  1.00  0.00    -0.393 OA
ATOM      4  H   UNL     1      89.655  93.509  77.524  1.00  0.00     0.210 HD
ENDBRANCH   2   3
BRANCH   2   5
ATOM      5  C   UNL     1      88.865  91.299  75.834  1.00  0.00     0.032 C 
BRANCH   5   6
ATOM      6  C   UNL     1      89.109  89.847  75.402  1.00  0.00     0.003 C 
BRANCH   6   7
ATOM      7  C   UNL     1      90.108  89.108  76.298  1.00  0.00    -0.000 C 
BRANCH   7   8
ATOM      8  C   UNL     1      91.262  88.467  75.530  1.00  0.00    -0.003 C 
ATOM      9  C   UNL     1      90.816  87.204  74.810  1.00  0.00     0.004 C 
ENDBRANCH   7   8
ENDBRANCH   6   7
ENDBRANCH   5   6
ENDBRANCH   2   5
ENDBRANCH   1   2
BRANCH   1  10
ATOM     10  C   UNL     1      91.713  93.902  76.293  1.00  0.00     0.135 C 
ATOM     11  O   UNL     1      91.382  95.072  76.487  1.00  0.00    -0.300 OA
BRANCH  10  12
ATOM     12  C   UNL     1      93.019  93.327  76.819  1.00  0.00     0.080 C 
BRANCH  12  13
ATOM     13  C   UNL     1      94.259  94.096  76.360  1.00  0.00     0.043 C 
BRANCH  13  14
ATOM     14  C   UNL     1      95.015  94.734  77.501  1.00  0.00    -0.044 A 
ATOM     15  C   UNL     1      94.661  94.448  78.820  1.00  0.00     0.054 A 
ATOM     16  C   UNL     1      96.069  95.609  77.236  1.00  0.00     0.008 A 
ATOM     17  C   UNL     1      95.361  95.037  79.873  1.00  0.00     0.160 A 
ATOM     18  C   UNL     1      96.769  96.198  78.289  1.00  0.00     0.050 A 
ATOM     19  C   UNL     1      96.414  95.912  79.607  1.00  0.00     0.157 A 
BRANCH  17  20
ATOM     20  O   UNL     1      95.006  94.750  81.156  1.00  0.00    -0.493 OA
ATOM     21  C   UNL     1      95.678  93.662  81.787  1.00  0.00     0.278 C 
ENDBRANCH  17  20
BRANCH  19  22
ATOM     22  O   UNL     1      97.105  96.494  80.627  1.00  0.00    -0.504 OA
ATOM     23  H   UNL     1      96.596  97.251  80.963  1.00  0.00     0.293 HD
ENDBRANCH  19  22
ENDBRANCH  13  14
ENDBRANCH  12  13
ENDBRANCH  10  12
ENDBRANCH   1  10
TORSDOF 12
ENDMDL
MODEL 8
REMARK VINA RESULT:    -5.356     24.724     26.992
REMARK INTER + INTRA:         -10.049
REMARK INTER:                  -9.163
REMARK INTRA:                  -0.886
REMARK UNBOUND:                -1.248
REMARK SMILES CCCCC[C@H](O)CC(=O)CCc1ccc(O)c(OC)c1
REMARK SMILES IDX 8 1 6 2 7 3 5 5 4 6 3 7 2 8 1 9 9 10 10 11 11 12 12 13 13 14
REMARK SMILES IDX 21 15 14 16 18 17 15 18 16 19 19 20 20 21 17 22
REMARK H PARENT 7 4 17 23
REMARK Flexibility Score: inf
ROOT
ATOM      1  C   UNL     1      83.224  65.810  75.490  1.00  0.00     0.107 C 
ENDROOT
BRANCH   1   2
ATOM      2  C   UNL     1      81.766  66.180  75.770  1.00  0.00     0.121 C 
BRANCH   2   3
ATOM      3  O   UNL     1      81.705  67.142  76.821  1.00  0.00    -0.393 OA
ATOM      4  H   UNL     1      82.349  66.880  77.501  1.00  0.00     0.210 HD
ENDBRANCH   2   3
BRANCH   2   5
ATOM      5  C   UNL     1      81.039  66.732  74.537  1.00  0.00     0.032 C 
BRANCH   5   6
ATOM      6  C   UNL     1      79.913  65.804  74.068  1.00  0.00     0.003 C 
BRANCH   6   7
ATOM      7  C   UNL     1      80.190  65.153  72.709  1.00  0.00    -0.000 C 
BRANCH   7   8
ATOM      8  C   UNL     1      80.803  66.108  71.687  1.00  0.00    -0.003 C 
ATOM      9  C   UNL     1      79.867  66.335  70.509  1.00  0.00     0.004 C 
ENDBRANCH   7   8
ENDBRANCH   6   7
ENDBRANCH   5   6
ENDBRANCH   2   5
ENDBRANCH   1   2
BRANCH   1  10
ATOM     10  C   UNL     1      83.454  64.309  75.414  1.00  0.00     0.135 C 
ATOM     11  O   UNL     1      82.711  63.588  74.749  1.00  0.00    -0.300 OA
BRANCH  10  12
ATOM     12  C   UNL     1      84.663  63.766  76.161  1.00  0.00     0.080 C 
BRANCH  12  13
ATOM     13  C   UNL     1      84.323  63.162  77.525  1.00  0.00     0.043 C 
BRANCH  13  14
ATOM     14  C   UNL     1      84.979  63.890  78.674  1.00  0.00    -0.044 A 
ATOM     15  C   UNL     1      85.626  65.106  78.452  1.00  0.00     0.054 A 
ATOM     16  C   UNL     1      84.937  63.346  79.958  1.00  0.00     0.008 A 
ATOM     17  C   UNL     1      86.231  65.778  79.514  1.00  0.00     0.160 A 
ATOM     18  C   UNL     1      85.542  64.018  81.021  1.00  0.00     0.050 A 
ATOM     19  C   UNL     1      86.189  65.234  80.798  1.00  0.00     0.157 A 
BRANCH  17  20
ATOM     20  O   UNL     1      86.860  66.964  79.285  1.00  0.00    -0.493 OA
ATOM     21  C   UNL     1      88.199  66.903  78.797  1.00  0.00     0.278 C 
ENDBRANCH  17  20
BRANCH  19  22
ATOM     22  O   UNL     1      86.776  65.881  81.844  1.00  0.00    -0.504 OA
ATOM     23  H   UNL     1      86.467  65.483  82.676  1.00  0.00     0.293 HD
ENDBRANCH  19  22
ENDBRANCH  13  14
ENDBRANCH  12  13
ENDBRANCH  10  12
ENDBRANCH   1  10
TORSDOF 12
ENDMDL
MODEL 9
REMARK VINA RESULT:    -5.295      5.787      8.881
REMARK INTER + INTRA:          -9.947
REMARK INTER:                  -8.598
REMARK INTRA:                  -1.349
REMARK UNBOUND:                -1.248
REMARK SMILES CCCCC[C@H](O)CC(=O)CCc1ccc(O)c(OC)c1
REMARK SMILES IDX 8 1 6 2 7 3 5 5 4 6 3 7 2 8 1 9 9 10 10 11 11 12 12 13 13 14
REMARK SMILES IDX 21 15 14 16 18 17 15 18 16 19 19 20 20 21 17 22
REMARK H PARENT 7 4 17 23
REMARK Flexibility Score: inf
ROOT
ATOM      1  C   UNL     1      96.004  96.283  80.949  1.00  0.00     0.107 C 
ENDROOT
BRANCH   1   2
ATOM      2  C   UNL     1      96.315  97.040  82.243  1.00  0.00     0.121 C 
BRANCH   2   3
ATOM      3  O   UNL     1      96.988  96.178  83.157  1.00  0.00    -0.393 OA
ATOM      4  H   UNL     1      97.601  96.722  83.683  1.00  0.00     0.210 HD
ENDBRANCH   2   3
BRANCH   2   5
ATOM      5  C   UNL     1      97.165  98.296  82.014  1.00  0.00     0.032 C 
BRANCH   5   6
ATOM      6  C   UNL     1      98.093  98.151  80.801  1.00  0.00     0.003 C 
BRANCH   6   7
ATOM      7  C   UNL     1      98.001  99.326  79.823  1.00  0.00    -0.000 C 
BRANCH   7   8
ATOM      8  C   UNL     1      96.966  99.123  78.718  1.00  0.00    -0.003 C 
ATOM      9  C   UNL     1      97.287  97.898  77.876  1.00  0.00     0.004 C 
ENDBRANCH   7   8
ENDBRANCH   6   7
ENDBRANCH   5   6
ENDBRANCH   2   5
ENDBRANCH   1   2
BRANCH   1  10
ATOM     10  C   UNL     1      95.387  94.915  81.193  1.00  0.00     0.135 C 
ATOM     11  O   UNL     1      94.762  94.679  82.226  1.00  0.00    -0.300 OA
BRANCH  10  12
ATOM     12  C   UNL     1      95.547  93.888  80.083  1.00  0.00     0.080 C 
BRANCH  12  13
ATOM     13  C   UNL     1      96.022  94.484  78.757  1.00  0.00     0.043 C 
BRANCH  13  14
ATOM     14  C   UNL     1      95.065  94.227  77.616  1.00  0.00    -0.044 A 
ATOM     15  C   UNL     1      93.698  94.108  77.866  1.00  0.00     0.054 A 
ATOM     16  C   UNL     1      95.550  94.110  76.313  1.00  0.00     0.008 A 
ATOM     17  C   UNL     1      92.816  93.872  76.811  1.00  0.00     0.160 A 
ATOM     18  C   UNL     1      94.667  93.874  75.259  1.00  0.00     0.050 A 
ATOM     19  C   UNL     1      93.300  93.755  75.508  1.00  0.00     0.157 A 
BRANCH  17  20
ATOM     20  O   UNL     1      91.482  93.756  77.067  1.00  0.00    -0.493 OA
ATOM     21  C   UNL     1      91.027  92.507  77.585  1.00  0.00     0.278 C 
ENDBRANCH  17  20
BRANCH  19  22
ATOM     22  O   UNL     1      92.448  93.524  74.471  1.00  0.00    -0.504 OA
ATOM     23  H   UNL     1      92.904  92.988  73.799  1.00  0.00     0.293 HD
ENDBRANCH  19  22
ENDBRANCH  13  14
ENDBRANCH  12  13
ENDBRANCH  10  12
ENDBRANCH   1  10
TORSDOF 12
ENDMDL
MODEL 10
REMARK VINA RESULT:    -5.191     10.768     13.348
REMARK INTER + INTRA:          -9.778
REMARK INTER:                  -8.481
REMARK INTRA:                  -1.296
REMARK UNBOUND:                -1.248
REMARK SMILES CCCCC[C@H](O)CC(=O)CCc1ccc(O)c(OC)c1
REMARK SMILES IDX 8 1 6 2 7 3 5 5 4 6 3 7 2 8 1 9 9 10 10 11 11 12 12 13 13 14
REMARK SMILES IDX 21 15 14 16 18 17 15 18 16 19 19 20 20 21 17 22
REMARK H PARENT 7 4 17 23
REMARK Flexibility Score: inf
ROOT
ATOM      1  C   UNL     1      98.835  83.449  75.340  1.00  0.00     0.107 C 
ENDROOT
BRANCH   1   2
ATOM      2  C   UNL     1      99.612  82.195  74.932  1.00  0.00     0.121 C 
BRANCH   2   3
ATOM      3  O   UNL     1     100.878  82.565  74.391  1.00  0.00    -0.393 OA
ATOM      4  H   UNL     1     101.529  81.900  74.675  1.00  0.00     0.210 HD
ENDBRANCH   2   3
BRANCH   2   5
ATOM      5  C   UNL     1      99.827  81.217  76.094  1.00  0.00     0.032 C 
BRANCH   5   6
ATOM      6  C   UNL     1     101.043  81.596  76.949  1.00  0.00     0.003 C 
BRANCH   6   7
ATOM      7  C   UNL     1     101.831  80.383  77.453  1.00  0.00    -0.000 C 
BRANCH   7   8
ATOM      8  C   UNL     1     102.590  80.643  78.753  1.00  0.00    -0.003 C 
ATOM      9  C   UNL     1     104.035  80.181  78.653  1.00  0.00     0.004 C 
ENDBRANCH   7   8
ENDBRANCH   6   7
ENDBRANCH   5   6
ENDBRANCH   2   5
ENDBRANCH   1   2
BRANCH   1  10
ATOM     10  C   UNL     1      97.444  83.141  75.869  1.00  0.00     0.135 C 
ATOM     11  O   UNL     1      96.634  82.508  75.191  1.00  0.00    -0.300 OA
BRANCH  10  12
ATOM     12  C   UNL     1      97.131  83.614  77.280  1.00  0.00     0.080 C 
BRANCH  12  13
ATOM     13  C   UNL     1      96.588  82.512  78.192  1.00  0.00     0.043 C 
BRANCH  13  14
ATOM     14  C   UNL     1      97.309  82.431  79.517  1.00  0.00    -0.044 A 
ATOM     15  C   UNL     1      96.644  82.769  80.695  1.00  0.00     0.054 A 
ATOM     16  C   UNL     1      98.641  82.017  79.561  1.00  0.00     0.008 A 
ATOM     17  C   UNL     1      97.311  82.693  81.918  1.00  0.00     0.160 A 
ATOM     18  C   UNL     1      99.307  81.941  80.784  1.00  0.00     0.050 A 
ATOM     19  C   UNL     1      98.642  82.279  81.962  1.00  0.00     0.157 A 
BRANCH  17  20
ATOM     20  O   UNL     1      96.651  83.027  83.062  1.00  0.00    -0.493 OA
ATOM     21  C   UNL     1      96.581  84.414  83.389  1.00  0.00     0.278 C 
ENDBRANCH  17  20
BRANCH  19  22
ATOM     22  O   UNL     1      99.304  82.201  83.150  1.00  0.00    -0.504 OA
ATOM     23  H   UNL     1      99.277  81.282  83.468  1.00  0.00     0.293 HD
ENDBRANCH  19  22
ENDBRANCH  13  14
ENDBRANCH  12  13
ENDBRANCH  10  12
ENDBRANCH   1  10
TORSDOF 12
ENDMDL
