MODEL 1
REMARK VINA RESULT:    -6.945      0.000      0.000
REMARK INTER + INTRA:         -13.310
REMARK INTER:                 -11.411
REMARK INTRA:                  -1.899
REMARK UNBOUND:                -1.899
REMARK SMILES CCCCC[C@H](O)CC(=O)CCc1ccc(O)c(OC)c1
REMARK SMILES IDX 8 1 6 2 7 3 5 5 4 6 3 7 2 8 1 9 9 10 10 11 11 12 12 13 13 14
REMARK SMILES IDX 21 15 14 16 18 17 15 18 16 19 19 20 20 21 17 22
REMARK H PARENT 7 4 17 23
REMARK Flexibility Score: inf
ROOT
ATOM      1  C   UNL     1      90.672  92.778  72.995  1.00  0.00     0.107 C 
ENDROOT
BRANCH   1   2
ATOM      2  C   UNL     1      91.629  91.944  73.850  1.00  0.00     0.121 C 
BRANCH   2   3
ATOM      3  O   UNL     1      92.433  91.118  73.010  1.00  0.00    -0.393 OA
ATOM      4  H   UNL     1      92.075  90.214  73.052  1.00  0.00     0.210 HD
ENDBRANCH   2   3
BRANCH   2   5
ATOM      5  C   UNL     1      92.541  92.800  74.738  1.00  0.00     0.032 C 
BRANCH   5   6
ATOM      6  C   UNL     1      92.135  92.732  76.215  1.00  0.00     0.003 C 
BRANCH   6   7
ATOM      7  C   UNL     1      92.164  94.095  76.915  1.00  0.00    -0.000 C 
BRANCH   7   8
ATOM      8  C   UNL     1      91.143  95.088  76.363  1.00  0.00    -0.003 C 
ATOM      9  C   UNL     1      89.756  94.469  76.281  1.00  0.00     0.004 C 
ENDBRANCH   7   8
ENDBRANCH   6   7
ENDBRANCH   5   6
ENDBRANCH   2   5
ENDBRANCH   1   2
BRANCH   1  10
ATOM     10  C   UNL     1      89.834  91.937  72.046  1.00  0.00     0.135 C 
ATOM     11  O   UNL     1      90.347  91.376  71.077  1.00  0.00    -0.300 OA
BRANCH  10  12
ATOM     12  C   UNL     1      88.358  91.793  72.384  1.00  0.00     0.080 C 
BRANCH  12  13
ATOM     13  C   UNL     1      87.986  90.416  72.937  1.00  0.00     0.043 C 
BRANCH  13  14
ATOM     14  C   UNL     1      88.626  90.122  74.273  1.00  0.00    -0.044 A 
ATOM     15  C   UNL     1      89.422  88.987  74.431  1.00  0.00     0.054 A 
ATOM     16  C   UNL     1      88.421  90.986  75.349  1.00  0.00     0.008 A 
ATOM     17  C   UNL     1      90.013  88.718  75.665  1.00  0.00     0.160 A 
ATOM     18  C   UNL     1      89.013  90.716  76.583  1.00  0.00     0.050 A 
ATOM     19  C   UNL     1      89.808  89.582  76.741  1.00  0.00     0.157 A 
BRANCH  17  20
ATOM     20  O   UNL     1      90.788  87.606  75.808  1.00  0.00    -0.493 OA
ATOM     21  C   UNL     1      91.433  87.111  74.636  1.00  0.00     0.278 C 
ENDBRANCH  17  20
BRANCH  19  22
ATOM     22  O   UNL     1      90.381  89.329  77.951  1.00  0.00    -0.504 OA
ATOM     23  H   UNL     1      91.324  89.563  77.911  1.00  0.00     0.293 HD
ENDBRANCH  19  22
ENDBRANCH  13  14
ENDBRANCH  12  13
ENDBRANCH  10  12
ENDBRANCH   1  10
TORSDOF 12
ENDMDL
MODEL 2
REMARK VINA RESULT:    -6.394      1.041      2.086
REMARK INTER + INTRA:         -12.405
REMARK INTER:                 -11.395
REMARK INTRA:                  -1.010
REMARK UNBOUND:                -1.899
REMARK SMILES CCCCC[C@H](O)CC(=O)CCc1ccc(O)c(OC)c1
REMARK SMILES IDX 8 1 6 2 7 3 5 5 4 6 3 7 2 8 1 9 9 10 10 11 11 12 12 13 13 14
REMARK SMILES IDX 21 15 14 16 18 17 15 18 16 19 19 20 20 21 17 22
REMARK H PARENT 7 4 17 23
REMARK Flexibility Score: inf
ROOT
ATOM      1  C   UNL     1      90.697  93.140  73.435  1.00  0.00     0.107 C 
ENDROOT
BRANCH   1   2
ATOM      2  C   UNL     1      91.813  92.454  74.227  1.00  0.00     0.121 C 
BRANCH   2   3
ATOM      3  O   UNL     1      92.431  91.452  73.423  1.00  0.00    -0.393 OA
ATOM      4  H   UNL     1      93.178  91.865  72.956  1.00  0.00     0.210 HD
ENDBRANCH   2   3
BRANCH   2   5
ATOM      5  C   UNL     1      92.883  93.432  74.727  1.00  0.00     0.032 C 
BRANCH   5   6
ATOM      6  C   UNL     1      92.740  93.726  76.225  1.00  0.00     0.003 C 
BRANCH   6   7
ATOM      7  C   UNL     1      91.596  92.953  76.889  1.00  0.00    -0.000 C 
BRANCH   7   8
ATOM      8  C   UNL     1      90.264  93.700  76.875  1.00  0.00    -0.003 C 
ATOM      9  C   UNL     1      90.447  95.153  76.463  1.00  0.00     0.004 C 
ENDBRANCH   7   8
ENDBRANCH   6   7
ENDBRANCH   5   6
ENDBRANCH   2   5
ENDBRANCH   1   2
BRANCH   1  10
ATOM     10  C   UNL     1      89.962  92.194  72.499  1.00  0.00     0.135 C 
ATOM     11  O   UNL     1      90.285  92.097  71.315  1.00  0.00    -0.300 OA
BRANCH  10  12
ATOM     12  C   UNL     1      88.853  91.354  73.113  1.00  0.00     0.080 C 
BRANCH  12  13
ATOM     13  C   UNL     1      89.061  89.847  72.951  1.00  0.00     0.043 C 
BRANCH  13  14
ATOM     14  C   UNL     1      89.685  89.202  74.165  1.00  0.00    -0.044 A 
ATOM     15  C   UNL     1      89.240  89.543  75.443  1.00  0.00     0.054 A 
ATOM     16  C   UNL     1      90.706  88.265  74.009  1.00  0.00     0.008 A 
ATOM     17  C   UNL     1      89.817  88.945  76.564  1.00  0.00     0.160 A 
ATOM     18  C   UNL     1      91.283  87.667  75.130  1.00  0.00     0.050 A 
ATOM     19  C   UNL     1      90.838  88.008  76.407  1.00  0.00     0.157 A 
BRANCH  17  20
ATOM     20  O   UNL     1      89.375  89.287  77.806  1.00  0.00    -0.493 OA
ATOM     21  C   UNL     1      90.069  90.339  78.475  1.00  0.00     0.278 C 
ENDBRANCH  17  20
BRANCH  19  22
ATOM     22  O   UNL     1      91.409  87.418  77.494  1.00  0.00    -0.504 OA
ATOM     23  H   UNL     1      90.786  86.770  77.866  1.00  0.00     0.293 HD
ENDBRANCH  19  22
ENDBRANCH  13  14
ENDBRANCH  12  13
ENDBRANCH  10  12
ENDBRANCH   1  10
TORSDOF 12
ENDMDL
MODEL 3
REMARK VINA RESULT:    -5.717      3.217      4.442
REMARK INTER + INTRA:         -11.292
REMARK INTER:                 -10.234
REMARK INTRA:                  -1.059
REMARK UNBOUND:                -1.899
REMARK SMILES CCCCC[C@H](O)CC(=O)CCc1ccc(O)c(OC)c1
REMARK SMILES IDX 8 1 6 2 7 3 5 5 4 6 3 7 2 8 1 9 9 10 10 11 11 12 12 13 13 14
REMARK SMILES IDX 21 15 14 16 18 17 15 18 16 19 19 20 20 21 17 22
REMARK H PARENT 7 4 17 23
REMARK Flexibility Score: inf
ROOT
ATOM      1  C   UNL     1      93.733  94.214  76.738  1.00  0.00     0.107 C 
ENDROOT
BRANCH   1   2
ATOM      2  C   UNL     1      95.189  93.742  76.785  1.00  0.00     0.121 C 
BRANCH   2   3
ATOM      3  O   UNL     1      95.887  94.214  75.635  1.00  0.00    -0.393 OA
ATOM      4  H   UNL     1      96.706  94.644  75.940  1.00  0.00     0.210 HD
ENDBRANCH   2   3
BRANCH   2   5
ATOM      5  C   UNL     1      95.928  94.200  78.048  1.00  0.00     0.032 C 
BRANCH   5   6
ATOM      6  C   UNL     1      94.996  94.280  79.264  1.00  0.00     0.003 C 
BRANCH   6   7
ATOM      7  C   UNL     1      95.739  94.517  80.583  1.00  0.00    -0.000 C 
BRANCH   7   8
ATOM      8  C   UNL     1      95.544  95.921  81.152  1.00  0.00    -0.003 C 
ATOM      9  C   UNL     1      96.560  96.898  80.581  1.00  0.00     0.004 C 
ENDBRANCH   7   8
ENDBRANCH   6   7
ENDBRANCH   5   6
ENDBRANCH   2   5
ENDBRANCH   1   2
BRANCH   1  10
ATOM     10  C   UNL     1      93.222  94.429  75.323  1.00  0.00     0.135 C 
ATOM     11  O   UNL     1      93.392  95.502  74.745  1.00  0.00    -0.300 OA
BRANCH  10  12
ATOM     12  C   UNL     1      92.540  93.243  74.657  1.00  0.00     0.080 C 
BRANCH  12  13
ATOM     13  C   UNL     1      91.049  93.130  74.983  1.00  0.00     0.043 C 
BRANCH  13  14
ATOM     14  C   UNL     1      90.742  92.034  75.976  1.00  0.00    -0.044 A 
ATOM     15  C   UNL     1      90.666  90.708  75.551  1.00  0.00     0.054 A 
ATOM     16  C   UNL     1      90.535  92.350  77.319  1.00  0.00     0.008 A 
ATOM     17  C   UNL     1      90.383  89.697  76.470  1.00  0.00     0.160 A 
ATOM     18  C   UNL     1      90.252  91.339  78.238  1.00  0.00     0.050 A 
ATOM     19  C   UNL     1      90.175  90.013  77.813  1.00  0.00     0.157 A 
BRANCH  17  20
ATOM     20  O   UNL     1      90.310  88.405  76.043  1.00  0.00    -0.493 OA
ATOM     21  C   UNL     1      91.316  87.966  75.133  1.00  0.00     0.278 C 
ENDBRANCH  17  20
BRANCH  19  22
ATOM     22  O   UNL     1      89.898  89.035  78.720  1.00  0.00    -0.504 OA
ATOM     23  H   UNL     1      88.953  89.071  78.946  1.00  0.00     0.293 HD
ENDBRANCH  19  22
ENDBRANCH  13  14
ENDBRANCH  12  13
ENDBRANCH  10  12
ENDBRANCH   1  10
TORSDOF 12
ENDMDL
MODEL 4
REMARK VINA RESULT:    -5.657      2.777      4.309
REMARK INTER + INTRA:         -11.194
REMARK INTER:                 -10.340
REMARK INTRA:                  -0.854
REMARK UNBOUND:                -1.899
REMARK SMILES CCCCC[C@H](O)CC(=O)CCc1ccc(O)c(OC)c1
REMARK SMILES IDX 8 1 6 2 7 3 5 5 4 6 3 7 2 8 1 9 9 10 10 11 11 12 12 13 13 14
REMARK SMILES IDX 21 15 14 16 18 17 15 18 16 19 19 20 20 21 17 22
REMARK H PARENT 7 4 17 23
REMARK Flexibility Score: inf
ROOT
ATOM      1  C   UNL     1      92.927  94.753  76.103  1.00  0.00     0.107 C 
ENDROOT
BRANCH   1   2
ATOM      2  C   UNL     1      94.130  93.813  76.214  1.00  0.00     0.121 C 
BRANCH   2   3
ATOM      3  O   UNL     1      94.758  93.679  74.942  1.00  0.00    -0.393 OA
ATOM      4  H   UNL     1      95.340  92.899  74.978  1.00  0.00     0.210 HD
ENDBRANCH   2   3
BRANCH   2   5
ATOM      5  C   UNL     1      95.166  94.283  77.243  1.00  0.00     0.032 C 
BRANCH   5   6
ATOM      6  C   UNL     1      94.568  94.402  78.650  1.00  0.00     0.003 C 
BRANCH   6   7
ATOM      7  C   UNL     1      95.551  94.016  79.760  1.00  0.00    -0.000 C 
BRANCH   7   8
ATOM      8  C   UNL     1      95.964  95.189  80.647  1.00  0.00    -0.003 C 
ATOM      9  C   UNL     1      97.199  95.888  80.102  1.00  0.00     0.004 C 
ENDBRANCH   7   8
ENDBRANCH   6   7
ENDBRANCH   5   6
ENDBRANCH   2   5
ENDBRANCH   1   2
BRANCH   1  10
ATOM     10  C   UNL     1      91.762  94.141  75.342  1.00  0.00     0.135 C 
ATOM     11  O   UNL     1      91.910  93.707  74.199  1.00  0.00    -0.300 OA
BRANCH  10  12
ATOM     12  C   UNL     1      90.434  94.057  76.080  1.00  0.00     0.080 C 
BRANCH  12  13
ATOM     13  C   UNL     1      90.403  92.982  77.168  1.00  0.00     0.043 C 
BRANCH  13  14
ATOM     14  C   UNL     1      90.086  91.606  76.632  1.00  0.00    -0.044 A 
ATOM     15  C   UNL     1      89.669  91.451  75.310  1.00  0.00     0.054 A 
ATOM     16  C   UNL     1      90.210  90.490  77.460  1.00  0.00     0.008 A 
ATOM     17  C   UNL     1      89.377  90.179  74.816  1.00  0.00     0.160 A 
ATOM     18  C   UNL     1      89.918  89.219  76.966  1.00  0.00     0.050 A 
ATOM     19  C   UNL     1      89.501  89.063  75.644  1.00  0.00     0.157 A 
BRANCH  17  20
ATOM     20  O   UNL     1      88.970  90.040  73.523  1.00  0.00    -0.493 OA
ATOM     21  C   UNL     1      87.681  90.553  73.191  1.00  0.00     0.278 C 
ENDBRANCH  17  20
BRANCH  19  22
ATOM     22  O   UNL     1      89.219  87.817  75.173  1.00  0.00    -0.504 OA
ATOM     23  H   UNL     1      89.204  87.842  74.201  1.00  0.00     0.293 HD
ENDBRANCH  19  22
ENDBRANCH  13  14
ENDBRANCH  12  13
ENDBRANCH  10  12
ENDBRANCH   1  10
TORSDOF 12
ENDMDL
MODEL 5
REMARK VINA RESULT:    -5.532      4.896      8.079
REMARK INTER + INTRA:         -10.989
REMARK INTER:                 -10.287
REMARK INTRA:                  -0.702
REMARK UNBOUND:                -1.899
REMARK SMILES CCCCC[C@H](O)CC(=O)CCc1ccc(O)c(OC)c1
REMARK SMILES IDX 8 1 6 2 7 3 5 5 4 6 3 7 2 8 1 9 9 10 10 11 11 12 12 13 13 14
REMARK SMILES IDX 21 15 14 16 18 17 15 18 16 19 19 20 20 21 17 22
REMARK H PARENT 7 4 17 23
REMARK Flexibility Score: inf
ROOT
ATOM      1  C   UNL     1      93.631  93.478  75.320  1.00  0.00     0.107 C 
ENDROOT
BRANCH   1   2
ATOM      2  C   UNL     1      92.558  93.361  76.405  1.00  0.00     0.121 C 
BRANCH   2   3
ATOM      3  O   UNL     1      93.172  93.339  77.692  1.00  0.00    -0.393 OA
ATOM      4  H   UNL     1      93.783  94.094  77.743  1.00  0.00     0.210 HD
ENDBRANCH   2   3
BRANCH   2   5
ATOM      5  C   UNL     1      91.529  94.497  76.357  1.00  0.00     0.032 C 
BRANCH   5   6
ATOM      6  C   UNL     1      90.097  93.972  76.201  1.00  0.00     0.003 C 
BRANCH   6   7
ATOM      7  C   UNL     1      89.706  92.948  77.272  1.00  0.00    -0.000 C 
BRANCH   7   8
ATOM      8  C   UNL     1      89.422  91.556  76.713  1.00  0.00    -0.003 C 
ATOM      9  C   UNL     1      89.510  91.539  75.195  1.00  0.00     0.004 C 
ENDBRANCH   7   8
ENDBRANCH   6   7
ENDBRANCH   5   6
ENDBRANCH   2   5
ENDBRANCH   1   2
BRANCH   1  10
ATOM     10  C   UNL     1      94.689  94.523  75.638  1.00  0.00     0.135 C 
ATOM     11  O   UNL     1      94.462  95.722  75.477  1.00  0.00    -0.300 OA
BRANCH  10  12
ATOM     12  C   UNL     1      96.005  94.011  76.202  1.00  0.00     0.080 C 
BRANCH  12  13
ATOM     13  C   UNL     1      96.736  95.030  77.079  1.00  0.00     0.043 C 
BRANCH  13  14
ATOM     14  C   UNL     1      96.308  94.981  78.526  1.00  0.00    -0.044 A 
ATOM     15  C   UNL     1      96.332  96.141  79.300  1.00  0.00     0.054 A 
ATOM     16  C   UNL     1      95.888  93.775  79.088  1.00  0.00     0.008 A 
ATOM     17  C   UNL     1      95.935  96.095  80.637  1.00  0.00     0.160 A 
ATOM     18  C   UNL     1      95.490  93.729  80.424  1.00  0.00     0.050 A 
ATOM     19  C   UNL     1      95.515  94.889  81.199  1.00  0.00     0.157 A 
BRANCH  17  20
ATOM     20  O   UNL     1      95.963  97.234  81.384  1.00  0.00    -0.493 OA
ATOM     21  C   UNL     1      97.247  97.751  81.729  1.00  0.00     0.278 C 
ENDBRANCH  17  20
BRANCH  19  22
ATOM     22  O   UNL     1      95.125  94.831  82.502  1.00  0.00    -0.504 OA
ATOM     23  H   UNL     1      94.482  95.541  82.673  1.00  0.00     0.293 HD
ENDBRANCH  19  22
ENDBRANCH  13  14
ENDBRANCH  12  13
ENDBRANCH  10  12
ENDBRANCH   1  10
TORSDOF 12
ENDMDL
MODEL 6
REMARK VINA RESULT:    -5.478     12.697     15.209
REMARK INTER + INTRA:         -10.900
REMARK INTER:                  -8.811
REMARK INTRA:                  -2.089
REMARK UNBOUND:                -1.899
REMARK SMILES CCCCC[C@H](O)CC(=O)CCc1ccc(O)c(OC)c1
REMARK SMILES IDX 8 1 6 2 7 3 5 5 4 6 3 7 2 8 1 9 9 10 10 11 11 12 12 13 13 14
REMARK SMILES IDX 21 15 14 16 18 17 15 18 16 19 19 20 20 21 17 22
REMARK H PARENT 7 4 17 23
REMARK Flexibility Score: inf
ROOT
ATOM      1  C   UNL     1      81.644  92.093  89.005  1.00  0.00     0.107 C 
ENDROOT
BRANCH   1   2
ATOM      2  C   UNL     1      83.129  92.279  88.686  1.00  0.00     0.121 C 
BRANCH   2   3
ATOM      3  O   UNL     1      83.922  91.719  89.730  1.00  0.00    -0.393 OA
ATOM      4  H   UNL     1      83.597  92.077  90.575  1.00  0.00     0.210 HD
ENDBRANCH   2   3
BRANCH   2   5
ATOM      5  C   UNL     1      83.538  91.649  87.349  1.00  0.00     0.032 C 
BRANCH   5   6
ATOM      6  C   UNL     1      84.231  90.294  87.538  1.00  0.00     0.003 C 
BRANCH   6   7
ATOM      7  C   UNL     1      84.150  89.393  86.301  1.00  0.00    -0.000 C 
BRANCH   7   8
ATOM      8  C   UNL     1      84.316  90.147  84.983  1.00  0.00    -0.003 C 
ATOM      9  C   UNL     1      85.759  90.578  84.769  1.00  0.00     0.004 C 
ENDBRANCH   7   8
ENDBRANCH   6   7
ENDBRANCH   5   6
ENDBRANCH   2   5
ENDBRANCH   1   2
BRANCH   1  10
ATOM     10  C   UNL     1      81.333  90.744  89.631  1.00  0.00     0.135 C 
ATOM     11  O   UNL     1      81.679  90.486  90.784  1.00  0.00    -0.300 OA
BRANCH  10  12
ATOM     12  C   UNL     1      80.542  89.763  88.779  1.00  0.00     0.080 C 
BRANCH  12  13
ATOM     13  C   UNL     1      80.198  90.296  87.387  1.00  0.00     0.043 C 
BRANCH  13  14
ATOM     14  C   UNL     1      80.498  89.308  86.284  1.00  0.00    -0.044 A 
ATOM     15  C   UNL     1      80.755  87.973  86.595  1.00  0.00     0.054 A 
ATOM     16  C   UNL     1      80.517  89.732  84.955  1.00  0.00     0.008 A 
ATOM     17  C   UNL     1      81.030  87.061  85.575  1.00  0.00     0.160 A 
ATOM     18  C   UNL     1      80.792  88.821  83.936  1.00  0.00     0.050 A 
ATOM     19  C   UNL     1      81.049  87.485  84.246  1.00  0.00     0.157 A 
BRANCH  17  20
ATOM     20  O   UNL     1      81.280  85.760  85.890  1.00  0.00    -0.493 OA
ATOM     21  C   UNL     1      82.629  85.417  86.205  1.00  0.00     0.278 C 
ENDBRANCH  17  20
BRANCH  19  22
ATOM     22  O   UNL     1      81.317  86.605  83.242  1.00  0.00    -0.504 OA
ATOM     23  H   UNL     1      80.606  85.942  83.204  1.00  0.00     0.293 HD
ENDBRANCH  19  22
ENDBRANCH  13  14
ENDBRANCH  12  13
ENDBRANCH  10  12
ENDBRANCH   1  10
TORSDOF 12
ENDMDL
MODEL 7
REMARK VINA RESULT:    -5.439      3.278      5.168
REMARK INTER + INTRA:         -10.836
REMARK INTER:                 -10.064
REMARK INTRA:                  -0.771
REMARK UNBOUND:                -1.899
REMARK SMILES CCCCC[C@H](O)CC(=O)CCc1ccc(O)c(OC)c1
REMARK SMILES IDX 8 1 6 2 7 3 5 5 4 6 3 7 2 8 1 9 9 10 10 11 11 12 12 13 13 14
REMARK SMILES IDX 21 15 14 16 18 17 15 18 16 19 19 20 20 21 17 22
REMARK H PARENT 7 4 17 23
REMARK Flexibility Score: inf
ROOT
ATOM      1  C   UNL     1      94.505  94.340  75.850  1.00  0.00     0.107 C 
ENDROOT
BRANCH   1   2
ATOM      2  C   UNL     1      95.617  93.923  76.816  1.00  0.00     0.121 C 
BRANCH   2   3
ATOM      3  O   UNL     1      96.666  93.280  76.097  1.00  0.00    -0.393 OA
ATOM      4  H   UNL     1      96.283  92.901  75.287  1.00  0.00     0.210 HD
ENDBRANCH   2   3
BRANCH   2   5
ATOM      5  C   UNL     1      96.196  95.102  77.608  1.00  0.00     0.032 C 
BRANCH   5   6
ATOM      6  C   UNL     1      96.356  94.772  79.098  1.00  0.00     0.003 C 
BRANCH   6   7
ATOM      7  C   UNL     1      95.150  95.189  79.944  1.00  0.00    -0.000 C 
BRANCH   7   8
ATOM      8  C   UNL     1      95.415  95.150  81.448  1.00  0.00    -0.003 C 
ATOM      9  C   UNL     1      95.857  93.766  81.898  1.00  0.00     0.004 C 
ENDBRANCH   7   8
ENDBRANCH   6   7
ENDBRANCH   5   6
ENDBRANCH   2   5
ENDBRANCH   1   2
BRANCH   1  10
ATOM     10  C   UNL     1      93.112  94.061  76.389  1.00  0.00     0.135 C 
ATOM     11  O   UNL     1      92.947  93.341  77.374  1.00  0.00    -0.300 OA
BRANCH  10  12
ATOM     12  C   UNL     1      91.955  94.749  75.681  1.00  0.00     0.080 C 
BRANCH  12  13
ATOM     13  C   UNL     1      90.636  93.979  75.764  1.00  0.00     0.043 C 
BRANCH  13  14
ATOM     14  C   UNL     1      90.440  93.016  74.618  1.00  0.00    -0.044 A 
ATOM     15  C   UNL     1      90.703  91.657  74.794  1.00  0.00     0.054 A 
ATOM     16  C   UNL     1      89.995  93.485  73.381  1.00  0.00     0.008 A 
ATOM     17  C   UNL     1      90.520  90.769  73.735  1.00  0.00     0.160 A 
ATOM     18  C   UNL     1      89.812  92.597  72.322  1.00  0.00     0.050 A 
ATOM     19  C   UNL     1      90.075  91.238  72.498  1.00  0.00     0.157 A 
BRANCH  17  20
ATOM     20  O   UNL     1      90.781  89.444  73.919  1.00  0.00    -0.493 OA
ATOM     21  C   UNL     1      89.751  88.658  74.514  1.00  0.00     0.278 C 
ENDBRANCH  17  20
BRANCH  19  22
ATOM     22  O   UNL     1      89.893  90.380  71.457  1.00  0.00    -0.504 OA
ATOM     23  H   UNL     1      89.210  90.740  70.866  1.00  0.00     0.293 HD
ENDBRANCH  19  22
ENDBRANCH  13  14
ENDBRANCH  12  13
ENDBRANCH  10  12
ENDBRANCH   1  10
TORSDOF 12
ENDMDL
MODEL 8
REMARK VINA RESULT:    -5.370      3.666      5.336
REMARK INTER + INTRA:         -10.723
REMARK INTER:                  -9.816
REMARK INTRA:                  -0.907
REMARK UNBOUND:                -1.899
REMARK SMILES CCCCC[C@H](O)CC(=O)CCc1ccc(O)c(OC)c1
REMARK SMILES IDX 8 1 6 2 7 3 5 5 4 6 3 7 2 8 1 9 9 10 10 11 11 12 12 13 13 14
REMARK SMILES IDX 21 15 14 16 18 17 15 18 16 19 19 20 20 21 17 22
REMARK H PARENT 7 4 17 23
REMARK Flexibility Score: inf
ROOT
ATOM      1  C   UNL     1      93.634  95.464  74.976  1.00  0.00     0.107 C 
ENDROOT
BRANCH   1   2
ATOM      2  C   UNL     1      95.055  96.015  75.125  1.00  0.00     0.121 C 
BRANCH   2   3
ATOM      3  O   UNL     1      96.001  95.022  74.734  1.00  0.00    -0.393 OA
ATOM      4  H   UNL     1      96.509  94.768  75.524  1.00  0.00     0.210 HD
ENDBRANCH   2   3
BRANCH   2   5
ATOM      5  C   UNL     1      95.293  97.290  74.307  1.00  0.00     0.032 C 
BRANCH   5   6
ATOM      6  C   UNL     1      93.987  97.876  73.760  1.00  0.00     0.003 C 
BRANCH   6   7
ATOM      7  C   UNL     1      93.977  98.018  72.234  1.00  0.00    -0.000 C 
BRANCH   7   8
ATOM      8  C   UNL     1      93.061  99.130  71.728  1.00  0.00    -0.003 C 
ATOM      9  C   UNL     1      92.244  98.673  70.529  1.00  0.00     0.004 C 
ENDBRANCH   7   8
ENDBRANCH   6   7
ENDBRANCH   5   6
ENDBRANCH   2   5
ENDBRANCH   1   2
BRANCH   1  10
ATOM     10  C   UNL     1      93.241  94.518  76.099  1.00  0.00     0.135 C 
ATOM     11  O   UNL     1      94.083  93.815  76.658  1.00  0.00    -0.300 OA
BRANCH  10  12
ATOM     12  C   UNL     1      91.778  94.524  76.515  1.00  0.00     0.080 C 
BRANCH  12  13
ATOM     13  C   UNL     1      91.329  93.234  77.203  1.00  0.00     0.043 C 
BRANCH  13  14
ATOM     14  C   UNL     1      90.512  92.337  76.304  1.00  0.00    -0.044 A 
ATOM     15  C   UNL     1      90.314  92.682  74.967  1.00  0.00     0.054 A 
ATOM     16  C   UNL     1      89.955  91.163  76.812  1.00  0.00     0.008 A 
ATOM     17  C   UNL     1      89.560  91.852  74.138  1.00  0.00     0.160 A 
ATOM     18  C   UNL     1      89.201  90.333  75.982  1.00  0.00     0.050 A 
ATOM     19  C   UNL     1      89.003  90.678  74.645  1.00  0.00     0.157 A 
BRANCH  17  20
ATOM     20  O   UNL     1      89.373  92.199  72.834  1.00  0.00    -0.493 OA
ATOM     21  C   UNL     1      89.414  93.591  72.522  1.00  0.00     0.278 C 
ENDBRANCH  17  20
BRANCH  19  22
ATOM     22  O   UNL     1      88.264  89.859  73.845  1.00  0.00    -0.504 OA
ATOM     23  H   UNL     1      88.216  88.977  74.252  1.00  0.00     0.293 HD
ENDBRANCH  19  22
ENDBRANCH  13  14
ENDBRANCH  12  13
ENDBRANCH  10  12
ENDBRANCH   1  10
TORSDOF 12
ENDMDL
MODEL 9
REMARK VINA RESULT:    -5.335      2.895      4.139
REMARK INTER + INTRA:         -10.665
REMARK INTER:                  -9.739
REMARK INTRA:                  -0.926
REMARK UNBOUND:                -1.899
REMARK SMILES CCCCC[C@H](O)CC(=O)CCc1ccc(O)c(OC)c1
REMARK SMILES IDX 8 1 6 2 7 3 5 5 4 6 3 7 2 8 1 9 9 10 10 11 11 12 12 13 13 14
REMARK SMILES IDX 21 15 14 16 18 17 15 18 16 19 19 20 20 21 17 22
REMARK H PARENT 7 4 17 23
REMARK Flexibility Score: inf
ROOT
ATOM      1  C   UNL     1      92.139  94.588  76.373  1.00  0.00     0.107 C 
ENDROOT
BRANCH   1   2
ATOM      2  C   UNL     1      93.587  94.288  75.977  1.00  0.00     0.121 C 
BRANCH   2   3
ATOM      3  O   UNL     1      94.031  95.239  75.012  1.00  0.00    -0.393 OA
ATOM      4  H   UNL     1      94.274  94.753  74.205  1.00  0.00     0.210 HD
ENDBRANCH   2   3
BRANCH   2   5
ATOM      5  C   UNL     1      94.550  94.293  77.171  1.00  0.00     0.032 C 
BRANCH   5   6
ATOM      6  C   UNL     1      95.945  93.784  76.788  1.00  0.00     0.003 C 
BRANCH   6   7
ATOM      7  C   UNL     1      97.034  94.855  76.903  1.00  0.00    -0.000 C 
BRANCH   7   8
ATOM      8  C   UNL     1      96.613  96.070  77.728  1.00  0.00    -0.003 C 
ATOM      9  C   UNL     1      97.267  96.061  79.101  1.00  0.00     0.004 C 
ENDBRANCH   7   8
ENDBRANCH   6   7
ENDBRANCH   5   6
ENDBRANCH   2   5
ENDBRANCH   1   2
BRANCH   1  10
ATOM     10  C   UNL     1      91.124  93.808  75.554  1.00  0.00     0.135 C 
ATOM     11  O   UNL     1      91.238  93.710  74.332  1.00  0.00    -0.300 OA
BRANCH  10  12
ATOM     12  C   UNL     1      90.002  93.130  76.325  1.00  0.00     0.080 C 
BRANCH  12  13
ATOM     13  C   UNL     1      90.439  92.565  77.678  1.00  0.00     0.043 C 
BRANCH  13  14
ATOM     14  C   UNL     1      90.282  91.066  77.774  1.00  0.00    -0.044 A 
ATOM     15  C   UNL     1      90.338  90.284  76.620  1.00  0.00     0.054 A 
ATOM     16  C   UNL     1      90.079  90.465  79.016  1.00  0.00     0.008 A 
ATOM     17  C   UNL     1      90.194  88.899  76.710  1.00  0.00     0.160 A 
ATOM     18  C   UNL     1      89.934  89.080  79.105  1.00  0.00     0.050 A 
ATOM     19  C   UNL     1      89.991  88.298  77.952  1.00  0.00     0.157 A 
BRANCH  17  20
ATOM     20  O   UNL     1      90.250  88.146  75.576  1.00  0.00    -0.493 OA
ATOM     21  C   UNL     1      89.762  88.742  74.376  1.00  0.00     0.278 C 
ENDBRANCH  17  20
BRANCH  19  22
ATOM     22  O   UNL     1      89.848  86.947  78.052  1.00  0.00    -0.504 OA
ATOM     23  H   UNL     1      89.240  86.746  78.784  1.00  0.00     0.293 HD
ENDBRANCH  19  22
ENDBRANCH  13  14
ENDBRANCH  12  13
ENDBRANCH  10  12
ENDBRANCH   1  10
TORSDOF 12
ENDMDL
MODEL 10
REMARK VINA RESULT:    -5.017     11.442     13.840
REMARK INTER + INTRA:         -10.142
REMARK INTER:                  -8.567
REMARK INTRA:                  -1.576
REMARK UNBOUND:                -1.899
REMARK SMILES CCCCC[C@H](O)CC(=O)CCc1ccc(O)c(OC)c1
REMARK SMILES IDX 8 1 6 2 7 3 5 5 4 6 3 7 2 8 1 9 9 10 10 11 11 12 12 13 13 14
REMARK SMILES IDX 21 15 14 16 18 17 15 18 16 19 19 20 20 21 17 22
REMARK H PARENT 7 4 17 23
REMARK Flexibility Score: inf
ROOT
ATOM      1  C   UNL     1      98.621  81.483  75.599  1.00  0.00     0.107 C 
ENDROOT
BRANCH   1   2
ATOM      2  C   UNL     1      99.714  82.550  75.503  1.00  0.00     0.121 C 
BRANCH   2   3
ATOM      3  O   UNL     1      99.123  83.847  75.485  1.00  0.00    -0.393 OA
ATOM      4  H   UNL     1      99.559  84.382  76.172  1.00  0.00     0.210 HD
ENDBRANCH   2   3
BRANCH   2   5
ATOM      5  C   UNL     1     100.731  82.474  76.649  1.00  0.00     0.032 C 
BRANCH   5   6
ATOM      6  C   UNL     1     101.154  81.030  76.948  1.00  0.00     0.003 C 
BRANCH   6   7
ATOM      7  C   UNL     1     102.525  80.929  77.624  1.00  0.00    -0.000 C 
BRANCH   7   8
ATOM      8  C   UNL     1     102.521  80.078  78.892  1.00  0.00    -0.003 C 
ATOM      9  C   UNL     1     103.920  79.942  79.474  1.00  0.00     0.004 C 
ENDBRANCH   7   8
ENDBRANCH   6   7
ENDBRANCH   5   6
ENDBRANCH   2   5
ENDBRANCH   1   2
BRANCH   1  10
ATOM     10  C   UNL     1      97.284  82.040  76.061  1.00  0.00     0.135 C 
ATOM     11  O   UNL     1      96.631  82.795  75.341  1.00  0.00    -0.300 OA
BRANCH  10  12
ATOM     12  C   UNL     1      96.788  81.581  77.423  1.00  0.00     0.080 C 
BRANCH  12  13
ATOM     13  C   UNL     1      96.685  82.708  78.452  1.00  0.00     0.043 C 
BRANCH  13  14
ATOM     14  C   UNL     1      97.491  82.445  79.702  1.00  0.00    -0.044 A 
ATOM     15  C   UNL     1      97.005  82.851  80.944  1.00  0.00     0.054 A 
ATOM     16  C   UNL     1      98.723  81.795  79.612  1.00  0.00     0.008 A 
ATOM     17  C   UNL     1      97.751  82.606  82.098  1.00  0.00     0.160 A 
ATOM     18  C   UNL     1      99.468  81.550  80.766  1.00  0.00     0.050 A 
ATOM     19  C   UNL     1      98.982  81.956  82.008  1.00  0.00     0.157 A 
BRANCH  17  20
ATOM     20  O   UNL     1      97.266  83.008  83.306  1.00  0.00    -0.493 OA
ATOM     21  C   UNL     1      96.792  84.350  83.401  1.00  0.00     0.278 C 
ENDBRANCH  17  20
BRANCH  19  22
ATOM     22  O   UNL     1      99.719  81.711  83.128  1.00  0.00    -0.504 OA
ATOM     23  H   UNL     1      99.333  82.201  83.874  1.00  0.00     0.293 HD
ENDBRANCH  19  22
ENDBRANCH  13  14
ENDBRANCH  12  13
ENDBRANCH  10  12
ENDBRANCH   1  10
TORSDOF 12
ENDMDL
