MODEL 1
REMARK VINA RESULT:    -6.368      0.000      0.000
REMARK INTER + INTRA:         -11.207
REMARK INTER:                 -10.464
REMARK INTRA:                  -0.743
REMARK UNBOUND:                -0.743
REMARK SMILES CCCCC[C@H](O)CC(=O)CCc1ccc(O)c(OC)c1
REMARK SMILES IDX 8 1 6 2 7 3 5 5 4 6 3 7 2 8 1 9 9 10 10 11 11 12 12 13 13 14
REMARK SMILES IDX 21 15 14 16 18 17 15 18 16 19 19 20 20 21 17 22
REMARK H PARENT 7 4 17 23
REMARK Flexibility Score: inf
ROOT
ATOM      1  C   UNL     1      92.823  95.035  77.547  1.00  0.00     0.107 C 
ENDROOT
BRANCH   1   2
ATOM      2  C   UNL     1      92.229  93.629  77.433  1.00  0.00     0.121 C 
BRANCH   2   3
ATOM      3  O   UNL     1      92.380  92.938  78.672  1.00  0.00    -0.393 OA
ATOM      4  H   UNL     1      92.755  92.061  78.479  1.00  0.00     0.210 HD
ENDBRANCH   2   3
BRANCH   2   5
ATOM      5  C   UNL     1      90.747  93.634  77.036  1.00  0.00     0.032 C 
BRANCH   5   6
ATOM      6  C   UNL     1      90.005  92.399  77.560  1.00  0.00     0.003 C 
BRANCH   6   7
ATOM      7  C   UNL     1      89.867  91.286  76.516  1.00  0.00    -0.000 C 
BRANCH   7   8
ATOM      8  C   UNL     1      90.766  91.476  75.296  1.00  0.00    -0.003 C 
ATOM      9  C   UNL     1      90.563  90.364  74.279  1.00  0.00     0.004 C 
ENDBRANCH   7   8
ENDBRANCH   6   7
ENDBRANCH   5   6
ENDBRANCH   2   5
ENDBRANCH   1   2
BRANCH   1  10
ATOM     10  C   UNL     1      94.328  95.029  77.763  1.00  0.00     0.135 C 
ATOM     11  O   UNL     1      94.805  94.859  78.885  1.00  0.00    -0.300 OA
BRANCH  10  12
ATOM     12  C   UNL     1      95.195  95.198  76.525  1.00  0.00     0.080 C 
BRANCH  12  13
ATOM     13  C   UNL     1      94.434  95.015  75.211  1.00  0.00     0.043 C 
BRANCH  13  14
ATOM     14  C   UNL     1      94.576  96.192  74.276  1.00  0.00    -0.044 A 
ATOM     15  C   UNL     1      95.574  96.193  73.301  1.00  0.00     0.054 A 
ATOM     16  C   UNL     1      93.708  97.279  74.387  1.00  0.00     0.008 A 
ATOM     17  C   UNL     1      95.703  97.281  72.437  1.00  0.00     0.160 A 
ATOM     18  C   UNL     1      93.837  98.366  73.523  1.00  0.00     0.050 A 
ATOM     19  C   UNL     1      94.835  98.367  72.549  1.00  0.00     0.157 A 
BRANCH  17  20
ATOM     20  O   UNL     1      96.682  97.271  71.490  1.00  0.00    -0.493 OA
ATOM     21  C   UNL     1      96.400  96.580  70.274  1.00  0.00     0.278 C 
ENDBRANCH  17  20
BRANCH  19  22
ATOM     22  O   UNL     1      94.952  99.435  71.711  1.00  0.00    -0.504 OA
ATOM     23  H   UNL     1      94.866 100.254  72.228  1.00  0.00     0.293 HD
ENDBRANCH  19  22
ENDBRANCH  13  14
ENDBRANCH  12  13
ENDBRANCH  10  12
ENDBRANCH   1  10
TORSDOF 12
ENDMDL
MODEL 2
REMARK VINA RESULT:    -6.168      3.124      6.982
REMARK INTER + INTRA:         -10.878
REMARK INTER:                  -9.952
REMARK INTRA:                  -0.926
REMARK UNBOUND:                -0.743
REMARK SMILES CCCCC[C@H](O)CC(=O)CCc1ccc(O)c(OC)c1
REMARK SMILES IDX 8 1 6 2 7 3 5 5 4 6 3 7 2 8 1 9 9 10 10 11 11 12 12 13 13 14
REMARK SMILES IDX 21 15 14 16 18 17 15 18 16 19 19 20 20 21 17 22
REMARK H PARENT 7 4 17 23
REMARK Flexibility Score: inf
ROOT
ATOM      1  C   UNL     1      94.861  93.423  77.570  1.00  0.00     0.107 C 
ENDROOT
BRANCH   1   2
ATOM      2  C   UNL     1      94.549  93.489  79.067  1.00  0.00     0.121 C 
BRANCH   2   3
ATOM      3  O   UNL     1      93.418  92.673  79.362  1.00  0.00    -0.393 OA
ATOM      4  H   UNL     1      93.739  91.868  79.804  1.00  0.00     0.210 HD
ENDBRANCH   2   3
BRANCH   2   5
ATOM      5  C   UNL     1      95.729  93.052  79.945  1.00  0.00     0.032 C 
BRANCH   5   6
ATOM      6  C   UNL     1      96.409  94.244  80.630  1.00  0.00     0.003 C 
BRANCH   6   7
ATOM      7  C   UNL     1      97.929  94.265  80.440  1.00  0.00    -0.000 C 
BRANCH   7   8
ATOM      8  C   UNL     1      98.708  94.389  81.749  1.00  0.00    -0.003 C 
ATOM      9  C   UNL     1      98.260  95.604  82.547  1.00  0.00     0.004 C 
ENDBRANCH   7   8
ENDBRANCH   6   7
ENDBRANCH   5   6
ENDBRANCH   2   5
ENDBRANCH   1   2
BRANCH   1  10
ATOM     10  C   UNL     1      94.995  94.794  76.928  1.00  0.00     0.135 C 
ATOM     11  O   UNL     1      95.596  95.704  77.500  1.00  0.00    -0.300 OA
BRANCH  10  12
ATOM     12  C   UNL     1      94.394  94.960  75.541  1.00  0.00     0.080 C 
BRANCH  12  13
ATOM     13  C   UNL     1      92.915  95.354  75.555  1.00  0.00     0.043 C 
BRANCH  13  14
ATOM     14  C   UNL     1      92.013  94.246  76.043  1.00  0.00    -0.044 A 
ATOM     15  C   UNL     1      91.974  93.028  75.365  1.00  0.00     0.054 A 
ATOM     16  C   UNL     1      91.218  94.442  77.173  1.00  0.00     0.008 A 
ATOM     17  C   UNL     1      91.140  92.005  75.818  1.00  0.00     0.160 A 
ATOM     18  C   UNL     1      90.384  93.419  77.625  1.00  0.00     0.050 A 
ATOM     19  C   UNL     1      90.345  92.200  76.947  1.00  0.00     0.157 A 
BRANCH  17  20
ATOM     20  O   UNL     1      91.110  90.819  75.147  1.00  0.00    -0.493 OA
ATOM     21  C   UNL     1      90.312  90.763  73.966  1.00  0.00     0.278 C 
ENDBRANCH  17  20
BRANCH  19  22
ATOM     22  O   UNL     1      89.527  91.209  77.399  1.00  0.00    -0.504 OA
ATOM     23  H   UNL     1      89.484  91.251  78.369  1.00  0.00     0.293 HD
ENDBRANCH  19  22
ENDBRANCH  13  14
ENDBRANCH  12  13
ENDBRANCH  10  12
ENDBRANCH   1  10
TORSDOF 12
ENDMDL
MODEL 3
REMARK VINA RESULT:    -5.868      3.730      5.790
REMARK INTER + INTRA:         -10.385
REMARK INTER:                  -9.098
REMARK INTRA:                  -1.287
REMARK UNBOUND:                -0.743
REMARK SMILES CCCCC[C@H](O)CC(=O)CCc1ccc(O)c(OC)c1
REMARK SMILES IDX 8 1 6 2 7 3 5 5 4 6 3 7 2 8 1 9 9 10 10 11 11 12 12 13 13 14
REMARK SMILES IDX 21 15 14 16 18 17 15 18 16 19 19 20 20 21 17 22
REMARK H PARENT 7 4 17 23
REMARK Flexibility Score: inf
ROOT
ATOM      1  C   UNL     1      93.860  93.701  78.124  1.00  0.00     0.107 C 
ENDROOT
BRANCH   1   2
ATOM      2  C   UNL     1      94.150  94.565  76.893  1.00  0.00     0.121 C 
BRANCH   2   3
ATOM      3  O   UNL     1      94.356  93.731  75.755  1.00  0.00    -0.393 OA
ATOM      4  H   UNL     1      95.296  93.482  75.735  1.00  0.00     0.210 HD
ENDBRANCH   2   3
BRANCH   2   5
ATOM      5  C   UNL     1      93.032  95.569  76.588  1.00  0.00     0.032 C 
BRANCH   5   6
ATOM      6  C   UNL     1      91.691  95.140  77.196  1.00  0.00     0.003 C 
BRANCH   6   7
ATOM      7  C   UNL     1      90.766  94.442  76.193  1.00  0.00    -0.000 C 
BRANCH   7   8
ATOM      8  C   UNL     1      90.712  92.925  76.365  1.00  0.00    -0.003 C 
ATOM      9  C   UNL     1      90.125  92.540  77.714  1.00  0.00     0.004 C 
ENDBRANCH   7   8
ENDBRANCH   6   7
ENDBRANCH   5   6
ENDBRANCH   2   5
ENDBRANCH   1   2
BRANCH   1  10
ATOM     10  C   UNL     1      95.104  93.038  78.693  1.00  0.00     0.135 C 
ATOM     11  O   UNL     1      96.027  92.688  77.957  1.00  0.00    -0.300 OA
BRANCH  10  12
ATOM     12  C   UNL     1      95.160  92.877  80.204  1.00  0.00     0.080 C 
BRANCH  12  13
ATOM     13  C   UNL     1      96.479  93.343  80.824  1.00  0.00     0.043 C 
BRANCH  13  14
ATOM     14  C   UNL     1      96.660  94.842  80.773  1.00  0.00    -0.044 A 
ATOM     15  C   UNL     1      97.576  95.405  79.885  1.00  0.00     0.054 A 
ATOM     16  C   UNL     1      95.909  95.663  81.615  1.00  0.00     0.008 A 
ATOM     17  C   UNL     1      97.741  96.789  79.838  1.00  0.00     0.160 A 
ATOM     18  C   UNL     1      96.075  97.047  81.569  1.00  0.00     0.050 A 
ATOM     19  C   UNL     1      96.991  97.610  80.680  1.00  0.00     0.157 A 
BRANCH  17  20
ATOM     20  O   UNL     1      98.640  97.327  78.967  1.00  0.00    -0.493 OA
ATOM     21  C   UNL     1      98.694  96.760  77.659  1.00  0.00     0.278 C 
ENDBRANCH  17  20
BRANCH  19  22
ATOM     22  O   UNL     1      97.144  98.963  80.644  1.00  0.00    -0.504 OA
ATOM     23  H   UNL     1      96.954  99.279  79.744  1.00  0.00     0.293 HD
ENDBRANCH  19  22
ENDBRANCH  13  14
ENDBRANCH  12  13
ENDBRANCH  10  12
ENDBRANCH   1  10
TORSDOF 12
ENDMDL
MODEL 4
REMARK VINA RESULT:    -5.803     12.731     16.112
REMARK INTER + INTRA:         -10.278
REMARK INTER:                  -8.623
REMARK INTRA:                  -1.656
REMARK UNBOUND:                -0.743
REMARK SMILES CCCCC[C@H](O)CC(=O)CCc1ccc(O)c(OC)c1
REMARK SMILES IDX 8 1 6 2 7 3 5 5 4 6 3 7 2 8 1 9 9 10 10 11 11 12 12 13 13 14
REMARK SMILES IDX 21 15 14 16 18 17 15 18 16 19 19 20 20 21 17 22
REMARK H PARENT 7 4 17 23
REMARK Flexibility Score: inf
ROOT
ATOM      1  C   UNL     1      96.328  82.291  74.552  1.00  0.00     0.107 C 
ENDROOT
BRANCH   1   2
ATOM      2  C   UNL     1      97.584  82.756  73.812  1.00  0.00     0.121 C 
BRANCH   2   3
ATOM      3  O   UNL     1      98.136  83.897  74.466  1.00  0.00    -0.393 OA
ATOM      4  H   UNL     1      97.649  84.681  74.157  1.00  0.00     0.210 HD
ENDBRANCH   2   3
BRANCH   2   5
ATOM      5  C   UNL     1      98.657  81.666  73.706  1.00  0.00     0.032 C 
BRANCH   5   6
ATOM      6  C   UNL     1      99.893  81.990  74.554  1.00  0.00     0.003 C 
BRANCH   6   7
ATOM      7  C   UNL     1     100.281  80.861  75.515  1.00  0.00    -0.000 C 
BRANCH   7   8
ATOM      8  C   UNL     1      99.363  79.644  75.432  1.00  0.00    -0.003 C 
ATOM      9  C   UNL     1     100.103  78.426  74.902  1.00  0.00     0.004 C 
ENDBRANCH   7   8
ENDBRANCH   6   7
ENDBRANCH   5   6
ENDBRANCH   2   5
ENDBRANCH   1   2
BRANCH   1  10
ATOM     10  C   UNL     1      95.987  83.159  75.752  1.00  0.00     0.135 C 
ATOM     11  O   UNL     1      95.614  84.323  75.606  1.00  0.00    -0.300 OA
BRANCH  10  12
ATOM     12  C   UNL     1      96.089  82.502  77.120  1.00  0.00     0.080 C 
BRANCH  12  13
ATOM     13  C   UNL     1      97.514  82.104  77.507  1.00  0.00     0.043 C 
BRANCH  13  14
ATOM     14  C   UNL     1      97.639  81.677  78.950  1.00  0.00    -0.044 A 
ATOM     15  C   UNL     1      98.634  80.775  79.327  1.00  0.00     0.054 A 
ATOM     16  C   UNL     1      96.759  82.186  79.906  1.00  0.00     0.008 A 
ATOM     17  C   UNL     1      98.749  80.382  80.661  1.00  0.00     0.160 A 
ATOM     18  C   UNL     1      96.874  81.793  81.239  1.00  0.00     0.050 A 
ATOM     19  C   UNL     1      97.869  80.891  81.617  1.00  0.00     0.157 A 
BRANCH  17  20
ATOM     20  O   UNL     1      99.723  79.500  81.018  1.00  0.00    -0.493 OA
ATOM     21  C   UNL     1      99.498  78.126  80.709  1.00  0.00     0.278 C 
ENDBRANCH  17  20
BRANCH  19  22
ATOM     22  O   UNL     1      97.971  80.515  82.922  1.00  0.00    -0.504 OA
ATOM     23  H   UNL     1      98.889  80.251  83.105  1.00  0.00     0.293 HD
ENDBRANCH  19  22
ENDBRANCH  13  14
ENDBRANCH  12  13
ENDBRANCH  10  12
ENDBRANCH   1  10
TORSDOF 12
ENDMDL
MODEL 5
REMARK VINA RESULT:    -5.746     15.012     18.284
REMARK INTER + INTRA:         -10.184
REMARK INTER:                  -9.301
REMARK INTRA:                  -0.883
REMARK UNBOUND:                -0.743
REMARK SMILES CCCCC[C@H](O)CC(=O)CCc1ccc(O)c(OC)c1
REMARK SMILES IDX 8 1 6 2 7 3 5 5 4 6 3 7 2 8 1 9 9 10 10 11 11 12 12 13 13 14
REMARK SMILES IDX 21 15 14 16 18 17 15 18 16 19 19 20 20 21 17 22
REMARK H PARENT 7 4 17 23
REMARK Flexibility Score: inf
ROOT
ATOM      1  C   UNL     1      95.082  81.482  84.019  1.00  0.00     0.107 C 
ENDROOT
BRANCH   1   2
ATOM      2  C   UNL     1      95.522  82.945  83.931  1.00  0.00     0.121 C 
BRANCH   2   3
ATOM      3  O   UNL     1      96.277  83.294  85.089  1.00  0.00    -0.393 OA
ATOM      4  H   UNL     1      97.098  83.722  84.791  1.00  0.00     0.210 HD
ENDBRANCH   2   3
BRANCH   2   5
ATOM      5  C   UNL     1      96.352  83.248  82.678  1.00  0.00     0.032 C 
BRANCH   5   6
ATOM      6  C   UNL     1      96.833  81.969  81.982  1.00  0.00     0.003 C 
BRANCH   6   7
ATOM      7  C   UNL     1      96.693  82.017  80.457  1.00  0.00    -0.000 C 
BRANCH   7   8
ATOM      8  C   UNL     1      97.755  81.205  79.719  1.00  0.00    -0.003 C 
ATOM      9  C   UNL     1      98.056  81.800  78.351  1.00  0.00     0.004 C 
ENDBRANCH   7   8
ENDBRANCH   6   7
ENDBRANCH   5   6
ENDBRANCH   2   5
ENDBRANCH   1   2
BRANCH   1  10
ATOM     10  C   UNL     1      94.895  81.001  85.449  1.00  0.00     0.135 C 
ATOM     11  O   UNL     1      95.857  80.880  86.207  1.00  0.00    -0.300 OA
BRANCH  10  12
ATOM     12  C   UNL     1      93.467  80.727  85.895  1.00  0.00     0.080 C 
BRANCH  12  13
ATOM     13  C   UNL     1      92.407  81.265  84.931  1.00  0.00     0.043 C 
BRANCH  13  14
ATOM     14  C   UNL     1      91.250  80.315  84.733  1.00  0.00    -0.044 A 
ATOM     15  C   UNL     1      89.969  80.814  84.501  1.00  0.00     0.054 A 
ATOM     16  C   UNL     1      91.464  78.937  84.783  1.00  0.00     0.008 A 
ATOM     17  C   UNL     1      88.901  79.936  84.317  1.00  0.00     0.160 A 
ATOM     18  C   UNL     1      90.396  78.058  84.600  1.00  0.00     0.050 A 
ATOM     19  C   UNL     1      89.114  78.558  84.367  1.00  0.00     0.157 A 
BRANCH  17  20
ATOM     20  O   UNL     1      87.654  80.435  84.092  1.00  0.00    -0.493 OA
ATOM     21  C   UNL     1      87.013  81.095  85.182  1.00  0.00     0.278 C 
ENDBRANCH  17  20
BRANCH  19  22
ATOM     22  O   UNL     1      88.080  77.690  84.190  1.00  0.00    -0.504 OA
ATOM     23  H   UNL     1      88.138  76.986  84.858  1.00  0.00     0.293 HD
ENDBRANCH  19  22
ENDBRANCH  13  14
ENDBRANCH  12  13
ENDBRANCH  10  12
ENDBRANCH   1  10
TORSDOF 12
ENDMDL
MODEL 6
REMARK VINA RESULT:    -5.649     13.753     15.616
REMARK INTER + INTRA:         -10.026
REMARK INTER:                  -8.979
REMARK INTRA:                  -1.047
REMARK UNBOUND:                -0.743
REMARK SMILES CCCCC[C@H](O)CC(=O)CCc1ccc(O)c(OC)c1
REMARK SMILES IDX 8 1 6 2 7 3 5 5 4 6 3 7 2 8 1 9 9 10 10 11 11 12 12 13 13 14
REMARK SMILES IDX 21 15 14 16 18 17 15 18 16 19 19 20 20 21 17 22
REMARK H PARENT 7 4 17 23
REMARK Flexibility Score: inf
ROOT
ATOM      1  C   UNL     1      95.516  82.717  85.099  1.00  0.00     0.107 C 
ENDROOT
BRANCH   1   2
ATOM      2  C   UNL     1      94.071  82.422  85.508  1.00  0.00     0.121 C 
BRANCH   2   3
ATOM      3  O   UNL     1      93.306  83.625  85.480  1.00  0.00    -0.393 OA
ATOM      4  H   UNL     1      93.038  83.785  84.558  1.00  0.00     0.210 HD
ENDBRANCH   2   3
BRANCH   2   5
ATOM      5  C   UNL     1      93.396  81.373  84.616  1.00  0.00     0.032 C 
BRANCH   5   6
ATOM      6  C   UNL     1      92.123  80.806  85.255  1.00  0.00     0.003 C 
BRANCH   6   7
ATOM      7  C   UNL     1      90.835  81.360  84.637  1.00  0.00    -0.000 C 
BRANCH   7   8
ATOM      8  C   UNL     1      89.753  81.684  85.664  1.00  0.00    -0.003 C 
ATOM      9  C   UNL     1      90.347  82.310  86.917  1.00  0.00     0.004 C 
ENDBRANCH   7   8
ENDBRANCH   6   7
ENDBRANCH   5   6
ENDBRANCH   2   5
ENDBRANCH   1   2
BRANCH   1  10
ATOM     10  C   UNL     1      95.623  83.766  84.004  1.00  0.00     0.135 C 
ATOM     11  O   UNL     1      95.466  84.961  84.255  1.00  0.00    -0.300 OA
BRANCH  10  12
ATOM     12  C   UNL     1      95.975  83.265  82.611  1.00  0.00     0.080 C 
BRANCH  12  13
ATOM     13  C   UNL     1      96.405  81.797  82.576  1.00  0.00     0.043 C 
BRANCH  13  14
ATOM     14  C   UNL     1      97.186  81.439  81.334  1.00  0.00    -0.044 A 
ATOM     15  C   UNL     1      96.940  82.112  80.137  1.00  0.00     0.054 A 
ATOM     16  C   UNL     1      98.153  80.435  81.384  1.00  0.00     0.008 A 
ATOM     17  C   UNL     1      97.662  81.780  78.991  1.00  0.00     0.160 A 
ATOM     18  C   UNL     1      98.875  80.103  80.238  1.00  0.00     0.050 A 
ATOM     19  C   UNL     1      98.630  80.776  79.041  1.00  0.00     0.157 A 
BRANCH  17  20
ATOM     20  O   UNL     1      97.413  82.444  77.827  1.00  0.00    -0.493 OA
ATOM     21  C   UNL     1      96.092  82.350  77.297  1.00  0.00     0.278 C 
ENDBRANCH  17  20
BRANCH  19  22
ATOM     22  O   UNL     1      99.341  80.444  77.928  1.00  0.00    -0.504 OA
ATOM     23  H   UNL     1      98.950  79.648  77.528  1.00  0.00     0.293 HD
ENDBRANCH  19  22
ENDBRANCH  13  14
ENDBRANCH  12  13
ENDBRANCH  10  12
ENDBRANCH   1  10
TORSDOF 12
ENDMDL
MODEL 7
REMARK VINA RESULT:    -5.565     12.982     14.781
REMARK INTER + INTRA:          -9.888
REMARK INTER:                  -7.762
REMARK INTRA:                  -2.126
REMARK UNBOUND:                -0.743
REMARK SMILES CCCCC[C@H](O)CC(=O)CCc1ccc(O)c(OC)c1
REMARK SMILES IDX 8 1 6 2 7 3 5 5 4 6 3 7 2 8 1 9 9 10 10 11 11 12 12 13 13 14
REMARK SMILES IDX 21 15 14 16 18 17 15 18 16 19 19 20 20 21 17 22
REMARK H PARENT 7 4 17 23
REMARK Flexibility Score: inf
ROOT
ATOM      1  C   UNL     1      96.461  81.854  77.818  1.00  0.00     0.107 C 
ENDROOT
BRANCH   1   2
ATOM      2  C   UNL     1      97.904  81.879  78.329  1.00  0.00     0.121 C 
BRANCH   2   3
ATOM      3  O   UNL     1      97.926  82.293  79.693  1.00  0.00    -0.393 OA
ATOM      4  H   UNL     1      97.185  82.909  79.829  1.00  0.00     0.210 HD
ENDBRANCH   2   3
BRANCH   2   5
ATOM      5  C   UNL     1      98.609  80.523  78.202  1.00  0.00     0.032 C 
BRANCH   5   6
ATOM      6  C   UNL     1      98.128  79.736  76.976  1.00  0.00     0.003 C 
BRANCH   6   7
ATOM      7  C   UNL     1      99.214  79.548  75.912  1.00  0.00    -0.000 C 
BRANCH   7   8
ATOM      8  C   UNL     1     100.217  80.699  75.851  1.00  0.00    -0.003 C 
ATOM      9  C   UNL     1     101.363  80.386  74.901  1.00  0.00     0.004 C 
ENDBRANCH   7   8
ENDBRANCH   6   7
ENDBRANCH   5   6
ENDBRANCH   2   5
ENDBRANCH   1   2
BRANCH   1  10
ATOM     10  C   UNL     1      96.189  82.903  76.753  1.00  0.00     0.135 C 
ATOM     11  O   UNL     1      95.216  83.653  76.837  1.00  0.00    -0.300 OA
BRANCH  10  12
ATOM     12  C   UNL     1      97.198  83.003  75.619  1.00  0.00     0.080 C 
BRANCH  12  13
ATOM     13  C   UNL     1      96.730  82.345  74.320  1.00  0.00     0.043 C 
BRANCH  13  14
ATOM     14  C   UNL     1      97.866  82.010  73.383  1.00  0.00    -0.044 A 
ATOM     15  C   UNL     1      98.873  82.946  73.145  1.00  0.00     0.054 A 
ATOM     16  C   UNL     1      97.908  80.765  72.755  1.00  0.00     0.008 A 
ATOM     17  C   UNL     1      99.923  82.635  72.280  1.00  0.00     0.160 A 
ATOM     18  C   UNL     1      98.958  80.454  71.891  1.00  0.00     0.050 A 
ATOM     19  C   UNL     1      99.965  81.389  71.653  1.00  0.00     0.157 A 
BRANCH  17  20
ATOM     20  O   UNL     1     100.901  83.557  72.055  1.00  0.00    -0.493 OA
ATOM     21  C   UNL     1     101.882  83.723  73.077  1.00  0.00     0.278 C 
ENDBRANCH  17  20
BRANCH  19  22
ATOM     22  O   UNL     1     100.985  81.075  70.807  1.00  0.00    -0.504 OA
ATOM     23  H   UNL     1     101.146  80.116  70.848  1.00  0.00     0.293 HD
ENDBRANCH  19  22
ENDBRANCH  13  14
ENDBRANCH  12  13
ENDBRANCH  10  12
ENDBRANCH   1  10
TORSDOF 12
ENDMDL
MODEL 8
REMARK VINA RESULT:    -5.539     13.247     15.635
REMARK INTER + INTRA:          -9.844
REMARK INTER:                  -8.890
REMARK INTRA:                  -0.954
REMARK UNBOUND:                -0.743
REMARK SMILES CCCCC[C@H](O)CC(=O)CCc1ccc(O)c(OC)c1
REMARK SMILES IDX 8 1 6 2 7 3 5 5 4 6 3 7 2 8 1 9 9 10 10 11 11 12 12 13 13 14
REMARK SMILES IDX 21 15 14 16 18 17 15 18 16 19 19 20 20 21 17 22
REMARK H PARENT 7 4 17 23
REMARK Flexibility Score: inf
ROOT
ATOM      1  C   UNL     1      98.859  77.788  80.587  1.00  0.00     0.107 C 
ENDROOT
BRANCH   1   2
ATOM      2  C   UNL     1      97.462  78.315  80.927  1.00  0.00     0.121 C 
BRANCH   2   3
ATOM      3  O   UNL     1      96.659  77.256  81.442  1.00  0.00    -0.393 OA
ATOM      4  H   UNL     1      96.973  77.053  82.341  1.00  0.00     0.210 HD
ENDBRANCH   2   3
BRANCH   2   5
ATOM      5  C   UNL     1      97.486  79.468  81.938  1.00  0.00     0.032 C 
BRANCH   5   6
ATOM      6  C   UNL     1      96.127  79.664  82.621  1.00  0.00     0.003 C 
BRANCH   6   7
ATOM      7  C   UNL     1      95.842  81.122  82.996  1.00  0.00    -0.000 C 
BRANCH   7   8
ATOM      8  C   UNL     1      96.529  82.135  82.082  1.00  0.00    -0.003 C 
ATOM      9  C   UNL     1      96.592  83.511  82.728  1.00  0.00     0.004 C 
ENDBRANCH   7   8
ENDBRANCH   6   7
ENDBRANCH   5   6
ENDBRANCH   2   5
ENDBRANCH   1   2
BRANCH   1  10
ATOM     10  C   UNL     1      99.514  78.537  79.438  1.00  0.00     0.135 C 
ATOM     11  O   UNL     1     100.732  78.491  79.266  1.00  0.00    -0.300 OA
BRANCH  10  12
ATOM     12  C   UNL     1      98.587  79.297  78.502  1.00  0.00     0.080 C 
BRANCH  12  13
ATOM     13  C   UNL     1      98.772  80.815  78.553  1.00  0.00     0.043 C 
BRANCH  13  14
ATOM     14  C   UNL     1      97.870  81.554  77.592  1.00  0.00    -0.044 A 
ATOM     15  C   UNL     1      98.208  81.636  76.242  1.00  0.00     0.054 A 
ATOM     16  C   UNL     1      96.699  82.153  78.057  1.00  0.00     0.008 A 
ATOM     17  C   UNL     1      97.374  82.318  75.355  1.00  0.00     0.160 A 
ATOM     18  C   UNL     1      95.865  82.835  77.171  1.00  0.00     0.050 A 
ATOM     19  C   UNL     1      96.203  82.917  75.820  1.00  0.00     0.157 A 
BRANCH  17  20
ATOM     20  O   UNL     1      97.714  82.392  74.038  1.00  0.00    -0.493 OA
ATOM     21  C   UNL     1      98.682  83.374  73.673  1.00  0.00     0.278 C 
ENDBRANCH  17  20
BRANCH  19  22
ATOM     22  O   UNL     1      95.381  83.586  74.964  1.00  0.00    -0.504 OA
ATOM     23  H   UNL     1      95.199  84.470  75.325  1.00  0.00     0.293 HD
ENDBRANCH  19  22
ENDBRANCH  13  14
ENDBRANCH  12  13
ENDBRANCH  10  12
ENDBRANCH   1  10
TORSDOF 12
ENDMDL
MODEL 9
REMARK VINA RESULT:    -5.448      2.922      6.886
REMARK INTER + INTRA:          -9.696
REMARK INTER:                  -8.850
REMARK INTRA:                  -0.845
REMARK UNBOUND:                -0.743
REMARK SMILES CCCCC[C@H](O)CC(=O)CCc1ccc(O)c(OC)c1
REMARK SMILES IDX 8 1 6 2 7 3 5 5 4 6 3 7 2 8 1 9 9 10 10 11 11 12 12 13 13 14
REMARK SMILES IDX 21 15 14 16 18 17 15 18 16 19 19 20 20 21 17 22
REMARK H PARENT 7 4 17 23
REMARK Flexibility Score: inf
ROOT
ATOM      1  C   UNL     1      96.036  96.985  74.401  1.00  0.00     0.107 C 
ENDROOT
BRANCH   1   2
ATOM      2  C   UNL     1      94.712  97.709  74.146  1.00  0.00     0.121 C 
BRANCH   2   3
ATOM      3  O   UNL     1      94.662  98.162  72.795  1.00  0.00    -0.393 OA
ATOM      4  H   UNL     1      93.737  98.103  72.495  1.00  0.00     0.210 HD
ENDBRANCH   2   3
BRANCH   2   5
ATOM      5  C   UNL     1      93.485  96.834  74.431  1.00  0.00     0.032 C 
BRANCH   5   6
ATOM      6  C   UNL     1      93.600  96.100  75.772  1.00  0.00     0.003 C 
BRANCH   6   7
ATOM      7  C   UNL     1      92.589  94.959  75.928  1.00  0.00    -0.000 C 
BRANCH   7   8
ATOM      8  C   UNL     1      91.644  95.137  77.114  1.00  0.00    -0.003 C 
ATOM      9  C   UNL     1      90.604  94.028  77.165  1.00  0.00     0.004 C 
ENDBRANCH   7   8
ENDBRANCH   6   7
ENDBRANCH   5   6
ENDBRANCH   2   5
ENDBRANCH   1   2
BRANCH   1  10
ATOM     10  C   UNL     1      96.835  97.589  75.544  1.00  0.00     0.135 C 
ATOM     11  O   UNL     1      97.155  98.778  75.534  1.00  0.00    -0.300 OA
BRANCH  10  12
ATOM     12  C   UNL     1      97.171  96.665  76.704  1.00  0.00     0.080 C 
BRANCH  12  13
ATOM     13  C   UNL     1      97.641  97.400  77.961  1.00  0.00     0.043 C 
BRANCH  13  14
ATOM     14  C   UNL     1      97.011  96.870  79.227  1.00  0.00    -0.044 A 
ATOM     15  C   UNL     1      96.361  95.636  79.219  1.00  0.00     0.054 A 
ATOM     16  C   UNL     1      97.081  97.615  80.405  1.00  0.00     0.008 A 
ATOM     17  C   UNL     1      95.781  95.147  80.390  1.00  0.00     0.160 A 
ATOM     18  C   UNL     1      96.501  97.125  81.575  1.00  0.00     0.050 A 
ATOM     19  C   UNL     1      95.851  95.891  81.567  1.00  0.00     0.157 A 
BRANCH  17  20
ATOM     20  O   UNL     1      95.148  93.941  80.370  1.00  0.00    -0.493 OA
ATOM     21  C   UNL     1      95.810  92.872  79.696  1.00  0.00     0.278 C 
ENDBRANCH  17  20
BRANCH  19  22
ATOM     22  O   UNL     1      95.288  95.424  82.716  1.00  0.00    -0.504 OA
ATOM     23  H   UNL     1      95.541  94.493  82.837  1.00  0.00     0.293 HD
ENDBRANCH  19  22
ENDBRANCH  13  14
ENDBRANCH  12  13
ENDBRANCH  10  12
ENDBRANCH   1  10
TORSDOF 12
ENDMDL
MODEL 10
REMARK VINA RESULT:    -5.301      4.258      6.284
REMARK INTER + INTRA:          -9.453
REMARK INTER:                  -8.583
REMARK INTRA:                  -0.870
REMARK UNBOUND:                -0.743
REMARK SMILES CCCCC[C@H](O)CC(=O)CCc1ccc(O)c(OC)c1
REMARK SMILES IDX 8 1 6 2 7 3 5 5 4 6 3 7 2 8 1 9 9 10 10 11 11 12 12 13 13 14
REMARK SMILES IDX 21 15 14 16 18 17 15 18 16 19 19 20 20 21 17 22
REMARK H PARENT 7 4 17 23
REMARK Flexibility Score: inf
ROOT
ATOM      1  C   UNL     1      93.321  97.992  74.040  1.00  0.00     0.107 C 
ENDROOT
BRANCH   1   2
ATOM      2  C   UNL     1      94.302  96.822  74.152  1.00  0.00     0.121 C 
BRANCH   2   3
ATOM      3  O   UNL     1      95.641  97.311  74.158  1.00  0.00    -0.393 OA
ATOM      4  H   UNL     1      96.158  96.770  73.537  1.00  0.00     0.210 HD
ENDBRANCH   2   3
BRANCH   2   5
ATOM      5  C   UNL     1      94.072  95.965  75.403  1.00  0.00     0.032 C 
BRANCH   5   6
ATOM      6  C   UNL     1      92.597  95.941  75.823  1.00  0.00     0.003 C 
BRANCH   6   7
ATOM      7  C   UNL     1      92.386  95.483  77.270  1.00  0.00    -0.000 C 
BRANCH   7   8
ATOM      8  C   UNL     1      92.467  93.968  77.450  1.00  0.00    -0.003 C 
ATOM      9  C   UNL     1      93.532  93.587  78.467  1.00  0.00     0.004 C 
ENDBRANCH   7   8
ENDBRANCH   6   7
ENDBRANCH   5   6
ENDBRANCH   2   5
ENDBRANCH   1   2
BRANCH   1  10
ATOM     10  C   UNL     1      93.874  99.157  73.235  1.00  0.00     0.135 C 
ATOM     11  O   UNL     1      94.656  99.961  73.742  1.00  0.00    -0.300 OA
BRANCH  10  12
ATOM     12  C   UNL     1      93.448  99.243  71.778  1.00  0.00     0.080 C 
BRANCH  12  13
ATOM     13  C   UNL     1      92.187 100.080  71.554  1.00  0.00     0.043 C 
BRANCH  13  14
ATOM     14  C   UNL     1      91.286  99.517  70.481  1.00  0.00    -0.044 A 
ATOM     15  C   UNL     1      91.308 100.059  69.196  1.00  0.00     0.054 A 
ATOM     16  C   UNL     1      90.432  98.454  70.775  1.00  0.00     0.008 A 
ATOM     17  C   UNL     1      90.475  99.538  68.206  1.00  0.00     0.160 A 
ATOM     18  C   UNL     1      89.599  97.932  69.785  1.00  0.00     0.050 A 
ATOM     19  C   UNL     1      89.621  98.475  68.500  1.00  0.00     0.157 A 
BRANCH  17  20
ATOM     20  O   UNL     1      90.505 100.076  66.954  1.00  0.00    -0.493 OA
ATOM     21  C   UNL     1      89.772 101.283  66.751  1.00  0.00     0.278 C 
ENDBRANCH  17  20
BRANCH  19  22
ATOM     22  O   UNL     1      88.804  97.957  67.541  1.00  0.00    -0.504 OA
ATOM     23  H   UNL     1      87.949  97.729  67.943  1.00  0.00     0.293 HD
ENDBRANCH  19  22
ENDBRANCH  13  14
ENDBRANCH  12  13
ENDBRANCH  10  12
ENDBRANCH   1  10
TORSDOF 12
ENDMDL
