MODEL 1
REMARK VINA RESULT:    -5.786      0.000      0.000
REMARK INTER + INTRA:          -9.817
REMARK INTER:                  -9.000
REMARK INTRA:                  -0.817
REMARK UNBOUND:                -0.817
REMARK SMILES CCCCC/C=C/C(=O)CCc1ccc(O)c(OC)c1
REMARK SMILES IDX 6 1 7 2 8 3 9 4 10 5 11 6 12 7 17 8 20 9 15 10 14 11 13 12
REMARK SMILES IDX 18 13 19 14 16 15 5 17 4 18 3 19 2 20 1 21
REMARK H PARENT 16 16
REMARK Flexibility Score: inf
ROOT
ATOM      1  C   UNL     1      96.162  82.255  83.290  1.00  0.00    -0.023 C 
ATOM      2  C   UNL     1      96.401  81.039  82.785  1.00  0.00     0.043 C 
ENDROOT
BRANCH   2   3
ATOM      3  C   UNL     1      97.022  80.903  81.439  1.00  0.00     0.155 C 
ATOM      4  O   UNL     1      97.143  79.811  80.887  1.00  0.00    -0.295 OA
BRANCH   3   5
ATOM      5  C   UNL     1      97.546  82.177  80.805  1.00  0.00     0.085 C 
BRANCH   5   6
ATOM      6  C   UNL     1      98.256  81.887  79.481  1.00  0.00     0.044 C 
BRANCH   6   7
ATOM      7  C   UNL     1      97.716  82.706  78.333  1.00  0.00    -0.044 A 
ATOM      8  C   UNL     1      97.870  83.435  76.052  1.00  0.00     0.160 A 
ATOM      9  C   UNL     1      98.370  82.679  77.112  1.00  0.00     0.054 A 
ATOM     10  C   UNL     1      96.724  84.209  76.227  1.00  0.00     0.157 A 
ATOM     11  C   UNL     1      96.076  84.227  77.463  1.00  0.00     0.050 A 
ATOM     12  C   UNL     1      96.576  83.470  78.523  1.00  0.00     0.008 A 
BRANCH   8  13
ATOM     13  O   UNL     1      98.512  83.410  74.851  1.00  0.00    -0.493 OA
ATOM     14  C   UNL     1      99.665  84.238  74.714  1.00  0.00     0.278 C 
ENDBRANCH   8  13
BRANCH  10  15
ATOM     15  O   UNL     1      96.226  84.952  75.199  1.00  0.00    -0.504 OA
ATOM     16  H   UNL     1      96.953  85.146  74.582  1.00  0.00     0.293 HD
ENDBRANCH  10  15
ENDBRANCH   6   7
ENDBRANCH   5   6
ENDBRANCH   3   5
ENDBRANCH   2   3
BRANCH   1  17
ATOM     17  C   UNL     1      95.539  82.476  84.638  1.00  0.00     0.027 C 
BRANCH  17  18
ATOM     18  C   UNL     1      94.110  83.022  84.558  1.00  0.00     0.004 C 
BRANCH  18  19
ATOM     19  C   UNL     1      93.051  81.940  84.327  1.00  0.00     0.000 C 
BRANCH  19  20
ATOM     20  C   UNL     1      92.876  81.065  85.569  1.00  0.00    -0.003 C 
ATOM     21  C   UNL     1      92.737  79.596  85.202  1.00  0.00     0.004 C 
ENDBRANCH  19  20
ENDBRANCH  18  19
ENDBRANCH  17  18
ENDBRANCH   1  17
TORSDOF 10
ENDMDL
MODEL 2
REMARK VINA RESULT:    -5.494     22.930     24.786
REMARK INTER + INTRA:          -9.361
REMARK INTER:                  -8.748
REMARK INTRA:                  -0.613
REMARK UNBOUND:                -0.817
REMARK SMILES CCCCC/C=C/C(=O)CCc1ccc(O)c(OC)c1
REMARK SMILES IDX 6 1 7 2 8 3 9 4 10 5 11 6 12 7 17 8 20 9 15 10 14 11 13 12
REMARK SMILES IDX 18 13 19 14 16 15 5 17 4 18 3 19 2 20 1 21
REMARK H PARENT 16 16
REMARK Flexibility Score: inf
ROOT
ATOM      1  C   UNL     1      74.992  89.989  70.021  1.00  0.00    -0.023 C 
ATOM      2  C   UNL     1      74.109  90.983  70.179  1.00  0.00     0.043 C 
ENDROOT
BRANCH   2   3
ATOM      3  C   UNL     1      73.843  91.531  71.537  1.00  0.00     0.155 C 
ATOM      4  O   UNL     1      73.056  90.990  72.311  1.00  0.00    -0.295 OA
BRANCH   3   5
ATOM      5  C   UNL     1      74.553  92.821  71.896  1.00  0.00     0.085 C 
BRANCH   5   6
ATOM      6  C   UNL     1      74.188  93.281  73.309  1.00  0.00     0.044 C 
BRANCH   6   7
ATOM      7  C   UNL     1      75.392  93.696  74.121  1.00  0.00    -0.044 A 
ATOM      8  C   UNL     1      77.651  94.498  74.219  1.00  0.00     0.160 A 
ATOM      9  C   UNL     1      76.540  94.114  73.468  1.00  0.00     0.054 A 
ATOM     10  C   UNL     1      77.600  94.458  75.612  1.00  0.00     0.157 A 
ATOM     11  C   UNL     1      76.436  94.035  76.255  1.00  0.00     0.050 A 
ATOM     12  C   UNL     1      75.325  93.651  75.504  1.00  0.00     0.008 A 
BRANCH   8  13
ATOM     13  O   UNL     1      78.782  94.909  73.579  1.00  0.00    -0.493 OA
ATOM     14  C   UNL     1      78.730  96.173  72.919  1.00  0.00     0.278 C 
ENDBRANCH   8  13
BRANCH  10  15
ATOM     15  O   UNL     1      78.679  94.831  76.356  1.00  0.00    -0.504 OA
ATOM     16  H   UNL     1      79.457  94.348  76.028  1.00  0.00     0.293 HD
ENDBRANCH  10  15
ENDBRANCH   6   7
ENDBRANCH   5   6
ENDBRANCH   3   5
ENDBRANCH   2   3
BRANCH   1  17
ATOM     17  C   UNL     1      75.315  89.382  68.687  1.00  0.00     0.027 C 
BRANCH  17  18
ATOM     18  C   UNL     1      76.820  89.213  68.452  1.00  0.00     0.004 C 
BRANCH  18  19
ATOM     19  C   UNL     1      77.207  87.827  67.928  1.00  0.00     0.000 C 
BRANCH  19  20
ATOM     20  C   UNL     1      76.847  86.735  68.936  1.00  0.00    -0.003 C 
ATOM     21  C   UNL     1      76.074  85.602  68.279  1.00  0.00     0.004 C 
ENDBRANCH  19  20
ENDBRANCH  18  19
ENDBRANCH  17  18
ENDBRANCH   1  17
TORSDOF 10
ENDMDL
MODEL 3
REMARK VINA RESULT:    -5.476      1.938      7.919
REMARK INTER + INTRA:          -9.334
REMARK INTER:                  -7.940
REMARK INTRA:                  -1.394
REMARK UNBOUND:                -0.817
REMARK SMILES CCCCC/C=C/C(=O)CCc1ccc(O)c(OC)c1
REMARK SMILES IDX 6 1 7 2 8 3 9 4 10 5 11 6 12 7 17 8 20 9 15 10 14 11 13 12
REMARK SMILES IDX 18 13 19 14 16 15 5 17 4 18 3 19 2 20 1 21
REMARK H PARENT 16 16
REMARK Flexibility Score: inf
ROOT
ATOM      1  C   UNL     1      99.413  83.924  75.478  1.00  0.00    -0.023 C 
ATOM      2  C   UNL     1      98.429  83.264  76.101  1.00  0.00     0.043 C 
ENDROOT
BRANCH   2   3
ATOM      3  C   UNL     1      97.199  83.989  76.519  1.00  0.00     0.155 C 
ATOM      4  O   UNL     1      96.681  84.851  75.812  1.00  0.00    -0.295 OA
BRANCH   3   5
ATOM      5  C   UNL     1      96.645  83.648  77.889  1.00  0.00     0.085 C 
BRANCH   5   6
ATOM      6  C   UNL     1      97.769  83.445  78.907  1.00  0.00     0.044 C 
BRANCH   6   7
ATOM      7  C   UNL     1      97.473  82.342  79.896  1.00  0.00    -0.044 A 
ATOM      8  C   UNL     1      96.740  81.650  82.074  1.00  0.00     0.160 A 
ATOM      9  C   UNL     1      97.014  82.670  81.161  1.00  0.00     0.054 A 
ATOM     10  C   UNL     1      96.930  80.318  81.710  1.00  0.00     0.157 A 
ATOM     11  C   UNL     1      97.394  80.004  80.431  1.00  0.00     0.050 A 
ATOM     12  C   UNL     1      97.668  81.023  79.519  1.00  0.00     0.008 A 
BRANCH   8  13
ATOM     13  O   UNL     1      96.288  81.970  83.319  1.00  0.00    -0.493 OA
ATOM     14  C   UNL     1      95.618  83.220  83.464  1.00  0.00     0.278 C 
ENDBRANCH   8  13
BRANCH  10  15
ATOM     15  O   UNL     1      96.667  79.314  82.591  1.00  0.00    -0.504 OA
ATOM     16  H   UNL     1      97.507  79.030  82.990  1.00  0.00     0.293 HD
ENDBRANCH  10  15
ENDBRANCH   6   7
ENDBRANCH   5   6
ENDBRANCH   3   5
ENDBRANCH   2   3
BRANCH   1  17
ATOM     17  C   UNL     1     100.684  83.266  75.026  1.00  0.00     0.027 C 
BRANCH  17  18
ATOM     18  C   UNL     1     101.397  82.499  76.145  1.00  0.00     0.004 C 
BRANCH  18  19
ATOM     19  C   UNL     1     101.165  80.986  76.096  1.00  0.00     0.000 C 
BRANCH  19  20
ATOM     20  C   UNL     1     100.757  80.446  77.468  1.00  0.00    -0.003 C 
ATOM     21  C   UNL     1     101.117  81.418  78.579  1.00  0.00     0.004 C 
ENDBRANCH  19  20
ENDBRANCH  18  19
ENDBRANCH  17  18
ENDBRANCH   1  17
TORSDOF 10
ENDMDL
MODEL 4
REMARK VINA RESULT:    -5.432     14.488     17.988
REMARK INTER + INTRA:          -9.265
REMARK INTER:                  -8.445
REMARK INTRA:                  -0.820
REMARK UNBOUND:                -0.817
REMARK SMILES CCCCC/C=C/C(=O)CCc1ccc(O)c(OC)c1
REMARK SMILES IDX 6 1 7 2 8 3 9 4 10 5 11 6 12 7 17 8 20 9 15 10 14 11 13 12
REMARK SMILES IDX 18 13 19 14 16 15 5 17 4 18 3 19 2 20 1 21
REMARK H PARENT 16 16
REMARK Flexibility Score: inf
ROOT
ATOM      1  C   UNL     1      94.088  99.994  72.029  1.00  0.00    -0.023 C 
ATOM      2  C   UNL     1      93.784  98.787  72.523  1.00  0.00     0.043 C 
ENDROOT
BRANCH   2   3
ATOM      3  C   UNL     1      94.736  97.656  72.356  1.00  0.00     0.155 C 
ATOM      4  O   UNL     1      95.328  97.457  71.297  1.00  0.00    -0.295 OA
BRANCH   3   5
ATOM      5  C   UNL     1      94.898  96.727  73.543  1.00  0.00     0.085 C 
BRANCH   5   6
ATOM      6  C   UNL     1      94.311  97.342  74.814  1.00  0.00     0.044 C 
BRANCH   6   7
ATOM      7  C   UNL     1      93.486  96.362  75.615  1.00  0.00    -0.044 A 
ATOM      8  C   UNL     1      92.025  94.461  75.695  1.00  0.00     0.160 A 
ATOM      9  C   UNL     1      92.786  95.366  74.954  1.00  0.00     0.054 A 
ATOM     10  C   UNL     1      91.973  94.564  77.084  1.00  0.00     0.157 A 
ATOM     11  C   UNL     1      92.684  95.574  77.735  1.00  0.00     0.050 A 
ATOM     12  C   UNL     1      93.445  96.479  76.995  1.00  0.00     0.008 A 
BRANCH   8  13
ATOM     13  O   UNL     1      91.335  93.479  75.048  1.00  0.00    -0.493 OA
ATOM     14  C   UNL     1      90.016  93.796  74.607  1.00  0.00     0.278 C 
ENDBRANCH   8  13
BRANCH  10  15
ATOM     15  O   UNL     1      91.234  93.687  77.818  1.00  0.00    -0.504 OA
ATOM     16  H   UNL     1      90.491  94.172  78.216  1.00  0.00     0.293 HD
ENDBRANCH  10  15
ENDBRANCH   6   7
ENDBRANCH   5   6
ENDBRANCH   3   5
ENDBRANCH   2   3
BRANCH   1  17
ATOM     17  C   UNL     1      93.183 101.184  72.156  1.00  0.00     0.027 C 
BRANCH  17  18
ATOM     18  C   UNL     1      92.908 101.579  73.611  1.00  0.00     0.004 C 
BRANCH  18  19
ATOM     19  C   UNL     1      91.767 102.589  73.768  1.00  0.00     0.000 C 
BRANCH  19  20
ATOM     20  C   UNL     1      90.413 101.941  73.475  1.00  0.00    -0.003 C 
ATOM     21  C   UNL     1      89.484 102.899  72.745  1.00  0.00     0.004 C 
ENDBRANCH  19  20
ENDBRANCH  18  19
ENDBRANCH  17  18
ENDBRANCH   1  17
TORSDOF 10
ENDMDL
MODEL 5
REMARK VINA RESULT:    -5.285      4.283      7.561
REMARK INTER + INTRA:          -9.037
REMARK INTER:                  -7.912
REMARK INTRA:                  -1.126
REMARK UNBOUND:                -0.817
REMARK SMILES CCCCC/C=C/C(=O)CCc1ccc(O)c(OC)c1
REMARK SMILES IDX 6 1 7 2 8 3 9 4 10 5 11 6 12 7 17 8 20 9 15 10 14 11 13 12
REMARK SMILES IDX 18 13 19 14 16 15 5 17 4 18 3 19 2 20 1 21
REMARK H PARENT 16 16
REMARK Flexibility Score: inf
ROOT
ATOM      1  C   UNL     1      97.265  83.963  76.760  1.00  0.00    -0.023 C 
ATOM      2  C   UNL     1      96.518  83.612  77.815  1.00  0.00     0.043 C 
ENDROOT
BRANCH   2   3
ATOM      3  C   UNL     1      97.165  83.016  79.015  1.00  0.00     0.155 C 
ATOM      4  O   UNL     1      97.265  83.635  80.073  1.00  0.00    -0.295 OA
BRANCH   3   5
ATOM      5  C   UNL     1      97.741  81.623  78.852  1.00  0.00     0.085 C 
BRANCH   5   6
ATOM      6  C   UNL     1      99.082  81.489  79.575  1.00  0.00     0.044 C 
BRANCH   6   7
ATOM      7  C   UNL     1     100.259  81.461  78.629  1.00  0.00    -0.044 A 
ATOM      8  C   UNL     1     101.132  81.615  76.399  1.00  0.00     0.160 A 
ATOM      9  C   UNL     1     100.044  81.640  77.272  1.00  0.00     0.054 A 
ATOM     10  C   UNL     1     102.420  81.410  76.894  1.00  0.00     0.157 A 
ATOM     11  C   UNL     1     102.620  81.229  78.263  1.00  0.00     0.050 A 
ATOM     12  C   UNL     1     101.532  81.255  79.136  1.00  0.00     0.008 A 
BRANCH   8  13
ATOM     13  O   UNL     1     100.924  81.792  75.064  1.00  0.00    -0.493 OA
ATOM     14  C   UNL     1     100.394  80.684  74.339  1.00  0.00     0.278 C 
ENDBRANCH   8  13
BRANCH  10  15
ATOM     15  O   UNL     1     103.490  81.383  76.052  1.00  0.00    -0.504 OA
ATOM     16  H   UNL     1     103.990  82.209  76.168  1.00  0.00     0.293 HD
ENDBRANCH  10  15
ENDBRANCH   6   7
ENDBRANCH   5   6
ENDBRANCH   3   5
ENDBRANCH   2   3
BRANCH   1  17
ATOM     17  C   UNL     1      96.689  84.568  75.513  1.00  0.00     0.027 C 
BRANCH  17  18
ATOM     18  C   UNL     1      97.703  84.663  74.367  1.00  0.00     0.004 C 
BRANCH  18  19
ATOM     19  C   UNL     1      97.793  83.389  73.521  1.00  0.00     0.000 C 
BRANCH  19  20
ATOM     20  C   UNL     1      98.911  83.494  72.483  1.00  0.00    -0.003 C 
ATOM     21  C   UNL     1      99.640  84.825  72.582  1.00  0.00     0.004 C 
ENDBRANCH  19  20
ENDBRANCH  18  19
ENDBRANCH  17  18
ENDBRANCH   1  17
TORSDOF 10
ENDMDL
MODEL 6
REMARK VINA RESULT:    -5.191      5.248      6.698
REMARK INTER + INTRA:          -8.891
REMARK INTER:                  -6.948
REMARK INTRA:                  -1.943
REMARK UNBOUND:                -0.817
REMARK SMILES CCCCC/C=C/C(=O)CCc1ccc(O)c(OC)c1
REMARK SMILES IDX 6 1 7 2 8 3 9 4 10 5 11 6 12 7 17 8 20 9 15 10 14 11 13 12
REMARK SMILES IDX 18 13 19 14 16 15 5 17 4 18 3 19 2 20 1 21
REMARK H PARENT 16 16
REMARK Flexibility Score: inf
ROOT
ATOM      1  C   UNL     1      93.194  78.716  85.017  1.00  0.00    -0.023 C 
ATOM      2  C   UNL     1      94.097  78.258  84.141  1.00  0.00     0.043 C 
ENDROOT
BRANCH   2   3
ATOM      3  C   UNL     1      95.487  77.975  84.588  1.00  0.00     0.155 C 
ATOM      4  O   UNL     1      95.749  77.040  85.343  1.00  0.00    -0.295 OA
BRANCH   3   5
ATOM      5  C   UNL     1      96.560  78.932  84.107  1.00  0.00     0.085 C 
BRANCH   5   6
ATOM      6  C   UNL     1      95.986  79.971  83.143  1.00  0.00     0.044 C 
BRANCH   6   7
ATOM      7  C   UNL     1      96.173  81.389  83.629  1.00  0.00    -0.044 A 
ATOM      8  C   UNL     1      96.574  82.931  85.424  1.00  0.00     0.160 A 
ATOM      9  C   UNL     1      96.401  81.621  84.976  1.00  0.00     0.054 A 
ATOM     10  C   UNL     1      96.516  83.991  84.520  1.00  0.00     0.157 A 
ATOM     11  C   UNL     1      96.285  83.741  83.166  1.00  0.00     0.050 A 
ATOM     12  C   UNL     1      96.112  82.431  82.718  1.00  0.00     0.008 A 
BRANCH   8  13
ATOM     13  O   UNL     1      96.798  83.162  86.748  1.00  0.00    -0.493 OA
ATOM     14  C   UNL     1      98.077  82.797  87.262  1.00  0.00     0.278 C 
ENDBRANCH   8  13
BRANCH  10  15
ATOM     15  O   UNL     1      96.684  85.274  84.944  1.00  0.00    -0.504 OA
ATOM     16  H   UNL     1      95.805  85.660  85.105  1.00  0.00     0.293 HD
ENDBRANCH  10  15
ENDBRANCH   6   7
ENDBRANCH   5   6
ENDBRANCH   3   5
ENDBRANCH   2   3
BRANCH   1  17
ATOM     17  C   UNL     1      91.773  79.026  84.644  1.00  0.00     0.027 C 
BRANCH  17  18
ATOM     18  C   UNL     1      91.388  80.486  84.902  1.00  0.00     0.004 C 
BRANCH  18  19
ATOM     19  C   UNL     1      92.202  81.490  84.079  1.00  0.00     0.000 C 
BRANCH  19  20
ATOM     20  C   UNL     1      92.712  82.636  84.954  1.00  0.00    -0.003 C 
ATOM     21  C   UNL     1      93.014  82.165  86.368  1.00  0.00     0.004 C 
ENDBRANCH  19  20
ENDBRANCH  18  19
ENDBRANCH  17  18
ENDBRANCH   1  17
TORSDOF 10
ENDMDL
MODEL 7
REMARK VINA RESULT:    -5.124      2.420      8.600
REMARK INTER + INTRA:          -8.786
REMARK INTER:                  -8.083
REMARK INTRA:                  -0.703
REMARK UNBOUND:                -0.817
REMARK SMILES CCCCC/C=C/C(=O)CCc1ccc(O)c(OC)c1
REMARK SMILES IDX 6 1 7 2 8 3 9 4 10 5 11 6 12 7 17 8 20 9 15 10 14 11 13 12
REMARK SMILES IDX 18 13 19 14 16 15 5 17 4 18 3 19 2 20 1 21
REMARK H PARENT 16 16
REMARK Flexibility Score: inf
ROOT
ATOM      1  C   UNL     1      96.950  83.024  78.456  1.00  0.00    -0.023 C 
ATOM      2  C   UNL     1      96.884  83.424  79.732  1.00  0.00     0.043 C 
ENDROOT
BRANCH   2   3
ATOM      3  C   UNL     1      97.032  82.431  80.830  1.00  0.00     0.155 C 
ATOM      4  O   UNL     1      97.447  81.292  80.623  1.00  0.00    -0.295 OA
BRANCH   3   5
ATOM      5  C   UNL     1      96.593  82.879  82.211  1.00  0.00     0.085 C 
BRANCH   5   6
ATOM      6  C   UNL     1      96.655  81.726  83.214  1.00  0.00     0.044 C 
BRANCH   6   7
ATOM      7  C   UNL     1      95.312  81.412  83.831  1.00  0.00    -0.044 A 
ATOM      8  C   UNL     1      93.797  79.828  84.806  1.00  0.00     0.160 A 
ATOM      9  C   UNL     1      95.037  80.116  84.235  1.00  0.00     0.054 A 
ATOM     10  C   UNL     1      92.849  80.838  84.965  1.00  0.00     0.157 A 
ATOM     11  C   UNL     1      93.142  82.139  84.552  1.00  0.00     0.050 A 
ATOM     12  C   UNL     1      94.382  82.428  83.982  1.00  0.00     0.008 A 
BRANCH   8  13
ATOM     13  O   UNL     1      93.523  78.554  85.204  1.00  0.00    -0.493 OA
ATOM     14  C   UNL     1      93.207  77.609  84.184  1.00  0.00     0.278 C 
ENDBRANCH   8  13
BRANCH  10  15
ATOM     15  O   UNL     1      91.635  80.569  85.521  1.00  0.00    -0.504 OA
ATOM     16  H   UNL     1      90.946  80.940  84.944  1.00  0.00     0.293 HD
ENDBRANCH  10  15
ENDBRANCH   6   7
ENDBRANCH   5   6
ENDBRANCH   3   5
ENDBRANCH   2   3
BRANCH   1  17
ATOM     17  C   UNL     1      96.811  83.962  77.293  1.00  0.00     0.027 C 
BRANCH  17  18
ATOM     18  C   UNL     1      97.539  83.475  76.036  1.00  0.00     0.004 C 
BRANCH  18  19
ATOM     19  C   UNL     1      99.059  83.654  76.099  1.00  0.00     0.000 C 
BRANCH  19  20
ATOM     20  C   UNL     1      99.783  82.403  75.600  1.00  0.00    -0.003 C 
ATOM     21  C   UNL     1      99.279  81.151  76.301  1.00  0.00     0.004 C 
ENDBRANCH  19  20
ENDBRANCH  18  19
ENDBRANCH  17  18
ENDBRANCH   1  17
TORSDOF 10
ENDMDL
MODEL 8
REMARK VINA RESULT:    -5.115      2.396      9.026
REMARK INTER + INTRA:          -8.772
REMARK INTER:                  -8.226
REMARK INTRA:                  -0.547
REMARK UNBOUND:                -0.817
REMARK SMILES CCCCC/C=C/C(=O)CCc1ccc(O)c(OC)c1
REMARK SMILES IDX 6 1 7 2 8 3 9 4 10 5 11 6 12 7 17 8 20 9 15 10 14 11 13 12
REMARK SMILES IDX 18 13 19 14 16 15 5 17 4 18 3 19 2 20 1 21
REMARK H PARENT 16 16
REMARK Flexibility Score: inf
ROOT
ATOM      1  C   UNL     1      97.404  83.500  76.289  1.00  0.00    -0.023 C 
ATOM      2  C   UNL     1      96.955  83.865  77.496  1.00  0.00     0.043 C 
ENDROOT
BRANCH   2   3
ATOM      3  C   UNL     1      97.502  83.217  78.719  1.00  0.00     0.155 C 
ATOM      4  O   UNL     1      98.445  82.429  78.669  1.00  0.00    -0.295 OA
BRANCH   3   5
ATOM      5  C   UNL     1      96.802  83.536  80.025  1.00  0.00     0.085 C 
BRANCH   5   6
ATOM      6  C   UNL     1      97.062  82.454  81.074  1.00  0.00     0.044 C 
BRANCH   6   7
ATOM      7  C   UNL     1      96.384  82.739  82.393  1.00  0.00    -0.044 A 
ATOM      8  C   UNL     1      95.312  81.947  84.389  1.00  0.00     0.160 A 
ATOM      9  C   UNL     1      95.937  81.682  83.170  1.00  0.00     0.054 A 
ATOM     10  C   UNL     1      95.141  83.264  84.814  1.00  0.00     0.157 A 
ATOM     11  C   UNL     1      95.596  84.318  84.020  1.00  0.00     0.050 A 
ATOM     12  C   UNL     1      96.221  84.053  82.801  1.00  0.00     0.008 A 
BRANCH   8  13
ATOM     13  O   UNL     1      94.872  80.910  85.155  1.00  0.00    -0.493 OA
ATOM     14  C   UNL     1      93.689  80.240  84.722  1.00  0.00     0.278 C 
ENDBRANCH   8  13
BRANCH  10  15
ATOM     15  O   UNL     1      94.533  83.535  86.002  1.00  0.00    -0.504 OA
ATOM     16  H   UNL     1      93.847  84.207  85.847  1.00  0.00     0.293 HD
ENDBRANCH  10  15
ENDBRANCH   6   7
ENDBRANCH   5   6
ENDBRANCH   3   5
ENDBRANCH   2   3
BRANCH   1  17
ATOM     17  C   UNL     1      96.904  84.105  75.010  1.00  0.00     0.027 C 
BRANCH  17  18
ATOM     18  C   UNL     1      98.012  84.766  74.183  1.00  0.00     0.004 C 
BRANCH  18  19
ATOM     19  C   UNL     1      99.423  84.330  74.588  1.00  0.00     0.000 C 
BRANCH  19  20
ATOM     20  C   UNL     1     100.479  84.963  73.680  1.00  0.00    -0.003 C 
ATOM     21  C   UNL     1      99.961  85.137  72.261  1.00  0.00     0.004 C 
ENDBRANCH  19  20
ENDBRANCH  18  19
ENDBRANCH  17  18
ENDBRANCH   1  17
TORSDOF 10
ENDMDL
MODEL 9
REMARK VINA RESULT:    -5.056     23.114     24.746
REMARK INTER + INTRA:          -8.681
REMARK INTER:                  -8.097
REMARK INTRA:                  -0.584
REMARK UNBOUND:                -0.817
REMARK SMILES CCCCC/C=C/C(=O)CCc1ccc(O)c(OC)c1
REMARK SMILES IDX 6 1 7 2 8 3 9 4 10 5 11 6 12 7 17 8 20 9 15 10 14 11 13 12
REMARK SMILES IDX 18 13 19 14 16 15 5 17 4 18 3 19 2 20 1 21
REMARK H PARENT 16 16
REMARK Flexibility Score: inf
ROOT
ATOM      1  C   UNL     1      73.809  91.647  72.035  1.00  0.00    -0.023 C 
ATOM      2  C   UNL     1      72.988  90.708  71.548  1.00  0.00     0.043 C 
ENDROOT
BRANCH   2   3
ATOM      3  C   UNL     1      73.410  89.887  70.380  1.00  0.00     0.155 C 
ATOM      4  O   UNL     1      72.620  89.168  69.773  1.00  0.00    -0.295 OA
BRANCH   3   5
ATOM      5  C   UNL     1      74.880  89.943  70.011  1.00  0.00     0.085 C 
BRANCH   5   6
ATOM      6  C   UNL     1      75.086  89.696  68.515  1.00  0.00     0.044 C 
BRANCH   6   7
ATOM      7  C   UNL     1      75.831  88.414  68.229  1.00  0.00    -0.044 A 
ATOM      8  C   UNL     1      76.688  86.301  68.978  1.00  0.00     0.160 A 
ATOM      9  C   UNL     1      76.000  87.485  69.243  1.00  0.00     0.054 A 
ATOM     10  C   UNL     1      77.198  86.061  67.702  1.00  0.00     0.157 A 
ATOM     11  C   UNL     1      77.021  87.007  66.691  1.00  0.00     0.050 A 
ATOM     12  C   UNL     1      76.333  88.191  66.957  1.00  0.00     0.008 A 
BRANCH   8  13
ATOM     13  O   UNL     1      76.855  85.386  69.974  1.00  0.00    -0.493 OA
ATOM     14  C   UNL     1      75.833  84.404  70.130  1.00  0.00     0.278 C 
ENDBRANCH   8  13
BRANCH  10  15
ATOM     15  O   UNL     1      77.871  84.909  67.431  1.00  0.00    -0.504 OA
ATOM     16  H   UNL     1      78.597  85.116  66.817  1.00  0.00     0.293 HD
ENDBRANCH  10  15
ENDBRANCH   6   7
ENDBRANCH   5   6
ENDBRANCH   3   5
ENDBRANCH   2   3
BRANCH   1  17
ATOM     17  C   UNL     1      73.457  92.516  73.207  1.00  0.00     0.027 C 
BRANCH  17  18
ATOM     18  C   UNL     1      72.810  91.739  74.359  1.00  0.00     0.004 C 
BRANCH  18  19
ATOM     19  C   UNL     1      73.580  91.846  75.680  1.00  0.00     0.000 C 
BRANCH  19  20
ATOM     20  C   UNL     1      72.625  91.860  76.875  1.00  0.00    -0.003 C 
ATOM     21  C   UNL     1      73.379  91.992  78.188  1.00  0.00     0.004 C 
ENDBRANCH  19  20
ENDBRANCH  18  19
ENDBRANCH  17  18
ENDBRANCH   1  17
TORSDOF 10
ENDMDL
MODEL 10
REMARK VINA RESULT:    -5.040     22.924     24.853
REMARK INTER + INTRA:          -8.655
REMARK INTER:                  -8.130
REMARK INTRA:                  -0.524
REMARK UNBOUND:                -0.817
REMARK SMILES CCCCC/C=C/C(=O)CCc1ccc(O)c(OC)c1
REMARK SMILES IDX 6 1 7 2 8 3 9 4 10 5 11 6 12 7 17 8 20 9 15 10 14 11 13 12
REMARK SMILES IDX 18 13 19 14 16 15 5 17 4 18 3 19 2 20 1 21
REMARK H PARENT 16 16
REMARK Flexibility Score: inf
ROOT
ATOM      1  C   UNL     1      73.444  92.990  72.302  1.00  0.00    -0.023 C 
ATOM      2  C   UNL     1      73.827  91.737  72.029  1.00  0.00     0.043 C 
ENDROOT
BRANCH   2   3
ATOM      3  C   UNL     1      73.071  90.930  71.033  1.00  0.00     0.155 C 
ATOM      4  O   UNL     1      71.915  91.205  70.719  1.00  0.00    -0.295 OA
BRANCH   3   5
ATOM      5  C   UNL     1      73.783  89.719  70.463  1.00  0.00     0.085 C 
BRANCH   5   6
ATOM      6  C   UNL     1      74.834  90.127  69.430  1.00  0.00     0.044 C 
BRANCH   6   7
ATOM      7  C   UNL     1      75.684  88.967  68.967  1.00  0.00    -0.044 A 
ATOM      8  C   UNL     1      76.076  86.603  68.842  1.00  0.00     0.160 A 
ATOM      9  C   UNL     1      75.291  87.674  69.271  1.00  0.00     0.054 A 
ATOM     10  C   UNL     1      77.244  86.840  68.117  1.00  0.00     0.157 A 
ATOM     11  C   UNL     1      77.626  88.148  67.820  1.00  0.00     0.050 A 
ATOM     12  C   UNL     1      76.841  89.219  68.248  1.00  0.00     0.008 A 
BRANCH   8  13
ATOM     13  O   UNL     1      75.692  85.330  69.140  1.00  0.00    -0.493 OA
ATOM     14  C   UNL     1      76.051  84.827  70.425  1.00  0.00     0.278 C 
ENDBRANCH   8  13
BRANCH  10  15
ATOM     15  O   UNL     1      78.018  85.803  67.694  1.00  0.00    -0.504 OA
ATOM     16  H   UNL     1      78.509  85.455  68.458  1.00  0.00     0.293 HD
ENDBRANCH  10  15
ENDBRANCH   6   7
ENDBRANCH   5   6
ENDBRANCH   3   5
ENDBRANCH   2   3
BRANCH   1  17
ATOM     17  C   UNL     1      74.153  93.868  73.292  1.00  0.00     0.027 C 
BRANCH  17  18
ATOM     18  C   UNL     1      75.676  93.700  73.263  1.00  0.00     0.004 C 
BRANCH  18  19
ATOM     19  C   UNL     1      76.433  95.009  73.021  1.00  0.00     0.000 C 
BRANCH  19  20
ATOM     20  C   UNL     1      77.482  95.250  74.108  1.00  0.00    -0.003 C 
ATOM     21  C   UNL     1      78.679  96.015  73.568  1.00  0.00     0.004 C 
ENDBRANCH  19  20
ENDBRANCH  18  19
ENDBRANCH  17  18
ENDBRANCH   1  17
TORSDOF 10
ENDMDL
