MODEL 1
REMARK VINA RESULT:    -6.057      0.000      0.000
REMARK INTER + INTRA:         -10.443
REMARK INTER:                  -9.420
REMARK INTRA:                  -1.023
REMARK UNBOUND:                -1.023
REMARK SMILES COc1cc(CNC(=O)CCCCCC(C)C)ccc1O
REMARK SMILES IDX 10 1 8 2 7 3 9 5 6 6 5 7 3 8 20 9 4 10 19 11 18 12 2 13 1 14
REMARK SMILES IDX 21 15 11 17 12 18 13 19 14 20 15 21 16 22 17 23
REMARK H PARENT 7 4 21 16
REMARK Flexibility Score: inf
ROOT
ATOM      1  C   UNL     1      96.174  97.834  75.448  1.00  0.00     0.100 C 
ENDROOT
BRANCH   1   2
ATOM      2  C   UNL     1      96.021  98.685  76.646  1.00  0.00     0.220 C 
ATOM      3  N   UNL     1      96.228  98.146  77.881  1.00  0.00    -0.352 N 
ATOM      4  H   UNL     1      96.348  97.144  77.893  1.00  0.00     0.163 HD
ATOM      5  O   UNL     1      95.743  99.900  76.499  1.00  0.00    -0.275 OA
BRANCH   3   6
ATOM      6  C   UNL     1      96.284  98.886  79.101  1.00  0.00     0.151 C 
BRANCH   6   7
ATOM      7  C   UNL     1      95.856  98.093  80.285  1.00  0.00    -0.025 A 
ATOM      8  C   UNL     1      94.977  96.009  81.251  1.00  0.00     0.160 A 
ATOM      9  C   UNL     1      95.103  96.558  82.545  1.00  0.00     0.157 A 
ATOM     10  C   UNL     1      95.336  96.786  80.129  1.00  0.00     0.056 A 
ATOM     11  C   UNL     1      95.593  97.867  82.710  1.00  0.00     0.050 A 
ATOM     12  C   UNL     1      95.972  98.626  81.590  1.00  0.00     0.009 A 
BRANCH   8  13
ATOM     13  O   UNL     1      94.483  94.744  81.068  1.00  0.00    -0.493 OA
ATOM     14  C   UNL     1      95.428  93.831  80.478  1.00  0.00     0.278 C 
ENDBRANCH   8  13
BRANCH   9  15
ATOM     15  O   UNL     1      94.758  95.821  83.630  1.00  0.00    -0.504 OA
ATOM     16  H   UNL     1      94.648  96.399  84.388  1.00  0.00     0.293 HD
ENDBRANCH   9  15
ENDBRANCH   6   7
ENDBRANCH   3   6
ENDBRANCH   1   2
BRANCH   1  17
ATOM     17  C   UNL     1      94.843  97.246  74.908  1.00  0.00     0.010 C 
BRANCH  17  18
ATOM     18  C   UNL     1      94.312  96.102  75.816  1.00  0.00     0.001 C 
BRANCH  18  19
ATOM     19  C   UNL     1      92.898  96.377  76.392  1.00  0.00     0.000 C 
BRANCH  19  20
ATOM     20  C   UNL     1      92.758  95.891  77.864  1.00  0.00     0.003 C 
BRANCH  20  21
ATOM     21  C   UNL     1      91.534  94.956  78.136  1.00  0.00    -0.017 C 
ATOM     22  C   UNL     1      91.808  93.516  77.611  1.00  0.00     0.007 C 
ATOM     23  C   UNL     1      90.209  95.503  77.530  1.00  0.00     0.007 C 
ENDBRANCH  20  21
ENDBRANCH  19  20
ENDBRANCH  18  19
ENDBRANCH  17  18
ENDBRANCH   1  17
TORSDOF 10
ENDMDL
MODEL 2
REMARK VINA RESULT:    -5.871     23.416     27.090
REMARK INTER + INTRA:         -10.154
REMARK INTER:                  -9.085
REMARK INTRA:                  -1.070
REMARK UNBOUND:                -1.023
REMARK SMILES COc1cc(CNC(=O)CCCCCC(C)C)ccc1O
REMARK SMILES IDX 10 1 8 2 7 3 9 5 6 6 5 7 3 8 20 9 4 10 19 11 18 12 2 13 1 14
REMARK SMILES IDX 21 15 11 17 12 18 13 19 14 20 15 21 16 22 17 23
REMARK H PARENT 7 4 21 16
REMARK Flexibility Score: inf
ROOT
ATOM      1  C   UNL     1      77.548  85.279  65.966  1.00  0.00     0.100 C 
ENDROOT
BRANCH   1   2
ATOM      2  C   UNL     1      77.481  83.968  65.287  1.00  0.00     0.220 C 
ATOM      3  N   UNL     1      77.262  82.843  66.024  1.00  0.00    -0.352 N 
ATOM      4  H   UNL     1      77.292  82.977  67.025  1.00  0.00     0.163 HD
ATOM      5  O   UNL     1      77.585  83.924  64.037  1.00  0.00    -0.275 OA
BRANCH   3   6
ATOM      6  C   UNL     1      77.004  81.545  65.486  1.00  0.00     0.151 C 
BRANCH   6   7
ATOM      7  C   UNL     1      75.602  81.376  65.016  1.00  0.00    -0.025 A 
ATOM      8  C   UNL     1      73.182  81.512  65.431  1.00  0.00     0.160 A 
ATOM      9  C   UNL     1      72.934  81.119  64.099  1.00  0.00     0.157 A 
ATOM     10  C   UNL     1      74.514  81.620  65.886  1.00  0.00     0.056 A 
ATOM     11  C   UNL     1      74.009  80.848  63.233  1.00  0.00     0.050 A 
ATOM     12  C   UNL     1      75.332  80.981  63.685  1.00  0.00     0.009 A 
BRANCH   8  13
ATOM     13  O   UNL     1      72.150  81.761  66.297  1.00  0.00    -0.493 OA
ATOM     14  C   UNL     1      71.976  83.157  66.609  1.00  0.00     0.278 C 
ENDBRANCH   8  13
BRANCH   9  15
ATOM     15  O   UNL     1      71.658  81.009  63.652  1.00  0.00    -0.504 OA
ATOM     16  H   UNL     1      71.140  81.749  63.979  1.00  0.00     0.293 HD
ENDBRANCH   9  15
ENDBRANCH   6   7
ENDBRANCH   3   6
ENDBRANCH   1   2
BRANCH   1  17
ATOM     17  C   UNL     1      77.471  85.200  67.515  1.00  0.00     0.010 C 
BRANCH  17  18
ATOM     18  C   UNL     1      77.996  86.502  68.181  1.00  0.00     0.001 C 
BRANCH  18  19
ATOM     19  C   UNL     1      77.638  86.611  69.687  1.00  0.00     0.000 C 
BRANCH  19  20
ATOM     20  C   UNL     1      76.163  87.052  69.911  1.00  0.00     0.003 C 
BRANCH  20  21
ATOM     21  C   UNL     1      75.206  85.924  70.415  1.00  0.00    -0.017 C 
ATOM     22  C   UNL     1      76.015  84.684  70.899  1.00  0.00     0.007 C 
ATOM     23  C   UNL     1      74.160  85.494  69.345  1.00  0.00     0.007 C 
ENDBRANCH  20  21
ENDBRANCH  19  20
ENDBRANCH  18  19
ENDBRANCH  17  18
ENDBRANCH   1  17
TORSDOF 10
ENDMDL
MODEL 3
REMARK VINA RESULT:    -5.198     24.355     28.063
REMARK INTER + INTRA:          -9.108
REMARK INTER:                  -8.369
REMARK INTRA:                  -0.739
REMARK UNBOUND:                -1.023
REMARK SMILES COc1cc(CNC(=O)CCCCCC(C)C)ccc1O
REMARK SMILES IDX 10 1 8 2 7 3 9 5 6 6 5 7 3 8 20 9 4 10 19 11 18 12 2 13 1 14
REMARK SMILES IDX 21 15 11 17 12 18 13 19 14 20 15 21 16 22 17 23
REMARK H PARENT 7 4 21 16
REMARK Flexibility Score: inf
ROOT
ATOM      1  C   UNL     1      77.286  83.794  65.000  1.00  0.00     0.100 C 
ENDROOT
BRANCH   1   2
ATOM      2  C   UNL     1      76.521  82.834  64.177  1.00  0.00     0.220 C 
ATOM      3  N   UNL     1      75.936  81.758  64.775  1.00  0.00    -0.352 N 
ATOM      4  H   UNL     1      76.184  81.623  65.744  1.00  0.00     0.163 HD
ATOM      5  O   UNL     1      76.392  83.054  62.948  1.00  0.00    -0.275 OA
BRANCH   3   6
ATOM      6  C   UNL     1      75.032  80.855  64.137  1.00  0.00     0.151 C 
BRANCH   6   7
ATOM      7  C   UNL     1      73.623  81.332  64.148  1.00  0.00    -0.025 A 
ATOM      8  C   UNL     1      71.602  81.981  65.390  1.00  0.00     0.160 A 
ATOM      9  C   UNL     1      70.962  82.305  64.174  1.00  0.00     0.157 A 
ATOM     10  C   UNL     1      72.921  81.479  65.368  1.00  0.00     0.056 A 
ATOM     11  C   UNL     1      71.642  82.137  62.954  1.00  0.00     0.050 A 
ATOM     12  C   UNL     1      72.964  81.660  62.941  1.00  0.00     0.009 A 
BRANCH   8  13
ATOM     13  O   UNL     1      70.951  82.118  66.587  1.00  0.00    -0.493 OA
ATOM     14  C   UNL     1      71.266  83.339  67.285  1.00  0.00     0.278 C 
ENDBRANCH   8  13
BRANCH   9  15
ATOM     15  O   UNL     1      69.694  82.785  64.184  1.00  0.00    -0.504 OA
ATOM     16  H   UNL     1      69.420  82.950  65.089  1.00  0.00     0.293 HD
ENDBRANCH   9  15
ENDBRANCH   6   7
ENDBRANCH   3   6
ENDBRANCH   1   2
BRANCH   1  17
ATOM     17  C   UNL     1      77.401  83.401  66.498  1.00  0.00     0.010 C 
BRANCH  17  18
ATOM     18  C   UNL     1      78.157  84.483  67.317  1.00  0.00     0.001 C 
BRANCH  18  19
ATOM     19  C   UNL     1      77.822  84.456  68.832  1.00  0.00     0.000 C 
BRANCH  19  20
ATOM     20  C   UNL     1      77.679  85.886  69.429  1.00  0.00     0.003 C 
BRANCH  20  21
ATOM     21  C   UNL     1      76.210  86.403  69.561  1.00  0.00    -0.017 C 
ATOM     22  C   UNL     1      76.184  87.932  69.855  1.00  0.00     0.007 C 
ATOM     23  C   UNL     1      75.394  85.637  70.643  1.00  0.00     0.007 C 
ENDBRANCH  20  21
ENDBRANCH  19  20
ENDBRANCH  18  19
ENDBRANCH  17  18
ENDBRANCH   1  17
TORSDOF 10
ENDMDL
MODEL 4
REMARK VINA RESULT:    -5.167     13.471     15.212
REMARK INTER + INTRA:          -9.060
REMARK INTER:                  -8.315
REMARK INTRA:                  -0.745
REMARK UNBOUND:                -1.023
REMARK SMILES COc1cc(CNC(=O)CCCCCC(C)C)ccc1O
REMARK SMILES IDX 10 1 8 2 7 3 9 5 6 6 5 7 3 8 20 9 4 10 19 11 18 12 2 13 1 14
REMARK SMILES IDX 21 15 11 17 12 18 13 19 14 20 15 21 16 22 17 23
REMARK H PARENT 7 4 21 16
REMARK Flexibility Score: inf
ROOT
ATOM      1  C   UNL     1      98.281  82.556  79.618  1.00  0.00     0.100 C 
ENDROOT
BRANCH   1   2
ATOM      2  C   UNL     1      98.810  82.845  80.967  1.00  0.00     0.220 C 
ATOM      3  N   UNL     1      98.209  82.288  82.056  1.00  0.00    -0.352 N 
ATOM      4  H   UNL     1      97.341  81.809  81.863  1.00  0.00     0.163 HD
ATOM      5  O   UNL     1      99.832  83.567  81.079  1.00  0.00    -0.275 OA
BRANCH   3   6
ATOM      6  C   UNL     1      98.714  82.341  83.390  1.00  0.00     0.151 C 
BRANCH   6   7
ATOM      7  C   UNL     1      97.716  82.843  84.373  1.00  0.00    -0.025 A 
ATOM      8  C   UNL     1      96.301  82.478  86.351  1.00  0.00     0.160 A 
ATOM      9  C   UNL     1      95.866  83.818  86.285  1.00  0.00     0.157 A 
ATOM     10  C   UNL     1      97.208  81.993  85.384  1.00  0.00     0.056 A 
ATOM     11  C   UNL     1      96.344  84.664  85.267  1.00  0.00     0.050 A 
ATOM     12  C   UNL     1      97.266  84.183  84.322  1.00  0.00     0.009 A 
BRANCH   8  13
ATOM     13  O   UNL     1      95.832  81.632  87.322  1.00  0.00    -0.493 OA
ATOM     14  C   UNL     1      95.561  80.298  86.850  1.00  0.00     0.278 C 
ENDBRANCH   8  13
BRANCH   9  15
ATOM     15  O   UNL     1      94.992  84.293  87.207  1.00  0.00    -0.504 OA
ATOM     16  H   UNL     1      95.450  84.888  87.805  1.00  0.00     0.293 HD
ENDBRANCH   9  15
ENDBRANCH   6   7
ENDBRANCH   3   6
ENDBRANCH   1   2
BRANCH   1  17
ATOM     17  C   UNL     1      97.235  83.584  79.109  1.00  0.00     0.010 C 
BRANCH  17  18
ATOM     18  C   UNL     1      97.611  84.137  77.706  1.00  0.00     0.001 C 
BRANCH  18  19
ATOM     19  C   UNL     1      98.746  83.338  77.013  1.00  0.00     0.000 C 
BRANCH  19  20
ATOM     20  C   UNL     1      98.213  82.439  75.860  1.00  0.00     0.003 C 
BRANCH  20  21
ATOM     21  C   UNL     1      98.960  81.076  75.686  1.00  0.00    -0.017 C 
ATOM     22  C   UNL     1      98.433  80.310  74.437  1.00  0.00     0.007 C 
ATOM     23  C   UNL     1      98.865  80.170  76.948  1.00  0.00     0.007 C 
ENDBRANCH  20  21
ENDBRANCH  19  20
ENDBRANCH  18  19
ENDBRANCH  17  18
ENDBRANCH   1  17
TORSDOF 10
ENDMDL
MODEL 5
REMARK VINA RESULT:    -5.153     13.564     15.211
REMARK INTER + INTRA:          -9.037
REMARK INTER:                  -8.508
REMARK INTRA:                  -0.529
REMARK UNBOUND:                -1.023
REMARK SMILES COc1cc(CNC(=O)CCCCCC(C)C)ccc1O
REMARK SMILES IDX 10 1 8 2 7 3 9 5 6 6 5 7 3 8 20 9 4 10 19 11 18 12 2 13 1 14
REMARK SMILES IDX 21 15 11 17 12 18 13 19 14 20 15 21 16 22 17 23
REMARK H PARENT 7 4 21 16
REMARK Flexibility Score: inf
ROOT
ATOM      1  C   UNL     1      96.715  83.193  84.882  1.00  0.00     0.100 C 
ENDROOT
BRANCH   1   2
ATOM      2  C   UNL     1      96.638  84.250  85.912  1.00  0.00     0.220 C 
ATOM      3  N   UNL     1      95.443  84.853  86.165  1.00  0.00    -0.352 N 
ATOM      4  H   UNL     1      94.702  84.617  85.520  1.00  0.00     0.163 HD
ATOM      5  O   UNL     1      97.671  84.541  86.563  1.00  0.00    -0.275 OA
BRANCH   3   6
ATOM      6  C   UNL     1      95.190  85.757  87.241  1.00  0.00     0.151 C 
BRANCH   6   7
ATOM      7  C   UNL     1      94.041  85.346  88.092  1.00  0.00    -0.025 A 
ATOM      8  C   UNL     1      92.762  85.534  90.184  1.00  0.00     0.160 A 
ATOM      9  C   UNL     1      91.816  84.612  89.686  1.00  0.00     0.157 A 
ATOM     10  C   UNL     1      93.877  85.880  89.392  1.00  0.00     0.056 A 
ATOM     11  C   UNL     1      91.983  84.054  88.405  1.00  0.00     0.050 A 
ATOM     12  C   UNL     1      93.083  84.422  87.612  1.00  0.00     0.009 A 
BRANCH   8  13
ATOM     13  O   UNL     1      92.628  86.073  91.436  1.00  0.00    -0.493 OA
ATOM     14  C   UNL     1      92.375  87.492  91.435  1.00  0.00     0.278 C 
ENDBRANCH   8  13
BRANCH   9  15
ATOM     15  O   UNL     1      90.741  84.271  90.440  1.00  0.00    -0.504 OA
ATOM     16  H   UNL     1      90.975  84.315  91.370  1.00  0.00     0.293 HD
ENDBRANCH   9  15
ENDBRANCH   6   7
ENDBRANCH   3   6
ENDBRANCH   1   2
BRANCH   1  17
ATOM     17  C   UNL     1      97.733  83.481  83.747  1.00  0.00     0.010 C 
BRANCH  17  18
ATOM     18  C   UNL     1      98.447  82.184  83.276  1.00  0.00     0.001 C 
BRANCH  18  19
ATOM     19  C   UNL     1      99.045  82.293  81.848  1.00  0.00     0.000 C 
BRANCH  19  20
ATOM     20  C   UNL     1      98.192  83.208  80.922  1.00  0.00     0.003 C 
BRANCH  20  21
ATOM     21  C   UNL     1      98.293  82.880  79.396  1.00  0.00    -0.017 C 
ATOM     22  C   UNL     1      99.767  82.975  78.904  1.00  0.00     0.007 C 
ATOM     23  C   UNL     1      97.378  83.787  78.522  1.00  0.00     0.007 C 
ENDBRANCH  20  21
ENDBRANCH  19  20
ENDBRANCH  18  19
ENDBRANCH  17  18
ENDBRANCH   1  17
TORSDOF 10
ENDMDL
MODEL 6
REMARK VINA RESULT:    -5.143     13.567     16.710
REMARK INTER + INTRA:          -9.022
REMARK INTER:                  -8.408
REMARK INTRA:                  -0.613
REMARK UNBOUND:                -1.023
REMARK SMILES COc1cc(CNC(=O)CCCCCC(C)C)ccc1O
REMARK SMILES IDX 10 1 8 2 7 3 9 5 6 6 5 7 3 8 20 9 4 10 19 11 18 12 2 13 1 14
REMARK SMILES IDX 21 15 11 17 12 18 13 19 14 20 15 21 16 22 17 23
REMARK H PARENT 7 4 21 16
REMARK Flexibility Score: inf
ROOT
ATOM      1  C   UNL     1      95.422  84.608  87.179  1.00  0.00     0.100 C 
ENDROOT
BRANCH   1   2
ATOM      2  C   UNL     1      94.291  84.084  87.973  1.00  0.00     0.220 C 
ATOM      3  N   UNL     1      93.020  84.226  87.503  1.00  0.00    -0.352 N 
ATOM      4  H   UNL     1      92.932  84.812  86.685  1.00  0.00     0.163 HD
ATOM      5  O   UNL     1      94.530  83.479  89.046  1.00  0.00    -0.275 OA
BRANCH   3   6
ATOM      6  C   UNL     1      91.860  83.621  88.075  1.00  0.00     0.151 C 
BRANCH   6   7
ATOM      7  C   UNL     1      91.310  82.514  87.246  1.00  0.00    -0.025 A 
ATOM      8  C   UNL     1      89.393  81.385  86.197  1.00  0.00     0.160 A 
ATOM      9  C   UNL     1      90.269  80.445  85.614  1.00  0.00     0.157 A 
ATOM     10  C   UNL     1      89.917  82.402  87.024  1.00  0.00     0.056 A 
ATOM     11  C   UNL     1      91.653  80.531  85.851  1.00  0.00     0.050 A 
ATOM     12  C   UNL     1      92.171  81.560  86.656  1.00  0.00     0.009 A 
BRANCH   8  13
ATOM     13  O   UNL     1      88.040  81.308  85.995  1.00  0.00    -0.493 OA
ATOM     14  C   UNL     1      87.507  82.389  85.206  1.00  0.00     0.278 C 
ENDBRANCH   8  13
BRANCH   9  15
ATOM     15  O   UNL     1      89.776  79.462  84.820  1.00  0.00    -0.504 OA
ATOM     16  H   UNL     1      89.404  78.765  85.365  1.00  0.00     0.293 HD
ENDBRANCH   9  15
ENDBRANCH   6   7
ENDBRANCH   3   6
ENDBRANCH   1   2
BRANCH   1  17
ATOM     17  C   UNL     1      96.320  85.621  87.938  1.00  0.00     0.010 C 
BRANCH  17  18
ATOM     18  C   UNL     1      95.625  87.003  88.086  1.00  0.00     0.001 C 
BRANCH  18  19
ATOM     19  C   UNL     1      95.207  87.330  89.544  1.00  0.00     0.000 C 
BRANCH  19  20
ATOM     20  C   UNL     1      95.600  88.777  89.959  1.00  0.00     0.003 C 
BRANCH  20  21
ATOM     21  C   UNL     1      94.425  89.808  89.950  1.00  0.00    -0.017 C 
ATOM     22  C   UNL     1      94.961  91.260  89.779  1.00  0.00     0.007 C 
ATOM     23  C   UNL     1      93.529  89.716  91.220  1.00  0.00     0.007 C 
ENDBRANCH  20  21
ENDBRANCH  19  20
ENDBRANCH  18  19
ENDBRANCH  17  18
ENDBRANCH   1  17
TORSDOF 10
ENDMDL
MODEL 7
REMARK VINA RESULT:    -5.027     40.242     43.375
REMARK INTER + INTRA:          -8.841
REMARK INTER:                  -7.832
REMARK INTRA:                  -1.009
REMARK UNBOUND:                -1.023
REMARK SMILES COc1cc(CNC(=O)CCCCCC(C)C)ccc1O
REMARK SMILES IDX 10 1 8 2 7 3 9 5 6 6 5 7 3 8 20 9 4 10 19 11 18 12 2 13 1 14
REMARK SMILES IDX 21 15 11 17 12 18 13 19 14 20 15 21 16 22 17 23
REMARK H PARENT 7 4 21 16
REMARK Flexibility Score: inf
ROOT
ATOM      1  C   UNL     1      61.423  66.434  81.330  1.00  0.00     0.100 C 
ENDROOT
BRANCH   1   2
ATOM      2  C   UNL     1      61.705  65.493  80.226  1.00  0.00     0.220 C 
ATOM      3  N   UNL     1      62.207  65.969  79.052  1.00  0.00    -0.352 N 
ATOM      4  H   UNL     1      62.227  66.976  78.976  1.00  0.00     0.163 HD
ATOM      5  O   UNL     1      61.515  64.266  80.409  1.00  0.00    -0.275 OA
BRANCH   3   6
ATOM      6  C   UNL     1      62.683  65.162  77.975  1.00  0.00     0.151 C 
BRANCH   6   7
ATOM      7  C   UNL     1      64.113  64.778  78.121  1.00  0.00    -0.025 A 
ATOM      8  C   UNL     1      66.312  65.104  79.172  1.00  0.00     0.160 A 
ATOM      9  C   UNL     1      66.819  64.005  78.448  1.00  0.00     0.157 A 
ATOM     10  C   UNL     1      64.969  65.496  78.990  1.00  0.00     0.056 A 
ATOM     11  C   UNL     1      65.985  63.300  77.561  1.00  0.00     0.050 A 
ATOM     12  C   UNL     1      64.641  63.680  77.402  1.00  0.00     0.009 A 
BRANCH   8  13
ATOM     13  O   UNL     1      67.114  65.816  80.026  1.00  0.00    -0.493 OA
ATOM     14  C   UNL     1      66.831  65.583  81.419  1.00  0.00     0.278 C 
ENDBRANCH   8  13
BRANCH   9  15
ATOM     15  O   UNL     1      68.110  63.622  78.614  1.00  0.00    -0.504 OA
ATOM     16  H   UNL     1      68.387  63.095  77.861  1.00  0.00     0.293 HD
ENDBRANCH   9  15
ENDBRANCH   6   7
ENDBRANCH   3   6
ENDBRANCH   1   2
BRANCH   1  17
ATOM     17  C   UNL     1      62.536  66.504  82.410  1.00  0.00     0.010 C 
BRANCH  17  18
ATOM     18  C   UNL     1      63.510  67.686  82.153  1.00  0.00     0.001 C 
BRANCH  18  19
ATOM     19  C   UNL     1      62.868  69.078  82.398  1.00  0.00     0.000 C 
BRANCH  19  20
ATOM     20  C   UNL     1      63.819  70.243  81.998  1.00  0.00     0.003 C 
BRANCH  20  21
ATOM     21  C   UNL     1      63.389  71.038  80.722  1.00  0.00    -0.017 C 
ATOM     22  C   UNL     1      62.061  70.472  80.137  1.00  0.00     0.007 C 
ATOM     23  C   UNL     1      64.490  71.060  79.623  1.00  0.00     0.007 C 
ENDBRANCH  20  21
ENDBRANCH  19  20
ENDBRANCH  18  19
ENDBRANCH  17  18
ENDBRANCH   1  17
TORSDOF 10
ENDMDL
MODEL 8
REMARK VINA RESULT:    -5.002     33.352     35.422
REMARK INTER + INTRA:          -8.802
REMARK INTER:                  -7.684
REMARK INTRA:                  -1.119
REMARK UNBOUND:                -1.023
REMARK SMILES COc1cc(CNC(=O)CCCCCC(C)C)ccc1O
REMARK SMILES IDX 10 1 8 2 7 3 9 5 6 6 5 7 3 8 20 9 4 10 19 11 18 12 2 13 1 14
REMARK SMILES IDX 21 15 11 17 12 18 13 19 14 20 15 21 16 22 17 23
REMARK H PARENT 7 4 21 16
REMARK Flexibility Score: inf
ROOT
ATOM      1  C   UNL     1      59.302  85.796  70.766  1.00  0.00     0.100 C 
ENDROOT
BRANCH   1   2
ATOM      2  C   UNL     1      59.324  86.091  72.214  1.00  0.00     0.220 C 
ATOM      3  N   UNL     1      59.863  85.182  73.074  1.00  0.00    -0.352 N 
ATOM      4  H   UNL     1      60.098  84.292  72.660  1.00  0.00     0.163 HD
ATOM      5  O   UNL     1      58.881  87.194  72.617  1.00  0.00    -0.275 OA
BRANCH   3   6
ATOM      6  C   UNL     1      60.105  85.409  74.463  1.00  0.00     0.151 C 
BRANCH   6   7
ATOM      7  C   UNL     1      61.350  84.758  74.953  1.00  0.00    -0.025 A 
ATOM      8  C   UNL     1      63.332  84.771  76.409  1.00  0.00     0.160 A 
ATOM      9  C   UNL     1      63.685  83.490  75.936  1.00  0.00     0.157 A 
ATOM     10  C   UNL     1      62.178  85.405  75.901  1.00  0.00     0.056 A 
ATOM     11  C   UNL     1      62.884  82.848  74.973  1.00  0.00     0.050 A 
ATOM     12  C   UNL     1      61.722  83.475  74.490  1.00  0.00     0.009 A 
BRANCH   8  13
ATOM     13  O   UNL     1      64.110  85.421  77.331  1.00  0.00    -0.493 OA
ATOM     14  C   UNL     1      63.560  85.416  78.663  1.00  0.00     0.278 C 
ENDBRANCH   8  13
BRANCH   9  15
ATOM     15  O   UNL     1      64.794  82.872  76.415  1.00  0.00    -0.504 OA
ATOM     16  H   UNL     1      64.576  81.972  76.668  1.00  0.00     0.293 HD
ENDBRANCH   9  15
ENDBRANCH   6   7
ENDBRANCH   3   6
ENDBRANCH   1   2
BRANCH   1  17
ATOM     17  C   UNL     1      59.880  84.405  70.389  1.00  0.00     0.010 C 
BRANCH  17  18
ATOM     18  C   UNL     1      61.322  84.519  69.821  1.00  0.00     0.001 C 
BRANCH  18  19
ATOM     19  C   UNL     1      62.422  84.154  70.852  1.00  0.00     0.000 C 
BRANCH  19  20
ATOM     20  C   UNL     1      62.881  82.673  70.722  1.00  0.00     0.003 C 
BRANCH  20  21
ATOM     21  C   UNL     1      64.270  82.470  70.032  1.00  0.00    -0.017 C 
ATOM     22  C   UNL     1      64.105  81.785  68.643  1.00  0.00     0.007 C 
ATOM     23  C   UNL     1      65.269  81.663  70.911  1.00  0.00     0.007 C 
ENDBRANCH  20  21
ENDBRANCH  19  20
ENDBRANCH  18  19
ENDBRANCH  17  18
ENDBRANCH   1  17
TORSDOF 10
ENDMDL
MODEL 9
REMARK VINA RESULT:    -4.993     13.409     16.060
REMARK INTER + INTRA:          -8.789
REMARK INTER:                  -8.193
REMARK INTRA:                  -0.597
REMARK UNBOUND:                -1.023
REMARK SMILES COc1cc(CNC(=O)CCCCCC(C)C)ccc1O
REMARK SMILES IDX 10 1 8 2 7 3 9 5 6 6 5 7 3 8 20 9 4 10 19 11 18 12 2 13 1 14
REMARK SMILES IDX 21 15 11 17 12 18 13 19 14 20 15 21 16 22 17 23
REMARK H PARENT 7 4 21 16
REMARK Flexibility Score: inf
ROOT
ATOM      1  C   UNL     1      97.905  82.756  79.410  1.00  0.00     0.100 C 
ENDROOT
BRANCH   1   2
ATOM      2  C   UNL     1      98.013  83.602  78.203  1.00  0.00     0.220 C 
ATOM      3  N   UNL     1      99.213  83.708  77.565  1.00  0.00    -0.352 N 
ATOM      4  H   UNL     1      99.992  83.291  78.053  1.00  0.00     0.163 HD
ATOM      5  O   UNL     1      96.985  84.174  77.766  1.00  0.00    -0.275 OA
BRANCH   3   6
ATOM      6  C   UNL     1      99.420  84.344  76.303  1.00  0.00     0.151 C 
BRANCH   6   7
ATOM      7  C   UNL     1     100.299  83.563  75.392  1.00  0.00    -0.025 A 
ATOM      8  C   UNL     1     102.107  83.480  73.727  1.00  0.00     0.160 A 
ATOM      9  C   UNL     1     102.020  82.072  73.707  1.00  0.00     0.157 A 
ATOM     10  C   UNL     1     101.234  84.217  74.555  1.00  0.00     0.056 A 
ATOM     11  C   UNL     1     101.076  81.412  74.516  1.00  0.00     0.050 A 
ATOM     12  C   UNL     1     100.226  82.151  75.356  1.00  0.00     0.009 A 
BRANCH   8  13
ATOM     13  O   UNL     1     103.006  84.142  72.933  1.00  0.00    -0.493 OA
ATOM     14  C   UNL     1     104.142  84.663  73.649  1.00  0.00     0.278 C 
ENDBRANCH   8  13
BRANCH   9  15
ATOM     15  O   UNL     1     102.853  81.353  72.913  1.00  0.00    -0.504 OA
ATOM     16  H   UNL     1     102.496  81.317  72.023  1.00  0.00     0.293 HD
ENDBRANCH   9  15
ENDBRANCH   6   7
ENDBRANCH   3   6
ENDBRANCH   1   2
BRANCH   1  17
ATOM     17  C   UNL     1      98.878  83.149  80.554  1.00  0.00     0.010 C 
BRANCH  17  18
ATOM     18  C   UNL     1      99.135  81.959  81.520  1.00  0.00     0.001 C 
BRANCH  18  19
ATOM     19  C   UNL     1      98.493  82.153  82.920  1.00  0.00     0.000 C 
BRANCH  19  20
ATOM     20  C   UNL     1      97.713  83.495  83.029  1.00  0.00     0.003 C 
BRANCH  20  21
ATOM     21  C   UNL     1      96.941  83.702  84.373  1.00  0.00    -0.017 C 
ATOM     22  C   UNL     1      97.433  84.986  85.104  1.00  0.00     0.007 C 
ATOM     23  C   UNL     1      97.042  82.474  85.324  1.00  0.00     0.007 C 
ENDBRANCH  20  21
ENDBRANCH  19  20
ENDBRANCH  18  19
ENDBRANCH  17  18
ENDBRANCH   1  17
TORSDOF 10
ENDMDL
MODEL 10
REMARK VINA RESULT:    -4.961     13.518     15.838
REMARK INTER + INTRA:          -8.739
REMARK INTER:                  -8.176
REMARK INTRA:                  -0.563
REMARK UNBOUND:                -1.023
REMARK SMILES COc1cc(CNC(=O)CCCCCC(C)C)ccc1O
REMARK SMILES IDX 10 1 8 2 7 3 9 5 6 6 5 7 3 8 20 9 4 10 19 11 18 12 2 13 1 14
REMARK SMILES IDX 21 15 11 17 12 18 13 19 14 20 15 21 16 22 17 23
REMARK H PARENT 7 4 21 16
REMARK Flexibility Score: inf
ROOT
ATOM      1  C   UNL     1      98.013  82.703  79.034  1.00  0.00     0.100 C 
ENDROOT
BRANCH   1   2
ATOM      2  C   UNL     1      98.107  83.495  77.791  1.00  0.00     0.220 C 
ATOM      3  N   UNL     1      99.326  83.697  77.215  1.00  0.00    -0.352 N 
ATOM      4  H   UNL     1     100.113  83.390  77.769  1.00  0.00     0.163 HD
ATOM      5  O   UNL     1      97.053  83.932  77.266  1.00  0.00    -0.275 OA
BRANCH   3   6
ATOM      6  C   UNL     1      99.542  84.289  75.934  1.00  0.00     0.151 C 
BRANCH   6   7
ATOM      7  C   UNL     1     100.969  84.264  75.512  1.00  0.00    -0.025 A 
ATOM      8  C   UNL     1     102.861  83.097  74.461  1.00  0.00     0.160 A 
ATOM      9  C   UNL     1     103.667  84.240  74.648  1.00  0.00     0.157 A 
ATOM     10  C   UNL     1     101.523  83.109  74.910  1.00  0.00     0.056 A 
ATOM     11  C   UNL     1     103.133  85.384  75.269  1.00  0.00     0.050 A 
ATOM     12  C   UNL     1     101.793  85.399  75.693  1.00  0.00     0.009 A 
BRANCH   8  13
ATOM     13  O   UNL     1     103.367  81.966  73.876  1.00  0.00    -0.493 OA
ATOM     14  C   UNL     1     102.892  80.742  74.468  1.00  0.00     0.278 C 
ENDBRANCH   8  13
BRANCH   9  15
ATOM     15  O   UNL     1     104.954  84.238  74.221  1.00  0.00    -0.504 OA
ATOM     16  H   UNL     1     105.395  83.445  74.535  1.00  0.00     0.293 HD
ENDBRANCH   9  15
ENDBRANCH   6   7
ENDBRANCH   3   6
ENDBRANCH   1   2
BRANCH   1  17
ATOM     17  C   UNL     1      98.961  83.179  80.168  1.00  0.00     0.010 C 
BRANCH  17  18
ATOM     18  C   UNL     1      99.382  82.005  81.094  1.00  0.00     0.001 C 
BRANCH  18  19
ATOM     19  C   UNL     1      98.874  82.157  82.552  1.00  0.00     0.000 C 
BRANCH  19  20
ATOM     20  C   UNL     1      97.853  83.323  82.700  1.00  0.00     0.003 C 
BRANCH  20  21
ATOM     21  C   UNL     1      97.137  83.400  84.088  1.00  0.00    -0.017 C 
ATOM     22  C   UNL     1      97.496  84.723  84.826  1.00  0.00     0.007 C 
ATOM     23  C   UNL     1      97.451  82.178  84.999  1.00  0.00     0.007 C 
ENDBRANCH  20  21
ENDBRANCH  19  20
ENDBRANCH  18  19
ENDBRANCH  17  18
ENDBRANCH   1  17
TORSDOF 10
ENDMDL
