MODEL 1
REMARK VINA RESULT:    -6.620      0.000      0.000
REMARK INTER + INTRA:         -10.962
REMARK INTER:                 -10.297
REMARK INTRA:                  -0.665
REMARK UNBOUND:                -0.665
REMARK SMILES COc1cc(CNC(=O)CCCCCC(C)C)ccc1O
REMARK SMILES IDX 10 1 8 2 7 3 9 5 6 6 5 7 3 8 20 9 4 10 19 11 18 12 2 13 1 14
REMARK SMILES IDX 21 15 11 17 12 18 13 19 14 20 15 21 16 22 17 23
REMARK H PARENT 7 4 21 16
REMARK Flexibility Score: inf
ROOT
ATOM      1  C   UNL     1      79.714  64.462  69.780  1.00  0.00     0.100 C 
ENDROOT
BRANCH   1   2
ATOM      2  C   UNL     1      79.707  65.474  70.856  1.00  0.00     0.220 C 
ATOM      3  N   UNL     1      80.593  65.363  71.886  1.00  0.00    -0.352 N 
ATOM      4  H   UNL     1      81.117  64.500  71.904  1.00  0.00     0.163 HD
ATOM      5  O   UNL     1      78.910  66.441  70.778  1.00  0.00    -0.275 OA
BRANCH   3   6
ATOM      6  C   UNL     1      80.812  66.352  72.892  1.00  0.00     0.151 C 
BRANCH   6   7
ATOM      7  C   UNL     1      82.213  66.376  73.393  1.00  0.00    -0.025 A 
ATOM      8  C   UNL     1      84.391  67.502  73.583  1.00  0.00     0.160 A 
ATOM      9  C   UNL     1      84.859  66.453  74.402  1.00  0.00     0.157 A 
ATOM     10  C   UNL     1      83.078  67.448  73.069  1.00  0.00     0.056 A 
ATOM     11  C   UNL     1      84.016  65.369  74.709  1.00  0.00     0.050 A 
ATOM     12  C   UNL     1      82.702  65.333  74.214  1.00  0.00     0.009 A 
BRANCH   8  13
ATOM     13  O   UNL     1      85.201  68.557  73.256  1.00  0.00    -0.493 OA
ATOM     14  C   UNL     1      84.562  69.548  72.428  1.00  0.00     0.278 C 
ENDBRANCH   8  13
BRANCH   9  15
ATOM     15  O   UNL     1      86.120  66.495  74.901  1.00  0.00    -0.504 OA
ATOM     16  H   UNL     1      86.393  65.611  75.157  1.00  0.00     0.293 HD
ENDBRANCH   9  15
ENDBRANCH   6   7
ENDBRANCH   3   6
ENDBRANCH   1   2
BRANCH   1  17
ATOM     17  C   UNL     1      78.634  64.684  68.687  1.00  0.00     0.010 C 
BRANCH  17  18
ATOM     18  C   UNL     1      77.837  63.382  68.396  1.00  0.00     0.001 C 
BRANCH  18  19
ATOM     19  C   UNL     1      77.148  63.379  67.007  1.00  0.00     0.000 C 
BRANCH  19  20
ATOM     20  C   UNL     1      75.595  63.374  67.120  1.00  0.00     0.003 C 
BRANCH  20  21
ATOM     21  C   UNL     1      74.935  64.788  67.212  1.00  0.00    -0.017 C 
ATOM     22  C   UNL     1      75.831  65.864  66.531  1.00  0.00     0.007 C 
ATOM     23  C   UNL     1      74.612  65.211  68.674  1.00  0.00     0.007 C 
ENDBRANCH  20  21
ENDBRANCH  19  20
ENDBRANCH  18  19
ENDBRANCH  17  18
ENDBRANCH   1  17
TORSDOF 10
ENDMDL
MODEL 2
REMARK VINA RESULT:    -6.012      1.544      2.598
REMARK INTER + INTRA:         -10.016
REMARK INTER:                  -9.519
REMARK INTRA:                  -0.497
REMARK UNBOUND:                -0.665
REMARK SMILES COc1cc(CNC(=O)CCCCCC(C)C)ccc1O
REMARK SMILES IDX 10 1 8 2 7 3 9 5 6 6 5 7 3 8 20 9 4 10 19 11 18 12 2 13 1 14
REMARK SMILES IDX 21 15 11 17 12 18 13 19 14 20 15 21 16 22 17 23
REMARK H PARENT 7 4 21 16
REMARK Flexibility Score: inf
ROOT
ATOM      1  C   UNL     1      81.210  64.599  70.720  1.00  0.00     0.100 C 
ENDROOT
BRANCH   1   2
ATOM      2  C   UNL     1      81.229  65.229  72.057  1.00  0.00     0.220 C 
ATOM      3  N   UNL     1      82.391  65.255  72.769  1.00  0.00    -0.352 N 
ATOM      4  H   UNL     1      83.143  64.710  72.373  1.00  0.00     0.163 HD
ATOM      5  O   UNL     1      80.181  65.766  72.492  1.00  0.00    -0.275 OA
BRANCH   3   6
ATOM      6  C   UNL     1      82.594  65.975  73.984  1.00  0.00     0.151 C 
BRANCH   6   7
ATOM      7  C   UNL     1      83.557  67.100  73.843  1.00  0.00    -0.025 A 
ATOM      8  C   UNL     1      85.400  68.456  74.746  1.00  0.00     0.160 A 
ATOM      9  C   UNL     1      85.437  69.199  73.547  1.00  0.00     0.157 A 
ATOM     10  C   UNL     1      84.448  67.424  74.894  1.00  0.00     0.056 A 
ATOM     11  C   UNL     1      84.538  68.903  72.506  1.00  0.00     0.050 A 
ATOM     12  C   UNL     1      83.609  67.858  72.650  1.00  0.00     0.009 A 
BRANCH   8  13
ATOM     13  O   UNL     1      86.253  68.741  75.779  1.00  0.00    -0.493 OA
ATOM     14  C   UNL     1      87.420  67.898  75.820  1.00  0.00     0.278 C 
ENDBRANCH   8  13
BRANCH   9  15
ATOM     15  O   UNL     1      86.346  70.194  73.395  1.00  0.00    -0.504 OA
ATOM     16  H   UNL     1      86.839  70.305  74.212  1.00  0.00     0.293 HD
ENDBRANCH   9  15
ENDBRANCH   6   7
ENDBRANCH   3   6
ENDBRANCH   1   2
BRANCH   1  17
ATOM     17  C   UNL     1      80.141  65.180  69.756  1.00  0.00     0.010 C 
BRANCH  17  18
ATOM     18  C   UNL     1      78.915  64.235  69.623  1.00  0.00     0.001 C 
BRANCH  18  19
ATOM     19  C   UNL     1      78.183  64.363  68.261  1.00  0.00     0.000 C 
BRANCH  19  20
ATOM     20  C   UNL     1      76.648  64.142  68.396  1.00  0.00     0.003 C 
BRANCH  20  21
ATOM     21  C   UNL     1      75.769  65.392  68.062  1.00  0.00    -0.017 C 
ATOM     22  C   UNL     1      74.254  65.052  68.178  1.00  0.00     0.007 C 
ATOM     23  C   UNL     1      76.076  65.989  66.658  1.00  0.00     0.007 C 
ENDBRANCH  20  21
ENDBRANCH  19  20
ENDBRANCH  18  19
ENDBRANCH  17  18
ENDBRANCH   1  17
TORSDOF 10
ENDMDL
MODEL 3
REMARK VINA RESULT:    -5.889     30.274     34.738
REMARK INTER + INTRA:          -9.825
REMARK INTER:                  -9.037
REMARK INTRA:                  -0.789
REMARK UNBOUND:                -0.665
REMARK SMILES COc1cc(CNC(=O)CCCCCC(C)C)ccc1O
REMARK SMILES IDX 10 1 8 2 7 3 9 5 6 6 5 7 3 8 20 9 4 10 19 11 18 12 2 13 1 14
REMARK SMILES IDX 21 15 11 17 12 18 13 19 14 20 15 21 16 22 17 23
REMARK H PARENT 7 4 21 16
REMARK Flexibility Score: inf
ROOT
ATOM      1  C   UNL     1      93.880  96.742  77.617  1.00  0.00     0.100 C 
ENDROOT
BRANCH   1   2
ATOM      2  C   UNL     1      94.709  97.038  76.430  1.00  0.00     0.220 C 
ATOM      3  N   UNL     1      94.158  96.939  75.187  1.00  0.00    -0.352 N 
ATOM      4  H   UNL     1      93.234  96.532  75.163  1.00  0.00     0.163 HD
ATOM      5  O   UNL     1      95.894  97.418  76.594  1.00  0.00    -0.275 OA
BRANCH   3   6
ATOM      6  C   UNL     1      94.785  97.359  73.975  1.00  0.00     0.151 C 
BRANCH   6   7
ATOM      7  C   UNL     1      94.275  98.665  73.475  1.00  0.00    -0.025 A 
ATOM      8  C   UNL     1      93.055  99.973  71.788  1.00  0.00     0.160 A 
ATOM      9  C   UNL     1      93.246 101.140  72.558  1.00  0.00     0.157 A 
ATOM     10  C   UNL     1      93.586  98.747  72.242  1.00  0.00     0.056 A 
ATOM     11  C   UNL     1      93.952 101.074  73.773  1.00  0.00     0.050 A 
ATOM     12  C   UNL     1      94.458  99.846  74.231  1.00  0.00     0.009 A 
BRANCH   8  13
ATOM     13  O   UNL     1      92.387 100.019  70.592  1.00  0.00    -0.493 OA
ATOM     14  C   UNL     1      90.956  99.922  70.721  1.00  0.00     0.278 C 
ENDBRANCH   8  13
BRANCH   9  15
ATOM     15  O   UNL     1      92.742 102.324  72.130  1.00  0.00    -0.504 OA
ATOM     16  H   UNL     1      93.097 103.037  72.666  1.00  0.00     0.293 HD
ENDBRANCH   9  15
ENDBRANCH   6   7
ENDBRANCH   3   6
ENDBRANCH   1   2
BRANCH   1  17
ATOM     17  C   UNL     1      93.667  95.227  77.884  1.00  0.00     0.010 C 
BRANCH  17  18
ATOM     18  C   UNL     1      92.158  94.867  77.969  1.00  0.00     0.001 C 
BRANCH  18  19
ATOM     19  C   UNL     1      91.294  95.574  76.891  1.00  0.00     0.000 C 
BRANCH  19  20
ATOM     20  C   UNL     1      89.914  94.882  76.697  1.00  0.00     0.003 C 
BRANCH  20  21
ATOM     21  C   UNL     1      89.891  93.743  75.627  1.00  0.00    -0.017 C 
ATOM     22  C   UNL     1      89.967  92.343  76.304  1.00  0.00     0.007 C 
ATOM     23  C   UNL     1      91.022  93.886  74.567  1.00  0.00     0.007 C 
ENDBRANCH  20  21
ENDBRANCH  19  20
ENDBRANCH  18  19
ENDBRANCH  17  18
ENDBRANCH   1  17
TORSDOF 10
ENDMDL
MODEL 4
REMARK VINA RESULT:    -5.795     25.087     26.411
REMARK INTER + INTRA:          -9.678
REMARK INTER:                  -9.085
REMARK INTRA:                  -0.594
REMARK UNBOUND:                -0.665
REMARK SMILES COc1cc(CNC(=O)CCCCCC(C)C)ccc1O
REMARK SMILES IDX 10 1 8 2 7 3 9 5 6 6 5 7 3 8 20 9 4 10 19 11 18 12 2 13 1 14
REMARK SMILES IDX 21 15 11 17 12 18 13 19 14 20 15 21 16 22 17 23
REMARK H PARENT 7 4 21 16
REMARK Flexibility Score: inf
ROOT
ATOM      1  C   UNL     1      97.818  83.245  78.681  1.00  0.00     0.100 C 
ENDROOT
BRANCH   1   2
ATOM      2  C   UNL     1      97.481  82.438  79.872  1.00  0.00     0.220 C 
ATOM      3  N   UNL     1      97.092  83.065  81.018  1.00  0.00    -0.352 N 
ATOM      4  H   UNL     1      97.192  84.070  81.007  1.00  0.00     0.163 HD
ATOM      5  O   UNL     1      97.519  81.186  79.790  1.00  0.00    -0.275 OA
BRANCH   3   6
ATOM      6  C   UNL     1      96.576  82.412  82.178  1.00  0.00     0.151 C 
BRANCH   6   7
ATOM      7  C   UNL     1      96.083  83.361  83.212  1.00  0.00    -0.025 A 
ATOM      8  C   UNL     1      95.203  83.788  85.469  1.00  0.00     0.160 A 
ATOM      9  C   UNL     1      95.207  85.174  85.205  1.00  0.00     0.157 A 
ATOM     10  C   UNL     1      95.623  82.889  84.464  1.00  0.00     0.056 A 
ATOM     11  C   UNL     1      95.637  85.652  83.954  1.00  0.00     0.050 A 
ATOM     12  C   UNL     1      96.077  84.754  82.967  1.00  0.00     0.009 A 
BRANCH   8  13
ATOM     13  O   UNL     1      94.770  83.300  86.673  1.00  0.00    -0.493 OA
ATOM     14  C   UNL     1      93.343  83.116  86.748  1.00  0.00     0.278 C 
ENDBRANCH   8  13
BRANCH   9  15
ATOM     15  O   UNL     1      94.804  86.046  86.163  1.00  0.00    -0.504 OA
ATOM     16  H   UNL     1      95.542  86.604  86.419  1.00  0.00     0.293 HD
ENDBRANCH   9  15
ENDBRANCH   6   7
ENDBRANCH   3   6
ENDBRANCH   1   2
BRANCH   1  17
ATOM     17  C   UNL     1      96.781  83.150  77.530  1.00  0.00     0.010 C 
BRANCH  17  18
ATOM     18  C   UNL     1      96.420  84.552  76.967  1.00  0.00     0.001 C 
BRANCH  18  19
ATOM     19  C   UNL     1      96.782  84.725  75.468  1.00  0.00     0.000 C 
BRANCH  19  20
ATOM     20  C   UNL     1      98.235  84.262  75.156  1.00  0.00     0.003 C 
BRANCH  20  21
ATOM     21  C   UNL     1      98.351  83.131  74.083  1.00  0.00    -0.017 C 
ATOM     22  C   UNL     1      99.282  81.986  74.582  1.00  0.00     0.007 C 
ATOM     23  C   UNL     1      98.842  83.654  72.703  1.00  0.00     0.007 C 
ENDBRANCH  20  21
ENDBRANCH  19  20
ENDBRANCH  18  19
ENDBRANCH  17  18
ENDBRANCH   1  17
TORSDOF 10
ENDMDL
MODEL 5
REMARK VINA RESULT:    -5.533     11.672     16.034
REMARK INTER + INTRA:          -9.271
REMARK INTER:                  -8.630
REMARK INTRA:                  -0.641
REMARK UNBOUND:                -0.665
REMARK SMILES COc1cc(CNC(=O)CCCCCC(C)C)ccc1O
REMARK SMILES IDX 10 1 8 2 7 3 9 5 6 6 5 7 3 8 20 9 4 10 19 11 18 12 2 13 1 14
REMARK SMILES IDX 21 15 11 17 12 18 13 19 14 20 15 21 16 22 17 23
REMARK H PARENT 7 4 21 16
REMARK Flexibility Score: inf
ROOT
ATOM      1  C   UNL     1      93.408  75.722  70.479  1.00  0.00     0.100 C 
ENDROOT
BRANCH   1   2
ATOM      2  C   UNL     1      93.180  74.382  69.898  1.00  0.00     0.220 C 
ATOM      3  N   UNL     1      91.969  73.779  70.061  1.00  0.00    -0.352 N 
ATOM      4  H   UNL     1      91.342  74.250  70.697  1.00  0.00     0.163 HD
ATOM      5  O   UNL     1      94.097  73.845  69.229  1.00  0.00    -0.275 OA
BRANCH   3   6
ATOM      6  C   UNL     1      91.558  72.574  69.415  1.00  0.00     0.151 C 
BRANCH   6   7
ATOM      7  C   UNL     1      90.336  72.745  68.584  1.00  0.00    -0.025 A 
ATOM      8  C   UNL     1      89.232  73.629  66.571  1.00  0.00     0.160 A 
ATOM      9  C   UNL     1      88.024  73.015  66.967  1.00  0.00     0.157 A 
ATOM     10  C   UNL     1      90.374  73.506  67.391  1.00  0.00     0.056 A 
ATOM     11  C   UNL     1      87.968  72.279  68.165  1.00  0.00     0.050 A 
ATOM     12  C   UNL     1      89.115  72.140  68.964  1.00  0.00     0.009 A 
BRANCH   8  13
ATOM     13  O   UNL     1      89.303  74.366  65.419  1.00  0.00    -0.493 OA
ATOM     14  C   UNL     1      90.509  75.145  65.300  1.00  0.00     0.278 C 
ENDBRANCH   8  13
BRANCH   9  15
ATOM     15  O   UNL     1      86.920  73.129  66.188  1.00  0.00    -0.504 OA
ATOM     16  H   UNL     1      86.695  72.270  65.823  1.00  0.00     0.293 HD
ENDBRANCH   9  15
ENDBRANCH   6   7
ENDBRANCH   3   6
ENDBRANCH   1   2
BRANCH   1  17
ATOM     17  C   UNL     1      92.130  76.597  70.584  1.00  0.00     0.010 C 
BRANCH  17  18
ATOM     18  C   UNL     1      92.238  77.632  71.738  1.00  0.00     0.001 C 
BRANCH  18  19
ATOM     19  C   UNL     1      91.819  77.060  73.119  1.00  0.00     0.000 C 
BRANCH  19  20
ATOM     20  C   UNL     1      91.832  78.146  74.233  1.00  0.00     0.003 C 
BRANCH  20  21
ATOM     21  C   UNL     1      90.849  77.884  75.421  1.00  0.00    -0.017 C 
ATOM     22  C   UNL     1      91.607  77.897  76.782  1.00  0.00     0.007 C 
ATOM     23  C   UNL     1      90.053  76.556  75.266  1.00  0.00     0.007 C 
ENDBRANCH  20  21
ENDBRANCH  19  20
ENDBRANCH  18  19
ENDBRANCH  17  18
ENDBRANCH   1  17
TORSDOF 10
ENDMDL
MODEL 6
REMARK VINA RESULT:    -5.385     23.334     25.419
REMARK INTER + INTRA:          -9.041
REMARK INTER:                  -8.240
REMARK INTRA:                  -0.801
REMARK UNBOUND:                -0.665
REMARK SMILES COc1cc(CNC(=O)CCCCCC(C)C)ccc1O
REMARK SMILES IDX 10 1 8 2 7 3 9 5 6 6 5 7 3 8 20 9 4 10 19 11 18 12 2 13 1 14
REMARK SMILES IDX 21 15 11 17 12 18 13 19 14 20 15 21 16 22 17 23
REMARK H PARENT 7 4 21 16
REMARK Flexibility Score: inf
ROOT
ATOM      1  C   UNL     1      74.863  88.480  69.151  1.00  0.00     0.100 C 
ENDROOT
BRANCH   1   2
ATOM      2  C   UNL     1      73.707  89.240  69.669  1.00  0.00     0.220 C 
ATOM      3  N   UNL     1      73.780  89.810  70.905  1.00  0.00    -0.352 N 
ATOM      4  H   UNL     1      74.595  89.553  71.444  1.00  0.00     0.163 HD
ATOM      5  O   UNL     1      72.694  89.381  68.941  1.00  0.00    -0.275 OA
BRANCH   3   6
ATOM      6  C   UNL     1      72.816  90.709  71.454  1.00  0.00     0.151 C 
BRANCH   6   7
ATOM      7  C   UNL     1      73.417  91.740  72.342  1.00  0.00    -0.025 A 
ATOM      8  C   UNL     1      73.573  92.834  74.539  1.00  0.00     0.160 A 
ATOM      9  C   UNL     1      74.609  93.659  74.052  1.00  0.00     0.157 A 
ATOM     10  C   UNL     1      72.971  91.893  73.677  1.00  0.00     0.056 A 
ATOM     11  C   UNL     1      75.042  93.533  72.720  1.00  0.00     0.050 A 
ATOM     12  C   UNL     1      74.455  92.578  71.873  1.00  0.00     0.009 A 
BRANCH   8  13
ATOM     13  O   UNL     1      73.123  92.953  75.828  1.00  0.00    -0.493 OA
ATOM     14  C   UNL     1      73.599  91.918  76.709  1.00  0.00     0.278 C 
ENDBRANCH   8  13
BRANCH   9  15
ATOM     15  O   UNL     1      75.193  94.568  74.873  1.00  0.00    -0.504 OA
ATOM     16  H   UNL     1      74.862  95.445  74.666  1.00  0.00     0.293 HD
ENDBRANCH   9  15
ENDBRANCH   6   7
ENDBRANCH   3   6
ENDBRANCH   1   2
BRANCH   1  17
ATOM     17  C   UNL     1      76.007  89.364  68.586  1.00  0.00     0.010 C 
BRANCH  17  18
ATOM     18  C   UNL     1      77.280  88.527  68.282  1.00  0.00     0.001 C 
BRANCH  18  19
ATOM     19  C   UNL     1      76.970  87.117  67.715  1.00  0.00     0.000 C 
BRANCH  19  20
ATOM     20  C   UNL     1      77.474  85.982  68.653  1.00  0.00     0.003 C 
BRANCH  20  21
ATOM     21  C   UNL     1      76.494  84.774  68.815  1.00  0.00    -0.017 C 
ATOM     22  C   UNL     1      75.221  84.972  67.941  1.00  0.00     0.007 C 
ATOM     23  C   UNL     1      76.091  84.517  70.296  1.00  0.00     0.007 C 
ENDBRANCH  20  21
ENDBRANCH  19  20
ENDBRANCH  18  19
ENDBRANCH  17  18
ENDBRANCH   1  17
TORSDOF 10
ENDMDL
MODEL 7
REMARK VINA RESULT:    -5.333     29.660     34.491
REMARK INTER + INTRA:          -8.960
REMARK INTER:                  -7.896
REMARK INTRA:                  -1.064
REMARK UNBOUND:                -0.665
REMARK SMILES COc1cc(CNC(=O)CCCCCC(C)C)ccc1O
REMARK SMILES IDX 10 1 8 2 7 3 9 5 6 6 5 7 3 8 20 9 4 10 19 11 18 12 2 13 1 14
REMARK SMILES IDX 21 15 11 17 12 18 13 19 14 20 15 21 16 22 17 23
REMARK H PARENT 7 4 21 16
REMARK Flexibility Score: inf
ROOT
ATOM      1  C   UNL     1      92.049  91.570  93.161  1.00  0.00     0.100 C 
ENDROOT
BRANCH   1   2
ATOM      2  C   UNL     1      92.006  90.290  92.423  1.00  0.00     0.220 C 
ATOM      3  N   UNL     1      91.983  90.303  91.061  1.00  0.00    -0.352 N 
ATOM      4  H   UNL     1      91.861  91.216  90.647  1.00  0.00     0.163 HD
ATOM      5  O   UNL     1      92.036  89.214  93.069  1.00  0.00    -0.275 OA
BRANCH   3   6
ATOM      6  C   UNL     1      92.115  89.153  90.226  1.00  0.00     0.151 C 
BRANCH   6   7
ATOM      7  C   UNL     1      93.060  89.357  89.095  1.00  0.00    -0.025 A 
ATOM      8  C   UNL     1      94.421  88.444  87.262  1.00  0.00     0.160 A 
ATOM      9  C   UNL     1      94.806  89.752  86.899  1.00  0.00     0.157 A 
ATOM     10  C   UNL     1      93.566  88.253  88.368  1.00  0.00     0.056 A 
ATOM     11  C   UNL     1      94.330  90.855  87.631  1.00  0.00     0.050 A 
ATOM     12  C   UNL     1      93.459  90.660  88.716  1.00  0.00     0.009 A 
BRANCH   8  13
ATOM     13  O   UNL     1      94.889  87.355  86.574  1.00  0.00    -0.493 OA
ATOM     14  C   UNL     1      94.006  86.902  85.530  1.00  0.00     0.278 C 
ENDBRANCH   8  13
BRANCH   9  15
ATOM     15  O   UNL     1      95.629  89.946  85.838  1.00  0.00    -0.504 OA
ATOM     16  H   UNL     1      95.173  90.460  85.168  1.00  0.00     0.293 HD
ENDBRANCH   9  15
ENDBRANCH   6   7
ENDBRANCH   3   6
ENDBRANCH   1   2
BRANCH   1  17
ATOM     17  C   UNL     1      90.779  92.447  92.991  1.00  0.00     0.010 C 
BRANCH  17  18
ATOM     18  C   UNL     1      91.111  93.816  92.335  1.00  0.00     0.001 C 
BRANCH  18  19
ATOM     19  C   UNL     1      91.641  93.690  90.882  1.00  0.00     0.000 C 
BRANCH  19  20
ATOM     20  C   UNL     1      92.274  95.016  90.370  1.00  0.00     0.003 C 
BRANCH  20  21
ATOM     21  C   UNL     1      93.818  94.962  90.133  1.00  0.00    -0.017 C 
ATOM     22  C   UNL     1      94.396  93.578  90.551  1.00  0.00     0.007 C 
ATOM     23  C   UNL     1      94.583  96.103  90.865  1.00  0.00     0.007 C 
ENDBRANCH  20  21
ENDBRANCH  19  20
ENDBRANCH  18  19
ENDBRANCH  17  18
ENDBRANCH   1  17
TORSDOF 10
ENDMDL
MODEL 8
REMARK VINA RESULT:    -5.324     23.823     25.986
REMARK INTER + INTRA:          -8.946
REMARK INTER:                  -8.126
REMARK INTRA:                  -0.821
REMARK UNBOUND:                -0.665
REMARK SMILES COc1cc(CNC(=O)CCCCCC(C)C)ccc1O
REMARK SMILES IDX 10 1 8 2 7 3 9 5 6 6 5 7 3 8 20 9 4 10 19 11 18 12 2 13 1 14
REMARK SMILES IDX 21 15 11 17 12 18 13 19 14 20 15 21 16 22 17 23
REMARK H PARENT 7 4 21 16
REMARK Flexibility Score: inf
ROOT
ATOM      1  C   UNL     1      74.880  88.726  69.239  1.00  0.00     0.100 C 
ENDROOT
BRANCH   1   2
ATOM      2  C   UNL     1      73.965  89.472  70.128  1.00  0.00     0.220 C 
ATOM      3  N   UNL     1      74.444  90.524  70.850  1.00  0.00    -0.352 N 
ATOM      4  H   UNL     1      75.447  90.637  70.822  1.00  0.00     0.163 HD
ATOM      5  O   UNL     1      72.753  89.147  70.166  1.00  0.00    -0.275 OA
BRANCH   3   6
ATOM      6  C   UNL     1      73.644  91.433  71.608  1.00  0.00     0.151 C 
BRANCH   6   7
ATOM      7  C   UNL     1      74.251  92.786  71.726  1.00  0.00    -0.025 A 
ATOM      8  C   UNL     1      75.651  94.396  72.949  1.00  0.00     0.160 A 
ATOM      9  C   UNL     1      75.460  95.341  71.919  1.00  0.00     0.157 A 
ATOM     10  C   UNL     1      75.030  93.132  72.855  1.00  0.00     0.056 A 
ATOM     11  C   UNL     1      74.665  95.017  70.804  1.00  0.00     0.050 A 
ATOM     12  C   UNL     1      74.069  93.748  70.705  1.00  0.00     0.009 A 
BRANCH   8  13
ATOM     13  O   UNL     1      76.406  94.698  74.052  1.00  0.00    -0.493 OA
ATOM     14  C   UNL     1      77.648  93.972  74.124  1.00  0.00     0.278 C 
ENDBRANCH   8  13
BRANCH   9  15
ATOM     15  O   UNL     1      76.051  96.560  72.000  1.00  0.00    -0.504 OA
ATOM     16  H   UNL     1      75.398  97.215  72.255  1.00  0.00     0.293 HD
ENDBRANCH   9  15
ENDBRANCH   6   7
ENDBRANCH   3   6
ENDBRANCH   1   2
BRANCH   1  17
ATOM     17  C   UNL     1      76.036  89.579  68.652  1.00  0.00     0.010 C 
BRANCH  17  18
ATOM     18  C   UNL     1      77.248  88.696  68.243  1.00  0.00     0.001 C 
BRANCH  18  19
ATOM     19  C   UNL     1      76.840  87.293  67.720  1.00  0.00     0.000 C 
BRANCH  19  20
ATOM     20  C   UNL     1      77.375  86.149  68.629  1.00  0.00     0.003 C 
BRANCH  20  21
ATOM     21  C   UNL     1      76.389  84.954  68.835  1.00  0.00    -0.017 C 
ATOM     22  C   UNL     1      75.094  85.151  67.993  1.00  0.00     0.007 C 
ATOM     23  C   UNL     1      76.024  84.723  70.330  1.00  0.00     0.007 C 
ENDBRANCH  20  21
ENDBRANCH  19  20
ENDBRANCH  18  19
ENDBRANCH  17  18
ENDBRANCH   1  17
TORSDOF 10
ENDMDL
MODEL 9
REMARK VINA RESULT:    -5.290     13.374     15.929
REMARK INTER + INTRA:          -8.893
REMARK INTER:                  -8.236
REMARK INTRA:                  -0.657
REMARK UNBOUND:                -0.665
REMARK SMILES COc1cc(CNC(=O)CCCCCC(C)C)ccc1O
REMARK SMILES IDX 10 1 8 2 7 3 9 5 6 6 5 7 3 8 20 9 4 10 19 11 18 12 2 13 1 14
REMARK SMILES IDX 21 15 11 17 12 18 13 19 14 20 15 21 16 22 17 23
REMARK H PARENT 7 4 21 16
REMARK Flexibility Score: inf
ROOT
ATOM      1  C   UNL     1      91.068  76.651  77.463  1.00  0.00     0.100 C 
ENDROOT
BRANCH   1   2
ATOM      2  C   UNL     1      91.347  75.281  77.940  1.00  0.00     0.220 C 
ATOM      3  N   UNL     1      90.629  74.238  77.438  1.00  0.00    -0.352 N 
ATOM      4  H   UNL     1      89.848  74.501  76.855  1.00  0.00     0.163 HD
ATOM      5  O   UNL     1      92.272  75.102  78.771  1.00  0.00    -0.275 OA
BRANCH   3   6
ATOM      6  C   UNL     1      90.906  72.858  77.678  1.00  0.00     0.151 C 
BRANCH   6   7
ATOM      7  C   UNL     1      89.983  72.239  78.667  1.00  0.00    -0.025 A 
ATOM      8  C   UNL     1      88.884  72.271  80.866  1.00  0.00     0.160 A 
ATOM      9  C   UNL     1      88.175  71.099  80.526  1.00  0.00     0.157 A 
ATOM     10  C   UNL     1      89.797  72.823  79.943  1.00  0.00     0.056 A 
ATOM     11  C   UNL     1      88.373  70.495  79.271  1.00  0.00     0.050 A 
ATOM     12  C   UNL     1      89.266  71.064  78.346  1.00  0.00     0.009 A 
BRANCH   8  13
ATOM     13  O   UNL     1      88.720  72.863  82.091  1.00  0.00    -0.493 OA
ATOM     14  C   UNL     1      89.855  72.714  82.966  1.00  0.00     0.278 C 
ENDBRANCH   8  13
BRANCH   9  15
ATOM     15  O   UNL     1      87.297  70.558  81.408  1.00  0.00    -0.504 OA
ATOM     16  H   UNL     1      87.560  70.786  82.302  1.00  0.00     0.293 HD
ENDBRANCH   9  15
ENDBRANCH   6   7
ENDBRANCH   3   6
ENDBRANCH   1   2
BRANCH   1  17
ATOM     17  C   UNL     1      90.386  76.715  76.070  1.00  0.00     0.010 C 
BRANCH  17  18
ATOM     18  C   UNL     1      90.565  78.110  75.408  1.00  0.00     0.001 C 
BRANCH  18  19
ATOM     19  C   UNL     1      91.837  78.214  74.526  1.00  0.00     0.000 C 
BRANCH  19  20
ATOM     20  C   UNL     1      92.157  76.879  73.794  1.00  0.00     0.003 C 
BRANCH  20  21
ATOM     21  C   UNL     1      92.695  77.038  72.335  1.00  0.00    -0.017 C 
ATOM     22  C   UNL     1      91.778  77.985  71.505  1.00  0.00     0.007 C 
ATOM     23  C   UNL     1      92.861  75.676  71.600  1.00  0.00     0.007 C 
ENDBRANCH  20  21
ENDBRANCH  19  20
ENDBRANCH  18  19
ENDBRANCH  17  18
ENDBRANCH   1  17
TORSDOF 10
ENDMDL
MODEL 10
REMARK VINA RESULT:    -4.958     25.332     27.632
REMARK INTER + INTRA:          -8.376
REMARK INTER:                  -7.090
REMARK INTRA:                  -1.287
REMARK UNBOUND:                -0.665
REMARK SMILES COc1cc(CNC(=O)CCCCCC(C)C)ccc1O
REMARK SMILES IDX 10 1 8 2 7 3 9 5 6 6 5 7 3 8 20 9 4 10 19 11 18 12 2 13 1 14
REMARK SMILES IDX 21 15 11 17 12 18 13 19 14 20 15 21 16 22 17 23
REMARK H PARENT 7 4 21 16
REMARK Flexibility Score: inf
ROOT
ATOM      1  C   UNL     1     103.382  81.120  76.308  1.00  0.00     0.100 C 
ENDROOT
BRANCH   1   2
ATOM      2  C   UNL     1     102.222  81.392  77.183  1.00  0.00     0.220 C 
ATOM      3  N   UNL     1     100.974  81.457  76.639  1.00  0.00    -0.352 N 
ATOM      4  H   UNL     1     100.950  81.444  75.629  1.00  0.00     0.163 HD
ATOM      5  O   UNL     1     102.407  81.516  78.418  1.00  0.00    -0.275 OA
BRANCH   3   6
ATOM      6  C   UNL     1      99.757  81.539  77.381  1.00  0.00     0.151 C 
BRANCH   6   7
ATOM      7  C   UNL     1      98.781  82.499  76.798  1.00  0.00    -0.025 A 
ATOM      8  C   UNL     1      97.840  83.663  74.847  1.00  0.00     0.160 A 
ATOM      9  C   UNL     1      96.878  84.274  75.678  1.00  0.00     0.157 A 
ATOM     10  C   UNL     1      98.797  82.794  75.414  1.00  0.00     0.056 A 
ATOM     11  C   UNL     1      96.870  84.008  77.060  1.00  0.00     0.050 A 
ATOM     12  C   UNL     1      97.810  83.123  77.615  1.00  0.00     0.009 A 
BRANCH   8  13
ATOM     13  O   UNL     1      97.878  83.924  73.502  1.00  0.00    -0.493 OA
ATOM     14  C   UNL     1      98.449  82.858  72.718  1.00  0.00     0.278 C 
ENDBRANCH   8  13
BRANCH   9  15
ATOM     15  O   UNL     1      95.956  85.112  75.143  1.00  0.00    -0.504 OA
ATOM     16  H   UNL     1      96.266  86.018  75.214  1.00  0.00     0.293 HD
ENDBRANCH   9  15
ENDBRANCH   6   7
ENDBRANCH   3   6
ENDBRANCH   1   2
BRANCH   1  17
ATOM     17  C   UNL     1     103.753  82.291  75.358  1.00  0.00     0.010 C 
BRANCH  17  18
ATOM     18  C   UNL     1     103.029  82.169  73.989  1.00  0.00     0.001 C 
BRANCH  18  19
ATOM     19  C   UNL     1     102.075  83.355  73.689  1.00  0.00     0.000 C 
BRANCH  19  20
ATOM     20  C   UNL     1     102.071  84.411  74.833  1.00  0.00     0.003 C 
BRANCH  20  21
ATOM     21  C   UNL     1     102.189  85.897  74.361  1.00  0.00    -0.017 C 
ATOM     22  C   UNL     1     102.256  85.982  72.807  1.00  0.00     0.007 C 
ATOM     23  C   UNL     1     103.407  86.635  74.989  1.00  0.00     0.007 C 
ENDBRANCH  20  21
ENDBRANCH  19  20
ENDBRANCH  18  19
ENDBRANCH  17  18
ENDBRANCH   1  17
TORSDOF 10
ENDMDL
