MODEL 1
REMARK VINA RESULT:    -7.232      0.000      0.000
REMARK INTER + INTRA:         -12.336
REMARK INTER:                 -11.248
REMARK INTRA:                  -1.088
REMARK UNBOUND:                -1.088
REMARK SMILES COc1cc(CNC(=O)CCCC/C=C/C(C)C)ccc1O
REMARK SMILES IDX 10 1 8 2 7 3 9 5 6 6 5 7 3 8 21 9 4 10 20 11 19 12 2 13 1 14
REMARK SMILES IDX 22 15 11 17 12 18 13 19 14 20 15 21 16 22 17 23 18 24
REMARK H PARENT 7 4 22 16
REMARK Flexibility Score: inf
ROOT
ATOM      1  C   UNL     1      90.117  91.617  71.878  1.00  0.00     0.100 C 
ENDROOT
BRANCH   1   2
ATOM      2  C   UNL     1      89.408  90.545  72.604  1.00  0.00     0.220 C 
ATOM      3  N   UNL     1      90.080  89.730  73.464  1.00  0.00    -0.352 N 
ATOM      4  H   UNL     1      91.073  89.909  73.533  1.00  0.00     0.163 HD
ATOM      5  O   UNL     1      88.172  90.425  72.423  1.00  0.00    -0.275 OA
BRANCH   3   6
ATOM      6  C   UNL     1      89.483  88.688  74.236  1.00  0.00     0.151 C 
BRANCH   6   7
ATOM      7  C   UNL     1      89.657  88.920  75.696  1.00  0.00    -0.025 A 
ATOM      8  C   UNL     1      89.919  90.474  77.587  1.00  0.00     0.160 A 
ATOM      9  C   UNL     1      89.970  89.382  78.478  1.00  0.00     0.157 A 
ATOM     10  C   UNL     1      89.765  90.233  76.206  1.00  0.00     0.056 A 
ATOM     11  C   UNL     1      89.883  88.066  77.982  1.00  0.00     0.050 A 
ATOM     12  C   UNL     1      89.718  87.836  76.602  1.00  0.00     0.009 A 
BRANCH   8  13
ATOM     13  O   UNL     1      90.069  91.754  78.059  1.00  0.00    -0.493 OA
ATOM     14  C   UNL     1      89.501  92.764  77.205  1.00  0.00     0.278 C 
ENDBRANCH   8  13
BRANCH   9  15
ATOM     15  O   UNL     1      90.104  89.580  79.815  1.00  0.00    -0.504 OA
ATOM     16  H   UNL     1      90.023  90.516  80.011  1.00  0.00     0.293 HD
ENDBRANCH   9  15
ENDBRANCH   6   7
ENDBRANCH   3   6
ENDBRANCH   1   2
BRANCH   1  17
ATOM     17  C   UNL     1      89.787  93.018  72.460  1.00  0.00     0.010 C 
BRANCH  17  18
ATOM     18  C   UNL     1      90.489  93.289  73.820  1.00  0.00     0.005 C 
BRANCH  18  19
ATOM     19  C   UNL     1      91.886  92.618  73.908  1.00  0.00     0.027 C 
BRANCH  19  20
ATOM     20  C   UNL     1      92.618  93.031  75.095  1.00  0.00    -0.031 C 
ATOM     21  C   UNL     1      93.835  93.605  75.072  1.00  0.00    -0.028 C 
BRANCH  21  22
ATOM     22  C   UNL     1      94.544  94.031  76.278  1.00  0.00     0.005 C 
ATOM     23  C   UNL     1      95.256  95.399  76.090  1.00  0.00     0.012 C 
ATOM     24  C   UNL     1      93.572  94.074  77.485  1.00  0.00     0.012 C 
ENDBRANCH  21  22
ENDBRANCH  19  20
ENDBRANCH  18  19
ENDBRANCH  17  18
ENDBRANCH   1  17
TORSDOF 10
ENDMDL
MODEL 2
REMARK VINA RESULT:    -6.553      3.562      7.238
REMARK INTER + INTRA:         -11.281
REMARK INTER:                 -10.404
REMARK INTRA:                  -0.877
REMARK UNBOUND:                -1.088
REMARK SMILES COc1cc(CNC(=O)CCCC/C=C/C(C)C)ccc1O
REMARK SMILES IDX 10 1 8 2 7 3 9 5 6 6 5 7 3 8 21 9 4 10 20 11 19 12 2 13 1 14
REMARK SMILES IDX 22 15 11 17 12 18 13 19 14 20 15 21 16 22 17 23 18 24
REMARK H PARENT 7 4 22 16
REMARK Flexibility Score: inf
ROOT
ATOM      1  C   UNL     1      90.829  92.498  77.613  1.00  0.00     0.100 C 
ENDROOT
BRANCH   1   2
ATOM      2  C   UNL     1      92.005  92.969  76.857  1.00  0.00     0.220 C 
ATOM      3  N   UNL     1      93.137  93.356  77.509  1.00  0.00    -0.352 N 
ATOM      4  H   UNL     1      93.084  93.313  78.518  1.00  0.00     0.163 HD
ATOM      5  O   UNL     1      91.939  92.979  75.604  1.00  0.00    -0.275 OA
BRANCH   3   6
ATOM      6  C   UNL     1      94.336  93.796  76.871  1.00  0.00     0.151 C 
BRANCH   6   7
ATOM      7  C   UNL     1      95.192  94.585  77.799  1.00  0.00    -0.025 A 
ATOM      8  C   UNL     1      95.880  95.156  80.093  1.00  0.00     0.160 A 
ATOM      9  C   UNL     1      96.827  96.068  79.582  1.00  0.00     0.157 A 
ATOM     10  C   UNL     1      95.071  94.426  79.198  1.00  0.00     0.056 A 
ATOM     11  C   UNL     1      96.946  96.252  78.190  1.00  0.00     0.050 A 
ATOM     12  C   UNL     1      96.141  95.509  77.304  1.00  0.00     0.009 A 
BRANCH   8  13
ATOM     13  O   UNL     1      95.715  95.023  81.448  1.00  0.00    -0.493 OA
ATOM     14  C   UNL     1      95.793  93.664  81.917  1.00  0.00     0.278 C 
ENDBRANCH   8  13
BRANCH   9  15
ATOM     15  O   UNL     1      97.631  96.777  80.416  1.00  0.00    -0.504 OA
ATOM     16  H   UNL     1      97.575  96.413  81.303  1.00  0.00     0.293 HD
ENDBRANCH   9  15
ENDBRANCH   6   7
ENDBRANCH   3   6
ENDBRANCH   1   2
BRANCH   1  17
ATOM     17  C   UNL     1      89.741  91.912  76.673  1.00  0.00     0.010 C 
BRANCH  17  18
ATOM     18  C   UNL     1      89.552  90.379  76.848  1.00  0.00     0.005 C 
BRANCH  18  19
ATOM     19  C   UNL     1      89.319  89.655  75.494  1.00  0.00     0.027 C 
BRANCH  19  20
ATOM     20  C   UNL     1      89.482  90.550  74.359  1.00  0.00    -0.031 C 
ATOM     21  C   UNL     1      90.562  90.565  73.557  1.00  0.00    -0.028 C 
BRANCH  21  22
ATOM     22  C   UNL     1      90.697  91.461  72.409  1.00  0.00     0.005 C 
ATOM     23  C   UNL     1      90.155  90.824  71.098  1.00  0.00     0.012 C 
ATOM     24  C   UNL     1      89.994  92.813  72.698  1.00  0.00     0.012 C 
ENDBRANCH  21  22
ENDBRANCH  19  20
ENDBRANCH  18  19
ENDBRANCH  17  18
ENDBRANCH   1  17
TORSDOF 10
ENDMDL
MODEL 3
REMARK VINA RESULT:    -6.522      2.947      7.010
REMARK INTER + INTRA:         -11.232
REMARK INTER:                 -10.460
REMARK INTRA:                  -0.772
REMARK UNBOUND:                -1.088
REMARK SMILES COc1cc(CNC(=O)CCCC/C=C/C(C)C)ccc1O
REMARK SMILES IDX 10 1 8 2 7 3 9 5 6 6 5 7 3 8 21 9 4 10 20 11 19 12 2 13 1 14
REMARK SMILES IDX 22 15 11 17 12 18 13 19 14 20 15 21 16 22 17 23 18 24
REMARK H PARENT 7 4 22 16
REMARK Flexibility Score: inf
ROOT
ATOM      1  C   UNL     1      90.662  91.813  77.955  1.00  0.00     0.100 C 
ENDROOT
BRANCH   1   2
ATOM      2  C   UNL     1      91.140  92.882  77.057  1.00  0.00     0.220 C 
ATOM      3  N   UNL     1      92.366  92.795  76.469  1.00  0.00    -0.352 N 
ATOM      4  H   UNL     1      92.901  91.974  76.718  1.00  0.00     0.163 HD
ATOM      5  O   UNL     1      90.378  93.855  76.836  1.00  0.00    -0.275 OA
BRANCH   3   6
ATOM      6  C   UNL     1      92.906  93.758  75.563  1.00  0.00     0.151 C 
BRANCH   6   7
ATOM      7  C   UNL     1      94.248  94.230  76.003  1.00  0.00    -0.025 A 
ATOM      8  C   UNL     1      95.819  94.791  77.814  1.00  0.00     0.160 A 
ATOM      9  C   UNL     1      96.807  95.109  76.859  1.00  0.00     0.157 A 
ATOM     10  C   UNL     1      94.550  94.357  77.377  1.00  0.00     0.056 A 
ATOM     11  C   UNL     1      96.514  95.006  75.485  1.00  0.00     0.050 A 
ATOM     12  C   UNL     1      95.248  94.560  75.059  1.00  0.00     0.009 A 
BRANCH   8  13
ATOM     13  O   UNL     1      96.077  94.953  79.151  1.00  0.00    -0.493 OA
ATOM     14  C   UNL     1      95.418  93.993  79.997  1.00  0.00     0.278 C 
ENDBRANCH   8  13
BRANCH   9  15
ATOM     15  O   UNL     1      98.043  95.517  77.246  1.00  0.00    -0.504 OA
ATOM     16  H   UNL     1      98.032  96.463  77.409  1.00  0.00     0.293 HD
ENDBRANCH   9  15
ENDBRANCH   6   7
ENDBRANCH   3   6
ENDBRANCH   1   2
BRANCH   1  17
ATOM     17  C   UNL     1      89.639  90.885  77.245  1.00  0.00     0.010 C 
BRANCH  17  18
ATOM     18  C   UNL     1      90.309  89.667  76.550  1.00  0.00     0.005 C 
BRANCH  18  19
ATOM     19  C   UNL     1      89.455  89.113  75.377  1.00  0.00     0.027 C 
BRANCH  19  20
ATOM     20  C   UNL     1      89.614  89.902  74.164  1.00  0.00    -0.031 C 
ATOM     21  C   UNL     1      88.618  90.167  73.299  1.00  0.00    -0.028 C 
BRANCH  21  22
ATOM     22  C   UNL     1      88.797  90.979  72.096  1.00  0.00     0.005 C 
ATOM     23  C   UNL     1      89.209  92.441  72.426  1.00  0.00     0.012 C 
ATOM     24  C   UNL     1      89.830  90.314  71.149  1.00  0.00     0.012 C 
ENDBRANCH  21  22
ENDBRANCH  19  20
ENDBRANCH  18  19
ENDBRANCH  17  18
ENDBRANCH   1  17
TORSDOF 10
ENDMDL
MODEL 4
REMARK VINA RESULT:    -6.522      4.377      7.804
REMARK INTER + INTRA:         -11.231
REMARK INTER:                 -10.441
REMARK INTRA:                  -0.790
REMARK UNBOUND:                -1.088
REMARK SMILES COc1cc(CNC(=O)CCCC/C=C/C(C)C)ccc1O
REMARK SMILES IDX 10 1 8 2 7 3 9 5 6 6 5 7 3 8 21 9 4 10 20 11 19 12 2 13 1 14
REMARK SMILES IDX 22 15 11 17 12 18 13 19 14 20 15 21 16 22 17 23 18 24
REMARK H PARENT 7 4 22 16
REMARK Flexibility Score: inf
ROOT
ATOM      1  C   UNL     1      92.814  93.498  75.817  1.00  0.00     0.100 C 
ENDROOT
BRANCH   1   2
ATOM      2  C   UNL     1      94.081  94.162  76.180  1.00  0.00     0.220 C 
ATOM      3  N   UNL     1      94.749  93.802  77.312  1.00  0.00    -0.352 N 
ATOM      4  H   UNL     1      94.298  93.086  77.865  1.00  0.00     0.163 HD
ATOM      5  O   UNL     1      94.531  95.043  75.409  1.00  0.00    -0.275 OA
BRANCH   3   6
ATOM      6  C   UNL     1      95.995  94.359  77.735  1.00  0.00     0.151 C 
BRANCH   6   7
ATOM      7  C   UNL     1      95.949  94.778  79.162  1.00  0.00    -0.025 A 
ATOM      8  C   UNL     1      96.241  96.518  80.880  1.00  0.00     0.160 A 
ATOM      9  C   UNL     1      95.849  95.601  81.877  1.00  0.00     0.157 A 
ATOM     10  C   UNL     1      96.290  96.099  79.534  1.00  0.00     0.056 A 
ATOM     11  C   UNL     1      95.526  94.276  81.524  1.00  0.00     0.050 A 
ATOM     12  C   UNL     1      95.566  93.869  80.176  1.00  0.00     0.009 A 
BRANCH   8  13
ATOM     13  O   UNL     1      96.620  97.790  81.226  1.00  0.00    -0.493 OA
ATOM     14  C   UNL     1      98.042  97.959  81.376  1.00  0.00     0.278 C 
ENDBRANCH   8  13
BRANCH   9  15
ATOM     15  O   UNL     1      95.779  95.977  83.180  1.00  0.00    -0.504 OA
ATOM     16  H   UNL     1      95.797  96.935  83.239  1.00  0.00     0.293 HD
ENDBRANCH   9  15
ENDBRANCH   6   7
ENDBRANCH   3   6
ENDBRANCH   1   2
BRANCH   1  17
ATOM     17  C   UNL     1      91.588  94.404  76.112  1.00  0.00     0.010 C 
BRANCH  17  18
ATOM     18  C   UNL     1      90.441  93.650  76.843  1.00  0.00     0.005 C 
BRANCH  18  19
ATOM     19  C   UNL     1      90.961  92.445  77.672  1.00  0.00     0.027 C 
BRANCH  19  20
ATOM     20  C   UNL     1      90.233  91.221  77.374  1.00  0.00    -0.031 C 
ATOM     21  C   UNL     1      90.595  90.339  76.425  1.00  0.00    -0.028 C 
BRANCH  21  22
ATOM     22  C   UNL     1      89.859  89.104  76.156  1.00  0.00     0.005 C 
ATOM     23  C   UNL     1      89.237  89.087  74.732  1.00  0.00     0.012 C 
ATOM     24  C   UNL     1      90.778  87.874  76.372  1.00  0.00     0.012 C 
ENDBRANCH  21  22
ENDBRANCH  19  20
ENDBRANCH  18  19
ENDBRANCH  17  18
ENDBRANCH   1  17
TORSDOF 10
ENDMDL
MODEL 5
REMARK VINA RESULT:    -6.296      2.655      4.303
REMARK INTER + INTRA:         -10.881
REMARK INTER:                 -10.127
REMARK INTRA:                  -0.753
REMARK UNBOUND:                -1.088
REMARK SMILES COc1cc(CNC(=O)CCCC/C=C/C(C)C)ccc1O
REMARK SMILES IDX 10 1 8 2 7 3 9 5 6 6 5 7 3 8 21 9 4 10 20 11 19 12 2 13 1 14
REMARK SMILES IDX 22 15 11 17 12 18 13 19 14 20 15 21 16 22 17 23 18 24
REMARK H PARENT 7 4 22 16
REMARK Flexibility Score: inf
ROOT
ATOM      1  C   UNL     1      92.369  94.697  75.330  1.00  0.00     0.100 C 
ENDROOT
BRANCH   1   2
ATOM      2  C   UNL     1      91.122  93.908  75.361  1.00  0.00     0.220 C 
ATOM      3  N   UNL     1      91.014  92.757  74.640  1.00  0.00    -0.352 N 
ATOM      4  H   UNL     1      91.827  92.522  74.088  1.00  0.00     0.163 HD
ATOM      5  O   UNL     1      90.182  94.316  76.085  1.00  0.00    -0.275 OA
BRANCH   3   6
ATOM      6  C   UNL     1      89.866  91.908  74.627  1.00  0.00     0.151 C 
BRANCH   6   7
ATOM      7  C   UNL     1      90.004  90.787  75.597  1.00  0.00    -0.025 A 
ATOM      8  C   UNL     1      90.793  88.516  76.126  1.00  0.00     0.160 A 
ATOM      9  C   UNL     1      90.293  88.648  77.438  1.00  0.00     0.157 A 
ATOM     10  C   UNL     1      90.642  89.584  75.218  1.00  0.00     0.056 A 
ATOM     11  C   UNL     1      89.638  89.834  77.825  1.00  0.00     0.050 A 
ATOM     12  C   UNL     1      89.503  90.900  76.914  1.00  0.00     0.009 A 
BRANCH   8  13
ATOM     13  O   UNL     1      91.373  87.339  75.726  1.00  0.00    -0.493 OA
ATOM     14  C   UNL     1      91.214  87.054  74.324  1.00  0.00     0.278 C 
ENDBRANCH   8  13
BRANCH   9  15
ATOM     15  O   UNL     1      90.434  87.643  78.341  1.00  0.00    -0.504 OA
ATOM     16  H   UNL     1      90.876  86.899  77.926  1.00  0.00     0.293 HD
ENDBRANCH   9  15
ENDBRANCH   6   7
ENDBRANCH   3   6
ENDBRANCH   1   2
BRANCH   1  17
ATOM     17  C   UNL     1      93.207  94.493  76.621  1.00  0.00     0.010 C 
BRANCH  17  18
ATOM     18  C   UNL     1      94.719  94.789  76.413  1.00  0.00     0.005 C 
BRANCH  18  19
ATOM     19  C   UNL     1      95.628  93.737  77.105  1.00  0.00     0.027 C 
BRANCH  19  20
ATOM     20  C   UNL     1      96.271  94.268  78.297  1.00  0.00    -0.031 C 
ATOM     21  C   UNL     1      95.638  94.489  79.463  1.00  0.00    -0.028 C 
BRANCH  21  22
ATOM     22  C   UNL     1      96.309  95.006  80.656  1.00  0.00     0.005 C 
ATOM     23  C   UNL     1      96.975  96.388  80.405  1.00  0.00     0.012 C 
ATOM     24  C   UNL     1      95.314  95.078  81.842  1.00  0.00     0.012 C 
ENDBRANCH  21  22
ENDBRANCH  19  20
ENDBRANCH  18  19
ENDBRANCH  17  18
ENDBRANCH   1  17
TORSDOF 10
ENDMDL
MODEL 6
REMARK VINA RESULT:    -6.264      2.737      5.357
REMARK INTER + INTRA:         -10.830
REMARK INTER:                  -9.891
REMARK INTRA:                  -0.939
REMARK UNBOUND:                -1.088
REMARK SMILES COc1cc(CNC(=O)CCCC/C=C/C(C)C)ccc1O
REMARK SMILES IDX 10 1 8 2 7 3 9 5 6 6 5 7 3 8 21 9 4 10 20 11 19 12 2 13 1 14
REMARK SMILES IDX 22 15 11 17 12 18 13 19 14 20 15 21 16 22 17 23 18 24
REMARK H PARENT 7 4 22 16
REMARK Flexibility Score: inf
ROOT
ATOM      1  C   UNL     1      94.129  94.871  75.835  1.00  0.00     0.100 C 
ENDROOT
BRANCH   1   2
ATOM      2  C   UNL     1      92.887  94.416  76.490  1.00  0.00     0.220 C 
ATOM      3  N   UNL     1      91.672  94.712  75.948  1.00  0.00    -0.352 N 
ATOM      4  H   UNL     1      91.705  95.270  75.106  1.00  0.00     0.163 HD
ATOM      5  O   UNL     1      92.985  93.734  77.538  1.00  0.00    -0.275 OA
BRANCH   3   6
ATOM      6  C   UNL     1      90.417  94.293  76.484  1.00  0.00     0.151 C 
BRANCH   6   7
ATOM      7  C   UNL     1      90.038  92.939  75.994  1.00  0.00    -0.025 A 
ATOM      8  C   UNL     1      90.018  91.253  74.200  1.00  0.00     0.160 A 
ATOM      9  C   UNL     1      89.341  90.355  75.051  1.00  0.00     0.157 A 
ATOM     10  C   UNL     1      90.358  92.536  74.678  1.00  0.00     0.056 A 
ATOM     11  C   UNL     1      88.998  90.750  76.359  1.00  0.00     0.050 A 
ATOM     12  C   UNL     1      89.352  92.029  76.832  1.00  0.00     0.009 A 
BRANCH   8  13
ATOM     13  O   UNL     1      90.295  90.897  72.905  1.00  0.00    -0.493 OA
ATOM     14  C   UNL     1      89.527  91.614  71.922  1.00  0.00     0.278 C 
ENDBRANCH   8  13
BRANCH   9  15
ATOM     15  O   UNL     1      89.011  89.108  74.626  1.00  0.00    -0.504 OA
ATOM     16  H   UNL     1      89.288  88.996  73.714  1.00  0.00     0.293 HD
ENDBRANCH   9  15
ENDBRANCH   6   7
ENDBRANCH   3   6
ENDBRANCH   1   2
BRANCH   1  17
ATOM     17  C   UNL     1      95.151  93.713  75.678  1.00  0.00     0.010 C 
BRANCH  17  18
ATOM     18  C   UNL     1      96.455  93.942  76.492  1.00  0.00     0.005 C 
BRANCH  18  19
ATOM     19  C   UNL     1      96.773  95.449  76.687  1.00  0.00     0.027 C 
BRANCH  19  20
ATOM     20  C   UNL     1      96.977  95.789  78.087  1.00  0.00    -0.031 C 
ATOM     21  C   UNL     1      96.213  95.331  79.095  1.00  0.00    -0.028 C 
BRANCH  21  22
ATOM     22  C   UNL     1      96.449  95.670  80.498  1.00  0.00     0.005 C 
ATOM     23  C   UNL     1      96.688  97.191  80.705  1.00  0.00     0.012 C 
ATOM     24  C   UNL     1      95.272  95.171  81.376  1.00  0.00     0.012 C 
ENDBRANCH  21  22
ENDBRANCH  19  20
ENDBRANCH  18  19
ENDBRANCH  17  18
ENDBRANCH   1  17
TORSDOF 10
ENDMDL
MODEL 7
REMARK VINA RESULT:    -6.236      2.789      4.216
REMARK INTER + INTRA:         -10.787
REMARK INTER:                 -10.157
REMARK INTRA:                  -0.629
REMARK UNBOUND:                -1.088
REMARK SMILES COc1cc(CNC(=O)CCCC/C=C/C(C)C)ccc1O
REMARK SMILES IDX 10 1 8 2 7 3 9 5 6 6 5 7 3 8 21 9 4 10 20 11 19 12 2 13 1 14
REMARK SMILES IDX 22 15 11 17 12 18 13 19 14 20 15 21 16 22 17 23 18 24
REMARK H PARENT 7 4 22 16
REMARK Flexibility Score: inf
ROOT
ATOM      1  C   UNL     1      92.484  94.617  75.484  1.00  0.00     0.100 C 
ENDROOT
BRANCH   1   2
ATOM      2  C   UNL     1      91.553  93.625  74.912  1.00  0.00     0.220 C 
ATOM      3  N   UNL     1      92.024  92.467  74.370  1.00  0.00    -0.352 N 
ATOM      4  H   UNL     1      93.030  92.371  74.375  1.00  0.00     0.163 HD
ATOM      5  O   UNL     1      90.323  93.870  74.963  1.00  0.00    -0.275 OA
BRANCH   3   6
ATOM      6  C   UNL     1      91.206  91.432  73.821  1.00  0.00     0.151 C 
BRANCH   6   7
ATOM      7  C   UNL     1      90.997  90.327  74.796  1.00  0.00    -0.025 A 
ATOM      8  C   UNL     1      90.147  89.536  76.968  1.00  0.00     0.160 A 
ATOM      9  C   UNL     1      90.572  88.228  76.658  1.00  0.00     0.157 A 
ATOM     10  C   UNL     1      90.365  90.573  76.036  1.00  0.00     0.056 A 
ATOM     11  C   UNL     1      91.221  87.971  75.434  1.00  0.00     0.050 A 
ATOM     12  C   UNL     1      91.424  89.010  74.505  1.00  0.00     0.009 A 
BRANCH   8  13
ATOM     13  O   UNL     1      89.574  89.804  78.185  1.00  0.00    -0.493 OA
ATOM     14  C   UNL     1      90.381  90.629  79.045  1.00  0.00     0.278 C 
ENDBRANCH   8  13
BRANCH   9  15
ATOM     15  O   UNL     1      90.366  87.205  77.527  1.00  0.00    -0.504 OA
ATOM     16  H   UNL     1      89.921  87.535  78.311  1.00  0.00     0.293 HD
ENDBRANCH   9  15
ENDBRANCH   6   7
ENDBRANCH   3   6
ENDBRANCH   1   2
BRANCH   1  17
ATOM     17  C   UNL     1      92.835  94.289  76.960  1.00  0.00     0.010 C 
BRANCH  17  18
ATOM     18  C   UNL     1      94.366  94.195  77.212  1.00  0.00     0.005 C 
BRANCH  18  19
ATOM     19  C   UNL     1      94.715  94.154  78.724  1.00  0.00     0.027 C 
BRANCH  19  20
ATOM     20  C   UNL     1      95.692  95.168  79.088  1.00  0.00    -0.031 C 
ATOM     21  C   UNL     1      95.784  95.726  80.309  1.00  0.00    -0.028 C 
BRANCH  21  22
ATOM     22  C   UNL     1      96.788  96.731  80.659  1.00  0.00     0.005 C 
ATOM     23  C   UNL     1      97.477  97.336  79.405  1.00  0.00     0.012 C 
ATOM     24  C   UNL     1      96.151  97.843  81.531  1.00  0.00     0.012 C 
ENDBRANCH  21  22
ENDBRANCH  19  20
ENDBRANCH  18  19
ENDBRANCH  17  18
ENDBRANCH   1  17
TORSDOF 10
ENDMDL
MODEL 8
REMARK VINA RESULT:    -5.873      5.166      7.733
REMARK INTER + INTRA:         -10.222
REMARK INTER:                  -9.611
REMARK INTRA:                  -0.611
REMARK UNBOUND:                -1.088
REMARK SMILES COc1cc(CNC(=O)CCCC/C=C/C(C)C)ccc1O
REMARK SMILES IDX 10 1 8 2 7 3 9 5 6 6 5 7 3 8 21 9 4 10 20 11 19 12 2 13 1 14
REMARK SMILES IDX 22 15 11 17 12 18 13 19 14 20 15 21 16 22 17 23 18 24
REMARK H PARENT 7 4 22 16
REMARK Flexibility Score: inf
ROOT
ATOM      1  C   UNL     1      95.775  94.012  79.548  1.00  0.00     0.100 C 
ENDROOT
BRANCH   1   2
ATOM      2  C   UNL     1      95.149  94.342  78.253  1.00  0.00     0.220 C 
ATOM      3  N   UNL     1      94.056  93.655  77.819  1.00  0.00    -0.352 N 
ATOM      4  H   UNL     1      93.746  92.914  78.433  1.00  0.00     0.163 HD
ATOM      5  O   UNL     1      95.637  95.283  77.582  1.00  0.00    -0.275 OA
BRANCH   3   6
ATOM      6  C   UNL     1      93.359  93.916  76.601  1.00  0.00     0.151 C 
BRANCH   6   7
ATOM      7  C   UNL     1      92.097  93.132  76.514  1.00  0.00    -0.025 A 
ATOM      8  C   UNL     1      90.357  92.042  75.154  1.00  0.00     0.160 A 
ATOM      9  C   UNL     1      89.701  91.621  76.329  1.00  0.00     0.157 A 
ATOM     10  C   UNL     1      91.546  92.794  75.257  1.00  0.00     0.056 A 
ATOM     11  C   UNL     1      90.227  91.968  77.589  1.00  0.00     0.050 A 
ATOM     12  C   UNL     1      91.421  92.709  77.682  1.00  0.00     0.009 A 
BRANCH   8  13
ATOM     13  O   UNL     1      89.814  91.764  73.926  1.00  0.00    -0.493 OA
ATOM     14  C   UNL     1      90.776  91.709  72.857  1.00  0.00     0.278 C 
ENDBRANCH   8  13
BRANCH   9  15
ATOM     15  O   UNL     1      88.562  90.884  76.265  1.00  0.00    -0.504 OA
ATOM     16  H   UNL     1      87.802  91.470  76.243  1.00  0.00     0.293 HD
ENDBRANCH   9  15
ENDBRANCH   6   7
ENDBRANCH   3   6
ENDBRANCH   1   2
BRANCH   1  17
ATOM     17  C   UNL     1      95.229  94.908  80.693  1.00  0.00     0.010 C 
BRANCH  17  18
ATOM     18  C   UNL     1      96.357  95.593  81.515  1.00  0.00     0.005 C 
BRANCH  18  19
ATOM     19  C   UNL     1      96.308  97.142  81.407  1.00  0.00     0.027 C 
BRANCH  19  20
ATOM     20  C   UNL     1      96.513  97.786  82.696  1.00  0.00    -0.031 C 
ATOM     21  C   UNL     1      96.120  97.265  83.872  1.00  0.00    -0.028 C 
BRANCH  21  22
ATOM     22  C   UNL     1      96.354  97.922  85.158  1.00  0.00     0.005 C 
ATOM     23  C   UNL     1      97.626  97.386  85.871  1.00  0.00     0.012 C 
ATOM     24  C   UNL     1      96.431  99.459  84.969  1.00  0.00     0.012 C 
ENDBRANCH  21  22
ENDBRANCH  19  20
ENDBRANCH  18  19
ENDBRANCH  17  18
ENDBRANCH   1  17
TORSDOF 10
ENDMDL
MODEL 9
REMARK VINA RESULT:    -5.554     14.779     16.772
REMARK INTER + INTRA:          -9.727
REMARK INTER:                  -8.981
REMARK INTRA:                  -0.746
REMARK UNBOUND:                -1.088
REMARK SMILES COc1cc(CNC(=O)CCCC/C=C/C(C)C)ccc1O
REMARK SMILES IDX 10 1 8 2 7 3 9 5 6 6 5 7 3 8 21 9 4 10 20 11 19 12 2 13 1 14
REMARK SMILES IDX 22 15 11 17 12 18 13 19 14 20 15 21 16 22 17 23 18 24
REMARK H PARENT 7 4 22 16
REMARK Flexibility Score: inf
ROOT
ATOM      1  C   UNL     1      76.587  92.892  64.991  1.00  0.00     0.100 C 
ENDROOT
BRANCH   1   2
ATOM      2  C   UNL     1      76.317  91.613  64.308  1.00  0.00     0.220 C 
ATOM      3  N   UNL     1      77.311  90.697  64.138  1.00  0.00    -0.352 N 
ATOM      4  H   UNL     1      78.216  90.979  64.489  1.00  0.00     0.163 HD
ATOM      5  O   UNL     1      75.148  91.387  63.912  1.00  0.00    -0.275 OA
BRANCH   3   6
ATOM      6  C   UNL     1      77.147  89.420  63.520  1.00  0.00     0.151 C 
BRANCH   6   7
ATOM      7  C   UNL     1      77.518  88.314  64.444  1.00  0.00    -0.025 A 
ATOM      8  C   UNL     1      77.951  85.922  64.836  1.00  0.00     0.160 A 
ATOM      9  C   UNL     1      78.242  86.195  66.189  1.00  0.00     0.157 A 
ATOM     10  C   UNL     1      77.590  86.982  63.978  1.00  0.00     0.056 A 
ATOM     11  C   UNL     1      78.155  87.516  66.673  1.00  0.00     0.050 A 
ATOM     12  C   UNL     1      77.805  88.569  65.806  1.00  0.00     0.009 A 
BRANCH   8  13
ATOM     13  O   UNL     1      77.970  84.630  64.376  1.00  0.00    -0.493 OA
ATOM     14  C   UNL     1      76.677  83.998  64.346  1.00  0.00     0.278 C 
ENDBRANCH   8  13
BRANCH   9  15
ATOM     15  O   UNL     1      78.605  85.200  67.038  1.00  0.00    -0.504 OA
ATOM     16  H   UNL     1      79.257  84.638  66.613  1.00  0.00     0.293 HD
ENDBRANCH   9  15
ENDBRANCH   6   7
ENDBRANCH   3   6
ENDBRANCH   1   2
BRANCH   1  17
ATOM     17  C   UNL     1      77.473  93.828  64.126  1.00  0.00     0.010 C 
BRANCH  17  18
ATOM     18  C   UNL     1      78.869  94.093  64.756  1.00  0.00     0.005 C 
BRANCH  18  19
ATOM     19  C   UNL     1      79.132  95.604  64.995  1.00  0.00     0.027 C 
BRANCH  19  20
ATOM     20  C   UNL     1      78.923  95.983  66.384  1.00  0.00    -0.031 C 
ATOM     21  C   UNL     1      79.748  95.645  67.392  1.00  0.00    -0.028 C 
BRANCH  21  22
ATOM     22  C   UNL     1      79.529  96.054  68.780  1.00  0.00     0.005 C 
ATOM     23  C   UNL     1      79.736  97.581  68.984  1.00  0.00     0.012 C 
ATOM     24  C   UNL     1      78.116  95.620  69.250  1.00  0.00     0.012 C 
ENDBRANCH  21  22
ENDBRANCH  19  20
ENDBRANCH  18  19
ENDBRANCH  17  18
ENDBRANCH   1  17
TORSDOF 10
ENDMDL
MODEL 10
REMARK VINA RESULT:    -5.477      4.388      7.304
REMARK INTER + INTRA:          -9.607
REMARK INTER:                  -8.756
REMARK INTRA:                  -0.850
REMARK UNBOUND:                -1.088
REMARK SMILES COc1cc(CNC(=O)CCCC/C=C/C(C)C)ccc1O
REMARK SMILES IDX 10 1 8 2 7 3 9 5 6 6 5 7 3 8 21 9 4 10 20 11 19 12 2 13 1 14
REMARK SMILES IDX 22 15 11 17 12 18 13 19 14 20 15 21 16 22 17 23 18 24
REMARK H PARENT 7 4 22 16
REMARK Flexibility Score: inf
ROOT
ATOM      1  C   UNL     1      95.770  94.175  79.695  1.00  0.00     0.100 C 
ENDROOT
BRANCH   1   2
ATOM      2  C   UNL     1      95.480  94.434  78.271  1.00  0.00     0.220 C 
ATOM      3  N   UNL     1      94.516  93.723  77.621  1.00  0.00    -0.352 N 
ATOM      4  H   UNL     1      94.058  93.016  78.180  1.00  0.00     0.163 HD
ATOM      5  O   UNL     1      96.127  95.339  77.690  1.00  0.00    -0.275 OA
BRANCH   3   6
ATOM      6  C   UNL     1      94.138  93.918  76.258  1.00  0.00     0.151 C 
BRANCH   6   7
ATOM      7  C   UNL     1      92.854  93.235  75.944  1.00  0.00    -0.025 A 
ATOM      8  C   UNL     1      90.685  92.334  76.684  1.00  0.00     0.160 A 
ATOM      9  C   UNL     1      90.391  91.951  75.359  1.00  0.00     0.157 A 
ATOM     10  C   UNL     1      91.913  92.970  76.964  1.00  0.00     0.056 A 
ATOM     11  C   UNL     1      91.328  92.191  74.335  1.00  0.00     0.050 A 
ATOM     12  C   UNL     1      92.546  92.837  74.622  1.00  0.00     0.009 A 
BRANCH   8  13
ATOM     13  O   UNL     1      89.805  92.044  77.696  1.00  0.00    -0.493 OA
ATOM     14  C   UNL     1      90.196  90.922  78.509  1.00  0.00     0.278 C 
ENDBRANCH   8  13
BRANCH   9  15
ATOM     15  O   UNL     1      89.213  91.349  75.054  1.00  0.00    -0.504 OA
ATOM     16  H   UNL     1      89.307  90.398  75.137  1.00  0.00     0.293 HD
ENDBRANCH   9  15
ENDBRANCH   6   7
ENDBRANCH   3   6
ENDBRANCH   1   2
BRANCH   1  17
ATOM     17  C   UNL     1      95.180  95.282  80.610  1.00  0.00     0.010 C 
BRANCH  17  18
ATOM     18  C   UNL     1      96.216  96.382  80.974  1.00  0.00     0.005 C 
BRANCH  18  19
ATOM     19  C   UNL     1      97.277  95.881  81.991  1.00  0.00     0.027 C 
BRANCH  19  20
ATOM     20  C   UNL     1      98.624  95.924  81.442  1.00  0.00    -0.031 C 
ATOM     21  C   UNL     1      98.903  95.993  80.128  1.00  0.00    -0.028 C 
BRANCH  21  22
ATOM     22  C   UNL     1     100.266  96.056  79.599  1.00  0.00     0.005 C 
ATOM     23  C   UNL     1     100.770  97.517  79.443  1.00  0.00     0.012 C 
ATOM     24  C   UNL     1     101.226  95.232  80.496  1.00  0.00     0.012 C 
ENDBRANCH  21  22
ENDBRANCH  19  20
ENDBRANCH  18  19
ENDBRANCH  17  18
ENDBRANCH   1  17
TORSDOF 10
ENDMDL
