MODEL 1
REMARK VINA RESULT:    -5.681      0.000      0.000
REMARK INTER + INTRA:          -9.863
REMARK INTER:                  -9.168
REMARK INTRA:                  -0.696
REMARK UNBOUND:                -0.696
REMARK SMILES CCCCCCCCC(=O)NCc1ccc(O)c(OC)c1
REMARK SMILES IDX 7 1 6 2 5 3 4 4 3 5 2 6 1 7 8 8 9 9 10 10 11 11 12 13 13 14
REMARK SMILES IDX 21 15 14 16 18 17 15 18 16 19 19 20 20 21 17 22
REMARK H PARENT 11 12 17 23
REMARK Flexibility Score: inf
ROOT
ATOM      1  C   UNL     1      63.037  84.435  75.413  1.00  0.00     0.010 C 
ENDROOT
BRANCH   1   2
ATOM      2  C   UNL     1      62.858  83.334  74.328  1.00  0.00     0.001 C 
BRANCH   2   3
ATOM      3  C   UNL     1      62.366  81.986  74.933  1.00  0.00     0.000 C 
BRANCH   3   4
ATOM      4  C   UNL     1      62.906  80.732  74.189  1.00  0.00    -0.000 C 
BRANCH   4   5
ATOM      5  C   UNL     1      63.974  81.084  73.116  1.00  0.00    -0.000 C 
BRANCH   5   6
ATOM      6  C   UNL     1      65.277  80.255  73.277  1.00  0.00    -0.003 C 
ATOM      7  C   UNL     1      65.867  80.335  74.702  1.00  0.00     0.004 C 
ENDBRANCH   5   6
ENDBRANCH   4   5
ENDBRANCH   3   4
ENDBRANCH   2   3
ENDBRANCH   1   2
BRANCH   1   8
ATOM      8  C   UNL     1      64.519  84.830  75.670  1.00  0.00     0.100 C 
BRANCH   8   9
ATOM      9  C   UNL     1      64.621  85.911  76.681  1.00  0.00     0.220 C 
ATOM     10  O   UNL     1      63.964  86.963  76.496  1.00  0.00    -0.275 OA
ATOM     11  N   UNL     1      65.391  85.746  77.797  1.00  0.00    -0.352 N 
ATOM     12  H   UNL     1      65.943  84.901  77.802  1.00  0.00     0.163 HD
BRANCH  11  13
ATOM     13  C   UNL     1      65.461  86.649  78.904  1.00  0.00     0.151 C 
BRANCH  13  14
ATOM     14  C   UNL     1      65.896  86.010  80.175  1.00  0.00    -0.025 A 
ATOM     15  C   UNL     1      65.121  86.161  81.350  1.00  0.00     0.056 A 
ATOM     16  C   UNL     1      67.085  85.247  80.235  1.00  0.00     0.009 A 
ATOM     17  C   UNL     1      65.512  85.544  82.561  1.00  0.00     0.160 A 
ATOM     18  C   UNL     1      67.479  84.631  81.436  1.00  0.00     0.050 A 
ATOM     19  C   UNL     1      66.702  84.783  82.601  1.00  0.00     0.157 A 
BRANCH  17  20
ATOM     20  O   UNL     1      64.782  85.727  83.708  1.00  0.00    -0.493 OA
ATOM     21  C   UNL     1      64.949  87.021  84.313  1.00  0.00     0.278 C 
ENDBRANCH  17  20
BRANCH  19  22
ATOM     22  O   UNL     1      67.105  84.207  83.762  1.00  0.00    -0.504 OA
ATOM     23  H   UNL     1      67.218  84.884  84.433  1.00  0.00     0.293 HD
ENDBRANCH  19  22
ENDBRANCH  13  14
ENDBRANCH  11  13
ENDBRANCH   8   9
ENDBRANCH   1   8
TORSDOF 11
ENDMDL
MODEL 2
REMARK VINA RESULT:    -5.649     29.921     31.500
REMARK INTER + INTRA:          -9.812
REMARK INTER:                  -9.198
REMARK INTRA:                  -0.615
REMARK UNBOUND:                -0.696
REMARK SMILES CCCCCCCCC(=O)NCc1ccc(O)c(OC)c1
REMARK SMILES IDX 7 1 6 2 5 3 4 4 3 5 2 6 1 7 8 8 9 9 10 10 11 11 12 13 13 14
REMARK SMILES IDX 21 15 14 16 18 17 15 18 16 19 19 20 20 21 17 22
REMARK H PARENT 11 12 17 23
REMARK Flexibility Score: inf
ROOT
ATOM      1  C   UNL     1      93.483 100.051  71.149  1.00  0.00     0.010 C 
ENDROOT
BRANCH   1   2
ATOM      2  C   UNL     1      92.170 100.014  70.314  1.00  0.00     0.001 C 
BRANCH   2   3
ATOM      3  C   UNL     1      91.950  98.636  69.624  1.00  0.00     0.000 C 
BRANCH   3   4
ATOM      4  C   UNL     1      90.598  98.524  68.865  1.00  0.00    -0.000 C 
BRANCH   4   5
ATOM      5  C   UNL     1      90.613  99.267  67.499  1.00  0.00    -0.000 C 
BRANCH   5   6
ATOM      6  C   UNL     1      90.413  98.307  66.295  1.00  0.00    -0.003 C 
ATOM      7  C   UNL     1      89.592  97.050  66.660  1.00  0.00     0.004 C 
ENDBRANCH   5   6
ENDBRANCH   4   5
ENDBRANCH   3   4
ENDBRANCH   2   3
ENDBRANCH   1   2
BRANCH   1   8
ATOM      8  C   UNL     1      93.322  99.517  72.600  1.00  0.00     0.100 C 
BRANCH   8   9
ATOM      9  C   UNL     1      94.088  98.264  72.802  1.00  0.00     0.220 C 
ATOM     10  O   UNL     1      94.565  97.689  71.794  1.00  0.00    -0.275 OA
ATOM     11  N   UNL     1      94.291  97.770  74.058  1.00  0.00    -0.352 N 
ATOM     12  H   UNL     1      93.792  98.261  74.786  1.00  0.00     0.163 HD
BRANCH  11  13
ATOM     13  C   UNL     1      95.126  96.657  74.394  1.00  0.00     0.151 C 
BRANCH  13  14
ATOM     14  C   UNL     1      94.486  95.682  75.317  1.00  0.00    -0.025 A 
ATOM     15  C   UNL     1      95.166  95.253  76.482  1.00  0.00     0.056 A 
ATOM     16  C   UNL     1      93.197  95.166  75.049  1.00  0.00     0.009 A 
ATOM     17  C   UNL     1      94.563  94.340  77.378  1.00  0.00     0.160 A 
ATOM     18  C   UNL     1      92.592  94.259  75.937  1.00  0.00     0.050 A 
ATOM     19  C   UNL     1      93.273  93.838  77.096  1.00  0.00     0.157 A 
BRANCH  17  20
ATOM     20  O   UNL     1      95.240  93.892  78.484  1.00  0.00    -0.493 OA
ATOM     21  C   UNL     1      95.251  94.821  79.583  1.00  0.00     0.278 C 
ENDBRANCH  17  20
BRANCH  19  22
ATOM     22  O   UNL     1      92.691  92.940  77.932  1.00  0.00    -0.504 OA
ATOM     23  H   UNL     1      92.082  92.389  77.436  1.00  0.00     0.293 HD
ENDBRANCH  19  22
ENDBRANCH  13  14
ENDBRANCH  11  13
ENDBRANCH   8   9
ENDBRANCH   1   8
TORSDOF 11
ENDMDL
MODEL 3
REMARK VINA RESULT:    -5.594     29.768     31.834
REMARK INTER + INTRA:          -9.723
REMARK INTER:                  -8.910
REMARK INTRA:                  -0.813
REMARK UNBOUND:                -0.696
REMARK SMILES CCCCCCCCC(=O)NCc1ccc(O)c(OC)c1
REMARK SMILES IDX 7 1 6 2 5 3 4 4 3 5 2 6 1 7 8 8 9 9 10 10 11 11 12 13 13 14
REMARK SMILES IDX 21 15 14 16 18 17 15 18 16 19 19 20 20 21 17 22
REMARK H PARENT 11 12 17 23
REMARK Flexibility Score: inf
ROOT
ATOM      1  C   UNL     1      93.932  94.231  76.262  1.00  0.00     0.010 C 
ENDROOT
BRANCH   1   2
ATOM      2  C   UNL     1      92.755  94.892  75.490  1.00  0.00     0.001 C 
BRANCH   2   3
ATOM      3  C   UNL     1      91.541  93.929  75.329  1.00  0.00     0.000 C 
BRANCH   3   4
ATOM      4  C   UNL     1      90.273  94.383  76.106  1.00  0.00    -0.000 C 
BRANCH   4   5
ATOM      5  C   UNL     1      89.741  93.290  77.076  1.00  0.00    -0.000 C 
BRANCH   5   6
ATOM      6  C   UNL     1      90.764  92.145  77.304  1.00  0.00    -0.003 C 
ATOM      7  C   UNL     1      90.323  91.157  78.406  1.00  0.00     0.004 C 
ENDBRANCH   5   6
ENDBRANCH   4   5
ENDBRANCH   3   4
ENDBRANCH   2   3
ENDBRANCH   1   2
BRANCH   1   8
ATOM      8  C   UNL     1      93.749  94.226  77.806  1.00  0.00     0.100 C 
BRANCH   8   9
ATOM      9  C   UNL     1      95.056  94.220  78.505  1.00  0.00     0.220 C 
ATOM     10  O   UNL     1      96.101  94.174  77.813  1.00  0.00    -0.275 OA
ATOM     11  N   UNL     1      95.115  94.292  79.867  1.00  0.00    -0.352 N 
ATOM     12  H   UNL     1      94.218  94.237  80.327  1.00  0.00     0.163 HD
BRANCH  11  13
ATOM     13  C   UNL     1      96.307  94.435  80.646  1.00  0.00     0.151 C 
BRANCH  13  14
ATOM     14  C   UNL     1      96.567  95.828  81.097  1.00  0.00    -0.025 A 
ATOM     15  C   UNL     1      96.855  96.094  82.457  1.00  0.00     0.056 A 
ATOM     16  C   UNL     1      96.528  96.907  80.184  1.00  0.00     0.009 A 
ATOM     17  C   UNL     1      97.121  97.411  82.898  1.00  0.00     0.160 A 
ATOM     18  C   UNL     1      96.793  98.219  80.616  1.00  0.00     0.050 A 
ATOM     19  C   UNL     1      97.082  98.476  81.970  1.00  0.00     0.157 A 
BRANCH  17  20
ATOM     20  O   UNL     1      97.358  97.672  84.224  1.00  0.00    -0.493 OA
ATOM     21  C   UNL     1      96.168  97.855  85.010  1.00  0.00     0.278 C 
ENDBRANCH  17  20
BRANCH  19  22
ATOM     22  O   UNL     1      97.309  99.749  82.382  1.00  0.00    -0.504 OA
ATOM     23  H   UNL     1      96.470 100.193  82.528  1.00  0.00     0.293 HD
ENDBRANCH  19  22
ENDBRANCH  13  14
ENDBRANCH  11  13
ENDBRANCH   8   9
ENDBRANCH   1   8
TORSDOF 11
ENDMDL
MODEL 4
REMARK VINA RESULT:    -5.467     24.722     25.607
REMARK INTER + INTRA:          -9.518
REMARK INTER:                  -8.154
REMARK INTRA:                  -1.364
REMARK UNBOUND:                -0.696
REMARK SMILES CCCCCCCCC(=O)NCc1ccc(O)c(OC)c1
REMARK SMILES IDX 7 1 6 2 5 3 4 4 3 5 2 6 1 7 8 8 9 9 10 10 11 11 12 13 13 14
REMARK SMILES IDX 21 15 14 16 18 17 15 18 16 19 19 20 20 21 17 22
REMARK H PARENT 11 12 17 23
REMARK Flexibility Score: inf
ROOT
ATOM      1  C   UNL     1      80.168  66.349  72.534  1.00  0.00     0.010 C 
ENDROOT
BRANCH   1   2
ATOM      2  C   UNL     1      80.693  66.287  71.071  1.00  0.00     0.001 C 
BRANCH   2   3
ATOM      3  C   UNL     1      82.180  65.830  70.998  1.00  0.00     0.000 C 
BRANCH   3   4
ATOM      4  C   UNL     1      83.180  66.989  70.728  1.00  0.00    -0.000 C 
BRANCH   4   5
ATOM      5  C   UNL     1      82.491  68.383  70.702  1.00  0.00    -0.000 C 
BRANCH   5   6
ATOM      6  C   UNL     1      83.153  69.394  71.676  1.00  0.00    -0.003 C 
ATOM      7  C   UNL     1      84.482  69.966  71.136  1.00  0.00     0.004 C 
ENDBRANCH   5   6
ENDBRANCH   4   5
ENDBRANCH   3   4
ENDBRANCH   2   3
ENDBRANCH   1   2
BRANCH   1   8
ATOM      8  C   UNL     1      80.201  64.983  73.274  1.00  0.00     0.100 C 
BRANCH   8   9
ATOM      9  C   UNL     1      81.044  65.048  74.492  1.00  0.00     0.220 C 
ATOM     10  O   UNL     1      81.673  64.019  74.836  1.00  0.00    -0.275 OA
ATOM     11  N   UNL     1      81.151  66.211  75.199  1.00  0.00    -0.352 N 
ATOM     12  H   UNL     1      80.538  66.949  74.886  1.00  0.00     0.163 HD
BRANCH  11  13
ATOM     13  C   UNL     1      82.035  66.440  76.301  1.00  0.00     0.151 C 
BRANCH  13  14
ATOM     14  C   UNL     1      83.261  67.201  75.940  1.00  0.00    -0.025 A 
ATOM     15  C   UNL     1      83.963  67.932  76.928  1.00  0.00     0.056 A 
ATOM     16  C   UNL     1      83.745  67.211  74.612  1.00  0.00     0.009 A 
ATOM     17  C   UNL     1      85.139  68.646  76.603  1.00  0.00     0.160 A 
ATOM     18  C   UNL     1      84.916  67.918  74.282  1.00  0.00     0.050 A 
ATOM     19  C   UNL     1      85.610  68.641  75.271  1.00  0.00     0.157 A 
BRANCH  17  20
ATOM     20  O   UNL     1      85.794  69.389  77.554  1.00  0.00    -0.493 OA
ATOM     21  C   UNL     1      86.602  68.611  78.455  1.00  0.00     0.278 C 
ENDBRANCH  17  20
BRANCH  19  22
ATOM     22  O   UNL     1      86.723  69.343  74.938  1.00  0.00    -0.504 OA
ATOM     23  H   UNL     1      87.480  68.752  74.918  1.00  0.00     0.293 HD
ENDBRANCH  19  22
ENDBRANCH  13  14
ENDBRANCH  11  13
ENDBRANCH   8   9
ENDBRANCH   1   8
TORSDOF 11
ENDMDL
MODEL 5
REMARK VINA RESULT:    -5.459     29.268     30.931
REMARK INTER + INTRA:          -9.506
REMARK INTER:                  -8.974
REMARK INTRA:                  -0.532
REMARK UNBOUND:                -0.696
REMARK SMILES CCCCCCCCC(=O)NCc1ccc(O)c(OC)c1
REMARK SMILES IDX 7 1 6 2 5 3 4 4 3 5 2 6 1 7 8 8 9 9 10 10 11 11 12 13 13 14
REMARK SMILES IDX 21 15 14 16 18 17 15 18 16 19 19 20 20 21 17 22
REMARK H PARENT 11 12 17 23
REMARK Flexibility Score: inf
ROOT
ATOM      1  C   UNL     1      94.376  99.156  71.316  1.00  0.00     0.010 C 
ENDROOT
BRANCH   1   2
ATOM      2  C   UNL     1      93.635  99.517  69.997  1.00  0.00     0.001 C 
BRANCH   2   3
ATOM      3  C   UNL     1      92.359  98.650  69.781  1.00  0.00     0.000 C 
BRANCH   3   4
ATOM      4  C   UNL     1      91.335  99.277  68.793  1.00  0.00    -0.000 C 
BRANCH   4   5
ATOM      5  C   UNL     1      90.171  98.308  68.441  1.00  0.00    -0.000 C 
BRANCH   5   6
ATOM      6  C   UNL     1      89.554  98.600  67.046  1.00  0.00    -0.003 C 
ATOM      7  C   UNL     1      89.528  97.358  66.129  1.00  0.00     0.004 C 
ENDBRANCH   5   6
ENDBRANCH   4   5
ENDBRANCH   3   4
ENDBRANCH   2   3
ENDBRANCH   1   2
BRANCH   1   8
ATOM      8  C   UNL     1      93.446  98.586  72.424  1.00  0.00     0.100 C 
BRANCH   8   9
ATOM      9  C   UNL     1      94.229  98.072  73.574  1.00  0.00     0.220 C 
ATOM     10  O   UNL     1      94.819  98.899  74.310  1.00  0.00    -0.275 OA
ATOM     11  N   UNL     1      94.278  96.733  73.836  1.00  0.00    -0.352 N 
ATOM     12  H   UNL     1      93.841  96.153  73.134  1.00  0.00     0.163 HD
BRANCH  11  13
ATOM     13  C   UNL     1      94.876  96.128  74.987  1.00  0.00     0.151 C 
BRANCH  13  14
ATOM     14  C   UNL     1      93.977  95.188  75.708  1.00  0.00    -0.025 A 
ATOM     15  C   UNL     1      92.722  94.837  75.156  1.00  0.00     0.056 A 
ATOM     16  C   UNL     1      94.353  94.634  76.954  1.00  0.00     0.009 A 
ATOM     17  C   UNL     1      91.865  93.931  75.822  1.00  0.00     0.160 A 
ATOM     18  C   UNL     1      93.505  93.732  77.621  1.00  0.00     0.050 A 
ATOM     19  C   UNL     1      92.260  93.385  77.064  1.00  0.00     0.157 A 
BRANCH  17  20
ATOM     20  O   UNL     1      90.631  93.624  75.305  1.00  0.00    -0.493 OA
ATOM     21  C   UNL     1      90.657  93.202  73.930  1.00  0.00     0.278 C 
ENDBRANCH  17  20
BRANCH  19  22
ATOM     22  O   UNL     1      91.436  92.535  77.729  1.00  0.00    -0.504 OA
ATOM     23  H   UNL     1      90.649  92.375  77.203  1.00  0.00     0.293 HD
ENDBRANCH  19  22
ENDBRANCH  13  14
ENDBRANCH  11  13
ENDBRANCH   8   9
ENDBRANCH   1   8
TORSDOF 11
ENDMDL
MODEL 6
REMARK VINA RESULT:    -5.429     17.434     19.763
REMARK INTER + INTRA:          -9.457
REMARK INTER:                  -8.761
REMARK INTRA:                  -0.695
REMARK UNBOUND:                -0.696
REMARK SMILES CCCCCCCCC(=O)NCc1ccc(O)c(OC)c1
REMARK SMILES IDX 7 1 6 2 5 3 4 4 3 5 2 6 1 7 8 8 9 9 10 10 11 11 12 13 13 14
REMARK SMILES IDX 21 15 14 16 18 17 15 18 16 19 19 20 20 21 17 22
REMARK H PARENT 11 12 17 23
REMARK Flexibility Score: inf
ROOT
ATOM      1  C   UNL     1      77.699  93.030  64.276  1.00  0.00     0.010 C 
ENDROOT
BRANCH   1   2
ATOM      2  C   UNL     1      77.008  94.400  64.019  1.00  0.00     0.001 C 
BRANCH   2   3
ATOM      3  C   UNL     1      77.660  95.551  64.839  1.00  0.00     0.000 C 
BRANCH   3   4
ATOM      4  C   UNL     1      79.215  95.519  64.838  1.00  0.00    -0.000 C 
BRANCH   4   5
ATOM      5  C   UNL     1      79.811  95.272  66.253  1.00  0.00    -0.000 C 
BRANCH   5   6
ATOM      6  C   UNL     1      78.719  95.195  67.354  1.00  0.00    -0.003 C 
ATOM      7  C   UNL     1      79.082  96.006  68.618  1.00  0.00     0.004 C 
ENDBRANCH   5   6
ENDBRANCH   4   5
ENDBRANCH   3   4
ENDBRANCH   2   3
ENDBRANCH   1   2
BRANCH   1   8
ATOM      8  C   UNL     1      76.867  91.806  63.800  1.00  0.00     0.100 C 
BRANCH   8   9
ATOM      9  C   UNL     1      76.335  91.035  64.949  1.00  0.00     0.220 C 
ATOM     10  O   UNL     1      75.368  91.512  65.589  1.00  0.00    -0.275 OA
ATOM     11  N   UNL     1      76.871  89.823  65.279  1.00  0.00    -0.352 N 
ATOM     12  H   UNL     1      77.698  89.575  64.756  1.00  0.00     0.163 HD
BRANCH  11  13
ATOM     13  C   UNL     1      76.359  88.925  66.269  1.00  0.00     0.151 C 
BRANCH  13  14
ATOM     14  C   UNL     1      76.919  87.549  66.179  1.00  0.00    -0.025 A 
ATOM     15  C   UNL     1      76.710  86.626  67.231  1.00  0.00     0.056 A 
ATOM     16  C   UNL     1      77.668  87.141  65.051  1.00  0.00     0.009 A 
ATOM     17  C   UNL     1      77.221  85.310  67.152  1.00  0.00     0.160 A 
ATOM     18  C   UNL     1      78.177  85.834  64.967  1.00  0.00     0.050 A 
ATOM     19  C   UNL     1      77.964  84.919  66.016  1.00  0.00     0.157 A 
BRANCH  17  20
ATOM     20  O   UNL     1      77.054  84.429  68.191  1.00  0.00    -0.493 OA
ATOM     21  C   UNL     1      75.703  84.344  68.680  1.00  0.00     0.278 C 
ENDBRANCH  17  20
BRANCH  19  22
ATOM     22  O   UNL     1      78.483  83.667  65.936  1.00  0.00    -0.504 OA
ATOM     23  H   UNL     1      79.440  83.721  65.868  1.00  0.00     0.293 HD
ENDBRANCH  19  22
ENDBRANCH  13  14
ENDBRANCH  11  13
ENDBRANCH   8   9
ENDBRANCH   1   8
TORSDOF 11
ENDMDL
MODEL 7
REMARK VINA RESULT:    -5.241     30.270     31.811
REMARK INTER + INTRA:          -9.154
REMARK INTER:                  -8.430
REMARK INTRA:                  -0.724
REMARK UNBOUND:                -0.696
REMARK SMILES CCCCCCCCC(=O)NCc1ccc(O)c(OC)c1
REMARK SMILES IDX 7 1 6 2 5 3 4 4 3 5 2 6 1 7 8 8 9 9 10 10 11 11 12 13 13 14
REMARK SMILES IDX 21 15 14 16 18 17 15 18 16 19 19 20 20 21 17 22
REMARK H PARENT 11 12 17 23
REMARK Flexibility Score: inf
ROOT
ATOM      1  C   UNL     1      92.896  98.871  70.330  1.00  0.00     0.010 C 
ENDROOT
BRANCH   1   2
ATOM      2  C   UNL     1      91.603  98.077  69.985  1.00  0.00     0.001 C 
BRANCH   2   3
ATOM      3  C   UNL     1      90.628  98.899  69.091  1.00  0.00     0.000 C 
BRANCH   3   4
ATOM      4  C   UNL     1      90.141  98.134  67.827  1.00  0.00    -0.000 C 
BRANCH   4   5
ATOM      5  C   UNL     1      90.418  98.914  66.510  1.00  0.00    -0.000 C 
BRANCH   5   6
ATOM      6  C   UNL     1      90.708 100.419  66.758  1.00  0.00    -0.003 C 
ATOM      7  C   UNL     1      92.133 100.833  66.333  1.00  0.00     0.004 C 
ENDBRANCH   5   6
ENDBRANCH   4   5
ENDBRANCH   3   4
ENDBRANCH   2   3
ENDBRANCH   1   2
BRANCH   1   8
ATOM      8  C   UNL     1      92.899  99.478  71.761  1.00  0.00     0.100 C 
BRANCH   8   9
ATOM      9  C   UNL     1      94.140  99.128  72.493  1.00  0.00     0.220 C 
ATOM     10  O   UNL     1      94.937 100.050  72.788  1.00  0.00    -0.275 OA
ATOM     11  N   UNL     1      94.388  97.836  72.859  1.00  0.00    -0.352 N 
ATOM     12  H   UNL     1      93.727  97.165  72.497  1.00  0.00     0.163 HD
BRANCH  11  13
ATOM     13  C   UNL     1      95.471  97.394  73.684  1.00  0.00     0.151 C 
BRANCH  13  14
ATOM     14  C   UNL     1      95.090  96.341  74.663  1.00  0.00    -0.025 A 
ATOM     15  C   UNL     1      93.744  95.913  74.762  1.00  0.00     0.056 A 
ATOM     16  C   UNL     1      96.057  95.752  75.509  1.00  0.00     0.009 A 
ATOM     17  C   UNL     1      93.371  94.900  75.675  1.00  0.00     0.160 A 
ATOM     18  C   UNL     1      95.692  94.743  76.419  1.00  0.00     0.050 A 
ATOM     19  C   UNL     1      94.352  94.321  76.510  1.00  0.00     0.157 A 
BRANCH  17  20
ATOM     20  O   UNL     1      92.059  94.517  75.799  1.00  0.00    -0.493 OA
ATOM     21  C   UNL     1      91.612  93.609  74.778  1.00  0.00     0.278 C 
ENDBRANCH  17  20
BRANCH  19  22
ATOM     22  O   UNL     1      94.005  93.366  77.411  1.00  0.00    -0.504 OA
ATOM     23  H   UNL     1      93.372  93.729  78.034  1.00  0.00     0.293 HD
ENDBRANCH  19  22
ENDBRANCH  13  14
ENDBRANCH  11  13
ENDBRANCH   8   9
ENDBRANCH   1   8
TORSDOF 11
ENDMDL
MODEL 8
REMARK VINA RESULT:    -5.229     17.820     19.455
REMARK INTER + INTRA:          -9.135
REMARK INTER:                  -8.337
REMARK INTRA:                  -0.798
REMARK UNBOUND:                -0.696
REMARK SMILES CCCCCCCCC(=O)NCc1ccc(O)c(OC)c1
REMARK SMILES IDX 7 1 6 2 5 3 4 4 3 5 2 6 1 7 8 8 9 9 10 10 11 11 12 13 13 14
REMARK SMILES IDX 21 15 14 16 18 17 15 18 16 19 19 20 20 21 17 22
REMARK H PARENT 11 12 17 23
REMARK Flexibility Score: inf
ROOT
ATOM      1  C   UNL     1      77.586  89.342  64.991  1.00  0.00     0.010 C 
ENDROOT
BRANCH   1   2
ATOM      2  C   UNL     1      77.643  87.788  64.966  1.00  0.00     0.001 C 
BRANCH   2   3
ATOM      3  C   UNL     1      77.381  87.167  66.370  1.00  0.00     0.000 C 
BRANCH   3   4
ATOM      4  C   UNL     1      76.759  88.163  67.390  1.00  0.00    -0.000 C 
BRANCH   4   5
ATOM      5  C   UNL     1      75.330  87.746  67.840  1.00  0.00    -0.000 C 
BRANCH   5   6
ATOM      6  C   UNL     1      74.569  88.900  68.547  1.00  0.00    -0.003 C 
ATOM      7  C   UNL     1      75.367  90.222  68.567  1.00  0.00     0.004 C 
ENDBRANCH   5   6
ENDBRANCH   4   5
ENDBRANCH   3   4
ENDBRANCH   2   3
ENDBRANCH   1   2
BRANCH   1   8
ATOM      8  C   UNL     1      77.178  89.979  63.632  1.00  0.00     0.100 C 
BRANCH   8   9
ATOM      9  C   UNL     1      76.634  91.345  63.818  1.00  0.00     0.220 C 
ATOM     10  O   UNL     1      75.389  91.491  63.855  1.00  0.00    -0.275 OA
ATOM     11  N   UNL     1      77.474  92.411  63.974  1.00  0.00    -0.352 N 
ATOM     12  H   UNL     1      78.451  92.195  63.841  1.00  0.00     0.163 HD
BRANCH  11  13
ATOM     13  C   UNL     1      77.078  93.747  64.299  1.00  0.00     0.151 C 
BRANCH  13  14
ATOM     14  C   UNL     1      77.888  94.368  65.381  1.00  0.00    -0.025 A 
ATOM     15  C   UNL     1      77.362  94.482  66.690  1.00  0.00     0.056 A 
ATOM     16  C   UNL     1      79.189  94.857  65.124  1.00  0.00     0.009 A 
ATOM     17  C   UNL     1      78.127  95.054  67.732  1.00  0.00     0.160 A 
ATOM     18  C   UNL     1      79.956  95.427  66.156  1.00  0.00     0.050 A 
ATOM     19  C   UNL     1      79.427  95.534  67.457  1.00  0.00     0.157 A 
BRANCH  17  20
ATOM     20  O   UNL     1      77.599  95.202  68.990  1.00  0.00    -0.493 OA
ATOM     21  C   UNL     1      76.638  96.266  69.104  1.00  0.00     0.278 C 
ENDBRANCH  17  20
BRANCH  19  22
ATOM     22  O   UNL     1      80.165  96.110  68.440  1.00  0.00    -0.504 OA
ATOM     23  H   UNL     1      81.070  95.795  68.388  1.00  0.00     0.293 HD
ENDBRANCH  19  22
ENDBRANCH  13  14
ENDBRANCH  11  13
ENDBRANCH   8   9
ENDBRANCH   1   8
TORSDOF 11
ENDMDL
MODEL 9
REMARK VINA RESULT:    -5.138     24.745     26.154
REMARK INTER + INTRA:          -8.987
REMARK INTER:                  -8.116
REMARK INTRA:                  -0.871
REMARK UNBOUND:                -0.696
REMARK SMILES CCCCCCCCC(=O)NCc1ccc(O)c(OC)c1
REMARK SMILES IDX 7 1 6 2 5 3 4 4 3 5 2 6 1 7 8 8 9 9 10 10 11 11 12 13 13 14
REMARK SMILES IDX 21 15 14 16 18 17 15 18 16 19 19 20 20 21 17 22
REMARK H PARENT 11 12 17 23
REMARK Flexibility Score: inf
ROOT
ATOM      1  C   UNL     1      80.514  67.102  72.030  1.00  0.00     0.010 C 
ENDROOT
BRANCH   1   2
ATOM      2  C   UNL     1      81.804  67.421  71.221  1.00  0.00     0.001 C 
BRANCH   2   3
ATOM      3  C   UNL     1      82.742  68.409  71.974  1.00  0.00     0.000 C 
BRANCH   3   4
ATOM      4  C   UNL     1      83.189  69.627  71.117  1.00  0.00    -0.000 C 
BRANCH   4   5
ATOM      5  C   UNL     1      84.639  70.089  71.440  1.00  0.00    -0.000 C 
BRANCH   5   6
ATOM      6  C   UNL     1      85.201  69.429  72.727  1.00  0.00    -0.003 C 
ATOM      7  C   UNL     1      86.710  69.691  72.927  1.00  0.00     0.004 C 
ENDBRANCH   5   6
ENDBRANCH   4   5
ENDBRANCH   3   4
ENDBRANCH   2   3
ENDBRANCH   1   2
BRANCH   1   8
ATOM      8  C   UNL     1      80.135  65.594  72.041  1.00  0.00     0.100 C 
BRANCH   8   9
ATOM      9  C   UNL     1      80.280  65.011  73.397  1.00  0.00     0.220 C 
ATOM     10  O   UNL     1      79.746  63.899  73.626  1.00  0.00    -0.275 OA
ATOM     11  N   UNL     1      81.001  65.660  74.358  1.00  0.00    -0.352 N 
ATOM     12  H   UNL     1      81.312  66.583  74.094  1.00  0.00     0.163 HD
BRANCH  11  13
ATOM     13  C   UNL     1      81.330  65.139  75.650  1.00  0.00     0.151 C 
BRANCH  13  14
ATOM     14  C   UNL     1      82.583  65.699  76.222  1.00  0.00    -0.025 A 
ATOM     15  C   UNL     1      83.588  64.834  76.718  1.00  0.00     0.056 A 
ATOM     16  C   UNL     1      82.794  67.095  76.285  1.00  0.00     0.009 A 
ATOM     17  C   UNL     1      84.792  65.350  77.249  1.00  0.00     0.160 A 
ATOM     18  C   UNL     1      83.989  67.616  76.811  1.00  0.00     0.050 A 
ATOM     19  C   UNL     1      84.986  66.749  77.300  1.00  0.00     0.157 A 
BRANCH  17  20
ATOM     20  O   UNL     1      85.746  64.512  77.768  1.00  0.00    -0.493 OA
ATOM     21  C   UNL     1      86.528  63.824  76.776  1.00  0.00     0.278 C 
ENDBRANCH  17  20
BRANCH  19  22
ATOM     22  O   UNL     1      86.125  67.262  77.831  1.00  0.00    -0.504 OA
ATOM     23  H   UNL     1      85.923  67.696  78.664  1.00  0.00     0.293 HD
ENDBRANCH  19  22
ENDBRANCH  13  14
ENDBRANCH  11  13
ENDBRANCH   8   9
ENDBRANCH   1   8
TORSDOF 11
ENDMDL
MODEL 10
REMARK VINA RESULT:    -5.056     24.631     26.889
REMARK INTER + INTRA:          -8.856
REMARK INTER:                  -7.574
REMARK INTRA:                  -1.281
REMARK UNBOUND:                -0.696
REMARK SMILES CCCCCCCCC(=O)NCc1ccc(O)c(OC)c1
REMARK SMILES IDX 7 1 6 2 5 3 4 4 3 5 2 6 1 7 8 8 9 9 10 10 11 11 12 13 13 14
REMARK SMILES IDX 21 15 14 16 18 17 15 18 16 19 19 20 20 21 17 22
REMARK H PARENT 11 12 17 23
REMARK Flexibility Score: inf
ROOT
ATOM      1  C   UNL     1      85.600  65.635  78.322  1.00  0.00     0.010 C 
ENDROOT
BRANCH   1   2
ATOM      2  C   UNL     1      87.078  65.972  78.673  1.00  0.00     0.001 C 
BRANCH   2   3
ATOM      3  C   UNL     1      87.523  67.346  78.092  1.00  0.00     0.000 C 
BRANCH   3   4
ATOM      4  C   UNL     1      86.736  68.556  78.671  1.00  0.00    -0.000 C 
BRANCH   4   5
ATOM      5  C   UNL     1      86.228  69.526  77.566  1.00  0.00    -0.000 C 
BRANCH   5   6
ATOM      6  C   UNL     1      85.002  68.964  76.798  1.00  0.00    -0.003 C 
ATOM      7  C   UNL     1      85.346  68.517  75.360  1.00  0.00     0.004 C 
ENDBRANCH   5   6
ENDBRANCH   4   5
ENDBRANCH   3   4
ENDBRANCH   2   3
ENDBRANCH   1   2
BRANCH   1   8
ATOM      8  C   UNL     1      85.406  65.082  76.882  1.00  0.00     0.100 C 
BRANCH   8   9
ATOM      9  C   UNL     1      83.971  64.871  76.574  1.00  0.00     0.220 C 
ATOM     10  O   UNL     1      83.579  63.703  76.336  1.00  0.00    -0.275 OA
ATOM     11  N   UNL     1      83.098  65.921  76.581  1.00  0.00    -0.352 N 
ATOM     12  H   UNL     1      83.532  66.824  76.698  1.00  0.00     0.163 HD
BRANCH  11  13
ATOM     13  C   UNL     1      81.677  65.827  76.440  1.00  0.00     0.151 C 
BRANCH  13  14
ATOM     14  C   UNL     1      81.209  65.848  75.029  1.00  0.00    -0.025 A 
ATOM     15  C   UNL     1      81.439  66.986  74.219  1.00  0.00     0.056 A 
ATOM     16  C   UNL     1      80.528  64.741  74.472  1.00  0.00     0.009 A 
ATOM     17  C   UNL     1      81.016  67.013  72.870  1.00  0.00     0.160 A 
ATOM     18  C   UNL     1      80.105  64.762  73.131  1.00  0.00     0.050 A 
ATOM     19  C   UNL     1      80.340  65.896  72.330  1.00  0.00     0.157 A 
BRANCH  17  20
ATOM     20  O   UNL     1      81.203  68.133  72.099  1.00  0.00    -0.493 OA
ATOM     21  C   UNL     1      82.527  68.257  71.552  1.00  0.00     0.278 C 
ENDBRANCH  17  20
BRANCH  19  22
ATOM     22  O   UNL     1      79.904  65.917  71.045  1.00  0.00    -0.504 OA
ATOM     23  H   UNL     1      80.433  66.537  70.538  1.00  0.00     0.293 HD
ENDBRANCH  19  22
ENDBRANCH  13  14
ENDBRANCH  11  13
ENDBRANCH   8   9
ENDBRANCH   1   8
TORSDOF 11
ENDMDL
