MODEL 1
REMARK VINA RESULT:    -6.643      0.000      0.000
REMARK INTER + INTRA:         -13.567
REMARK INTER:                 -11.691
REMARK INTRA:                  -1.876
REMARK UNBOUND:                -1.876
REMARK SMILES C=C(C)[C@]12C[C@@H](C)[C@@]34O[C@](Cc5ccccc5)(O[C@@H]1[C@@H]3C=C(COC(=O)Cc1ccc(O)c(OC)c1)C[C@]1(O)C(=O)C(C)=C[C@@H]41)O2
REMARK SMILES IDX 23 1 22 2 21 3 20 4 9 5 8 6 10 7 6 8 18 9 46 10 19 11 5 12
REMARK SMILES IDX 7 13 4 14 45 15 38 16 44 17 40 18 42 20 41 21 43 22 39 23
REMARK SMILES IDX 11 25 12 26 13 27 17 28 14 29 16 30 15 31 2 32 3 33 1 34
REMARK SMILES IDX 37 35 24 37 25 38 26 39 27 40 28 41 36 42 29 43 33 44 30 45
REMARK SMILES IDX 31 46 34 47 35 48 32 49
REMARK H PARENT 39 24 32 50
REMARK Flexibility Score: 90.00
ROOT
ATOM      1  C   UNL     1      62.682  81.639  72.836  1.00  0.00     0.264 C 
ENDROOT
BRANCH   1   2
ATOM      2  C   UNL     1      62.432  82.802  73.767  1.00  0.00    -0.033 C 
ATOM      3  C   UNL     1      63.131  82.888  74.917  1.00  0.00    -0.015 C 
BRANCH   3   4
ATOM      4  C   UNL     1      63.014  83.902  76.044  1.00  0.00     0.078 C 
ATOM      5  O   UNL     1      64.647  85.698  75.568  1.00  0.00    -0.319 OA
ATOM      6  C   UNL     1      63.218  85.425  75.704  1.00  0.00     0.095 C 
ATOM      7  C   UNL     1      65.489  85.079  76.558  1.00  0.00     0.289 C 
ATOM      8  C   UNL     1      62.636  86.269  76.913  1.00  0.00     0.023 C 
ATOM      9  O   UNL     1      65.327  83.664  76.563  1.00  0.00    -0.320 OA
ATOM     10  O   UNL     1      65.175  85.508  77.880  1.00  0.00    -0.313 OA
ATOM     11  C   UNL     1      64.027  83.561  77.165  1.00  0.00     0.170 C 
ATOM     12  C   UNL     1      62.828  85.527  78.271  1.00  0.00     0.049 C 
ATOM     13  C   UNL     1      63.172  87.704  77.034  1.00  0.00     0.011 C 
ATOM     14  C   UNL     1      64.081  84.650  78.265  1.00  0.00     0.122 C 
BRANCH   6  15
ATOM     15  C   UNL     1      62.623  85.763  74.306  1.00  0.00     0.086 C 
ATOM     16  C   UNL     1      61.249  85.140  73.983  1.00  0.00     0.140 CG0
ATOM     17  C   UNL     1      62.457  87.202  73.904  1.00  0.00    -0.010 C 
ATOM     18  C   UNL     1      60.596  86.211  73.135  1.00  0.00     0.190 C 
ATOM     19  G   UNL     1      61.379  83.808  73.245  1.00  0.00     0.000 G0
ATOM     20  C   UNL     1      61.342  87.481  73.221  1.00  0.00    -0.008 C 
ATOM     21  O   UNL     1      59.562  86.078  72.498  1.00  0.00    -0.291 OA
ATOM     22  C   UNL     1      60.896  88.747  72.604  1.00  0.00     0.048 C 
BRANCH  16  23
ATOM     23  O   UNL     1      60.391  85.028  75.106  1.00  0.00    -0.381 OA
ATOM     24  H   UNL     1      60.924  84.766  75.875  1.00  0.00     0.212 HD
ENDBRANCH  16  23
ENDBRANCH   6  15
BRANCH   7  25
ATOM     25  C   UNL     1      66.930  85.428  76.242  1.00  0.00     0.135 C 
BRANCH  25  26
ATOM     26  C   UNL     1      67.088  86.876  75.850  1.00  0.00    -0.040 A 
ATOM     27  C   UNL     1      67.212  87.856  76.835  1.00  0.00     0.004 A 
ATOM     28  C   UNL     1      67.110  87.236  74.503  1.00  0.00     0.004 A 
ATOM     29  C   UNL     1      67.359  89.195  76.473  1.00  0.00     0.000 A 
ATOM     30  C   UNL     1      67.257  88.575  74.140  1.00  0.00     0.000 A 
ATOM     31  C   UNL     1      67.381  89.554  75.126  1.00  0.00     0.000 A 
ENDBRANCH  25  26
ENDBRANCH   7  25
BRANCH  14  32
ATOM     32  C   UNL     1      64.385  84.074  79.610  1.00  0.00    -0.046 C 
ATOM     33  C   UNL     1      65.834  84.018  79.994  1.00  0.00     0.042 C 
ATOM     34  C   UNL     1      63.418  83.633  80.428  1.00  0.00     0.010 C 
ENDBRANCH  14  32
ENDBRANCH   3   4
BRANCH   2  35
ATOM     35  C   UNL     1      61.382  83.765  73.247  1.00  0.00     0.078 CG0
ATOM     36  G   UNL     1      61.236  85.101  73.976  1.00  0.00     0.000 G0
ENDBRANCH   2  35
ENDBRANCH   1   2
BRANCH   1  37
ATOM     37  O   UNL     1      64.063  81.549  72.562  1.00  0.00    -0.461 OA
BRANCH  37  38
ATOM     38  C   UNL     1      64.430  81.663  71.241  1.00  0.00     0.310 C 
ATOM     39  O   UNL     1      65.563  81.498  70.809  1.00  0.00    -0.252 OA
BRANCH  38  40
ATOM     40  C   UNL     1      63.220  82.022  70.411  1.00  0.00     0.158 C 
BRANCH  40  41
ATOM     41  C   UNL     1      63.441  83.235  69.543  1.00  0.00    -0.033 A 
ATOM     42  C   UNL     1      62.952  84.478  69.945  1.00  0.00     0.054 A 
ATOM     43  C   UNL     1      64.136  83.115  68.340  1.00  0.00     0.008 A 
ATOM     44  C   UNL     1      63.156  85.601  69.143  1.00  0.00     0.160 A 
ATOM     45  C   UNL     1      64.340  84.237  67.537  1.00  0.00     0.050 A 
ATOM     46  C   UNL     1      63.851  85.480  67.938  1.00  0.00     0.157 A 
BRANCH  44  47
ATOM     47  O   UNL     1      62.673  86.809  69.545  1.00  0.00    -0.493 OA
ATOM     48  C   UNL     1      61.289  87.065  69.310  1.00  0.00     0.278 C 
ENDBRANCH  44  47
BRANCH  46  49
ATOM     49  O   UNL     1      64.057  86.569  67.147  1.00  0.00    -0.504 OA
ATOM     50  H   UNL     1      64.969  86.547  66.809  1.00  0.00     0.293 HD
ENDBRANCH  46  49
ENDBRANCH  40  41
ENDBRANCH  38  40
ENDBRANCH  37  38
ENDBRANCH   1  37
TORSDOF 11
ENDMDL
MODEL 2
REMARK VINA RESULT:    -6.546     30.761     34.458
REMARK INTER + INTRA:         -13.397
REMARK INTER:                 -13.212
REMARK INTRA:                  -0.184
REMARK UNBOUND:                -1.876
REMARK SMILES C=C(C)[C@]12C[C@@H](C)[C@@]34O[C@](Cc5ccccc5)(O[C@@H]1[C@@H]3C=C(COC(=O)Cc1ccc(O)c(OC)c1)C[C@]1(O)C(=O)C(C)=C[C@@H]41)O2
REMARK SMILES IDX 23 1 22 2 21 3 20 4 9 5 8 6 10 7 6 8 18 9 46 10 19 11 5 12
REMARK SMILES IDX 7 13 4 14 45 15 38 16 44 17 40 18 42 20 41 21 43 22 39 23
REMARK SMILES IDX 11 25 12 26 13 27 17 28 14 29 16 30 15 31 2 32 3 33 1 34
REMARK SMILES IDX 37 35 24 37 25 38 26 39 27 40 28 41 36 42 29 43 33 44 30 45
REMARK SMILES IDX 31 46 34 47 35 48 32 49
REMARK H PARENT 39 24 32 50
REMARK Flexibility Score: 90.00
ROOT
ATOM      1  C   UNL     1      98.291  82.851  86.687  1.00  0.00     0.264 C 
ENDROOT
BRANCH   1   2
ATOM      2  C   UNL     1      96.887  83.342  86.951  1.00  0.00    -0.033 C 
ATOM      3  C   UNL     1      95.862  82.467  86.902  1.00  0.00    -0.015 C 
BRANCH   3   4
ATOM      4  C   UNL     1      94.371  82.719  87.052  1.00  0.00     0.078 C 
ATOM      5  O   UNL     1      93.830  82.436  89.449  1.00  0.00    -0.319 OA
ATOM      6  C   UNL     1      93.858  83.417  88.366  1.00  0.00     0.095 C 
ATOM      7  C   UNL     1      93.314  81.139  89.093  1.00  0.00     0.289 C 
ATOM      8  C   UNL     1      92.386  83.935  88.091  1.00  0.00     0.023 C 
ATOM      9  O   UNL     1      94.055  80.565  88.020  1.00  0.00    -0.320 OA
ATOM     10  O   UNL     1      91.964  81.200  88.640  1.00  0.00    -0.313 OA
ATOM     11  C   UNL     1      93.597  81.383  86.932  1.00  0.00     0.170 C 
ATOM     12  C   UNL     1      91.622  82.991  87.112  1.00  0.00     0.049 C 
ATOM     13  C   UNL     1      91.527  84.177  89.343  1.00  0.00     0.011 C 
ATOM     14  C   UNL     1      92.088  81.541  87.244  1.00  0.00     0.122 C 
BRANCH   6  15
ATOM     15  C   UNL     1      94.868  84.498  88.848  1.00  0.00     0.086 C 
ATOM     16  C   UNL     1      95.496  85.379  87.748  1.00  0.00     0.140 CG0
ATOM     17  C   UNL     1      94.442  85.492  89.891  1.00  0.00    -0.010 C 
ATOM     18  C   UNL     1      95.651  86.713  88.448  1.00  0.00     0.190 C 
ATOM     19  G   UNL     1      96.829  84.821  87.252  1.00  0.00     0.000 G0
ATOM     20  C   UNL     1      94.888  86.740  89.710  1.00  0.00    -0.008 C 
ATOM     21  O   UNL     1      96.276  87.670  88.017  1.00  0.00    -0.291 OA
ATOM     22  C   UNL     1      94.740  87.937  90.563  1.00  0.00     0.048 C 
BRANCH  16  23
ATOM     23  O   UNL     1      94.620  85.662  86.669  1.00  0.00    -0.381 OA
ATOM     24  H   UNL     1      94.267  86.559  86.788  1.00  0.00     0.212 HD
ENDBRANCH  16  23
ENDBRANCH   6  15
BRANCH   7  25
ATOM     25  C   UNL     1      93.399  80.243  90.312  1.00  0.00     0.135 C 
BRANCH  25  26
ATOM     26  C   UNL     1      92.305  79.204  90.327  1.00  0.00    -0.040 A 
ATOM     27  C   UNL     1      92.392  78.087  89.495  1.00  0.00     0.004 A 
ATOM     28  C   UNL     1      91.207  79.360  91.173  1.00  0.00     0.004 A 
ATOM     29  C   UNL     1      91.380  77.127  89.509  1.00  0.00     0.000 A 
ATOM     30  C   UNL     1      90.196  78.399  91.187  1.00  0.00     0.000 A 
ATOM     31  C   UNL     1      90.283  77.283  90.355  1.00  0.00     0.000 A 
ENDBRANCH  25  26
ENDBRANCH   7  25
BRANCH  14  32
ATOM     32  C   UNL     1      91.248  80.593  86.452  1.00  0.00    -0.046 C 
ATOM     33  C   UNL     1      89.871  81.068  86.094  1.00  0.00     0.042 C 
ATOM     34  C   UNL     1      91.700  79.386  86.080  1.00  0.00     0.010 C 
ENDBRANCH  14  32
ENDBRANCH   3   4
BRANCH   2  35
ATOM     35  C   UNL     1      96.824  84.826  87.259  1.00  0.00     0.078 CG0
ATOM     36  G   UNL     1      95.494  85.378  87.769  1.00  0.00     0.000 G0
ENDBRANCH   2  35
ENDBRANCH   1   2
BRANCH   1  37
ATOM     37  O   UNL     1      98.783  83.456  85.510  1.00  0.00    -0.461 OA
BRANCH  37  38
ATOM     38  C   UNL     1      97.937  83.457  84.426  1.00  0.00     0.310 C 
ATOM     39  O   UNL     1      97.248  84.405  84.074  1.00  0.00    -0.252 OA
BRANCH  38  40
ATOM     40  C   UNL     1      97.990  82.111  83.743  1.00  0.00     0.158 C 
BRANCH  40  41
ATOM     41  C   UNL     1      98.713  82.151  82.422  1.00  0.00    -0.033 A 
ATOM     42  C   UNL     1      98.268  83.000  81.408  1.00  0.00     0.054 A 
ATOM     43  C   UNL     1      99.828  81.339  82.212  1.00  0.00     0.008 A 
ATOM     44  C   UNL     1      98.937  83.037  80.185  1.00  0.00     0.160 A 
ATOM     45  C   UNL     1     100.498  81.376  80.989  1.00  0.00     0.050 A 
ATOM     46  C   UNL     1     100.053  82.224  79.975  1.00  0.00     0.157 A 
BRANCH  44  47
ATOM     47  O   UNL     1      98.493  83.869  79.203  1.00  0.00    -0.493 OA
ATOM     48  C   UNL     1      97.477  83.366  78.337  1.00  0.00     0.278 C 
ENDBRANCH  44  47
BRANCH  46  49
ATOM     49  O   UNL     1     100.715  82.252  78.786  1.00  0.00    -0.504 OA
ATOM     50  H   UNL     1     101.370  82.970  78.805  1.00  0.00     0.293 HD
ENDBRANCH  46  49
ENDBRANCH  40  41
ENDBRANCH  38  40
ENDBRANCH  37  38
ENDBRANCH   1  37
TORSDOF 11
ENDMDL
MODEL 3
REMARK VINA RESULT:    -6.518      2.464      7.086
REMARK INTER + INTRA:         -13.347
REMARK INTER:                 -10.751
REMARK INTRA:                  -2.596
REMARK UNBOUND:                -1.876
REMARK SMILES C=C(C)[C@]12C[C@@H](C)[C@@]34O[C@](Cc5ccccc5)(O[C@@H]1[C@@H]3C=C(COC(=O)Cc1ccc(O)c(OC)c1)C[C@]1(O)C(=O)C(C)=C[C@@H]41)O2
REMARK SMILES IDX 23 1 22 2 21 3 20 4 9 5 8 6 10 7 6 8 18 9 46 10 19 11 5 12
REMARK SMILES IDX 7 13 4 14 45 15 38 16 44 17 40 18 42 20 41 21 43 22 39 23
REMARK SMILES IDX 11 25 12 26 13 27 17 28 14 29 16 30 15 31 2 32 3 33 1 34
REMARK SMILES IDX 37 35 24 37 25 38 26 39 27 40 28 41 36 42 29 43 33 44 30 45
REMARK SMILES IDX 31 46 34 47 35 48 32 49
REMARK H PARENT 39 24 32 50
REMARK Flexibility Score: 90.00
ROOT
ATOM      1  C   UNL     1      63.956  89.889  73.218  1.00  0.00     0.264 C 
ENDROOT
BRANCH   1   2
ATOM      2  C   UNL     1      63.106  88.976  72.365  1.00  0.00    -0.033 C 
ATOM      3  C   UNL     1      63.338  87.648  72.388  1.00  0.00    -0.015 C 
BRANCH   3   4
ATOM      4  C   UNL     1      62.684  86.541  71.577  1.00  0.00     0.078 C 
ATOM      5  O   UNL     1      60.790  85.687  72.919  1.00  0.00    -0.319 OA
ATOM      6  C   UNL     1      61.122  86.367  71.670  1.00  0.00     0.095 C 
ATOM      7  C   UNL     1      61.643  84.579  73.265  1.00  0.00     0.289 C 
ATOM      8  C   UNL     1      60.667  85.467  70.447  1.00  0.00     0.023 C 
ATOM      9  O   UNL     1      63.006  84.984  73.352  1.00  0.00    -0.320 OA
ATOM     10  O   UNL     1      61.611  83.546  72.284  1.00  0.00    -0.313 OA
ATOM     11  C   UNL     1      63.303  85.173  71.960  1.00  0.00     0.170 C 
ATOM     12  C   UNL     1      61.756  84.415  70.074  1.00  0.00     0.049 C 
ATOM     13  C   UNL     1      59.311  84.762  70.616  1.00  0.00     0.011 C 
ATOM     14  C   UNL     1      62.567  83.983  71.297  1.00  0.00     0.122 C 
BRANCH   6  15
ATOM     15  C   UNL     1      60.419  87.750  71.781  1.00  0.00     0.086 C 
ATOM     16  C   UNL     1      60.967  88.867  70.868  1.00  0.00     0.140 CG0
ATOM     17  C   UNL     1      58.931  87.838  71.585  1.00  0.00    -0.010 C 
ATOM     18  C   UNL     1      59.720  89.658  70.535  1.00  0.00     0.190 C 
ATOM     19  G   UNL     1      62.029  89.715  71.567  1.00  0.00     0.000 G0
ATOM     20  C   UNL     1      58.504  88.913  70.913  1.00  0.00    -0.008 C 
ATOM     21  O   UNL     1      59.698  90.747  69.981  1.00  0.00    -0.291 OA
ATOM     22  C   UNL     1      57.130  89.362  70.611  1.00  0.00     0.048 C 
BRANCH  16  23
ATOM     23  O   UNL     1      61.422  88.406  69.606  1.00  0.00    -0.381 OA
ATOM     24  H   UNL     1      61.278  89.109  68.952  1.00  0.00     0.212 HD
ENDBRANCH  16  23
ENDBRANCH   6  15
BRANCH   7  25
ATOM     25  C   UNL     1      61.187  84.026  74.599  1.00  0.00     0.135 C 
BRANCH  25  26
ATOM     26  C   UNL     1      62.328  83.895  75.577  1.00  0.00    -0.040 A 
ATOM     27  C   UNL     1      63.501  83.242  75.196  1.00  0.00     0.004 A 
ATOM     28  C   UNL     1      62.212  84.428  76.861  1.00  0.00     0.004 A 
ATOM     29  C   UNL     1      64.557  83.121  76.101  1.00  0.00     0.000 A 
ATOM     30  C   UNL     1      63.267  84.307  77.765  1.00  0.00     0.000 A 
ATOM     31  C   UNL     1      64.440  83.654  77.384  1.00  0.00     0.000 A 
ENDBRANCH  25  26
ENDBRANCH   7  25
BRANCH  14  32
ATOM     32  C   UNL     1      63.490  82.846  71.000  1.00  0.00    -0.046 C 
ATOM     33  C   UNL     1      63.831  82.629  69.556  1.00  0.00     0.042 C 
ATOM     34  C   UNL     1      63.987  82.064  71.971  1.00  0.00     0.010 C 
ENDBRANCH  14  32
ENDBRANCH   3   4
BRANCH   2  35
ATOM     35  C   UNL     1      62.051  89.719  71.568  1.00  0.00     0.078 CG0
ATOM     36  G   UNL     1      60.968  88.880  70.889  1.00  0.00     0.000 G0
ENDBRANCH   2  35
ENDBRANCH   1   2
BRANCH   1  37
ATOM     37  O   UNL     1      64.353  89.202  74.385  1.00  0.00    -0.461 OA
BRANCH  37  38
ATOM     38  C   UNL     1      63.459  89.212  75.430  1.00  0.00     0.310 C 
ATOM     39  O   UNL     1      62.824  90.189  75.803  1.00  0.00    -0.252 OA
BRANCH  38  40
ATOM     40  C   UNL     1      63.385  87.834  76.044  1.00  0.00     0.158 C 
BRANCH  40  41
ATOM     41  C   UNL     1      64.740  87.257  76.361  1.00  0.00    -0.033 A 
ATOM     42  C   UNL     1      65.467  86.599  75.368  1.00  0.00     0.054 A 
ATOM     43  C   UNL     1      65.269  87.382  77.645  1.00  0.00     0.008 A 
ATOM     44  C   UNL     1      66.723  86.065  75.661  1.00  0.00     0.160 A 
ATOM     45  C   UNL     1      66.524  86.848  77.938  1.00  0.00     0.050 A 
ATOM     46  C   UNL     1      67.251  86.190  76.947  1.00  0.00     0.157 A 
BRANCH  44  47
ATOM     47  O   UNL     1      67.423  85.425  74.684  1.00  0.00    -0.493 OA
ATOM     48  C   UNL     1      66.710  85.076  73.498  1.00  0.00     0.278 C 
ENDBRANCH  44  47
BRANCH  46  49
ATOM     49  O   UNL     1      68.476  85.674  77.244  1.00  0.00    -0.504 OA
ATOM     50  H   UNL     1      68.363  84.777  77.602  1.00  0.00     0.293 HD
ENDBRANCH  46  49
ENDBRANCH  40  41
ENDBRANCH  38  40
ENDBRANCH  37  38
ENDBRANCH   1  37
TORSDOF 11
ENDMDL
MODEL 4
REMARK VINA RESULT:    -6.279     31.189     34.449
REMARK INTER + INTRA:         -12.927
REMARK INTER:                 -11.997
REMARK INTRA:                  -0.930
REMARK UNBOUND:                -1.876
REMARK SMILES C=C(C)[C@]12C[C@@H](C)[C@@]34O[C@](Cc5ccccc5)(O[C@@H]1[C@@H]3C=C(COC(=O)Cc1ccc(O)c(OC)c1)C[C@]1(O)C(=O)C(C)=C[C@@H]41)O2
REMARK SMILES IDX 23 1 22 2 21 3 20 4 9 5 8 6 10 7 6 8 18 9 46 10 19 11 5 12
REMARK SMILES IDX 7 13 4 14 45 15 38 16 44 17 40 18 42 20 41 21 43 22 39 23
REMARK SMILES IDX 11 25 12 26 13 27 17 28 14 29 16 30 15 31 2 32 3 33 1 34
REMARK SMILES IDX 37 35 24 37 25 38 26 39 27 40 28 41 36 42 29 43 33 44 30 45
REMARK SMILES IDX 31 46 34 47 35 48 32 49
REMARK H PARENT 39 24 32 50
REMARK Flexibility Score: 90.00
ROOT
ATOM      1  C   UNL     1      98.159  82.933  86.503  1.00  0.00     0.264 C 
ENDROOT
BRANCH   1   2
ATOM      2  C   UNL     1      96.793  83.469  86.865  1.00  0.00    -0.033 C 
ATOM      3  C   UNL     1      95.765  82.609  87.011  1.00  0.00    -0.015 C 
BRANCH   3   4
ATOM      4  C   UNL     1      94.299  82.897  87.291  1.00  0.00     0.078 C 
ATOM      5  O   UNL     1      94.012  82.838  89.748  1.00  0.00    -0.319 OA
ATOM      6  C   UNL     1      93.932  83.717  88.584  1.00  0.00     0.095 C 
ATOM      7  C   UNL     1      93.453  81.523  89.566  1.00  0.00     0.289 C 
ATOM      8  C   UNL     1      92.442  84.232  88.418  1.00  0.00     0.023 C 
ATOM      9  O   UNL     1      94.073  80.843  88.478  1.00  0.00    -0.320 OA
ATOM     10  O   UNL     1      92.063  81.564  89.253  1.00  0.00    -0.313 OA
ATOM     11  C   UNL     1      93.509  81.567  87.374  1.00  0.00     0.170 C 
ATOM     12  C   UNL     1      91.573  83.216  87.613  1.00  0.00     0.049 C 
ATOM     13  C   UNL     1      91.721  84.598  89.725  1.00  0.00     0.011 C 
ATOM     14  C   UNL     1      92.042  81.777  87.827  1.00  0.00     0.122 C 
BRANCH   6  15
ATOM     15  C   UNL     1      94.994  84.821  88.857  1.00  0.00     0.086 C 
ATOM     16  C   UNL     1      95.490  85.607  87.626  1.00  0.00     0.140 CG0
ATOM     17  C   UNL     1      94.695  85.898  89.862  1.00  0.00    -0.010 C 
ATOM     18  C   UNL     1      95.729  86.990  88.196  1.00  0.00     0.190 C 
ATOM     19  G   UNL     1      96.754  84.997  87.022  1.00  0.00     0.000 G0
ATOM     20  C   UNL     1      95.119  87.122  89.533  1.00  0.00    -0.008 C 
ATOM     21  O   UNL     1      96.301  87.903  87.622  1.00  0.00    -0.291 OA
ATOM     22  C   UNL     1      95.075  88.384  90.301  1.00  0.00     0.048 C 
BRANCH  16  23
ATOM     23  O   UNL     1      94.494  85.816  86.638  1.00  0.00    -0.381 OA
ATOM     24  H   UNL     1      93.853  86.461  86.980  1.00  0.00     0.212 HD
ENDBRANCH  16  23
ENDBRANCH   6  15
BRANCH   7  25
ATOM     25  C   UNL     1      93.661  80.737  90.846  1.00  0.00     0.135 C 
BRANCH  25  26
ATOM     26  C   UNL     1      92.513  80.912  91.809  1.00  0.00    -0.040 A 
ATOM     27  C   UNL     1      92.443  82.052  92.611  1.00  0.00     0.004 A 
ATOM     28  C   UNL     1      91.521  79.936  91.897  1.00  0.00     0.004 A 
ATOM     29  C   UNL     1      91.382  82.214  93.501  1.00  0.00     0.000 A 
ATOM     30  C   UNL     1      90.459  80.099  92.788  1.00  0.00     0.000 A 
ATOM     31  C   UNL     1      90.390  81.238  93.590  1.00  0.00     0.000 A 
ENDBRANCH  25  26
ENDBRANCH   7  25
BRANCH  14  32
ATOM     32  C   UNL     1      91.118  80.775  87.215  1.00  0.00    -0.046 C 
ATOM     33  C   UNL     1      91.435  80.352  85.811  1.00  0.00     0.042 C 
ATOM     34  C   UNL     1      90.064  80.282  87.883  1.00  0.00     0.010 C 
ENDBRANCH  14  32
ENDBRANCH   3   4
BRANCH   2  35
ATOM     35  C   UNL     1      96.771  84.977  87.030  1.00  0.00     0.078 CG0
ATOM     36  G   UNL     1      95.506  85.595  87.624  1.00  0.00     0.000 G0
ENDBRANCH   2  35
ENDBRANCH   1   2
BRANCH   1  37
ATOM     37  O   UNL     1      98.361  83.070  85.113  1.00  0.00    -0.461 OA
BRANCH  37  38
ATOM     38  C   UNL     1      98.451  81.902  84.393  1.00  0.00     0.310 C 
ATOM     39  O   UNL     1      97.785  80.896  84.599  1.00  0.00    -0.252 OA
BRANCH  38  40
ATOM     40  C   UNL     1      99.495  82.054  83.312  1.00  0.00     0.158 C 
BRANCH  40  41
ATOM     41  C   UNL     1      98.909  82.436  81.977  1.00  0.00    -0.033 A 
ATOM     42  C   UNL     1      99.520  82.006  80.799  1.00  0.00     0.054 A 
ATOM     43  C   UNL     1      97.757  83.219  81.920  1.00  0.00     0.008 A 
ATOM     44  C   UNL     1      98.978  82.361  79.563  1.00  0.00     0.160 A 
ATOM     45  C   UNL     1      97.214  83.573  80.685  1.00  0.00     0.050 A 
ATOM     46  C   UNL     1      97.824  83.145  79.506  1.00  0.00     0.157 A 
BRANCH  44  47
ATOM     47  O   UNL     1      99.583  81.936  78.419  1.00  0.00    -0.493 OA
ATOM     48  C   UNL     1     100.427  82.869  77.747  1.00  0.00     0.278 C 
ENDBRANCH  44  47
BRANCH  46  49
ATOM     49  O   UNL     1      97.285  83.495  78.306  1.00  0.00    -0.504 OA
ATOM     50  H   UNL     1      96.420  83.063  78.209  1.00  0.00     0.293 HD
ENDBRANCH  46  49
ENDBRANCH  40  41
ENDBRANCH  38  40
ENDBRANCH  37  38
ENDBRANCH   1  37
TORSDOF 11
ENDMDL
MODEL 5
REMARK VINA RESULT:    -6.093     30.314     34.109
REMARK INTER + INTRA:         -12.599
REMARK INTER:                 -12.246
REMARK INTRA:                  -0.353
REMARK UNBOUND:                -1.876
REMARK SMILES C=C(C)[C@]12C[C@@H](C)[C@@]34O[C@](Cc5ccccc5)(O[C@@H]1[C@@H]3C=C(COC(=O)Cc1ccc(O)c(OC)c1)C[C@]1(O)C(=O)C(C)=C[C@@H]41)O2
REMARK SMILES IDX 23 1 22 2 21 3 20 4 9 5 8 6 10 7 6 8 18 9 46 10 19 11 5 12
REMARK SMILES IDX 7 13 4 14 45 15 38 16 44 17 40 18 42 20 41 21 43 22 39 23
REMARK SMILES IDX 11 25 12 26 13 27 17 28 14 29 16 30 15 31 2 32 3 33 1 34
REMARK SMILES IDX 37 35 24 37 25 38 26 39 27 40 28 41 36 42 29 43 33 44 30 45
REMARK SMILES IDX 31 46 34 47 35 48 32 49
REMARK H PARENT 39 24 32 50
REMARK Flexibility Score: 90.00
ROOT
ATOM      1  C   UNL     1      97.534  82.369  87.642  1.00  0.00     0.264 C 
ENDROOT
BRANCH   1   2
ATOM      2  C   UNL     1      96.058  82.686  87.594  1.00  0.00    -0.033 C 
ATOM      3  C   UNL     1      95.187  81.718  87.245  1.00  0.00    -0.015 C 
BRANCH   3   4
ATOM      4  C   UNL     1      93.682  81.800  87.049  1.00  0.00     0.078 C 
ATOM      5  O   UNL     1      92.641  81.206  89.213  1.00  0.00    -0.319 OA
ATOM      6  C   UNL     1      92.796  82.295  88.252  1.00  0.00     0.095 C 
ATOM      7  C   UNL     1      92.386  79.909  88.639  1.00  0.00     0.289 C 
ATOM      8  C   UNL     1      91.375  82.688  87.672  1.00  0.00     0.023 C 
ATOM      9  O   UNL     1      93.421  79.533  87.734  1.00  0.00    -0.320 OA
ATOM     10  O   UNL     1      91.181  79.881  87.880  1.00  0.00    -0.313 OA
ATOM     11  C   UNL     1      93.129  80.413  86.637  1.00  0.00     0.170 C 
ATOM     12  C   UNL     1      90.981  81.783  86.464  1.00  0.00     0.049 C 
ATOM     13  C   UNL     1      90.226  82.705  88.694  1.00  0.00     0.011 C 
ATOM     14  C   UNL     1      91.581  80.382  86.587  1.00  0.00     0.122 C 
BRANCH   6  15
ATOM     15  C   UNL     1      93.525  83.415  89.050  1.00  0.00     0.086 C 
ATOM     16  C   UNL     1      94.245  84.490  88.209  1.00  0.00     0.140 CG0
ATOM     17  C   UNL     1      92.757  84.219  90.061  1.00  0.00    -0.010 C 
ATOM     18  C   UNL     1      94.065  85.736  89.050  1.00  0.00     0.190 C 
ATOM     19  G   UNL     1      95.715  84.150  87.973  1.00  0.00     0.000 G0
ATOM     20  C   UNL     1      93.057  85.521  90.106  1.00  0.00    -0.008 C 
ATOM     21  O   UNL     1      94.631  86.803  88.865  1.00  0.00    -0.291 OA
ATOM     22  C   UNL     1      92.571  86.579  91.015  1.00  0.00     0.048 C 
BRANCH  16  23
ATOM     23  O   UNL     1      93.585  84.805  86.994  1.00  0.00    -0.381 OA
ATOM     24  H   UNL     1      92.942  84.102  86.803  1.00  0.00     0.212 HD
ENDBRANCH  16  23
ENDBRANCH   6  15
BRANCH   7  25
ATOM     25  C   UNL     1      92.299  78.899  89.766  1.00  0.00     0.135 C 
BRANCH  25  26
ATOM     26  C   UNL     1      91.470  79.409  90.918  1.00  0.00    -0.040 A 
ATOM     27  C   UNL     1      90.519  78.579  91.514  1.00  0.00     0.004 A 
ATOM     28  C   UNL     1      91.654  80.708  91.390  1.00  0.00     0.004 A 
ATOM     29  C   UNL     1      89.752  79.050  92.580  1.00  0.00     0.000 A 
ATOM     30  C   UNL     1      90.888  81.179  92.457  1.00  0.00     0.000 A 
ATOM     31  C   UNL     1      89.937  80.349  93.051  1.00  0.00     0.000 A 
ENDBRANCH  25  26
ENDBRANCH   7  25
BRANCH  14  32
ATOM     32  C   UNL     1      91.071  79.445  85.541  1.00  0.00    -0.046 C 
ATOM     33  C   UNL     1      91.772  78.123  85.438  1.00  0.00     0.042 C 
ATOM     34  C   UNL     1      90.045  79.768  84.739  1.00  0.00     0.010 C 
ENDBRANCH  14  32
ENDBRANCH   3   4
BRANCH   2  35
ATOM     35  C   UNL     1      95.745  84.121  87.973  1.00  0.00     0.078 CG0
ATOM     36  G   UNL     1      94.279  84.477  88.213  1.00  0.00     0.000 G0
ENDBRANCH   2  35
ENDBRANCH   1   2
BRANCH   1  37
ATOM     37  O   UNL     1      98.018  82.200  86.327  1.00  0.00    -0.461 OA
BRANCH  37  38
ATOM     38  C   UNL     1      98.186  83.349  85.589  1.00  0.00     0.310 C 
ATOM     39  O   UNL     1      98.936  84.270  85.883  1.00  0.00    -0.252 OA
BRANCH  38  40
ATOM     40  C   UNL     1      97.304  83.295  84.364  1.00  0.00     0.158 C 
BRANCH  40  41
ATOM     41  C   UNL     1      98.015  82.755  83.150  1.00  0.00    -0.033 A 
ATOM     42  C   UNL     1      98.587  81.483  83.186  1.00  0.00     0.054 A 
ATOM     43  C   UNL     1      98.100  83.525  81.991  1.00  0.00     0.008 A 
ATOM     44  C   UNL     1      99.245  80.982  82.062  1.00  0.00     0.160 A 
ATOM     45  C   UNL     1      98.758  83.025  80.867  1.00  0.00     0.050 A 
ATOM     46  C   UNL     1      99.331  81.754  80.903  1.00  0.00     0.157 A 
BRANCH  44  47
ATOM     47  O   UNL     1      99.801  79.740  82.110  1.00  0.00    -0.493 OA
ATOM     48  C   UNL     1      99.608  78.988  83.307  1.00  0.00     0.278 C 
ENDBRANCH  44  47
BRANCH  46  49
ATOM     49  O   UNL     1      99.970  81.276  79.799  1.00  0.00    -0.504 OA
ATOM     50  H   UNL     1      99.643  80.380  79.607  1.00  0.00     0.293 HD
ENDBRANCH  46  49
ENDBRANCH  40  41
ENDBRANCH  38  40
ENDBRANCH  37  38
ENDBRANCH   1  37
TORSDOF 11
ENDMDL
MODEL 6
REMARK VINA RESULT:    -5.929     30.791     34.613
REMARK INTER + INTRA:         -12.311
REMARK INTER:                 -11.462
REMARK INTRA:                  -0.849
REMARK UNBOUND:                -1.876
REMARK SMILES C=C(C)[C@]12C[C@@H](C)[C@@]34O[C@](Cc5ccccc5)(O[C@@H]1[C@@H]3C=C(COC(=O)Cc1ccc(O)c(OC)c1)C[C@]1(O)C(=O)C(C)=C[C@@H]41)O2
REMARK SMILES IDX 23 1 22 2 21 3 20 4 9 5 8 6 10 7 6 8 18 9 46 10 19 11 5 12
REMARK SMILES IDX 7 13 4 14 45 15 38 16 44 17 40 18 42 20 41 21 43 22 39 23
REMARK SMILES IDX 11 25 12 26 13 27 17 28 14 29 16 30 15 31 2 32 3 33 1 34
REMARK SMILES IDX 37 35 24 37 25 38 26 39 27 40 28 41 36 42 29 43 33 44 30 45
REMARK SMILES IDX 31 46 34 47 35 48 32 49
REMARK H PARENT 39 24 32 50
REMARK Flexibility Score: 90.00
ROOT
ATOM      1  C   UNL     1      97.630  82.781  88.169  1.00  0.00     0.264 C 
ENDROOT
BRANCH   1   2
ATOM      2  C   UNL     1      96.263  83.406  88.324  1.00  0.00    -0.033 C 
ATOM      3  C   UNL     1      95.185  82.608  88.458  1.00  0.00    -0.015 C 
BRANCH   3   4
ATOM      4  C   UNL     1      93.714  82.980  88.551  1.00  0.00     0.078 C 
ATOM      5  O   UNL     1      93.178  83.205  90.955  1.00  0.00    -0.319 OA
ATOM      6  C   UNL     1      93.259  83.952  89.703  1.00  0.00     0.095 C 
ATOM      7  C   UNL     1      92.577  81.900  90.857  1.00  0.00     0.289 C 
ATOM      8  C   UNL     1      91.821  84.502  89.327  1.00  0.00     0.023 C 
ATOM      9  O   UNL     1      93.269  81.081  89.919  1.00  0.00    -0.320 OA
ATOM     10  O   UNL     1      91.229  81.959  90.397  1.00  0.00    -0.313 OA
ATOM     11  C   UNL     1      92.855  81.700  88.691  1.00  0.00     0.170 C 
ATOM     12  C   UNL     1      90.989  83.438  88.548  1.00  0.00     0.049 C 
ATOM     13  C   UNL     1      90.991  85.038  90.505  1.00  0.00     0.011 C 
ATOM     14  C   UNL     1      91.362  82.014  88.961  1.00  0.00     0.122 C 
BRANCH   6  15
ATOM     15  C   UNL     1      94.342  85.039  89.967  1.00  0.00     0.086 C 
ATOM     16  C   UNL     1      94.998  85.663  88.718  1.00  0.00     0.140 CG0
ATOM     17  C   UNL     1      93.997  86.231  90.814  1.00  0.00    -0.010 C 
ATOM     18  C   UNL     1      95.246  87.090  89.160  1.00  0.00     0.190 C 
ATOM     19  G   UNL     1      96.285  84.942  88.321  1.00  0.00     0.000 G0
ATOM     20  C   UNL     1      94.512  87.394  90.403  1.00  0.00    -0.008 C 
ATOM     21  O   UNL     1      95.918  87.912  88.555  1.00  0.00    -0.291 OA
ATOM     22  C   UNL     1      94.453  88.734  91.023  1.00  0.00     0.048 C 
BRANCH  16  23
ATOM     23  O   UNL     1      94.118  85.798  87.615  1.00  0.00    -0.381 OA
ATOM     24  H   UNL     1      93.333  86.291  87.906  1.00  0.00     0.212 HD
ENDBRANCH  16  23
ENDBRANCH   6  15
BRANCH   7  25
ATOM     25  C   UNL     1      92.615  81.254  92.227  1.00  0.00     0.135 C 
BRANCH  25  26
ATOM     26  C   UNL     1      91.666  81.919  93.193  1.00  0.00    -0.040 A 
ATOM     27  C   UNL     1      90.515  81.250  93.611  1.00  0.00     0.004 A 
ATOM     28  C   UNL     1      91.939  83.201  93.669  1.00  0.00     0.004 A 
ATOM     29  C   UNL     1      89.637  81.864  94.504  1.00  0.00     0.000 A 
ATOM     30  C   UNL     1      91.061  83.815  94.562  1.00  0.00     0.000 A 
ATOM     31  C   UNL     1      89.910  83.146  94.979  1.00  0.00     0.000 A 
ENDBRANCH  25  26
ENDBRANCH   7  25
BRANCH  14  32
ATOM     32  C   UNL     1      90.455  80.986  88.366  1.00  0.00    -0.046 C 
ATOM     33  C   UNL     1      90.918  79.562  88.456  1.00  0.00     0.042 C 
ATOM     34  C   UNL     1      89.293  81.318  87.783  1.00  0.00     0.010 C 
ENDBRANCH  14  32
ENDBRANCH   3   4
BRANCH   2  35
ATOM     35  C   UNL     1      96.298  84.922  88.316  1.00  0.00     0.078 CG0
ATOM     36  G   UNL     1      95.013  85.653  88.705  1.00  0.00     0.000 G0
ENDBRANCH   2  35
ENDBRANCH   1   2
BRANCH   1  37
ATOM     37  O   UNL     1      97.790  82.334  86.840  1.00  0.00    -0.461 OA
BRANCH  37  38
ATOM     38  C   UNL     1      98.085  83.298  85.904  1.00  0.00     0.310 C 
ATOM     39  O   UNL     1      98.959  84.146  86.021  1.00  0.00    -0.252 OA
BRANCH  38  40
ATOM     40  C   UNL     1      97.164  83.147  84.717  1.00  0.00     0.158 C 
BRANCH  40  41
ATOM     41  C   UNL     1      97.863  82.607  83.495  1.00  0.00    -0.033 A 
ATOM     42  C   UNL     1      98.422  81.329  83.520  1.00  0.00     0.054 A 
ATOM     43  C   UNL     1      97.949  83.384  82.341  1.00  0.00     0.008 A 
ATOM     44  C   UNL     1      99.069  80.829  82.390  1.00  0.00     0.160 A 
ATOM     45  C   UNL     1      98.596  82.884  81.210  1.00  0.00     0.050 A 
ATOM     46  C   UNL     1      99.156  81.607  81.235  1.00  0.00     0.157 A 
BRANCH  44  47
ATOM     47  O   UNL     1      99.612  79.581  82.426  1.00  0.00    -0.493 OA
ATOM     48  C   UNL     1      99.385  78.809  83.605  1.00  0.00     0.278 C 
ENDBRANCH  44  47
BRANCH  46  49
ATOM     49  O   UNL     1      99.785  81.129  80.125  1.00  0.00    -0.504 OA
ATOM     50  H   UNL     1      99.447  80.239  79.929  1.00  0.00     0.293 HD
ENDBRANCH  46  49
ENDBRANCH  40  41
ENDBRANCH  38  40
ENDBRANCH  37  38
ENDBRANCH   1  37
TORSDOF 11
ENDMDL
MODEL 7
REMARK VINA RESULT:    -5.800     33.075     35.816
REMARK INTER + INTRA:         -12.084
REMARK INTER:                 -11.105
REMARK INTRA:                  -0.980
REMARK UNBOUND:                -1.876
REMARK SMILES C=C(C)[C@]12C[C@@H](C)[C@@]34O[C@](Cc5ccccc5)(O[C@@H]1[C@@H]3C=C(COC(=O)Cc1ccc(O)c(OC)c1)C[C@]1(O)C(=O)C(C)=C[C@@H]41)O2
REMARK SMILES IDX 23 1 22 2 21 3 20 4 9 5 8 6 10 7 6 8 18 9 46 10 19 11 5 12
REMARK SMILES IDX 7 13 4 14 45 15 38 16 44 17 40 18 42 20 41 21 43 22 39 23
REMARK SMILES IDX 11 25 12 26 13 27 17 28 14 29 16 30 15 31 2 32 3 33 1 34
REMARK SMILES IDX 37 35 24 37 25 38 26 39 27 40 28 41 36 42 29 43 33 44 30 45
REMARK SMILES IDX 31 46 34 47 35 48 32 49
REMARK H PARENT 39 24 32 50
REMARK Flexibility Score: 90.00
ROOT
ATOM      1  C   UNL     1      99.342  82.070  84.110  1.00  0.00     0.264 C 
ENDROOT
BRANCH   1   2
ATOM      2  C   UNL     1      98.073  82.178  84.922  1.00  0.00    -0.033 C 
ATOM      3  C   UNL     1      97.514  81.058  85.423  1.00  0.00    -0.015 C 
BRANCH   3   4
ATOM      4  C   UNL     1      96.216  80.891  86.197  1.00  0.00     0.078 C 
ATOM      5  O   UNL     1      96.785  81.039  88.600  1.00  0.00    -0.319 OA
ATOM      6  C   UNL     1      96.033  81.699  87.535  1.00  0.00     0.095 C 
ATOM      7  C   UNL     1      96.685  79.602  88.625  1.00  0.00     0.289 C 
ATOM      8  C   UNL     1      94.490  81.684  87.898  1.00  0.00     0.023 C 
ATOM      9  O   UNL     1      97.109  79.032  87.389  1.00  0.00    -0.320 OA
ATOM     10  O   UNL     1      95.345  79.156  88.815  1.00  0.00    -0.313 OA
ATOM     11  C   UNL     1      96.003  79.399  86.550  1.00  0.00     0.170 C 
ATOM     12  C   UNL     1      93.811  80.354  87.446  1.00  0.00     0.049 C 
ATOM     13  C   UNL     1      94.156  81.953  89.374  1.00  0.00     0.011 C 
ATOM     14  C   UNL     1      94.787  79.178  87.485  1.00  0.00     0.122 C 
BRANCH   6  15
ATOM     15  C   UNL     1      96.679  83.110  87.421  1.00  0.00     0.086 C 
ATOM     16  C   UNL     1      96.441  83.861  86.095  1.00  0.00     0.140 CG0
ATOM     17  C   UNL     1      96.376  84.145  88.468  1.00  0.00    -0.010 C 
ATOM     18  C   UNL     1      96.364  85.305  86.546  1.00  0.00     0.190 C 
ATOM     19  G   UNL     1      97.565  83.623  85.087  1.00  0.00     0.000 G0
ATOM     20  C   UNL     1      96.222  85.393  88.012  1.00  0.00    -0.008 C 
ATOM     21  O   UNL     1      96.366  86.278  85.809  1.00  0.00    -0.291 OA
ATOM     22  C   UNL     1      96.002  86.655  88.748  1.00  0.00     0.048 C 
BRANCH  16  23
ATOM     23  O   UNL     1      95.169  83.619  85.518  1.00  0.00    -0.381 OA
ATOM     24  H   UNL     1      94.802  84.466  85.216  1.00  0.00     0.212 HD
ENDBRANCH  16  23
ENDBRANCH   6  15
BRANCH   7  25
ATOM     25  C   UNL     1      97.555  79.085  89.753  1.00  0.00     0.135 C 
BRANCH  25  26
ATOM     26  C   UNL     1      97.623  80.056  90.905  1.00  0.00    -0.040 A 
ATOM     27  C   UNL     1      96.565  80.138  91.810  1.00  0.00     0.004 A 
ATOM     28  C   UNL     1      98.744  80.869  91.067  1.00  0.00     0.004 A 
ATOM     29  C   UNL     1      96.627  81.036  92.877  1.00  0.00     0.000 A 
ATOM     30  C   UNL     1      98.807  81.767  92.133  1.00  0.00     0.000 A 
ATOM     31  C   UNL     1      97.748  81.850  93.038  1.00  0.00     0.000 A 
ENDBRANCH  25  26
ENDBRANCH   7  25
BRANCH  14  32
ATOM     32  C   UNL     1      94.117  77.867  87.234  1.00  0.00    -0.046 C 
ATOM     33  C   UNL     1      92.829  77.917  86.467  1.00  0.00     0.042 C 
ATOM     34  C   UNL     1      94.637  76.709  87.669  1.00  0.00     0.010 C 
ENDBRANCH  14  32
ENDBRANCH   3   4
BRANCH   2  35
ATOM     35  C   UNL     1      97.584  83.606  85.074  1.00  0.00     0.078 CG0
ATOM     36  G   UNL     1      96.461  83.857  86.079  1.00  0.00     0.000 G0
ENDBRANCH   2  35
ENDBRANCH   1   2
BRANCH   1  37
ATOM     37  O   UNL     1      99.150  81.141  83.065  1.00  0.00    -0.461 OA
BRANCH  37  38
ATOM     38  C   UNL     1      99.887  81.349  81.922  1.00  0.00     0.310 C 
ATOM     39  O   UNL     1     100.509  80.485  81.320  1.00  0.00    -0.252 OA
BRANCH  38  40
ATOM     40  C   UNL     1      99.808  82.805  81.529  1.00  0.00     0.158 C 
BRANCH  40  41
ATOM     41  C   UNL     1      99.081  83.025  80.227  1.00  0.00    -0.033 A 
ATOM     42  C   UNL     1      99.756  82.862  79.016  1.00  0.00     0.054 A 
ATOM     43  C   UNL     1      97.735  83.389  80.233  1.00  0.00     0.008 A 
ATOM     44  C   UNL     1      99.083  83.065  77.811  1.00  0.00     0.160 A 
ATOM     45  C   UNL     1      97.063  83.592  79.027  1.00  0.00     0.050 A 
ATOM     46  C   UNL     1      97.736  83.431  77.817  1.00  0.00     0.157 A 
BRANCH  44  47
ATOM     47  O   UNL     1      99.752  82.904  76.636  1.00  0.00    -0.493 OA
ATOM     48  C   UNL     1     100.237  84.085  75.999  1.00  0.00     0.278 C 
ENDBRANCH  44  47
BRANCH  46  49
ATOM     49  O   UNL     1      97.069  83.630  76.647  1.00  0.00    -0.504 OA
ATOM     50  H   UNL     1      96.118  83.709  76.834  1.00  0.00     0.293 HD
ENDBRANCH  46  49
ENDBRANCH  40  41
ENDBRANCH  38  40
ENDBRANCH  37  38
ENDBRANCH   1  37
TORSDOF 11
ENDMDL
MODEL 8
REMARK VINA RESULT:    -5.494     30.943     35.137
REMARK INTER + INTRA:         -11.546
REMARK INTER:                 -10.807
REMARK INTRA:                  -0.739
REMARK UNBOUND:                -1.876
REMARK SMILES C=C(C)[C@]12C[C@@H](C)[C@@]34O[C@](Cc5ccccc5)(O[C@@H]1[C@@H]3C=C(COC(=O)Cc1ccc(O)c(OC)c1)C[C@]1(O)C(=O)C(C)=C[C@@H]41)O2
REMARK SMILES IDX 23 1 22 2 21 3 20 4 9 5 8 6 10 7 6 8 18 9 46 10 19 11 5 12
REMARK SMILES IDX 7 13 4 14 45 15 38 16 44 17 40 18 42 20 41 21 43 22 39 23
REMARK SMILES IDX 11 25 12 26 13 27 17 28 14 29 16 30 15 31 2 32 3 33 1 34
REMARK SMILES IDX 37 35 24 37 25 38 26 39 27 40 28 41 36 42 29 43 33 44 30 45
REMARK SMILES IDX 31 46 34 47 35 48 32 49
REMARK H PARENT 39 24 32 50
REMARK Flexibility Score: 90.00
ROOT
ATOM      1  C   UNL     1      94.322  85.091  91.057  1.00  0.00     0.264 C 
ENDROOT
BRANCH   1   2
ATOM      2  C   UNL     1      94.902  83.849  90.421  1.00  0.00    -0.033 C 
ATOM      3  C   UNL     1      94.481  82.638  90.837  1.00  0.00    -0.015 C 
BRANCH   3   4
ATOM      4  C   UNL     1      94.956  81.256  90.419  1.00  0.00     0.078 C 
ATOM      5  O   UNL     1      93.507  80.531  88.550  1.00  0.00    -0.319 OA
ATOM      6  C   UNL     1      94.886  80.869  88.894  1.00  0.00     0.095 C 
ATOM      7  C   UNL     1      92.812  79.718  89.514  1.00  0.00     0.289 C 
ATOM      8  C   UNL     1      95.807  79.598  88.679  1.00  0.00     0.023 C 
ATOM      9  O   UNL     1      92.788  80.343  90.795  1.00  0.00    -0.320 OA
ATOM     10  O   UNL     1      93.444  78.456  89.714  1.00  0.00    -0.313 OA
ATOM     11  C   UNL     1      94.159  80.172  91.185  1.00  0.00     0.170 C 
ATOM     12  C   UNL     1      95.803  78.671  89.933  1.00  0.00     0.049 C 
ATOM     13  C   UNL     1      95.497  78.764  87.425  1.00  0.00     0.011 C 
ATOM     14  C   UNL     1      94.473  78.740  90.684  1.00  0.00     0.122 C 
BRANCH   6  15
ATOM     15  C   UNL     1      95.221  82.097  87.998  1.00  0.00     0.086 C 
ATOM     16  C   UNL     1      96.393  82.983  88.468  1.00  0.00     0.140 CG0
ATOM     17  C   UNL     1      95.505  81.886  86.537  1.00  0.00    -0.010 C 
ATOM     18  C   UNL     1      97.004  83.437  87.159  1.00  0.00     0.190 C 
ATOM     19  G   UNL     1      95.923  84.152  89.332  1.00  0.00     0.000 G0
ATOM     20  C   UNL     1      96.483  82.644  86.029  1.00  0.00    -0.008 C 
ATOM     21  O   UNL     1      97.853  84.306  87.038  1.00  0.00    -0.291 OA
ATOM     22  C   UNL     1      96.970  82.764  84.640  1.00  0.00     0.048 C 
BRANCH  16  23
ATOM     23  O   UNL     1      97.440  82.262  89.097  1.00  0.00    -0.381 OA
ATOM     24  H   UNL     1      98.288  82.648  88.821  1.00  0.00     0.212 HD
ENDBRANCH  16  23
ENDBRANCH   6  15
BRANCH   7  25
ATOM     25  C   UNL     1      91.395  79.503  89.022  1.00  0.00     0.135 C 
BRANCH  25  26
ATOM     26  C   UNL     1      91.319  79.466  87.516  1.00  0.00    -0.040 A 
ATOM     27  C   UNL     1      90.938  80.607  86.809  1.00  0.00     0.004 A 
ATOM     28  C   UNL     1      91.632  78.293  86.831  1.00  0.00     0.004 A 
ATOM     29  C   UNL     1      90.867  80.572  85.416  1.00  0.00     0.000 A 
ATOM     30  C   UNL     1      91.561  78.258  85.438  1.00  0.00     0.000 A 
ATOM     31  C   UNL     1      91.179  79.399  84.731  1.00  0.00     0.000 A 
ENDBRANCH  25  26
ENDBRANCH   7  25
BRANCH  14  32
ATOM     32  C   UNL     1      94.378  77.728  91.779  1.00  0.00    -0.046 C 
ATOM     33  C   UNL     1      93.222  76.776  91.704  1.00  0.00     0.042 C 
ATOM     34  C   UNL     1      95.276  77.674  92.774  1.00  0.00     0.010 C 
ENDBRANCH  14  32
ENDBRANCH   3   4
BRANCH   2  35
ATOM     35  C   UNL     1      95.923  84.155  89.342  1.00  0.00     0.078 CG0
ATOM     36  G   UNL     1      96.396  82.989  88.476  1.00  0.00     0.000 G0
ENDBRANCH   2  35
ENDBRANCH   1   2
BRANCH   1  37
ATOM     37  O   UNL     1      93.368  85.660  90.186  1.00  0.00    -0.461 OA
BRANCH  37  38
ATOM     38  C   UNL     1      92.294  86.280  90.781  1.00  0.00     0.310 C 
ATOM     39  O   UNL     1      91.120  86.068  90.507  1.00  0.00    -0.252 OA
BRANCH  38  40
ATOM     40  C   UNL     1      92.788  87.258  91.821  1.00  0.00     0.158 C 
BRANCH  40  41
ATOM     41  C   UNL     1      93.438  88.477  91.219  1.00  0.00    -0.033 A 
ATOM     42  C   UNL     1      94.798  88.458  90.904  1.00  0.00     0.054 A 
ATOM     43  C   UNL     1      92.683  89.623  90.976  1.00  0.00     0.008 A 
ATOM     44  C   UNL     1      95.400  89.586  90.347  1.00  0.00     0.160 A 
ATOM     45  C   UNL     1      93.285  90.751  90.419  1.00  0.00     0.050 A 
ATOM     46  C   UNL     1      94.644  90.733  90.105  1.00  0.00     0.157 A 
BRANCH  44  47
ATOM     47  O   UNL     1      96.728  89.555  90.045  1.00  0.00    -0.493 OA
ATOM     48  C   UNL     1      97.613  90.221  90.944  1.00  0.00     0.278 C 
ENDBRANCH  44  47
BRANCH  46  49
ATOM     49  O   UNL     1      95.221  91.840  89.560  1.00  0.00    -0.504 OA
ATOM     50  H   UNL     1      94.897  92.628  90.028  1.00  0.00     0.293 HD
ENDBRANCH  46  49
ENDBRANCH  40  41
ENDBRANCH  38  40
ENDBRANCH  37  38
ENDBRANCH   1  37
TORSDOF 11
ENDMDL
MODEL 9
REMARK VINA RESULT:    -5.468     31.867     36.327
REMARK INTER + INTRA:         -11.499
REMARK INTER:                 -10.762
REMARK INTRA:                  -0.737
REMARK UNBOUND:                -1.876
REMARK SMILES C=C(C)[C@]12C[C@@H](C)[C@@]34O[C@](Cc5ccccc5)(O[C@@H]1[C@@H]3C=C(COC(=O)Cc1ccc(O)c(OC)c1)C[C@]1(O)C(=O)C(C)=C[C@@H]41)O2
REMARK SMILES IDX 23 1 22 2 21 3 20 4 9 5 8 6 10 7 6 8 18 9 46 10 19 11 5 12
REMARK SMILES IDX 7 13 4 14 45 15 38 16 44 17 40 18 42 20 41 21 43 22 39 23
REMARK SMILES IDX 11 25 12 26 13 27 17 28 14 29 16 30 15 31 2 32 3 33 1 34
REMARK SMILES IDX 37 35 24 37 25 38 26 39 27 40 28 41 36 42 29 43 33 44 30 45
REMARK SMILES IDX 31 46 34 47 35 48 32 49
REMARK H PARENT 39 24 32 50
REMARK Flexibility Score: 90.00
ROOT
ATOM      1  C   UNL     1      94.871  96.022  82.885  1.00  0.00     0.264 C 
ENDROOT
BRANCH   1   2
ATOM      2  C   UNL     1      95.892  97.105  83.145  1.00  0.00    -0.033 C 
ATOM      3  C   UNL     1      95.664  98.351  82.682  1.00  0.00    -0.015 C 
BRANCH   3   4
ATOM      4  C   UNL     1      96.555  99.581  82.742  1.00  0.00     0.078 C 
ATOM      5  O   UNL     1      95.954 100.806  84.806  1.00  0.00    -0.319 OA
ATOM      6  C   UNL     1      97.043 100.084  84.152  1.00  0.00     0.095 C 
ATOM      7  C   UNL     1      95.212 101.702  83.957  1.00  0.00     0.289 C 
ATOM      8  C   UNL     1      98.258 101.072  83.914  1.00  0.00     0.023 C 
ATOM      9  O   UNL     1      94.654 101.014  82.841  1.00  0.00    -0.320 OA
ATOM     10  O   UNL     1      96.032 102.729  83.406  1.00  0.00    -0.313 OA
ATOM     11  C   UNL     1      95.842 100.780  82.069  1.00  0.00     0.170 C 
ATOM     12  C   UNL     1      98.093 101.871  82.585  1.00  0.00     0.049 C 
ATOM     13  C   UNL     1      98.549 102.049  85.065  1.00  0.00     0.011 C 
ATOM     14  C   UNL     1      96.621 102.107  82.246  1.00  0.00     0.122 C 
BRANCH   6  15
ATOM     15  C   UNL     1      97.334  98.881  85.096  1.00  0.00     0.086 C 
ATOM     16  C   UNL     1      98.070  97.682  84.463  1.00  0.00     0.140 CG0
ATOM     17  C   UNL     1      98.084  99.116  86.377  1.00  0.00    -0.010 C 
ATOM     18  C   UNL     1      98.921  97.179  85.611  1.00  0.00     0.190 C 
ATOM     19  G   UNL     1      97.103  96.620  83.943  1.00  0.00     0.000 G0
ATOM     20  C   UNL     1      98.963  98.164  86.708  1.00  0.00    -0.008 C 
ATOM     21  O   UNL     1      99.539  96.126  85.625  1.00  0.00    -0.291 OA
ATOM     22  C   UNL     1      99.803  98.022  87.916  1.00  0.00     0.048 C 
BRANCH  16  23
ATOM     23  O   UNL     1      99.018  98.048  83.474  1.00  0.00    -0.381 OA
ATOM     24  H   UNL     1      99.726  97.382  83.466  1.00  0.00     0.212 HD
ENDBRANCH  16  23
ENDBRANCH   6  15
BRANCH   7  25
ATOM     25  C   UNL     1      94.103 102.327  84.780  1.00  0.00     0.135 C 
BRANCH  25  26
ATOM     26  C   UNL     1      93.006 102.893  83.913  1.00  0.00    -0.040 A 
ATOM     27  C   UNL     1      93.328 103.684  82.810  1.00  0.00     0.004 A 
ATOM     28  C   UNL     1      91.671 102.624  84.212  1.00  0.00     0.004 A 
ATOM     29  C   UNL     1      92.314 104.208  82.007  1.00  0.00     0.000 A 
ATOM     30  C   UNL     1      90.657 103.148  83.410  1.00  0.00     0.000 A 
ATOM     31  C   UNL     1      90.979 103.940  82.307  1.00  0.00     0.000 A 
ENDBRANCH  25  26
ENDBRANCH   7  25
BRANCH  14  32
ATOM     32  C   UNL     1      96.441 103.023  81.079  1.00  0.00    -0.046 C 
ATOM     33  C   UNL     1      95.701 102.459  79.903  1.00  0.00     0.042 C 
ATOM     34  C   UNL     1      96.914 104.278  81.082  1.00  0.00     0.010 C 
ENDBRANCH  14  32
ENDBRANCH   3   4
BRANCH   2  35
ATOM     35  C   UNL     1      97.089  96.617  83.938  1.00  0.00     0.078 CG0
ATOM     36  G   UNL     1      98.047  97.676  84.482  1.00  0.00     0.000 G0
ENDBRANCH   2  35
ENDBRANCH   1   2
BRANCH   1  37
ATOM     37  O   UNL     1      94.523  96.027  81.517  1.00  0.00    -0.461 OA
BRANCH  37  38
ATOM     38  C   UNL     1      95.243  95.182  80.704  1.00  0.00     0.310 C 
ATOM     39  O   UNL     1      96.461  95.070  80.709  1.00  0.00    -0.252 OA
BRANCH  38  40
ATOM     40  C   UNL     1      94.297  94.418  79.808  1.00  0.00     0.158 C 
BRANCH  40  41
ATOM     41  C   UNL     1      93.870  95.205  78.596  1.00  0.00    -0.033 A 
ATOM     42  C   UNL     1      94.820  95.615  77.661  1.00  0.00     0.054 A 
ATOM     43  C   UNL     1      92.525  95.523  78.409  1.00  0.00     0.008 A 
ATOM     44  C   UNL     1      94.425  96.344  76.539  1.00  0.00     0.160 A 
ATOM     45  C   UNL     1      92.129  96.252  77.288  1.00  0.00     0.050 A 
ATOM     46  C   UNL     1      93.079  96.663  76.353  1.00  0.00     0.157 A 
BRANCH  44  47
ATOM     47  O   UNL     1      95.362  96.740  75.633  1.00  0.00    -0.493 OA
ATOM     48  C   UNL     1      96.056  97.956  75.907  1.00  0.00     0.278 C 
ENDBRANCH  44  47
BRANCH  46  49
ATOM     49  O   UNL     1      92.681  97.373  75.261  1.00  0.00    -0.504 OA
ATOM     50  H   UNL     1      93.461  97.588  74.722  1.00  0.00     0.293 HD
ENDBRANCH  46  49
ENDBRANCH  40  41
ENDBRANCH  38  40
ENDBRANCH  37  38
ENDBRANCH   1  37
TORSDOF 11
ENDMDL
MODEL 10
REMARK VINA RESULT:    -5.389     10.378     14.612
REMARK INTER + INTRA:         -11.360
REMARK INTER:                  -9.585
REMARK INTRA:                  -1.775
REMARK UNBOUND:                -1.876
REMARK SMILES C=C(C)[C@]12C[C@@H](C)[C@@]34O[C@](Cc5ccccc5)(O[C@@H]1[C@@H]3C=C(COC(=O)Cc1ccc(O)c(OC)c1)C[C@]1(O)C(=O)C(C)=C[C@@H]41)O2
REMARK SMILES IDX 23 1 22 2 21 3 20 4 9 5 8 6 10 7 6 8 18 9 46 10 19 11 5 12
REMARK SMILES IDX 7 13 4 14 45 15 38 16 44 17 40 18 42 20 41 21 43 22 39 23
REMARK SMILES IDX 11 25 12 26 13 27 17 28 14 29 16 30 15 31 2 32 3 33 1 34
REMARK SMILES IDX 37 35 24 37 25 38 26 39 27 40 28 41 36 42 29 43 33 44 30 45
REMARK SMILES IDX 31 46 34 47 35 48 32 49
REMARK H PARENT 39 24 32 50
REMARK Flexibility Score: 90.00
ROOT
ATOM      1  C   UNL     1      70.950  92.290  75.346  1.00  0.00     0.264 C 
ENDROOT
BRANCH   1   2
ATOM      2  C   UNL     1      72.354  92.450  75.880  1.00  0.00    -0.033 C 
ATOM      3  C   UNL     1      73.334  92.852  75.047  1.00  0.00    -0.015 C 
BRANCH   3   4
ATOM      4  C   UNL     1      74.822  93.013  75.315  1.00  0.00     0.078 C 
ATOM      5  O   UNL     1      75.179  95.361  76.009  1.00  0.00    -0.319 OA
ATOM      6  C   UNL     1      75.274  93.979  76.473  1.00  0.00     0.095 C 
ATOM      7  C   UNL     1      75.656  95.596  74.670  1.00  0.00     0.289 C 
ATOM      8  C   UNL     1      76.785  93.644  76.814  1.00  0.00     0.023 C 
ATOM      9  O   UNL     1      74.966  94.782  73.725  1.00  0.00    -0.320 OA
ATOM     10  O   UNL     1      77.036  95.271  74.523  1.00  0.00    -0.313 OA
ATOM     11  C   UNL     1      75.537  93.501  74.031  1.00  0.00     0.170 C 
ATOM     12  C   UNL     1      77.570  93.190  75.546  1.00  0.00     0.049 C 
ATOM     13  C   UNL     1      77.564  94.762  77.525  1.00  0.00     0.011 C 
ATOM     14  C   UNL     1      77.027  93.849  74.277  1.00  0.00     0.122 C 
BRANCH   6  15
ATOM     15  C   UNL     1      74.285  93.903  77.672  1.00  0.00     0.086 C 
ATOM     16  C   UNL     1      73.791  92.493  78.058  1.00  0.00     0.140 CG0
ATOM     17  C   UNL     1      74.678  94.509  78.990  1.00  0.00    -0.010 C 
ATOM     18  C   UNL     1      73.650  92.598  79.562  1.00  0.00     0.190 C 
ATOM     19  G   UNL     1      72.475  92.134  77.370  1.00  0.00     0.000 G0
ATOM     20  C   UNL     1      74.311  93.814  80.072  1.00  0.00    -0.008 C 
ATOM     21  O   UNL     1      73.110  91.772  80.282  1.00  0.00    -0.291 OA
ATOM     22  C   UNL     1      74.452  94.140  81.506  1.00  0.00     0.048 C 
BRANCH  16  23
ATOM     23  O   UNL     1      74.763  91.476  77.880  1.00  0.00    -0.381 OA
ATOM     24  H   UNL     1      75.463  91.819  77.300  1.00  0.00     0.212 HD
ENDBRANCH  16  23
ENDBRANCH   6  15
BRANCH   7  25
ATOM     25  C   UNL     1      75.442  97.059  74.339  1.00  0.00     0.135 C 
BRANCH  25  26
ATOM     26  C   UNL     1      76.447  97.947  75.029  1.00  0.00    -0.040 A 
ATOM     27  C   UNL     1      76.137  98.525  76.261  1.00  0.00     0.004 A 
ATOM     28  C   UNL     1      77.687  98.190  74.439  1.00  0.00     0.004 A 
ATOM     29  C   UNL     1      77.066  99.347  76.900  1.00  0.00     0.000 A 
ATOM     30  C   UNL     1      78.616  99.011  75.078  1.00  0.00     0.000 A 
ATOM     31  C   UNL     1      78.305  99.590  76.308  1.00  0.00     0.000 A 
ENDBRANCH  25  26
ENDBRANCH   7  25
BRANCH  14  32
ATOM     32  C   UNL     1      77.874  93.573  73.078  1.00  0.00    -0.046 C 
ATOM     33  C   UNL     1      78.845  94.649  72.692  1.00  0.00     0.042 C 
ATOM     34  C   UNL     1      77.772  92.429  72.386  1.00  0.00     0.010 C 
ENDBRANCH  14  32
ENDBRANCH   3   4
BRANCH   2  35
ATOM     35  C   UNL     1      72.468  92.125  77.358  1.00  0.00     0.078 CG0
ATOM     36  G   UNL     1      73.776  92.498  78.056  1.00  0.00     0.000 G0
ENDBRANCH   2  35
ENDBRANCH   1   2
BRANCH   1  37
ATOM     37  O   UNL     1      70.719  90.932  75.037  1.00  0.00    -0.461 OA
BRANCH  37  38
ATOM     38  C   UNL     1      70.105  90.677  73.833  1.00  0.00     0.310 C 
ATOM     39  O   UNL     1      69.144  89.937  73.677  1.00  0.00    -0.252 OA
BRANCH  38  40
ATOM     40  C   UNL     1      70.801  91.451  72.738  1.00  0.00     0.158 C 
BRANCH  40  41
ATOM     41  C   UNL     1      72.020  90.745  72.203  1.00  0.00    -0.033 A 
ATOM     42  C   UNL     1      73.105  91.486  71.732  1.00  0.00     0.054 A 
ATOM     43  C   UNL     1      72.065  89.352  72.178  1.00  0.00     0.008 A 
ATOM     44  C   UNL     1      74.233  90.833  71.236  1.00  0.00     0.160 A 
ATOM     45  C   UNL     1      73.193  88.698  71.682  1.00  0.00     0.050 A 
ATOM     46  C   UNL     1      74.277  89.438  71.211  1.00  0.00     0.157 A 
BRANCH  44  47
ATOM     47  O   UNL     1      75.286  91.566  70.779  1.00  0.00    -0.493 OA
ATOM     48  C   UNL     1      74.980  92.757  70.054  1.00  0.00     0.278 C 
ENDBRANCH  44  47
BRANCH  46  49
ATOM     49  O   UNL     1      75.373  88.789  70.731  1.00  0.00    -0.504 OA
ATOM     50  H   UNL     1      76.141  89.384  70.781  1.00  0.00     0.293 HD
ENDBRANCH  46  49
ENDBRANCH  40  41
ENDBRANCH  38  40
ENDBRANCH  37  38
ENDBRANCH   1  37
TORSDOF 11
ENDMDL
