MODEL 1
REMARK VINA RESULT:    -6.425      0.000      0.000
REMARK INTER + INTRA:         -11.612
REMARK INTER:                 -10.369
REMARK INTRA:                  -1.244
REMARK UNBOUND:                -1.244
REMARK SMILES COc1cc(CNC(=O)CCCCCCC(C)C)ccc1O
REMARK SMILES IDX 11 1 10 2 8 3 7 4 9 6 6 7 5 8 3 9 21 10 4 11 20 12 19 13
REMARK SMILES IDX 2 14 1 15 22 16 12 18 13 19 14 20 15 21 16 22 17 23 18 24
REMARK H PARENT 7 5 22 17
REMARK Flexibility Score: inf
ROOT
ATOM      1  C   UNL     1      94.186  96.658  74.347  1.00  0.00     0.010 C 
ENDROOT
BRANCH   1   2
ATOM      2  C   UNL     1      95.729  96.638  74.167  1.00  0.00     0.100 C 
BRANCH   2   3
ATOM      3  C   UNL     1      96.456  97.286  75.282  1.00  0.00     0.220 C 
ATOM      4  N   UNL     1      96.698  96.602  76.437  1.00  0.00    -0.352 N 
ATOM      5  H   UNL     1      96.307  95.672  76.465  1.00  0.00     0.163 HD
ATOM      6  O   UNL     1      96.864  98.464  75.130  1.00  0.00    -0.275 OA
BRANCH   4   7
ATOM      7  C   UNL     1      97.438  97.104  77.555  1.00  0.00     0.151 C 
BRANCH   7   8
ATOM      8  C   UNL     1      96.902  96.647  78.867  1.00  0.00    -0.025 A 
ATOM      9  C   UNL     1      95.752  94.947  80.222  1.00  0.00     0.160 A 
ATOM     10  C   UNL     1      95.915  95.751  81.372  1.00  0.00     0.157 A 
ATOM     11  C   UNL     1      96.229  95.409  78.977  1.00  0.00     0.056 A 
ATOM     12  C   UNL     1      96.547  97.003  81.267  1.00  0.00     0.050 A 
ATOM     13  C   UNL     1      97.047  97.445  80.026  1.00  0.00     0.009 A 
BRANCH   9  14
ATOM     14  O   UNL     1      95.103  93.746  80.305  1.00  0.00    -0.493 OA
ATOM     15  C   UNL     1      95.694  92.710  79.499  1.00  0.00     0.278 C 
ENDBRANCH   9  14
BRANCH  10  16
ATOM     16  O   UNL     1      95.464  95.332  82.583  1.00  0.00    -0.504 OA
ATOM     17  H   UNL     1      95.785  95.926  83.266  1.00  0.00     0.293 HD
ENDBRANCH  10  16
ENDBRANCH   7   8
ENDBRANCH   4   7
ENDBRANCH   2   3
ENDBRANCH   1   2
BRANCH   1  18
ATOM     18  C   UNL     1      93.680  95.464  75.206  1.00  0.00     0.001 C 
BRANCH  18  19
ATOM     19  C   UNL     1      92.687  95.877  76.329  1.00  0.00     0.000 C 
BRANCH  19  20
ATOM     20  C   UNL     1      92.842  94.977  77.588  1.00  0.00     0.000 C 
BRANCH  20  21
ATOM     21  C   UNL     1      92.578  93.468  77.329  1.00  0.00     0.003 C 
BRANCH  21  22
ATOM     22  C   UNL     1      91.199  93.154  76.662  1.00  0.00    -0.017 C 
ATOM     23  C   UNL     1      90.135  92.819  77.744  1.00  0.00     0.007 C 
ATOM     24  C   UNL     1      91.264  92.024  75.593  1.00  0.00     0.007 C 
ENDBRANCH  21  22
ENDBRANCH  20  21
ENDBRANCH  19  20
ENDBRANCH  18  19
ENDBRANCH   1  18
TORSDOF 11
ENDMDL
MODEL 2
REMARK VINA RESULT:    -5.926      1.802      2.461
REMARK INTER + INTRA:         -10.806
REMARK INTER:                  -9.722
REMARK INTRA:                  -1.085
REMARK UNBOUND:                -1.244
REMARK SMILES COc1cc(CNC(=O)CCCCCCC(C)C)ccc1O
REMARK SMILES IDX 11 1 10 2 8 3 7 4 9 6 6 7 5 8 3 9 21 10 4 11 20 12 19 13
REMARK SMILES IDX 2 14 1 15 22 16 12 18 13 19 14 20 15 21 16 22 17 23 18 24
REMARK H PARENT 7 5 22 17
REMARK Flexibility Score: inf
ROOT
ATOM      1  C   UNL     1      95.493  97.152  74.989  1.00  0.00     0.010 C 
ENDROOT
BRANCH   1   2
ATOM      2  C   UNL     1      97.025  97.411  74.985  1.00  0.00     0.100 C 
BRANCH   2   3
ATOM      3  C   UNL     1      97.603  97.517  76.344  1.00  0.00     0.220 C 
ATOM      4  N   UNL     1      97.761  96.402  77.114  1.00  0.00    -0.352 N 
ATOM      5  H   UNL     1      97.417  95.549  76.697  1.00  0.00     0.163 HD
ATOM      6  O   UNL     1      97.964  98.646  76.757  1.00  0.00    -0.275 OA
BRANCH   4   7
ATOM      7  C   UNL     1      98.360  96.375  78.414  1.00  0.00     0.151 C 
BRANCH   7   8
ATOM      8  C   UNL     1      97.703  95.413  79.342  1.00  0.00    -0.025 A 
ATOM      9  C   UNL     1      97.809  93.944  81.312  1.00  0.00     0.160 A 
ATOM     10  C   UNL     1      96.446  93.614  81.142  1.00  0.00     0.157 A 
ATOM     11  C   UNL     1      98.430  94.825  80.402  1.00  0.00     0.056 A 
ATOM     12  C   UNL     1      95.722  94.163  80.068  1.00  0.00     0.050 A 
ATOM     13  C   UNL     1      96.341  95.064  79.180  1.00  0.00     0.009 A 
BRANCH   9  14
ATOM     14  O   UNL     1      98.533  93.386  82.330  1.00  0.00    -0.493 OA
ATOM     15  C   UNL     1      99.348  94.329  83.047  1.00  0.00     0.278 C 
ENDBRANCH   9  14
BRANCH  10  16
ATOM     16  O   UNL     1      95.822  92.768  82.002  1.00  0.00    -0.504 OA
ATOM     17  H   UNL     1      95.938  93.084  82.901  1.00  0.00     0.293 HD
ENDBRANCH  10  16
ENDBRANCH   7   8
ENDBRANCH   4   7
ENDBRANCH   2   3
ENDBRANCH   1   2
BRANCH   1  18
ATOM     18  C   UNL     1      95.151  95.656  75.245  1.00  0.00     0.001 C 
BRANCH  18  19
ATOM     19  C   UNL     1      93.639  95.324  75.094  1.00  0.00     0.000 C 
BRANCH  19  20
ATOM     20  C   UNL     1      92.756  96.285  75.939  1.00  0.00     0.000 C 
BRANCH  20  21
ATOM     21  C   UNL     1      92.221  95.663  77.258  1.00  0.00     0.003 C 
BRANCH  21  22
ATOM     22  C   UNL     1      91.930  94.128  77.183  1.00  0.00    -0.017 C 
ATOM     23  C   UNL     1      90.403  93.858  77.286  1.00  0.00     0.007 C 
ATOM     24  C   UNL     1      92.705  93.292  78.245  1.00  0.00     0.007 C 
ENDBRANCH  21  22
ENDBRANCH  20  21
ENDBRANCH  19  20
ENDBRANCH  18  19
ENDBRANCH   1  18
TORSDOF 11
ENDMDL
MODEL 3
REMARK VINA RESULT:    -5.758      6.252     10.147
REMARK INTER + INTRA:         -10.536
REMARK INTER:                  -9.859
REMARK INTRA:                  -0.677
REMARK UNBOUND:                -1.244
REMARK SMILES COc1cc(CNC(=O)CCCCCCC(C)C)ccc1O
REMARK SMILES IDX 11 1 10 2 8 3 7 4 9 6 6 7 5 8 3 9 21 10 4 11 20 12 19 13
REMARK SMILES IDX 2 14 1 15 22 16 12 18 13 19 14 20 15 21 16 22 17 23 18 24
REMARK H PARENT 7 5 22 17
REMARK Flexibility Score: inf
ROOT
ATOM      1  C   UNL     1      94.284  98.439  74.139  1.00  0.00     0.010 C 
ENDROOT
BRANCH   1   2
ATOM      2  C   UNL     1      94.364  99.113  72.742  1.00  0.00     0.100 C 
BRANCH   2   3
ATOM      3  C   UNL     1      93.139  99.861  72.382  1.00  0.00     0.220 C 
ATOM      4  N   UNL     1      92.209  99.303  71.554  1.00  0.00    -0.352 N 
ATOM      5  H   UNL     1      92.456  98.393  71.195  1.00  0.00     0.163 HD
ATOM      6  O   UNL     1      92.965 101.003  72.873  1.00  0.00    -0.275 OA
BRANCH   4   7
ATOM      7  C   UNL     1      90.965  99.906  71.184  1.00  0.00     0.151 C 
BRANCH   7   8
ATOM      8  C   UNL     1      90.473  99.467  69.849  1.00  0.00    -0.025 A 
ATOM      9  C   UNL     1      90.090  99.927  67.464  1.00  0.00     0.160 A 
ATOM     10  C   UNL     1      89.580  98.622  67.291  1.00  0.00     0.157 A 
ATOM     11  C   UNL     1      90.514 100.345  68.742  1.00  0.00     0.056 A 
ATOM     12  C   UNL     1      89.498  97.751  68.393  1.00  0.00     0.050 A 
ATOM     13  C   UNL     1      89.951  98.165  69.661  1.00  0.00     0.009 A 
BRANCH   9  14
ATOM     14  O   UNL     1      90.138 100.795  66.407  1.00  0.00    -0.493 OA
ATOM     15  C   UNL     1      91.420 100.847  65.756  1.00  0.00     0.278 C 
ENDBRANCH   9  14
BRANCH  10  16
ATOM     16  O   UNL     1      89.163  98.192  66.072  1.00  0.00    -0.504 OA
ATOM     17  H   UNL     1      89.631  97.387  65.839  1.00  0.00     0.293 HD
ENDBRANCH  10  16
ENDBRANCH   7   8
ENDBRANCH   4   7
ENDBRANCH   2   3
ENDBRANCH   1   2
BRANCH   1  18
ATOM     18  C   UNL     1      93.705  96.997  74.063  1.00  0.00     0.001 C 
BRANCH  18  19
ATOM     19  C   UNL     1      94.755  95.885  74.346  1.00  0.00     0.000 C 
BRANCH  19  20
ATOM     20  C   UNL     1      94.177  94.775  75.268  1.00  0.00     0.000 C 
BRANCH  20  21
ATOM     21  C   UNL     1      92.891  95.188  76.035  1.00  0.00     0.003 C 
BRANCH  21  22
ATOM     22  C   UNL     1      92.931  94.904  77.572  1.00  0.00    -0.017 C 
ATOM     23  C   UNL     1      94.354  95.170  78.138  1.00  0.00     0.007 C 
ATOM     24  C   UNL     1      92.450  93.473  77.956  1.00  0.00     0.007 C 
ENDBRANCH  21  22
ENDBRANCH  20  21
ENDBRANCH  19  20
ENDBRANCH  18  19
ENDBRANCH   1  18
TORSDOF 11
ENDMDL
MODEL 4
REMARK VINA RESULT:    -5.549      5.820      9.471
REMARK INTER + INTRA:         -10.199
REMARK INTER:                  -9.637
REMARK INTRA:                  -0.563
REMARK UNBOUND:                -1.244
REMARK SMILES COc1cc(CNC(=O)CCCCCCC(C)C)ccc1O
REMARK SMILES IDX 11 1 10 2 8 3 7 4 9 6 6 7 5 8 3 9 21 10 4 11 20 12 19 13
REMARK SMILES IDX 2 14 1 15 22 16 12 18 13 19 14 20 15 21 16 22 17 23 18 24
REMARK H PARENT 7 5 22 17
REMARK Flexibility Score: inf
ROOT
ATOM      1  C   UNL     1      94.669  98.150  74.230  1.00  0.00     0.010 C 
ENDROOT
BRANCH   1   2
ATOM      2  C   UNL     1      95.338  98.273  72.833  1.00  0.00     0.100 C 
BRANCH   2   3
ATOM      3  C   UNL     1      94.819  99.406  72.034  1.00  0.00     0.220 C 
ATOM      4  N   UNL     1      93.616  99.306  71.398  1.00  0.00    -0.352 N 
ATOM      5  H   UNL     1      93.164  98.408  71.488  1.00  0.00     0.163 HD
ATOM      6  O   UNL     1      95.495 100.462  71.977  1.00  0.00    -0.275 OA
BRANCH   4   7
ATOM      7  C   UNL     1      92.989 100.352  70.648  1.00  0.00     0.151 C 
BRANCH   7   8
ATOM      8  C   UNL     1      91.705  99.935  70.020  1.00  0.00    -0.025 A 
ATOM      9  C   UNL     1      90.129 100.026  68.134  1.00  0.00     0.160 A 
ATOM     10  C   UNL     1      89.281  99.111  68.796  1.00  0.00     0.157 A 
ATOM     11  C   UNL     1      91.323 100.445  68.758  1.00  0.00     0.056 A 
ATOM     12  C   UNL     1      89.632  98.626  70.069  1.00  0.00     0.050 A 
ATOM     13  C   UNL     1      90.840  99.026  70.673  1.00  0.00     0.009 A 
BRANCH   9  14
ATOM     14  O   UNL     1      89.778 100.534  66.913  1.00  0.00    -0.493 OA
ATOM     15  C   UNL     1      90.809 100.412  65.916  1.00  0.00     0.278 C 
ENDBRANCH   9  14
BRANCH  10  16
ATOM     16  O   UNL     1      88.124  98.691  68.219  1.00  0.00    -0.504 OA
ATOM     17  H   UNL     1      87.516  99.431  68.149  1.00  0.00     0.293 HD
ENDBRANCH  10  16
ENDBRANCH   7   8
ENDBRANCH   4   7
ENDBRANCH   2   3
ENDBRANCH   1   2
BRANCH   1  18
ATOM     18  C   UNL     1      93.450  97.184  74.214  1.00  0.00     0.001 C 
BRANCH  18  19
ATOM     19  C   UNL     1      93.660  95.896  75.059  1.00  0.00     0.000 C 
BRANCH  19  20
ATOM     20  C   UNL     1      92.907  95.974  76.417  1.00  0.00     0.000 C 
BRANCH  20  21
ATOM     21  C   UNL     1      91.575  95.175  76.454  1.00  0.00     0.003 C 
BRANCH  21  22
ATOM     22  C   UNL     1      91.476  94.129  77.612  1.00  0.00    -0.017 C 
ATOM     23  C   UNL     1      92.890  93.619  78.007  1.00  0.00     0.007 C 
ATOM     24  C   UNL     1      90.533  92.931  77.295  1.00  0.00     0.007 C 
ENDBRANCH  21  22
ENDBRANCH  20  21
ENDBRANCH  19  20
ENDBRANCH  18  19
ENDBRANCH   1  18
TORSDOF 11
ENDMDL
MODEL 5
REMARK VINA RESULT:    -5.469      8.989     12.955
REMARK INTER + INTRA:         -10.069
REMARK INTER:                  -9.396
REMARK INTRA:                  -0.673
REMARK UNBOUND:                -1.244
REMARK SMILES COc1cc(CNC(=O)CCCCCCC(C)C)ccc1O
REMARK SMILES IDX 11 1 10 2 8 3 7 4 9 6 6 7 5 8 3 9 21 10 4 11 20 12 19 13
REMARK SMILES IDX 2 14 1 15 22 16 12 18 13 19 14 20 15 21 16 22 17 23 18 24
REMARK H PARENT 7 5 22 17
REMARK Flexibility Score: inf
ROOT
ATOM      1  C   UNL     1      91.142  99.306  70.891  1.00  0.00     0.010 C 
ENDROOT
BRANCH   1   2
ATOM      2  C   UNL     1      91.225  98.418  69.619  1.00  0.00     0.100 C 
BRANCH   2   3
ATOM      3  C   UNL     1      89.997  98.461  68.795  1.00  0.00     0.220 C 
ATOM      4  N   UNL     1      90.076  98.679  67.450  1.00  0.00    -0.352 N 
ATOM      5  H   UNL     1      91.010  98.846  67.105  1.00  0.00     0.163 HD
ATOM      6  O   UNL     1      88.890  98.267  69.355  1.00  0.00    -0.275 OA
BRANCH   4   7
ATOM      7  C   UNL     1      88.965  98.683  66.547  1.00  0.00     0.151 C 
BRANCH   7   8
ATOM      8  C   UNL     1      88.267  99.996  66.482  1.00  0.00    -0.025 A 
ATOM      9  C   UNL     1      88.349 102.454  66.491  1.00  0.00     0.160 A 
ATOM     10  C   UNL     1      86.949 102.504  66.314  1.00  0.00     0.157 A 
ATOM     11  C   UNL     1      88.994 101.203  66.592  1.00  0.00     0.056 A 
ATOM     12  C   UNL     1      86.210 101.309  66.242  1.00  0.00     0.050 A 
ATOM     13  C   UNL     1      86.864 100.064  66.314  1.00  0.00     0.009 A 
BRANCH   9  14
ATOM     14  O   UNL     1      89.073 103.610  66.601  1.00  0.00    -0.493 OA
ATOM     15  C   UNL     1      90.402 103.517  66.058  1.00  0.00     0.278 C 
ENDBRANCH   9  14
BRANCH  10  16
ATOM     16  O   UNL     1      86.302 103.694  66.214  1.00  0.00    -0.504 OA
ATOM     17  H   UNL     1      85.972 103.805  65.319  1.00  0.00     0.293 HD
ENDBRANCH  10  16
ENDBRANCH   7   8
ENDBRANCH   4   7
ENDBRANCH   2   3
ENDBRANCH   1   2
BRANCH   1  18
ATOM     18  C   UNL     1      92.301 100.341  70.962  1.00  0.00     0.001 C 
BRANCH  18  19
ATOM     19  C   UNL     1      93.111 100.285  72.288  1.00  0.00     0.000 C 
BRANCH  19  20
ATOM     20  C   UNL     1      93.875  98.939  72.435  1.00  0.00     0.000 C 
BRANCH  20  21
ATOM     21  C   UNL     1      93.928  98.392  73.888  1.00  0.00     0.003 C 
BRANCH  21  22
ATOM     22  C   UNL     1      94.320  96.883  74.001  1.00  0.00    -0.017 C 
ATOM     23  C   UNL     1      93.343  96.137  74.952  1.00  0.00     0.007 C 
ATOM     24  C   UNL     1      95.795  96.651  74.444  1.00  0.00     0.007 C 
ENDBRANCH  21  22
ENDBRANCH  20  21
ENDBRANCH  19  20
ENDBRANCH  18  19
ENDBRANCH   1  18
TORSDOF 11
ENDMDL
MODEL 6
REMARK VINA RESULT:    -5.323     21.400     23.581
REMARK INTER + INTRA:          -9.834
REMARK INTER:                  -7.859
REMARK INTRA:                  -1.975
REMARK UNBOUND:                -1.244
REMARK SMILES COc1cc(CNC(=O)CCCCCCC(C)C)ccc1O
REMARK SMILES IDX 11 1 10 2 8 3 7 4 9 6 6 7 5 8 3 9 21 10 4 11 20 12 19 13
REMARK SMILES IDX 2 14 1 15 22 16 12 18 13 19 14 20 15 21 16 22 17 23 18 24
REMARK H PARENT 7 5 22 17
REMARK Flexibility Score: inf
ROOT
ATOM      1  C   UNL     1      77.077  85.640  68.695  1.00  0.00     0.010 C 
ENDROOT
BRANCH   1   2
ATOM      2  C   UNL     1      77.198  86.123  67.223  1.00  0.00     0.100 C 
BRANCH   2   3
ATOM      3  C   UNL     1      76.836  87.547  67.044  1.00  0.00     0.220 C 
ATOM      4  N   UNL     1      76.575  88.334  68.127  1.00  0.00    -0.352 N 
ATOM      5  H   UNL     1      76.609  87.854  69.014  1.00  0.00     0.163 HD
ATOM      6  O   UNL     1      76.799  88.016  65.880  1.00  0.00    -0.275 OA
BRANCH   4   7
ATOM      7  C   UNL     1      76.273  89.732  68.079  1.00  0.00     0.151 C 
BRANCH   7   8
ATOM      8  C   UNL     1      75.127  90.115  68.949  1.00  0.00    -0.025 A 
ATOM      9  C   UNL     1      73.968  91.787  70.331  1.00  0.00     0.160 A 
ATOM     10  C   UNL     1      72.923  90.867  70.571  1.00  0.00     0.157 A 
ATOM     11  C   UNL     1      75.068  91.398  69.539  1.00  0.00     0.056 A 
ATOM     12  C   UNL     1      72.989  89.574  70.022  1.00  0.00     0.050 A 
ATOM     13  C   UNL     1      74.077  89.203  69.207  1.00  0.00     0.009 A 
BRANCH   9  14
ATOM     14  O   UNL     1      73.933  93.034  70.893  1.00  0.00    -0.493 OA
ATOM     15  C   UNL     1      74.990  93.273  71.840  1.00  0.00     0.278 C 
ENDBRANCH   9  14
BRANCH  10  16
ATOM     16  O   UNL     1      71.852  91.213  71.332  1.00  0.00    -0.504 OA
ATOM     17  H   UNL     1      71.120  90.621  71.141  1.00  0.00     0.293 HD
ENDBRANCH  10  16
ENDBRANCH   7   8
ENDBRANCH   4   7
ENDBRANCH   2   3
ENDBRANCH   1   2
BRANCH   1  18
ATOM     18  C   UNL     1      75.852  84.705  68.907  1.00  0.00     0.001 C 
BRANCH  18  19
ATOM     19  C   UNL     1      74.620  85.419  69.530  1.00  0.00     0.000 C 
BRANCH  19  20
ATOM     20  C   UNL     1      73.580  85.818  68.445  1.00  0.00     0.000 C 
BRANCH  20  21
ATOM     21  C   UNL     1      73.717  85.031  67.112  1.00  0.00     0.003 C 
BRANCH  21  22
ATOM     22  C   UNL     1      73.427  85.874  65.827  1.00  0.00    -0.017 C 
ATOM     23  C   UNL     1      74.502  85.595  64.739  1.00  0.00     0.007 C 
ATOM     24  C   UNL     1      73.307  87.403  66.095  1.00  0.00     0.007 C 
ENDBRANCH  21  22
ENDBRANCH  20  21
ENDBRANCH  19  20
ENDBRANCH  18  19
ENDBRANCH   1  18
TORSDOF 11
ENDMDL
MODEL 7
REMARK VINA RESULT:    -5.233      3.479      7.370
REMARK INTER + INTRA:          -9.688
REMARK INTER:                  -8.994
REMARK INTRA:                  -0.694
REMARK UNBOUND:                -1.244
REMARK SMILES COc1cc(CNC(=O)CCCCCCC(C)C)ccc1O
REMARK SMILES IDX 11 1 10 2 8 3 7 4 9 6 6 7 5 8 3 9 21 10 4 11 20 12 19 13
REMARK SMILES IDX 2 14 1 15 22 16 12 18 13 19 14 20 15 21 16 22 17 23 18 24
REMARK H PARENT 7 5 22 17
REMARK Flexibility Score: inf
ROOT
ATOM      1  C   UNL     1      97.444  97.123  81.782  1.00  0.00     0.010 C 
ENDROOT
BRANCH   1   2
ATOM      2  C   UNL     1      96.319  96.052  81.803  1.00  0.00     0.100 C 
BRANCH   2   3
ATOM      3  C   UNL     1      96.230  95.271  80.549  1.00  0.00     0.220 C 
ATOM      4  N   UNL     1      95.366  94.220  80.451  1.00  0.00    -0.352 N 
ATOM      5  H   UNL     1      94.854  94.016  81.297  1.00  0.00     0.163 HD
ATOM      6  O   UNL     1      96.947  95.612  79.577  1.00  0.00    -0.275 OA
BRANCH   4   7
ATOM      7  C   UNL     1      95.153  93.432  79.275  1.00  0.00     0.151 C 
BRANCH   7   8
ATOM      8  C   UNL     1      93.917  93.805  78.535  1.00  0.00    -0.025 A 
ATOM      9  C   UNL     1      92.733  95.304  76.985  1.00  0.00     0.160 A 
ATOM     10  C   UNL     1      91.578  94.498  77.085  1.00  0.00     0.157 A 
ATOM     11  C   UNL     1      93.885  94.963  77.724  1.00  0.00     0.056 A 
ATOM     12  C   UNL     1      91.584  93.365  77.919  1.00  0.00     0.050 A 
ATOM     13  C   UNL     1      92.748  93.014  78.631  1.00  0.00     0.009 A 
BRANCH   9  14
ATOM     14  O   UNL     1      92.725  96.430  76.208  1.00  0.00    -0.493 OA
ATOM     15  C   UNL     1      93.806  96.488  75.260  1.00  0.00     0.278 C 
ENDBRANCH   9  14
BRANCH  10  16
ATOM     16  O   UNL     1      90.453  94.803  76.386  1.00  0.00    -0.504 OA
ATOM     17  H   UNL     1      90.047  95.589  76.762  1.00  0.00     0.293 HD
ENDBRANCH  10  16
ENDBRANCH   7   8
ENDBRANCH   4   7
ENDBRANCH   2   3
ENDBRANCH   1   2
BRANCH   1  18
ATOM     18  C   UNL     1      96.939  98.496  81.253  1.00  0.00     0.001 C 
BRANCH  18  19
ATOM     19  C   UNL     1      95.776  99.100  82.089  1.00  0.00     0.000 C 
BRANCH  19  20
ATOM     20  C   UNL     1      96.013 100.605  82.395  1.00  0.00     0.000 C 
BRANCH  20  21
ATOM     21  C   UNL     1      94.715 101.408  82.687  1.00  0.00     0.003 C 
BRANCH  21  22
ATOM     22  C   UNL     1      94.447 102.592  81.701  1.00  0.00    -0.017 C 
ATOM     23  C   UNL     1      92.948 103.001  81.737  1.00  0.00     0.007 C 
ATOM     24  C   UNL     1      94.898 102.302  80.239  1.00  0.00     0.007 C 
ENDBRANCH  21  22
ENDBRANCH  20  21
ENDBRANCH  19  20
ENDBRANCH  18  19
ENDBRANCH   1  18
TORSDOF 11
ENDMDL
MODEL 8
REMARK VINA RESULT:    -5.027     24.089     28.264
REMARK INTER + INTRA:          -9.356
REMARK INTER:                  -8.353
REMARK INTRA:                  -1.004
REMARK UNBOUND:                -1.244
REMARK SMILES COc1cc(CNC(=O)CCCCCCC(C)C)ccc1O
REMARK SMILES IDX 11 1 10 2 8 3 7 4 9 6 6 7 5 8 3 9 21 10 4 11 20 12 19 13
REMARK SMILES IDX 2 14 1 15 22 16 12 18 13 19 14 20 15 21 16 22 17 23 18 24
REMARK H PARENT 7 5 22 17
REMARK Flexibility Score: inf
ROOT
ATOM      1  C   UNL     1      73.348  86.347  67.992  1.00  0.00     0.010 C 
ENDROOT
BRANCH   1   2
ATOM      2  C   UNL     1      71.888  86.785  68.292  1.00  0.00     0.100 C 
BRANCH   2   3
ATOM      3  C   UNL     1      70.917  85.670  68.226  1.00  0.00     0.220 C 
ATOM      4  N   UNL     1      70.186  85.327  69.326  1.00  0.00    -0.352 N 
ATOM      5  H   UNL     1      70.401  85.857  70.157  1.00  0.00     0.163 HD
ATOM      6  O   UNL     1      70.765  85.068  67.135  1.00  0.00    -0.275 OA
BRANCH   4   7
ATOM      7  C   UNL     1      69.180  84.308  69.364  1.00  0.00     0.151 C 
BRANCH   7   8
ATOM      8  C   UNL     1      68.069  84.617  70.305  1.00  0.00    -0.025 A 
ATOM      9  C   UNL     1      65.768  84.231  71.083  1.00  0.00     0.160 A 
ATOM     10  C   UNL     1      65.959  85.168  72.122  1.00  0.00     0.157 A 
ATOM     11  C   UNL     1      66.816  83.977  70.173  1.00  0.00     0.056 A 
ATOM     12  C   UNL     1      67.189  85.840  72.241  1.00  0.00     0.050 A 
ATOM     13  C   UNL     1      68.241  85.560  71.346  1.00  0.00     0.009 A 
BRANCH   9  14
ATOM     14  O   UNL     1      64.562  83.600  70.935  1.00  0.00    -0.493 OA
ATOM     15  C   UNL     1      64.668  82.172  70.797  1.00  0.00     0.278 C 
ENDBRANCH   9  14
BRANCH  10  16
ATOM     16  O   UNL     1      64.967  85.433  73.012  1.00  0.00    -0.504 OA
ATOM     17  H   UNL     1      64.225  84.846  72.848  1.00  0.00     0.293 HD
ENDBRANCH  10  16
ENDBRANCH   7   8
ENDBRANCH   4   7
ENDBRANCH   2   3
ENDBRANCH   1   2
BRANCH   1  18
ATOM     18  C   UNL     1      74.244  86.381  69.262  1.00  0.00     0.001 C 
BRANCH  18  19
ATOM     19  C   UNL     1      74.800  84.988  69.674  1.00  0.00     0.000 C 
BRANCH  19  20
ATOM     20  C   UNL     1      76.041  84.594  68.825  1.00  0.00     0.000 C 
BRANCH  20  21
ATOM     21  C   UNL     1      77.112  85.714  68.704  1.00  0.00     0.003 C 
BRANCH  21  22
ATOM     22  C   UNL     1      77.396  86.187  67.241  1.00  0.00    -0.017 C 
ATOM     23  C   UNL     1      77.271  87.734  67.136  1.00  0.00     0.007 C 
ATOM     24  C   UNL     1      76.497  85.495  66.174  1.00  0.00     0.007 C 
ENDBRANCH  21  22
ENDBRANCH  20  21
ENDBRANCH  19  20
ENDBRANCH  18  19
ENDBRANCH   1  18
TORSDOF 11
ENDMDL
MODEL 9
REMARK VINA RESULT:    -4.934     13.337     15.400
REMARK INTER + INTRA:          -9.205
REMARK INTER:                  -7.418
REMARK INTRA:                  -1.787
REMARK UNBOUND:                -1.244
REMARK SMILES COc1cc(CNC(=O)CCCCCCC(C)C)ccc1O
REMARK SMILES IDX 11 1 10 2 8 3 7 4 9 6 6 7 5 8 3 9 21 10 4 11 20 12 19 13
REMARK SMILES IDX 2 14 1 15 22 16 12 18 13 19 14 20 15 21 16 22 17 23 18 24
REMARK H PARENT 7 5 22 17
REMARK Flexibility Score: inf
ROOT
ATOM      1  C   UNL     1     101.612  81.089  69.334  1.00  0.00     0.010 C 
ENDROOT
BRANCH   1   2
ATOM      2  C   UNL     1     100.218  81.020  70.016  1.00  0.00     0.100 C 
BRANCH   2   3
ATOM      3  C   UNL     1     100.290  80.722  71.464  1.00  0.00     0.220 C 
ATOM      4  N   UNL     1      99.168  80.788  72.238  1.00  0.00    -0.352 N 
ATOM      5  H   UNL     1      98.338  81.092  71.750  1.00  0.00     0.163 HD
ATOM      6  O   UNL     1     101.395  80.385  71.955  1.00  0.00    -0.275 OA
BRANCH   4   7
ATOM      7  C   UNL     1      99.105  80.467  73.631  1.00  0.00     0.151 C 
BRANCH   7   8
ATOM      8  C   UNL     1      98.164  81.334  74.391  1.00  0.00    -0.025 A 
ATOM      9  C   UNL     1      97.416  82.312  76.521  1.00  0.00     0.160 A 
ATOM     10  C   UNL     1      96.401  83.020  75.842  1.00  0.00     0.157 A 
ATOM     11  C   UNL     1      98.276  81.461  75.795  1.00  0.00     0.056 A 
ATOM     12  C   UNL     1      96.255  82.872  74.451  1.00  0.00     0.050 A 
ATOM     13  C   UNL     1      97.135  82.044  73.728  1.00  0.00     0.009 A 
BRANCH   9  14
ATOM     14  O   UNL     1      97.543  82.418  77.879  1.00  0.00    -0.493 OA
ATOM     15  C   UNL     1      97.324  81.180  78.580  1.00  0.00     0.278 C 
ENDBRANCH   9  14
BRANCH  10  16
ATOM     16  O   UNL     1      95.557  83.845  76.516  1.00  0.00    -0.504 OA
ATOM     17  H   UNL     1      94.920  84.219  75.903  1.00  0.00     0.293 HD
ENDBRANCH  10  16
ENDBRANCH   7   8
ENDBRANCH   4   7
ENDBRANCH   2   3
ENDBRANCH   1   2
BRANCH   1  18
ATOM     18  C   UNL     1     102.115  82.552  69.172  1.00  0.00     0.001 C 
BRANCH  18  19
ATOM     19  C   UNL     1     102.950  83.065  70.379  1.00  0.00     0.000 C 
BRANCH  19  20
ATOM     20  C   UNL     1     102.678  84.569  70.665  1.00  0.00     0.000 C 
BRANCH  20  21
ATOM     21  C   UNL     1     102.155  84.860  72.099  1.00  0.00     0.003 C 
BRANCH  21  22
ATOM     22  C   UNL     1     100.989  83.928  72.567  1.00  0.00    -0.017 C 
ATOM     23  C   UNL     1      99.614  84.542  72.183  1.00  0.00     0.007 C 
ATOM     24  C   UNL     1     101.030  83.591  74.087  1.00  0.00     0.007 C 
ENDBRANCH  21  22
ENDBRANCH  20  21
ENDBRANCH  19  20
ENDBRANCH  18  19
ENDBRANCH   1  18
TORSDOF 11
ENDMDL
MODEL 10
REMARK VINA RESULT:    -4.931     13.174     16.121
REMARK INTER + INTRA:          -9.201
REMARK INTER:                  -8.106
REMARK INTRA:                  -1.095
REMARK UNBOUND:                -1.244
REMARK SMILES COc1cc(CNC(=O)CCCCCCC(C)C)ccc1O
REMARK SMILES IDX 11 1 10 2 8 3 7 4 9 6 6 7 5 8 3 9 21 10 4 11 20 12 19 13
REMARK SMILES IDX 2 14 1 15 22 16 12 18 13 19 14 20 15 21 16 22 17 23 18 24
REMARK H PARENT 7 5 22 17
REMARK Flexibility Score: inf
ROOT
ATOM      1  C   UNL     1     100.153  78.940  81.719  1.00  0.00     0.010 C 
ENDROOT
BRANCH   1   2
ATOM      2  C   UNL     1     100.094  79.700  80.365  1.00  0.00     0.100 C 
BRANCH   2   3
ATOM      3  C   UNL     1      98.716  80.037  79.943  1.00  0.00     0.220 C 
ATOM      4  N   UNL     1      98.320  81.340  79.860  1.00  0.00    -0.352 N 
ATOM      5  H   UNL     1      99.017  82.011  80.148  1.00  0.00     0.163 HD
ATOM      6  O   UNL     1      97.934  79.103  79.641  1.00  0.00    -0.275 OA
BRANCH   4   7
ATOM      7  C   UNL     1      97.036  81.786  79.410  1.00  0.00     0.151 C 
BRANCH   7   8
ATOM      8  C   UNL     1      97.018  82.165  77.971  1.00  0.00    -0.025 A 
ATOM      9  C   UNL     1      98.109  82.211  75.767  1.00  0.00     0.160 A 
ATOM     10  C   UNL     1      96.975  82.845  75.216  1.00  0.00     0.157 A 
ATOM     11  C   UNL     1      98.130  81.893  77.141  1.00  0.00     0.056 A 
ATOM     12  C   UNL     1      95.878  83.156  76.040  1.00  0.00     0.050 A 
ATOM     13  C   UNL     1      95.893  82.810  77.405  1.00  0.00     0.009 A 
BRANCH   9  14
ATOM     14  O   UNL     1      99.198  81.939  74.983  1.00  0.00    -0.493 OA
ATOM     15  C   UNL     1      99.982  80.824  75.446  1.00  0.00     0.278 C 
ENDBRANCH   9  14
BRANCH  10  16
ATOM     16  O   UNL     1      96.927  83.164  73.896  1.00  0.00    -0.504 OA
ATOM     17  H   UNL     1      97.593  83.829  73.704  1.00  0.00     0.293 HD
ENDBRANCH  10  16
ENDBRANCH   7   8
ENDBRANCH   4   7
ENDBRANCH   2   3
ENDBRANCH   1   2
BRANCH   1  18
ATOM     18  C   UNL     1      99.354  79.669  82.837  1.00  0.00     0.001 C 
BRANCH  18  19
ATOM     19  C   UNL     1      98.523  78.713  83.738  1.00  0.00     0.000 C 
BRANCH  19  20
ATOM     20  C   UNL     1      97.256  78.191  83.003  1.00  0.00     0.000 C 
BRANCH  20  21
ATOM     21  C   UNL     1      96.244  79.303  82.609  1.00  0.00     0.003 C 
BRANCH  21  22
ATOM     22  C   UNL     1      96.023  80.398  83.703  1.00  0.00    -0.017 C 
ATOM     23  C   UNL     1      94.683  80.156  84.453  1.00  0.00     0.007 C 
ATOM     24  C   UNL     1      96.084  81.854  83.152  1.00  0.00     0.007 C 
ENDBRANCH  21  22
ENDBRANCH  20  21
ENDBRANCH  19  20
ENDBRANCH  18  19
ENDBRANCH   1  18
TORSDOF 11
ENDMDL
