MODEL 1
REMARK VINA RESULT:    -7.058      0.000      0.000
REMARK INTER + INTRA:         -13.470
REMARK INTER:                 -12.423
REMARK INTRA:                  -1.048
REMARK UNBOUND:                -1.048
REMARK SMILES C=C(C)[C@]12C[C@@H](C)[C@@]34O[C@](Cc5ccccc5)(O[C@@H]1[C@@H]3C=C(COC(=O)Cc1ccc(O)c(OC)c1)C[C@]1(O)C(=O)C(C)=C[C@@H]41)O2
REMARK SMILES IDX 23 1 22 2 21 3 20 4 9 5 8 6 10 7 6 8 18 9 46 10 19 11 5 12
REMARK SMILES IDX 7 13 4 14 45 15 38 16 44 17 40 18 42 20 41 21 43 22 39 23
REMARK SMILES IDX 11 25 12 26 13 27 17 28 14 29 16 30 15 31 2 32 3 33 1 34
REMARK SMILES IDX 37 35 24 37 25 38 26 39 27 40 28 41 36 42 29 43 33 44 30 45
REMARK SMILES IDX 31 46 34 47 35 48 32 49
REMARK H PARENT 39 24 32 50
REMARK Flexibility Score: 90.00
ROOT
ATOM      1  C   UNL     1      96.408  82.296  83.949  1.00  0.00     0.264 C 
ENDROOT
BRANCH   1   2
ATOM      2  C   UNL     1      95.202  82.556  84.821  1.00  0.00    -0.033 C 
ATOM      3  C   UNL     1      94.133  81.740  84.728  1.00  0.00    -0.015 C 
BRANCH   3   4
ATOM      4  C   UNL     1      92.786  81.830  85.428  1.00  0.00     0.078 C 
ATOM      5  O   UNL     1      92.949  80.463  87.483  1.00  0.00    -0.319 OA
ATOM      6  C   UNL     1      92.759  81.829  87.002  1.00  0.00     0.095 C 
ATOM      7  C   UNL     1      92.219  79.450  86.766  1.00  0.00     0.289 C 
ATOM      8  C   UNL     1      91.333  82.351  87.457  1.00  0.00     0.023 C 
ATOM      9  O   UNL     1      92.547  79.460  85.379  1.00  0.00    -0.320 OA
ATOM     10  O   UNL     1      90.810  79.650  86.830  1.00  0.00    -0.313 OA
ATOM     11  C   UNL     1      91.877  80.663  84.971  1.00  0.00     0.170 C 
ATOM     12  C   UNL     1      90.221  81.924  86.450  1.00  0.00     0.049 C 
ATOM     13  C   UNL     1      90.911  81.959  88.882  1.00  0.00     0.011 C 
ATOM     14  C   UNL     1      90.552  80.595  85.770  1.00  0.00     0.122 C 
BRANCH   6  15
ATOM     15  C   UNL     1      93.973  82.616  87.575  1.00  0.00     0.086 C 
ATOM     16  C   UNL     1      94.314  83.947  86.873  1.00  0.00     0.140 CG0
ATOM     17  C   UNL     1      93.995  82.975  89.034  1.00  0.00    -0.010 C 
ATOM     18  C   UNL     1      94.813  84.802  88.019  1.00  0.00     0.190 C 
ATOM     19  G   UNL     1      95.363  83.768  85.776  1.00  0.00     0.000 G0
ATOM     20  C   UNL     1      94.487  84.186  89.319  1.00  0.00    -0.008 C 
ATOM     21  O   UNL     1      95.367  85.884  87.905  1.00  0.00    -0.291 OA
ATOM     22  C   UNL     1      94.733  84.830  90.625  1.00  0.00     0.048 C 
BRANCH  16  23
ATOM     23  O   UNL     1      93.180  84.650  86.394  1.00  0.00    -0.381 OA
ATOM     24  H   UNL     1      92.580  84.014  85.970  1.00  0.00     0.212 HD
ENDBRANCH  16  23
ENDBRANCH   6  15
BRANCH   7  25
ATOM     25  C   UNL     1      92.566  78.101  87.364  1.00  0.00     0.135 C 
BRANCH  25  26
ATOM     26  C   UNL     1      93.742  77.460  86.669  1.00  0.00    -0.040 A 
ATOM     27  C   UNL     1      95.041  77.858  86.988  1.00  0.00     0.004 A 
ATOM     28  C   UNL     1      93.532  76.470  85.711  1.00  0.00     0.004 A 
ATOM     29  C   UNL     1      96.129  77.266  86.346  1.00  0.00     0.000 A 
ATOM     30  C   UNL     1      94.620  75.877  85.069  1.00  0.00     0.000 A 
ATOM     31  C   UNL     1      95.918  76.276  85.387  1.00  0.00     0.000 A 
ENDBRANCH  25  26
ENDBRANCH   7  25
BRANCH  14  32
ATOM     32  C   UNL     1      89.422  80.076  84.942  1.00  0.00    -0.046 C 
ATOM     33  C   UNL     1      89.480  78.622  84.579  1.00  0.00     0.042 C 
ATOM     34  C   UNL     1      88.413  80.866  84.545  1.00  0.00     0.010 C 
ENDBRANCH  14  32
ENDBRANCH   3   4
BRANCH   2  35
ATOM     35  C   UNL     1      95.373  83.758  85.730  1.00  0.00     0.078 CG0
ATOM     36  G   UNL     1      94.340  83.949  86.839  1.00  0.00     0.000 G0
ENDBRANCH   2  35
ENDBRANCH   1   2
BRANCH   1  37
ATOM     37  O   UNL     1      96.187  81.133  83.180  1.00  0.00    -0.461 OA
BRANCH  37  38
ATOM     38  C   UNL     1      97.192  80.778  82.311  1.00  0.00     0.310 C 
ATOM     39  O   UNL     1      97.449  79.633  81.965  1.00  0.00    -0.252 OA
BRANCH  38  40
ATOM     40  C   UNL     1      97.924  82.017  81.853  1.00  0.00     0.158 C 
BRANCH  40  41
ATOM     41  C   UNL     1      97.745  82.296  80.383  1.00  0.00    -0.033 A 
ATOM     42  C   UNL     1      98.862  82.428  79.557  1.00  0.00     0.054 A 
ATOM     43  C   UNL     1      96.463  82.423  79.848  1.00  0.00     0.008 A 
ATOM     44  C   UNL     1      98.696  82.686  78.196  1.00  0.00     0.160 A 
ATOM     45  C   UNL     1      96.297  82.681  78.487  1.00  0.00     0.050 A 
ATOM     46  C   UNL     1      97.413  82.813  77.661  1.00  0.00     0.157 A 
BRANCH  44  47
ATOM     47  O   UNL     1      99.794  82.813  77.400  1.00  0.00    -0.493 OA
ATOM     48  C   UNL     1     100.720  81.728  77.396  1.00  0.00     0.278 C 
ENDBRANCH  44  47
BRANCH  46  49
ATOM     49  O   UNL     1      97.239  83.064  76.334  1.00  0.00    -0.504 OA
ATOM     50  H   UNL     1      96.476  82.555  76.013  1.00  0.00     0.293 HD
ENDBRANCH  46  49
ENDBRANCH  40  41
ENDBRANCH  38  40
ENDBRANCH  37  38
ENDBRANCH   1  37
TORSDOF 11
ENDMDL
MODEL 2
REMARK VINA RESULT:    -6.923     31.460     36.234
REMARK INTER + INTRA:         -13.232
REMARK INTER:                 -12.413
REMARK INTRA:                  -0.819
REMARK UNBOUND:                -1.048
REMARK SMILES C=C(C)[C@]12C[C@@H](C)[C@@]34O[C@](Cc5ccccc5)(O[C@@H]1[C@@H]3C=C(COC(=O)Cc1ccc(O)c(OC)c1)C[C@]1(O)C(=O)C(C)=C[C@@H]41)O2
REMARK SMILES IDX 23 1 22 2 21 3 20 4 9 5 8 6 10 7 6 8 18 9 46 10 19 11 5 12
REMARK SMILES IDX 7 13 4 14 45 15 38 16 44 17 40 18 42 20 41 21 43 22 39 23
REMARK SMILES IDX 11 25 12 26 13 27 17 28 14 29 16 30 15 31 2 32 3 33 1 34
REMARK SMILES IDX 37 35 24 37 25 38 26 39 27 40 28 41 36 42 29 43 33 44 30 45
REMARK SMILES IDX 31 46 34 47 35 48 32 49
REMARK H PARENT 39 24 32 50
REMARK Flexibility Score: 90.00
ROOT
ATOM      1  C   UNL     1      59.022  88.286  73.517  1.00  0.00     0.264 C 
ENDROOT
BRANCH   1   2
ATOM      2  C   UNL     1      60.506  88.003  73.519  1.00  0.00    -0.033 C 
ATOM      3  C   UNL     1      61.088  87.543  74.645  1.00  0.00    -0.015 C 
BRANCH   3   4
ATOM      4  C   UNL     1      62.554  87.258  74.926  1.00  0.00     0.078 C 
ATOM      5  O   UNL     1      62.938  84.872  74.400  1.00  0.00    -0.319 OA
ATOM      6  C   UNL     1      63.307  86.228  74.004  1.00  0.00     0.095 C 
ATOM      7  C   UNL     1      62.886  84.637  75.820  1.00  0.00     0.289 C 
ATOM      8  C   UNL     1      64.863  86.434  74.225  1.00  0.00     0.023 C 
ATOM      9  O   UNL     1      61.975  85.528  76.458  1.00  0.00    -0.320 OA
ATOM     10  O   UNL     1      64.144  84.856  76.451  1.00  0.00    -0.313 OA
ATOM     11  C   UNL     1      62.722  86.751  76.380  1.00  0.00     0.170 C 
ATOM     12  C   UNL     1      65.179  86.859  75.692  1.00  0.00     0.049 C 
ATOM     13  C   UNL     1      65.748  85.238  73.838  1.00  0.00     0.011 C 
ATOM     14  C   UNL     1      64.167  86.280  76.681  1.00  0.00     0.122 C 
BRANCH   6  15
ATOM     15  C   UNL     1      62.820  86.349  72.530  1.00  0.00     0.086 C 
ATOM     16  C   UNL     1      62.642  87.782  71.988  1.00  0.00     0.140 CG0
ATOM     17  C   UNL     1      63.591  85.657  71.441  1.00  0.00    -0.010 C 
ATOM     18  C   UNL     1      63.033  87.632  70.533  1.00  0.00     0.190 C 
ATOM     19  G   UNL     1      61.211  88.291  72.161  1.00  0.00     0.000 G0
ATOM     20  C   UNL     1      63.704  86.340  70.297  1.00  0.00    -0.008 C 
ATOM     21  O   UNL     1      62.870  88.476  69.665  1.00  0.00    -0.291 OA
ATOM     22  C   UNL     1      64.310  85.944  69.009  1.00  0.00     0.048 C 
BRANCH  16  23
ATOM     23  O   UNL     1      63.586  88.710  72.498  1.00  0.00    -0.381 OA
ATOM     24  H   UNL     1      64.462  88.291  72.491  1.00  0.00     0.212 HD
ENDBRANCH  16  23
ENDBRANCH   6  15
BRANCH   7  25
ATOM     25  C   UNL     1      62.447  83.205  76.049  1.00  0.00     0.135 C 
BRANCH  25  26
ATOM     26  C   UNL     1      63.119  82.248  75.096  1.00  0.00    -0.040 A 
ATOM     27  C   UNL     1      64.429  81.830  75.336  1.00  0.00     0.004 A 
ATOM     28  C   UNL     1      62.432  81.780  73.977  1.00  0.00     0.004 A 
ATOM     29  C   UNL     1      65.051  80.945  74.455  1.00  0.00     0.000 A 
ATOM     30  C   UNL     1      63.054  80.895  73.096  1.00  0.00     0.000 A 
ATOM     31  C   UNL     1      64.364  80.478  73.335  1.00  0.00     0.000 A 
ENDBRANCH  25  26
ENDBRANCH   7  25
BRANCH  14  32
ATOM     32  C   UNL     1      64.551  86.521  78.104  1.00  0.00    -0.046 C 
ATOM     33  C   UNL     1      65.854  85.925  78.549  1.00  0.00     0.042 C 
ATOM     34  C   UNL     1      63.776  87.230  78.938  1.00  0.00     0.010 C 
ENDBRANCH  14  32
ENDBRANCH   3   4
BRANCH   2  35
ATOM     35  C   UNL     1      61.167  88.283  72.183  1.00  0.00     0.078 CG0
ATOM     36  G   UNL     1      62.601  87.788  71.995  1.00  0.00     0.000 G0
ENDBRANCH   2  35
ENDBRANCH   1   2
BRANCH   1  37
ATOM     37  O   UNL     1      58.614  88.630  72.210  1.00  0.00    -0.461 OA
BRANCH  37  38
ATOM     38  C   UNL     1      57.942  87.658  71.507  1.00  0.00     0.310 C 
ATOM     39  O   UNL     1      57.300  86.745  72.008  1.00  0.00    -0.252 OA
BRANCH  38  40
ATOM     40  C   UNL     1      58.122  87.892  70.025  1.00  0.00     0.158 C 
BRANCH  40  41
ATOM     41  C   UNL     1      57.148  88.898  69.467  1.00  0.00    -0.033 A 
ATOM     42  C   UNL     1      56.732  88.803  68.138  1.00  0.00     0.054 A 
ATOM     43  C   UNL     1      56.663  89.924  70.278  1.00  0.00     0.008 A 
ATOM     44  C   UNL     1      55.831  89.734  67.622  1.00  0.00     0.160 A 
ATOM     45  C   UNL     1      55.762  90.855  69.761  1.00  0.00     0.050 A 
ATOM     46  C   UNL     1      55.346  90.761  68.434  1.00  0.00     0.157 A 
BRANCH  44  47
ATOM     47  O   UNL     1      55.432  89.631  66.323  1.00  0.00    -0.493 OA
ATOM     48  C   UNL     1      54.465  88.626  66.020  1.00  0.00     0.278 C 
ENDBRANCH  44  47
BRANCH  46  49
ATOM     49  O   UNL     1      54.465  91.675  67.940  1.00  0.00    -0.504 OA
ATOM     50  H   UNL     1      54.006  91.291  67.174  1.00  0.00     0.293 HD
ENDBRANCH  46  49
ENDBRANCH  40  41
ENDBRANCH  38  40
ENDBRANCH  37  38
ENDBRANCH   1  37
TORSDOF 11
ENDMDL
MODEL 3
REMARK VINA RESULT:    -6.873     13.903     18.243
REMARK INTER + INTRA:         -13.144
REMARK INTER:                 -11.547
REMARK INTRA:                  -1.597
REMARK UNBOUND:                -1.048
REMARK SMILES C=C(C)[C@]12C[C@@H](C)[C@@]34O[C@](Cc5ccccc5)(O[C@@H]1[C@@H]3C=C(COC(=O)Cc1ccc(O)c(OC)c1)C[C@]1(O)C(=O)C(C)=C[C@@H]41)O2
REMARK SMILES IDX 23 1 22 2 21 3 20 4 9 5 8 6 10 7 6 8 18 9 46 10 19 11 5 12
REMARK SMILES IDX 7 13 4 14 45 15 38 16 44 17 40 18 42 20 41 21 43 22 39 23
REMARK SMILES IDX 11 25 12 26 13 27 17 28 14 29 16 30 15 31 2 32 3 33 1 34
REMARK SMILES IDX 37 35 24 37 25 38 26 39 27 40 28 41 36 42 29 43 33 44 30 45
REMARK SMILES IDX 31 46 34 47 35 48 32 49
REMARK H PARENT 39 24 32 50
REMARK Flexibility Score: 90.00
ROOT
ATOM      1  C   UNL     1      77.969  92.616  90.332  1.00  0.00     0.264 C 
ENDROOT
BRANCH   1   2
ATOM      2  C   UNL     1      78.295  91.208  89.892  1.00  0.00    -0.033 C 
ATOM      3  C   UNL     1      79.068  91.019  88.803  1.00  0.00    -0.015 C 
BRANCH   3   4
ATOM      4  C   UNL     1      79.472  89.723  88.120  1.00  0.00     0.078 C 
ATOM      5  O   UNL     1      81.646  89.047  89.086  1.00  0.00    -0.319 OA
ATOM      6  C   UNL     1      80.247  88.643  88.962  1.00  0.00     0.095 C 
ATOM      7  C   UNL     1      82.246  89.567  87.884  1.00  0.00     0.289 C 
ATOM      8  C   UNL     1      80.167  87.271  88.173  1.00  0.00     0.023 C 
ATOM      9  O   UNL     1      81.523  90.691  87.390  1.00  0.00    -0.320 OA
ATOM     10  O   UNL     1      82.249  88.614  86.825  1.00  0.00    -0.313 OA
ATOM     11  C   UNL     1      80.351  90.033  86.883  1.00  0.00     0.170 C 
ATOM     12  C   UNL     1      80.157  87.499  86.630  1.00  0.00     0.049 C 
ATOM     13  C   UNL     1      81.249  86.239  88.530  1.00  0.00     0.011 C 
ATOM     14  C   UNL     1      80.939  88.753  86.238  1.00  0.00     0.122 C 
BRANCH   6  15
ATOM     15  C   UNL     1      79.723  88.604  90.426  1.00  0.00     0.086 C 
ATOM     16  C   UNL     1      78.192  88.684  90.603  1.00  0.00     0.140 CG0
ATOM     17  C   UNL     1      80.119  87.462  91.320  1.00  0.00    -0.010 C 
ATOM     18  C   UNL     1      77.958  87.810  91.817  1.00  0.00     0.190 C 
ATOM     19  G   UNL     1      77.710  90.119  90.813  1.00  0.00     0.000 G0
ATOM     20  C   UNL     1      79.157  87.012  92.133  1.00  0.00    -0.008 C 
ATOM     21  O   UNL     1      76.908  87.724  92.436  1.00  0.00    -0.291 OA
ATOM     22  C   UNL     1      79.209  85.976  93.186  1.00  0.00     0.048 C 
BRANCH  16  23
ATOM     23  O   UNL     1      77.461  88.038  89.574  1.00  0.00    -0.381 OA
ATOM     24  H   UNL     1      78.004  88.032  88.769  1.00  0.00     0.212 HD
ENDBRANCH  16  23
ENDBRANCH   6  15
BRANCH   7  25
ATOM     25  C   UNL     1      83.671  89.975  88.202  1.00  0.00     0.135 C 
BRANCH  25  26
ATOM     26  C   UNL     1      84.415  90.434  86.973  1.00  0.00    -0.040 A 
ATOM     27  C   UNL     1      85.186  89.527  86.246  1.00  0.00     0.004 A 
ATOM     28  C   UNL     1      84.332  91.764  86.563  1.00  0.00     0.004 A 
ATOM     29  C   UNL     1      85.875  89.951  85.109  1.00  0.00     0.000 A 
ATOM     30  C   UNL     1      85.020  92.188  85.426  1.00  0.00     0.000 A 
ATOM     31  C   UNL     1      85.791  91.281  84.700  1.00  0.00     0.000 A 
ENDBRANCH  25  26
ENDBRANCH   7  25
BRANCH  14  32
ATOM     32  C   UNL     1      81.098  88.892  84.759  1.00  0.00    -0.046 C 
ATOM     33  C   UNL     1      81.568  87.671  84.026  1.00  0.00     0.042 C 
ATOM     34  C   UNL     1      80.835  90.043  84.123  1.00  0.00     0.010 C 
ENDBRANCH  14  32
ENDBRANCH   3   4
BRANCH   2  35
ATOM     35  C   UNL     1      77.683  90.148  90.788  1.00  0.00     0.078 CG0
ATOM     36  G   UNL     1      78.192  88.716  90.626  1.00  0.00     0.000 G0
ENDBRANCH   2  35
ENDBRANCH   1   2
BRANCH   1  37
ATOM     37  O   UNL     1      77.759  92.633  91.728  1.00  0.00    -0.461 OA
BRANCH  37  38
ATOM     38  C   UNL     1      78.537  93.508  92.449  1.00  0.00     0.310 C 
ATOM     39  O   UNL     1      78.541  93.603  93.669  1.00  0.00    -0.252 OA
BRANCH  38  40
ATOM     40  C   UNL     1      79.380  94.331  91.504  1.00  0.00     0.158 C 
BRANCH  40  41
ATOM     41  C   UNL     1      80.787  93.809  91.365  1.00  0.00    -0.033 A 
ATOM     42  C   UNL     1      81.463  93.941  90.152  1.00  0.00     0.054 A 
ATOM     43  C   UNL     1      81.413  93.193  92.449  1.00  0.00     0.008 A 
ATOM     44  C   UNL     1      82.765  93.457  90.023  1.00  0.00     0.160 A 
ATOM     45  C   UNL     1      82.715  92.710  92.320  1.00  0.00     0.050 A 
ATOM     46  C   UNL     1      83.391  92.841  91.108  1.00  0.00     0.157 A 
BRANCH  44  47
ATOM     47  O   UNL     1      83.415  93.592  88.834  1.00  0.00    -0.493 OA
ATOM     48  C   UNL     1      83.368  94.875  88.211  1.00  0.00     0.278 C 
ENDBRANCH  44  47
BRANCH  46  49
ATOM     49  O   UNL     1      84.663  92.367  90.994  1.00  0.00    -0.504 OA
ATOM     50  H   UNL     1      84.727  91.518  91.464  1.00  0.00     0.293 HD
ENDBRANCH  46  49
ENDBRANCH  40  41
ENDBRANCH  38  40
ENDBRANCH  37  38
ENDBRANCH   1  37
TORSDOF 11
ENDMDL
MODEL 4
REMARK VINA RESULT:    -6.665     14.914     19.887
REMARK INTER + INTRA:         -12.778
REMARK INTER:                 -11.393
REMARK INTRA:                  -1.385
REMARK UNBOUND:                -1.048
REMARK SMILES C=C(C)[C@]12C[C@@H](C)[C@@]34O[C@](Cc5ccccc5)(O[C@@H]1[C@@H]3C=C(COC(=O)Cc1ccc(O)c(OC)c1)C[C@]1(O)C(=O)C(C)=C[C@@H]41)O2
REMARK SMILES IDX 23 1 22 2 21 3 20 4 9 5 8 6 10 7 6 8 18 9 46 10 19 11 5 12
REMARK SMILES IDX 7 13 4 14 45 15 38 16 44 17 40 18 42 20 41 21 43 22 39 23
REMARK SMILES IDX 11 25 12 26 13 27 17 28 14 29 16 30 15 31 2 32 3 33 1 34
REMARK SMILES IDX 37 35 24 37 25 38 26 39 27 40 28 41 36 42 29 43 33 44 30 45
REMARK SMILES IDX 31 46 34 47 35 48 32 49
REMARK H PARENT 39 24 32 50
REMARK Flexibility Score: 90.00
ROOT
ATOM      1  C   UNL     1      77.931  92.485  90.336  1.00  0.00     0.264 C 
ENDROOT
BRANCH   1   2
ATOM      2  C   UNL     1      78.283  91.084  89.892  1.00  0.00    -0.033 C 
ATOM      3  C   UNL     1      79.050  90.912  88.797  1.00  0.00    -0.015 C 
BRANCH   3   4
ATOM      4  C   UNL     1      79.474  89.625  88.108  1.00  0.00     0.078 C 
ATOM      5  O   UNL     1      81.662  88.983  89.068  1.00  0.00    -0.319 OA
ATOM      6  C   UNL     1      80.270  88.556  88.946  1.00  0.00     0.095 C 
ATOM      7  C   UNL     1      82.251  89.517  87.867  1.00  0.00     0.289 C 
ATOM      8  C   UNL     1      80.212  87.185  88.153  1.00  0.00     0.023 C 
ATOM      9  O   UNL     1      81.507  90.630  87.377  1.00  0.00    -0.320 OA
ATOM     10  O   UNL     1      82.268  88.568  86.805  1.00  0.00    -0.313 OA
ATOM     11  C   UNL     1      80.346  89.953  86.871  1.00  0.00     0.170 C 
ATOM     12  C   UNL     1      80.195  87.417  86.611  1.00  0.00     0.049 C 
ATOM     13  C   UNL     1      81.312  86.171  88.505  1.00  0.00     0.011 C 
ATOM     14  C   UNL     1      80.955  88.686  86.221  1.00  0.00     0.122 C 
BRANCH   6  15
ATOM     15  C   UNL     1      79.750  88.504  90.411  1.00  0.00     0.086 C 
ATOM     16  C   UNL     1      78.218  88.547  90.590  1.00  0.00     0.140 CG0
ATOM     17  C   UNL     1      80.174  87.371  91.304  1.00  0.00    -0.010 C 
ATOM     18  C   UNL     1      78.007  87.667  91.804  1.00  0.00     0.190 C 
ATOM     19  G   UNL     1      77.702  89.969  90.802  1.00  0.00     0.000 G0
ATOM     20  C   UNL     1      79.225  86.897  92.118  1.00  0.00    -0.008 C 
ATOM     21  O   UNL     1      76.960  87.556  92.425  1.00  0.00    -0.291 OA
ATOM     22  C   UNL     1      79.304  85.863  93.170  1.00  0.00     0.048 C 
BRANCH  16  23
ATOM     23  O   UNL     1      77.501  87.883  89.563  1.00  0.00    -0.381 OA
ATOM     24  H   UNL     1      77.551  86.926  89.722  1.00  0.00     0.212 HD
ENDBRANCH  16  23
ENDBRANCH   6  15
BRANCH   7  25
ATOM     25  C   UNL     1      83.669  89.949  88.184  1.00  0.00     0.135 C 
BRANCH  25  26
ATOM     26  C   UNL     1      84.383  90.481  86.966  1.00  0.00    -0.040 A 
ATOM     27  C   UNL     1      85.213  89.642  86.222  1.00  0.00     0.004 A 
ATOM     28  C   UNL     1      84.212  91.811  86.583  1.00  0.00     0.004 A 
ATOM     29  C   UNL     1      85.873  90.134  85.096  1.00  0.00     0.000 A 
ATOM     30  C   UNL     1      84.872  92.303  85.457  1.00  0.00     0.000 A 
ATOM     31  C   UNL     1      85.703  91.464  84.714  1.00  0.00     0.000 A 
ENDBRANCH  25  26
ENDBRANCH   7  25
BRANCH  14  32
ATOM     32  C   UNL     1      81.108  88.832  84.742  1.00  0.00    -0.046 C 
ATOM     33  C   UNL     1      80.803  87.615  83.921  1.00  0.00     0.042 C 
ATOM     34  C   UNL     1      81.497  89.986  84.180  1.00  0.00     0.010 C 
ENDBRANCH  14  32
ENDBRANCH   3   4
BRANCH   2  35
ATOM     35  C   UNL     1      77.700  90.011  90.792  1.00  0.00     0.078 CG0
ATOM     36  G   UNL     1      78.216  88.585  90.604  1.00  0.00     0.000 G0
ENDBRANCH   2  35
ENDBRANCH   1   2
BRANCH   1  37
ATOM     37  O   UNL     1      77.578  92.467  91.702  1.00  0.00    -0.461 OA
BRANCH  37  38
ATOM     38  C   UNL     1      76.763  93.487  92.133  1.00  0.00     0.310 C 
ATOM     39  O   UNL     1      77.078  94.669  92.175  1.00  0.00    -0.252 OA
BRANCH  38  40
ATOM     40  C   UNL     1      75.423  92.923  92.546  1.00  0.00     0.158 C 
BRANCH  40  41
ATOM     41  C   UNL     1      74.620  92.404  91.381  1.00  0.00    -0.033 A 
ATOM     42  C   UNL     1      74.289  91.050  91.311  1.00  0.00     0.054 A 
ATOM     43  C   UNL     1      74.208  93.276  90.374  1.00  0.00     0.008 A 
ATOM     44  C   UNL     1      73.545  90.570  90.233  1.00  0.00     0.160 A 
ATOM     45  C   UNL     1      73.464  92.795  89.296  1.00  0.00     0.050 A 
ATOM     46  C   UNL     1      73.133  91.443  89.225  1.00  0.00     0.157 A 
BRANCH  44  47
ATOM     47  O   UNL     1      73.228  89.246  90.175  1.00  0.00    -0.493 OA
ATOM     48  C   UNL     1      73.614  88.438  91.286  1.00  0.00     0.278 C 
ENDBRANCH  44  47
BRANCH  46  49
ATOM     49  O   UNL     1      72.406  90.985  88.169  1.00  0.00    -0.504 OA
ATOM     50  H   UNL     1      71.460  91.067  88.376  1.00  0.00     0.293 HD
ENDBRANCH  46  49
ENDBRANCH  40  41
ENDBRANCH  38  40
ENDBRANCH  37  38
ENDBRANCH   1  37
TORSDOF 11
ENDMDL
MODEL 5
REMARK VINA RESULT:    -6.484      1.500      2.152
REMARK INTER + INTRA:         -12.460
REMARK INTER:                 -11.345
REMARK INTRA:                  -1.115
REMARK UNBOUND:                -1.048
REMARK SMILES C=C(C)[C@]12C[C@@H](C)[C@@]34O[C@](Cc5ccccc5)(O[C@@H]1[C@@H]3C=C(COC(=O)Cc1ccc(O)c(OC)c1)C[C@]1(O)C(=O)C(C)=C[C@@H]41)O2
REMARK SMILES IDX 23 1 22 2 21 3 20 4 9 5 8 6 10 7 6 8 18 9 46 10 19 11 5 12
REMARK SMILES IDX 7 13 4 14 45 15 38 16 44 17 40 18 42 20 41 21 43 22 39 23
REMARK SMILES IDX 11 25 12 26 13 27 17 28 14 29 16 30 15 31 2 32 3 33 1 34
REMARK SMILES IDX 37 35 24 37 25 38 26 39 27 40 28 41 36 42 29 43 33 44 30 45
REMARK SMILES IDX 31 46 34 47 35 48 32 49
REMARK H PARENT 39 24 32 50
REMARK Flexibility Score: 90.00
ROOT
ATOM      1  C   UNL     1      96.039  82.606  84.424  1.00  0.00     0.264 C 
ENDROOT
BRANCH   1   2
ATOM      2  C   UNL     1      94.798  82.698  85.282  1.00  0.00    -0.033 C 
ATOM      3  C   UNL     1      93.761  81.874  85.031  1.00  0.00    -0.015 C 
BRANCH   3   4
ATOM      4  C   UNL     1      92.392  81.819  85.688  1.00  0.00     0.078 C 
ATOM      5  O   UNL     1      92.546  80.185  87.540  1.00  0.00    -0.319 OA
ATOM      6  C   UNL     1      92.317  81.598  87.245  1.00  0.00     0.095 C 
ATOM      7  C   UNL     1      91.879  79.257  86.665  1.00  0.00     0.289 C 
ATOM      8  C   UNL     1      90.859  82.001  87.717  1.00  0.00     0.023 C 
ATOM      9  O   UNL     1      92.248  79.472  85.305  1.00  0.00    -0.320 OA
ATOM     10  O   UNL     1      90.461  79.398  86.706  1.00  0.00    -0.313 OA
ATOM     11  C   UNL     1      91.543  80.695  85.043  1.00  0.00     0.170 C 
ATOM     12  C   UNL     1      89.795  81.680  86.623  1.00  0.00     0.049 C 
ATOM     13  C   UNL     1      90.410  81.400  89.059  1.00  0.00     0.011 C 
ATOM     14  C   UNL     1      90.199  80.471  85.779  1.00  0.00     0.122 C 
BRANCH   6  15
ATOM     15  C   UNL     1      93.481  82.339  87.964  1.00  0.00     0.086 C 
ATOM     16  C   UNL     1      93.801  83.759  87.454  1.00  0.00     0.140 CG0
ATOM     17  C   UNL     1      93.437  82.506  89.457  1.00  0.00    -0.010 C 
ATOM     18  C   UNL     1      94.228  84.472  88.719  1.00  0.00     0.190 C 
ATOM     19  G   UNL     1      94.895  83.756  86.387  1.00  0.00     0.000 G0
ATOM     20  C   UNL     1      93.876  83.683  89.915  1.00  0.00    -0.008 C 
ATOM     21  O   UNL     1      94.748  85.576  88.769  1.00  0.00    -0.291 OA
ATOM     22  C   UNL     1      94.052  84.159  91.303  1.00  0.00     0.048 C 
BRANCH  16  23
ATOM     23  O   UNL     1      92.661  84.485  87.024  1.00  0.00    -0.381 OA
ATOM     24  H   UNL     1      92.923  85.058  86.285  1.00  0.00     0.212 HD
ENDBRANCH  16  23
ENDBRANCH   6  15
BRANCH   7  25
ATOM     25  C   UNL     1      92.261  77.851  87.082  1.00  0.00     0.135 C 
BRANCH  25  26
ATOM     26  C   UNL     1      91.313  76.819  86.525  1.00  0.00    -0.040 A 
ATOM     27  C   UNL     1      90.245  76.362  87.299  1.00  0.00     0.004 A 
ATOM     28  C   UNL     1      91.502  76.321  85.236  1.00  0.00     0.004 A 
ATOM     29  C   UNL     1      89.368  75.408  86.783  1.00  0.00     0.000 A 
ATOM     30  C   UNL     1      90.624  75.367  84.720  1.00  0.00     0.000 A 
ATOM     31  C   UNL     1      89.558  74.910  85.495  1.00  0.00     0.000 A 
ENDBRANCH  25  26
ENDBRANCH   7  25
BRANCH  14  32
ATOM     32  C   UNL     1      89.115  80.033  84.847  1.00  0.00    -0.046 C 
ATOM     33  C   UNL     1      88.065  81.055  84.526  1.00  0.00     0.042 C 
ATOM     34  C   UNL     1      89.083  78.797  84.327  1.00  0.00     0.010 C 
ENDBRANCH  14  32
ENDBRANCH   3   4
BRANCH   2  35
ATOM     35  C   UNL     1      94.901  83.754  86.366  1.00  0.00     0.078 CG0
ATOM     36  G   UNL     1      93.829  83.745  87.454  1.00  0.00     0.000 G0
ENDBRANCH   2  35
ENDBRANCH   1   2
BRANCH   1  37
ATOM     37  O   UNL     1      96.539  81.287  84.466  1.00  0.00    -0.461 OA
BRANCH  37  38
ATOM     38  C   UNL     1      97.654  81.035  83.702  1.00  0.00     0.310 C 
ATOM     39  O   UNL     1      98.782  81.441  83.948  1.00  0.00    -0.252 OA
BRANCH  38  40
ATOM     40  C   UNL     1      97.270  80.182  82.516  1.00  0.00     0.158 C 
BRANCH  40  41
ATOM     41  C   UNL     1      97.585  80.836  81.195  1.00  0.00    -0.033 A 
ATOM     42  C   UNL     1      98.337  80.151  80.239  1.00  0.00     0.054 A 
ATOM     43  C   UNL     1      97.124  82.124  80.927  1.00  0.00     0.008 A 
ATOM     44  C   UNL     1      98.628  80.756  79.016  1.00  0.00     0.160 A 
ATOM     45  C   UNL     1      97.415  82.729  79.704  1.00  0.00     0.050 A 
ATOM     46  C   UNL     1      98.167  82.046  78.749  1.00  0.00     0.157 A 
BRANCH  44  47
ATOM     47  O   UNL     1      99.363  80.078  78.092  1.00  0.00    -0.493 OA
ATOM     48  C   UNL     1     100.765  79.971  78.330  1.00  0.00     0.278 C 
ENDBRANCH  44  47
BRANCH  46  49
ATOM     49  O   UNL     1      98.444  82.646  77.558  1.00  0.00    -0.504 OA
ATOM     50  H   UNL     1      98.604  83.593  77.711  1.00  0.00     0.293 HD
ENDBRANCH  46  49
ENDBRANCH  40  41
ENDBRANCH  38  40
ENDBRANCH  37  38
ENDBRANCH   1  37
TORSDOF 11
ENDMDL
MODEL 6
REMARK VINA RESULT:    -6.395      2.260      3.263
REMARK INTER + INTRA:         -12.303
REMARK INTER:                 -11.069
REMARK INTRA:                  -1.234
REMARK UNBOUND:                -1.048
REMARK SMILES C=C(C)[C@]12C[C@@H](C)[C@@]34O[C@](Cc5ccccc5)(O[C@@H]1[C@@H]3C=C(COC(=O)Cc1ccc(O)c(OC)c1)C[C@]1(O)C(=O)C(C)=C[C@@H]41)O2
REMARK SMILES IDX 23 1 22 2 21 3 20 4 9 5 8 6 10 7 6 8 18 9 46 10 19 11 5 12
REMARK SMILES IDX 7 13 4 14 45 15 38 16 44 17 40 18 42 20 41 21 43 22 39 23
REMARK SMILES IDX 11 25 12 26 13 27 17 28 14 29 16 30 15 31 2 32 3 33 1 34
REMARK SMILES IDX 37 35 24 37 25 38 26 39 27 40 28 41 36 42 29 43 33 44 30 45
REMARK SMILES IDX 31 46 34 47 35 48 32 49
REMARK H PARENT 39 24 32 50
REMARK Flexibility Score: 90.00
ROOT
ATOM      1  C   UNL     1      94.884  84.733  85.702  1.00  0.00     0.264 C 
ENDROOT
BRANCH   1   2
ATOM      2  C   UNL     1      93.634  84.204  86.365  1.00  0.00    -0.033 C 
ATOM      3  C   UNL     1      93.014  83.128  85.840  1.00  0.00    -0.015 C 
BRANCH   3   4
ATOM      4  C   UNL     1      91.718  82.458  86.265  1.00  0.00     0.078 C 
ATOM      5  O   UNL     1      92.323  80.667  87.860  1.00  0.00    -0.319 OA
ATOM      6  C   UNL     1      91.598  81.930  87.743  1.00  0.00     0.095 C 
ATOM      7  C   UNL     1      92.139  79.747  86.767  1.00  0.00     0.289 C 
ATOM      8  C   UNL     1      90.062  81.681  88.041  1.00  0.00     0.023 C 
ATOM      9  O   UNL     1      92.514  80.338  85.525  1.00  0.00    -0.320 OA
ATOM     10  O   UNL     1      90.777  79.357  86.612  1.00  0.00    -0.313 OA
ATOM     11  C   UNL     1      91.421  81.251  85.341  1.00  0.00     0.170 C 
ATOM     12  C   UNL     1      89.300  81.216  86.763  1.00  0.00     0.049 C 
ATOM     13  C   UNL     1      89.762  80.712  89.197  1.00  0.00     0.011 C 
ATOM     14  C   UNL     1      90.206  80.420  85.822  1.00  0.00     0.122 C 
BRANCH   6  15
ATOM     15  C   UNL     1      92.325  82.887  88.732  1.00  0.00     0.086 C 
ATOM     16  C   UNL     1      92.120  84.397  88.491  1.00  0.00     0.140 CG0
ATOM     17  C   UNL     1      92.093  82.735  90.209  1.00  0.00    -0.010 C 
ATOM     18  C   UNL     1      92.132  84.957  89.897  1.00  0.00     0.190 C 
ATOM     19  G   UNL     1      93.218  84.996  87.613  1.00  0.00     0.000 G0
ATOM     20  C   UNL     1      92.008  83.879  90.896  1.00  0.00    -0.008 C 
ATOM     21  O   UNL     1      92.184  86.142  90.187  1.00  0.00    -0.291 OA
ATOM     22  C   UNL     1      91.870  84.108  92.349  1.00  0.00     0.048 C 
BRANCH  16  23
ATOM     23  O   UNL     1      90.830  84.731  88.005  1.00  0.00    -0.381 OA
ATOM     24  H   UNL     1      90.930  85.164  87.141  1.00  0.00     0.212 HD
ENDBRANCH  16  23
ENDBRANCH   6  15
BRANCH   7  25
ATOM     25  C   UNL     1      92.990  78.521  87.028  1.00  0.00     0.135 C 
BRANCH  25  26
ATOM     26  C   UNL     1      94.291  78.563  86.265  1.00  0.00    -0.040 A 
ATOM     27  C   UNL     1      94.580  77.573  85.326  1.00  0.00     0.004 A 
ATOM     28  C   UNL     1      95.203  79.591  86.497  1.00  0.00     0.004 A 
ATOM     29  C   UNL     1      95.783  77.611  84.620  1.00  0.00     0.000 A 
ATOM     30  C   UNL     1      96.406  79.630  85.791  1.00  0.00     0.000 A 
ATOM     31  C   UNL     1      96.695  78.639  84.853  1.00  0.00     0.000 A 
ENDBRANCH  25  26
ENDBRANCH   7  25
BRANCH  14  32
ATOM     32  C   UNL     1      89.457  79.810  84.683  1.00  0.00    -0.046 C 
ATOM     33  C   UNL     1      88.105  80.391  84.392  1.00  0.00     0.042 C 
ATOM     34  C   UNL     1      89.963  78.800  83.960  1.00  0.00     0.010 C 
ENDBRANCH  14  32
ENDBRANCH   3   4
BRANCH   2  35
ATOM     35  C   UNL     1      93.234  84.993  87.598  1.00  0.00     0.078 CG0
ATOM     36  G   UNL     1      92.139  84.400  88.483  1.00  0.00     0.000 G0
ENDBRANCH   2  35
ENDBRANCH   1   2
BRANCH   1  37
ATOM     37  O   UNL     1      95.254  83.871  84.648  1.00  0.00    -0.461 OA
BRANCH  37  38
ATOM     38  C   UNL     1      96.178  84.364  83.755  1.00  0.00     0.310 C 
ATOM     39  O   UNL     1      96.880  85.348  83.942  1.00  0.00    -0.252 OA
BRANCH  38  40
ATOM     40  C   UNL     1      96.190  83.502  82.515  1.00  0.00     0.158 C 
BRANCH  40  41
ATOM     41  C   UNL     1      97.526  82.850  82.265  1.00  0.00    -0.033 A 
ATOM     42  C   UNL     1      98.235  82.284  83.325  1.00  0.00     0.054 A 
ATOM     43  C   UNL     1      98.053  82.812  80.974  1.00  0.00     0.008 A 
ATOM     44  C   UNL     1      99.471  81.680  83.093  1.00  0.00     0.160 A 
ATOM     45  C   UNL     1      99.289  82.209  80.742  1.00  0.00     0.050 A 
ATOM     46  C   UNL     1      99.998  81.643  81.801  1.00  0.00     0.157 A 
BRANCH  44  47
ATOM     47  O   UNL     1     100.154  81.131  84.136  1.00  0.00    -0.493 OA
ATOM     48  C   UNL     1      99.596  81.301  85.438  1.00  0.00     0.278 C 
ENDBRANCH  44  47
BRANCH  46  49
ATOM     49  O   UNL     1     101.203  81.056  81.563  1.00  0.00    -0.504 OA
ATOM     50  H   UNL     1     101.360  81.032  80.604  1.00  0.00     0.293 HD
ENDBRANCH  46  49
ENDBRANCH  40  41
ENDBRANCH  38  40
ENDBRANCH  37  38
ENDBRANCH   1  37
TORSDOF 11
ENDMDL
MODEL 7
REMARK VINA RESULT:    -6.295     29.066     33.096
REMARK INTER + INTRA:         -12.127
REMARK INTER:                 -10.334
REMARK INTRA:                  -1.793
REMARK UNBOUND:                -1.048
REMARK SMILES C=C(C)[C@]12C[C@@H](C)[C@@]34O[C@](Cc5ccccc5)(O[C@@H]1[C@@H]3C=C(COC(=O)Cc1ccc(O)c(OC)c1)C[C@]1(O)C(=O)C(C)=C[C@@H]41)O2
REMARK SMILES IDX 23 1 22 2 21 3 20 4 9 5 8 6 10 7 6 8 18 9 46 10 19 11 5 12
REMARK SMILES IDX 7 13 4 14 45 15 38 16 44 17 40 18 42 20 41 21 43 22 39 23
REMARK SMILES IDX 11 25 12 26 13 27 17 28 14 29 16 30 15 31 2 32 3 33 1 34
REMARK SMILES IDX 37 35 24 37 25 38 26 39 27 40 28 41 36 42 29 43 33 44 30 45
REMARK SMILES IDX 31 46 34 47 35 48 32 49
REMARK H PARENT 39 24 32 50
REMARK Flexibility Score: 90.00
ROOT
ATOM      1  C   UNL     1      61.142  88.441  78.329  1.00  0.00     0.264 C 
ENDROOT
BRANCH   1   2
ATOM      2  C   UNL     1      62.312  87.807  77.614  1.00  0.00    -0.033 C 
ATOM      3  C   UNL     1      62.154  86.601  77.032  1.00  0.00    -0.015 C 
BRANCH   3   4
ATOM      4  C   UNL     1      63.179  85.727  76.328  1.00  0.00     0.078 C 
ATOM      5  O   UNL     1      63.092  86.306  73.925  1.00  0.00    -0.319 OA
ATOM      6  C   UNL     1      63.959  86.329  75.100  1.00  0.00     0.095 C 
ATOM      7  C   UNL     1      62.323  85.101  73.749  1.00  0.00     0.289 C 
ATOM      8  C   UNL     1      65.222  85.409  74.836  1.00  0.00     0.023 C 
ATOM      9  O   UNL     1      61.505  84.839  74.885  1.00  0.00    -0.320 OA
ATOM     10  O   UNL     1      63.150  83.950  73.596  1.00  0.00    -0.313 OA
ATOM     11  C   UNL     1      62.506  84.426  75.828  1.00  0.00     0.170 C 
ATOM     12  C   UNL     1      64.924  83.917  75.181  1.00  0.00     0.049 C 
ATOM     13  C   UNL     1      65.819  85.497  73.423  1.00  0.00     0.011 C 
ATOM     14  C   UNL     1      63.453  83.566  74.953  1.00  0.00     0.122 C 
BRANCH   6  15
ATOM     15  C   UNL     1      64.267  87.837  75.327  1.00  0.00     0.086 C 
ATOM     16  C   UNL     1      64.758  88.227  76.737  1.00  0.00     0.140 CG0
ATOM     17  C   UNL     1      65.234  88.537  74.414  1.00  0.00    -0.010 C 
ATOM     18  C   UNL     1      65.723  89.357  76.446  1.00  0.00     0.190 C 
ATOM     19  G   UNL     1      63.611  88.657  77.650  1.00  0.00     0.000 G0
ATOM     20  C   UNL     1      66.047  89.418  75.008  1.00  0.00    -0.008 C 
ATOM     21  O   UNL     1      66.218  90.098  77.281  1.00  0.00    -0.291 OA
ATOM     22  C   UNL     1      67.049  90.332  74.423  1.00  0.00     0.048 C 
BRANCH  16  23
ATOM     23  O   UNL     1      65.569  87.241  77.355  1.00  0.00    -0.381 OA
ATOM     24  H   UNL     1      66.490  87.548  77.341  1.00  0.00     0.212 HD
ENDBRANCH  16  23
ENDBRANCH   6  15
BRANCH   7  25
ATOM     25  C   UNL     1      61.454  85.266  72.518  1.00  0.00     0.135 C 
BRANCH  25  26
ATOM     26  C   UNL     1      62.105  84.691  71.285  1.00  0.00    -0.040 A 
ATOM     27  C   UNL     1      61.778  83.402  70.861  1.00  0.00     0.004 A 
ATOM     28  C   UNL     1      63.032  85.446  70.568  1.00  0.00     0.004 A 
ATOM     29  C   UNL     1      62.379  82.869  69.721  1.00  0.00     0.000 A 
ATOM     30  C   UNL     1      63.633  84.913  69.427  1.00  0.00     0.000 A 
ATOM     31  C   UNL     1      63.306  83.625  69.004  1.00  0.00     0.000 A 
ENDBRANCH  25  26
ENDBRANCH   7  25
BRANCH  14  32
ATOM     32  C   UNL     1      63.182  82.105  75.101  1.00  0.00    -0.046 C 
ATOM     33  C   UNL     1      62.189  81.516  74.144  1.00  0.00     0.042 C 
ATOM     34  C   UNL     1      63.792  81.361  76.036  1.00  0.00     0.010 C 
ENDBRANCH  14  32
ENDBRANCH   3   4
BRANCH   2  35
ATOM     35  C   UNL     1      63.565  88.662  77.648  1.00  0.00     0.078 CG0
ATOM     36  G   UNL     1      64.728  88.233  76.754  1.00  0.00     0.000 G0
ENDBRANCH   2  35
ENDBRANCH   1   2
BRANCH   1  37
ATOM     37  O   UNL     1      61.094  87.968  79.658  1.00  0.00    -0.461 OA
BRANCH  37  38
ATOM     38  C   UNL     1      61.590  88.813  80.623  1.00  0.00     0.310 C 
ATOM     39  O   UNL     1      61.915  89.978  80.437  1.00  0.00    -0.252 OA
BRANCH  38  40
ATOM     40  C   UNL     1      61.670  88.081  81.942  1.00  0.00     0.158 C 
BRANCH  40  41
ATOM     41  C   UNL     1      62.952  87.306  82.107  1.00  0.00    -0.033 A 
ATOM     42  C   UNL     1      63.931  87.357  81.113  1.00  0.00     0.054 A 
ATOM     43  C   UNL     1      63.160  86.538  83.252  1.00  0.00     0.008 A 
ATOM     44  C   UNL     1      65.117  86.639  81.266  1.00  0.00     0.160 A 
ATOM     45  C   UNL     1      64.346  85.820  83.405  1.00  0.00     0.050 A 
ATOM     46  C   UNL     1      65.325  85.870  82.412  1.00  0.00     0.157 A 
BRANCH  44  47
ATOM     47  O   UNL     1      66.065  86.697  80.290  1.00  0.00    -0.493 OA
ATOM     48  C   UNL     1      67.042  87.731  80.394  1.00  0.00     0.278 C 
ENDBRANCH  44  47
BRANCH  46  49
ATOM     49  O   UNL     1      66.479  85.166  82.572  1.00  0.00    -0.504 OA
ATOM     50  H   UNL     1      66.694  84.716  81.738  1.00  0.00     0.293 HD
ENDBRANCH  46  49
ENDBRANCH  40  41
ENDBRANCH  38  40
ENDBRANCH  37  38
ENDBRANCH   1  37
TORSDOF 11
ENDMDL
MODEL 8
REMARK VINA RESULT:    -6.283      3.804      8.705
REMARK INTER + INTRA:         -12.106
REMARK INTER:                 -11.204
REMARK INTRA:                  -0.902
REMARK UNBOUND:                -1.048
REMARK SMILES C=C(C)[C@]12C[C@@H](C)[C@@]34O[C@](Cc5ccccc5)(O[C@@H]1[C@@H]3C=C(COC(=O)Cc1ccc(O)c(OC)c1)C[C@]1(O)C(=O)C(C)=C[C@@H]41)O2
REMARK SMILES IDX 23 1 22 2 21 3 20 4 9 5 8 6 10 7 6 8 18 9 46 10 19 11 5 12
REMARK SMILES IDX 7 13 4 14 45 15 38 16 44 17 40 18 42 20 41 21 43 22 39 23
REMARK SMILES IDX 11 25 12 26 13 27 17 28 14 29 16 30 15 31 2 32 3 33 1 34
REMARK SMILES IDX 37 35 24 37 25 38 26 39 27 40 28 41 36 42 29 43 33 44 30 45
REMARK SMILES IDX 31 46 34 47 35 48 32 49
REMARK H PARENT 39 24 32 50
REMARK Flexibility Score: 90.00
ROOT
ATOM      1  C   UNL     1      94.831  86.454  86.307  1.00  0.00     0.264 C 
ENDROOT
BRANCH   1   2
ATOM      2  C   UNL     1      94.426  85.005  86.168  1.00  0.00    -0.033 C 
ATOM      3  C   UNL     1      95.326  84.109  85.718  1.00  0.00    -0.015 C 
BRANCH   3   4
ATOM      4  C   UNL     1      95.149  82.629  85.420  1.00  0.00     0.078 C 
ATOM      5  O   UNL     1      95.730  81.403  87.488  1.00  0.00    -0.319 OA
ATOM      6  C   UNL     1      94.629  81.691  86.572  1.00  0.00     0.095 C 
ATOM      7  C   UNL     1      96.994  81.114  86.862  1.00  0.00     0.289 C 
ATOM      8  C   UNL     1      94.136  80.340  85.905  1.00  0.00     0.023 C 
ATOM      9  O   UNL     1      97.411  82.186  86.020  1.00  0.00    -0.320 OA
ATOM     10  O   UNL     1      96.930  79.966  86.019  1.00  0.00    -0.313 OA
ATOM     11  C   UNL     1      96.489  82.026  84.931  1.00  0.00     0.170 C 
ATOM     12  C   UNL     1      94.986  79.981  84.648  1.00  0.00     0.049 C 
ATOM     13  C   UNL     1      94.074  79.125  86.844  1.00  0.00     0.011 C 
ATOM     14  C   UNL     1      96.424  80.486  84.773  1.00  0.00     0.122 C 
BRANCH   6  15
ATOM     15  C   UNL     1      93.575  82.426  87.449  1.00  0.00     0.086 C 
ATOM     16  C   UNL     1      92.542  83.288  86.693  1.00  0.00     0.140 CG0
ATOM     17  C   UNL     1      92.733  81.633  88.409  1.00  0.00    -0.010 C 
ATOM     18  C   UNL     1      91.298  83.125  87.541  1.00  0.00     0.190 C 
ATOM     19  G   UNL     1      92.983  84.746  86.575  1.00  0.00     0.000 G0
ATOM     20  C   UNL     1      91.456  82.018  88.504  1.00  0.00    -0.008 C 
ATOM     21  O   UNL     1      90.272  83.778  87.425  1.00  0.00    -0.291 OA
ATOM     22  C   UNL     1      90.378  81.532  89.390  1.00  0.00     0.048 C 
BRANCH  16  23
ATOM     23  O   UNL     1      92.165  82.757  85.433  1.00  0.00    -0.381 OA
ATOM     24  H   UNL     1      91.905  81.829  85.556  1.00  0.00     0.212 HD
ENDBRANCH  16  23
ENDBRANCH   6  15
BRANCH   7  25
ATOM     25  C   UNL     1      98.023  80.887  87.950  1.00  0.00     0.135 C 
BRANCH  25  26
ATOM     26  C   UNL     1      99.433  81.042  87.436  1.00  0.00    -0.040 A 
ATOM     27  C   UNL     1     100.005  80.036  86.656  1.00  0.00     0.004 A 
ATOM     28  C   UNL     1     100.164  82.190  87.739  1.00  0.00     0.004 A 
ATOM     29  C   UNL     1     101.309  80.180  86.180  1.00  0.00     0.000 A 
ATOM     30  C   UNL     1     101.468  82.334  87.263  1.00  0.00     0.000 A 
ATOM     31  C   UNL     1     102.040  81.328  86.484  1.00  0.00     0.000 A 
ENDBRANCH  25  26
ENDBRANCH   7  25
BRANCH  14  32
ATOM     32  C   UNL     1      97.302  79.999  83.667  1.00  0.00    -0.046 C 
ATOM     33  C   UNL     1      97.149  80.690  82.345  1.00  0.00     0.042 C 
ATOM     34  C   UNL     1      98.179  78.999  83.847  1.00  0.00     0.010 C 
ENDBRANCH  14  32
ENDBRANCH   3   4
BRANCH   2  35
ATOM     35  C   UNL     1      92.990  84.747  86.584  1.00  0.00     0.078 CG0
ATOM     36  G   UNL     1      92.551  83.289  86.713  1.00  0.00     0.000 G0
ENDBRANCH   2  35
ENDBRANCH   1   2
BRANCH   1  37
ATOM     37  O   UNL     1      95.505  86.635  87.533  1.00  0.00    -0.461 OA
BRANCH  37  38
ATOM     38  C   UNL     1      94.815  87.312  88.512  1.00  0.00     0.310 C 
ATOM     39  O   UNL     1      94.117  86.789  89.369  1.00  0.00    -0.252 OA
BRANCH  38  40
ATOM     40  C   UNL     1      95.054  88.796  88.363  1.00  0.00     0.158 C 
BRANCH  40  41
ATOM     41  C   UNL     1      94.152  89.628  89.239  1.00  0.00    -0.033 A 
ATOM     42  C   UNL     1      94.605  90.075  90.481  1.00  0.00     0.054 A 
ATOM     43  C   UNL     1      92.866  89.951  88.808  1.00  0.00     0.008 A 
ATOM     44  C   UNL     1      93.770  90.845  91.291  1.00  0.00     0.160 A 
ATOM     45  C   UNL     1      92.031  90.721  89.619  1.00  0.00     0.050 A 
ATOM     46  C   UNL     1      92.483  91.167  90.860  1.00  0.00     0.157 A 
BRANCH  44  47
ATOM     47  O   UNL     1      94.223  91.275  92.502  1.00  0.00    -0.493 OA
ATOM     48  C   UNL     1      94.834  90.302  93.348  1.00  0.00     0.278 C 
ENDBRANCH  44  47
BRANCH  46  49
ATOM     49  O   UNL     1      91.660  91.919  91.643  1.00  0.00    -0.504 OA
ATOM     50  H   UNL     1      91.799  92.859  91.437  1.00  0.00     0.293 HD
ENDBRANCH  46  49
ENDBRANCH  40  41
ENDBRANCH  38  40
ENDBRANCH  37  38
ENDBRANCH   1  37
TORSDOF 11
ENDMDL
MODEL 9
REMARK VINA RESULT:    -6.201      1.883      2.854
REMARK INTER + INTRA:         -11.962
REMARK INTER:                 -11.118
REMARK INTRA:                  -0.844
REMARK UNBOUND:                -1.048
REMARK SMILES C=C(C)[C@]12C[C@@H](C)[C@@]34O[C@](Cc5ccccc5)(O[C@@H]1[C@@H]3C=C(COC(=O)Cc1ccc(O)c(OC)c1)C[C@]1(O)C(=O)C(C)=C[C@@H]41)O2
REMARK SMILES IDX 23 1 22 2 21 3 20 4 9 5 8 6 10 7 6 8 18 9 46 10 19 11 5 12
REMARK SMILES IDX 7 13 4 14 45 15 38 16 44 17 40 18 42 20 41 21 43 22 39 23
REMARK SMILES IDX 11 25 12 26 13 27 17 28 14 29 16 30 15 31 2 32 3 33 1 34
REMARK SMILES IDX 37 35 24 37 25 38 26 39 27 40 28 41 36 42 29 43 33 44 30 45
REMARK SMILES IDX 31 46 34 47 35 48 32 49
REMARK H PARENT 39 24 32 50
REMARK Flexibility Score: 90.00
ROOT
ATOM      1  C   UNL     1      96.898  82.132  83.972  1.00  0.00     0.264 C 
ENDROOT
BRANCH   1   2
ATOM      2  C   UNL     1      95.609  82.553  84.639  1.00  0.00    -0.033 C 
ATOM      3  C   UNL     1      94.647  81.634  84.854  1.00  0.00    -0.015 C 
BRANCH   3   4
ATOM      4  C   UNL     1      93.251  81.814  85.428  1.00  0.00     0.078 C 
ATOM      5  O   UNL     1      93.416  81.418  87.864  1.00  0.00    -0.319 OA
ATOM      6  C   UNL     1      93.107  82.439  86.866  1.00  0.00     0.095 C 
ATOM      7  C   UNL     1      92.862  80.114  87.605  1.00  0.00     0.289 C 
ATOM      8  C   UNL     1      91.602  82.902  87.040  1.00  0.00     0.023 C 
ATOM      9  O   UNL     1      93.288  79.614  86.340  1.00  0.00    -0.320 OA
ATOM     10  O   UNL     1      91.438  80.132  87.551  1.00  0.00    -0.313 OA
ATOM     11  C   UNL     1      92.517  80.451  85.465  1.00  0.00     0.170 C 
ATOM     12  C   UNL     1      90.623  81.963  86.269  1.00  0.00     0.049 C 
ATOM     13  C   UNL     1      91.123  83.059  88.492  1.00  0.00     0.011 C 
ATOM     14  C   UNL     1      91.153  80.531  86.195  1.00  0.00     0.122 C 
BRANCH   6  15
ATOM     15  C   UNL     1      94.178  83.545  87.097  1.00  0.00     0.086 C 
ATOM     16  C   UNL     1      94.428  84.506  85.916  1.00  0.00     0.140 CG0
ATOM     17  C   UNL     1      94.042  84.467  88.276  1.00  0.00    -0.010 C 
ATOM     18  C   UNL     1      94.736  85.811  86.618  1.00  0.00     0.190 C 
ATOM     19  G   UNL     1      95.576  84.037  85.023  1.00  0.00     0.000 G0
ATOM     20  C   UNL     1      94.374  85.742  88.047  1.00  0.00    -0.008 C 
ATOM     21  O   UNL     1      95.177  86.817  86.082  1.00  0.00    -0.291 OA
ATOM     22  C   UNL     1      94.442  86.889  88.975  1.00  0.00     0.048 C 
BRANCH  16  23
ATOM     23  O   UNL     1      93.266  84.796  85.156  1.00  0.00    -0.381 OA
ATOM     24  H   UNL     1      92.971  85.694  85.378  1.00  0.00     0.212 HD
ENDBRANCH  16  23
ENDBRANCH   6  15
BRANCH   7  25
ATOM     25  C   UNL     1      93.316  79.177  88.705  1.00  0.00     0.135 C 
BRANCH  25  26
ATOM     26  C   UNL     1      92.555  79.402  89.988  1.00  0.00    -0.040 A 
ATOM     27  C   UNL     1      91.543  78.517  90.363  1.00  0.00     0.004 A 
ATOM     28  C   UNL     1      92.864  80.492  90.801  1.00  0.00     0.004 A 
ATOM     29  C   UNL     1      90.839  78.725  91.550  1.00  0.00     0.000 A 
ATOM     30  C   UNL     1      92.160  80.700  91.988  1.00  0.00     0.000 A 
ATOM     31  C   UNL     1      91.148  79.816  92.361  1.00  0.00     0.000 A 
ENDBRANCH  25  26
ENDBRANCH   7  25
BRANCH  14  32
ATOM     32  C   UNL     1      90.154  79.578  85.624  1.00  0.00    -0.046 C 
ATOM     33  C   UNL     1      89.193  78.964  86.598  1.00  0.00     0.042 C 
ATOM     34  C   UNL     1      90.119  79.287  84.315  1.00  0.00     0.010 C 
ENDBRANCH  14  32
ENDBRANCH   3   4
BRANCH   2  35
ATOM     35  C   UNL     1      95.579  84.027  84.999  1.00  0.00     0.078 CG0
ATOM     36  G   UNL     1      94.444  84.502  85.904  1.00  0.00     0.000 G0
ENDBRANCH   2  35
ENDBRANCH   1   2
BRANCH   1  37
ATOM     37  O   UNL     1      97.094  82.903  82.806  1.00  0.00    -0.461 OA
BRANCH  37  38
ATOM     38  C   UNL     1      97.358  82.203  81.652  1.00  0.00     0.310 C 
ATOM     39  O   UNL     1      97.385  80.984  81.560  1.00  0.00    -0.252 OA
BRANCH  38  40
ATOM     40  C   UNL     1      97.609  83.173  80.521  1.00  0.00     0.158 C 
BRANCH  40  41
ATOM     41  C   UNL     1      97.739  82.493  79.182  1.00  0.00    -0.033 A 
ATOM     42  C   UNL     1      98.997  82.346  78.594  1.00  0.00     0.054 A 
ATOM     43  C   UNL     1      96.605  82.010  78.531  1.00  0.00     0.008 A 
ATOM     44  C   UNL     1      99.118  81.717  77.355  1.00  0.00     0.160 A 
ATOM     45  C   UNL     1      96.726  81.381  77.292  1.00  0.00     0.050 A 
ATOM     46  C   UNL     1      97.982  81.235  76.704  1.00  0.00     0.157 A 
BRANCH  44  47
ATOM     47  O   UNL     1     100.350  81.580  76.791  1.00  0.00    -0.493 OA
ATOM     48  C   UNL     1     100.871  82.708  76.090  1.00  0.00     0.278 C 
ENDBRANCH  44  47
BRANCH  46  49
ATOM     49  O   UNL     1      98.088  80.618  75.494  1.00  0.00    -0.504 OA
ATOM     50  H   UNL     1      98.088  79.655  75.629  1.00  0.00     0.293 HD
ENDBRANCH  46  49
ENDBRANCH  40  41
ENDBRANCH  38  40
ENDBRANCH  37  38
ENDBRANCH   1  37
TORSDOF 11
ENDMDL
MODEL 10
REMARK VINA RESULT:    -6.041      1.947      2.762
REMARK INTER + INTRA:         -11.681
REMARK INTER:                 -10.818
REMARK INTRA:                  -0.862
REMARK UNBOUND:                -1.048
REMARK SMILES C=C(C)[C@]12C[C@@H](C)[C@@]34O[C@](Cc5ccccc5)(O[C@@H]1[C@@H]3C=C(COC(=O)Cc1ccc(O)c(OC)c1)C[C@]1(O)C(=O)C(C)=C[C@@H]41)O2
REMARK SMILES IDX 23 1 22 2 21 3 20 4 9 5 8 6 10 7 6 8 18 9 46 10 19 11 5 12
REMARK SMILES IDX 7 13 4 14 45 15 38 16 44 17 40 18 42 20 41 21 43 22 39 23
REMARK SMILES IDX 11 25 12 26 13 27 17 28 14 29 16 30 15 31 2 32 3 33 1 34
REMARK SMILES IDX 37 35 24 37 25 38 26 39 27 40 28 41 36 42 29 43 33 44 30 45
REMARK SMILES IDX 31 46 34 47 35 48 32 49
REMARK H PARENT 39 24 32 50
REMARK Flexibility Score: 90.00
ROOT
ATOM      1  C   UNL     1      96.984  80.885  85.170  1.00  0.00     0.264 C 
ENDROOT
BRANCH   1   2
ATOM      2  C   UNL     1      95.580  81.376  85.437  1.00  0.00    -0.033 C 
ATOM      3  C   UNL     1      94.569  80.486  85.494  1.00  0.00    -0.015 C 
BRANCH   3   4
ATOM      4  C   UNL     1      93.079  80.727  85.670  1.00  0.00     0.078 C 
ATOM      5  O   UNL     1      92.609  80.602  88.095  1.00  0.00    -0.319 OA
ATOM      6  C   UNL     1      92.592  81.507  86.948  1.00  0.00     0.095 C 
ATOM      7  C   UNL     1      92.104  79.278  87.844  1.00  0.00     0.289 C 
ATOM      8  C   UNL     1      91.105  81.985  86.681  1.00  0.00     0.023 C 
ATOM      9  O   UNL     1      92.823  78.641  86.791  1.00  0.00    -0.320 OA
ATOM     10  O   UNL     1      90.741  79.289  87.427  1.00  0.00    -0.313 OA
ATOM     11  C   UNL     1      92.323  79.376  85.663  1.00  0.00     0.170 C 
ATOM     12  C   UNL     1      90.329  80.967  85.791  1.00  0.00     0.049 C 
ATOM     13  C   UNL     1      90.278  82.302  87.937  1.00  0.00     0.011 C 
ATOM     14  C   UNL     1      90.821  79.536  86.008  1.00  0.00     0.122 C 
BRANCH   6  15
ATOM     15  C   UNL     1      93.599  82.632  87.325  1.00  0.00     0.086 C 
ATOM     16  C   UNL     1      94.162  83.462  86.152  1.00  0.00     0.140 CG0
ATOM     17  C   UNL     1      93.197  83.674  88.330  1.00  0.00    -0.010 C 
ATOM     18  C   UNL     1      94.318  84.835  86.771  1.00  0.00     0.190 C 
ATOM     19  G   UNL     1      95.484  82.902  85.630  1.00  0.00     0.000 G0
ATOM     20  C   UNL     1      93.609  84.918  88.061  1.00  0.00    -0.008 C 
ATOM     21  O   UNL     1      94.904  85.779  86.262  1.00  0.00    -0.291 OA
ATOM     22  C   UNL     1      93.471  86.157  88.853  1.00  0.00     0.048 C 
BRANCH  16  23
ATOM     23  O   UNL     1      93.235  83.669  85.099  1.00  0.00    -0.381 OA
ATOM     24  H   UNL     1      92.512  84.226  85.431  1.00  0.00     0.212 HD
ENDBRANCH  16  23
ENDBRANCH   6  15
BRANCH   7  25
ATOM     25  C   UNL     1      92.236  78.468  89.117  1.00  0.00     0.135 C 
BRANCH  25  26
ATOM     26  C   UNL     1      90.963  77.734  89.456  1.00  0.00    -0.040 A 
ATOM     27  C   UNL     1      90.049  78.299  90.347  1.00  0.00     0.004 A 
ATOM     28  C   UNL     1      90.697  76.493  88.879  1.00  0.00     0.004 A 
ATOM     29  C   UNL     1      88.870  77.621  90.660  1.00  0.00     0.000 A 
ATOM     30  C   UNL     1      89.519  75.815  89.193  1.00  0.00     0.000 A 
ATOM     31  C   UNL     1      88.606  76.380  90.084  1.00  0.00     0.000 A 
ENDBRANCH  25  26
ENDBRANCH   7  25
BRANCH  14  32
ATOM     32  C   UNL     1      89.974  78.525  85.306  1.00  0.00    -0.046 C 
ATOM     33  C   UNL     1      89.535  78.878  83.916  1.00  0.00     0.042 C 
ATOM     34  C   UNL     1      89.624  77.366  85.886  1.00  0.00     0.010 C 
ENDBRANCH  14  32
ENDBRANCH   3   4
BRANCH   2  35
ATOM     35  C   UNL     1      95.501  82.880  85.620  1.00  0.00     0.078 CG0
ATOM     36  G   UNL     1      94.191  83.450  86.161  1.00  0.00     0.000 G0
ENDBRANCH   2  35
ENDBRANCH   1   2
BRANCH   1  37
ATOM     37  O   UNL     1      97.426  81.389  83.928  1.00  0.00    -0.461 OA
BRANCH  37  38
ATOM     38  C   UNL     1      97.414  80.505  82.874  1.00  0.00     0.310 C 
ATOM     39  O   UNL     1      96.662  79.545  82.770  1.00  0.00    -0.252 OA
BRANCH  38  40
ATOM     40  C   UNL     1      98.468  80.904  81.868  1.00  0.00     0.158 C 
BRANCH  40  41
ATOM     41  C   UNL     1      97.895  81.232  80.514  1.00  0.00    -0.033 A 
ATOM     42  C   UNL     1      98.127  80.380  79.433  1.00  0.00     0.054 A 
ATOM     43  C   UNL     1      97.131  82.386  80.340  1.00  0.00     0.008 A 
ATOM     44  C   UNL     1      97.596  80.683  78.179  1.00  0.00     0.160 A 
ATOM     45  C   UNL     1      96.601  82.689  79.086  1.00  0.00     0.050 A 
ATOM     46  C   UNL     1      96.833  81.838  78.006  1.00  0.00     0.157 A 
BRANCH  44  47
ATOM     47  O   UNL     1      97.830  79.844  77.132  1.00  0.00    -0.493 OA
ATOM     48  C   UNL     1      98.949  80.143  76.299  1.00  0.00     0.278 C 
ENDBRANCH  44  47
BRANCH  46  49
ATOM     49  O   UNL     1      96.309  82.144  76.786  1.00  0.00    -0.504 OA
ATOM     50  H   UNL     1      97.025  82.162  76.129  1.00  0.00     0.293 HD
ENDBRANCH  46  49
ENDBRANCH  40  41
ENDBRANCH  38  40
ENDBRANCH  37  38
ENDBRANCH   1  37
TORSDOF 11
ENDMDL
