MODEL 1
REMARK VINA RESULT:    -6.333      0.000      0.000
REMARK INTER + INTRA:         -10.934
REMARK INTER:                  -9.850
REMARK INTRA:                  -1.084
REMARK UNBOUND:                -1.084
REMARK SMILES COc1cc(CNC(=O)CCCC/C=C/C(C)C)ccc1O
REMARK SMILES IDX 10 1 8 2 7 3 9 5 6 6 5 7 3 8 21 9 4 10 20 11 19 12 2 13 1 14
REMARK SMILES IDX 22 15 11 17 12 18 13 19 14 20 15 21 16 22 17 23 18 24
REMARK H PARENT 7 4 22 16
REMARK Flexibility Score: inf
ROOT
ATOM      1  C   UNL     1      96.944  96.298  74.802  1.00  0.00     0.100 C 
ENDROOT
BRANCH   1   2
ATOM      2  C   UNL     1      97.617  96.577  76.085  1.00  0.00     0.220 C 
ATOM      3  N   UNL     1      96.923  97.115  77.127  1.00  0.00    -0.352 N 
ATOM      4  H   UNL     1      95.952  97.318  76.934  1.00  0.00     0.163 HD
ATOM      5  O   UNL     1      98.832  96.283  76.193  1.00  0.00    -0.275 OA
BRANCH   3   6
ATOM      6  C   UNL     1      97.472  97.392  78.416  1.00  0.00     0.151 C 
BRANCH   6   7
ATOM      7  C   UNL     1      96.804  96.591  79.478  1.00  0.00    -0.025 A 
ATOM      8  C   UNL     1      96.412  96.126  81.864  1.00  0.00     0.160 A 
ATOM      9  C   UNL     1      95.524  95.087  81.516  1.00  0.00     0.157 A 
ATOM     10  C   UNL     1      97.045  96.866  80.843  1.00  0.00     0.056 A 
ATOM     11  C   UNL     1      95.290  94.789  80.160  1.00  0.00     0.050 A 
ATOM     12  C   UNL     1      95.917  95.541  79.147  1.00  0.00     0.009 A 
BRANCH   8  13
ATOM     13  O   UNL     1      96.694  96.378  83.183  1.00  0.00    -0.493 OA
ATOM     14  C   UNL     1      96.389  97.720  83.603  1.00  0.00     0.278 C 
ENDBRANCH   8  13
BRANCH   9  15
ATOM     15  O   UNL     1      94.889  94.365  82.475  1.00  0.00    -0.504 OA
ATOM     16  H   UNL     1      94.643  93.507  82.119  1.00  0.00     0.293 HD
ENDBRANCH   9  15
ENDBRANCH   6   7
ENDBRANCH   3   6
ENDBRANCH   1   2
BRANCH   1  17
ATOM     17  C   UNL     1      95.505  95.754  75.016  1.00  0.00     0.010 C 
BRANCH  17  18
ATOM     18  C   UNL     1      95.472  94.226  75.301  1.00  0.00     0.005 C 
BRANCH  18  19
ATOM     19  C   UNL     1      94.549  93.869  76.497  1.00  0.00     0.027 C 
BRANCH  19  20
ATOM     20  C   UNL     1      93.157  93.740  76.094  1.00  0.00    -0.031 C 
ATOM     21  C   UNL     1      92.158  93.397  76.928  1.00  0.00    -0.028 C 
BRANCH  21  22
ATOM     22  C   UNL     1      90.761  93.293  76.505  1.00  0.00     0.005 C 
ATOM     23  C   UNL     1      89.896  92.497  77.522  1.00  0.00     0.012 C 
ATOM     24  C   UNL     1      90.168  94.705  76.261  1.00  0.00     0.012 C 
ENDBRANCH  21  22
ENDBRANCH  19  20
ENDBRANCH  18  19
ENDBRANCH  17  18
ENDBRANCH   1  17
TORSDOF 10
ENDMDL
MODEL 2
REMARK VINA RESULT:    -6.266      4.507      7.859
REMARK INTER + INTRA:         -10.831
REMARK INTER:                 -10.028
REMARK INTRA:                  -0.803
REMARK UNBOUND:                -1.084
REMARK SMILES COc1cc(CNC(=O)CCCC/C=C/C(C)C)ccc1O
REMARK SMILES IDX 10 1 8 2 7 3 9 5 6 6 5 7 3 8 21 9 4 10 20 11 19 12 2 13 1 14
REMARK SMILES IDX 22 15 11 17 12 18 13 19 14 20 15 21 16 22 17 23 18 24
REMARK H PARENT 7 4 22 16
REMARK Flexibility Score: inf
ROOT
ATOM      1  C   UNL     1      95.278  93.787  76.185  1.00  0.00     0.100 C 
ENDROOT
BRANCH   1   2
ATOM      2  C   UNL     1      93.804  93.789  76.113  1.00  0.00     0.220 C 
ATOM      3  N   UNL     1      93.061  93.299  77.144  1.00  0.00    -0.352 N 
ATOM      4  H   UNL     1      93.596  92.928  77.917  1.00  0.00     0.163 HD
ATOM      5  O   UNL     1      93.262  94.275  75.091  1.00  0.00    -0.275 OA
BRANCH   3   6
ATOM      6  C   UNL     1      91.633  93.284  77.186  1.00  0.00     0.151 C 
BRANCH   6   7
ATOM      7  C   UNL     1      91.096  91.904  77.043  1.00  0.00    -0.025 A 
ATOM      8  C   UNL     1      90.747  89.887  75.674  1.00  0.00     0.160 A 
ATOM      9  C   UNL     1      90.095  89.263  76.758  1.00  0.00     0.157 A 
ATOM     10  C   UNL     1      91.238  91.200  75.825  1.00  0.00     0.056 A 
ATOM     11  C   UNL     1      89.929  89.959  77.972  1.00  0.00     0.050 A 
ATOM     12  C   UNL     1      90.434  91.266  78.117  1.00  0.00     0.009 A 
BRANCH   8  13
ATOM     13  O   UNL     1      90.853  89.238  74.470  1.00  0.00    -0.493 OA
ATOM     14  C   UNL     1      90.002  89.772  73.439  1.00  0.00     0.278 C 
ENDBRANCH   8  13
BRANCH   9  15
ATOM     15  O   UNL     1      89.622  87.995  76.650  1.00  0.00    -0.504 OA
ATOM     16  H   UNL     1      89.149  87.760  77.451  1.00  0.00     0.293 HD
ENDBRANCH   9  15
ENDBRANCH   6   7
ENDBRANCH   3   6
ENDBRANCH   1   2
BRANCH   1  17
ATOM     17  C   UNL     1      95.910  94.554  74.992  1.00  0.00     0.010 C 
BRANCH  17  18
ATOM     18  C   UNL     1      96.595  95.882  75.421  1.00  0.00     0.005 C 
BRANCH  18  19
ATOM     19  C   UNL     1      95.661  97.110  75.249  1.00  0.00     0.027 C 
BRANCH  19  20
ATOM     20  C   UNL     1      94.950  97.084  73.979  1.00  0.00    -0.031 C 
ATOM     21  C   UNL     1      94.565  98.183  73.305  1.00  0.00    -0.028 C 
BRANCH  21  22
ATOM     22  C   UNL     1      93.869  98.132  72.020  1.00  0.00     0.005 C 
ATOM     23  C   UNL     1      92.905  99.335  71.824  1.00  0.00     0.012 C 
ATOM     24  C   UNL     1      94.894  98.050  70.858  1.00  0.00     0.012 C 
ENDBRANCH  21  22
ENDBRANCH  19  20
ENDBRANCH  18  19
ENDBRANCH  17  18
ENDBRANCH   1  17
TORSDOF 10
ENDMDL
MODEL 3
REMARK VINA RESULT:    -5.787     27.643     30.623
REMARK INTER + INTRA:         -10.085
REMARK INTER:                  -8.664
REMARK INTRA:                  -1.421
REMARK UNBOUND:                -1.084
REMARK SMILES COc1cc(CNC(=O)CCCC/C=C/C(C)C)ccc1O
REMARK SMILES IDX 10 1 8 2 7 3 9 5 6 6 5 7 3 8 21 9 4 10 20 11 19 12 2 13 1 14
REMARK SMILES IDX 22 15 11 17 12 18 13 19 14 20 15 21 16 22 17 23 18 24
REMARK H PARENT 7 4 22 16
REMARK Flexibility Score: inf
ROOT
ATOM      1  C   UNL     1      80.133  65.969  74.142  1.00  0.00     0.100 C 
ENDROOT
BRANCH   1   2
ATOM      2  C   UNL     1      81.300  65.729  75.013  1.00  0.00     0.220 C 
ATOM      3  N   UNL     1      81.870  66.757  75.702  1.00  0.00    -0.352 N 
ATOM      4  H   UNL     1      81.448  67.662  75.546  1.00  0.00     0.163 HD
ATOM      5  O   UNL     1      81.733  64.556  75.114  1.00  0.00    -0.275 OA
BRANCH   3   6
ATOM      6  C   UNL     1      82.979  66.625  76.592  1.00  0.00     0.151 C 
BRANCH   6   7
ATOM      7  C   UNL     1      84.055  67.603  76.273  1.00  0.00    -0.025 A 
ATOM      8  C   UNL     1      85.697  69.281  77.018  1.00  0.00     0.160 A 
ATOM      9  C   UNL     1      86.122  69.457  75.685  1.00  0.00     0.157 A 
ATOM     10  C   UNL     1      84.667  68.358  77.299  1.00  0.00     0.056 A 
ATOM     11  C   UNL     1      85.507  68.726  74.649  1.00  0.00     0.050 A 
ATOM     12  C   UNL     1      84.489  67.798  74.941  1.00  0.00     0.009 A 
BRANCH   8  13
ATOM     13  O   UNL     1      86.246  70.038  78.021  1.00  0.00    -0.493 OA
ATOM     14  C   UNL     1      87.310  69.383  78.736  1.00  0.00     0.278 C 
ENDBRANCH   8  13
BRANCH   9  15
ATOM     15  O   UNL     1      87.119  70.328  75.382  1.00  0.00    -0.504 OA
ATOM     16  H   UNL     1      87.482  70.112  74.519  1.00  0.00     0.293 HD
ENDBRANCH   9  15
ENDBRANCH   6   7
ENDBRANCH   3   6
ENDBRANCH   1   2
BRANCH   1  17
ATOM     17  C   UNL     1      80.094  64.975  72.950  1.00  0.00     0.010 C 
BRANCH  17  18
ATOM     18  C   UNL     1      80.244  65.679  71.572  1.00  0.00     0.005 C 
BRANCH  18  19
ATOM     19  C   UNL     1      80.200  67.226  71.691  1.00  0.00     0.027 C 
BRANCH  19  20
ATOM     20  C   UNL     1      81.353  67.856  71.063  1.00  0.00    -0.031 C 
ATOM     21  C   UNL     1      82.528  68.068  71.682  1.00  0.00    -0.028 C 
BRANCH  21  22
ATOM     22  C   UNL     1      83.681  68.685  71.026  1.00  0.00     0.005 C 
ATOM     23  C   UNL     1      83.931  70.138  71.518  1.00  0.00     0.012 C 
ATOM     24  C   UNL     1      84.944  67.809  71.225  1.00  0.00     0.012 C 
ENDBRANCH  21  22
ENDBRANCH  19  20
ENDBRANCH  18  19
ENDBRANCH  17  18
ENDBRANCH   1  17
TORSDOF 10
ENDMDL
MODEL 4
REMARK VINA RESULT:    -5.763      3.759      7.640
REMARK INTER + INTRA:         -10.047
REMARK INTER:                  -9.609
REMARK INTRA:                  -0.438
REMARK UNBOUND:                -1.084
REMARK SMILES COc1cc(CNC(=O)CCCC/C=C/C(C)C)ccc1O
REMARK SMILES IDX 10 1 8 2 7 3 9 5 6 6 5 7 3 8 21 9 4 10 20 11 19 12 2 13 1 14
REMARK SMILES IDX 22 15 11 17 12 18 13 19 14 20 15 21 16 22 17 23 18 24
REMARK H PARENT 7 4 22 16
REMARK Flexibility Score: inf
ROOT
ATOM      1  C   UNL     1      95.209  93.924  75.956  1.00  0.00     0.100 C 
ENDROOT
BRANCH   1   2
ATOM      2  C   UNL     1      93.768  93.773  75.677  1.00  0.00     0.220 C 
ATOM      3  N   UNL     1      92.842  94.150  76.602  1.00  0.00    -0.352 N 
ATOM      4  H   UNL     1      93.224  94.505  77.468  1.00  0.00     0.163 HD
ATOM      5  O   UNL     1      93.425  93.312  74.562  1.00  0.00    -0.275 OA
BRANCH   3   6
ATOM      6  C   UNL     1      91.428  94.075  76.418  1.00  0.00     0.151 C 
BRANCH   6   7
ATOM      7  C   UNL     1      90.918  92.698  76.657  1.00  0.00    -0.025 A 
ATOM      8  C   UNL     1      90.071  90.559  75.778  1.00  0.00     0.160 A 
ATOM      9  C   UNL     1      89.962  90.061  77.093  1.00  0.00     0.157 A 
ATOM     10  C   UNL     1      90.545  91.872  75.573  1.00  0.00     0.056 A 
ATOM     11  C   UNL     1      90.311  90.880  78.185  1.00  0.00     0.050 A 
ATOM     12  C   UNL     1      90.795  92.185  77.970  1.00  0.00     0.009 A 
BRANCH   8  13
ATOM     13  O   UNL     1      89.670  89.789  74.716  1.00  0.00    -0.493 OA
ATOM     14  C   UNL     1      88.487  90.273  74.054  1.00  0.00     0.278 C 
ENDBRANCH   8  13
BRANCH   9  15
ATOM     15  O   UNL     1      89.522  88.797  77.325  1.00  0.00    -0.504 OA
ATOM     16  H   UNL     1      89.535  88.621  78.269  1.00  0.00     0.293 HD
ENDBRANCH   9  15
ENDBRANCH   6   7
ENDBRANCH   3   6
ENDBRANCH   1   2
BRANCH   1  17
ATOM     17  C   UNL     1      95.883  94.910  74.964  1.00  0.00     0.010 C 
BRANCH  17  18
ATOM     18  C   UNL     1      96.145  96.310  75.588  1.00  0.00     0.005 C 
BRANCH  18  19
ATOM     19  C   UNL     1      97.206  96.264  76.720  1.00  0.00     0.027 C 
BRANCH  19  20
ATOM     20  C   UNL     1      96.621  95.909  78.004  1.00  0.00    -0.031 C 
ATOM     21  C   UNL     1      97.038  96.398  79.186  1.00  0.00    -0.028 C 
BRANCH  21  22
ATOM     22  C   UNL     1      96.422  96.042  80.464  1.00  0.00     0.005 C 
ATOM     23  C   UNL     1      95.136  95.189  80.281  1.00  0.00     0.012 C 
ATOM     24  C   UNL     1      97.448  95.310  81.368  1.00  0.00     0.012 C 
ENDBRANCH  21  22
ENDBRANCH  19  20
ENDBRANCH  18  19
ENDBRANCH  17  18
ENDBRANCH   1  17
TORSDOF 10
ENDMDL
MODEL 5
REMARK VINA RESULT:    -5.669     29.805     32.146
REMARK INTER + INTRA:          -9.902
REMARK INTER:                  -9.043
REMARK INTRA:                  -0.859
REMARK UNBOUND:                -1.084
REMARK SMILES COc1cc(CNC(=O)CCCC/C=C/C(C)C)ccc1O
REMARK SMILES IDX 10 1 8 2 7 3 9 5 6 6 5 7 3 8 21 9 4 10 20 11 19 12 2 13 1 14
REMARK SMILES IDX 22 15 11 17 12 18 13 19 14 20 15 21 16 22 17 23 18 24
REMARK H PARENT 7 4 22 16
REMARK Flexibility Score: inf
ROOT
ATOM      1  C   UNL     1      82.239  66.245  76.210  1.00  0.00     0.100 C 
ENDROOT
BRANCH   1   2
ATOM      2  C   UNL     1      83.654  66.118  76.607  1.00  0.00     0.220 C 
ATOM      3  N   UNL     1      84.137  64.935  77.080  1.00  0.00    -0.352 N 
ATOM      4  H   UNL     1      83.453  64.194  77.151  1.00  0.00     0.163 HD
ATOM      5  O   UNL     1      84.398  67.120  76.475  1.00  0.00    -0.275 OA
BRANCH   3   6
ATOM      6  C   UNL     1      85.493  64.700  77.459  1.00  0.00     0.151 C 
BRANCH   6   7
ATOM      7  C   UNL     1      85.670  64.782  78.935  1.00  0.00    -0.025 A 
ATOM      8  C   UNL     1      86.488  65.992  80.917  1.00  0.00     0.160 A 
ATOM      9  C   UNL     1      85.997  64.964  81.748  1.00  0.00     0.157 A 
ATOM     10  C   UNL     1      86.322  65.891  79.520  1.00  0.00     0.056 A 
ATOM     11  C   UNL     1      85.362  63.843  81.178  1.00  0.00     0.050 A 
ATOM     12  C   UNL     1      85.190  63.757  79.783  1.00  0.00     0.009 A 
BRANCH   8  13
ATOM     13  O   UNL     1      87.165  67.053  81.462  1.00  0.00    -0.493 OA
ATOM     14  C   UNL     1      88.597  66.954  81.353  1.00  0.00     0.278 C 
ENDBRANCH   8  13
BRANCH   9  15
ATOM     15  O   UNL     1      86.129  65.037  83.098  1.00  0.00    -0.504 OA
ATOM     16  H   UNL     1      86.177  65.958  83.366  1.00  0.00     0.293 HD
ENDBRANCH   9  15
ENDBRANCH   6   7
ENDBRANCH   3   6
ENDBRANCH   1   2
BRANCH   1  17
ATOM     17  C   UNL     1      81.559  64.857  76.063  1.00  0.00     0.010 C 
BRANCH  17  18
ATOM     18  C   UNL     1      81.564  64.333  74.600  1.00  0.00     0.005 C 
BRANCH  18  19
ATOM     19  C   UNL     1      80.151  64.361  73.957  1.00  0.00     0.027 C 
BRANCH  19  20
ATOM     20  C   UNL     1      80.129  65.115  72.714  1.00  0.00    -0.031 C 
ATOM     21  C   UNL     1      81.195  65.758  72.201  1.00  0.00    -0.028 C 
BRANCH  21  22
ATOM     22  C   UNL     1      81.155  66.495  70.938  1.00  0.00     0.005 C 
ATOM     23  C   UNL     1      79.728  66.540  70.326  1.00  0.00     0.012 C 
ATOM     24  C   UNL     1      81.718  67.926  71.135  1.00  0.00     0.012 C 
ENDBRANCH  21  22
ENDBRANCH  19  20
ENDBRANCH  18  19
ENDBRANCH  17  18
ENDBRANCH   1  17
TORSDOF 10
ENDMDL
MODEL 6
REMARK VINA RESULT:    -5.654      4.193      8.343
REMARK INTER + INTRA:          -9.877
REMARK INTER:                  -9.179
REMARK INTRA:                  -0.698
REMARK UNBOUND:                -1.084
REMARK SMILES COc1cc(CNC(=O)CCCC/C=C/C(C)C)ccc1O
REMARK SMILES IDX 10 1 8 2 7 3 9 5 6 6 5 7 3 8 21 9 4 10 20 11 19 12 2 13 1 14
REMARK SMILES IDX 22 15 11 17 12 18 13 19 14 20 15 21 16 22 17 23 18 24
REMARK H PARENT 7 4 22 16
REMARK Flexibility Score: inf
ROOT
ATOM      1  C   UNL     1      95.448  93.777  77.058  1.00  0.00     0.100 C 
ENDROOT
BRANCH   1   2
ATOM      2  C   UNL     1      94.029  93.936  76.687  1.00  0.00     0.220 C 
ATOM      3  N   UNL     1      93.087  93.079  77.172  1.00  0.00    -0.352 N 
ATOM      4  H   UNL     1      93.445  92.342  77.765  1.00  0.00     0.163 HD
ATOM      5  O   UNL     1      93.716  94.891  75.936  1.00  0.00    -0.275 OA
BRANCH   3   6
ATOM      6  C   UNL     1      91.688  93.166  76.900  1.00  0.00     0.151 C 
BRANCH   6   7
ATOM      7  C   UNL     1      91.283  92.231  75.816  1.00  0.00    -0.025 A 
ATOM      8  C   UNL     1      90.367  90.056  75.111  1.00  0.00     0.160 A 
ATOM      9  C   UNL     1      90.487  90.443  73.760  1.00  0.00     0.157 A 
ATOM     10  C   UNL     1      90.767  90.952  76.125  1.00  0.00     0.056 A 
ATOM     11  C   UNL     1      91.018  91.707  73.436  1.00  0.00     0.050 A 
ATOM     12  C   UNL     1      91.404  92.599  74.455  1.00  0.00     0.009 A 
BRANCH   8  13
ATOM     13  O   UNL     1      89.912  88.802  75.430  1.00  0.00    -0.493 OA
ATOM     14  C   UNL     1      90.795  88.060  76.292  1.00  0.00     0.278 C 
ENDBRANCH   8  13
BRANCH   9  15
ATOM     15  O   UNL     1      90.098  89.610  72.760  1.00  0.00    -0.504 OA
ATOM     16  H   UNL     1      90.115  90.082  71.925  1.00  0.00     0.293 HD
ENDBRANCH   9  15
ENDBRANCH   6   7
ENDBRANCH   3   6
ENDBRANCH   1   2
BRANCH   1  17
ATOM     17  C   UNL     1      96.297  94.996  76.608  1.00  0.00     0.010 C 
BRANCH  17  18
ATOM     18  C   UNL     1      96.974  95.733  77.797  1.00  0.00     0.005 C 
BRANCH  18  19
ATOM     19  C   UNL     1      96.302  95.402  79.157  1.00  0.00     0.027 C 
BRANCH  19  20
ATOM     20  C   UNL     1      96.372  96.518  80.088  1.00  0.00    -0.031 C 
ATOM     21  C   UNL     1      96.746  96.406  81.376  1.00  0.00    -0.028 C 
BRANCH  21  22
ATOM     22  C   UNL     1      96.828  97.546  82.289  1.00  0.00     0.005 C 
ATOM     23  C   UNL     1      96.110  98.805  81.727  1.00  0.00     0.012 C 
ATOM     24  C   UNL     1      96.259  97.160  83.680  1.00  0.00     0.012 C 
ENDBRANCH  21  22
ENDBRANCH  19  20
ENDBRANCH  18  19
ENDBRANCH  17  18
ENDBRANCH   1  17
TORSDOF 10
ENDMDL
MODEL 7
REMARK VINA RESULT:    -5.645     15.228     18.178
REMARK INTER + INTRA:          -9.863
REMARK INTER:                  -8.162
REMARK INTRA:                  -1.702
REMARK UNBOUND:                -1.084
REMARK SMILES COc1cc(CNC(=O)CCCC/C=C/C(C)C)ccc1O
REMARK SMILES IDX 10 1 8 2 7 3 9 5 6 6 5 7 3 8 21 9 4 10 20 11 19 12 2 13 1 14
REMARK SMILES IDX 22 15 11 17 12 18 13 19 14 20 15 21 16 22 17 23 18 24
REMARK H PARENT 7 4 22 16
REMARK Flexibility Score: inf
ROOT
ATOM      1  C   UNL     1      82.810  92.458  88.313  1.00  0.00     0.100 C 
ENDROOT
BRANCH   1   2
ATOM      2  C   UNL     1      83.313  91.238  87.652  1.00  0.00     0.220 C 
ATOM      3  N   UNL     1      83.246  91.108  86.298  1.00  0.00    -0.352 N 
ATOM      4  H   UNL     1      82.814  91.884  85.816  1.00  0.00     0.163 HD
ATOM      5  O   UNL     1      83.822  90.343  88.370  1.00  0.00    -0.275 OA
BRANCH   3   6
ATOM      6  C   UNL     1      83.732  89.985  85.561  1.00  0.00     0.151 C 
BRANCH   6   7
ATOM      7  C   UNL     1      82.634  89.040  85.217  1.00  0.00    -0.025 A 
ATOM      8  C   UNL     1      81.546  86.849  85.496  1.00  0.00     0.160 A 
ATOM      9  C   UNL     1      80.538  87.234  84.588  1.00  0.00     0.157 A 
ATOM     10  C   UNL     1      82.585  87.754  85.801  1.00  0.00     0.056 A 
ATOM     11  C   UNL     1      80.585  88.505  83.984  1.00  0.00     0.050 A 
ATOM     12  C   UNL     1      81.620  89.406  84.303  1.00  0.00     0.009 A 
BRANCH   8  13
ATOM     13  O   UNL     1      81.541  85.589  86.037  1.00  0.00    -0.493 OA
ATOM     14  C   UNL     1      82.848  85.000  86.167  1.00  0.00     0.278 C 
ENDBRANCH   8  13
BRANCH   9  15
ATOM     15  O   UNL     1      79.517  86.391  84.284  1.00  0.00    -0.504 OA
ATOM     16  H   UNL     1      78.787  86.541  84.889  1.00  0.00     0.293 HD
ENDBRANCH   9  15
ENDBRANCH   6   7
ENDBRANCH   3   6
ENDBRANCH   1   2
BRANCH   1  17
ATOM     17  C   UNL     1      82.337  92.170  89.764  1.00  0.00     0.010 C 
BRANCH  17  18
ATOM     18  C   UNL     1      80.894  92.676  90.041  1.00  0.00     0.005 C 
BRANCH  18  19
ATOM     19  C   UNL     1      79.813  91.735  89.444  1.00  0.00     0.027 C 
BRANCH  19  20
ATOM     20  C   UNL     1      80.211  90.337  89.504  1.00  0.00    -0.031 C 
ATOM     21  C   UNL     1      80.112  89.477  88.474  1.00  0.00    -0.028 C 
BRANCH  21  22
ATOM     22  C   UNL     1      80.537  88.080  88.551  1.00  0.00     0.005 C 
ATOM     23  C   UNL     1      81.581  87.843  89.677  1.00  0.00     0.012 C 
ATOM     24  C   UNL     1      79.306  87.154  88.733  1.00  0.00     0.012 C 
ENDBRANCH  21  22
ENDBRANCH  19  20
ENDBRANCH  18  19
ENDBRANCH  17  18
ENDBRANCH   1  17
TORSDOF 10
ENDMDL
MODEL 8
REMARK VINA RESULT:    -5.629     20.000     22.319
REMARK INTER + INTRA:          -9.839
REMARK INTER:                  -8.945
REMARK INTRA:                  -0.894
REMARK UNBOUND:                -1.084
REMARK SMILES COc1cc(CNC(=O)CCCC/C=C/C(C)C)ccc1O
REMARK SMILES IDX 10 1 8 2 7 3 9 5 6 6 5 7 3 8 21 9 4 10 20 11 19 12 2 13 1 14
REMARK SMILES IDX 22 15 11 17 12 18 13 19 14 20 15 21 16 22 17 23 18 24
REMARK H PARENT 7 4 22 16
REMARK Flexibility Score: inf
ROOT
ATOM      1  C   UNL     1      75.926  89.652  66.271  1.00  0.00     0.100 C 
ENDROOT
BRANCH   1   2
ATOM      2  C   UNL     1      75.717  91.103  66.106  1.00  0.00     0.220 C 
ATOM      3  N   UNL     1      76.430  91.803  65.180  1.00  0.00    -0.352 N 
ATOM      4  H   UNL     1      77.103  91.258  64.658  1.00  0.00     0.163 HD
ATOM      5  O   UNL     1      74.853  91.663  66.824  1.00  0.00    -0.275 OA
BRANCH   3   6
ATOM      6  C   UNL     1      76.281  93.199  64.921  1.00  0.00     0.151 C 
BRANCH   6   7
ATOM      7  C   UNL     1      77.316  94.001  65.629  1.00  0.00    -0.025 A 
ATOM      8  C   UNL     1      78.104  95.133  67.669  1.00  0.00     0.160 A 
ATOM      9  C   UNL     1      79.287  95.511  67.002  1.00  0.00     0.157 A 
ATOM     10  C   UNL     1      77.129  94.384  66.977  1.00  0.00     0.056 A 
ATOM     11  C   UNL     1      79.478  95.153  65.653  1.00  0.00     0.050 A 
ATOM     12  C   UNL     1      78.505  94.395  64.973  1.00  0.00     0.009 A 
BRANCH   8  13
ATOM     13  O   UNL     1      77.884  95.535  68.962  1.00  0.00    -0.493 OA
ATOM     14  C   UNL     1      76.852  94.795  69.639  1.00  0.00     0.278 C 
ENDBRANCH   8  13
BRANCH   9  15
ATOM     15  O   UNL     1      80.251  96.221  67.643  1.00  0.00    -0.504 OA
ATOM     16  H   UNL     1      80.393  97.055  67.188  1.00  0.00     0.293 HD
ENDBRANCH   9  15
ENDBRANCH   6   7
ENDBRANCH   3   6
ENDBRANCH   1   2
BRANCH   1  17
ATOM     17  C   UNL     1      76.452  88.997  64.966  1.00  0.00     0.010 C 
BRANCH  17  18
ATOM     18  C   UNL     1      77.933  88.536  65.075  1.00  0.00     0.005 C 
BRANCH  18  19
ATOM     19  C   UNL     1      78.304  88.073  66.510  1.00  0.00     0.027 C 
BRANCH  19  20
ATOM     20  C   UNL     1      78.121  86.640  66.687  1.00  0.00    -0.031 C 
ATOM     21  C   UNL     1      77.348  86.089  67.640  1.00  0.00    -0.028 C 
BRANCH  21  22
ATOM     22  C   UNL     1      77.163  84.645  67.787  1.00  0.00     0.005 C 
ATOM     23  C   UNL     1      75.959  84.296  68.705  1.00  0.00     0.012 C 
ATOM     24  C   UNL     1      77.008  83.980  66.395  1.00  0.00     0.012 C 
ENDBRANCH  21  22
ENDBRANCH  19  20
ENDBRANCH  18  19
ENDBRANCH  17  18
ENDBRANCH   1  17
TORSDOF 10
ENDMDL
MODEL 9
REMARK VINA RESULT:    -5.546     22.848     27.111
REMARK INTER + INTRA:          -9.710
REMARK INTER:                  -8.276
REMARK INTRA:                  -1.435
REMARK UNBOUND:                -1.084
REMARK SMILES COc1cc(CNC(=O)CCCC/C=C/C(C)C)ccc1O
REMARK SMILES IDX 10 1 8 2 7 3 9 5 6 6 5 7 3 8 21 9 4 10 20 11 19 12 2 13 1 14
REMARK SMILES IDX 22 15 11 17 12 18 13 19 14 20 15 21 16 22 17 23 18 24
REMARK H PARENT 7 4 22 16
REMARK Flexibility Score: inf
ROOT
ATOM      1  C   UNL     1      76.497  87.070  63.716  1.00  0.00     0.100 C 
ENDROOT
BRANCH   1   2
ATOM      2  C   UNL     1      76.840  85.635  63.719  1.00  0.00     0.220 C 
ATOM      3  N   UNL     1      75.942  84.709  63.279  1.00  0.00    -0.352 N 
ATOM      4  H   UNL     1      75.050  85.084  62.988  1.00  0.00     0.163 HD
ATOM      5  O   UNL     1      77.983  85.300  64.113  1.00  0.00    -0.275 OA
BRANCH   3   6
ATOM      6  C   UNL     1      76.188  83.304  63.212  1.00  0.00     0.151 C 
BRANCH   6   7
ATOM      7  C   UNL     1      74.954  82.520  63.494  1.00  0.00    -0.025 A 
ATOM      8  C   UNL     1      72.651  82.412  64.357  1.00  0.00     0.160 A 
ATOM      9  C   UNL     1      72.588  81.044  64.019  1.00  0.00     0.157 A 
ATOM     10  C   UNL     1      73.833  83.135  64.093  1.00  0.00     0.056 A 
ATOM     11  C   UNL     1      73.705  80.412  63.439  1.00  0.00     0.050 A 
ATOM     12  C   UNL     1      74.877  81.145  63.169  1.00  0.00     0.009 A 
BRANCH   8  13
ATOM     13  O   UNL     1      71.590  83.016  64.982  1.00  0.00    -0.493 OA
ATOM     14  C   UNL     1      71.415  84.402  64.634  1.00  0.00     0.278 C 
ENDBRANCH   8  13
BRANCH   9  15
ATOM     15  O   UNL     1      71.460  80.322  64.248  1.00  0.00    -0.504 OA
ATOM     16  H   UNL     1      71.027  80.646  65.041  1.00  0.00     0.293 HD
ENDBRANCH   9  15
ENDBRANCH   6   7
ENDBRANCH   3   6
ENDBRANCH   1   2
BRANCH   1  17
ATOM     17  C   UNL     1      77.702  87.948  64.148  1.00  0.00     0.010 C 
BRANCH  17  18
ATOM     18  C   UNL     1      77.480  88.649  65.517  1.00  0.00     0.005 C 
BRANCH  18  19
ATOM     19  C   UNL     1      78.360  88.041  66.642  1.00  0.00     0.027 C 
BRANCH  19  20
ATOM     20  C   UNL     1      77.802  86.804  67.166  1.00  0.00    -0.031 C 
ATOM     21  C   UNL     1      76.490  86.597  67.380  1.00  0.00    -0.028 C 
BRANCH  21  22
ATOM     22  C   UNL     1      75.948  85.337  67.888  1.00  0.00     0.005 C 
ATOM     23  C   UNL     1      74.443  85.161  67.544  1.00  0.00     0.012 C 
ATOM     24  C   UNL     1      76.781  84.142  67.356  1.00  0.00     0.012 C 
ENDBRANCH  21  22
ENDBRANCH  19  20
ENDBRANCH  18  19
ENDBRANCH  17  18
ENDBRANCH   1  17
TORSDOF 10
ENDMDL
MODEL 10
REMARK VINA RESULT:    -5.498     30.139     32.358
REMARK INTER + INTRA:          -9.635
REMARK INTER:                  -8.144
REMARK INTRA:                  -1.491
REMARK UNBOUND:                -1.084
REMARK SMILES COc1cc(CNC(=O)CCCC/C=C/C(C)C)ccc1O
REMARK SMILES IDX 10 1 8 2 7 3 9 5 6 6 5 7 3 8 21 9 4 10 20 11 19 12 2 13 1 14
REMARK SMILES IDX 22 15 11 17 12 18 13 19 14 20 15 21 16 22 17 23 18 24
REMARK H PARENT 7 4 22 16
REMARK Flexibility Score: inf
ROOT
ATOM      1  C   UNL     1      84.609  66.923  71.457  1.00  0.00     0.100 C 
ENDROOT
BRANCH   1   2
ATOM      2  C   UNL     1      84.629  65.587  72.085  1.00  0.00     0.220 C 
ATOM      3  N   UNL     1      83.825  65.312  73.150  1.00  0.00    -0.352 N 
ATOM      4  H   UNL     1      83.258  66.086  73.467  1.00  0.00     0.163 HD
ATOM      5  O   UNL     1      85.386  64.714  71.596  1.00  0.00    -0.275 OA
BRANCH   3   6
ATOM      6  C   UNL     1      83.746  64.047  73.806  1.00  0.00     0.151 C 
BRANCH   6   7
ATOM      7  C   UNL     1      84.178  64.141  75.228  1.00  0.00    -0.025 A 
ATOM      8  C   UNL     1      84.991  65.489  77.121  1.00  0.00     0.160 A 
ATOM      9  C   UNL     1      84.986  64.342  77.941  1.00  0.00     0.157 A 
ATOM     10  C   UNL     1      84.589  65.378  75.773  1.00  0.00     0.056 A 
ATOM     11  C   UNL     1      84.596  63.098  77.406  1.00  0.00     0.050 A 
ATOM     12  C   UNL     1      84.186  62.999  76.062  1.00  0.00     0.009 A 
BRANCH   8  13
ATOM     13  O   UNL     1      85.431  66.689  77.619  1.00  0.00    -0.493 OA
ATOM     14  C   UNL     1      86.798  66.996  77.286  1.00  0.00     0.278 C 
ENDBRANCH   8  13
BRANCH   9  15
ATOM     15  O   UNL     1      85.353  64.417  79.246  1.00  0.00    -0.504 OA
ATOM     16  H   UNL     1      86.311  64.453  79.308  1.00  0.00     0.293 HD
ENDBRANCH   9  15
ENDBRANCH   6   7
ENDBRANCH   3   6
ENDBRANCH   1   2
BRANCH   1  17
ATOM     17  C   UNL     1      83.422  67.073  70.468  1.00  0.00     0.010 C 
BRANCH  17  18
ATOM     18  C   UNL     1      82.417  68.181  70.892  1.00  0.00     0.005 C 
BRANCH  18  19
ATOM     19  C   UNL     1      80.941  67.714  70.779  1.00  0.00     0.027 C 
BRANCH  19  20
ATOM     20  C   UNL     1      80.581  66.776  71.832  1.00  0.00    -0.031 C 
ATOM     21  C   UNL     1      80.560  67.082  73.142  1.00  0.00    -0.028 C 
BRANCH  21  22
ATOM     22  C   UNL     1      80.175  66.129  74.182  1.00  0.00     0.005 C 
ATOM     23  C   UNL     1      80.143  64.666  73.658  1.00  0.00     0.012 C 
ATOM     24  C   UNL     1      81.122  66.258  75.404  1.00  0.00     0.012 C 
ENDBRANCH  21  22
ENDBRANCH  19  20
ENDBRANCH  18  19
ENDBRANCH  17  18
ENDBRANCH   1  17
TORSDOF 10
ENDMDL
