MODEL 1
REMARK VINA RESULT:    -5.117      0.000      0.000
REMARK INTER + INTRA:         -10.696
REMARK INTER:                  -8.408
REMARK INTRA:                  -2.289
REMARK UNBOUND:                -2.289
REMARK SMILES CCCCC[C@H](O)CC(=O)CCc1ccc(O)c(OC)c1
REMARK SMILES IDX 8 1 6 2 7 3 5 5 4 6 3 7 2 8 1 9 9 10 10 11 11 12 12 13 13 14
REMARK SMILES IDX 21 15 14 16 18 17 15 18 16 19 19 20 20 21 17 22
REMARK H PARENT 7 4 17 23
REMARK Flexibility Score: inf
ROOT
ATOM      1  C   UNL     1      76.035  81.293  63.783  1.00  0.00     0.107 C 
ENDROOT
BRANCH   1   2
ATOM      2  C   UNL     1      75.810  82.549  62.938  1.00  0.00     0.121 C 
BRANCH   2   3
ATOM      3  O   UNL     1      74.490  83.044  63.150  1.00  0.00    -0.393 OA
ATOM      4  H   UNL     1      74.454  83.419  64.047  1.00  0.00     0.210 HD
ENDBRANCH   2   3
BRANCH   2   5
ATOM      5  C   UNL     1      76.821  83.663  63.236  1.00  0.00     0.032 C 
BRANCH   5   6
ATOM      6  C   UNL     1      76.168  84.863  63.933  1.00  0.00     0.003 C 
BRANCH   6   7
ATOM      7  C   UNL     1      77.182  85.879  64.467  1.00  0.00    -0.000 C 
BRANCH   7   8
ATOM      8  C   UNL     1      76.550  87.195  64.918  1.00  0.00    -0.003 C 
ATOM      9  C   UNL     1      77.087  87.633  66.272  1.00  0.00     0.004 C 
ENDBRANCH   7   8
ENDBRANCH   6   7
ENDBRANCH   5   6
ENDBRANCH   2   5
ENDBRANCH   1   2
BRANCH   1  10
ATOM     10  C   UNL     1      74.905  81.024  64.763  1.00  0.00     0.135 C 
ATOM     11  O   UNL     1      73.830  80.563  64.378  1.00  0.00    -0.300 OA
BRANCH  10  12
ATOM     12  C   UNL     1      75.191  81.309  66.229  1.00  0.00     0.080 C 
BRANCH  12  13
ATOM     13  C   UNL     1      74.765  82.708  66.678  1.00  0.00     0.043 C 
BRANCH  13  14
ATOM     14  C   UNL     1      75.882  83.485  67.335  1.00  0.00    -0.044 A 
ATOM     15  C   UNL     1      75.588  84.451  68.297  1.00  0.00     0.054 A 
ATOM     16  C   UNL     1      77.207  83.236  66.978  1.00  0.00     0.008 A 
ATOM     17  C   UNL     1      76.620  85.167  68.903  1.00  0.00     0.160 A 
ATOM     18  C   UNL     1      78.240  83.952  67.584  1.00  0.00     0.050 A 
ATOM     19  C   UNL     1      77.946  84.918  68.546  1.00  0.00     0.157 A 
BRANCH  17  20
ATOM     20  O   UNL     1      76.321  86.108  69.841  1.00  0.00    -0.493 OA
ATOM     21  C   UNL     1      75.252  87.004  69.543  1.00  0.00     0.278 C 
ENDBRANCH  17  20
BRANCH  19  22
ATOM     22  O   UNL     1      78.962  85.611  69.131  1.00  0.00    -0.504 OA
ATOM     23  H   UNL     1      78.644  85.996  69.965  1.00  0.00     0.293 HD
ENDBRANCH  19  22
ENDBRANCH  13  14
ENDBRANCH  12  13
ENDBRANCH  10  12
ENDBRANCH   1  10
TORSDOF 12
ENDMDL
MODEL 2
REMARK VINA RESULT:    -5.111      1.972      5.796
REMARK INTER + INTRA:         -10.687
REMARK INTER:                  -9.021
REMARK INTRA:                  -1.666
REMARK UNBOUND:                -2.289
REMARK SMILES CCCCC[C@H](O)CC(=O)CCc1ccc(O)c(OC)c1
REMARK SMILES IDX 8 1 6 2 7 3 5 5 4 6 3 7 2 8 1 9 9 10 10 11 11 12 12 13 13 14
REMARK SMILES IDX 21 15 14 16 18 17 15 18 16 19 19 20 20 21 17 22
REMARK H PARENT 7 4 17 23
REMARK Flexibility Score: inf
ROOT
ATOM      1  C   UNL     1      77.144  83.928  69.102  1.00  0.00     0.107 C 
ENDROOT
BRANCH   1   2
ATOM      2  C   UNL     1      77.671  85.147  69.862  1.00  0.00     0.121 C 
BRANCH   2   3
ATOM      3  O   UNL     1      78.722  85.762  69.121  1.00  0.00    -0.393 OA
ATOM      4  H   UNL     1      79.279  86.257  69.747  1.00  0.00     0.210 HD
ENDBRANCH   2   3
BRANCH   2   5
ATOM      5  C   UNL     1      76.584  86.188  70.155  1.00  0.00     0.032 C 
BRANCH   5   6
ATOM      6  C   UNL     1      76.775  87.469  69.333  1.00  0.00     0.003 C 
BRANCH   6   7
ATOM      7  C   UNL     1      75.732  87.639  68.224  1.00  0.00    -0.000 C 
BRANCH   7   8
ATOM      8  C   UNL     1      76.284  88.292  66.959  1.00  0.00    -0.003 C 
ATOM      9  C   UNL     1      77.515  87.559  66.449  1.00  0.00     0.004 C 
ENDBRANCH   7   8
ENDBRANCH   6   7
ENDBRANCH   5   6
ENDBRANCH   2   5
ENDBRANCH   1   2
BRANCH   1  10
ATOM     10  C   UNL     1      77.621  83.873  67.660  1.00  0.00     0.135 C 
ATOM     11  O   UNL     1      78.769  83.525  67.386  1.00  0.00    -0.300 OA
BRANCH  10  12
ATOM     12  C   UNL     1      76.599  84.225  66.590  1.00  0.00     0.080 C 
BRANCH  12  13
ATOM     13  C   UNL     1      75.150  84.146  67.074  1.00  0.00     0.043 C 
BRANCH  13  14
ATOM     14  C   UNL     1      74.361  83.046  66.405  1.00  0.00    -0.044 A 
ATOM     15  C   UNL     1      72.967  83.094  66.393  1.00  0.00     0.054 A 
ATOM     16  C   UNL     1      75.027  81.980  65.799  1.00  0.00     0.008 A 
ATOM     17  C   UNL     1      72.240  82.077  65.774  1.00  0.00     0.160 A 
ATOM     18  C   UNL     1      74.300  80.964  65.179  1.00  0.00     0.050 A 
ATOM     19  C   UNL     1      72.906  81.012  65.168  1.00  0.00     0.157 A 
BRANCH  17  20
ATOM     20  O   UNL     1      70.878  82.135  65.769  1.00  0.00    -0.493 OA
ATOM     21  C   UNL     1      70.246  82.612  66.956  1.00  0.00     0.278 C 
ENDBRANCH  17  20
BRANCH  19  22
ATOM     22  O   UNL     1      72.206  80.014  64.560  1.00  0.00    -0.504 OA
ATOM     23  H   UNL     1      72.385  80.038  63.604  1.00  0.00     0.293 HD
ENDBRANCH  19  22
ENDBRANCH  13  14
ENDBRANCH  12  13
ENDBRANCH  10  12
ENDBRANCH   1  10
TORSDOF 12
ENDMDL
MODEL 3
REMARK VINA RESULT:    -5.067      2.146      5.984
REMARK INTER + INTRA:         -10.613
REMARK INTER:                  -9.167
REMARK INTRA:                  -1.446
REMARK UNBOUND:                -2.289
REMARK SMILES CCCCC[C@H](O)CC(=O)CCc1ccc(O)c(OC)c1
REMARK SMILES IDX 8 1 6 2 7 3 5 5 4 6 3 7 2 8 1 9 9 10 10 11 11 12 12 13 13 14
REMARK SMILES IDX 21 15 14 16 18 17 15 18 16 19 19 20 20 21 17 22
REMARK H PARENT 7 4 17 23
REMARK Flexibility Score: inf
ROOT
ATOM      1  C   UNL     1      77.304  85.598  66.436  1.00  0.00     0.107 C 
ENDROOT
BRANCH   1   2
ATOM      2  C   UNL     1      77.938  86.740  67.236  1.00  0.00     0.121 C 
BRANCH   2   3
ATOM      3  O   UNL     1      77.252  87.960  66.963  1.00  0.00    -0.393 OA
ATOM      4  H   UNL     1      76.805  88.239  67.781  1.00  0.00     0.210 HD
ENDBRANCH   2   3
BRANCH   2   5
ATOM      5  C   UNL     1      77.935  86.487  68.748  1.00  0.00     0.032 C 
BRANCH   5   6
ATOM      6  C   UNL     1      76.698  87.083  69.430  1.00  0.00     0.003 C 
BRANCH   6   7
ATOM      7  C   UNL     1      75.859  86.044  70.182  1.00  0.00    -0.000 C 
BRANCH   7   8
ATOM      8  C   UNL     1      76.682  84.890  70.751  1.00  0.00    -0.003 C 
ATOM      9  C   UNL     1      75.815  83.937  71.560  1.00  0.00     0.004 C 
ENDBRANCH   7   8
ENDBRANCH   6   7
ENDBRANCH   5   6
ENDBRANCH   2   5
ENDBRANCH   1   2
BRANCH   1  10
ATOM     10  C   UNL     1      77.828  84.229  66.837  1.00  0.00     0.135 C 
ATOM     11  O   UNL     1      79.015  83.937  66.688  1.00  0.00    -0.300 OA
BRANCH  10  12
ATOM     12  C   UNL     1      76.826  83.272  67.464  1.00  0.00     0.080 C 
BRANCH  12  13
ATOM     13  C   UNL     1      75.368  83.690  67.264  1.00  0.00     0.043 C 
BRANCH  13  14
ATOM     14  C   UNL     1      74.588  82.725  66.404  1.00  0.00    -0.044 A 
ATOM     15  C   UNL     1      73.200  82.837  66.311  1.00  0.00     0.054 A 
ATOM     16  C   UNL     1      75.255  81.720  65.702  1.00  0.00     0.008 A 
ATOM     17  C   UNL     1      72.481  81.945  65.516  1.00  0.00     0.160 A 
ATOM     18  C   UNL     1      74.535  80.828  64.907  1.00  0.00     0.050 A 
ATOM     19  C   UNL     1      73.148  80.940  64.814  1.00  0.00     0.157 A 
BRANCH  17  20
ATOM     20  O   UNL     1      71.126  82.064  65.433  1.00  0.00    -0.493 OA
ATOM     21  C   UNL     1      70.615  83.050  64.538  1.00  0.00     0.278 C 
ENDBRANCH  17  20
BRANCH  19  22
ATOM     22  O   UNL     1      72.456  80.063  64.035  1.00  0.00    -0.504 OA
ATOM     23  H   UNL     1      71.505  80.242  64.125  1.00  0.00     0.293 HD
ENDBRANCH  19  22
ENDBRANCH  13  14
ENDBRANCH  12  13
ENDBRANCH  10  12
ENDBRANCH   1  10
TORSDOF 12
ENDMDL
MODEL 4
REMARK VINA RESULT:    -4.891      1.700      2.854
REMARK INTER + INTRA:         -10.325
REMARK INTER:                  -8.095
REMARK INTRA:                  -2.231
REMARK UNBOUND:                -2.289
REMARK SMILES CCCCC[C@H](O)CC(=O)CCc1ccc(O)c(OC)c1
REMARK SMILES IDX 8 1 6 2 7 3 5 5 4 6 3 7 2 8 1 9 9 10 10 11 11 12 12 13 13 14
REMARK SMILES IDX 21 15 14 16 18 17 15 18 16 19 19 20 20 21 17 22
REMARK H PARENT 7 4 17 23
REMARK Flexibility Score: inf
ROOT
ATOM      1  C   UNL     1      75.996  82.010  65.609  1.00  0.00     0.107 C 
ENDROOT
BRANCH   1   2
ATOM      2  C   UNL     1      74.514  82.388  65.660  1.00  0.00     0.121 C 
BRANCH   2   3
ATOM      3  O   UNL     1      73.756  81.302  66.187  1.00  0.00    -0.393 OA
ATOM      4  H   UNL     1      72.820  81.460  65.972  1.00  0.00     0.210 HD
ENDBRANCH   2   3
BRANCH   2   5
ATOM      5  C   UNL     1      74.243  83.645  66.495  1.00  0.00     0.032 C 
BRANCH   5   6
ATOM      6  C   UNL     1      73.996  84.878  65.618  1.00  0.00     0.003 C 
BRANCH   6   7
ATOM      7  C   UNL     1      74.751  86.123  66.095  1.00  0.00    -0.000 C 
BRANCH   7   8
ATOM      8  C   UNL     1      75.089  87.101  64.971  1.00  0.00    -0.003 C 
ATOM      9  C   UNL     1      76.425  86.765  64.326  1.00  0.00     0.004 C 
ENDBRANCH   7   8
ENDBRANCH   6   7
ENDBRANCH   5   6
ENDBRANCH   2   5
ENDBRANCH   1   2
BRANCH   1  10
ATOM     10  C   UNL     1      76.830  82.978  64.785  1.00  0.00     0.135 C 
ATOM     11  O   UNL     1      76.579  83.177  63.597  1.00  0.00    -0.300 OA
BRANCH  10  12
ATOM     12  C   UNL     1      77.945  83.710  65.516  1.00  0.00     0.080 C 
BRANCH  12  13
ATOM     13  C   UNL     1      77.989  83.422  67.018  1.00  0.00     0.043 C 
BRANCH  13  14
ATOM     14  C   UNL     1      77.618  84.619  67.861  1.00  0.00    -0.044 A 
ATOM     15  C   UNL     1      76.802  84.458  68.980  1.00  0.00     0.054 A 
ATOM     16  C   UNL     1      78.093  85.886  67.519  1.00  0.00     0.008 A 
ATOM     17  C   UNL     1      76.461  85.565  69.759  1.00  0.00     0.160 A 
ATOM     18  C   UNL     1      77.753  86.992  68.298  1.00  0.00     0.050 A 
ATOM     19  C   UNL     1      76.936  86.831  69.417  1.00  0.00     0.157 A 
BRANCH  17  20
ATOM     20  O   UNL     1      75.663  85.396  70.850  1.00  0.00    -0.493 OA
ATOM     21  C   UNL     1      75.777  84.159  71.551  1.00  0.00     0.278 C 
ENDBRANCH  17  20
BRANCH  19  22
ATOM     22  O   UNL     1      76.610  87.919  70.170  1.00  0.00    -0.504 OA
ATOM     23  H   UNL     1      76.938  88.720  69.727  1.00  0.00     0.293 HD
ENDBRANCH  19  22
ENDBRANCH  13  14
ENDBRANCH  12  13
ENDBRANCH  10  12
ENDBRANCH   1  10
TORSDOF 12
ENDMDL
MODEL 5
REMARK VINA RESULT:    -4.796      1.425      2.149
REMARK INTER + INTRA:         -10.168
REMARK INTER:                  -7.804
REMARK INTRA:                  -2.364
REMARK UNBOUND:                -2.289
REMARK SMILES CCCCC[C@H](O)CC(=O)CCc1ccc(O)c(OC)c1
REMARK SMILES IDX 8 1 6 2 7 3 5 5 4 6 3 7 2 8 1 9 9 10 10 11 11 12 12 13 13 14
REMARK SMILES IDX 21 15 14 16 18 17 15 18 16 19 19 20 20 21 17 22
REMARK H PARENT 7 4 17 23
REMARK Flexibility Score: inf
ROOT
ATOM      1  C   UNL     1      76.374  83.127  63.617  1.00  0.00     0.107 C 
ENDROOT
BRANCH   1   2
ATOM      2  C   UNL     1      75.141  83.993  63.348  1.00  0.00     0.121 C 
BRANCH   2   3
ATOM      3  O   UNL     1      74.032  83.502  64.098  1.00  0.00    -0.393 OA
ATOM      4  H   UNL     1      74.266  83.551  65.042  1.00  0.00     0.210 HD
ENDBRANCH   2   3
BRANCH   2   5
ATOM      5  C   UNL     1      75.362  85.473  63.684  1.00  0.00     0.032 C 
BRANCH   5   6
ATOM      6  C   UNL     1      76.821  85.769  64.051  1.00  0.00     0.003 C 
BRANCH   6   7
ATOM      7  C   UNL     1      77.039  87.195  64.566  1.00  0.00    -0.000 C 
BRANCH   7   8
ATOM      8  C   UNL     1      76.545  87.412  65.995  1.00  0.00    -0.003 C 
ATOM      9  C   UNL     1      77.700  87.422  66.985  1.00  0.00     0.004 C 
ENDBRANCH   7   8
ENDBRANCH   6   7
ENDBRANCH   5   6
ENDBRANCH   2   5
ENDBRANCH   1   2
BRANCH   1  10
ATOM     10  C   UNL     1      76.048  81.841  64.360  1.00  0.00     0.135 C 
ATOM     11  O   UNL     1      75.432  80.930  63.808  1.00  0.00    -0.300 OA
BRANCH  10  12
ATOM     12  C   UNL     1      76.560  81.730  65.788  1.00  0.00     0.080 C 
BRANCH  12  13
ATOM     13  C   UNL     1      77.430  82.911  66.223  1.00  0.00     0.043 C 
BRANCH  13  14
ATOM     14  C   UNL     1      76.818  83.715  67.346  1.00  0.00    -0.044 A 
ATOM     15  C   UNL     1      75.505  84.173  67.241  1.00  0.00     0.054 A 
ATOM     16  C   UNL     1      77.567  83.998  68.488  1.00  0.00     0.008 A 
ATOM     17  C   UNL     1      74.941  84.915  68.279  1.00  0.00     0.160 A 
ATOM     18  C   UNL     1      77.003  84.740  69.526  1.00  0.00     0.050 A 
ATOM     19  C   UNL     1      75.690  85.198  69.421  1.00  0.00     0.157 A 
BRANCH  17  20
ATOM     20  O   UNL     1      73.657  85.358  68.165  1.00  0.00    -0.493 OA
ATOM     21  C   UNL     1      72.736  84.507  67.485  1.00  0.00     0.278 C 
ENDBRANCH  17  20
BRANCH  19  22
ATOM     22  O   UNL     1      75.149  85.921  70.441  1.00  0.00    -0.504 OA
ATOM     23  H   UNL     1      74.203  86.060  70.265  1.00  0.00     0.293 HD
ENDBRANCH  19  22
ENDBRANCH  13  14
ENDBRANCH  12  13
ENDBRANCH  10  12
ENDBRANCH   1  10
TORSDOF 12
ENDMDL
MODEL 6
REMARK VINA RESULT:    -4.779      1.962      3.310
REMARK INTER + INTRA:         -10.141
REMARK INTER:                  -8.337
REMARK INTRA:                  -1.805
REMARK UNBOUND:                -2.289
REMARK SMILES CCCCC[C@H](O)CC(=O)CCc1ccc(O)c(OC)c1
REMARK SMILES IDX 8 1 6 2 7 3 5 5 4 6 3 7 2 8 1 9 9 10 10 11 11 12 12 13 13 14
REMARK SMILES IDX 21 15 14 16 18 17 15 18 16 19 19 20 20 21 17 22
REMARK H PARENT 7 4 17 23
REMARK Flexibility Score: inf
ROOT
ATOM      1  C   UNL     1      72.075  81.786  64.432  1.00  0.00     0.107 C 
ENDROOT
BRANCH   1   2
ATOM      2  C   UNL     1      72.821  80.478  64.156  1.00  0.00     0.121 C 
BRANCH   2   3
ATOM      3  O   UNL     1      71.900  79.478  63.728  1.00  0.00    -0.393 OA
ATOM      4  H   UNL     1      72.080  78.669  64.238  1.00  0.00     0.210 HD
ENDBRANCH   2   3
BRANCH   2   5
ATOM      5  C   UNL     1      73.928  80.629  63.106  1.00  0.00     0.032 C 
BRANCH   5   6
ATOM      6  C   UNL     1      74.368  82.088  62.938  1.00  0.00     0.003 C 
BRANCH   6   7
ATOM      7  C   UNL     1      75.735  82.385  63.562  1.00  0.00    -0.000 C 
BRANCH   7   8
ATOM      8  C   UNL     1      76.321  81.209  64.341  1.00  0.00    -0.003 C 
ATOM      9  C   UNL     1      77.072  81.681  65.576  1.00  0.00     0.004 C 
ENDBRANCH   7   8
ENDBRANCH   6   7
ENDBRANCH   5   6
ENDBRANCH   2   5
ENDBRANCH   1   2
BRANCH   1  10
ATOM     10  C   UNL     1      72.149  82.218  65.888  1.00  0.00     0.135 C 
ATOM     11  O   UNL     1      71.144  82.224  66.598  1.00  0.00    -0.300 OA
BRANCH  10  12
ATOM     12  C   UNL     1      73.524  82.593  66.418  1.00  0.00     0.080 C 
BRANCH  12  13
ATOM     13  C   UNL     1      73.885  84.064  66.207  1.00  0.00     0.043 C 
BRANCH  13  14
ATOM     14  C   UNL     1      75.191  84.453  66.858  1.00  0.00    -0.044 A 
ATOM     15  C   UNL     1      75.505  83.979  68.132  1.00  0.00     0.054 A 
ATOM     16  C   UNL     1      76.085  85.287  66.185  1.00  0.00     0.008 A 
ATOM     17  C   UNL     1      76.712  84.337  68.731  1.00  0.00     0.160 A 
ATOM     18  C   UNL     1      77.292  85.646  66.784  1.00  0.00     0.050 A 
ATOM     19  C   UNL     1      77.605  85.171  68.058  1.00  0.00     0.157 A 
BRANCH  17  20
ATOM     20  O   UNL     1      77.007  83.868  69.976  1.00  0.00    -0.493 OA
ATOM     21  C   UNL     1      76.128  84.243  71.035  1.00  0.00     0.278 C 
ENDBRANCH  17  20
BRANCH  19  22
ATOM     22  O   UNL     1      78.787  85.529  68.633  1.00  0.00    -0.504 OA
ATOM     23  H   UNL     1      78.877  85.067  69.485  1.00  0.00     0.293 HD
ENDBRANCH  19  22
ENDBRANCH  13  14
ENDBRANCH  12  13
ENDBRANCH  10  12
ENDBRANCH   1  10
TORSDOF 12
ENDMDL
MODEL 7
REMARK VINA RESULT:    -4.705     23.751     26.654
REMARK INTER + INTRA:         -10.019
REMARK INTER:                  -8.798
REMARK INTRA:                  -1.221
REMARK UNBOUND:                -2.289
REMARK SMILES CCCCC[C@H](O)CC(=O)CCc1ccc(O)c(OC)c1
REMARK SMILES IDX 8 1 6 2 7 3 5 5 4 6 3 7 2 8 1 9 9 10 10 11 11 12 12 13 13 14
REMARK SMILES IDX 21 15 14 16 18 17 15 18 16 19 19 20 20 21 17 22
REMARK H PARENT 7 4 17 23
REMARK Flexibility Score: inf
ROOT
ATOM      1  C   UNL     1      93.625  94.138  79.695  1.00  0.00     0.107 C 
ENDROOT
BRANCH   1   2
ATOM      2  C   UNL     1      92.548  94.257  78.614  1.00  0.00     0.121 C 
BRANCH   2   3
ATOM      3  O   UNL     1      91.389  93.524  79.005  1.00  0.00    -0.393 OA
ATOM      4  H   UNL     1      91.299  92.766  78.401  1.00  0.00     0.210 HD
ENDBRANCH   2   3
BRANCH   2   5
ATOM      5  C   UNL     1      92.152  95.708  78.318  1.00  0.00     0.032 C 
BRANCH   5   6
ATOM      6  C   UNL     1      91.819  95.924  76.837  1.00  0.00     0.003 C 
BRANCH   6   7
ATOM      7  C   UNL     1      92.850  96.788  76.104  1.00  0.00    -0.000 C 
BRANCH   7   8
ATOM      8  C   UNL     1      94.186  96.084  75.873  1.00  0.00    -0.003 C 
ATOM      9  C   UNL     1      95.357  97.022  76.121  1.00  0.00     0.004 C 
ENDBRANCH   7   8
ENDBRANCH   6   7
ENDBRANCH   5   6
ENDBRANCH   2   5
ENDBRANCH   1   2
BRANCH   1  10
ATOM     10  C   UNL     1      95.009  94.531  79.203  1.00  0.00     0.135 C 
ATOM     11  O   UNL     1      95.632  93.810  78.424  1.00  0.00    -0.300 OA
BRANCH  10  12
ATOM     12  C   UNL     1      95.550  95.868  79.686  1.00  0.00     0.080 C 
BRANCH  12  13
ATOM     13  C   UNL     1      94.692  96.524  80.769  1.00  0.00     0.043 C 
BRANCH  13  14
ATOM     14  C   UNL     1      95.498  97.008  81.951  1.00  0.00    -0.044 A 
ATOM     15  C   UNL     1      95.195  98.231  82.548  1.00  0.00     0.054 A 
ATOM     16  C   UNL     1      96.546  96.231  82.444  1.00  0.00     0.008 A 
ATOM     17  C   UNL     1      95.940  98.677  83.640  1.00  0.00     0.160 A 
ATOM     18  C   UNL     1      97.292  96.676  83.536  1.00  0.00     0.050 A 
ATOM     19  C   UNL     1      96.989  97.900  84.134  1.00  0.00     0.157 A 
BRANCH  17  20
ATOM     20  O   UNL     1      95.636  99.874  84.215  1.00  0.00    -0.493 OA
ATOM     21  C   UNL     1      94.809 100.761  83.465  1.00  0.00     0.278 C 
ENDBRANCH  17  20
BRANCH  19  22
ATOM     22  O   UNL     1      97.723  98.324  85.199  1.00  0.00    -0.504 OA
ATOM     23  H   UNL     1      97.142  98.805  85.813  1.00  0.00     0.293 HD
ENDBRANCH  19  22
ENDBRANCH  13  14
ENDBRANCH  12  13
ENDBRANCH  10  12
ENDBRANCH   1  10
TORSDOF 12
ENDMDL
MODEL 8
REMARK VINA RESULT:    -4.697      2.419      5.329
REMARK INTER + INTRA:         -10.006
REMARK INTER:                  -8.967
REMARK INTRA:                  -1.040
REMARK UNBOUND:                -2.289
REMARK SMILES CCCCC[C@H](O)CC(=O)CCc1ccc(O)c(OC)c1
REMARK SMILES IDX 8 1 6 2 7 3 5 5 4 6 3 7 2 8 1 9 9 10 10 11 11 12 12 13 13 14
REMARK SMILES IDX 21 15 14 16 18 17 15 18 16 19 19 20 20 21 17 22
REMARK H PARENT 7 4 17 23
REMARK Flexibility Score: inf
ROOT
ATOM      1  C   UNL     1      76.529  83.573  68.040  1.00  0.00     0.107 C 
ENDROOT
BRANCH   1   2
ATOM      2  C   UNL     1      75.685  83.605  66.763  1.00  0.00     0.121 C 
BRANCH   2   3
ATOM      3  O   UNL     1      76.476  84.070  65.672  1.00  0.00    -0.393 OA
ATOM      4  H   UNL     1      75.957  83.953  64.857  1.00  0.00     0.210 HD
ENDBRANCH   2   3
BRANCH   2   5
ATOM      5  C   UNL     1      75.086  82.239  66.406  1.00  0.00     0.032 C 
BRANCH   5   6
ATOM      6  C   UNL     1      74.518  82.213  64.981  1.00  0.00     0.003 C 
BRANCH   6   7
ATOM      7  C   UNL     1      74.889  80.946  64.203  1.00  0.00    -0.000 C 
BRANCH   7   8
ATOM      8  C   UNL     1      73.900  80.599  63.092  1.00  0.00    -0.003 C 
ATOM      9  C   UNL     1      72.623  79.995  63.654  1.00  0.00     0.004 C 
ENDBRANCH   7   8
ENDBRANCH   6   7
ENDBRANCH   5   6
ENDBRANCH   2   5
ENDBRANCH   1   2
BRANCH   1  10
ATOM     10  C   UNL     1      77.957  84.043  67.821  1.00  0.00     0.135 C 
ATOM     11  O   UNL     1      78.733  83.402  67.112  1.00  0.00    -0.300 OA
BRANCH  10  12
ATOM     12  C   UNL     1      78.352  85.356  68.481  1.00  0.00     0.080 C 
BRANCH  12  13
ATOM     13  C   UNL     1      77.987  86.592  67.657  1.00  0.00     0.043 C 
BRANCH  13  14
ATOM     14  C   UNL     1      76.942  87.457  68.320  1.00  0.00    -0.044 A 
ATOM     15  C   UNL     1      76.152  88.311  67.550  1.00  0.00     0.054 A 
ATOM     16  C   UNL     1      76.766  87.402  69.703  1.00  0.00     0.008 A 
ATOM     17  C   UNL     1      75.186  89.109  68.164  1.00  0.00     0.160 A 
ATOM     18  C   UNL     1      75.800  88.200  70.317  1.00  0.00     0.050 A 
ATOM     19  C   UNL     1      75.011  89.054  69.547  1.00  0.00     0.157 A 
BRANCH  17  20
ATOM     20  O   UNL     1      74.421  89.940  67.401  1.00  0.00    -0.493 OA
ATOM     21  C   UNL     1      75.007  91.180  67.006  1.00  0.00     0.278 C 
ENDBRANCH  17  20
BRANCH  19  22
ATOM     22  O   UNL     1      74.071  89.828  70.157  1.00  0.00    -0.504 OA
ATOM     23  H   UNL     1      73.304  89.922  69.565  1.00  0.00     0.293 HD
ENDBRANCH  19  22
ENDBRANCH  13  14
ENDBRANCH  12  13
ENDBRANCH  10  12
ENDBRANCH   1  10
TORSDOF 12
ENDMDL
MODEL 9
REMARK VINA RESULT:    -4.588     24.782     27.040
REMARK INTER + INTRA:          -9.827
REMARK INTER:                  -9.117
REMARK INTRA:                  -0.710
REMARK UNBOUND:                -2.289
REMARK SMILES CCCCC[C@H](O)CC(=O)CCc1ccc(O)c(OC)c1
REMARK SMILES IDX 8 1 6 2 7 3 5 5 4 6 3 7 2 8 1 9 9 10 10 11 11 12 12 13 13 14
REMARK SMILES IDX 21 15 14 16 18 17 15 18 16 19 19 20 20 21 17 22
REMARK H PARENT 7 4 17 23
REMARK Flexibility Score: inf
ROOT
ATOM      1  C   UNL     1      99.354  83.231  77.792  1.00  0.00     0.107 C 
ENDROOT
BRANCH   1   2
ATOM      2  C   UNL     1      99.622  83.579  76.326  1.00  0.00     0.121 C 
BRANCH   2   3
ATOM      3  O   UNL     1      99.238  84.928  76.072  1.00  0.00    -0.393 OA
ATOM      4  H   UNL     1      98.313  85.034  76.358  1.00  0.00     0.210 HD
ENDBRANCH   2   3
BRANCH   2   5
ATOM      5  C   UNL     1     101.089  83.387  75.922  1.00  0.00     0.032 C 
BRANCH   5   6
ATOM      6  C   UNL     1     101.966  84.567  76.358  1.00  0.00     0.003 C 
BRANCH   6   7
ATOM      7  C   UNL     1     102.535  85.367  75.182  1.00  0.00    -0.000 C 
BRANCH   7   8
ATOM      8  C   UNL     1     103.771  84.730  74.550  1.00  0.00    -0.003 C 
ATOM      9  C   UNL     1     104.997  85.615  74.714  1.00  0.00     0.004 C 
ENDBRANCH   7   8
ENDBRANCH   6   7
ENDBRANCH   5   6
ENDBRANCH   2   5
ENDBRANCH   1   2
BRANCH   1  10
ATOM     10  C   UNL     1      97.919  83.501  78.216  1.00  0.00     0.135 C 
ATOM     11  O   UNL     1      97.039  83.700  77.379  1.00  0.00    -0.300 OA
BRANCH  10  12
ATOM     12  C   UNL     1      97.631  83.465  79.709  1.00  0.00     0.080 C 
BRANCH  12  13
ATOM     13  C   UNL     1      98.839  83.067  80.559  1.00  0.00     0.043 C 
BRANCH  13  14
ATOM     14  C   UNL     1      98.465  82.655  81.963  1.00  0.00    -0.044 A 
ATOM     15  C   UNL     1      97.733  83.522  82.774  1.00  0.00     0.054 A 
ATOM     16  C   UNL     1      98.852  81.405  82.449  1.00  0.00     0.008 A 
ATOM     17  C   UNL     1      97.387  83.140  84.070  1.00  0.00     0.160 A 
ATOM     18  C   UNL     1      98.506  81.023  83.745  1.00  0.00     0.050 A 
ATOM     19  C   UNL     1      97.774  81.891  84.556  1.00  0.00     0.157 A 
BRANCH  17  20
ATOM     20  O   UNL     1      96.672  83.996  84.852  1.00  0.00    -0.493 OA
ATOM     21  C   UNL     1      97.342  85.171  85.307  1.00  0.00     0.278 C 
ENDBRANCH  17  20
BRANCH  19  22
ATOM     22  O   UNL     1      97.442  81.507  85.820  1.00  0.00    -0.504 OA
ATOM     23  H   UNL     1      98.204  81.653  86.406  1.00  0.00     0.293 HD
ENDBRANCH  19  22
ENDBRANCH  13  14
ENDBRANCH  12  13
ENDBRANCH  10  12
ENDBRANCH   1  10
TORSDOF 12
ENDMDL
MODEL 10
REMARK VINA RESULT:    -4.540     12.347     14.336
REMARK INTER + INTRA:          -9.748
REMARK INTER:                  -7.683
REMARK INTRA:                  -2.065
REMARK UNBOUND:                -2.289
REMARK SMILES CCCCC[C@H](O)CC(=O)CCc1ccc(O)c(OC)c1
REMARK SMILES IDX 8 1 6 2 7 3 5 5 4 6 3 7 2 8 1 9 9 10 10 11 11 12 12 13 13 14
REMARK SMILES IDX 21 15 14 16 18 17 15 18 16 19 19 20 20 21 17 22
REMARK H PARENT 7 4 17 23
REMARK Flexibility Score: inf
ROOT
ATOM      1  C   UNL     1      66.819  83.113  70.829  1.00  0.00     0.107 C 
ENDROOT
BRANCH   1   2
ATOM      2  C   UNL     1      67.122  84.305  71.740  1.00  0.00     0.121 C 
BRANCH   2   3
ATOM      3  O   UNL     1      67.742  85.344  70.985  1.00  0.00    -0.393 OA
ATOM      4  H   UNL     1      67.780  86.138  71.547  1.00  0.00     0.210 HD
ENDBRANCH   2   3
BRANCH   2   5
ATOM      5  C   UNL     1      65.874  84.862  72.435  1.00  0.00     0.032 C 
BRANCH   5   6
ATOM      6  C   UNL     1      66.068  84.990  73.951  1.00  0.00     0.003 C 
BRANCH   6   7
ATOM      7  C   UNL     1      64.759  85.224  74.712  1.00  0.00    -0.000 C 
BRANCH   7   8
ATOM      8  C   UNL     1      64.860  84.933  76.208  1.00  0.00    -0.003 C 
ATOM      9  C   UNL     1      65.177  83.469  76.468  1.00  0.00     0.004 C 
ENDBRANCH   7   8
ENDBRANCH   6   7
ENDBRANCH   5   6
ENDBRANCH   2   5
ENDBRANCH   1   2
BRANCH   1  10
ATOM     10  C   UNL     1      65.798  83.433  69.749  1.00  0.00     0.135 C 
ATOM     11  O   UNL     1      66.080  84.182  68.814  1.00  0.00    -0.300 OA
BRANCH  10  12
ATOM     12  C   UNL     1      64.446  82.746  69.865  1.00  0.00     0.080 C 
BRANCH  12  13
ATOM     13  C   UNL     1      64.406  81.640  70.921  1.00  0.00     0.043 C 
BRANCH  13  14
ATOM     14  C   UNL     1      63.584  82.009  72.133  1.00  0.00    -0.044 A 
ATOM     15  C   UNL     1      62.724  83.106  72.086  1.00  0.00     0.054 A 
ATOM     16  C   UNL     1      63.687  81.252  73.301  1.00  0.00     0.008 A 
ATOM     17  C   UNL     1      61.965  83.445  73.206  1.00  0.00     0.160 A 
ATOM     18  C   UNL     1      62.928  81.592  74.421  1.00  0.00     0.050 A 
ATOM     19  C   UNL     1      62.068  82.688  74.374  1.00  0.00     0.157 A 
BRANCH  17  20
ATOM     20  O   UNL     1      61.128  84.519  73.149  1.00  0.00    -0.493 OA
ATOM     21  C   UNL     1      60.047  84.448  72.221  1.00  0.00     0.278 C 
ENDBRANCH  17  20
BRANCH  19  22
ATOM     22  O   UNL     1      61.332  83.010  75.474  1.00  0.00    -0.504 OA
ATOM     23  H   UNL     1      61.934  83.245  76.201  1.00  0.00     0.293 HD
ENDBRANCH  19  22
ENDBRANCH  13  14
ENDBRANCH  12  13
ENDBRANCH  10  12
ENDBRANCH   1  10
TORSDOF 12
ENDMDL
