MODEL 1
REMARK VINA RESULT:    -6.516      0.000      0.000
REMARK INTER + INTRA:         -11.221
REMARK INTER:                 -10.135
REMARK INTRA:                  -1.086
REMARK UNBOUND:                -1.086
REMARK SMILES COc1cc(CNC(=O)CCCCCC(C)C)ccc1O
REMARK SMILES IDX 10 1 8 2 7 3 9 5 6 6 5 7 3 8 20 9 4 10 19 11 18 12 2 13 1 14
REMARK SMILES IDX 21 15 11 17 12 18 13 19 14 20 15 21 16 22 17 23
REMARK H PARENT 7 4 21 16
REMARK Flexibility Score: inf
ROOT
ATOM      1  C   UNL     1      95.027  96.807  74.341  1.00  0.00     0.100 C 
ENDROOT
BRANCH   1   2
ATOM      2  C   UNL     1      96.076  96.965  75.369  1.00  0.00     0.220 C 
ATOM      3  N   UNL     1      95.989  96.255  76.529  1.00  0.00    -0.352 N 
ATOM      4  H   UNL     1      95.120  95.756  76.658  1.00  0.00     0.163 HD
ATOM      5  O   UNL     1      97.050  97.721  75.135  1.00  0.00    -0.275 OA
BRANCH   3   6
ATOM      6  C   UNL     1      97.009  96.179  77.525  1.00  0.00     0.151 C 
BRANCH   6   7
ATOM      7  C   UNL     1      96.646  95.296  78.667  1.00  0.00    -0.025 A 
ATOM      8  C   UNL     1      95.963  95.016  81.012  1.00  0.00     0.160 A 
ATOM      9  C   UNL     1      95.891  93.620  80.822  1.00  0.00     0.157 A 
ATOM     10  C   UNL     1      96.357  95.843  79.939  1.00  0.00     0.056 A 
ATOM     11  C   UNL     1      96.202  93.062  79.568  1.00  0.00     0.050 A 
ATOM     12  C   UNL     1      96.572  93.894  78.497  1.00  0.00     0.009 A 
BRANCH   8  13
ATOM     13  O   UNL     1      95.683  95.577  82.231  1.00  0.00    -0.493 OA
ATOM     14  C   UNL     1      96.209  96.908  82.393  1.00  0.00     0.278 C 
ENDBRANCH   8  13
BRANCH   9  15
ATOM     15  O   UNL     1      95.515  92.815  81.848  1.00  0.00    -0.504 OA
ATOM     16  H   UNL     1      94.793  93.226  82.329  1.00  0.00     0.293 HD
ENDBRANCH   9  15
ENDBRANCH   6   7
ENDBRANCH   3   6
ENDBRANCH   1   2
BRANCH   1  17
ATOM     17  C   UNL     1      93.958  95.733  74.678  1.00  0.00     0.010 C 
BRANCH  17  18
ATOM     18  C   UNL     1      92.743  96.349  75.425  1.00  0.00     0.001 C 
BRANCH  18  19
ATOM     19  C   UNL     1      92.565  95.804  76.867  1.00  0.00     0.000 C 
BRANCH  19  20
ATOM     20  C   UNL     1      91.244  94.998  77.033  1.00  0.00     0.003 C 
BRANCH  20  21
ATOM     21  C   UNL     1      91.430  93.509  77.472  1.00  0.00    -0.017 C 
ATOM     22  C   UNL     1      92.726  93.338  78.319  1.00  0.00     0.007 C 
ATOM     23  C   UNL     1      91.444  92.521  76.270  1.00  0.00     0.007 C 
ENDBRANCH  20  21
ENDBRANCH  19  20
ENDBRANCH  18  19
ENDBRANCH  17  18
ENDBRANCH   1  17
TORSDOF 10
ENDMDL
MODEL 2
REMARK VINA RESULT:    -5.611      2.449      4.094
REMARK INTER + INTRA:          -9.813
REMARK INTER:                  -9.178
REMARK INTRA:                  -0.635
REMARK UNBOUND:                -1.086
REMARK SMILES COc1cc(CNC(=O)CCCCCC(C)C)ccc1O
REMARK SMILES IDX 10 1 8 2 7 3 9 5 6 6 5 7 3 8 20 9 4 10 19 11 18 12 2 13 1 14
REMARK SMILES IDX 21 15 11 17 12 18 13 19 14 20 15 21 16 22 17 23
REMARK H PARENT 7 4 21 16
REMARK Flexibility Score: inf
ROOT
ATOM      1  C   UNL     1      92.108  95.022  77.318  1.00  0.00     0.100 C 
ENDROOT
BRANCH   1   2
ATOM      2  C   UNL     1      93.196  94.157  77.820  1.00  0.00     0.220 C 
ATOM      3  N   UNL     1      94.436  94.251  77.265  1.00  0.00    -0.352 N 
ATOM      4  H   UNL     1      94.490  94.830  76.439  1.00  0.00     0.163 HD
ATOM      5  O   UNL     1      92.963  93.382  78.780  1.00  0.00    -0.275 OA
BRANCH   3   6
ATOM      6  C   UNL     1      95.610  93.608  77.762  1.00  0.00     0.151 C 
BRANCH   6   7
ATOM      7  C   UNL     1      96.481  94.515  78.557  1.00  0.00    -0.025 A 
ATOM      8  C   UNL     1      97.618  95.073  80.665  1.00  0.00     0.160 A 
ATOM      9  C   UNL     1      98.194  96.206  80.052  1.00  0.00     0.157 A 
ATOM     10  C   UNL     1      96.751  94.245  79.920  1.00  0.00     0.056 A 
ATOM     11  C   UNL     1      97.911  96.498  78.705  1.00  0.00     0.050 A 
ATOM     12  C   UNL     1      97.067  95.656  77.961  1.00  0.00     0.009 A 
BRANCH   8  13
ATOM     13  O   UNL     1      97.864  94.782  81.981  1.00  0.00    -0.493 OA
ATOM     14  C   UNL     1      98.898  93.797  82.176  1.00  0.00     0.278 C 
ENDBRANCH   8  13
BRANCH   9  15
ATOM     15  O   UNL     1      99.027  97.009  80.760  1.00  0.00    -0.504 OA
ATOM     16  H   UNL     1      99.249  97.782  80.236  1.00  0.00     0.293 HD
ENDBRANCH   9  15
ENDBRANCH   6   7
ENDBRANCH   3   6
ENDBRANCH   1   2
BRANCH   1  17
ATOM     17  C   UNL     1      90.757  94.289  77.102  1.00  0.00     0.010 C 
BRANCH  17  18
ATOM     18  C   UNL     1      90.928  93.023  76.217  1.00  0.00     0.001 C 
BRANCH  18  19
ATOM     19  C   UNL     1      90.027  91.838  76.656  1.00  0.00     0.000 C 
BRANCH  19  20
ATOM     20  C   UNL     1      89.388  91.104  75.442  1.00  0.00     0.003 C 
BRANCH  20  21
ATOM     21  C   UNL     1      90.367  90.809  74.259  1.00  0.00    -0.017 C 
ATOM     22  C   UNL     1      89.664  91.034  72.888  1.00  0.00     0.007 C 
ATOM     23  C   UNL     1      90.975  89.378  74.319  1.00  0.00     0.007 C 
ENDBRANCH  20  21
ENDBRANCH  19  20
ENDBRANCH  18  19
ENDBRANCH  17  18
ENDBRANCH   1  17
TORSDOF 10
ENDMDL
MODEL 3
REMARK VINA RESULT:    -5.594      9.551     12.184
REMARK INTER + INTRA:          -9.786
REMARK INTER:                  -7.868
REMARK INTRA:                  -1.918
REMARK UNBOUND:                -1.086
REMARK SMILES COc1cc(CNC(=O)CCCCCC(C)C)ccc1O
REMARK SMILES IDX 10 1 8 2 7 3 9 5 6 6 5 7 3 8 20 9 4 10 19 11 18 12 2 13 1 14
REMARK SMILES IDX 21 15 11 17 12 18 13 19 14 20 15 21 16 22 17 23
REMARK H PARENT 7 4 21 16
REMARK Flexibility Score: inf
ROOT
ATOM      1  C   UNL     1      88.031  99.299  66.266  1.00  0.00     0.100 C 
ENDROOT
BRANCH   1   2
ATOM      2  C   UNL     1      89.056  98.896  67.252  1.00  0.00     0.220 C 
ATOM      3  N   UNL     1      88.743  98.890  68.578  1.00  0.00    -0.352 N 
ATOM      4  H   UNL     1      87.847  99.298  68.806  1.00  0.00     0.163 HD
ATOM      5  O   UNL     1      90.183  98.527  66.842  1.00  0.00    -0.275 OA
BRANCH   3   6
ATOM      6  C   UNL     1      89.571  98.363  69.615  1.00  0.00     0.151 C 
BRANCH   6   7
ATOM      7  C   UNL     1      90.393  99.403  70.291  1.00  0.00    -0.025 A 
ATOM      8  C   UNL     1      92.588 100.390  70.798  1.00  0.00     0.160 A 
ATOM      9  C   UNL     1      91.954 101.421  71.523  1.00  0.00     0.157 A 
ATOM     10  C   UNL     1      91.805  99.378  70.203  1.00  0.00     0.056 A 
ATOM     11  C   UNL     1      90.552 101.442  71.640  1.00  0.00     0.050 A 
ATOM     12  C   UNL     1      89.777 100.444  71.025  1.00  0.00     0.009 A 
BRANCH   8  13
ATOM     13  O   UNL     1      93.953 100.341  70.689  1.00  0.00    -0.493 OA
ATOM     14  C   UNL     1      94.463  99.036  70.354  1.00  0.00     0.278 C 
ENDBRANCH   8  13
BRANCH   9  15
ATOM     15  O   UNL     1      92.697 102.398  72.101  1.00  0.00    -0.504 OA
ATOM     16  H   UNL     1      93.570 102.415  71.702  1.00  0.00     0.293 HD
ENDBRANCH   9  15
ENDBRANCH   6   7
ENDBRANCH   3   6
ENDBRANCH   1   2
BRANCH   1  17
ATOM     17  C   UNL     1      86.956 100.270  66.824  1.00  0.00     0.010 C 
BRANCH  17  18
ATOM     18  C   UNL     1      87.132 101.706  66.257  1.00  0.00     0.001 C 
BRANCH  18  19
ATOM     19  C   UNL     1      88.600 102.205  66.288  1.00  0.00     0.000 C 
BRANCH  19  20
ATOM     20  C   UNL     1      89.104 102.461  67.738  1.00  0.00     0.003 C 
BRANCH  20  21
ATOM     21  C   UNL     1      90.638 102.245  67.952  1.00  0.00    -0.017 C 
ATOM     22  C   UNL     1      91.305 103.528  68.530  1.00  0.00     0.007 C 
ATOM     23  C   UNL     1      91.372 101.800  66.653  1.00  0.00     0.007 C 
ENDBRANCH  20  21
ENDBRANCH  19  20
ENDBRANCH  18  19
ENDBRANCH  17  18
ENDBRANCH   1  17
TORSDOF 10
ENDMDL
MODEL 4
REMARK VINA RESULT:    -5.583     12.943     15.219
REMARK INTER + INTRA:          -9.770
REMARK INTER:                  -9.113
REMARK INTRA:                  -0.657
REMARK UNBOUND:                -1.086
REMARK SMILES COc1cc(CNC(=O)CCCCCC(C)C)ccc1O
REMARK SMILES IDX 10 1 8 2 7 3 9 5 6 6 5 7 3 8 20 9 4 10 19 11 18 12 2 13 1 14
REMARK SMILES IDX 21 15 11 17 12 18 13 19 14 20 15 21 16 22 17 23
REMARK H PARENT 7 4 21 16
REMARK Flexibility Score: inf
ROOT
ATOM      1  C   UNL     1      96.535  80.106  82.251  1.00  0.00     0.100 C 
ENDROOT
BRANCH   1   2
ATOM      2  C   UNL     1      97.202  80.084  80.933  1.00  0.00     0.220 C 
ATOM      3  N   UNL     1      97.624  81.255  80.376  1.00  0.00    -0.352 N 
ATOM      4  H   UNL     1      97.324  82.088  80.862  1.00  0.00     0.163 HD
ATOM      5  O   UNL     1      97.404  78.980  80.371  1.00  0.00    -0.275 OA
BRANCH   3   6
ATOM      6  C   UNL     1      98.429  81.363  79.202  1.00  0.00     0.151 C 
BRANCH   6   7
ATOM      7  C   UNL     1      97.682  81.892  78.029  1.00  0.00    -0.025 A 
ATOM      8  C   UNL     1      97.510  82.274  75.605  1.00  0.00     0.160 A 
ATOM      9  C   UNL     1      96.230  82.839  75.787  1.00  0.00     0.157 A 
ATOM     10  C   UNL     1      98.235  81.821  76.728  1.00  0.00     0.056 A 
ATOM     11  C   UNL     1      95.681  82.939  77.079  1.00  0.00     0.050 A 
ATOM     12  C   UNL     1      96.398  82.464  78.190  1.00  0.00     0.009 A 
BRANCH   8  13
ATOM     13  O   UNL     1      98.071  82.185  74.358  1.00  0.00    -0.493 OA
ATOM     14  C   UNL     1      99.131  83.132  74.129  1.00  0.00     0.278 C 
ENDBRANCH   8  13
BRANCH   9  15
ATOM     15  O   UNL     1      95.525  83.279  74.715  1.00  0.00    -0.504 OA
ATOM     16  H   UNL     1      95.115  82.532  74.273  1.00  0.00     0.293 HD
ENDBRANCH   9  15
ENDBRANCH   6   7
ENDBRANCH   3   6
ENDBRANCH   1   2
BRANCH   1  17
ATOM     17  C   UNL     1      96.573  81.485  82.963  1.00  0.00     0.010 C 
BRANCH  17  18
ATOM     18  C   UNL     1      95.176  81.882  83.516  1.00  0.00     0.001 C 
BRANCH  18  19
ATOM     19  C   UNL     1      94.924  81.388  84.965  1.00  0.00     0.000 C 
BRANCH  19  20
ATOM     20  C   UNL     1      93.511  81.782  85.483  1.00  0.00     0.003 C 
BRANCH  20  21
ATOM     21  C   UNL     1      92.326  80.995  84.835  1.00  0.00    -0.017 C 
ATOM     22  C   UNL     1      90.980  81.753  85.034  1.00  0.00     0.007 C 
ATOM     23  C   UNL     1      92.203  79.538  85.370  1.00  0.00     0.007 C 
ENDBRANCH  20  21
ENDBRANCH  19  20
ENDBRANCH  18  19
ENDBRANCH  17  18
ENDBRANCH   1  17
TORSDOF 10
ENDMDL
MODEL 5
REMARK VINA RESULT:    -5.500     22.629     26.160
REMARK INTER + INTRA:          -9.640
REMARK INTER:                  -8.371
REMARK INTRA:                  -1.269
REMARK UNBOUND:                -1.086
REMARK SMILES COc1cc(CNC(=O)CCCCCC(C)C)ccc1O
REMARK SMILES IDX 10 1 8 2 7 3 9 5 6 6 5 7 3 8 20 9 4 10 19 11 18 12 2 13 1 14
REMARK SMILES IDX 21 15 11 17 12 18 13 19 14 20 15 21 16 22 17 23
REMARK H PARENT 7 4 21 16
REMARK Flexibility Score: inf
ROOT
ATOM      1  C   UNL     1      77.201  86.565  67.736  1.00  0.00     0.100 C 
ENDROOT
BRANCH   1   2
ATOM      2  C   UNL     1      77.124  85.377  66.861  1.00  0.00     0.220 C 
ATOM      3  N   UNL     1      76.249  85.370  65.816  1.00  0.00    -0.352 N 
ATOM      4  H   UNL     1      75.607  86.150  65.794  1.00  0.00     0.163 HD
ATOM      5  O   UNL     1      77.899  84.412  67.074  1.00  0.00    -0.275 OA
BRANCH   3   6
ATOM      6  C   UNL     1      76.192  84.371  64.797  1.00  0.00     0.151 C 
BRANCH   6   7
ATOM      7  C   UNL     1      75.046  83.436  64.959  1.00  0.00    -0.025 A 
ATOM      8  C   UNL     1      72.695  82.853  64.539  1.00  0.00     0.160 A 
ATOM      9  C   UNL     1      72.881  81.626  65.210  1.00  0.00     0.157 A 
ATOM     10  C   UNL     1      73.772  83.758  64.434  1.00  0.00     0.056 A 
ATOM     11  C   UNL     1      74.137  81.307  65.759  1.00  0.00     0.050 A 
ATOM     12  C   UNL     1      75.213  82.202  65.630  1.00  0.00     0.009 A 
BRANCH   8  13
ATOM     13  O   UNL     1      71.475  83.191  64.014  1.00  0.00    -0.493 OA
ATOM     14  C   UNL     1      71.319  84.601  63.765  1.00  0.00     0.278 C 
ENDBRANCH   8  13
BRANCH   9  15
ATOM     15  O   UNL     1      71.852  80.750  65.318  1.00  0.00    -0.504 OA
ATOM     16  H   UNL     1      72.187  79.894  65.595  1.00  0.00     0.293 HD
ENDBRANCH   9  15
ENDBRANCH   6   7
ENDBRANCH   3   6
ENDBRANCH   1   2
BRANCH   1  17
ATOM     17  C   UNL     1      77.186  87.919  66.977  1.00  0.00     0.010 C 
BRANCH  17  18
ATOM     18  C   UNL     1      76.293  88.968  67.695  1.00  0.00     0.001 C 
BRANCH  18  19
ATOM     19  C   UNL     1      75.230  88.334  68.632  1.00  0.00     0.000 C 
BRANCH  19  20
ATOM     20  C   UNL     1      73.965  87.868  67.855  1.00  0.00     0.003 C 
BRANCH  20  21
ATOM     21  C   UNL     1      73.263  86.599  68.439  1.00  0.00    -0.017 C 
ATOM     22  C   UNL     1      74.230  85.806  69.365  1.00  0.00     0.007 C 
ATOM     23  C   UNL     1      72.693  85.662  67.334  1.00  0.00     0.007 C 
ENDBRANCH  20  21
ENDBRANCH  19  20
ENDBRANCH  18  19
ENDBRANCH  17  18
ENDBRANCH   1  17
TORSDOF 10
ENDMDL
MODEL 6
REMARK VINA RESULT:    -5.488      1.614      2.716
REMARK INTER + INTRA:          -9.622
REMARK INTER:                  -8.705
REMARK INTRA:                  -0.917
REMARK UNBOUND:                -1.086
REMARK SMILES COc1cc(CNC(=O)CCCCCC(C)C)ccc1O
REMARK SMILES IDX 10 1 8 2 7 3 9 5 6 6 5 7 3 8 20 9 4 10 19 11 18 12 2 13 1 14
REMARK SMILES IDX 21 15 11 17 12 18 13 19 14 20 15 21 16 22 17 23
REMARK H PARENT 7 4 21 16
REMARK Flexibility Score: inf
ROOT
ATOM      1  C   UNL     1      97.331  97.391  75.325  1.00  0.00     0.100 C 
ENDROOT
BRANCH   1   2
ATOM      2  C   UNL     1      97.650  97.395  76.768  1.00  0.00     0.220 C 
ATOM      3  N   UNL     1      98.196  96.282  77.335  1.00  0.00    -0.352 N 
ATOM      4  H   UNL     1      98.222  95.469  76.737  1.00  0.00     0.163 HD
ATOM      5  O   UNL     1      97.451  98.440  77.434  1.00  0.00    -0.275 OA
BRANCH   3   6
ATOM      6  C   UNL     1      98.709  96.206  78.665  1.00  0.00     0.151 C 
BRANCH   6   7
ATOM      7  C   UNL     1      97.927  95.293  79.542  1.00  0.00    -0.025 A 
ATOM      8  C   UNL     1      96.253  93.512  79.813  1.00  0.00     0.160 A 
ATOM      9  C   UNL     1      96.486  93.508  81.205  1.00  0.00     0.157 A 
ATOM     10  C   UNL     1      96.961  94.417  78.993  1.00  0.00     0.056 A 
ATOM     11  C   UNL     1      97.426  94.393  81.765  1.00  0.00     0.050 A 
ATOM     12  C   UNL     1      98.145  95.275  80.940  1.00  0.00     0.009 A 
BRANCH   8  13
ATOM     13  O   UNL     1      95.328  92.672  79.251  1.00  0.00    -0.493 OA
ATOM     14  C   UNL     1      94.085  93.318  78.913  1.00  0.00     0.278 C 
ENDBRANCH   8  13
BRANCH   9  15
ATOM     15  O   UNL     1      95.809  92.644  82.002  1.00  0.00    -0.504 OA
ATOM     16  H   UNL     1      95.657  93.050  82.858  1.00  0.00     0.293 HD
ENDBRANCH   9  15
ENDBRANCH   6   7
ENDBRANCH   3   6
ENDBRANCH   1   2
BRANCH   1  17
ATOM     17  C   UNL     1      95.812  97.447  75.008  1.00  0.00     0.010 C 
BRANCH  17  18
ATOM     18  C   UNL     1      95.073  96.179  75.518  1.00  0.00     0.001 C 
BRANCH  18  19
ATOM     19  C   UNL     1      93.538  96.232  75.302  1.00  0.00     0.000 C 
BRANCH  19  20
ATOM     20  C   UNL     1      92.827  94.947  75.818  1.00  0.00     0.003 C 
BRANCH  20  21
ATOM     21  C   UNL     1      91.666  95.199  76.835  1.00  0.00    -0.017 C 
ATOM     22  C   UNL     1      90.331  94.587  76.317  1.00  0.00     0.007 C 
ATOM     23  C   UNL     1      91.469  96.707  77.166  1.00  0.00     0.007 C 
ENDBRANCH  20  21
ENDBRANCH  19  20
ENDBRANCH  18  19
ENDBRANCH  17  18
ENDBRANCH   1  17
TORSDOF 10
ENDMDL
MODEL 7
REMARK VINA RESULT:    -5.371     22.886     26.499
REMARK INTER + INTRA:          -9.440
REMARK INTER:                  -8.720
REMARK INTRA:                  -0.720
REMARK UNBOUND:                -1.086
REMARK SMILES COc1cc(CNC(=O)CCCCCC(C)C)ccc1O
REMARK SMILES IDX 10 1 8 2 7 3 9 5 6 6 5 7 3 8 20 9 4 10 19 11 18 12 2 13 1 14
REMARK SMILES IDX 21 15 11 17 12 18 13 19 14 20 15 21 16 22 17 23
REMARK H PARENT 7 4 21 16
REMARK Flexibility Score: inf
ROOT
ATOM      1  C   UNL     1      77.452  84.488  66.696  1.00  0.00     0.100 C 
ENDROOT
BRANCH   1   2
ATOM      2  C   UNL     1      76.833  83.849  65.516  1.00  0.00     0.220 C 
ATOM      3  N   UNL     1      76.365  82.573  65.614  1.00  0.00    -0.352 N 
ATOM      4  H   UNL     1      76.600  82.099  66.475  1.00  0.00     0.163 HD
ATOM      5  O   UNL     1      76.714  84.512  64.457  1.00  0.00    -0.275 OA
BRANCH   3   6
ATOM      6  C   UNL     1      75.596  81.900  64.616  1.00  0.00     0.151 C 
BRANCH   6   7
ATOM      7  C   UNL     1      74.129  81.993  64.848  1.00  0.00    -0.025 A 
ATOM      8  C   UNL     1      72.173  83.243  65.659  1.00  0.00     0.160 A 
ATOM      9  C   UNL     1      71.329  82.198  65.228  1.00  0.00     0.157 A 
ATOM     10  C   UNL     1      73.568  83.126  65.483  1.00  0.00     0.056 A 
ATOM     11  C   UNL     1      71.878  81.054  64.619  1.00  0.00     0.050 A 
ATOM     12  C   UNL     1      73.266  80.955  64.425  1.00  0.00     0.009 A 
BRANCH   8  13
ATOM     13  O   UNL     1      71.660  84.356  66.272  1.00  0.00    -0.493 OA
ATOM     14  C   UNL     1      71.420  85.457  65.374  1.00  0.00     0.278 C 
ENDBRANCH   8  13
BRANCH   9  15
ATOM     15  O   UNL     1      69.987  82.299  65.394  1.00  0.00    -0.504 OA
ATOM     16  H   UNL     1      69.552  81.577  64.935  1.00  0.00     0.293 HD
ENDBRANCH   9  15
ENDBRANCH   6   7
ENDBRANCH   3   6
ENDBRANCH   1   2
BRANCH   1  17
ATOM     17  C   UNL     1      76.522  84.574  67.936  1.00  0.00     0.010 C 
BRANCH  17  18
ATOM     18  C   UNL     1      76.385  86.035  68.447  1.00  0.00     0.001 C 
BRANCH  18  19
ATOM     19  C   UNL     1      75.332  86.865  67.667  1.00  0.00     0.000 C 
BRANCH  19  20
ATOM     20  C   UNL     1      74.890  88.138  68.446  1.00  0.00     0.003 C 
BRANCH  20  21
ATOM     21  C   UNL     1      75.966  89.269  68.525  1.00  0.00    -0.017 C 
ATOM     22  C   UNL     1      75.383  90.542  69.207  1.00  0.00     0.007 C 
ATOM     23  C   UNL     1      76.563  89.634  67.135  1.00  0.00     0.007 C 
ENDBRANCH  20  21
ENDBRANCH  19  20
ENDBRANCH  18  19
ENDBRANCH  17  18
ENDBRANCH   1  17
TORSDOF 10
ENDMDL
MODEL 8
REMARK VINA RESULT:    -5.321      5.694      9.646
REMARK INTER + INTRA:          -9.363
REMARK INTER:                  -8.855
REMARK INTRA:                  -0.508
REMARK UNBOUND:                -1.086
REMARK SMILES COc1cc(CNC(=O)CCCCCC(C)C)ccc1O
REMARK SMILES IDX 10 1 8 2 7 3 9 5 6 6 5 7 3 8 20 9 4 10 19 11 18 12 2 13 1 14
REMARK SMILES IDX 21 15 11 17 12 18 13 19 14 20 15 21 16 22 17 23
REMARK H PARENT 7 4 21 16
REMARK Flexibility Score: inf
ROOT
ATOM      1  C   UNL     1      93.691  97.539  74.575  1.00  0.00     0.100 C 
ENDROOT
BRANCH   1   2
ATOM      2  C   UNL     1      93.917  98.623  73.596  1.00  0.00     0.220 C 
ATOM      3  N   UNL     1      93.177  98.656  72.452  1.00  0.00    -0.352 N 
ATOM      4  H   UNL     1      92.603  97.841  72.293  1.00  0.00     0.163 HD
ATOM      5  O   UNL     1      94.759  99.516  73.859  1.00  0.00    -0.275 OA
BRANCH   3   6
ATOM      6  C   UNL     1      93.168  99.729  71.510  1.00  0.00     0.151 C 
BRANCH   6   7
ATOM      7  C   UNL     1      91.956  99.739  70.647  1.00  0.00    -0.025 A 
ATOM      8  C   UNL     1      90.881 100.213  68.486  1.00  0.00     0.160 A 
ATOM      9  C   UNL     1      89.665  99.696  68.981  1.00  0.00     0.157 A 
ATOM     10  C   UNL     1      92.014 100.249  69.328  1.00  0.00     0.056 A 
ATOM     11  C   UNL     1      89.590  99.212  70.300  1.00  0.00     0.050 A 
ATOM     12  C   UNL     1      90.727  99.228  71.125  1.00  0.00     0.009 A 
BRANCH   8  13
ATOM     13  O   UNL     1      90.970 100.707  67.212  1.00  0.00    -0.493 OA
ATOM     14  C   UNL     1      91.318 102.104  67.152  1.00  0.00     0.278 C 
ENDBRANCH   8  13
BRANCH   9  15
ATOM     15  O   UNL     1      88.570  99.659  68.181  1.00  0.00    -0.504 OA
ATOM     16  H   UNL     1      88.819  99.338  67.312  1.00  0.00     0.293 HD
ENDBRANCH   9  15
ENDBRANCH   6   7
ENDBRANCH   3   6
ENDBRANCH   1   2
BRANCH   1  17
ATOM     17  C   UNL     1      94.914  96.609  74.792  1.00  0.00     0.010 C 
BRANCH  17  18
ATOM     18  C   UNL     1      94.580  95.132  74.444  1.00  0.00     0.001 C 
BRANCH  18  19
ATOM     19  C   UNL     1      94.193  94.280  75.681  1.00  0.00     0.000 C 
BRANCH  19  20
ATOM     20  C   UNL     1      92.665  94.329  75.975  1.00  0.00     0.003 C 
BRANCH  20  21
ATOM     21  C   UNL     1      92.162  93.289  77.028  1.00  0.00    -0.017 C 
ATOM     22  C   UNL     1      90.653  93.506  77.345  1.00  0.00     0.007 C 
ATOM     23  C   UNL     1      92.992  93.311  78.344  1.00  0.00     0.007 C 
ENDBRANCH  20  21
ENDBRANCH  19  20
ENDBRANCH  18  19
ENDBRANCH  17  18
ENDBRANCH   1  17
TORSDOF 10
ENDMDL
MODEL 9
REMARK VINA RESULT:    -5.268      9.173     12.085
REMARK INTER + INTRA:          -9.280
REMARK INTER:                  -7.940
REMARK INTRA:                  -1.339
REMARK UNBOUND:                -1.086
REMARK SMILES COc1cc(CNC(=O)CCCCCC(C)C)ccc1O
REMARK SMILES IDX 10 1 8 2 7 3 9 5 6 6 5 7 3 8 20 9 4 10 19 11 18 12 2 13 1 14
REMARK SMILES IDX 21 15 11 17 12 18 13 19 14 20 15 21 16 22 17 23
REMARK H PARENT 7 4 21 16
REMARK Flexibility Score: inf
ROOT
ATOM      1  C   UNL     1      89.891  98.992  66.599  1.00  0.00     0.100 C 
ENDROOT
BRANCH   1   2
ATOM      2  C   UNL     1      89.585  98.726  68.020  1.00  0.00     0.220 C 
ATOM      3  N   UNL     1      90.590  98.763  68.940  1.00  0.00    -0.352 N 
ATOM      4  H   UNL     1      91.519  98.845  68.551  1.00  0.00     0.163 HD
ATOM      5  O   UNL     1      88.395  98.512  68.357  1.00  0.00    -0.275 OA
BRANCH   3   6
ATOM      6  C   UNL     1      90.413  98.698  70.355  1.00  0.00     0.151 C 
BRANCH   6   7
ATOM      7  C   UNL     1      91.003  99.860  71.072  1.00  0.00    -0.025 A 
ATOM      8  C   UNL     1      90.830 102.171  71.895  1.00  0.00     0.160 A 
ATOM      9  C   UNL     1      92.101 102.050  72.496  1.00  0.00     0.157 A 
ATOM     10  C   UNL     1      90.298 101.082  71.171  1.00  0.00     0.056 A 
ATOM     11  C   UNL     1      92.823 100.848  72.381  1.00  0.00     0.050 A 
ATOM     12  C   UNL     1      92.277  99.759  71.680  1.00  0.00     0.009 A 
BRANCH   8  13
ATOM     13  O   UNL     1      90.119 103.339  71.978  1.00  0.00    -0.493 OA
ATOM     14  C   UNL     1      89.093 103.325  72.989  1.00  0.00     0.278 C 
ENDBRANCH   8  13
BRANCH   9  15
ATOM     15  O   UNL     1      92.623 103.091  73.192  1.00  0.00    -0.504 OA
ATOM     16  H   UNL     1      91.977 103.799  73.241  1.00  0.00     0.293 HD
ENDBRANCH   9  15
ENDBRANCH   6   7
ENDBRANCH   3   6
ENDBRANCH   1   2
BRANCH   1  17
ATOM     17  C   UNL     1      90.890 100.158  66.368  1.00  0.00     0.010 C 
BRANCH  17  18
ATOM     18  C   UNL     1      90.159 101.463  65.949  1.00  0.00     0.001 C 
BRANCH  18  19
ATOM     19  C   UNL     1      89.672 102.310  67.154  1.00  0.00     0.000 C 
BRANCH  19  20
ATOM     20  C   UNL     1      88.167 102.071  67.471  1.00  0.00     0.003 C 
BRANCH  20  21
ATOM     21  C   UNL     1      87.253 101.865  66.219  1.00  0.00    -0.017 C 
ATOM     22  C   UNL     1      86.246 103.043  66.066  1.00  0.00     0.007 C 
ATOM     23  C   UNL     1      86.489 100.509  66.246  1.00  0.00     0.007 C 
ENDBRANCH  20  21
ENDBRANCH  19  20
ENDBRANCH  18  19
ENDBRANCH  17  18
ENDBRANCH   1  17
TORSDOF 10
ENDMDL
MODEL 10
REMARK VINA RESULT:    -5.242      3.043      7.524
REMARK INTER + INTRA:          -9.238
REMARK INTER:                  -8.431
REMARK INTRA:                  -0.808
REMARK UNBOUND:                -1.086
REMARK SMILES COc1cc(CNC(=O)CCCCCC(C)C)ccc1O
REMARK SMILES IDX 10 1 8 2 7 3 9 5 6 6 5 7 3 8 20 9 4 10 19 11 18 12 2 13 1 14
REMARK SMILES IDX 21 15 11 17 12 18 13 19 14 20 15 21 16 22 17 23
REMARK H PARENT 7 4 21 16
REMARK Flexibility Score: inf
ROOT
ATOM      1  C   UNL     1      95.901  95.920  81.811  1.00  0.00     0.100 C 
ENDROOT
BRANCH   1   2
ATOM      2  C   UNL     1      96.166  95.045  80.649  1.00  0.00     0.220 C 
ATOM      3  N   UNL     1      95.590  93.811  80.596  1.00  0.00    -0.352 N 
ATOM      4  H   UNL     1      95.114  93.527  81.440  1.00  0.00     0.163 HD
ATOM      5  O   UNL     1      96.884  95.475  79.714  1.00  0.00    -0.275 OA
BRANCH   3   6
ATOM      6  C   UNL     1      95.618  92.939  79.465  1.00  0.00     0.151 C 
BRANCH   6   7
ATOM      7  C   UNL     1      94.559  93.243  78.466  1.00  0.00    -0.025 A 
ATOM      8  C   UNL     1      93.898  93.853  76.177  1.00  0.00     0.160 A 
ATOM      9  C   UNL     1      92.539  93.757  76.546  1.00  0.00     0.157 A 
ATOM     10  C   UNL     1      94.898  93.614  77.143  1.00  0.00     0.056 A 
ATOM     11  C   UNL     1      92.190  93.415  77.866  1.00  0.00     0.050 A 
ATOM     12  C   UNL     1      93.191  93.155  78.817  1.00  0.00     0.009 A 
BRANCH   8  13
ATOM     13  O   UNL     1      94.259  94.204  74.903  1.00  0.00    -0.493 OA
ATOM     14  C   UNL     1      94.427  95.622  74.715  1.00  0.00     0.278 C 
ENDBRANCH   8  13
BRANCH   9  15
ATOM     15  O   UNL     1      91.570  93.987  75.626  1.00  0.00    -0.504 OA
ATOM     16  H   UNL     1      91.897  94.596  74.961  1.00  0.00     0.293 HD
ENDBRANCH   9  15
ENDBRANCH   6   7
ENDBRANCH   3   6
ENDBRANCH   1   2
BRANCH   1  17
ATOM     17  C   UNL     1      96.464  97.360  81.666  1.00  0.00     0.010 C 
BRANCH  17  18
ATOM     18  C   UNL     1      97.418  97.721  82.838  1.00  0.00     0.001 C 
BRANCH  18  19
ATOM     19  C   UNL     1      98.492  96.636  83.116  1.00  0.00     0.000 C 
BRANCH  19  20
ATOM     20  C   UNL     1      98.707  96.398  84.639  1.00  0.00     0.003 C 
BRANCH  20  21
ATOM     21  C   UNL     1      98.236  97.568  85.563  1.00  0.00    -0.017 C 
ATOM     22  C   UNL     1      99.403  98.067  86.465  1.00  0.00     0.007 C 
ATOM     23  C   UNL     1      97.008  97.187  86.441  1.00  0.00     0.007 C 
ENDBRANCH  20  21
ENDBRANCH  19  20
ENDBRANCH  18  19
ENDBRANCH  17  18
ENDBRANCH   1  17
TORSDOF 10
ENDMDL
