MODEL 1
REMARK VINA RESULT:    -6.204      0.000      0.000
REMARK INTER + INTRA:         -13.410
REMARK INTER:                 -10.918
REMARK INTRA:                  -2.491
REMARK UNBOUND:                -2.491
REMARK SMILES C=C(C)[C@]12C[C@@H](C)[C@@]34O[C@](Cc5ccccc5)(O[C@@H]1[C@@H]3C=C(COC(=O)Cc1ccc(O)c(OC)c1)C[C@]1(O)C(=O)C(C)=C[C@@H]41)O2
REMARK SMILES IDX 23 1 22 2 21 3 20 4 9 5 8 6 10 7 6 8 18 9 46 10 19 11 5 12
REMARK SMILES IDX 7 13 4 14 45 15 38 16 44 17 40 18 42 20 41 21 43 22 39 23
REMARK SMILES IDX 11 25 12 26 13 27 17 28 14 29 16 30 15 31 2 32 3 33 1 34
REMARK SMILES IDX 37 35 24 37 25 38 26 39 27 40 28 41 36 42 29 43 33 44 30 45
REMARK SMILES IDX 31 46 34 47 35 48 32 49
REMARK H PARENT 39 24 32 50
REMARK Flexibility Score: 90.00
ROOT
ATOM      1  C   UNL     1      63.178  87.798  71.618  1.00  0.00     0.264 C 
ENDROOT
BRANCH   1   2
ATOM      2  C   UNL     1      64.342  87.461  72.520  1.00  0.00    -0.033 C 
ATOM      3  C   UNL     1      64.135  87.337  73.846  1.00  0.00    -0.015 C 
BRANCH   3   4
ATOM      4  C   UNL     1      65.137  87.083  74.960  1.00  0.00     0.078 C 
ATOM      5  O   UNL     1      65.233  84.635  75.301  1.00  0.00    -0.319 OA
ATOM      6  C   UNL     1      66.028  85.788  74.885  1.00  0.00     0.095 C 
ATOM      7  C   UNL     1      64.395  84.847  76.453  1.00  0.00     0.289 C 
ATOM      8  C   UNL     1      67.238  85.979  75.891  1.00  0.00     0.023 C 
ATOM      9  O   UNL     1      63.494  85.932  76.244  1.00  0.00    -0.320 OA
ATOM     10  O   UNL     1      65.147  85.190  77.613  1.00  0.00    -0.313 OA
ATOM     11  C   UNL     1      64.407  87.037  76.325  1.00  0.00     0.170 C 
ATOM     12  C   UNL     1      66.818  86.816  77.138  1.00  0.00     0.049 C 
ATOM     13  C   UNL     1      67.923  84.682  76.353  1.00  0.00     0.011 C 
ATOM     14  C   UNL     1      65.342  86.613  77.485  1.00  0.00     0.122 C 
BRANCH   6  15
ATOM     15  C   UNL     1      66.425  85.476  73.413  1.00  0.00     0.086 C 
ATOM     16  C   UNL     1      66.854  86.683  72.554  1.00  0.00     0.140 CG0
ATOM     17  C   UNL     1      67.494  84.455  73.139  1.00  0.00    -0.010 C 
ATOM     18  C   UNL     1      67.911  86.083  71.652  1.00  0.00     0.190 C 
ATOM     19  G   UNL     1      65.684  87.277  71.770  1.00  0.00     0.000 G0
ATOM     20  C   UNL     1      68.328  84.754  72.138  1.00  0.00    -0.008 C 
ATOM     21  O   UNL     1      68.404  86.630  70.677  1.00  0.00    -0.291 OA
ATOM     22  C   UNL     1      69.426  83.962  71.545  1.00  0.00     0.048 C 
BRANCH  16  23
ATOM     23  O   UNL     1      67.553  87.683  73.277  1.00  0.00    -0.381 OA
ATOM     24  H   UNL     1      68.502  87.589  73.090  1.00  0.00     0.212 HD
ENDBRANCH  16  23
ENDBRANCH   6  15
BRANCH   7  25
ATOM     25  C   UNL     1      63.613  83.575  76.714  1.00  0.00     0.135 C 
BRANCH  25  26
ATOM     26  C   UNL     1      63.171  82.911  75.433  1.00  0.00    -0.040 A 
ATOM     27  C   UNL     1      61.856  83.058  74.991  1.00  0.00     0.004 A 
ATOM     28  C   UNL     1      64.075  82.152  74.692  1.00  0.00     0.004 A 
ATOM     29  C   UNL     1      61.446  82.444  73.807  1.00  0.00     0.000 A 
ATOM     30  C   UNL     1      63.665  81.539  73.508  1.00  0.00     0.000 A 
ATOM     31  C   UNL     1      62.350  81.685  73.066  1.00  0.00     0.000 A 
ENDBRANCH  25  26
ENDBRANCH   7  25
BRANCH  14  32
ATOM     32  C   UNL     1      64.962  87.259  78.777  1.00  0.00    -0.046 C 
ATOM     33  C   UNL     1      65.780  86.876  79.975  1.00  0.00     0.042 C 
ATOM     34  C   UNL     1      63.947  88.133  78.862  1.00  0.00     0.010 C 
ENDBRANCH  14  32
ENDBRANCH   3   4
BRANCH   2  35
ATOM     35  C   UNL     1      65.649  87.294  71.767  1.00  0.00     0.078 CG0
ATOM     36  G   UNL     1      66.826  86.694  72.535  1.00  0.00     0.000 G0
ENDBRANCH   2  35
ENDBRANCH   1   2
BRANCH   1  37
ATOM     37  O   UNL     1      61.991  87.271  72.171  1.00  0.00    -0.461 OA
BRANCH  37  38
ATOM     38  C   UNL     1      61.174  86.577  71.310  1.00  0.00     0.310 C 
ATOM     39  O   UNL     1      60.533  87.075  70.395  1.00  0.00    -0.252 OA
BRANCH  38  40
ATOM     40  C   UNL     1      61.193  85.109  71.668  1.00  0.00     0.158 C 
BRANCH  40  41
ATOM     41  C   UNL     1      62.051  84.288  70.741  1.00  0.00    -0.033 A 
ATOM     42  C   UNL     1      63.429  84.216  70.947  1.00  0.00     0.054 A 
ATOM     43  C   UNL     1      61.468  83.600  69.677  1.00  0.00     0.008 A 
ATOM     44  C   UNL     1      64.224  83.456  70.088  1.00  0.00     0.160 A 
ATOM     45  C   UNL     1      62.262  82.840  68.819  1.00  0.00     0.050 A 
ATOM     46  C   UNL     1      63.639  82.768  69.023  1.00  0.00     0.157 A 
BRANCH  44  47
ATOM     47  O   UNL     1      65.568  83.393  70.298  1.00  0.00    -0.493 OA
ATOM     48  C   UNL     1      66.411  83.872  69.252  1.00  0.00     0.278 C 
ENDBRANCH  44  47
BRANCH  46  49
ATOM     49  O   UNL     1      64.405  82.022  68.179  1.00  0.00    -0.504 OA
ATOM     50  H   UNL     1      64.656  82.566  67.415  1.00  0.00     0.293 HD
ENDBRANCH  46  49
ENDBRANCH  40  41
ENDBRANCH  38  40
ENDBRANCH  37  38
ENDBRANCH   1  37
TORSDOF 11
ENDMDL
MODEL 2
REMARK VINA RESULT:    -5.866      6.485     10.790
REMARK INTER + INTRA:         -12.816
REMARK INTER:                 -10.796
REMARK INTRA:                  -2.020
REMARK UNBOUND:                -2.491
REMARK SMILES C=C(C)[C@]12C[C@@H](C)[C@@]34O[C@](Cc5ccccc5)(O[C@@H]1[C@@H]3C=C(COC(=O)Cc1ccc(O)c(OC)c1)C[C@]1(O)C(=O)C(C)=C[C@@H]41)O2
REMARK SMILES IDX 23 1 22 2 21 3 20 4 9 5 8 6 10 7 6 8 18 9 46 10 19 11 5 12
REMARK SMILES IDX 7 13 4 14 45 15 38 16 44 17 40 18 42 20 41 21 43 22 39 23
REMARK SMILES IDX 11 25 12 26 13 27 17 28 14 29 16 30 15 31 2 32 3 33 1 34
REMARK SMILES IDX 37 35 24 37 25 38 26 39 27 40 28 41 36 42 29 43 33 44 30 45
REMARK SMILES IDX 31 46 34 47 35 48 32 49
REMARK H PARENT 39 24 32 50
REMARK Flexibility Score: 90.00
ROOT
ATOM      1  C   UNL     1      69.959  87.968  70.904  1.00  0.00     0.264 C 
ENDROOT
BRANCH   1   2
ATOM      2  C   UNL     1      71.361  88.255  70.420  1.00  0.00    -0.033 C 
ATOM      3  C   UNL     1      72.225  87.233  70.259  1.00  0.00    -0.015 C 
BRANCH   3   4
ATOM      4  C   UNL     1      73.692  87.262  69.864  1.00  0.00     0.078 C 
ATOM      5  O   UNL     1      73.781  87.017  67.404  1.00  0.00    -0.319 OA
ATOM      6  C   UNL     1      74.086  87.937  68.497  1.00  0.00     0.095 C 
ATOM      7  C   UNL     1      74.138  85.641  67.639  1.00  0.00     0.289 C 
ATOM      8  C   UNL     1      75.646  88.212  68.530  1.00  0.00     0.023 C 
ATOM      9  O   UNL     1      73.502  85.135  68.809  1.00  0.00    -0.320 OA
ATOM     10  O   UNL     1      75.536  85.475  67.857  1.00  0.00    -0.313 OA
ATOM     11  C   UNL     1      74.255  85.820  69.822  1.00  0.00     0.170 C 
ATOM     12  C   UNL     1      76.403  87.118  69.344  1.00  0.00     0.049 C 
ATOM     13  C   UNL     1      76.316  88.382  67.157  1.00  0.00     0.011 C 
ATOM     14  C   UNL     1      75.698  85.763  69.261  1.00  0.00     0.122 C 
BRANCH   6  15
ATOM     15  C   UNL     1      73.194  89.181  68.218  1.00  0.00     0.086 C 
ATOM     16  C   UNL     1      72.922  90.107  69.422  1.00  0.00     0.140 CG0
ATOM     17  C   UNL     1      73.582  90.135  67.124  1.00  0.00    -0.010 C 
ATOM     18  C   UNL     1      72.862  91.474  68.775  1.00  0.00     0.190 C 
ATOM     19  G   UNL     1      71.627  89.745  70.147  1.00  0.00     0.000 G0
ATOM     20  C   UNL     1      73.381  91.429  67.395  1.00  0.00    -0.008 C 
ATOM     21  O   UNL     1      72.485  92.500  69.321  1.00  0.00    -0.291 OA
ATOM     22  C   UNL     1      73.566  92.620  66.541  1.00  0.00     0.048 C 
BRANCH  16  23
ATOM     23  O   UNL     1      74.010  90.207  70.326  1.00  0.00    -0.381 OA
ATOM     24  H   UNL     1      73.659  90.206  71.231  1.00  0.00     0.212 HD
ENDBRANCH  16  23
ENDBRANCH   6  15
BRANCH   7  25
ATOM     25  C   UNL     1      73.714  84.828  66.433  1.00  0.00     0.135 C 
BRANCH  25  26
ATOM     26  C   UNL     1      74.747  83.795  66.055  1.00  0.00    -0.040 A 
ATOM     27  C   UNL     1      75.870  84.171  65.317  1.00  0.00     0.004 A 
ATOM     28  C   UNL     1      74.581  82.467  66.445  1.00  0.00     0.004 A 
ATOM     29  C   UNL     1      76.826  83.216  64.968  1.00  0.00     0.000 A 
ATOM     30  C   UNL     1      75.537  81.512  66.096  1.00  0.00     0.000 A 
ATOM     31  C   UNL     1      76.659  81.888  65.358  1.00  0.00     0.000 A 
ENDBRANCH  25  26
ENDBRANCH   7  25
BRANCH  14  32
ATOM     32  C   UNL     1      76.497  84.662  69.879  1.00  0.00    -0.046 C 
ATOM     33  C   UNL     1      77.486  83.978  68.983  1.00  0.00     0.042 C 
ATOM     34  C   UNL     1      76.338  84.304  71.162  1.00  0.00     0.010 C 
ENDBRANCH  14  32
ENDBRANCH   3   4
BRANCH   2  35
ATOM     35  C   UNL     1      71.612  89.729  70.163  1.00  0.00     0.078 CG0
ATOM     36  G   UNL     1      72.895  90.100  69.421  1.00  0.00     0.000 G0
ENDBRANCH   2  35
ENDBRANCH   1   2
BRANCH   1  37
ATOM     37  O   UNL     1      69.877  86.625  71.331  1.00  0.00    -0.461 OA
BRANCH  37  38
ATOM     38  C   UNL     1      68.692  85.976  71.074  1.00  0.00     0.310 C 
ATOM     39  O   UNL     1      67.601  86.520  70.973  1.00  0.00    -0.252 OA
BRANCH  38  40
ATOM     40  C   UNL     1      68.948  84.494  70.938  1.00  0.00     0.158 C 
BRANCH  40  41
ATOM     41  C   UNL     1      69.136  84.058  69.508  1.00  0.00    -0.033 A 
ATOM     42  C   UNL     1      68.094  84.205  68.591  1.00  0.00     0.054 A 
ATOM     43  C   UNL     1      70.351  83.509  69.100  1.00  0.00     0.008 A 
ATOM     44  C   UNL     1      68.268  83.802  67.267  1.00  0.00     0.160 A 
ATOM     45  C   UNL     1      70.526  83.106  67.776  1.00  0.00     0.050 A 
ATOM     46  C   UNL     1      69.485  83.252  66.860  1.00  0.00     0.157 A 
BRANCH  44  47
ATOM     47  O   UNL     1      67.244  83.950  66.382  1.00  0.00    -0.493 OA
ATOM     48  C   UNL     1      67.055  85.248  65.821  1.00  0.00     0.278 C 
ENDBRANCH  44  47
BRANCH  46  49
ATOM     49  O   UNL     1      69.667  82.856  65.570  1.00  0.00    -0.504 OA
ATOM     50  H   UNL     1      69.003  83.290  65.008  1.00  0.00     0.293 HD
ENDBRANCH  46  49
ENDBRANCH  40  41
ENDBRANCH  38  40
ENDBRANCH  37  38
ENDBRANCH   1  37
TORSDOF 11
ENDMDL
MODEL 3
REMARK VINA RESULT:    -5.737      2.566      6.885
REMARK INTER + INTRA:         -12.589
REMARK INTER:                 -10.749
REMARK INTRA:                  -1.840
REMARK UNBOUND:                -2.491
REMARK SMILES C=C(C)[C@]12C[C@@H](C)[C@@]34O[C@](Cc5ccccc5)(O[C@@H]1[C@@H]3C=C(COC(=O)Cc1ccc(O)c(OC)c1)C[C@]1(O)C(=O)C(C)=C[C@@H]41)O2
REMARK SMILES IDX 23 1 22 2 21 3 20 4 9 5 8 6 10 7 6 8 18 9 46 10 19 11 5 12
REMARK SMILES IDX 7 13 4 14 45 15 38 16 44 17 40 18 42 20 41 21 43 22 39 23
REMARK SMILES IDX 11 25 12 26 13 27 17 28 14 29 16 30 15 31 2 32 3 33 1 34
REMARK SMILES IDX 37 35 24 37 25 38 26 39 27 40 28 41 36 42 29 43 33 44 30 45
REMARK SMILES IDX 31 46 34 47 35 48 32 49
REMARK H PARENT 39 24 32 50
REMARK Flexibility Score: 90.00
ROOT
ATOM      1  C   UNL     1      65.041  87.790  74.523  1.00  0.00     0.264 C 
ENDROOT
BRANCH   1   2
ATOM      2  C   UNL     1      63.721  87.099  74.269  1.00  0.00    -0.033 C 
ATOM      3  C   UNL     1      62.830  87.666  73.431  1.00  0.00    -0.015 C 
BRANCH   3   4
ATOM      4  C   UNL     1      61.423  87.219  73.073  1.00  0.00     0.078 C 
ATOM      5  O   UNL     1      61.606  85.822  71.039  1.00  0.00    -0.319 OA
ATOM      6  C   UNL     1      61.228  85.786  72.450  1.00  0.00     0.095 C 
ATOM      7  C   UNL     1      61.149  86.976  70.308  1.00  0.00     0.289 C 
ATOM      8  C   UNL     1      59.692  85.415  72.571  1.00  0.00     0.023 C 
ATOM      9  O   UNL     1      61.616  88.184  70.903  1.00  0.00    -0.320 OA
ATOM     10  O   UNL     1      59.728  87.078  70.292  1.00  0.00    -0.313 OA
ATOM     11  C   UNL     1      60.789  88.222  72.077  1.00  0.00     0.170 C 
ATOM     12  C   UNL     1      58.787  86.679  72.441  1.00  0.00     0.049 C 
ATOM     13  C   UNL     1      59.197  84.330  71.601  1.00  0.00     0.011 C 
ATOM     14  C   UNL     1      59.420  87.738  71.537  1.00  0.00     0.122 C 
BRANCH   6  15
ATOM     15  C   UNL     1      62.214  84.767  73.091  1.00  0.00     0.086 C 
ATOM     16  C   UNL     1      62.382  84.854  74.622  1.00  0.00     0.140 CG0
ATOM     17  C   UNL     1      62.019  83.298  72.843  1.00  0.00    -0.010 C 
ATOM     18  C   UNL     1      62.597  83.406  75.009  1.00  0.00     0.190 C 
ATOM     19  G   UNL     1      63.554  85.747  75.024  1.00  0.00     0.000 G0
ATOM     20  C   UNL     1      62.253  82.504  73.893  1.00  0.00    -0.008 C 
ATOM     21  O   UNL     1      62.957  83.013  76.108  1.00  0.00    -0.291 OA
ATOM     22  C   UNL     1      62.242  81.030  73.993  1.00  0.00     0.048 C 
BRANCH  16  23
ATOM     23  O   UNL     1      61.196  85.215  75.309  1.00  0.00    -0.381 OA
ATOM     24  H   UNL     1      60.587  84.458  75.291  1.00  0.00     0.212 HD
ENDBRANCH  16  23
ENDBRANCH   6  15
BRANCH   7  25
ATOM     25  C   UNL     1      61.665  86.873  68.886  1.00  0.00     0.135 C 
BRANCH  25  26
ATOM     26  C   UNL     1      62.767  85.851  68.758  1.00  0.00    -0.040 A 
ATOM     27  C   UNL     1      62.451  84.506  68.563  1.00  0.00     0.004 A 
ATOM     28  C   UNL     1      64.101  86.250  68.831  1.00  0.00     0.004 A 
ATOM     29  C   UNL     1      63.470  83.560  68.444  1.00  0.00     0.000 A 
ATOM     30  C   UNL     1      65.120  85.304  68.712  1.00  0.00     0.000 A 
ATOM     31  C   UNL     1      64.803  83.959  68.518  1.00  0.00     0.000 A 
ENDBRANCH  25  26
ENDBRANCH   7  25
BRANCH  14  32
ATOM     32  C   UNL     1      58.496  88.876  71.252  1.00  0.00    -0.046 C 
ATOM     33  C   UNL     1      58.228  89.165  69.804  1.00  0.00     0.042 C 
ATOM     34  C   UNL     1      57.936  89.599  72.233  1.00  0.00     0.010 C 
ENDBRANCH  14  32
ENDBRANCH   3   4
BRANCH   2  35
ATOM     35  C   UNL     1      63.579  85.792  75.025  1.00  0.00     0.078 CG0
ATOM     36  G   UNL     1      62.417  84.881  74.634  1.00  0.00     0.000 G0
ENDBRANCH   2  35
ENDBRANCH   1   2
BRANCH   1  37
ATOM     37  O   UNL     1      66.063  87.117  73.820  1.00  0.00    -0.461 OA
BRANCH  37  38
ATOM     38  C   UNL     1      66.768  87.866  72.906  1.00  0.00     0.310 C 
ATOM     39  O   UNL     1      67.327  88.926  73.149  1.00  0.00    -0.252 OA
BRANCH  38  40
ATOM     40  C   UNL     1      66.743  87.177  71.562  1.00  0.00     0.158 C 
BRANCH  40  41
ATOM     41  C   UNL     1      67.896  86.228  71.366  1.00  0.00    -0.033 A 
ATOM     42  C   UNL     1      68.967  86.591  70.549  1.00  0.00     0.054 A 
ATOM     43  C   UNL     1      67.894  84.986  72.002  1.00  0.00     0.008 A 
ATOM     44  C   UNL     1      70.035  85.712  70.367  1.00  0.00     0.160 A 
ATOM     45  C   UNL     1      68.962  84.107  71.821  1.00  0.00     0.050 A 
ATOM     46  C   UNL     1      70.032  84.469  71.003  1.00  0.00     0.157 A 
BRANCH  44  47
ATOM     47  O   UNL     1      71.075  86.077  69.567  1.00  0.00    -0.493 OA
ATOM     48  C   UNL     1      71.935  87.107  70.051  1.00  0.00     0.278 C 
ENDBRANCH  44  47
BRANCH  46  49
ATOM     49  O   UNL     1      71.070  83.604  70.834  1.00  0.00    -0.504 OA
ATOM     50  H   UNL     1      71.299  83.213  71.694  1.00  0.00     0.293 HD
ENDBRANCH  46  49
ENDBRANCH  40  41
ENDBRANCH  38  40
ENDBRANCH  37  38
ENDBRANCH   1  37
TORSDOF 11
ENDMDL
MODEL 4
REMARK VINA RESULT:    -5.723      2.170      6.087
REMARK INTER + INTRA:         -12.564
REMARK INTER:                 -10.934
REMARK INTRA:                  -1.630
REMARK UNBOUND:                -2.491
REMARK SMILES C=C(C)[C@]12C[C@@H](C)[C@@]34O[C@](Cc5ccccc5)(O[C@@H]1[C@@H]3C=C(COC(=O)Cc1ccc(O)c(OC)c1)C[C@]1(O)C(=O)C(C)=C[C@@H]41)O2
REMARK SMILES IDX 23 1 22 2 21 3 20 4 9 5 8 6 10 7 6 8 18 9 46 10 19 11 5 12
REMARK SMILES IDX 7 13 4 14 45 15 38 16 44 17 40 18 42 20 41 21 43 22 39 23
REMARK SMILES IDX 11 25 12 26 13 27 17 28 14 29 16 30 15 31 2 32 3 33 1 34
REMARK SMILES IDX 37 35 24 37 25 38 26 39 27 40 28 41 36 42 29 43 33 44 30 45
REMARK SMILES IDX 31 46 34 47 35 48 32 49
REMARK H PARENT 39 24 32 50
REMARK Flexibility Score: 90.00
ROOT
ATOM      1  C   UNL     1      65.616  89.453  72.923  1.00  0.00     0.264 C 
ENDROOT
BRANCH   1   2
ATOM      2  C   UNL     1      64.624  88.477  73.509  1.00  0.00    -0.033 C 
ATOM      3  C   UNL     1      63.545  88.118  72.784  1.00  0.00    -0.015 C 
BRANCH   3   4
ATOM      4  C   UNL     1      62.376  87.227  73.170  1.00  0.00     0.078 C 
ATOM      5  O   UNL     1      62.938  84.938  72.418  1.00  0.00    -0.319 OA
ATOM      6  C   UNL     1      62.678  85.745  73.608  1.00  0.00     0.095 C 
ATOM      7  C   UNL     1      62.054  85.177  71.306  1.00  0.00     0.289 C 
ATOM      8  C   UNL     1      61.389  85.191  74.345  1.00  0.00     0.023 C 
ATOM      9  O   UNL     1      62.086  86.544  70.906  1.00  0.00    -0.320 OA
ATOM     10  O   UNL     1      60.694  84.901  71.627  1.00  0.00    -0.313 OA
ATOM     11  C   UNL     1      61.369  87.143  71.997  1.00  0.00     0.170 C 
ATOM     12  C   UNL     1      60.083  85.796  73.745  1.00  0.00     0.049 C 
ATOM     13  C   UNL     1      61.266  83.659  74.398  1.00  0.00     0.011 C 
ATOM     14  C   UNL     1      60.239  86.115  72.258  1.00  0.00     0.122 C 
BRANCH   6  15
ATOM     15  C   UNL     1      64.000  85.670  74.425  1.00  0.00     0.086 C 
ATOM     16  C   UNL     1      64.212  86.776  75.479  1.00  0.00     0.140 CG0
ATOM     17  C   UNL     1      64.334  84.408  75.171  1.00  0.00    -0.010 C 
ATOM     18  C   UNL     1      64.956  86.043  76.576  1.00  0.00     0.190 C 
ATOM     19  G   UNL     1      65.004  87.958  74.924  1.00  0.00     0.000 G0
ATOM     20  C   UNL     1      64.898  84.584  76.370  1.00  0.00    -0.008 C 
ATOM     21  O   UNL     1      65.495  86.568  77.538  1.00  0.00    -0.291 OA
ATOM     22  C   UNL     1      65.425  83.591  77.329  1.00  0.00     0.048 C 
BRANCH  16  23
ATOM     23  O   UNL     1      63.016  87.204  76.110  1.00  0.00    -0.381 OA
ATOM     24  H   UNL     1      63.085  88.158  76.283  1.00  0.00     0.212 HD
ENDBRANCH  16  23
ENDBRANCH   6  15
BRANCH   7  25
ATOM     25  C   UNL     1      62.492  84.296  70.153  1.00  0.00     0.135 C 
BRANCH  25  26
ATOM     26  C   UNL     1      63.486  83.248  70.588  1.00  0.00    -0.040 A 
ATOM     27  C   UNL     1      64.744  83.189  69.988  1.00  0.00     0.004 A 
ATOM     28  C   UNL     1      63.149  82.340  71.591  1.00  0.00     0.004 A 
ATOM     29  C   UNL     1      65.664  82.220  70.390  1.00  0.00     0.000 A 
ATOM     30  C   UNL     1      64.070  81.371  71.994  1.00  0.00     0.000 A 
ATOM     31  C   UNL     1      65.327  81.312  71.392  1.00  0.00     0.000 A 
ENDBRANCH  25  26
ENDBRANCH   7  25
BRANCH  14  32
ATOM     32  C   UNL     1      58.951  86.523  71.620  1.00  0.00    -0.046 C 
ATOM     33  C   UNL     1      58.200  85.446  70.895  1.00  0.00     0.042 C 
ATOM     34  C   UNL     1      58.492  87.782  71.691  1.00  0.00     0.010 C 
ENDBRANCH  14  32
ENDBRANCH   3   4
BRANCH   2  35
ATOM     35  C   UNL     1      65.003  88.006  74.900  1.00  0.00     0.078 CG0
ATOM     36  G   UNL     1      64.228  86.820  75.472  1.00  0.00     0.000 G0
ENDBRANCH   2  35
ENDBRANCH   1   2
BRANCH   1  37
ATOM     37  O   UNL     1      66.131  88.929  71.717  1.00  0.00    -0.461 OA
BRANCH  37  38
ATOM     38  C   UNL     1      67.463  89.166  71.470  1.00  0.00     0.310 C 
ATOM     39  O   UNL     1      67.896  89.892  70.586  1.00  0.00    -0.252 OA
BRANCH  38  40
ATOM     40  C   UNL     1      68.304  88.390  72.457  1.00  0.00     0.158 C 
BRANCH  40  41
ATOM     41  C   UNL     1      68.887  87.131  71.870  1.00  0.00    -0.033 A 
ATOM     42  C   UNL     1      70.079  87.186  71.146  1.00  0.00     0.054 A 
ATOM     43  C   UNL     1      68.237  85.910  72.051  1.00  0.00     0.008 A 
ATOM     44  C   UNL     1      70.619  86.020  70.603  1.00  0.00     0.160 A 
ATOM     45  C   UNL     1      68.777  84.744  71.508  1.00  0.00     0.050 A 
ATOM     46  C   UNL     1      69.967  84.799  70.784  1.00  0.00     0.157 A 
BRANCH  44  47
ATOM     47  O   UNL     1      71.782  86.086  69.897  1.00  0.00    -0.493 OA
ATOM     48  C   UNL     1      72.514  87.308  69.967  1.00  0.00     0.278 C 
ENDBRANCH  44  47
BRANCH  46  49
ATOM     49  O   UNL     1      70.486  83.654  70.259  1.00  0.00    -0.504 OA
ATOM     50  H   UNL     1      70.556  82.987  70.963  1.00  0.00     0.293 HD
ENDBRANCH  46  49
ENDBRANCH  40  41
ENDBRANCH  38  40
ENDBRANCH  37  38
ENDBRANCH   1  37
TORSDOF 11
ENDMDL
MODEL 5
REMARK VINA RESULT:    -5.703      2.949      6.743
REMARK INTER + INTRA:         -12.529
REMARK INTER:                 -11.619
REMARK INTRA:                  -0.911
REMARK UNBOUND:                -2.491
REMARK SMILES C=C(C)[C@]12C[C@@H](C)[C@@]34O[C@](Cc5ccccc5)(O[C@@H]1[C@@H]3C=C(COC(=O)Cc1ccc(O)c(OC)c1)C[C@]1(O)C(=O)C(C)=C[C@@H]41)O2
REMARK SMILES IDX 23 1 22 2 21 3 20 4 9 5 8 6 10 7 6 8 18 9 46 10 19 11 5 12
REMARK SMILES IDX 7 13 4 14 45 15 38 16 44 17 40 18 42 20 41 21 43 22 39 23
REMARK SMILES IDX 11 25 12 26 13 27 17 28 14 29 16 30 15 31 2 32 3 33 1 34
REMARK SMILES IDX 37 35 24 37 25 38 26 39 27 40 28 41 36 42 29 43 33 44 30 45
REMARK SMILES IDX 31 46 34 47 35 48 32 49
REMARK H PARENT 39 24 32 50
REMARK Flexibility Score: 90.00
ROOT
ATOM      1  C   UNL     1      67.652  86.236  70.897  1.00  0.00     0.264 C 
ENDROOT
BRANCH   1   2
ATOM      2  C   UNL     1      66.611  85.238  71.346  1.00  0.00    -0.033 C 
ATOM      3  C   UNL     1      66.151  85.289  72.612  1.00  0.00    -0.015 C 
BRANCH   3   4
ATOM      4  C   UNL     1      65.176  84.364  73.323  1.00  0.00     0.078 C 
ATOM      5  O   UNL     1      62.920  85.339  73.036  1.00  0.00    -0.319 OA
ATOM      6  C   UNL     1      63.739  84.175  72.706  1.00  0.00     0.095 C 
ATOM      7  C   UNL     1      63.048  85.821  74.387  1.00  0.00     0.289 C 
ATOM      8  C   UNL     1      63.101  82.883  73.365  1.00  0.00     0.023 C 
ATOM      9  O   UNL     1      64.401  86.154  74.691  1.00  0.00    -0.320 OA
ATOM     10  O   UNL     1      62.668  84.841  75.349  1.00  0.00    -0.313 OA
ATOM     11  C   UNL     1      64.970  84.838  74.782  1.00  0.00     0.170 C 
ATOM     12  C   UNL     1      63.574  82.700  74.840  1.00  0.00     0.049 C 
ATOM     13  C   UNL     1      61.567  82.801  73.305  1.00  0.00     0.011 C 
ATOM     14  C   UNL     1      63.859  84.043  75.513  1.00  0.00     0.122 C 
BRANCH   6  15
ATOM     15  C   UNL     1      63.802  84.172  71.151  1.00  0.00     0.086 C 
ATOM     16  C   UNL     1      64.958  83.369  70.519  1.00  0.00     0.140 CG0
ATOM     17  C   UNL     1      62.599  83.729  70.367  1.00  0.00    -0.010 C 
ATOM     18  C   UNL     1      64.328  82.834  69.250  1.00  0.00     0.190 C 
ATOM     19  G   UNL     1      66.183  84.240  70.243  1.00  0.00     0.000 G0
ATOM     20  C   UNL     1      62.863  83.000  69.277  1.00  0.00    -0.008 C 
ATOM     21  O   UNL     1      64.929  82.289  68.337  1.00  0.00    -0.291 OA
ATOM     22  C   UNL     1      61.951  82.473  68.242  1.00  0.00     0.048 C 
BRANCH  16  23
ATOM     23  O   UNL     1      65.307  82.200  71.242  1.00  0.00    -0.381 OA
ATOM     24  H   UNL     1      65.407  82.436  72.179  1.00  0.00     0.212 HD
ENDBRANCH  16  23
ENDBRANCH   6  15
BRANCH   7  25
ATOM     25  C   UNL     1      62.172  87.047  74.540  1.00  0.00     0.135 C 
BRANCH  25  26
ATOM     26  C   UNL     1      61.017  87.042  73.569  1.00  0.00    -0.040 A 
ATOM     27  C   UNL     1      60.026  86.065  73.671  1.00  0.00     0.004 A 
ATOM     28  C   UNL     1      60.940  88.013  72.572  1.00  0.00     0.004 A 
ATOM     29  C   UNL     1      58.958  86.060  72.774  1.00  0.00     0.000 A 
ATOM     30  C   UNL     1      59.871  88.007  71.674  1.00  0.00     0.000 A 
ATOM     31  C   UNL     1      58.881  87.030  71.776  1.00  0.00     0.000 A 
ENDBRANCH  25  26
ENDBRANCH   7  25
BRANCH  14  32
ATOM     32  C   UNL     1      64.135  83.906  76.975  1.00  0.00    -0.046 C 
ATOM     33  C   UNL     1      65.534  83.517  77.350  1.00  0.00     0.042 C 
ATOM     34  C   UNL     1      63.187  84.118  77.899  1.00  0.00     0.010 C 
ENDBRANCH  14  32
ENDBRANCH   3   4
BRANCH   2  35
ATOM     35  C   UNL     1      66.201  84.272  70.250  1.00  0.00     0.078 CG0
ATOM     36  G   UNL     1      64.992  83.379  70.522  1.00  0.00     0.000 G0
ENDBRANCH   2  35
ENDBRANCH   1   2
BRANCH   1  37
ATOM     37  O   UNL     1      68.468  85.647  69.908  1.00  0.00    -0.461 OA
BRANCH  37  38
ATOM     38  C   UNL     1      69.264  86.505  69.186  1.00  0.00     0.310 C 
ATOM     39  O   UNL     1      68.859  87.449  68.522  1.00  0.00    -0.252 OA
BRANCH  38  40
ATOM     40  C   UNL     1      70.712  86.101  69.341  1.00  0.00     0.158 C 
BRANCH  40  41
ATOM     41  C   UNL     1      71.512  87.083  70.157  1.00  0.00    -0.033 A 
ATOM     42  C   UNL     1      72.894  87.171  69.983  1.00  0.00     0.054 A 
ATOM     43  C   UNL     1      70.873  87.902  71.086  1.00  0.00     0.008 A 
ATOM     44  C   UNL     1      73.635  88.080  70.738  1.00  0.00     0.160 A 
ATOM     45  C   UNL     1      71.614  88.811  71.842  1.00  0.00     0.050 A 
ATOM     46  C   UNL     1      72.995  88.900  71.669  1.00  0.00     0.157 A 
BRANCH  44  47
ATOM     47  O   UNL     1      74.983  88.157  70.560  1.00  0.00    -0.493 OA
ATOM     48  C   UNL     1      75.632  87.010  70.014  1.00  0.00     0.278 C 
ENDBRANCH  44  47
BRANCH  46  49
ATOM     49  O   UNL     1      73.708  89.791  72.411  1.00  0.00    -0.504 OA
ATOM     50  H   UNL     1      73.255  89.929  73.260  1.00  0.00     0.293 HD
ENDBRANCH  46  49
ENDBRANCH  40  41
ENDBRANCH  38  40
ENDBRANCH  37  38
ENDBRANCH   1  37
TORSDOF 11
ENDMDL
MODEL 6
REMARK VINA RESULT:    -5.528      5.286      9.593
REMARK INTER + INTRA:         -12.221
REMARK INTER:                 -11.596
REMARK INTRA:                  -0.625
REMARK UNBOUND:                -2.491
REMARK SMILES C=C(C)[C@]12C[C@@H](C)[C@@]34O[C@](Cc5ccccc5)(O[C@@H]1[C@@H]3C=C(COC(=O)Cc1ccc(O)c(OC)c1)C[C@]1(O)C(=O)C(C)=C[C@@H]41)O2
REMARK SMILES IDX 23 1 22 2 21 3 20 4 9 5 8 6 10 7 6 8 18 9 46 10 19 11 5 12
REMARK SMILES IDX 7 13 4 14 45 15 38 16 44 17 40 18 42 20 41 21 43 22 39 23
REMARK SMILES IDX 11 25 12 26 13 27 17 28 14 29 16 30 15 31 2 32 3 33 1 34
REMARK SMILES IDX 37 35 24 37 25 38 26 39 27 40 28 41 36 42 29 43 33 44 30 45
REMARK SMILES IDX 31 46 34 47 35 48 32 49
REMARK H PARENT 39 24 32 50
REMARK Flexibility Score: 90.00
ROOT
ATOM      1  C   UNL     1      68.922  83.930  70.829  1.00  0.00     0.264 C 
ENDROOT
BRANCH   1   2
ATOM      2  C   UNL     1      69.700  84.564  69.700  1.00  0.00    -0.033 C 
ATOM      3  C   UNL     1      70.167  85.820  69.845  1.00  0.00    -0.015 C 
BRANCH   3   4
ATOM      4  C   UNL     1      70.900  86.699  68.845  1.00  0.00     0.078 C 
ATOM      5  O   UNL     1      73.321  86.344  69.212  1.00  0.00    -0.319 OA
ATOM      6  C   UNL     1      72.251  86.170  68.232  1.00  0.00     0.095 C 
ATOM      7  C   UNL     1      73.312  87.599  69.918  1.00  0.00     0.289 C 
ATOM      8  C   UNL     1      72.570  87.043  66.949  1.00  0.00     0.023 C 
ATOM      9  O   UNL     1      72.077  87.800  70.600  1.00  0.00    -0.320 OA
ATOM     10  O   UNL     1      73.455  88.714  69.042  1.00  0.00    -0.313 OA
ATOM     11  C   UNL     1      71.215  88.074  69.484  1.00  0.00     0.170 C 
ATOM     12  C   UNL     1      72.071  88.511  67.118  1.00  0.00     0.049 C 
ATOM     13  C   UNL     1      74.041  87.051  66.505  1.00  0.00     0.011 C 
ATOM     14  C   UNL     1      72.111  88.957  68.580  1.00  0.00     0.122 C 
BRANCH   6  15
ATOM     15  C   UNL     1      72.185  84.633  67.997  1.00  0.00     0.086 C 
ATOM     16  C   UNL     1      70.873  84.094  67.392  1.00  0.00     0.140 CG0
ATOM     17  C   UNL     1      73.250  83.969  67.170  1.00  0.00    -0.010 C 
ATOM     18  C   UNL     1      71.358  82.946  66.532  1.00  0.00     0.190 C 
ATOM     19  G   UNL     1      69.885  83.643  68.466  1.00  0.00     0.000 G0
ATOM     20  C   UNL     1      72.822  82.998  66.357  1.00  0.00    -0.008 C 
ATOM     21  O   UNL     1      70.645  82.107  66.002  1.00  0.00    -0.291 OA
ATOM     22  C   UNL     1      73.583  82.088  65.476  1.00  0.00     0.048 C 
BRANCH  16  23
ATOM     23  O   UNL     1      70.262  84.976  66.465  1.00  0.00    -0.381 OA
ATOM     24  H   UNL     1      69.882  84.449  65.743  1.00  0.00     0.212 HD
ENDBRANCH  16  23
ENDBRANCH   6  15
BRANCH   7  25
ATOM     25  C   UNL     1      74.452  87.590  70.917  1.00  0.00     0.135 C 
BRANCH  25  26
ATOM     26  C   UNL     1      75.662  86.861  70.387  1.00  0.00    -0.040 A 
ATOM     27  C   UNL     1      75.872  85.523  70.724  1.00  0.00     0.004 A 
ATOM     28  C   UNL     1      76.569  87.522  69.561  1.00  0.00     0.004 A 
ATOM     29  C   UNL     1      76.990  84.848  70.235  1.00  0.00     0.000 A 
ATOM     30  C   UNL     1      77.688  86.847  69.071  1.00  0.00     0.000 A 
ATOM     31  C   UNL     1      77.898  85.510  69.409  1.00  0.00     0.000 A 
ENDBRANCH  25  26
ENDBRANCH   7  25
BRANCH  14  32
ATOM     32  C   UNL     1      71.813  90.412  68.744  1.00  0.00    -0.046 C 
ATOM     33  C   UNL     1      70.857  91.009  67.754  1.00  0.00     0.042 C 
ATOM     34  C   UNL     1      72.368  91.144  69.722  1.00  0.00     0.010 C 
ENDBRANCH  14  32
ENDBRANCH   3   4
BRANCH   2  35
ATOM     35  C   UNL     1      69.861  83.649  68.500  1.00  0.00     0.078 CG0
ATOM     36  G   UNL     1      70.841  84.088  67.413  1.00  0.00     0.000 G0
ENDBRANCH   2  35
ENDBRANCH   1   2
BRANCH   1  37
ATOM     37  O   UNL     1      67.721  84.643  71.028  1.00  0.00    -0.461 OA
BRANCH  37  38
ATOM     38  C   UNL     1      66.580  84.067  70.519  1.00  0.00     0.310 C 
ATOM     39  O   UNL     1      66.556  83.131  69.732  1.00  0.00    -0.252 OA
BRANCH  38  40
ATOM     40  C   UNL     1      65.367  84.769  71.082  1.00  0.00     0.158 C 
BRANCH  40  41
ATOM     41  C   UNL     1      64.432  83.836  71.809  1.00  0.00    -0.033 A 
ATOM     42  C   UNL     1      63.319  84.346  72.479  1.00  0.00     0.054 A 
ATOM     43  C   UNL     1      64.679  82.463  71.811  1.00  0.00     0.008 A 
ATOM     44  C   UNL     1      62.455  83.482  73.152  1.00  0.00     0.160 A 
ATOM     45  C   UNL     1      63.814  81.600  72.484  1.00  0.00     0.050 A 
ATOM     46  C   UNL     1      62.703  82.109  73.154  1.00  0.00     0.157 A 
BRANCH  44  47
ATOM     47  O   UNL     1      61.372  83.991  73.802  1.00  0.00    -0.493 OA
ATOM     48  C   UNL     1      60.321  84.522  72.996  1.00  0.00     0.278 C 
ENDBRANCH  44  47
BRANCH  46  49
ATOM     49  O   UNL     1      61.865  81.256  73.806  1.00  0.00    -0.504 OA
ATOM     50  H   UNL     1      61.502  80.619  73.168  1.00  0.00     0.293 HD
ENDBRANCH  46  49
ENDBRANCH  40  41
ENDBRANCH  38  40
ENDBRANCH  37  38
ENDBRANCH   1  37
TORSDOF 11
ENDMDL
MODEL 7
REMARK VINA RESULT:    -5.319      2.451      6.787
REMARK INTER + INTRA:         -11.852
REMARK INTER:                  -9.623
REMARK INTRA:                  -2.230
REMARK UNBOUND:                -2.491
REMARK SMILES C=C(C)[C@]12C[C@@H](C)[C@@]34O[C@](Cc5ccccc5)(O[C@@H]1[C@@H]3C=C(COC(=O)Cc1ccc(O)c(OC)c1)C[C@]1(O)C(=O)C(C)=C[C@@H]41)O2
REMARK SMILES IDX 23 1 22 2 21 3 20 4 9 5 8 6 10 7 6 8 18 9 46 10 19 11 5 12
REMARK SMILES IDX 7 13 4 14 45 15 38 16 44 17 40 18 42 20 41 21 43 22 39 23
REMARK SMILES IDX 11 25 12 26 13 27 17 28 14 29 16 30 15 31 2 32 3 33 1 34
REMARK SMILES IDX 37 35 24 37 25 38 26 39 27 40 28 41 36 42 29 43 33 44 30 45
REMARK SMILES IDX 31 46 34 47 35 48 32 49
REMARK H PARENT 39 24 32 50
REMARK Flexibility Score: 90.00
ROOT
ATOM      1  C   UNL     1      64.830  88.037  75.170  1.00  0.00     0.264 C 
ENDROOT
BRANCH   1   2
ATOM      2  C   UNL     1      63.558  87.347  74.736  1.00  0.00    -0.033 C 
ATOM      3  C   UNL     1      62.700  87.997  73.925  1.00  0.00    -0.015 C 
BRANCH   3   4
ATOM      4  C   UNL     1      61.336  87.560  73.415  1.00  0.00     0.078 C 
ATOM      5  O   UNL     1      61.708  86.418  71.253  1.00  0.00    -0.319 OA
ATOM      6  C   UNL     1      61.233  86.206  72.618  1.00  0.00     0.095 C 
ATOM      7  C   UNL     1      61.265  87.637  70.628  1.00  0.00     0.289 C 
ATOM      8  C   UNL     1      59.706  85.786  72.582  1.00  0.00     0.023 C 
ATOM      9  O   UNL     1      61.649  88.778  71.391  1.00  0.00    -0.320 OA
ATOM     10  O   UNL     1      59.846  87.706  70.520  1.00  0.00    -0.313 OA
ATOM     11  C   UNL     1      60.741  88.657  72.498  1.00  0.00     0.170 C 
ATOM     12  C   UNL     1      58.771  87.033  72.533  1.00  0.00     0.049 C 
ATOM     13  C   UNL     1      59.316  84.810  71.460  1.00  0.00     0.011 C 
ATOM     14  C   UNL     1      59.430  88.206  71.807  1.00  0.00     0.122 C 
BRANCH   6  15
ATOM     15  C   UNL     1      62.205  85.144  73.208  1.00  0.00     0.086 C 
ATOM     16  C   UNL     1      62.271  85.062  74.747  1.00  0.00     0.140 CG0
ATOM     17  C   UNL     1      62.070  83.707  72.787  1.00  0.00    -0.010 C 
ATOM     18  C   UNL     1      62.503  83.585  74.985  1.00  0.00     0.190 C 
ATOM     19  G   UNL     1      63.389  85.930  75.323  1.00  0.00     0.000 G0
ATOM     20  C   UNL     1      62.258  82.806  73.757  1.00  0.00    -0.008 C 
ATOM     21  O   UNL     1      62.802  83.079  76.056  1.00  0.00    -0.291 OA
ATOM     22  C   UNL     1      62.284  81.331  73.693  1.00  0.00     0.048 C 
BRANCH  16  23
ATOM     23  O   UNL     1      61.033  85.319  75.389  1.00  0.00    -0.381 OA
ATOM     24  H   UNL     1      60.357  84.744  74.992  1.00  0.00     0.212 HD
ENDBRANCH  16  23
ENDBRANCH   6  15
BRANCH   7  25
ATOM     25  C   UNL     1      61.882  87.715  69.246  1.00  0.00     0.135 C 
BRANCH  25  26
ATOM     26  C   UNL     1      63.388  87.635  69.294  1.00  0.00    -0.040 A 
ATOM     27  C   UNL     1      64.119  88.635  69.935  1.00  0.00     0.004 A 
ATOM     28  C   UNL     1      64.049  86.560  68.699  1.00  0.00     0.004 A 
ATOM     29  C   UNL     1      65.512  88.561  69.980  1.00  0.00     0.000 A 
ATOM     30  C   UNL     1      65.441  86.486  68.744  1.00  0.00     0.000 A 
ATOM     31  C   UNL     1      66.172  87.487  69.384  1.00  0.00     0.000 A 
ENDBRANCH  25  26
ENDBRANCH   7  25
BRANCH  14  32
ATOM     32  C   UNL     1      58.490  89.347  71.587  1.00  0.00    -0.046 C 
ATOM     33  C   UNL     1      58.771  90.596  72.369  1.00  0.00     0.042 C 
ATOM     34  C   UNL     1      57.455  89.260  70.739  1.00  0.00     0.010 C 
ENDBRANCH  14  32
ENDBRANCH   3   4
BRANCH   2  35
ATOM     35  C   UNL     1      63.421  85.944  75.296  1.00  0.00     0.078 CG0
ATOM     36  G   UNL     1      62.271  85.089  74.767  1.00  0.00     0.000 G0
ENDBRANCH   2  35
ENDBRANCH   1   2
BRANCH   1  37
ATOM     37  O   UNL     1      65.758  88.018  74.107  1.00  0.00    -0.461 OA
BRANCH  37  38
ATOM     38  C   UNL     1      66.781  87.103  74.208  1.00  0.00     0.310 C 
ATOM     39  O   UNL     1      66.923  86.307  75.125  1.00  0.00    -0.252 OA
BRANCH  38  40
ATOM     40  C   UNL     1      67.696  87.236  73.014  1.00  0.00     0.158 C 
BRANCH  40  41
ATOM     41  C   UNL     1      67.826  85.957  72.227  1.00  0.00    -0.033 A 
ATOM     42  C   UNL     1      66.682  85.261  71.835  1.00  0.00     0.054 A 
ATOM     43  C   UNL     1      69.089  85.470  71.890  1.00  0.00     0.008 A 
ATOM     44  C   UNL     1      66.802  84.077  71.106  1.00  0.00     0.160 A 
ATOM     45  C   UNL     1      69.208  84.286  71.162  1.00  0.00     0.050 A 
ATOM     46  C   UNL     1      68.066  83.590  70.770  1.00  0.00     0.157 A 
BRANCH  44  47
ATOM     47  O   UNL     1      65.678  83.406  70.730  1.00  0.00    -0.493 OA
ATOM     48  C   UNL     1      65.231  82.357  71.587  1.00  0.00     0.278 C 
ENDBRANCH  44  47
BRANCH  46  49
ATOM     49  O   UNL     1      68.195  82.436  70.058  1.00  0.00    -0.504 OA
ATOM     50  H   UNL     1      68.510  82.649  69.164  1.00  0.00     0.293 HD
ENDBRANCH  46  49
ENDBRANCH  40  41
ENDBRANCH  38  40
ENDBRANCH  37  38
ENDBRANCH   1  37
TORSDOF 11
ENDMDL
MODEL 8
REMARK VINA RESULT:    -5.166      3.604      6.932
REMARK INTER + INTRA:         -11.584
REMARK INTER:                 -10.557
REMARK INTRA:                  -1.027
REMARK UNBOUND:                -2.491
REMARK SMILES C=C(C)[C@]12C[C@@H](C)[C@@]34O[C@](Cc5ccccc5)(O[C@@H]1[C@@H]3C=C(COC(=O)Cc1ccc(O)c(OC)c1)C[C@]1(O)C(=O)C(C)=C[C@@H]41)O2
REMARK SMILES IDX 23 1 22 2 21 3 20 4 9 5 8 6 10 7 6 8 18 9 46 10 19 11 5 12
REMARK SMILES IDX 7 13 4 14 45 15 38 16 44 17 40 18 42 20 41 21 43 22 39 23
REMARK SMILES IDX 11 25 12 26 13 27 17 28 14 29 16 30 15 31 2 32 3 33 1 34
REMARK SMILES IDX 37 35 24 37 25 38 26 39 27 40 28 41 36 42 29 43 33 44 30 45
REMARK SMILES IDX 31 46 34 47 35 48 32 49
REMARK H PARENT 39 24 32 50
REMARK Flexibility Score: 90.00
ROOT
ATOM      1  C   UNL     1      67.586  87.683  71.344  1.00  0.00     0.264 C 
ENDROOT
BRANCH   1   2
ATOM      2  C   UNL     1      67.231  86.272  70.939  1.00  0.00    -0.033 C 
ATOM      3  C   UNL     1      66.120  85.700  71.447  1.00  0.00    -0.015 C 
BRANCH   3   4
ATOM      4  C   UNL     1      65.592  84.287  71.262  1.00  0.00     0.078 C 
ATOM      5  O   UNL     1      64.024  84.348  69.349  1.00  0.00    -0.319 OA
ATOM      6  C   UNL     1      65.294  83.784  69.800  1.00  0.00     0.095 C 
ATOM      7  C   UNL     1      62.965  84.341  70.326  1.00  0.00     0.289 C 
ATOM      8  C   UNL     1      65.177  82.205  69.850  1.00  0.00     0.023 C 
ATOM      9  O   UNL     1      63.346  85.042  71.507  1.00  0.00    -0.320 OA
ATOM     10  O   UNL     1      62.632  83.022  70.752  1.00  0.00    -0.313 OA
ATOM     11  C   UNL     1      64.281  84.106  72.065  1.00  0.00     0.170 C 
ATOM     12  C   UNL     1      64.571  81.720  71.203  1.00  0.00     0.049 C 
ATOM     13  C   UNL     1      64.406  81.563  68.685  1.00  0.00     0.011 C 
ATOM     14  C   UNL     1      63.597  82.744  71.786  1.00  0.00     0.122 C 
BRANCH   6  15
ATOM     15  C   UNL     1      66.345  84.345  68.799  1.00  0.00     0.086 C 
ATOM     16  C   UNL     1      67.812  84.337  69.277  1.00  0.00     0.140 CG0
ATOM     17  C   UNL     1      66.426  83.766  67.414  1.00  0.00    -0.010 C 
ATOM     18  C   UNL     1      68.572  84.073  67.994  1.00  0.00     0.190 C 
ATOM     19  G   UNL     1      68.212  85.658  69.933  1.00  0.00     0.000 G0
ATOM     20  C   UNL     1      67.662  83.626  66.923  1.00  0.00    -0.008 C 
ATOM     21  O   UNL     1      69.783  84.163  67.857  1.00  0.00    -0.291 OA
ATOM     22  C   UNL     1      68.111  83.177  65.589  1.00  0.00     0.048 C 
BRANCH  16  23
ATOM     23  O   UNL     1      68.141  83.230  70.099  1.00  0.00    -0.381 OA
ATOM     24  H   UNL     1      68.956  82.826  69.758  1.00  0.00     0.212 HD
ENDBRANCH  16  23
ENDBRANCH   6  15
BRANCH   7  25
ATOM     25  C   UNL     1      61.746  84.998  69.711  1.00  0.00     0.135 C 
BRANCH  25  26
ATOM     26  C   UNL     1      60.676  85.275  70.736  1.00  0.00    -0.040 A 
ATOM     27  C   UNL     1      60.943  86.124  71.811  1.00  0.00     0.004 A 
ATOM     28  C   UNL     1      59.418  84.686  70.610  1.00  0.00     0.004 A 
ATOM     29  C   UNL     1      59.953  86.381  72.760  1.00  0.00     0.000 A 
ATOM     30  C   UNL     1      58.428  84.943  71.559  1.00  0.00     0.000 A 
ATOM     31  C   UNL     1      58.697  85.791  72.634  1.00  0.00     0.000 A 
ENDBRANCH  25  26
ENDBRANCH   7  25
BRANCH  14  32
ATOM     32  C   UNL     1      62.868  82.227  72.983  1.00  0.00    -0.046 C 
ATOM     33  C   UNL     1      63.578  81.180  73.790  1.00  0.00     0.042 C 
ATOM     34  C   UNL     1      61.648  82.672  73.318  1.00  0.00     0.010 C 
ENDBRANCH  14  32
ENDBRANCH   3   4
BRANCH   2  35
ATOM     35  C   UNL     1      68.221  85.666  69.963  1.00  0.00     0.078 CG0
ATOM     36  G   UNL     1      67.834  84.341  69.306  1.00  0.00     0.000 G0
ENDBRANCH   2  35
ENDBRANCH   1   2
BRANCH   1  37
ATOM     37  O   UNL     1      68.350  88.284  70.320  1.00  0.00    -0.461 OA
BRANCH  37  38
ATOM     38  C   UNL     1      68.944  89.485  70.630  1.00  0.00     0.310 C 
ATOM     39  O   UNL     1      68.380  90.571  70.623  1.00  0.00    -0.252 OA
BRANCH  38  40
ATOM     40  C   UNL     1      70.396  89.255  70.978  1.00  0.00     0.158 C 
BRANCH  40  41
ATOM     41  C   UNL     1      71.038  88.179  70.140  1.00  0.00    -0.033 A 
ATOM     42  C   UNL     1      71.183  88.360  68.764  1.00  0.00     0.054 A 
ATOM     43  C   UNL     1      71.487  87.003  70.740  1.00  0.00     0.008 A 
ATOM     44  C   UNL     1      71.777  87.364  67.989  1.00  0.00     0.160 A 
ATOM     45  C   UNL     1      72.081  86.007  69.965  1.00  0.00     0.050 A 
ATOM     46  C   UNL     1      72.226  86.187  68.589  1.00  0.00     0.157 A 
BRANCH  44  47
ATOM     47  O   UNL     1      71.913  87.552  66.647  1.00  0.00    -0.493 OA
ATOM     48  C   UNL     1      73.222  87.854  66.164  1.00  0.00     0.278 C 
ENDBRANCH  44  47
BRANCH  46  49
ATOM     49  O   UNL     1      72.808  85.208  67.843  1.00  0.00    -0.504 OA
ATOM     50  H   UNL     1      73.024  85.566  66.965  1.00  0.00     0.293 HD
ENDBRANCH  46  49
ENDBRANCH  40  41
ENDBRANCH  38  40
ENDBRANCH  37  38
ENDBRANCH   1  37
TORSDOF 11
ENDMDL
MODEL 9
REMARK VINA RESULT:    -4.909      2.594      7.815
REMARK INTER + INTRA:         -11.131
REMARK INTER:                 -10.004
REMARK INTRA:                  -1.127
REMARK UNBOUND:                -2.491
REMARK SMILES C=C(C)[C@]12C[C@@H](C)[C@@]34O[C@](Cc5ccccc5)(O[C@@H]1[C@@H]3C=C(COC(=O)Cc1ccc(O)c(OC)c1)C[C@]1(O)C(=O)C(C)=C[C@@H]41)O2
REMARK SMILES IDX 23 1 22 2 21 3 20 4 9 5 8 6 10 7 6 8 18 9 46 10 19 11 5 12
REMARK SMILES IDX 7 13 4 14 45 15 38 16 44 17 40 18 42 20 41 21 43 22 39 23
REMARK SMILES IDX 11 25 12 26 13 27 17 28 14 29 16 30 15 31 2 32 3 33 1 34
REMARK SMILES IDX 37 35 24 37 25 38 26 39 27 40 28 41 36 42 29 43 33 44 30 45
REMARK SMILES IDX 31 46 34 47 35 48 32 49
REMARK H PARENT 39 24 32 50
REMARK Flexibility Score: 90.00
ROOT
ATOM      1  C   UNL     1      62.219  84.903  76.421  1.00  0.00     0.264 C 
ENDROOT
BRANCH   1   2
ATOM      2  C   UNL     1      62.262  85.469  75.021  1.00  0.00    -0.033 C 
ATOM      3  C   UNL     1      63.456  85.732  74.453  1.00  0.00    -0.015 C 
BRANCH   3   4
ATOM      4  C   UNL     1      63.765  86.367  73.107  1.00  0.00     0.078 C 
ATOM      5  O   UNL     1      64.003  84.520  71.478  1.00  0.00    -0.319 OA
ATOM      6  C   UNL     1      63.189  85.687  71.809  1.00  0.00     0.095 C 
ATOM      7  C   UNL     1      65.426  84.706  71.603  1.00  0.00     0.289 C 
ATOM      8  C   UNL     1      63.284  86.743  70.631  1.00  0.00     0.023 C 
ATOM      9  O   UNL     1      65.781  85.111  72.922  1.00  0.00    -0.320 OA
ATOM     10  O   UNL     1      65.915  85.731  70.741  1.00  0.00    -0.313 OA
ATOM     11  C   UNL     1      65.298  86.463  72.910  1.00  0.00     0.170 C 
ATOM     12  C   UNL     1      64.532  87.666  70.791  1.00  0.00     0.049 C 
ATOM     13  C   UNL     1      63.263  86.153  69.212  1.00  0.00     0.011 C 
ATOM     14  C   UNL     1      65.685  86.943  71.488  1.00  0.00     0.122 C 
BRANCH   6  15
ATOM     15  C   UNL     1      61.769  85.108  72.073  1.00  0.00     0.086 C 
ATOM     16  C   UNL     1      60.823  85.985  72.920  1.00  0.00     0.140 CG0
ATOM     17  C   UNL     1      60.913  84.695  70.909  1.00  0.00    -0.010 C 
ATOM     18  C   UNL     1      59.469  85.685  72.313  1.00  0.00     0.190 C 
ATOM     19  G   UNL     1      60.888  85.635  74.406  1.00  0.00     0.000 G0
ATOM     20  C   UNL     1      59.612  84.980  71.025  1.00  0.00    -0.008 C 
ATOM     21  O   UNL     1      58.392  86.019  72.783  1.00  0.00    -0.291 OA
ATOM     22  C   UNL     1      58.483  84.654  70.130  1.00  0.00     0.048 C 
BRANCH  16  23
ATOM     23  O   UNL     1      60.989  87.377  72.709  1.00  0.00    -0.381 OA
ATOM     24  H   UNL     1      60.536  87.852  73.425  1.00  0.00     0.212 HD
ENDBRANCH  16  23
ENDBRANCH   6  15
BRANCH   7  25
ATOM     25  C   UNL     1      66.108  83.395  71.268  1.00  0.00     0.135 C 
BRANCH  25  26
ATOM     26  C   UNL     1      67.563  83.588  70.919  1.00  0.00    -0.040 A 
ATOM     27  C   UNL     1      68.030  83.229  69.654  1.00  0.00     0.004 A 
ATOM     28  C   UNL     1      68.441  84.125  71.860  1.00  0.00     0.004 A 
ATOM     29  C   UNL     1      69.376  83.407  69.331  1.00  0.00     0.000 A 
ATOM     30  C   UNL     1      69.786  84.303  71.537  1.00  0.00     0.000 A 
ATOM     31  C   UNL     1      70.253  83.944  70.272  1.00  0.00     0.000 A 
ENDBRANCH  25  26
ENDBRANCH   7  25
BRANCH  14  32
ATOM     32  C   UNL     1      66.947  87.742  71.490  1.00  0.00    -0.046 C 
ATOM     33  C   UNL     1      67.264  88.477  72.758  1.00  0.00     0.042 C 
ATOM     34  C   UNL     1      67.751  87.799  70.418  1.00  0.00     0.010 C 
ENDBRANCH  14  32
ENDBRANCH   3   4
BRANCH   2  35
ATOM     35  C   UNL     1      60.885  85.664  74.415  1.00  0.00     0.078 CG0
ATOM     36  G   UNL     1      60.817  85.988  72.924  1.00  0.00     0.000 G0
ENDBRANCH   2  35
ENDBRANCH   1   2
BRANCH   1  37
ATOM     37  O   UNL     1      63.263  85.466  77.185  1.00  0.00    -0.461 OA
BRANCH  37  38
ATOM     38  C   UNL     1      63.180  85.298  78.547  1.00  0.00     0.310 C 
ATOM     39  O   UNL     1      62.589  84.385  79.108  1.00  0.00    -0.252 OA
BRANCH  38  40
ATOM     40  C   UNL     1      63.928  86.413  79.240  1.00  0.00     0.158 C 
BRANCH  40  41
ATOM     41  C   UNL     1      63.285  87.762  79.047  1.00  0.00    -0.033 A 
ATOM     42  C   UNL     1      63.466  88.455  77.850  1.00  0.00     0.054 A 
ATOM     43  C   UNL     1      62.508  88.317  80.064  1.00  0.00     0.008 A 
ATOM     44  C   UNL     1      62.871  89.704  77.670  1.00  0.00     0.160 A 
ATOM     45  C   UNL     1      61.913  89.565  79.885  1.00  0.00     0.050 A 
ATOM     46  C   UNL     1      62.094  90.259  78.689  1.00  0.00     0.157 A 
BRANCH  44  47
ATOM     47  O   UNL     1      63.055  90.372  76.498  1.00  0.00    -0.493 OA
ATOM     48  C   UNL     1      64.305  90.187  75.836  1.00  0.00     0.278 C 
ENDBRANCH  44  47
BRANCH  46  49
ATOM     49  O   UNL     1      61.507  91.477  78.525  1.00  0.00    -0.504 OA
ATOM     50  H   UNL     1      62.115  92.059  78.038  1.00  0.00     0.293 HD
ENDBRANCH  46  49
ENDBRANCH  40  41
ENDBRANCH  38  40
ENDBRANCH  37  38
ENDBRANCH   1  37
TORSDOF 11
ENDMDL
MODEL 10
REMARK VINA RESULT:    -4.853      2.491      6.617
REMARK INTER + INTRA:         -11.032
REMARK INTER:                  -9.808
REMARK INTRA:                  -1.224
REMARK UNBOUND:                -2.491
REMARK SMILES C=C(C)[C@]12C[C@@H](C)[C@@]34O[C@](Cc5ccccc5)(O[C@@H]1[C@@H]3C=C(COC(=O)Cc1ccc(O)c(OC)c1)C[C@]1(O)C(=O)C(C)=C[C@@H]41)O2
REMARK SMILES IDX 23 1 22 2 21 3 20 4 9 5 8 6 10 7 6 8 18 9 46 10 19 11 5 12
REMARK SMILES IDX 7 13 4 14 45 15 38 16 44 17 40 18 42 20 41 21 43 22 39 23
REMARK SMILES IDX 11 25 12 26 13 27 17 28 14 29 16 30 15 31 2 32 3 33 1 34
REMARK SMILES IDX 37 35 24 37 25 38 26 39 27 40 28 41 36 42 29 43 33 44 30 45
REMARK SMILES IDX 31 46 34 47 35 48 32 49
REMARK H PARENT 39 24 32 50
REMARK Flexibility Score: 90.00
ROOT
ATOM      1  C   UNL     1      64.583  89.157  73.660  1.00  0.00     0.264 C 
ENDROOT
BRANCH   1   2
ATOM      2  C   UNL     1      63.660  88.452  72.694  1.00  0.00    -0.033 C 
ATOM      3  C   UNL     1      63.832  87.135  72.459  1.00  0.00    -0.015 C 
BRANCH   3   4
ATOM      4  C   UNL     1      63.098  86.224  71.489  1.00  0.00     0.078 C 
ATOM      5  O   UNL     1      61.226  85.199  72.740  1.00  0.00    -0.319 OA
ATOM      6  C   UNL     1      61.535  86.091  71.624  1.00  0.00     0.095 C 
ATOM      7  C   UNL     1      62.044  84.017  72.830  1.00  0.00     0.289 C 
ATOM      8  C   UNL     1      60.990  85.454  70.279  1.00  0.00     0.023 C 
ATOM      9  O   UNL     1      63.426  84.351  72.924  1.00  0.00    -0.320 OA
ATOM     10  O   UNL     1      61.926  83.189  71.676  1.00  0.00    -0.313 OA
ATOM     11  C   UNL     1      63.672  84.789  71.579  1.00  0.00     0.170 C 
ATOM     12  C   UNL     1      62.016  84.454  69.663  1.00  0.00     0.049 C 
ATOM     13  C   UNL     1      59.614  84.777  70.380  1.00  0.00     0.011 C 
ATOM     14  C   UNL     1      62.858  83.771  70.742  1.00  0.00     0.122 C 
BRANCH   6  15
ATOM     15  C   UNL     1      60.898  87.452  72.026  1.00  0.00     0.086 C 
ATOM     16  C   UNL     1      61.451  88.701  71.309  1.00  0.00     0.140 CG0
ATOM     17  C   UNL     1      59.408  87.625  71.929  1.00  0.00    -0.010 C 
ATOM     18  C   UNL     1      60.225  89.582  71.195  1.00  0.00     0.190 C 
ATOM     19  G   UNL     1      62.579  89.366  72.097  1.00  0.00     0.000 G0
ATOM     20  C   UNL     1      58.997  88.820  71.491  1.00  0.00    -0.008 C 
ATOM     21  O   UNL     1      60.226  90.755  70.854  1.00  0.00    -0.291 OA
ATOM     22  C   UNL     1      57.631  89.364  71.350  1.00  0.00     0.048 C 
BRANCH  16  23
ATOM     23  O   UNL     1      61.828  88.468  69.962  1.00  0.00    -0.381 OA
ATOM     24  H   UNL     1      62.768  88.694  69.863  1.00  0.00     0.212 HD
ENDBRANCH  16  23
ENDBRANCH   6  15
BRANCH   7  25
ATOM     25  C   UNL     1      61.620  83.238  74.058  1.00  0.00     0.135 C 
BRANCH  25  26
ATOM     26  C   UNL     1      62.429  83.615  75.274  1.00  0.00    -0.040 A 
ATOM     27  C   UNL     1      61.965  84.606  76.140  1.00  0.00     0.004 A 
ATOM     28  C   UNL     1      63.640  82.974  75.534  1.00  0.00     0.004 A 
ATOM     29  C   UNL     1      62.713  84.956  77.265  1.00  0.00     0.000 A 
ATOM     30  C   UNL     1      64.387  83.323  76.659  1.00  0.00     0.000 A 
ATOM     31  C   UNL     1      63.923  84.315  77.524  1.00  0.00     0.000 A 
ENDBRANCH  25  26
ENDBRANCH   7  25
BRANCH  14  32
ATOM     32  C   UNL     1      63.718  82.680  70.193  1.00  0.00    -0.046 C 
ATOM     33  C   UNL     1      64.799  82.170  71.099  1.00  0.00     0.042 C 
ATOM     34  C   UNL     1      63.534  82.184  68.960  1.00  0.00     0.010 C 
ENDBRANCH  14  32
ENDBRANCH   3   4
BRANCH   2  35
ATOM     35  C   UNL     1      62.608  89.369  72.099  1.00  0.00     0.078 CG0
ATOM     36  G   UNL     1      61.465  88.713  71.326  1.00  0.00     0.000 G0
ENDBRANCH   2  35
ENDBRANCH   1   2
BRANCH   1  37
ATOM     37  O   UNL     1      65.354  88.199  74.352  1.00  0.00    -0.461 OA
BRANCH  37  38
ATOM     38  C   UNL     1      66.718  88.287  74.195  1.00  0.00     0.310 C 
ATOM     39  O   UNL     1      67.546  87.877  74.997  1.00  0.00    -0.252 OA
BRANCH  38  40
ATOM     40  C   UNL     1      67.032  88.968  72.883  1.00  0.00     0.158 C 
BRANCH  40  41
ATOM     41  C   UNL     1      67.459  88.003  71.808  1.00  0.00    -0.033 A 
ATOM     42  C   UNL     1      67.021  88.184  70.495  1.00  0.00     0.054 A 
ATOM     43  C   UNL     1      68.292  86.930  72.123  1.00  0.00     0.008 A 
ATOM     44  C   UNL     1      67.416  87.290  69.499  1.00  0.00     0.160 A 
ATOM     45  C   UNL     1      68.687  86.037  71.127  1.00  0.00     0.050 A 
ATOM     46  C   UNL     1      68.249  86.216  69.816  1.00  0.00     0.157 A 
BRANCH  44  47
ATOM     47  O   UNL     1      66.982  87.476  68.222  1.00  0.00    -0.493 OA
ATOM     48  C   UNL     1      66.074  86.508  67.698  1.00  0.00     0.278 C 
ENDBRANCH  44  47
BRANCH  46  49
ATOM     49  O   UNL     1      68.643  85.339  68.852  1.00  0.00    -0.504 OA
ATOM     50  H   UNL     1      69.265  85.785  68.252  1.00  0.00     0.293 HD
ENDBRANCH  46  49
ENDBRANCH  40  41
ENDBRANCH  38  40
ENDBRANCH  37  38
ENDBRANCH   1  37
TORSDOF 11
ENDMDL
