MODEL 1
REMARK VINA RESULT:    -6.103      0.000      0.000
REMARK INTER + INTRA:         -12.642
REMARK INTER:                 -10.384
REMARK INTRA:                  -2.257
REMARK UNBOUND:                -2.257
REMARK SMILES C=C(C)[C@]12C[C@@H](C)[C@@]34O[C@](Cc5ccccc5)(O[C@@H]1[C@@H]3C=C(COC(=O)Cc1ccc(O)cc1)C[C@]1(O)C(=O)C(C)=C[C@@H]41)O2
REMARK SMILES IDX 23 1 22 2 21 3 20 4 9 5 8 6 10 7 6 8 18 10 44 11 19 12 5 13
REMARK SMILES IDX 7 14 4 15 11 16 12 17 13 18 17 19 14 20 16 21 15 22 2 23
REMARK SMILES IDX 3 24 1 25 35 26 36 27 43 28 38 29 42 30 39 32 40 33 41 34
REMARK SMILES IDX 37 35 24 37 25 38 26 39 27 40 28 41 29 42 34 43 30 44 33 45
REMARK SMILES IDX 31 46 32 47
REMARK H PARENT 37 36 32 48
REMARK Flexibility Score: 90.00
ROOT
ATOM      1  C   UNL     1      96.540  82.705  77.257  1.00  0.00     0.264 C 
ENDROOT
BRANCH   1   2
ATOM      2  C   UNL     1      97.060  81.302  77.467  1.00  0.00    -0.033 C 
ATOM      3  C   UNL     1      97.141  80.465  76.413  1.00  0.00    -0.015 C 
BRANCH   3   4
ATOM      4  C   UNL     1      97.552  79.001  76.372  1.00  0.00     0.078 C 
ATOM      5  O   UNL     1      99.974  78.947  75.877  1.00  0.00    -0.319 OA
ATOM      6  C   UNL     1      98.982  78.611  76.896  1.00  0.00     0.095 CG0
ATOM      7  C   UNL     1      99.603  78.615  74.525  1.00  0.00     0.289 C 
ATOM      8  C   UNL     1      98.992  77.045  77.140  1.00  0.00     0.023 C 
ATOM      9  G   UNL     1      99.378  79.481  78.124  1.00  0.00     0.000 G0
ATOM     10  O   UNL     1      98.382  79.247  74.153  1.00  0.00    -0.320 OA
ATOM     11  O   UNL     1      99.383  77.217  74.351  1.00  0.00    -0.313 OA
ATOM     12  C   UNL     1      97.452  78.468  74.921  1.00  0.00     0.170 C 
ATOM     13  C   UNL     1      98.079  76.301  76.118  1.00  0.00     0.049 C 
ATOM     14  C   UNL     1     100.382  76.387  77.156  1.00  0.00     0.011 C 
ATOM     15  C   UNL     1      98.017  77.033  74.777  1.00  0.00     0.122 C 
BRANCH   7  16
ATOM     16  C   UNL     1     100.718  79.068  73.602  1.00  0.00     0.135 C 
BRANCH  16  17
ATOM     17  C   UNL     1     100.253  79.195  72.173  1.00  0.00    -0.040 A 
ATOM     18  C   UNL     1      99.772  80.416  71.701  1.00  0.00     0.004 A 
ATOM     19  C   UNL     1     100.305  78.090  71.323  1.00  0.00     0.004 A 
ATOM     20  C   UNL     1      99.343  80.533  70.378  1.00  0.00     0.000 A 
ATOM     21  C   UNL     1      99.876  78.207  70.001  1.00  0.00     0.000 A 
ATOM     22  C   UNL     1      99.395  79.428  69.529  1.00  0.00     0.000 A 
ENDBRANCH  16  17
ENDBRANCH   7  16
BRANCH  15  23
ATOM     23  C   UNL     1      97.298  76.249  73.728  1.00  0.00    -0.046 C 
ATOM     24  C   UNL     1      96.799  77.027  72.546  1.00  0.00     0.042 C 
ATOM     25  C   UNL     1      97.109  74.926  73.836  1.00  0.00     0.010 C 
ENDBRANCH  15  23
ENDBRANCH   3   4
BRANCH   2  26
ATOM     26  C   UNL     1      97.446  81.019  78.907  1.00  0.00     0.078 C 
BRANCH  26  27
ATOM     27  C   UNL     1      98.254  79.751  79.176  1.00  0.00     0.140 C 
ATOM     28  C   UNL     1      99.349  79.520  78.115  1.00  0.00     0.086 CG0
ATOM     29  C   UNL     1      99.056  79.835  80.458  1.00  0.00     0.190 C 
ATOM     30  C   UNL     1     100.562  79.173  78.933  1.00  0.00    -0.010 C 
ATOM     31  G   UNL     1      98.957  78.616  76.910  1.00  0.00     0.000 G0
ATOM     32  O   UNL     1      98.621  80.194  81.542  1.00  0.00    -0.291 OA
ATOM     33  C   UNL     1     100.438  79.366  80.250  1.00  0.00    -0.008 C 
ATOM     34  C   UNL     1     101.433  79.212  81.331  1.00  0.00     0.048 C 
BRANCH  27  35
ATOM     35  O   UNL     1      97.408  78.631  79.380  1.00  0.00    -0.381 OA
ATOM     36  H   UNL     1      97.677  77.928  78.764  1.00  0.00     0.212 HD
ENDBRANCH  27  35
ENDBRANCH  26  27
ENDBRANCH   2  26
ENDBRANCH   1   2
BRANCH   1  37
ATOM     37  O   UNL     1      95.831  82.763  76.038  1.00  0.00    -0.461 OA
BRANCH  37  38
ATOM     38  C   UNL     1      96.332  83.617  75.083  1.00  0.00     0.310 C 
ATOM     39  O   UNL     1      96.258  84.837  75.124  1.00  0.00    -0.252 OA
BRANCH  38  40
ATOM     40  C   UNL     1      96.985  82.815  73.983  1.00  0.00     0.158 C 
BRANCH  40  41
ATOM     41  C   UNL     1      98.444  83.144  73.802  1.00  0.00    -0.037 A 
ATOM     42  C   UNL     1      98.836  84.061  72.826  1.00  0.00     0.008 A 
ATOM     43  C   UNL     1      99.403  82.533  74.608  1.00  0.00     0.008 A 
ATOM     44  C   UNL     1     100.187  84.366  72.658  1.00  0.00     0.046 A 
ATOM     45  C   UNL     1     100.754  82.837  74.441  1.00  0.00     0.046 A 
ATOM     46  C   UNL     1     101.146  83.753  73.465  1.00  0.00     0.115 A 
BRANCH  46  47
ATOM     47  O   UNL     1     102.464  84.050  73.301  1.00  0.00    -0.508 OA
ATOM     48  H   UNL     1     102.584  85.012  73.390  1.00  0.00     0.293 HD
ENDBRANCH  46  47
ENDBRANCH  40  41
ENDBRANCH  38  40
ENDBRANCH  37  38
ENDBRANCH   1  37
TORSDOF 10
ENDMDL
MODEL 2
REMARK VINA RESULT:    -5.824     15.073     18.884
REMARK INTER + INTRA:         -12.167
REMARK INTER:                 -11.023
REMARK INTRA:                  -1.144
REMARK UNBOUND:                -2.257
REMARK SMILES C=C(C)[C@]12C[C@@H](C)[C@@]34O[C@](Cc5ccccc5)(O[C@@H]1[C@@H]3C=C(COC(=O)Cc1ccc(O)cc1)C[C@]1(O)C(=O)C(C)=C[C@@H]41)O2
REMARK SMILES IDX 23 1 22 2 21 3 20 4 9 5 8 6 10 7 6 8 18 10 44 11 19 12 5 13
REMARK SMILES IDX 7 14 4 15 11 16 12 17 13 18 17 19 14 20 16 21 15 22 2 23
REMARK SMILES IDX 3 24 1 25 35 26 36 27 43 28 38 29 42 30 39 32 40 33 41 34
REMARK SMILES IDX 37 35 24 37 25 38 26 39 27 40 28 41 29 42 34 43 30 44 33 45
REMARK SMILES IDX 31 46 32 47
REMARK H PARENT 37 36 32 48
REMARK Flexibility Score: 90.00
ROOT
ATOM      1  C   UNL     1      97.159  95.814  79.280  1.00  0.00     0.264 C 
ENDROOT
BRANCH   1   2
ATOM      2  C   UNL     1      97.815  97.017  78.642  1.00  0.00    -0.033 C 
ATOM      3  C   UNL     1      98.537  96.854  77.514  1.00  0.00    -0.015 C 
BRANCH   3   4
ATOM      4  C   UNL     1      99.347  97.874  76.730  1.00  0.00     0.078 C 
ATOM      5  O   UNL     1      97.866  98.764  74.961  1.00  0.00    -0.319 OA
ATOM      6  C   UNL     1      98.607  99.141  76.163  1.00  0.00     0.095 CG0
ATOM      7  C   UNL     1      98.567  97.892  74.054  1.00  0.00     0.289 C 
ATOM      8  C   UNL     1      99.711 100.211  75.783  1.00  0.00     0.023 C 
ATOM      9  G   UNL     1      97.513  99.633  77.155  1.00  0.00     0.000 G0
ATOM     10  O   UNL     1      98.968  96.687  74.700  1.00  0.00    -0.320 OA
ATOM     11  O   UNL     1      99.767  98.479  73.555  1.00  0.00    -0.313 OA
ATOM     12  C   UNL     1     100.033  97.186  75.524  1.00  0.00     0.170 C 
ATOM     13  C   UNL     1     101.022  99.529  75.283  1.00  0.00     0.049 C 
ATOM     14  C   UNL     1      99.274 101.280  74.767  1.00  0.00     0.011 C 
ATOM     15  C   UNL     1     100.736  98.198  74.586  1.00  0.00     0.122 C 
BRANCH   7  16
ATOM     16  C   UNL     1      97.644  97.570  72.895  1.00  0.00     0.135 C 
BRANCH  16  17
ATOM     17  C   UNL     1      96.190  97.660  73.288  1.00  0.00    -0.040 A 
ATOM     18  C   UNL     1      95.494  98.855  73.116  1.00  0.00     0.004 A 
ATOM     19  C   UNL     1      95.544  96.546  73.822  1.00  0.00     0.004 A 
ATOM     20  C   UNL     1      94.149  98.938  73.479  1.00  0.00     0.000 A 
ATOM     21  C   UNL     1      94.199  96.628  74.185  1.00  0.00     0.000 A 
ATOM     22  C   UNL     1      93.502  97.824  74.013  1.00  0.00     0.000 A 
ENDBRANCH  16  17
ENDBRANCH   7  16
BRANCH  15  23
ATOM     23  C   UNL     1     101.952  97.615  73.942  1.00  0.00    -0.046 C 
ATOM     24  C   UNL     1     101.719  96.465  73.007  1.00  0.00     0.042 C 
ATOM     25  C   UNL     1     103.181  98.092  74.185  1.00  0.00     0.010 C 
ENDBRANCH  15  23
ENDBRANCH   3   4
BRANCH   2  26
ATOM     26  C   UNL     1      97.549  98.308  79.393  1.00  0.00     0.078 C 
BRANCH  26  27
ATOM     27  C   UNL     1      97.931  99.613  78.695  1.00  0.00     0.140 C 
ATOM     28  C   UNL     1      97.520  99.621  77.208  1.00  0.00     0.086 CG0
ATOM     29  C   UNL     1      97.181 100.807  79.247  1.00  0.00     0.190 C 
ATOM     30  C   UNL     1      96.881 100.971  77.030  1.00  0.00    -0.010 C 
ATOM     31  G   UNL     1      98.603  99.149  76.195  1.00  0.00     0.000 G0
ATOM     32  O   UNL     1      97.061 101.082  80.431  1.00  0.00    -0.291 OA
ATOM     33  C   UNL     1      96.652 101.649  78.158  1.00  0.00    -0.008 C 
ATOM     34  C   UNL     1      95.978 102.947  78.367  1.00  0.00     0.048 C 
BRANCH  27  35
ATOM     35  O   UNL     1      99.294  99.938  78.914  1.00  0.00    -0.381 OA
ATOM     36  H   UNL     1      99.841  99.358  78.358  1.00  0.00     0.212 HD
ENDBRANCH  27  35
ENDBRANCH  26  27
ENDBRANCH   2  26
ENDBRANCH   1   2
BRANCH   1  37
ATOM     37  O   UNL     1      97.350  94.686  78.453  1.00  0.00    -0.461 OA
BRANCH  37  38
ATOM     38  C   UNL     1      96.271  93.843  78.316  1.00  0.00     0.310 C 
ATOM     39  O   UNL     1      96.262  92.815  77.654  1.00  0.00    -0.252 OA
BRANCH  38  40
ATOM     40  C   UNL     1      95.106  94.385  79.109  1.00  0.00     0.158 C 
BRANCH  40  41
ATOM     41  C   UNL     1      93.820  94.404  78.325  1.00  0.00    -0.037 A 
ATOM     42  C   UNL     1      92.939  93.324  78.402  1.00  0.00     0.008 A 
ATOM     43  C   UNL     1      93.508  95.501  77.522  1.00  0.00     0.008 A 
ATOM     44  C   UNL     1      91.749  93.342  77.674  1.00  0.00     0.046 A 
ATOM     45  C   UNL     1      92.317  95.519  76.795  1.00  0.00     0.046 A 
ATOM     46  C   UNL     1      91.438  94.440  76.871  1.00  0.00     0.115 A 
BRANCH  46  47
ATOM     47  O   UNL     1      90.277  94.456  76.162  1.00  0.00    -0.508 OA
ATOM     48  H   UNL     1      90.313  93.761  75.481  1.00  0.00     0.293 HD
ENDBRANCH  46  47
ENDBRANCH  40  41
ENDBRANCH  38  40
ENDBRANCH  37  38
ENDBRANCH   1  37
TORSDOF 10
ENDMDL
MODEL 3
REMARK VINA RESULT:    -5.727     34.634     37.761
REMARK INTER + INTRA:         -12.001
REMARK INTER:                  -9.551
REMARK INTRA:                  -2.450
REMARK UNBOUND:                -2.257
REMARK SMILES C=C(C)[C@]12C[C@@H](C)[C@@]34O[C@](Cc5ccccc5)(O[C@@H]1[C@@H]3C=C(COC(=O)Cc1ccc(O)cc1)C[C@]1(O)C(=O)C(C)=C[C@@H]41)O2
REMARK SMILES IDX 23 1 22 2 21 3 20 4 9 5 8 6 10 7 6 8 18 10 44 11 19 12 5 13
REMARK SMILES IDX 7 14 4 15 11 16 12 17 13 18 17 19 14 20 16 21 15 22 2 23
REMARK SMILES IDX 3 24 1 25 35 26 36 27 43 28 38 29 42 30 39 32 40 33 41 34
REMARK SMILES IDX 37 35 24 37 25 38 26 39 27 40 28 41 29 42 34 43 30 44 33 45
REMARK SMILES IDX 31 46 32 47
REMARK H PARENT 37 36 32 48
REMARK Flexibility Score: 90.00
ROOT
ATOM      1  C   UNL     1      62.457  83.596  67.941  1.00  0.00     0.264 C 
ENDROOT
BRANCH   1   2
ATOM      2  C   UNL     1      62.205  84.959  68.541  1.00  0.00    -0.033 C 
ATOM      3  C   UNL     1      61.111  85.150  69.308  1.00  0.00    -0.015 C 
BRANCH   3   4
ATOM      4  C   UNL     1      60.596  86.426  69.955  1.00  0.00     0.078 C 
ATOM      5  O   UNL     1      61.527  86.497  72.246  1.00  0.00    -0.319 OA
ATOM      6  C   UNL     1      61.538  87.189  70.958  1.00  0.00     0.095 CG0
ATOM      7  C   UNL     1      60.232  86.053  72.694  1.00  0.00     0.289 C 
ATOM      8  C   UNL     1      60.957  88.651  71.143  1.00  0.00     0.023 C 
ATOM      9  G   UNL     1      63.021  87.113  70.490  1.00  0.00     0.000 G0
ATOM     10  O   UNL     1      59.624  85.185  71.741  1.00  0.00    -0.320 OA
ATOM     11  O   UNL     1      59.318  87.133  72.869  1.00  0.00    -0.313 OA
ATOM     12  C   UNL     1      59.281  86.135  70.719  1.00  0.00     0.170 C 
ATOM     13  C   UNL     1      59.401  88.664  71.049  1.00  0.00     0.049 C 
ATOM     14  C   UNL     1      61.396  89.379  72.425  1.00  0.00     0.011 C 
ATOM     15  C   UNL     1      58.792  87.351  71.543  1.00  0.00     0.122 C 
BRANCH   7  16
ATOM     16  C   UNL     1      60.410  85.324  74.011  1.00  0.00     0.135 C 
BRANCH  16  17
ATOM     17  C   UNL     1      61.143  84.017  73.841  1.00  0.00    -0.040 A 
ATOM     18  C   UNL     1      60.695  83.083  72.908  1.00  0.00     0.004 A 
ATOM     19  C   UNL     1      62.269  83.744  74.618  1.00  0.00     0.004 A 
ATOM     20  C   UNL     1      61.374  81.873  72.751  1.00  0.00     0.000 A 
ATOM     21  C   UNL     1      62.947  82.535  74.460  1.00  0.00     0.000 A 
ATOM     22  C   UNL     1      62.500  81.601  73.527  1.00  0.00     0.000 A 
ENDBRANCH  16  17
ENDBRANCH   7  16
BRANCH  15  23
ATOM     23  C   UNL     1      57.302  87.407  71.632  1.00  0.00    -0.046 C 
ATOM     24  C   UNL     1      56.701  86.981  72.939  1.00  0.00     0.042 C 
ATOM     25  C   UNL     1      56.545  87.813  70.603  1.00  0.00     0.010 C 
ENDBRANCH  15  23
ENDBRANCH   3   4
BRANCH   2  26
ATOM     26  C   UNL     1      63.275  85.974  68.186  1.00  0.00     0.078 C 
BRANCH  26  27
ATOM     27  C   UNL     1      63.268  87.294  68.954  1.00  0.00     0.140 C 
ATOM     28  C   UNL     1      63.019  87.090  70.463  1.00  0.00     0.086 CG0
ATOM     29  C   UNL     1      64.617  87.982  68.938  1.00  0.00     0.190 C 
ATOM     30  C   UNL     1      64.059  87.961  71.111  1.00  0.00    -0.010 C 
ATOM     31  G   UNL     1      61.539  87.190  70.933  1.00  0.00     0.000 G0
ATOM     32  O   UNL     1      65.301  88.175  67.944  1.00  0.00    -0.291 OA
ATOM     33  C   UNL     1      64.987  88.454  70.286  1.00  0.00    -0.008 C 
ATOM     34  C   UNL     1      66.186  89.266  70.579  1.00  0.00     0.048 C 
BRANCH  27  35
ATOM     35  O   UNL     1      62.399  88.239  68.354  1.00  0.00    -0.381 OA
ATOM     36  H   UNL     1      61.842  87.775  67.706  1.00  0.00     0.212 HD
ENDBRANCH  27  35
ENDBRANCH  26  27
ENDBRANCH   2  26
ENDBRANCH   1   2
BRANCH   1  37
ATOM     37  O   UNL     1      62.431  82.624  68.965  1.00  0.00    -0.461 OA
BRANCH  37  38
ATOM     38  C   UNL     1      63.440  81.689  68.941  1.00  0.00     0.310 C 
ATOM     39  O   UNL     1      63.710  80.972  67.987  1.00  0.00    -0.252 OA
BRANCH  38  40
ATOM     40  C   UNL     1      64.158  81.687  70.269  1.00  0.00     0.158 C 
BRANCH  40  41
ATOM     41  C   UNL     1      65.029  82.900  70.468  1.00  0.00    -0.037 A 
ATOM     42  C   UNL     1      65.981  83.240  69.507  1.00  0.00     0.008 A 
ATOM     43  C   UNL     1      64.884  83.683  71.613  1.00  0.00     0.008 A 
ATOM     44  C   UNL     1      66.789  84.363  69.692  1.00  0.00     0.046 A 
ATOM     45  C   UNL     1      65.691  84.807  71.797  1.00  0.00     0.046 A 
ATOM     46  C   UNL     1      66.643  85.146  70.837  1.00  0.00     0.115 A 
BRANCH  46  47
ATOM     47  O   UNL     1      67.431  86.241  71.017  1.00  0.00    -0.508 OA
ATOM     48  H   UNL     1      67.704  86.284  71.950  1.00  0.00     0.293 HD
ENDBRANCH  46  47
ENDBRANCH  40  41
ENDBRANCH  38  40
ENDBRANCH  37  38
ENDBRANCH   1  37
TORSDOF 10
ENDMDL
MODEL 4
REMARK VINA RESULT:    -5.695     16.818     20.860
REMARK INTER + INTRA:         -11.947
REMARK INTER:                 -11.758
REMARK INTRA:                  -0.189
REMARK UNBOUND:                -2.257
REMARK SMILES C=C(C)[C@]12C[C@@H](C)[C@@]34O[C@](Cc5ccccc5)(O[C@@H]1[C@@H]3C=C(COC(=O)Cc1ccc(O)cc1)C[C@]1(O)C(=O)C(C)=C[C@@H]41)O2
REMARK SMILES IDX 23 1 22 2 21 3 20 4 9 5 8 6 10 7 6 8 18 10 44 11 19 12 5 13
REMARK SMILES IDX 7 14 4 15 11 16 12 17 13 18 17 19 14 20 16 21 15 22 2 23
REMARK SMILES IDX 3 24 1 25 35 26 36 27 43 28 38 29 42 30 39 32 40 33 41 34
REMARK SMILES IDX 37 35 24 37 25 38 26 39 27 40 28 41 29 42 34 43 30 44 33 45
REMARK SMILES IDX 31 46 32 47
REMARK H PARENT 37 36 32 48
REMARK Flexibility Score: 90.00
ROOT
ATOM      1  C   UNL     1      95.801  95.165  81.453  1.00  0.00     0.264 C 
ENDROOT
BRANCH   1   2
ATOM      2  C   UNL     1      96.827  96.227  81.773  1.00  0.00    -0.033 C 
ATOM      3  C   UNL     1      96.543  97.519  81.508  1.00  0.00    -0.015 C 
BRANCH   3   4
ATOM      4  C   UNL     1      97.420  98.751  81.663  1.00  0.00     0.078 C 
ATOM      5  O   UNL     1      96.970  99.679  83.911  1.00  0.00    -0.319 OA
ATOM      6  C   UNL     1      98.012  99.075  83.084  1.00  0.00     0.095 CG0
ATOM      7  C   UNL     1      96.150 100.661  83.248  1.00  0.00     0.289 C 
ATOM      8  C   UNL     1      99.192 100.114  82.886  1.00  0.00     0.023 C 
ATOM      9  G   UNL     1      98.394  97.766  83.835  1.00  0.00     0.000 G0
ATOM     10  O   UNL     1      95.514 100.113  82.097  1.00  0.00    -0.320 OA
ATOM     11  O   UNL     1      96.910 101.772  82.776  1.00  0.00    -0.313 OA
ATOM     12  C   UNL     1      96.641 100.011  81.211  1.00  0.00     0.170 C 
ATOM     13  C   UNL     1      98.911 101.077  81.692  1.00  0.00     0.049 C 
ATOM     14  C   UNL     1      99.561 100.940  84.130  1.00  0.00     0.011 C 
ATOM     15  C   UNL     1      97.414 101.321  81.501  1.00  0.00     0.122 C 
BRANCH   7  16
ATOM     16  C   UNL     1      95.103 101.147  84.230  1.00  0.00     0.135 C 
BRANCH  16  17
ATOM     17  C   UNL     1      94.303 102.301  83.680  1.00  0.00    -0.040 A 
ATOM     18  C   UNL     1      94.533 103.595  84.146  1.00  0.00     0.004 A 
ATOM     19  C   UNL     1      93.332 102.073  82.704  1.00  0.00     0.004 A 
ATOM     20  C   UNL     1      93.792 104.662  83.636  1.00  0.00     0.000 A 
ATOM     21  C   UNL     1      92.592 103.140  82.195  1.00  0.00     0.000 A 
ATOM     22  C   UNL     1      92.822 104.434  82.661  1.00  0.00     0.000 A 
ENDBRANCH  16  17
ENDBRANCH   7  16
BRANCH  15  23
ATOM     23  C   UNL     1      97.129 102.378  80.483  1.00  0.00    -0.046 C 
ATOM     24  C   UNL     1      97.630 102.111  79.095  1.00  0.00     0.042 C 
ATOM     25  C   UNL     1      96.465 103.501  80.793  1.00  0.00     0.010 C 
ENDBRANCH  15  23
ENDBRANCH   3   4
BRANCH   2  26
ATOM     26  C   UNL     1      98.096  95.664  82.384  1.00  0.00     0.078 C 
BRANCH  26  27
ATOM     27  C   UNL     1      99.092  96.663  82.970  1.00  0.00     0.140 C 
ATOM     28  C   UNL     1      98.397  97.756  83.808  1.00  0.00     0.086 CG0
ATOM     29  C   UNL     1     100.028  96.028  83.976  1.00  0.00     0.190 C 
ATOM     30  C   UNL     1      99.239  97.831  85.052  1.00  0.00    -0.010 C 
ATOM     31  G   UNL     1      98.029  99.068  83.055  1.00  0.00     0.000 G0
ATOM     32  O   UNL     1     100.653  94.992  83.805  1.00  0.00    -0.291 OA
ATOM     33  C   UNL     1     100.145  96.858  85.189  1.00  0.00    -0.008 C 
ATOM     34  C   UNL     1     101.072  96.572  86.303  1.00  0.00     0.048 C 
BRANCH  27  35
ATOM     35  O   UNL     1      99.962  97.173  81.973  1.00  0.00    -0.381 OA
ATOM     36  H   UNL     1     100.825  97.354  82.382  1.00  0.00     0.212 HD
ENDBRANCH  27  35
ENDBRANCH  26  27
ENDBRANCH   2  26
ENDBRANCH   1   2
BRANCH   1  37
ATOM     37  O   UNL     1      96.313  94.304  80.459  1.00  0.00    -0.461 OA
BRANCH  37  38
ATOM     38  C   UNL     1      95.394  93.520  79.801  1.00  0.00     0.310 C 
ATOM     39  O   UNL     1      94.780  92.589  80.302  1.00  0.00    -0.252 OA
BRANCH  38  40
ATOM     40  C   UNL     1      95.264  93.988  78.371  1.00  0.00     0.158 C 
BRANCH  40  41
ATOM     41  C   UNL     1      93.838  94.264  77.971  1.00  0.00    -0.037 A 
ATOM     42  C   UNL     1      92.839  93.335  78.263  1.00  0.00     0.008 A 
ATOM     43  C   UNL     1      93.516  95.448  77.309  1.00  0.00     0.008 A 
ATOM     44  C   UNL     1      91.518  93.591  77.891  1.00  0.00     0.046 A 
ATOM     45  C   UNL     1      92.195  95.705  76.938  1.00  0.00     0.046 A 
ATOM     46  C   UNL     1      91.197  94.776  77.229  1.00  0.00     0.115 A 
BRANCH  46  47
ATOM     47  O   UNL     1      89.909  95.025  76.866  1.00  0.00    -0.508 OA
ATOM     48  H   UNL     1      89.330  94.365  77.286  1.00  0.00     0.293 HD
ENDBRANCH  46  47
ENDBRANCH  40  41
ENDBRANCH  38  40
ENDBRANCH  37  38
ENDBRANCH   1  37
TORSDOF 10
ENDMDL
MODEL 5
REMARK VINA RESULT:    -5.674      2.427      6.884
REMARK INTER + INTRA:         -11.911
REMARK INTER:                 -10.660
REMARK INTRA:                  -1.251
REMARK UNBOUND:                -2.257
REMARK SMILES C=C(C)[C@]12C[C@@H](C)[C@@]34O[C@](Cc5ccccc5)(O[C@@H]1[C@@H]3C=C(COC(=O)Cc1ccc(O)cc1)C[C@]1(O)C(=O)C(C)=C[C@@H]41)O2
REMARK SMILES IDX 23 1 22 2 21 3 20 4 9 5 8 6 10 7 6 8 18 10 44 11 19 12 5 13
REMARK SMILES IDX 7 14 4 15 11 16 12 17 13 18 17 19 14 20 16 21 15 22 2 23
REMARK SMILES IDX 3 24 1 25 35 26 36 27 43 28 38 29 42 30 39 32 40 33 41 34
REMARK SMILES IDX 37 35 24 37 25 38 26 39 27 40 28 41 29 42 34 43 30 44 33 45
REMARK SMILES IDX 31 46 32 47
REMARK H PARENT 37 36 32 48
REMARK Flexibility Score: 90.00
ROOT
ATOM      1  C   UNL     1     101.434  81.349  74.854  1.00  0.00     0.264 C 
ENDROOT
BRANCH   1   2
ATOM      2  C   UNL     1     101.454  80.067  75.653  1.00  0.00    -0.033 C 
ATOM      3  C   UNL     1     101.179  80.109  76.974  1.00  0.00    -0.015 C 
BRANCH   3   4
ATOM      4  C   UNL     1     101.207  78.989  78.001  1.00  0.00     0.078 C 
ATOM      5  O   UNL     1      98.922  78.049  78.104  1.00  0.00    -0.319 OA
ATOM      6  C   UNL     1     100.304  77.725  77.755  1.00  0.00     0.095 CG0
ATOM      7  C   UNL     1      98.755  78.809  79.316  1.00  0.00     0.289 C 
ATOM      8  C   UNL     1     100.827  76.570  78.705  1.00  0.00     0.023 C 
ATOM      9  G   UNL     1     100.249  77.371  76.241  1.00  0.00     0.000 G0
ATOM     10  O   UNL     1      99.477  80.037  79.260  1.00  0.00    -0.320 OA
ATOM     11  O   UNL     1      99.253  78.121  80.461  1.00  0.00    -0.313 OA
ATOM     12  C   UNL     1     100.820  79.544  79.394  1.00  0.00     0.170 C 
ATOM     13  C   UNL     1     101.381  77.140  80.047  1.00  0.00     0.049 C 
ATOM     14  C   UNL     1      99.814  75.452  79.006  1.00  0.00     0.011 C 
ATOM     15  C   UNL     1     100.663  78.427  80.455  1.00  0.00     0.122 C 
BRANCH   7  16
ATOM     16  C   UNL     1      97.277  79.091  79.500  1.00  0.00     0.135 C 
BRANCH  16  17
ATOM     17  C   UNL     1      97.022  80.065  80.624  1.00  0.00    -0.040 A 
ATOM     18  C   UNL     1      96.736  79.592  81.904  1.00  0.00     0.004 A 
ATOM     19  C   UNL     1      97.072  81.437  80.381  1.00  0.00     0.004 A 
ATOM     20  C   UNL     1      96.500  80.493  82.944  1.00  0.00     0.000 A 
ATOM     21  C   UNL     1      96.837  82.337  81.421  1.00  0.00     0.000 A 
ATOM     22  C   UNL     1      96.550  81.865  82.701  1.00  0.00     0.000 A 
ENDBRANCH  16  17
ENDBRANCH   7  16
BRANCH  15  23
ATOM     23  C   UNL     1     101.049  78.892  81.821  1.00  0.00    -0.046 C 
ATOM     24  C   UNL     1      99.984  78.808  82.874  1.00  0.00     0.042 C 
ATOM     25  C   UNL     1     102.277  79.357  82.092  1.00  0.00     0.010 C 
ENDBRANCH  15  23
ENDBRANCH   3   4
BRANCH   2  26
ATOM     26  C   UNL     1     101.789  78.847  74.815  1.00  0.00     0.078 C 
BRANCH  26  27
ATOM     27  C   UNL     1     101.606  77.479  75.470  1.00  0.00     0.140 C 
ATOM     28  C   UNL     1     100.265  77.367  76.225  1.00  0.00     0.086 CG0
ATOM     29  C   UNL     1     101.502  76.360  74.455  1.00  0.00     0.190 C 
ATOM     30  C   UNL     1      99.729  76.032  75.790  1.00  0.00    -0.010 C 
ATOM     31  G   UNL     1     100.301  77.720  77.741  1.00  0.00     0.000 G0
ATOM     32  O   UNL     1     102.263  76.184  73.515  1.00  0.00    -0.291 OA
ATOM     33  C   UNL     1     100.385  75.454  74.779  1.00  0.00    -0.008 C 
ATOM     34  C   UNL     1     100.096  74.201  74.051  1.00  0.00     0.048 C 
BRANCH  27  35
ATOM     35  O   UNL     1     102.735  77.124  76.251  1.00  0.00    -0.381 OA
ATOM     36  H   UNL     1     103.528  77.192  75.693  1.00  0.00     0.212 HD
ENDBRANCH  27  35
ENDBRANCH  26  27
ENDBRANCH   2  26
ENDBRANCH   1   2
BRANCH   1  37
ATOM     37  O   UNL     1     100.123  81.874  74.845  1.00  0.00    -0.461 OA
BRANCH  37  38
ATOM     38  C   UNL     1      99.654  82.317  73.630  1.00  0.00     0.310 C 
ATOM     39  O   UNL     1     100.304  82.962  72.820  1.00  0.00    -0.252 OA
BRANCH  38  40
ATOM     40  C   UNL     1      98.218  81.884  73.456  1.00  0.00     0.158 C 
BRANCH  40  41
ATOM     41  C   UNL     1      97.349  82.245  74.632  1.00  0.00    -0.037 A 
ATOM     42  C   UNL     1      97.146  81.323  75.659  1.00  0.00     0.008 A 
ATOM     43  C   UNL     1      96.746  83.501  74.695  1.00  0.00     0.008 A 
ATOM     44  C   UNL     1      96.340  81.657  76.748  1.00  0.00     0.046 A 
ATOM     45  C   UNL     1      95.940  83.835  75.784  1.00  0.00     0.046 A 
ATOM     46  C   UNL     1      95.737  82.913  76.810  1.00  0.00     0.115 A 
BRANCH  46  47
ATOM     47  O   UNL     1      94.951  83.239  77.872  1.00  0.00    -0.508 OA
ATOM     48  H   UNL     1      95.363  82.900  78.685  1.00  0.00     0.293 HD
ENDBRANCH  46  47
ENDBRANCH  40  41
ENDBRANCH  38  40
ENDBRANCH  37  38
ENDBRANCH   1  37
TORSDOF 10
ENDMDL
MODEL 6
REMARK VINA RESULT:    -5.619     15.048     18.639
REMARK INTER + INTRA:         -11.818
REMARK INTER:                 -11.108
REMARK INTRA:                  -0.710
REMARK UNBOUND:                -2.257
REMARK SMILES C=C(C)[C@]12C[C@@H](C)[C@@]34O[C@](Cc5ccccc5)(O[C@@H]1[C@@H]3C=C(COC(=O)Cc1ccc(O)cc1)C[C@]1(O)C(=O)C(C)=C[C@@H]41)O2
REMARK SMILES IDX 23 1 22 2 21 3 20 4 9 5 8 6 10 7 6 8 18 10 44 11 19 12 5 13
REMARK SMILES IDX 7 14 4 15 11 16 12 17 13 18 17 19 14 20 16 21 15 22 2 23
REMARK SMILES IDX 3 24 1 25 35 26 36 27 43 28 38 29 42 30 39 32 40 33 41 34
REMARK SMILES IDX 37 35 24 37 25 38 26 39 27 40 28 41 29 42 34 43 30 44 33 45
REMARK SMILES IDX 31 46 32 47
REMARK H PARENT 37 36 32 48
REMARK Flexibility Score: 90.00
ROOT
ATOM      1  C   UNL     1      96.608  94.719  81.180  1.00  0.00     0.264 C 
ENDROOT
BRANCH   1   2
ATOM      2  C   UNL     1      97.422  95.979  80.991  1.00  0.00    -0.033 C 
ATOM      3  C   UNL     1      98.547  95.931  80.248  1.00  0.00    -0.015 C 
BRANCH   3   4
ATOM      4  C   UNL     1      99.568  97.023  79.971  1.00  0.00     0.078 C 
ATOM      5  O   UNL     1      98.882  98.134  77.871  1.00  0.00    -0.319 OA
ATOM      6  C   UNL     1      99.072  98.358  79.303  1.00  0.00     0.095 CG0
ATOM      7  C   UNL     1      99.914  97.363  77.226  1.00  0.00     0.289 C 
ATOM      8  C   UNL     1     100.201  99.449  79.517  1.00  0.00     0.023 C 
ATOM      9  G   UNL     1      97.659  98.748  79.826  1.00  0.00     0.000 G0
ATOM     10  O   UNL     1     100.065  96.086  77.839  1.00  0.00    -0.320 OA
ATOM     11  O   UNL     1     101.193  97.986  77.316  1.00  0.00    -0.313 OA
ATOM     12  C   UNL     1     100.698  96.470  79.069  1.00  0.00     0.170 C 
ATOM     13  C   UNL     1     101.624  98.810  79.506  1.00  0.00     0.049 C 
ATOM     14  C   UNL     1     100.169 100.635  78.538  1.00  0.00     0.011 C 
ATOM     15  C   UNL     1     101.682  97.573  78.609  1.00  0.00     0.122 C 
BRANCH   7  16
ATOM     16  C   UNL     1      99.537  97.192  75.768  1.00  0.00     0.135 C 
BRANCH  16  17
ATOM     17  C   UNL     1      98.240  97.884  75.433  1.00  0.00    -0.040 A 
ATOM     18  C   UNL     1      97.054  97.154  75.376  1.00  0.00     0.004 A 
ATOM     19  C   UNL     1      98.228  99.256  75.181  1.00  0.00     0.004 A 
ATOM     20  C   UNL     1      95.853  97.795  75.066  1.00  0.00     0.000 A 
ATOM     21  C   UNL     1      97.028  99.897  74.871  1.00  0.00     0.000 A 
ATOM     22  C   UNL     1      95.841  99.166  74.814  1.00  0.00     0.000 A 
ENDBRANCH  16  17
ENDBRANCH   7  16
BRANCH  15  23
ATOM     23  C   UNL     1     103.072  97.051  78.440  1.00  0.00    -0.046 C 
ATOM     24  C   UNL     1     104.162  97.848  79.095  1.00  0.00     0.042 C 
ATOM     25  C   UNL     1     103.331  95.935  77.743  1.00  0.00     0.010 C 
ENDBRANCH  15  23
ENDBRANCH   3   4
BRANCH   2  26
ATOM     26  C   UNL     1      96.824  97.185  81.691  1.00  0.00     0.078 C 
BRANCH  26  27
ATOM     27  C   UNL     1      97.428  98.550  81.367  1.00  0.00     0.140 C 
ATOM     28  C   UNL     1      97.653  98.744  79.853  1.00  0.00     0.086 CG0
ATOM     29  C   UNL     1      96.493  99.692  81.706  1.00  0.00     0.190 C 
ATOM     30  C   UNL     1      97.113 100.122  79.593  1.00  0.00    -0.010 C 
ATOM     31  G   UNL     1      99.063  98.362  79.315  1.00  0.00     0.000 G0
ATOM     32  O   UNL     1      95.899  99.830  82.764  1.00  0.00    -0.291 OA
ATOM     33  C   UNL     1      96.432 100.671  80.604  1.00  0.00    -0.008 C 
ATOM     34  C   UNL     1      95.704 101.954  80.675  1.00  0.00     0.048 C 
BRANCH  27  35
ATOM     35  O   UNL     1      98.578  98.808  82.155  1.00  0.00    -0.381 OA
ATOM     36  H   UNL     1      98.566  99.745  82.416  1.00  0.00     0.212 HD
ENDBRANCH  27  35
ENDBRANCH  26  27
ENDBRANCH   2  26
ENDBRANCH   1   2
BRANCH   1  37
ATOM     37  O   UNL     1      95.561  94.693  80.234  1.00  0.00    -0.461 OA
BRANCH  37  38
ATOM     38  C   UNL     1      95.136  93.447  79.833  1.00  0.00     0.310 C 
ATOM     39  O   UNL     1      94.953  92.494  80.577  1.00  0.00    -0.252 OA
BRANCH  38  40
ATOM     40  C   UNL     1      94.930  93.442  78.337  1.00  0.00     0.158 C 
BRANCH  40  41
ATOM     41  C   UNL     1      93.555  93.905  77.931  1.00  0.00    -0.037 A 
ATOM     42  C   UNL     1      92.472  93.030  78.012  1.00  0.00     0.008 A 
ATOM     43  C   UNL     1      93.365  95.208  77.473  1.00  0.00     0.008 A 
ATOM     44  C   UNL     1      91.199  93.458  77.635  1.00  0.00     0.046 A 
ATOM     45  C   UNL     1      92.092  95.638  77.097  1.00  0.00     0.046 A 
ATOM     46  C   UNL     1      91.009  94.762  77.177  1.00  0.00     0.115 A 
BRANCH  46  47
ATOM     47  O   UNL     1      89.767  95.180  76.809  1.00  0.00    -0.508 OA
ATOM     48  H   UNL     1      89.850  96.002  76.296  1.00  0.00     0.293 HD
ENDBRANCH  46  47
ENDBRANCH  40  41
ENDBRANCH  38  40
ENDBRANCH  37  38
ENDBRANCH   1  37
TORSDOF 10
ENDMDL
MODEL 7
REMARK VINA RESULT:    -5.613     25.298     28.569
REMARK INTER + INTRA:         -11.808
REMARK INTER:                 -10.104
REMARK INTRA:                  -1.703
REMARK UNBOUND:                -2.257
REMARK SMILES C=C(C)[C@]12C[C@@H](C)[C@@]34O[C@](Cc5ccccc5)(O[C@@H]1[C@@H]3C=C(COC(=O)Cc1ccc(O)cc1)C[C@]1(O)C(=O)C(C)=C[C@@H]41)O2
REMARK SMILES IDX 23 1 22 2 21 3 20 4 9 5 8 6 10 7 6 8 18 10 44 11 19 12 5 13
REMARK SMILES IDX 7 14 4 15 11 16 12 17 13 18 17 19 14 20 16 21 15 22 2 23
REMARK SMILES IDX 3 24 1 25 35 26 36 27 43 28 38 29 42 30 39 32 40 33 41 34
REMARK SMILES IDX 37 35 24 37 25 38 26 39 27 40 28 41 29 42 34 43 30 44 33 45
REMARK SMILES IDX 31 46 32 47
REMARK H PARENT 37 36 32 48
REMARK Flexibility Score: 90.00
ROOT
ATOM      1  C   UNL     1      70.398  90.032  70.256  1.00  0.00     0.264 C 
ENDROOT
BRANCH   1   2
ATOM      2  C   UNL     1      71.819  90.026  69.743  1.00  0.00    -0.033 C 
ATOM      3  C   UNL     1      72.413  88.848  69.460  1.00  0.00    -0.015 C 
BRANCH   3   4
ATOM      4  C   UNL     1      73.838  88.569  69.010  1.00  0.00     0.078 C 
ATOM      5  O   UNL     1      73.820  88.539  66.537  1.00  0.00    -0.319 OA
ATOM      6  C   UNL     1      74.355  89.256  67.693  1.00  0.00     0.095 CG0
ATOM      7  C   UNL     1      73.844  87.102  66.639  1.00  0.00     0.289 C 
ATOM      8  C   UNL     1      75.936  89.153  67.687  1.00  0.00     0.023 C 
ATOM      9  G   UNL     1      73.779  90.696  67.557  1.00  0.00     0.000 G0
ATOM     10  O   UNL     1      73.128  86.653  67.786  1.00  0.00    -0.320 OA
ATOM     11  O   UNL     1      75.167  86.591  66.786  1.00  0.00    -0.313 OA
ATOM     12  C   UNL     1      74.041  87.045  68.822  1.00  0.00     0.170 C 
ATOM     13  C   UNL     1      76.426  87.841  68.372  1.00  0.00     0.049 C 
ATOM     14  C   UNL     1      76.603  89.287  66.307  1.00  0.00     0.011 C 
ATOM     15  C   UNL     1      75.418  86.703  68.202  1.00  0.00     0.122 C 
BRANCH   7  16
ATOM     16  C   UNL     1      73.217  86.527  65.385  1.00  0.00     0.135 C 
BRANCH  16  17
ATOM     17  C   UNL     1      73.896  85.253  64.946  1.00  0.00    -0.040 A 
ATOM     18  C   UNL     1      74.634  85.228  63.763  1.00  0.00     0.004 A 
ATOM     19  C   UNL     1      73.784  84.101  65.724  1.00  0.00     0.004 A 
ATOM     20  C   UNL     1      75.262  84.049  63.358  1.00  0.00     0.000 A 
ATOM     21  C   UNL     1      74.412  82.923  65.318  1.00  0.00     0.000 A 
ATOM     22  C   UNL     1      75.151  82.897  64.136  1.00  0.00     0.000 A 
ENDBRANCH  16  17
ENDBRANCH   7  16
BRANCH  15  23
ATOM     23  C   UNL     1      75.944  85.393  68.691  1.00  0.00    -0.046 C 
ATOM     24  C   UNL     1      75.245  84.801  69.879  1.00  0.00     0.042 C 
ATOM     25  C   UNL     1      76.982  84.781  68.102  1.00  0.00     0.010 C 
ENDBRANCH  15  23
ENDBRANCH   3   4
BRANCH   2  26
ATOM     26  C   UNL     1      72.408  91.418  69.603  1.00  0.00     0.078 C 
BRANCH  26  27
ATOM     27  C   UNL     1      73.736  91.542  68.858  1.00  0.00     0.140 C 
ATOM     28  C   UNL     1      73.765  90.692  67.570  1.00  0.00     0.086 CG0
ATOM     29  C   UNL     1      73.976  92.940  68.329  1.00  0.00     0.190 C 
ATOM     30  C   UNL     1      74.336  91.630  66.544  1.00  0.00    -0.010 C 
ATOM     31  G   UNL     1      74.356  89.259  67.708  1.00  0.00     0.000 G0
ATOM     32  O   UNL     1      73.854  93.971  68.974  1.00  0.00    -0.291 OA
ATOM     33  C   UNL     1      74.441  92.906  66.930  1.00  0.00    -0.008 C 
ATOM     34  C   UNL     1      74.875  94.097  66.171  1.00  0.00     0.048 C 
BRANCH  27  35
ATOM     35  O   UNL     1      74.838  91.312  69.720  1.00  0.00    -0.381 OA
ATOM     36  H   UNL     1      74.561  91.512  70.630  1.00  0.00     0.212 HD
ENDBRANCH  27  35
ENDBRANCH  26  27
ENDBRANCH   2  26
ENDBRANCH   1   2
BRANCH   1  37
ATOM     37  O   UNL     1      69.513  89.793  69.182  1.00  0.00    -0.461 OA
BRANCH  37  38
ATOM     38  C   UNL     1      68.396  89.044  69.470  1.00  0.00     0.310 C 
ATOM     39  O   UNL     1      67.246  89.370  69.213  1.00  0.00    -0.252 OA
BRANCH  38  40
ATOM     40  C   UNL     1      68.811  87.762  70.152  1.00  0.00     0.158 C 
BRANCH  40  41
ATOM     41  C   UNL     1      69.171  86.669  69.180  1.00  0.00    -0.037 A 
ATOM     42  C   UNL     1      69.472  86.985  67.855  1.00  0.00     0.008 A 
ATOM     43  C   UNL     1      69.204  85.341  69.603  1.00  0.00     0.008 A 
ATOM     44  C   UNL     1      69.804  85.973  66.954  1.00  0.00     0.046 A 
ATOM     45  C   UNL     1      69.537  84.328  68.703  1.00  0.00     0.046 A 
ATOM     46  C   UNL     1      69.837  84.644  67.379  1.00  0.00     0.115 A 
BRANCH  46  47
ATOM     47  O   UNL     1      70.161  83.657  66.500  1.00  0.00    -0.508 OA
ATOM     48  H   UNL     1      69.467  83.600  65.820  1.00  0.00     0.293 HD
ENDBRANCH  46  47
ENDBRANCH  40  41
ENDBRANCH  38  40
ENDBRANCH  37  38
ENDBRANCH   1  37
TORSDOF 10
ENDMDL
MODEL 8
REMARK VINA RESULT:    -5.520     11.337     14.816
REMARK INTER + INTRA:         -11.651
REMARK INTER:                 -10.958
REMARK INTRA:                  -0.692
REMARK UNBOUND:                -2.257
REMARK SMILES C=C(C)[C@]12C[C@@H](C)[C@@]34O[C@](Cc5ccccc5)(O[C@@H]1[C@@H]3C=C(COC(=O)Cc1ccc(O)cc1)C[C@]1(O)C(=O)C(C)=C[C@@H]41)O2
REMARK SMILES IDX 23 1 22 2 21 3 20 4 9 5 8 6 10 7 6 8 18 10 44 11 19 12 5 13
REMARK SMILES IDX 7 14 4 15 11 16 12 17 13 18 17 19 14 20 16 21 15 22 2 23
REMARK SMILES IDX 3 24 1 25 35 26 36 27 43 28 38 29 42 30 39 32 40 33 41 34
REMARK SMILES IDX 37 35 24 37 25 38 26 39 27 40 28 41 29 42 34 43 30 44 33 45
REMARK SMILES IDX 31 46 32 47
REMARK H PARENT 37 36 32 48
REMARK Flexibility Score: 90.00
ROOT
ATOM      1  C   UNL     1      91.561  84.853  89.197  1.00  0.00     0.264 C 
ENDROOT
BRANCH   1   2
ATOM      2  C   UNL     1      91.033  83.438  89.131  1.00  0.00    -0.033 C 
ATOM      3  C   UNL     1      90.801  82.877  87.926  1.00  0.00    -0.015 C 
BRANCH   3   4
ATOM      4  C   UNL     1      90.207  81.517  87.594  1.00  0.00     0.078 C 
ATOM      5  O   UNL     1      92.099  79.941  87.369  1.00  0.00    -0.319 OA
ATOM      6  C   UNL     1      90.910  80.233  88.168  1.00  0.00     0.095 CG0
ATOM      7  C   UNL     1      91.931  80.076  85.944  1.00  0.00     0.289 C 
ATOM      8  C   UNL     1      89.887  79.030  88.043  1.00  0.00     0.023 C 
ATOM      9  G   UNL     1      91.461  80.497  89.600  1.00  0.00     0.000 G0
ATOM     10  O   UNL     1      91.498  81.388  85.596  1.00  0.00    -0.320 OA
ATOM     11  O   UNL     1      90.937  79.193  85.429  1.00  0.00    -0.313 OA
ATOM     12  C   UNL     1      90.139  81.335  86.057  1.00  0.00     0.170 C 
ATOM     13  C   UNL     1      88.981  79.177  86.783  1.00  0.00     0.049 C 
ATOM     14  C   UNL     1      90.513  77.624  88.059  1.00  0.00     0.011 C 
ATOM     15  C   UNL     1      89.703  79.906  85.649  1.00  0.00     0.122 C 
BRANCH   7  16
ATOM     16  C   UNL     1      93.261  79.781  85.280  1.00  0.00     0.135 C 
BRANCH  16  17
ATOM     17  C   UNL     1      94.128  81.012  85.176  1.00  0.00    -0.040 A 
ATOM     18  C   UNL     1      94.441  81.743  86.321  1.00  0.00     0.004 A 
ATOM     19  C   UNL     1      94.615  81.417  83.934  1.00  0.00     0.004 A 
ATOM     20  C   UNL     1      95.243  82.881  86.225  1.00  0.00     0.000 A 
ATOM     21  C   UNL     1      95.417  82.555  83.838  1.00  0.00     0.000 A 
ATOM     22  C   UNL     1      95.730  83.286  84.983  1.00  0.00     0.000 A 
ENDBRANCH  16  17
ENDBRANCH   7  16
BRANCH  15  23
ATOM     23  C   UNL     1      88.923  79.900  84.375  1.00  0.00    -0.046 C 
ATOM     24  C   UNL     1      88.340  81.215  83.949  1.00  0.00     0.042 C 
ATOM     25  C   UNL     1      88.754  78.783  83.652  1.00  0.00     0.010 C 
ENDBRANCH  15  23
ENDBRANCH   3   4
BRANCH   2  26
ATOM     26  C   UNL     1      90.834  82.813  90.499  1.00  0.00     0.078 C 
BRANCH  26  27
ATOM     27  C   UNL     1      90.510  81.321  90.543  1.00  0.00     0.140 C 
ATOM     28  C   UNL     1      91.441  80.494  89.633  1.00  0.00     0.086 CG0
ATOM     29  C   UNL     1      90.764  80.712  91.906  1.00  0.00     0.190 C 
ATOM     30  C   UNL     1      91.840  79.334  90.502  1.00  0.00    -0.010 C 
ATOM     31  G   UNL     1      90.926  80.225  88.189  1.00  0.00     0.000 G0
ATOM     32  O   UNL     1      90.376  81.172  92.970  1.00  0.00    -0.291 OA
ATOM     33  C   UNL     1      91.500  79.439  91.789  1.00  0.00    -0.008 C 
ATOM     34  C   UNL     1      91.794  78.545  92.928  1.00  0.00     0.048 C 
BRANCH  27  35
ATOM     35  O   UNL     1      89.130  81.083  90.318  1.00  0.00    -0.381 OA
ATOM     36  H   UNL     1      88.814  80.454  90.990  1.00  0.00     0.212 HD
ENDBRANCH  27  35
ENDBRANCH  26  27
ENDBRANCH   2  26
ENDBRANCH   1   2
BRANCH   1  37
ATOM     37  O   UNL     1      92.735  84.949  88.419  1.00  0.00    -0.461 OA
BRANCH  37  38
ATOM     38  C   UNL     1      93.923  84.985  89.113  1.00  0.00     0.310 C 
ATOM     39  O   UNL     1      94.115  84.464  90.202  1.00  0.00    -0.252 OA
BRANCH  38  40
ATOM     40  C   UNL     1      94.945  85.765  88.321  1.00  0.00     0.158 C 
BRANCH  40  41
ATOM     41  C   UNL     1      95.282  87.094  88.945  1.00  0.00    -0.037 A 
ATOM     42  C   UNL     1      96.593  87.571  88.907  1.00  0.00     0.008 A 
ATOM     43  C   UNL     1      94.284  87.849  89.562  1.00  0.00     0.008 A 
ATOM     44  C   UNL     1      96.905  88.801  89.485  1.00  0.00     0.046 A 
ATOM     45  C   UNL     1      94.596  89.080  90.140  1.00  0.00     0.046 A 
ATOM     46  C   UNL     1      95.906  89.556  90.102  1.00  0.00     0.115 A 
BRANCH  46  47
ATOM     47  O   UNL     1      96.211  90.755  90.667  1.00  0.00    -0.508 OA
ATOM     48  H   UNL     1      95.934  90.745  91.599  1.00  0.00     0.293 HD
ENDBRANCH  46  47
ENDBRANCH  40  41
ENDBRANCH  38  40
ENDBRANCH  37  38
ENDBRANCH   1  37
TORSDOF 10
ENDMDL
MODEL 9
REMARK VINA RESULT:    -5.451      2.632      7.409
REMARK INTER + INTRA:         -11.533
REMARK INTER:                  -9.435
REMARK INTRA:                  -2.098
REMARK UNBOUND:                -2.257
REMARK SMILES C=C(C)[C@]12C[C@@H](C)[C@@]34O[C@](Cc5ccccc5)(O[C@@H]1[C@@H]3C=C(COC(=O)Cc1ccc(O)cc1)C[C@]1(O)C(=O)C(C)=C[C@@H]41)O2
REMARK SMILES IDX 23 1 22 2 21 3 20 4 9 5 8 6 10 7 6 8 18 10 44 11 19 12 5 13
REMARK SMILES IDX 7 14 4 15 11 16 12 17 13 18 17 19 14 20 16 21 15 22 2 23
REMARK SMILES IDX 3 24 1 25 35 26 36 27 43 28 38 29 42 30 39 32 40 33 41 34
REMARK SMILES IDX 37 35 24 37 25 38 26 39 27 40 28 41 29 42 34 43 30 44 33 45
REMARK SMILES IDX 31 46 32 47
REMARK H PARENT 37 36 32 48
REMARK Flexibility Score: 90.00
ROOT
ATOM      1  C   UNL     1      97.214  82.008  79.730  1.00  0.00     0.264 C 
ENDROOT
BRANCH   1   2
ATOM      2  C   UNL     1      98.097  81.640  78.560  1.00  0.00    -0.033 C 
ATOM      3  C   UNL     1      99.228  80.937  78.783  1.00  0.00    -0.015 C 
BRANCH   3   4
ATOM      4  C   UNL     1     100.310  80.514  77.802  1.00  0.00     0.078 C 
ATOM      5  O   UNL     1      99.718  78.246  77.011  1.00  0.00    -0.319 OA
ATOM      6  C   UNL     1      99.897  79.628  76.569  1.00  0.00     0.095 CG0
ATOM      7  C   UNL     1     100.717  77.759  77.928  1.00  0.00     0.289 C 
ATOM      8  C   UNL     1     101.079  79.692  75.517  1.00  0.00     0.023 C 
ATOM      9  G   UNL     1      98.499  80.047  76.030  1.00  0.00     0.000 G0
ATOM     10  O   UNL     1     100.789  78.572  79.095  1.00  0.00    -0.320 OA
ATOM     11  O   UNL     1     102.026  77.779  77.363  1.00  0.00    -0.313 OA
ATOM     12  C   UNL     1     101.423  79.740  78.550  1.00  0.00     0.170 C 
ATOM     13  C   UNL     1     102.466  79.819  76.220  1.00  0.00     0.049 C 
ATOM     14  C   UNL     1     101.126  78.535  74.504  1.00  0.00     0.011 C 
ATOM     15  C   UNL     1     102.472  79.132  77.586  1.00  0.00     0.122 C 
BRANCH   7  16
ATOM     16  C   UNL     1     100.355  76.338  78.313  1.00  0.00     0.135 C 
BRANCH  16  17
ATOM     17  C   UNL     1      99.311  76.295  79.401  1.00  0.00    -0.040 A 
ATOM     18  C   UNL     1      98.090  76.944  79.222  1.00  0.00     0.004 A 
ATOM     19  C   UNL     1      99.568  75.605  80.585  1.00  0.00     0.004 A 
ATOM     20  C   UNL     1      97.124  76.904  80.229  1.00  0.00     0.000 A 
ATOM     21  C   UNL     1      98.602  75.564  81.591  1.00  0.00     0.000 A 
ATOM     22  C   UNL     1      97.381  76.214  81.413  1.00  0.00     0.000 A 
ENDBRANCH  16  17
ENDBRANCH   7  16
BRANCH  15  23
ATOM     23  C   UNL     1     103.834  79.084  78.198  1.00  0.00    -0.046 C 
ATOM     24  C   UNL     1     103.886  79.043  79.696  1.00  0.00     0.042 C 
ATOM     25  C   UNL     1     104.948  79.078  77.450  1.00  0.00     0.010 C 
ENDBRANCH  15  23
ENDBRANCH   3   4
BRANCH   2  26
ATOM     26  C   UNL     1      97.558  82.130  77.229  1.00  0.00     0.078 C 
BRANCH  26  27
ATOM     27  C   UNL     1      98.221  81.587  75.965  1.00  0.00     0.140 C 
ATOM     28  C   UNL     1      98.494  80.071  76.054  1.00  0.00     0.086 CG0
ATOM     29  C   UNL     1      97.322  81.685  74.751  1.00  0.00     0.190 C 
ATOM     30  C   UNL     1      98.013  79.551  74.728  1.00  0.00    -0.010 C 
ATOM     31  G   UNL     1      99.902  79.657  76.571  1.00  0.00     0.000 G0
ATOM     32  O   UNL     1      96.705  82.682  74.405  1.00  0.00    -0.291 OA
ATOM     33  C   UNL     1      97.327  80.424  73.985  1.00  0.00    -0.008 C 
ATOM     34  C   UNL     1      96.646  80.241  72.687  1.00  0.00     0.048 C 
BRANCH  27  35
ATOM     35  O   UNL     1      99.359  82.353  75.606  1.00  0.00    -0.381 OA
ATOM     36  H   UNL     1     100.153  81.816  75.767  1.00  0.00     0.212 HD
ENDBRANCH  27  35
ENDBRANCH  26  27
ENDBRANCH   2  26
ENDBRANCH   1   2
BRANCH   1  37
ATOM     37  O   UNL     1      96.881  80.839  80.448  1.00  0.00    -0.461 OA
BRANCH  37  38
ATOM     38  C   UNL     1      96.676  80.994  81.800  1.00  0.00     0.310 C 
ATOM     39  O   UNL     1      96.274  82.017  82.337  1.00  0.00    -0.252 OA
BRANCH  38  40
ATOM     40  C   UNL     1      97.026  79.710  82.513  1.00  0.00     0.158 C 
BRANCH  40  41
ATOM     41  C   UNL     1      98.451  79.677  83.000  1.00  0.00    -0.037 A 
ATOM     42  C   UNL     1      99.437  79.060  82.231  1.00  0.00     0.008 A 
ATOM     43  C   UNL     1      98.784  80.262  84.221  1.00  0.00     0.008 A 
ATOM     44  C   UNL     1     100.757  79.029  82.682  1.00  0.00     0.046 A 
ATOM     45  C   UNL     1     100.104  80.231  84.674  1.00  0.00     0.046 A 
ATOM     46  C   UNL     1     101.090  79.615  83.904  1.00  0.00     0.115 A 
BRANCH  46  47
ATOM     47  O   UNL     1     102.377  79.583  84.345  1.00  0.00    -0.508 OA
ATOM     48  H   UNL     1     102.722  78.679  84.247  1.00  0.00     0.293 HD
ENDBRANCH  46  47
ENDBRANCH  40  41
ENDBRANCH  38  40
ENDBRANCH  37  38
ENDBRANCH   1  37
TORSDOF 10
ENDMDL
MODEL 10
REMARK VINA RESULT:    -5.388     11.455     14.413
REMARK INTER + INTRA:         -11.425
REMARK INTER:                  -9.873
REMARK INTRA:                  -1.551
REMARK UNBOUND:                -2.257
REMARK SMILES C=C(C)[C@]12C[C@@H](C)[C@@]34O[C@](Cc5ccccc5)(O[C@@H]1[C@@H]3C=C(COC(=O)Cc1ccc(O)cc1)C[C@]1(O)C(=O)C(C)=C[C@@H]41)O2
REMARK SMILES IDX 23 1 22 2 21 3 20 4 9 5 8 6 10 7 6 8 18 10 44 11 19 12 5 13
REMARK SMILES IDX 7 14 4 15 11 16 12 17 13 18 17 19 14 20 16 21 15 22 2 23
REMARK SMILES IDX 3 24 1 25 35 26 36 27 43 28 38 29 42 30 39 32 40 33 41 34
REMARK SMILES IDX 37 35 24 37 25 38 26 39 27 40 28 41 29 42 34 43 30 44 33 45
REMARK SMILES IDX 31 46 32 47
REMARK H PARENT 37 36 32 48
REMARK Flexibility Score: 90.00
ROOT
ATOM      1  C   UNL     1      91.688  85.156  89.578  1.00  0.00     0.264 C 
ENDROOT
BRANCH   1   2
ATOM      2  C   UNL     1      91.140  83.755  89.435  1.00  0.00    -0.033 C 
ATOM      3  C   UNL     1      90.797  83.303  88.211  1.00  0.00    -0.015 C 
BRANCH   3   4
ATOM      4  C   UNL     1      90.162  81.980  87.814  1.00  0.00     0.078 C 
ATOM      5  O   UNL     1      92.008  80.434  87.252  1.00  0.00    -0.319 OA
ATOM      6  C   UNL     1      90.908  80.648  88.191  1.00  0.00     0.095 CG0
ATOM      7  C   UNL     1      91.699  80.703  85.871  1.00  0.00     0.289 C 
ATOM      8  C   UNL     1      89.868  79.461  88.058  1.00  0.00     0.023 C 
ATOM      9  G   UNL     1      91.603  80.776  89.578  1.00  0.00     0.000 G0
ATOM     10  O   UNL     1      91.245  82.041  85.693  1.00  0.00    -0.320 OA
ATOM     11  O   UNL     1      90.651  79.871  85.378  1.00  0.00    -0.313 OA
ATOM     12  C   UNL     1      89.938  81.943  86.282  1.00  0.00     0.170 C 
ATOM     13  C   UNL     1      88.840  79.726  86.915  1.00  0.00     0.049 C 
ATOM     14  C   UNL     1      90.480  78.061  87.878  1.00  0.00     0.011 C 
ATOM     15  C   UNL     1      89.451  80.560  85.787  1.00  0.00     0.122 C 
BRANCH   7  16
ATOM     16  C   UNL     1      92.953  80.473  85.050  1.00  0.00     0.135 C 
BRANCH  16  17
ATOM     17  C   UNL     1      93.673  79.212  85.458  1.00  0.00    -0.040 A 
ATOM     18  C   UNL     1      93.158  77.967  85.098  1.00  0.00     0.004 A 
ATOM     19  C   UNL     1      94.855  79.292  86.194  1.00  0.00     0.004 A 
ATOM     20  C   UNL     1      93.825  76.801  85.474  1.00  0.00     0.000 A 
ATOM     21  C   UNL     1      95.522  78.126  86.571  1.00  0.00     0.000 A 
ATOM     22  C   UNL     1      95.007  76.881  86.211  1.00  0.00     0.000 A 
ENDBRANCH  16  17
ENDBRANCH   7  16
BRANCH  15  23
ATOM     23  C   UNL     1      88.547  80.673  84.603  1.00  0.00    -0.046 C 
ATOM     24  C   UNL     1      88.065  82.053  84.268  1.00  0.00     0.042 C 
ATOM     25  C   UNL     1      88.186  79.602  83.881  1.00  0.00     0.010 C 
ENDBRANCH  15  23
ENDBRANCH   3   4
BRANCH   2  26
ATOM     26  C   UNL     1      91.055  83.012  90.755  1.00  0.00     0.078 C 
BRANCH  26  27
ATOM     27  C   UNL     1      90.770  81.512  90.694  1.00  0.00     0.140 C 
ATOM     28  C   UNL     1      91.589  80.807  89.593  1.00  0.00     0.086 CG0
ATOM     29  C   UNL     1      91.215  80.786  91.946  1.00  0.00     0.190 C 
ATOM     30  C   UNL     1      92.123  79.583  90.284  1.00  0.00    -0.010 C 
ATOM     31  G   UNL     1      90.893  80.659  88.209  1.00  0.00     0.000 G0
ATOM     32  O   UNL     1      90.963  81.130  93.091  1.00  0.00    -0.291 OA
ATOM     33  C   UNL     1      91.954  79.555  91.609  1.00  0.00    -0.008 C 
ATOM     34  C   UNL     1      92.415  78.566  92.606  1.00  0.00     0.048 C 
BRANCH  27  35
ATOM     35  O   UNL     1      89.378  81.251  90.628  1.00  0.00    -0.381 OA
ATOM     36  H   UNL     1      89.003  81.363  91.518  1.00  0.00     0.212 HD
ENDBRANCH  27  35
ENDBRANCH  26  27
ENDBRANCH   2  26
ENDBRANCH   1   2
BRANCH   1  37
ATOM     37  O   UNL     1      92.975  85.215  89.000  1.00  0.00    -0.461 OA
BRANCH  37  38
ATOM     38  C   UNL     1      94.036  85.176  89.875  1.00  0.00     0.310 C 
ATOM     39  O   UNL     1      93.941  85.067  91.090  1.00  0.00    -0.252 OA
BRANCH  38  40
ATOM     40  C   UNL     1      95.329  85.287  89.104  1.00  0.00     0.158 C 
BRANCH  40  41
ATOM     41  C   UNL     1      95.242  84.694  87.721  1.00  0.00    -0.037 A 
ATOM     42  C   UNL     1      95.197  85.531  86.606  1.00  0.00     0.008 A 
ATOM     43  C   UNL     1      95.205  83.310  87.556  1.00  0.00     0.008 A 
ATOM     44  C   UNL     1      95.115  84.982  85.325  1.00  0.00     0.046 A 
ATOM     45  C   UNL     1      95.124  82.761  86.276  1.00  0.00     0.046 A 
ATOM     46  C   UNL     1      95.078  83.597  85.161  1.00  0.00     0.115 A 
BRANCH  46  47
ATOM     47  O   UNL     1      94.998  83.062  83.912  1.00  0.00    -0.508 OA
ATOM     48  H   UNL     1      94.995  83.784  83.259  1.00  0.00     0.293 HD
ENDBRANCH  46  47
ENDBRANCH  40  41
ENDBRANCH  38  40
ENDBRANCH  37  38
ENDBRANCH   1  37
TORSDOF 10
ENDMDL
