MODEL 1
REMARK VINA RESULT:    -6.412      0.000      0.000
REMARK INTER + INTRA:         -11.011
REMARK INTER:                 -10.348
REMARK INTRA:                  -0.663
REMARK UNBOUND:                -0.663
REMARK SMILES COc1cc(CNC(=O)CCCCC/C=C/C(C)C)ccc1O
REMARK SMILES IDX 11 1 10 2 8 3 7 4 9 6 6 7 5 8 3 9 22 10 4 11 21 12 20 13
REMARK SMILES IDX 2 14 1 15 23 16 12 18 13 19 14 20 15 21 16 22 17 23 18 24
REMARK SMILES IDX 19 25
REMARK H PARENT 7 5 23 17
REMARK Flexibility Score: inf
ROOT
ATOM      1  C   UNL     1      95.575  94.082  75.346  1.00  0.00     0.010 C 
ENDROOT
BRANCH   1   2
ATOM      2  C   UNL     1      94.501  94.405  76.417  1.00  0.00     0.100 C 
BRANCH   2   3
ATOM      3  C   UNL     1      93.126  94.064  76.008  1.00  0.00     0.220 C 
ATOM      4  N   UNL     1      92.864  92.848  75.454  1.00  0.00    -0.352 N 
ATOM      5  H   UNL     1      93.681  92.274  75.293  1.00  0.00     0.163 HD
ATOM      6  O   UNL     1      92.216  94.900  76.222  1.00  0.00    -0.275 OA
BRANCH   4   7
ATOM      7  C   UNL     1      91.571  92.355  75.105  1.00  0.00     0.151 C 
BRANCH   7   8
ATOM      8  C   UNL     1      91.024  91.416  76.119  1.00  0.00    -0.025 A 
ATOM      9  C   UNL     1      90.224  89.176  76.743  1.00  0.00     0.160 A 
ATOM     10  C   UNL     1      89.930  89.644  78.042  1.00  0.00     0.157 A 
ATOM     11  C   UNL     1      90.760  90.066  75.790  1.00  0.00     0.056 A 
ATOM     12  C   UNL     1      90.205  90.980  78.385  1.00  0.00     0.050 A 
ATOM     13  C   UNL     1      90.758  91.857  77.434  1.00  0.00     0.009 A 
BRANCH   9  14
ATOM     14  O   UNL     1      90.042  87.856  76.424  1.00  0.00    -0.493 OA
ATOM     15  C   UNL     1      89.491  87.638  75.115  1.00  0.00     0.278 C 
ENDBRANCH   9  14
BRANCH  10  16
ATOM     16  O   UNL     1      89.388  88.827  78.980  1.00  0.00    -0.504 OA
ATOM     17  H   UNL     1      90.082  88.495  79.554  1.00  0.00     0.293 HD
ENDBRANCH  10  16
ENDBRANCH   7   8
ENDBRANCH   4   7
ENDBRANCH   2   3
ENDBRANCH   1   2
BRANCH   1  18
ATOM     18  C   UNL     1      96.350  95.358  74.929  1.00  0.00     0.001 C 
BRANCH  18  19
ATOM     19  C   UNL     1      96.327  96.479  75.998  1.00  0.00     0.004 C 
BRANCH  19  20
ATOM     20  C   UNL     1      97.256  96.137  77.197  1.00  0.00     0.027 C 
BRANCH  20  21
ATOM     21  C   UNL     1      96.625  96.313  78.494  1.00  0.00    -0.031 C 
ATOM     22  C   UNL     1      97.210  95.916  79.638  1.00  0.00    -0.028 C 
BRANCH  22  23
ATOM     23  C   UNL     1      96.604  96.083  80.957  1.00  0.00     0.005 C 
ATOM     24  C   UNL     1      96.411  97.590  81.273  1.00  0.00     0.012 C 
ATOM     25  C   UNL     1      95.274  95.287  81.041  1.00  0.00     0.012 C 
ENDBRANCH  22  23
ENDBRANCH  20  21
ENDBRANCH  19  20
ENDBRANCH  18  19
ENDBRANCH   1  18
TORSDOF 11
ENDMDL
MODEL 2
REMARK VINA RESULT:    -6.353      4.100      9.286
REMARK INTER + INTRA:         -10.916
REMARK INTER:                  -9.764
REMARK INTRA:                  -1.152
REMARK UNBOUND:                -0.663
REMARK SMILES COc1cc(CNC(=O)CCCCC/C=C/C(C)C)ccc1O
REMARK SMILES IDX 11 1 10 2 8 3 7 4 9 6 6 7 5 8 3 9 22 10 4 11 21 12 20 13
REMARK SMILES IDX 2 14 1 15 23 16 12 18 13 19 14 20 15 21 16 22 17 23 18 24
REMARK SMILES IDX 19 25
REMARK H PARENT 7 5 23 17
REMARK Flexibility Score: inf
ROOT
ATOM      1  C   UNL     1      96.055  95.224  77.949  1.00  0.00     0.010 C 
ENDROOT
BRANCH   1   2
ATOM      2  C   UNL     1      95.472  94.036  78.757  1.00  0.00     0.100 C 
BRANCH   2   3
ATOM      3  C   UNL     1      95.758  94.095  80.202  1.00  0.00     0.220 C 
ATOM      4  N   UNL     1      96.539  95.094  80.699  1.00  0.00    -0.352 N 
ATOM      5  H   UNL     1      96.938  95.704  79.999  1.00  0.00     0.163 HD
ATOM      6  O   UNL     1      95.233  93.235  80.949  1.00  0.00    -0.275 OA
BRANCH   4   7
ATOM      7  C   UNL     1      96.814  95.323  82.080  1.00  0.00     0.151 C 
BRANCH   7   8
ATOM      8  C   UNL     1      96.630  96.745  82.471  1.00  0.00    -0.025 A 
ATOM      9  C   UNL     1      96.534  98.488  84.203  1.00  0.00     0.160 A 
ATOM     10  C   UNL     1      96.226  99.450  83.216  1.00  0.00     0.157 A 
ATOM     11  C   UNL     1      96.725  97.144  83.825  1.00  0.00     0.056 A 
ATOM     12  C   UNL     1      96.146  99.068  81.865  1.00  0.00     0.050 A 
ATOM     13  C   UNL     1      96.357  97.727  81.493  1.00  0.00     0.009 A 
BRANCH   9  14
ATOM     14  O   UNL     1      96.700  98.865  85.510  1.00  0.00    -0.493 OA
ATOM     15  C   UNL     1      96.355  97.847  86.463  1.00  0.00     0.278 C 
ENDBRANCH   9  14
BRANCH  10  16
ATOM     16  O   UNL     1      96.007 100.749  83.542  1.00  0.00    -0.504 OA
ATOM     17  H   UNL     1      96.653 101.303  83.097  1.00  0.00     0.293 HD
ENDBRANCH  10  16
ENDBRANCH   7   8
ENDBRANCH   4   7
ENDBRANCH   2   3
ENDBRANCH   1   2
BRANCH   1  18
ATOM     18  C   UNL     1      96.630  94.749  76.591  1.00  0.00     0.001 C 
BRANCH  18  19
ATOM     19  C   UNL     1      95.575  94.101  75.660  1.00  0.00     0.004 C 
BRANCH  19  20
ATOM     20  C   UNL     1      94.478  95.122  75.248  1.00  0.00     0.027 C 
BRANCH  20  21
ATOM     21  C   UNL     1      93.125  94.610  75.376  1.00  0.00    -0.031 C 
ATOM     22  C   UNL     1      92.547  94.393  76.571  1.00  0.00    -0.028 C 
BRANCH  22  23
ATOM     23  C   UNL     1      91.188  93.884  76.733  1.00  0.00     0.005 C 
ATOM     24  C   UNL     1      90.524  93.673  75.346  1.00  0.00     0.012 C 
ATOM     25  C   UNL     1      91.198  92.587  77.586  1.00  0.00     0.012 C 
ENDBRANCH  22  23
ENDBRANCH  20  21
ENDBRANCH  19  20
ENDBRANCH  18  19
ENDBRANCH   1  18
TORSDOF 11
ENDMDL
MODEL 3
REMARK VINA RESULT:    -6.169      2.805      4.325
REMARK INTER + INTRA:         -10.619
REMARK INTER:                 -10.010
REMARK INTRA:                  -0.609
REMARK UNBOUND:                -0.663
REMARK SMILES COc1cc(CNC(=O)CCCCC/C=C/C(C)C)ccc1O
REMARK SMILES IDX 11 1 10 2 8 3 7 4 9 6 6 7 5 8 3 9 22 10 4 11 21 12 20 13
REMARK SMILES IDX 2 14 1 15 23 16 12 18 13 19 14 20 15 21 16 22 17 23 18 24
REMARK SMILES IDX 19 25
REMARK H PARENT 7 5 23 17
REMARK Flexibility Score: inf
ROOT
ATOM      1  C   UNL     1      96.201  95.606  79.873  1.00  0.00     0.010 C 
ENDROOT
BRANCH   1   2
ATOM      2  C   UNL     1      95.384  94.367  79.420  1.00  0.00     0.100 C 
BRANCH   2   3
ATOM      3  C   UNL     1      94.965  94.409  78.007  1.00  0.00     0.220 C 
ATOM      4  N   UNL     1      93.891  93.678  77.597  1.00  0.00    -0.352 N 
ATOM      5  H   UNL     1      93.490  93.083  78.308  1.00  0.00     0.163 HD
ATOM      6  O   UNL     1      95.593  95.157  77.221  1.00  0.00    -0.275 OA
BRANCH   4   7
ATOM      7  C   UNL     1      93.323  93.702  76.288  1.00  0.00     0.151 C 
BRANCH   7   8
ATOM      8  C   UNL     1      92.050  92.941  76.204  1.00  0.00    -0.025 A 
ATOM      9  C   UNL     1      90.465  91.564  74.922  1.00  0.00     0.160 A 
ATOM     10  C   UNL     1      89.593  91.536  76.033  1.00  0.00     0.157 A 
ATOM     11  C   UNL     1      91.680  92.272  75.013  1.00  0.00     0.056 A 
ATOM     12  C   UNL     1      89.958  92.183  77.228  1.00  0.00     0.050 A 
ATOM     13  C   UNL     1      91.182  92.871  77.316  1.00  0.00     0.009 A 
BRANCH   9  14
ATOM     14  O   UNL     1      90.160  90.865  73.785  1.00  0.00    -0.493 OA
ATOM     15  C   UNL     1      90.661  91.461  72.577  1.00  0.00     0.278 C 
ENDBRANCH   9  14
BRANCH  10  16
ATOM     16  O   UNL     1      88.402  90.890  75.977  1.00  0.00    -0.504 OA
ATOM     17  H   UNL     1      88.501  90.078  75.473  1.00  0.00     0.293 HD
ENDBRANCH  10  16
ENDBRANCH   7   8
ENDBRANCH   4   7
ENDBRANCH   2   3
ENDBRANCH   1   2
BRANCH   1  18
ATOM     18  C   UNL     1      95.733  96.106  81.263  1.00  0.00     0.001 C 
BRANCH  18  19
ATOM     19  C   UNL     1      96.859  96.766  82.099  1.00  0.00     0.004 C 
BRANCH  19  20
ATOM     20  C   UNL     1      96.534  98.253  82.414  1.00  0.00     0.027 C 
BRANCH  20  21
ATOM     21  C   UNL     1      96.436  98.541  83.835  1.00  0.00    -0.031 C 
ATOM     22  C   UNL     1      96.280  97.574  84.755  1.00  0.00    -0.028 C 
BRANCH  22  23
ATOM     23  C   UNL     1      96.185  97.830  86.190  1.00  0.00     0.005 C 
ATOM     24  C   UNL     1      97.599  97.852  86.828  1.00  0.00     0.012 C 
ATOM     25  C   UNL     1      95.400  99.144  86.450  1.00  0.00     0.012 C 
ENDBRANCH  22  23
ENDBRANCH  20  21
ENDBRANCH  19  20
ENDBRANCH  18  19
ENDBRANCH   1  18
TORSDOF 11
ENDMDL
MODEL 4
REMARK VINA RESULT:    -6.128      4.077      6.257
REMARK INTER + INTRA:         -10.554
REMARK INTER:                  -9.616
REMARK INTRA:                  -0.938
REMARK UNBOUND:                -0.663
REMARK SMILES COc1cc(CNC(=O)CCCCC/C=C/C(C)C)ccc1O
REMARK SMILES IDX 11 1 10 2 8 3 7 4 9 6 6 7 5 8 3 9 22 10 4 11 21 12 20 13
REMARK SMILES IDX 2 14 1 15 23 16 12 18 13 19 14 20 15 21 16 22 17 23 18 24
REMARK SMILES IDX 19 25
REMARK H PARENT 7 5 23 17
REMARK Flexibility Score: inf
ROOT
ATOM      1  C   UNL     1      95.571  96.277  74.374  1.00  0.00     0.010 C 
ENDROOT
BRANCH   1   2
ATOM      2  C   UNL     1      95.883  96.058  75.877  1.00  0.00     0.100 C 
BRANCH   2   3
ATOM      3  C   UNL     1      95.339  94.802  76.426  1.00  0.00     0.220 C 
ATOM      4  N   UNL     1      94.068  94.771  76.915  1.00  0.00    -0.352 N 
ATOM      5  H   UNL     1      93.600  95.666  76.930  1.00  0.00     0.163 HD
ATOM      6  O   UNL     1      96.058  93.775  76.391  1.00  0.00    -0.275 OA
BRANCH   4   7
ATOM      7  C   UNL     1      93.388  93.607  77.383  1.00  0.00     0.151 C 
BRANCH   7   8
ATOM      8  C   UNL     1      92.338  93.140  76.442  1.00  0.00    -0.025 A 
ATOM      9  C   UNL     1      90.319  91.813  75.981  1.00  0.00     0.160 A 
ATOM     10  C   UNL     1      90.367  92.211  74.627  1.00  0.00     0.157 A 
ATOM     11  C   UNL     1      91.308  92.272  76.875  1.00  0.00     0.056 A 
ATOM     12  C   UNL     1      91.377  93.088  74.190  1.00  0.00     0.050 A 
ATOM     13  C   UNL     1      92.349  93.558  75.092  1.00  0.00     0.009 A 
BRANCH   9  14
ATOM     14  O   UNL     1      89.291  91.031  76.437  1.00  0.00    -0.493 OA
ATOM     15  C   UNL     1      89.715  89.803  77.053  1.00  0.00     0.278 C 
ENDBRANCH   9  14
BRANCH  10  16
ATOM     16  O   UNL     1      89.452  91.769  73.729  1.00  0.00    -0.504 OA
ATOM     17  H   UNL     1      89.521  90.815  73.646  1.00  0.00     0.293 HD
ENDBRANCH  10  16
ENDBRANCH   7   8
ENDBRANCH   4   7
ENDBRANCH   2   3
ENDBRANCH   1   2
BRANCH   1  18
ATOM     18  C   UNL     1      94.160  96.890  74.179  1.00  0.00     0.001 C 
BRANCH  18  19
ATOM     19  C   UNL     1      94.149  98.156  73.285  1.00  0.00     0.004 C 
BRANCH  19  20
ATOM     20  C   UNL     1      94.837  97.890  71.917  1.00  0.00     0.027 C 
BRANCH  20  21
ATOM     21  C   UNL     1      94.021  98.254  70.772  1.00  0.00    -0.031 C 
ATOM     22  C   UNL     1      92.775  98.743  70.904  1.00  0.00    -0.028 C 
BRANCH  22  23
ATOM     23  C   UNL     1      91.931  99.123  69.773  1.00  0.00     0.005 C 
ATOM     24  C   UNL     1      90.735  98.143  69.642  1.00  0.00     0.012 C 
ATOM     25  C   UNL     1      91.471 100.599  69.919  1.00  0.00     0.012 C 
ENDBRANCH  22  23
ENDBRANCH  20  21
ENDBRANCH  19  20
ENDBRANCH  18  19
ENDBRANCH   1  18
TORSDOF 11
ENDMDL
MODEL 5
REMARK VINA RESULT:    -5.805     12.310     14.978
REMARK INTER + INTRA:         -10.032
REMARK INTER:                  -9.233
REMARK INTRA:                  -0.799
REMARK UNBOUND:                -0.663
REMARK SMILES COc1cc(CNC(=O)CCCCC/C=C/C(C)C)ccc1O
REMARK SMILES IDX 11 1 10 2 8 3 7 4 9 6 6 7 5 8 3 9 22 10 4 11 21 12 20 13
REMARK SMILES IDX 2 14 1 15 23 16 12 18 13 19 14 20 15 21 16 22 17 23 18 24
REMARK SMILES IDX 19 25
REMARK H PARENT 7 5 23 17
REMARK Flexibility Score: inf
ROOT
ATOM      1  C   UNL     1      95.773  80.215  84.068  1.00  0.00     0.010 C 
ENDROOT
BRANCH   1   2
ATOM      2  C   UNL     1      94.957  81.515  84.285  1.00  0.00     0.100 C 
BRANCH   2   3
ATOM      3  C   UNL     1      93.884  81.389  85.288  1.00  0.00     0.220 C 
ATOM      4  N   UNL     1      92.646  81.891  85.023  1.00  0.00    -0.352 N 
ATOM      5  H   UNL     1      92.574  82.396  84.150  1.00  0.00     0.163 HD
ATOM      6  O   UNL     1      94.134  80.780  86.355  1.00  0.00    -0.275 OA
BRANCH   4   7
ATOM      7  C   UNL     1      91.498  81.754  85.860  1.00  0.00     0.151 C 
BRANCH   7   8
ATOM      8  C   UNL     1      90.757  80.490  85.611  1.00  0.00    -0.025 A 
ATOM      9  C   UNL     1      89.546  78.523  86.455  1.00  0.00     0.160 A 
ATOM     10  C   UNL     1      89.391  78.052  85.132  1.00  0.00     0.157 A 
ATOM     11  C   UNL     1      90.234  79.731  86.684  1.00  0.00     0.056 A 
ATOM     12  C   UNL     1      89.892  78.807  84.056  1.00  0.00     0.050 A 
ATOM     13  C   UNL     1      90.561  80.023  84.293  1.00  0.00     0.009 A 
BRANCH   9  14
ATOM     14  O   UNL     1      88.986  77.841  87.502  1.00  0.00    -0.493 OA
ATOM     15  C   UNL     1      88.415  78.685  88.515  1.00  0.00     0.278 C 
ENDBRANCH   9  14
BRANCH  10  16
ATOM     16  O   UNL     1      88.760  76.880  84.870  1.00  0.00    -0.504 OA
ATOM     17  H   UNL     1      87.852  77.057  84.613  1.00  0.00     0.293 HD
ENDBRANCH  10  16
ENDBRANCH   7   8
ENDBRANCH   4   7
ENDBRANCH   2   3
ENDBRANCH   1   2
BRANCH   1  18
ATOM     18  C   UNL     1      96.693  80.332  82.826  1.00  0.00     0.001 C 
BRANCH  18  19
ATOM     19  C   UNL     1      97.587  81.598  82.830  1.00  0.00     0.004 C 
BRANCH  19  20
ATOM     20  C   UNL     1      97.174  82.586  81.703  1.00  0.00     0.027 C 
BRANCH  20  21
ATOM     21  C   UNL     1      97.061  81.966  80.394  1.00  0.00    -0.031 C 
ATOM     22  C   UNL     1      96.731  82.664  79.293  1.00  0.00    -0.028 C 
BRANCH  22  23
ATOM     23  C   UNL     1      96.614  82.071  77.963  1.00  0.00     0.005 C 
ATOM     24  C   UNL     1      97.194  83.033  76.893  1.00  0.00     0.012 C 
ATOM     25  C   UNL     1      97.296  80.677  77.935  1.00  0.00     0.012 C 
ENDBRANCH  22  23
ENDBRANCH  20  21
ENDBRANCH  19  20
ENDBRANCH  18  19
ENDBRANCH   1  18
TORSDOF 11
ENDMDL
MODEL 6
REMARK VINA RESULT:    -5.759     16.379     19.686
REMARK INTER + INTRA:          -9.958
REMARK INTER:                  -9.162
REMARK INTRA:                  -0.795
REMARK UNBOUND:                -0.663
REMARK SMILES COc1cc(CNC(=O)CCCCC/C=C/C(C)C)ccc1O
REMARK SMILES IDX 11 1 10 2 8 3 7 4 9 6 6 7 5 8 3 9 22 10 4 11 21 12 20 13
REMARK SMILES IDX 2 14 1 15 23 16 12 18 13 19 14 20 15 21 16 22 17 23 18 24
REMARK SMILES IDX 19 25
REMARK H PARENT 7 5 23 17
REMARK Flexibility Score: inf
ROOT
ATOM      1  C   UNL     1      76.999  93.517  63.816  1.00  0.00     0.010 C 
ENDROOT
BRANCH   1   2
ATOM      2  C   UNL     1      78.448  93.642  64.353  1.00  0.00     0.100 C 
BRANCH   2   3
ATOM      3  C   UNL     1      78.690  94.858  65.151  1.00  0.00     0.220 C 
ATOM      4  N   UNL     1      78.021  95.044  66.323  1.00  0.00    -0.352 N 
ATOM      5  H   UNL     1      77.328  94.338  66.530  1.00  0.00     0.163 HD
ATOM      6  O   UNL     1      79.545  95.679  64.742  1.00  0.00    -0.275 OA
BRANCH   4   7
ATOM      7  C   UNL     1      78.229  96.122  67.235  1.00  0.00     0.151 C 
BRANCH   7   8
ATOM      8  C   UNL     1      78.178  95.687  68.655  1.00  0.00    -0.025 A 
ATOM      9  C   UNL     1      76.989  94.605  70.516  1.00  0.00     0.160 A 
ATOM     10  C   UNL     1      78.064  94.910  71.379  1.00  0.00     0.157 A 
ATOM     11  C   UNL     1      77.050  95.003  69.165  1.00  0.00     0.056 A 
ATOM     12  C   UNL     1      79.199  95.574  70.878  1.00  0.00     0.050 A 
ATOM     13  C   UNL     1      79.260  95.951  69.524  1.00  0.00     0.009 A 
BRANCH   9  14
ATOM     14  O   UNL     1      75.919  93.881  70.972  1.00  0.00    -0.493 OA
ATOM     15  C   UNL     1      75.680  92.664  70.245  1.00  0.00     0.278 C 
ENDBRANCH   9  14
BRANCH  10  16
ATOM     16  O   UNL     1      78.033  94.569  72.692  1.00  0.00    -0.504 OA
ATOM     17  H   UNL     1      77.912  95.359  73.224  1.00  0.00     0.293 HD
ENDBRANCH  10  16
ENDBRANCH   7   8
ENDBRANCH   4   7
ENDBRANCH   2   3
ENDBRANCH   1   2
BRANCH   1  18
ATOM     18  C   UNL     1      76.695  92.067  63.361  1.00  0.00     0.001 C 
BRANCH  18  19
ATOM     19  C   UNL     1      77.879  91.088  63.563  1.00  0.00     0.004 C 
BRANCH  19  20
ATOM     20  C   UNL     1      77.389  89.616  63.653  1.00  0.00     0.027 C 
BRANCH  20  21
ATOM     21  C   UNL     1      77.247  89.130  65.015  1.00  0.00    -0.031 C 
ATOM     22  C   UNL     1      78.041  88.170  65.522  1.00  0.00    -0.028 C 
BRANCH  22  23
ATOM     23  C   UNL     1      77.927  87.663  66.887  1.00  0.00     0.005 C 
ATOM     24  C   UNL     1      76.515  87.966  67.457  1.00  0.00     0.012 C 
ATOM     25  C   UNL     1      78.268  86.149  66.929  1.00  0.00     0.012 C 
ENDBRANCH  22  23
ENDBRANCH  20  21
ENDBRANCH  19  20
ENDBRANCH  18  19
ENDBRANCH   1  18
TORSDOF 11
ENDMDL
MODEL 7
REMARK VINA RESULT:    -5.715     25.039     28.871
REMARK INTER + INTRA:          -9.887
REMARK INTER:                  -7.941
REMARK INTRA:                  -1.946
REMARK UNBOUND:                -0.663
REMARK SMILES COc1cc(CNC(=O)CCCCC/C=C/C(C)C)ccc1O
REMARK SMILES IDX 11 1 10 2 8 3 7 4 9 6 6 7 5 8 3 9 22 10 4 11 21 12 20 13
REMARK SMILES IDX 2 14 1 15 23 16 12 18 13 19 14 20 15 21 16 22 17 23 18 24
REMARK SMILES IDX 19 25
REMARK H PARENT 7 5 23 17
REMARK Flexibility Score: inf
ROOT
ATOM      1  C   UNL     1      83.630  63.978  76.298  1.00  0.00     0.010 C 
ENDROOT
BRANCH   1   2
ATOM      2  C   UNL     1      82.344  64.836  76.419  1.00  0.00     0.100 C 
BRANCH   2   3
ATOM      3  C   UNL     1      82.598  66.284  76.542  1.00  0.00     0.220 C 
ATOM      4  N   UNL     1      83.869  66.736  76.725  1.00  0.00    -0.352 N 
ATOM      5  H   UNL     1      84.563  66.009  76.838  1.00  0.00     0.163 HD
ATOM      6  O   UNL     1      81.627  67.070  76.433  1.00  0.00    -0.275 OA
BRANCH   4   7
ATOM      7  C   UNL     1      84.265  68.106  76.762  1.00  0.00     0.151 C 
BRANCH   7   8
ATOM      8  C   UNL     1      84.964  68.534  75.523  1.00  0.00    -0.025 A 
ATOM      9  C   UNL     1      85.087  68.642  73.069  1.00  0.00     0.160 A 
ATOM     10  C   UNL     1      86.329  69.306  73.161  1.00  0.00     0.157 A 
ATOM     11  C   UNL     1      84.419  68.254  74.248  1.00  0.00     0.056 A 
ATOM     12  C   UNL     1      86.873  69.605  74.424  1.00  0.00     0.050 A 
ATOM     13  C   UNL     1      86.190  69.231  75.597  1.00  0.00     0.009 A 
BRANCH   9  14
ATOM     14  O   UNL     1      84.507  68.425  71.847  1.00  0.00    -0.493 OA
ATOM     15  C   UNL     1      83.267  69.125  71.652  1.00  0.00     0.278 C 
ENDBRANCH   9  14
BRANCH  10  16
ATOM     16  O   UNL     1      87.018  69.672  72.051  1.00  0.00    -0.504 OA
ATOM     17  H   UNL     1      87.817  69.144  71.983  1.00  0.00     0.293 HD
ENDBRANCH  10  16
ENDBRANCH   7   8
ENDBRANCH   4   7
ENDBRANCH   2   3
ENDBRANCH   1   2
BRANCH   1  18
ATOM     18  C   UNL     1      83.846  63.496  74.841  1.00  0.00     0.001 C 
BRANCH  18  19
ATOM     19  C   UNL     1      84.905  64.318  74.064  1.00  0.00     0.004 C 
BRANCH  19  20
ATOM     20  C   UNL     1      84.280  65.024  72.828  1.00  0.00     0.027 C 
BRANCH  20  21
ATOM     21  C   UNL     1      82.830  65.103  72.871  1.00  0.00    -0.031 C 
ATOM     22  C   UNL     1      82.102  65.530  71.824  1.00  0.00    -0.028 C 
BRANCH  22  23
ATOM     23  C   UNL     1      80.644  65.616  71.834  1.00  0.00     0.005 C 
ATOM     24  C   UNL     1      80.092  65.243  73.236  1.00  0.00     0.012 C 
ATOM     25  C   UNL     1      80.186  67.028  71.378  1.00  0.00     0.012 C 
ENDBRANCH  22  23
ENDBRANCH  20  21
ENDBRANCH  19  20
ENDBRANCH  18  19
ENDBRANCH   1  18
TORSDOF 11
ENDMDL
MODEL 8
REMARK VINA RESULT:    -5.674     14.043     16.902
REMARK INTER + INTRA:          -9.820
REMARK INTER:                  -8.453
REMARK INTRA:                  -1.366
REMARK UNBOUND:                -0.663
REMARK SMILES COc1cc(CNC(=O)CCCCC/C=C/C(C)C)ccc1O
REMARK SMILES IDX 11 1 10 2 8 3 7 4 9 6 6 7 5 8 3 9 22 10 4 11 21 12 20 13
REMARK SMILES IDX 2 14 1 15 23 16 12 18 13 19 14 20 15 21 16 22 17 23 18 24
REMARK SMILES IDX 19 25
REMARK H PARENT 7 5 23 17
REMARK Flexibility Score: inf
ROOT
ATOM      1  C   UNL     1      83.555  91.209  90.257  1.00  0.00     0.010 C 
ENDROOT
BRANCH   1   2
ATOM      2  C   UNL     1      83.819  90.153  89.153  1.00  0.00     0.100 C 
BRANCH   2   3
ATOM      3  C   UNL     1      83.230  90.492  87.844  1.00  0.00     0.220 C 
ATOM      4  N   UNL     1      83.855  90.107  86.698  1.00  0.00    -0.352 N 
ATOM      5  H   UNL     1      84.752  89.660  86.837  1.00  0.00     0.163 HD
ATOM      6  O   UNL     1      82.133  91.100  87.825  1.00  0.00    -0.275 OA
BRANCH   4   7
ATOM      7  C   UNL     1      83.349  90.283  85.376  1.00  0.00     0.151 C 
BRANCH   7   8
ATOM      8  C   UNL     1      82.336  89.260  85.010  1.00  0.00    -0.025 A 
ATOM      9  C   UNL     1      81.580  86.920  84.975  1.00  0.00     0.160 A 
ATOM     10  C   UNL     1      80.424  87.305  84.261  1.00  0.00     0.157 A 
ATOM     11  C   UNL     1      82.530  87.897  85.335  1.00  0.00     0.056 A 
ATOM     12  C   UNL     1      80.212  88.660  83.947  1.00  0.00     0.050 A 
ATOM     13  C   UNL     1      81.156  89.632  84.328  1.00  0.00     0.009 A 
BRANCH   9  14
ATOM     14  O   UNL     1      81.753  85.617  85.361  1.00  0.00    -0.493 OA
ATOM     15  C   UNL     1      82.874  85.408  86.236  1.00  0.00     0.278 C 
ENDBRANCH   9  14
BRANCH  10  16
ATOM     16  O   UNL     1      79.500  86.392  83.870  1.00  0.00    -0.504 OA
ATOM     17  H   UNL     1      79.916  85.529  83.793  1.00  0.00     0.293 HD
ENDBRANCH  10  16
ENDBRANCH   7   8
ENDBRANCH   4   7
ENDBRANCH   2   3
ENDBRANCH   1   2
BRANCH   1  18
ATOM     18  C   UNL     1      83.820  90.623  91.667  1.00  0.00     0.001 C 
BRANCH  18  19
ATOM     19  C   UNL     1      82.578  89.954  92.307  1.00  0.00     0.004 C 
BRANCH  19  20
ATOM     20  C   UNL     1      81.310  90.155  91.431  1.00  0.00     0.027 C 
BRANCH  20  21
ATOM     21  C   UNL     1      80.669  88.913  91.035  1.00  0.00    -0.031 C 
ATOM     22  C   UNL     1      79.955  88.801  89.901  1.00  0.00    -0.028 C 
BRANCH  22  23
ATOM     23  C   UNL     1      79.303  87.566  89.473  1.00  0.00     0.005 C 
ATOM     24  C   UNL     1      79.975  87.023  88.184  1.00  0.00     0.012 C 
ATOM     25  C   UNL     1      79.314  86.526  90.627  1.00  0.00     0.012 C 
ENDBRANCH  22  23
ENDBRANCH  20  21
ENDBRANCH  19  20
ENDBRANCH  18  19
ENDBRANCH   1  18
TORSDOF 11
ENDMDL
MODEL 9
REMARK VINA RESULT:    -5.666     11.619     14.171
REMARK INTER + INTRA:          -9.808
REMARK INTER:                  -8.296
REMARK INTRA:                  -1.512
REMARK UNBOUND:                -0.663
REMARK SMILES COc1cc(CNC(=O)CCCCC/C=C/C(C)C)ccc1O
REMARK SMILES IDX 11 1 10 2 8 3 7 4 9 6 6 7 5 8 3 9 22 10 4 11 21 12 20 13
REMARK SMILES IDX 2 14 1 15 23 16 12 18 13 19 14 20 15 21 16 22 17 23 18 24
REMARK SMILES IDX 19 25
REMARK H PARENT 7 5 23 17
REMARK Flexibility Score: inf
ROOT
ATOM      1  C   UNL     1      97.203  83.681  86.090  1.00  0.00     0.010 C 
ENDROOT
BRANCH   1   2
ATOM      2  C   UNL     1      98.040  83.467  84.802  1.00  0.00     0.100 C 
BRANCH   2   3
ATOM      3  C   UNL     1      97.356  83.890  83.566  1.00  0.00     0.220 C 
ATOM      4  N   UNL     1      97.070  82.971  82.601  1.00  0.00    -0.352 N 
ATOM      5  H   UNL     1      97.428  82.044  82.783  1.00  0.00     0.163 HD
ATOM      6  O   UNL     1      97.016  85.091  83.453  1.00  0.00    -0.275 OA
BRANCH   4   7
ATOM      7  C   UNL     1      96.331  83.225  81.408  1.00  0.00     0.151 C 
BRANCH   7   8
ATOM      8  C   UNL     1      96.784  82.389  80.266  1.00  0.00    -0.025 A 
ATOM      9  C   UNL     1      96.806  81.893  77.857  1.00  0.00     0.160 A 
ATOM     10  C   UNL     1      97.609  80.758  78.098  1.00  0.00     0.157 A 
ATOM     11  C   UNL     1      96.392  82.694  78.941  1.00  0.00     0.056 A 
ATOM     12  C   UNL     1      98.019  80.454  79.410  1.00  0.00     0.050 A 
ATOM     13  C   UNL     1      97.618  81.270  80.484  1.00  0.00     0.009 A 
BRANCH   9  14
ATOM     14  O   UNL     1      96.474  82.247  76.576  1.00  0.00    -0.493 OA
ATOM     15  C   UNL     1      97.399  83.159  75.960  1.00  0.00     0.278 C 
ENDBRANCH   9  14
BRANCH  10  16
ATOM     16  O   UNL     1      98.005  79.946  77.086  1.00  0.00    -0.504 OA
ATOM     17  H   UNL     1      97.840  79.031  77.328  1.00  0.00     0.293 HD
ENDBRANCH  10  16
ENDBRANCH   7   8
ENDBRANCH   4   7
ENDBRANCH   2   3
ENDBRANCH   1   2
BRANCH   1  18
ATOM     18  C   UNL     1      96.313  82.448  86.390  1.00  0.00     0.001 C 
BRANCH  18  19
ATOM     19  C   UNL     1      94.867  82.577  85.848  1.00  0.00     0.004 C 
BRANCH  19  20
ATOM     20  C   UNL     1      94.411  81.276  85.131  1.00  0.00     0.027 C 
BRANCH  20  21
ATOM     21  C   UNL     1      95.380  80.764  84.177  1.00  0.00    -0.031 C 
ATOM     22  C   UNL     1      95.809  79.490  84.201  1.00  0.00    -0.028 C 
BRANCH  22  23
ATOM     23  C   UNL     1      96.777  78.944  83.253  1.00  0.00     0.005 C 
ATOM     24  C   UNL     1      98.176  79.572  83.491  1.00  0.00     0.012 C 
ATOM     25  C   UNL     1      96.803  77.394  83.345  1.00  0.00     0.012 C 
ENDBRANCH  22  23
ENDBRANCH  20  21
ENDBRANCH  19  20
ENDBRANCH  18  19
ENDBRANCH   1  18
TORSDOF 11
ENDMDL
MODEL 10
REMARK VINA RESULT:    -5.582     26.961     29.647
REMARK INTER + INTRA:          -9.672
REMARK INTER:                  -7.367
REMARK INTRA:                  -2.305
REMARK UNBOUND:                -0.663
REMARK SMILES COc1cc(CNC(=O)CCCCC/C=C/C(C)C)ccc1O
REMARK SMILES IDX 11 1 10 2 8 3 7 4 9 6 6 7 5 8 3 9 22 10 4 11 21 12 20 13
REMARK SMILES IDX 2 14 1 15 23 16 12 18 13 19 14 20 15 21 16 22 17 23 18 24
REMARK SMILES IDX 19 25
REMARK H PARENT 7 5 23 17
REMARK Flexibility Score: inf
ROOT
ATOM      1  C   UNL     1      85.266  64.777  78.335  1.00  0.00     0.010 C 
ENDROOT
BRANCH   1   2
ATOM      2  C   UNL     1      86.786  64.780  78.030  1.00  0.00     0.100 C 
BRANCH   2   3
ATOM      3  C   UNL     1      87.129  65.294  76.691  1.00  0.00     0.220 C 
ATOM      4  N   UNL     1      86.269  66.128  76.045  1.00  0.00    -0.352 N 
ATOM      5  H   UNL     1      85.391  66.281  76.522  1.00  0.00     0.163 HD
ATOM      6  O   UNL     1      88.237  64.975  76.197  1.00  0.00    -0.275 OA
BRANCH   4   7
ATOM      7  C   UNL     1      86.519  66.771  74.796  1.00  0.00     0.151 C 
BRANCH   7   8
ATOM      8  C   UNL     1      85.512  66.420  73.760  1.00  0.00    -0.025 A 
ATOM      9  C   UNL     1      84.087  67.062  71.862  1.00  0.00     0.160 A 
ATOM     10  C   UNL     1      83.553  65.756  71.822  1.00  0.00     0.157 A 
ATOM     11  C   UNL     1      85.055  67.386  72.834  1.00  0.00     0.056 A 
ATOM     12  C   UNL     1      84.013  64.782  72.727  1.00  0.00     0.050 A 
ATOM     13  C   UNL     1      84.993  65.108  73.682  1.00  0.00     0.009 A 
BRANCH   9  14
ATOM     14  O   UNL     1      83.711  67.993  70.930  1.00  0.00    -0.493 OA
ATOM     15  C   UNL     1      83.345  69.266  71.486  1.00  0.00     0.278 C 
ENDBRANCH   9  14
BRANCH  10  16
ATOM     16  O   UNL     1      82.600  65.411  70.920  1.00  0.00    -0.504 OA
ATOM     17  H   UNL     1      82.937  64.717  70.348  1.00  0.00     0.293 HD
ENDBRANCH  10  16
ENDBRANCH   7   8
ENDBRANCH   4   7
ENDBRANCH   2   3
ENDBRANCH   1   2
BRANCH   1  18
ATOM     18  C   UNL     1      84.610  63.442  77.899  1.00  0.00     0.001 C 
BRANCH  18  19
ATOM     19  C   UNL     1      83.687  63.575  76.662  1.00  0.00     0.004 C 
BRANCH  19  20
ATOM     20  C   UNL     1      82.817  64.861  76.740  1.00  0.00     0.027 C 
BRANCH  20  21
ATOM     21  C   UNL     1      81.745  64.902  75.760  1.00  0.00    -0.031 C 
ATOM     22  C   UNL     1      81.380  66.039  75.141  1.00  0.00    -0.028 C 
BRANCH  22  23
ATOM     23  C   UNL     1      80.311  66.113  74.148  1.00  0.00     0.005 C 
ATOM     24  C   UNL     1      80.580  67.274  73.154  1.00  0.00     0.012 C 
ATOM     25  C   UNL     1      80.152  64.746  73.429  1.00  0.00     0.012 C 
ENDBRANCH  22  23
ENDBRANCH  20  21
ENDBRANCH  19  20
ENDBRANCH  18  19
ENDBRANCH   1  18
TORSDOF 11
ENDMDL
