MODEL 1
REMARK VINA RESULT:    -6.634      0.000      0.000
REMARK INTER + INTRA:         -11.481
REMARK INTER:                 -10.318
REMARK INTRA:                  -1.163
REMARK UNBOUND:                -1.163
REMARK SMILES CCCCC/C=C/C(=O)CCc1ccc(O)c(OC)c1
REMARK SMILES IDX 6 1 7 2 8 3 9 4 10 5 11 6 12 7 17 8 20 9 15 10 14 11 13 12
REMARK SMILES IDX 18 13 19 14 16 15 5 17 4 18 3 19 2 20 1 21
REMARK H PARENT 16 16
REMARK Flexibility Score: inf
ROOT
ATOM      1  C   UNL     1      91.623  96.265  77.496  1.00  0.00    -0.023 C 
ATOM      2  C   UNL     1      92.169  96.178  76.277  1.00  0.00     0.043 C 
ENDROOT
BRANCH   2   3
ATOM      3  C   UNL     1      93.646  96.274  76.117  1.00  0.00     0.155 C 
ATOM      4  O   UNL     1      94.164  97.073  75.340  1.00  0.00    -0.295 OA
BRANCH   3   5
ATOM      5  C   UNL     1      94.478  95.298  76.926  1.00  0.00     0.085 C 
BRANCH   5   6
ATOM      6  C   UNL     1      95.356  96.028  77.944  1.00  0.00     0.044 C 
BRANCH   6   7
ATOM      7  C   UNL     1      95.332  95.382  79.310  1.00  0.00    -0.044 A 
ATOM      8  C   UNL     1      95.068  95.568  81.688  1.00  0.00     0.160 A 
ATOM      9  C   UNL     1      95.090  96.165  80.427  1.00  0.00     0.054 A 
ATOM     10  C   UNL     1      95.287  94.196  81.814  1.00  0.00     0.157 A 
ATOM     11  C   UNL     1      95.530  93.421  80.680  1.00  0.00     0.050 A 
ATOM     12  C   UNL     1      95.552  94.019  79.419  1.00  0.00     0.008 A 
BRANCH   8  13
ATOM     13  O   UNL     1      94.830  96.335  82.788  1.00  0.00    -0.493 OA
ATOM     14  C   UNL     1      95.174  97.717  82.701  1.00  0.00     0.278 C 
ENDBRANCH   8  13
BRANCH  10  15
ATOM     15  O   UNL     1      95.267  93.602  83.040  1.00  0.00    -0.504 OA
ATOM     16  H   UNL     1      95.516  92.668  82.930  1.00  0.00     0.293 HD
ENDBRANCH  10  15
ENDBRANCH   6   7
ENDBRANCH   5   6
ENDBRANCH   3   5
ENDBRANCH   2   3
BRANCH   1  17
ATOM     17  C   UNL     1      90.144  96.178  77.740  1.00  0.00     0.027 C 
BRANCH  17  18
ATOM     18  C   UNL     1      89.496  94.956  77.081  1.00  0.00     0.004 C 
BRANCH  18  19
ATOM     19  C   UNL     1      89.324  93.766  78.030  1.00  0.00     0.000 C 
BRANCH  19  20
ATOM     20  C   UNL     1      90.621  92.965  78.153  1.00  0.00    -0.003 C 
ATOM     21  C   UNL     1      91.178  92.595  76.787  1.00  0.00     0.004 C 
ENDBRANCH  19  20
ENDBRANCH  18  19
ENDBRANCH  17  18
ENDBRANCH   1  17
TORSDOF 10
ENDMDL
MODEL 2
REMARK VINA RESULT:    -5.879      1.588      2.802
REMARK INTER + INTRA:         -10.307
REMARK INTER:                  -9.310
REMARK INTRA:                  -0.997
REMARK UNBOUND:                -1.163
REMARK SMILES CCCCC/C=C/C(=O)CCc1ccc(O)c(OC)c1
REMARK SMILES IDX 6 1 7 2 8 3 9 4 10 5 11 6 12 7 17 8 20 9 15 10 14 11 13 12
REMARK SMILES IDX 18 13 19 14 16 15 5 17 4 18 3 19 2 20 1 21
REMARK H PARENT 16 16
REMARK Flexibility Score: inf
ROOT
ATOM      1  C   UNL     1      93.577  96.891  76.857  1.00  0.00    -0.023 C 
ATOM      2  C   UNL     1      94.066  97.934  76.176  1.00  0.00     0.043 C 
ENDROOT
BRANCH   2   3
ATOM      3  C   UNL     1      95.376  98.524  76.562  1.00  0.00     0.155 C 
ATOM      4  O   UNL     1      95.844  99.502  75.982  1.00  0.00    -0.295 OA
BRANCH   3   5
ATOM      5  C   UNL     1      96.132  97.822  77.674  1.00  0.00     0.085 C 
BRANCH   5   6
ATOM      6  C   UNL     1      96.160  98.670  78.947  1.00  0.00     0.044 C 
BRANCH   6   7
ATOM      7  C   UNL     1      95.749  97.896  80.177  1.00  0.00    -0.044 A 
ATOM      8  C   UNL     1      94.958  95.866  81.182  1.00  0.00     0.160 A 
ATOM      9  C   UNL     1      95.336  96.580  80.045  1.00  0.00     0.054 A 
ATOM     10  C   UNL     1      94.997  96.477  82.435  1.00  0.00     0.157 A 
ATOM     11  C   UNL     1      95.415  97.803  82.552  1.00  0.00     0.050 A 
ATOM     12  C   UNL     1      95.793  98.518  81.415  1.00  0.00     0.008 A 
BRANCH   8  13
ATOM     13  O   UNL     1      94.551  94.572  81.055  1.00  0.00    -0.493 OA
ATOM     14  C   UNL     1      95.437  93.677  80.386  1.00  0.00     0.278 C 
ENDBRANCH   8  13
BRANCH  10  15
ATOM     15  O   UNL     1      94.630  95.790  83.553  1.00  0.00    -0.504 OA
ATOM     16  H   UNL     1      93.694  95.539  83.464  1.00  0.00     0.293 HD
ENDBRANCH  10  15
ENDBRANCH   6   7
ENDBRANCH   5   6
ENDBRANCH   3   5
ENDBRANCH   2   3
BRANCH   1  17
ATOM     17  C   UNL     1      92.264  96.240  76.531  1.00  0.00     0.027 C 
BRANCH  17  18
ATOM     18  C   UNL     1      91.383  96.011  77.764  1.00  0.00     0.004 C 
BRANCH  18  19
ATOM     19  C   UNL     1      90.076  95.273  77.456  1.00  0.00     0.000 C 
BRANCH  19  20
ATOM     20  C   UNL     1      90.053  93.894  78.117  1.00  0.00    -0.003 C 
ATOM     21  C   UNL     1      90.899  92.893  77.347  1.00  0.00     0.004 C 
ENDBRANCH  19  20
ENDBRANCH  18  19
ENDBRANCH  17  18
ENDBRANCH   1  17
TORSDOF 10
ENDMDL
MODEL 3
REMARK VINA RESULT:    -5.753      2.558      6.809
REMARK INTER + INTRA:         -10.111
REMARK INTER:                  -8.910
REMARK INTRA:                  -1.201
REMARK UNBOUND:                -1.163
REMARK SMILES CCCCC/C=C/C(=O)CCc1ccc(O)c(OC)c1
REMARK SMILES IDX 6 1 7 2 8 3 9 4 10 5 11 6 12 7 17 8 20 9 15 10 14 11 13 12
REMARK SMILES IDX 18 13 19 14 16 15 5 17 4 18 3 19 2 20 1 21
REMARK H PARENT 16 16
REMARK Flexibility Score: inf
ROOT
ATOM      1  C   UNL     1      94.656  94.218  78.914  1.00  0.00    -0.023 C 
ATOM      2  C   UNL     1      93.434  94.413  79.424  1.00  0.00     0.043 C 
ENDROOT
BRANCH   2   3
ATOM      3  C   UNL     1      92.244  94.389  78.530  1.00  0.00     0.155 C 
ATOM      4  O   UNL     1      91.140  94.024  78.929  1.00  0.00    -0.295 OA
BRANCH   3   5
ATOM      5  C   UNL     1      92.476  94.787  77.086  1.00  0.00     0.085 C 
BRANCH   5   6
ATOM      6  C   UNL     1      92.192  96.274  76.868  1.00  0.00     0.044 C 
BRANCH   6   7
ATOM      7  C   UNL     1      93.246  96.957  76.029  1.00  0.00    -0.044 A 
ATOM      8  C   UNL     1      93.967  98.847  74.739  1.00  0.00     0.160 A 
ATOM      9  C   UNL     1      92.993  98.217  75.513  1.00  0.00     0.054 A 
ATOM     10  C   UNL     1      95.182  98.209  74.491  1.00  0.00     0.157 A 
ATOM     11  C   UNL     1      95.423  96.939  75.017  1.00  0.00     0.050 A 
ATOM     12  C   UNL     1      94.448  96.309  75.791  1.00  0.00     0.008 A 
BRANCH   8  13
ATOM     13  O   UNL     1      93.720 100.087  74.230  1.00  0.00    -0.493 OA
ATOM     14  C   UNL     1      92.859 100.162  73.095  1.00  0.00     0.278 C 
ENDBRANCH   8  13
BRANCH  10  15
ATOM     15  O   UNL     1      96.141  98.814  73.737  1.00  0.00    -0.504 OA
ATOM     16  H   UNL     1      95.720  99.172  72.937  1.00  0.00     0.293 HD
ENDBRANCH  10  15
ENDBRANCH   6   7
ENDBRANCH   5   6
ENDBRANCH   3   5
ENDBRANCH   2   3
BRANCH   1  17
ATOM     17  C   UNL     1      95.905  94.228  79.747  1.00  0.00     0.027 C 
BRANCH  17  18
ATOM     18  C   UNL     1      95.640  94.546  81.223  1.00  0.00     0.004 C 
BRANCH  18  19
ATOM     19  C   UNL     1      96.705  95.447  81.856  1.00  0.00     0.000 C 
BRANCH  19  20
ATOM     20  C   UNL     1      96.246  96.906  81.888  1.00  0.00    -0.003 C 
ATOM     21  C   UNL     1      94.731  97.012  81.941  1.00  0.00     0.004 C 
ENDBRANCH  19  20
ENDBRANCH  18  19
ENDBRANCH  17  18
ENDBRANCH   1  17
TORSDOF 10
ENDMDL
MODEL 4
REMARK VINA RESULT:    -5.728      6.391     10.444
REMARK INTER + INTRA:         -10.073
REMARK INTER:                  -9.515
REMARK INTRA:                  -0.558
REMARK UNBOUND:                -1.163
REMARK SMILES CCCCC/C=C/C(=O)CCc1ccc(O)c(OC)c1
REMARK SMILES IDX 6 1 7 2 8 3 9 4 10 5 11 6 12 7 17 8 20 9 15 10 14 11 13 12
REMARK SMILES IDX 18 13 19 14 16 15 5 17 4 18 3 19 2 20 1 21
REMARK H PARENT 16 16
REMARK Flexibility Score: inf
ROOT
ATOM      1  C   UNL     1      93.859  99.206  74.681  1.00  0.00    -0.023 C 
ATOM      2  C   UNL     1      92.727  99.694  74.159  1.00  0.00     0.043 C 
ENDROOT
BRANCH   2   3
ATOM      3  C   UNL     1      92.783 100.580  72.965  1.00  0.00     0.155 C 
ATOM      4  O   UNL     1      93.283 101.702  73.011  1.00  0.00    -0.295 OA
BRANCH   3   5
ATOM      5  C   UNL     1      92.142 100.047  71.698  1.00  0.00     0.085 C 
BRANCH   5   6
ATOM      6  C   UNL     1      90.729  99.527  71.967  1.00  0.00     0.044 C 
BRANCH   6   7
ATOM      7  C   UNL     1      90.086  98.915  70.745  1.00  0.00    -0.044 A 
ATOM      8  C   UNL     1      89.134  99.166  68.556  1.00  0.00     0.160 A 
ATOM      9  C   UNL     1      89.727  99.732  69.685  1.00  0.00     0.054 A 
ATOM     10  C   UNL     1      88.906  97.791  68.503  1.00  0.00     0.157 A 
ATOM     11  C   UNL     1      89.273  96.982  69.579  1.00  0.00     0.050 A 
ATOM     12  C   UNL     1      89.866  97.548  70.707  1.00  0.00     0.008 A 
BRANCH   8  13
ATOM     13  O   UNL     1      88.780  99.967  67.513  1.00  0.00    -0.493 OA
ATOM     14  C   UNL     1      89.317 101.289  67.499  1.00  0.00     0.278 C 
ENDBRANCH   8  13
BRANCH  10  15
ATOM     15  O   UNL     1      88.328  97.227  67.406  1.00  0.00    -0.504 OA
ATOM     16  H   UNL     1      88.847  97.479  66.623  1.00  0.00     0.293 HD
ENDBRANCH  10  15
ENDBRANCH   6   7
ENDBRANCH   5   6
ENDBRANCH   3   5
ENDBRANCH   2   3
BRANCH   1  17
ATOM     17  C   UNL     1      93.888  98.308  75.884  1.00  0.00     0.027 C 
BRANCH  17  18
ATOM     18  C   UNL     1      92.878  97.158  75.801  1.00  0.00     0.004 C 
BRANCH  18  19
ATOM     19  C   UNL     1      92.874  96.254  77.037  1.00  0.00     0.000 C 
BRANCH  19  20
ATOM     20  C   UNL     1      91.447  95.953  77.496  1.00  0.00    -0.003 C 
ATOM     21  C   UNL     1      91.395  94.715  78.378  1.00  0.00     0.004 C 
ENDBRANCH  19  20
ENDBRANCH  18  19
ENDBRANCH  17  18
ENDBRANCH   1  17
TORSDOF 10
ENDMDL
MODEL 5
REMARK VINA RESULT:    -5.718     21.164     24.512
REMARK INTER + INTRA:         -10.057
REMARK INTER:                  -9.379
REMARK INTRA:                  -0.678
REMARK UNBOUND:                -1.163
REMARK SMILES CCCCC/C=C/C(=O)CCc1ccc(O)c(OC)c1
REMARK SMILES IDX 6 1 7 2 8 3 9 4 10 5 11 6 12 7 17 8 20 9 15 10 14 11 13 12
REMARK SMILES IDX 18 13 19 14 16 15 5 17 4 18 3 19 2 20 1 21
REMARK H PARENT 16 16
REMARK Flexibility Score: inf
ROOT
ATOM      1  C   UNL     1      75.197  81.183  64.222  1.00  0.00    -0.023 C 
ATOM      2  C   UNL     1      75.820  82.346  64.451  1.00  0.00     0.043 C 
ENDROOT
BRANCH   2   3
ATOM      3  C   UNL     1      76.504  82.577  65.752  1.00  0.00     0.155 C 
ATOM      4  O   UNL     1      76.102  82.067  66.796  1.00  0.00    -0.295 OA
BRANCH   3   5
ATOM      5  C   UNL     1      77.693  83.519  65.733  1.00  0.00     0.085 C 
BRANCH   5   6
ATOM      6  C   UNL     1      78.344  83.618  67.113  1.00  0.00     0.044 C 
BRANCH   6   7
ATOM      7  C   UNL     1      77.836  84.790  67.919  1.00  0.00    -0.044 A 
ATOM      8  C   UNL     1      76.598  85.639  69.791  1.00  0.00     0.160 A 
ATOM      9  C   UNL     1      77.066  84.556  69.047  1.00  0.00     0.054 A 
ATOM     10  C   UNL     1      76.905  86.941  69.398  1.00  0.00     0.157 A 
ATOM     11  C   UNL     1      77.681  87.161  68.259  1.00  0.00     0.050 A 
ATOM     12  C   UNL     1      78.150  86.078  67.515  1.00  0.00     0.008 A 
BRANCH   8  13
ATOM     13  O   UNL     1      75.840  85.412  70.901  1.00  0.00    -0.493 OA
ATOM     14  C   UNL     1      75.786  84.071  71.385  1.00  0.00     0.278 C 
ENDBRANCH   8  13
BRANCH  10  15
ATOM     15  O   UNL     1      76.454  88.007  70.117  1.00  0.00    -0.504 OA
ATOM     16  H   UNL     1      76.329  88.755  69.508  1.00  0.00     0.293 HD
ENDBRANCH  10  15
ENDBRANCH   6   7
ENDBRANCH   5   6
ENDBRANCH   3   5
ENDBRANCH   2   3
BRANCH   1  17
ATOM     17  C   UNL     1      74.484  80.873  62.938  1.00  0.00     0.027 C 
BRANCH  17  18
ATOM     18  C   UNL     1      73.079  80.300  63.152  1.00  0.00     0.004 C 
BRANCH  18  19
ATOM     19  C   UNL     1      72.585  80.412  64.598  1.00  0.00     0.000 C 
BRANCH  19  20
ATOM     20  C   UNL     1      71.862  81.738  64.833  1.00  0.00    -0.003 C 
ATOM     21  C   UNL     1      71.560  81.955  66.307  1.00  0.00     0.004 C 
ENDBRANCH  19  20
ENDBRANCH  18  19
ENDBRANCH  17  18
ENDBRANCH   1  17
TORSDOF 10
ENDMDL
MODEL 6
REMARK VINA RESULT:    -5.718      2.441      6.081
REMARK INTER + INTRA:         -10.056
REMARK INTER:                  -8.850
REMARK INTRA:                  -1.206
REMARK UNBOUND:                -1.163
REMARK SMILES CCCCC/C=C/C(=O)CCc1ccc(O)c(OC)c1
REMARK SMILES IDX 6 1 7 2 8 3 9 4 10 5 11 6 12 7 17 8 20 9 15 10 14 11 13 12
REMARK SMILES IDX 18 13 19 14 16 15 5 17 4 18 3 19 2 20 1 21
REMARK H PARENT 16 16
REMARK Flexibility Score: inf
ROOT
ATOM      1  C   UNL     1      95.486  95.096  78.509  1.00  0.00    -0.023 C 
ATOM      2  C   UNL     1      95.496  96.427  78.658  1.00  0.00     0.043 C 
ENDROOT
BRANCH   2   3
ATOM      3  C   UNL     1      95.429  97.308  77.461  1.00  0.00     0.155 C 
ATOM      4  O   UNL     1      96.433  97.834  76.985  1.00  0.00    -0.295 OA
BRANCH   3   5
ATOM      5  C   UNL     1      94.049  97.567  76.888  1.00  0.00     0.085 C 
BRANCH   5   6
ATOM      6  C   UNL     1      93.596  96.415  75.989  1.00  0.00     0.044 C 
BRANCH   6   7
ATOM      7  C   UNL     1      92.442  95.635  76.572  1.00  0.00    -0.044 A 
ATOM      8  C   UNL     1      91.387  93.530  77.041  1.00  0.00     0.160 A 
ATOM      9  C   UNL     1      92.453  94.251  76.502  1.00  0.00     0.054 A 
ATOM     10  C   UNL     1      90.324  94.202  77.643  1.00  0.00     0.157 A 
ATOM     11  C   UNL     1      90.327  95.597  77.705  1.00  0.00     0.050 A 
ATOM     12  C   UNL     1      91.393  96.317  77.166  1.00  0.00     0.008 A 
BRANCH   8  13
ATOM     13  O   UNL     1      91.397  92.169  76.973  1.00  0.00    -0.493 OA
ATOM     14  C   UNL     1      91.225  91.583  75.684  1.00  0.00     0.278 C 
ENDBRANCH   8  13
BRANCH  10  15
ATOM     15  O   UNL     1      89.278  93.510  78.173  1.00  0.00    -0.504 OA
ATOM     16  H   UNL     1      88.998  92.839  77.528  1.00  0.00     0.293 HD
ENDBRANCH  10  15
ENDBRANCH   6   7
ENDBRANCH   5   6
ENDBRANCH   3   5
ENDBRANCH   2   3
BRANCH   1  17
ATOM     17  C   UNL     1      95.551  94.141  79.665  1.00  0.00     0.027 C 
BRANCH  17  18
ATOM     18  C   UNL     1      94.936  94.707  80.949  1.00  0.00     0.004 C 
BRANCH  18  19
ATOM     19  C   UNL     1      95.948  94.897  82.083  1.00  0.00     0.000 C 
BRANCH  19  20
ATOM     20  C   UNL     1      95.660  96.175  82.872  1.00  0.00    -0.003 C 
ATOM     21  C   UNL     1      94.668  97.067  82.143  1.00  0.00     0.004 C 
ENDBRANCH  19  20
ENDBRANCH  18  19
ENDBRANCH  17  18
ENDBRANCH   1  17
TORSDOF 10
ENDMDL
MODEL 7
REMARK VINA RESULT:    -5.488     21.769     24.169
REMARK INTER + INTRA:          -9.699
REMARK INTER:                  -7.961
REMARK INTRA:                  -1.738
REMARK UNBOUND:                -1.163
REMARK SMILES CCCCC/C=C/C(=O)CCc1ccc(O)c(OC)c1
REMARK SMILES IDX 6 1 7 2 8 3 9 4 10 5 11 6 12 7 17 8 20 9 15 10 14 11 13 12
REMARK SMILES IDX 18 13 19 14 16 15 5 17 4 18 3 19 2 20 1 21
REMARK H PARENT 16 16
REMARK Flexibility Score: inf
ROOT
ATOM      1  C   UNL     1      75.765  84.859  63.818  1.00  0.00    -0.023 C 
ATOM      2  C   UNL     1      76.054  83.724  63.169  1.00  0.00     0.043 C 
ENDROOT
BRANCH   2   3
ATOM      3  C   UNL     1      75.342  82.466  63.522  1.00  0.00     0.155 C 
ATOM      4  O   UNL     1      74.230  82.202  63.069  1.00  0.00    -0.295 OA
BRANCH   3   5
ATOM      5  C   UNL     1      76.036  81.550  64.511  1.00  0.00     0.085 C 
BRANCH   5   6
ATOM      6  C   UNL     1      75.532  81.787  65.935  1.00  0.00     0.044 C 
BRANCH   6   7
ATOM      7  C   UNL     1      76.396  82.753  66.710  1.00  0.00    -0.044 A 
ATOM      8  C   UNL     1      76.669  84.286  68.536  1.00  0.00     0.160 A 
ATOM      9  C   UNL     1      75.870  83.394  67.821  1.00  0.00     0.054 A 
ATOM     10  C   UNL     1      77.982  84.527  68.133  1.00  0.00     0.157 A 
ATOM     11  C   UNL     1      78.497  83.874  67.012  1.00  0.00     0.050 A 
ATOM     12  C   UNL     1      77.698  82.982  66.296  1.00  0.00     0.008 A 
BRANCH   8  13
ATOM     13  O   UNL     1      76.154  84.918  69.629  1.00  0.00    -0.493 OA
ATOM     14  C   UNL     1      74.826  85.425  69.519  1.00  0.00     0.278 C 
ENDBRANCH   8  13
BRANCH  10  15
ATOM     15  O   UNL     1      78.772  85.395  68.823  1.00  0.00    -0.504 OA
ATOM     16  H   UNL     1      78.201  85.940  69.393  1.00  0.00     0.293 HD
ENDBRANCH  10  15
ENDBRANCH   6   7
ENDBRANCH   5   6
ENDBRANCH   3   5
ENDBRANCH   2   3
BRANCH   1  17
ATOM     17  C   UNL     1      76.439  86.167  63.523  1.00  0.00     0.027 C 
BRANCH  17  18
ATOM     18  C   UNL     1      76.122  87.254  64.555  1.00  0.00     0.004 C 
BRANCH  18  19
ATOM     19  C   UNL     1      76.067  86.735  65.995  1.00  0.00     0.000 C 
BRANCH  19  20
ATOM     20  C   UNL     1      76.623  87.768  66.976  1.00  0.00    -0.003 C 
ATOM     21  C   UNL     1      75.680  88.951  67.133  1.00  0.00     0.004 C 
ENDBRANCH  19  20
ENDBRANCH  18  19
ENDBRANCH  17  18
ENDBRANCH   1  17
TORSDOF 10
ENDMDL
MODEL 8
REMARK VINA RESULT:    -5.423     19.801     22.891
REMARK INTER + INTRA:          -9.598
REMARK INTER:                  -8.951
REMARK INTRA:                  -0.647
REMARK UNBOUND:                -1.163
REMARK SMILES CCCCC/C=C/C(=O)CCc1ccc(O)c(OC)c1
REMARK SMILES IDX 6 1 7 2 8 3 9 4 10 5 11 6 12 7 17 8 20 9 15 10 14 11 13 12
REMARK SMILES IDX 18 13 19 14 16 15 5 17 4 18 3 19 2 20 1 21
REMARK H PARENT 16 16
REMARK Flexibility Score: inf
ROOT
ATOM      1  C   UNL     1      92.682  74.828  74.268  1.00  0.00    -0.023 C 
ATOM      2  C   UNL     1      93.428  75.803  73.734  1.00  0.00     0.043 C 
ENDROOT
BRANCH   2   3
ATOM      3  C   UNL     1      94.009  75.632  72.375  1.00  0.00     0.155 C 
ATOM      4  O   UNL     1      95.223  75.579  72.190  1.00  0.00    -0.295 OA
BRANCH   3   5
ATOM      5  C   UNL     1      93.026  75.581  71.221  1.00  0.00     0.085 C 
BRANCH   5   6
ATOM      6  C   UNL     1      92.964  74.182  70.607  1.00  0.00     0.044 C 
BRANCH   6   7
ATOM      7  C   UNL     1      91.753  73.980  69.726  1.00  0.00    -0.044 A 
ATOM      8  C   UNL     1      89.865  72.653  69.068  1.00  0.00     0.160 A 
ATOM      9  C   UNL     1      90.983  72.839  69.881  1.00  0.00     0.054 A 
ATOM     10  C   UNL     1      89.531  73.611  68.111  1.00  0.00     0.157 A 
ATOM     11  C   UNL     1      90.317  74.755  67.967  1.00  0.00     0.050 A 
ATOM     12  C   UNL     1      91.435  74.941  68.780  1.00  0.00     0.008 A 
BRANCH   8  13
ATOM     13  O   UNL     1      89.106  71.532  69.219  1.00  0.00    -0.493 OA
ATOM     14  C   UNL     1      89.106  70.917  70.506  1.00  0.00     0.278 C 
ENDBRANCH   8  13
BRANCH  10  15
ATOM     15  O   UNL     1      88.442  73.441  67.312  1.00  0.00    -0.504 OA
ATOM     16  H   UNL     1      87.857  72.784  67.727  1.00  0.00     0.293 HD
ENDBRANCH  10  15
ENDBRANCH   6   7
ENDBRANCH   5   6
ENDBRANCH   3   5
ENDBRANCH   2   3
BRANCH   1  17
ATOM     17  C   UNL     1      92.062  74.923  75.632  1.00  0.00     0.027 C 
BRANCH  17  18
ATOM     18  C   UNL     1      90.934  75.958  75.710  1.00  0.00     0.004 C 
BRANCH  18  19
ATOM     19  C   UNL     1      90.909  76.740  77.027  1.00  0.00     0.000 C 
BRANCH  19  20
ATOM     20  C   UNL     1      89.474  77.033  77.467  1.00  0.00    -0.003 C 
ATOM     21  C   UNL     1      89.033  76.102  78.585  1.00  0.00     0.004 C 
ENDBRANCH  19  20
ENDBRANCH  18  19
ENDBRANCH  17  18
ENDBRANCH   1  17
TORSDOF 10
ENDMDL
MODEL 9
REMARK VINA RESULT:    -5.233      2.555      4.892
REMARK INTER + INTRA:          -9.302
REMARK INTER:                  -7.724
REMARK INTRA:                  -1.578
REMARK UNBOUND:                -1.163
REMARK SMILES CCCCC/C=C/C(=O)CCc1ccc(O)c(OC)c1
REMARK SMILES IDX 6 1 7 2 8 3 9 4 10 5 11 6 12 7 17 8 20 9 15 10 14 11 13 12
REMARK SMILES IDX 18 13 19 14 16 15 5 17 4 18 3 19 2 20 1 21
REMARK H PARENT 16 16
REMARK Flexibility Score: inf
ROOT
ATOM      1  C   UNL     1      93.574  95.044  79.459  1.00  0.00    -0.023 C 
ATOM      2  C   UNL     1      94.398  93.997  79.599  1.00  0.00     0.043 C 
ENDROOT
BRANCH   2   3
ATOM      3  C   UNL     1      95.043  93.732  80.914  1.00  0.00     0.155 C 
ATOM      4  O   UNL     1      95.133  92.596  81.374  1.00  0.00    -0.295 OA
BRANCH   3   5
ATOM      5  C   UNL     1      95.537  94.943  81.681  1.00  0.00     0.085 C 
BRANCH   5   6
ATOM      6  C   UNL     1      96.788  95.538  81.034  1.00  0.00     0.044 C 
BRANCH   6   7
ATOM      7  C   UNL     1      96.555  96.918  80.465  1.00  0.00    -0.044 A 
ATOM      8  C   UNL     1      96.117  99.253  80.800  1.00  0.00     0.160 A 
ATOM      9  C   UNL     1      96.332  97.979  81.327  1.00  0.00     0.054 A 
ATOM     10  C   UNL     1      96.128  99.449  79.420  1.00  0.00     0.157 A 
ATOM     11  C   UNL     1      96.354  98.369  78.564  1.00  0.00     0.050 A 
ATOM     12  C   UNL     1      96.568  97.095  79.091  1.00  0.00     0.008 A 
BRANCH   8  13
ATOM     13  O   UNL     1      95.897 100.299  81.646  1.00  0.00    -0.493 OA
ATOM     14  C   UNL     1      97.008 100.755  82.416  1.00  0.00     0.278 C 
ENDBRANCH   8  13
BRANCH  10  15
ATOM     15  O   UNL     1      95.920 100.688  78.893  1.00  0.00    -0.504 OA
ATOM     16  H   UNL     1      95.051 100.692  78.456  1.00  0.00     0.293 HD
ENDBRANCH  10  15
ENDBRANCH   6   7
ENDBRANCH   5   6
ENDBRANCH   3   5
ENDBRANCH   2   3
BRANCH   1  17
ATOM     17  C   UNL     1      92.886  95.379  78.168  1.00  0.00     0.027 C 
BRANCH  17  18
ATOM     18  C   UNL     1      93.623  94.843  76.936  1.00  0.00     0.004 C 
BRANCH  18  19
ATOM     19  C   UNL     1      94.098  95.940  75.979  1.00  0.00     0.000 C 
BRANCH  19  20
ATOM     20  C   UNL     1      93.644  97.321  76.454  1.00  0.00    -0.003 C 
ATOM     21  C   UNL     1      93.110  98.159  75.303  1.00  0.00     0.004 C 
ENDBRANCH  19  20
ENDBRANCH  18  19
ENDBRANCH  17  18
ENDBRANCH   1  17
TORSDOF 10
ENDMDL
MODEL 10
REMARK VINA RESULT:    -5.168     12.248     13.953
REMARK INTER + INTRA:          -9.201
REMARK INTER:                  -8.643
REMARK INTRA:                  -0.558
REMARK UNBOUND:                -1.163
REMARK SMILES CCCCC/C=C/C(=O)CCc1ccc(O)c(OC)c1
REMARK SMILES IDX 6 1 7 2 8 3 9 4 10 5 11 6 12 7 17 8 20 9 15 10 14 11 13 12
REMARK SMILES IDX 18 13 19 14 16 15 5 17 4 18 3 19 2 20 1 21
REMARK H PARENT 16 16
REMARK Flexibility Score: inf
ROOT
ATOM      1  C   UNL     1      99.309  82.695  80.952  1.00  0.00    -0.023 C 
ATOM      2  C   UNL     1      98.438  83.079  81.893  1.00  0.00     0.043 C 
ENDROOT
BRANCH   2   3
ATOM      3  C   UNL     1      98.614  82.620  83.298  1.00  0.00     0.155 C 
ATOM      4  O   UNL     1      99.649  82.077  83.678  1.00  0.00    -0.295 OA
BRANCH   3   5
ATOM      5  C   UNL     1      97.429  82.808  84.225  1.00  0.00     0.085 C 
BRANCH   5   6
ATOM      6  C   UNL     1      97.362  84.240  84.757  1.00  0.00     0.044 C 
BRANCH   6   7
ATOM      7  C   UNL     1      96.258  84.441  85.768  1.00  0.00    -0.044 A 
ATOM      8  C   UNL     1      94.565  83.522  87.199  1.00  0.00     0.160 A 
ATOM      9  C   UNL     1      95.584  83.337  86.265  1.00  0.00     0.054 A 
ATOM     10  C   UNL     1      94.232  84.809  87.623  1.00  0.00     0.157 A 
ATOM     11  C   UNL     1      94.919  85.910  87.111  1.00  0.00     0.050 A 
ATOM     12  C   UNL     1      95.938  85.725  86.178  1.00  0.00     0.008 A 
BRANCH   8  13
ATOM     13  O   UNL     1      93.901  82.438  87.690  1.00  0.00    -0.493 OA
ATOM     14  C   UNL     1      93.727  81.331  86.809  1.00  0.00     0.278 C 
ENDBRANCH   8  13
BRANCH  10  15
ATOM     15  O   UNL     1      93.238  85.003  88.534  1.00  0.00    -0.504 OA
ATOM     16  H   UNL     1      93.499  85.735  89.118  1.00  0.00     0.293 HD
ENDBRANCH  10  15
ENDBRANCH   6   7
ENDBRANCH   5   6
ENDBRANCH   3   5
ENDBRANCH   2   3
BRANCH   1  17
ATOM     17  C   UNL     1      99.200  83.114  79.514  1.00  0.00     0.027 C 
BRANCH  17  18
ATOM     18  C   UNL     1      97.770  83.032  78.970  1.00  0.00     0.004 C 
BRANCH  18  19
ATOM     19  C   UNL     1      97.428  84.144  77.973  1.00  0.00     0.000 C 
BRANCH  19  20
ATOM     20  C   UNL     1      98.280  84.031  76.708  1.00  0.00    -0.003 C 
ATOM     21  C   UNL     1      98.093  82.685  76.027  1.00  0.00     0.004 C 
ENDBRANCH  19  20
ENDBRANCH  18  19
ENDBRANCH  17  18
ENDBRANCH   1  17
TORSDOF 10
ENDMDL
