MODEL 1
REMARK VINA RESULT:    -6.250      0.000      0.000
REMARK INTER + INTRA:         -10.582
REMARK INTER:                  -9.721
REMARK INTRA:                  -0.861
REMARK UNBOUND:                -0.861
REMARK SMILES COc1cc(CNC(=O)CCCC/C=C/C(C)C)ccc1O
REMARK SMILES IDX 10 1 8 2 7 3 9 5 6 6 5 7 3 8 21 9 4 10 20 11 19 12 2 13 1 14
REMARK SMILES IDX 22 15 11 17 12 18 13 19 14 20 15 21 16 22 17 23 18 24
REMARK H PARENT 7 4 22 16
REMARK Flexibility Score: inf
ROOT
ATOM      1  C   UNL     1      78.375  85.281  68.678  1.00  0.00     0.100 C 
ENDROOT
BRANCH   1   2
ATOM      2  C   UNL     1      78.160  84.478  67.459  1.00  0.00     0.220 C 
ATOM      3  N   UNL     1      77.336  84.927  66.472  1.00  0.00    -0.352 N 
ATOM      4  H   UNL     1      76.889  85.814  66.660  1.00  0.00     0.163 HD
ATOM      5  O   UNL     1      78.773  83.388  67.352  1.00  0.00    -0.275 OA
BRANCH   3   6
ATOM      6  C   UNL     1      77.086  84.243  65.243  1.00  0.00     0.151 C 
BRANCH   6   7
ATOM      7  C   UNL     1      75.929  83.315  65.360  1.00  0.00    -0.025 A 
ATOM      8  C   UNL     1      73.512  82.953  65.657  1.00  0.00     0.160 A 
ATOM      9  C   UNL     1      73.709  81.559  65.566  1.00  0.00     0.157 A 
ATOM     10  C   UNL     1      74.623  83.816  65.556  1.00  0.00     0.056 A 
ATOM     11  C   UNL     1      75.008  81.043  65.391  1.00  0.00     0.050 A 
ATOM     12  C   UNL     1      76.110  81.914  65.279  1.00  0.00     0.009 A 
BRANCH   8  13
ATOM     13  O   UNL     1      72.258  83.456  65.894  1.00  0.00    -0.493 OA
ATOM     14  C   UNL     1      71.990  83.735  67.280  1.00  0.00     0.278 C 
ENDBRANCH   8  13
BRANCH   9  15
ATOM     15  O   UNL     1      72.659  80.701  65.646  1.00  0.00    -0.504 OA
ATOM     16  H   UNL     1      72.542  80.258  64.803  1.00  0.00     0.293 HD
ENDBRANCH   9  15
ENDBRANCH   6   7
ENDBRANCH   3   6
ENDBRANCH   1   2
BRANCH   1  17
ATOM     17  C   UNL     1      77.304  84.978  69.760  1.00  0.00     0.010 C 
BRANCH  17  18
ATOM     18  C   UNL     1      76.209  86.078  69.853  1.00  0.00     0.005 C 
BRANCH  18  19
ATOM     19  C   UNL     1      76.803  87.510  69.778  1.00  0.00     0.027 C 
BRANCH  19  20
ATOM     20  C   UNL     1      75.797  88.533  70.021  1.00  0.00    -0.031 C 
ATOM     21  C   UNL     1      74.931  88.512  71.050  1.00  0.00    -0.028 C 
BRANCH  21  22
ATOM     22  C   UNL     1      73.940  89.562  71.286  1.00  0.00     0.005 C 
ATOM     23  C   UNL     1      72.934  89.182  72.407  1.00  0.00     0.012 C 
ATOM     24  C   UNL     1      74.648  90.904  71.610  1.00  0.00     0.012 C 
ENDBRANCH  21  22
ENDBRANCH  19  20
ENDBRANCH  18  19
ENDBRANCH  17  18
ENDBRANCH   1  17
TORSDOF 10
ENDMDL
MODEL 2
REMARK VINA RESULT:    -6.117     19.791     22.210
REMARK INTER + INTRA:         -10.376
REMARK INTER:                  -9.525
REMARK INTRA:                  -0.851
REMARK UNBOUND:                -0.861
REMARK SMILES COc1cc(CNC(=O)CCCC/C=C/C(C)C)ccc1O
REMARK SMILES IDX 10 1 8 2 7 3 9 5 6 6 5 7 3 8 21 9 4 10 20 11 19 12 2 13 1 14
REMARK SMILES IDX 22 15 11 17 12 18 13 19 14 20 15 21 16 22 17 23 18 24
REMARK H PARENT 7 4 22 16
REMARK Flexibility Score: inf
ROOT
ATOM      1  C   UNL     1      93.180 100.451  75.243  1.00  0.00     0.100 C 
ENDROOT
BRANCH   1   2
ATOM      2  C   UNL     1      92.549 101.175  74.123  1.00  0.00     0.220 C 
ATOM      3  N   UNL     1      92.552 100.645  72.868  1.00  0.00    -0.352 N 
ATOM      4  H   UNL     1      93.030  99.759  72.780  1.00  0.00     0.163 HD
ATOM      5  O   UNL     1      91.994 102.274  74.366  1.00  0.00    -0.275 OA
BRANCH   3   6
ATOM      6  C   UNL     1      91.944 101.250  71.726  1.00  0.00     0.151 C 
BRANCH   6   7
ATOM      7  C   UNL     1      90.978 100.327  71.069  1.00  0.00    -0.025 A 
ATOM      8  C   UNL     1      89.543  99.762  69.150  1.00  0.00     0.160 A 
ATOM      9  C   UNL     1      89.152  98.569  69.792  1.00  0.00     0.157 A 
ATOM     10  C   UNL     1      90.449 100.630  69.794  1.00  0.00     0.056 A 
ATOM     11  C   UNL     1      89.656  98.264  71.072  1.00  0.00     0.050 A 
ATOM     12  C   UNL     1      90.570  99.130  71.702  1.00  0.00     0.009 A 
BRANCH   8  13
ATOM     13  O   UNL     1      89.005 100.096  67.933  1.00  0.00    -0.493 OA
ATOM     14  C   UNL     1      89.884 100.869  67.094  1.00  0.00     0.278 C 
ENDBRANCH   8  13
BRANCH   9  15
ATOM     15  O   UNL     1      88.291  97.706  69.194  1.00  0.00    -0.504 OA
ATOM     16  H   UNL     1      88.765  96.915  68.925  1.00  0.00     0.293 HD
ENDBRANCH   9  15
ENDBRANCH   6   7
ENDBRANCH   3   6
ENDBRANCH   1   2
BRANCH   1  17
ATOM     17  C   UNL     1      93.762  99.086  74.787  1.00  0.00     0.010 C 
BRANCH  17  18
ATOM     18  C   UNL     1      92.925  97.874  75.283  1.00  0.00     0.005 C 
BRANCH  18  19
ATOM     19  C   UNL     1      93.758  96.899  76.158  1.00  0.00     0.027 C 
BRANCH  19  20
ATOM     20  C   UNL     1      92.933  96.189  77.124  1.00  0.00    -0.031 C 
ATOM     21  C   UNL     1      91.600  96.041  77.016  1.00  0.00    -0.028 C 
BRANCH  21  22
ATOM     22  C   UNL     1      90.793  95.306  77.989  1.00  0.00     0.005 C 
ATOM     23  C   UNL     1      89.434  94.840  77.397  1.00  0.00     0.012 C 
ATOM     24  C   UNL     1      91.594  94.101  78.549  1.00  0.00     0.012 C 
ENDBRANCH  21  22
ENDBRANCH  19  20
ENDBRANCH  18  19
ENDBRANCH  17  18
ENDBRANCH   1  17
TORSDOF 10
ENDMDL
MODEL 3
REMARK VINA RESULT:    -5.917     24.453     26.538
REMARK INTER + INTRA:         -10.064
REMARK INTER:                  -9.477
REMARK INTRA:                  -0.588
REMARK UNBOUND:                -0.861
REMARK SMILES COc1cc(CNC(=O)CCCC/C=C/C(C)C)ccc1O
REMARK SMILES IDX 10 1 8 2 7 3 9 5 6 6 5 7 3 8 21 9 4 10 20 11 19 12 2 13 1 14
REMARK SMILES IDX 22 15 11 17 12 18 13 19 14 20 15 21 16 22 17 23 18 24
REMARK H PARENT 7 4 22 16
REMARK Flexibility Score: inf
ROOT
ATOM      1  C   UNL     1      96.961  82.186  85.052  1.00  0.00     0.100 C 
ENDROOT
BRANCH   1   2
ATOM      2  C   UNL     1      96.192  82.493  86.272  1.00  0.00     0.220 C 
ATOM      3  N   UNL     1      94.871  82.819  86.193  1.00  0.00    -0.352 N 
ATOM      4  H   UNL     1      94.495  82.851  85.255  1.00  0.00     0.163 HD
ATOM      5  O   UNL     1      96.781  82.423  87.378  1.00  0.00    -0.275 OA
BRANCH   3   6
ATOM      6  C   UNL     1      94.032  83.101  87.314  1.00  0.00     0.151 C 
BRANCH   6   7
ATOM      7  C   UNL     1      92.677  82.509  87.145  1.00  0.00    -0.025 A 
ATOM      8  C   UNL     1      91.196  80.848  86.092  1.00  0.00     0.160 A 
ATOM      9  C   UNL     1      90.104  81.354  86.827  1.00  0.00     0.157 A 
ATOM     10  C   UNL     1      92.470  81.431  86.256  1.00  0.00     0.056 A 
ATOM     11  C   UNL     1      90.291  82.441  87.703  1.00  0.00     0.050 A 
ATOM     12  C   UNL     1      91.570  83.009  87.869  1.00  0.00     0.009 A 
BRANCH   8  13
ATOM     13  O   UNL     1      91.006  79.833  85.188  1.00  0.00    -0.493 OA
ATOM     14  C   UNL     1      91.437  78.542  85.657  1.00  0.00     0.278 C 
ENDBRANCH   8  13
BRANCH   9  15
ATOM     15  O   UNL     1      88.867  80.807  86.702  1.00  0.00    -0.504 OA
ATOM     16  H   UNL     1      88.771  80.086  87.328  1.00  0.00     0.293 HD
ENDBRANCH   9  15
ENDBRANCH   6   7
ENDBRANCH   3   6
ENDBRANCH   1   2
BRANCH   1  17
ATOM     17  C   UNL     1      97.640  83.454  84.468  1.00  0.00     0.010 C 
BRANCH  17  18
ATOM     18  C   UNL     1      97.549  83.530  82.918  1.00  0.00     0.005 C 
BRANCH  18  19
ATOM     19  C   UNL     1      98.669  82.712  82.219  1.00  0.00     0.027 C 
BRANCH  19  20
ATOM     20  C   UNL     1      98.853  83.109  80.832  1.00  0.00    -0.031 C 
ATOM     21  C   UNL     1      98.239  82.521  79.789  1.00  0.00    -0.028 C 
BRANCH  21  22
ATOM     22  C   UNL     1      98.424  82.950  78.403  1.00  0.00     0.005 C 
ATOM     23  C   UNL     1      97.556  84.189  78.049  1.00  0.00     0.012 C 
ATOM     24  C   UNL     1      99.924  83.227  78.123  1.00  0.00     0.012 C 
ENDBRANCH  21  22
ENDBRANCH  19  20
ENDBRANCH  18  19
ENDBRANCH  17  18
ENDBRANCH   1  17
TORSDOF 10
ENDMDL
MODEL 4
REMARK VINA RESULT:    -5.903     20.037     23.238
REMARK INTER + INTRA:         -10.043
REMARK INTER:                  -9.381
REMARK INTRA:                  -0.662
REMARK UNBOUND:                -0.861
REMARK SMILES COc1cc(CNC(=O)CCCC/C=C/C(C)C)ccc1O
REMARK SMILES IDX 10 1 8 2 7 3 9 5 6 6 5 7 3 8 21 9 4 10 20 11 19 12 2 13 1 14
REMARK SMILES IDX 22 15 11 17 12 18 13 19 14 20 15 21 16 22 17 23 18 24
REMARK H PARENT 7 4 22 16
REMARK Flexibility Score: inf
ROOT
ATOM      1  C   UNL     1      93.418 100.413  74.850  1.00  0.00     0.100 C 
ENDROOT
BRANCH   1   2
ATOM      2  C   UNL     1      94.186  99.372  75.560  1.00  0.00     0.220 C 
ATOM      3  N   UNL     1      94.140  98.075  75.145  1.00  0.00    -0.352 N 
ATOM      4  H   UNL     1      93.535  97.901  74.354  1.00  0.00     0.163 HD
ATOM      5  O   UNL     1      94.895  99.721  76.535  1.00  0.00    -0.275 OA
BRANCH   3   6
ATOM      6  C   UNL     1      94.868  97.002  75.742  1.00  0.00     0.151 C 
BRANCH   6   7
ATOM      7  C   UNL     1      93.999  96.175  76.623  1.00  0.00    -0.025 A 
ATOM      8  C   UNL     1      93.759  94.561  78.467  1.00  0.00     0.160 A 
ATOM      9  C   UNL     1      92.357  94.606  78.325  1.00  0.00     0.157 A 
ATOM     10  C   UNL     1      94.566  95.342  77.614  1.00  0.00     0.056 A 
ATOM     11  C   UNL     1      91.778  95.416  77.328  1.00  0.00     0.050 A 
ATOM     12  C   UNL     1      92.592  96.203  76.489  1.00  0.00     0.009 A 
BRANCH   8  13
ATOM     13  O   UNL     1      94.330  93.724  79.392  1.00  0.00    -0.493 OA
ATOM     14  C   UNL     1      94.849  94.399  80.552  1.00  0.00     0.278 C 
ENDBRANCH   8  13
BRANCH   9  15
ATOM     15  O   UNL     1      91.550  93.876  79.138  1.00  0.00    -0.504 OA
ATOM     16  H   UNL     1      91.507  94.290  80.002  1.00  0.00     0.293 HD
ENDBRANCH   9  15
ENDBRANCH   6   7
ENDBRANCH   3   6
ENDBRANCH   1   2
BRANCH   1  17
ATOM     17  C   UNL     1      93.264 100.082  73.341  1.00  0.00     0.010 C 
BRANCH  17  18
ATOM     18  C   UNL     1      91.802  99.731  72.944  1.00  0.00     0.005 C 
BRANCH  18  19
ATOM     19  C   UNL     1      91.463 100.168  71.493  1.00  0.00     0.027 C 
BRANCH  19  20
ATOM     20  C   UNL     1      90.686  99.162  70.786  1.00  0.00    -0.031 C 
ATOM     21  C   UNL     1      89.512  99.404  70.175  1.00  0.00    -0.028 C 
BRANCH  21  22
ATOM     22  C   UNL     1      88.757  98.381  69.453  1.00  0.00     0.005 C 
ATOM     23  C   UNL     1      88.182  98.911  68.110  1.00  0.00     0.012 C 
ATOM     24  C   UNL     1      89.641  97.127  69.220  1.00  0.00     0.012 C 
ENDBRANCH  21  22
ENDBRANCH  19  20
ENDBRANCH  18  19
ENDBRANCH  17  18
ENDBRANCH   1  17
TORSDOF 10
ENDMDL
MODEL 5
REMARK VINA RESULT:    -5.863     24.737     26.811
REMARK INTER + INTRA:          -9.980
REMARK INTER:                  -9.290
REMARK INTRA:                  -0.690
REMARK UNBOUND:                -0.861
REMARK SMILES COc1cc(CNC(=O)CCCC/C=C/C(C)C)ccc1O
REMARK SMILES IDX 10 1 8 2 7 3 9 5 6 6 5 7 3 8 21 9 4 10 20 11 19 12 2 13 1 14
REMARK SMILES IDX 22 15 11 17 12 18 13 19 14 20 15 21 16 22 17 23 18 24
REMARK H PARENT 7 4 22 16
REMARK Flexibility Score: inf
ROOT
ATOM      1  C   UNL     1      98.315  80.412  83.891  1.00  0.00     0.100 C 
ENDROOT
BRANCH   1   2
ATOM      2  C   UNL     1      99.209  80.747  82.765  1.00  0.00     0.220 C 
ATOM      3  N   UNL     1      99.198  81.996  82.222  1.00  0.00    -0.352 N 
ATOM      4  H   UNL     1      98.530  82.634  82.632  1.00  0.00     0.163 HD
ATOM      5  O   UNL     1      99.988  79.858  82.344  1.00  0.00    -0.275 OA
BRANCH   3   6
ATOM      6  C   UNL     1     100.043  82.429  81.155  1.00  0.00     0.151 C 
BRANCH   6   7
ATOM      7  C   UNL     1      99.250  82.882  79.979  1.00  0.00    -0.025 A 
ATOM      8  C   UNL     1      99.125  83.447  77.586  1.00  0.00     0.160 A 
ATOM      9  C   UNL     1      97.750  83.726  77.723  1.00  0.00     0.157 A 
ATOM     10  C   UNL     1      99.862  83.030  78.714  1.00  0.00     0.056 A 
ATOM     11  C   UNL     1      97.130  83.602  78.982  1.00  0.00     0.050 A 
ATOM     12  C   UNL     1      97.872  83.174  80.101  1.00  0.00     0.009 A 
BRANCH   8  13
ATOM     13  O   UNL     1      99.747  83.629  76.377  1.00  0.00    -0.493 OA
ATOM     14  C   UNL     1     101.138  83.988  76.481  1.00  0.00     0.278 C 
ENDBRANCH   8  13
BRANCH   9  15
ATOM     15  O   UNL     1      97.009  84.117  76.654  1.00  0.00    -0.504 OA
ATOM     16  H   UNL     1      97.548  84.655  76.070  1.00  0.00     0.293 HD
ENDBRANCH   9  15
ENDBRANCH   6   7
ENDBRANCH   3   6
ENDBRANCH   1   2
BRANCH   1  17
ATOM     17  C   UNL     1      97.644  81.679  84.485  1.00  0.00     0.010 C 
BRANCH  17  18
ATOM     18  C   UNL     1      96.750  81.369  85.718  1.00  0.00     0.005 C 
BRANCH  18  19
ATOM     19  C   UNL     1      96.391  82.646  86.525  1.00  0.00     0.027 C 
BRANCH  19  20
ATOM     20  C   UNL     1      94.953  82.832  86.644  1.00  0.00    -0.031 C 
ATOM     21  C   UNL     1      94.052  81.838  86.555  1.00  0.00    -0.028 C 
BRANCH  21  22
ATOM     22  C   UNL     1      92.611  82.046  86.697  1.00  0.00     0.005 C 
ATOM     23  C   UNL     1      91.785  80.850  86.145  1.00  0.00     0.012 C 
ATOM     24  C   UNL     1      92.253  82.327  88.180  1.00  0.00     0.012 C 
ENDBRANCH  21  22
ENDBRANCH  19  20
ENDBRANCH  18  19
ENDBRANCH  17  18
ENDBRANCH   1  17
TORSDOF 10
ENDMDL
MODEL 6
REMARK VINA RESULT:    -5.797      1.781      2.636
REMARK INTER + INTRA:          -9.878
REMARK INTER:                  -8.967
REMARK INTRA:                  -0.911
REMARK UNBOUND:                -0.861
REMARK SMILES COc1cc(CNC(=O)CCCC/C=C/C(C)C)ccc1O
REMARK SMILES IDX 10 1 8 2 7 3 9 5 6 6 5 7 3 8 21 9 4 10 20 11 19 12 2 13 1 14
REMARK SMILES IDX 22 15 11 17 12 18 13 19 14 20 15 21 16 22 17 23 18 24
REMARK H PARENT 7 4 22 16
REMARK Flexibility Score: inf
ROOT
ATOM      1  C   UNL     1      78.076  84.341  66.192  1.00  0.00     0.100 C 
ENDROOT
BRANCH   1   2
ATOM      2  C   UNL     1      77.505  83.036  65.804  1.00  0.00     0.220 C 
ATOM      3  N   UNL     1      76.729  82.925  64.690  1.00  0.00    -0.352 N 
ATOM      4  H   UNL     1      76.571  83.791  64.192  1.00  0.00     0.163 HD
ATOM      5  O   UNL     1      77.773  82.037  66.515  1.00  0.00    -0.275 OA
BRANCH   3   6
ATOM      6  C   UNL     1      76.157  81.707  64.212  1.00  0.00     0.151 C 
BRANCH   6   7
ATOM      7  C   UNL     1      74.681  81.819  64.059  1.00  0.00    -0.025 A 
ATOM      8  C   UNL     1      72.540  82.826  64.743  1.00  0.00     0.160 A 
ATOM      9  C   UNL     1      71.868  82.060  63.768  1.00  0.00     0.157 A 
ATOM     10  C   UNL     1      73.938  82.697  64.881  1.00  0.00     0.056 A 
ATOM     11  C   UNL     1      72.593  81.167  62.954  1.00  0.00     0.050 A 
ATOM     12  C   UNL     1      73.990  81.053  63.091  1.00  0.00     0.009 A 
BRANCH   8  13
ATOM     13  O   UNL     1      71.831  83.648  65.581  1.00  0.00    -0.493 OA
ATOM     14  C   UNL     1      71.662  83.125  66.911  1.00  0.00     0.278 C 
ENDBRANCH   8  13
BRANCH   9  15
ATOM     15  O   UNL     1      70.525  82.171  63.600  1.00  0.00    -0.504 OA
ATOM     16  H   UNL     1      70.257  83.081  63.747  1.00  0.00     0.293 HD
ENDBRANCH   9  15
ENDBRANCH   6   7
ENDBRANCH   3   6
ENDBRANCH   1   2
BRANCH   1  17
ATOM     17  C   UNL     1      76.984  85.440  66.281  1.00  0.00     0.010 C 
BRANCH  17  18
ATOM     18  C   UNL     1      77.528  86.791  66.826  1.00  0.00     0.005 C 
BRANCH  18  19
ATOM     19  C   UNL     1      78.310  86.619  68.156  1.00  0.00     0.027 C 
BRANCH  19  20
ATOM     20  C   UNL     1      77.493  86.939  69.316  1.00  0.00    -0.031 C 
ATOM     21  C   UNL     1      76.418  87.747  69.284  1.00  0.00    -0.028 C 
BRANCH  21  22
ATOM     22  C   UNL     1      75.599  88.040  70.460  1.00  0.00     0.005 C 
ATOM     23  C   UNL     1      75.348  89.563  70.639  1.00  0.00     0.012 C 
ATOM     24  C   UNL     1      74.259  87.263  70.387  1.00  0.00     0.012 C 
ENDBRANCH  21  22
ENDBRANCH  19  20
ENDBRANCH  18  19
ENDBRANCH  17  18
ENDBRANCH   1  17
TORSDOF 10
ENDMDL
MODEL 7
REMARK VINA RESULT:    -5.794     19.188     22.044
REMARK INTER + INTRA:          -9.872
REMARK INTER:                  -9.142
REMARK INTRA:                  -0.730
REMARK UNBOUND:                -0.861
REMARK SMILES COc1cc(CNC(=O)CCCC/C=C/C(C)C)ccc1O
REMARK SMILES IDX 10 1 8 2 7 3 9 5 6 6 5 7 3 8 21 9 4 10 20 11 19 12 2 13 1 14
REMARK SMILES IDX 22 15 11 17 12 18 13 19 14 20 15 21 16 22 17 23 18 24
REMARK H PARENT 7 4 22 16
REMARK Flexibility Score: inf
ROOT
ATOM      1  C   UNL     1      92.641  99.894  74.791  1.00  0.00     0.100 C 
ENDROOT
BRANCH   1   2
ATOM      2  C   UNL     1      92.834 100.503  73.461  1.00  0.00     0.220 C 
ATOM      3  N   UNL     1      91.931 100.287  72.464  1.00  0.00    -0.352 N 
ATOM      4  H   UNL     1      91.164  99.676  72.708  1.00  0.00     0.163 HD
ATOM      5  O   UNL     1      93.835 101.239  73.286  1.00  0.00    -0.275 OA
BRANCH   3   6
ATOM      6  C   UNL     1      92.009 100.855  71.156  1.00  0.00     0.151 C 
BRANCH   6   7
ATOM      7  C   UNL     1      90.890 100.391  70.291  1.00  0.00    -0.025 A 
ATOM      8  C   UNL     1      89.225  98.676  69.702  1.00  0.00     0.160 A 
ATOM      9  C   UNL     1      88.742  99.500  68.664  1.00  0.00     0.157 A 
ATOM     10  C   UNL     1      90.294  99.127  70.503  1.00  0.00     0.056 A 
ATOM     11  C   UNL     1      89.339 100.754  68.428  1.00  0.00     0.050 A 
ATOM     12  C   UNL     1      90.398 101.201  69.241  1.00  0.00     0.009 A 
BRANCH   8  13
ATOM     13  O   UNL     1      88.691  97.427  69.893  1.00  0.00    -0.493 OA
ATOM     14  C   UNL     1      89.638  96.448  70.359  1.00  0.00     0.278 C 
ENDBRANCH   8  13
BRANCH   9  15
ATOM     15  O   UNL     1      87.705  99.100  67.883  1.00  0.00    -0.504 OA
ATOM     16  H   UNL     1      87.916  99.266  66.961  1.00  0.00     0.293 HD
ENDBRANCH   9  15
ENDBRANCH   6   7
ENDBRANCH   3   6
ENDBRANCH   1   2
BRANCH   1  17
ATOM     17  C   UNL     1      93.993  99.484  75.434  1.00  0.00     0.010 C 
BRANCH  17  18
ATOM     18  C   UNL     1      94.347  97.988  75.198  1.00  0.00     0.005 C 
BRANCH  18  19
ATOM     19  C   UNL     1      94.260  97.147  76.500  1.00  0.00     0.027 C 
BRANCH  19  20
ATOM     20  C   UNL     1      93.311  96.051  76.381  1.00  0.00    -0.031 C 
ATOM     21  C   UNL     1      92.088  96.046  76.944  1.00  0.00    -0.028 C 
BRANCH  21  22
ATOM     22  C   UNL     1      91.142  94.941  76.795  1.00  0.00     0.005 C 
ATOM     23  C   UNL     1      91.714  93.599  77.331  1.00  0.00     0.012 C 
ATOM     24  C   UNL     1      89.800  95.287  77.490  1.00  0.00     0.012 C 
ENDBRANCH  21  22
ENDBRANCH  19  20
ENDBRANCH  18  19
ENDBRANCH  17  18
ENDBRANCH   1  17
TORSDOF 10
ENDMDL
MODEL 8
REMARK VINA RESULT:    -5.721     23.413     26.245
REMARK INTER + INTRA:          -9.759
REMARK INTER:                  -9.157
REMARK INTRA:                  -0.602
REMARK UNBOUND:                -0.861
REMARK SMILES COc1cc(CNC(=O)CCCC/C=C/C(C)C)ccc1O
REMARK SMILES IDX 10 1 8 2 7 3 9 5 6 6 5 7 3 8 21 9 4 10 20 11 19 12 2 13 1 14
REMARK SMILES IDX 22 15 11 17 12 18 13 19 14 20 15 21 16 22 17 23 18 24
REMARK H PARENT 7 4 22 16
REMARK Flexibility Score: inf
ROOT
ATOM      1  C   UNL     1      96.068  84.029  86.904  1.00  0.00     0.100 C 
ENDROOT
BRANCH   1   2
ATOM      2  C   UNL     1      94.695  84.131  87.434  1.00  0.00     0.220 C 
ATOM      3  N   UNL     1      93.776  83.161  87.166  1.00  0.00    -0.352 N 
ATOM      4  H   UNL     1      94.107  82.412  86.574  1.00  0.00     0.163 HD
ATOM      5  O   UNL     1      94.409  85.119  88.153  1.00  0.00    -0.275 OA
BRANCH   3   6
ATOM      6  C   UNL     1      92.435  83.150  87.657  1.00  0.00     0.151 C 
BRANCH   6   7
ATOM      7  C   UNL     1      91.584  82.192  86.899  1.00  0.00    -0.025 A 
ATOM      8  C   UNL     1      89.359  81.469  86.130  1.00  0.00     0.160 A 
ATOM      9  C   UNL     1      89.948  80.387  85.443  1.00  0.00     0.157 A 
ATOM     10  C   UNL     1      90.181  82.359  86.852  1.00  0.00     0.056 A 
ATOM     11  C   UNL     1      91.343  80.197  85.497  1.00  0.00     0.050 A 
ATOM     12  C   UNL     1      92.157  81.097  86.211  1.00  0.00     0.009 A 
BRANCH   8  13
ATOM     13  O   UNL     1      87.996  81.621  86.135  1.00  0.00    -0.493 OA
ATOM     14  C   UNL     1      87.506  82.557  85.158  1.00  0.00     0.278 C 
ENDBRANCH   8  13
BRANCH   9  15
ATOM     15  O   UNL     1      89.186  79.520  84.728  1.00  0.00    -0.504 OA
ATOM     16  H   UNL     1      88.425  79.981  84.370  1.00  0.00     0.293 HD
ENDBRANCH   9  15
ENDBRANCH   6   7
ENDBRANCH   3   6
ENDBRANCH   1   2
BRANCH   1  17
ATOM     17  C   UNL     1      96.413  85.224  85.975  1.00  0.00     0.010 C 
BRANCH  17  18
ATOM     18  C   UNL     1      97.210  84.797  84.711  1.00  0.00     0.005 C 
BRANCH  18  19
ATOM     19  C   UNL     1      97.783  83.359  84.831  1.00  0.00     0.027 C 
BRANCH  19  20
ATOM     20  C   UNL     1      97.811  82.672  83.549  1.00  0.00    -0.031 C 
ATOM     21  C   UNL     1      98.684  82.948  82.562  1.00  0.00    -0.028 C 
BRANCH  21  22
ATOM     22  C   UNL     1      98.707  82.230  81.288  1.00  0.00     0.005 C 
ATOM     23  C   UNL     1      98.461  83.173  80.077  1.00  0.00     0.012 C 
ATOM     24  C   UNL     1     100.045  81.463  81.129  1.00  0.00     0.012 C 
ENDBRANCH  21  22
ENDBRANCH  19  20
ENDBRANCH  18  19
ENDBRANCH  17  18
ENDBRANCH   1  17
TORSDOF 10
ENDMDL
MODEL 9
REMARK VINA RESULT:    -5.623      2.764      5.357
REMARK INTER + INTRA:          -9.607
REMARK INTER:                  -7.485
REMARK INTRA:                  -2.122
REMARK UNBOUND:                -0.861
REMARK SMILES COc1cc(CNC(=O)CCCC/C=C/C(C)C)ccc1O
REMARK SMILES IDX 10 1 8 2 7 3 9 5 6 6 5 7 3 8 21 9 4 10 20 11 19 12 2 13 1 14
REMARK SMILES IDX 22 15 11 17 12 18 13 19 14 20 15 21 16 22 17 23 18 24
REMARK H PARENT 7 4 22 16
REMARK Flexibility Score: inf
ROOT
ATOM      1  C   UNL     1      73.411  90.712  67.669  1.00  0.00     0.100 C 
ENDROOT
BRANCH   1   2
ATOM      2  C   UNL     1      73.652  89.452  66.940  1.00  0.00     0.220 C 
ATOM      3  N   UNL     1      74.741  89.319  66.132  1.00  0.00    -0.352 N 
ATOM      4  H   UNL     1      75.327  90.140  66.067  1.00  0.00     0.163 HD
ATOM      5  O   UNL     1      72.842  88.508  67.105  1.00  0.00    -0.275 OA
BRANCH   3   6
ATOM      6  C   UNL     1      75.081  88.134  65.411  1.00  0.00     0.151 C 
BRANCH   6   7
ATOM      7  C   UNL     1      76.036  87.285  66.173  1.00  0.00    -0.025 A 
ATOM      8  C   UNL     1      76.930  85.059  66.729  1.00  0.00     0.160 A 
ATOM      9  C   UNL     1      77.862  85.651  67.605  1.00  0.00     0.157 A 
ATOM     10  C   UNL     1      76.025  85.880  66.024  1.00  0.00     0.056 A 
ATOM     11  C   UNL     1      77.872  87.049  67.780  1.00  0.00     0.050 A 
ATOM     12  C   UNL     1      76.973  87.862  67.062  1.00  0.00     0.009 A 
BRANCH   8  13
ATOM     13  O   UNL     1      76.872  83.694  66.606  1.00  0.00    -0.493 OA
ATOM     14  C   UNL     1      75.759  83.089  67.289  1.00  0.00     0.278 C 
ENDBRANCH   8  13
BRANCH   9  15
ATOM     15  O   UNL     1      78.756  84.890  68.289  1.00  0.00    -0.504 OA
ATOM     16  H   UNL     1      79.440  85.453  68.659  1.00  0.00     0.293 HD
ENDBRANCH   9  15
ENDBRANCH   6   7
ENDBRANCH   3   6
ENDBRANCH   1   2
BRANCH   1  17
ATOM     17  C   UNL     1      73.548  90.521  69.204  1.00  0.00     0.010 C 
BRANCH  17  18
ATOM     18  C   UNL     1      75.025  90.384  69.667  1.00  0.00     0.005 C 
BRANCH  18  19
ATOM     19  C   UNL     1      75.154  89.633  71.020  1.00  0.00     0.027 C 
BRANCH  19  20
ATOM     20  C   UNL     1      74.628  88.278  70.945  1.00  0.00    -0.031 C 
ATOM     21  C   UNL     1      75.245  87.261  70.316  1.00  0.00    -0.028 C 
BRANCH  21  22
ATOM     22  C   UNL     1      74.707  85.902  70.270  1.00  0.00     0.005 C 
ATOM     23  C   UNL     1      73.951  85.612  68.945  1.00  0.00     0.012 C 
ATOM     24  C   UNL     1      75.842  84.869  70.497  1.00  0.00     0.012 C 
ENDBRANCH  21  22
ENDBRANCH  19  20
ENDBRANCH  18  19
ENDBRANCH  17  18
ENDBRANCH   1  17
TORSDOF 10
ENDMDL
MODEL 10
REMARK VINA RESULT:    -5.612      2.039      3.774
REMARK INTER + INTRA:          -9.590
REMARK INTER:                  -8.794
REMARK INTRA:                  -0.796
REMARK UNBOUND:                -0.861
REMARK SMILES COc1cc(CNC(=O)CCCC/C=C/C(C)C)ccc1O
REMARK SMILES IDX 10 1 8 2 7 3 9 5 6 6 5 7 3 8 21 9 4 10 20 11 19 12 2 13 1 14
REMARK SMILES IDX 22 15 11 17 12 18 13 19 14 20 15 21 16 22 17 23 18 24
REMARK H PARENT 7 4 22 16
REMARK Flexibility Score: inf
ROOT
ATOM      1  C   UNL     1      76.065  88.161  69.963  1.00  0.00     0.100 C 
ENDROOT
BRANCH   1   2
ATOM      2  C   UNL     1      76.802  86.898  69.766  1.00  0.00     0.220 C 
ATOM      3  N   UNL     1      76.187  85.700  69.974  1.00  0.00    -0.352 N 
ATOM      4  H   UNL     1      75.228  85.761  70.286  1.00  0.00     0.163 HD
ATOM      5  O   UNL     1      77.994  86.962  69.382  1.00  0.00    -0.275 OA
BRANCH   3   6
ATOM      6  C   UNL     1      76.801  84.425  69.782  1.00  0.00     0.151 C 
BRANCH   6   7
ATOM      7  C   UNL     1      76.855  84.056  68.341  1.00  0.00    -0.025 A 
ATOM      8  C   UNL     1      75.696  83.497  66.241  1.00  0.00     0.160 A 
ATOM      9  C   UNL     1      76.939  83.372  65.587  1.00  0.00     0.157 A 
ATOM     10  C   UNL     1      75.665  83.836  67.610  1.00  0.00     0.056 A 
ATOM     11  C   UNL     1      78.134  83.570  66.307  1.00  0.00     0.050 A 
ATOM     12  C   UNL     1      78.093  83.919  67.671  1.00  0.00     0.009 A 
BRANCH   8  13
ATOM     13  O   UNL     1      74.533  83.241  65.561  1.00  0.00    -0.493 OA
ATOM     14  C   UNL     1      73.815  82.088  66.039  1.00  0.00     0.278 C 
ENDBRANCH   8  13
BRANCH   9  15
ATOM     15  O   UNL     1      77.004  83.061  64.267  1.00  0.00    -0.504 OA
ATOM     16  H   UNL     1      77.233  82.134  64.167  1.00  0.00     0.293 HD
ENDBRANCH   9  15
ENDBRANCH   6   7
ENDBRANCH   3   6
ENDBRANCH   1   2
BRANCH   1  17
ATOM     17  C   UNL     1      74.823  87.964  70.873  1.00  0.00     0.010 C 
BRANCH  17  18
ATOM     18  C   UNL     1      73.799  89.129  70.760  1.00  0.00     0.005 C 
BRANCH  18  19
ATOM     19  C   UNL     1      73.588  89.863  72.112  1.00  0.00     0.027 C 
BRANCH  19  20
ATOM     20  C   UNL     1      74.299  91.131  72.162  1.00  0.00    -0.031 C 
ATOM     21  C   UNL     1      75.262  91.493  71.296  1.00  0.00    -0.028 C 
BRANCH  21  22
ATOM     22  C   UNL     1      75.950  92.783  71.354  1.00  0.00     0.005 C 
ATOM     23  C   UNL     1      75.021  93.925  71.850  1.00  0.00     0.012 C 
ATOM     24  C   UNL     1      77.216  92.675  72.243  1.00  0.00     0.012 C 
ENDBRANCH  21  22
ENDBRANCH  19  20
ENDBRANCH  18  19
ENDBRANCH  17  18
ENDBRANCH   1  17
TORSDOF 10
ENDMDL
