MODEL 1
REMARK VINA RESULT:    -6.064      0.000      0.000
REMARK INTER + INTRA:         -10.876
REMARK INTER:                  -9.786
REMARK INTRA:                  -1.090
REMARK UNBOUND:                -1.090
REMARK SMILES COc1cc(CNC(=O)CCCCC/C=C/C(C)C)ccc1O
REMARK SMILES IDX 11 1 10 2 8 3 7 4 9 6 6 7 5 8 3 9 22 10 4 11 21 12 20 13
REMARK SMILES IDX 2 14 1 15 23 16 12 18 13 19 14 20 15 21 16 22 17 23 18 24
REMARK SMILES IDX 19 25
REMARK H PARENT 7 5 23 17
REMARK Flexibility Score: inf
ROOT
ATOM      1  C   UNL     1      90.064  98.145  71.256  1.00  0.00     0.010 C 
ENDROOT
BRANCH   1   2
ATOM      2  C   UNL     1      90.444  99.632  71.479  1.00  0.00     0.100 C 
BRANCH   2   3
ATOM      3  C   UNL     1      91.810  99.832  71.996  1.00  0.00     0.220 C 
ATOM      4  N   UNL     1      92.052  99.724  73.332  1.00  0.00    -0.352 N 
ATOM      5  H   UNL     1      91.228  99.579  73.899  1.00  0.00     0.163 HD
ATOM      6  O   UNL     1      92.730 100.059  71.175  1.00  0.00    -0.275 OA
BRANCH   4   7
ATOM      7  C   UNL     1      93.336  99.797  73.951  1.00  0.00     0.151 C 
BRANCH   7   8
ATOM      8  C   UNL     1      93.679  98.562  74.703  1.00  0.00    -0.025 A 
ATOM      9  C   UNL     1      93.106  96.848  76.372  1.00  0.00     0.160 A 
ATOM     10  C   UNL     1      94.363  96.237  76.174  1.00  0.00     0.157 A 
ATOM     11  C   UNL     1      92.777  98.009  75.643  1.00  0.00     0.056 A 
ATOM     12  C   UNL     1      95.261  96.768  75.230  1.00  0.00     0.050 A 
ATOM     13  C   UNL     1      94.917  97.916  74.492  1.00  0.00     0.009 A 
BRANCH   9  14
ATOM     14  O   UNL     1      92.190  96.290  77.224  1.00  0.00    -0.493 OA
ATOM     15  C   UNL     1      91.450  95.196  76.656  1.00  0.00     0.278 C 
ENDBRANCH   9  14
BRANCH  10  16
ATOM     16  O   UNL     1      94.729  95.135  76.876  1.00  0.00    -0.504 OA
ATOM     17  H   UNL     1      95.524  94.760  76.490  1.00  0.00     0.293 HD
ENDBRANCH  10  16
ENDBRANCH   7   8
ENDBRANCH   4   7
ENDBRANCH   2   3
ENDBRANCH   1   2
BRANCH   1  18
ATOM     18  C   UNL     1      90.171  97.760  69.758  1.00  0.00     0.001 C 
BRANCH  18  19
ATOM     19  C   UNL     1      88.823  97.321  69.131  1.00  0.00     0.004 C 
BRANCH  19  20
ATOM     20  C   UNL     1      88.415  98.253  67.956  1.00  0.00     0.027 C 
BRANCH  20  21
ATOM     21  C   UNL     1      88.714  99.655  68.192  1.00  0.00    -0.031 C 
ATOM     22  C   UNL     1      89.507 100.369  67.373  1.00  0.00    -0.028 C 
BRANCH  22  23
ATOM     23  C   UNL     1      89.823 101.780  67.579  1.00  0.00     0.005 C 
ATOM     24  C   UNL     1      88.537 102.572  67.936  1.00  0.00     0.012 C 
ATOM     25  C   UNL     1      90.927 101.931  68.660  1.00  0.00     0.012 C 
ENDBRANCH  22  23
ENDBRANCH  20  21
ENDBRANCH  19  20
ENDBRANCH  18  19
ENDBRANCH   1  18
TORSDOF 11
ENDMDL
MODEL 2
REMARK VINA RESULT:    -5.899      1.605      2.675
REMARK INTER + INTRA:         -10.610
REMARK INTER:                  -9.244
REMARK INTRA:                  -1.366
REMARK UNBOUND:                -1.090
REMARK SMILES COc1cc(CNC(=O)CCCCC/C=C/C(C)C)ccc1O
REMARK SMILES IDX 11 1 10 2 8 3 7 4 9 6 6 7 5 8 3 9 22 10 4 11 21 12 20 13
REMARK SMILES IDX 2 14 1 15 23 16 12 18 13 19 14 20 15 21 16 22 17 23 18 24
REMARK SMILES IDX 19 25
REMARK H PARENT 7 5 23 17
REMARK Flexibility Score: inf
ROOT
ATOM      1  C   UNL     1      89.742  97.559  71.093  1.00  0.00     0.010 C 
ENDROOT
BRANCH   1   2
ATOM      2  C   UNL     1      89.637  99.106  71.131  1.00  0.00     0.100 C 
BRANCH   2   3
ATOM      3  C   UNL     1      90.924  99.790  71.354  1.00  0.00     0.220 C 
ATOM      4  N   UNL     1      91.347 100.041  72.624  1.00  0.00    -0.352 N 
ATOM      5  H   UNL     1      90.684  99.793  73.346  1.00  0.00     0.163 HD
ATOM      6  O   UNL     1      91.622 100.088  70.356  1.00  0.00    -0.275 OA
BRANCH   4   7
ATOM      7  C   UNL     1      92.608 100.605  72.983  1.00  0.00     0.151 C 
BRANCH   7   8
ATOM      8  C   UNL     1      93.427  99.689  73.819  1.00  0.00    -0.025 A 
ATOM      9  C   UNL     1      95.568  98.582  74.305  1.00  0.00     0.160 A 
ATOM     10  C   UNL     1      94.968  97.899  75.387  1.00  0.00     0.157 A 
ATOM     11  C   UNL     1      94.792  99.463  73.526  1.00  0.00     0.056 A 
ATOM     12  C   UNL     1      93.616  98.129  75.698  1.00  0.00     0.050 A 
ATOM     13  C   UNL     1      92.853  99.026  74.927  1.00  0.00     0.009 A 
BRANCH   9  14
ATOM     14  O   UNL     1      96.905  98.432  74.048  1.00  0.00    -0.493 OA
ATOM     15  C   UNL     1      97.641  99.666  74.023  1.00  0.00     0.278 C 
ENDBRANCH   9  14
BRANCH  10  16
ATOM     16  O   UNL     1      95.673  97.022  76.144  1.00  0.00    -0.504 OA
ATOM     17  H   UNL     1      95.303  96.141  76.040  1.00  0.00     0.293 HD
ENDBRANCH  10  16
ENDBRANCH   7   8
ENDBRANCH   4   7
ENDBRANCH   2   3
ENDBRANCH   1   2
BRANCH   1  18
ATOM     18  C   UNL     1      89.587  97.024  69.646  1.00  0.00     0.001 C 
BRANCH  18  19
ATOM     19  C   UNL     1      88.415  97.669  68.865  1.00  0.00     0.004 C 
BRANCH  19  20
ATOM     20  C   UNL     1      88.876  98.182  67.472  1.00  0.00     0.027 C 
BRANCH  20  21
ATOM     21  C   UNL     1      89.394  99.539  67.491  1.00  0.00    -0.031 C 
ATOM     22  C   UNL     1      88.636 100.593  67.842  1.00  0.00    -0.028 C 
BRANCH  22  23
ATOM     23  C   UNL     1      89.128 101.968  67.876  1.00  0.00     0.005 C 
ATOM     24  C   UNL     1      89.217 102.471  69.341  1.00  0.00     0.012 C 
ATOM     25  C   UNL     1      90.488 102.070  67.133  1.00  0.00     0.012 C 
ENDBRANCH  22  23
ENDBRANCH  20  21
ENDBRANCH  19  20
ENDBRANCH  18  19
ENDBRANCH   1  18
TORSDOF 11
ENDMDL
MODEL 3
REMARK VINA RESULT:    -5.834      6.526      8.743
REMARK INTER + INTRA:         -10.505
REMARK INTER:                  -9.305
REMARK INTRA:                  -1.200
REMARK UNBOUND:                -1.090
REMARK SMILES COc1cc(CNC(=O)CCCCC/C=C/C(C)C)ccc1O
REMARK SMILES IDX 11 1 10 2 8 3 7 4 9 6 6 7 5 8 3 9 22 10 4 11 21 12 20 13
REMARK SMILES IDX 2 14 1 15 23 16 12 18 13 19 14 20 15 21 16 22 17 23 18 24
REMARK SMILES IDX 19 25
REMARK H PARENT 7 5 23 17
REMARK Flexibility Score: inf
ROOT
ATOM      1  C   UNL     1      95.957  98.562  76.800  1.00  0.00     0.010 C 
ENDROOT
BRANCH   1   2
ATOM      2  C   UNL     1      96.555  99.695  77.673  1.00  0.00     0.100 C 
BRANCH   2   3
ATOM      3  C   UNL     1      97.316  99.214  78.841  1.00  0.00     0.220 C 
ATOM      4  N   UNL     1      97.513  97.878  79.019  1.00  0.00    -0.352 N 
ATOM      5  H   UNL     1      97.042  97.289  78.346  1.00  0.00     0.163 HD
ATOM      6  O   UNL     1      97.800 100.062  79.627  1.00  0.00    -0.275 OA
BRANCH   4   7
ATOM      7  C   UNL     1      98.307  97.286  80.046  1.00  0.00     0.151 C 
BRANCH   7   8
ATOM      8  C   UNL     1      97.537  96.331  80.885  1.00  0.00    -0.025 A 
ATOM      9  C   UNL     1      95.931  94.479  81.088  1.00  0.00     0.160 A 
ATOM     10  C   UNL     1      96.031  94.548  82.494  1.00  0.00     0.157 A 
ATOM     11  C   UNL     1      96.677  95.376  80.295  1.00  0.00     0.056 A 
ATOM     12  C   UNL     1      96.896  95.483  83.091  1.00  0.00     0.050 A 
ATOM     13  C   UNL     1      97.652  96.361  82.292  1.00  0.00     0.009 A 
BRANCH   9  14
ATOM     14  O   UNL     1      95.159  93.516  80.494  1.00  0.00    -0.493 OA
ATOM     15  C   UNL     1      93.934  94.011  79.929  1.00  0.00     0.278 C 
ENDBRANCH   9  14
BRANCH  10  16
ATOM     16  O   UNL     1      95.309  93.723  83.293  1.00  0.00    -0.504 OA
ATOM     17  H   UNL     1      94.746  93.165  82.751  1.00  0.00     0.293 HD
ENDBRANCH  10  16
ENDBRANCH   7   8
ENDBRANCH   4   7
ENDBRANCH   2   3
ENDBRANCH   1   2
BRANCH   1  18
ATOM     18  C   UNL     1      94.664  99.031  76.085  1.00  0.00     0.001 C 
BRANCH  18  19
ATOM     19  C   UNL     1      93.655  97.888  75.809  1.00  0.00     0.004 C 
BRANCH  19  20
ATOM     20  C   UNL     1      94.305  96.493  76.024  1.00  0.00     0.027 C 
BRANCH  20  21
ATOM     21  C   UNL     1      93.396  95.502  76.574  1.00  0.00    -0.031 C 
ATOM     22  C   UNL     1      92.184  95.829  77.056  1.00  0.00    -0.028 C 
BRANCH  22  23
ATOM     23  C   UNL     1      91.245  94.856  77.610  1.00  0.00     0.005 C 
ATOM     24  C   UNL     1      89.788  95.371  77.463  1.00  0.00     0.012 C 
ATOM     25  C   UNL     1      91.451  93.470  76.942  1.00  0.00     0.012 C 
ENDBRANCH  22  23
ENDBRANCH  20  21
ENDBRANCH  19  20
ENDBRANCH  18  19
ENDBRANCH   1  18
TORSDOF 11
ENDMDL
MODEL 4
REMARK VINA RESULT:    -5.803     16.978     20.961
REMARK INTER + INTRA:         -10.455
REMARK INTER:                  -9.807
REMARK INTRA:                  -0.648
REMARK UNBOUND:                -1.090
REMARK SMILES COc1cc(CNC(=O)CCCCC/C=C/C(C)C)ccc1O
REMARK SMILES IDX 11 1 10 2 8 3 7 4 9 6 6 7 5 8 3 9 22 10 4 11 21 12 20 13
REMARK SMILES IDX 2 14 1 15 23 16 12 18 13 19 14 20 15 21 16 22 17 23 18 24
REMARK SMILES IDX 19 25
REMARK H PARENT 7 5 23 17
REMARK Flexibility Score: inf
ROOT
ATOM      1  C   UNL     1      98.152  83.295  84.367  1.00  0.00     0.010 C 
ENDROOT
BRANCH   1   2
ATOM      2  C   UNL     1      96.929  84.247  84.336  1.00  0.00     0.100 C 
BRANCH   2   3
ATOM      3  C   UNL     1      96.081  84.174  85.540  1.00  0.00     0.220 C 
ATOM      4  N   UNL     1      95.372  83.041  85.803  1.00  0.00    -0.352 N 
ATOM      5  H   UNL     1      95.429  82.333  85.085  1.00  0.00     0.163 HD
ATOM      6  O   UNL     1      96.067  85.157  86.319  1.00  0.00    -0.275 OA
BRANCH   4   7
ATOM      7  C   UNL     1      94.594  82.803  86.975  1.00  0.00     0.151 C 
BRANCH   7   8
ATOM      8  C   UNL     1      93.713  81.613  86.844  1.00  0.00    -0.025 A 
ATOM      9  C   UNL     1      91.490  80.633  86.462  1.00  0.00     0.160 A 
ATOM     10  C   UNL     1      92.028  79.342  86.649  1.00  0.00     0.157 A 
ATOM     11  C   UNL     1      92.333  81.758  86.569  1.00  0.00     0.056 A 
ATOM     12  C   UNL     1      93.402  79.185  86.907  1.00  0.00     0.050 A 
ATOM     13  C   UNL     1      94.241  80.312  86.993  1.00  0.00     0.009 A 
BRANCH   9  14
ATOM     14  O   UNL     1      90.172  80.792  86.124  1.00  0.00    -0.493 OA
ATOM     15  C   UNL     1      89.703  82.148  86.208  1.00  0.00     0.278 C 
ENDBRANCH   9  14
BRANCH  10  16
ATOM     16  O   UNL     1      91.246  78.235  86.583  1.00  0.00    -0.504 OA
ATOM     17  H   UNL     1      90.596  78.260  87.290  1.00  0.00     0.293 HD
ENDBRANCH  10  16
ENDBRANCH   7   8
ENDBRANCH   4   7
ENDBRANCH   2   3
ENDBRANCH   1   2
BRANCH   1  18
ATOM     18  C   UNL     1      98.221  82.430  83.083  1.00  0.00     0.001 C 
BRANCH  18  19
ATOM     19  C   UNL     1      98.149  83.254  81.772  1.00  0.00     0.004 C 
BRANCH  19  20
ATOM     20  C   UNL     1      99.253  82.818  80.768  1.00  0.00     0.027 C 
BRANCH  20  21
ATOM     21  C   UNL     1      98.979  83.206  79.395  1.00  0.00    -0.031 C 
ATOM     22  C   UNL     1      97.783  83.003  78.815  1.00  0.00    -0.028 C 
BRANCH  22  23
ATOM     23  C   UNL     1      97.474  83.386  77.440  1.00  0.00     0.005 C 
ATOM     24  C   UNL     1      97.570  84.927  77.276  1.00  0.00     0.012 C 
ATOM     25  C   UNL     1      98.402  82.630  76.451  1.00  0.00     0.012 C 
ENDBRANCH  22  23
ENDBRANCH  20  21
ENDBRANCH  19  20
ENDBRANCH  18  19
ENDBRANCH   1  18
TORSDOF 11
ENDMDL
MODEL 5
REMARK VINA RESULT:    -5.617      4.425      6.599
REMARK INTER + INTRA:         -10.156
REMARK INTER:                  -7.958
REMARK INTRA:                  -2.197
REMARK UNBOUND:                -1.090
REMARK SMILES COc1cc(CNC(=O)CCCCC/C=C/C(C)C)ccc1O
REMARK SMILES IDX 11 1 10 2 8 3 7 4 9 6 6 7 5 8 3 9 22 10 4 11 21 12 20 13
REMARK SMILES IDX 2 14 1 15 23 16 12 18 13 19 14 20 15 21 16 22 17 23 18 24
REMARK SMILES IDX 19 25
REMARK H PARENT 7 5 23 17
REMARK Flexibility Score: inf
ROOT
ATOM      1  C   UNL     1      88.697  97.327  69.106  1.00  0.00     0.010 C 
ENDROOT
BRANCH   1   2
ATOM      2  C   UNL     1      89.837  97.456  70.149  1.00  0.00     0.100 C 
BRANCH   2   3
ATOM      3  C   UNL     1      89.816  98.720  70.909  1.00  0.00     0.220 C 
ATOM      4  N   UNL     1      90.931  99.500  70.958  1.00  0.00    -0.352 N 
ATOM      5  H   UNL     1      91.745  99.101  70.511  1.00  0.00     0.163 HD
ATOM      6  O   UNL     1      88.745  99.064  71.463  1.00  0.00    -0.275 OA
BRANCH   4   7
ATOM      7  C   UNL     1      91.018 100.785  71.572  1.00  0.00     0.151 C 
BRANCH   7   8
ATOM      8  C   UNL     1      91.483 101.838  70.632  1.00  0.00    -0.025 A 
ATOM      9  C   UNL     1      92.918 102.555  68.769  1.00  0.00     0.160 A 
ATOM     10  C   UNL     1      92.403 103.865  68.878  1.00  0.00     0.157 A 
ATOM     11  C   UNL     1      92.462 101.555  69.651  1.00  0.00     0.056 A 
ATOM     12  C   UNL     1      91.417 104.154  69.838  1.00  0.00     0.050 A 
ATOM     13  C   UNL     1      90.952 103.145  70.702  1.00  0.00     0.009 A 
BRANCH   9  14
ATOM     14  O   UNL     1      93.814 102.243  67.781  1.00  0.00    -0.493 OA
ATOM     15  C   UNL     1      95.162 102.061  68.245  1.00  0.00     0.278 C 
ENDBRANCH   9  14
BRANCH  10  16
ATOM     16  O   UNL     1      92.837 104.863  68.067  1.00  0.00    -0.504 OA
ATOM     17  H   UNL     1      92.518 104.710  67.174  1.00  0.00     0.293 HD
ENDBRANCH  10  16
ENDBRANCH   7   8
ENDBRANCH   4   7
ENDBRANCH   2   3
ENDBRANCH   1   2
BRANCH   1  18
ATOM     18  C   UNL     1      89.040  98.097  67.805  1.00  0.00     0.001 C 
BRANCH  18  19
ATOM     19  C   UNL     1      88.653  99.597  67.848  1.00  0.00     0.004 C 
BRANCH  19  20
ATOM     20  C   UNL     1      89.836 100.500  67.399  1.00  0.00     0.027 C 
BRANCH  20  21
ATOM     21  C   UNL     1      89.521 101.919  67.403  1.00  0.00    -0.031 C 
ATOM     22  C   UNL     1      88.430 102.412  68.015  1.00  0.00    -0.028 C 
BRANCH  22  23
ATOM     23  C   UNL     1      88.088 103.832  68.041  1.00  0.00     0.005 C 
ATOM     24  C   UNL     1      88.963 104.614  67.025  1.00  0.00     0.012 C 
ATOM     25  C   UNL     1      86.569 104.024  67.782  1.00  0.00     0.012 C 
ENDBRANCH  22  23
ENDBRANCH  20  21
ENDBRANCH  19  20
ENDBRANCH  18  19
ENDBRANCH   1  18
TORSDOF 11
ENDMDL
MODEL 6
REMARK VINA RESULT:    -5.612     17.247     20.963
REMARK INTER + INTRA:         -10.147
REMARK INTER:                  -9.584
REMARK INTRA:                  -0.563
REMARK UNBOUND:                -1.090
REMARK SMILES COc1cc(CNC(=O)CCCCC/C=C/C(C)C)ccc1O
REMARK SMILES IDX 11 1 10 2 8 3 7 4 9 6 6 7 5 8 3 9 22 10 4 11 21 12 20 13
REMARK SMILES IDX 2 14 1 15 23 16 12 18 13 19 14 20 15 21 16 22 17 23 18 24
REMARK SMILES IDX 19 25
REMARK H PARENT 7 5 23 17
REMARK Flexibility Score: inf
ROOT
ATOM      1  C   UNL     1      98.133  83.268  84.362  1.00  0.00     0.010 C 
ENDROOT
BRANCH   1   2
ATOM      2  C   UNL     1      96.708  83.779  84.697  1.00  0.00     0.100 C 
BRANCH   2   3
ATOM      3  C   UNL     1      96.241  83.411  86.047  1.00  0.00     0.220 C 
ATOM      4  N   UNL     1      94.984  82.916  86.218  1.00  0.00    -0.352 N 
ATOM      5  H   UNL     1      94.418  82.905  85.380  1.00  0.00     0.163 HD
ATOM      6  O   UNL     1      97.039  83.529  87.006  1.00  0.00    -0.275 OA
BRANCH   4   7
ATOM      7  C   UNL     1      94.442  82.434  87.446  1.00  0.00     0.151 C 
BRANCH   7   8
ATOM      8  C   UNL     1      92.973  82.218  87.378  1.00  0.00    -0.025 A 
ATOM      9  C   UNL     1      90.729  82.480  88.348  1.00  0.00     0.160 A 
ATOM     10  C   UNL     1      90.178  81.755  87.268  1.00  0.00     0.157 A 
ATOM     11  C   UNL     1      92.120  82.698  88.399  1.00  0.00     0.056 A 
ATOM     12  C   UNL     1      91.015  81.288  86.238  1.00  0.00     0.050 A 
ATOM     13  C   UNL     1      92.401  81.527  86.287  1.00  0.00     0.009 A 
BRANCH   9  14
ATOM     14  O   UNL     1      89.913  83.014  89.310  1.00  0.00    -0.493 OA
ATOM     15  C   UNL     1      90.612  83.501  90.468  1.00  0.00     0.278 C 
ENDBRANCH   9  14
BRANCH  10  16
ATOM     16  O   UNL     1      88.848  81.500  87.195  1.00  0.00    -0.504 OA
ATOM     17  H   UNL     1      88.589  80.941  87.932  1.00  0.00     0.293 HD
ENDBRANCH  10  16
ENDBRANCH   7   8
ENDBRANCH   4   7
ENDBRANCH   2   3
ENDBRANCH   1   2
BRANCH   1  18
ATOM     18  C   UNL     1      98.131  82.410  83.071  1.00  0.00     0.001 C 
BRANCH  18  19
ATOM     19  C   UNL     1      98.133  83.247  81.767  1.00  0.00     0.004 C 
BRANCH  19  20
ATOM     20  C   UNL     1      99.134  82.672  80.726  1.00  0.00     0.027 C 
BRANCH  20  21
ATOM     21  C   UNL     1      98.919  83.162  79.375  1.00  0.00    -0.031 C 
ATOM     22  C   UNL     1      97.802  82.883  78.679  1.00  0.00    -0.028 C 
BRANCH  22  23
ATOM     23  C   UNL     1      97.553  83.365  77.323  1.00  0.00     0.005 C 
ATOM     24  C   UNL     1      97.559  84.916  77.293  1.00  0.00     0.012 C 
ATOM     25  C   UNL     1      98.586  82.752  76.337  1.00  0.00     0.012 C 
ENDBRANCH  22  23
ENDBRANCH  20  21
ENDBRANCH  19  20
ENDBRANCH  18  19
ENDBRANCH   1  18
TORSDOF 11
ENDMDL
MODEL 7
REMARK VINA RESULT:    -5.372     15.620     17.793
REMARK INTER + INTRA:          -9.760
REMARK INTER:                  -9.022
REMARK INTRA:                  -0.738
REMARK UNBOUND:                -1.090
REMARK SMILES COc1cc(CNC(=O)CCCCC/C=C/C(C)C)ccc1O
REMARK SMILES IDX 11 1 10 2 8 3 7 4 9 6 6 7 5 8 3 9 22 10 4 11 21 12 20 13
REMARK SMILES IDX 2 14 1 15 23 16 12 18 13 19 14 20 15 21 16 22 17 23 18 24
REMARK SMILES IDX 19 25
REMARK H PARENT 7 5 23 17
REMARK Flexibility Score: inf
ROOT
ATOM      1  C   UNL     1      75.105  92.274  71.913  1.00  0.00     0.010 C 
ENDROOT
BRANCH   1   2
ATOM      2  C   UNL     1      76.499  92.884  71.613  1.00  0.00     0.100 C 
BRANCH   2   3
ATOM      3  C   UNL     1      77.430  92.845  72.756  1.00  0.00     0.220 C 
ATOM      4  N   UNL     1      76.962  93.050  74.019  1.00  0.00    -0.352 N 
ATOM      5  H   UNL     1      75.983  93.295  74.071  1.00  0.00     0.163 HD
ATOM      6  O   UNL     1      78.635  92.580  72.534  1.00  0.00    -0.275 OA
BRANCH   4   7
ATOM      7  C   UNL     1      77.732  92.945  75.216  1.00  0.00     0.151 C 
BRANCH   7   8
ATOM      8  C   UNL     1      77.029  93.506  76.399  1.00  0.00    -0.025 A 
ATOM      9  C   UNL     1      75.122  93.502  77.951  1.00  0.00     0.160 A 
ATOM     10  C   UNL     1      75.668  94.617  78.624  1.00  0.00     0.157 A 
ATOM     11  C   UNL     1      75.800  92.962  76.840  1.00  0.00     0.056 A 
ATOM     12  C   UNL     1      76.898  95.155  78.205  1.00  0.00     0.050 A 
ATOM     13  C   UNL     1      77.579  94.598  77.107  1.00  0.00     0.009 A 
BRANCH   9  14
ATOM     14  O   UNL     1      73.970  92.916  78.405  1.00  0.00    -0.493 OA
ATOM     15  C   UNL     1      74.186  91.788  79.269  1.00  0.00     0.278 C 
ENDBRANCH   9  14
BRANCH  10  16
ATOM     16  O   UNL     1      75.033  95.184  79.680  1.00  0.00    -0.504 OA
ATOM     17  H   UNL     1      74.087  95.030  79.604  1.00  0.00     0.293 HD
ENDBRANCH  10  16
ENDBRANCH   7   8
ENDBRANCH   4   7
ENDBRANCH   2   3
ENDBRANCH   1   2
BRANCH   1  18
ATOM     18  C   UNL     1      74.709  91.228  70.840  1.00  0.00     0.001 C 
BRANCH  18  19
ATOM     19  C   UNL     1      75.683  90.026  70.752  1.00  0.00     0.004 C 
BRANCH  19  20
ATOM     20  C   UNL     1      74.930  88.674  70.901  1.00  0.00     0.027 C 
BRANCH  20  21
ATOM     21  C   UNL     1      75.658  87.538  70.364  1.00  0.00    -0.031 C 
ATOM     22  C   UNL     1      76.837  87.673  69.730  1.00  0.00    -0.028 C 
BRANCH  22  23
ATOM     23  C   UNL     1      77.596  86.551  69.184  1.00  0.00     0.005 C 
ATOM     24  C   UNL     1      76.811  85.226  69.377  1.00  0.00     0.012 C 
ATOM     25  C   UNL     1      77.949  86.815  67.695  1.00  0.00     0.012 C 
ENDBRANCH  22  23
ENDBRANCH  20  21
ENDBRANCH  19  20
ENDBRANCH  18  19
ENDBRANCH   1  18
TORSDOF 11
ENDMDL
MODEL 8
REMARK VINA RESULT:    -5.319      6.150      8.716
REMARK INTER + INTRA:          -9.674
REMARK INTER:                  -8.634
REMARK INTRA:                  -1.041
REMARK UNBOUND:                -1.090
REMARK SMILES COc1cc(CNC(=O)CCCCC/C=C/C(C)C)ccc1O
REMARK SMILES IDX 11 1 10 2 8 3 7 4 9 6 6 7 5 8 3 9 22 10 4 11 21 12 20 13
REMARK SMILES IDX 2 14 1 15 23 16 12 18 13 19 14 20 15 21 16 22 17 23 18 24
REMARK SMILES IDX 19 25
REMARK H PARENT 7 5 23 17
REMARK Flexibility Score: inf
ROOT
ATOM      1  C   UNL     1      95.420  99.331  76.557  1.00  0.00     0.010 C 
ENDROOT
BRANCH   1   2
ATOM      2  C   UNL     1      95.263 100.701  77.266  1.00  0.00     0.100 C 
BRANCH   2   3
ATOM      3  C   UNL     1      95.662 100.692  78.686  1.00  0.00     0.220 C 
ATOM      4  N   UNL     1      96.082  99.533  79.264  1.00  0.00    -0.352 N 
ATOM      5  H   UNL     1      96.017  98.718  78.671  1.00  0.00     0.163 HD
ATOM      6  O   UNL     1      95.642 101.775  79.317  1.00  0.00    -0.275 OA
BRANCH   4   7
ATOM      7  C   UNL     1      96.586  99.404  80.593  1.00  0.00     0.151 C 
BRANCH   7   8
ATOM      8  C   UNL     1      96.287  98.078  81.192  1.00  0.00    -0.025 A 
ATOM      9  C   UNL     1      96.841  96.270  82.765  1.00  0.00     0.160 A 
ATOM     10  C   UNL     1      95.740  95.523  82.293  1.00  0.00     0.157 A 
ATOM     11  C   UNL     1      97.111  97.536  82.205  1.00  0.00     0.056 A 
ATOM     12  C   UNL     1      94.903  96.059  81.297  1.00  0.00     0.050 A 
ATOM     13  C   UNL     1      95.168  97.332  80.758  1.00  0.00     0.009 A 
BRANCH   9  14
ATOM     14  O   UNL     1      97.610  95.795  83.794  1.00  0.00    -0.493 OA
ATOM     15  C   UNL     1      98.346  96.811  84.495  1.00  0.00     0.278 C 
ENDBRANCH   9  14
BRANCH  10  16
ATOM     16  O   UNL     1      95.462  94.289  82.784  1.00  0.00    -0.504 OA
ATOM     17  H   UNL     1      96.199  93.986  83.321  1.00  0.00     0.293 HD
ENDBRANCH  10  16
ENDBRANCH   7   8
ENDBRANCH   4   7
ENDBRANCH   2   3
ENDBRANCH   1   2
BRANCH   1  18
ATOM     18  C   UNL     1      94.590  99.279  75.250  1.00  0.00     0.001 C 
BRANCH  18  19
ATOM     19  C   UNL     1      93.321  98.395  75.351  1.00  0.00     0.004 C 
BRANCH  19  20
ATOM     20  C   UNL     1      93.680  96.928  75.719  1.00  0.00     0.027 C 
BRANCH  20  21
ATOM     21  C   UNL     1      92.980  96.431  76.892  1.00  0.00    -0.031 C 
ATOM     22  C   UNL     1      91.747  95.901  76.821  1.00  0.00    -0.028 C 
BRANCH  22  23
ATOM     23  C   UNL     1      91.019  95.388  77.979  1.00  0.00     0.005 C 
ATOM     24  C   UNL     1      89.607  94.903  77.556  1.00  0.00     0.012 C 
ATOM     25  C   UNL     1      91.841  94.271  78.679  1.00  0.00     0.012 C 
ENDBRANCH  22  23
ENDBRANCH  20  21
ENDBRANCH  19  20
ENDBRANCH  18  19
ENDBRANCH   1  18
TORSDOF 11
ENDMDL
MODEL 9
REMARK VINA RESULT:    -5.302     15.703     18.008
REMARK INTER + INTRA:          -9.647
REMARK INTER:                  -9.019
REMARK INTRA:                  -0.628
REMARK UNBOUND:                -1.090
REMARK SMILES COc1cc(CNC(=O)CCCCC/C=C/C(C)C)ccc1O
REMARK SMILES IDX 11 1 10 2 8 3 7 4 9 6 6 7 5 8 3 9 22 10 4 11 21 12 20 13
REMARK SMILES IDX 2 14 1 15 23 16 12 18 13 19 14 20 15 21 16 22 17 23 18 24
REMARK SMILES IDX 19 25
REMARK H PARENT 7 5 23 17
REMARK Flexibility Score: inf
ROOT
ATOM      1  C   UNL     1      75.156  92.259  71.782  1.00  0.00     0.010 C 
ENDROOT
BRANCH   1   2
ATOM      2  C   UNL     1      76.556  92.875  71.531  1.00  0.00     0.100 C 
BRANCH   2   3
ATOM      3  C   UNL     1      77.444  92.847  72.708  1.00  0.00     0.220 C 
ATOM      4  N   UNL     1      76.922  93.016  73.955  1.00  0.00    -0.352 N 
ATOM      5  H   UNL     1      75.934  93.227  73.973  1.00  0.00     0.163 HD
ATOM      6  O   UNL     1      78.665  92.626  72.528  1.00  0.00    -0.275 OA
BRANCH   4   7
ATOM      7  C   UNL     1      77.649  92.915  75.178  1.00  0.00     0.151 C 
BRANCH   7   8
ATOM      8  C   UNL     1      76.865  93.386  76.349  1.00  0.00    -0.025 A 
ATOM      9  C   UNL     1      76.584  94.911  78.259  1.00  0.00     0.160 A 
ATOM     10  C   UNL     1      75.391  94.245  78.614  1.00  0.00     0.157 A 
ATOM     11  C   UNL     1      77.316  94.472  77.136  1.00  0.00     0.056 A 
ATOM     12  C   UNL     1      74.924  93.175  77.829  1.00  0.00     0.050 A 
ATOM     13  C   UNL     1      75.650  92.756  76.699  1.00  0.00     0.009 A 
BRANCH   9  14
ATOM     14  O   UNL     1      77.001  96.009  78.964  1.00  0.00    -0.493 OA
ATOM     15  C   UNL     1      76.598  97.264  78.391  1.00  0.00     0.278 C 
ENDBRANCH   9  14
BRANCH  10  16
ATOM     16  O   UNL     1      74.673  94.618  79.703  1.00  0.00    -0.504 OA
ATOM     17  H   UNL     1      75.258  95.024  80.348  1.00  0.00     0.293 HD
ENDBRANCH  10  16
ENDBRANCH   7   8
ENDBRANCH   4   7
ENDBRANCH   2   3
ENDBRANCH   1   2
BRANCH   1  18
ATOM     18  C   UNL     1      74.817  91.186  70.715  1.00  0.00     0.001 C 
BRANCH  18  19
ATOM     19  C   UNL     1      75.690  89.909  70.816  1.00  0.00     0.004 C 
BRANCH  19  20
ATOM     20  C   UNL     1      74.897  88.645  70.381  1.00  0.00     0.027 C 
BRANCH  20  21
ATOM     21  C   UNL     1      75.737  87.485  70.135  1.00  0.00    -0.031 C 
ATOM     22  C   UNL     1      75.364  86.241  70.484  1.00  0.00    -0.028 C 
BRANCH  22  23
ATOM     23  C   UNL     1      76.182  85.054  70.246  1.00  0.00     0.005 C 
ATOM     24  C   UNL     1      77.663  85.458  70.022  1.00  0.00     0.012 C 
ATOM     25  C   UNL     1      76.016  84.045  71.415  1.00  0.00     0.012 C 
ENDBRANCH  22  23
ENDBRANCH  20  21
ENDBRANCH  19  20
ENDBRANCH  18  19
ENDBRANCH   1  18
TORSDOF 11
ENDMDL
MODEL 10
REMARK VINA RESULT:    -5.226     17.682     20.483
REMARK INTER + INTRA:          -9.524
REMARK INTER:                  -7.537
REMARK INTRA:                  -1.987
REMARK UNBOUND:                -1.090
REMARK SMILES COc1cc(CNC(=O)CCCCC/C=C/C(C)C)ccc1O
REMARK SMILES IDX 11 1 10 2 8 3 7 4 9 6 6 7 5 8 3 9 22 10 4 11 21 12 20 13
REMARK SMILES IDX 2 14 1 15 23 16 12 18 13 19 14 20 15 21 16 22 17 23 18 24
REMARK SMILES IDX 19 25
REMARK H PARENT 7 5 23 17
REMARK Flexibility Score: inf
ROOT
ATOM      1  C   UNL     1      99.391  82.485  81.338  1.00  0.00     0.010 C 
ENDROOT
BRANCH   1   2
ATOM      2  C   UNL     1      98.100  83.342  81.297  1.00  0.00     0.100 C 
BRANCH   2   3
ATOM      3  C   UNL     1      97.571  83.565  79.939  1.00  0.00     0.220 C 
ATOM      4  N   UNL     1      98.386  83.410  78.860  1.00  0.00    -0.352 N 
ATOM      5  H   UNL     1      99.352  83.215  79.086  1.00  0.00     0.163 HD
ATOM      6  O   UNL     1      96.358  83.857  79.813  1.00  0.00    -0.275 OA
BRANCH   4   7
ATOM      7  C   UNL     1      97.982  83.500  77.495  1.00  0.00     0.151 C 
BRANCH   7   8
ATOM      8  C   UNL     1      99.009  82.976  76.558  1.00  0.00    -0.025 A 
ATOM      9  C   UNL     1     100.938  83.346  75.077  1.00  0.00     0.160 A 
ATOM     10  C   UNL     1     100.933  81.978  74.730  1.00  0.00     0.157 A 
ATOM     11  C   UNL     1      99.972  83.836  75.980  1.00  0.00     0.056 A 
ATOM     12  C   UNL     1      99.991  81.110  75.311  1.00  0.00     0.050 A 
ATOM     13  C   UNL     1      99.042  81.603  76.227  1.00  0.00     0.009 A 
BRANCH   9  14
ATOM     14  O   UNL     1     101.904  84.182  74.584  1.00  0.00    -0.493 OA
ATOM     15  C   UNL     1     102.252  85.263  75.466  1.00  0.00     0.278 C 
ENDBRANCH   9  14
BRANCH  10  16
ATOM     16  O   UNL     1     101.827  81.472  73.843  1.00  0.00    -0.504 OA
ATOM     17  H   UNL     1     101.373  81.239  73.030  1.00  0.00     0.293 HD
ENDBRANCH  10  16
ENDBRANCH   7   8
ENDBRANCH   4   7
ENDBRANCH   2   3
ENDBRANCH   1   2
BRANCH   1  18
ATOM     18  C   UNL     1      99.122  81.097  81.974  1.00  0.00     0.001 C 
BRANCH  18  19
ATOM     19  C   UNL     1      99.754  79.919  81.190  1.00  0.00     0.004 C 
BRANCH  19  20
ATOM     20  C   UNL     1      99.919  80.265  79.683  1.00  0.00     0.027 C 
BRANCH  20  21
ATOM     21  C   UNL     1     101.285  80.142  79.202  1.00  0.00    -0.031 C 
ATOM     22  C   UNL     1     101.999  81.204  78.788  1.00  0.00    -0.028 C 
BRANCH  22  23
ATOM     23  C   UNL     1     103.374  81.115  78.303  1.00  0.00     0.005 C 
ATOM     24  C   UNL     1     103.616  82.153  77.176  1.00  0.00     0.012 C 
ATOM     25  C   UNL     1     104.370  81.281  79.483  1.00  0.00     0.012 C 
ENDBRANCH  22  23
ENDBRANCH  20  21
ENDBRANCH  19  20
ENDBRANCH  18  19
ENDBRANCH   1  18
TORSDOF 11
ENDMDL
