MODEL 1
REMARK VINA RESULT:    -5.871      0.000      0.000
REMARK INTER + INTRA:         -10.644
REMARK INTER:                  -9.647
REMARK INTRA:                  -0.997
REMARK UNBOUND:                -0.997
REMARK SMILES CCCCC[C@H](O)CC(=O)CCc1ccc(O)c(OC)c1
REMARK SMILES IDX 8 1 6 2 7 3 5 5 4 6 3 7 2 8 1 9 9 10 10 11 11 12 12 13 13 14
REMARK SMILES IDX 21 15 14 16 18 17 15 18 16 19 19 20 20 21 17 22
REMARK H PARENT 7 4 17 23
REMARK Flexibility Score: inf
ROOT
ATOM      1  C   UNL     1      76.768  85.017  66.639  1.00  0.00     0.107 C 
ENDROOT
BRANCH   1   2
ATOM      2  C   UNL     1      77.358  86.415  66.436  1.00  0.00     0.121 C 
BRANCH   2   3
ATOM      3  O   UNL     1      76.365  87.286  65.898  1.00  0.00    -0.393 OA
ATOM      4  H   UNL     1      76.264  88.036  66.510  1.00  0.00     0.210 HD
ENDBRANCH   2   3
BRANCH   2   5
ATOM      5  C   UNL     1      77.916  87.024  67.728  1.00  0.00     0.032 C 
BRANCH   5   6
ATOM      6  C   UNL     1      76.808  87.588  68.626  1.00  0.00     0.003 C 
BRANCH   6   7
ATOM      7  C   UNL     1      76.590  86.774  69.905  1.00  0.00    -0.000 C 
BRANCH   7   8
ATOM      8  C   UNL     1      77.617  85.661  70.105  1.00  0.00    -0.003 C 
ATOM      9  C   UNL     1      76.945  84.345  70.464  1.00  0.00     0.004 C 
ENDBRANCH   7   8
ENDBRANCH   6   7
ENDBRANCH   5   6
ENDBRANCH   2   5
ENDBRANCH   1   2
BRANCH   1  10
ATOM     10  C   UNL     1      77.755  83.904  66.328  1.00  0.00     0.135 C 
ATOM     11  O   UNL     1      78.755  83.732  67.025  1.00  0.00    -0.300 OA
BRANCH  10  12
ATOM     12  C   UNL     1      77.416  83.001  65.152  1.00  0.00     0.080 C 
BRANCH  12  13
ATOM     13  C   UNL     1      76.870  81.632  65.565  1.00  0.00     0.043 C 
BRANCH  13  14
ATOM     14  C   UNL     1      75.508  81.338  64.984  1.00  0.00    -0.044 A 
ATOM     15  C   UNL     1      74.368  81.464  65.779  1.00  0.00     0.054 A 
ATOM     16  C   UNL     1      75.389  80.941  63.652  1.00  0.00     0.008 A 
ATOM     17  C   UNL     1      73.110  81.192  65.241  1.00  0.00     0.160 A 
ATOM     18  C   UNL     1      74.131  80.670  63.114  1.00  0.00     0.050 A 
ATOM     19  C   UNL     1      72.992  80.795  63.908  1.00  0.00     0.157 A 
BRANCH  17  20
ATOM     20  O   UNL     1      72.004  81.318  66.027  1.00  0.00    -0.493 OA
ATOM     21  C   UNL     1      71.640  82.638  66.427  1.00  0.00     0.278 C 
ENDBRANCH  17  20
BRANCH  19  22
ATOM     22  O   UNL     1      71.769  80.528  63.372  1.00  0.00    -0.504 OA
ATOM     23  H   UNL     1      71.872  79.876  62.658  1.00  0.00     0.293 HD
ENDBRANCH  19  22
ENDBRANCH  13  14
ENDBRANCH  12  13
ENDBRANCH  10  12
ENDBRANCH   1  10
TORSDOF 12
ENDMDL
MODEL 2
REMARK VINA RESULT:    -5.755      2.129      3.470
REMARK INTER + INTRA:         -10.452
REMARK INTER:                  -9.413
REMARK INTRA:                  -1.039
REMARK UNBOUND:                -0.997
REMARK SMILES CCCCC[C@H](O)CC(=O)CCc1ccc(O)c(OC)c1
REMARK SMILES IDX 8 1 6 2 7 3 5 5 4 6 3 7 2 8 1 9 9 10 10 11 11 12 12 13 13 14
REMARK SMILES IDX 21 15 14 16 18 17 15 18 16 19 19 20 20 21 17 22
REMARK H PARENT 7 4 17 23
REMARK Flexibility Score: inf
ROOT
ATOM      1  C   UNL     1      77.574  85.441  69.957  1.00  0.00     0.107 C 
ENDROOT
BRANCH   1   2
ATOM      2  C   UNL     1      76.277  84.657  70.171  1.00  0.00     0.121 C 
BRANCH   2   3
ATOM      3  O   UNL     1      76.488  83.625  71.132  1.00  0.00    -0.393 OA
ATOM      4  H   UNL     1      77.125  82.994  70.754  1.00  0.00     0.210 HD
ENDBRANCH   2   3
BRANCH   2   5
ATOM      5  C   UNL     1      75.110  85.541  70.629  1.00  0.00     0.032 C 
BRANCH   5   6
ATOM      6  C   UNL     1      75.058  86.869  69.864  1.00  0.00     0.003 C 
BRANCH   6   7
ATOM      7  C   UNL     1      74.905  88.090  70.777  1.00  0.00    -0.000 C 
BRANCH   7   8
ATOM      8  C   UNL     1      75.889  89.215  70.465  1.00  0.00    -0.003 C 
ATOM      9  C   UNL     1      75.296  90.577  70.790  1.00  0.00     0.004 C 
ENDBRANCH   7   8
ENDBRANCH   6   7
ENDBRANCH   5   6
ENDBRANCH   2   5
ENDBRANCH   1   2
BRANCH   1  10
ATOM     10  C   UNL     1      78.036  85.443  68.509  1.00  0.00     0.135 C 
ATOM     11  O   UNL     1      78.165  86.497  67.887  1.00  0.00    -0.300 OA
BRANCH  10  12
ATOM     12  C   UNL     1      78.370  84.090  67.898  1.00  0.00     0.080 C 
BRANCH  12  13
ATOM     13  C   UNL     1      77.954  83.958  66.432  1.00  0.00     0.043 C 
BRANCH  13  14
ATOM     14  C   UNL     1      76.689  83.154  66.246  1.00  0.00    -0.044 A 
ATOM     15  C   UNL     1      75.461  83.685  66.642  1.00  0.00     0.054 A 
ATOM     16  C   UNL     1      76.749  81.881  65.678  1.00  0.00     0.008 A 
ATOM     17  C   UNL     1      74.293  82.942  66.469  1.00  0.00     0.160 A 
ATOM     18  C   UNL     1      75.581  81.139  65.505  1.00  0.00     0.050 A 
ATOM     19  C   UNL     1      74.353  81.669  65.901  1.00  0.00     0.157 A 
BRANCH  17  20
ATOM     20  O   UNL     1      73.099  83.470  66.860  1.00  0.00    -0.493 OA
ATOM     21  C   UNL     1      73.121  84.788  67.403  1.00  0.00     0.278 C 
ENDBRANCH  17  20
BRANCH  19  22
ATOM     22  O   UNL     1      73.219  80.934  65.727  1.00  0.00    -0.504 OA
ATOM     23  H   UNL     1      72.489  81.360  66.208  1.00  0.00     0.293 HD
ENDBRANCH  19  22
ENDBRANCH  13  14
ENDBRANCH  12  13
ENDBRANCH  10  12
ENDBRANCH   1  10
TORSDOF 12
ENDMDL
MODEL 3
REMARK VINA RESULT:    -5.586      2.142      4.032
REMARK INTER + INTRA:         -10.174
REMARK INTER:                  -8.023
REMARK INTRA:                  -2.151
REMARK UNBOUND:                -0.997
REMARK SMILES CCCCC[C@H](O)CC(=O)CCc1ccc(O)c(OC)c1
REMARK SMILES IDX 8 1 6 2 7 3 5 5 4 6 3 7 2 8 1 9 9 10 10 11 11 12 12 13 13 14
REMARK SMILES IDX 21 15 14 16 18 17 15 18 16 19 19 20 20 21 17 22
REMARK H PARENT 7 4 17 23
REMARK Flexibility Score: inf
ROOT
ATOM      1  C   UNL     1      77.066  86.878  69.445  1.00  0.00     0.107 C 
ENDROOT
BRANCH   1   2
ATOM      2  C   UNL     1      78.134  86.978  68.353  1.00  0.00     0.121 C 
BRANCH   2   3
ATOM      3  O   UNL     1      78.702  85.693  68.114  1.00  0.00    -0.393 OA
ATOM      4  H   UNL     1      78.022  85.025  68.310  1.00  0.00     0.210 HD
ENDBRANCH   2   3
BRANCH   2   5
ATOM      5  C   UNL     1      77.592  87.543  67.034  1.00  0.00     0.032 C 
BRANCH   5   6
ATOM      6  C   UNL     1      77.310  86.440  66.007  1.00  0.00     0.003 C 
BRANCH   6   7
ATOM      7  C   UNL     1      76.826  86.978  64.657  1.00  0.00    -0.000 C 
BRANCH   7   8
ATOM      8  C   UNL     1      76.327  85.890  63.708  1.00  0.00    -0.003 C 
ATOM      9  C   UNL     1      77.263  84.692  63.696  1.00  0.00     0.004 C 
ENDBRANCH   7   8
ENDBRANCH   6   7
ENDBRANCH   5   6
ENDBRANCH   2   5
ENDBRANCH   1   2
BRANCH   1  10
ATOM     10  C   UNL     1      76.966  85.490  70.055  1.00  0.00     0.135 C 
ATOM     11  O   UNL     1      77.849  85.058  70.796  1.00  0.00    -0.300 OA
BRANCH  10  12
ATOM     12  C   UNL     1      75.708  84.695  69.738  1.00  0.00     0.080 C 
BRANCH  12  13
ATOM     13  C   UNL     1      75.040  85.100  68.423  1.00  0.00     0.043 C 
BRANCH  13  14
ATOM     14  C   UNL     1      75.130  84.031  67.360  1.00  0.00    -0.044 A 
ATOM     15  C   UNL     1      74.105  83.889  66.425  1.00  0.00     0.054 A 
ATOM     16  C   UNL     1      76.239  83.186  67.314  1.00  0.00     0.008 A 
ATOM     17  C   UNL     1      74.190  82.902  65.443  1.00  0.00     0.160 A 
ATOM     18  C   UNL     1      76.324  82.199  66.332  1.00  0.00     0.050 A 
ATOM     19  C   UNL     1      75.299  82.057  65.397  1.00  0.00     0.157 A 
BRANCH  17  20
ATOM     20  O   UNL     1      73.182  82.772  64.535  1.00  0.00    -0.493 OA
ATOM     21  C   UNL     1      73.277  83.553  63.345  1.00  0.00     0.278 C 
ENDBRANCH  17  20
BRANCH  19  22
ATOM     22  O   UNL     1      75.393  81.089  64.443  1.00  0.00    -0.504 OA
ATOM     23  H   UNL     1      74.854  81.348  63.675  1.00  0.00     0.293 HD
ENDBRANCH  19  22
ENDBRANCH  13  14
ENDBRANCH  12  13
ENDBRANCH  10  12
ENDBRANCH   1  10
TORSDOF 12
ENDMDL
MODEL 4
REMARK VINA RESULT:    -5.546      1.948      6.425
REMARK INTER + INTRA:         -10.108
REMARK INTER:                  -8.665
REMARK INTRA:                  -1.443
REMARK UNBOUND:                -0.997
REMARK SMILES CCCCC[C@H](O)CC(=O)CCc1ccc(O)c(OC)c1
REMARK SMILES IDX 8 1 6 2 7 3 5 5 4 6 3 7 2 8 1 9 9 10 10 11 11 12 12 13 13 14
REMARK SMILES IDX 21 15 14 16 18 17 15 18 16 19 19 20 20 21 17 22
REMARK H PARENT 7 4 17 23
REMARK Flexibility Score: inf
ROOT
ATOM      1  C   UNL     1      73.386  82.194  64.305  1.00  0.00     0.107 C 
ENDROOT
BRANCH   1   2
ATOM      2  C   UNL     1      72.072  81.426  64.468  1.00  0.00     0.121 C 
BRANCH   2   3
ATOM      3  O   UNL     1      72.313  80.195  65.146  1.00  0.00    -0.393 OA
ATOM      4  H   UNL     1      72.224  80.359  66.101  1.00  0.00     0.210 HD
ENDBRANCH   2   3
BRANCH   2   5
ATOM      5  C   UNL     1      71.003  82.220  65.228  1.00  0.00     0.032 C 
BRANCH   5   6
ATOM      6  C   UNL     1      71.268  82.246  66.738  1.00  0.00     0.003 C 
BRANCH   6   7
ATOM      7  C   UNL     1      70.411  83.271  67.487  1.00  0.00    -0.000 C 
BRANCH   7   8
ATOM      8  C   UNL     1      71.224  84.236  68.348  1.00  0.00    -0.003 C 
ATOM      9  C   UNL     1      72.497  84.673  67.640  1.00  0.00     0.004 C 
ENDBRANCH   7   8
ENDBRANCH   6   7
ENDBRANCH   5   6
ENDBRANCH   2   5
ENDBRANCH   1   2
BRANCH   1  10
ATOM     10  C   UNL     1      74.576  81.289  64.031  1.00  0.00     0.135 C 
ATOM     11  O   UNL     1      74.590  80.541  63.053  1.00  0.00    -0.300 OA
BRANCH  10  12
ATOM     12  C   UNL     1      75.748  81.393  64.994  1.00  0.00     0.080 C 
BRANCH  12  13
ATOM     13  C   UNL     1      75.344  81.790  66.415  1.00  0.00     0.043 C 
BRANCH  13  14
ATOM     14  C   UNL     1      76.284  82.793  67.040  1.00  0.00    -0.044 A 
ATOM     15  C   UNL     1      75.926  83.443  68.221  1.00  0.00     0.054 A 
ATOM     16  C   UNL     1      77.510  83.070  66.435  1.00  0.00     0.008 A 
ATOM     17  C   UNL     1      76.796  84.369  68.797  1.00  0.00     0.160 A 
ATOM     18  C   UNL     1      78.380  83.996  67.011  1.00  0.00     0.050 A 
ATOM     19  C   UNL     1      78.022  84.646  68.192  1.00  0.00     0.157 A 
BRANCH  17  20
ATOM     20  O   UNL     1      76.435  84.998  69.951  1.00  0.00    -0.493 OA
ATOM     21  C   UNL     1      76.253  84.180  71.105  1.00  0.00     0.278 C 
ENDBRANCH  17  20
BRANCH  19  22
ATOM     22  O   UNL     1      78.879  85.548  68.746  1.00  0.00    -0.504 OA
ATOM     23  H   UNL     1      78.967  85.360  69.696  1.00  0.00     0.293 HD
ENDBRANCH  19  22
ENDBRANCH  13  14
ENDBRANCH  12  13
ENDBRANCH  10  12
ENDBRANCH   1  10
TORSDOF 12
ENDMDL
MODEL 5
REMARK VINA RESULT:    -5.537     22.808     26.717
REMARK INTER + INTRA:         -10.093
REMARK INTER:                  -9.020
REMARK INTRA:                  -1.073
REMARK UNBOUND:                -0.997
REMARK SMILES CCCCC[C@H](O)CC(=O)CCc1ccc(O)c(OC)c1
REMARK SMILES IDX 8 1 6 2 7 3 5 5 4 6 3 7 2 8 1 9 9 10 10 11 11 12 12 13 13 14
REMARK SMILES IDX 21 15 14 16 18 17 15 18 16 19 19 20 20 21 17 22
REMARK H PARENT 7 4 17 23
REMARK Flexibility Score: inf
ROOT
ATOM      1  C   UNL     1      95.927  95.222  81.706  1.00  0.00     0.107 C 
ENDROOT
BRANCH   1   2
ATOM      2  C   UNL     1      95.028  96.370  82.172  1.00  0.00     0.121 C 
BRANCH   2   3
ATOM      3  O   UNL     1      94.826  96.284  83.581  1.00  0.00    -0.393 OA
ATOM      4  H   UNL     1      95.662  96.527  84.016  1.00  0.00     0.210 HD
ENDBRANCH   2   3
BRANCH   2   5
ATOM      5  C   UNL     1      95.594  97.753  81.826  1.00  0.00     0.032 C 
BRANCH   5   6
ATOM      6  C   UNL     1      95.513  98.722  83.012  1.00  0.00     0.003 C 
BRANCH   6   7
ATOM      7  C   UNL     1      95.567 100.195  82.596  1.00  0.00    -0.000 C 
BRANCH   7   8
ATOM      8  C   UNL     1      94.493 101.057  83.258  1.00  0.00    -0.003 C 
ATOM      9  C   UNL     1      94.204 102.307  82.440  1.00  0.00     0.004 C 
ENDBRANCH   7   8
ENDBRANCH   6   7
ENDBRANCH   5   6
ENDBRANCH   2   5
ENDBRANCH   1   2
BRANCH   1  10
ATOM     10  C   UNL     1      95.203  93.886  81.645  1.00  0.00     0.135 C 
ATOM     11  O   UNL     1      94.863  93.303  82.674  1.00  0.00    -0.300 OA
BRANCH  10  12
ATOM     12  C   UNL     1      94.887  93.344  80.259  1.00  0.00     0.080 C 
BRANCH  12  13
ATOM     13  C   UNL     1      95.663  94.036  79.137  1.00  0.00     0.043 C 
BRANCH  13  14
ATOM     14  C   UNL     1      94.800  94.943  78.293  1.00  0.00    -0.044 A 
ATOM     15  C   UNL     1      93.542  94.513  77.869  1.00  0.00     0.054 A 
ATOM     16  C   UNL     1      95.261  96.211  77.937  1.00  0.00     0.008 A 
ATOM     17  C   UNL     1      92.745  95.353  77.090  1.00  0.00     0.160 A 
ATOM     18  C   UNL     1      94.464  97.050  77.157  1.00  0.00     0.050 A 
ATOM     19  C   UNL     1      93.207  96.620  76.734  1.00  0.00     0.157 A 
BRANCH  17  20
ATOM     20  O   UNL     1      91.519  94.922  76.681  1.00  0.00    -0.493 OA
ATOM     21  C   UNL     1      90.435  95.095  77.592  1.00  0.00     0.278 C 
ENDBRANCH  17  20
BRANCH  19  22
ATOM     22  O   UNL     1      92.438  97.448  75.973  1.00  0.00    -0.504 OA
ATOM     23  H   UNL     1      93.011  98.106  75.543  1.00  0.00     0.293 HD
ENDBRANCH  19  22
ENDBRANCH  13  14
ENDBRANCH  12  13
ENDBRANCH  10  12
ENDBRANCH   1  10
TORSDOF 12
ENDMDL
MODEL 6
REMARK VINA RESULT:    -5.513     25.795     27.715
REMARK INTER + INTRA:         -10.055
REMARK INTER:                  -9.069
REMARK INTRA:                  -0.986
REMARK UNBOUND:                -0.997
REMARK SMILES CCCCC[C@H](O)CC(=O)CCc1ccc(O)c(OC)c1
REMARK SMILES IDX 8 1 6 2 7 3 5 5 4 6 3 7 2 8 1 9 9 10 10 11 11 12 12 13 13 14
REMARK SMILES IDX 21 15 14 16 18 17 15 18 16 19 19 20 20 21 17 22
REMARK H PARENT 7 4 17 23
REMARK Flexibility Score: inf
ROOT
ATOM      1  C   UNL     1      99.730  83.219  78.066  1.00  0.00     0.107 C 
ENDROOT
BRANCH   1   2
ATOM      2  C   UNL     1      99.820  82.219  76.910  1.00  0.00     0.121 C 
BRANCH   2   3
ATOM      3  O   UNL     1      98.563  81.569  76.736  1.00  0.00    -0.393 OA
ATOM      4  H   UNL     1      98.153  81.926  75.929  1.00  0.00     0.210 HD
ENDBRANCH   2   3
BRANCH   2   5
ATOM      5  C   UNL     1     100.240  82.869  75.586  1.00  0.00     0.032 C 
BRANCH   5   6
ATOM      6  C   UNL     1     101.672  83.416  75.642  1.00  0.00     0.003 C 
BRANCH   6   7
ATOM      7  C   UNL     1     101.755  84.923  75.383  1.00  0.00    -0.000 C 
BRANCH   7   8
ATOM      8  C   UNL     1     100.445  85.533  74.889  1.00  0.00    -0.003 C 
ATOM      9  C   UNL     1     100.645  86.301  73.591  1.00  0.00     0.004 C 
ENDBRANCH   7   8
ENDBRANCH   6   7
ENDBRANCH   5   6
ENDBRANCH   2   5
ENDBRANCH   1   2
BRANCH   1  10
ATOM     10  C   UNL     1      98.301  83.592  78.422  1.00  0.00     0.135 C 
ATOM     11  O   UNL     1      97.536  84.050  77.573  1.00  0.00    -0.300 OA
BRANCH  10  12
ATOM     12  C   UNL     1      97.863  83.325  79.854  1.00  0.00     0.080 C 
BRANCH  12  13
ATOM     13  C   UNL     1      98.997  82.855  80.767  1.00  0.00     0.043 C 
BRANCH  13  14
ATOM     14  C   UNL     1      98.526  82.482  82.152  1.00  0.00    -0.044 A 
ATOM     15  C   UNL     1      97.852  83.418  82.936  1.00  0.00     0.054 A 
ATOM     16  C   UNL     1      98.766  81.200  82.648  1.00  0.00     0.008 A 
ATOM     17  C   UNL     1      97.416  83.072  84.215  1.00  0.00     0.160 A 
ATOM     18  C   UNL     1      98.330  80.854  83.927  1.00  0.00     0.050 A 
ATOM     19  C   UNL     1      97.656  81.790  84.711  1.00  0.00     0.157 A 
BRANCH  17  20
ATOM     20  O   UNL     1      96.759  83.995  84.972  1.00  0.00    -0.493 OA
ATOM     21  C   UNL     1      97.400  85.256  85.156  1.00  0.00     0.278 C 
ENDBRANCH  17  20
BRANCH  19  22
ATOM     22  O   UNL     1      97.236  81.440  85.958  1.00  0.00    -0.504 OA
ATOM     23  H   UNL     1      97.915  81.697  86.605  1.00  0.00     0.293 HD
ENDBRANCH  19  22
ENDBRANCH  13  14
ENDBRANCH  12  13
ENDBRANCH  10  12
ENDBRANCH   1  10
TORSDOF 12
ENDMDL
MODEL 7
REMARK VINA RESULT:    -5.451     23.922     28.523
REMARK INTER + INTRA:          -9.953
REMARK INTER:                  -8.936
REMARK INTRA:                  -1.017
REMARK UNBOUND:                -0.997
REMARK SMILES CCCCC[C@H](O)CC(=O)CCc1ccc(O)c(OC)c1
REMARK SMILES IDX 8 1 6 2 7 3 5 5 4 6 3 7 2 8 1 9 9 10 10 11 11 12 12 13 13 14
REMARK SMILES IDX 21 15 14 16 18 17 15 18 16 19 19 20 20 21 17 22
REMARK H PARENT 7 4 17 23
REMARK Flexibility Score: inf
ROOT
ATOM      1  C   UNL     1      95.278  93.738  79.624  1.00  0.00     0.107 C 
ENDROOT
BRANCH   1   2
ATOM      2  C   UNL     1      93.828  94.040  79.238  1.00  0.00     0.121 C 
BRANCH   2   3
ATOM      3  O   UNL     1      92.946  93.541  80.241  1.00  0.00    -0.393 OA
ATOM      4  H   UNL     1      93.488  93.249  80.995  1.00  0.00     0.210 HD
ENDBRANCH   2   3
BRANCH   2   5
ATOM      5  C   UNL     1      93.561  95.536  79.029  1.00  0.00     0.032 C 
BRANCH   5   6
ATOM      6  C   UNL     1      92.258  95.788  78.260  1.00  0.00     0.003 C 
BRANCH   6   7
ATOM      7  C   UNL     1      91.954  94.710  77.214  1.00  0.00    -0.000 C 
BRANCH   7   8
ATOM      8  C   UNL     1      90.612  94.012  77.427  1.00  0.00    -0.003 C 
ATOM      9  C   UNL     1      89.456  94.998  77.351  1.00  0.00     0.004 C 
ENDBRANCH   7   8
ENDBRANCH   6   7
ENDBRANCH   5   6
ENDBRANCH   2   5
ENDBRANCH   1   2
BRANCH   1  10
ATOM     10  C   UNL     1      95.613  94.150  81.048  1.00  0.00     0.135 C 
ATOM     11  O   UNL     1      95.079  93.596  82.009  1.00  0.00    -0.300 OA
BRANCH  10  12
ATOM     12  C   UNL     1      96.663  95.238  81.215  1.00  0.00     0.080 C 
BRANCH  12  13
ATOM     13  C   UNL     1      96.962  95.585  82.674  1.00  0.00     0.043 C 
BRANCH  13  14
ATOM     14  C   UNL     1      96.485  96.964  83.064  1.00  0.00    -0.044 A 
ATOM     15  C   UNL     1      96.714  97.442  84.354  1.00  0.00     0.054 A 
ATOM     16  C   UNL     1      95.816  97.759  82.133  1.00  0.00     0.008 A 
ATOM     17  C   UNL     1      96.274  98.717  84.713  1.00  0.00     0.160 A 
ATOM     18  C   UNL     1      95.375  99.033  82.492  1.00  0.00     0.050 A 
ATOM     19  C   UNL     1      95.604  99.511  83.782  1.00  0.00     0.157 A 
BRANCH  17  20
ATOM     20  O   UNL     1      96.503  99.173  85.976  1.00  0.00    -0.493 OA
ATOM     21  C   UNL     1      96.396  98.226  87.037  1.00  0.00     0.278 C 
ENDBRANCH  17  20
BRANCH  19  22
ATOM     22  O   UNL     1      95.170 100.757  84.121  1.00  0.00    -0.504 OA
ATOM     23  H   UNL     1      95.565 101.407  83.515  1.00  0.00     0.293 HD
ENDBRANCH  19  22
ENDBRANCH  13  14
ENDBRANCH  12  13
ENDBRANCH  10  12
ENDBRANCH   1  10
TORSDOF 12
ENDMDL
MODEL 8
REMARK VINA RESULT:    -5.411     10.222     13.903
REMARK INTER + INTRA:          -9.887
REMARK INTER:                  -7.553
REMARK INTRA:                  -2.333
REMARK UNBOUND:                -0.997
REMARK SMILES CCCCC[C@H](O)CC(=O)CCc1ccc(O)c(OC)c1
REMARK SMILES IDX 8 1 6 2 7 3 5 5 4 6 3 7 2 8 1 9 9 10 10 11 11 12 12 13 13 14
REMARK SMILES IDX 21 15 14 16 18 17 15 18 16 19 19 20 20 21 17 22
REMARK H PARENT 7 4 17 23
REMARK Flexibility Score: inf
ROOT
ATOM      1  C   UNL     1      63.802  82.787  75.230  1.00  0.00     0.107 C 
ENDROOT
BRANCH   1   2
ATOM      2  C   UNL     1      63.966  84.308  75.279  1.00  0.00     0.121 C 
BRANCH   2   3
ATOM      3  O   UNL     1      65.009  84.652  76.187  1.00  0.00    -0.393 OA
ATOM      4  H   UNL     1      64.619  84.722  77.076  1.00  0.00     0.210 HD
ENDBRANCH   2   3
BRANCH   2   5
ATOM      5  C   UNL     1      64.267  84.924  73.907  1.00  0.00     0.032 C 
BRANCH   5   6
ATOM      6  C   UNL     1      63.035  85.604  73.298  1.00  0.00     0.003 C 
BRANCH   6   7
ATOM      7  C   UNL     1      62.728  85.136  71.871  1.00  0.00    -0.000 C 
BRANCH   7   8
ATOM      8  C   UNL     1      61.338  84.522  71.714  1.00  0.00    -0.003 C 
ATOM      9  C   UNL     1      60.842  84.632  70.281  1.00  0.00     0.004 C 
ENDBRANCH   7   8
ENDBRANCH   6   7
ENDBRANCH   5   6
ENDBRANCH   2   5
ENDBRANCH   1   2
BRANCH   1  10
ATOM     10  C   UNL     1      62.493  82.349  74.593  1.00  0.00     0.135 C 
ATOM     11  O   UNL     1      61.415  82.786  74.997  1.00  0.00    -0.300 OA
BRANCH  10  12
ATOM     12  C   UNL     1      62.593  81.391  73.416  1.00  0.00     0.080 C 
BRANCH  12  13
ATOM     13  C   UNL     1      64.025  81.172  72.922  1.00  0.00     0.043 C 
BRANCH  13  14
ATOM     14  C   UNL     1      64.301  81.839  71.596  1.00  0.00    -0.044 A 
ATOM     15  C   UNL     1      65.473  82.574  71.415  1.00  0.00     0.054 A 
ATOM     16  C   UNL     1      63.384  81.721  70.551  1.00  0.00     0.008 A 
ATOM     17  C   UNL     1      65.728  83.189  70.190  1.00  0.00     0.160 A 
ATOM     18  C   UNL     1      63.639  82.336  69.325  1.00  0.00     0.050 A 
ATOM     19  C   UNL     1      64.811  83.071  69.145  1.00  0.00     0.157 A 
BRANCH  17  20
ATOM     20  O   UNL     1      66.876  83.904  70.025  1.00  0.00    -0.493 OA
ATOM     21  C   UNL     1      68.100  83.171  70.008  1.00  0.00     0.278 C 
ENDBRANCH  17  20
BRANCH  19  22
ATOM     22  O   UNL     1      65.049  83.667  67.944  1.00  0.00    -0.504 OA
ATOM     23  H   UNL     1      64.893  84.623  68.028  1.00  0.00     0.293 HD
ENDBRANCH  19  22
ENDBRANCH  13  14
ENDBRANCH  12  13
ENDBRANCH  10  12
ENDBRANCH   1  10
TORSDOF 12
ENDMDL
MODEL 9
REMARK VINA RESULT:    -5.367     24.925     28.244
REMARK INTER + INTRA:          -9.815
REMARK INTER:                  -8.952
REMARK INTRA:                  -0.863
REMARK UNBOUND:                -0.997
REMARK SMILES CCCCC[C@H](O)CC(=O)CCc1ccc(O)c(OC)c1
REMARK SMILES IDX 8 1 6 2 7 3 5 5 4 6 3 7 2 8 1 9 9 10 10 11 11 12 12 13 13 14
REMARK SMILES IDX 21 15 14 16 18 17 15 18 16 19 19 20 20 21 17 22
REMARK H PARENT 7 4 17 23
REMARK Flexibility Score: inf
ROOT
ATOM      1  C   UNL     1      98.733  83.175  78.601  1.00  0.00     0.107 C 
ENDROOT
BRANCH   1   2
ATOM      2  C   UNL     1      97.772  83.692  77.529  1.00  0.00     0.121 C 
BRANCH   2   3
ATOM      3  O   UNL     1      97.752  85.118  77.543  1.00  0.00    -0.393 OA
ATOM      4  H   UNL     1      98.161  85.412  78.376  1.00  0.00     0.210 HD
ENDBRANCH   2   3
BRANCH   2   5
ATOM      5  C   UNL     1      98.128  83.207  76.118  1.00  0.00     0.032 C 
BRANCH   5   6
ATOM      6  C   UNL     1      99.644  83.100  75.912  1.00  0.00     0.003 C 
BRANCH   6   7
ATOM      7  C   UNL     1     100.114  81.679  75.585  1.00  0.00    -0.000 C 
BRANCH   7   8
ATOM      8  C   UNL     1      98.971  80.713  75.277  1.00  0.00    -0.003 C 
ATOM      9  C   UNL     1      98.965  79.536  76.240  1.00  0.00     0.004 C 
ENDBRANCH   7   8
ENDBRANCH   6   7
ENDBRANCH   5   6
ENDBRANCH   2   5
ENDBRANCH   1   2
BRANCH   1  10
ATOM     10  C   UNL     1      98.177  83.301  80.010  1.00  0.00     0.135 C 
ATOM     11  O   UNL     1      96.997  83.593  80.201  1.00  0.00    -0.300 OA
BRANCH  10  12
ATOM     12  C   UNL     1      99.138  83.003  81.152  1.00  0.00     0.080 C 
BRANCH  12  13
ATOM     13  C   UNL     1      98.546  82.098  82.234  1.00  0.00     0.043 C 
BRANCH  13  14
ATOM     14  C   UNL     1      98.290  82.821  83.535  1.00  0.00    -0.044 A 
ATOM     15  C   UNL     1      98.928  82.404  84.703  1.00  0.00     0.054 A 
ATOM     16  C   UNL     1      97.414  83.907  83.568  1.00  0.00     0.008 A 
ATOM     17  C   UNL     1      98.691  83.073  85.904  1.00  0.00     0.160 A 
ATOM     18  C   UNL     1      97.177  84.576  84.769  1.00  0.00     0.050 A 
ATOM     19  C   UNL     1      97.816  84.158  85.937  1.00  0.00     0.157 A 
BRANCH  17  20
ATOM     20  O   UNL     1      99.320  82.656  87.038  1.00  0.00    -0.493 OA
ATOM     21  C   UNL     1     100.624  83.179  87.286  1.00  0.00     0.278 C 
ENDBRANCH  17  20
BRANCH  19  22
ATOM     22  O   UNL     1      97.576  84.819  87.103  1.00  0.00    -0.504 OA
ATOM     23  H   UNL     1      97.970  84.318  87.838  1.00  0.00     0.293 HD
ENDBRANCH  19  22
ENDBRANCH  13  14
ENDBRANCH  12  13
ENDBRANCH  10  12
ENDBRANCH   1  10
TORSDOF 12
ENDMDL
MODEL 10
REMARK VINA RESULT:    -5.310      2.404      6.279
REMARK INTER + INTRA:          -9.722
REMARK INTER:                  -7.852
REMARK INTRA:                  -1.870
REMARK UNBOUND:                -0.997
REMARK SMILES CCCCC[C@H](O)CC(=O)CCc1ccc(O)c(OC)c1
REMARK SMILES IDX 8 1 6 2 7 3 5 5 4 6 3 7 2 8 1 9 9 10 10 11 11 12 12 13 13 14
REMARK SMILES IDX 21 15 14 16 18 17 15 18 16 19 19 20 20 21 17 22
REMARK H PARENT 7 4 17 23
REMARK Flexibility Score: inf
ROOT
ATOM      1  C   UNL     1      74.739  86.496  65.496  1.00  0.00     0.107 C 
ENDROOT
BRANCH   1   2
ATOM      2  C   UNL     1      74.303  85.028  65.477  1.00  0.00     0.121 C 
BRANCH   2   3
ATOM      3  O   UNL     1      74.720  84.415  64.260  1.00  0.00    -0.393 OA
ATOM      4  H   UNL     1      74.142  84.741  63.549  1.00  0.00     0.210 HD
ENDBRANCH   2   3
BRANCH   2   5
ATOM      5  C   UNL     1      74.852  84.224  66.662  1.00  0.00     0.032 C 
BRANCH   5   6
ATOM      6  C   UNL     1      75.770  83.083  66.207  1.00  0.00     0.003 C 
BRANCH   6   7
ATOM      7  C   UNL     1      75.165  81.693  66.430  1.00  0.00    -0.000 C 
BRANCH   7   8
ATOM      8  C   UNL     1      74.873  80.938  65.135  1.00  0.00    -0.003 C 
ATOM      9  C   UNL     1      75.944  81.199  64.087  1.00  0.00     0.004 C 
ENDBRANCH   7   8
ENDBRANCH   6   7
ENDBRANCH   5   6
ENDBRANCH   2   5
ENDBRANCH   1   2
BRANCH   1  10
ATOM     10  C   UNL     1      76.239  86.673  65.329  1.00  0.00     0.135 C 
ATOM     11  O   UNL     1      76.849  86.092  64.432  1.00  0.00    -0.300 OA
BRANCH  10  12
ATOM     12  C   UNL     1      76.923  87.632  66.292  1.00  0.00     0.080 C 
BRANCH  12  13
ATOM     13  C   UNL     1      77.964  86.962  67.190  1.00  0.00     0.043 C 
BRANCH  13  14
ATOM     14  C   UNL     1      77.353  86.234  68.364  1.00  0.00    -0.044 A 
ATOM     15  C   UNL     1      76.314  86.823  69.086  1.00  0.00     0.054 A 
ATOM     16  C   UNL     1      77.827  84.973  68.726  1.00  0.00     0.008 A 
ATOM     17  C   UNL     1      75.750  86.150  70.169  1.00  0.00     0.160 A 
ATOM     18  C   UNL     1      77.262  84.300  69.810  1.00  0.00     0.050 A 
ATOM     19  C   UNL     1      76.224  84.889  70.531  1.00  0.00     0.157 A 
BRANCH  17  20
ATOM     20  O   UNL     1      74.736  86.735  70.867  1.00  0.00    -0.493 OA
ATOM     21  C   UNL     1      73.659  87.282  70.109  1.00  0.00     0.278 C 
ENDBRANCH  17  20
BRANCH  19  22
ATOM     22  O   UNL     1      75.680  84.222  71.587  1.00  0.00    -0.504 OA
ATOM     23  H   UNL     1      75.180  84.851  72.136  1.00  0.00     0.293 HD
ENDBRANCH  19  22
ENDBRANCH  13  14
ENDBRANCH  12  13
ENDBRANCH  10  12
ENDBRANCH   1  10
TORSDOF 12
ENDMDL
