MODEL 1
REMARK VINA RESULT:    -6.063      0.000      0.000
REMARK INTER + INTRA:         -10.019
REMARK INTER:                  -9.430
REMARK INTRA:                  -0.589
REMARK UNBOUND:                -0.589
REMARK SMILES COc1cc(CNC(=O)CCCCCC(C)C)ccc1O
REMARK SMILES IDX 10 1 8 2 7 3 9 5 6 6 5 7 3 8 20 9 4 10 19 11 18 12 2 13 1 14
REMARK SMILES IDX 21 15 11 17 12 18 13 19 14 20 15 21 16 22 17 23
REMARK H PARENT 7 4 21 16
REMARK Flexibility Score: inf
ROOT
ATOM      1  C   UNL     1      93.321  99.298  75.141  1.00  0.00     0.100 C 
ENDROOT
BRANCH   1   2
ATOM      2  C   UNL     1      93.275  99.681  73.714  1.00  0.00     0.220 C 
ATOM      3  N   UNL     1      92.074  99.964  73.135  1.00  0.00    -0.352 N 
ATOM      4  H   UNL     1      91.267  99.759  73.708  1.00  0.00     0.163 HD
ATOM      5  O   UNL     1      94.350  99.778  73.075  1.00  0.00    -0.275 OA
BRANCH   3   6
ATOM      6  C   UNL     1      91.900 100.510  71.827  1.00  0.00     0.151 C 
BRANCH   6   7
ATOM      7  C   UNL     1      90.849  99.812  71.038  1.00  0.00    -0.025 A 
ATOM      8  C   UNL     1      89.500  99.611  68.992  1.00  0.00     0.160 A 
ATOM      9  C   UNL     1      88.895  98.445  69.508  1.00  0.00     0.157 A 
ATOM     10  C   UNL     1      90.459 100.297  69.767  1.00  0.00     0.056 A 
ATOM     11  C   UNL     1      89.256  97.969  70.782  1.00  0.00     0.050 A 
ATOM     12  C   UNL     1      90.229  98.643  71.539  1.00  0.00     0.009 A 
BRANCH   8  13
ATOM     13  O   UNL     1      89.149 100.102  67.762  1.00  0.00    -0.493 OA
ATOM     14  C   UNL     1      88.359 101.305  67.820  1.00  0.00     0.278 C 
ENDBRANCH   8  13
BRANCH   9  15
ATOM     15  O   UNL     1      87.971  97.779  68.771  1.00  0.00    -0.504 OA
ATOM     16  H   UNL     1      88.281  97.697  67.867  1.00  0.00     0.293 HD
ENDBRANCH   9  15
ENDBRANCH   6   7
ENDBRANCH   3   6
ENDBRANCH   1   2
BRANCH   1  17
ATOM     17  C   UNL     1      92.769  97.878  75.439  1.00  0.00     0.010 C 
BRANCH  17  18
ATOM     18  C   UNL     1      93.901  96.900  75.857  1.00  0.00     0.001 C 
BRANCH  18  19
ATOM     19  C   UNL     1      93.377  95.599  76.522  1.00  0.00     0.000 C 
BRANCH  19  20
ATOM     20  C   UNL     1      92.641  95.880  77.864  1.00  0.00     0.003 C 
BRANCH  20  21
ATOM     21  C   UNL     1      92.176  94.606  78.641  1.00  0.00    -0.017 C 
ATOM     22  C   UNL     1      93.323  94.054  79.539  1.00  0.00     0.007 C 
ATOM     23  C   UNL     1      91.647  93.484  77.701  1.00  0.00     0.007 C 
ENDBRANCH  20  21
ENDBRANCH  19  20
ENDBRANCH  18  19
ENDBRANCH  17  18
ENDBRANCH   1  17
TORSDOF 10
ENDMDL
MODEL 2
REMARK VINA RESULT:    -6.004     20.384     22.831
REMARK INTER + INTRA:          -9.926
REMARK INTER:                  -9.314
REMARK INTRA:                  -0.613
REMARK UNBOUND:                -0.589
REMARK SMILES COc1cc(CNC(=O)CCCCCC(C)C)ccc1O
REMARK SMILES IDX 10 1 8 2 7 3 9 5 6 6 5 7 3 8 20 9 4 10 19 11 18 12 2 13 1 14
REMARK SMILES IDX 21 15 11 17 12 18 13 19 14 20 15 21 16 22 17 23
REMARK H PARENT 7 4 21 16
REMARK Flexibility Score: inf
ROOT
ATOM      1  C   UNL     1      77.652  85.268  67.857  1.00  0.00     0.100 C 
ENDROOT
BRANCH   1   2
ATOM      2  C   UNL     1      77.832  84.177  66.877  1.00  0.00     0.220 C 
ATOM      3  N   UNL     1      76.805  83.852  66.041  1.00  0.00    -0.352 N 
ATOM      4  H   UNL     1      75.928  84.309  66.248  1.00  0.00     0.163 HD
ATOM      5  O   UNL     1      78.943  83.598  66.806  1.00  0.00    -0.275 OA
BRANCH   3   6
ATOM      6  C   UNL     1      76.896  82.947  64.941  1.00  0.00     0.151 C 
BRANCH   6   7
ATOM      7  C   UNL     1      75.648  82.167  64.722  1.00  0.00    -0.025 A 
ATOM      8  C   UNL     1      73.352  81.586  65.384  1.00  0.00     0.160 A 
ATOM      9  C   UNL     1      73.248  80.731  64.266  1.00  0.00     0.157 A 
ATOM     10  C   UNL     1      74.557  82.284  65.615  1.00  0.00     0.056 A 
ATOM     11  C   UNL     1      74.337  80.587  63.386  1.00  0.00     0.050 A 
ATOM     12  C   UNL     1      75.525  81.302  63.609  1.00  0.00     0.009 A 
BRANCH   8  13
ATOM     13  O   UNL     1      72.311  81.726  66.263  1.00  0.00    -0.493 OA
ATOM     14  C   UNL     1      71.584  82.961  66.113  1.00  0.00     0.278 C 
ENDBRANCH   8  13
BRANCH   9  15
ATOM     15  O   UNL     1      72.095  80.054  64.036  1.00  0.00    -0.504 OA
ATOM     16  H   UNL     1      71.931  80.014  63.091  1.00  0.00     0.293 HD
ENDBRANCH   9  15
ENDBRANCH   6   7
ENDBRANCH   3   6
ENDBRANCH   1   2
BRANCH   1  17
ATOM     17  C   UNL     1      77.514  84.789  69.327  1.00  0.00     0.010 C 
BRANCH  17  18
ATOM     18  C   UNL     1      76.732  85.815  70.193  1.00  0.00     0.001 C 
BRANCH  18  19
ATOM     19  C   UNL     1      76.693  87.238  69.576  1.00  0.00     0.000 C 
BRANCH  19  20
ATOM     20  C   UNL     1      75.285  87.891  69.691  1.00  0.00     0.003 C 
BRANCH  20  21
ATOM     21  C   UNL     1      75.060  88.754  70.975  1.00  0.00    -0.017 C 
ATOM     22  C   UNL     1      73.571  88.702  71.426  1.00  0.00     0.007 C 
ATOM     23  C   UNL     1      75.512  90.233  70.796  1.00  0.00     0.007 C 
ENDBRANCH  20  21
ENDBRANCH  19  20
ENDBRANCH  18  19
ENDBRANCH  17  18
ENDBRANCH   1  17
TORSDOF 10
ENDMDL
MODEL 3
REMARK VINA RESULT:    -5.920     20.644     23.174
REMARK INTER + INTRA:          -9.797
REMARK INTER:                  -9.131
REMARK INTRA:                  -0.666
REMARK UNBOUND:                -0.589
REMARK SMILES COc1cc(CNC(=O)CCCCCC(C)C)ccc1O
REMARK SMILES IDX 10 1 8 2 7 3 9 5 6 6 5 7 3 8 20 9 4 10 19 11 18 12 2 13 1 14
REMARK SMILES IDX 21 15 11 17 12 18 13 19 14 20 15 21 16 22 17 23
REMARK H PARENT 7 4 21 16
REMARK Flexibility Score: inf
ROOT
ATOM      1  C   UNL     1      77.017  86.170  64.781  1.00  0.00     0.100 C 
ENDROOT
BRANCH   1   2
ATOM      2  C   UNL     1      76.522  84.878  65.299  1.00  0.00     0.220 C 
ATOM      3  N   UNL     1      77.183  83.730  64.977  1.00  0.00    -0.352 N 
ATOM      4  H   UNL     1      77.908  83.838  64.282  1.00  0.00     0.163 HD
ATOM      5  O   UNL     1      75.524  84.869  66.061  1.00  0.00    -0.275 OA
BRANCH   3   6
ATOM      6  C   UNL     1      76.921  82.445  65.542  1.00  0.00     0.151 C 
BRANCH   6   7
ATOM      7  C   UNL     1      75.779  81.745  64.896  1.00  0.00    -0.025 A 
ATOM      8  C   UNL     1      73.467  80.912  64.978  1.00  0.00     0.160 A 
ATOM      9  C   UNL     1      73.581  80.471  63.642  1.00  0.00     0.157 A 
ATOM     10  C   UNL     1      74.572  81.529  65.602  1.00  0.00     0.056 A 
ATOM     11  C   UNL     1      74.785  80.656  62.940  1.00  0.00     0.050 A 
ATOM     12  C   UNL     1      75.874  81.293  63.559  1.00  0.00     0.009 A 
BRANCH   8  13
ATOM     13  O   UNL     1      72.309  80.723  65.686  1.00  0.00    -0.493 OA
ATOM     14  C   UNL     1      71.638  81.947  66.042  1.00  0.00     0.278 C 
ENDBRANCH   8  13
BRANCH   9  15
ATOM     15  O   UNL     1      72.525  79.874  63.034  1.00  0.00    -0.504 OA
ATOM     16  H   UNL     1      72.837  79.141  62.498  1.00  0.00     0.293 HD
ENDBRANCH   9  15
ENDBRANCH   6   7
ENDBRANCH   3   6
ENDBRANCH   1   2
BRANCH   1  17
ATOM     17  C   UNL     1      76.913  87.345  65.791  1.00  0.00     0.010 C 
BRANCH  17  18
ATOM     18  C   UNL     1      77.729  87.064  67.083  1.00  0.00     0.001 C 
BRANCH  18  19
ATOM     19  C   UNL     1      77.059  87.619  68.367  1.00  0.00     0.000 C 
BRANCH  19  20
ATOM     20  C   UNL     1      77.355  86.735  69.614  1.00  0.00     0.003 C 
BRANCH  20  21
ATOM     21  C   UNL     1      76.399  85.512  69.797  1.00  0.00    -0.017 C 
ATOM     22  C   UNL     1      75.054  85.950  70.449  1.00  0.00     0.007 C 
ATOM     23  C   UNL     1      77.042  84.360  70.624  1.00  0.00     0.007 C 
ENDBRANCH  20  21
ENDBRANCH  19  20
ENDBRANCH  18  19
ENDBRANCH  17  18
ENDBRANCH   1  17
TORSDOF 10
ENDMDL
MODEL 4
REMARK VINA RESULT:    -5.810      3.327      8.755
REMARK INTER + INTRA:          -9.626
REMARK INTER:                  -9.012
REMARK INTRA:                  -0.614
REMARK UNBOUND:                -0.589
REMARK SMILES COc1cc(CNC(=O)CCCCCC(C)C)ccc1O
REMARK SMILES IDX 10 1 8 2 7 3 9 5 6 6 5 7 3 8 20 9 4 10 19 11 18 12 2 13 1 14
REMARK SMILES IDX 21 15 11 17 12 18 13 19 14 20 15 21 16 22 17 23
REMARK H PARENT 7 4 21 16
REMARK Flexibility Score: inf
ROOT
ATOM      1  C   UNL     1      92.678 100.580  74.050  1.00  0.00     0.100 C 
ENDROOT
BRANCH   1   2
ATOM      2  C   UNL     1      93.512  99.865  75.038  1.00  0.00     0.220 C 
ATOM      3  N   UNL     1      93.663  98.515  74.936  1.00  0.00    -0.352 N 
ATOM      4  H   UNL     1      93.069  98.072  74.248  1.00  0.00     0.163 HD
ATOM      5  O   UNL     1      94.101 100.526  75.928  1.00  0.00    -0.275 OA
BRANCH   3   6
ATOM      6  C   UNL     1      94.569  97.728  75.709  1.00  0.00     0.151 C 
BRANCH   6   7
ATOM      7  C   UNL     1      93.887  96.703  76.545  1.00  0.00    -0.025 A 
ATOM      8  C   UNL     1      93.997  94.837  78.142  1.00  0.00     0.160 A 
ATOM      9  C   UNL     1      92.587  94.796  78.188  1.00  0.00     0.157 A 
ATOM     10  C   UNL     1      94.638  95.777  77.307  1.00  0.00     0.056 A 
ATOM     11  C   UNL     1      91.831  95.695  77.414  1.00  0.00     0.050 A 
ATOM     12  C   UNL     1      92.475  96.645  76.603  1.00  0.00     0.009 A 
BRANCH   8  13
ATOM     13  O   UNL     1      94.752  93.957  78.873  1.00  0.00    -0.493 OA
ATOM     14  C   UNL     1      95.712  94.594  79.739  1.00  0.00     0.278 C 
ENDBRANCH   8  13
BRANCH   9  15
ATOM     15  O   UNL     1      91.962  93.895  78.986  1.00  0.00    -0.504 OA
ATOM     16  H   UNL     1      92.611  93.447  79.534  1.00  0.00     0.293 HD
ENDBRANCH   9  15
ENDBRANCH   6   7
ENDBRANCH   3   6
ENDBRANCH   1   2
BRANCH   1  17
ATOM     17  C   UNL     1      92.049  99.665  72.964  1.00  0.00     0.010 C 
BRANCH  17  18
ATOM     18  C   UNL     1      91.109 100.461  72.018  1.00  0.00     0.001 C 
BRANCH  18  19
ATOM     19  C   UNL     1      90.695  99.668  70.750  1.00  0.00     0.000 C 
BRANCH  19  20
ATOM     20  C   UNL     1      89.206  99.218  70.799  1.00  0.00     0.003 C 
BRANCH  20  21
ATOM     21  C   UNL     1      88.803  98.155  69.726  1.00  0.00    -0.017 C 
ATOM     22  C   UNL     1      89.937  97.106  69.529  1.00  0.00     0.007 C 
ATOM     23  C   UNL     1      88.421  98.791  68.358  1.00  0.00     0.007 C 
ENDBRANCH  20  21
ENDBRANCH  19  20
ENDBRANCH  18  19
ENDBRANCH  17  18
ENDBRANCH   1  17
TORSDOF 10
ENDMDL
MODEL 5
REMARK VINA RESULT:    -5.793     19.548     21.945
REMARK INTER + INTRA:          -9.599
REMARK INTER:                  -8.213
REMARK INTRA:                  -1.386
REMARK UNBOUND:                -0.589
REMARK SMILES COc1cc(CNC(=O)CCCCCC(C)C)ccc1O
REMARK SMILES IDX 10 1 8 2 7 3 9 5 6 6 5 7 3 8 20 9 4 10 19 11 18 12 2 13 1 14
REMARK SMILES IDX 21 15 11 17 12 18 13 19 14 20 15 21 16 22 17 23
REMARK H PARENT 7 4 21 16
REMARK Flexibility Score: inf
ROOT
ATOM      1  C   UNL     1      75.838  88.729  67.263  1.00  0.00     0.100 C 
ENDROOT
BRANCH   1   2
ATOM      2  C   UNL     1      76.685  87.546  67.006  1.00  0.00     0.220 C 
ATOM      3  N   UNL     1      76.106  86.385  66.590  1.00  0.00    -0.352 N 
ATOM      4  H   UNL     1      75.096  86.382  66.614  1.00  0.00     0.163 HD
ATOM      5  O   UNL     1      77.930  87.649  67.136  1.00  0.00    -0.275 OA
BRANCH   3   6
ATOM      6  C   UNL     1      76.812  85.228  66.142  1.00  0.00     0.151 C 
BRANCH   6   7
ATOM      7  C   UNL     1      75.957  84.013  66.067  1.00  0.00    -0.025 A 
ATOM      8  C   UNL     1      73.745  82.978  65.778  1.00  0.00     0.160 A 
ATOM      9  C   UNL     1      74.336  81.699  65.856  1.00  0.00     0.157 A 
ATOM     10  C   UNL     1      74.556  84.126  65.902  1.00  0.00     0.056 A 
ATOM     11  C   UNL     1      75.725  81.575  66.046  1.00  0.00     0.050 A 
ATOM     12  C   UNL     1      76.530  82.723  66.145  1.00  0.00     0.009 A 
BRANCH   8  13
ATOM     13  O   UNL     1      72.392  83.120  65.613  1.00  0.00    -0.493 OA
ATOM     14  C   UNL     1      71.681  83.380  66.838  1.00  0.00     0.278 C 
ENDBRANCH   8  13
BRANCH   9  15
ATOM     15  O   UNL     1      73.565  80.589  65.740  1.00  0.00    -0.504 OA
ATOM     16  H   UNL     1      73.097  80.437  66.563  1.00  0.00     0.293 HD
ENDBRANCH   9  15
ENDBRANCH   6   7
ENDBRANCH   3   6
ENDBRANCH   1   2
BRANCH   1  17
ATOM     17  C   UNL     1      74.980  88.631  68.553  1.00  0.00     0.010 C 
BRANCH  17  18
ATOM     18  C   UNL     1      75.818  88.134  69.763  1.00  0.00     0.001 C 
BRANCH  18  19
ATOM     19  C   UNL     1      75.132  86.995  70.562  1.00  0.00     0.000 C 
BRANCH  19  20
ATOM     20  C   UNL     1      75.022  85.681  69.735  1.00  0.00     0.003 C 
BRANCH  20  21
ATOM     21  C   UNL     1      76.096  84.596  70.072  1.00  0.00    -0.017 C 
ATOM     22  C   UNL     1      75.961  84.122  71.550  1.00  0.00     0.007 C 
ATOM     23  C   UNL     1      77.550  85.079  69.797  1.00  0.00     0.007 C 
ENDBRANCH  20  21
ENDBRANCH  19  20
ENDBRANCH  18  19
ENDBRANCH  17  18
ENDBRANCH   1  17
TORSDOF 10
ENDMDL
MODEL 6
REMARK VINA RESULT:    -5.790     17.171     19.456
REMARK INTER + INTRA:          -9.593
REMARK INTER:                  -8.564
REMARK INTRA:                  -1.029
REMARK UNBOUND:                -0.589
REMARK SMILES COc1cc(CNC(=O)CCCCCC(C)C)ccc1O
REMARK SMILES IDX 10 1 8 2 7 3 9 5 6 6 5 7 3 8 20 9 4 10 19 11 18 12 2 13 1 14
REMARK SMILES IDX 21 15 11 17 12 18 13 19 14 20 15 21 16 22 17 23
REMARK H PARENT 7 4 21 16
REMARK Flexibility Score: inf
ROOT
ATOM      1  C   UNL     1      98.739  82.005  84.508  1.00  0.00     0.100 C 
ENDROOT
BRANCH   1   2
ATOM      2  C   UNL     1      99.161  81.713  83.123  1.00  0.00     0.220 C 
ATOM      3  N   UNL     1      99.687  82.711  82.358  1.00  0.00    -0.352 N 
ATOM      4  H   UNL     1      99.628  83.634  82.764  1.00  0.00     0.163 HD
ATOM      5  O   UNL     1      99.064  80.538  82.692  1.00  0.00    -0.275 OA
BRANCH   3   6
ATOM      6  C   UNL     1     100.289  82.533  81.076  1.00  0.00     0.151 C 
BRANCH   6   7
ATOM      7  C   UNL     1      99.401  82.933  79.952  1.00  0.00    -0.025 A 
ATOM      8  C   UNL     1      99.042  83.317  77.549  1.00  0.00     0.160 A 
ATOM      9  C   UNL     1      97.690  83.631  77.804  1.00  0.00     0.157 A 
ATOM     10  C   UNL     1      99.893  82.989  78.626  1.00  0.00     0.056 A 
ATOM     11  C   UNL     1      97.196  83.605  79.121  1.00  0.00     0.050 A 
ATOM     12  C   UNL     1      98.043  83.254  80.186  1.00  0.00     0.009 A 
BRANCH   8  13
ATOM     13  O   UNL     1      99.547  83.356  76.276  1.00  0.00    -0.493 OA
ATOM     14  C   UNL     1      99.978  82.073  75.782  1.00  0.00     0.278 C 
ENDBRANCH   8  13
BRANCH   9  15
ATOM     15  O   UNL     1      96.864  83.950  76.776  1.00  0.00    -0.504 OA
ATOM     16  H   UNL     1      96.022  83.504  76.891  1.00  0.00     0.293 HD
ENDBRANCH   9  15
ENDBRANCH   6   7
ENDBRANCH   3   6
ENDBRANCH   1   2
BRANCH   1  17
ATOM     17  C   UNL     1      97.864  83.279  84.654  1.00  0.00     0.010 C 
BRANCH  17  18
ATOM     18  C   UNL     1      96.567  82.994  85.460  1.00  0.00     0.001 C 
BRANCH  18  19
ATOM     19  C   UNL     1      96.736  83.192  86.989  1.00  0.00     0.000 C 
BRANCH  19  20
ATOM     20  C   UNL     1      97.831  84.244  87.329  1.00  0.00     0.003 C 
BRANCH  20  21
ATOM     21  C   UNL     1      99.032  83.699  88.170  1.00  0.00    -0.017 C 
ATOM     22  C   UNL     1     100.388  84.188  87.581  1.00  0.00     0.007 C 
ATOM     23  C   UNL     1      99.030  82.148  88.291  1.00  0.00     0.007 C 
ENDBRANCH  20  21
ENDBRANCH  19  20
ENDBRANCH  18  19
ENDBRANCH  17  18
ENDBRANCH   1  17
TORSDOF 10
ENDMDL
MODEL 7
REMARK VINA RESULT:    -5.749     17.665     20.568
REMARK INTER + INTRA:          -9.531
REMARK INTER:                  -8.648
REMARK INTRA:                  -0.883
REMARK UNBOUND:                -0.589
REMARK SMILES COc1cc(CNC(=O)CCCCCC(C)C)ccc1O
REMARK SMILES IDX 10 1 8 2 7 3 9 5 6 6 5 7 3 8 20 9 4 10 19 11 18 12 2 13 1 14
REMARK SMILES IDX 21 15 11 17 12 18 13 19 14 20 15 21 16 22 17 23
REMARK H PARENT 7 4 21 16
REMARK Flexibility Score: inf
ROOT
ATOM      1  C   UNL     1      98.573  82.090  79.522  1.00  0.00     0.100 C 
ENDROOT
BRANCH   1   2
ATOM      2  C   UNL     1      99.265  82.005  80.825  1.00  0.00     0.220 C 
ATOM      3  N   UNL     1      98.545  82.129  81.975  1.00  0.00    -0.352 N 
ATOM      4  H   UNL     1      97.582  82.407  81.846  1.00  0.00     0.163 HD
ATOM      5  O   UNL     1     100.500  81.778  80.845  1.00  0.00    -0.275 OA
BRANCH   3   6
ATOM      6  C   UNL     1      99.050  81.897  83.290  1.00  0.00     0.151 C 
BRANCH   6   7
ATOM      7  C   UNL     1      98.502  82.841  84.301  1.00  0.00    -0.025 A 
ATOM      8  C   UNL     1      98.590  83.854  86.540  1.00  0.00     0.160 A 
ATOM      9  C   UNL     1      97.502  84.687  86.203  1.00  0.00     0.157 A 
ATOM     10  C   UNL     1      99.071  82.924  85.594  1.00  0.00     0.056 A 
ATOM     11  C   UNL     1      96.912  84.595  84.929  1.00  0.00     0.050 A 
ATOM     12  C   UNL     1      97.411  83.684  83.984  1.00  0.00     0.009 A 
BRANCH   8  13
ATOM     13  O   UNL     1      99.165  83.915  87.782  1.00  0.00    -0.493 OA
ATOM     14  C   UNL     1     100.555  84.293  87.761  1.00  0.00     0.278 C 
ENDBRANCH   8  13
BRANCH   9  15
ATOM     15  O   UNL     1      97.030  85.583  87.106  1.00  0.00    -0.504 OA
ATOM     16  H   UNL     1      97.320  86.466  86.863  1.00  0.00     0.293 HD
ENDBRANCH   9  15
ENDBRANCH   6   7
ENDBRANCH   3   6
ENDBRANCH   1   2
BRANCH   1  17
ATOM     17  C   UNL     1      98.578  83.507  78.887  1.00  0.00     0.010 C 
BRANCH  17  18
ATOM     18  C   UNL     1      97.435  83.672  77.847  1.00  0.00     0.001 C 
BRANCH  18  19
ATOM     19  C   UNL     1      97.888  83.407  76.387  1.00  0.00     0.000 C 
BRANCH  19  20
ATOM     20  C   UNL     1      99.083  84.313  75.968  1.00  0.00     0.003 C 
BRANCH  20  21
ATOM     21  C   UNL     1     100.414  83.552  75.664  1.00  0.00    -0.017 C 
ATOM     22  C   UNL     1     100.176  82.014  75.619  1.00  0.00     0.007 C 
ATOM     23  C   UNL     1     101.547  83.887  76.677  1.00  0.00     0.007 C 
ENDBRANCH  20  21
ENDBRANCH  19  20
ENDBRANCH  18  19
ENDBRANCH  17  18
ENDBRANCH   1  17
TORSDOF 10
ENDMDL
MODEL 8
REMARK VINA RESULT:    -5.686     17.102     19.221
REMARK INTER + INTRA:          -9.433
REMARK INTER:                  -8.850
REMARK INTRA:                  -0.583
REMARK UNBOUND:                -0.589
REMARK SMILES COc1cc(CNC(=O)CCCCCC(C)C)ccc1O
REMARK SMILES IDX 10 1 8 2 7 3 9 5 6 6 5 7 3 8 20 9 4 10 19 11 18 12 2 13 1 14
REMARK SMILES IDX 21 15 11 17 12 18 13 19 14 20 15 21 16 22 17 23
REMARK H PARENT 7 4 21 16
REMARK Flexibility Score: inf
ROOT
ATOM      1  C   UNL     1      98.502  82.816  84.884  1.00  0.00     0.100 C 
ENDROOT
BRANCH   1   2
ATOM      2  C   UNL     1      99.305  82.377  83.724  1.00  0.00     0.220 C 
ATOM      3  N   UNL     1      99.023  82.875  82.487  1.00  0.00    -0.352 N 
ATOM      4  H   UNL     1      98.177  83.425  82.433  1.00  0.00     0.163 HD
ATOM      5  O   UNL     1     100.260  81.583  83.910  1.00  0.00    -0.275 OA
BRANCH   3   6
ATOM      6  C   UNL     1      99.819  82.673  81.319  1.00  0.00     0.151 C 
BRANCH   6   7
ATOM      7  C   UNL     1      99.111  83.034  80.061  1.00  0.00    -0.025 A 
ATOM      8  C   UNL     1      99.121  83.334  77.620  1.00  0.00     0.160 A 
ATOM      9  C   UNL     1      97.748  83.655  77.656  1.00  0.00     0.157 A 
ATOM     10  C   UNL     1      99.798  83.043  78.824  1.00  0.00     0.056 A 
ATOM     11  C   UNL     1      97.061  83.675  78.884  1.00  0.00     0.050 A 
ATOM     12  C   UNL     1      97.735  83.361  80.076  1.00  0.00     0.009 A 
BRANCH   8  13
ATOM     13  O   UNL     1      99.813  83.329  76.437  1.00  0.00    -0.493 OA
ATOM     14  C   UNL     1     101.061  82.612  76.496  1.00  0.00     0.278 C 
ENDBRANCH   8  13
BRANCH   9  15
ATOM     15  O   UNL     1      97.088  83.938  76.505  1.00  0.00    -0.504 OA
ATOM     16  H   UNL     1      96.797  83.121  76.094  1.00  0.00     0.293 HD
ENDBRANCH   9  15
ENDBRANCH   6   7
ENDBRANCH   3   6
ENDBRANCH   1   2
BRANCH   1  17
ATOM     17  C   UNL     1      97.320  83.756  84.523  1.00  0.00     0.010 C 
BRANCH  17  18
ATOM     18  C   UNL     1      96.849  84.582  85.752  1.00  0.00     0.001 C 
BRANCH  18  19
ATOM     19  C   UNL     1      96.093  83.735  86.810  1.00  0.00     0.000 C 
BRANCH  19  20
ATOM     20  C   UNL     1      95.158  82.676  86.156  1.00  0.00     0.003 C 
BRANCH  20  21
ATOM     21  C   UNL     1      94.174  81.966  87.142  1.00  0.00    -0.017 C 
ATOM     22  C   UNL     1      94.841  80.717  87.790  1.00  0.00     0.007 C 
ATOM     23  C   UNL     1      92.829  81.564  86.469  1.00  0.00     0.007 C 
ENDBRANCH  20  21
ENDBRANCH  19  20
ENDBRANCH  18  19
ENDBRANCH  17  18
ENDBRANCH   1  17
TORSDOF 10
ENDMDL
MODEL 9
REMARK VINA RESULT:    -5.669     18.124     21.074
REMARK INTER + INTRA:          -9.406
REMARK INTER:                  -8.825
REMARK INTRA:                  -0.582
REMARK UNBOUND:                -0.589
REMARK SMILES COc1cc(CNC(=O)CCCCCC(C)C)ccc1O
REMARK SMILES IDX 10 1 8 2 7 3 9 5 6 6 5 7 3 8 20 9 4 10 19 11 18 12 2 13 1 14
REMARK SMILES IDX 21 15 11 17 12 18 13 19 14 20 15 21 16 22 17 23
REMARK H PARENT 7 4 21 16
REMARK Flexibility Score: inf
ROOT
ATOM      1  C   UNL     1      97.204  84.393  84.646  1.00  0.00     0.100 C 
ENDROOT
BRANCH   1   2
ATOM      2  C   UNL     1      96.227  84.821  85.669  1.00  0.00     0.220 C 
ATOM      3  N   UNL     1      95.362  83.907  86.192  1.00  0.00    -0.352 N 
ATOM      4  H   UNL     1      95.366  83.007  85.734  1.00  0.00     0.163 HD
ATOM      5  O   UNL     1      96.244  86.011  86.066  1.00  0.00    -0.275 OA
BRANCH   3   6
ATOM      6  C   UNL     1      94.492  84.140  87.301  1.00  0.00     0.151 C 
BRANCH   6   7
ATOM      7  C   UNL     1      93.334  83.207  87.341  1.00  0.00    -0.025 A 
ATOM      8  C   UNL     1      91.085  82.633  88.152  1.00  0.00     0.160 A 
ATOM      9  C   UNL     1      91.102  81.463  87.365  1.00  0.00     0.157 A 
ATOM     10  C   UNL     1      92.208  83.488  88.150  1.00  0.00     0.056 A 
ATOM     11  C   UNL     1      92.228  81.159  86.578  1.00  0.00     0.050 A 
ATOM     12  C   UNL     1      93.333  82.027  86.561  1.00  0.00     0.009 A 
BRANCH   8  13
ATOM     13  O   UNL     1      90.006  82.937  88.941  1.00  0.00    -0.493 OA
ATOM     14  C   UNL     1      90.271  82.834  90.354  1.00  0.00     0.278 C 
ENDBRANCH   8  13
BRANCH   9  15
ATOM     15  O   UNL     1      90.028  80.633  87.362  1.00  0.00    -0.504 OA
ATOM     16  H   UNL     1      90.328  79.721  87.385  1.00  0.00     0.293 HD
ENDBRANCH   9  15
ENDBRANCH   6   7
ENDBRANCH   3   6
ENDBRANCH   1   2
BRANCH   1  17
ATOM     17  C   UNL     1      97.382  82.854  84.538  1.00  0.00     0.010 C 
BRANCH  17  18
ATOM     18  C   UNL     1      98.716  82.481  83.834  1.00  0.00     0.001 C 
BRANCH  18  19
ATOM     19  C   UNL     1      98.535  82.076  82.347  1.00  0.00     0.000 C 
BRANCH  19  20
ATOM     20  C   UNL     1      98.449  83.314  81.407  1.00  0.00     0.003 C 
BRANCH  20  21
ATOM     21  C   UNL     1      98.536  82.990  79.880  1.00  0.00    -0.017 C 
ATOM     22  C   UNL     1      97.219  83.390  79.152  1.00  0.00     0.007 C 
ATOM     23  C   UNL     1      98.871  81.497  79.597  1.00  0.00     0.007 C 
ENDBRANCH  20  21
ENDBRANCH  19  20
ENDBRANCH  18  19
ENDBRANCH  17  18
ENDBRANCH   1  17
TORSDOF 10
ENDMDL
MODEL 10
REMARK VINA RESULT:    -5.624     19.797     22.802
REMARK INTER + INTRA:          -9.335
REMARK INTER:                  -7.286
REMARK INTRA:                  -2.049
REMARK UNBOUND:                -0.589
REMARK SMILES COc1cc(CNC(=O)CCCCCC(C)C)ccc1O
REMARK SMILES IDX 10 1 8 2 7 3 9 5 6 6 5 7 3 8 20 9 4 10 19 11 18 12 2 13 1 14
REMARK SMILES IDX 21 15 11 17 12 18 13 19 14 20 15 21 16 22 17 23
REMARK H PARENT 7 4 21 16
REMARK Flexibility Score: inf
ROOT
ATOM      1  C   UNL     1      73.646  83.236  64.046  1.00  0.00     0.100 C 
ENDROOT
BRANCH   1   2
ATOM      2  C   UNL     1      73.391  84.423  64.888  1.00  0.00     0.220 C 
ATOM      3  N   UNL     1      73.502  84.320  66.242  1.00  0.00    -0.352 N 
ATOM      4  H   UNL     1      73.627  83.379  66.588  1.00  0.00     0.163 HD
ATOM      5  O   UNL     1      73.118  85.516  64.333  1.00  0.00    -0.275 OA
BRANCH   3   6
ATOM      6  C   UNL     1      73.455  85.416  67.157  1.00  0.00     0.151 C 
BRANCH   6   7
ATOM      7  C   UNL     1      74.797  85.815  67.660  1.00  0.00    -0.025 A 
ATOM      8  C   UNL     1      76.591  85.625  69.330  1.00  0.00     0.160 A 
ATOM      9  C   UNL     1      77.380  86.525  68.583  1.00  0.00     0.157 A 
ATOM     10  C   UNL     1      75.298  85.290  68.875  1.00  0.00     0.056 A 
ATOM     11  C   UNL     1      76.880  87.074  67.387  1.00  0.00     0.050 A 
ATOM     12  C   UNL     1      75.601  86.718  66.926  1.00  0.00     0.009 A 
BRANCH   8  13
ATOM     13  O   UNL     1      77.051  85.095  70.507  1.00  0.00    -0.493 OA
ATOM     14  C   UNL     1      76.102  84.236  71.169  1.00  0.00     0.278 C 
ENDBRANCH   8  13
BRANCH   9  15
ATOM     15  O   UNL     1      78.623  86.855  69.013  1.00  0.00    -0.504 OA
ATOM     16  H   UNL     1      79.190  86.082  68.976  1.00  0.00     0.293 HD
ENDBRANCH   9  15
ENDBRANCH   6   7
ENDBRANCH   3   6
ENDBRANCH   1   2
BRANCH   1  17
ATOM     17  C   UNL     1      73.361  81.882  64.750  1.00  0.00     0.010 C 
BRANCH  17  18
ATOM     18  C   UNL     1      74.561  80.904  64.618  1.00  0.00     0.001 C 
BRANCH  18  19
ATOM     19  C   UNL     1      75.926  81.624  64.454  1.00  0.00     0.000 C 
BRANCH  19  20
ATOM     20  C   UNL     1      76.622  81.884  65.822  1.00  0.00     0.003 C 
BRANCH  20  21
ATOM     21  C   UNL     1      77.055  83.365  66.071  1.00  0.00    -0.017 C 
ATOM     22  C   UNL     1      77.245  84.122  64.723  1.00  0.00     0.007 C 
ATOM     23  C   UNL     1      78.345  83.481  66.934  1.00  0.00     0.007 C 
ENDBRANCH  20  21
ENDBRANCH  19  20
ENDBRANCH  18  19
ENDBRANCH  17  18
ENDBRANCH   1  17
TORSDOF 10
ENDMDL
