MODEL 1
REMARK VINA RESULT:    -6.202      0.000      0.000
REMARK INTER + INTRA:         -10.825
REMARK INTER:                 -10.008
REMARK INTRA:                  -0.817
REMARK UNBOUND:                -0.817
REMARK SMILES COc1cc(CNC(=O)CCCCC/C=C/C(C)C)ccc1O
REMARK SMILES IDX 11 1 10 2 8 3 7 4 9 6 6 7 5 8 3 9 22 10 4 11 21 12 20 13
REMARK SMILES IDX 2 14 1 15 23 16 12 18 13 19 14 20 15 21 16 22 17 23 18 24
REMARK SMILES IDX 19 25
REMARK H PARENT 7 5 23 17
REMARK Flexibility Score: inf
ROOT
ATOM      1  C   UNL     1      95.413  94.891  78.914  1.00  0.00     0.010 C 
ENDROOT
BRANCH   1   2
ATOM      2  C   UNL     1      96.106  94.462  77.595  1.00  0.00     0.100 C 
BRANCH   2   3
ATOM      3  C   UNL     1      95.172  94.008  76.548  1.00  0.00     0.220 C 
ATOM      4  N   UNL     1      93.830  94.027  76.780  1.00  0.00    -0.352 N 
ATOM      5  H   UNL     1      93.569  94.295  77.719  1.00  0.00     0.163 HD
ATOM      6  O   UNL     1      95.645  93.650  75.443  1.00  0.00    -0.275 OA
BRANCH   4   7
ATOM      7  C   UNL     1      92.818  93.708  75.826  1.00  0.00     0.151 C 
BRANCH   7   8
ATOM      8  C   UNL     1      91.942  92.594  76.272  1.00  0.00    -0.025 A 
ATOM      9  C   UNL     1      90.798  90.464  75.820  1.00  0.00     0.160 A 
ATOM     10  C   UNL     1      90.226  90.499  77.111  1.00  0.00     0.157 A 
ATOM     11  C   UNL     1      91.643  91.515  75.408  1.00  0.00     0.056 A 
ATOM     12  C   UNL     1      90.530  91.559  77.985  1.00  0.00     0.050 A 
ATOM     13  C   UNL     1      91.390  92.594  77.572  1.00  0.00     0.009 A 
BRANCH   9  14
ATOM     14  O   UNL     1      90.579  89.394  74.994  1.00  0.00    -0.493 OA
ATOM     15  C   UNL     1      89.616  89.640  73.957  1.00  0.00     0.278 C 
ENDBRANCH   9  14
BRANCH  10  16
ATOM     16  O   UNL     1      89.386  89.522  77.536  1.00  0.00    -0.504 OA
ATOM     17  H   UNL     1      89.156  89.676  78.455  1.00  0.00     0.293 HD
ENDBRANCH  10  16
ENDBRANCH   7   8
ENDBRANCH   4   7
ENDBRANCH   2   3
ENDBRANCH   1   2
BRANCH   1  18
ATOM     18  C   UNL     1      95.904  94.034  80.109  1.00  0.00     0.001 C 
BRANCH  18  19
ATOM     19  C   UNL     1      96.342  94.870  81.338  1.00  0.00     0.004 C 
BRANCH  19  20
ATOM     20  C   UNL     1      96.923  96.246  80.909  1.00  0.00     0.027 C 
BRANCH  20  21
ATOM     21  C   UNL     1      96.254  97.380  81.523  1.00  0.00    -0.031 C 
ATOM     22  C   UNL     1      96.443  98.642  81.100  1.00  0.00    -0.028 C 
BRANCH  22  23
ATOM     23  C   UNL     1      95.782  99.802  81.692  1.00  0.00     0.005 C 
ATOM     24  C   UNL     1      96.267 100.012  83.151  1.00  0.00     0.012 C 
ATOM     25  C   UNL     1      96.009 101.059  80.809  1.00  0.00     0.012 C 
ENDBRANCH  22  23
ENDBRANCH  20  21
ENDBRANCH  19  20
ENDBRANCH  18  19
ENDBRANCH   1  18
TORSDOF 11
ENDMDL
MODEL 2
REMARK VINA RESULT:    -5.977     26.009     30.213
REMARK INTER + INTRA:         -10.463
REMARK INTER:                  -9.019
REMARK INTRA:                  -1.443
REMARK UNBOUND:                -0.817
REMARK SMILES COc1cc(CNC(=O)CCCCC/C=C/C(C)C)ccc1O
REMARK SMILES IDX 11 1 10 2 8 3 7 4 9 6 6 7 5 8 3 9 22 10 4 11 21 12 20 13
REMARK SMILES IDX 2 14 1 15 23 16 12 18 13 19 14 20 15 21 16 22 17 23 18 24
REMARK SMILES IDX 19 25
REMARK H PARENT 7 5 23 17
REMARK Flexibility Score: inf
ROOT
ATOM      1  C   UNL     1      82.818  63.859  75.626  1.00  0.00     0.010 C 
ENDROOT
BRANCH   1   2
ATOM      2  C   UNL     1      81.972  64.816  76.504  1.00  0.00     0.100 C 
BRANCH   2   3
ATOM      3  C   UNL     1      82.374  66.232  76.408  1.00  0.00     0.220 C 
ATOM      4  N   UNL     1      83.687  66.573  76.525  1.00  0.00    -0.352 N 
ATOM      5  H   UNL     1      84.304  65.805  76.750  1.00  0.00     0.163 HD
ATOM      6  O   UNL     1      81.488  67.089  76.177  1.00  0.00    -0.275 OA
BRANCH   4   7
ATOM      7  C   UNL     1      84.222  67.885  76.357  1.00  0.00     0.151 C 
BRANCH   7   8
ATOM      8  C   UNL     1      85.320  68.183  77.313  1.00  0.00    -0.025 A 
ATOM      9  C   UNL     1      86.883  67.451  79.065  1.00  0.00     0.160 A 
ATOM     10  C   UNL     1      87.378  68.769  79.172  1.00  0.00     0.157 A 
ATOM     11  C   UNL     1      85.854  67.170  78.144  1.00  0.00     0.056 A 
ATOM     12  C   UNL     1      86.866  69.781  78.339  1.00  0.00     0.050 A 
ATOM     13  C   UNL     1      85.852  69.488  77.408  1.00  0.00     0.009 A 
BRANCH   9  14
ATOM     14  O   UNL     1      87.435  66.442  79.809  1.00  0.00    -0.493 OA
ATOM     15  C   UNL     1      86.679  66.097  80.982  1.00  0.00     0.278 C 
ENDBRANCH   9  14
BRANCH  10  16
ATOM     16  O   UNL     1      88.348  69.088  80.066  1.00  0.00    -0.504 OA
ATOM     17  H   UNL     1      88.495  68.345  80.656  1.00  0.00     0.293 HD
ENDBRANCH  10  16
ENDBRANCH   7   8
ENDBRANCH   4   7
ENDBRANCH   2   3
ENDBRANCH   1   2
BRANCH   1  18
ATOM     18  C   UNL     1      82.191  63.689  74.218  1.00  0.00     0.001 C 
BRANCH  18  19
ATOM     19  C   UNL     1      80.643  63.637  74.228  1.00  0.00     0.004 C 
BRANCH  19  20
ATOM     20  C   UNL     1      80.032  64.758  73.340  1.00  0.00     0.027 C 
BRANCH  20  21
ATOM     21  C   UNL     1      80.995  65.762  72.923  1.00  0.00    -0.031 C 
ATOM     22  C   UNL     1      80.646  67.040  72.690  1.00  0.00    -0.028 C 
BRANCH  22  23
ATOM     23  C   UNL     1      81.590  68.074  72.275  1.00  0.00     0.005 C 
ATOM     24  C   UNL     1      82.969  67.845  72.948  1.00  0.00     0.012 C 
ATOM     25  C   UNL     1      81.690  68.119  70.726  1.00  0.00     0.012 C 
ENDBRANCH  22  23
ENDBRANCH  20  21
ENDBRANCH  19  20
ENDBRANCH  18  19
ENDBRANCH   1  18
TORSDOF 11
ENDMDL
MODEL 3
REMARK VINA RESULT:    -5.871     12.935     15.129
REMARK INTER + INTRA:         -10.291
REMARK INTER:                  -8.724
REMARK INTRA:                  -1.568
REMARK UNBOUND:                -0.817
REMARK SMILES COc1cc(CNC(=O)CCCCC/C=C/C(C)C)ccc1O
REMARK SMILES IDX 11 1 10 2 8 3 7 4 9 6 6 7 5 8 3 9 22 10 4 11 21 12 20 13
REMARK SMILES IDX 2 14 1 15 23 16 12 18 13 19 14 20 15 21 16 22 17 23 18 24
REMARK SMILES IDX 19 25
REMARK H PARENT 7 5 23 17
REMARK Flexibility Score: inf
ROOT
ATOM      1  C   UNL     1      98.835  81.202  75.339  1.00  0.00     0.010 C 
ENDROOT
BRANCH   1   2
ATOM      2  C   UNL     1      97.603  82.122  75.138  1.00  0.00     0.100 C 
BRANCH   2   3
ATOM      3  C   UNL     1      97.155  82.802  76.367  1.00  0.00     0.220 C 
ATOM      4  N   UNL     1      96.679  82.069  77.412  1.00  0.00    -0.352 N 
ATOM      5  H   UNL     1      96.599  81.078  77.230  1.00  0.00     0.163 HD
ATOM      6  O   UNL     1      97.264  84.049  76.432  1.00  0.00    -0.275 OA
BRANCH   4   7
ATOM      7  C   UNL     1      96.305  82.589  78.687  1.00  0.00     0.151 C 
BRANCH   7   8
ATOM      8  C   UNL     1      97.131  82.040  79.793  1.00  0.00    -0.025 A 
ATOM      9  C   UNL     1      98.095  82.248  82.046  1.00  0.00     0.160 A 
ATOM     10  C   UNL     1      98.753  81.010  81.878  1.00  0.00     0.157 A 
ATOM     11  C   UNL     1      97.298  82.757  81.001  1.00  0.00     0.056 A 
ATOM     12  C   UNL     1      98.581  80.280  80.688  1.00  0.00     0.050 A 
ATOM     13  C   UNL     1      97.768  80.786  79.657  1.00  0.00     0.009 A 
BRANCH   9  14
ATOM     14  O   UNL     1      98.186  82.925  83.234  1.00  0.00    -0.493 OA
ATOM     15  C   UNL     1      96.922  83.371  83.753  1.00  0.00     0.278 C 
ENDBRANCH   9  14
BRANCH  10  16
ATOM     16  O   UNL     1      99.552  80.499  82.848  1.00  0.00    -0.504 OA
ATOM     17  H   UNL     1     100.049  79.757  82.495  1.00  0.00     0.293 HD
ENDBRANCH  10  16
ENDBRANCH   7   8
ENDBRANCH   4   7
ENDBRANCH   2   3
ENDBRANCH   1   2
BRANCH   1  18
ATOM     18  C   UNL     1     100.144  81.922  74.927  1.00  0.00     0.001 C 
BRANCH  18  19
ATOM     19  C   UNL     1     100.972  82.447  76.128  1.00  0.00     0.004 C 
BRANCH  19  20
ATOM     20  C   UNL     1     100.451  81.865  77.472  1.00  0.00     0.027 C 
BRANCH  20  21
ATOM     21  C   UNL     1     101.317  80.847  78.043  1.00  0.00    -0.031 C 
ATOM     22  C   UNL     1     102.648  80.846  77.852  1.00  0.00    -0.028 C 
BRANCH  22  23
ATOM     23  C   UNL     1     103.546  79.841  78.416  1.00  0.00     0.005 C 
ATOM     24  C   UNL     1     104.936  79.915  77.730  1.00  0.00     0.012 C 
ATOM     25  C   UNL     1     103.639  80.009  79.957  1.00  0.00     0.012 C 
ENDBRANCH  22  23
ENDBRANCH  20  21
ENDBRANCH  19  20
ENDBRANCH  18  19
ENDBRANCH   1  18
TORSDOF 11
ENDMDL
MODEL 4
REMARK VINA RESULT:    -5.851     28.774     32.075
REMARK INTER + INTRA:         -10.260
REMARK INTER:                  -9.128
REMARK INTRA:                  -1.132
REMARK UNBOUND:                -0.817
REMARK SMILES COc1cc(CNC(=O)CCCCC/C=C/C(C)C)ccc1O
REMARK SMILES IDX 11 1 10 2 8 3 7 4 9 6 6 7 5 8 3 9 22 10 4 11 21 12 20 13
REMARK SMILES IDX 2 14 1 15 23 16 12 18 13 19 14 20 15 21 16 22 17 23 18 24
REMARK SMILES IDX 19 25
REMARK H PARENT 7 5 23 17
REMARK Flexibility Score: inf
ROOT
ATOM      1  C   UNL     1      62.468  85.206  74.298  1.00  0.00     0.010 C 
ENDROOT
BRANCH   1   2
ATOM      2  C   UNL     1      63.051  84.675  75.633  1.00  0.00     0.100 C 
BRANCH   2   3
ATOM      3  C   UNL     1      64.176  85.472  76.156  1.00  0.00     0.220 C 
ATOM      4  N   UNL     1      63.957  86.390  77.138  1.00  0.00    -0.352 N 
ATOM      5  H   UNL     1      62.986  86.511  77.394  1.00  0.00     0.163 HD
ATOM      6  O   UNL     1      65.324  85.251  75.705  1.00  0.00    -0.275 OA
BRANCH   4   7
ATOM      7  C   UNL     1      64.964  87.156  77.798  1.00  0.00     0.151 C 
BRANCH   7   8
ATOM      8  C   UNL     1      65.439  86.516  79.052  1.00  0.00    -0.025 A 
ATOM      9  C   UNL     1      65.170  86.065  81.455  1.00  0.00     0.160 A 
ATOM     10  C   UNL     1      66.380  85.336  81.453  1.00  0.00     0.157 A 
ATOM     11  C   UNL     1      64.714  86.656  80.259  1.00  0.00     0.056 A 
ATOM     12  C   UNL     1      67.100  85.176  80.255  1.00  0.00     0.050 A 
ATOM     13  C   UNL     1      66.628  85.752  79.061  1.00  0.00     0.009 A 
BRANCH   9  14
ATOM     14  O   UNL     1      64.417  86.154  82.596  1.00  0.00    -0.493 OA
ATOM     15  C   UNL     1      63.193  86.890  82.436  1.00  0.00     0.278 C 
ENDBRANCH   9  14
BRANCH  10  16
ATOM     16  O   UNL     1      66.867  84.777  82.588  1.00  0.00    -0.504 OA
ATOM     17  H   UNL     1      67.823  84.871  82.606  1.00  0.00     0.293 HD
ENDBRANCH  10  16
ENDBRANCH   7   8
ENDBRANCH   4   7
ENDBRANCH   2   3
ENDBRANCH   1   2
BRANCH   1  18
ATOM     18  C   UNL     1      62.974  84.369  73.095  1.00  0.00     0.001 C 
BRANCH  18  19
ATOM     19  C   UNL     1      61.837  83.786  72.219  1.00  0.00     0.004 C 
BRANCH  19  20
ATOM     20  C   UNL     1      61.768  82.237  72.338  1.00  0.00     0.027 C 
BRANCH  20  21
ATOM     21  C   UNL     1      62.658  81.688  73.347  1.00  0.00    -0.031 C 
ATOM     22  C   UNL     1      63.598  80.772  73.054  1.00  0.00    -0.028 C 
BRANCH  22  23
ATOM     23  C   UNL     1      64.511  80.205  74.043  1.00  0.00     0.005 C 
ATOM     24  C   UNL     1      65.858  79.821  73.374  1.00  0.00     0.012 C 
ATOM     25  C   UNL     1      64.700  81.192  75.227  1.00  0.00     0.012 C 
ENDBRANCH  22  23
ENDBRANCH  20  21
ENDBRANCH  19  20
ENDBRANCH  18  19
ENDBRANCH   1  18
TORSDOF 11
ENDMDL
MODEL 5
REMARK VINA RESULT:    -5.750     25.855     30.160
REMARK INTER + INTRA:         -10.097
REMARK INTER:                  -8.024
REMARK INTRA:                  -2.073
REMARK UNBOUND:                -0.817
REMARK SMILES COc1cc(CNC(=O)CCCCC/C=C/C(C)C)ccc1O
REMARK SMILES IDX 11 1 10 2 8 3 7 4 9 6 6 7 5 8 3 9 22 10 4 11 21 12 20 13
REMARK SMILES IDX 2 14 1 15 23 16 12 18 13 19 14 20 15 21 16 22 17 23 18 24
REMARK SMILES IDX 19 25
REMARK H PARENT 7 5 23 17
REMARK Flexibility Score: inf
ROOT
ATOM      1  C   UNL     1      80.633  67.342  72.115  1.00  0.00     0.010 C 
ENDROOT
BRANCH   1   2
ATOM      2  C   UNL     1      81.527  67.934  70.994  1.00  0.00     0.100 C 
BRANCH   2   3
ATOM      3  C   UNL     1      82.891  68.280  71.434  1.00  0.00     0.220 C 
ATOM      4  N   UNL     1      83.680  67.329  72.008  1.00  0.00    -0.352 N 
ATOM      5  H   UNL     1      83.225  66.440  72.160  1.00  0.00     0.163 HD
ATOM      6  O   UNL     1      83.306  69.445  71.228  1.00  0.00    -0.275 OA
BRANCH   4   7
ATOM      7  C   UNL     1      85.044  67.502  72.389  1.00  0.00     0.151 C 
BRANCH   7   8
ATOM      8  C   UNL     1      85.211  67.676  73.855  1.00  0.00    -0.025 A 
ATOM      9  C   UNL     1      86.651  68.075  75.809  1.00  0.00     0.160 A 
ATOM     10  C   UNL     1      85.530  67.953  76.659  1.00  0.00     0.157 A 
ATOM     11  C   UNL     1      86.485  67.927  74.417  1.00  0.00     0.056 A 
ATOM     12  C   UNL     1      84.256  67.720  76.110  1.00  0.00     0.050 A 
ATOM     13  C   UNL     1      84.095  67.593  74.718  1.00  0.00     0.009 A 
BRANCH   9  14
ATOM     14  O   UNL     1      87.881  68.388  76.325  1.00  0.00    -0.493 OA
ATOM     15  C   UNL     1      88.236  69.775  76.195  1.00  0.00     0.278 C 
ENDBRANCH   9  14
BRANCH  10  16
ATOM     16  O   UNL     1      85.652  68.060  78.006  1.00  0.00    -0.504 OA
ATOM     17  H   UNL     1      84.869  67.697  78.427  1.00  0.00     0.293 HD
ENDBRANCH  10  16
ENDBRANCH   7   8
ENDBRANCH   4   7
ENDBRANCH   2   3
ENDBRANCH   1   2
BRANCH   1  18
ATOM     18  C   UNL     1      80.202  65.892  71.779  1.00  0.00     0.001 C 
BRANCH  18  19
ATOM     19  C   UNL     1      80.138  64.958  73.014  1.00  0.00     0.004 C 
BRANCH  19  20
ATOM     20  C   UNL     1      80.395  65.743  74.331  1.00  0.00     0.027 C 
BRANCH  20  21
ATOM     21  C   UNL     1      81.467  65.190  75.141  1.00  0.00    -0.031 C 
ATOM     22  C   UNL     1      82.347  64.296  74.656  1.00  0.00    -0.028 C 
BRANCH  22  23
ATOM     23  C   UNL     1      83.439  63.726  75.442  1.00  0.00     0.005 C 
ATOM     24  C   UNL     1      84.796  63.964  74.729  1.00  0.00     0.012 C 
ATOM     25  C   UNL     1      83.420  64.304  76.883  1.00  0.00     0.012 C 
ENDBRANCH  22  23
ENDBRANCH  20  21
ENDBRANCH  19  20
ENDBRANCH  18  19
ENDBRANCH   1  18
TORSDOF 11
ENDMDL
MODEL 6
REMARK VINA RESULT:    -5.715     28.460     31.008
REMARK INTER + INTRA:         -10.040
REMARK INTER:                  -9.293
REMARK INTRA:                  -0.747
REMARK UNBOUND:                -0.817
REMARK SMILES COc1cc(CNC(=O)CCCCC/C=C/C(C)C)ccc1O
REMARK SMILES IDX 11 1 10 2 8 3 7 4 9 6 6 7 5 8 3 9 22 10 4 11 21 12 20 13
REMARK SMILES IDX 2 14 1 15 23 16 12 18 13 19 14 20 15 21 16 22 17 23 18 24
REMARK SMILES IDX 19 25
REMARK H PARENT 7 5 23 17
REMARK Flexibility Score: inf
ROOT
ATOM      1  C   UNL     1      64.738  85.387  74.935  1.00  0.00     0.010 C 
ENDROOT
BRANCH   1   2
ATOM      2  C   UNL     1      66.097  85.966  75.407  1.00  0.00     0.100 C 
BRANCH   2   3
ATOM      3  C   UNL     1      65.987  86.917  76.529  1.00  0.00     0.220 C 
ATOM      4  N   UNL     1      66.453  86.569  77.760  1.00  0.00    -0.352 N 
ATOM      5  H   UNL     1      66.788  85.618  77.831  1.00  0.00     0.163 HD
ATOM      6  O   UNL     1      65.498  88.049  76.304  1.00  0.00    -0.275 OA
BRANCH   4   7
ATOM      7  C   UNL     1      66.498  87.423  78.902  1.00  0.00     0.151 C 
BRANCH   7   8
ATOM      8  C   UNL     1      66.735  86.677  80.165  1.00  0.00    -0.025 A 
ATOM      9  C   UNL     1      66.822  86.610  82.622  1.00  0.00     0.160 A 
ATOM     10  C   UNL     1      67.242  85.263  82.570  1.00  0.00     0.157 A 
ATOM     11  C   UNL     1      66.581  87.309  81.422  1.00  0.00     0.056 A 
ATOM     12  C   UNL     1      67.383  84.620  81.326  1.00  0.00     0.050 A 
ATOM     13  C   UNL     1      67.121  85.318  80.133  1.00  0.00     0.009 A 
BRANCH   9  14
ATOM     14  O   UNL     1      66.598  87.219  83.829  1.00  0.00    -0.493 OA
ATOM     15  C   UNL     1      65.475  88.117  83.834  1.00  0.00     0.278 C 
ENDBRANCH   9  14
BRANCH  10  16
ATOM     16  O   UNL     1      67.512  84.564  83.701  1.00  0.00    -0.504 OA
ATOM     17  H   UNL     1      67.745  85.174  84.405  1.00  0.00     0.293 HD
ENDBRANCH  10  16
ENDBRANCH   7   8
ENDBRANCH   4   7
ENDBRANCH   2   3
ENDBRANCH   1   2
BRANCH   1  18
ATOM     18  C   UNL     1      64.120  84.461  76.014  1.00  0.00     0.001 C 
BRANCH  18  19
ATOM     19  C   UNL     1      62.578  84.340  75.922  1.00  0.00     0.004 C 
BRANCH  19  20
ATOM     20  C   UNL     1      62.122  82.854  75.972  1.00  0.00     0.027 C 
BRANCH  20  21
ATOM     21  C   UNL     1      62.632  82.050  74.874  1.00  0.00    -0.031 C 
ATOM     22  C   UNL     1      63.702  81.246  75.008  1.00  0.00    -0.028 C 
BRANCH  22  23
ATOM     23  C   UNL     1      64.235  80.422  73.927  1.00  0.00     0.005 C 
ATOM     24  C   UNL     1      63.813  81.001  72.550  1.00  0.00     0.012 C 
ATOM     25  C   UNL     1      65.776  80.289  74.063  1.00  0.00     0.012 C 
ENDBRANCH  22  23
ENDBRANCH  20  21
ENDBRANCH  19  20
ENDBRANCH  18  19
ENDBRANCH   1  18
TORSDOF 11
ENDMDL
MODEL 7
REMARK VINA RESULT:    -5.651     25.307     29.301
REMARK INTER + INTRA:          -9.937
REMARK INTER:                  -9.067
REMARK INTRA:                  -0.871
REMARK UNBOUND:                -0.817
REMARK SMILES COc1cc(CNC(=O)CCCCC/C=C/C(C)C)ccc1O
REMARK SMILES IDX 11 1 10 2 8 3 7 4 9 6 6 7 5 8 3 9 22 10 4 11 21 12 20 13
REMARK SMILES IDX 2 14 1 15 23 16 12 18 13 19 14 20 15 21 16 22 17 23 18 24
REMARK SMILES IDX 19 25
REMARK H PARENT 7 5 23 17
REMARK Flexibility Score: inf
ROOT
ATOM      1  C   UNL     1      81.382  67.352  71.754  1.00  0.00     0.010 C 
ENDROOT
BRANCH   1   2
ATOM      2  C   UNL     1      82.594  67.805  70.899  1.00  0.00     0.100 C 
BRANCH   2   3
ATOM      3  C   UNL     1      83.756  68.248  71.692  1.00  0.00     0.220 C 
ATOM      4  N   UNL     1      84.942  68.501  71.073  1.00  0.00    -0.352 N 
ATOM      5  H   UNL     1      84.956  68.288  70.085  1.00  0.00     0.163 HD
ATOM      6  O   UNL     1      83.605  68.420  72.925  1.00  0.00    -0.275 OA
BRANCH   4   7
ATOM      7  C   UNL     1      86.111  69.025  71.702  1.00  0.00     0.151 C 
BRANCH   7   8
ATOM      8  C   UNL     1      86.889  69.921  70.808  1.00  0.00    -0.025 A 
ATOM      9  C   UNL     1      87.098  71.191  68.712  1.00  0.00     0.160 A 
ATOM     10  C   UNL     1      88.402  71.585  69.082  1.00  0.00     0.157 A 
ATOM     11  C   UNL     1      86.356  70.356  69.572  1.00  0.00     0.056 A 
ATOM     12  C   UNL     1      88.936  71.173  70.316  1.00  0.00     0.050 A 
ATOM     13  C   UNL     1      88.182  70.355  71.178  1.00  0.00     0.009 A 
BRANCH   9  14
ATOM     14  O   UNL     1      86.535  71.658  67.554  1.00  0.00    -0.493 OA
ATOM     15  C   UNL     1      86.817  70.853  66.397  1.00  0.00     0.278 C 
ENDBRANCH   9  14
BRANCH  10  16
ATOM     16  O   UNL     1      89.160  72.365  68.270  1.00  0.00    -0.504 OA
ATOM     17  H   UNL     1      89.887  71.846  67.917  1.00  0.00     0.293 HD
ENDBRANCH  10  16
ENDBRANCH   7   8
ENDBRANCH   4   7
ENDBRANCH   2   3
ENDBRANCH   1   2
BRANCH   1  18
ATOM     18  C   UNL     1      81.441  65.831  72.046  1.00  0.00     0.001 C 
BRANCH  18  19
ATOM     19  C   UNL     1      80.122  65.256  72.622  1.00  0.00     0.004 C 
BRANCH  19  20
ATOM     20  C   UNL     1      80.395  64.306  73.822  1.00  0.00     0.027 C 
BRANCH  20  21
ATOM     21  C   UNL     1      81.638  64.587  74.519  1.00  0.00    -0.031 C 
ATOM     22  C   UNL     1      81.666  65.059  75.778  1.00  0.00    -0.028 C 
BRANCH  22  23
ATOM     23  C   UNL     1      82.899  65.346  76.507  1.00  0.00     0.005 C 
ATOM     24  C   UNL     1      83.469  64.045  77.133  1.00  0.00     0.012 C 
ATOM     25  C   UNL     1      83.923  66.049  75.575  1.00  0.00     0.012 C 
ENDBRANCH  22  23
ENDBRANCH  20  21
ENDBRANCH  19  20
ENDBRANCH  18  19
ENDBRANCH   1  18
TORSDOF 11
ENDMDL
MODEL 8
REMARK VINA RESULT:    -5.622     24.813     30.170
REMARK INTER + INTRA:          -9.890
REMARK INTER:                  -8.456
REMARK INTRA:                  -1.434
REMARK UNBOUND:                -0.817
REMARK SMILES COc1cc(CNC(=O)CCCCC/C=C/C(C)C)ccc1O
REMARK SMILES IDX 11 1 10 2 8 3 7 4 9 6 6 7 5 8 3 9 22 10 4 11 21 12 20 13
REMARK SMILES IDX 2 14 1 15 23 16 12 18 13 19 14 20 15 21 16 22 17 23 18 24
REMARK SMILES IDX 19 25
REMARK H PARENT 7 5 23 17
REMARK Flexibility Score: inf
ROOT
ATOM      1  C   UNL     1      83.553  63.963  75.145  1.00  0.00     0.010 C 
ENDROOT
BRANCH   1   2
ATOM      2  C   UNL     1      82.990  64.598  76.442  1.00  0.00     0.100 C 
BRANCH   2   3
ATOM      3  C   UNL     1      83.085  66.069  76.481  1.00  0.00     0.220 C 
ATOM      4  N   UNL     1      84.308  66.669  76.476  1.00  0.00    -0.352 N 
ATOM      5  H   UNL     1      85.091  66.032  76.520  1.00  0.00     0.163 HD
ATOM      6  O   UNL     1      82.023  66.735  76.476  1.00  0.00    -0.275 OA
BRANCH   4   7
ATOM      7  C   UNL     1      84.541  68.075  76.414  1.00  0.00     0.151 C 
BRANCH   7   8
ATOM      8  C   UNL     1      85.116  68.503  75.112  1.00  0.00    -0.025 A 
ATOM      9  C   UNL     1      86.842  69.694  73.827  1.00  0.00     0.160 A 
ATOM     10  C   UNL     1      86.177  69.360  72.627  1.00  0.00     0.157 A 
ATOM     11  C   UNL     1      86.303  69.271  75.059  1.00  0.00     0.056 A 
ATOM     12  C   UNL     1      85.006  68.582  72.667  1.00  0.00     0.050 A 
ATOM     13  C   UNL     1      84.485  68.148  73.899  1.00  0.00     0.009 A 
BRANCH   9  14
ATOM     14  O   UNL     1      88.030  70.375  73.795  1.00  0.00    -0.493 OA
ATOM     15  C   UNL     1      88.430  70.920  75.063  1.00  0.00     0.278 C 
ENDBRANCH   9  14
BRANCH  10  16
ATOM     16  O   UNL     1      86.648  69.772  71.423  1.00  0.00    -0.504 OA
ATOM     17  H   UNL     1      87.250  69.110  71.072  1.00  0.00     0.293 HD
ENDBRANCH  10  16
ENDBRANCH   7   8
ENDBRANCH   4   7
ENDBRANCH   2   3
ENDBRANCH   1   2
BRANCH   1  18
ATOM     18  C   UNL     1      82.524  64.045  73.989  1.00  0.00     0.001 C 
BRANCH  18  19
ATOM     19  C   UNL     1      81.105  63.565  74.383  1.00  0.00     0.004 C 
BRANCH  19  20
ATOM     20  C   UNL     1      80.025  64.617  74.007  1.00  0.00     0.027 C 
BRANCH  20  21
ATOM     21  C   UNL     1      80.210  65.199  72.689  1.00  0.00    -0.031 C 
ATOM     22  C   UNL     1      80.262  66.529  72.491  1.00  0.00    -0.028 C 
BRANCH  22  23
ATOM     23  C   UNL     1      80.452  67.145  71.180  1.00  0.00     0.005 C 
ATOM     24  C   UNL     1      81.961  67.400  70.920  1.00  0.00     0.012 C 
ATOM     25  C   UNL     1      79.804  66.267  70.075  1.00  0.00     0.012 C 
ENDBRANCH  22  23
ENDBRANCH  20  21
ENDBRANCH  19  20
ENDBRANCH  18  19
ENDBRANCH   1  18
TORSDOF 11
ENDMDL
MODEL 9
REMARK VINA RESULT:    -5.550     26.418     30.294
REMARK INTER + INTRA:          -9.773
REMARK INTER:                  -8.017
REMARK INTRA:                  -1.756
REMARK UNBOUND:                -0.817
REMARK SMILES COc1cc(CNC(=O)CCCCC/C=C/C(C)C)ccc1O
REMARK SMILES IDX 11 1 10 2 8 3 7 4 9 6 6 7 5 8 3 9 22 10 4 11 21 12 20 13
REMARK SMILES IDX 2 14 1 15 23 16 12 18 13 19 14 20 15 21 16 22 17 23 18 24
REMARK SMILES IDX 19 25
REMARK H PARENT 7 5 23 17
REMARK Flexibility Score: inf
ROOT
ATOM      1  C   UNL     1      82.972  64.013  75.408  1.00  0.00     0.010 C 
ENDROOT
BRANCH   1   2
ATOM      2  C   UNL     1      82.156  64.838  76.436  1.00  0.00     0.100 C 
BRANCH   2   3
ATOM      3  C   UNL     1      82.482  66.277  76.445  1.00  0.00     0.220 C 
ATOM      4  N   UNL     1      83.739  66.685  76.772  1.00  0.00    -0.352 N 
ATOM      5  H   UNL     1      84.360  65.943  77.065  1.00  0.00     0.163 HD
ATOM      6  O   UNL     1      81.590  67.092  76.108  1.00  0.00    -0.275 OA
BRANCH   4   7
ATOM      7  C   UNL     1      84.212  68.030  76.726  1.00  0.00     0.151 C 
BRANCH   7   8
ATOM      8  C   UNL     1      85.032  68.308  75.518  1.00  0.00    -0.025 A 
ATOM      9  C   UNL     1      85.779  67.695  73.257  1.00  0.00     0.160 A 
ATOM     10  C   UNL     1      86.638  68.816  73.238  1.00  0.00     0.157 A 
ATOM     11  C   UNL     1      84.990  67.445  74.398  1.00  0.00     0.056 A 
ATOM     12  C   UNL     1      86.675  69.690  74.340  1.00  0.00     0.050 A 
ATOM     13  C   UNL     1      85.870  69.444  75.468  1.00  0.00     0.009 A 
BRANCH   9  14
ATOM     14  O   UNL     1      85.671  66.887  72.156  1.00  0.00    -0.493 OA
ATOM     15  C   UNL     1      85.387  65.512  72.462  1.00  0.00     0.278 C 
ENDBRANCH   9  14
BRANCH  10  16
ATOM     16  O   UNL     1      87.435  69.076  72.171  1.00  0.00    -0.504 OA
ATOM     17  H   UNL     1      86.965  69.641  71.552  1.00  0.00     0.293 HD
ENDBRANCH  10  16
ENDBRANCH   7   8
ENDBRANCH   4   7
ENDBRANCH   2   3
ENDBRANCH   1   2
BRANCH   1  18
ATOM     18  C   UNL     1      82.211  63.883  74.064  1.00  0.00     0.001 C 
BRANCH  18  19
ATOM     19  C   UNL     1      80.671  63.823  74.223  1.00  0.00     0.004 C 
BRANCH  19  20
ATOM     20  C   UNL     1      79.974  64.968  73.436  1.00  0.00     0.027 C 
BRANCH  20  21
ATOM     21  C   UNL     1      80.812  65.567  72.411  1.00  0.00    -0.031 C 
ATOM     22  C   UNL     1      80.856  66.895  72.203  1.00  0.00    -0.028 C 
BRANCH  22  23
ATOM     23  C   UNL     1      81.692  67.527  71.186  1.00  0.00     0.005 C 
ATOM     24  C   UNL     1      82.586  68.621  71.828  1.00  0.00     0.012 C 
ATOM     25  C   UNL     1      82.523  66.455  70.431  1.00  0.00     0.012 C 
ENDBRANCH  22  23
ENDBRANCH  20  21
ENDBRANCH  19  20
ENDBRANCH  18  19
ENDBRANCH   1  18
TORSDOF 11
ENDMDL
MODEL 10
REMARK VINA RESULT:    -5.507     14.125     17.095
REMARK INTER + INTRA:          -9.704
REMARK INTER:                  -7.789
REMARK INTRA:                  -1.915
REMARK UNBOUND:                -0.817
REMARK SMILES COc1cc(CNC(=O)CCCCC/C=C/C(C)C)ccc1O
REMARK SMILES IDX 11 1 10 2 8 3 7 4 9 6 6 7 5 8 3 9 22 10 4 11 21 12 20 13
REMARK SMILES IDX 2 14 1 15 23 16 12 18 13 19 14 20 15 21 16 22 17 23 18 24
REMARK SMILES IDX 19 25
REMARK H PARENT 7 5 23 17
REMARK Flexibility Score: inf
ROOT
ATOM      1  C   UNL     1      81.991  89.907  84.839  1.00  0.00     0.010 C 
ENDROOT
BRANCH   1   2
ATOM      2  C   UNL     1      81.508  88.605  84.149  1.00  0.00     0.100 C 
BRANCH   2   3
ATOM      3  C   UNL     1      81.112  87.540  85.089  1.00  0.00     0.220 C 
ATOM      4  N   UNL     1      81.930  87.213  86.127  1.00  0.00    -0.352 N 
ATOM      5  H   UNL     1      82.817  87.698  86.134  1.00  0.00     0.163 HD
ATOM      6  O   UNL     1      80.000  86.985  84.925  1.00  0.00    -0.275 OA
BRANCH   4   7
ATOM      7  C   UNL     1      81.627  86.275  87.159  1.00  0.00     0.151 C 
BRANCH   7   8
ATOM      8  C   UNL     1      80.993  86.912  88.343  1.00  0.00    -0.025 A 
ATOM      9  C   UNL     1      81.185  88.111  90.482  1.00  0.00     0.160 A 
ATOM     10  C   UNL     1      79.780  88.077  90.625  1.00  0.00     0.157 A 
ATOM     11  C   UNL     1      81.780  87.521  89.348  1.00  0.00     0.056 A 
ATOM     12  C   UNL     1      78.987  87.489  89.623  1.00  0.00     0.050 A 
ATOM     13  C   UNL     1      79.588  86.920  88.485  1.00  0.00     0.009 A 
BRANCH   9  14
ATOM     14  O   UNL     1      81.960  88.758  91.407  1.00  0.00    -0.493 OA
ATOM     15  C   UNL     1      83.352  88.403  91.359  1.00  0.00     0.278 C 
ENDBRANCH   9  14
BRANCH  10  16
ATOM     16  O   UNL     1      79.170  88.608  91.714  1.00  0.00    -0.504 OA
ATOM     17  H   UNL     1      79.217  89.567  91.671  1.00  0.00     0.293 HD
ENDBRANCH  10  16
ENDBRANCH   7   8
ENDBRANCH   4   7
ENDBRANCH   2   3
ENDBRANCH   1   2
BRANCH   1  18
ATOM     18  C   UNL     1      83.485  90.183  84.530  1.00  0.00     0.001 C 
BRANCH  18  19
ATOM     19  C   UNL     1      84.242  90.879  85.689  1.00  0.00     0.004 C 
BRANCH  19  20
ATOM     20  C   UNL     1      84.354  89.951  86.931  1.00  0.00     0.027 C 
BRANCH  20  21
ATOM     21  C   UNL     1      83.667  90.461  88.105  1.00  0.00    -0.031 C 
ATOM     22  C   UNL     1      82.735  91.428  88.029  1.00  0.00    -0.028 C 
BRANCH  22  23
ATOM     23  C   UNL     1      82.023  91.959  89.189  1.00  0.00     0.005 C 
ATOM     24  C   UNL     1      82.108  93.508  89.210  1.00  0.00     0.012 C 
ATOM     25  C   UNL     1      80.556  91.448  89.198  1.00  0.00     0.012 C 
ENDBRANCH  22  23
ENDBRANCH  20  21
ENDBRANCH  19  20
ENDBRANCH  18  19
ENDBRANCH   1  18
TORSDOF 11
ENDMDL
