MODEL 1
REMARK VINA RESULT:    -7.589      0.000      0.000
REMARK INTER + INTRA:         -13.883
REMARK INTER:                 -12.913
REMARK INTRA:                  -0.970
REMARK UNBOUND:                -0.970
REMARK SMILES C=C(C)[C@]12C[C@@H](C)[C@@]34O[C@](Cc5ccccc5)(O[C@@H]1[C@@H]3C=C(COC(=O)Cc1ccc(O)cc1)C[C@]1(O)C(=O)C(C)=C[C@@H]41)O2
REMARK SMILES IDX 23 1 22 2 21 3 20 4 9 5 8 6 10 7 6 8 18 10 44 11 19 12 5 13
REMARK SMILES IDX 7 14 4 15 11 16 12 17 13 18 17 19 14 20 16 21 15 22 2 23
REMARK SMILES IDX 3 24 1 25 35 26 36 27 43 28 38 29 42 30 39 32 40 33 41 34
REMARK SMILES IDX 37 35 24 37 25 38 26 39 27 40 28 41 29 42 34 43 30 44 33 45
REMARK SMILES IDX 31 46 32 47
REMARK H PARENT 37 36 32 48
REMARK Flexibility Score: 90.00
ROOT
ATOM      1  C   UNL     1      78.190  92.711  90.366  1.00  0.00     0.264 C 
ENDROOT
BRANCH   1   2
ATOM      2  C   UNL     1      78.481  91.282  89.968  1.00  0.00    -0.033 C 
ATOM      3  C   UNL     1      79.232  91.042  88.873  1.00  0.00    -0.015 C 
BRANCH   3   4
ATOM      4  C   UNL     1      79.600  89.716  88.226  1.00  0.00     0.078 C 
ATOM      5  O   UNL     1      81.782  89.035  89.171  1.00  0.00    -0.319 OA
ATOM      6  C   UNL     1      80.373  88.652  89.089  1.00  0.00     0.095 CG0
ATOM      7  C   UNL     1      82.364  89.504  87.939  1.00  0.00     0.289 C 
ATOM      8  C   UNL     1      80.252  87.256  88.350  1.00  0.00     0.023 C 
ATOM      9  G   UNL     1      79.880  88.672  90.565  1.00  0.00     0.000 G0
ATOM     10  O   UNL     1      81.650  90.622  87.421  1.00  0.00    -0.320 OA
ATOM     11  O   UNL     1      82.330  88.515  86.913  1.00  0.00    -0.313 OA
ATOM     12  C   UNL     1      80.457  89.968  86.962  1.00  0.00     0.170 C 
ATOM     13  C   UNL     1      80.215  87.431  86.800  1.00  0.00     0.049 C 
ATOM     14  C   UNL     1      81.325  86.217  88.720  1.00  0.00     0.011 C 
ATOM     15  C   UNL     1      81.009  88.657  86.349  1.00  0.00     0.122 C 
BRANCH   7  16
ATOM     16  C   UNL     1      83.803  89.896  88.214  1.00  0.00     0.135 C 
BRANCH  16  17
ATOM     17  C   UNL     1      84.482  90.453  86.988  1.00  0.00    -0.040 A 
ATOM     18  C   UNL     1      85.282  89.628  86.198  1.00  0.00     0.004 A 
ATOM     19  C   UNL     1      84.309  91.793  86.645  1.00  0.00     0.004 A 
ATOM     20  C   UNL     1      85.910  90.144  85.063  1.00  0.00     0.000 A 
ATOM     21  C   UNL     1      84.936  92.309  85.510  1.00  0.00     0.000 A 
ATOM     22  C   UNL     1      85.737  91.484  84.720  1.00  0.00     0.000 A 
ENDBRANCH  16  17
ENDBRANCH   7  16
BRANCH  15  23
ATOM     23  C   UNL     1      81.138  88.742  84.863  1.00  0.00    -0.046 C 
ATOM     24  C   UNL     1      82.376  89.412  84.344  1.00  0.00     0.042 C 
ATOM     25  C   UNL     1      80.202  88.249  84.040  1.00  0.00     0.010 C 
ENDBRANCH  15  23
ENDBRANCH   3   4
BRANCH   2  26
ATOM     26  C   UNL     1      77.864  90.264  90.909  1.00  0.00     0.078 C 
BRANCH  26  27
ATOM     27  C   UNL     1      78.308  88.811  90.754  1.00  0.00     0.140 C 
ATOM     28  C   UNL     1      79.834  88.684  90.567  1.00  0.00     0.086 CG0
ATOM     29  C   UNL     1      78.065  87.994  92.006  1.00  0.00     0.190 C 
ATOM     30  C   UNL     1      80.210  87.570  91.504  1.00  0.00    -0.010 C 
ATOM     31  G   UNL     1      80.343  88.649  89.096  1.00  0.00     0.000 G0
ATOM     32  O   UNL     1      77.019  87.961  92.637  1.00  0.00    -0.291 OA
ATOM     33  C   UNL     1      79.247  87.180  92.344  1.00  0.00    -0.008 C 
ATOM     34  C   UNL     1      79.284  86.187  93.438  1.00  0.00     0.048 C 
BRANCH  27  35
ATOM     35  O   UNL     1      77.551  88.141  89.760  1.00  0.00    -0.381 OA
ATOM     36  H   UNL     1      77.439  88.741  89.004  1.00  0.00     0.212 HD
ENDBRANCH  27  35
ENDBRANCH  26  27
ENDBRANCH   2  26
ENDBRANCH   1   2
BRANCH   1  37
ATOM     37  O   UNL     1      79.263  93.535  89.961  1.00  0.00    -0.461 OA
BRANCH  37  38
ATOM     38  C   UNL     1      79.783  94.370  90.923  1.00  0.00     0.310 C 
ATOM     39  O   UNL     1      80.048  94.041  92.070  1.00  0.00    -0.252 OA
BRANCH  38  40
ATOM     40  C   UNL     1      79.974  95.750  90.341  1.00  0.00     0.158 C 
BRANCH  40  41
ATOM     41  C   UNL     1      81.027  95.794  89.264  1.00  0.00    -0.037 A 
ATOM     42  C   UNL     1      81.051  96.851  88.354  1.00  0.00     0.008 A 
ATOM     43  C   UNL     1      81.977  94.777  89.176  1.00  0.00     0.008 A 
ATOM     44  C   UNL     1      82.025  96.891  87.356  1.00  0.00     0.046 A 
ATOM     45  C   UNL     1      82.952  94.817  88.178  1.00  0.00     0.046 A 
ATOM     46  C   UNL     1      82.976  95.873  87.269  1.00  0.00     0.115 A 
BRANCH  46  47
ATOM     47  O   UNL     1      83.925  95.912  86.295  1.00  0.00    -0.508 OA
ATOM     48  H   UNL     1      83.672  95.300  85.582  1.00  0.00     0.293 HD
ENDBRANCH  46  47
ENDBRANCH  40  41
ENDBRANCH  38  40
ENDBRANCH  37  38
ENDBRANCH   1  37
TORSDOF 10
ENDMDL
MODEL 2
REMARK VINA RESULT:    -7.251     18.343     23.668
REMARK INTER + INTRA:         -13.307
REMARK INTER:                 -12.858
REMARK INTRA:                  -0.449
REMARK UNBOUND:                -0.970
REMARK SMILES C=C(C)[C@]12C[C@@H](C)[C@@]34O[C@](Cc5ccccc5)(O[C@@H]1[C@@H]3C=C(COC(=O)Cc1ccc(O)cc1)C[C@]1(O)C(=O)C(C)=C[C@@H]41)O2
REMARK SMILES IDX 23 1 22 2 21 3 20 4 9 5 8 6 10 7 6 8 18 10 44 11 19 12 5 13
REMARK SMILES IDX 7 14 4 15 11 16 12 17 13 18 17 19 14 20 16 21 15 22 2 23
REMARK SMILES IDX 3 24 1 25 35 26 36 27 43 28 38 29 42 30 39 32 40 33 41 34
REMARK SMILES IDX 37 35 24 37 25 38 26 39 27 40 28 41 29 42 34 43 30 44 33 45
REMARK SMILES IDX 31 46 32 47
REMARK H PARENT 37 36 32 48
REMARK Flexibility Score: 90.00
ROOT
ATOM      1  C   UNL     1      92.933  99.720  72.173  1.00  0.00     0.264 C 
ENDROOT
BRANCH   1   2
ATOM      2  C   UNL     1      94.411  99.431  72.301  1.00  0.00    -0.033 C 
ATOM      3  C   UNL     1      94.892  98.962  73.471  1.00  0.00    -0.015 C 
BRANCH   3   4
ATOM      4  C   UNL     1      96.327  98.667  73.877  1.00  0.00     0.078 C 
ATOM      5  O   UNL     1      96.747  96.285  73.362  1.00  0.00    -0.319 OA
ATOM      6  C   UNL     1      97.154  97.645  73.013  1.00  0.00     0.095 CG0
ATOM      7  C   UNL     1      96.570  96.038  74.770  1.00  0.00     0.289 C 
ATOM      8  C   UNL     1      98.684  97.842  73.372  1.00  0.00     0.023 C 
ATOM      9  G   UNL     1      96.799  97.782  71.504  1.00  0.00     0.000 G0
ATOM     10  O   UNL     1      95.609  96.926  75.334  1.00  0.00    -0.320 OA
ATOM     11  O   UNL     1      97.770  96.245  75.512  1.00  0.00    -0.313 OA
ATOM     12  C   UNL     1      96.366  98.147  75.335  1.00  0.00     0.170 C 
ATOM     13  C   UNL     1      98.874  98.251  74.865  1.00  0.00     0.049 C 
ATOM     14  C   UNL     1      99.598  96.647  73.052  1.00  0.00     0.011 C 
ATOM     15  C   UNL     1      97.776  97.667  75.756  1.00  0.00     0.122 C 
BRANCH   7  16
ATOM     16  C   UNL     1      96.110  94.604  74.945  1.00  0.00     0.135 C 
BRANCH  16  17
ATOM     17  C   UNL     1      94.758  94.521  75.609  1.00  0.00    -0.040 A 
ATOM     18  C   UNL     1      93.606  94.831  74.887  1.00  0.00     0.004 A 
ATOM     19  C   UNL     1      94.661  94.133  76.945  1.00  0.00     0.004 A 
ATOM     20  C   UNL     1      92.355  94.754  75.501  1.00  0.00     0.000 A 
ATOM     21  C   UNL     1      93.410  94.055  77.559  1.00  0.00     0.000 A 
ATOM     22  C   UNL     1      92.258  94.366  76.837  1.00  0.00     0.000 A 
ENDBRANCH  16  17
ENDBRANCH   7  16
BRANCH  15  23
ATOM     23  C   UNL     1      98.036  97.894  77.209  1.00  0.00    -0.046 C 
ATOM     24  C   UNL     1      97.166  98.912  77.886  1.00  0.00     0.042 C 
ATOM     25  C   UNL     1      98.991  97.226  77.872  1.00  0.00     0.010 C 
ENDBRANCH  15  23
ENDBRANCH   3   4
BRANCH   2  26
ATOM     26  C   UNL     1      95.187  99.715  71.028  1.00  0.00     0.078 C 
BRANCH  26  27
ATOM     27  C   UNL     1      96.631  99.221  70.966  1.00  0.00     0.140 C 
ATOM     28  C   UNL     1      96.780  97.783  71.506  1.00  0.00     0.086 CG0
ATOM     29  C   UNL     1      97.138  99.090  69.546  1.00  0.00     0.190 C 
ATOM     30  C   UNL     1      97.641  97.110  70.474  1.00  0.00    -0.010 C 
ATOM     31  G   UNL     1      97.149  97.651  73.012  1.00  0.00     0.000 G0
ATOM     32  O   UNL     1      97.036  99.942  68.676  1.00  0.00    -0.291 OA
ATOM     33  C   UNL     1      97.838  97.806  69.350  1.00  0.00    -0.008 C 
ATOM     34  C   UNL     1      98.549  97.431  68.110  1.00  0.00     0.048 C 
BRANCH  27  35
ATOM     35  O   UNL     1      97.522 100.151  71.559  1.00  0.00    -0.381 OA
ATOM     36  H   UNL     1      97.114 100.490  72.374  1.00  0.00     0.212 HD
ENDBRANCH  27  35
ENDBRANCH  26  27
ENDBRANCH   2  26
ENDBRANCH   1   2
BRANCH   1  37
ATOM     37  O   UNL     1      92.757 101.014  71.636  1.00  0.00    -0.461 OA
BRANCH  37  38
ATOM     38  C   UNL     1      91.809 101.137  70.646  1.00  0.00     0.310 C 
ATOM     39  O   UNL     1      90.687 101.598  70.801  1.00  0.00    -0.252 OA
BRANCH  38  40
ATOM     40  C   UNL     1      92.371 100.617  69.344  1.00  0.00     0.158 C 
BRANCH  40  41
ATOM     41  C   UNL     1      91.430  99.682  68.630  1.00  0.00    -0.037 A 
ATOM     42  C   UNL     1      90.930 100.021  67.373  1.00  0.00     0.008 A 
ATOM     43  C   UNL     1      91.057  98.478  69.226  1.00  0.00     0.008 A 
ATOM     44  C   UNL     1      90.058  99.156  66.711  1.00  0.00     0.046 A 
ATOM     45  C   UNL     1      90.185  97.612  68.565  1.00  0.00     0.046 A 
ATOM     46  C   UNL     1      89.685  97.951  67.308  1.00  0.00     0.115 A 
BRANCH  46  47
ATOM     47  O   UNL     1      88.834  97.108  66.664  1.00  0.00    -0.508 OA
ATOM     48  H   UNL     1      88.663  96.336  67.232  1.00  0.00     0.293 HD
ENDBRANCH  46  47
ENDBRANCH  40  41
ENDBRANCH  38  40
ENDBRANCH  37  38
ENDBRANCH   1  37
TORSDOF 10
ENDMDL
MODEL 3
REMARK VINA RESULT:    -7.192     18.487     21.829
REMARK INTER + INTRA:         -13.207
REMARK INTER:                 -12.597
REMARK INTRA:                  -0.611
REMARK UNBOUND:                -0.970
REMARK SMILES C=C(C)[C@]12C[C@@H](C)[C@@]34O[C@](Cc5ccccc5)(O[C@@H]1[C@@H]3C=C(COC(=O)Cc1ccc(O)cc1)C[C@]1(O)C(=O)C(C)=C[C@@H]41)O2
REMARK SMILES IDX 23 1 22 2 21 3 20 4 9 5 8 6 10 7 6 8 18 10 44 11 19 12 5 13
REMARK SMILES IDX 7 14 4 15 11 16 12 17 13 18 17 19 14 20 16 21 15 22 2 23
REMARK SMILES IDX 3 24 1 25 35 26 36 27 43 28 38 29 42 30 39 32 40 33 41 34
REMARK SMILES IDX 37 35 24 37 25 38 26 39 27 40 28 41 29 42 34 43 30 44 33 45
REMARK SMILES IDX 31 46 32 47
REMARK H PARENT 37 36 32 48
REMARK Flexibility Score: 90.00
ROOT
ATOM      1  C   UNL     1      67.160  86.552  78.305  1.00  0.00     0.264 C 
ENDROOT
BRANCH   1   2
ATOM      2  C   UNL     1      65.839  86.933  77.677  1.00  0.00    -0.033 C 
ATOM      3  C   UNL     1      65.448  86.321  76.540  1.00  0.00    -0.015 C 
BRANCH   3   4
ATOM      4  C   UNL     1      64.219  86.573  75.682  1.00  0.00     0.078 C 
ATOM      5  O   UNL     1      62.454  85.036  76.480  1.00  0.00    -0.319 OA
ATOM      6  C   UNL     1      62.801  86.450  76.350  1.00  0.00     0.095 CG0
ATOM      7  C   UNL     1      62.769  84.218  75.337  1.00  0.00     0.289 C 
ATOM      8  C   UNL     1      61.756  87.159  75.393  1.00  0.00     0.023 C 
ATOM      9  G   UNL     1      62.832  86.977  77.814  1.00  0.00     0.000 G0
ATOM     10  O   UNL     1      64.155  84.287  75.016  1.00  0.00    -0.320 OA
ATOM     11  O   UNL     1      62.080  84.640  74.162  1.00  0.00    -0.313 OA
ATOM     12  C   UNL     1      64.220  85.613  74.467  1.00  0.00     0.170 C 
ATOM     13  C   UNL     1      62.156  87.004  73.894  1.00  0.00     0.049 C 
ATOM     14  C   UNL     1      60.291  86.727  75.577  1.00  0.00     0.011 C 
ATOM     15  C   UNL     1      62.913  85.698  73.643  1.00  0.00     0.122 C 
BRANCH   7  16
ATOM     16  C   UNL     1      62.387  82.786  75.658  1.00  0.00     0.135 C 
BRANCH  16  17
ATOM     17  C   UNL     1      63.376  81.796  75.094  1.00  0.00    -0.040 A 
ATOM     18  C   UNL     1      64.422  81.327  75.887  1.00  0.00     0.004 A 
ATOM     19  C   UNL     1      63.242  81.351  73.779  1.00  0.00     0.004 A 
ATOM     20  C   UNL     1      65.337  80.411  75.365  1.00  0.00     0.000 A 
ATOM     21  C   UNL     1      64.157  80.435  73.257  1.00  0.00     0.000 A 
ATOM     22  C   UNL     1      65.203  79.966  74.050  1.00  0.00     0.000 A 
ENDBRANCH  16  17
ENDBRANCH   7  16
BRANCH  15  23
ATOM     23  C   UNL     1      63.147  85.442  72.190  1.00  0.00    -0.046 C 
ATOM     24  C   UNL     1      62.365  84.315  71.582  1.00  0.00     0.042 C 
ATOM     25  C   UNL     1      64.007  86.177  71.469  1.00  0.00     0.010 C 
ENDBRANCH  15  23
ENDBRANCH   3   4
BRANCH   2  26
ATOM     26  C   UNL     1      65.096  88.002  78.457  1.00  0.00     0.078 C 
BRANCH  26  27
ATOM     27  C   UNL     1      63.653  88.289  78.045  1.00  0.00     0.140 C 
ATOM     28  C   UNL     1      62.845  86.997  77.807  1.00  0.00     0.086 CG0
ATOM     29  C   UNL     1      62.862  88.970  79.142  1.00  0.00     0.190 C 
ATOM     30  C   UNL     1      61.553  87.253  78.531  1.00  0.00    -0.010 C 
ATOM     31  G   UNL     1      62.809  86.471  76.343  1.00  0.00     0.000 G0
ATOM     32  O   UNL     1      63.230  89.945  79.780  1.00  0.00    -0.291 OA
ATOM     33  C   UNL     1      61.540  88.338  79.311  1.00  0.00    -0.008 C 
ATOM     34  C   UNL     1      60.489  88.846  80.217  1.00  0.00     0.048 C 
BRANCH  27  35
ATOM     35  O   UNL     1      63.595  89.208  76.967  1.00  0.00    -0.381 OA
ATOM     36  H   UNL     1      62.665  89.317  76.707  1.00  0.00     0.212 HD
ENDBRANCH  27  35
ENDBRANCH  26  27
ENDBRANCH   2  26
ENDBRANCH   1   2
BRANCH   1  37
ATOM     37  O   UNL     1      66.927  85.671  79.384  1.00  0.00    -0.461 OA
BRANCH  37  38
ATOM     38  C   UNL     1      67.355  86.098  80.619  1.00  0.00     0.310 C 
ATOM     39  O   UNL     1      67.690  87.243  80.890  1.00  0.00    -0.252 OA
BRANCH  38  40
ATOM     40  C   UNL     1      67.345  84.937  81.585  1.00  0.00     0.158 C 
BRANCH  40  41
ATOM     41  C   UNL     1      66.288  85.067  82.650  1.00  0.00    -0.037 A 
ATOM     42  C   UNL     1      65.302  86.047  82.538  1.00  0.00     0.008 A 
ATOM     43  C   UNL     1      66.294  84.208  83.748  1.00  0.00     0.008 A 
ATOM     44  C   UNL     1      64.323  86.168  83.525  1.00  0.00     0.046 A 
ATOM     45  C   UNL     1      65.316  84.328  84.735  1.00  0.00     0.046 A 
ATOM     46  C   UNL     1      64.330  85.308  84.624  1.00  0.00     0.115 A 
BRANCH  46  47
ATOM     47  O   UNL     1      63.376  85.426  85.586  1.00  0.00    -0.508 OA
ATOM     48  H   UNL     1      62.639  84.827  85.375  1.00  0.00     0.293 HD
ENDBRANCH  46  47
ENDBRANCH  40  41
ENDBRANCH  38  40
ENDBRANCH  37  38
ENDBRANCH   1  37
TORSDOF 10
ENDMDL
MODEL 4
REMARK VINA RESULT:    -6.823     19.308     22.833
REMARK INTER + INTRA:         -12.579
REMARK INTER:                 -10.930
REMARK INTRA:                  -1.649
REMARK UNBOUND:                -0.970
REMARK SMILES C=C(C)[C@]12C[C@@H](C)[C@@]34O[C@](Cc5ccccc5)(O[C@@H]1[C@@H]3C=C(COC(=O)Cc1ccc(O)cc1)C[C@]1(O)C(=O)C(C)=C[C@@H]41)O2
REMARK SMILES IDX 23 1 22 2 21 3 20 4 9 5 8 6 10 7 6 8 18 10 44 11 19 12 5 13
REMARK SMILES IDX 7 14 4 15 11 16 12 17 13 18 17 19 14 20 16 21 15 22 2 23
REMARK SMILES IDX 3 24 1 25 35 26 36 27 43 28 38 29 42 30 39 32 40 33 41 34
REMARK SMILES IDX 37 35 24 37 25 38 26 39 27 40 28 41 29 42 34 43 30 44 33 45
REMARK SMILES IDX 31 46 32 47
REMARK H PARENT 37 36 32 48
REMARK Flexibility Score: 90.00
ROOT
ATOM      1  C   UNL     1      75.053  94.847  64.661  1.00  0.00     0.264 C 
ENDROOT
BRANCH   1   2
ATOM      2  C   UNL     1      74.605  93.673  65.500  1.00  0.00    -0.033 C 
ATOM      3  C   UNL     1      74.647  92.431  64.974  1.00  0.00    -0.015 C 
BRANCH   3   4
ATOM      4  C   UNL     1      74.187  91.112  65.574  1.00  0.00     0.078 C 
ATOM      5  O   UNL     1      76.152  90.103  66.686  1.00  0.00    -0.319 OA
ATOM      6  C   UNL     1      74.820  90.650  66.938  1.00  0.00     0.095 CG0
ATOM      7  C   UNL     1      76.257  89.246  65.532  1.00  0.00     0.289 C 
ATOM      8  C   UNL     1      73.892  89.513  67.536  1.00  0.00     0.023 C 
ATOM      9  G   UNL     1      75.072  91.869  67.873  1.00  0.00     0.000 G0
ATOM     10  O   UNL     1      75.845  89.921  64.347  1.00  0.00    -0.320 OA
ATOM     11  O   UNL     1      75.421  88.096  65.633  1.00  0.00    -0.313 OA
ATOM     12  C   UNL     1      74.425  89.963  64.564  1.00  0.00     0.170 C 
ATOM     13  C   UNL     1      73.241  88.654  66.409  1.00  0.00     0.049 C 
ATOM     14  C   UNL     1      74.563  88.584  68.562  1.00  0.00     0.011 C 
ATOM     15  C   UNL     1      74.138  88.569  65.173  1.00  0.00     0.122 C 
BRANCH   7  16
ATOM     16  C   UNL     1      77.702  88.808  65.397  1.00  0.00     0.135 C 
BRANCH  16  17
ATOM     17  C   UNL     1      77.872  87.331  65.650  1.00  0.00    -0.040 A 
ATOM     18  C   UNL     1      77.836  86.432  64.584  1.00  0.00     0.004 A 
ATOM     19  C   UNL     1      78.066  86.865  66.950  1.00  0.00     0.004 A 
ATOM     20  C   UNL     1      77.994  85.066  64.819  1.00  0.00     0.000 A 
ATOM     21  C   UNL     1      78.224  85.499  67.184  1.00  0.00     0.000 A 
ATOM     22  C   UNL     1      78.188  84.600  66.119  1.00  0.00     0.000 A 
ENDBRANCH  16  17
ENDBRANCH   7  16
BRANCH  15  23
ATOM     23  C   UNL     1      73.620  87.607  64.154  1.00  0.00    -0.046 C 
ATOM     24  C   UNL     1      72.164  87.259  64.252  1.00  0.00     0.042 C 
ATOM     25  C   UNL     1      74.411  87.085  63.205  1.00  0.00     0.010 C 
ENDBRANCH  15  23
ENDBRANCH   3   4
BRANCH   2  26
ATOM     26  C   UNL     1      74.154  94.074  66.892  1.00  0.00     0.078 C 
BRANCH  26  27
ATOM     27  C   UNL     1      73.917  92.951  67.900  1.00  0.00     0.140 C 
ATOM     28  C   UNL     1      75.042  91.896  67.873  1.00  0.00     0.086 CG0
ATOM     29  C   UNL     1      73.962  93.438  69.333  1.00  0.00     0.190 C 
ATOM     30  C   UNL     1      75.349  91.675  69.328  1.00  0.00    -0.010 C 
ATOM     31  G   UNL     1      74.807  90.666  66.948  1.00  0.00     0.000 G0
ATOM     32  O   UNL     1      73.366  94.412  69.768  1.00  0.00    -0.291 OA
ATOM     33  C   UNL     1      74.781  92.543  70.171  1.00  0.00    -0.008 C 
ATOM     34  C   UNL     1      74.922  92.678  71.636  1.00  0.00     0.048 C 
BRANCH  27  35
ATOM     35  O   UNL     1      72.615  92.404  67.769  1.00  0.00    -0.381 OA
ATOM     36  H   UNL     1      72.056  92.772  68.474  1.00  0.00     0.212 HD
ENDBRANCH  27  35
ENDBRANCH  26  27
ENDBRANCH   2  26
ENDBRANCH   1   2
BRANCH   1  37
ATOM     37  O   UNL     1      76.407  94.671  64.299  1.00  0.00    -0.461 OA
BRANCH  37  38
ATOM     38  C   UNL     1      77.296  95.589  64.809  1.00  0.00     0.310 C 
ATOM     39  O   UNL     1      77.190  96.803  64.703  1.00  0.00    -0.252 OA
BRANCH  38  40
ATOM     40  C   UNL     1      78.416  94.866  65.518  1.00  0.00     0.158 C 
BRANCH  40  41
ATOM     41  C   UNL     1      78.483  95.184  66.989  1.00  0.00    -0.037 A 
ATOM     42  C   UNL     1      77.418  94.849  67.825  1.00  0.00     0.008 A 
ATOM     43  C   UNL     1      79.610  95.815  67.516  1.00  0.00     0.008 A 
ATOM     44  C   UNL     1      77.480  95.144  69.187  1.00  0.00     0.046 A 
ATOM     45  C   UNL     1      79.673  96.110  68.878  1.00  0.00     0.046 A 
ATOM     46  C   UNL     1      78.608  95.775  69.713  1.00  0.00     0.115 A 
BRANCH  46  47
ATOM     47  O   UNL     1      78.668  96.063  71.042  1.00  0.00    -0.508 OA
ATOM     48  H   UNL     1      79.507  95.725  71.401  1.00  0.00     0.293 HD
ENDBRANCH  46  47
ENDBRANCH  40  41
ENDBRANCH  38  40
ENDBRANCH  37  38
ENDBRANCH   1  37
TORSDOF 10
ENDMDL
MODEL 5
REMARK VINA RESULT:    -6.547     18.518     21.653
REMARK INTER + INTRA:         -12.109
REMARK INTER:                 -10.545
REMARK INTRA:                  -1.564
REMARK UNBOUND:                -0.970
REMARK SMILES C=C(C)[C@]12C[C@@H](C)[C@@]34O[C@](Cc5ccccc5)(O[C@@H]1[C@@H]3C=C(COC(=O)Cc1ccc(O)cc1)C[C@]1(O)C(=O)C(C)=C[C@@H]41)O2
REMARK SMILES IDX 23 1 22 2 21 3 20 4 9 5 8 6 10 7 6 8 18 10 44 11 19 12 5 13
REMARK SMILES IDX 7 14 4 15 11 16 12 17 13 18 17 19 14 20 16 21 15 22 2 23
REMARK SMILES IDX 3 24 1 25 35 26 36 27 43 28 38 29 42 30 39 32 40 33 41 34
REMARK SMILES IDX 37 35 24 37 25 38 26 39 27 40 28 41 29 42 34 43 30 44 33 45
REMARK SMILES IDX 31 46 32 47
REMARK H PARENT 37 36 32 48
REMARK Flexibility Score: 90.00
ROOT
ATOM      1  C   UNL     1      66.566  86.913  79.923  1.00  0.00     0.264 C 
ENDROOT
BRANCH   1   2
ATOM      2  C   UNL     1      65.447  87.308  78.986  1.00  0.00    -0.033 C 
ATOM      3  C   UNL     1      65.368  86.725  77.772  1.00  0.00    -0.015 C 
BRANCH   3   4
ATOM      4  C   UNL     1      64.399  86.997  76.632  1.00  0.00     0.078 C 
ATOM      5  O   UNL     1      62.500  85.438  76.914  1.00  0.00    -0.319 OA
ATOM      6  C   UNL     1      62.858  86.855  76.911  1.00  0.00     0.095 CG0
ATOM      7  C   UNL     1      63.104  84.649  75.870  1.00  0.00     0.289 C 
ATOM      8  C   UNL     1      62.088  87.587  75.735  1.00  0.00     0.023 C 
ATOM      9  G   UNL     1      62.507  87.347  78.346  1.00  0.00     0.000 G0
ATOM     10  O   UNL     1      64.526  84.728  75.919  1.00  0.00    -0.320 OA
ATOM     11  O   UNL     1      62.737  85.100  74.568  1.00  0.00    -0.313 OA
ATOM     12  C   UNL     1      64.719  86.067  75.436  1.00  0.00     0.170 C 
ATOM     13  C   UNL     1      62.861  87.469  74.385  1.00  0.00     0.049 C 
ATOM     14  C   UNL     1      60.629  87.148  75.526  1.00  0.00     0.011 C 
ATOM     15  C   UNL     1      63.667  86.171  74.306  1.00  0.00     0.122 C 
BRANCH   7  16
ATOM     16  C   UNL     1      62.664  83.210  76.048  1.00  0.00     0.135 C 
BRANCH  16  17
ATOM     17  C   UNL     1      63.361  82.281  75.086  1.00  0.00    -0.040 A 
ATOM     18  C   UNL     1      62.926  82.192  73.764  1.00  0.00     0.004 A 
ATOM     19  C   UNL     1      64.440  81.511  75.519  1.00  0.00     0.004 A 
ATOM     20  C   UNL     1      63.572  81.333  72.873  1.00  0.00     0.000 A 
ATOM     21  C   UNL     1      65.085  80.652  74.629  1.00  0.00     0.000 A 
ATOM     22  C   UNL     1      64.651  80.564  73.307  1.00  0.00     0.000 A 
ENDBRANCH  16  17
ENDBRANCH   7  16
BRANCH  15  23
ATOM     23  C   UNL     1      64.268  85.951  72.956  1.00  0.00    -0.046 C 
ATOM     24  C   UNL     1      65.748  86.172  72.847  1.00  0.00     0.042 C 
ATOM     25  C   UNL     1      63.528  85.578  71.902  1.00  0.00     0.010 C 
ENDBRANCH  15  23
ENDBRANCH   3   4
BRANCH   2  26
ATOM     26  C   UNL     1      64.518  88.352  79.575  1.00  0.00     0.078 C 
BRANCH  26  27
ATOM     27  C   UNL     1      63.244  88.672  78.795  1.00  0.00     0.140 C 
ATOM     28  C   UNL     1      62.502  87.398  78.340  1.00  0.00     0.086 CG0
ATOM     29  C   UNL     1      62.203  89.368  79.646  1.00  0.00     0.190 C 
ATOM     30  C   UNL     1      61.069  87.682  78.694  1.00  0.00    -0.010 C 
ATOM     31  G   UNL     1      62.848  86.875  76.915  1.00  0.00     0.000 G0
ATOM     32  O   UNL     1      62.407  90.334  80.366  1.00  0.00    -0.291 OA
ATOM     33  C   UNL     1      60.870  88.766  79.450  1.00  0.00    -0.008 C 
ATOM     34  C   UNL     1      59.626  89.295  80.046  1.00  0.00     0.048 C 
BRANCH  27  35
ATOM     35  O   UNL     1      63.496  89.593  77.747  1.00  0.00    -0.381 OA
ATOM     36  H   UNL     1      62.861  90.326  77.824  1.00  0.00     0.212 HD
ENDBRANCH  27  35
ENDBRANCH  26  27
ENDBRANCH   2  26
ENDBRANCH   1   2
BRANCH   1  37
ATOM     37  O   UNL     1      66.106  86.985  81.255  1.00  0.00    -0.461 OA
BRANCH  37  38
ATOM     38  C   UNL     1      66.215  85.833  81.999  1.00  0.00     0.310 C 
ATOM     39  O   UNL     1      66.735  84.795  81.614  1.00  0.00    -0.252 OA
BRANCH  38  40
ATOM     40  C   UNL     1      65.594  86.050  83.358  1.00  0.00     0.158 C 
BRANCH  40  41
ATOM     41  C   UNL     1      64.406  86.976  83.321  1.00  0.00    -0.037 A 
ATOM     42  C   UNL     1      63.218  86.562  82.716  1.00  0.00     0.008 A 
ATOM     43  C   UNL     1      64.492  88.246  83.889  1.00  0.00     0.008 A 
ATOM     44  C   UNL     1      62.118  87.419  82.681  1.00  0.00     0.046 A 
ATOM     45  C   UNL     1      63.392  89.103  83.855  1.00  0.00     0.046 A 
ATOM     46  C   UNL     1      62.205  88.690  83.250  1.00  0.00     0.115 A 
BRANCH  46  47
ATOM     47  O   UNL     1      61.132  89.526  83.215  1.00  0.00    -0.508 OA
ATOM     48  H   UNL     1      61.448  90.446  83.252  1.00  0.00     0.293 HD
ENDBRANCH  46  47
ENDBRANCH  40  41
ENDBRANCH  38  40
ENDBRANCH  37  38
ENDBRANCH   1  37
TORSDOF 10
ENDMDL
MODEL 6
REMARK VINA RESULT:    -6.477     20.227     23.936
REMARK INTER + INTRA:         -11.990
REMARK INTER:                 -12.006
REMARK INTRA:                   0.017
REMARK UNBOUND:                -0.970
REMARK SMILES C=C(C)[C@]12C[C@@H](C)[C@@]34O[C@](Cc5ccccc5)(O[C@@H]1[C@@H]3C=C(COC(=O)Cc1ccc(O)cc1)C[C@]1(O)C(=O)C(C)=C[C@@H]41)O2
REMARK SMILES IDX 23 1 22 2 21 3 20 4 9 5 8 6 10 7 6 8 18 10 44 11 19 12 5 13
REMARK SMILES IDX 7 14 4 15 11 16 12 17 13 18 17 19 14 20 16 21 15 22 2 23
REMARK SMILES IDX 3 24 1 25 35 26 36 27 43 28 38 29 42 30 39 32 40 33 41 34
REMARK SMILES IDX 37 35 24 37 25 38 26 39 27 40 28 41 29 42 34 43 30 44 33 45
REMARK SMILES IDX 31 46 32 47
REMARK H PARENT 37 36 32 48
REMARK Flexibility Score: 90.00
ROOT
ATOM      1  C   UNL     1      67.021  86.933  71.111  1.00  0.00     0.264 C 
ENDROOT
BRANCH   1   2
ATOM      2  C   UNL     1      65.954  86.907  72.182  1.00  0.00    -0.033 C 
ATOM      3  C   UNL     1      64.726  86.438  71.877  1.00  0.00    -0.015 C 
BRANCH   3   4
ATOM      4  C   UNL     1      63.475  86.377  72.739  1.00  0.00     0.078 C 
ATOM      5  O   UNL     1      63.458  84.155  73.826  1.00  0.00    -0.319 OA
ATOM      6  C   UNL     1      63.542  85.589  74.099  1.00  0.00     0.095 CG0
ATOM      7  C   UNL     1      62.483  83.774  72.836  1.00  0.00     0.289 C 
ATOM      8  C   UNL     1      62.294  86.030  74.969  1.00  0.00     0.023 C 
ATOM      9  G   UNL     1      64.930  85.774  74.778  1.00  0.00     0.000 G0
ATOM     10  O   UNL     1      62.723  84.428  71.593  1.00  0.00    -0.320 OA
ATOM     11  O   UNL     1      61.157  84.136  73.212  1.00  0.00    -0.313 OA
ATOM     12  C   UNL     1      62.308  85.762  71.928  1.00  0.00     0.170 C 
ATOM     13  C   UNL     1      61.057  86.351  74.075  1.00  0.00     0.049 C 
ATOM     14  C   UNL     1      61.879  85.046  76.077  1.00  0.00     0.011 C 
ATOM     15  C   UNL     1      61.050  85.513  72.796  1.00  0.00     0.122 C 
BRANCH   7  16
ATOM     16  C   UNL     1      62.561  82.271  72.647  1.00  0.00     0.135 C 
BRANCH  16  17
ATOM     17  C   UNL     1      63.619  81.645  73.522  1.00  0.00    -0.040 A 
ATOM     18  C   UNL     1      64.596  80.826  72.957  1.00  0.00     0.004 A 
ATOM     19  C   UNL     1      63.619  81.887  74.895  1.00  0.00     0.004 A 
ATOM     20  C   UNL     1      65.575  80.248  73.766  1.00  0.00     0.000 A 
ATOM     21  C   UNL     1      64.598  81.308  75.704  1.00  0.00     0.000 A 
ATOM     22  C   UNL     1      65.575  80.489  75.140  1.00  0.00     0.000 A 
ENDBRANCH  16  17
ENDBRANCH   7  16
BRANCH  15  23
ATOM     23  C   UNL     1      59.787  85.671  72.013  1.00  0.00    -0.046 C 
ATOM     24  C   UNL     1      59.339  84.472  71.231  1.00  0.00     0.042 C 
ATOM     25  C   UNL     1      59.094  86.819  72.010  1.00  0.00     0.010 C 
ENDBRANCH  15  23
ENDBRANCH   3   4
BRANCH   2  26
ATOM     26  C   UNL     1      66.440  87.431  73.520  1.00  0.00     0.078 C 
BRANCH  26  27
ATOM     27  C   UNL     1      65.525  87.222  74.725  1.00  0.00     0.140 C 
ATOM     28  C   UNL     1      64.932  85.798  74.768  1.00  0.00     0.086 CG0
ATOM     29  C   UNL     1      66.270  87.304  76.040  1.00  0.00     0.190 C 
ATOM     30  C   UNL     1      65.121  85.384  76.201  1.00  0.00    -0.010 C 
ATOM     31  G   UNL     1      63.540  85.614  74.097  1.00  0.00     0.000 G0
ATOM     32  O   UNL     1      67.049  88.190  76.359  1.00  0.00    -0.291 OA
ATOM     33  C   UNL     1      65.891  86.194  76.934  1.00  0.00    -0.008 C 
ATOM     34  C   UNL     1      66.352  86.060  78.332  1.00  0.00     0.048 C 
BRANCH  27  35
ATOM     35  O   UNL     1      64.553  88.250  74.822  1.00  0.00    -0.381 OA
ATOM     36  H   UNL     1      64.597  88.629  75.716  1.00  0.00     0.212 HD
ENDBRANCH  27  35
ENDBRANCH  26  27
ENDBRANCH   2  26
ENDBRANCH   1   2
BRANCH   1  37
ATOM     37  O   UNL     1      66.451  86.556  69.876  1.00  0.00    -0.461 OA
BRANCH  37  38
ATOM     38  C   UNL     1      67.335  86.307  68.851  1.00  0.00     0.310 C 
ATOM     39  O   UNL     1      67.176  86.652  67.688  1.00  0.00    -0.252 OA
BRANCH  38  40
ATOM     40  C   UNL     1      68.524  85.546  69.384  1.00  0.00     0.158 C 
BRANCH  40  41
ATOM     41  C   UNL     1      69.822  85.953  68.736  1.00  0.00    -0.037 A 
ATOM     42  C   UNL     1      70.550  85.027  67.989  1.00  0.00     0.008 A 
ATOM     43  C   UNL     1      70.296  87.256  68.882  1.00  0.00     0.008 A 
ATOM     44  C   UNL     1      71.752  85.403  67.390  1.00  0.00     0.046 A 
ATOM     45  C   UNL     1      71.498  87.634  68.282  1.00  0.00     0.046 A 
ATOM     46  C   UNL     1      72.226  86.707  67.537  1.00  0.00     0.115 A 
BRANCH  46  47
ATOM     47  O   UNL     1      73.398  87.075  66.952  1.00  0.00    -0.508 OA
ATOM     48  H   UNL     1      73.911  87.611  67.582  1.00  0.00     0.293 HD
ENDBRANCH  46  47
ENDBRANCH  40  41
ENDBRANCH  38  40
ENDBRANCH  37  38
ENDBRANCH   1  37
TORSDOF 10
ENDMDL
MODEL 7
REMARK VINA RESULT:    -6.474     20.411     23.673
REMARK INTER + INTRA:         -11.985
REMARK INTER:                 -10.981
REMARK INTRA:                  -1.004
REMARK UNBOUND:                -0.970
REMARK SMILES C=C(C)[C@]12C[C@@H](C)[C@@]34O[C@](Cc5ccccc5)(O[C@@H]1[C@@H]3C=C(COC(=O)Cc1ccc(O)cc1)C[C@]1(O)C(=O)C(C)=C[C@@H]41)O2
REMARK SMILES IDX 23 1 22 2 21 3 20 4 9 5 8 6 10 7 6 8 18 10 44 11 19 12 5 13
REMARK SMILES IDX 7 14 4 15 11 16 12 17 13 18 17 19 14 20 16 21 15 22 2 23
REMARK SMILES IDX 3 24 1 25 35 26 36 27 43 28 38 29 42 30 39 32 40 33 41 34
REMARK SMILES IDX 37 35 24 37 25 38 26 39 27 40 28 41 29 42 34 43 30 44 33 45
REMARK SMILES IDX 31 46 32 47
REMARK H PARENT 37 36 32 48
REMARK Flexibility Score: 90.00
ROOT
ATOM      1  C   UNL     1      77.102  91.991  63.947  1.00  0.00     0.264 C 
ENDROOT
BRANCH   1   2
ATOM      2  C   UNL     1      76.646  93.048  64.927  1.00  0.00    -0.033 C 
ATOM      3  C   UNL     1      75.464  92.894  65.559  1.00  0.00    -0.015 C 
BRANCH   3   4
ATOM      4  C   UNL     1      74.754  93.835  66.519  1.00  0.00     0.078 C 
ATOM      5  O   UNL     1      75.450  93.194  68.804  1.00  0.00    -0.319 OA
ATOM      6  C   UNL     1      75.507  94.279  67.826  1.00  0.00     0.095 CG0
ATOM      7  C   UNL     1      74.176  92.532  68.914  1.00  0.00     0.289 C 
ATOM      8  C   UNL     1      74.754  95.547  68.406  1.00  0.00     0.023 C 
ATOM      9  G   UNL     1      77.027  94.474  67.550  1.00  0.00     0.000 G0
ATOM     10  O   UNL     1      73.760  91.997  67.661  1.00  0.00    -0.320 OA
ATOM     11  O   UNL     1      73.136  93.421  69.318  1.00  0.00    -0.313 OA
ATOM     12  C   UNL     1      73.412  93.208  66.973  1.00  0.00     0.170 C 
ATOM     13  C   UNL     1      73.221  95.479  68.126  1.00  0.00     0.049 C 
ATOM     14  C   UNL     1      74.987  95.828  69.901  1.00  0.00     0.011 C 
ATOM     15  C   UNL     1      72.717  94.036  68.082  1.00  0.00     0.122 C 
BRANCH   7  16
ATOM     16  C   UNL     1      74.307  91.416  69.931  1.00  0.00     0.135 C 
BRANCH  16  17
ATOM     17  C   UNL     1      74.368  90.058  69.277  1.00  0.00    -0.040 A 
ATOM     18  C   UNL     1      75.415  89.747  68.411  1.00  0.00     0.004 A 
ATOM     19  C   UNL     1      73.376  89.114  69.540  1.00  0.00     0.004 A 
ATOM     20  C   UNL     1      75.472  88.491  67.806  1.00  0.00     0.000 A 
ATOM     21  C   UNL     1      73.433  87.857  68.936  1.00  0.00     0.000 A 
ATOM     22  C   UNL     1      74.480  87.547  68.069  1.00  0.00     0.000 A 
ENDBRANCH  16  17
ENDBRANCH   7  16
BRANCH  15  23
ATOM     23  C   UNL     1      71.228  93.951  67.996  1.00  0.00    -0.046 C 
ATOM     24  C   UNL     1      70.539  93.240  69.123  1.00  0.00     0.042 C 
ATOM     25  C   UNL     1      70.545  94.479  66.969  1.00  0.00     0.010 C 
ENDBRANCH  15  23
ENDBRANCH   3   4
BRANCH   2  26
ATOM     26  C   UNL     1      77.635  94.189  65.076  1.00  0.00     0.078 C 
BRANCH  26  27
ATOM     27  C   UNL     1      77.378  95.193  66.197  1.00  0.00     0.140 C 
ATOM     28  C   UNL     1      77.017  94.502  67.528  1.00  0.00     0.086 CG0
ATOM     29  C   UNL     1      78.617  95.981  66.566  1.00  0.00     0.190 C 
ATOM     30  C   UNL     1      77.864  95.224  68.539  1.00  0.00    -0.010 C 
ATOM     31  G   UNL     1      75.498  94.303  67.808  1.00  0.00     0.000 G0
ATOM     32  O   UNL     1      79.360  96.543  65.775  1.00  0.00    -0.291 OA
ATOM     33  C   UNL     1      78.792  96.040  68.029  1.00  0.00    -0.008 C 
ATOM     34  C   UNL     1      79.837  96.834  68.708  1.00  0.00     0.048 C 
BRANCH  27  35
ATOM     35  O   UNL     1      76.451  96.189  65.799  1.00  0.00    -0.381 OA
ATOM     36  H   UNL     1      76.083  95.938  64.934  1.00  0.00     0.212 HD
ENDBRANCH  27  35
ENDBRANCH  26  27
ENDBRANCH   2  26
ENDBRANCH   1   2
BRANCH   1  37
ATOM     37  O   UNL     1      75.973  91.384  63.357  1.00  0.00    -0.461 OA
BRANCH  37  38
ATOM     38  C   UNL     1      75.865  90.021  63.513  1.00  0.00     0.310 C 
ATOM     39  O   UNL     1      74.849  89.430  63.850  1.00  0.00    -0.252 OA
BRANCH  38  40
ATOM     40  C   UNL     1      77.193  89.372  63.204  1.00  0.00     0.158 C 
BRANCH  40  41
ATOM     41  C   UNL     1      77.541  88.260  64.159  1.00  0.00    -0.037 A 
ATOM     42  C   UNL     1      77.397  86.930  63.763  1.00  0.00     0.008 A 
ATOM     43  C   UNL     1      78.006  88.559  65.439  1.00  0.00     0.008 A 
ATOM     44  C   UNL     1      77.718  85.900  64.648  1.00  0.00     0.046 A 
ATOM     45  C   UNL     1      78.327  87.530  66.324  1.00  0.00     0.046 A 
ATOM     46  C   UNL     1      78.183  86.201  65.929  1.00  0.00     0.115 A 
BRANCH  46  47
ATOM     47  O   UNL     1      78.496  85.196  66.792  1.00  0.00    -0.508 OA
ATOM     48  H   UNL     1      77.942  84.422  66.589  1.00  0.00     0.293 HD
ENDBRANCH  46  47
ENDBRANCH  40  41
ENDBRANCH  38  40
ENDBRANCH  37  38
ENDBRANCH   1  37
TORSDOF 10
ENDMDL
MODEL 8
REMARK VINA RESULT:    -6.307     25.574     29.143
REMARK INTER + INTRA:         -11.701
REMARK INTER:                 -11.009
REMARK INTRA:                  -0.692
REMARK UNBOUND:                -0.970
REMARK SMILES C=C(C)[C@]12C[C@@H](C)[C@@]34O[C@](Cc5ccccc5)(O[C@@H]1[C@@H]3C=C(COC(=O)Cc1ccc(O)cc1)C[C@]1(O)C(=O)C(C)=C[C@@H]41)O2
REMARK SMILES IDX 23 1 22 2 21 3 20 4 9 5 8 6 10 7 6 8 18 10 44 11 19 12 5 13
REMARK SMILES IDX 7 14 4 15 11 16 12 17 13 18 17 19 14 20 16 21 15 22 2 23
REMARK SMILES IDX 3 24 1 25 35 26 36 27 43 28 38 29 42 30 39 32 40 33 41 34
REMARK SMILES IDX 37 35 24 37 25 38 26 39 27 40 28 41 29 42 34 43 30 44 33 45
REMARK SMILES IDX 31 46 32 47
REMARK H PARENT 37 36 32 48
REMARK Flexibility Score: 90.00
ROOT
ATOM      1  C   UNL     1      58.153  88.713  69.669  1.00  0.00     0.264 C 
ENDROOT
BRANCH   1   2
ATOM      2  C   UNL     1      59.541  88.214  69.343  1.00  0.00    -0.033 C 
ATOM      3  C   UNL     1      60.286  87.653  70.319  1.00  0.00    -0.015 C 
BRANCH   3   4
ATOM      4  C   UNL     1      61.719  87.148  70.269  1.00  0.00     0.078 C 
ATOM      5  O   UNL     1      61.618  84.753  69.659  1.00  0.00    -0.319 OA
ATOM      6  C   UNL     1      62.092  86.057  69.199  1.00  0.00     0.095 CG0
ATOM      7  C   UNL     1      61.840  84.476  71.055  1.00  0.00     0.289 C 
ATOM      8  C   UNL     1      63.671  86.027  69.075  1.00  0.00     0.023 C 
ATOM      9  G   UNL     1      61.322  86.302  67.868  1.00  0.00     0.000 G0
ATOM     10  O   UNL     1      61.232  85.464  71.882  1.00  0.00    -0.320 OA
ATOM     11  O   UNL     1      63.224  84.486  71.397  1.00  0.00    -0.313 OA
ATOM     12  C   UNL     1      62.120  86.568  71.648  1.00  0.00     0.170 C 
ATOM     13  C   UNL     1      64.358  86.346  70.438  1.00  0.00     0.049 C 
ATOM     14  C   UNL     1      64.264  84.731  68.496  1.00  0.00     0.011 C 
ATOM     15  C   UNL     1      63.508  85.883  71.622  1.00  0.00     0.122 C 
BRANCH   7  16
ATOM     16  C   UNL     1      61.254  83.113  71.368  1.00  0.00     0.135 C 
BRANCH  16  17
ATOM     17  C   UNL     1      62.167  82.291  72.242  1.00  0.00    -0.040 A 
ATOM     18  C   UNL     1      61.935  82.214  73.615  1.00  0.00     0.004 A 
ATOM     19  C   UNL     1      63.242  81.607  71.677  1.00  0.00     0.004 A 
ATOM     20  C   UNL     1      62.779  81.453  74.424  1.00  0.00     0.000 A 
ATOM     21  C   UNL     1      64.087  80.846  72.486  1.00  0.00     0.000 A 
ATOM     22  C   UNL     1      63.855  80.769  73.858  1.00  0.00     0.000 A 
ENDBRANCH  16  17
ENDBRANCH   7  16
BRANCH  15  23
ATOM     23  C   UNL     1      64.223  86.013  72.928  1.00  0.00    -0.046 C 
ATOM     24  C   UNL     1      64.243  84.789  73.796  1.00  0.00     0.042 C 
ATOM     25  C   UNL     1      64.813  87.157  73.303  1.00  0.00     0.010 C 
ENDBRANCH  15  23
ENDBRANCH   3   4
BRANCH   2  26
ATOM     26  C   UNL     1      59.921  88.416  67.888  1.00  0.00     0.078 C 
BRANCH  26  27
ATOM     27  C   UNL     1      61.207  87.749  67.403  1.00  0.00     0.140 C 
ATOM     28  C   UNL     1      61.325  86.288  67.886  1.00  0.00     0.086 CG0
ATOM     29  C   UNL     1      61.250  87.598  65.897  1.00  0.00     0.190 C 
ATOM     30  C   UNL     1      61.749  85.544  66.651  1.00  0.00    -0.010 C 
ATOM     31  G   UNL     1      62.103  86.067  69.216  1.00  0.00     0.000 G0
ATOM     32  O   UNL     1      61.004  88.482  65.090  1.00  0.00    -0.291 OA
ATOM     33  C   UNL     1      61.691  86.244  65.513  1.00  0.00    -0.008 C 
ATOM     34  C   UNL     1      61.949  85.820  64.122  1.00  0.00     0.048 C 
BRANCH  27  35
ATOM     35  O   UNL     1      62.345  88.542  67.696  1.00  0.00    -0.381 OA
ATOM     36  H   UNL     1      62.656  88.948  66.869  1.00  0.00     0.212 HD
ENDBRANCH  27  35
ENDBRANCH  26  27
ENDBRANCH   2  26
ENDBRANCH   1   2
BRANCH   1  37
ATOM     37  O   UNL     1      58.177  90.121  69.777  1.00  0.00    -0.461 OA
BRANCH  37  38
ATOM     38  C   UNL     1      57.063  90.785  69.318  1.00  0.00     0.310 C 
ATOM     39  O   UNL     1      56.155  91.203  70.022  1.00  0.00    -0.252 OA
BRANCH  38  40
ATOM     40  C   UNL     1      57.138  90.915  67.815  1.00  0.00     0.158 C 
BRANCH  40  41
ATOM     41  C   UNL     1      56.040  90.166  67.105  1.00  0.00    -0.037 A 
ATOM     42  C   UNL     1      54.829  90.801  66.827  1.00  0.00     0.008 A 
ATOM     43  C   UNL     1      56.233  88.839  66.726  1.00  0.00     0.008 A 
ATOM     44  C   UNL     1      53.812  90.108  66.170  1.00  0.00     0.046 A 
ATOM     45  C   UNL     1      55.217  88.145  66.068  1.00  0.00     0.046 A 
ATOM     46  C   UNL     1      54.007  88.779  65.791  1.00  0.00     0.115 A 
BRANCH  46  47
ATOM     47  O   UNL     1      53.014  88.103  65.150  1.00  0.00    -0.508 OA
ATOM     48  H   UNL     1      52.681  87.401  65.736  1.00  0.00     0.293 HD
ENDBRANCH  46  47
ENDBRANCH  40  41
ENDBRANCH  38  40
ENDBRANCH  37  38
ENDBRANCH   1  37
TORSDOF 10
ENDMDL
MODEL 9
REMARK VINA RESULT:    -6.129     20.713     24.796
REMARK INTER + INTRA:         -11.398
REMARK INTER:                 -10.382
REMARK INTRA:                  -1.016
REMARK UNBOUND:                -0.970
REMARK SMILES C=C(C)[C@]12C[C@@H](C)[C@@]34O[C@](Cc5ccccc5)(O[C@@H]1[C@@H]3C=C(COC(=O)Cc1ccc(O)cc1)C[C@]1(O)C(=O)C(C)=C[C@@H]41)O2
REMARK SMILES IDX 23 1 22 2 21 3 20 4 9 5 8 6 10 7 6 8 18 10 44 11 19 12 5 13
REMARK SMILES IDX 7 14 4 15 11 16 12 17 13 18 17 19 14 20 16 21 15 22 2 23
REMARK SMILES IDX 3 24 1 25 35 26 36 27 43 28 38 29 42 30 39 32 40 33 41 34
REMARK SMILES IDX 37 35 24 37 25 38 26 39 27 40 28 41 29 42 34 43 30 44 33 45
REMARK SMILES IDX 31 46 32 47
REMARK H PARENT 37 36 32 48
REMARK Flexibility Score: 90.00
ROOT
ATOM      1  C   UNL     1      62.420  83.205  69.953  1.00  0.00     0.264 C 
ENDROOT
BRANCH   1   2
ATOM      2  C   UNL     1      62.783  84.582  70.460  1.00  0.00    -0.033 C 
ATOM      3  C   UNL     1      62.114  85.092  71.515  1.00  0.00    -0.015 C 
BRANCH   3   4
ATOM      4  C   UNL     1      62.233  86.464  72.161  1.00  0.00     0.078 C 
ATOM      5  O   UNL     1      63.880  86.257  73.994  1.00  0.00    -0.319 OA
ATOM      6  C   UNL     1      63.636  86.914  72.711  1.00  0.00     0.095 CG0
ATOM      7  C   UNL     1      62.752  86.218  74.889  1.00  0.00     0.289 C 
ATOM      8  C   UNL     1      63.587  88.482  72.926  1.00  0.00     0.023 C 
ATOM      9  G   UNL     1      64.782  86.401  71.789  1.00  0.00     0.000 G0
ATOM     10  O   UNL     1      61.636  85.569  74.286  1.00  0.00    -0.320 OA
ATOM     11  O   UNL     1      62.294  87.521  75.243  1.00  0.00    -0.313 OA
ATOM     12  C   UNL     1      61.239  86.577  73.343  1.00  0.00     0.170 C 
ATOM     13  C   UNL     1      62.164  88.957  73.350  1.00  0.00     0.049 C 
ATOM     14  C   UNL     1      64.627  89.048  73.908  1.00  0.00     0.011 C 
ATOM     15  C   UNL     1      61.424  87.884  74.151  1.00  0.00     0.122 C 
BRANCH   7  16
ATOM     16  C   UNL     1      63.165  85.470  76.141  1.00  0.00     0.135 C 
BRANCH  16  17
ATOM     17  C   UNL     1      64.532  85.888  76.625  1.00  0.00    -0.040 A 
ATOM     18  C   UNL     1      65.626  85.825  75.763  1.00  0.00     0.004 A 
ATOM     19  C   UNL     1      64.699  86.336  77.934  1.00  0.00     0.004 A 
ATOM     20  C   UNL     1      66.890  86.212  76.210  1.00  0.00     0.000 A 
ATOM     21  C   UNL     1      65.963  86.723  78.382  1.00  0.00     0.000 A 
ATOM     22  C   UNL     1      67.057  86.661  77.520  1.00  0.00     0.000 A 
ENDBRANCH  16  17
ENDBRANCH   7  16
BRANCH  15  23
ATOM     23  C   UNL     1      60.136  88.379  74.722  1.00  0.00    -0.046 C 
ATOM     24  C   UNL     1      58.894  87.670  74.267  1.00  0.00     0.042 C 
ATOM     25  C   UNL     1      60.090  89.400  75.590  1.00  0.00     0.010 C 
ENDBRANCH  15  23
ENDBRANCH   3   4
BRANCH   2  26
ATOM     26  C   UNL     1      63.910  85.228  69.677  1.00  0.00     0.078 C 
BRANCH  26  27
ATOM     27  C   UNL     1      64.509  86.512  70.247  1.00  0.00     0.140 C 
ATOM     28  C   UNL     1      64.785  86.406  71.761  1.00  0.00     0.086 CG0
ATOM     29  C   UNL     1      65.884  86.809  69.686  1.00  0.00     0.190 C 
ATOM     30  C   UNL     1      66.170  86.974  71.905  1.00  0.00    -0.010 C 
ATOM     31  G   UNL     1      63.652  86.910  72.701  1.00  0.00     0.000 G0
ATOM     32  O   UNL     1      66.183  86.795  68.501  1.00  0.00    -0.291 OA
ATOM     33  C   UNL     1      66.824  87.185  70.759  1.00  0.00    -0.008 C 
ATOM     34  C   UNL     1      68.207  87.648  70.524  1.00  0.00     0.048 C 
BRANCH  27  35
ATOM     35  O   UNL     1      63.742  87.648  69.882  1.00  0.00    -0.381 OA
ATOM     36  H   UNL     1      62.810  87.380  69.816  1.00  0.00     0.212 HD
ENDBRANCH  27  35
ENDBRANCH  26  27
ENDBRANCH   2  26
ENDBRANCH   1   2
BRANCH   1  37
ATOM     37  O   UNL     1      62.946  82.232  70.830  1.00  0.00    -0.461 OA
BRANCH  37  38
ATOM     38  C   UNL     1      62.052  81.651  71.699  1.00  0.00     0.310 C 
ATOM     39  O   UNL     1      61.106  80.950  71.369  1.00  0.00    -0.252 OA
BRANCH  38  40
ATOM     40  C   UNL     1      62.421  82.013  73.118  1.00  0.00     0.158 C 
BRANCH  40  41
ATOM     41  C   UNL     1      63.797  81.539  73.506  1.00  0.00    -0.037 A 
ATOM     42  C   UNL     1      64.214  80.252  73.167  1.00  0.00     0.008 A 
ATOM     43  C   UNL     1      64.655  82.387  74.206  1.00  0.00     0.008 A 
ATOM     44  C   UNL     1      65.488  79.813  73.527  1.00  0.00     0.046 A 
ATOM     45  C   UNL     1      65.930  81.949  74.566  1.00  0.00     0.046 A 
ATOM     46  C   UNL     1      66.346  80.662  74.227  1.00  0.00     0.115 A 
BRANCH  46  47
ATOM     47  O   UNL     1      67.589  80.233  74.579  1.00  0.00    -0.508 OA
ATOM     48  H   UNL     1      67.819  80.610  75.446  1.00  0.00     0.293 HD
ENDBRANCH  46  47
ENDBRANCH  40  41
ENDBRANCH  38  40
ENDBRANCH  37  38
ENDBRANCH   1  37
TORSDOF 10
ENDMDL
MODEL 10
REMARK VINA RESULT:    -5.951     19.865     23.492
REMARK INTER + INTRA:         -11.095
REMARK INTER:                 -10.235
REMARK INTRA:                  -0.860
REMARK UNBOUND:                -0.970
REMARK SMILES C=C(C)[C@]12C[C@@H](C)[C@@]34O[C@](Cc5ccccc5)(O[C@@H]1[C@@H]3C=C(COC(=O)Cc1ccc(O)cc1)C[C@]1(O)C(=O)C(C)=C[C@@H]41)O2
REMARK SMILES IDX 23 1 22 2 21 3 20 4 9 5 8 6 10 7 6 8 18 10 44 11 19 12 5 13
REMARK SMILES IDX 7 14 4 15 11 16 12 17 13 18 17 19 14 20 16 21 15 22 2 23
REMARK SMILES IDX 3 24 1 25 35 26 36 27 43 28 38 29 42 30 39 32 40 33 41 34
REMARK SMILES IDX 37 35 24 37 25 38 26 39 27 40 28 41 29 42 34 43 30 44 33 45
REMARK SMILES IDX 31 46 32 47
REMARK H PARENT 37 36 32 48
REMARK Flexibility Score: 90.00
ROOT
ATOM      1  C   UNL     1      66.663  88.338  73.873  1.00  0.00     0.264 C 
ENDROOT
BRANCH   1   2
ATOM      2  C   UNL     1      65.725  87.348  73.221  1.00  0.00    -0.033 C 
ATOM      3  C   UNL     1      65.474  86.175  73.836  1.00  0.00    -0.015 C 
BRANCH   3   4
ATOM      4  C   UNL     1      64.641  84.995  73.361  1.00  0.00     0.078 C 
ATOM      5  O   UNL     1      62.344  85.346  74.209  1.00  0.00    -0.319 OA
ATOM      6  C   UNL     1      63.135  85.246  72.983  1.00  0.00     0.095 CG0
ATOM      7  C   UNL     1      62.665  84.379  75.228  1.00  0.00     0.289 C 
ATOM      8  C   UNL     1      62.638  84.000  72.140  1.00  0.00     0.023 C 
ATOM      9  G   UNL     1      62.960  86.631  72.295  1.00  0.00     0.000 G0
ATOM     10  O   UNL     1      64.037  84.456  75.601  1.00  0.00    -0.320 OA
ATOM     11  O   UNL     1      62.459  83.039  74.788  1.00  0.00    -0.313 OA
ATOM     12  C   UNL     1      64.647  83.880  74.435  1.00  0.00     0.170 C 
ATOM     13  C   UNL     1      63.332  82.682  72.603  1.00  0.00     0.049 C 
ATOM     14  C   UNL     1      61.114  83.788  72.107  1.00  0.00     0.011 C 
ATOM     15  C   UNL     1      63.682  82.719  74.091  1.00  0.00     0.122 C 
BRANCH   7  16
ATOM     16  C   UNL     1      61.789  84.653  76.434  1.00  0.00     0.135 C 
BRANCH  16  17
ATOM     17  C   UNL     1      61.190  86.037  76.396  1.00  0.00    -0.040 A 
ATOM     18  C   UNL     1      60.183  86.337  75.479  1.00  0.00     0.004 A 
ATOM     19  C   UNL     1      61.643  87.016  77.279  1.00  0.00     0.004 A 
ATOM     20  C   UNL     1      59.629  87.617  75.444  1.00  0.00     0.000 A 
ATOM     21  C   UNL     1      61.089  88.297  77.245  1.00  0.00     0.000 A 
ATOM     22  C   UNL     1      60.082  88.596  76.327  1.00  0.00     0.000 A 
ENDBRANCH  16  17
ENDBRANCH   7  16
BRANCH  15  23
ATOM     23  C   UNL     1      64.181  81.405  74.596  1.00  0.00    -0.046 C 
ATOM     24  C   UNL     1      64.483  81.331  76.063  1.00  0.00     0.042 C 
ATOM     25  C   UNL     1      64.349  80.350  73.784  1.00  0.00     0.010 C 
ENDBRANCH  15  23
ENDBRANCH   3   4
BRANCH   2  26
ATOM     26  C   UNL     1      65.163  87.841  71.900  1.00  0.00     0.078 C 
BRANCH  26  27
ATOM     27  C   UNL     1      64.035  87.025  71.273  1.00  0.00     0.140 C 
ATOM     28  C   UNL     1      62.963  86.622  72.307  1.00  0.00     0.086 CG0
ATOM     29  C   UNL     1      63.233  87.821  70.266  1.00  0.00     0.190 C 
ATOM     30  C   UNL     1      61.669  86.936  71.609  1.00  0.00    -0.010 C 
ATOM     31  G   UNL     1      63.148  85.231  72.981  1.00  0.00     0.000 G0
ATOM     32  O   UNL     1      63.702  88.496  69.362  1.00  0.00    -0.291 OA
ATOM     33  C   UNL     1      61.785  87.634  70.475  1.00  0.00    -0.008 C 
ATOM     34  C   UNL     1      60.742  88.180  69.583  1.00  0.00     0.048 C 
BRANCH  27  35
ATOM     35  O   UNL     1      64.541  85.936  70.519  1.00  0.00    -0.381 OA
ATOM     36  H   UNL     1      65.300  85.559  70.995  1.00  0.00     0.212 HD
ENDBRANCH  27  35
ENDBRANCH  26  27
ENDBRANCH   2  26
ENDBRANCH   1   2
BRANCH   1  37
ATOM     37  O   UNL     1      66.859  87.975  75.223  1.00  0.00    -0.461 OA
BRANCH  37  38
ATOM     38  C   UNL     1      66.515  88.919  76.163  1.00  0.00     0.310 C 
ATOM     39  O   UNL     1      66.995  90.042  76.238  1.00  0.00    -0.252 OA
BRANCH  38  40
ATOM     40  C   UNL     1      65.458  88.355  77.081  1.00  0.00     0.158 C 
BRANCH  40  41
ATOM     41  C   UNL     1      66.035  87.564  78.226  1.00  0.00    -0.037 A 
ATOM     42  C   UNL     1      66.159  86.178  78.124  1.00  0.00     0.008 A 
ATOM     43  C   UNL     1      66.446  88.217  79.388  1.00  0.00     0.008 A 
ATOM     44  C   UNL     1      66.692  85.446  79.185  1.00  0.00     0.046 A 
ATOM     45  C   UNL     1      66.980  87.485  80.449  1.00  0.00     0.046 A 
ATOM     46  C   UNL     1      67.103  86.099  80.347  1.00  0.00     0.115 A 
BRANCH  46  47
ATOM     47  O   UNL     1      67.623  85.385  81.382  1.00  0.00    -0.508 OA
ATOM     48  H   UNL     1      67.810  85.989  82.121  1.00  0.00     0.293 HD
ENDBRANCH  46  47
ENDBRANCH  40  41
ENDBRANCH  38  40
ENDBRANCH  37  38
ENDBRANCH   1  37
TORSDOF 10
ENDMDL
