MODEL 1
REMARK VINA RESULT:    -6.198      0.000      0.000
REMARK INTER + INTRA:         -11.280
REMARK INTER:                 -10.002
REMARK INTRA:                  -1.278
REMARK UNBOUND:                -1.278
REMARK SMILES COc1cc(CNC(=O)CCCCCCC(C)C)ccc1O
REMARK SMILES IDX 11 1 10 2 8 3 7 4 9 6 6 7 5 8 3 9 21 10 4 11 20 12 19 13
REMARK SMILES IDX 2 14 1 15 22 16 12 18 13 19 14 20 15 21 16 22 17 23 18 24
REMARK H PARENT 7 5 22 17
REMARK Flexibility Score: inf
ROOT
ATOM      1  C   UNL     1      77.000  85.905  66.343  1.00  0.00     0.010 C 
ENDROOT
BRANCH   1   2
ATOM      2  C   UNL     1      78.273  85.046  66.579  1.00  0.00     0.100 C 
BRANCH   2   3
ATOM      3  C   UNL     1      78.012  83.589  66.532  1.00  0.00     0.220 C 
ATOM      4  N   UNL     1      77.136  83.075  65.621  1.00  0.00    -0.352 N 
ATOM      5  H   UNL     1      76.675  83.764  65.044  1.00  0.00     0.163 HD
ATOM      6  O   UNL     1      78.630  82.841  67.328  1.00  0.00    -0.275 OA
BRANCH   4   7
ATOM      7  C   UNL     1      76.849  81.684  65.444  1.00  0.00     0.151 C 
BRANCH   7   8
ATOM      8  C   UNL     1      75.456  81.426  64.987  1.00  0.00    -0.025 A 
ATOM      9  C   UNL     1      73.034  81.455  65.414  1.00  0.00     0.160 A 
ATOM     10  C   UNL     1      72.796  80.978  64.107  1.00  0.00     0.157 A 
ATOM     11  C   UNL     1      74.361  81.657  65.850  1.00  0.00     0.056 A 
ATOM     12  C   UNL     1      73.879  80.706  63.252  1.00  0.00     0.050 A 
ATOM     13  C   UNL     1      75.200  80.938  63.683  1.00  0.00     0.009 A 
BRANCH   9  14
ATOM     14  O   UNL     1      71.989  81.685  66.267  1.00  0.00    -0.493 OA
ATOM     15  C   UNL     1      71.648  83.076  66.405  1.00  0.00     0.278 C 
ENDBRANCH   9  14
BRANCH  10  16
ATOM     16  O   UNL     1      71.528  80.772  63.661  1.00  0.00    -0.504 OA
ATOM     17  H   UNL     1      71.214  81.563  63.216  1.00  0.00     0.293 HD
ENDBRANCH  10  16
ENDBRANCH   7   8
ENDBRANCH   4   7
ENDBRANCH   2   3
ENDBRANCH   1   2
BRANCH   1  18
ATOM     18  C   UNL     1      77.057  87.260  67.105  1.00  0.00     0.001 C 
BRANCH  18  19
ATOM     19  C   UNL     1      78.050  87.264  68.301  1.00  0.00     0.000 C 
BRANCH  19  20
ATOM     20  C   UNL     1      77.341  86.894  69.635  1.00  0.00     0.000 C 
BRANCH  20  21
ATOM     21  C   UNL     1      77.599  85.438  70.111  1.00  0.00     0.003 C 
BRANCH  21  22
ATOM     22  C   UNL     1      76.326  84.529  70.143  1.00  0.00    -0.017 C 
ATOM     23  C   UNL     1      75.125  85.252  69.472  1.00  0.00     0.007 C 
ATOM     24  C   UNL     1      75.941  84.044  71.572  1.00  0.00     0.007 C 
ENDBRANCH  21  22
ENDBRANCH  20  21
ENDBRANCH  19  20
ENDBRANCH  18  19
ENDBRANCH   1  18
TORSDOF 11
ENDMDL
MODEL 2
REMARK VINA RESULT:    -5.618      2.312      6.277
REMARK INTER + INTRA:         -10.345
REMARK INTER:                  -8.410
REMARK INTRA:                  -1.935
REMARK UNBOUND:                -1.278
REMARK SMILES COc1cc(CNC(=O)CCCCCCC(C)C)ccc1O
REMARK SMILES IDX 11 1 10 2 8 3 7 4 9 6 6 7 5 8 3 9 21 10 4 11 20 12 19 13
REMARK SMILES IDX 2 14 1 15 22 16 12 18 13 19 14 20 15 21 16 22 17 23 18 24
REMARK H PARENT 7 5 22 17
REMARK Flexibility Score: inf
ROOT
ATOM      1  C   UNL     1      75.951  81.179  63.542  1.00  0.00     0.010 C 
ENDROOT
BRANCH   1   2
ATOM      2  C   UNL     1      76.524  82.576  63.906  1.00  0.00     0.100 C 
BRANCH   2   3
ATOM      3  C   UNL     1      77.214  82.602  65.216  1.00  0.00     0.220 C 
ATOM      4  N   UNL     1      77.736  83.767  65.697  1.00  0.00    -0.352 N 
ATOM      5  H   UNL     1      77.646  84.557  65.075  1.00  0.00     0.163 HD
ATOM      6  O   UNL     1      77.284  81.539  65.880  1.00  0.00    -0.275 OA
BRANCH   4   7
ATOM      7  C   UNL     1      78.370  83.925  66.970  1.00  0.00     0.151 C 
BRANCH   7   8
ATOM      8  C   UNL     1      77.742  84.980  67.813  1.00  0.00    -0.025 A 
ATOM      9  C   UNL     1      76.370  85.621  69.750  1.00  0.00     0.160 A 
ATOM     10  C   UNL     1      76.577  86.984  69.449  1.00  0.00     0.157 A 
ATOM     11  C   UNL     1      76.937  84.631  68.921  1.00  0.00     0.056 A 
ATOM     12  C   UNL     1      77.345  87.344  68.326  1.00  0.00     0.050 A 
ATOM     13  C   UNL     1      77.932  86.350  67.519  1.00  0.00     0.009 A 
BRANCH   9  14
ATOM     14  O   UNL     1      75.592  85.260  70.817  1.00  0.00    -0.493 OA
ATOM     15  C   UNL     1      76.001  84.029  71.442  1.00  0.00     0.278 C 
ENDBRANCH   9  14
BRANCH  10  16
ATOM     16  O   UNL     1      76.042  87.960  70.229  1.00  0.00    -0.504 OA
ATOM     17  H   UNL     1      75.832  87.598  71.093  1.00  0.00     0.293 HD
ENDBRANCH  10  16
ENDBRANCH   7   8
ENDBRANCH   4   7
ENDBRANCH   2   3
ENDBRANCH   1   2
BRANCH   1  18
ATOM     18  C   UNL     1      74.396  81.179  63.487  1.00  0.00     0.001 C 
BRANCH  18  19
ATOM     19  C   UNL     1      73.720  80.951  64.868  1.00  0.00     0.000 C 
BRANCH  19  20
ATOM     20  C   UNL     1      73.179  82.279  65.467  1.00  0.00     0.000 C 
BRANCH  20  21
ATOM     21  C   UNL     1      74.001  82.817  66.671  1.00  0.00     0.003 C 
BRANCH  21  22
ATOM     22  C   UNL     1      74.233  84.363  66.662  1.00  0.00    -0.017 C 
ATOM     23  C   UNL     1      73.258  85.065  67.648  1.00  0.00     0.007 C 
ATOM     24  C   UNL     1      74.131  85.002  65.246  1.00  0.00     0.007 C 
ENDBRANCH  21  22
ENDBRANCH  20  21
ENDBRANCH  19  20
ENDBRANCH  18  19
ENDBRANCH   1  18
TORSDOF 11
ENDMDL
MODEL 3
REMARK VINA RESULT:    -5.456      2.010      3.109
REMARK INTER + INTRA:         -10.082
REMARK INTER:                  -9.195
REMARK INTRA:                  -0.887
REMARK UNBOUND:                -1.278
REMARK SMILES COc1cc(CNC(=O)CCCCCCC(C)C)ccc1O
REMARK SMILES IDX 11 1 10 2 8 3 7 4 9 6 6 7 5 8 3 9 21 10 4 11 20 12 19 13
REMARK SMILES IDX 2 14 1 15 22 16 12 18 13 19 14 20 15 21 16 22 17 23 18 24
REMARK H PARENT 7 5 22 17
REMARK Flexibility Score: inf
ROOT
ATOM      1  C   UNL     1      76.357  82.786  66.739  1.00  0.00     0.010 C 
ENDROOT
BRANCH   1   2
ATOM      2  C   UNL     1      76.836  81.787  65.650  1.00  0.00     0.100 C 
BRANCH   2   3
ATOM      3  C   UNL     1      75.743  81.310  64.773  1.00  0.00     0.220 C 
ATOM      4  N   UNL     1      74.545  80.934  65.307  1.00  0.00    -0.352 N 
ATOM      5  H   UNL     1      74.503  80.971  66.314  1.00  0.00     0.163 HD
ATOM      6  O   UNL     1      75.936  81.283  63.532  1.00  0.00    -0.275 OA
BRANCH   4   7
ATOM      7  C   UNL     1      73.402  80.513  64.555  1.00  0.00     0.151 C 
BRANCH   7   8
ATOM      8  C   UNL     1      72.206  81.372  64.777  1.00  0.00    -0.025 A 
ATOM      9  C   UNL     1      70.752  82.647  66.296  1.00  0.00     0.160 A 
ATOM     10  C   UNL     1      69.954  83.045  65.201  1.00  0.00     0.157 A 
ATOM     11  C   UNL     1      71.858  81.800  66.078  1.00  0.00     0.056 A 
ATOM     12  C   UNL     1      70.266  82.594  63.906  1.00  0.00     0.050 A 
ATOM     13  C   UNL     1      71.390  81.772  63.692  1.00  0.00     0.009 A 
BRANCH   9  14
ATOM     14  O   UNL     1      70.433  83.048  67.565  1.00  0.00    -0.493 OA
ATOM     15  C   UNL     1      71.229  84.148  68.042  1.00  0.00     0.278 C 
ENDBRANCH   9  14
BRANCH  10  16
ATOM     16  O   UNL     1      68.880  83.859  65.382  1.00  0.00    -0.504 OA
ATOM     17  H   UNL     1      68.585  84.191  64.530  1.00  0.00     0.293 HD
ENDBRANCH  10  16
ENDBRANCH   7   8
ENDBRANCH   4   7
ENDBRANCH   2   3
ENDBRANCH   1   2
BRANCH   1  18
ATOM     18  C   UNL     1      77.186  84.102  66.733  1.00  0.00     0.001 C 
BRANCH  18  19
ATOM     19  C   UNL     1      78.130  84.254  67.959  1.00  0.00     0.000 C 
BRANCH  19  20
ATOM     20  C   UNL     1      78.283  85.742  68.382  1.00  0.00     0.000 C 
BRANCH  20  21
ATOM     21  C   UNL     1      77.506  86.122  69.673  1.00  0.00     0.003 C 
BRANCH  21  22
ATOM     22  C   UNL     1      76.263  85.222  69.971  1.00  0.00    -0.017 C 
ATOM     23  C   UNL     1      75.022  86.099  70.298  1.00  0.00     0.007 C 
ATOM     24  C   UNL     1      76.504  84.177  71.101  1.00  0.00     0.007 C 
ENDBRANCH  21  22
ENDBRANCH  20  21
ENDBRANCH  19  20
ENDBRANCH  18  19
ENDBRANCH   1  18
TORSDOF 11
ENDMDL
MODEL 4
REMARK VINA RESULT:    -5.384     25.494     27.697
REMARK INTER + INTRA:          -9.966
REMARK INTER:                  -9.164
REMARK INTRA:                  -0.801
REMARK UNBOUND:                -1.278
REMARK SMILES COc1cc(CNC(=O)CCCCCCC(C)C)ccc1O
REMARK SMILES IDX 11 1 10 2 8 3 7 4 9 6 6 7 5 8 3 9 21 10 4 11 20 12 19 13
REMARK SMILES IDX 2 14 1 15 22 16 12 18 13 19 14 20 15 21 16 22 17 23 18 24
REMARK H PARENT 7 5 22 17
REMARK Flexibility Score: inf
ROOT
ATOM      1  C   UNL     1      97.952  84.155  85.141  1.00  0.00     0.010 C 
ENDROOT
BRANCH   1   2
ATOM      2  C   UNL     1      97.054  85.399  85.388  1.00  0.00     0.100 C 
BRANCH   2   3
ATOM      3  C   UNL     1      96.259  85.309  86.633  1.00  0.00     0.220 C 
ATOM      4  N   UNL     1      94.899  85.408  86.591  1.00  0.00    -0.352 N 
ATOM      5  H   UNL     1      94.517  85.587  85.673  1.00  0.00     0.163 HD
ATOM      6  O   UNL     1      96.860  85.115  87.718  1.00  0.00    -0.275 OA
BRANCH   4   7
ATOM      7  C   UNL     1      94.026  85.279  87.718  1.00  0.00     0.151 C 
BRANCH   7   8
ATOM      8  C   UNL     1      93.206  84.036  87.686  1.00  0.00    -0.025 A 
ATOM      9  C   UNL     1      91.190  82.797  88.354  1.00  0.00     0.160 A 
ATOM     10  C   UNL     1      91.616  81.687  87.593  1.00  0.00     0.157 A 
ATOM     11  C   UNL     1      91.995  83.954  88.410  1.00  0.00     0.056 A 
ATOM     12  C   UNL     1      92.839  81.743  86.899  1.00  0.00     0.050 A 
ATOM     13  C   UNL     1      93.624  82.912  86.935  1.00  0.00     0.009 A 
BRANCH   9  14
ATOM     14  O   UNL     1      90.022  82.740  89.065  1.00  0.00    -0.493 OA
ATOM     15  C   UNL     1      90.202  82.862  90.488  1.00  0.00     0.278 C 
ENDBRANCH   9  14
BRANCH  10  16
ATOM     16  O   UNL     1      90.861  80.559  87.523  1.00  0.00    -0.504 OA
ATOM     17  H   UNL     1      91.437  79.795  87.445  1.00  0.00     0.293 HD
ENDBRANCH  10  16
ENDBRANCH   7   8
ENDBRANCH   4   7
ENDBRANCH   2   3
ENDBRANCH   1   2
BRANCH   1  18
ATOM     18  C   UNL     1      97.238  83.078  84.276  1.00  0.00     0.001 C 
BRANCH  18  19
ATOM     19  C   UNL     1      98.181  81.943  83.785  1.00  0.00     0.000 C 
BRANCH  19  20
ATOM     20  C   UNL     1      98.946  82.353  82.495  1.00  0.00     0.000 C 
BRANCH  20  21
ATOM     21  C   UNL     1      98.146  83.295  81.553  1.00  0.00     0.003 C 
BRANCH  21  22
ATOM     22  C   UNL     1      98.436  83.090  80.030  1.00  0.00    -0.017 C 
ATOM     23  C   UNL     1      97.210  83.526  79.179  1.00  0.00     0.007 C 
ATOM     24  C   UNL     1      98.863  81.638  79.665  1.00  0.00     0.007 C 
ENDBRANCH  21  22
ENDBRANCH  20  21
ENDBRANCH  19  20
ENDBRANCH  18  19
ENDBRANCH   1  18
TORSDOF 11
ENDMDL
MODEL 5
REMARK VINA RESULT:    -5.276      2.622      3.408
REMARK INTER + INTRA:          -9.793
REMARK INTER:                  -9.237
REMARK INTRA:                  -0.555
REMARK UNBOUND:                -1.278
REMARK SMILES COc1cc(CNC(=O)CCCCCCC(C)C)ccc1O
REMARK SMILES IDX 11 1 10 2 8 3 7 4 9 6 6 7 5 8 3 9 21 10 4 11 20 12 19 13
REMARK SMILES IDX 2 14 1 15 22 16 12 18 13 19 14 20 15 21 16 22 17 23 18 24
REMARK H PARENT 7 5 22 17
REMARK Flexibility Score: inf
ROOT
ATOM      1  C   UNL     1      77.570  86.712  69.326  1.00  0.00     0.010 C 
ENDROOT
BRANCH   1   2
ATOM      2  C   UNL     1      77.516  87.312  67.894  1.00  0.00     0.100 C 
BRANCH   2   3
ATOM      3  C   UNL     1      77.620  86.290  66.827  1.00  0.00     0.220 C 
ATOM      4  N   UNL     1      77.988  85.012  67.131  1.00  0.00    -0.352 N 
ATOM      5  H   UNL     1      78.215  84.859  68.103  1.00  0.00     0.163 HD
ATOM      6  O   UNL     1      77.340  86.620  65.649  1.00  0.00    -0.275 OA
BRANCH   4   7
ATOM      7  C   UNL     1      78.067  83.931  66.196  1.00  0.00     0.151 C 
BRANCH   7   8
ATOM      8  C   UNL     1      76.802  83.153  66.091  1.00  0.00    -0.025 A 
ATOM      9  C   UNL     1      74.371  82.986  66.428  1.00  0.00     0.160 A 
ATOM     10  C   UNL     1      74.378  81.696  65.853  1.00  0.00     0.157 A 
ATOM     11  C   UNL     1      75.583  83.696  66.559  1.00  0.00     0.056 A 
ATOM     12  C   UNL     1      75.591  81.129  65.420  1.00  0.00     0.050 A 
ATOM     13  C   UNL     1      76.793  81.856  65.527  1.00  0.00     0.009 A 
BRANCH   9  14
ATOM     14  O   UNL     1      73.203  83.530  66.889  1.00  0.00    -0.493 OA
ATOM     15  C   UNL     1      72.609  84.479  65.985  1.00  0.00     0.278 C 
ENDBRANCH   9  14
BRANCH  10  16
ATOM     16  O   UNL     1      73.226  80.988  65.716  1.00  0.00    -0.504 OA
ATOM     17  H   UNL     1      72.990  80.596  66.560  1.00  0.00     0.293 HD
ENDBRANCH  10  16
ENDBRANCH   7   8
ENDBRANCH   4   7
ENDBRANCH   2   3
ENDBRANCH   1   2
BRANCH   1  18
ATOM     18  C   UNL     1      76.239  86.011  69.719  1.00  0.00     0.001 C 
BRANCH  18  19
ATOM     19  C   UNL     1      75.221  86.950  70.426  1.00  0.00     0.000 C 
BRANCH  19  20
ATOM     20  C   UNL     1      75.729  88.419  70.464  1.00  0.00     0.000 C 
BRANCH  20  21
ATOM     21  C   UNL     1      74.730  89.422  71.103  1.00  0.00     0.003 C 
BRANCH  21  22
ATOM     22  C   UNL     1      73.309  88.835  71.386  1.00  0.00    -0.017 C 
ATOM     23  C   UNL     1      72.321  89.234  70.254  1.00  0.00     0.007 C 
ATOM     24  C   UNL     1      72.733  89.232  72.777  1.00  0.00     0.007 C 
ENDBRANCH  21  22
ENDBRANCH  20  21
ENDBRANCH  19  20
ENDBRANCH  18  19
ENDBRANCH   1  18
TORSDOF 11
ENDMDL
MODEL 6
REMARK VINA RESULT:    -5.253      2.389      6.287
REMARK INTER + INTRA:          -9.755
REMARK INTER:                  -7.965
REMARK INTRA:                  -1.791
REMARK UNBOUND:                -1.278
REMARK SMILES COc1cc(CNC(=O)CCCCCCC(C)C)ccc1O
REMARK SMILES IDX 11 1 10 2 8 3 7 4 9 6 6 7 5 8 3 9 21 10 4 11 20 12 19 13
REMARK SMILES IDX 2 14 1 15 22 16 12 18 13 19 14 20 15 21 16 22 17 23 18 24
REMARK H PARENT 7 5 22 17
REMARK Flexibility Score: inf
ROOT
ATOM      1  C   UNL     1      75.583  81.395  63.707  1.00  0.00     0.010 C 
ENDROOT
BRANCH   1   2
ATOM      2  C   UNL     1      76.423  82.690  63.891  1.00  0.00     0.100 C 
BRANCH   2   3
ATOM      3  C   UNL     1      77.187  82.716  65.158  1.00  0.00     0.220 C 
ATOM      4  N   UNL     1      77.783  83.868  65.580  1.00  0.00    -0.352 N 
ATOM      5  H   UNL     1      77.690  84.647  64.945  1.00  0.00     0.163 HD
ATOM      6  O   UNL     1      77.253  81.665  65.843  1.00  0.00    -0.275 OA
BRANCH   4   7
ATOM      7  C   UNL     1      78.496  84.027  66.811  1.00  0.00     0.151 C 
BRANCH   7   8
ATOM      8  C   UNL     1      77.996  85.161  67.637  1.00  0.00    -0.025 A 
ATOM      9  C   UNL     1      76.921  87.367  67.797  1.00  0.00     0.160 A 
ATOM     10  C   UNL     1      77.002  87.306  69.205  1.00  0.00     0.157 A 
ATOM     11  C   UNL     1      77.435  86.304  67.024  1.00  0.00     0.056 A 
ATOM     12  C   UNL     1      77.594  86.191  69.825  1.00  0.00     0.050 A 
ATOM     13  C   UNL     1      78.078  85.121  69.049  1.00  0.00     0.009 A 
BRANCH   9  14
ATOM     14  O   UNL     1      76.383  88.464  67.182  1.00  0.00    -0.493 OA
ATOM     15  C   UNL     1      75.649  88.156  65.983  1.00  0.00     0.278 C 
ENDBRANCH   9  14
BRANCH  10  16
ATOM     16  O   UNL     1      76.516  88.316  69.974  1.00  0.00    -0.504 OA
ATOM     17  H   UNL     1      77.052  88.400  70.767  1.00  0.00     0.293 HD
ENDBRANCH  10  16
ENDBRANCH   7   8
ENDBRANCH   4   7
ENDBRANCH   2   3
ENDBRANCH   1   2
BRANCH   1  18
ATOM     18  C   UNL     1      74.075  81.625  64.009  1.00  0.00     0.001 C 
BRANCH  18  19
ATOM     19  C   UNL     1      73.727  81.585  65.524  1.00  0.00     0.000 C 
BRANCH  19  20
ATOM     20  C   UNL     1      73.249  82.972  66.039  1.00  0.00     0.000 C 
BRANCH  20  21
ATOM     21  C   UNL     1      74.317  83.750  66.856  1.00  0.00     0.003 C 
BRANCH  21  22
ATOM     22  C   UNL     1      73.899  85.203  67.256  1.00  0.00    -0.017 C 
ATOM     23  C   UNL     1      73.856  85.349  68.804  1.00  0.00     0.007 C 
ATOM     24  C   UNL     1      72.549  85.660  66.628  1.00  0.00     0.007 C 
ENDBRANCH  21  22
ENDBRANCH  20  21
ENDBRANCH  19  20
ENDBRANCH  18  19
ENDBRANCH   1  18
TORSDOF 11
ENDMDL
MODEL 7
REMARK VINA RESULT:    -5.252      6.858     11.200
REMARK INTER + INTRA:          -9.753
REMARK INTER:                  -8.726
REMARK INTRA:                  -1.027
REMARK UNBOUND:                -1.278
REMARK SMILES COc1cc(CNC(=O)CCCCCCC(C)C)ccc1O
REMARK SMILES IDX 11 1 10 2 8 3 7 4 9 6 6 7 5 8 3 9 21 10 4 11 20 12 19 13
REMARK SMILES IDX 2 14 1 15 22 16 12 18 13 19 14 20 15 21 16 22 17 23 18 24
REMARK H PARENT 7 5 22 17
REMARK Flexibility Score: inf
ROOT
ATOM      1  C   UNL     1      75.921  88.119  70.396  1.00  0.00     0.010 C 
ENDROOT
BRANCH   1   2
ATOM      2  C   UNL     1      74.526  88.370  71.030  1.00  0.00     0.100 C 
BRANCH   2   3
ATOM      3  C   UNL     1      74.311  89.777  71.435  1.00  0.00     0.220 C 
ATOM      4  N   UNL     1      75.092  90.769  70.917  1.00  0.00    -0.352 N 
ATOM      5  H   UNL     1      75.822  90.451  70.297  1.00  0.00     0.163 HD
ATOM      6  O   UNL     1      73.385  90.037  72.241  1.00  0.00    -0.275 OA
BRANCH   4   7
ATOM      7  C   UNL     1      74.940  92.167  71.189  1.00  0.00     0.151 C 
BRANCH   7   8
ATOM      8  C   UNL     1      76.222  92.840  71.534  1.00  0.00    -0.025 A 
ATOM      9  C   UNL     1      77.618  94.864  71.588  1.00  0.00     0.160 A 
ATOM     10  C   UNL     1      78.647  94.141  72.230  1.00  0.00     0.157 A 
ATOM     11  C   UNL     1      76.423  94.205  71.229  1.00  0.00     0.056 A 
ATOM     12  C   UNL     1      78.474  92.772  72.504  1.00  0.00     0.050 A 
ATOM     13  C   UNL     1      77.267  92.127  72.169  1.00  0.00     0.009 A 
BRANCH   9  14
ATOM     14  O   UNL     1      77.791  96.187  71.282  1.00  0.00    -0.493 OA
ATOM     15  C   UNL     1      77.238  96.564  70.007  1.00  0.00     0.278 C 
ENDBRANCH   9  14
BRANCH  10  16
ATOM     16  O   UNL     1      79.808  94.749  72.586  1.00  0.00    -0.504 OA
ATOM     17  H   UNL     1      79.772  94.989  73.515  1.00  0.00     0.293 HD
ENDBRANCH  10  16
ENDBRANCH   7   8
ENDBRANCH   4   7
ENDBRANCH   2   3
ENDBRANCH   1   2
BRANCH   1  18
ATOM     18  C   UNL     1      76.036  86.699  69.771  1.00  0.00     0.001 C 
BRANCH  18  19
ATOM     19  C   UNL     1      77.480  86.122  69.786  1.00  0.00     0.000 C 
BRANCH  19  20
ATOM     20  C   UNL     1      78.054  85.981  68.348  1.00  0.00     0.000 C 
BRANCH  20  21
ATOM     21  C   UNL     1      78.024  87.294  67.518  1.00  0.00     0.003 C 
BRANCH  21  22
ATOM     22  C   UNL     1      77.220  87.200  66.180  1.00  0.00    -0.017 C 
ATOM     23  C   UNL     1      75.902  88.019  66.279  1.00  0.00     0.007 C 
ATOM     24  C   UNL     1      76.923  85.739  65.731  1.00  0.00     0.007 C 
ENDBRANCH  21  22
ENDBRANCH  20  21
ENDBRANCH  19  20
ENDBRANCH  18  19
ENDBRANCH   1  18
TORSDOF 11
ENDMDL
MODEL 8
REMARK VINA RESULT:    -5.238     25.028     27.198
REMARK INTER + INTRA:          -9.732
REMARK INTER:                  -8.960
REMARK INTRA:                  -0.771
REMARK UNBOUND:                -1.278
REMARK SMILES COc1cc(CNC(=O)CCCCCCC(C)C)ccc1O
REMARK SMILES IDX 11 1 10 2 8 3 7 4 9 6 6 7 5 8 3 9 21 10 4 11 20 12 19 13
REMARK SMILES IDX 2 14 1 15 22 16 12 18 13 19 14 20 15 21 16 22 17 23 18 24
REMARK H PARENT 7 5 22 17
REMARK Flexibility Score: inf
ROOT
ATOM      1  C   UNL     1      97.044  81.476  85.331  1.00  0.00     0.010 C 
ENDROOT
BRANCH   1   2
ATOM      2  C   UNL     1      97.985  82.525  84.677  1.00  0.00     0.100 C 
BRANCH   2   3
ATOM      3  C   UNL     1      98.600  82.054  83.416  1.00  0.00     0.220 C 
ATOM      4  N   UNL     1      99.259  82.929  82.602  1.00  0.00    -0.352 N 
ATOM      5  H   UNL     1      99.241  83.889  82.914  1.00  0.00     0.163 HD
ATOM      6  O   UNL     1      98.524  80.835  83.129  1.00  0.00    -0.275 OA
BRANCH   4   7
ATOM      7  C   UNL     1      99.940  82.579  81.393  1.00  0.00     0.151 C 
BRANCH   7   8
ATOM      8  C   UNL     1      99.169  82.919  80.166  1.00  0.00    -0.025 A 
ATOM      9  C   UNL     1      99.026  83.075  77.715  1.00  0.00     0.160 A 
ATOM     10  C   UNL     1      97.691  83.524  77.820  1.00  0.00     0.157 A 
ATOM     11  C   UNL     1      99.759  82.794  78.887  1.00  0.00     0.056 A 
ATOM     12  C   UNL     1      97.106  83.689  79.088  1.00  0.00     0.050 A 
ATOM     13  C   UNL     1      97.834  83.380  80.253  1.00  0.00     0.009 A 
BRANCH   9  14
ATOM     14  O   UNL     1      99.618  82.948  76.488  1.00  0.00    -0.493 OA
ATOM     15  C   UNL     1     100.483  84.046  76.146  1.00  0.00     0.278 C 
ENDBRANCH   9  14
BRANCH  10  16
ATOM     16  O   UNL     1      96.962  83.803  76.708  1.00  0.00    -0.504 OA
ATOM     17  H   UNL     1      96.901  84.755  76.596  1.00  0.00     0.293 HD
ENDBRANCH  10  16
ENDBRANCH   7   8
ENDBRANCH   4   7
ENDBRANCH   2   3
ENDBRANCH   1   2
BRANCH   1  18
ATOM     18  C   UNL     1      96.458  81.973  86.683  1.00  0.00     0.001 C 
BRANCH  18  19
ATOM     19  C   UNL     1      95.422  83.122  86.532  1.00  0.00     0.000 C 
BRANCH  19  20
ATOM     20  C   UNL     1      94.053  82.745  87.164  1.00  0.00     0.000 C 
BRANCH  20  21
ATOM     21  C   UNL     1      93.247  81.691  86.355  1.00  0.00     0.003 C 
BRANCH  21  22
ATOM     22  C   UNL     1      92.826  80.426  87.172  1.00  0.00    -0.017 C 
ATOM     23  C   UNL     1      91.328  80.515  87.579  1.00  0.00     0.007 C 
ATOM     24  C   UNL     1      93.716  80.165  88.423  1.00  0.00     0.007 C 
ENDBRANCH  21  22
ENDBRANCH  20  21
ENDBRANCH  19  20
ENDBRANCH  18  19
ENDBRANCH   1  18
TORSDOF 11
ENDMDL
MODEL 9
REMARK VINA RESULT:    -5.158     12.007     15.013
REMARK INTER + INTRA:          -9.601
REMARK INTER:                  -7.740
REMARK INTRA:                  -1.861
REMARK UNBOUND:                -1.278
REMARK SMILES COc1cc(CNC(=O)CCCCCCC(C)C)ccc1O
REMARK SMILES IDX 11 1 10 2 8 3 7 4 9 6 6 7 5 8 3 9 21 10 4 11 20 12 19 13
REMARK SMILES IDX 2 14 1 15 22 16 12 18 13 19 14 20 15 21 16 22 17 23 18 24
REMARK H PARENT 7 5 22 17
REMARK Flexibility Score: inf
ROOT
ATOM      1  C   UNL     1      59.210  86.688  72.702  1.00  0.00     0.010 C 
ENDROOT
BRANCH   1   2
ATOM      2  C   UNL     1      59.193  86.702  71.148  1.00  0.00     0.100 C 
BRANCH   2   3
ATOM      3  C   UNL     1      59.462  85.375  70.549  1.00  0.00     0.220 C 
ATOM      4  N   UNL     1      60.635  85.140  69.893  1.00  0.00    -0.352 N 
ATOM      5  H   UNL     1      61.247  85.940  69.824  1.00  0.00     0.163 HD
ATOM      6  O   UNL     1      58.601  84.471  70.680  1.00  0.00    -0.275 OA
BRANCH   4   7
ATOM      7  C   UNL     1      61.028  83.886  69.327  1.00  0.00     0.151 C 
BRANCH   7   8
ATOM      8  C   UNL     1      62.411  83.480  69.700  1.00  0.00    -0.025 A 
ATOM      9  C   UNL     1      64.513  83.933  70.893  1.00  0.00     0.160 A 
ATOM     10  C   UNL     1      65.032  82.695  70.454  1.00  0.00     0.157 A 
ATOM     11  C   UNL     1      63.217  84.324  70.499  1.00  0.00     0.056 A 
ATOM     12  C   UNL     1      64.254  81.865  69.626  1.00  0.00     0.050 A 
ATOM     13  C   UNL     1      62.949  82.248  69.260  1.00  0.00     0.009 A 
BRANCH   9  14
ATOM     14  O   UNL     1      65.276  84.766  71.666  1.00  0.00    -0.493 OA
ATOM     15  C   UNL     1      64.507  85.622  72.529  1.00  0.00     0.278 C 
ENDBRANCH   9  14
BRANCH  10  16
ATOM     16  O   UNL     1      66.278  82.293  70.817  1.00  0.00    -0.504 OA
ATOM     17  H   UNL     1      66.224  81.440  71.253  1.00  0.00     0.293 HD
ENDBRANCH  10  16
ENDBRANCH   7   8
ENDBRANCH   4   7
ENDBRANCH   2   3
ENDBRANCH   1   2
BRANCH   1  18
ATOM     18  C   UNL     1      60.613  86.332  73.270  1.00  0.00     0.001 C 
BRANCH  18  19
ATOM     19  C   UNL     1      60.628  85.042  74.139  1.00  0.00     0.000 C 
BRANCH  19  20
ATOM     20  C   UNL     1      61.091  83.806  73.318  1.00  0.00     0.000 C 
BRANCH  20  21
ATOM     21  C   UNL     1      61.697  82.661  74.177  1.00  0.00     0.003 C 
BRANCH  21  22
ATOM     22  C   UNL     1      63.253  82.535  74.087  1.00  0.00    -0.017 C 
ATOM     23  C   UNL     1      63.654  81.156  73.493  1.00  0.00     0.007 C 
ATOM     24  C   UNL     1      63.979  82.777  75.443  1.00  0.00     0.007 C 
ENDBRANCH  21  22
ENDBRANCH  20  21
ENDBRANCH  19  20
ENDBRANCH  18  19
ENDBRANCH   1  18
TORSDOF 11
ENDMDL
MODEL 10
REMARK VINA RESULT:    -5.037     26.813     29.640
REMARK INTER + INTRA:          -9.407
REMARK INTER:                  -7.986
REMARK INTRA:                  -1.421
REMARK UNBOUND:                -1.278
REMARK SMILES COc1cc(CNC(=O)CCCCCCC(C)C)ccc1O
REMARK SMILES IDX 11 1 10 2 8 3 7 4 9 6 6 7 5 8 3 9 21 10 4 11 20 12 19 13
REMARK SMILES IDX 2 14 1 15 22 16 12 18 13 19 14 20 15 21 16 22 17 23 18 24
REMARK H PARENT 7 5 22 17
REMARK Flexibility Score: inf
ROOT
ATOM      1  C   UNL     1     102.051  81.875  81.337  1.00  0.00     0.010 C 
ENDROOT
BRANCH   1   2
ATOM      2  C   UNL     1     102.411  81.028  82.589  1.00  0.00     0.100 C 
BRANCH   2   3
ATOM      3  C   UNL     1     101.328  80.986  83.597  1.00  0.00     0.220 C 
ATOM      4  N   UNL     1     100.023  81.081  83.212  1.00  0.00    -0.352 N 
ATOM      5  H   UNL     1      99.886  81.222  82.222  1.00  0.00     0.163 HD
ATOM      6  O   UNL     1     101.636  80.836  84.805  1.00  0.00    -0.275 OA
BRANCH   4   7
ATOM      7  C   UNL     1      98.894  80.995  84.088  1.00  0.00     0.151 C 
BRANCH   7   8
ATOM      8  C   UNL     1      98.436  82.321  84.587  1.00  0.00    -0.025 A 
ATOM      9  C   UNL     1      98.518  84.103  86.280  1.00  0.00     0.160 A 
ATOM     10  C   UNL     1      97.603  84.866  85.524  1.00  0.00     0.157 A 
ATOM     11  C   UNL     1      98.913  82.830  85.816  1.00  0.00     0.056 A 
ATOM     12  C   UNL     1      97.091  84.353  84.318  1.00  0.00     0.050 A 
ATOM     13  C   UNL     1      97.512  83.095  83.846  1.00  0.00     0.009 A 
BRANCH   9  14
ATOM     14  O   UNL     1      98.992  84.575  87.473  1.00  0.00    -0.493 OA
ATOM     15  C   UNL     1     100.368  84.238  87.726  1.00  0.00     0.278 C 
ENDBRANCH   9  14
BRANCH  10  16
ATOM     16  O   UNL     1      97.203  86.095  85.947  1.00  0.00    -0.504 OA
ATOM     17  H   UNL     1      96.549  85.996  86.642  1.00  0.00     0.293 HD
ENDBRANCH  10  16
ENDBRANCH   7   8
ENDBRANCH   4   7
ENDBRANCH   2   3
ENDBRANCH   1   2
BRANCH   1  18
ATOM     18  C   UNL     1     101.863  80.996  80.068  1.00  0.00     0.001 C 
BRANCH  18  19
ATOM     19  C   UNL     1     102.240  81.719  78.744  1.00  0.00     0.000 C 
BRANCH  19  20
ATOM     20  C   UNL     1     100.990  81.968  77.853  1.00  0.00     0.000 C 
BRANCH  20  21
ATOM     21  C   UNL     1     100.100  83.153  78.321  1.00  0.00     0.003 C 
BRANCH  21  22
ATOM     22  C   UNL     1      98.715  82.732  78.912  1.00  0.00    -0.017 C 
ATOM     23  C   UNL     1      98.634  83.096  80.421  1.00  0.00     0.007 C 
ATOM     24  C   UNL     1      98.374  81.228  78.695  1.00  0.00     0.007 C 
ENDBRANCH  21  22
ENDBRANCH  20  21
ENDBRANCH  19  20
ENDBRANCH  18  19
ENDBRANCH   1  18
TORSDOF 11
ENDMDL
