MODEL 1
REMARK VINA RESULT:    -6.717      0.000      0.000
REMARK INTER + INTRA:         -11.838
REMARK INTER:                 -10.840
REMARK INTRA:                  -0.998
REMARK UNBOUND:                -0.998
REMARK SMILES CCCCCCCCC(=O)NCc1ccc(O)c(OC)c1
REMARK SMILES IDX 7 1 6 2 5 3 4 4 3 5 2 6 1 7 8 8 9 9 10 10 11 11 12 13 13 14
REMARK SMILES IDX 21 15 14 16 18 17 15 18 16 19 19 20 20 21 17 22
REMARK H PARENT 11 12 17 23
REMARK Flexibility Score: inf
ROOT
ATOM      1  C   UNL     1      88.801  92.482  72.290  1.00  0.00     0.010 C 
ENDROOT
BRANCH   1   2
ATOM      2  C   UNL     1      89.668  93.652  72.838  1.00  0.00     0.001 C 
BRANCH   2   3
ATOM      3  C   UNL     1      90.288  93.325  74.228  1.00  0.00     0.000 C 
BRANCH   3   4
ATOM      4  C   UNL     1      91.825  93.092  74.191  1.00  0.00    -0.000 C 
BRANCH   4   5
ATOM      5  C   UNL     1      92.620  94.224  74.901  1.00  0.00    -0.000 C 
BRANCH   5   6
ATOM      6  C   UNL     1      94.061  93.791  75.284  1.00  0.00    -0.003 C 
ATOM      7  C   UNL     1      94.982  94.988  75.608  1.00  0.00     0.004 C 
ENDBRANCH   5   6
ENDBRANCH   4   5
ENDBRANCH   3   4
ENDBRANCH   2   3
ENDBRANCH   1   2
BRANCH   1   8
ATOM      8  C   UNL     1      89.605  91.182  72.006  1.00  0.00     0.100 C 
BRANCH   8   9
ATOM      9  C   UNL     1      89.295  90.127  73.001  1.00  0.00     0.220 C 
ATOM     10  O   UNL     1      88.091  89.852  73.221  1.00  0.00    -0.275 OA
ATOM     11  N   UNL     1      90.300  89.456  73.636  1.00  0.00    -0.352 N 
ATOM     12  H   UNL     1      91.225  89.815  73.450  1.00  0.00     0.163 HD
BRANCH  11  13
ATOM     13  C   UNL     1      90.135  88.330  74.504  1.00  0.00     0.151 C 
BRANCH  13  14
ATOM     14  C   UNL     1      90.072  88.688  75.947  1.00  0.00    -0.025 A 
ATOM     15  C   UNL     1      90.055  90.046  76.344  1.00  0.00     0.056 A 
ATOM     16  C   UNL     1      90.032  87.685  76.943  1.00  0.00     0.009 A 
ATOM     17  C   UNL     1      89.978  90.401  77.710  1.00  0.00     0.160 A 
ATOM     18  C   UNL     1      89.954  88.032  78.303  1.00  0.00     0.050 A 
ATOM     19  C   UNL     1      89.935  89.385  78.691  1.00  0.00     0.157 A 
BRANCH  17  20
ATOM     20  O   UNL     1      90.005  91.718  78.095  1.00  0.00    -0.493 OA
ATOM     21  C   UNL     1      91.251  92.385  77.828  1.00  0.00     0.278 C 
ENDBRANCH  17  20
BRANCH  19  22
ATOM     22  O   UNL     1      89.887  89.710  80.009  1.00  0.00    -0.504 OA
ATOM     23  H   UNL     1      90.781  89.791  80.351  1.00  0.00     0.293 HD
ENDBRANCH  19  22
ENDBRANCH  13  14
ENDBRANCH  11  13
ENDBRANCH   8   9
ENDBRANCH   1   8
TORSDOF 11
ENDMDL
MODEL 2
REMARK VINA RESULT:    -5.869      5.001      7.786
REMARK INTER + INTRA:         -10.469
REMARK INTER:                  -9.725
REMARK INTRA:                  -0.744
REMARK UNBOUND:                -0.998
REMARK SMILES CCCCCCCCC(=O)NCc1ccc(O)c(OC)c1
REMARK SMILES IDX 7 1 6 2 5 3 4 4 3 5 2 6 1 7 8 8 9 9 10 10 11 11 12 13 13 14
REMARK SMILES IDX 21 15 14 16 18 17 15 18 16 19 19 20 20 21 17 22
REMARK H PARENT 11 12 17 23
REMARK Flexibility Score: inf
ROOT
ATOM      1  C   UNL     1      92.211  94.871  76.111  1.00  0.00     0.010 C 
ENDROOT
BRANCH   1   2
ATOM      2  C   UNL     1      91.220  93.709  75.813  1.00  0.00     0.001 C 
BRANCH   2   3
ATOM      3  C   UNL     1      89.971  93.747  76.742  1.00  0.00     0.000 C 
BRANCH   3   4
ATOM      4  C   UNL     1      89.751  92.438  77.551  1.00  0.00    -0.000 C 
BRANCH   4   5
ATOM      5  C   UNL     1      90.580  91.244  76.999  1.00  0.00    -0.000 C 
BRANCH   5   6
ATOM      6  C   UNL     1      89.686  90.086  76.481  1.00  0.00    -0.003 C 
ATOM      7  C   UNL     1      88.803  90.499  75.283  1.00  0.00     0.004 C 
ENDBRANCH   5   6
ENDBRANCH   4   5
ENDBRANCH   3   4
ENDBRANCH   2   3
ENDBRANCH   1   2
BRANCH   1   8
ATOM      8  C   UNL     1      93.430  94.922  75.147  1.00  0.00     0.100 C 
BRANCH   8   9
ATOM      9  C   UNL     1      94.657  94.410  75.803  1.00  0.00     0.220 C 
ATOM     10  O   UNL     1      95.500  93.804  75.098  1.00  0.00    -0.275 OA
ATOM     11  N   UNL     1      94.872  94.621  77.135  1.00  0.00    -0.352 N 
ATOM     12  H   UNL     1      94.094  95.040  77.622  1.00  0.00     0.163 HD
BRANCH  11  13
ATOM     13  C   UNL     1      96.071  94.303  77.849  1.00  0.00     0.151 C 
BRANCH  13  14
ATOM     14  C   UNL     1      96.079  94.785  79.256  1.00  0.00    -0.025 A 
ATOM     15  C   UNL     1      96.673  96.028  79.579  1.00  0.00     0.056 A 
ATOM     16  C   UNL     1      95.501  94.015  80.291  1.00  0.00     0.009 A 
ATOM     17  C   UNL     1      96.672  96.508  80.910  1.00  0.00     0.160 A 
ATOM     18  C   UNL     1      95.496  94.486  81.616  1.00  0.00     0.050 A 
ATOM     19  C   UNL     1      96.086  95.725  81.930  1.00  0.00     0.157 A 
BRANCH  17  20
ATOM     20  O   UNL     1      97.286  97.693  81.228  1.00  0.00    -0.493 OA
ATOM     21  C   UNL     1      96.481  98.859  80.975  1.00  0.00     0.278 C 
ENDBRANCH  17  20
BRANCH  19  22
ATOM     22  O   UNL     1      96.101  96.159  83.217  1.00  0.00    -0.504 OA
ATOM     23  H   UNL     1      95.380  95.749  83.701  1.00  0.00     0.293 HD
ENDBRANCH  19  22
ENDBRANCH  13  14
ENDBRANCH  11  13
ENDBRANCH   8   9
ENDBRANCH   1   8
TORSDOF 11
ENDMDL
MODEL 3
REMARK VINA RESULT:    -5.693      3.847      6.594
REMARK INTER + INTRA:         -10.185
REMARK INTER:                  -9.342
REMARK INTRA:                  -0.843
REMARK UNBOUND:                -0.998
REMARK SMILES CCCCCCCCC(=O)NCc1ccc(O)c(OC)c1
REMARK SMILES IDX 7 1 6 2 5 3 4 4 3 5 2 6 1 7 8 8 9 9 10 10 11 11 12 13 13 14
REMARK SMILES IDX 21 15 14 16 18 17 15 18 16 19 19 20 20 21 17 22
REMARK H PARENT 11 12 17 23
REMARK Flexibility Score: inf
ROOT
ATOM      1  C   UNL     1      96.927  95.102  77.467  1.00  0.00     0.010 C 
ENDROOT
BRANCH   1   2
ATOM      2  C   UNL     1      95.864  95.476  78.540  1.00  0.00     0.001 C 
BRANCH   2   3
ATOM      3  C   UNL     1      95.322  94.226  79.293  1.00  0.00     0.000 C 
BRANCH   3   4
ATOM      4  C   UNL     1      95.858  94.088  80.746  1.00  0.00    -0.000 C 
BRANCH   4   5
ATOM      5  C   UNL     1      95.370  95.233  81.678  1.00  0.00    -0.000 C 
BRANCH   5   6
ATOM      6  C   UNL     1      96.544  96.042  82.293  1.00  0.00    -0.003 C 
ATOM      7  C   UNL     1      97.868  95.862  81.519  1.00  0.00     0.004 C 
ENDBRANCH   5   6
ENDBRANCH   4   5
ENDBRANCH   3   4
ENDBRANCH   2   3
ENDBRANCH   1   2
BRANCH   1   8
ATOM      8  C   UNL     1      96.653  93.748  76.755  1.00  0.00     0.100 C 
BRANCH   8   9
ATOM      9  C   UNL     1      95.661  93.903  75.663  1.00  0.00     0.220 C 
ATOM     10  O   UNL     1      96.071  94.262  74.534  1.00  0.00    -0.275 OA
ATOM     11  N   UNL     1      94.341  93.633  75.882  1.00  0.00    -0.352 N 
ATOM     12  H   UNL     1      94.108  93.437  76.844  1.00  0.00     0.163 HD
BRANCH  11  13
ATOM     13  C   UNL     1      93.316  93.608  74.883  1.00  0.00     0.151 C 
BRANCH  13  14
ATOM     14  C   UNL     1      92.110  92.834  75.278  1.00  0.00    -0.025 A 
ATOM     15  C   UNL     1      91.185  92.406  74.296  1.00  0.00     0.056 A 
ATOM     16  C   UNL     1      91.862  92.515  76.633  1.00  0.00     0.009 A 
ATOM     17  C   UNL     1      90.042  91.654  74.654  1.00  0.00     0.160 A 
ATOM     18  C   UNL     1      90.729  91.766  76.996  1.00  0.00     0.050 A 
ATOM     19  C   UNL     1      89.814  91.341  76.013  1.00  0.00     0.157 A 
BRANCH  17  20
ATOM     20  O   UNL     1      89.125  91.276  73.706  1.00  0.00    -0.493 OA
ATOM     21  C   UNL     1      89.536  90.156  72.902  1.00  0.00     0.278 C 
ENDBRANCH  17  20
BRANCH  19  22
ATOM     22  O   UNL     1      88.708  90.643  76.377  1.00  0.00    -0.504 OA
ATOM     23  H   UNL     1      88.507  89.988  75.703  1.00  0.00     0.293 HD
ENDBRANCH  19  22
ENDBRANCH  13  14
ENDBRANCH  11  13
ENDBRANCH   8   9
ENDBRANCH   1   8
TORSDOF 11
ENDMDL
MODEL 4
REMARK VINA RESULT:    -5.654      2.654      5.142
REMARK INTER + INTRA:         -10.122
REMARK INTER:                  -9.472
REMARK INTRA:                  -0.650
REMARK UNBOUND:                -0.998
REMARK SMILES CCCCCCCCC(=O)NCc1ccc(O)c(OC)c1
REMARK SMILES IDX 7 1 6 2 5 3 4 4 3 5 2 6 1 7 8 8 9 9 10 10 11 11 12 13 13 14
REMARK SMILES IDX 21 15 14 16 18 17 15 18 16 19 19 20 20 21 17 22
REMARK H PARENT 11 12 17 23
REMARK Flexibility Score: inf
ROOT
ATOM      1  C   UNL     1      94.304  94.911  76.161  1.00  0.00     0.010 C 
ENDROOT
BRANCH   1   2
ATOM      2  C   UNL     1      95.295  95.310  75.030  1.00  0.00     0.001 C 
BRANCH   2   3
ATOM      3  C   UNL     1      96.010  96.662  75.324  1.00  0.00     0.000 C 
BRANCH   3   4
ATOM      4  C   UNL     1      95.544  97.830  74.409  1.00  0.00    -0.000 C 
BRANCH   4   5
ATOM      5  C   UNL     1      94.193  97.533  73.699  1.00  0.00    -0.000 C 
BRANCH   5   6
ATOM      6  C   UNL     1      93.699  98.725  72.835  1.00  0.00    -0.003 C 
ATOM      7  C   UNL     1      93.192  99.911  73.684  1.00  0.00     0.004 C 
ENDBRANCH   5   6
ENDBRANCH   4   5
ENDBRANCH   3   4
ENDBRANCH   2   3
ENDBRANCH   1   2
BRANCH   1   8
ATOM      8  C   UNL     1      92.818  94.864  75.709  1.00  0.00     0.100 C 
BRANCH   8   9
ATOM      9  C   UNL     1      92.063  93.820  76.444  1.00  0.00     0.220 C 
ATOM     10  O   UNL     1      92.710  92.962  77.090  1.00  0.00    -0.275 OA
ATOM     11  N   UNL     1      90.697  93.818  76.437  1.00  0.00    -0.352 N 
ATOM     12  H   UNL     1      90.282  94.497  75.817  1.00  0.00     0.163 HD
BRANCH  11  13
ATOM     13  C   UNL     1      89.859  92.957  77.214  1.00  0.00     0.151 C 
BRANCH  13  14
ATOM     14  C   UNL     1      89.762  91.571  76.682  1.00  0.00    -0.025 A 
ATOM     15  C   UNL     1      89.463  91.353  75.316  1.00  0.00     0.056 A 
ATOM     16  C   UNL     1      89.960  90.453  77.525  1.00  0.00     0.009 A 
ATOM     17  C   UNL     1      89.384  90.042  74.792  1.00  0.00     0.160 A 
ATOM     18  C   UNL     1      89.883  89.147  77.009  1.00  0.00     0.050 A 
ATOM     19  C   UNL     1      89.589  88.937  75.648  1.00  0.00     0.157 A 
BRANCH  17  20
ATOM     20  O   UNL     1      89.052  89.831  73.477  1.00  0.00    -0.493 OA
ATOM     21  C   UNL     1      87.705  90.206  73.142  1.00  0.00     0.278 C 
ENDBRANCH  17  20
BRANCH  19  22
ATOM     22  O   UNL     1      89.490  87.672  75.166  1.00  0.00    -0.504 OA
ATOM     23  H   UNL     1      90.326  87.414  74.770  1.00  0.00     0.293 HD
ENDBRANCH  19  22
ENDBRANCH  13  14
ENDBRANCH  11  13
ENDBRANCH   8   9
ENDBRANCH   1   8
TORSDOF 11
ENDMDL
MODEL 5
REMARK VINA RESULT:    -5.598      4.907      7.862
REMARK INTER + INTRA:         -10.032
REMARK INTER:                  -9.458
REMARK INTRA:                  -0.574
REMARK UNBOUND:                -0.998
REMARK SMILES CCCCCCCCC(=O)NCc1ccc(O)c(OC)c1
REMARK SMILES IDX 7 1 6 2 5 3 4 4 3 5 2 6 1 7 8 8 9 9 10 10 11 11 12 13 13 14
REMARK SMILES IDX 21 15 14 16 18 17 15 18 16 19 19 20 20 21 17 22
REMARK H PARENT 11 12 17 23
REMARK Flexibility Score: inf
ROOT
ATOM      1  C   UNL     1      91.833  93.578  74.575  1.00  0.00     0.010 C 
ENDROOT
BRANCH   1   2
ATOM      2  C   UNL     1      90.305  93.310  74.455  1.00  0.00     0.001 C 
BRANCH   2   3
ATOM      3  C   UNL     1      89.861  93.080  72.980  1.00  0.00     0.000 C 
BRANCH   3   4
ATOM      4  C   UNL     1      90.477  91.809  72.331  1.00  0.00    -0.000 C 
BRANCH   4   5
ATOM      5  C   UNL     1      89.397  90.809  71.828  1.00  0.00    -0.000 C 
BRANCH   5   6
ATOM      6  C   UNL     1      88.439  90.349  72.959  1.00  0.00    -0.003 C 
ATOM      7  C   UNL     1      86.961  90.698  72.672  1.00  0.00     0.004 C 
ENDBRANCH   5   6
ENDBRANCH   4   5
ENDBRANCH   3   4
ENDBRANCH   2   3
ENDBRANCH   1   2
BRANCH   1   8
ATOM      8  C   UNL     1      92.258  94.200  75.935  1.00  0.00     0.100 C 
BRANCH   8   9
ATOM      9  C   UNL     1      93.730  94.156  76.111  1.00  0.00     0.220 C 
ATOM     10  O   UNL     1      94.431  93.726  75.164  1.00  0.00    -0.275 OA
ATOM     11  N   UNL     1      94.303  94.602  77.268  1.00  0.00    -0.352 N 
ATOM     12  H   UNL     1      93.645  94.844  77.994  1.00  0.00     0.163 HD
BRANCH  11  13
ATOM     13  C   UNL     1      95.708  94.742  77.504  1.00  0.00     0.151 C 
BRANCH  13  14
ATOM     14  C   UNL     1      96.059  94.950  78.934  1.00  0.00    -0.025 A 
ATOM     15  C   UNL     1      97.223  95.675  79.284  1.00  0.00     0.056 A 
ATOM     16  C   UNL     1      95.245  94.427  79.966  1.00  0.00     0.009 A 
ATOM     17  C   UNL     1      97.561  95.895  80.639  1.00  0.00     0.160 A 
ATOM     18  C   UNL     1      95.575  94.643  81.316  1.00  0.00     0.050 A 
ATOM     19  C   UNL     1      96.733  95.368  81.656  1.00  0.00     0.157 A 
BRANCH  17  20
ATOM     20  O   UNL     1      98.712  96.561  80.976  1.00  0.00    -0.493 OA
ATOM     21  C   UNL     1      99.920  95.849  80.656  1.00  0.00     0.278 C 
ENDBRANCH  17  20
BRANCH  19  22
ATOM     22  O   UNL     1      97.057  95.547  82.962  1.00  0.00    -0.504 OA
ATOM     23  H   UNL     1      97.784  96.171  83.029  1.00  0.00     0.293 HD
ENDBRANCH  19  22
ENDBRANCH  13  14
ENDBRANCH  11  13
ENDBRANCH   8   9
ENDBRANCH   1   8
TORSDOF 11
ENDMDL
MODEL 6
REMARK VINA RESULT:    -5.525     24.334     26.929
REMARK INTER + INTRA:          -9.914
REMARK INTER:                  -9.173
REMARK INTRA:                  -0.741
REMARK UNBOUND:                -0.998
REMARK SMILES CCCCCCCCC(=O)NCc1ccc(O)c(OC)c1
REMARK SMILES IDX 7 1 6 2 5 3 4 4 3 5 2 6 1 7 8 8 9 9 10 10 11 11 12 13 13 14
REMARK SMILES IDX 21 15 14 16 18 17 15 18 16 19 19 20 20 21 17 22
REMARK H PARENT 11 12 17 23
REMARK Flexibility Score: inf
ROOT
ATOM      1  C   UNL     1      81.655  66.395  76.204  1.00  0.00     0.010 C 
ENDROOT
BRANCH   1   2
ATOM      2  C   UNL     1      81.346  66.723  74.715  1.00  0.00     0.001 C 
BRANCH   2   3
ATOM      3  C   UNL     1      80.104  65.947  74.186  1.00  0.00     0.000 C 
BRANCH   3   4
ATOM      4  C   UNL     1      80.337  65.249  72.816  1.00  0.00    -0.000 C 
BRANCH   4   5
ATOM      5  C   UNL     1      80.070  66.193  71.609  1.00  0.00    -0.000 C 
BRANCH   5   6
ATOM      6  C   UNL     1      81.369  66.846  71.065  1.00  0.00    -0.003 C 
ATOM      7  C   UNL     1      82.410  65.808  70.592  1.00  0.00     0.004 C 
ENDBRANCH   5   6
ENDBRANCH   4   5
ENDBRANCH   3   4
ENDBRANCH   2   3
ENDBRANCH   1   2
BRANCH   1   8
ATOM      8  C   UNL     1      81.904  64.886  76.478  1.00  0.00     0.100 C 
BRANCH   8   9
ATOM      9  C   UNL     1      83.336  64.616  76.751  1.00  0.00     0.220 C 
ATOM     10  O   UNL     1      84.193  65.373  76.235  1.00  0.00    -0.275 OA
ATOM     11  N   UNL     1      83.705  63.585  77.567  1.00  0.00    -0.352 N 
ATOM     12  H   UNL     1      82.943  62.989  77.857  1.00  0.00     0.163 HD
BRANCH  11  13
ATOM     13  C   UNL     1      85.035  63.311  78.018  1.00  0.00     0.151 C 
BRANCH  13  14
ATOM     14  C   UNL     1      85.405  64.023  79.270  1.00  0.00    -0.025 A 
ATOM     15  C   UNL     1      86.167  65.215  79.213  1.00  0.00     0.056 A 
ATOM     16  C   UNL     1      85.009  63.526  80.533  1.00  0.00     0.009 A 
ATOM     17  C   UNL     1      86.511  65.912  80.394  1.00  0.00     0.160 A 
ATOM     18  C   UNL     1      85.347  64.215  81.711  1.00  0.00     0.050 A 
ATOM     19  C   UNL     1      86.103  65.402  81.647  1.00  0.00     0.157 A 
BRANCH  17  20
ATOM     20  O   UNL     1      87.285  67.044  80.340  1.00  0.00    -0.493 OA
ATOM     21  C   UNL     1      86.983  67.911  79.232  1.00  0.00     0.278 C 
ENDBRANCH  17  20
BRANCH  19  22
ATOM     22  O   UNL     1      86.448  66.045  82.792  1.00  0.00    -0.504 OA
ATOM     23  H   UNL     1      87.388  66.237  82.780  1.00  0.00     0.293 HD
ENDBRANCH  19  22
ENDBRANCH  13  14
ENDBRANCH  11  13
ENDBRANCH   8   9
ENDBRANCH   1   8
TORSDOF 11
ENDMDL
MODEL 7
REMARK VINA RESULT:    -5.484     12.423     15.566
REMARK INTER + INTRA:          -9.848
REMARK INTER:                  -8.483
REMARK INTRA:                  -1.365
REMARK UNBOUND:                -0.998
REMARK SMILES CCCCCCCCC(=O)NCc1ccc(O)c(OC)c1
REMARK SMILES IDX 7 1 6 2 5 3 4 4 3 5 2 6 1 7 8 8 9 9 10 10 11 11 12 13 13 14
REMARK SMILES IDX 21 15 14 16 18 17 15 18 16 19 19 20 20 21 17 22
REMARK H PARENT 11 12 17 23
REMARK Flexibility Score: inf
ROOT
ATOM      1  C   UNL     1      82.671  89.290  84.692  1.00  0.00     0.010 C 
ENDROOT
BRANCH   1   2
ATOM      2  C   UNL     1      81.240  89.834  84.412  1.00  0.00     0.001 C 
BRANCH   2   3
ATOM      3  C   UNL     1      80.151  88.731  84.563  1.00  0.00     0.000 C 
BRANCH   3   4
ATOM      4  C   UNL     1      80.264  87.591  83.512  1.00  0.00    -0.000 C 
BRANCH   4   5
ATOM      5  C   UNL     1      80.607  86.216  84.154  1.00  0.00    -0.000 C 
BRANCH   5   6
ATOM      6  C   UNL     1      80.618  86.268  85.705  1.00  0.00    -0.003 C 
ATOM      7  C   UNL     1      81.965  85.815  86.311  1.00  0.00     0.004 C 
ENDBRANCH   5   6
ENDBRANCH   4   5
ENDBRANCH   3   4
ENDBRANCH   2   3
ENDBRANCH   1   2
BRANCH   1   8
ATOM      8  C   UNL     1      83.778  90.380  84.648  1.00  0.00     0.100 C 
BRANCH   8   9
ATOM      9  C   UNL     1      84.099  90.878  86.008  1.00  0.00     0.220 C 
ATOM     10  O   UNL     1      84.661  91.994  86.115  1.00  0.00    -0.275 OA
ATOM     11  N   UNL     1      83.762  90.148  87.111  1.00  0.00    -0.352 N 
ATOM     12  H   UNL     1      83.394  89.230  86.909  1.00  0.00     0.163 HD
BRANCH  11  13
ATOM     13  C   UNL     1      83.889  90.581  88.470  1.00  0.00     0.151 C 
BRANCH  13  14
ATOM     14  C   UNL     1      83.177  89.713  89.446  1.00  0.00    -0.025 A 
ATOM     15  C   UNL     1      82.257  88.737  88.993  1.00  0.00     0.056 A 
ATOM     16  C   UNL     1      83.400  89.847  90.835  1.00  0.00     0.009 A 
ATOM     17  C   UNL     1      81.586  87.893  89.907  1.00  0.00     0.160 A 
ATOM     18  C   UNL     1      82.737  89.010  91.750  1.00  0.00     0.050 A 
ATOM     19  C   UNL     1      81.826  88.039  91.292  1.00  0.00     0.157 A 
BRANCH  17  20
ATOM     20  O   UNL     1      80.664  86.976  89.469  1.00  0.00    -0.493 OA
ATOM     21  C   UNL     1      79.409  87.551  89.064  1.00  0.00     0.278 C 
ENDBRANCH  17  20
BRANCH  19  22
ATOM     22  O   UNL     1      81.170  87.254  92.185  1.00  0.00    -0.504 OA
ATOM     23  H   UNL     1      81.758  87.036  92.912  1.00  0.00     0.293 HD
ENDBRANCH  19  22
ENDBRANCH  13  14
ENDBRANCH  11  13
ENDBRANCH   8   9
ENDBRANCH   1   8
TORSDOF 11
ENDMDL
MODEL 8
REMARK VINA RESULT:    -5.364      3.282      6.341
REMARK INTER + INTRA:          -9.654
REMARK INTER:                  -9.161
REMARK INTRA:                  -0.494
REMARK UNBOUND:                -0.998
REMARK SMILES CCCCCCCCC(=O)NCc1ccc(O)c(OC)c1
REMARK SMILES IDX 7 1 6 2 5 3 4 4 3 5 2 6 1 7 8 8 9 9 10 10 11 11 12 13 13 14
REMARK SMILES IDX 21 15 14 16 18 17 15 18 16 19 19 20 20 21 17 22
REMARK H PARENT 11 12 17 23
REMARK Flexibility Score: inf
ROOT
ATOM      1  C   UNL     1      95.188  96.203  75.272  1.00  0.00     0.010 C 
ENDROOT
BRANCH   1   2
ATOM      2  C   UNL     1      95.944  96.844  74.073  1.00  0.00     0.001 C 
BRANCH   2   3
ATOM      3  C   UNL     1      97.275  96.102  73.752  1.00  0.00     0.000 C 
BRANCH   3   4
ATOM      4  C   UNL     1      97.932  96.544  72.414  1.00  0.00    -0.000 C 
BRANCH   4   5
ATOM      5  C   UNL     1      97.667  95.541  71.255  1.00  0.00    -0.000 C 
BRANCH   5   6
ATOM      6  C   UNL     1      97.896  96.173  69.856  1.00  0.00    -0.003 C 
ATOM      7  C   UNL     1      96.576  96.531  69.136  1.00  0.00     0.004 C 
ENDBRANCH   5   6
ENDBRANCH   4   5
ENDBRANCH   3   4
ENDBRANCH   2   3
ENDBRANCH   1   2
BRANCH   1   8
ATOM      8  C   UNL     1      93.740  95.750  74.934  1.00  0.00     0.100 C 
BRANCH   8   9
ATOM      9  C   UNL     1      93.573  94.289  75.129  1.00  0.00     0.220 C 
ATOM     10  O   UNL     1      94.424  93.680  75.820  1.00  0.00    -0.275 OA
ATOM     11  N   UNL     1      92.501  93.636  74.591  1.00  0.00    -0.352 N 
ATOM     12  H   UNL     1      91.928  94.203  73.984  1.00  0.00     0.163 HD
BRANCH  11  13
ATOM     13  C   UNL     1      92.154  92.267  74.824  1.00  0.00     0.151 C 
BRANCH  13  14
ATOM     14  C   UNL     1      90.933  91.825  74.099  1.00  0.00    -0.025 A 
ATOM     15  C   UNL     1      90.297  90.610  74.450  1.00  0.00     0.056 A 
ATOM     16  C   UNL     1      90.389  92.602  73.050  1.00  0.00     0.009 A 
ATOM     17  C   UNL     1      89.125  90.186  73.782  1.00  0.00     0.160 A 
ATOM     18  C   UNL     1      89.223  92.185  72.383  1.00  0.00     0.050 A 
ATOM     19  C   UNL     1      88.594  90.977  72.739  1.00  0.00     0.157 A 
BRANCH  17  20
ATOM     20  O   UNL     1      88.535  88.987  74.095  1.00  0.00    -0.493 OA
ATOM     21  C   UNL     1      89.384  88.086  74.827  1.00  0.00     0.278 C 
ENDBRANCH  17  20
BRANCH  19  22
ATOM     22  O   UNL     1      87.485  90.570  72.070  1.00  0.00    -0.504 OA
ATOM     23  H   UNL     1      87.248  89.684  72.352  1.00  0.00     0.293 HD
ENDBRANCH  19  22
ENDBRANCH  13  14
ENDBRANCH  11  13
ENDBRANCH   8   9
ENDBRANCH   1   8
TORSDOF 11
ENDMDL
MODEL 9
REMARK VINA RESULT:    -5.188     22.227     25.654
REMARK INTER + INTRA:          -9.371
REMARK INTER:                  -8.045
REMARK INTRA:                  -1.326
REMARK UNBOUND:                -0.998
REMARK SMILES CCCCCCCCC(=O)NCc1ccc(O)c(OC)c1
REMARK SMILES IDX 7 1 6 2 5 3 4 4 3 5 2 6 1 7 8 8 9 9 10 10 11 11 12 13 13 14
REMARK SMILES IDX 21 15 14 16 18 17 15 18 16 19 19 20 20 21 17 22
REMARK H PARENT 11 12 17 23
REMARK Flexibility Score: inf
ROOT
ATOM      1  C   UNL     1      83.031  64.102  75.277  1.00  0.00     0.010 C 
ENDROOT
BRANCH   1   2
ATOM      2  C   UNL     1      82.244  64.095  73.934  1.00  0.00     0.001 C 
BRANCH   2   3
ATOM      3  C   UNL     1      80.703  64.074  74.155  1.00  0.00     0.000 C 
BRANCH   3   4
ATOM      4  C   UNL     1      79.985  65.369  73.680  1.00  0.00    -0.000 C 
BRANCH   4   5
ATOM      5  C   UNL     1      80.971  66.426  73.107  1.00  0.00    -0.000 C 
BRANCH   5   6
ATOM      6  C   UNL     1      80.413  67.138  71.844  1.00  0.00    -0.003 C 
ATOM      7  C   UNL     1      80.053  66.153  70.710  1.00  0.00     0.004 C 
ENDBRANCH   5   6
ENDBRANCH   4   5
ENDBRANCH   3   4
ENDBRANCH   2   3
ENDBRANCH   1   2
BRANCH   1   8
ATOM      8  C   UNL     1      82.278  64.803  76.443  1.00  0.00     0.100 C 
BRANCH   8   9
ATOM      9  C   UNL     1      82.597  66.250  76.499  1.00  0.00     0.220 C 
ATOM     10  O   UNL     1      81.647  67.066  76.556  1.00  0.00    -0.275 OA
ATOM     11  N   UNL     1      83.895  66.674  76.517  1.00  0.00    -0.352 N 
ATOM     12  H   UNL     1      84.576  65.942  76.380  1.00  0.00     0.163 HD
BRANCH  11  13
ATOM     13  C   UNL     1      84.330  68.024  76.711  1.00  0.00     0.151 C 
BRANCH  13  14
ATOM     14  C   UNL     1      85.108  68.574  75.569  1.00  0.00    -0.025 A 
ATOM     15  C   UNL     1      84.824  68.158  74.246  1.00  0.00     0.056 A 
ATOM     16  C   UNL     1      86.143  69.514  75.781  1.00  0.00     0.009 A 
ATOM     17  C   UNL     1      85.544  68.685  73.150  1.00  0.00     0.160 A 
ATOM     18  C   UNL     1      86.863  70.043  74.695  1.00  0.00     0.050 A 
ATOM     19  C   UNL     1      86.572  69.627  73.381  1.00  0.00     0.157 A 
BRANCH  17  20
ATOM     20  O   UNL     1      85.295  68.250  71.873  1.00  0.00    -0.493 OA
ATOM     21  C   UNL     1      83.955  68.501  71.415  1.00  0.00     0.278 C 
ENDBRANCH  17  20
BRANCH  19  22
ATOM     22  O   UNL     1      87.291  70.122  72.341  1.00  0.00    -0.504 OA
ATOM     23  H   UNL     1      87.362  71.076  72.428  1.00  0.00     0.293 HD
ENDBRANCH  19  22
ENDBRANCH  13  14
ENDBRANCH  11  13
ENDBRANCH   8   9
ENDBRANCH   1   8
TORSDOF 11
ENDMDL
MODEL 10
REMARK VINA RESULT:    -5.171     11.074     13.065
REMARK INTER + INTRA:          -9.343
REMARK INTER:                  -8.246
REMARK INTRA:                  -1.097
REMARK UNBOUND:                -0.998
REMARK SMILES CCCCCCCCC(=O)NCc1ccc(O)c(OC)c1
REMARK SMILES IDX 7 1 6 2 5 3 4 4 3 5 2 6 1 7 8 8 9 9 10 10 11 11 12 13 13 14
REMARK SMILES IDX 21 15 14 16 18 17 15 18 16 19 19 20 20 21 17 22
REMARK H PARENT 11 12 17 23
REMARK Flexibility Score: inf
ROOT
ATOM      1  C   UNL     1      97.503  82.885  75.370  1.00  0.00     0.010 C 
ENDROOT
BRANCH   1   2
ATOM      2  C   UNL     1      98.893  82.327  74.951  1.00  0.00     0.001 C 
BRANCH   2   3
ATOM      3  C   UNL     1     100.066  83.104  75.618  1.00  0.00     0.000 C 
BRANCH   3   4
ATOM      4  C   UNL     1     101.013  82.206  76.463  1.00  0.00    -0.000 C 
BRANCH   4   5
ATOM      5  C   UNL     1     100.314  80.917  76.981  1.00  0.00    -0.000 C 
BRANCH   5   6
ATOM      6  C   UNL     1     100.573  80.664  78.490  1.00  0.00    -0.003 C 
ATOM      7  C   UNL     1     102.073  80.691  78.855  1.00  0.00     0.004 C 
ENDBRANCH   5   6
ENDBRANCH   4   5
ENDBRANCH   3   4
ENDBRANCH   2   3
ENDBRANCH   1   2
BRANCH   1   8
ATOM      8  C   UNL     1      97.492  83.560  76.770  1.00  0.00     0.100 C 
BRANCH   8   9
ATOM      9  C   UNL     1      97.071  82.607  77.826  1.00  0.00     0.220 C 
ATOM     10  O   UNL     1      96.261  81.700  77.520  1.00  0.00    -0.275 OA
ATOM     11  N   UNL     1      97.580  82.703  79.089  1.00  0.00    -0.352 N 
ATOM     12  H   UNL     1      98.154  83.518  79.248  1.00  0.00     0.163 HD
BRANCH  11  13
ATOM     13  C   UNL     1      97.364  81.768  80.150  1.00  0.00     0.151 C 
BRANCH  13  14
ATOM     14  C   UNL     1      97.431  82.372  81.508  1.00  0.00    -0.025 A 
ATOM     15  C   UNL     1      98.425  81.954  82.425  1.00  0.00     0.056 A 
ATOM     16  C   UNL     1      96.508  83.365  81.908  1.00  0.00     0.009 A 
ATOM     17  C   UNL     1      98.513  82.531  83.712  1.00  0.00     0.160 A 
ATOM     18  C   UNL     1      96.591  83.944  83.187  1.00  0.00     0.050 A 
ATOM     19  C   UNL     1      97.584  83.526  84.093  1.00  0.00     0.157 A 
BRANCH  17  20
ATOM     20  O   UNL     1      99.450  82.095  84.614  1.00  0.00    -0.493 OA
ATOM     21  C   UNL     1      99.928  80.761  84.368  1.00  0.00     0.278 C 
ENDBRANCH  17  20
BRANCH  19  22
ATOM     22  O   UNL     1      97.638  84.071  85.335  1.00  0.00    -0.504 OA
ATOM     23  H   UNL     1      98.047  84.938  85.286  1.00  0.00     0.293 HD
ENDBRANCH  19  22
ENDBRANCH  13  14
ENDBRANCH  11  13
ENDBRANCH   8   9
ENDBRANCH   1   8
TORSDOF 11
ENDMDL
