MODEL 1
REMARK VINA RESULT:    -6.335      0.000      0.000
REMARK INTER + INTRA:         -10.348
REMARK INTER:                  -9.853
REMARK INTRA:                  -0.495
REMARK UNBOUND:                -0.495
REMARK SMILES COc1cc(CNC(=O)CCCC/C=C/C(C)C)ccc1O
REMARK SMILES IDX 10 1 8 2 7 3 9 5 6 6 5 7 3 8 21 9 4 10 20 11 19 12 2 13 1 14
REMARK SMILES IDX 22 15 11 17 12 18 13 19 14 20 15 21 16 22 17 23 18 24
REMARK H PARENT 7 4 22 16
REMARK Flexibility Score: inf
ROOT
ATOM      1  C   UNL     1      93.198  99.347  72.942  1.00  0.00     0.100 C 
ENDROOT
BRANCH   1   2
ATOM      2  C   UNL     1      94.150  98.309  73.383  1.00  0.00     0.220 C 
ATOM      3  N   UNL     1      93.793  97.402  74.335  1.00  0.00    -0.352 N 
ATOM      4  H   UNL     1      92.862  97.522  74.710  1.00  0.00     0.163 HD
ATOM      5  O   UNL     1      95.281  98.275  72.840  1.00  0.00    -0.275 OA
BRANCH   3   6
ATOM      6  C   UNL     1      94.627  96.343  74.806  1.00  0.00     0.151 C 
BRANCH   6   7
ATOM      7  C   UNL     1      93.892  95.438  75.731  1.00  0.00    -0.025 A 
ATOM      8  C   UNL     1      93.914  93.769  77.540  1.00  0.00     0.160 A 
ATOM      9  C   UNL     1      92.504  93.722  77.516  1.00  0.00     0.157 A 
ATOM     10  C   UNL     1      94.593  94.624  76.647  1.00  0.00     0.056 A 
ATOM     11  C   UNL     1      91.792  94.515  76.594  1.00  0.00     0.050 A 
ATOM     12  C   UNL     1      92.479  95.374  75.714  1.00  0.00     0.009 A 
BRANCH   8  13
ATOM     13  O   UNL     1      94.614  92.951  78.390  1.00  0.00    -0.493 OA
ATOM     14  C   UNL     1      96.020  92.864  78.095  1.00  0.00     0.278 C 
ENDBRANCH   8  13
BRANCH   9  15
ATOM     15  O   UNL     1      91.819  92.920  78.371  1.00  0.00    -0.504 OA
ATOM     16  H   UNL     1      91.749  92.039  77.997  1.00  0.00     0.293 HD
ENDBRANCH   9  15
ENDBRANCH   6   7
ENDBRANCH   3   6
ENDBRANCH   1   2
BRANCH   1  17
ATOM     17  C   UNL     1      92.584  99.009  71.557  1.00  0.00     0.010 C 
BRANCH  17  18
ATOM     18  C   UNL     1      91.461  99.999  71.136  1.00  0.00     0.005 C 
BRANCH  18  19
ATOM     19  C   UNL     1      90.178  99.268  70.658  1.00  0.00     0.027 C 
BRANCH  19  20
ATOM     20  C   UNL     1      89.997  99.365  69.217  1.00  0.00    -0.031 C 
ATOM     21  C   UNL     1      88.799  99.408  68.607  1.00  0.00    -0.028 C 
BRANCH  21  22
ATOM     22  C   UNL     1      88.640  99.526  67.157  1.00  0.00     0.005 C 
ATOM     23  C   UNL     1      87.224 100.026  66.758  1.00  0.00     0.012 C 
ATOM     24  C   UNL     1      89.739 100.450  66.571  1.00  0.00     0.012 C 
ENDBRANCH  21  22
ENDBRANCH  19  20
ENDBRANCH  18  19
ENDBRANCH  17  18
ENDBRANCH   1  17
TORSDOF 10
ENDMDL
MODEL 2
REMARK VINA RESULT:    -6.293      5.326      6.934
REMARK INTER + INTRA:         -10.283
REMARK INTER:                  -9.334
REMARK INTRA:                  -0.949
REMARK UNBOUND:                -0.495
REMARK SMILES COc1cc(CNC(=O)CCCC/C=C/C(C)C)ccc1O
REMARK SMILES IDX 10 1 8 2 7 3 9 5 6 6 5 7 3 8 21 9 4 10 20 11 19 12 2 13 1 14
REMARK SMILES IDX 22 15 11 17 12 18 13 19 14 20 15 21 16 22 17 23 18 24
REMARK H PARENT 7 4 22 16
REMARK Flexibility Score: inf
ROOT
ATOM      1  C   UNL     1      96.670  97.064  74.079  1.00  0.00     0.100 C 
ENDROOT
BRANCH   1   2
ATOM      2  C   UNL     1      96.999  97.664  75.386  1.00  0.00     0.220 C 
ATOM      3  N   UNL     1      97.737  96.972  76.298  1.00  0.00    -0.352 N 
ATOM      4  H   UNL     1      98.004  96.040  76.012  1.00  0.00     0.163 HD
ATOM      5  O   UNL     1      96.600  98.830  75.620  1.00  0.00    -0.275 OA
BRANCH   3   6
ATOM      6  C   UNL     1      98.135  97.473  77.575  1.00  0.00     0.151 C 
BRANCH   6   7
ATOM      7  C   UNL     1      97.471  96.733  78.683  1.00  0.00    -0.025 A 
ATOM      8  C   UNL     1      96.582  94.631  79.607  1.00  0.00     0.160 A 
ATOM      9  C   UNL     1      96.225  95.303  80.794  1.00  0.00     0.157 A 
ATOM     10  C   UNL     1      97.199  95.352  78.563  1.00  0.00     0.056 A 
ATOM     11  C   UNL     1      96.472  96.684  80.921  1.00  0.00     0.050 A 
ATOM     12  C   UNL     1      97.099  97.393  79.878  1.00  0.00     0.009 A 
BRANCH   8  13
ATOM     13  O   UNL     1      96.284  93.301  79.453  1.00  0.00    -0.493 OA
ATOM     14  C   UNL     1      95.957  92.925  78.103  1.00  0.00     0.278 C 
ENDBRANCH   8  13
BRANCH   9  15
ATOM     15  O   UNL     1      95.641  94.636  81.823  1.00  0.00    -0.504 OA
ATOM     16  H   UNL     1      96.314  94.173  82.328  1.00  0.00     0.293 HD
ENDBRANCH   9  15
ENDBRANCH   6   7
ENDBRANCH   3   6
ENDBRANCH   1   2
BRANCH   1  17
ATOM     17  C   UNL     1      95.164  96.705  73.976  1.00  0.00     0.010 C 
BRANCH  17  18
ATOM     18  C   UNL     1      94.632  95.960  75.233  1.00  0.00     0.005 C 
BRANCH  18  19
ATOM     19  C   UNL     1      93.084  96.007  75.336  1.00  0.00     0.027 C 
BRANCH  19  20
ATOM     20  C   UNL     1      92.579  95.137  76.388  1.00  0.00    -0.031 C 
ATOM     21  C   UNL     1      91.431  94.440  76.307  1.00  0.00    -0.028 C 
BRANCH  21  22
ATOM     22  C   UNL     1      90.953  93.555  77.369  1.00  0.00     0.005 C 
ATOM     23  C   UNL     1      90.274  92.275  76.809  1.00  0.00     0.012 C 
ATOM     24  C   UNL     1      92.116  93.191  78.328  1.00  0.00     0.012 C 
ENDBRANCH  21  22
ENDBRANCH  19  20
ENDBRANCH  18  19
ENDBRANCH  17  18
ENDBRANCH   1  17
TORSDOF 10
ENDMDL
MODEL 3
REMARK VINA RESULT:    -6.153      5.388      7.413
REMARK INTER + INTRA:         -10.066
REMARK INTER:                  -9.045
REMARK INTRA:                  -1.021
REMARK UNBOUND:                -0.495
REMARK SMILES COc1cc(CNC(=O)CCCC/C=C/C(C)C)ccc1O
REMARK SMILES IDX 10 1 8 2 7 3 9 5 6 6 5 7 3 8 21 9 4 10 20 11 19 12 2 13 1 14
REMARK SMILES IDX 22 15 11 17 12 18 13 19 14 20 15 21 16 22 17 23 18 24
REMARK H PARENT 7 4 22 16
REMARK Flexibility Score: inf
ROOT
ATOM      1  C   UNL     1      96.222  94.364  79.642  1.00  0.00     0.100 C 
ENDROOT
BRANCH   1   2
ATOM      2  C   UNL     1      95.658  93.880  78.367  1.00  0.00     0.220 C 
ATOM      3  N   UNL     1      94.708  94.605  77.711  1.00  0.00    -0.352 N 
ATOM      4  H   UNL     1      94.424  95.455  78.177  1.00  0.00     0.163 HD
ATOM      5  O   UNL     1      96.095  92.801  77.898  1.00  0.00    -0.275 OA
BRANCH   3   6
ATOM      6  C   UNL     1      94.125  94.241  76.460  1.00  0.00     0.151 C 
BRANCH   6   7
ATOM      7  C   UNL     1      92.824  93.542  76.646  1.00  0.00    -0.025 A 
ATOM      8  C   UNL     1      91.013  92.139  75.744  1.00  0.00     0.160 A 
ATOM      9  C   UNL     1      90.354  92.187  76.990  1.00  0.00     0.157 A 
ATOM     10  C   UNL     1      92.239  92.817  75.583  1.00  0.00     0.056 A 
ATOM     11  C   UNL     1      90.915  92.922  78.053  1.00  0.00     0.050 A 
ATOM     12  C   UNL     1      92.145  93.587  77.887  1.00  0.00     0.009 A 
BRANCH   8  13
ATOM     13  O   UNL     1      90.438  91.480  74.687  1.00  0.00    -0.493 OA
ATOM     14  C   UNL     1      90.938  90.145  74.486  1.00  0.00     0.278 C 
ENDBRANCH   8  13
BRANCH   9  15
ATOM     15  O   UNL     1      89.178  91.534  77.182  1.00  0.00    -0.504 OA
ATOM     16  H   UNL     1      88.629  91.627  76.400  1.00  0.00     0.293 HD
ENDBRANCH   9  15
ENDBRANCH   6   7
ENDBRANCH   3   6
ENDBRANCH   1   2
BRANCH   1  17
ATOM     17  C   UNL     1      96.845  95.778  79.492  1.00  0.00     0.010 C 
BRANCH  17  18
ATOM     18  C   UNL     1      97.685  95.935  78.193  1.00  0.00     0.005 C 
BRANCH  18  19
ATOM     19  C   UNL     1      97.614  97.373  77.614  1.00  0.00     0.027 C 
BRANCH  19  20
ATOM     20  C   UNL     1      96.781  97.443  76.423  1.00  0.00    -0.031 C 
ATOM     21  C   UNL     1      96.839  96.562  75.407  1.00  0.00    -0.028 C 
BRANCH  21  22
ATOM     22  C   UNL     1      95.978  96.641  74.227  1.00  0.00     0.005 C 
ATOM     23  C   UNL     1      94.601  97.288  74.544  1.00  0.00     0.012 C 
ATOM     24  C   UNL     1      96.699  97.406  73.087  1.00  0.00     0.012 C 
ENDBRANCH  21  22
ENDBRANCH  19  20
ENDBRANCH  18  19
ENDBRANCH  17  18
ENDBRANCH   1  17
TORSDOF 10
ENDMDL
MODEL 4
REMARK VINA RESULT:    -6.140     15.565     17.335
REMARK INTER + INTRA:         -10.045
REMARK INTER:                  -9.159
REMARK INTRA:                  -0.886
REMARK UNBOUND:                -0.495
REMARK SMILES COc1cc(CNC(=O)CCCC/C=C/C(C)C)ccc1O
REMARK SMILES IDX 10 1 8 2 7 3 9 5 6 6 5 7 3 8 21 9 4 10 20 11 19 12 2 13 1 14
REMARK SMILES IDX 22 15 11 17 12 18 13 19 14 20 15 21 16 22 17 23 18 24
REMARK H PARENT 7 4 22 16
REMARK Flexibility Score: inf
ROOT
ATOM      1  C   UNL     1      98.097  81.800  78.057  1.00  0.00     0.100 C 
ENDROOT
BRANCH   1   2
ATOM      2  C   UNL     1      98.182  81.194  79.400  1.00  0.00     0.220 C 
ATOM      3  N   UNL     1      97.061  81.026  80.156  1.00  0.00    -0.352 N 
ATOM      4  H   UNL     1      96.208  81.366  79.734  1.00  0.00     0.163 HD
ATOM      5  O   UNL     1      99.307  80.819  79.810  1.00  0.00    -0.275 OA
BRANCH   3   6
ATOM      6  C   UNL     1      97.033  80.423  81.450  1.00  0.00     0.151 C 
BRANCH   6   7
ATOM      7  C   UNL     1      96.649  81.404  82.502  1.00  0.00    -0.025 A 
ATOM      8  C   UNL     1      96.252  81.937  84.873  1.00  0.00     0.160 A 
ATOM      9  C   UNL     1      95.939  83.266  84.522  1.00  0.00     0.157 A 
ATOM     10  C   UNL     1      96.601  81.018  83.860  1.00  0.00     0.056 A 
ATOM     11  C   UNL     1      95.964  83.661  83.170  1.00  0.00     0.050 A 
ATOM     12  C   UNL     1      96.325  82.740  82.167  1.00  0.00     0.009 A 
BRANCH   8  13
ATOM     13  O   UNL     1      96.165  81.531  86.180  1.00  0.00    -0.493 OA
ATOM     14  C   UNL     1      96.466  80.139  86.384  1.00  0.00     0.278 C 
ENDBRANCH   8  13
BRANCH   9  15
ATOM     15  O   UNL     1      95.612  84.179  85.474  1.00  0.00    -0.504 OA
ATOM     16  H   UNL     1      95.781  83.810  86.343  1.00  0.00     0.293 HD
ENDBRANCH   9  15
ENDBRANCH   6   7
ENDBRANCH   3   6
ENDBRANCH   1   2
BRANCH   1  17
ATOM     17  C   UNL     1      96.675  82.354  77.769  1.00  0.00     0.010 C 
BRANCH  17  18
ATOM     18  C   UNL     1      96.170  82.009  76.340  1.00  0.00     0.005 C 
BRANCH  18  19
ATOM     19  C   UNL     1      96.017  83.270  75.447  1.00  0.00     0.027 C 
BRANCH  19  20
ATOM     20  C   UNL     1      97.146  83.442  74.545  1.00  0.00    -0.031 C 
ATOM     21  C   UNL     1      98.189  82.595  74.470  1.00  0.00    -0.028 C 
BRANCH  21  22
ATOM     22  C   UNL     1      99.305  82.776  73.541  1.00  0.00     0.005 C 
ATOM     23  C   UNL     1      99.316  81.703  72.417  1.00  0.00     0.012 C 
ATOM     24  C   UNL     1      99.275  84.206  72.941  1.00  0.00     0.012 C 
ENDBRANCH  21  22
ENDBRANCH  19  20
ENDBRANCH  18  19
ENDBRANCH  17  18
ENDBRANCH   1  17
TORSDOF 10
ENDMDL
MODEL 5
REMARK VINA RESULT:    -6.081      5.452      7.073
REMARK INTER + INTRA:          -9.952
REMARK INTER:                  -8.985
REMARK INTRA:                  -0.967
REMARK UNBOUND:                -0.495
REMARK SMILES COc1cc(CNC(=O)CCCC/C=C/C(C)C)ccc1O
REMARK SMILES IDX 10 1 8 2 7 3 9 5 6 6 5 7 3 8 21 9 4 10 20 11 19 12 2 13 1 14
REMARK SMILES IDX 22 15 11 17 12 18 13 19 14 20 15 21 16 22 17 23 18 24
REMARK H PARENT 7 4 22 16
REMARK Flexibility Score: inf
ROOT
ATOM      1  C   UNL     1      96.599  97.042  73.966  1.00  0.00     0.100 C 
ENDROOT
BRANCH   1   2
ATOM      2  C   UNL     1      96.762  97.680  75.287  1.00  0.00     0.220 C 
ATOM      3  N   UNL     1      97.431  97.038  76.286  1.00  0.00    -0.352 N 
ATOM      4  H   UNL     1      97.766  96.114  76.050  1.00  0.00     0.163 HD
ATOM      5  O   UNL     1      96.291  98.831  75.451  1.00  0.00    -0.275 OA
BRANCH   3   6
ATOM      6  C   UNL     1      97.670  97.580  77.585  1.00  0.00     0.151 C 
BRANCH   6   7
ATOM      7  C   UNL     1      97.131  96.695  78.654  1.00  0.00    -0.025 A 
ATOM      8  C   UNL     1      97.086  95.990  81.013  1.00  0.00     0.160 A 
ATOM      9  C   UNL     1      96.101  95.029  80.707  1.00  0.00     0.157 A 
ATOM     10  C   UNL     1      97.593  96.812  79.984  1.00  0.00     0.056 A 
ATOM     11  C   UNL     1      95.644  94.887  79.382  1.00  0.00     0.050 A 
ATOM     12  C   UNL     1      96.148  95.720  78.364  1.00  0.00     0.009 A 
BRANCH   8  13
ATOM     13  O   UNL     1      97.581  96.087  82.288  1.00  0.00    -0.493 OA
ATOM     14  C   UNL     1      96.951  97.106  83.087  1.00  0.00     0.278 C 
ENDBRANCH   8  13
BRANCH   9  15
ATOM     15  O   UNL     1      95.582  94.231  81.677  1.00  0.00    -0.504 OA
ATOM     16  H   UNL     1      94.624  94.289  81.661  1.00  0.00     0.293 HD
ENDBRANCH   9  15
ENDBRANCH   6   7
ENDBRANCH   3   6
ENDBRANCH   1   2
BRANCH   1  17
ATOM     17  C   UNL     1      95.195  96.398  73.811  1.00  0.00     0.010 C 
BRANCH  17  18
ATOM     18  C   UNL     1      94.896  95.330  74.900  1.00  0.00     0.005 C 
BRANCH  18  19
ATOM     19  C   UNL     1      93.449  95.440  75.454  1.00  0.00     0.027 C 
BRANCH  19  20
ATOM     20  C   UNL     1      92.998  94.196  76.058  1.00  0.00    -0.031 C 
ATOM     21  C   UNL     1      91.720  93.777  76.062  1.00  0.00    -0.028 C 
BRANCH  21  22
ATOM     22  C   UNL     1      91.292  92.512  76.659  1.00  0.00     0.005 C 
ATOM     23  C   UNL     1      90.120  92.700  77.662  1.00  0.00     0.012 C 
ATOM     24  C   UNL     1      90.913  91.497  75.550  1.00  0.00     0.012 C 
ENDBRANCH  21  22
ENDBRANCH  19  20
ENDBRANCH  18  19
ENDBRANCH  17  18
ENDBRANCH   1  17
TORSDOF 10
ENDMDL
MODEL 6
REMARK VINA RESULT:    -6.042     15.771     19.060
REMARK INTER + INTRA:          -9.892
REMARK INTER:                  -9.352
REMARK INTRA:                  -0.540
REMARK UNBOUND:                -0.495
REMARK SMILES COc1cc(CNC(=O)CCCC/C=C/C(C)C)ccc1O
REMARK SMILES IDX 10 1 8 2 7 3 9 5 6 6 5 7 3 8 21 9 4 10 20 11 19 12 2 13 1 14
REMARK SMILES IDX 22 15 11 17 12 18 13 19 14 20 15 21 16 22 17 23 18 24
REMARK H PARENT 7 4 22 16
REMARK Flexibility Score: inf
ROOT
ATOM      1  C   UNL     1      96.365  82.065  82.231  1.00  0.00     0.100 C 
ENDROOT
BRANCH   1   2
ATOM      2  C   UNL     1      97.009  81.374  81.097  1.00  0.00     0.220 C 
ATOM      3  N   UNL     1      97.663  82.084  80.136  1.00  0.00    -0.352 N 
ATOM      4  H   UNL     1      97.643  83.087  80.259  1.00  0.00     0.163 HD
ATOM      5  O   UNL     1      96.955  80.121  81.059  1.00  0.00    -0.275 OA
BRANCH   3   6
ATOM      6  C   UNL     1      98.343  81.511  79.019  1.00  0.00     0.151 C 
BRANCH   6   7
ATOM      7  C   UNL     1      97.735  81.939  77.730  1.00  0.00    -0.025 A 
ATOM      8  C   UNL     1      97.874  82.165  75.282  1.00  0.00     0.160 A 
ATOM      9  C   UNL     1      96.583  82.733  75.260  1.00  0.00     0.157 A 
ATOM     10  C   UNL     1      98.438  81.776  76.515  1.00  0.00     0.056 A 
ATOM     11  C   UNL     1      95.878  82.920  76.466  1.00  0.00     0.050 A 
ATOM     12  C   UNL     1      96.445  82.518  77.691  1.00  0.00     0.009 A 
BRANCH   8  13
ATOM     13  O   UNL     1      98.590  82.041  74.118  1.00  0.00    -0.493 OA
ATOM     14  C   UNL     1      99.730  81.168  74.222  1.00  0.00     0.278 C 
ENDBRANCH   8  13
BRANCH   9  15
ATOM     15  O   UNL     1      96.006  83.106  74.089  1.00  0.00    -0.504 OA
ATOM     16  H   UNL     1      95.556  82.353  73.699  1.00  0.00     0.293 HD
ENDBRANCH   9  15
ENDBRANCH   6   7
ENDBRANCH   3   6
ENDBRANCH   1   2
BRANCH   1  17
ATOM     17  C   UNL     1      95.913  81.065  83.329  1.00  0.00     0.010 C 
BRANCH  17  18
ATOM     18  C   UNL     1      94.772  81.624  84.225  1.00  0.00     0.005 C 
BRANCH  18  19
ATOM     19  C   UNL     1      95.303  82.203  85.564  1.00  0.00     0.027 C 
BRANCH  19  20
ATOM     20  C   UNL     1      94.416  83.219  86.111  1.00  0.00    -0.031 C 
ATOM     21  C   UNL     1      93.243  82.953  86.714  1.00  0.00    -0.028 C 
BRANCH  21  22
ATOM     22  C   UNL     1      92.376  83.990  87.274  1.00  0.00     0.005 C 
ATOM     23  C   UNL     1      90.995  83.429  87.713  1.00  0.00     0.012 C 
ATOM     24  C   UNL     1      93.085  84.700  88.457  1.00  0.00     0.012 C 
ENDBRANCH  21  22
ENDBRANCH  19  20
ENDBRANCH  18  19
ENDBRANCH  17  18
ENDBRANCH   1  17
TORSDOF 10
ENDMDL
MODEL 7
REMARK VINA RESULT:    -5.987     19.716     22.696
REMARK INTER + INTRA:          -9.806
REMARK INTER:                  -7.678
REMARK INTRA:                  -2.128
REMARK UNBOUND:                -0.495
REMARK SMILES COc1cc(CNC(=O)CCCC/C=C/C(C)C)ccc1O
REMARK SMILES IDX 10 1 8 2 7 3 9 5 6 6 5 7 3 8 21 9 4 10 20 11 19 12 2 13 1 14
REMARK SMILES IDX 22 15 11 17 12 18 13 19 14 20 15 21 16 22 17 23 18 24
REMARK H PARENT 7 4 22 16
REMARK Flexibility Score: inf
ROOT
ATOM      1  C   UNL     1      74.800  89.890  65.527  1.00  0.00     0.100 C 
ENDROOT
BRANCH   1   2
ATOM      2  C   UNL     1      74.732  88.872  64.460  1.00  0.00     0.220 C 
ATOM      3  N   UNL     1      74.217  87.637  64.715  1.00  0.00    -0.352 N 
ATOM      4  H   UNL     1      73.922  87.486  65.670  1.00  0.00     0.163 HD
ATOM      5  O   UNL     1      75.138  89.187  63.315  1.00  0.00    -0.275 OA
BRANCH   3   6
ATOM      6  C   UNL     1      74.077  86.596  63.747  1.00  0.00     0.151 C 
BRANCH   6   7
ATOM      7  C   UNL     1      74.767  85.351  64.180  1.00  0.00    -0.025 A 
ATOM      8  C   UNL     1      74.690  82.945  64.700  1.00  0.00     0.160 A 
ATOM      9  C   UNL     1      76.071  82.963  64.987  1.00  0.00     0.157 A 
ATOM     10  C   UNL     1      74.052  84.139  64.303  1.00  0.00     0.056 A 
ATOM     11  C   UNL     1      76.794  84.168  64.888  1.00  0.00     0.050 A 
ATOM     12  C   UNL     1      76.150  85.352  64.479  1.00  0.00     0.009 A 
BRANCH   8  13
ATOM     13  O   UNL     1      73.970  81.789  64.859  1.00  0.00    -0.493 OA
ATOM     14  C   UNL     1      72.630  81.994  65.345  1.00  0.00     0.278 C 
ENDBRANCH   8  13
BRANCH   9  15
ATOM     15  O   UNL     1      76.719  81.829  65.359  1.00  0.00    -0.504 OA
ATOM     16  H   UNL     1      76.925  81.306  64.581  1.00  0.00     0.293 HD
ENDBRANCH   9  15
ENDBRANCH   6   7
ENDBRANCH   3   6
ENDBRANCH   1   2
BRANCH   1  17
ATOM     17  C   UNL     1      75.416  89.313  66.830  1.00  0.00     0.010 C 
BRANCH  17  18
ATOM     18  C   UNL     1      76.962  89.165  66.754  1.00  0.00     0.005 C 
BRANCH  18  19
ATOM     19  C   UNL     1      77.475  87.922  67.529  1.00  0.00     0.027 C 
BRANCH  19  20
ATOM     20  C   UNL     1      76.409  86.972  67.809  1.00  0.00    -0.031 C 
ATOM     21  C   UNL     1      76.609  85.723  68.267  1.00  0.00    -0.028 C 
BRANCH  21  22
ATOM     22  C   UNL     1      75.520  84.792  68.560  1.00  0.00     0.005 C 
ATOM     23  C   UNL     1      75.255  84.656  70.085  1.00  0.00     0.012 C 
ATOM     24  C   UNL     1      74.232  85.221  67.811  1.00  0.00     0.012 C 
ENDBRANCH  21  22
ENDBRANCH  19  20
ENDBRANCH  18  19
ENDBRANCH  17  18
ENDBRANCH   1  17
TORSDOF 10
ENDMDL
MODEL 8
REMARK VINA RESULT:    -5.926     20.506     23.389
REMARK INTER + INTRA:          -9.712
REMARK INTER:                  -8.334
REMARK INTRA:                  -1.378
REMARK UNBOUND:                -0.495
REMARK SMILES COc1cc(CNC(=O)CCCC/C=C/C(C)C)ccc1O
REMARK SMILES IDX 10 1 8 2 7 3 9 5 6 6 5 7 3 8 21 9 4 10 20 11 19 12 2 13 1 14
REMARK SMILES IDX 22 15 11 17 12 18 13 19 14 20 15 21 16 22 17 23 18 24
REMARK H PARENT 7 4 22 16
REMARK Flexibility Score: inf
ROOT
ATOM      1  C   UNL     1      74.424  88.609  64.463  1.00  0.00     0.100 C 
ENDROOT
BRANCH   1   2
ATOM      2  C   UNL     1      73.494  87.893  65.357  1.00  0.00     0.220 C 
ATOM      3  N   UNL     1      73.821  86.670  65.859  1.00  0.00    -0.352 N 
ATOM      4  H   UNL     1      74.714  86.308  65.552  1.00  0.00     0.163 HD
ATOM      5  O   UNL     1      72.411  88.452  65.656  1.00  0.00    -0.275 OA
BRANCH   3   6
ATOM      6  C   UNL     1      73.008  85.911  66.755  1.00  0.00     0.151 C 
BRANCH   6   7
ATOM      7  C   UNL     1      72.810  84.519  66.267  1.00  0.00    -0.025 A 
ATOM      8  C   UNL     1      73.753  82.353  65.571  1.00  0.00     0.160 A 
ATOM      9  C   UNL     1      72.452  81.855  65.357  1.00  0.00     0.157 A 
ATOM     10  C   UNL     1      73.921  83.679  66.022  1.00  0.00     0.056 A 
ATOM     11  C   UNL     1      71.336  82.686  65.578  1.00  0.00     0.050 A 
ATOM     12  C   UNL     1      71.512  84.005  66.039  1.00  0.00     0.009 A 
BRANCH   8  13
ATOM     13  O   UNL     1      74.845  81.569  65.294  1.00  0.00    -0.493 OA
ATOM     14  C   UNL     1      75.405  81.786  63.986  1.00  0.00     0.278 C 
ENDBRANCH   8  13
BRANCH   9  15
ATOM     15  O   UNL     1      72.256  80.578  64.936  1.00  0.00    -0.504 OA
ATOM     16  H   UNL     1      72.534  79.968  65.622  1.00  0.00     0.293 HD
ENDBRANCH   9  15
ENDBRANCH   6   7
ENDBRANCH   3   6
ENDBRANCH   1   2
BRANCH   1  17
ATOM     17  C   UNL     1      75.263  89.663  65.235  1.00  0.00     0.010 C 
BRANCH  17  18
ATOM     18  C   UNL     1      76.694  89.164  65.578  1.00  0.00     0.005 C 
BRANCH  18  19
ATOM     19  C   UNL     1      76.900  88.962  67.104  1.00  0.00     0.027 C 
BRANCH  19  20
ATOM     20  C   UNL     1      77.274  87.594  67.429  1.00  0.00    -0.031 C 
ATOM     21  C   UNL     1      76.558  86.785  68.231  1.00  0.00    -0.028 C 
BRANCH  21  22
ATOM     22  C   UNL     1      76.943  85.405  68.529  1.00  0.00     0.005 C 
ATOM     23  C   UNL     1      75.839  84.641  69.310  1.00  0.00     0.012 C 
ATOM     24  C   UNL     1      77.314  84.658  67.222  1.00  0.00     0.012 C 
ENDBRANCH  21  22
ENDBRANCH  19  20
ENDBRANCH  18  19
ENDBRANCH  17  18
ENDBRANCH   1  17
TORSDOF 10
ENDMDL
MODEL 9
REMARK VINA RESULT:    -5.721     28.157     31.192
REMARK INTER + INTRA:          -9.394
REMARK INTER:                  -8.104
REMARK INTRA:                  -1.290
REMARK UNBOUND:                -0.495
REMARK SMILES COc1cc(CNC(=O)CCCC/C=C/C(C)C)ccc1O
REMARK SMILES IDX 10 1 8 2 7 3 9 5 6 6 5 7 3 8 21 9 4 10 20 11 19 12 2 13 1 14
REMARK SMILES IDX 22 15 11 17 12 18 13 19 14 20 15 21 16 22 17 23 18 24
REMARK H PARENT 7 4 22 16
REMARK Flexibility Score: inf
ROOT
ATOM      1  C   UNL     1      82.066  65.214  76.060  1.00  0.00     0.100 C 
ENDROOT
BRANCH   1   2
ATOM      2  C   UNL     1      83.417  65.749  75.805  1.00  0.00     0.220 C 
ATOM      3  N   UNL     1      83.592  67.065  75.496  1.00  0.00    -0.352 N 
ATOM      4  H   UNL     1      82.741  67.606  75.437  1.00  0.00     0.163 HD
ATOM      5  O   UNL     1      84.393  64.967  75.905  1.00  0.00    -0.275 OA
BRANCH   3   6
ATOM      6  C   UNL     1      84.857  67.686  75.263  1.00  0.00     0.151 C 
BRANCH   6   7
ATOM      7  C   UNL     1      84.798  68.631  74.115  1.00  0.00    -0.025 A 
ATOM      8  C   UNL     1      85.385  70.802  73.112  1.00  0.00     0.160 A 
ATOM      9  C   UNL     1      84.714  70.436  71.927  1.00  0.00     0.157 A 
ATOM     10  C   UNL     1      85.419  69.897  74.194  1.00  0.00     0.056 A 
ATOM     11  C   UNL     1      84.073  69.184  71.840  1.00  0.00     0.050 A 
ATOM     12  C   UNL     1      84.123  68.284  72.921  1.00  0.00     0.009 A 
BRANCH   8  13
ATOM     13  O   UNL     1      85.954  72.045  73.225  1.00  0.00    -0.493 OA
ATOM     14  C   UNL     1      85.720  72.683  74.494  1.00  0.00     0.278 C 
ENDBRANCH   8  13
BRANCH   9  15
ATOM     15  O   UNL     1      84.673  71.278  70.862  1.00  0.00    -0.504 OA
ATOM     16  H   UNL     1      83.997  71.944  71.004  1.00  0.00     0.293 HD
ENDBRANCH   9  15
ENDBRANCH   6   7
ENDBRANCH   3   6
ENDBRANCH   1   2
BRANCH   1  17
ATOM     17  C   UNL     1      80.984  66.324  75.976  1.00  0.00     0.010 C 
BRANCH  17  18
ATOM     18  C   UNL     1      80.395  66.487  74.546  1.00  0.00     0.005 C 
BRANCH  18  19
ATOM     19  C   UNL     1      80.537  65.194  73.698  1.00  0.00     0.027 C 
BRANCH  19  20
ATOM     20  C   UNL     1      81.361  65.402  72.518  1.00  0.00    -0.031 C 
ATOM     21  C   UNL     1      80.886  65.432  71.259  1.00  0.00    -0.028 C 
BRANCH  21  22
ATOM     22  C   UNL     1      81.731  65.663  70.088  1.00  0.00     0.005 C 
ATOM     23  C   UNL     1      81.331  66.951  69.316  1.00  0.00     0.012 C 
ATOM     24  C   UNL     1      83.224  65.710  70.505  1.00  0.00     0.012 C 
ENDBRANCH  21  22
ENDBRANCH  19  20
ENDBRANCH  18  19
ENDBRANCH  17  18
ENDBRANCH   1  17
TORSDOF 10
ENDMDL
MODEL 10
REMARK VINA RESULT:    -5.694     27.029     29.891
REMARK INTER + INTRA:          -9.351
REMARK INTER:                  -8.382
REMARK INTRA:                  -0.968
REMARK UNBOUND:                -0.495
REMARK SMILES COc1cc(CNC(=O)CCCC/C=C/C(C)C)ccc1O
REMARK SMILES IDX 10 1 8 2 7 3 9 5 6 6 5 7 3 8 21 9 4 10 20 11 19 12 2 13 1 14
REMARK SMILES IDX 22 15 11 17 12 18 13 19 14 20 15 21 16 22 17 23 18 24
REMARK H PARENT 7 4 22 16
REMARK Flexibility Score: inf
ROOT
ATOM      1  C   UNL     1      84.257  67.246  73.331  1.00  0.00     0.100 C 
ENDROOT
BRANCH   1   2
ATOM      2  C   UNL     1      84.277  68.395  72.404  1.00  0.00     0.220 C 
ATOM      3  N   UNL     1      84.601  69.640  72.853  1.00  0.00    -0.352 N 
ATOM      4  H   UNL     1      84.793  69.700  73.844  1.00  0.00     0.163 HD
ATOM      5  O   UNL     1      84.013  68.186  71.196  1.00  0.00    -0.275 OA
BRANCH   3   6
ATOM      6  C   UNL     1      84.680  70.807  72.035  1.00  0.00     0.151 C 
BRANCH   6   7
ATOM      7  C   UNL     1      86.092  71.176  71.745  1.00  0.00    -0.025 A 
ATOM      8  C   UNL     1      87.898  71.573  70.118  1.00  0.00     0.160 A 
ATOM      9  C   UNL     1      88.777  71.898  71.172  1.00  0.00     0.157 A 
ATOM     10  C   UNL     1      86.566  71.214  70.414  1.00  0.00     0.056 A 
ATOM     11  C   UNL     1      88.324  71.845  72.505  1.00  0.00     0.050 A 
ATOM     12  C   UNL     1      86.990  71.497  72.790  1.00  0.00     0.009 A 
BRANCH   8  13
ATOM     13  O   UNL     1      88.352  71.559  68.824  1.00  0.00    -0.493 OA
ATOM     14  C   UNL     1      87.372  71.974  67.854  1.00  0.00     0.278 C 
ENDBRANCH   8  13
BRANCH   9  15
ATOM     15  O   UNL     1      90.061  72.260  70.921  1.00  0.00    -0.504 OA
ATOM     16  H   UNL     1      90.622  71.481  70.925  1.00  0.00     0.293 HD
ENDBRANCH   9  15
ENDBRANCH   6   7
ENDBRANCH   3   6
ENDBRANCH   1   2
BRANCH   1  17
ATOM     17  C   UNL     1      83.172  67.415  74.428  1.00  0.00     0.010 C 
BRANCH  17  18
ATOM     18  C   UNL     1      81.728  67.430  73.853  1.00  0.00     0.005 C 
BRANCH  18  19
ATOM     19  C   UNL     1      81.103  66.011  73.785  1.00  0.00     0.027 C 
BRANCH  19  20
ATOM     20  C   UNL     1      80.668  65.668  72.440  1.00  0.00    -0.031 C 
ATOM     21  C   UNL     1      81.372  65.936  71.326  1.00  0.00    -0.028 C 
BRANCH  21  22
ATOM     22  C   UNL     1      80.924  65.564  69.984  1.00  0.00     0.005 C 
ATOM     23  C   UNL     1      81.140  66.706  68.953  1.00  0.00     0.012 C 
ATOM     24  C   UNL     1      81.631  64.263  69.524  1.00  0.00     0.012 C 
ENDBRANCH  21  22
ENDBRANCH  19  20
ENDBRANCH  18  19
ENDBRANCH  17  18
ENDBRANCH   1  17
TORSDOF 10
ENDMDL
