MODEL 1
REMARK VINA RESULT:    -6.369      0.000      0.000
REMARK INTER + INTRA:         -11.494
REMARK INTER:                 -10.650
REMARK INTRA:                  -0.843
REMARK UNBOUND:                -0.843
REMARK SMILES COc1cc(CNC(=O)CCCCCCCC(C)C)ccc1O
REMARK SMILES IDX 11 1 10 2 8 3 9 4 7 5 6 7 5 8 4 9 20 10 3 11 21 12 22 13
REMARK SMILES IDX 2 14 1 15 23 16 12 18 13 19 14 20 15 21 16 22 17 23 18 24
REMARK SMILES IDX 19 25
REMARK H PARENT 7 6 23 17
REMARK Flexibility Score: inf
ROOT
ATOM      1  C   UNL     1      92.985 100.380  73.043  1.00  0.00     0.010 C 
ENDROOT
BRANCH   1   2
ATOM      2  C   UNL     1      92.525  99.721  74.342  1.00  0.00     0.100 C 
BRANCH   2   3
ATOM      3  C   UNL     1      93.581  98.799  74.928  1.00  0.00     0.220 C 
ATOM      4  O   UNL     1      94.759  98.819  74.584  1.00  0.00    -0.275 OA
ATOM      5  N   UNL     1      93.041  97.946  75.879  1.00  0.00    -0.352 N 
ATOM      6  H   UNL     1      92.049  97.995  76.092  1.00  0.00     0.163 HD
BRANCH   5   7
ATOM      7  C   UNL     1      93.829  96.961  76.585  1.00  0.00     0.151 C 
BRANCH   7   8
ATOM      8  C   UNL     1      92.968  95.932  77.258  1.00  0.00    -0.025 A 
ATOM      9  C   UNL     1      91.734  95.603  76.711  1.00  0.00     0.056 A 
ATOM     10  C   UNL     1      93.414  95.318  78.422  1.00  0.00     0.009 A 
ATOM     11  C   UNL     1      90.934  94.646  77.336  1.00  0.00     0.160 A 
ATOM     12  C   UNL     1      92.614  94.362  79.048  1.00  0.00     0.050 A 
ATOM     13  C   UNL     1      91.374  94.026  78.506  1.00  0.00     0.157 A 
BRANCH  11  14
ATOM     14  O   UNL     1      89.725  94.327  76.797  1.00  0.00    -0.493 OA
ATOM     15  C   UNL     1      89.708  93.299  75.807  1.00  0.00     0.278 C 
ENDBRANCH  11  14
BRANCH  13  16
ATOM     16  O   UNL     1      90.603  93.090  79.126  1.00  0.00    -0.504 OA
ATOM     17  H   UNL     1      90.966  92.917  80.011  1.00  0.00     0.293 HD
ENDBRANCH  13  16
ENDBRANCH   7   8
ENDBRANCH   5   7
ENDBRANCH   2   3
ENDBRANCH   1   2
BRANCH   1  18
ATOM     18  C   UNL     1      91.832 100.764  72.112  1.00  0.00     0.001 C 
BRANCH  18  19
ATOM     19  C   UNL     1      91.430  99.704  71.081  1.00  0.00     0.000 C 
BRANCH  19  20
ATOM     20  C   UNL     1      90.246  98.842  71.529  1.00  0.00     0.000 C 
BRANCH  20  21
ATOM     21  C   UNL     1      89.188  98.644  70.438  1.00  0.00     0.000 C 
BRANCH  21  22
ATOM     22  C   UNL     1      88.807  99.942  69.720  1.00  0.00     0.003 C 
BRANCH  22  23
ATOM     23  C   UNL     1      88.604  99.768  68.202  1.00  0.00    -0.017 C 
ATOM     24  C   UNL     1      88.572  98.278  67.852  1.00  0.00     0.007 C 
ATOM     25  C   UNL     1      89.691 100.464  67.382  1.00  0.00     0.007 C 
ENDBRANCH  22  23
ENDBRANCH  21  22
ENDBRANCH  20  21
ENDBRANCH  19  20
ENDBRANCH  18  19
ENDBRANCH   1  18
TORSDOF 12
ENDMDL
MODEL 2
REMARK VINA RESULT:    -5.998      6.027      8.969
REMARK INTER + INTRA:         -10.874
REMARK INTER:                  -9.446
REMARK INTRA:                  -1.428
REMARK UNBOUND:                -0.843
REMARK SMILES COc1cc(CNC(=O)CCCCCCCC(C)C)ccc1O
REMARK SMILES IDX 11 1 10 2 8 3 9 4 7 5 6 7 5 8 4 9 20 10 3 11 21 12 22 13
REMARK SMILES IDX 2 14 1 15 23 16 12 18 13 19 14 20 15 21 16 22 17 23 18 24
REMARK SMILES IDX 19 25
REMARK H PARENT 7 6 23 17
REMARK Flexibility Score: inf
ROOT
ATOM      1  C   UNL     1      94.201  95.116  78.575  1.00  0.00     0.010 C 
ENDROOT
BRANCH   1   2
ATOM      2  C   UNL     1      93.754  94.078  79.601  1.00  0.00     0.100 C 
BRANCH   2   3
ATOM      3  C   UNL     1      94.673  94.026  80.811  1.00  0.00     0.220 C 
ATOM      4  O   UNL     1      94.541  93.215  81.723  1.00  0.00    -0.275 OA
ATOM      5  N   UNL     1      95.653  95.005  80.747  1.00  0.00    -0.352 N 
ATOM      6  H   UNL     1      95.677  95.641  79.955  1.00  0.00     0.163 HD
BRANCH   5   7
ATOM      7  C   UNL     1      96.652  95.180  81.776  1.00  0.00     0.151 C 
BRANCH   7   8
ATOM      8  C   UNL     1      96.668  96.583  82.310  1.00  0.00    -0.025 A 
ATOM      9  C   UNL     1      97.883  97.214  82.548  1.00  0.00     0.056 A 
ATOM     10  C   UNL     1      95.468  97.236  82.561  1.00  0.00     0.009 A 
ATOM     11  C   UNL     1      97.898  98.518  83.045  1.00  0.00     0.160 A 
ATOM     12  C   UNL     1      95.482  98.540  83.058  1.00  0.00     0.050 A 
ATOM     13  C   UNL     1      96.697  99.181  83.300  1.00  0.00     0.157 A 
BRANCH  11  14
ATOM     14  O   UNL     1      99.091  99.133  83.278  1.00  0.00    -0.493 OA
ATOM     15  C   UNL     1     100.176  98.790  82.417  1.00  0.00     0.278 C 
ENDBRANCH  11  14
BRANCH  13  16
ATOM     16  O   UNL     1      96.698 100.454  83.784  1.00  0.00    -0.504 OA
ATOM     17  H   UNL     1      95.855 100.881  83.553  1.00  0.00     0.293 HD
ENDBRANCH  13  16
ENDBRANCH   7   8
ENDBRANCH   5   7
ENDBRANCH   2   3
ENDBRANCH   1   2
BRANCH   1  18
ATOM     18  C   UNL     1      93.854  94.737  77.132  1.00  0.00     0.001 C 
BRANCH  18  19
ATOM     19  C   UNL     1      92.982  95.743  76.373  1.00  0.00     0.000 C 
BRANCH  19  20
ATOM     20  C   UNL     1      91.989  96.483  77.272  1.00  0.00     0.000 C 
BRANCH  20  21
ATOM     21  C   UNL     1      90.839  95.599  77.767  1.00  0.00     0.000 C 
BRANCH  21  22
ATOM     22  C   UNL     1      90.174  94.788  76.651  1.00  0.00     0.003 C 
BRANCH  22  23
ATOM     23  C   UNL     1      90.026  93.290  76.984  1.00  0.00    -0.017 C 
ATOM     24  C   UNL     1      89.928  93.105  78.500  1.00  0.00     0.007 C 
ATOM     25  C   UNL     1      91.182  92.451  76.437  1.00  0.00     0.007 C 
ENDBRANCH  22  23
ENDBRANCH  21  22
ENDBRANCH  20  21
ENDBRANCH  19  20
ENDBRANCH  18  19
ENDBRANCH   1  18
TORSDOF 12
ENDMDL
MODEL 3
REMARK VINA RESULT:    -5.882     30.399     33.019
REMARK INTER + INTRA:         -10.679
REMARK INTER:                  -9.031
REMARK INTRA:                  -1.648
REMARK UNBOUND:                -0.843
REMARK SMILES COc1cc(CNC(=O)CCCCCCCC(C)C)ccc1O
REMARK SMILES IDX 11 1 10 2 8 3 9 4 7 5 6 7 5 8 4 9 20 10 3 11 21 12 22 13
REMARK SMILES IDX 2 14 1 15 23 16 12 18 13 19 14 20 15 21 16 22 17 23 18 24
REMARK SMILES IDX 19 25
REMARK H PARENT 7 6 23 17
REMARK Flexibility Score: inf
ROOT
ATOM      1  C   UNL     1      64.907  82.559  71.584  1.00  0.00     0.010 C 
ENDROOT
BRANCH   1   2
ATOM      2  C   UNL     1      65.050  82.450  70.067  1.00  0.00     0.100 C 
BRANCH   2   3
ATOM      3  C   UNL     1      63.707  82.467  69.357  1.00  0.00     0.220 C 
ATOM      4  O   UNL     1      63.345  81.588  68.580  1.00  0.00    -0.275 OA
ATOM      5  N   UNL     1      62.967  83.590  69.693  1.00  0.00    -0.352 N 
ATOM      6  H   UNL     1      63.355  84.272  70.339  1.00  0.00     0.163 HD
BRANCH   5   7
ATOM      7  C   UNL     1      61.654  83.854  69.150  1.00  0.00     0.151 C 
BRANCH   7   8
ATOM      8  C   UNL     1      60.787  84.606  70.118  1.00  0.00    -0.025 A 
ATOM      9  C   UNL     1      61.372  85.459  71.046  1.00  0.00     0.056 A 
ATOM     10  C   UNL     1      59.408  84.441  70.076  1.00  0.00     0.009 A 
ATOM     11  C   UNL     1      60.567  86.157  71.946  1.00  0.00     0.160 A 
ATOM     12  C   UNL     1      58.602  85.140  70.976  1.00  0.00     0.050 A 
ATOM     13  C   UNL     1      59.181  85.997  71.911  1.00  0.00     0.157 A 
BRANCH  11  14
ATOM     14  O   UNL     1      61.144  86.992  72.855  1.00  0.00    -0.493 OA
ATOM     15  C   UNL     1      61.663  86.396  74.043  1.00  0.00     0.278 C 
ENDBRANCH  11  14
BRANCH  13  16
ATOM     16  O   UNL     1      58.384  86.674  72.784  1.00  0.00    -0.504 OA
ATOM     17  H   UNL     1      57.456  86.439  72.612  1.00  0.00     0.293 HD
ENDBRANCH  13  16
ENDBRANCH   7   8
ENDBRANCH   5   7
ENDBRANCH   2   3
ENDBRANCH   1   2
BRANCH   1  18
ATOM     18  C   UNL     1      64.261  81.328  72.226  1.00  0.00     0.001 C 
BRANCH  18  19
ATOM     19  C   UNL     1      62.803  81.497  72.667  1.00  0.00     0.000 C 
BRANCH  19  20
ATOM     20  C   UNL     1      62.626  81.489  74.188  1.00  0.00     0.000 C 
BRANCH  20  21
ATOM     21  C   UNL     1      62.083  82.809  74.745  1.00  0.00     0.000 C 
BRANCH  21  22
ATOM     22  C   UNL     1      62.884  83.339  75.939  1.00  0.00     0.003 C 
BRANCH  22  23
ATOM     23  C   UNL     1      64.406  83.368  75.694  1.00  0.00    -0.017 C 
ATOM     24  C   UNL     1      65.142  83.519  77.027  1.00  0.00     0.007 C 
ATOM     25  C   UNL     1      64.825  84.491  74.745  1.00  0.00     0.007 C 
ENDBRANCH  22  23
ENDBRANCH  21  22
ENDBRANCH  20  21
ENDBRANCH  19  20
ENDBRANCH  18  19
ENDBRANCH   1  18
TORSDOF 12
ENDMDL
MODEL 4
REMARK VINA RESULT:    -5.864     19.330     22.229
REMARK INTER + INTRA:         -10.649
REMARK INTER:                  -8.240
REMARK INTRA:                  -2.409
REMARK UNBOUND:                -0.843
REMARK SMILES COc1cc(CNC(=O)CCCCCCCC(C)C)ccc1O
REMARK SMILES IDX 11 1 10 2 8 3 9 4 7 5 6 7 5 8 4 9 20 10 3 11 21 12 22 13
REMARK SMILES IDX 2 14 1 15 23 16 12 18 13 19 14 20 15 21 16 22 17 23 18 24
REMARK SMILES IDX 19 25
REMARK H PARENT 7 6 23 17
REMARK Flexibility Score: inf
ROOT
ATOM      1  C   UNL     1      76.824  86.118  69.974  1.00  0.00     0.010 C 
ENDROOT
BRANCH   1   2
ATOM      2  C   UNL     1      75.577  86.996  70.065  1.00  0.00     0.100 C 
BRANCH   2   3
ATOM      3  C   UNL     1      74.523  86.612  69.040  1.00  0.00     0.220 C 
ATOM      4  O   UNL     1      73.660  87.388  68.638  1.00  0.00    -0.275 OA
ATOM      5  N   UNL     1      74.660  85.292  68.638  1.00  0.00    -0.352 N 
ATOM      6  H   UNL     1      75.400  84.720  69.037  1.00  0.00     0.163 HD
BRANCH   5   7
ATOM      7  C   UNL     1      73.779  84.670  67.676  1.00  0.00     0.151 C 
BRANCH   7   8
ATOM      8  C   UNL     1      74.504  83.684  66.807  1.00  0.00    -0.025 A 
ATOM      9  C   UNL     1      73.784  82.884  65.928  1.00  0.00     0.056 A 
ATOM     10  C   UNL     1      75.887  83.580  66.892  1.00  0.00     0.009 A 
ATOM     11  C   UNL     1      74.458  81.967  65.120  1.00  0.00     0.160 A 
ATOM     12  C   UNL     1      76.560  82.662  66.085  1.00  0.00     0.050 A 
ATOM     13  C   UNL     1      75.847  81.856  65.199  1.00  0.00     0.157 A 
BRANCH  11  14
ATOM     14  O   UNL     1      73.749  81.184  64.260  1.00  0.00    -0.493 OA
ATOM     15  C   UNL     1      72.645  81.792  63.591  1.00  0.00     0.278 C 
ENDBRANCH  11  14
BRANCH  13  16
ATOM     16  O   UNL     1      76.515  80.965  64.416  1.00  0.00    -0.504 OA
ATOM     17  H   UNL     1      76.649  80.142  64.916  1.00  0.00     0.293 HD
ENDBRANCH  13  16
ENDBRANCH   7   8
ENDBRANCH   5   7
ENDBRANCH   2   3
ENDBRANCH   1   2
BRANCH   1  18
ATOM     18  C   UNL     1      77.967  86.762  69.184  1.00  0.00     0.001 C 
BRANCH  18  19
ATOM     19  C   UNL     1      77.969  86.487  67.677  1.00  0.00     0.000 C 
BRANCH  19  20
ATOM     20  C   UNL     1      77.309  87.600  66.858  1.00  0.00     0.000 C 
BRANCH  20  21
ATOM     21  C   UNL     1      76.342  87.079  65.789  1.00  0.00     0.000 C 
BRANCH  21  22
ATOM     22  C   UNL     1      76.918  87.137  64.370  1.00  0.00     0.003 C 
BRANCH  22  23
ATOM     23  C   UNL     1      76.323  86.077  63.422  1.00  0.00    -0.017 C 
ATOM     24  C   UNL     1      74.894  85.740  63.855  1.00  0.00     0.007 C 
ATOM     25  C   UNL     1      77.161  84.799  63.373  1.00  0.00     0.007 C 
ENDBRANCH  22  23
ENDBRANCH  21  22
ENDBRANCH  20  21
ENDBRANCH  19  20
ENDBRANCH  18  19
ENDBRANCH   1  18
TORSDOF 12
ENDMDL
MODEL 5
REMARK VINA RESULT:    -5.707     17.144     20.065
REMARK INTER + INTRA:         -10.388
REMARK INTER:                  -9.700
REMARK INTRA:                  -0.687
REMARK UNBOUND:                -0.843
REMARK SMILES COc1cc(CNC(=O)CCCCCCCC(C)C)ccc1O
REMARK SMILES IDX 11 1 10 2 8 3 9 4 7 5 6 7 5 8 4 9 20 10 3 11 21 12 22 13
REMARK SMILES IDX 2 14 1 15 23 16 12 18 13 19 14 20 15 21 16 22 17 23 18 24
REMARK SMILES IDX 19 25
REMARK H PARENT 7 6 23 17
REMARK Flexibility Score: inf
ROOT
ATOM      1  C   UNL     1      74.583  88.170  71.051  1.00  0.00     0.010 C 
ENDROOT
BRANCH   1   2
ATOM      2  C   UNL     1      75.704  87.785  70.088  1.00  0.00     0.100 C 
BRANCH   2   3
ATOM      3  C   UNL     1      75.945  86.285  70.049  1.00  0.00     0.220 C 
ATOM      4  O   UNL     1      75.119  85.460  70.429  1.00  0.00    -0.275 OA
ATOM      5  N   UNL     1      77.200  85.984  69.544  1.00  0.00    -0.352 N 
ATOM      6  H   UNL     1      77.823  86.737  69.264  1.00  0.00     0.163 HD
BRANCH   5   7
ATOM      7  C   UNL     1      77.685  84.629  69.407  1.00  0.00     0.151 C 
BRANCH   7   8
ATOM      8  C   UNL     1      77.392  84.063  68.049  1.00  0.00    -0.025 A 
ATOM      9  C   UNL     1      76.249  83.295  67.856  1.00  0.00     0.056 A 
ATOM     10  C   UNL     1      78.265  84.311  66.997  1.00  0.00     0.009 A 
ATOM     11  C   UNL     1      75.977  82.768  66.594  1.00  0.00     0.160 A 
ATOM     12  C   UNL     1      77.993  83.784  65.734  1.00  0.00     0.050 A 
ATOM     13  C   UNL     1      76.849  83.012  65.532  1.00  0.00     0.157 A 
BRANCH  11  14
ATOM     14  O   UNL     1      74.857  82.015  66.409  1.00  0.00    -0.493 OA
ATOM     15  C   UNL     1      73.613  82.711  66.336  1.00  0.00     0.278 C 
ENDBRANCH  11  14
BRANCH  13  16
ATOM     16  O   UNL     1      76.593  82.504  64.295  1.00  0.00    -0.504 OA
ATOM     17  H   UNL     1      77.218  82.892  63.658  1.00  0.00     0.293 HD
ENDBRANCH  13  16
ENDBRANCH   7   8
ENDBRANCH   5   7
ENDBRANCH   2   3
ENDBRANCH   1   2
BRANCH   1  18
ATOM     18  C   UNL     1      74.359  89.681  71.155  1.00  0.00     0.001 C 
BRANCH  18  19
ATOM     19  C   UNL     1      75.567  90.557  70.809  1.00  0.00     0.000 C 
BRANCH  19  20
ATOM     20  C   UNL     1      75.643  91.839  71.642  1.00  0.00     0.000 C 
BRANCH  20  21
ATOM     21  C   UNL     1      77.077  92.288  71.943  1.00  0.00     0.000 C 
BRANCH  21  22
ATOM     22  C   UNL     1      77.167  93.728  72.458  1.00  0.00     0.003 C 
BRANCH  22  23
ATOM     23  C   UNL     1      78.037  93.876  73.721  1.00  0.00    -0.017 C 
ATOM     24  C   UNL     1      77.485  92.986  74.837  1.00  0.00     0.007 C 
ATOM     25  C   UNL     1      78.120  95.322  74.210  1.00  0.00     0.007 C 
ENDBRANCH  22  23
ENDBRANCH  21  22
ENDBRANCH  20  21
ENDBRANCH  19  20
ENDBRANCH  18  19
ENDBRANCH   1  18
TORSDOF 12
ENDMDL
MODEL 6
REMARK VINA RESULT:    -5.618     15.349     18.509
REMARK INTER + INTRA:         -10.239
REMARK INTER:                  -9.018
REMARK INTRA:                  -1.221
REMARK UNBOUND:                -0.843
REMARK SMILES COc1cc(CNC(=O)CCCCCCCC(C)C)ccc1O
REMARK SMILES IDX 11 1 10 2 8 3 9 4 7 5 6 7 5 8 4 9 20 10 3 11 21 12 22 13
REMARK SMILES IDX 2 14 1 15 23 16 12 18 13 19 14 20 15 21 16 22 17 23 18 24
REMARK SMILES IDX 19 25
REMARK H PARENT 7 6 23 17
REMARK Flexibility Score: inf
ROOT
ATOM      1  C   UNL     1      75.413  88.729  70.284  1.00  0.00     0.010 C 
ENDROOT
BRANCH   1   2
ATOM      2  C   UNL     1      74.227  88.758  71.246  1.00  0.00     0.100 C 
BRANCH   2   3
ATOM      3  C   UNL     1      73.916  90.161  71.738  1.00  0.00     0.220 C 
ATOM      4  O   UNL     1      72.913  90.440  72.390  1.00  0.00    -0.275 OA
ATOM      5  N   UNL     1      74.894  91.066  71.353  1.00  0.00    -0.352 N 
ATOM      6  H   UNL     1      75.686  90.744  70.803  1.00  0.00     0.163 HD
BRANCH   5   7
ATOM      7  C   UNL     1      74.836  92.471  71.685  1.00  0.00     0.151 C 
BRANCH   7   8
ATOM      8  C   UNL     1      76.204  93.056  71.886  1.00  0.00    -0.025 A 
ATOM      9  C   UNL     1      76.416  94.408  71.640  1.00  0.00     0.056 A 
ATOM     10  C   UNL     1      77.243  92.241  72.316  1.00  0.00     0.009 A 
ATOM     11  C   UNL     1      77.687  94.952  71.827  1.00  0.00     0.160 A 
ATOM     12  C   UNL     1      78.515  92.786  72.503  1.00  0.00     0.050 A 
ATOM     13  C   UNL     1      78.737  94.140  72.258  1.00  0.00     0.157 A 
BRANCH  11  14
ATOM     14  O   UNL     1      77.891  96.277  71.584  1.00  0.00    -0.493 OA
ATOM     15  C   UNL     1      77.231  96.836  70.450  1.00  0.00     0.278 C 
ENDBRANCH  11  14
BRANCH  13  16
ATOM     16  O   UNL     1      79.982  94.660  72.445  1.00  0.00    -0.504 OA
ATOM     17  H   UNL     1      80.004  95.565  72.088  1.00  0.00     0.293 HD
ENDBRANCH  13  16
ENDBRANCH   7   8
ENDBRANCH   5   7
ENDBRANCH   2   3
ENDBRANCH   1   2
BRANCH   1  18
ATOM     18  C   UNL     1      76.065  87.350  70.160  1.00  0.00     0.001 C 
BRANCH  18  19
ATOM     19  C   UNL     1      75.113  86.153  70.261  1.00  0.00     0.000 C 
BRANCH  19  20
ATOM     20  C   UNL     1      75.749  84.928  70.924  1.00  0.00     0.000 C 
BRANCH  20  21
ATOM     21  C   UNL     1      76.938  84.360  70.141  1.00  0.00     0.000 C 
BRANCH  21  22
ATOM     22  C   UNL     1      76.568  83.898  68.727  1.00  0.00     0.003 C 
BRANCH  22  23
ATOM     23  C   UNL     1      77.335  84.643  67.617  1.00  0.00    -0.017 C 
ATOM     24  C   UNL     1      78.422  85.522  68.240  1.00  0.00     0.007 C 
ATOM     25  C   UNL     1      76.418  85.501  66.745  1.00  0.00     0.007 C 
ENDBRANCH  22  23
ENDBRANCH  21  22
ENDBRANCH  20  21
ENDBRANCH  19  20
ENDBRANCH  18  19
ENDBRANCH   1  18
TORSDOF 12
ENDMDL
MODEL 7
REMARK VINA RESULT:    -5.548     20.950     24.128
REMARK INTER + INTRA:         -10.122
REMARK INTER:                  -8.399
REMARK INTRA:                  -1.723
REMARK UNBOUND:                -0.843
REMARK SMILES COc1cc(CNC(=O)CCCCCCCC(C)C)ccc1O
REMARK SMILES IDX 11 1 10 2 8 3 9 4 7 5 6 7 5 8 4 9 20 10 3 11 21 12 22 13
REMARK SMILES IDX 2 14 1 15 23 16 12 18 13 19 14 20 15 21 16 22 17 23 18 24
REMARK SMILES IDX 19 25
REMARK H PARENT 7 6 23 17
REMARK Flexibility Score: inf
ROOT
ATOM      1  C   UNL     1      74.991  82.088  65.917  1.00  0.00     0.010 C 
ENDROOT
BRANCH   1   2
ATOM      2  C   UNL     1      74.606  83.171  64.911  1.00  0.00     0.100 C 
BRANCH   2   3
ATOM      3  C   UNL     1      73.129  83.523  64.977  1.00  0.00     0.220 C 
ATOM      4  O   UNL     1      72.616  84.409  64.300  1.00  0.00    -0.275 OA
ATOM      5  N   UNL     1      72.456  82.728  65.894  1.00  0.00    -0.352 N 
ATOM      6  H   UNL     1      72.968  82.024  66.419  1.00  0.00     0.163 HD
BRANCH   5   7
ATOM      7  C   UNL     1      71.042  82.861  66.157  1.00  0.00     0.151 C 
BRANCH   7   8
ATOM      8  C   UNL     1      70.770  83.250  67.581  1.00  0.00    -0.025 A 
ATOM      9  C   UNL     1      71.564  84.211  68.195  1.00  0.00     0.056 A 
ATOM     10  C   UNL     1      69.728  82.643  68.272  1.00  0.00     0.009 A 
ATOM     11  C   UNL     1      71.311  84.572  69.519  1.00  0.00     0.160 A 
ATOM     12  C   UNL     1      69.476  83.004  69.596  1.00  0.00     0.050 A 
ATOM     13  C   UNL     1      70.267  83.968  70.220  1.00  0.00     0.157 A 
BRANCH  11  14
ATOM     14  O   UNL     1      72.092  85.514  70.117  1.00  0.00    -0.493 OA
ATOM     15  C   UNL     1      71.852  86.875  69.762  1.00  0.00     0.278 C 
ENDBRANCH  11  14
BRANCH  13  16
ATOM     16  O   UNL     1      70.010  84.312  71.512  1.00  0.00    -0.504 OA
ATOM     17  H   UNL     1      70.138  83.531  72.079  1.00  0.00     0.293 HD
ENDBRANCH  13  16
ENDBRANCH   7   8
ENDBRANCH   5   7
ENDBRANCH   2   3
ENDBRANCH   1   2
BRANCH   1  18
ATOM     18  C   UNL     1      76.460  82.147  66.344  1.00  0.00     0.001 C 
BRANCH  18  19
ATOM     19  C   UNL     1      77.281  83.293  65.743  1.00  0.00     0.000 C 
BRANCH  19  20
ATOM     20  C   UNL     1      78.356  83.831  66.693  1.00  0.00     0.000 C 
BRANCH  20  21
ATOM     21  C   UNL     1      77.905  85.058  67.493  1.00  0.00     0.000 C 
BRANCH  21  22
ATOM     22  C   UNL     1      77.842  84.807  69.003  1.00  0.00     0.003 C 
BRANCH  22  23
ATOM     23  C   UNL     1      76.505  84.199  69.470  1.00  0.00    -0.017 C 
ATOM     24  C   UNL     1      75.345  84.882  68.743  1.00  0.00     0.007 C 
ATOM     25  C   UNL     1      76.305  84.317  70.982  1.00  0.00     0.007 C 
ENDBRANCH  22  23
ENDBRANCH  21  22
ENDBRANCH  20  21
ENDBRANCH  19  20
ENDBRANCH  18  19
ENDBRANCH   1  18
TORSDOF 12
ENDMDL
MODEL 8
REMARK VINA RESULT:    -5.486     27.740     30.950
REMARK INTER + INTRA:         -10.017
REMARK INTER:                  -8.125
REMARK INTRA:                  -1.892
REMARK UNBOUND:                -0.843
REMARK SMILES COc1cc(CNC(=O)CCCCCCCC(C)C)ccc1O
REMARK SMILES IDX 11 1 10 2 8 3 9 4 7 5 6 7 5 8 4 9 20 10 3 11 21 12 22 13
REMARK SMILES IDX 2 14 1 15 23 16 12 18 13 19 14 20 15 21 16 22 17 23 18 24
REMARK SMILES IDX 19 25
REMARK H PARENT 7 6 23 17
REMARK Flexibility Score: inf
ROOT
ATOM      1  C   UNL     1      67.666  84.134  71.439  1.00  0.00     0.010 C 
ENDROOT
BRANCH   1   2
ATOM      2  C   UNL     1      67.186  84.109  69.990  1.00  0.00     0.100 C 
BRANCH   2   3
ATOM      3  C   UNL     1      65.880  83.348  69.826  1.00  0.00     0.220 C 
ATOM      4  O   UNL     1      65.094  83.550  68.905  1.00  0.00    -0.275 OA
ATOM      5  N   UNL     1      65.698  82.423  70.843  1.00  0.00    -0.352 N 
ATOM      6  H   UNL     1      66.401  82.334  71.573  1.00  0.00     0.163 HD
BRANCH   5   7
ATOM      7  C   UNL     1      64.533  81.573  70.930  1.00  0.00     0.151 C 
BRANCH   7   8
ATOM      8  C   UNL     1      63.648  81.950  72.081  1.00  0.00    -0.025 A 
ATOM      9  C   UNL     1      62.799  83.044  71.967  1.00  0.00     0.056 A 
ATOM     10  C   UNL     1      63.686  81.201  73.251  1.00  0.00     0.009 A 
ATOM     11  C   UNL     1      61.976  83.395  73.037  1.00  0.00     0.160 A 
ATOM     12  C   UNL     1      62.863  81.552  74.322  1.00  0.00     0.050 A 
ATOM     13  C   UNL     1      62.008  82.649  74.215  1.00  0.00     0.157 A 
BRANCH  11  14
ATOM     14  O   UNL     1      61.146  84.469  72.921  1.00  0.00    -0.493 OA
ATOM     15  C   UNL     1      61.753  85.761  72.934  1.00  0.00     0.278 C 
ENDBRANCH  11  14
BRANCH  13  16
ATOM     16  O   UNL     1      61.209  82.981  75.267  1.00  0.00    -0.504 OA
ATOM     17  H   UNL     1      61.066  83.943  75.265  1.00  0.00     0.293 HD
ENDBRANCH  13  16
ENDBRANCH   7   8
ENDBRANCH   5   7
ENDBRANCH   2   3
ENDBRANCH   1   2
BRANCH   1  18
ATOM     18  C   UNL     1      67.618  85.527  72.074  1.00  0.00     0.001 C 
BRANCH  18  19
ATOM     19  C   UNL     1      67.091  85.584  73.512  1.00  0.00     0.000 C 
BRANCH  19  20
ATOM     20  C   UNL     1      65.769  84.836  73.702  1.00  0.00     0.000 C 
BRANCH  20  21
ATOM     21  C   UNL     1      65.045  85.200  75.003  1.00  0.00     0.000 C 
BRANCH  21  22
ATOM     22  C   UNL     1      65.006  84.051  76.017  1.00  0.00     0.003 C 
BRANCH  22  23
ATOM     23  C   UNL     1      64.623  84.501  77.441  1.00  0.00    -0.017 C 
ATOM     24  C   UNL     1      65.718  84.085  78.426  1.00  0.00     0.007 C 
ATOM     25  C   UNL     1      63.279  83.930  77.894  1.00  0.00     0.007 C 
ENDBRANCH  22  23
ENDBRANCH  21  22
ENDBRANCH  20  21
ENDBRANCH  19  20
ENDBRANCH  18  19
ENDBRANCH   1  18
TORSDOF 12
ENDMDL
MODEL 9
REMARK VINA RESULT:    -5.212     28.810     31.780
REMARK INTER + INTRA:          -9.558
REMARK INTER:                  -7.939
REMARK INTRA:                  -1.620
REMARK UNBOUND:                -0.843
REMARK SMILES COc1cc(CNC(=O)CCCCCCCC(C)C)ccc1O
REMARK SMILES IDX 11 1 10 2 8 3 9 4 7 5 6 7 5 8 4 9 20 10 3 11 21 12 22 13
REMARK SMILES IDX 2 14 1 15 23 16 12 18 13 19 14 20 15 21 16 22 17 23 18 24
REMARK SMILES IDX 19 25
REMARK H PARENT 7 6 23 17
REMARK Flexibility Score: inf
ROOT
ATOM      1  C   UNL     1      61.657  84.972  69.673  1.00  0.00     0.010 C 
ENDROOT
BRANCH   1   2
ATOM      2  C   UNL     1      60.154  84.702  69.710  1.00  0.00     0.100 C 
BRANCH   2   3
ATOM      3  C   UNL     1      59.606  84.672  71.127  1.00  0.00     0.220 C 
ATOM      4  O   UNL     1      58.410  84.569  71.385  1.00  0.00    -0.275 OA
ATOM      5  N   UNL     1      60.619  84.784  72.067  1.00  0.00    -0.352 N 
ATOM      6  H   UNL     1      61.583  84.877  71.758  1.00  0.00     0.163 HD
BRANCH   5   7
ATOM      7  C   UNL     1      60.370  84.791  73.491  1.00  0.00     0.151 C 
BRANCH   7   8
ATOM      8  C   UNL     1      61.553  84.295  74.270  1.00  0.00    -0.025 A 
ATOM      9  C   UNL     1      62.332  85.197  74.986  1.00  0.00     0.056 A 
ATOM     10  C   UNL     1      61.857  82.939  74.268  1.00  0.00     0.009 A 
ATOM     11  C   UNL     1      63.431  84.735  75.710  1.00  0.00     0.160 A 
ATOM     12  C   UNL     1      62.957  82.478  74.992  1.00  0.00     0.050 A 
ATOM     13  C   UNL     1      63.744  83.376  75.713  1.00  0.00     0.157 A 
BRANCH  11  14
ATOM     14  O   UNL     1      64.193  85.622  76.410  1.00  0.00    -0.493 OA
ATOM     15  C   UNL     1      63.640  86.138  77.620  1.00  0.00     0.278 C 
ENDBRANCH  11  14
BRANCH  13  16
ATOM     16  O   UNL     1      64.815  82.913  76.417  1.00  0.00    -0.504 OA
ATOM     17  H   UNL     1      64.517  82.639  77.301  1.00  0.00     0.293 HD
ENDBRANCH  13  16
ENDBRANCH   7   8
ENDBRANCH   5   7
ENDBRANCH   2   3
ENDBRANCH   1   2
BRANCH   1  18
ATOM     18  C   UNL     1      62.478  83.782  69.169  1.00  0.00     0.001 C 
BRANCH  18  19
ATOM     19  C   UNL     1      63.015  82.839  70.251  1.00  0.00     0.000 C 
BRANCH  19  20
ATOM     20  C   UNL     1      63.923  83.538  71.266  1.00  0.00     0.000 C 
BRANCH  20  21
ATOM     21  C   UNL     1      65.045  82.641  71.800  1.00  0.00     0.000 C 
BRANCH  21  22
ATOM     22  C   UNL     1      66.143  82.363  70.769  1.00  0.00     0.003 C 
BRANCH  22  23
ATOM     23  C   UNL     1      67.110  83.546  70.568  1.00  0.00    -0.017 C 
ATOM     24  C   UNL     1      68.418  83.046  69.949  1.00  0.00     0.007 C 
ATOM     25  C   UNL     1      67.409  84.287  71.872  1.00  0.00     0.007 C 
ENDBRANCH  22  23
ENDBRANCH  21  22
ENDBRANCH  20  21
ENDBRANCH  19  20
ENDBRANCH  18  19
ENDBRANCH   1  18
TORSDOF 12
ENDMDL
MODEL 10
REMARK VINA RESULT:    -5.204     19.684     22.581
REMARK INTER + INTRA:          -9.547
REMARK INTER:                  -7.858
REMARK INTRA:                  -1.688
REMARK UNBOUND:                -0.843
REMARK SMILES COc1cc(CNC(=O)CCCCCCCC(C)C)ccc1O
REMARK SMILES IDX 11 1 10 2 8 3 9 4 7 5 6 7 5 8 4 9 20 10 3 11 21 12 22 13
REMARK SMILES IDX 2 14 1 15 23 16 12 18 13 19 14 20 15 21 16 22 17 23 18 24
REMARK SMILES IDX 19 25
REMARK H PARENT 7 6 23 17
REMARK Flexibility Score: inf
ROOT
ATOM      1  C   UNL     1      75.771  88.257  66.846  1.00  0.00     0.010 C 
ENDROOT
BRANCH   1   2
ATOM      2  C   UNL     1      75.108  88.160  65.474  1.00  0.00     0.100 C 
BRANCH   2   3
ATOM      3  C   UNL     1      75.635  86.991  64.658  1.00  0.00     0.220 C 
ATOM      4  O   UNL     1      75.752  87.021  63.436  1.00  0.00    -0.275 OA
ATOM      5  N   UNL     1      75.949  85.908  65.465  1.00  0.00    -0.352 N 
ATOM      6  H   UNL     1      75.808  85.972  66.469  1.00  0.00     0.163 HD
BRANCH   5   7
ATOM      7  C   UNL     1      76.463  84.663  64.940  1.00  0.00     0.151 C 
BRANCH   7   8
ATOM      8  C   UNL     1      75.500  83.530  65.139  1.00  0.00    -0.025 A 
ATOM      9  C   UNL     1      74.213  83.793  65.595  1.00  0.00     0.056 A 
ATOM     10  C   UNL     1      75.904  82.229  64.867  1.00  0.00     0.009 A 
ATOM     11  C   UNL     1      73.318  82.739  65.781  1.00  0.00     0.160 A 
ATOM     12  C   UNL     1      75.009  81.175  65.053  1.00  0.00     0.050 A 
ATOM     13  C   UNL     1      73.716  81.429  65.510  1.00  0.00     0.157 A 
BRANCH  11  14
ATOM     14  O   UNL     1      72.058  83.000  66.228  1.00  0.00    -0.493 OA
ATOM     15  C   UNL     1      71.052  83.218  65.240  1.00  0.00     0.278 C 
ENDBRANCH  11  14
BRANCH  13  16
ATOM     16  O   UNL     1      72.851  80.392  65.687  1.00  0.00    -0.504 OA
ATOM     17  H   UNL     1      72.564  80.374  66.616  1.00  0.00     0.293 HD
ENDBRANCH  13  16
ENDBRANCH   7   8
ENDBRANCH   5   7
ENDBRANCH   2   3
ENDBRANCH   1   2
BRANCH   1  18
ATOM     18  C   UNL     1      74.773  88.427  67.995  1.00  0.00     0.001 C 
BRANCH  18  19
ATOM     19  C   UNL     1      75.329  89.077  69.267  1.00  0.00     0.000 C 
BRANCH  19  20
ATOM     20  C   UNL     1      75.334  88.136  70.475  1.00  0.00     0.000 C 
BRANCH  20  21
ATOM     21  C   UNL     1      75.614  86.675  70.108  1.00  0.00     0.000 C 
BRANCH  21  22
ATOM     22  C   UNL     1      77.104  86.375  69.909  1.00  0.00     0.003 C 
BRANCH  22  23
ATOM     23  C   UNL     1      77.373  84.997  69.272  1.00  0.00    -0.017 C 
ATOM     24  C   UNL     1      78.348  85.150  68.102  1.00  0.00     0.007 C 
ATOM     25  C   UNL     1      76.092  84.315  68.787  1.00  0.00     0.007 C 
ENDBRANCH  22  23
ENDBRANCH  21  22
ENDBRANCH  20  21
ENDBRANCH  19  20
ENDBRANCH  18  19
ENDBRANCH   1  18
TORSDOF 12
ENDMDL
