MODEL 1
REMARK VINA RESULT:    -6.560      0.000      0.000
REMARK INTER + INTRA:         -11.149
REMARK INTER:                 -10.203
REMARK INTRA:                  -0.946
REMARK UNBOUND:                -0.946
REMARK SMILES COc1cc(CNC(=O)CCCCCC(C)C)ccc1O
REMARK SMILES IDX 10 1 8 2 7 3 9 5 6 6 5 7 3 8 20 9 4 10 19 11 18 12 2 13 1 14
REMARK SMILES IDX 21 15 11 17 12 18 13 19 14 20 15 21 16 22 17 23
REMARK H PARENT 7 4 21 16
REMARK Flexibility Score: inf
ROOT
ATOM      1  C   UNL     1      92.929  93.675  77.625  1.00  0.00     0.100 C 
ENDROOT
BRANCH   1   2
ATOM      2  C   UNL     1      91.587  93.058  77.582  1.00  0.00     0.220 C 
ATOM      3  N   UNL     1      91.395  91.831  78.143  1.00  0.00    -0.352 N 
ATOM      4  H   UNL     1      92.240  91.363  78.440  1.00  0.00     0.163 HD
ATOM      5  O   UNL     1      90.639  93.699  77.065  1.00  0.00    -0.275 OA
BRANCH   3   6
ATOM      6  C   UNL     1      90.128  91.199  78.325  1.00  0.00     0.151 C 
BRANCH   6   7
ATOM      7  C   UNL     1      89.896  90.072  77.382  1.00  0.00    -0.025 A 
ATOM      8  C   UNL     1      89.185  89.249  75.176  1.00  0.00     0.160 A 
ATOM      9  C   UNL     1      89.517  87.934  75.562  1.00  0.00     0.157 A 
ATOM     10  C   UNL     1      89.358  90.307  76.094  1.00  0.00     0.056 A 
ATOM     11  C   UNL     1      90.028  87.685  76.849  1.00  0.00     0.050 A 
ATOM     12  C   UNL     1      90.221  88.746  77.750  1.00  0.00     0.009 A 
BRANCH   8  13
ATOM     13  O   UNL     1      88.668  89.510  73.934  1.00  0.00    -0.493 OA
ATOM     14  C   UNL     1      87.715  90.590  73.916  1.00  0.00     0.278 C 
ENDBRANCH   8  13
BRANCH   9  15
ATOM     15  O   UNL     1      89.352  86.909  74.688  1.00  0.00    -0.504 OA
ATOM     16  H   UNL     1      88.990  87.246  73.865  1.00  0.00     0.293 HD
ENDBRANCH   9  15
ENDBRANCH   6   7
ENDBRANCH   3   6
ENDBRANCH   1   2
BRANCH   1  17
ATOM     17  C   UNL     1      93.238  94.617  76.431  1.00  0.00     0.010 C 
BRANCH  17  18
ATOM     18  C   UNL     1      93.900  93.850  75.253  1.00  0.00     0.001 C 
BRANCH  18  19
ATOM     19  C   UNL     1      92.916  92.928  74.487  1.00  0.00     0.000 C 
BRANCH  19  20
ATOM     20  C   UNL     1      91.621  93.677  74.058  1.00  0.00     0.003 C 
BRANCH  20  21
ATOM     21  C   UNL     1      90.492  92.765  73.477  1.00  0.00    -0.017 C 
ATOM     22  C   UNL     1      91.096  91.521  72.761  1.00  0.00     0.007 C 
ATOM     23  C   UNL     1      89.536  93.526  72.512  1.00  0.00     0.007 C 
ENDBRANCH  20  21
ENDBRANCH  19  20
ENDBRANCH  18  19
ENDBRANCH  17  18
ENDBRANCH   1  17
TORSDOF 10
ENDMDL
MODEL 2
REMARK VINA RESULT:    -6.555      2.729      6.662
REMARK INTER + INTRA:         -11.142
REMARK INTER:                  -9.992
REMARK INTRA:                  -1.150
REMARK UNBOUND:                -0.946
REMARK SMILES COc1cc(CNC(=O)CCCCCC(C)C)ccc1O
REMARK SMILES IDX 10 1 8 2 7 3 9 5 6 6 5 7 3 8 20 9 4 10 19 11 18 12 2 13 1 14
REMARK SMILES IDX 21 15 11 17 12 18 13 19 14 20 15 21 16 22 17 23
REMARK H PARENT 7 4 21 16
REMARK Flexibility Score: inf
ROOT
ATOM      1  C   UNL     1      89.620  92.655  77.059  1.00  0.00     0.100 C 
ENDROOT
BRANCH   1   2
ATOM      2  C   UNL     1      90.371  93.753  76.416  1.00  0.00     0.220 C 
ATOM      3  N   UNL     1      91.597  93.501  75.878  1.00  0.00    -0.352 N 
ATOM      4  H   UNL     1      91.969  92.584  76.080  1.00  0.00     0.163 HD
ATOM      5  O   UNL     1      89.842  94.889  76.341  1.00  0.00    -0.275 OA
BRANCH   3   6
ATOM      6  C   UNL     1      92.350  94.417  75.082  1.00  0.00     0.151 C 
BRANCH   6   7
ATOM      7  C   UNL     1      93.655  94.786  75.694  1.00  0.00    -0.025 A 
ATOM      8  C   UNL     1      95.340  94.496  77.461  1.00  0.00     0.160 A 
ATOM      9  C   UNL     1      96.171  95.440  76.821  1.00  0.00     0.157 A 
ATOM     10  C   UNL     1      94.080  94.189  76.904  1.00  0.00     0.056 A 
ATOM     11  C   UNL     1      95.746  96.060  75.632  1.00  0.00     0.050 A 
ATOM     12  C   UNL     1      94.501  95.732  75.069  1.00  0.00     0.009 A 
BRANCH   8  13
ATOM     13  O   UNL     1      95.726  93.895  78.631  1.00  0.00    -0.493 OA
ATOM     14  C   UNL     1      95.219  94.544  79.813  1.00  0.00     0.278 C 
ENDBRANCH   8  13
BRANCH   9  15
ATOM     15  O   UNL     1      97.382  95.744  77.350  1.00  0.00    -0.504 OA
ATOM     16  H   UNL     1      97.861  96.317  76.746  1.00  0.00     0.293 HD
ENDBRANCH   9  15
ENDBRANCH   6   7
ENDBRANCH   3   6
ENDBRANCH   1   2
BRANCH   1  17
ATOM     17  C   UNL     1      90.182  91.238  76.761  1.00  0.00     0.010 C 
BRANCH  17  18
ATOM     18  C   UNL     1      89.128  90.341  76.055  1.00  0.00     0.001 C 
BRANCH  18  19
ATOM     19  C   UNL     1      89.443  90.082  74.558  1.00  0.00     0.000 C 
BRANCH  19  20
ATOM     20  C   UNL     1      88.899  91.213  73.638  1.00  0.00     0.003 C 
BRANCH  20  21
ATOM     21  C   UNL     1      89.995  92.040  72.889  1.00  0.00    -0.017 C 
ATOM     22  C   UNL     1      89.564  93.529  72.743  1.00  0.00     0.007 C 
ATOM     23  C   UNL     1      90.351  91.447  71.495  1.00  0.00     0.007 C 
ENDBRANCH  20  21
ENDBRANCH  19  20
ENDBRANCH  18  19
ENDBRANCH  17  18
ENDBRANCH   1  17
TORSDOF 10
ENDMDL
MODEL 3
REMARK VINA RESULT:    -6.390      2.828      6.747
REMARK INTER + INTRA:         -10.885
REMARK INTER:                  -9.780
REMARK INTRA:                  -1.105
REMARK UNBOUND:                -0.946
REMARK SMILES COc1cc(CNC(=O)CCCCCC(C)C)ccc1O
REMARK SMILES IDX 10 1 8 2 7 3 9 5 6 6 5 7 3 8 20 9 4 10 19 11 18 12 2 13 1 14
REMARK SMILES IDX 21 15 11 17 12 18 13 19 14 20 15 21 16 22 17 23
REMARK H PARENT 7 4 21 16
REMARK Flexibility Score: inf
ROOT
ATOM      1  C   UNL     1      89.541  92.762  77.215  1.00  0.00     0.100 C 
ENDROOT
BRANCH   1   2
ATOM      2  C   UNL     1      90.431  93.733  76.544  1.00  0.00     0.220 C 
ATOM      3  N   UNL     1      91.695  93.356  76.202  1.00  0.00    -0.352 N 
ATOM      4  H   UNL     1      91.982  92.456  76.560  1.00  0.00     0.163 HD
ATOM      5  O   UNL     1      89.987  94.873  76.265  1.00  0.00    -0.275 OA
BRANCH   3   6
ATOM      6  C   UNL     1      92.594  94.126  75.403  1.00  0.00     0.151 C 
BRANCH   6   7
ATOM      7  C   UNL     1      93.841  94.500  76.122  1.00  0.00    -0.025 A 
ATOM      8  C   UNL     1      96.017  95.646  76.165  1.00  0.00     0.160 A 
ATOM      9  C   UNL     1      96.187  95.268  77.513  1.00  0.00     0.157 A 
ATOM     10  C   UNL     1      94.854  95.244  75.473  1.00  0.00     0.056 A 
ATOM     11  C   UNL     1      95.199  94.505  78.162  1.00  0.00     0.050 A 
ATOM     12  C   UNL     1      94.032  94.128  77.474  1.00  0.00     0.009 A 
BRANCH   8  13
ATOM     13  O   UNL     1      96.976  96.372  75.509  1.00  0.00    -0.493 OA
ATOM     14  C   UNL     1      96.983  96.174  74.083  1.00  0.00     0.278 C 
ENDBRANCH   8  13
BRANCH   9  15
ATOM     15  O   UNL     1      97.302  95.647  78.187  1.00  0.00    -0.504 OA
ATOM     16  H   UNL     1      97.061  96.259  78.886  1.00  0.00     0.293 HD
ENDBRANCH   9  15
ENDBRANCH   6   7
ENDBRANCH   3   6
ENDBRANCH   1   2
BRANCH   1  17
ATOM     17  C   UNL     1      90.286  91.636  77.981  1.00  0.00     0.010 C 
BRANCH  17  18
ATOM     18  C   UNL     1      89.875  90.228  77.470  1.00  0.00     0.001 C 
BRANCH  18  19
ATOM     19  C   UNL     1      90.395  89.914  76.042  1.00  0.00     0.000 C 
BRANCH  19  20
ATOM     20  C   UNL     1      89.238  89.593  75.052  1.00  0.00     0.003 C 
BRANCH  20  21
ATOM     21  C   UNL     1      88.764  90.799  74.177  1.00  0.00    -0.017 C 
ATOM     22  C   UNL     1      87.765  90.329  73.078  1.00  0.00     0.007 C 
ATOM     23  C   UNL     1      89.946  91.576  73.528  1.00  0.00     0.007 C 
ENDBRANCH  20  21
ENDBRANCH  19  20
ENDBRANCH  18  19
ENDBRANCH  17  18
ENDBRANCH   1  17
TORSDOF 10
ENDMDL
MODEL 4
REMARK VINA RESULT:    -6.355      2.331      4.422
REMARK INTER + INTRA:         -10.831
REMARK INTER:                  -9.993
REMARK INTRA:                  -0.837
REMARK UNBOUND:                -0.946
REMARK SMILES COc1cc(CNC(=O)CCCCCC(C)C)ccc1O
REMARK SMILES IDX 10 1 8 2 7 3 9 5 6 6 5 7 3 8 20 9 4 10 19 11 18 12 2 13 1 14
REMARK SMILES IDX 21 15 11 17 12 18 13 19 14 20 15 21 16 22 17 23
REMARK H PARENT 7 4 21 16
REMARK Flexibility Score: inf
ROOT
ATOM      1  C   UNL     1      93.220  94.582  74.945  1.00  0.00     0.100 C 
ENDROOT
BRANCH   1   2
ATOM      2  C   UNL     1      92.211  94.401  76.009  1.00  0.00     0.220 C 
ATOM      3  N   UNL     1      90.913  94.161  75.667  1.00  0.00    -0.352 N 
ATOM      4  H   UNL     1      90.709  94.256  74.682  1.00  0.00     0.163 HD
ATOM      5  O   UNL     1      92.578  94.430  77.208  1.00  0.00    -0.275 OA
BRANCH   3   6
ATOM      6  C   UNL     1      89.877  93.798  76.579  1.00  0.00     0.151 C 
BRANCH   6   7
ATOM      7  C   UNL     1      89.833  92.338  76.863  1.00  0.00    -0.025 A 
ATOM      8  C   UNL     1      89.433  90.031  76.111  1.00  0.00     0.160 A 
ATOM      9  C   UNL     1      89.814  89.553  77.383  1.00  0.00     0.157 A 
ATOM     10  C   UNL     1      89.427  91.420  75.865  1.00  0.00     0.056 A 
ATOM     11  C   UNL     1      90.193  90.458  78.391  1.00  0.00     0.050 A 
ATOM     12  C   UNL     1      90.208  91.839  78.132  1.00  0.00     0.009 A 
BRANCH   8  13
ATOM     13  O   UNL     1      89.041  89.167  75.122  1.00  0.00    -0.493 OA
ATOM     14  C   UNL     1      90.137  88.576  74.397  1.00  0.00     0.278 C 
ENDBRANCH   8  13
BRANCH   9  15
ATOM     15  O   UNL     1      89.821  88.219  77.631  1.00  0.00    -0.504 OA
ATOM     16  H   UNL     1      90.138  88.061  78.522  1.00  0.00     0.293 HD
ENDBRANCH   9  15
ENDBRANCH   6   7
ENDBRANCH   3   6
ENDBRANCH   1   2
BRANCH   1  17
ATOM     17  C   UNL     1      94.628  94.034  75.301  1.00  0.00     0.010 C 
BRANCH  17  18
ATOM     18  C   UNL     1      95.661  95.181  75.481  1.00  0.00     0.001 C 
BRANCH  18  19
ATOM     19  C   UNL     1      96.583  94.991  76.715  1.00  0.00     0.000 C 
BRANCH  19  20
ATOM     20  C   UNL     1      95.945  94.063  77.789  1.00  0.00     0.003 C 
BRANCH  20  21
ATOM     21  C   UNL     1      95.528  94.778  79.115  1.00  0.00    -0.017 C 
ATOM     22  C   UNL     1      96.401  96.043  79.363  1.00  0.00     0.007 C 
ATOM     23  C   UNL     1      95.587  93.837  80.354  1.00  0.00     0.007 C 
ENDBRANCH  20  21
ENDBRANCH  19  20
ENDBRANCH  18  19
ENDBRANCH  17  18
ENDBRANCH   1  17
TORSDOF 10
ENDMDL
MODEL 5
REMARK VINA RESULT:    -6.255      2.568      4.917
REMARK INTER + INTRA:         -10.674
REMARK INTER:                 -10.093
REMARK INTRA:                  -0.581
REMARK UNBOUND:                -0.946
REMARK SMILES COc1cc(CNC(=O)CCCCCC(C)C)ccc1O
REMARK SMILES IDX 10 1 8 2 7 3 9 5 6 6 5 7 3 8 20 9 4 10 19 11 18 12 2 13 1 14
REMARK SMILES IDX 21 15 11 17 12 18 13 19 14 20 15 21 16 22 17 23
REMARK H PARENT 7 4 21 16
REMARK Flexibility Score: inf
ROOT
ATOM      1  C   UNL     1      91.806  94.579  75.921  1.00  0.00     0.100 C 
ENDROOT
BRANCH   1   2
ATOM      2  C   UNL     1      90.617  93.707  76.018  1.00  0.00     0.220 C 
ATOM      3  N   UNL     1      90.294  92.896  74.971  1.00  0.00    -0.352 N 
ATOM      4  H   UNL     1      90.834  93.052  74.131  1.00  0.00     0.163 HD
ATOM      5  O   UNL     1      89.951  93.701  77.082  1.00  0.00    -0.275 OA
BRANCH   3   6
ATOM      6  C   UNL     1      89.285  91.887  74.994  1.00  0.00     0.151 C 
BRANCH   6   7
ATOM      7  C   UNL     1      89.838  90.507  74.925  1.00  0.00    -0.025 A 
ATOM      8  C   UNL     1      90.490  88.413  76.038  1.00  0.00     0.160 A 
ATOM      9  C   UNL     1      90.827  87.855  74.786  1.00  0.00     0.157 A 
ATOM     10  C   UNL     1      90.015  89.741  76.101  1.00  0.00     0.056 A 
ATOM     11  C   UNL     1      90.679  88.617  73.613  1.00  0.00     0.050 A 
ATOM     12  C   UNL     1      90.183  89.930  73.680  1.00  0.00     0.009 A 
BRANCH   8  13
ATOM     13  O   UNL     1      90.645  87.695  77.194  1.00  0.00    -0.493 OA
ATOM     14  C   UNL     1      89.706  88.047  78.228  1.00  0.00     0.278 C 
ENDBRANCH   8  13
BRANCH   9  15
ATOM     15  O   UNL     1      91.285  86.581  74.714  1.00  0.00    -0.504 OA
ATOM     16  H   UNL     1      91.911  86.506  73.990  1.00  0.00     0.293 HD
ENDBRANCH   9  15
ENDBRANCH   6   7
ENDBRANCH   3   6
ENDBRANCH   1   2
BRANCH   1  17
ATOM     17  C   UNL     1      93.157  93.840  76.117  1.00  0.00     0.010 C 
BRANCH  17  18
ATOM     18  C   UNL     1      93.564  93.779  77.615  1.00  0.00     0.001 C 
BRANCH  18  19
ATOM     19  C   UNL     1      94.862  94.567  77.934  1.00  0.00     0.000 C 
BRANCH  19  20
ATOM     20  C   UNL     1      95.450  94.195  79.326  1.00  0.00     0.003 C 
BRANCH  20  21
ATOM     21  C   UNL     1      95.705  95.407  80.280  1.00  0.00    -0.017 C 
ATOM     22  C   UNL     1      97.175  95.905  80.164  1.00  0.00     0.007 C 
ATOM     23  C   UNL     1      95.364  95.089  81.765  1.00  0.00     0.007 C 
ENDBRANCH  20  21
ENDBRANCH  19  20
ENDBRANCH  18  19
ENDBRANCH  17  18
ENDBRANCH   1  17
TORSDOF 10
ENDMDL
MODEL 6
REMARK VINA RESULT:    -6.134      2.040      3.378
REMARK INTER + INTRA:         -10.487
REMARK INTER:                  -9.808
REMARK INTRA:                  -0.679
REMARK UNBOUND:                -0.946
REMARK SMILES COc1cc(CNC(=O)CCCCCC(C)C)ccc1O
REMARK SMILES IDX 10 1 8 2 7 3 9 5 6 6 5 7 3 8 20 9 4 10 19 11 18 12 2 13 1 14
REMARK SMILES IDX 21 15 11 17 12 18 13 19 14 20 15 21 16 22 17 23
REMARK H PARENT 7 4 21 16
REMARK Flexibility Score: inf
ROOT
ATOM      1  C   UNL     1      92.963  93.690  77.689  1.00  0.00     0.100 C 
ENDROOT
BRANCH   1   2
ATOM      2  C   UNL     1      91.840  92.971  77.053  1.00  0.00     0.220 C 
ATOM      3  N   UNL     1      91.107  92.088  77.788  1.00  0.00    -0.352 N 
ATOM      4  H   UNL     1      91.479  91.888  78.705  1.00  0.00     0.163 HD
ATOM      5  O   UNL     1      91.557  93.222  75.856  1.00  0.00    -0.275 OA
BRANCH   3   6
ATOM      6  C   UNL     1      89.900  91.461  77.355  1.00  0.00     0.151 C 
BRANCH   6   7
ATOM      7  C   UNL     1      90.132  90.178  76.638  1.00  0.00    -0.025 A 
ATOM      8  C   UNL     1      90.574  88.950  74.553  1.00  0.00     0.160 A 
ATOM      9  C   UNL     1      90.642  87.744  75.282  1.00  0.00     0.157 A 
ATOM     10  C   UNL     1      90.301  90.157  75.233  1.00  0.00     0.056 A 
ATOM     11  C   UNL     1      90.450  87.750  76.675  1.00  0.00     0.050 A 
ATOM     12  C   UNL     1      90.202  88.958  77.349  1.00  0.00     0.009 A 
BRANCH   8  13
ATOM     13  O   UNL     1      90.739  88.963  73.193  1.00  0.00    -0.493 OA
ATOM     14  C   UNL     1      89.914  89.931  72.516  1.00  0.00     0.278 C 
ENDBRANCH   8  13
BRANCH   9  15
ATOM     15  O   UNL     1      90.902  86.578  74.638  1.00  0.00    -0.504 OA
ATOM     16  H   UNL     1      91.804  86.305  74.820  1.00  0.00     0.293 HD
ENDBRANCH   9  15
ENDBRANCH   6   7
ENDBRANCH   3   6
ENDBRANCH   1   2
BRANCH   1  17
ATOM     17  C   UNL     1      93.805  94.554  76.712  1.00  0.00     0.010 C 
BRANCH  17  18
ATOM     18  C   UNL     1      95.302  94.592  77.124  1.00  0.00     0.001 C 
BRANCH  18  19
ATOM     19  C   UNL     1      96.253  94.003  76.049  1.00  0.00     0.000 C 
BRANCH  19  20
ATOM     20  C   UNL     1      96.077  94.694  74.666  1.00  0.00     0.003 C 
BRANCH  20  21
ATOM     21  C   UNL     1      96.359  96.232  74.657  1.00  0.00    -0.017 C 
ATOM     22  C   UNL     1      95.087  97.027  74.237  1.00  0.00     0.007 C 
ATOM     23  C   UNL     1      97.557  96.622  73.743  1.00  0.00     0.007 C 
ENDBRANCH  20  21
ENDBRANCH  19  20
ENDBRANCH  18  19
ENDBRANCH  17  18
ENDBRANCH   1  17
TORSDOF 10
ENDMDL
MODEL 7
REMARK VINA RESULT:    -5.992      4.948      8.764
REMARK INTER + INTRA:         -10.266
REMARK INTER:                  -9.509
REMARK INTRA:                  -0.758
REMARK UNBOUND:                -0.946
REMARK SMILES COc1cc(CNC(=O)CCCCCC(C)C)ccc1O
REMARK SMILES IDX 10 1 8 2 7 3 9 5 6 6 5 7 3 8 20 9 4 10 19 11 18 12 2 13 1 14
REMARK SMILES IDX 21 15 11 17 12 18 13 19 14 20 15 21 16 22 17 23
REMARK H PARENT 7 4 21 16
REMARK Flexibility Score: inf
ROOT
ATOM      1  C   UNL     1      94.443  93.717  75.625  1.00  0.00     0.100 C 
ENDROOT
BRANCH   1   2
ATOM      2  C   UNL     1      95.758  94.058  76.208  1.00  0.00     0.220 C 
ATOM      3  N   UNL     1      95.878  95.173  76.983  1.00  0.00    -0.352 N 
ATOM      4  H   UNL     1      95.064  95.772  76.994  1.00  0.00     0.163 HD
ATOM      5  O   UNL     1      96.729  93.288  76.012  1.00  0.00    -0.275 OA
BRANCH   3   6
ATOM      6  C   UNL     1      97.034  95.525  77.743  1.00  0.00     0.151 C 
BRANCH   6   7
ATOM      7  C   UNL     1      96.755  95.665  79.198  1.00  0.00    -0.025 A 
ATOM      8  C   UNL     1      97.471  96.345  81.451  1.00  0.00     0.160 A 
ATOM      9  C   UNL     1      96.202  95.994  81.957  1.00  0.00     0.157 A 
ATOM     10  C   UNL     1      97.746  96.160  80.079  1.00  0.00     0.056 A 
ATOM     11  C   UNL     1      95.218  95.476  81.096  1.00  0.00     0.050 A 
ATOM     12  C   UNL     1      95.490  95.318  79.726  1.00  0.00     0.009 A 
BRANCH   8  13
ATOM     13  O   UNL     1      98.450  96.832  82.276  1.00  0.00    -0.493 OA
ATOM     14  C   UNL     1      99.788  96.569  81.812  1.00  0.00     0.278 C 
ENDBRANCH   8  13
BRANCH   9  15
ATOM     15  O   UNL     1      95.928  96.166  83.275  1.00  0.00    -0.504 OA
ATOM     16  H   UNL     1      95.083  96.610  83.371  1.00  0.00     0.293 HD
ENDBRANCH   9  15
ENDBRANCH   6   7
ENDBRANCH   3   6
ENDBRANCH   1   2
BRANCH   1  17
ATOM     17  C   UNL     1      93.304  94.704  75.998  1.00  0.00     0.010 C 
BRANCH  17  18
ATOM     18  C   UNL     1      91.989  94.373  75.240  1.00  0.00     0.001 C 
BRANCH  18  19
ATOM     19  C   UNL     1      90.762  94.215  76.175  1.00  0.00     0.000 C 
BRANCH  19  20
ATOM     20  C   UNL     1      91.003  93.155  77.288  1.00  0.00     0.003 C 
BRANCH  20  21
ATOM     21  C   UNL     1      89.853  92.109  77.463  1.00  0.00    -0.017 C 
ATOM     22  C   UNL     1      90.277  90.978  78.446  1.00  0.00     0.007 C 
ATOM     23  C   UNL     1      89.384  91.495  76.113  1.00  0.00     0.007 C 
ENDBRANCH  20  21
ENDBRANCH  19  20
ENDBRANCH  18  19
ENDBRANCH  17  18
ENDBRANCH   1  17
TORSDOF 10
ENDMDL
MODEL 8
REMARK VINA RESULT:    -5.888     13.535     16.016
REMARK INTER + INTRA:         -10.104
REMARK INTER:                  -8.456
REMARK INTRA:                  -1.648
REMARK UNBOUND:                -0.946
REMARK SMILES COc1cc(CNC(=O)CCCCCC(C)C)ccc1O
REMARK SMILES IDX 10 1 8 2 7 3 9 5 6 6 5 7 3 8 20 9 4 10 19 11 18 12 2 13 1 14
REMARK SMILES IDX 21 15 11 17 12 18 13 19 14 20 15 21 16 22 17 23
REMARK H PARENT 7 4 21 16
REMARK Flexibility Score: inf
ROOT
ATOM      1  C   UNL     1      80.734  86.194  84.150  1.00  0.00     0.100 C 
ENDROOT
BRANCH   1   2
ATOM      2  C   UNL     1      81.448  86.312  85.439  1.00  0.00     0.220 C 
ATOM      3  N   UNL     1      80.741  86.256  86.603  1.00  0.00    -0.352 N 
ATOM      4  H   UNL     1      79.737  86.269  86.492  1.00  0.00     0.163 HD
ATOM      5  O   UNL     1      82.698  86.418  85.435  1.00  0.00    -0.275 OA
BRANCH   3   6
ATOM      6  C   UNL     1      81.314  86.183  87.909  1.00  0.00     0.151 C 
BRANCH   6   7
ATOM      7  C   UNL     1      81.080  87.409  88.719  1.00  0.00    -0.025 A 
ATOM      8  C   UNL     1      81.824  89.005  90.435  1.00  0.00     0.160 A 
ATOM      9  C   UNL     1      80.665  89.779  90.214  1.00  0.00     0.157 A 
ATOM     10  C   UNL     1      82.015  87.815  89.700  1.00  0.00     0.056 A 
ATOM     11  C   UNL     1      79.716  89.370  89.260  1.00  0.00     0.050 A 
ATOM     12  C   UNL     1      79.924  88.198  88.514  1.00  0.00     0.009 A 
BRANCH   8  13
ATOM     13  O   UNL     1      82.751  89.375  91.374  1.00  0.00    -0.493 OA
ATOM     14  C   UNL     1      83.527  88.277  91.891  1.00  0.00     0.278 C 
ENDBRANCH   8  13
BRANCH   9  15
ATOM     15  O   UNL     1      80.471  90.923  90.917  1.00  0.00    -0.504 OA
ATOM     16  H   UNL     1      80.808  91.669  90.415  1.00  0.00     0.293 HD
ENDBRANCH   9  15
ENDBRANCH   6   7
ENDBRANCH   3   6
ENDBRANCH   1   2
BRANCH   1  17
ATOM     17  C   UNL     1      80.406  87.553  83.475  1.00  0.00     0.010 C 
BRANCH  17  18
ATOM     18  C   UNL     1      79.426  88.398  84.335  1.00  0.00     0.001 C 
BRANCH  18  19
ATOM     19  C   UNL     1      80.082  89.659  84.957  1.00  0.00     0.000 C 
BRANCH  19  20
ATOM     20  C   UNL     1      81.450  89.997  84.297  1.00  0.00     0.003 C 
BRANCH  20  21
ATOM     21  C   UNL     1      82.686  89.891  85.248  1.00  0.00    -0.017 C 
ATOM     22  C   UNL     1      82.322  90.362  86.687  1.00  0.00     0.007 C 
ATOM     23  C   UNL     1      83.921  90.680  84.724  1.00  0.00     0.007 C 
ENDBRANCH  20  21
ENDBRANCH  19  20
ENDBRANCH  18  19
ENDBRANCH  17  18
ENDBRANCH   1  17
TORSDOF 10
ENDMDL
MODEL 9
REMARK VINA RESULT:    -5.803      3.161      5.545
REMARK INTER + INTRA:          -9.972
REMARK INTER:                  -9.319
REMARK INTRA:                  -0.653
REMARK UNBOUND:                -0.946
REMARK SMILES COc1cc(CNC(=O)CCCCCC(C)C)ccc1O
REMARK SMILES IDX 10 1 8 2 7 3 9 5 6 6 5 7 3 8 20 9 4 10 19 11 18 12 2 13 1 14
REMARK SMILES IDX 21 15 11 17 12 18 13 19 14 20 15 21 16 22 17 23
REMARK H PARENT 7 4 21 16
REMARK Flexibility Score: inf
ROOT
ATOM      1  C   UNL     1      94.252  94.385  76.160  1.00  0.00     0.100 C 
ENDROOT
BRANCH   1   2
ATOM      2  C   UNL     1      93.026  94.013  75.424  1.00  0.00     0.220 C 
ATOM      3  N   UNL     1      93.036  92.912  74.620  1.00  0.00    -0.352 N 
ATOM      4  H   UNL     1      93.945  92.495  74.481  1.00  0.00     0.163 HD
ATOM      5  O   UNL     1      91.986  94.696  75.588  1.00  0.00    -0.275 OA
BRANCH   3   6
ATOM      6  C   UNL     1      91.887  92.342  73.992  1.00  0.00     0.151 C 
BRANCH   6   7
ATOM      7  C   UNL     1      91.408  91.104  74.664  1.00  0.00    -0.025 A 
ATOM      8  C   UNL     1      90.488  89.970  76.643  1.00  0.00     0.160 A 
ATOM      9  C   UNL     1      90.434  88.759  75.921  1.00  0.00     0.157 A 
ATOM     10  C   UNL     1      90.992  91.130  76.016  1.00  0.00     0.056 A 
ATOM     11  C   UNL     1      90.870  88.716  74.584  1.00  0.00     0.050 A 
ATOM     12  C   UNL     1      91.348  89.879  73.958  1.00  0.00     0.009 A 
BRANCH   8  13
ATOM     13  O   UNL     1      90.087  90.030  77.952  1.00  0.00    -0.493 OA
ATOM     14  C   UNL     1      90.342  91.300  78.581  1.00  0.00     0.278 C 
ENDBRANCH   8  13
BRANCH   9  15
ATOM     15  O   UNL     1      89.954  87.638  76.515  1.00  0.00    -0.504 OA
ATOM     16  H   UNL     1      89.103  87.828  76.916  1.00  0.00     0.293 HD
ENDBRANCH   9  15
ENDBRANCH   6   7
ENDBRANCH   3   6
ENDBRANCH   1   2
BRANCH   1  17
ATOM     17  C   UNL     1      94.408  93.684  77.536  1.00  0.00     0.010 C 
BRANCH  17  18
ATOM     18  C   UNL     1      94.812  94.690  78.649  1.00  0.00     0.001 C 
BRANCH  18  19
ATOM     19  C   UNL     1      95.594  94.035  79.818  1.00  0.00     0.000 C 
BRANCH  19  20
ATOM     20  C   UNL     1      96.703  94.970  80.380  1.00  0.00     0.003 C 
BRANCH  20  21
ATOM     21  C   UNL     1      96.229  96.416  80.739  1.00  0.00    -0.017 C 
ATOM     22  C   UNL     1      97.035  97.480  79.938  1.00  0.00     0.007 C 
ATOM     23  C   UNL     1      96.314  96.719  82.264  1.00  0.00     0.007 C 
ENDBRANCH  20  21
ENDBRANCH  19  20
ENDBRANCH  18  19
ENDBRANCH  17  18
ENDBRANCH   1  17
TORSDOF 10
ENDMDL
MODEL 10
REMARK VINA RESULT:    -5.766     14.253     16.567
REMARK INTER + INTRA:          -9.915
REMARK INTER:                  -7.957
REMARK INTRA:                  -1.957
REMARK UNBOUND:                -0.946
REMARK SMILES COc1cc(CNC(=O)CCCCCC(C)C)ccc1O
REMARK SMILES IDX 10 1 8 2 7 3 9 5 6 6 5 7 3 8 20 9 4 10 19 11 18 12 2 13 1 14
REMARK SMILES IDX 21 15 11 17 12 18 13 19 14 20 15 21 16 22 17 23
REMARK H PARENT 7 4 21 16
REMARK Flexibility Score: inf
ROOT
ATOM      1  C   UNL     1      80.541  86.245  84.296  1.00  0.00     0.100 C 
ENDROOT
BRANCH   1   2
ATOM      2  C   UNL     1      81.337  86.398  85.532  1.00  0.00     0.220 C 
ATOM      3  N   UNL     1      80.729  86.247  86.743  1.00  0.00    -0.352 N 
ATOM      4  H   UNL     1      79.723  86.169  86.706  1.00  0.00     0.163 HD
ATOM      5  O   UNL     1      82.568  86.621  85.439  1.00  0.00    -0.275 OA
BRANCH   3   6
ATOM      6  C   UNL     1      81.403  86.196  88.000  1.00  0.00     0.151 C 
BRANCH   6   7
ATOM      7  C   UNL     1      81.006  87.294  88.921  1.00  0.00    -0.025 A 
ATOM      8  C   UNL     1      79.260  88.670  89.971  1.00  0.00     0.160 A 
ATOM      9  C   UNL     1      80.245  89.341  90.726  1.00  0.00     0.157 A 
ATOM     10  C   UNL     1      79.648  87.665  89.061  1.00  0.00     0.056 A 
ATOM     11  C   UNL     1      81.601  88.999  90.576  1.00  0.00     0.050 A 
ATOM     12  C   UNL     1      81.979  87.981  89.685  1.00  0.00     0.009 A 
BRANCH   8  13
ATOM     13  O   UNL     1      77.935  89.001  90.088  1.00  0.00    -0.493 OA
ATOM     14  C   UNL     1      77.210  88.180  91.024  1.00  0.00     0.278 C 
ENDBRANCH   8  13
BRANCH   9  15
ATOM     15  O   UNL     1      79.882  90.311  91.603  1.00  0.00    -0.504 OA
ATOM     16  H   UNL     1      80.586  90.960  91.672  1.00  0.00     0.293 HD
ENDBRANCH   9  15
ENDBRANCH   6   7
ENDBRANCH   3   6
ENDBRANCH   1   2
BRANCH   1  17
ATOM     17  C   UNL     1      80.237  87.580  83.564  1.00  0.00     0.010 C 
BRANCH  17  18
ATOM     18  C   UNL     1      79.379  88.532  84.443  1.00  0.00     0.001 C 
BRANCH  18  19
ATOM     19  C   UNL     1      80.091  89.870  84.778  1.00  0.00     0.000 C 
BRANCH  19  20
ATOM     20  C   UNL     1      80.458  89.979  86.287  1.00  0.00     0.003 C 
BRANCH  20  21
ATOM     21  C   UNL     1      81.991  89.999  86.593  1.00  0.00    -0.017 C 
ATOM     22  C   UNL     1      82.343  91.138  87.594  1.00  0.00     0.007 C 
ATOM     23  C   UNL     1      82.862  90.128  85.310  1.00  0.00     0.007 C 
ENDBRANCH  20  21
ENDBRANCH  19  20
ENDBRANCH  18  19
ENDBRANCH  17  18
ENDBRANCH   1  17
TORSDOF 10
ENDMDL
