MODEL 1
REMARK VINA RESULT:    -5.946      0.000      0.000
REMARK INTER + INTRA:         -10.407
REMARK INTER:                  -9.248
REMARK INTRA:                  -1.159
REMARK UNBOUND:                -1.159
REMARK SMILES COc1cc(CNC(=O)CCCC/C=C/C(C)C)ccc1O
REMARK SMILES IDX 10 1 8 2 7 3 9 5 6 6 5 7 3 8 21 9 4 10 20 11 19 12 2 13 1 14
REMARK SMILES IDX 22 15 11 17 12 18 13 19 14 20 15 21 16 22 17 23 18 24
REMARK H PARENT 7 4 22 16
REMARK Flexibility Score: inf
ROOT
ATOM      1  C   UNL     1      96.360  97.640  74.530  1.00  0.00     0.100 C 
ENDROOT
BRANCH   1   2
ATOM      2  C   UNL     1      97.034  97.761  75.837  1.00  0.00     0.220 C 
ATOM      3  N   UNL     1      97.587  96.668  76.433  1.00  0.00    -0.352 N 
ATOM      4  H   UNL     1      97.474  95.802  75.925  1.00  0.00     0.163 HD
ATOM      5  O   UNL     1      97.101  98.897  76.366  1.00  0.00    -0.275 OA
BRANCH   3   6
ATOM      6  C   UNL     1      98.287  96.685  77.677  1.00  0.00     0.151 C 
BRANCH   6   7
ATOM      7  C   UNL     1      97.592  95.864  78.706  1.00  0.00    -0.025 A 
ATOM      8  C   UNL     1      97.692  94.358  80.652  1.00  0.00     0.160 A 
ATOM      9  C   UNL     1      96.283  94.309  80.687  1.00  0.00     0.157 A 
ATOM     10  C   UNL     1      98.333  95.132  79.662  1.00  0.00     0.056 A 
ATOM     11  C   UNL     1      95.532  95.017  79.728  1.00  0.00     0.050 A 
ATOM     12  C   UNL     1      96.180  95.797  78.751  1.00  0.00     0.009 A 
BRANCH   8  13
ATOM     13  O   UNL     1      98.429  93.618  81.542  1.00  0.00    -0.493 OA
ATOM     14  C   UNL     1      99.251  94.407  82.422  1.00  0.00     0.278 C 
ENDBRANCH   8  13
BRANCH   9  15
ATOM     15  O   UNL     1      95.635  93.584  81.635  1.00  0.00    -0.504 OA
ATOM     16  H   UNL     1      95.583  94.093  82.448  1.00  0.00     0.293 HD
ENDBRANCH   9  15
ENDBRANCH   6   7
ENDBRANCH   3   6
ENDBRANCH   1   2
BRANCH   1  17
ATOM     17  C   UNL     1      95.734  96.233  74.336  1.00  0.00     0.010 C 
BRANCH  17  18
ATOM     18  C   UNL     1      94.523  95.975  75.277  1.00  0.00     0.005 C 
BRANCH  18  19
ATOM     19  C   UNL     1      94.460  94.503  75.768  1.00  0.00     0.027 C 
BRANCH  19  20
ATOM     20  C   UNL     1      93.091  94.042  75.940  1.00  0.00    -0.031 C 
ATOM     21  C   UNL     1      92.662  93.323  76.994  1.00  0.00    -0.028 C 
BRANCH  21  22
ATOM     22  C   UNL     1      91.276  92.886  77.156  1.00  0.00     0.005 C 
ATOM     23  C   UNL     1      90.283  94.081  77.205  1.00  0.00     0.012 C 
ATOM     24  C   UNL     1      90.891  91.894  76.028  1.00  0.00     0.012 C 
ENDBRANCH  21  22
ENDBRANCH  19  20
ENDBRANCH  18  19
ENDBRANCH  17  18
ENDBRANCH   1  17
TORSDOF 10
ENDMDL
MODEL 2
REMARK VINA RESULT:    -5.893     13.192     14.978
REMARK INTER + INTRA:         -10.325
REMARK INTER:                  -9.305
REMARK INTRA:                  -1.020
REMARK UNBOUND:                -1.159
REMARK SMILES COc1cc(CNC(=O)CCCC/C=C/C(C)C)ccc1O
REMARK SMILES IDX 10 1 8 2 7 3 9 5 6 6 5 7 3 8 21 9 4 10 20 11 19 12 2 13 1 14
REMARK SMILES IDX 22 15 11 17 12 18 13 19 14 20 15 21 16 22 17 23 18 24
REMARK H PARENT 7 4 22 16
REMARK Flexibility Score: inf
ROOT
ATOM      1  C   UNL     1      99.009  78.402  79.766  1.00  0.00     0.100 C 
ENDROOT
BRANCH   1   2
ATOM      2  C   UNL     1      97.777  78.413  80.578  1.00  0.00     0.220 C 
ATOM      3  N   UNL     1      97.542  79.421  81.464  1.00  0.00    -0.352 N 
ATOM      4  H   UNL     1      98.274  80.116  81.524  1.00  0.00     0.163 HD
ATOM      5  O   UNL     1      96.949  77.485  80.410  1.00  0.00    -0.275 OA
BRANCH   3   6
ATOM      6  C   UNL     1      96.369  79.541  82.270  1.00  0.00     0.151 C 
BRANCH   6   7
ATOM      7  C   UNL     1      96.186  80.933  82.765  1.00  0.00    -0.025 A 
ATOM      8  C   UNL     1      95.197  82.505  84.381  1.00  0.00     0.160 A 
ATOM      9  C   UNL     1      95.842  83.579  83.733  1.00  0.00     0.157 A 
ATOM     10  C   UNL     1      95.373  81.194  83.890  1.00  0.00     0.056 A 
ATOM     11  C   UNL     1      96.640  83.336  82.598  1.00  0.00     0.050 A 
ATOM     12  C   UNL     1      96.819  82.022  82.122  1.00  0.00     0.009 A 
BRANCH   8  13
ATOM     13  O   UNL     1      94.366  82.744  85.446  1.00  0.00    -0.493 OA
ATOM     14  C   UNL     1      94.218  81.623  86.338  1.00  0.00     0.278 C 
ENDBRANCH   8  13
BRANCH   9  15
ATOM     15  O   UNL     1      95.703  84.851  84.188  1.00  0.00    -0.504 OA
ATOM     16  H   UNL     1      96.571  85.235  84.333  1.00  0.00     0.293 HD
ENDBRANCH   9  15
ENDBRANCH   6   7
ENDBRANCH   3   6
ENDBRANCH   1   2
BRANCH   1  17
ATOM     17  C   UNL     1      99.275  79.783  79.110  1.00  0.00     0.010 C 
BRANCH  17  18
ATOM     18  C   UNL     1      98.166  80.197  78.102  1.00  0.00     0.005 C 
BRANCH  18  19
ATOM     19  C   UNL     1      97.431  81.496  78.532  1.00  0.00     0.027 C 
BRANCH  19  20
ATOM     20  C   UNL     1      97.016  82.294  77.389  1.00  0.00    -0.031 C 
ATOM     21  C   UNL     1      97.597  82.238  76.177  1.00  0.00    -0.028 C 
BRANCH  21  22
ATOM     22  C   UNL     1      97.150  83.037  75.036  1.00  0.00     0.005 C 
ATOM     23  C   UNL     1      96.727  82.154  73.829  1.00  0.00     0.012 C 
ATOM     24  C   UNL     1      95.996  83.982  75.461  1.00  0.00     0.012 C 
ENDBRANCH  21  22
ENDBRANCH  19  20
ENDBRANCH  18  19
ENDBRANCH  17  18
ENDBRANCH   1  17
TORSDOF 10
ENDMDL
MODEL 3
REMARK VINA RESULT:    -5.791     12.917     14.448
REMARK INTER + INTRA:         -10.167
REMARK INTER:                  -9.378
REMARK INTRA:                  -0.788
REMARK UNBOUND:                -1.159
REMARK SMILES COc1cc(CNC(=O)CCCC/C=C/C(C)C)ccc1O
REMARK SMILES IDX 10 1 8 2 7 3 9 5 6 6 5 7 3 8 21 9 4 10 20 11 19 12 2 13 1 14
REMARK SMILES IDX 22 15 11 17 12 18 13 19 14 20 15 21 16 22 17 23 18 24
REMARK H PARENT 7 4 22 16
REMARK Flexibility Score: inf
ROOT
ATOM      1  C   UNL     1      96.277  81.517  77.038  1.00  0.00     0.100 C 
ENDROOT
BRANCH   1   2
ATOM      2  C   UNL     1      97.278  81.418  78.117  1.00  0.00     0.220 C 
ATOM      3  N   UNL     1      97.066  80.598  79.184  1.00  0.00    -0.352 N 
ATOM      4  H   UNL     1      96.183  80.105  79.175  1.00  0.00     0.163 HD
ATOM      5  O   UNL     1      98.333  82.090  78.010  1.00  0.00    -0.275 OA
BRANCH   3   6
ATOM      6  C   UNL     1      97.984  80.408  80.262  1.00  0.00     0.151 C 
BRANCH   6   7
ATOM      7  C   UNL     1      97.536  81.116  81.492  1.00  0.00    -0.025 A 
ATOM      8  C   UNL     1      97.510  81.309  83.947  1.00  0.00     0.160 A 
ATOM      9  C   UNL     1      96.709  82.465  83.848  1.00  0.00     0.157 A 
ATOM     10  C   UNL     1      97.914  80.645  82.770  1.00  0.00     0.056 A 
ATOM     11  C   UNL     1      96.308  82.935  82.582  1.00  0.00     0.050 A 
ATOM     12  C   UNL     1      96.726  82.272  81.412  1.00  0.00     0.009 A 
BRANCH   8  13
ATOM     13  O   UNL     1      97.849  80.809  85.179  1.00  0.00    -0.493 OA
ATOM     14  C   UNL     1      99.023  79.977  85.172  1.00  0.00     0.278 C 
ENDBRANCH   8  13
BRANCH   9  15
ATOM     15  O   UNL     1      96.314  83.135  84.961  1.00  0.00    -0.504 OA
ATOM     16  H   UNL     1      96.537  84.065  84.872  1.00  0.00     0.293 HD
ENDBRANCH   9  15
ENDBRANCH   6   7
ENDBRANCH   3   6
ENDBRANCH   1   2
BRANCH   1  17
ATOM     17  C   UNL     1      95.935  82.995  76.707  1.00  0.00     0.010 C 
BRANCH  17  18
ATOM     18  C   UNL     1      96.010  83.308  75.186  1.00  0.00     0.005 C 
BRANCH  18  19
ATOM     19  C   UNL     1      97.399  82.969  74.581  1.00  0.00     0.027 C 
BRANCH  19  20
ATOM     20  C   UNL     1      97.295  82.076  73.437  1.00  0.00    -0.031 C 
ATOM     21  C   UNL     1      97.138  80.743  73.530  1.00  0.00    -0.028 C 
BRANCH  21  22
ATOM     22  C   UNL     1      97.016  79.867  72.366  1.00  0.00     0.005 C 
ATOM     23  C   UNL     1      98.286  79.894  71.471  1.00  0.00     0.012 C 
ATOM     24  C   UNL     1      96.689  78.419  72.816  1.00  0.00     0.012 C 
ENDBRANCH  21  22
ENDBRANCH  19  20
ENDBRANCH  18  19
ENDBRANCH  17  18
ENDBRANCH   1  17
TORSDOF 10
ENDMDL
MODEL 4
REMARK VINA RESULT:    -5.760     10.047     13.705
REMARK INTER + INTRA:         -10.118
REMARK INTER:                  -9.289
REMARK INTRA:                  -0.829
REMARK UNBOUND:                -1.159
REMARK SMILES COc1cc(CNC(=O)CCCC/C=C/C(C)C)ccc1O
REMARK SMILES IDX 10 1 8 2 7 3 9 5 6 6 5 7 3 8 21 9 4 10 20 11 19 12 2 13 1 14
REMARK SMILES IDX 22 15 11 17 12 18 13 19 14 20 15 21 16 22 17 23 18 24
REMARK H PARENT 7 4 22 16
REMARK Flexibility Score: inf
ROOT
ATOM      1  C   UNL     1      89.842  97.664  68.483  1.00  0.00     0.100 C 
ENDROOT
BRANCH   1   2
ATOM      2  C   UNL     1      89.279  98.436  67.358  1.00  0.00     0.220 C 
ATOM      3  N   UNL     1      88.055  99.024  67.468  1.00  0.00    -0.352 N 
ATOM      4  H   UNL     1      87.583  98.866  68.347  1.00  0.00     0.163 HD
ATOM      5  O   UNL     1      89.968  98.551  66.316  1.00  0.00    -0.275 OA
BRANCH   3   6
ATOM      6  C   UNL     1      87.438  99.816  66.452  1.00  0.00     0.151 C 
BRANCH   6   7
ATOM      7  C   UNL     1      87.667 101.270  66.678  1.00  0.00    -0.025 A 
ATOM      8  C   UNL     1      89.037 103.089  67.613  1.00  0.00     0.160 A 
ATOM      9  C   UNL     1      88.129 104.038  67.100  1.00  0.00     0.157 A 
ATOM     10  C   UNL     1      88.797 101.715  67.400  1.00  0.00     0.056 A 
ATOM     11  C   UNL     1      86.987 103.608  66.396  1.00  0.00     0.050 A 
ATOM     12  C   UNL     1      86.762 102.234  66.177  1.00  0.00     0.009 A 
BRANCH   8  13
ATOM     13  O   UNL     1      90.114 103.499  68.356  1.00  0.00    -0.493 OA
ATOM     14  C   UNL     1      89.952 103.318  69.775  1.00  0.00     0.278 C 
ENDBRANCH   8  13
BRANCH   9  15
ATOM     15  O   UNL     1      88.338 105.368  67.277  1.00  0.00    -0.504 OA
ATOM     16  H   UNL     1      88.204 105.594  68.200  1.00  0.00     0.293 HD
ENDBRANCH   9  15
ENDBRANCH   6   7
ENDBRANCH   3   6
ENDBRANCH   1   2
BRANCH   1  17
ATOM     17  C   UNL     1      89.894  98.506  69.786  1.00  0.00     0.010 C 
BRANCH  17  18
ATOM     18  C   UNL     1      90.998  99.600  69.756  1.00  0.00     0.005 C 
BRANCH  18  19
ATOM     19  C   UNL     1      91.429 100.043  71.180  1.00  0.00     0.027 C 
BRANCH  19  20
ATOM     20  C   UNL     1      92.571  99.284  71.667  1.00  0.00    -0.031 C 
ATOM     21  C   UNL     1      93.071  99.385  72.912  1.00  0.00    -0.028 C 
BRANCH  21  22
ATOM     22  C   UNL     1      94.209  98.597  73.387  1.00  0.00     0.005 C 
ATOM     23  C   UNL     1      95.259  99.468  74.130  1.00  0.00     0.012 C 
ATOM     24  C   UNL     1      93.717  97.435  74.287  1.00  0.00     0.012 C 
ENDBRANCH  21  22
ENDBRANCH  19  20
ENDBRANCH  18  19
ENDBRANCH  17  18
ENDBRANCH   1  17
TORSDOF 10
ENDMDL
MODEL 5
REMARK VINA RESULT:    -5.743     13.279     15.030
REMARK INTER + INTRA:         -10.091
REMARK INTER:                  -9.506
REMARK INTRA:                  -0.585
REMARK UNBOUND:                -1.159
REMARK SMILES COc1cc(CNC(=O)CCCC/C=C/C(C)C)ccc1O
REMARK SMILES IDX 10 1 8 2 7 3 9 5 6 6 5 7 3 8 21 9 4 10 20 11 19 12 2 13 1 14
REMARK SMILES IDX 22 15 11 17 12 18 13 19 14 20 15 21 16 22 17 23 18 24
REMARK H PARENT 7 4 22 16
REMARK Flexibility Score: inf
ROOT
ATOM      1  C   UNL     1      96.541  81.779  77.511  1.00  0.00     0.100 C 
ENDROOT
BRANCH   1   2
ATOM      2  C   UNL     1      96.484  82.742  76.395  1.00  0.00     0.220 C 
ATOM      3  N   UNL     1      97.437  82.730  75.422  1.00  0.00    -0.352 N 
ATOM      4  H   UNL     1      98.167  82.043  75.549  1.00  0.00     0.163 HD
ATOM      5  O   UNL     1      95.524  83.550  76.359  1.00  0.00    -0.275 OA
BRANCH   3   6
ATOM      6  C   UNL     1      97.454  83.596  74.287  1.00  0.00     0.151 C 
BRANCH   6   7
ATOM      7  C   UNL     1      98.611  83.308  73.396  1.00  0.00    -0.025 A 
ATOM      8  C   UNL     1     100.066  81.681  72.256  1.00  0.00     0.160 A 
ATOM      9  C   UNL     1     100.803  82.739  71.686  1.00  0.00     0.157 A 
ATOM     10  C   UNL     1      98.980  81.975  73.107  1.00  0.00     0.056 A 
ATOM     11  C   UNL     1     100.460  84.073  71.981  1.00  0.00     0.050 A 
ATOM     12  C   UNL     1      99.366  84.357  72.822  1.00  0.00     0.009 A 
BRANCH   8  13
ATOM     13  O   UNL     1     100.437  80.381  72.025  1.00  0.00    -0.493 OA
ATOM     14  C   UNL     1      99.628  79.705  71.045  1.00  0.00     0.278 C 
ENDBRANCH   8  13
BRANCH   9  15
ATOM     15  O   UNL     1     101.847  82.491  70.852  1.00  0.00    -0.504 OA
ATOM     16  H   UNL     1     102.668  82.735  71.285  1.00  0.00     0.293 HD
ENDBRANCH   9  15
ENDBRANCH   6   7
ENDBRANCH   3   6
ENDBRANCH   1   2
BRANCH   1  17
ATOM     17  C   UNL     1      97.926  81.797  78.212  1.00  0.00     0.010 C 
BRANCH  17  18
ATOM     18  C   UNL     1      97.885  81.202  79.648  1.00  0.00     0.005 C 
BRANCH  18  19
ATOM     19  C   UNL     1      97.017  82.051  80.615  1.00  0.00     0.027 C 
BRANCH  19  20
ATOM     20  C   UNL     1      96.579  81.286  81.772  1.00  0.00    -0.031 C 
ATOM     21  C   UNL     1      96.008  81.827  82.864  1.00  0.00    -0.028 C 
BRANCH  21  22
ATOM     22  C   UNL     1      95.556  81.036  84.009  1.00  0.00     0.005 C 
ATOM     23  C   UNL     1      94.111  81.403  84.446  1.00  0.00     0.012 C 
ATOM     24  C   UNL     1      95.670  79.522  83.692  1.00  0.00     0.012 C 
ENDBRANCH  21  22
ENDBRANCH  19  20
ENDBRANCH  18  19
ENDBRANCH  17  18
ENDBRANCH   1  17
TORSDOF 10
ENDMDL
MODEL 6
REMARK VINA RESULT:    -5.703      4.588      7.195
REMARK INTER + INTRA:         -10.030
REMARK INTER:                  -9.574
REMARK INTRA:                  -0.456
REMARK UNBOUND:                -1.159
REMARK SMILES COc1cc(CNC(=O)CCCC/C=C/C(C)C)ccc1O
REMARK SMILES IDX 10 1 8 2 7 3 9 5 6 6 5 7 3 8 21 9 4 10 20 11 19 12 2 13 1 14
REMARK SMILES IDX 22 15 11 17 12 18 13 19 14 20 15 21 16 22 17 23 18 24
REMARK H PARENT 7 4 22 16
REMARK Flexibility Score: inf
ROOT
ATOM      1  C   UNL     1      94.712  97.118  73.793  1.00  0.00     0.100 C 
ENDROOT
BRANCH   1   2
ATOM      2  C   UNL     1      94.734  96.435  75.100  1.00  0.00     0.220 C 
ATOM      3  N   UNL     1      93.707  95.619  75.471  1.00  0.00    -0.352 N 
ATOM      4  H   UNL     1      92.953  95.551  74.801  1.00  0.00     0.163 HD
ATOM      5  O   UNL     1      95.730  96.609  75.843  1.00  0.00    -0.275 OA
BRANCH   3   6
ATOM      6  C   UNL     1      93.648  94.889  76.697  1.00  0.00     0.151 C 
BRANCH   6   7
ATOM      7  C   UNL     1      92.512  93.927  76.705  1.00  0.00    -0.025 A 
ATOM      8  C   UNL     1      91.391  91.948  75.762  1.00  0.00     0.160 A 
ATOM      9  C   UNL     1      90.363  92.073  76.720  1.00  0.00     0.157 A 
ATOM     10  C   UNL     1      92.453  92.877  75.762  1.00  0.00     0.056 A 
ATOM     11  C   UNL     1      90.398  93.127  77.654  1.00  0.00     0.050 A 
ATOM     12  C   UNL     1      91.469  94.042  77.654  1.00  0.00     0.009 A 
BRANCH   8  13
ATOM     13  O   UNL     1      91.327  90.963  74.810  1.00  0.00    -0.493 OA
ATOM     14  C   UNL     1      90.339  91.197  73.789  1.00  0.00     0.278 C 
ENDBRANCH   8  13
BRANCH   9  15
ATOM     15  O   UNL     1      89.333  91.189  76.756  1.00  0.00    -0.504 OA
ATOM     16  H   UNL     1      89.432  90.553  76.044  1.00  0.00     0.293 HD
ENDBRANCH   9  15
ENDBRANCH   6   7
ENDBRANCH   3   6
ENDBRANCH   1   2
BRANCH   1  17
ATOM     17  C   UNL     1      93.524  98.112  73.685  1.00  0.00     0.010 C 
BRANCH  17  18
ATOM     18  C   UNL     1      93.979  99.570  73.394  1.00  0.00     0.005 C 
BRANCH  18  19
ATOM     19  C   UNL     1      93.681 100.001  71.933  1.00  0.00     0.027 C 
BRANCH  19  20
ATOM     20  C   UNL     1      92.262  99.920  71.617  1.00  0.00    -0.031 C 
ATOM     21  C   UNL     1      91.775  99.596  70.405  1.00  0.00    -0.028 C 
BRANCH  21  22
ATOM     22  C   UNL     1      90.344  99.501  70.115  1.00  0.00     0.005 C 
ATOM     23  C   UNL     1      89.831  98.035  70.156  1.00  0.00     0.012 C 
ATOM     24  C   UNL     1      89.539 100.396  71.093  1.00  0.00     0.012 C 
ENDBRANCH  21  22
ENDBRANCH  19  20
ENDBRANCH  18  19
ENDBRANCH  17  18
ENDBRANCH   1  17
TORSDOF 10
ENDMDL
MODEL 7
REMARK VINA RESULT:    -5.654      3.864      7.300
REMARK INTER + INTRA:          -9.953
REMARK INTER:                  -9.259
REMARK INTRA:                  -0.693
REMARK UNBOUND:                -1.159
REMARK SMILES COc1cc(CNC(=O)CCCC/C=C/C(C)C)ccc1O
REMARK SMILES IDX 10 1 8 2 7 3 9 5 6 6 5 7 3 8 21 9 4 10 20 11 19 12 2 13 1 14
REMARK SMILES IDX 22 15 11 17 12 18 13 19 14 20 15 21 16 22 17 23 18 24
REMARK H PARENT 7 4 22 16
REMARK Flexibility Score: inf
ROOT
ATOM      1  C   UNL     1      95.052  96.781  74.093  1.00  0.00     0.100 C 
ENDROOT
BRANCH   1   2
ATOM      2  C   UNL     1      95.052  96.001  75.345  1.00  0.00     0.220 C 
ATOM      3  N   UNL     1      94.123  95.026  75.553  1.00  0.00    -0.352 N 
ATOM      4  H   UNL     1      93.449  94.914  74.808  1.00  0.00     0.163 HD
ATOM      5  O   UNL     1      95.942  96.245  76.195  1.00  0.00    -0.275 OA
BRANCH   3   6
ATOM      6  C   UNL     1      94.057  94.196  76.713  1.00  0.00     0.151 C 
BRANCH   6   7
ATOM      7  C   UNL     1      92.753  93.484  76.802  1.00  0.00    -0.025 A 
ATOM      8  C   UNL     1      91.014  92.088  75.759  1.00  0.00     0.160 A 
ATOM      9  C   UNL     1      90.277  92.106  76.961  1.00  0.00     0.157 A 
ATOM     10  C   UNL     1      92.242  92.779  75.690  1.00  0.00     0.056 A 
ATOM     11  C   UNL     1      90.765  92.821  78.073  1.00  0.00     0.050 A 
ATOM     12  C   UNL     1      91.998  93.498  77.998  1.00  0.00     0.009 A 
BRANCH   8  13
ATOM     13  O   UNL     1      90.512  91.448  74.654  1.00  0.00    -0.493 OA
ATOM     14  C   UNL     1      90.954  90.086  74.514  1.00  0.00     0.278 C 
ENDBRANCH   8  13
BRANCH   9  15
ATOM     15  O   UNL     1      89.098  91.440  77.065  1.00  0.00    -0.504 OA
ATOM     16  H   UNL     1      89.109  90.675  76.486  1.00  0.00     0.293 HD
ENDBRANCH   9  15
ENDBRANCH   6   7
ENDBRANCH   3   6
ENDBRANCH   1   2
BRANCH   1  17
ATOM     17  C   UNL     1      93.784  97.669  73.971  1.00  0.00     0.010 C 
BRANCH  17  18
ATOM     18  C   UNL     1      94.116  99.170  73.740  1.00  0.00     0.005 C 
BRANCH  18  19
ATOM     19  C   UNL     1      93.337  99.768  72.537  1.00  0.00     0.027 C 
BRANCH  19  20
ATOM     20  C   UNL     1      93.823  99.261  71.263  1.00  0.00    -0.031 C 
ATOM     21  C   UNL     1      95.097  98.894  71.032  1.00  0.00    -0.028 C 
BRANCH  21  22
ATOM     22  C   UNL     1      95.560  98.368  69.748  1.00  0.00     0.005 C 
ATOM     23  C   UNL     1      96.591  99.307  69.063  1.00  0.00     0.012 C 
ATOM     24  C   UNL     1      96.145  96.944  69.932  1.00  0.00     0.012 C 
ENDBRANCH  21  22
ENDBRANCH  19  20
ENDBRANCH  18  19
ENDBRANCH  17  18
ENDBRANCH   1  17
TORSDOF 10
ENDMDL
MODEL 8
REMARK VINA RESULT:    -5.588     22.967     26.403
REMARK INTER + INTRA:          -9.850
REMARK INTER:                  -9.013
REMARK INTRA:                  -0.837
REMARK UNBOUND:                -1.159
REMARK SMILES COc1cc(CNC(=O)CCCC/C=C/C(C)C)ccc1O
REMARK SMILES IDX 10 1 8 2 7 3 9 5 6 6 5 7 3 8 21 9 4 10 20 11 19 12 2 13 1 14
REMARK SMILES IDX 22 15 11 17 12 18 13 19 14 20 15 21 16 22 17 23 18 24
REMARK H PARENT 7 4 22 16
REMARK Flexibility Score: inf
ROOT
ATOM      1  C   UNL     1      75.919  82.913  65.707  1.00  0.00     0.100 C 
ENDROOT
BRANCH   1   2
ATOM      2  C   UNL     1      76.810  83.980  66.203  1.00  0.00     0.220 C 
ATOM      3  N   UNL     1      76.376  85.270  66.265  1.00  0.00    -0.352 N 
ATOM      4  H   UNL     1      75.435  85.420  65.929  1.00  0.00     0.163 HD
ATOM      5  O   UNL     1      77.961  83.659  66.585  1.00  0.00    -0.275 OA
BRANCH   3   6
ATOM      6  C   UNL     1      77.147  86.367  66.757  1.00  0.00     0.151 C 
BRANCH   6   7
ATOM      7  C   UNL     1      76.300  87.343  67.496  1.00  0.00    -0.025 A 
ATOM      8  C   UNL     1      74.172  87.907  68.599  1.00  0.00     0.160 A 
ATOM      9  C   UNL     1      74.677  89.184  68.921  1.00  0.00     0.157 A 
ATOM     10  C   UNL     1      74.986  87.000  67.889  1.00  0.00     0.056 A 
ATOM     11  C   UNL     1      75.978  89.546  68.518  1.00  0.00     0.050 A 
ATOM     12  C   UNL     1      76.787  88.630  67.820  1.00  0.00     0.009 A 
BRANCH   8  13
ATOM     13  O   UNL     1      72.884  87.573  68.931  1.00  0.00    -0.493 OA
ATOM     14  C   UNL     1      72.511  86.232  68.563  1.00  0.00     0.278 C 
ENDBRANCH   8  13
BRANCH   9  15
ATOM     15  O   UNL     1      73.924  90.076  69.615  1.00  0.00    -0.504 OA
ATOM     16  H   UNL     1      74.481  90.552  70.235  1.00  0.00     0.293 HD
ENDBRANCH   9  15
ENDBRANCH   6   7
ENDBRANCH   3   6
ENDBRANCH   1   2
BRANCH   1  17
ATOM     17  C   UNL     1      75.715  83.006  64.171  1.00  0.00     0.010 C 
BRANCH  17  18
ATOM     18  C   UNL     1      74.691  81.968  63.633  1.00  0.00     0.005 C 
BRANCH  18  19
ATOM     19  C   UNL     1      73.916  81.256  64.774  1.00  0.00     0.027 C 
BRANCH  19  20
ATOM     20  C   UNL     1      72.475  81.397  64.628  1.00  0.00    -0.031 C 
ATOM     21  C   UNL     1      71.682  82.022  65.518  1.00  0.00    -0.028 C 
BRANCH  21  22
ATOM     22  C   UNL     1      70.238  82.169  65.341  1.00  0.00     0.005 C 
ATOM     23  C   UNL     1      69.654  83.325  66.200  1.00  0.00     0.012 C 
ATOM     24  C   UNL     1      69.899  82.369  63.841  1.00  0.00     0.012 C 
ENDBRANCH  21  22
ENDBRANCH  19  20
ENDBRANCH  18  19
ENDBRANCH  17  18
ENDBRANCH   1  17
TORSDOF 10
ENDMDL
MODEL 9
REMARK VINA RESULT:    -5.425      4.599      6.515
REMARK INTER + INTRA:          -9.598
REMARK INTER:                  -9.033
REMARK INTRA:                  -0.564
REMARK UNBOUND:                -1.159
REMARK SMILES COc1cc(CNC(=O)CCCC/C=C/C(C)C)ccc1O
REMARK SMILES IDX 10 1 8 2 7 3 9 5 6 6 5 7 3 8 21 9 4 10 20 11 19 12 2 13 1 14
REMARK SMILES IDX 22 15 11 17 12 18 13 19 14 20 15 21 16 22 17 23 18 24
REMARK H PARENT 7 4 22 16
REMARK Flexibility Score: inf
ROOT
ATOM      1  C   UNL     1      95.170  98.133  73.441  1.00  0.00     0.100 C 
ENDROOT
BRANCH   1   2
ATOM      2  C   UNL     1      95.733  97.238  74.470  1.00  0.00     0.220 C 
ATOM      3  N   UNL     1      94.930  96.693  75.427  1.00  0.00    -0.352 N 
ATOM      4  H   UNL     1      93.959  96.970  75.377  1.00  0.00     0.163 HD
ATOM      5  O   UNL     1      96.960  96.979  74.423  1.00  0.00    -0.275 OA
BRANCH   3   6
ATOM      6  C   UNL     1      95.370  95.794  76.445  1.00  0.00     0.151 C 
BRANCH   6   7
ATOM      7  C   UNL     1      94.247  94.965  76.963  1.00  0.00    -0.025 A 
ATOM      8  C   UNL     1      91.926  94.165  76.772  1.00  0.00     0.160 A 
ATOM      9  C   UNL     1      92.103  93.375  77.927  1.00  0.00     0.157 A 
ATOM     10  C   UNL     1      92.998  94.953  76.303  1.00  0.00     0.056 A 
ATOM     11  C   UNL     1      93.337  93.391  78.607  1.00  0.00     0.050 A 
ATOM     12  C   UNL     1      94.405  94.172  78.124  1.00  0.00     0.009 A 
BRANCH   8  13
ATOM     13  O   UNL     1      90.707  94.203  76.144  1.00  0.00    -0.493 OA
ATOM     14  C   UNL     1      90.401  93.020  75.384  1.00  0.00     0.278 C 
ENDBRANCH   8  13
BRANCH   9  15
ATOM     15  O   UNL     1      91.096  92.595  78.397  1.00  0.00    -0.504 OA
ATOM     16  H   UNL     1      90.303  93.125  78.504  1.00  0.00     0.293 HD
ENDBRANCH   9  15
ENDBRANCH   6   7
ENDBRANCH   3   6
ENDBRANCH   1   2
BRANCH   1  17
ATOM     17  C   UNL     1      93.687  98.484  73.736  1.00  0.00     0.010 C 
BRANCH  17  18
ATOM     18  C   UNL     1      93.155  99.652  72.858  1.00  0.00     0.005 C 
BRANCH  18  19
ATOM     19  C   UNL     1      93.291  99.358  71.340  1.00  0.00     0.027 C 
BRANCH  19  20
ATOM     20  C   UNL     1      92.074  99.680  70.609  1.00  0.00    -0.031 C 
ATOM     21  C   UNL     1      90.913  99.015  70.745  1.00  0.00    -0.028 C 
BRANCH  21  22
ATOM     22  C   UNL     1      89.696  99.368  70.014  1.00  0.00     0.005 C 
ATOM     23  C   UNL     1      89.816 100.743  69.299  1.00  0.00     0.012 C 
ATOM     24  C   UNL     1      89.333  98.249  69.003  1.00  0.00     0.012 C 
ENDBRANCH  21  22
ENDBRANCH  19  20
ENDBRANCH  18  19
ENDBRANCH  17  18
ENDBRANCH   1  17
TORSDOF 10
ENDMDL
MODEL 10
REMARK VINA RESULT:    -5.412     19.189     21.909
REMARK INTER + INTRA:          -9.576
REMARK INTER:                  -8.768
REMARK INTRA:                  -0.809
REMARK UNBOUND:                -1.159
REMARK SMILES COc1cc(CNC(=O)CCCC/C=C/C(C)C)ccc1O
REMARK SMILES IDX 10 1 8 2 7 3 9 5 6 6 5 7 3 8 21 9 4 10 20 11 19 12 2 13 1 14
REMARK SMILES IDX 22 15 11 17 12 18 13 19 14 20 15 21 16 22 17 23 18 24
REMARK H PARENT 7 4 22 16
REMARK Flexibility Score: inf
ROOT
ATOM      1  C   UNL     1      74.975  89.456  68.824  1.00  0.00     0.100 C 
ENDROOT
BRANCH   1   2
ATOM      2  C   UNL     1      74.308  90.399  69.742  1.00  0.00     0.220 C 
ATOM      3  N   UNL     1      74.923  91.559  70.109  1.00  0.00    -0.352 N 
ATOM      4  H   UNL     1      75.849  91.690  69.726  1.00  0.00     0.163 HD
ATOM      5  O   UNL     1      73.158  90.112  70.152  1.00  0.00    -0.275 OA
BRANCH   3   6
ATOM      6  C   UNL     1      74.351  92.549  70.964  1.00  0.00     0.151 C 
BRANCH   6   7
ATOM      7  C   UNL     1      75.346  93.594  71.330  1.00  0.00    -0.025 A 
ATOM      8  C   UNL     1      77.142  94.398  72.809  1.00  0.00     0.160 A 
ATOM      9  C   UNL     1      77.260  95.568  72.031  1.00  0.00     0.157 A 
ATOM     10  C   UNL     1      76.186  93.425  72.453  1.00  0.00     0.056 A 
ATOM     11  C   UNL     1      76.416  95.761  70.920  1.00  0.00     0.050 A 
ATOM     12  C   UNL     1      75.472  94.777  70.565  1.00  0.00     0.009 A 
BRANCH   8  13
ATOM     13  O   UNL     1      77.916  94.237  73.930  1.00  0.00    -0.493 OA
ATOM     14  C   UNL     1      77.216  93.662  75.049  1.00  0.00     0.278 C 
ENDBRANCH   8  13
BRANCH   9  15
ATOM     15  O   UNL     1      78.180  96.519  72.339  1.00  0.00    -0.504 OA
ATOM     16  H   UNL     1      77.763  97.213  72.856  1.00  0.00     0.293 HD
ENDBRANCH   9  15
ENDBRANCH   6   7
ENDBRANCH   3   6
ENDBRANCH   1   2
BRANCH   1  17
ATOM     17  C   UNL     1      75.949  90.187  67.860  1.00  0.00     0.010 C 
BRANCH  17  18
ATOM     18  C   UNL     1      77.119  89.283  67.382  1.00  0.00     0.005 C 
BRANCH  18  19
ATOM     19  C   UNL     1      76.692  88.315  66.245  1.00  0.00     0.027 C 
BRANCH  19  20
ATOM     20  C   UNL     1      76.783  86.921  66.651  1.00  0.00    -0.031 C 
ATOM     21  C   UNL     1      77.218  86.511  67.857  1.00  0.00    -0.028 C 
BRANCH  21  22
ATOM     22  C   UNL     1      77.282  85.103  68.251  1.00  0.00     0.005 C 
ATOM     23  C   UNL     1      76.133  84.710  69.220  1.00  0.00     0.012 C 
ATOM     24  C   UNL     1      77.281  84.195  66.994  1.00  0.00     0.012 C 
ENDBRANCH  21  22
ENDBRANCH  19  20
ENDBRANCH  18  19
ENDBRANCH  17  18
ENDBRANCH   1  17
TORSDOF 10
ENDMDL
