MODEL 1
REMARK VINA RESULT:    -6.215      0.000      0.000
REMARK INTER + INTRA:         -10.919
REMARK INTER:                 -10.211
REMARK INTRA:                  -0.708
REMARK UNBOUND:                -0.708
REMARK SMILES CCCCC[C@H](O)CC(=O)CCc1ccc(O)c(OC)c1
REMARK SMILES IDX 8 1 6 2 7 3 5 5 4 6 3 7 2 8 1 9 9 10 10 11 11 12 12 13 13 14
REMARK SMILES IDX 21 15 14 16 18 17 15 18 16 19 19 20 20 21 17 22
REMARK H PARENT 7 4 17 23
REMARK Flexibility Score: inf
ROOT
ATOM      1  C   UNL     1      91.613  95.687  76.756  1.00  0.00     0.107 C 
ENDROOT
BRANCH   1   2
ATOM      2  C   UNL     1      91.101  94.255  76.582  1.00  0.00     0.121 C 
BRANCH   2   3
ATOM      3  O   UNL     1      90.732  93.717  77.850  1.00  0.00    -0.393 OA
ATOM      4  H   UNL     1      90.519  94.461  78.439  1.00  0.00     0.210 HD
ENDBRANCH   2   3
BRANCH   2   5
ATOM      5  C   UNL     1      89.906  94.157  75.626  1.00  0.00     0.032 C 
BRANCH   5   6
ATOM      6  C   UNL     1      90.105  93.068  74.565  1.00  0.00     0.003 C 
BRANCH   6   7
ATOM      7  C   UNL     1      90.146  91.652  75.150  1.00  0.00    -0.000 C 
BRANCH   7   8
ATOM      8  C   UNL     1      90.483  90.574  74.121  1.00  0.00    -0.003 C 
ATOM      9  C   UNL     1      90.305  89.180  74.701  1.00  0.00     0.004 C 
ENDBRANCH   7   8
ENDBRANCH   6   7
ENDBRANCH   5   6
ENDBRANCH   2   5
ENDBRANCH   1   2
BRANCH   1  10
ATOM     10  C   UNL     1      92.952  95.757  77.472  1.00  0.00     0.135 C 
ATOM     11  O   UNL     1      93.475  94.745  77.938  1.00  0.00    -0.300 OA
BRANCH  10  12
ATOM     12  C   UNL     1      93.619  97.123  77.539  1.00  0.00     0.080 C 
BRANCH  12  13
ATOM     13  C   UNL     1      95.147  97.060  77.573  1.00  0.00     0.043 C 
BRANCH  13  14
ATOM     14  C   UNL     1      95.711  97.141  78.971  1.00  0.00    -0.044 A 
ATOM     15  C   UNL     1      95.732  98.361  79.646  1.00  0.00     0.054 A 
ATOM     16  C   UNL     1      96.212  95.993  79.588  1.00  0.00     0.008 A 
ATOM     17  C   UNL     1      96.253  98.434  80.939  1.00  0.00     0.160 A 
ATOM     18  C   UNL     1      96.733  96.066  80.880  1.00  0.00     0.050 A 
ATOM     19  C   UNL     1      96.754  97.287  81.555  1.00  0.00     0.157 A 
BRANCH  17  20
ATOM     20  O   UNL     1      96.268  99.632  81.588  1.00  0.00    -0.493 OA
ATOM     21  C   UNL     1      95.035 100.083  82.145  1.00  0.00     0.278 C 
ENDBRANCH  17  20
BRANCH  19  22
ATOM     22  O   UNL     1      97.265  97.346  82.816  1.00  0.00    -0.504 OA
ATOM     23  H   UNL     1      98.215  97.144  82.783  1.00  0.00     0.293 HD
ENDBRANCH  19  22
ENDBRANCH  13  14
ENDBRANCH  12  13
ENDBRANCH  10  12
ENDBRANCH   1  10
TORSDOF 12
ENDMDL
MODEL 2
REMARK VINA RESULT:    -6.092     28.073     32.868
REMARK INTER + INTRA:         -10.717
REMARK INTER:                  -9.909
REMARK INTRA:                  -0.808
REMARK UNBOUND:                -0.708
REMARK SMILES CCCCC[C@H](O)CC(=O)CCc1ccc(O)c(OC)c1
REMARK SMILES IDX 8 1 6 2 7 3 5 5 4 6 3 7 2 8 1 9 9 10 10 11 11 12 12 13 13 14
REMARK SMILES IDX 21 15 14 16 18 17 15 18 16 19 19 20 20 21 17 22
REMARK H PARENT 7 4 17 23
REMARK Flexibility Score: inf
ROOT
ATOM      1  C   UNL     1      79.348  65.520  70.303  1.00  0.00     0.107 C 
ENDROOT
BRANCH   1   2
ATOM      2  C   UNL     1      79.342  64.444  69.213  1.00  0.00     0.121 C 
BRANCH   2   3
ATOM      3  O   UNL     1      80.218  63.380  69.579  1.00  0.00    -0.393 OA
ATOM      4  H   UNL     1      80.151  63.258  70.542  1.00  0.00     0.210 HD
ENDBRANCH   2   3
BRANCH   2   5
ATOM      5  C   UNL     1      77.944  63.876  68.939  1.00  0.00     0.032 C 
BRANCH   5   6
ATOM      6  C   UNL     1      76.939  64.972  68.565  1.00  0.00     0.003 C 
BRANCH   6   7
ATOM      7  C   UNL     1      76.812  65.188  67.053  1.00  0.00    -0.000 C 
BRANCH   7   8
ATOM      8  C   UNL     1      76.162  64.016  66.321  1.00  0.00    -0.003 C 
ATOM      9  C   UNL     1      74.934  63.511  67.062  1.00  0.00     0.004 C 
ENDBRANCH   7   8
ENDBRANCH   6   7
ENDBRANCH   5   6
ENDBRANCH   2   5
ENDBRANCH   1   2
BRANCH   1  10
ATOM     10  C   UNL     1      80.630  65.532  71.120  1.00  0.00     0.135 C 
ATOM     11  O   UNL     1      81.731  65.521  70.569  1.00  0.00    -0.300 OA
BRANCH  10  12
ATOM     12  C   UNL     1      80.475  65.605  72.631  1.00  0.00     0.080 C 
BRANCH  12  13
ATOM     13  C   UNL     1      80.865  66.959  73.225  1.00  0.00     0.043 C 
BRANCH  13  14
ATOM     14  C   UNL     1      82.338  67.064  73.543  1.00  0.00    -0.044 A 
ATOM     15  C   UNL     1      83.174  67.832  72.733  1.00  0.00     0.054 A 
ATOM     16  C   UNL     1      82.862  66.392  74.648  1.00  0.00     0.008 A 
ATOM     17  C   UNL     1      84.534  67.928  73.029  1.00  0.00     0.160 A 
ATOM     18  C   UNL     1      84.222  66.488  74.944  1.00  0.00     0.050 A 
ATOM     19  C   UNL     1      85.058  67.256  74.133  1.00  0.00     0.157 A 
BRANCH  17  20
ATOM     20  O   UNL     1      85.341  68.681  72.230  1.00  0.00    -0.493 OA
ATOM     21  C   UNL     1      85.392  70.081  72.496  1.00  0.00     0.278 C 
ENDBRANCH  17  20
BRANCH  19  22
ATOM     22  O   UNL     1      86.384  67.343  74.432  1.00  0.00    -0.504 OA
ATOM     23  H   UNL     1      86.645  68.280  74.446  1.00  0.00     0.293 HD
ENDBRANCH  19  22
ENDBRANCH  13  14
ENDBRANCH  12  13
ENDBRANCH  10  12
ENDBRANCH   1  10
TORSDOF 12
ENDMDL
MODEL 3
REMARK VINA RESULT:    -6.042     28.860     33.464
REMARK INTER + INTRA:         -10.636
REMARK INTER:                  -9.801
REMARK INTRA:                  -0.835
REMARK UNBOUND:                -0.708
REMARK SMILES CCCCC[C@H](O)CC(=O)CCc1ccc(O)c(OC)c1
REMARK SMILES IDX 8 1 6 2 7 3 5 5 4 6 3 7 2 8 1 9 9 10 10 11 11 12 12 13 13 14
REMARK SMILES IDX 21 15 14 16 18 17 15 18 16 19 19 20 20 21 17 22
REMARK H PARENT 7 4 17 23
REMARK Flexibility Score: inf
ROOT
ATOM      1  C   UNL     1      79.975  64.696  69.319  1.00  0.00     0.107 C 
ENDROOT
BRANCH   1   2
ATOM      2  C   UNL     1      78.902  63.792  68.706  1.00  0.00     0.121 C 
BRANCH   2   3
ATOM      3  O   UNL     1      77.980  63.385  69.714  1.00  0.00    -0.393 OA
ATOM      4  H   UNL     1      78.471  63.297  70.550  1.00  0.00     0.210 HD
ENDBRANCH   2   3
BRANCH   2   5
ATOM      5  C   UNL     1      78.135  64.462  67.560  1.00  0.00     0.032 C 
BRANCH   5   6
ATOM      6  C   UNL     1      77.165  63.494  66.872  1.00  0.00     0.003 C 
BRANCH   6   7
ATOM      7  C   UNL     1      75.775  64.094  66.635  1.00  0.00    -0.000 C 
BRANCH   7   8
ATOM      8  C   UNL     1      74.822  63.915  67.814  1.00  0.00    -0.003 C 
ATOM      9  C   UNL     1      74.740  65.177  68.658  1.00  0.00     0.004 C 
ENDBRANCH   7   8
ENDBRANCH   6   7
ENDBRANCH   5   6
ENDBRANCH   2   5
ENDBRANCH   1   2
BRANCH   1  10
ATOM     10  C   UNL     1      79.472  65.490  70.514  1.00  0.00     0.135 C 
ATOM     11  O   UNL     1      78.462  66.188  70.431  1.00  0.00    -0.300 OA
BRANCH  10  12
ATOM     12  C   UNL     1      80.253  65.338  71.811  1.00  0.00     0.080 C 
BRANCH  12  13
ATOM     13  C   UNL     1      81.760  65.168  71.605  1.00  0.00     0.043 C 
BRANCH  13  14
ATOM     14  C   UNL     1      82.584  65.874  72.656  1.00  0.00    -0.044 A 
ATOM     15  C   UNL     1      83.189  67.096  72.363  1.00  0.00     0.054 A 
ATOM     16  C   UNL     1      82.739  65.303  73.919  1.00  0.00     0.008 A 
ATOM     17  C   UNL     1      83.949  67.747  73.335  1.00  0.00     0.160 A 
ATOM     18  C   UNL     1      83.499  65.954  74.891  1.00  0.00     0.050 A 
ATOM     19  C   UNL     1      84.104  67.176  74.598  1.00  0.00     0.157 A 
BRANCH  17  20
ATOM     20  O   UNL     1      84.537  68.940  73.037  1.00  0.00    -0.493 OA
ATOM     21  C   UNL     1      85.758  68.896  72.302  1.00  0.00     0.278 C 
ENDBRANCH  17  20
BRANCH  19  22
ATOM     22  O   UNL     1      84.844  67.803  75.555  1.00  0.00    -0.504 OA
ATOM     23  H   UNL     1      85.784  67.763  75.306  1.00  0.00     0.293 HD
ENDBRANCH  19  22
ENDBRANCH  13  14
ENDBRANCH  12  13
ENDBRANCH  10  12
ENDBRANCH   1  10
TORSDOF 12
ENDMDL
MODEL 4
REMARK VINA RESULT:    -5.983      3.523      6.183
REMARK INTER + INTRA:         -10.539
REMARK INTER:                  -9.135
REMARK INTRA:                  -1.403
REMARK UNBOUND:                -0.708
REMARK SMILES CCCCC[C@H](O)CC(=O)CCc1ccc(O)c(OC)c1
REMARK SMILES IDX 8 1 6 2 7 3 5 5 4 6 3 7 2 8 1 9 9 10 10 11 11 12 12 13 13 14
REMARK SMILES IDX 21 15 14 16 18 17 15 18 16 19 19 20 20 21 17 22
REMARK H PARENT 7 4 17 23
REMARK Flexibility Score: inf
ROOT
ATOM      1  C   UNL     1      95.199  96.424  79.196  1.00  0.00     0.107 C 
ENDROOT
BRANCH   1   2
ATOM      2  C   UNL     1      95.006  94.937  78.890  1.00  0.00     0.121 C 
BRANCH   2   3
ATOM      3  O   UNL     1      94.453  94.278  80.027  1.00  0.00    -0.393 OA
ATOM      4  H   UNL     1      94.101  93.420  79.732  1.00  0.00     0.210 HD
ENDBRANCH   2   3
BRANCH   2   5
ATOM      5  C   UNL     1      94.105  94.686  77.675  1.00  0.00     0.032 C 
BRANCH   5   6
ATOM      6  C   UNL     1      92.799  95.486  77.750  1.00  0.00     0.003 C 
BRANCH   6   7
ATOM      7  C   UNL     1      91.545  94.608  77.674  1.00  0.00    -0.000 C 
BRANCH   7   8
ATOM      8  C   UNL     1      90.528  95.082  76.638  1.00  0.00    -0.003 C 
ATOM      9  C   UNL     1      90.855  94.544  75.253  1.00  0.00     0.004 C 
ENDBRANCH   7   8
ENDBRANCH   6   7
ENDBRANCH   5   6
ENDBRANCH   2   5
ENDBRANCH   1   2
BRANCH   1  10
ATOM     10  C   UNL     1      96.625  96.899  78.970  1.00  0.00     0.135 C 
ATOM     11  O   UNL     1      97.516  96.630  79.775  1.00  0.00    -0.300 OA
BRANCH  10  12
ATOM     12  C   UNL     1      96.891  97.674  77.688  1.00  0.00     0.080 C 
BRANCH  12  13
ATOM     13  C   UNL     1      95.620  98.142  76.978  1.00  0.00     0.043 C 
BRANCH  13  14
ATOM     14  C   UNL     1      95.599  97.791  75.509  1.00  0.00    -0.044 A 
ATOM     15  C   UNL     1      96.667  98.155  74.689  1.00  0.00     0.054 A 
ATOM     16  C   UNL     1      94.511  97.102  74.973  1.00  0.00     0.008 A 
ATOM     17  C   UNL     1      96.647  97.829  73.333  1.00  0.00     0.160 A 
ATOM     18  C   UNL     1      94.491  96.776  73.617  1.00  0.00     0.050 A 
ATOM     19  C   UNL     1      95.559  97.140  72.797  1.00  0.00     0.157 A 
BRANCH  17  20
ATOM     20  O   UNL     1      97.696  98.190  72.542  1.00  0.00    -0.493 OA
ATOM     21  C   UNL     1      98.751  98.925  73.160  1.00  0.00     0.278 C 
ENDBRANCH  17  20
BRANCH  19  22
ATOM     22  O   UNL     1      95.528  96.817  71.474  1.00  0.00    -0.504 OA
ATOM     23  H   UNL     1      94.825  96.161  71.325  1.00  0.00     0.293 HD
ENDBRANCH  19  22
ENDBRANCH  13  14
ENDBRANCH  12  13
ENDBRANCH  10  12
ENDBRANCH   1  10
TORSDOF 12
ENDMDL
MODEL 5
REMARK VINA RESULT:    -5.838     14.496     16.248
REMARK INTER + INTRA:         -10.300
REMARK INTER:                  -9.268
REMARK INTRA:                  -1.032
REMARK UNBOUND:                -0.708
REMARK SMILES CCCCC[C@H](O)CC(=O)CCc1ccc(O)c(OC)c1
REMARK SMILES IDX 8 1 6 2 7 3 5 5 4 6 3 7 2 8 1 9 9 10 10 11 11 12 12 13 13 14
REMARK SMILES IDX 21 15 14 16 18 17 15 18 16 19 19 20 20 21 17 22
REMARK H PARENT 7 4 17 23
REMARK Flexibility Score: inf
ROOT
ATOM      1  C   UNL     1      89.398  80.490  83.819  1.00  0.00     0.107 C 
ENDROOT
BRANCH   1   2
ATOM      2  C   UNL     1      88.117  79.731  84.177  1.00  0.00     0.121 C 
BRANCH   2   3
ATOM      3  O   UNL     1      87.043  80.181  83.353  1.00  0.00    -0.393 OA
ATOM      4  H   UNL     1      87.404  80.824  82.719  1.00  0.00     0.210 HD
ENDBRANCH   2   3
BRANCH   2   5
ATOM      5  C   UNL     1      88.261  78.211  84.034  1.00  0.00     0.032 C 
BRANCH   5   6
ATOM      6  C   UNL     1      89.551  77.691  84.681  1.00  0.00     0.003 C 
BRANCH   6   7
ATOM      7  C   UNL     1      90.060  76.389  84.055  1.00  0.00    -0.000 C 
BRANCH   7   8
ATOM      8  C   UNL     1      91.525  76.447  83.626  1.00  0.00    -0.003 C 
ATOM      9  C   UNL     1      92.165  77.769  84.021  1.00  0.00     0.004 C 
ENDBRANCH   7   8
ENDBRANCH   6   7
ENDBRANCH   5   6
ENDBRANCH   2   5
ENDBRANCH   1   2
BRANCH   1  10
ATOM     10  C   UNL     1      89.562  81.783  84.602  1.00  0.00     0.135 C 
ATOM     11  O   UNL     1      88.644  82.226  85.291  1.00  0.00    -0.300 OA
BRANCH  10  12
ATOM     12  C   UNL     1      90.921  82.461  84.520  1.00  0.00     0.080 C 
BRANCH  12  13
ATOM     13  C   UNL     1      92.099  81.492  84.633  1.00  0.00     0.043 C 
BRANCH  13  14
ATOM     14  C   UNL     1      93.410  82.185  84.921  1.00  0.00    -0.044 A 
ATOM     15  C   UNL     1      94.315  82.425  83.887  1.00  0.00     0.054 A 
ATOM     16  C   UNL     1      93.715  82.586  86.222  1.00  0.00     0.008 A 
ATOM     17  C   UNL     1      95.525  83.066  84.154  1.00  0.00     0.160 A 
ATOM     18  C   UNL     1      94.925  83.228  86.489  1.00  0.00     0.050 A 
ATOM     19  C   UNL     1      95.830  83.467  85.455  1.00  0.00     0.157 A 
BRANCH  17  20
ATOM     20  O   UNL     1      96.401  83.293  83.135  1.00  0.00    -0.493 OA
ATOM     21  C   UNL     1      96.739  82.180  82.310  1.00  0.00     0.278 C 
ENDBRANCH  17  20
BRANCH  19  22
ATOM     22  O   UNL     1      97.008  84.093  85.727  1.00  0.00    -0.504 OA
ATOM     23  H   UNL     1      97.372  83.737  86.556  1.00  0.00     0.293 HD
ENDBRANCH  19  22
ENDBRANCH  13  14
ENDBRANCH  12  13
ENDBRANCH  10  12
ENDBRANCH   1  10
TORSDOF 12
ENDMDL
MODEL 6
REMARK VINA RESULT:    -5.837      2.290      7.593
REMARK INTER + INTRA:         -10.299
REMARK INTER:                  -8.625
REMARK INTRA:                  -1.673
REMARK UNBOUND:                -0.708
REMARK SMILES CCCCC[C@H](O)CC(=O)CCc1ccc(O)c(OC)c1
REMARK SMILES IDX 8 1 6 2 7 3 5 5 4 6 3 7 2 8 1 9 9 10 10 11 11 12 12 13 13 14
REMARK SMILES IDX 21 15 14 16 18 17 15 18 16 19 19 20 20 21 17 22
REMARK H PARENT 7 4 17 23
REMARK Flexibility Score: inf
ROOT
ATOM      1  C   UNL     1      95.479  98.300  79.362  1.00  0.00     0.107 C 
ENDROOT
BRANCH   1   2
ATOM      2  C   UNL     1      96.713  99.170  79.109  1.00  0.00     0.121 C 
BRANCH   2   3
ATOM      3  O   UNL     1      97.895  98.387  79.261  1.00  0.00    -0.393 OA
ATOM      4  H   UNL     1      98.346  98.684  80.071  1.00  0.00     0.210 HD
ENDBRANCH   2   3
BRANCH   2   5
ATOM      5  C   UNL     1      96.714  99.821  77.721  1.00  0.00     0.032 C 
BRANCH   5   6
ATOM      6  C   UNL     1      97.373  98.926  76.664  1.00  0.00     0.003 C 
BRANCH   6   7
ATOM      7  C   UNL     1      96.369  98.077  75.877  1.00  0.00    -0.000 C 
BRANCH   7   8
ATOM      8  C   UNL     1      95.083  98.821  75.523  1.00  0.00    -0.003 C 
ATOM      9  C   UNL     1      94.404  98.209  74.308  1.00  0.00     0.004 C 
ENDBRANCH   7   8
ENDBRANCH   6   7
ENDBRANCH   5   6
ENDBRANCH   2   5
ENDBRANCH   1   2
BRANCH   1  10
ATOM     10  C   UNL     1      95.826  96.877  79.767  1.00  0.00     0.135 C 
ATOM     11  O   UNL     1      96.251  96.625  80.895  1.00  0.00    -0.300 OA
BRANCH  10  12
ATOM     12  C   UNL     1      95.579  95.793  78.729  1.00  0.00     0.080 C 
BRANCH  12  13
ATOM     13  C   UNL     1      94.331  94.952  79.003  1.00  0.00     0.043 C 
BRANCH  13  14
ATOM     14  C   UNL     1      93.440  94.803  77.793  1.00  0.00    -0.044 A 
ATOM     15  C   UNL     1      92.105  94.429  77.950  1.00  0.00     0.054 A 
ATOM     16  C   UNL     1      93.952  95.041  76.517  1.00  0.00     0.008 A 
ATOM     17  C   UNL     1      91.283  94.293  76.832  1.00  0.00     0.160 A 
ATOM     18  C   UNL     1      93.130  94.905  75.398  1.00  0.00     0.050 A 
ATOM     19  C   UNL     1      91.795  94.530  75.556  1.00  0.00     0.157 A 
BRANCH  17  20
ATOM     20  O   UNL     1      89.982  93.925  76.998  1.00  0.00    -0.493 OA
ATOM     21  C   UNL     1      89.714  92.531  77.136  1.00  0.00     0.278 C 
ENDBRANCH  17  20
BRANCH  19  22
ATOM     22  O   UNL     1      91.002  94.400  74.456  1.00  0.00    -0.504 OA
ATOM     23  H   UNL     1      90.935  93.458  74.223  1.00  0.00     0.293 HD
ENDBRANCH  19  22
ENDBRANCH  13  14
ENDBRANCH  12  13
ENDBRANCH  10  12
ENDBRANCH   1  10
TORSDOF 12
ENDMDL
MODEL 7
REMARK VINA RESULT:    -5.742     12.723     15.190
REMARK INTER + INTRA:         -10.143
REMARK INTER:                  -9.201
REMARK INTRA:                  -0.941
REMARK UNBOUND:                -0.708
REMARK SMILES CCCCC[C@H](O)CC(=O)CCc1ccc(O)c(OC)c1
REMARK SMILES IDX 8 1 6 2 7 3 5 5 4 6 3 7 2 8 1 9 9 10 10 11 11 12 12 13 13 14
REMARK SMILES IDX 21 15 14 16 18 17 15 18 16 19 19 20 20 21 17 22
REMARK H PARENT 7 4 17 23
REMARK Flexibility Score: inf
ROOT
ATOM      1  C   UNL     1      97.210  81.396  81.104  1.00  0.00     0.107 C 
ENDROOT
BRANCH   1   2
ATOM      2  C   UNL     1      96.918  81.523  82.601  1.00  0.00     0.121 C 
BRANCH   2   3
ATOM      3  O   UNL     1      98.142  81.560  83.330  1.00  0.00    -0.393 OA
ATOM      4  H   UNL     1      98.000  82.106  84.123  1.00  0.00     0.210 HD
ENDBRANCH   2   3
BRANCH   2   5
ATOM      5  C   UNL     1      96.086  82.764  82.948  1.00  0.00     0.032 C 
BRANCH   5   6
ATOM      6  C   UNL     1      95.430  82.650  84.329  1.00  0.00     0.003 C 
BRANCH   6   7
ATOM      7  C   UNL     1      94.311  81.604  84.385  1.00  0.00    -0.000 C 
BRANCH   7   8
ATOM      8  C   UNL     1      92.908  82.205  84.318  1.00  0.00    -0.003 C 
ATOM      9  C   UNL     1      91.840  81.123  84.371  1.00  0.00     0.004 C 
ENDBRANCH   7   8
ENDBRANCH   6   7
ENDBRANCH   5   6
ENDBRANCH   2   5
ENDBRANCH   1   2
BRANCH   1  10
ATOM     10  C   UNL     1      98.356  82.282  80.643  1.00  0.00     0.135 C 
ATOM     11  O   UNL     1      99.522  82.004  80.922  1.00  0.00    -0.300 OA
BRANCH  10  12
ATOM     12  C   UNL     1      97.987  83.488  79.793  1.00  0.00     0.080 C 
BRANCH  12  13
ATOM     13  C   UNL     1      96.787  83.249  78.874  1.00  0.00     0.043 C 
BRANCH  13  14
ATOM     14  C   UNL     1      97.095  83.505  77.418  1.00  0.00    -0.044 A 
ATOM     15  C   UNL     1      98.045  82.726  76.759  1.00  0.00     0.054 A 
ATOM     16  C   UNL     1      96.429  84.521  76.733  1.00  0.00     0.008 A 
ATOM     17  C   UNL     1      98.329  82.963  75.413  1.00  0.00     0.160 A 
ATOM     18  C   UNL     1      96.712  84.759  75.388  1.00  0.00     0.050 A 
ATOM     19  C   UNL     1      97.663  83.979  74.728  1.00  0.00     0.157 A 
BRANCH  17  20
ATOM     20  O   UNL     1      99.259  82.195  74.780  1.00  0.00    -0.493 OA
ATOM     21  C   UNL     1      99.732  81.043  75.476  1.00  0.00     0.278 C 
ENDBRANCH  17  20
BRANCH  19  22
ATOM     22  O   UNL     1      97.931  84.220  73.415  1.00  0.00    -0.504 OA
ATOM     23  H   UNL     1      97.152  84.632  73.003  1.00  0.00     0.293 HD
ENDBRANCH  19  22
ENDBRANCH  13  14
ENDBRANCH  12  13
ENDBRANCH  10  12
ENDBRANCH   1  10
TORSDOF 12
ENDMDL
MODEL 8
REMARK VINA RESULT:    -5.712     14.023     16.473
REMARK INTER + INTRA:         -10.094
REMARK INTER:                  -8.357
REMARK INTRA:                  -1.737
REMARK UNBOUND:                -0.708
REMARK SMILES CCCCC[C@H](O)CC(=O)CCc1ccc(O)c(OC)c1
REMARK SMILES IDX 8 1 6 2 7 3 5 5 4 6 3 7 2 8 1 9 9 10 10 11 11 12 12 13 13 14
REMARK SMILES IDX 21 15 14 16 18 17 15 18 16 19 19 20 20 21 17 22
REMARK H PARENT 7 4 17 23
REMARK Flexibility Score: inf
ROOT
ATOM      1  C   UNL     1      89.685  79.925  83.776  1.00  0.00     0.107 C 
ENDROOT
BRANCH   1   2
ATOM      2  C   UNL     1      89.473  78.710  84.682  1.00  0.00     0.121 C 
BRANCH   2   3
ATOM      3  O   UNL     1      88.100  78.326  84.663  1.00  0.00    -0.393 OA
ATOM      4  H   UNL     1      87.726  78.516  85.541  1.00  0.00     0.210 HD
ENDBRANCH   2   3
BRANCH   2   5
ATOM      5  C   UNL     1      90.339  77.508  84.286  1.00  0.00     0.032 C 
BRANCH   5   6
ATOM      6  C   UNL     1      91.693  77.938  83.709  1.00  0.00     0.003 C 
BRANCH   6   7
ATOM      7  C   UNL     1      92.728  78.284  84.784  1.00  0.00    -0.000 C 
BRANCH   7   8
ATOM      8  C   UNL     1      94.173  78.090  84.327  1.00  0.00    -0.003 C 
ATOM      9  C   UNL     1      95.016  79.322  84.619  1.00  0.00     0.004 C 
ENDBRANCH   7   8
ENDBRANCH   6   7
ENDBRANCH   5   6
ENDBRANCH   2   5
ENDBRANCH   1   2
BRANCH   1  10
ATOM     10  C   UNL     1      89.296  81.237  84.438  1.00  0.00     0.135 C 
ATOM     11  O   UNL     1      88.170  81.400  84.907  1.00  0.00    -0.300 OA
BRANCH  10  12
ATOM     12  C   UNL     1      90.378  82.303  84.527  1.00  0.00     0.080 C 
BRANCH  12  13
ATOM     13  C   UNL     1      91.790  81.768  84.277  1.00  0.00     0.043 C 
BRANCH  13  14
ATOM     14  C   UNL     1      92.785  82.215  85.321  1.00  0.00    -0.044 A 
ATOM     15  C   UNL     1      93.687  83.239  85.033  1.00  0.00     0.054 A 
ATOM     16  C   UNL     1      92.802  81.603  86.575  1.00  0.00     0.008 A 
ATOM     17  C   UNL     1      94.606  83.651  85.998  1.00  0.00     0.160 A 
ATOM     18  C   UNL     1      93.721  82.015  87.540  1.00  0.00     0.050 A 
ATOM     19  C   UNL     1      94.623  83.039  87.252  1.00  0.00     0.157 A 
BRANCH  17  20
ATOM     20  O   UNL     1      95.482  84.652  85.705  1.00  0.00    -0.493 OA
ATOM     21  C   UNL     1      96.550  84.338  84.813  1.00  0.00     0.278 C 
ENDBRANCH  17  20
BRANCH  19  22
ATOM     22  O   UNL     1      95.515  83.433  88.203  1.00  0.00    -0.504 OA
ATOM     23  H   UNL     1      96.275  83.855  87.768  1.00  0.00     0.293 HD
ENDBRANCH  19  22
ENDBRANCH  13  14
ENDBRANCH  12  13
ENDBRANCH  10  12
ENDBRANCH   1  10
TORSDOF 12
ENDMDL
MODEL 9
REMARK VINA RESULT:    -5.605     13.332     15.509
REMARK INTER + INTRA:          -9.918
REMARK INTER:                  -8.830
REMARK INTRA:                  -1.088
REMARK UNBOUND:                -0.708
REMARK SMILES CCCCC[C@H](O)CC(=O)CCc1ccc(O)c(OC)c1
REMARK SMILES IDX 8 1 6 2 7 3 5 5 4 6 3 7 2 8 1 9 9 10 10 11 11 12 12 13 13 14
REMARK SMILES IDX 21 15 14 16 18 17 15 18 16 19 19 20 20 21 17 22
REMARK H PARENT 7 4 17 23
REMARK Flexibility Score: inf
ROOT
ATOM      1  C   UNL     1      94.826  83.046  85.514  1.00  0.00     0.107 C 
ENDROOT
BRANCH   1   2
ATOM      2  C   UNL     1      93.358  83.162  85.930  1.00  0.00     0.121 C 
BRANCH   2   3
ATOM      3  O   UNL     1      92.653  83.978  84.997  1.00  0.00    -0.393 OA
ATOM      4  H   UNL     1      93.236  84.126  84.232  1.00  0.00     0.210 HD
ENDBRANCH   2   3
BRANCH   2   5
ATOM      5  C   UNL     1      92.657  81.802  86.041  1.00  0.00     0.032 C 
BRANCH   5   6
ATOM      6  C   UNL     1      92.859  80.945  84.786  1.00  0.00     0.003 C 
BRANCH   6   7
ATOM      7  C   UNL     1      91.668  80.033  84.476  1.00  0.00    -0.000 C 
BRANCH   7   8
ATOM      8  C   UNL     1      90.628  80.675  83.559  1.00  0.00    -0.003 C 
ATOM      9  C   UNL     1      89.466  81.248  84.355  1.00  0.00     0.004 C 
ENDBRANCH   7   8
ENDBRANCH   6   7
ENDBRANCH   5   6
ENDBRANCH   2   5
ENDBRANCH   1   2
BRANCH   1  10
ATOM     10  C   UNL     1      95.334  84.274  84.775  1.00  0.00     0.135 C 
ATOM     11  O   UNL     1      95.245  85.395  85.274  1.00  0.00    -0.300 OA
BRANCH  10  12
ATOM     12  C   UNL     1      95.989  84.033  83.423  1.00  0.00     0.080 C 
BRANCH  12  13
ATOM     13  C   UNL     1      96.136  82.553  83.066  1.00  0.00     0.043 C 
BRANCH  13  14
ATOM     14  C   UNL     1      96.710  82.331  81.687  1.00  0.00    -0.044 A 
ATOM     15  C   UNL     1      97.079  81.048  81.282  1.00  0.00     0.054 A 
ATOM     16  C   UNL     1      96.870  83.410  80.817  1.00  0.00     0.008 A 
ATOM     17  C   UNL     1      97.608  80.844  80.008  1.00  0.00     0.160 A 
ATOM     18  C   UNL     1      97.399  83.206  79.542  1.00  0.00     0.050 A 
ATOM     19  C   UNL     1      97.768  81.923  79.138  1.00  0.00     0.157 A 
BRANCH  17  20
ATOM     20  O   UNL     1      97.966  79.587  79.624  1.00  0.00    -0.493 OA
ATOM     21  C   UNL     1      99.206  79.086  80.120  1.00  0.00     0.278 C 
ENDBRANCH  17  20
BRANCH  19  22
ATOM     22  O   UNL     1      98.284  81.737  77.891  1.00  0.00    -0.504 OA
ATOM     23  H   UNL     1      98.791  82.527  77.636  1.00  0.00     0.293 HD
ENDBRANCH  19  22
ENDBRANCH  13  14
ENDBRANCH  12  13
ENDBRANCH  10  12
ENDBRANCH   1  10
TORSDOF 12
ENDMDL
MODEL 10
REMARK VINA RESULT:    -5.531     30.122     33.722
REMARK INTER + INTRA:          -9.796
REMARK INTER:                  -9.000
REMARK INTRA:                  -0.796
REMARK UNBOUND:                -0.708
REMARK SMILES CCCCC[C@H](O)CC(=O)CCc1ccc(O)c(OC)c1
REMARK SMILES IDX 8 1 6 2 7 3 5 5 4 6 3 7 2 8 1 9 9 10 10 11 11 12 12 13 13 14
REMARK SMILES IDX 21 15 14 16 18 17 15 18 16 19 19 20 20 21 17 22
REMARK H PARENT 7 4 17 23
REMARK Flexibility Score: inf
ROOT
ATOM      1  C   UNL     1      80.228  64.797  69.566  1.00  0.00     0.107 C 
ENDROOT
BRANCH   1   2
ATOM      2  C   UNL     1      79.219  63.815  68.966  1.00  0.00     0.121 C 
BRANCH   2   3
ATOM      3  O   UNL     1      78.342  63.340  69.985  1.00  0.00    -0.393 OA
ATOM      4  H   UNL     1      77.855  62.578  69.626  1.00  0.00     0.210 HD
ENDBRANCH   2   3
BRANCH   2   5
ATOM      5  C   UNL     1      78.389  64.425  67.830  1.00  0.00     0.032 C 
BRANCH   5   6
ATOM      6  C   UNL     1      76.886  64.381  68.127  1.00  0.00     0.003 C 
BRANCH   6   7
ATOM      7  C   UNL     1      76.029  64.134  66.881  1.00  0.00    -0.000 C 
BRANCH   7   8
ATOM      8  C   UNL     1      74.572  64.565  67.045  1.00  0.00    -0.003 C 
ATOM      9  C   UNL     1      74.311  65.118  68.438  1.00  0.00     0.004 C 
ENDBRANCH   7   8
ENDBRANCH   6   7
ENDBRANCH   5   6
ENDBRANCH   2   5
ENDBRANCH   1   2
BRANCH   1  10
ATOM     10  C   UNL     1      79.695  65.526  70.789  1.00  0.00     0.135 C 
ATOM     11  O   UNL     1      78.740  66.298  70.699  1.00  0.00    -0.300 OA
BRANCH  10  12
ATOM     12  C   UNL     1      80.369  65.215  72.116  1.00  0.00     0.080 C 
BRANCH  12  13
ATOM     13  C   UNL     1      80.691  66.458  72.948  1.00  0.00     0.043 C 
BRANCH  13  14
ATOM     14  C   UNL     1      82.153  66.565  73.312  1.00  0.00    -0.044 A 
ATOM     15  C   UNL     1      82.776  65.529  74.008  1.00  0.00     0.054 A 
ATOM     16  C   UNL     1      82.880  67.700  72.952  1.00  0.00     0.008 A 
ATOM     17  C   UNL     1      84.127  65.628  74.343  1.00  0.00     0.160 A 
ATOM     18  C   UNL     1      84.230  67.799  73.286  1.00  0.00     0.050 A 
ATOM     19  C   UNL     1      84.854  66.763  73.982  1.00  0.00     0.157 A 
BRANCH  17  20
ATOM     20  O   UNL     1      84.725  64.610  75.023  1.00  0.00    -0.493 OA
ATOM     21  C   UNL     1      85.245  63.531  74.249  1.00  0.00     0.278 C 
ENDBRANCH  17  20
BRANCH  19  22
ATOM     22  O   UNL     1      86.173  66.871  74.304  1.00  0.00    -0.504 OA
ATOM     23  H   UNL     1      86.251  67.184  75.221  1.00  0.00     0.293 HD
ENDBRANCH  19  22
ENDBRANCH  13  14
ENDBRANCH  12  13
ENDBRANCH  10  12
ENDBRANCH   1  10
TORSDOF 12
ENDMDL
