MODEL 1
REMARK VINA RESULT:    -5.772      0.000      0.000
REMARK INTER + INTRA:         -10.326
REMARK INTER:                  -9.315
REMARK INTRA:                  -1.011
REMARK UNBOUND:                -1.011
REMARK SMILES COc1cc(CNC(=O)CCCCCCC(C)C)ccc1O
REMARK SMILES IDX 11 1 10 2 8 3 7 4 9 6 6 7 5 8 3 9 21 10 4 11 20 12 19 13
REMARK SMILES IDX 2 14 1 15 22 16 12 18 13 19 14 20 15 21 16 22 17 23 18 24
REMARK H PARENT 7 5 22 17
REMARK Flexibility Score: inf
ROOT
ATOM      1  C   UNL     1      81.826  66.403  75.583  1.00  0.00     0.010 C 
ENDROOT
BRANCH   1   2
ATOM      2  C   UNL     1      81.983  64.949  76.108  1.00  0.00     0.100 C 
BRANCH   2   3
ATOM      3  C   UNL     1      83.365  64.626  76.528  1.00  0.00     0.220 C 
ATOM      4  N   UNL     1      83.588  63.754  77.554  1.00  0.00    -0.352 N 
ATOM      5  H   UNL     1      82.752  63.408  78.001  1.00  0.00     0.163 HD
ATOM      6  O   UNL     1      84.321  65.149  75.905  1.00  0.00    -0.275 OA
BRANCH   4   7
ATOM      7  C   UNL     1      84.875  63.323  78.007  1.00  0.00     0.151 C 
BRANCH   7   8
ATOM      8  C   UNL     1      85.325  64.019  79.244  1.00  0.00    -0.025 A 
ATOM      9  C   UNL     1      86.465  65.909  80.328  1.00  0.00     0.160 A 
ATOM     10  C   UNL     1      86.149  65.375  81.597  1.00  0.00     0.157 A 
ATOM     11  C   UNL     1      86.068  65.219  79.164  1.00  0.00     0.056 A 
ATOM     12  C   UNL     1      85.444  64.161  81.689  1.00  0.00     0.050 A 
ATOM     13  C   UNL     1      85.025  63.492  80.522  1.00  0.00     0.009 A 
BRANCH   9  14
ATOM     14  O   UNL     1      87.184  67.069  80.227  1.00  0.00    -0.493 OA
ATOM     15  C   UNL     1      88.489  66.893  79.647  1.00  0.00     0.278 C 
ENDBRANCH   9  14
BRANCH  10  16
ATOM     16  O   UNL     1      86.520  66.017  82.735  1.00  0.00    -0.504 OA
ATOM     17  H   UNL     1      87.283  65.576  83.117  1.00  0.00     0.293 HD
ENDBRANCH  10  16
ENDBRANCH   7   8
ENDBRANCH   4   7
ENDBRANCH   2   3
ENDBRANCH   1   2
BRANCH   1  18
ATOM     18  C   UNL     1      80.653  66.538  74.571  1.00  0.00     0.001 C 
BRANCH  18  19
ATOM     19  C   UNL     1      80.216  65.188  73.934  1.00  0.00     0.000 C 
BRANCH  19  20
ATOM     20  C   UNL     1      80.205  65.265  72.382  1.00  0.00     0.000 C 
BRANCH  20  21
ATOM     21  C   UNL     1      80.162  66.712  71.816  1.00  0.00     0.003 C 
BRANCH  21  22
ATOM     22  C   UNL     1      81.409  67.113  70.962  1.00  0.00    -0.017 C 
ATOM     23  C   UNL     1      82.219  65.850  70.556  1.00  0.00     0.007 C 
ATOM     24  C   UNL     1      82.334  68.154  71.658  1.00  0.00     0.007 C 
ENDBRANCH  21  22
ENDBRANCH  20  21
ENDBRANCH  19  20
ENDBRANCH  18  19
ENDBRANCH   1  18
TORSDOF 11
ENDMDL
MODEL 2
REMARK VINA RESULT:    -5.565      2.701      4.260
REMARK INTER + INTRA:          -9.992
REMARK INTER:                  -7.876
REMARK INTRA:                  -2.116
REMARK UNBOUND:                -1.011
REMARK SMILES COc1cc(CNC(=O)CCCCCCC(C)C)ccc1O
REMARK SMILES IDX 11 1 10 2 8 3 7 4 9 6 6 7 5 8 3 9 21 10 4 11 20 12 19 13
REMARK SMILES IDX 2 14 1 15 22 16 12 18 13 19 14 20 15 21 16 22 17 23 18 24
REMARK H PARENT 7 5 22 17
REMARK Flexibility Score: inf
ROOT
ATOM      1  C   UNL     1      80.347  67.079  72.236  1.00  0.00     0.010 C 
ENDROOT
BRANCH   1   2
ATOM      2  C   UNL     1      80.155  65.538  72.290  1.00  0.00     0.100 C 
BRANCH   2   3
ATOM      3  C   UNL     1      80.387  64.966  73.635  1.00  0.00     0.220 C 
ATOM      4  N   UNL     1      80.914  65.737  74.630  1.00  0.00    -0.352 N 
ATOM      5  H   UNL     1      81.159  66.676  74.350  1.00  0.00     0.163 HD
ATOM      6  O   UNL     1      80.066  63.771  73.844  1.00  0.00    -0.275 OA
BRANCH   4   7
ATOM      7  C   UNL     1      81.128  65.311  75.980  1.00  0.00     0.151 C 
BRANCH   7   8
ATOM      8  C   UNL     1      82.522  65.537  76.452  1.00  0.00    -0.025 A 
ATOM      9  C   UNL     1      84.380  67.069  76.948  1.00  0.00     0.160 A 
ATOM     10  C   UNL     1      85.162  65.981  77.393  1.00  0.00     0.157 A 
ATOM     11  C   UNL     1      83.076  66.837  76.465  1.00  0.00     0.056 A 
ATOM     12  C   UNL     1      84.636  64.677  77.349  1.00  0.00     0.050 A 
ATOM     13  C   UNL     1      83.322  64.456  76.893  1.00  0.00     0.009 A 
BRANCH   9  14
ATOM     14  O   UNL     1      84.897  68.336  76.950  1.00  0.00    -0.493 OA
ATOM     15  C   UNL     1      85.525  68.708  75.710  1.00  0.00     0.278 C 
ENDBRANCH   9  14
BRANCH  10  16
ATOM     16  O   UNL     1      86.422  66.174  77.863  1.00  0.00    -0.504 OA
ATOM     17  H   UNL     1      86.520  65.729  78.708  1.00  0.00     0.293 HD
ENDBRANCH  10  16
ENDBRANCH   7   8
ENDBRANCH   4   7
ENDBRANCH   2   3
ENDBRANCH   1   2
BRANCH   1  18
ATOM     18  C   UNL     1      81.045  67.538  70.924  1.00  0.00     0.001 C 
BRANCH  18  19
ATOM     19  C   UNL     1      82.502  68.038  71.131  1.00  0.00     0.000 C 
BRANCH  19  20
ATOM     20  C   UNL     1      82.947  67.905  72.615  1.00  0.00     0.000 C 
BRANCH  20  21
ATOM     21  C   UNL     1      84.097  66.885  72.846  1.00  0.00     0.003 C 
BRANCH  21  22
ATOM     22  C   UNL     1      83.844  65.470  72.231  1.00  0.00    -0.017 C 
ATOM     23  C   UNL     1      84.072  64.364  73.300  1.00  0.00     0.007 C 
ATOM     24  C   UNL     1      84.693  65.180  70.958  1.00  0.00     0.007 C 
ENDBRANCH  21  22
ENDBRANCH  20  21
ENDBRANCH  19  20
ENDBRANCH  18  19
ENDBRANCH   1  18
TORSDOF 11
ENDMDL
MODEL 3
REMARK VINA RESULT:    -5.543     25.922     27.308
REMARK INTER + INTRA:          -9.956
REMARK INTER:                  -9.142
REMARK INTRA:                  -0.814
REMARK UNBOUND:                -1.011
REMARK SMILES COc1cc(CNC(=O)CCCCCCC(C)C)ccc1O
REMARK SMILES IDX 11 1 10 2 8 3 7 4 9 6 6 7 5 8 3 9 21 10 4 11 20 12 19 13
REMARK SMILES IDX 2 14 1 15 22 16 12 18 13 19 14 20 15 21 16 22 17 23 18 24
REMARK H PARENT 7 5 22 17
REMARK Flexibility Score: inf
ROOT
ATOM      1  C   UNL     1      63.780  80.642  73.468  1.00  0.00     0.010 C 
ENDROOT
BRANCH   1   2
ATOM      2  C   UNL     1      62.509  80.993  74.289  1.00  0.00     0.100 C 
BRANCH   2   3
ATOM      3  C   UNL     1      62.686  82.173  75.166  1.00  0.00     0.220 C 
ATOM      4  N   UNL     1      62.434  83.427  74.692  1.00  0.00    -0.352 N 
ATOM      5  H   UNL     1      62.172  83.465  73.718  1.00  0.00     0.163 HD
ATOM      6  O   UNL     1      63.047  81.990  76.354  1.00  0.00    -0.275 OA
BRANCH   4   7
ATOM      7  C   UNL     1      62.514  84.632  75.461  1.00  0.00     0.151 C 
BRANCH   7   8
ATOM      8  C   UNL     1      63.901  85.156  75.588  1.00  0.00    -0.025 A 
ATOM      9  C   UNL     1      65.680  86.165  76.955  1.00  0.00     0.160 A 
ATOM     10  C   UNL     1      66.559  86.115  75.851  1.00  0.00     0.157 A 
ATOM     11  C   UNL     1      64.355  85.703  76.810  1.00  0.00     0.056 A 
ATOM     12  C   UNL     1      66.108  85.609  74.618  1.00  0.00     0.050 A 
ATOM     13  C   UNL     1      64.792  85.123  74.489  1.00  0.00     0.009 A 
BRANCH   9  14
ATOM     14  O   UNL     1      66.097  86.691  78.147  1.00  0.00    -0.493 OA
ATOM     15  C   UNL     1      66.708  85.728  79.024  1.00  0.00     0.278 C 
ENDBRANCH   9  14
BRANCH  10  16
ATOM     16  O   UNL     1      67.840  86.555  75.961  1.00  0.00    -0.504 OA
ATOM     17  H   UNL     1      68.148  86.860  75.104  1.00  0.00     0.293 HD
ENDBRANCH  10  16
ENDBRANCH   7   8
ENDBRANCH   4   7
ENDBRANCH   2   3
ENDBRANCH   1   2
BRANCH   1  18
ATOM     18  C   UNL     1      63.779  81.320  72.068  1.00  0.00     0.001 C 
BRANCH  18  19
ATOM     19  C   UNL     1      62.359  81.514  71.466  1.00  0.00     0.000 C 
BRANCH  19  20
ATOM     20  C   UNL     1      62.398  82.376  70.173  1.00  0.00     0.000 C 
BRANCH  20  21
ATOM     21  C   UNL     1      62.516  81.551  68.861  1.00  0.00     0.003 C 
BRANCH  21  22
ATOM     22  C   UNL     1      62.841  82.398  67.587  1.00  0.00    -0.017 C 
ATOM     23  C   UNL     1      64.103  83.274  67.825  1.00  0.00     0.007 C 
ATOM     24  C   UNL     1      61.651  83.276  67.100  1.00  0.00     0.007 C 
ENDBRANCH  21  22
ENDBRANCH  20  21
ENDBRANCH  19  20
ENDBRANCH  18  19
ENDBRANCH   1  18
TORSDOF 11
ENDMDL
MODEL 4
REMARK VINA RESULT:    -5.526      2.448      4.445
REMARK INTER + INTRA:          -9.929
REMARK INTER:                  -7.853
REMARK INTRA:                  -2.076
REMARK UNBOUND:                -1.011
REMARK SMILES COc1cc(CNC(=O)CCCCCCC(C)C)ccc1O
REMARK SMILES IDX 11 1 10 2 8 3 7 4 9 6 6 7 5 8 3 9 21 10 4 11 20 12 19 13
REMARK SMILES IDX 2 14 1 15 22 16 12 18 13 19 14 20 15 21 16 22 17 23 18 24
REMARK H PARENT 7 5 22 17
REMARK Flexibility Score: inf
ROOT
ATOM      1  C   UNL     1      80.341  67.106  72.031  1.00  0.00     0.010 C 
ENDROOT
BRANCH   1   2
ATOM      2  C   UNL     1      80.199  65.572  72.234  1.00  0.00     0.100 C 
BRANCH   2   3
ATOM      3  C   UNL     1      80.424  65.144  73.633  1.00  0.00     0.220 C 
ATOM      4  N   UNL     1      80.895  66.030  74.558  1.00  0.00    -0.352 N 
ATOM      5  H   UNL     1      81.106  66.947  74.193  1.00  0.00     0.163 HD
ATOM      6  O   UNL     1      80.149  63.961  73.952  1.00  0.00    -0.275 OA
BRANCH   4   7
ATOM      7  C   UNL     1      81.095  65.746  75.946  1.00  0.00     0.151 C 
BRANCH   7   8
ATOM      8  C   UNL     1      82.498  65.969  76.394  1.00  0.00    -0.025 A 
ATOM      9  C   UNL     1      84.675  65.070  77.100  1.00  0.00     0.160 A 
ATOM     10  C   UNL     1      85.185  66.383  77.207  1.00  0.00     0.157 A 
ATOM     11  C   UNL     1      83.333  64.874  76.714  1.00  0.00     0.056 A 
ATOM     12  C   UNL     1      84.352  67.482  76.929  1.00  0.00     0.050 A 
ATOM     13  C   UNL     1      83.021  67.278  76.516  1.00  0.00     0.009 A 
BRANCH   9  14
ATOM     14  O   UNL     1      85.466  63.996  77.406  1.00  0.00    -0.493 OA
ATOM     15  C   UNL     1      85.144  63.380  78.666  1.00  0.00     0.278 C 
ENDBRANCH   9  14
BRANCH  10  16
ATOM     16  O   UNL     1      86.474  66.602  77.578  1.00  0.00    -0.504 OA
ATOM     17  H   UNL     1      86.887  67.206  76.956  1.00  0.00     0.293 HD
ENDBRANCH  10  16
ENDBRANCH   7   8
ENDBRANCH   4   7
ENDBRANCH   2   3
ENDBRANCH   1   2
BRANCH   1  18
ATOM     18  C   UNL     1      81.154  67.456  70.752  1.00  0.00     0.001 C 
BRANCH  18  19
ATOM     19  C   UNL     1      82.416  68.321  71.029  1.00  0.00     0.000 C 
BRANCH  19  20
ATOM     20  C   UNL     1      82.729  68.405  72.550  1.00  0.00     0.000 C 
BRANCH  20  21
ATOM     21  C   UNL     1      83.927  67.525  73.003  1.00  0.00     0.003 C 
BRANCH  21  22
ATOM     22  C   UNL     1      84.139  66.228  72.155  1.00  0.00    -0.017 C 
ATOM     23  C   UNL     1      84.049  64.967  73.059  1.00  0.00     0.007 C 
ATOM     24  C   UNL     1      85.467  66.222  71.342  1.00  0.00     0.007 C 
ENDBRANCH  21  22
ENDBRANCH  20  21
ENDBRANCH  19  20
ENDBRANCH  18  19
ENDBRANCH   1  18
TORSDOF 11
ENDMDL
MODEL 5
REMARK VINA RESULT:    -5.514      6.972     10.550
REMARK INTER + INTRA:          -9.910
REMARK INTER:                  -9.183
REMARK INTRA:                  -0.727
REMARK UNBOUND:                -1.011
REMARK SMILES COc1cc(CNC(=O)CCCCCCC(C)C)ccc1O
REMARK SMILES IDX 11 1 10 2 8 3 7 4 9 6 6 7 5 8 3 9 21 10 4 11 20 12 19 13
REMARK SMILES IDX 2 14 1 15 22 16 12 18 13 19 14 20 15 21 16 22 17 23 18 24
REMARK H PARENT 7 5 22 17
REMARK Flexibility Score: inf
ROOT
ATOM      1  C   UNL     1      83.268  68.485  72.061  1.00  0.00     0.010 C 
ENDROOT
BRANCH   1   2
ATOM      2  C   UNL     1      84.040  69.716  71.513  1.00  0.00     0.100 C 
BRANCH   2   3
ATOM      3  C   UNL     1      85.359  69.371  70.935  1.00  0.00     0.220 C 
ATOM      4  N   UNL     1      86.077  70.306  70.250  1.00  0.00    -0.352 N 
ATOM      5  H   UNL     1      85.616  71.198  70.145  1.00  0.00     0.163 HD
ATOM      6  O   UNL     1      85.807  68.211  71.111  1.00  0.00    -0.275 OA
BRANCH   4   7
ATOM      7  C   UNL     1      87.383  70.104  69.699  1.00  0.00     0.151 C 
BRANCH   7   8
ATOM      8  C   UNL     1      87.885  71.278  68.934  1.00  0.00    -0.025 A 
ATOM      9  C   UNL     1      89.614  72.983  68.543  1.00  0.00     0.160 A 
ATOM     10  C   UNL     1      88.871  73.490  67.454  1.00  0.00     0.157 A 
ATOM     11  C   UNL     1      89.108  71.896  69.285  1.00  0.00     0.056 A 
ATOM     12  C   UNL     1      87.634  72.909  67.120  1.00  0.00     0.050 A 
ATOM     13  C   UNL     1      87.149  71.804  67.847  1.00  0.00     0.009 A 
BRANCH   9  14
ATOM     14  O   UNL     1      90.799  73.566  68.901  1.00  0.00    -0.493 OA
ATOM     15  C   UNL     1      91.198  73.285  70.254  1.00  0.00     0.278 C 
ENDBRANCH   9  14
BRANCH  10  16
ATOM     16  O   UNL     1      89.333  74.537  66.722  1.00  0.00    -0.504 OA
ATOM     17  H   UNL     1      88.627  75.176  66.596  1.00  0.00     0.293 HD
ENDBRANCH  10  16
ENDBRANCH   7   8
ENDBRANCH   4   7
ENDBRANCH   2   3
ENDBRANCH   1   2
BRANCH   1  18
ATOM     18  C   UNL     1      82.072  68.089  71.148  1.00  0.00     0.001 C 
BRANCH  18  19
ATOM     19  C   UNL     1      82.046  66.581  70.769  1.00  0.00     0.000 C 
BRANCH  19  20
ATOM     20  C   UNL     1      80.834  65.850  71.413  1.00  0.00     0.000 C 
BRANCH  20  21
ATOM     21  C   UNL     1      80.191  66.611  72.605  1.00  0.00     0.003 C 
BRANCH  21  22
ATOM     22  C   UNL     1      80.003  65.754  73.899  1.00  0.00    -0.017 C 
ATOM     23  C   UNL     1      80.951  66.254  75.025  1.00  0.00     0.007 C 
ATOM     24  C   UNL     1      80.189  64.225  73.669  1.00  0.00     0.007 C 
ENDBRANCH  21  22
ENDBRANCH  20  21
ENDBRANCH  19  20
ENDBRANCH  18  19
ENDBRANCH   1  18
TORSDOF 11
ENDMDL
MODEL 6
REMARK VINA RESULT:    -5.480     25.465     28.113
REMARK INTER + INTRA:          -9.855
REMARK INTER:                  -8.442
REMARK INTRA:                  -1.413
REMARK UNBOUND:                -1.011
REMARK SMILES COc1cc(CNC(=O)CCCCCCC(C)C)ccc1O
REMARK SMILES IDX 11 1 10 2 8 3 7 4 9 6 6 7 5 8 3 9 21 10 4 11 20 12 19 13
REMARK SMILES IDX 2 14 1 15 22 16 12 18 13 19 14 20 15 21 16 22 17 23 18 24
REMARK H PARENT 7 5 22 17
REMARK Flexibility Score: inf
ROOT
ATOM      1  C   UNL     1      62.529  83.645  72.015  1.00  0.00     0.010 C 
ENDROOT
BRANCH   1   2
ATOM      2  C   UNL     1      61.173  84.341  72.318  1.00  0.00     0.100 C 
BRANCH   2   3
ATOM      3  C   UNL     1      61.144  85.018  73.634  1.00  0.00     0.220 C 
ATOM      4  N   UNL     1      61.664  84.405  74.736  1.00  0.00    -0.352 N 
ATOM      5  H   UNL     1      62.011  83.471  74.574  1.00  0.00     0.163 HD
ATOM      6  O   UNL     1      60.655  86.172  73.706  1.00  0.00    -0.275 OA
BRANCH   4   7
ATOM      7  C   UNL     1      61.743  84.983  76.043  1.00  0.00     0.151 C 
BRANCH   7   8
ATOM      8  C   UNL     1      63.101  85.495  76.377  1.00  0.00    -0.025 A 
ATOM      9  C   UNL     1      64.575  86.844  77.810  1.00  0.00     0.160 A 
ATOM     10  C   UNL     1      65.691  86.441  77.046  1.00  0.00     0.157 A 
ATOM     11  C   UNL     1      63.288  86.384  77.459  1.00  0.00     0.056 A 
ATOM     12  C   UNL     1      65.513  85.588  75.942  1.00  0.00     0.050 A 
ATOM     13  C   UNL     1      64.229  85.109  75.615  1.00  0.00     0.009 A 
BRANCH   9  14
ATOM     14  O   UNL     1      64.733  87.705  78.862  1.00  0.00    -0.493 OA
ATOM     15  C   UNL     1      63.739  87.552  79.892  1.00  0.00     0.278 C 
ENDBRANCH   9  14
BRANCH  10  16
ATOM     16  O   UNL     1      66.942  86.870  77.360  1.00  0.00    -0.504 OA
ATOM     17  H   UNL     1      67.194  87.582  76.767  1.00  0.00     0.293 HD
ENDBRANCH  10  16
ENDBRANCH   7   8
ENDBRANCH   4   7
ENDBRANCH   2   3
ENDBRANCH   1   2
BRANCH   1  18
ATOM     18  C   UNL     1      62.360  82.123  71.747  1.00  0.00     0.001 C 
BRANCH  18  19
ATOM     19  C   UNL     1      61.622  81.364  72.886  1.00  0.00     0.000 C 
BRANCH  19  20
ATOM     20  C   UNL     1      62.623  80.663  73.847  1.00  0.00     0.000 C 
BRANCH  20  21
ATOM     21  C   UNL     1      64.094  80.661  73.346  1.00  0.00     0.003 C 
BRANCH  21  22
ATOM     22  C   UNL     1      65.125  81.265  74.355  1.00  0.00    -0.017 C 
ATOM     23  C   UNL     1      66.406  80.387  74.414  1.00  0.00     0.007 C 
ATOM     24  C   UNL     1      64.547  81.482  75.785  1.00  0.00     0.007 C 
ENDBRANCH  21  22
ENDBRANCH  20  21
ENDBRANCH  19  20
ENDBRANCH  18  19
ENDBRANCH   1  18
TORSDOF 11
ENDMDL
MODEL 7
REMARK VINA RESULT:    -5.345     25.854     27.331
REMARK INTER + INTRA:          -9.638
REMARK INTER:                  -8.116
REMARK INTRA:                  -1.522
REMARK UNBOUND:                -1.011
REMARK SMILES COc1cc(CNC(=O)CCCCCCC(C)C)ccc1O
REMARK SMILES IDX 11 1 10 2 8 3 7 4 9 6 6 7 5 8 3 9 21 10 4 11 20 12 19 13
REMARK SMILES IDX 2 14 1 15 22 16 12 18 13 19 14 20 15 21 16 22 17 23 18 24
REMARK H PARENT 7 5 22 17
REMARK Flexibility Score: inf
ROOT
ATOM      1  C   UNL     1      80.811  86.491  87.224  1.00  0.00     0.010 C 
ENDROOT
BRANCH   1   2
ATOM      2  C   UNL     1      79.736  86.968  88.240  1.00  0.00     0.100 C 
BRANCH   2   3
ATOM      3  C   UNL     1      80.277  87.868  89.284  1.00  0.00     0.220 C 
ATOM      4  N   UNL     1      80.789  89.086  88.945  1.00  0.00    -0.352 N 
ATOM      5  H   UNL     1      80.801  89.277  87.954  1.00  0.00     0.163 HD
ATOM      6  O   UNL     1      80.230  87.497  90.482  1.00  0.00    -0.275 OA
BRANCH   4   7
ATOM      7  C   UNL     1      81.284  90.061  89.869  1.00  0.00     0.151 C 
BRANCH   7   8
ATOM      8  C   UNL     1      81.930  91.225  89.204  1.00  0.00    -0.025 A 
ATOM      9  C   UNL     1      82.267  93.655  89.020  1.00  0.00     0.160 A 
ATOM     10  C   UNL     1      83.190  93.449  87.971  1.00  0.00     0.157 A 
ATOM     11  C   UNL     1      81.631  92.545  89.614  1.00  0.00     0.056 A 
ATOM     12  C   UNL     1      83.467  92.143  87.528  1.00  0.00     0.050 A 
ATOM     13  C   UNL     1      82.850  91.038  88.146  1.00  0.00     0.009 A 
BRANCH   9  14
ATOM     14  O   UNL     1      81.961  94.923  89.432  1.00  0.00    -0.493 OA
ATOM     15  C   UNL     1      82.666  95.334  90.617  1.00  0.00     0.278 C 
ENDBRANCH   9  14
BRANCH  10  16
ATOM     16  O   UNL     1      83.817  94.500  87.379  1.00  0.00    -0.504 OA
ATOM     17  H   UNL     1      83.669  94.466  86.431  1.00  0.00     0.293 HD
ENDBRANCH  10  16
ENDBRANCH   7   8
ENDBRANCH   4   7
ENDBRANCH   2   3
ENDBRANCH   1   2
BRANCH   1  18
ATOM     18  C   UNL     1      80.177  85.834  85.965  1.00  0.00     0.001 C 
BRANCH  18  19
ATOM     19  C   UNL     1      80.938  86.146  84.645  1.00  0.00     0.000 C 
BRANCH  19  20
ATOM     20  C   UNL     1      80.106  87.067  83.709  1.00  0.00     0.000 C 
BRANCH  20  21
ATOM     21  C   UNL     1      80.711  88.484  83.508  1.00  0.00     0.003 C 
BRANCH  21  22
ATOM     22  C   UNL     1      81.218  89.167  84.821  1.00  0.00    -0.017 C 
ATOM     23  C   UNL     1      80.094  90.038  85.450  1.00  0.00     0.007 C 
ATOM     24  C   UNL     1      82.515  90.006  84.628  1.00  0.00     0.007 C 
ENDBRANCH  21  22
ENDBRANCH  20  21
ENDBRANCH  19  20
ENDBRANCH  18  19
ENDBRANCH   1  18
TORSDOF 11
ENDMDL
MODEL 8
REMARK VINA RESULT:    -5.305     21.463     24.234
REMARK INTER + INTRA:          -9.572
REMARK INTER:                  -8.919
REMARK INTRA:                  -0.653
REMARK UNBOUND:                -1.011
REMARK SMILES COc1cc(CNC(=O)CCCCCCC(C)C)ccc1O
REMARK SMILES IDX 11 1 10 2 8 3 7 4 9 6 6 7 5 8 3 9 21 10 4 11 20 12 19 13
REMARK SMILES IDX 2 14 1 15 22 16 12 18 13 19 14 20 15 21 16 22 17 23 18 24
REMARK H PARENT 7 5 22 17
REMARK Flexibility Score: inf
ROOT
ATOM      1  C   UNL     1      98.440  82.444  83.433  1.00  0.00     0.010 C 
ENDROOT
BRANCH   1   2
ATOM      2  C   UNL     1      98.132  83.368  84.644  1.00  0.00     0.100 C 
BRANCH   2   3
ATOM      3  C   UNL     1      96.698  83.712  84.768  1.00  0.00     0.220 C 
ATOM      4  N   UNL     1      96.301  85.017  84.789  1.00  0.00    -0.352 N 
ATOM      5  H   UNL     1      97.056  85.687  84.758  1.00  0.00     0.163 HD
ATOM      6  O   UNL     1      95.859  82.780  84.830  1.00  0.00    -0.275 OA
BRANCH   4   7
ATOM      7  C   UNL     1      94.944  85.467  84.847  1.00  0.00     0.151 C 
BRANCH   7   8
ATOM      8  C   UNL     1      94.507  85.838  86.221  1.00  0.00    -0.025 A 
ATOM      9  C   UNL     1      94.739  87.251  88.220  1.00  0.00     0.160 A 
ATOM     10  C   UNL     1      93.652  86.581  88.823  1.00  0.00     0.157 A 
ATOM     11  C   UNL     1      95.169  86.863  86.934  1.00  0.00     0.056 A 
ATOM     12  C   UNL     1      93.009  85.533  88.139  1.00  0.00     0.050 A 
ATOM     13  C   UNL     1      93.426  85.171  86.843  1.00  0.00     0.009 A 
BRANCH   9  14
ATOM     14  O   UNL     1      95.396  88.246  88.893  1.00  0.00    -0.493 OA
ATOM     15  C   UNL     1      95.050  89.571  88.451  1.00  0.00     0.278 C 
ENDBRANCH   9  14
BRANCH  10  16
ATOM     16  O   UNL     1      93.217  86.933  90.061  1.00  0.00    -0.504 OA
ATOM     17  H   UNL     1      92.754  87.773  90.010  1.00  0.00     0.293 HD
ENDBRANCH  10  16
ENDBRANCH   7   8
ENDBRANCH   4   7
ENDBRANCH   2   3
ENDBRANCH   1   2
BRANCH   1  18
ATOM     18  C   UNL     1      97.968  83.064  82.087  1.00  0.00     0.001 C 
BRANCH  18  19
ATOM     19  C   UNL     1      97.079  82.114  81.237  1.00  0.00     0.000 C 
BRANCH  19  20
ATOM     20  C   UNL     1      97.521  82.098  79.746  1.00  0.00     0.000 C 
BRANCH  20  21
ATOM     21  C   UNL     1      96.373  82.382  78.739  1.00  0.00     0.003 C 
BRANCH  21  22
ATOM     22  C   UNL     1      96.788  82.280  77.234  1.00  0.00    -0.017 C 
ATOM     23  C   UNL     1      97.505  80.929  76.959  1.00  0.00     0.007 C 
ATOM     24  C   UNL     1      97.663  83.471  76.745  1.00  0.00     0.007 C 
ENDBRANCH  21  22
ENDBRANCH  20  21
ENDBRANCH  19  20
ENDBRANCH  18  19
ENDBRANCH   1  18
TORSDOF 11
ENDMDL
MODEL 9
REMARK VINA RESULT:    -5.225      3.183      5.410
REMARK INTER + INTRA:          -9.443
REMARK INTER:                  -7.181
REMARK INTRA:                  -2.262
REMARK UNBOUND:                -1.011
REMARK SMILES COc1cc(CNC(=O)CCCCCCC(C)C)ccc1O
REMARK SMILES IDX 11 1 10 2 8 3 7 4 9 6 6 7 5 8 3 9 21 10 4 11 20 12 19 13
REMARK SMILES IDX 2 14 1 15 22 16 12 18 13 19 14 20 15 21 16 22 17 23 18 24
REMARK H PARENT 7 5 22 17
REMARK Flexibility Score: inf
ROOT
ATOM      1  C   UNL     1      80.849  65.843  70.527  1.00  0.00     0.010 C 
ENDROOT
BRANCH   1   2
ATOM      2  C   UNL     1      80.195  67.063  71.232  1.00  0.00     0.100 C 
BRANCH   2   3
ATOM      3  C   UNL     1      80.551  67.170  72.665  1.00  0.00     0.220 C 
ATOM      4  N   UNL     1      80.202  66.180  73.537  1.00  0.00    -0.352 N 
ATOM      5  H   UNL     1      79.665  65.430  73.129  1.00  0.00     0.163 HD
ATOM      6  O   UNL     1      81.197  68.175  73.051  1.00  0.00    -0.275 OA
BRANCH   4   7
ATOM      7  C   UNL     1      80.541  66.147  74.928  1.00  0.00     0.151 C 
BRANCH   7   8
ATOM      8  C   UNL     1      81.750  65.327  75.218  1.00  0.00    -0.025 A 
ATOM      9  C   UNL     1      83.835  64.979  76.475  1.00  0.00     0.160 A 
ATOM     10  C   UNL     1      84.033  63.750  75.808  1.00  0.00     0.157 A 
ATOM     11  C   UNL     1      82.707  65.766  76.161  1.00  0.00     0.056 A 
ATOM     12  C   UNL     1      83.108  63.321  74.839  1.00  0.00     0.050 A 
ATOM     13  C   UNL     1      81.969  64.098  74.552  1.00  0.00     0.009 A 
BRANCH   9  14
ATOM     14  O   UNL     1      84.749  65.423  77.391  1.00  0.00    -0.493 OA
ATOM     15  C   UNL     1      85.120  66.803  77.216  1.00  0.00     0.278 C 
ENDBRANCH   9  14
BRANCH  10  16
ATOM     16  O   UNL     1      85.112  62.972  76.089  1.00  0.00    -0.504 OA
ATOM     17  H   UNL     1      84.836  62.226  76.628  1.00  0.00     0.293 HD
ENDBRANCH  10  16
ENDBRANCH   7   8
ENDBRANCH   4   7
ENDBRANCH   2   3
ENDBRANCH   1   2
BRANCH   1  18
ATOM     18  C   UNL     1      82.330  65.640  70.957  1.00  0.00     0.001 C 
BRANCH  18  19
ATOM     19  C   UNL     1      83.311  66.670  70.331  1.00  0.00     0.000 C 
BRANCH  19  20
ATOM     20  C   UNL     1      84.254  67.287  71.402  1.00  0.00     0.000 C 
BRANCH  20  21
ATOM     21  C   UNL     1      84.232  66.551  72.770  1.00  0.00     0.003 C 
BRANCH  21  22
ATOM     22  C   UNL     1      85.581  65.864  73.162  1.00  0.00    -0.017 C 
ATOM     23  C   UNL     1      86.783  66.784  72.805  1.00  0.00     0.007 C 
ATOM     24  C   UNL     1      85.770  64.452  72.533  1.00  0.00     0.007 C 
ENDBRANCH  21  22
ENDBRANCH  20  21
ENDBRANCH  19  20
ENDBRANCH  18  19
ENDBRANCH   1  18
TORSDOF 11
ENDMDL
MODEL 10
REMARK VINA RESULT:    -5.149     25.043     26.525
REMARK INTER + INTRA:          -9.321
REMARK INTER:                  -7.834
REMARK INTRA:                  -1.487
REMARK UNBOUND:                -1.011
REMARK SMILES COc1cc(CNC(=O)CCCCCCC(C)C)ccc1O
REMARK SMILES IDX 11 1 10 2 8 3 7 4 9 6 6 7 5 8 3 9 21 10 4 11 20 12 19 13
REMARK SMILES IDX 2 14 1 15 22 16 12 18 13 19 14 20 15 21 16 22 17 23 18 24
REMARK H PARENT 7 5 22 17
REMARK Flexibility Score: inf
ROOT
ATOM      1  C   UNL     1      80.803  86.570  84.277  1.00  0.00     0.010 C 
ENDROOT
BRANCH   1   2
ATOM      2  C   UNL     1      80.347  85.801  85.548  1.00  0.00     0.100 C 
BRANCH   2   3
ATOM      3  C   UNL     1      80.839  86.405  86.806  1.00  0.00     0.220 C 
ATOM      4  N   UNL     1      80.000  86.562  87.870  1.00  0.00    -0.352 N 
ATOM      5  H   UNL     1      79.046  86.280  87.699  1.00  0.00     0.163 HD
ATOM      6  O   UNL     1      82.046  86.744  86.879  1.00  0.00    -0.275 OA
BRANCH   4   7
ATOM      7  C   UNL     1      80.377  87.078  89.151  1.00  0.00     0.151 C 
BRANCH   7   8
ATOM      8  C   UNL     1      80.035  88.516  89.328  1.00  0.00    -0.025 A 
ATOM      9  C   UNL     1      78.491  90.256  90.127  1.00  0.00     0.160 A 
ATOM     10  C   UNL     1      79.397  91.255  89.709  1.00  0.00     0.157 A 
ATOM     11  C   UNL     1      78.808  88.897  89.917  1.00  0.00     0.056 A 
ATOM     12  C   UNL     1      80.604  90.890  89.086  1.00  0.00     0.050 A 
ATOM     13  C   UNL     1      80.927  89.531  88.905  1.00  0.00     0.009 A 
BRANCH   9  14
ATOM     14  O   UNL     1      77.297  90.601  90.699  1.00  0.00    -0.493 OA
ATOM     15  C   UNL     1      77.232  90.337  92.112  1.00  0.00     0.278 C 
ENDBRANCH   9  14
BRANCH  10  16
ATOM     16  O   UNL     1      79.117  92.572  89.897  1.00  0.00    -0.504 OA
ATOM     17  H   UNL     1      78.283  92.657  90.366  1.00  0.00     0.293 HD
ENDBRANCH  10  16
ENDBRANCH   7   8
ENDBRANCH   4   7
ENDBRANCH   2   3
ENDBRANCH   1   2
BRANCH   1  18
ATOM     18  C   UNL     1      79.773  87.651  83.844  1.00  0.00     0.001 C 
BRANCH  18  19
ATOM     19  C   UNL     1      80.027  89.049  84.476  1.00  0.00     0.000 C 
BRANCH  19  20
ATOM     20  C   UNL     1      81.512  89.482  84.327  1.00  0.00     0.000 C 
BRANCH  20  21
ATOM     21  C   UNL     1      82.162  89.992  85.643  1.00  0.00     0.003 C 
BRANCH  21  22
ATOM     22  C   UNL     1      83.726  89.960  85.651  1.00  0.00    -0.017 C 
ATOM     23  C   UNL     1      84.262  89.978  87.110  1.00  0.00     0.007 C 
ATOM     24  C   UNL     1      84.380  91.100  84.816  1.00  0.00     0.007 C 
ENDBRANCH  21  22
ENDBRANCH  20  21
ENDBRANCH  19  20
ENDBRANCH  18  19
ENDBRANCH   1  18
TORSDOF 11
ENDMDL
