MODEL 1
REMARK VINA RESULT:    -6.645      0.000      0.000
REMARK INTER + INTRA:         -13.763
REMARK INTER:                 -11.695
REMARK INTRA:                  -2.068
REMARK UNBOUND:                -2.068
REMARK SMILES C=C(C)[C@]12C[C@@H](C)[C@@]34O[C@](Cc5ccccc5)(O[C@@H]1[C@@H]3C=C(COC(=O)Cc1ccc(O)c(OC)c1)C[C@]1(O)C(=O)C(C)=C[C@@H]41)O2
REMARK SMILES IDX 23 1 22 2 21 3 20 4 9 5 8 6 10 7 6 8 18 9 46 10 19 11 5 12
REMARK SMILES IDX 7 13 4 14 45 15 38 16 44 17 40 18 42 20 41 21 43 22 39 23
REMARK SMILES IDX 11 25 12 26 13 27 17 28 14 29 16 30 15 31 2 32 3 33 1 34
REMARK SMILES IDX 37 35 24 37 25 38 26 39 27 40 28 41 36 42 29 43 33 44 30 45
REMARK SMILES IDX 31 46 34 47 35 48 32 49
REMARK H PARENT 39 24 32 50
REMARK Flexibility Score: 90.00
ROOT
ATOM      1  C   UNL     1      67.113  88.173  72.693  1.00  0.00     0.264 C 
ENDROOT
BRANCH   1   2
ATOM      2  C   UNL     1      66.950  86.714  72.336  1.00  0.00    -0.033 C 
ATOM      3  C   UNL     1      65.738  86.136  72.460  1.00  0.00    -0.015 C 
BRANCH   3   4
ATOM      4  C   UNL     1      65.334  84.687  72.242  1.00  0.00     0.078 C 
ATOM      5  O   UNL     1      64.591  84.491  69.891  1.00  0.00    -0.319 OA
ATOM      6  C   UNL     1      65.609  84.036  70.836  1.00  0.00     0.095 C 
ATOM      7  C   UNL     1      63.245  84.521  70.402  1.00  0.00     0.289 C 
ATOM      8  C   UNL     1      65.500  82.464  71.005  1.00  0.00     0.023 C 
ATOM      9  O   UNL     1      63.150  85.348  71.560  1.00  0.00    -0.320 OA
ATOM     10  O   UNL     1      62.792  83.233  70.811  1.00  0.00    -0.313 OA
ATOM     11  C   UNL     1      63.820  84.516  72.519  1.00  0.00     0.170 C 
ATOM     12  C   UNL     1      64.439  82.077  72.081  1.00  0.00     0.049 C 
ATOM     13  C   UNL     1      65.226  81.678  69.712  1.00  0.00     0.011 C 
ATOM     14  C   UNL     1      63.306  83.101  72.152  1.00  0.00     0.122 C 
BRANCH   6  15
ATOM     15  C   UNL     1      66.950  84.553  70.240  1.00  0.00     0.086 C 
ATOM     16  C   UNL     1      68.132  84.666  71.225  1.00  0.00     0.140 CG0
ATOM     17  C   UNL     1      67.549  83.850  69.055  1.00  0.00    -0.010 C 
ATOM     18  C   UNL     1      69.319  84.322  70.351  1.00  0.00     0.190 C 
ATOM     19  G   UNL     1      68.241  86.062  71.838  1.00  0.00     0.000 G0
ATOM     20  C   UNL     1      68.881  83.729  69.073  1.00  0.00    -0.008 C 
ATOM     21  O   UNL     1      70.492  84.461  70.663  1.00  0.00    -0.291 OA
ATOM     22  C   UNL     1      69.801  83.179  68.057  1.00  0.00     0.048 C 
BRANCH  16  23
ATOM     23  O   UNL     1      68.145  83.660  72.224  1.00  0.00    -0.381 OA
ATOM     24  H   UNL     1      67.900  82.815  71.812  1.00  0.00     0.212 HD
ENDBRANCH  16  23
ENDBRANCH   6  15
BRANCH   7  25
ATOM     25  C   UNL     1      62.335  85.056  69.315  1.00  0.00     0.135 C 
BRANCH  25  26
ATOM     26  C   UNL     1      60.956  85.374  69.837  1.00  0.00    -0.040 A 
ATOM     27  C   UNL     1      59.972  84.385  69.856  1.00  0.00     0.004 A 
ATOM     28  C   UNL     1      60.665  86.656  70.303  1.00  0.00     0.004 A 
ATOM     29  C   UNL     1      58.697  84.679  70.339  1.00  0.00     0.000 A 
ATOM     30  C   UNL     1      59.389  86.949  70.787  1.00  0.00     0.000 A 
ATOM     31  C   UNL     1      58.406  85.960  70.804  1.00  0.00     0.000 A 
ENDBRANCH  25  26
ENDBRANCH   7  25
BRANCH  14  32
ATOM     32  C   UNL     1      62.190  82.661  73.043  1.00  0.00    -0.046 C 
ATOM     33  C   UNL     1      62.375  81.344  73.735  1.00  0.00     0.042 C 
ATOM     34  C   UNL     1      61.084  83.402  73.213  1.00  0.00     0.010 C 
ENDBRANCH  14  32
ENDBRANCH   3   4
BRANCH   2  35
ATOM     35  C   UNL     1      68.238  86.072  71.855  1.00  0.00     0.078 CG0
ATOM     36  G   UNL     1      68.134  84.685  71.223  1.00  0.00     0.000 G0
ENDBRANCH   2  35
ENDBRANCH   1   2
BRANCH   1  37
ATOM     37  O   UNL     1      65.903  88.659  73.235  1.00  0.00    -0.461 OA
BRANCH  37  38
ATOM     38  C   UNL     1      65.728  88.482  74.587  1.00  0.00     0.310 C 
ATOM     39  O   UNL     1      66.630  88.310  75.396  1.00  0.00    -0.252 OA
BRANCH  38  40
ATOM     40  C   UNL     1      64.255  88.534  74.917  1.00  0.00     0.158 C 
BRANCH  40  41
ATOM     41  C   UNL     1      63.707  87.205  75.369  1.00  0.00    -0.033 A 
ATOM     42  C   UNL     1      64.576  86.206  75.811  1.00  0.00     0.054 A 
ATOM     43  C   UNL     1      62.332  86.973  75.348  1.00  0.00     0.008 A 
ATOM     44  C   UNL     1      64.069  84.976  76.230  1.00  0.00     0.160 A 
ATOM     45  C   UNL     1      61.825  85.743  75.767  1.00  0.00     0.050 A 
ATOM     46  C   UNL     1      62.692  84.744  76.207  1.00  0.00     0.157 A 
BRANCH  44  47
ATOM     47  O   UNL     1      64.927  84.008  76.658  1.00  0.00    -0.493 OA
ATOM     48  C   UNL     1      65.598  84.239  77.896  1.00  0.00     0.278 C 
ENDBRANCH  44  47
BRANCH  46  49
ATOM     49  O   UNL     1      62.186  83.548  76.615  1.00  0.00    -0.504 OA
ATOM     50  H   UNL     1      62.729  83.206  77.345  1.00  0.00     0.293 HD
ENDBRANCH  46  49
ENDBRANCH  40  41
ENDBRANCH  38  40
ENDBRANCH  37  38
ENDBRANCH   1  37
TORSDOF 11
ENDMDL
MODEL 2
REMARK VINA RESULT:    -6.379     31.764     35.615
REMARK INTER + INTRA:         -13.295
REMARK INTER:                 -12.555
REMARK INTRA:                  -0.741
REMARK UNBOUND:                -2.068
REMARK SMILES C=C(C)[C@]12C[C@@H](C)[C@@]34O[C@](Cc5ccccc5)(O[C@@H]1[C@@H]3C=C(COC(=O)Cc1ccc(O)c(OC)c1)C[C@]1(O)C(=O)C(C)=C[C@@H]41)O2
REMARK SMILES IDX 23 1 22 2 21 3 20 4 9 5 8 6 10 7 6 8 18 9 46 10 19 11 5 12
REMARK SMILES IDX 7 13 4 14 45 15 38 16 44 17 40 18 42 20 41 21 43 22 39 23
REMARK SMILES IDX 11 25 12 26 13 27 17 28 14 29 16 30 15 31 2 32 3 33 1 34
REMARK SMILES IDX 37 35 24 37 25 38 26 39 27 40 28 41 36 42 29 43 33 44 30 45
REMARK SMILES IDX 31 46 34 47 35 48 32 49
REMARK H PARENT 39 24 32 50
REMARK Flexibility Score: 90.00
ROOT
ATOM      1  C   UNL     1      98.055  82.069  83.557  1.00  0.00     0.264 C 
ENDROOT
BRANCH   1   2
ATOM      2  C   UNL     1      97.755  82.582  84.946  1.00  0.00    -0.033 C 
ATOM      3  C   UNL     1      96.506  82.463  85.438  1.00  0.00    -0.015 C 
BRANCH   3   4
ATOM      4  C   UNL     1      95.936  82.961  86.756  1.00  0.00     0.078 C 
ATOM      5  O   UNL     1      96.146  81.105  88.378  1.00  0.00    -0.319 OA
ATOM      6  C   UNL     1      96.601  82.464  88.094  1.00  0.00     0.095 C 
ATOM      7  C   UNL     1      94.743  80.866  88.158  1.00  0.00     0.289 C 
ATOM      8  C   UNL     1      96.121  83.430  89.256  1.00  0.00     0.023 C 
ATOM      9  O   UNL     1      94.372  81.165  86.815  1.00  0.00    -0.320 OA
ATOM     10  O   UNL     1      93.918  81.690  88.978  1.00  0.00    -0.313 OA
ATOM     11  C   UNL     1      94.433  82.600  86.850  1.00  0.00     0.170 C 
ATOM     12  C   UNL     1      94.671  83.947  89.007  1.00  0.00     0.049 C 
ATOM     13  C   UNL     1      96.222  82.853  90.677  1.00  0.00     0.011 C 
ATOM     14  C   UNL     1      93.830  82.926  88.239  1.00  0.00     0.122 C 
BRANCH   6  15
ATOM     15  C   UNL     1      98.142  82.331  87.929  1.00  0.00     0.086 C 
ATOM     16  C   UNL     1      98.845  83.473  87.165  1.00  0.00     0.140 CG0
ATOM     17  C   UNL     1      99.001  82.145  89.148  1.00  0.00    -0.010 C 
ATOM     18  C   UNL     1     100.183  83.559  87.868  1.00  0.00     0.190 C 
ATOM     19  G   UNL     1      98.986  83.170  85.675  1.00  0.00     0.000 G0
ATOM     20  C   UNL     1     100.166  82.800  89.133  1.00  0.00    -0.008 C 
ATOM     21  O   UNL     1     101.145  84.207  87.483  1.00  0.00    -0.291 OA
ATOM     22  C   UNL     1     101.278  82.787  90.105  1.00  0.00     0.048 C 
BRANCH  16  23
ATOM     23  O   UNL     1      98.266  84.749  87.382  1.00  0.00    -0.381 OA
ATOM     24  H   UNL     1      98.581  85.089  88.236  1.00  0.00     0.212 HD
ENDBRANCH  16  23
ENDBRANCH   6  15
BRANCH   7  25
ATOM     25  C   UNL     1      94.456  79.408  88.456  1.00  0.00     0.135 C 
BRANCH  25  26
ATOM     26  C   UNL     1      93.498  78.805  87.458  1.00  0.00    -0.040 A 
ATOM     27  C   UNL     1      92.138  79.108  87.528  1.00  0.00     0.004 A 
ATOM     28  C   UNL     1      93.971  77.947  86.467  1.00  0.00     0.004 A 
ATOM     29  C   UNL     1      91.251  78.551  86.606  1.00  0.00     0.000 A 
ATOM     30  C   UNL     1      93.085  77.390  85.544  1.00  0.00     0.000 A 
ATOM     31  C   UNL     1      91.725  77.692  85.615  1.00  0.00     0.000 A 
ENDBRANCH  25  26
ENDBRANCH   7  25
BRANCH  14  32
ATOM     32  C   UNL     1      92.392  83.319  88.149  1.00  0.00    -0.046 C 
ATOM     33  C   UNL     1      91.544  82.516  87.208  1.00  0.00     0.042 C 
ATOM     34  C   UNL     1      91.886  84.332  88.868  1.00  0.00     0.010 C 
ENDBRANCH  14  32
ENDBRANCH   3   4
BRANCH   2  35
ATOM     35  C   UNL     1      98.967  83.184  85.632  1.00  0.00     0.078 CG0
ATOM     36  G   UNL     1      98.853  83.470  87.129  1.00  0.00     0.000 G0
ENDBRANCH   2  35
ENDBRANCH   1   2
BRANCH   1  37
ATOM     37  O   UNL     1      99.313  82.554  83.141  1.00  0.00    -0.461 OA
BRANCH  37  38
ATOM     38  C   UNL     1      99.923  81.866  82.118  1.00  0.00     0.310 C 
ATOM     39  O   UNL     1     101.128  81.684  82.014  1.00  0.00    -0.252 OA
BRANCH  38  40
ATOM     40  C   UNL     1      98.876  81.373  81.148  1.00  0.00     0.158 C 
BRANCH  40  41
ATOM     41  C   UNL     1      98.736  82.255  79.934  1.00  0.00    -0.033 A 
ATOM     42  C   UNL     1      99.652  82.151  78.887  1.00  0.00     0.054 A 
ATOM     43  C   UNL     1      97.691  83.176  79.858  1.00  0.00     0.008 A 
ATOM     44  C   UNL     1      99.523  82.968  77.764  1.00  0.00     0.160 A 
ATOM     45  C   UNL     1      97.562  83.993  78.734  1.00  0.00     0.050 A 
ATOM     46  C   UNL     1      98.478  83.890  77.688  1.00  0.00     0.157 A 
BRANCH  44  47
ATOM     47  O   UNL     1     100.424  82.858  76.748  1.00  0.00    -0.493 OA
ATOM     48  C   UNL     1     101.631  83.610  76.867  1.00  0.00     0.278 C 
ENDBRANCH  44  47
BRANCH  46  49
ATOM     49  O   UNL     1      98.341  84.692  76.596  1.00  0.00    -0.504 OA
ATOM     50  H   UNL     1      97.619  84.351  76.041  1.00  0.00     0.293 HD
ENDBRANCH  46  49
ENDBRANCH  40  41
ENDBRANCH  38  40
ENDBRANCH  37  38
ENDBRANCH   1  37
TORSDOF 11
ENDMDL
MODEL 3
REMARK VINA RESULT:    -6.123     28.800     32.997
REMARK INTER + INTRA:         -12.844
REMARK INTER:                 -11.670
REMARK INTRA:                  -1.173
REMARK UNBOUND:                -2.068
REMARK SMILES C=C(C)[C@]12C[C@@H](C)[C@@]34O[C@](Cc5ccccc5)(O[C@@H]1[C@@H]3C=C(COC(=O)Cc1ccc(O)c(OC)c1)C[C@]1(O)C(=O)C(C)=C[C@@H]41)O2
REMARK SMILES IDX 23 1 22 2 21 3 20 4 9 5 8 6 10 7 6 8 18 9 46 10 19 11 5 12
REMARK SMILES IDX 7 13 4 14 45 15 38 16 44 17 40 18 42 20 41 21 43 22 39 23
REMARK SMILES IDX 11 25 12 26 13 27 17 28 14 29 16 30 15 31 2 32 3 33 1 34
REMARK SMILES IDX 37 35 24 37 25 38 26 39 27 40 28 41 36 42 29 43 33 44 30 45
REMARK SMILES IDX 31 46 34 47 35 48 32 49
REMARK H PARENT 39 24 32 50
REMARK Flexibility Score: 90.00
ROOT
ATOM      1  C   UNL     1      91.499 101.570  73.066  1.00  0.00     0.264 C 
ENDROOT
BRANCH   1   2
ATOM      2  C   UNL     1      92.978 101.270  73.136  1.00  0.00    -0.033 C 
ATOM      3  C   UNL     1      93.479 100.675  74.237  1.00  0.00    -0.015 C 
BRANCH   3   4
ATOM      4  C   UNL     1      94.921 100.342  74.582  1.00  0.00     0.078 C 
ATOM      5  O   UNL     1      95.330  98.028  73.809  1.00  0.00    -0.319 OA
ATOM      6  C   UNL     1      95.731  99.417  73.599  1.00  0.00     0.095 C 
ATOM      7  C   UNL     1      95.179  97.631  75.186  1.00  0.00     0.289 C 
ATOM      8  C   UNL     1      97.269  99.576  73.948  1.00  0.00     0.023 C 
ATOM      9  O   UNL     1      94.230  98.453  75.860  1.00  0.00    -0.320 OA
ATOM     10  O   UNL     1      96.392  97.760  75.922  1.00  0.00    -0.313 OA
ATOM     11  C   UNL     1      94.986  99.668  75.975  1.00  0.00     0.170 C 
ATOM     12  C   UNL     1      97.486  99.825  75.473  1.00  0.00     0.049 C 
ATOM     13  C   UNL     1      98.173  98.422  73.485  1.00  0.00     0.011 C 
ATOM     14  C   UNL     1      96.405  99.148  76.316  1.00  0.00     0.122 C 
BRANCH   6  15
ATOM     15  C   UNL     1      95.347  99.713  72.121  1.00  0.00     0.086 C 
ATOM     16  C   UNL     1      95.191 101.200  71.743  1.00  0.00     0.140 CG0
ATOM     17  C   UNL     1      96.200  99.159  71.013  1.00  0.00    -0.010 C 
ATOM     18  C   UNL     1      95.684 101.227  70.312  1.00  0.00     0.190 C 
ATOM     19  G   UNL     1      93.746 101.680  71.874  1.00  0.00     0.000 G0
ATOM     20  C   UNL     1      96.385  99.975  69.971  1.00  0.00    -0.008 C 
ATOM     21  O   UNL     1      95.572 102.169  69.542  1.00  0.00    -0.291 OA
ATOM     22  C   UNL     1      97.084  99.740  68.690  1.00  0.00     0.048 C 
BRANCH  16  23
ATOM     23  O   UNL     1      96.086 102.063  72.426  1.00  0.00    -0.381 OA
ATOM     24  H   UNL     1      96.094 102.920  71.970  1.00  0.00     0.212 HD
ENDBRANCH  16  23
ENDBRANCH   6  15
BRANCH   7  25
ATOM     25  C   UNL     1      94.719  96.187  75.217  1.00  0.00     0.135 C 
BRANCH  25  26
ATOM     26  C   UNL     1      94.038  95.839  76.517  1.00  0.00    -0.040 A 
ATOM     27  C   UNL     1      94.779  95.777  77.698  1.00  0.00     0.004 A 
ATOM     28  C   UNL     1      92.668  95.581  76.540  1.00  0.00     0.004 A 
ATOM     29  C   UNL     1      94.149  95.455  78.900  1.00  0.00     0.000 A 
ATOM     30  C   UNL     1      92.038  95.259  77.742  1.00  0.00     0.000 A 
ATOM     31  C   UNL     1      92.779  95.196  78.922  1.00  0.00     0.000 A 
ENDBRANCH  25  26
ENDBRANCH   7  25
BRANCH  14  32
ATOM     32  C   UNL     1      96.692  99.218  77.781  1.00  0.00    -0.046 C 
ATOM     33  C   UNL     1      96.076 100.368  78.522  1.00  0.00     0.042 C 
ATOM     34  C   UNL     1      97.456  98.305  78.399  1.00  0.00     0.010 C 
ENDBRANCH  14  32
ENDBRANCH   3   4
BRANCH   2  35
ATOM     35  C   UNL     1      93.731 101.695  71.889  1.00  0.00     0.078 CG0
ATOM     36  G   UNL     1      95.175 101.217  71.748  1.00  0.00     0.000 G0
ENDBRANCH   2  35
ENDBRANCH   1   2
BRANCH   1  37
ATOM     37  O   UNL     1      91.181 102.053  71.778  1.00  0.00    -0.461 OA
BRANCH  37  38
ATOM     38  C   UNL     1      89.845 102.083  71.453  1.00  0.00     0.310 C 
ATOM     39  O   UNL     1      88.924 102.048  72.258  1.00  0.00    -0.252 OA
BRANCH  38  40
ATOM     40  C   UNL     1      89.693 102.166  69.952  1.00  0.00     0.158 C 
BRANCH  40  41
ATOM     41  C   UNL     1      89.418 100.828  69.315  1.00  0.00    -0.033 A 
ATOM     42  C   UNL     1      89.911  99.662  69.901  1.00  0.00     0.054 A 
ATOM     43  C   UNL     1      88.670 100.756  68.140  1.00  0.00     0.008 A 
ATOM     44  C   UNL     1      89.657  98.424  69.311  1.00  0.00     0.160 A 
ATOM     45  C   UNL     1      88.416  99.518  67.550  1.00  0.00     0.050 A 
ATOM     46  C   UNL     1      88.909  98.352  68.135  1.00  0.00     0.157 A 
BRANCH  44  47
ATOM     47  O   UNL     1      90.144  97.292  69.892  1.00  0.00    -0.493 OA
ATOM     48  C   UNL     1      89.879  97.112  71.282  1.00  0.00     0.278 C 
ENDBRANCH  44  47
BRANCH  46  49
ATOM     49  O   UNL     1      88.653  97.148  67.550  1.00  0.00    -0.504 OA
ATOM     50  H   UNL     1      89.445  96.589  67.618  1.00  0.00     0.293 HD
ENDBRANCH  46  49
ENDBRANCH  40  41
ENDBRANCH  38  40
ENDBRANCH  37  38
ENDBRANCH   1  37
TORSDOF 11
ENDMDL
MODEL 4
REMARK VINA RESULT:    -5.927      2.860      5.812
REMARK INTER + INTRA:         -12.499
REMARK INTER:                 -11.265
REMARK INTRA:                  -1.234
REMARK UNBOUND:                -2.068
REMARK SMILES C=C(C)[C@]12C[C@@H](C)[C@@]34O[C@](Cc5ccccc5)(O[C@@H]1[C@@H]3C=C(COC(=O)Cc1ccc(O)c(OC)c1)C[C@]1(O)C(=O)C(C)=C[C@@H]41)O2
REMARK SMILES IDX 23 1 22 2 21 3 20 4 9 5 8 6 10 7 6 8 18 9 46 10 19 11 5 12
REMARK SMILES IDX 7 13 4 14 45 15 38 16 44 17 40 18 42 20 41 21 43 22 39 23
REMARK SMILES IDX 11 25 12 26 13 27 17 28 14 29 16 30 15 31 2 32 3 33 1 34
REMARK SMILES IDX 37 35 24 37 25 38 26 39 27 40 28 41 36 42 29 43 33 44 30 45
REMARK SMILES IDX 31 46 34 47 35 48 32 49
REMARK H PARENT 39 24 32 50
REMARK Flexibility Score: 90.00
ROOT
ATOM      1  C   UNL     1      67.283  86.716  70.779  1.00  0.00     0.264 C 
ENDROOT
BRANCH   1   2
ATOM      2  C   UNL     1      66.423  85.559  71.232  1.00  0.00    -0.033 C 
ATOM      3  C   UNL     1      65.969  85.532  72.501  1.00  0.00    -0.015 C 
BRANCH   3   4
ATOM      4  C   UNL     1      65.163  84.459  73.214  1.00  0.00     0.078 C 
ATOM      5  O   UNL     1      62.776  85.055  72.951  1.00  0.00    -0.319 OA
ATOM      6  C   UNL     1      63.771  84.041  72.609  1.00  0.00     0.095 C 
ATOM      7  C   UNL     1      62.837  85.547  74.303  1.00  0.00     0.289 C 
ATOM      8  C   UNL     1      63.357  82.660  73.267  1.00  0.00     0.023 C 
ATOM      9  O   UNL     1      64.119  86.094  74.598  1.00  0.00    -0.320 OA
ATOM     10  O   UNL     1      62.629  84.515  75.264  1.00  0.00    -0.313 OA
ATOM     11  C   UNL     1      64.895  84.889  74.678  1.00  0.00     0.170 C 
ATOM     12  C   UNL     1      63.867  82.552  74.737  1.00  0.00     0.049 C 
ATOM     13  C   UNL     1      61.857  82.330  73.220  1.00  0.00     0.011 C 
ATOM     14  C   UNL     1      63.935  83.921  75.414  1.00  0.00     0.122 C 
BRANCH   6  15
ATOM     15  C   UNL     1      63.820  84.053  71.054  1.00  0.00     0.086 C 
ATOM     16  C   UNL     1      65.084  83.448  70.408  1.00  0.00     0.140 CG0
ATOM     17  C   UNL     1      62.696  83.426  70.277  1.00  0.00    -0.010 C 
ATOM     18  C   UNL     1      64.536  82.824  69.142  1.00  0.00     0.190 C 
ATOM     19  G   UNL     1      66.150  84.506  70.126  1.00  0.00     0.000 G0
ATOM     20  C   UNL     1      63.064  82.752  69.182  1.00  0.00    -0.008 C 
ATOM     21  O   UNL     1      65.209  82.385  68.221  1.00  0.00    -0.291 OA
ATOM     22  C   UNL     1      62.239  82.089  68.151  1.00  0.00     0.048 C 
BRANCH  16  23
ATOM     23  O   UNL     1      65.622  82.348  71.122  1.00  0.00    -0.381 OA
ATOM     24  H   UNL     1      65.332  81.529  70.689  1.00  0.00     0.212 HD
ENDBRANCH  16  23
ENDBRANCH   6  15
BRANCH   7  25
ATOM     25  C   UNL     1      61.774  86.614  74.469  1.00  0.00     0.135 C 
BRANCH  25  26
ATOM     26  C   UNL     1      60.748  86.567  73.365  1.00  0.00    -0.040 A 
ATOM     27  C   UNL     1      59.832  85.515  73.309  1.00  0.00     0.004 A 
ATOM     28  C   UNL     1      60.713  87.574  72.401  1.00  0.00     0.004 A 
ATOM     29  C   UNL     1      58.883  85.471  72.287  1.00  0.00     0.000 A 
ATOM     30  C   UNL     1      59.763  87.530  71.380  1.00  0.00     0.000 A 
ATOM     31  C   UNL     1      58.849  86.478  71.323  1.00  0.00     0.000 A 
ENDBRANCH  25  26
ENDBRANCH   7  25
BRANCH  14  32
ATOM     32  C   UNL     1      64.244  83.826  76.873  1.00  0.00    -0.046 C 
ATOM     33  C   UNL     1      63.079  83.965  77.807  1.00  0.00     0.042 C 
ATOM     34  C   UNL     1      65.492  83.627  77.322  1.00  0.00     0.010 C 
ENDBRANCH  14  32
ENDBRANCH   3   4
BRANCH   2  35
ATOM     35  C   UNL     1      66.172  84.540  70.136  1.00  0.00     0.078 CG0
ATOM     36  G   UNL     1      65.115  83.471  70.405  1.00  0.00     0.000 G0
ENDBRANCH   2  35
ENDBRANCH   1   2
BRANCH   1  37
ATOM     37  O   UNL     1      66.875  87.890  71.447  1.00  0.00    -0.461 OA
BRANCH  37  38
ATOM     38  C   UNL     1      67.763  88.941  71.428  1.00  0.00     0.310 C 
ATOM     39  O   UNL     1      67.848  89.773  70.536  1.00  0.00    -0.252 OA
BRANCH  38  40
ATOM     40  C   UNL     1      68.613  88.905  72.676  1.00  0.00     0.158 C 
BRANCH  40  41
ATOM     41  C   UNL     1      70.089  89.003  72.386  1.00  0.00    -0.033 A 
ATOM     42  C   UNL     1      70.841  90.041  72.937  1.00  0.00     0.054 A 
ATOM     43  C   UNL     1      70.703  88.056  71.566  1.00  0.00     0.008 A 
ATOM     44  C   UNL     1      72.206  90.132  72.668  1.00  0.00     0.160 A 
ATOM     45  C   UNL     1      72.069  88.147  71.297  1.00  0.00     0.050 A 
ATOM     46  C   UNL     1      72.820  89.184  71.848  1.00  0.00     0.157 A 
BRANCH  44  47
ATOM     47  O   UNL     1      72.930  91.150  73.212  1.00  0.00    -0.493 OA
ATOM     48  C   UNL     1      72.973  91.226  74.636  1.00  0.00     0.278 C 
ENDBRANCH  44  47
BRANCH  46  49
ATOM     49  O   UNL     1      74.153  89.262  71.579  1.00  0.00    -0.504 OA
ATOM     50  H   UNL     1      74.376  88.611  70.892  1.00  0.00     0.293 HD
ENDBRANCH  46  49
ENDBRANCH  40  41
ENDBRANCH  38  40
ENDBRANCH  37  38
ENDBRANCH   1  37
TORSDOF 11
ENDMDL
MODEL 5
REMARK VINA RESULT:    -5.768      2.271      5.945
REMARK INTER + INTRA:         -12.219
REMARK INTER:                 -11.046
REMARK INTRA:                  -1.172
REMARK UNBOUND:                -2.068
REMARK SMILES C=C(C)[C@]12C[C@@H](C)[C@@]34O[C@](Cc5ccccc5)(O[C@@H]1[C@@H]3C=C(COC(=O)Cc1ccc(O)c(OC)c1)C[C@]1(O)C(=O)C(C)=C[C@@H]41)O2
REMARK SMILES IDX 23 1 22 2 21 3 20 4 9 5 8 6 10 7 6 8 18 9 46 10 19 11 5 12
REMARK SMILES IDX 7 13 4 14 45 15 38 16 44 17 40 18 42 20 41 21 43 22 39 23
REMARK SMILES IDX 11 25 12 26 13 27 17 28 14 29 16 30 15 31 2 32 3 33 1 34
REMARK SMILES IDX 37 35 24 37 25 38 26 39 27 40 28 41 36 42 29 43 33 44 30 45
REMARK SMILES IDX 31 46 34 47 35 48 32 49
REMARK H PARENT 39 24 32 50
REMARK Flexibility Score: 90.00
ROOT
ATOM      1  C   UNL     1      66.620  87.431  70.294  1.00  0.00     0.264 C 
ENDROOT
BRANCH   1   2
ATOM      2  C   UNL     1      65.984  86.132  70.731  1.00  0.00    -0.033 C 
ATOM      3  C   UNL     1      65.567  85.998  72.006  1.00  0.00    -0.015 C 
BRANCH   3   4
ATOM      4  C   UNL     1      64.975  84.786  72.705  1.00  0.00     0.078 C 
ATOM      5  O   UNL     1      62.518  84.944  72.466  1.00  0.00    -0.319 OA
ATOM      6  C   UNL     1      63.676  84.133  72.100  1.00  0.00     0.095 C 
ATOM      7  C   UNL     1      62.500  85.416  73.826  1.00  0.00     0.289 C 
ATOM      8  C   UNL     1      63.525  82.689  72.736  1.00  0.00     0.023 C 
ATOM      9  O   UNL     1      63.665  86.182  74.123  1.00  0.00    -0.320 OA
ATOM     10  O   UNL     1      62.491  84.348  74.770  1.00  0.00    -0.313 OA
ATOM     11  C   UNL     1      64.647  85.135  74.178  1.00  0.00     0.170 C 
ATOM     12  C   UNL     1      64.058  82.650  74.201  1.00  0.00     0.049 C 
ATOM     13  C   UNL     1      62.108  82.093  72.691  1.00  0.00     0.011 C 
ATOM     14  C   UNL     1      63.884  83.998  74.902  1.00  0.00     0.122 C 
BRANCH   6  15
ATOM     15  C   UNL     1      63.708  84.179  70.545  1.00  0.00     0.086 C 
ATOM     16  C   UNL     1      65.057  83.830  69.882  1.00  0.00     0.140 CG0
ATOM     17  C   UNL     1      62.714  83.367  69.764  1.00  0.00    -0.010 C 
ATOM     18  C   UNL     1      64.624  83.136  68.608  1.00  0.00     0.190 C 
ATOM     19  G   UNL     1      65.906  85.071  69.613  1.00  0.00     0.000 G0
ATOM     20  C   UNL     1      63.190  82.791  68.655  1.00  0.00    -0.008 C 
ATOM     21  O   UNL     1      65.358  82.844  67.676  1.00  0.00    -0.291 OA
ATOM     22  C   UNL     1      62.494  82.004  67.617  1.00  0.00     0.048 C 
BRANCH  16  23
ATOM     23  O   UNL     1      65.796  82.837  70.574  1.00  0.00    -0.381 OA
ATOM     24  H   UNL     1      66.424  82.433  69.952  1.00  0.00     0.212 HD
ENDBRANCH  16  23
ENDBRANCH   6  15
BRANCH   7  25
ATOM     25  C   UNL     1      61.264  86.271  74.018  1.00  0.00     0.135 C 
BRANCH  25  26
ATOM     26  C   UNL     1      60.288  86.116  72.878  1.00  0.00    -0.040 A 
ATOM     27  C   UNL     1      59.704  84.875  72.623  1.00  0.00     0.004 A 
ATOM     28  C   UNL     1      59.968  87.213  72.079  1.00  0.00     0.004 A 
ATOM     29  C   UNL     1      58.801  84.731  71.569  1.00  0.00     0.000 A 
ATOM     30  C   UNL     1      59.065  87.070  71.025  1.00  0.00     0.000 A 
ATOM     31  C   UNL     1      58.482  85.828  70.770  1.00  0.00     0.000 A 
ENDBRANCH  25  26
ENDBRANCH   7  25
BRANCH  14  32
ATOM     32  C   UNL     1      64.217  83.936  76.357  1.00  0.00    -0.046 C 
ATOM     33  C   UNL     1      63.055  83.944  77.304  1.00  0.00     0.042 C 
ATOM     34  C   UNL     1      65.485  83.876  76.792  1.00  0.00     0.010 C 
ENDBRANCH  14  32
ENDBRANCH   3   4
BRANCH   2  35
ATOM     35  C   UNL     1      65.890  85.110  69.614  1.00  0.00     0.078 CG0
ATOM     36  G   UNL     1      65.060  83.856  69.881  1.00  0.00     0.000 G0
ENDBRANCH   2  35
ENDBRANCH   1   2
BRANCH   1  37
ATOM     37  O   UNL     1      68.008  87.239  70.130  1.00  0.00    -0.461 OA
BRANCH  37  38
ATOM     38  C   UNL     1      68.822  87.874  71.039  1.00  0.00     0.310 C 
ATOM     39  O   UNL     1      68.715  89.043  71.382  1.00  0.00    -0.252 OA
BRANCH  38  40
ATOM     40  C   UNL     1      69.865  86.905  71.546  1.00  0.00     0.158 C 
BRANCH  40  41
ATOM     41  C   UNL     1      70.432  86.030  70.458  1.00  0.00    -0.033 A 
ATOM     42  C   UNL     1      71.387  86.542  69.578  1.00  0.00     0.054 A 
ATOM     43  C   UNL     1      70.004  84.709  70.331  1.00  0.00     0.008 A 
ATOM     44  C   UNL     1      71.912  85.732  68.571  1.00  0.00     0.160 A 
ATOM     45  C   UNL     1      70.529  83.899  69.324  1.00  0.00     0.050 A 
ATOM     46  C   UNL     1      71.482  84.410  68.444  1.00  0.00     0.157 A 
BRANCH  44  47
ATOM     47  O   UNL     1      72.842  86.242  67.717  1.00  0.00    -0.493 OA
ATOM     48  C   UNL     1      73.027  87.657  67.731  1.00  0.00     0.278 C 
ENDBRANCH  44  47
BRANCH  46  49
ATOM     49  O   UNL     1      71.989  83.609  67.465  1.00  0.00    -0.504 OA
ATOM     50  H   UNL     1      72.944  83.772  67.386  1.00  0.00     0.293 HD
ENDBRANCH  46  49
ENDBRANCH  40  41
ENDBRANCH  38  40
ENDBRANCH  37  38
ENDBRANCH   1  37
TORSDOF 11
ENDMDL
MODEL 6
REMARK VINA RESULT:    -5.663      5.547     10.602
REMARK INTER + INTRA:         -12.035
REMARK INTER:                 -10.896
REMARK INTRA:                  -1.139
REMARK UNBOUND:                -2.068
REMARK SMILES C=C(C)[C@]12C[C@@H](C)[C@@]34O[C@](Cc5ccccc5)(O[C@@H]1[C@@H]3C=C(COC(=O)Cc1ccc(O)c(OC)c1)C[C@]1(O)C(=O)C(C)=C[C@@H]41)O2
REMARK SMILES IDX 23 1 22 2 21 3 20 4 9 5 8 6 10 7 6 8 18 9 46 10 19 11 5 12
REMARK SMILES IDX 7 13 4 14 45 15 38 16 44 17 40 18 42 20 41 21 43 22 39 23
REMARK SMILES IDX 11 25 12 26 13 27 17 28 14 29 16 30 15 31 2 32 3 33 1 34
REMARK SMILES IDX 37 35 24 37 25 38 26 39 27 40 28 41 36 42 29 43 33 44 30 45
REMARK SMILES IDX 31 46 34 47 35 48 32 49
REMARK H PARENT 39 24 32 50
REMARK Flexibility Score: 90.00
ROOT
ATOM      1  C   UNL     1      69.189  86.034  69.080  1.00  0.00     0.264 C 
ENDROOT
BRANCH   1   2
ATOM      2  C   UNL     1      70.277  86.274  68.060  1.00  0.00    -0.033 C 
ATOM      3  C   UNL     1      71.018  87.398  68.137  1.00  0.00    -0.015 C 
BRANCH   3   4
ATOM      4  C   UNL     1      72.104  87.904  67.203  1.00  0.00     0.078 C 
ATOM      5  O   UNL     1      74.259  87.067  68.083  1.00  0.00    -0.319 OA
ATOM      6  C   UNL     1      73.354  86.983  66.940  1.00  0.00     0.095 C 
ATOM      7  C   UNL     1      74.459  88.390  68.616  1.00  0.00     0.289 C 
ATOM      8  C   UNL     1      74.091  87.532  65.648  1.00  0.00     0.023 C 
ATOM      9  O   UNL     1      73.224  88.982  69.008  1.00  0.00    -0.320 OA
ATOM     10  O   UNL     1      75.024  89.279  67.656  1.00  0.00    -0.313 OA
ATOM     11  C   UNL     1      72.655  89.256  67.719  1.00  0.00     0.170 C 
ATOM     12  C   UNL     1      73.966  89.082  65.534  1.00  0.00     0.049 C 
ATOM     13  C   UNL     1      75.567  87.125  65.508  1.00  0.00     0.011 C 
ATOM     14  C   UNL     1      73.882  89.745  66.910  1.00  0.00     0.122 C 
BRANCH   6  15
ATOM     15  C   UNL     1      72.934  85.486  66.885  1.00  0.00     0.086 C 
ATOM     16  C   UNL     1      71.639  85.171  66.108  1.00  0.00     0.140 CG0
ATOM     17  C   UNL     1      73.909  84.466  66.367  1.00  0.00    -0.010 C 
ATOM     18  C   UNL     1      71.943  83.815  65.505  1.00  0.00     0.190 C 
ATOM     19  G   UNL     1      70.412  85.145  67.017  1.00  0.00     0.000 G0
ATOM     20  C   UNL     1      73.379  83.499  65.612  1.00  0.00    -0.008 C 
ATOM     21  O   UNL     1      71.131  83.088  64.953  1.00  0.00    -0.291 OA
ATOM     22  C   UNL     1      74.011  82.305  65.013  1.00  0.00     0.048 C 
BRANCH  16  23
ATOM     23  O   UNL     1      71.430  86.004  64.979  1.00  0.00    -0.381 OA
ATOM     24  H   UNL     1      70.608  86.504  65.115  1.00  0.00     0.212 HD
ENDBRANCH  16  23
ENDBRANCH   6  15
BRANCH   7  25
ATOM     25  C   UNL     1      75.381  88.286  69.814  1.00  0.00     0.135 C 
BRANCH  25  26
ATOM     26  C   UNL     1      76.290  87.086  69.725  1.00  0.00    -0.040 A 
ATOM     27  C   UNL     1      76.009  85.941  70.473  1.00  0.00     0.004 A 
ATOM     28  C   UNL     1      77.411  87.118  68.896  1.00  0.00     0.004 A 
ATOM     29  C   UNL     1      76.849  84.831  70.391  1.00  0.00     0.000 A 
ATOM     30  C   UNL     1      78.251  86.007  68.814  1.00  0.00     0.000 A 
ATOM     31  C   UNL     1      77.970  84.864  69.562  1.00  0.00     0.000 A 
ENDBRANCH  25  26
ENDBRANCH   7  25
BRANCH  14  32
ATOM     32  C   UNL     1      73.945  91.236  66.833  1.00  0.00    -0.046 C 
ATOM     33  C   UNL     1      75.310  91.847  66.947  1.00  0.00     0.042 C 
ATOM     34  C   UNL     1      72.845  91.986  66.672  1.00  0.00     0.010 C 
ENDBRANCH  14  32
ENDBRANCH   3   4
BRANCH   2  35
ATOM     35  C   UNL     1      70.396  85.155  67.042  1.00  0.00     0.078 CG0
ATOM     36  G   UNL     1      71.616  85.173  66.123  1.00  0.00     0.000 G0
ENDBRANCH   2  35
ENDBRANCH   1   2
BRANCH   1  37
ATOM     37  O   UNL     1      68.939  84.649  69.179  1.00  0.00    -0.461 OA
BRANCH  37  38
ATOM     38  C   UNL     1      69.405  84.026  70.314  1.00  0.00     0.310 C 
ATOM     39  O   UNL     1      70.371  83.276  70.357  1.00  0.00    -0.252 OA
BRANCH  38  40
ATOM     40  C   UNL     1      68.542  84.413  71.492  1.00  0.00     0.158 C 
BRANCH  40  41
ATOM     41  C   UNL     1      67.160  83.816  71.428  1.00  0.00    -0.033 A 
ATOM     42  C   UNL     1      66.079  84.501  71.986  1.00  0.00     0.054 A 
ATOM     43  C   UNL     1      66.960  82.581  70.812  1.00  0.00     0.008 A 
ATOM     44  C   UNL     1      64.799  83.949  71.927  1.00  0.00     0.160 A 
ATOM     45  C   UNL     1      65.680  82.030  70.753  1.00  0.00     0.050 A 
ATOM     46  C   UNL     1      64.600  82.713  71.311  1.00  0.00     0.157 A 
BRANCH  44  47
ATOM     47  O   UNL     1      63.752  84.626  72.475  1.00  0.00    -0.493 OA
ATOM     48  C   UNL     1      63.476  84.387  73.855  1.00  0.00     0.278 C 
ENDBRANCH  44  47
BRANCH  46  49
ATOM     49  O   UNL     1      63.355  82.165  71.247  1.00  0.00    -0.504 OA
ATOM     50  H   UNL     1      63.061  82.155  70.320  1.00  0.00     0.293 HD
ENDBRANCH  46  49
ENDBRANCH  40  41
ENDBRANCH  38  40
ENDBRANCH  37  38
ENDBRANCH   1  37
TORSDOF 11
ENDMDL
MODEL 7
REMARK VINA RESULT:    -5.619     18.022     21.277
REMARK INTER + INTRA:         -11.957
REMARK INTER:                 -10.165
REMARK INTRA:                  -1.792
REMARK UNBOUND:                -2.068
REMARK SMILES C=C(C)[C@]12C[C@@H](C)[C@@]34O[C@](Cc5ccccc5)(O[C@@H]1[C@@H]3C=C(COC(=O)Cc1ccc(O)c(OC)c1)C[C@]1(O)C(=O)C(C)=C[C@@H]41)O2
REMARK SMILES IDX 23 1 22 2 21 3 20 4 9 5 8 6 10 7 6 8 18 9 46 10 19 11 5 12
REMARK SMILES IDX 7 13 4 14 45 15 38 16 44 17 40 18 42 20 41 21 43 22 39 23
REMARK SMILES IDX 11 25 12 26 13 27 17 28 14 29 16 30 15 31 2 32 3 33 1 34
REMARK SMILES IDX 37 35 24 37 25 38 26 39 27 40 28 41 36 42 29 43 33 44 30 45
REMARK SMILES IDX 31 46 34 47 35 48 32 49
REMARK H PARENT 39 24 32 50
REMARK Flexibility Score: 90.00
ROOT
ATOM      1  C   UNL     1      68.936  66.647  81.304  1.00  0.00     0.264 C 
ENDROOT
BRANCH   1   2
ATOM      2  C   UNL     1      67.506  66.179  81.163  1.00  0.00    -0.033 C 
ATOM      3  C   UNL     1      66.542  66.776  81.891  1.00  0.00    -0.015 C 
BRANCH   3   4
ATOM      4  C   UNL     1      65.061  66.445  81.988  1.00  0.00     0.078 C 
ATOM      5  O   UNL     1      63.903  67.823  80.291  1.00  0.00    -0.319 OA
ATOM      6  C   UNL     1      64.207  66.444  80.666  1.00  0.00     0.095 C 
ATOM      7  C   UNL     1      63.518  68.687  81.377  1.00  0.00     0.289 C 
ATOM      8  C   UNL     1      62.855  65.675  80.969  1.00  0.00     0.023 C 
ATOM      9  O   UNL     1      64.526  68.733  82.384  1.00  0.00    -0.320 OA
ATOM     10  O   UNL     1      62.338  68.235  82.036  1.00  0.00    -0.313 OA
ATOM     11  C   UNL     1      64.365  67.428  82.961  1.00  0.00     0.170 C 
ATOM     12  C   UNL     1      62.393  65.891  82.443  1.00  0.00     0.049 C 
ATOM     13  C   UNL     1      61.690  65.987  80.016  1.00  0.00     0.011 C 
ATOM     14  C   UNL     1      62.826  67.257  82.977  1.00  0.00     0.122 C 
BRANCH   6  15
ATOM     15  C   UNL     1      65.038  65.891  79.472  1.00  0.00     0.086 C 
ATOM     16  C   UNL     1      65.916  64.658  79.768  1.00  0.00     0.140 CG0
ATOM     17  C   UNL     1      64.336  65.522  78.195  1.00  0.00    -0.010 C 
ATOM     18  C   UNL     1      65.860  63.896  78.461  1.00  0.00     0.190 C 
ATOM     19  G   UNL     1      67.342  65.046  80.159  1.00  0.00     0.000 G0
ATOM     20  C   UNL     1      64.793  64.421  77.588  1.00  0.00    -0.008 C 
ATOM     21  O   UNL     1      66.560  62.938  78.169  1.00  0.00    -0.291 OA
ATOM     22  C   UNL     1      64.407  63.816  76.297  1.00  0.00     0.048 C 
BRANCH  16  23
ATOM     23  O   UNL     1      65.348  63.761  80.708  1.00  0.00    -0.381 OA
ATOM     24  H   UNL     1      65.394  64.169  81.588  1.00  0.00     0.212 HD
ENDBRANCH  16  23
ENDBRANCH   6  15
BRANCH   7  25
ATOM     25  C   UNL     1      63.287  70.077  80.821  1.00  0.00     0.135 C 
BRANCH  25  26
ATOM     26  C   UNL     1      62.801  71.036  81.879  1.00  0.00    -0.040 A 
ATOM     27  C   UNL     1      61.434  71.168  82.126  1.00  0.00     0.004 A 
ATOM     28  C   UNL     1      63.717  71.789  82.613  1.00  0.00     0.004 A 
ATOM     29  C   UNL     1      60.984  72.054  83.105  1.00  0.00     0.000 A 
ATOM     30  C   UNL     1      63.267  72.676  83.592  1.00  0.00     0.000 A 
ATOM     31  C   UNL     1      61.900  72.808  83.837  1.00  0.00     0.000 A 
ENDBRANCH  25  26
ENDBRANCH   7  25
BRANCH  14  32
ATOM     32  C   UNL     1      62.241  67.561  84.317  1.00  0.00    -0.046 C 
ATOM     33  C   UNL     1      63.091  68.383  85.240  1.00  0.00     0.042 C 
ATOM     34  C   UNL     1      61.024  67.124  84.676  1.00  0.00     0.010 C 
ENDBRANCH  14  32
ENDBRANCH   3   4
BRANCH   2  35
ATOM     35  C   UNL     1      67.347  65.049  80.163  1.00  0.00     0.078 CG0
ATOM     36  G   UNL     1      65.922  64.659  79.771  1.00  0.00     0.000 G0
ENDBRANCH   2  35
ENDBRANCH   1   2
BRANCH   1  37
ATOM     37  O   UNL     1      69.803  65.538  81.199  1.00  0.00    -0.461 OA
BRANCH  37  38
ATOM     38  C   UNL     1      70.884  65.528  82.049  1.00  0.00     0.310 C 
ATOM     39  O   UNL     1      71.829  66.303  81.992  1.00  0.00    -0.252 OA
BRANCH  38  40
ATOM     40  C   UNL     1      70.722  64.416  83.058  1.00  0.00     0.158 C 
BRANCH  40  41
ATOM     41  C   UNL     1      69.323  64.320  83.608  1.00  0.00    -0.033 A 
ATOM     42  C   UNL     1      68.899  65.211  84.596  1.00  0.00     0.054 A 
ATOM     43  C   UNL     1      68.450  63.342  83.131  1.00  0.00     0.008 A 
ATOM     44  C   UNL     1      67.604  65.122  85.105  1.00  0.00     0.160 A 
ATOM     45  C   UNL     1      67.155  63.254  83.640  1.00  0.00     0.050 A 
ATOM     46  C   UNL     1      66.731  64.143  84.627  1.00  0.00     0.157 A 
BRANCH  44  47
ATOM     47  O   UNL     1      67.202  65.997  86.069  1.00  0.00    -0.493 OA
ATOM     48  C   UNL     1      68.197  66.457  86.982  1.00  0.00     0.278 C 
ENDBRANCH  44  47
BRANCH  46  49
ATOM     49  O   UNL     1      65.464  64.048  85.116  1.00  0.00    -0.504 OA
ATOM     50  H   UNL     1      65.415  63.293  85.726  1.00  0.00     0.293 HD
ENDBRANCH  46  49
ENDBRANCH  40  41
ENDBRANCH  38  40
ENDBRANCH  37  38
ENDBRANCH   1  37
TORSDOF 11
ENDMDL
MODEL 8
REMARK VINA RESULT:    -5.597     17.909     20.936
REMARK INTER + INTRA:         -11.918
REMARK INTER:                 -10.930
REMARK INTRA:                  -0.989
REMARK UNBOUND:                -2.068
REMARK SMILES C=C(C)[C@]12C[C@@H](C)[C@@]34O[C@](Cc5ccccc5)(O[C@@H]1[C@@H]3C=C(COC(=O)Cc1ccc(O)c(OC)c1)C[C@]1(O)C(=O)C(C)=C[C@@H]41)O2
REMARK SMILES IDX 23 1 22 2 21 3 20 4 9 5 8 6 10 7 6 8 18 9 46 10 19 11 5 12
REMARK SMILES IDX 7 13 4 14 45 15 38 16 44 17 40 18 42 20 41 21 43 22 39 23
REMARK SMILES IDX 11 25 12 26 13 27 17 28 14 29 16 30 15 31 2 32 3 33 1 34
REMARK SMILES IDX 37 35 24 37 25 38 26 39 27 40 28 41 36 42 29 43 33 44 30 45
REMARK SMILES IDX 31 46 34 47 35 48 32 49
REMARK H PARENT 39 24 32 50
REMARK Flexibility Score: 90.00
ROOT
ATOM      1  C   UNL     1      68.640  66.688  81.499  1.00  0.00     0.264 C 
ENDROOT
BRANCH   1   2
ATOM      2  C   UNL     1      67.228  66.199  81.275  1.00  0.00    -0.033 C 
ATOM      3  C   UNL     1      66.219  66.760  81.972  1.00  0.00    -0.015 C 
BRANCH   3   4
ATOM      4  C   UNL     1      64.742  66.402  81.988  1.00  0.00     0.078 C 
ATOM      5  O   UNL     1      63.640  67.810  80.279  1.00  0.00    -0.319 OA
ATOM      6  C   UNL     1      63.951  66.426  80.627  1.00  0.00     0.095 C 
ATOM      7  C   UNL     1      63.189  68.634  81.370  1.00  0.00     0.289 C 
ATOM      8  C   UNL     1      62.601  65.625  80.843  1.00  0.00     0.023 C 
ATOM      9  O   UNL     1      64.147  68.667  82.425  1.00  0.00    -0.320 OA
ATOM     10  O   UNL     1      61.987  68.143  81.957  1.00  0.00    -0.313 OA
ATOM     11  C   UNL     1      63.983  67.343  82.956  1.00  0.00     0.170 C 
ATOM     12  C   UNL     1      62.065  65.789  82.298  1.00  0.00     0.049 C 
ATOM     13  C   UNL     1      61.476  65.946  79.845  1.00  0.00     0.011 C 
ATOM     14  C   UNL     1      62.447  67.146  82.892  1.00  0.00     0.122 C 
BRANCH   6  15
ATOM     15  C   UNL     1      64.847  65.923  79.459  1.00  0.00     0.086 C 
ATOM     16  C   UNL     1      65.727  64.691  79.758  1.00  0.00     0.140 CG0
ATOM     17  C   UNL     1      64.215  65.588  78.137  1.00  0.00    -0.010 C 
ATOM     18  C   UNL     1      65.746  63.972  78.426  1.00  0.00     0.190 C 
ATOM     19  G   UNL     1      67.126  65.083  80.232  1.00  0.00     0.000 G0
ATOM     20  C   UNL     1      64.717  64.513  77.519  1.00  0.00    -0.008 C 
ATOM     21  O   UNL     1      66.473  63.033  78.138  1.00  0.00    -0.291 OA
ATOM     22  C   UNL     1      64.403  63.947  76.191  1.00  0.00     0.048 C 
BRANCH  16  23
ATOM     23  O   UNL     1      65.125  63.757  80.639  1.00  0.00    -0.381 OA
ATOM     24  H   UNL     1      65.792  63.096  80.888  1.00  0.00     0.212 HD
ENDBRANCH  16  23
ENDBRANCH   6  15
BRANCH   7  25
ATOM     25  C   UNL     1      62.958  70.036  80.844  1.00  0.00     0.135 C 
BRANCH  25  26
ATOM     26  C   UNL     1      62.447  70.966  81.916  1.00  0.00    -0.040 A 
ATOM     27  C   UNL     1      61.086  71.267  81.987  1.00  0.00     0.004 A 
ATOM     28  C   UNL     1      63.333  71.523  82.838  1.00  0.00     0.004 A 
ATOM     29  C   UNL     1      60.613  72.126  82.979  1.00  0.00     0.000 A 
ATOM     30  C   UNL     1      62.860  72.382  83.830  1.00  0.00     0.000 A 
ATOM     31  C   UNL     1      61.499  72.684  83.900  1.00  0.00     0.000 A 
ENDBRANCH  25  26
ENDBRANCH   7  25
BRANCH  14  32
ATOM     32  C   UNL     1      61.794  67.400  84.211  1.00  0.00    -0.046 C 
ATOM     33  C   UNL     1      61.777  68.825  84.679  1.00  0.00     0.042 C 
ATOM     34  C   UNL     1      61.253  66.410  84.937  1.00  0.00     0.010 C 
ENDBRANCH  14  32
ENDBRANCH   3   4
BRANCH   2  35
ATOM     35  C   UNL     1      67.137  65.095  80.239  1.00  0.00     0.078 CG0
ATOM     36  G   UNL     1      65.742  64.707  79.752  1.00  0.00     0.000 G0
ENDBRANCH   2  35
ENDBRANCH   1   2
BRANCH   1  37
ATOM     37  O   UNL     1      69.503  65.578  81.626  1.00  0.00    -0.461 OA
BRANCH  37  38
ATOM     38  C   UNL     1      70.816  65.859  81.924  1.00  0.00     0.310 C 
ATOM     39  O   UNL     1      71.600  66.428  81.177  1.00  0.00    -0.252 OA
BRANCH  38  40
ATOM     40  C   UNL     1      71.137  65.357  83.313  1.00  0.00     0.158 C 
BRANCH  40  41
ATOM     41  C   UNL     1      70.752  66.334  84.394  1.00  0.00    -0.033 A 
ATOM     42  C   UNL     1      71.479  67.513  84.559  1.00  0.00     0.054 A 
ATOM     43  C   UNL     1      69.669  66.060  85.229  1.00  0.00     0.008 A 
ATOM     44  C   UNL     1      71.123  68.418  85.560  1.00  0.00     0.160 A 
ATOM     45  C   UNL     1      69.313  66.964  86.230  1.00  0.00     0.050 A 
ATOM     46  C   UNL     1      70.040  68.142  86.396  1.00  0.00     0.157 A 
BRANCH  44  47
ATOM     47  O   UNL     1      71.841  69.565  85.713  1.00  0.00    -0.493 OA
ATOM     48  C   UNL     1      73.258  69.435  85.816  1.00  0.00     0.278 C 
ENDBRANCH  44  47
BRANCH  46  49
ATOM     49  O   UNL     1      69.683  69.018  87.376  1.00  0.00    -0.504 OA
ATOM     50  H   UNL     1      70.482  69.316  87.842  1.00  0.00     0.293 HD
ENDBRANCH  46  49
ENDBRANCH  40  41
ENDBRANCH  38  40
ENDBRANCH  37  38
ENDBRANCH   1  37
TORSDOF 11
ENDMDL
MODEL 9
REMARK VINA RESULT:    -5.442     34.057     37.782
REMARK INTER + INTRA:         -11.646
REMARK INTER:                  -9.130
REMARK INTRA:                  -2.515
REMARK UNBOUND:                -2.068
REMARK SMILES C=C(C)[C@]12C[C@@H](C)[C@@]34O[C@](Cc5ccccc5)(O[C@@H]1[C@@H]3C=C(COC(=O)Cc1ccc(O)c(OC)c1)C[C@]1(O)C(=O)C(C)=C[C@@H]41)O2
REMARK SMILES IDX 23 1 22 2 21 3 20 4 9 5 8 6 10 7 6 8 18 9 46 10 19 11 5 12
REMARK SMILES IDX 7 13 4 14 45 15 38 16 44 17 40 18 42 20 41 21 43 22 39 23
REMARK SMILES IDX 11 25 12 26 13 27 17 28 14 29 16 30 15 31 2 32 3 33 1 34
REMARK SMILES IDX 37 35 24 37 25 38 26 39 27 40 28 41 36 42 29 43 33 44 30 45
REMARK SMILES IDX 31 46 34 47 35 48 32 49
REMARK H PARENT 39 24 32 50
REMARK Flexibility Score: 90.00
ROOT
ATOM      1  C   UNL     1      98.823  76.276  79.998  1.00  0.00     0.264 C 
ENDROOT
BRANCH   1   2
ATOM      2  C   UNL     1      99.456  77.358  79.155  1.00  0.00    -0.033 C 
ATOM      3  C   UNL     1      99.007  78.625  79.263  1.00  0.00    -0.015 C 
BRANCH   3   4
ATOM      4  C   UNL     1      99.416  79.863  78.482  1.00  0.00     0.078 C 
ATOM      5  O   UNL     1     101.206  80.974  79.778  1.00  0.00    -0.319 OA
ATOM      6  C   UNL     1     100.928  80.301  78.512  1.00  0.00     0.095 C 
ATOM      7  C   UNL     1     100.196  81.901  80.219  1.00  0.00     0.289 C 
ATOM      8  C   UNL     1     101.156  81.318  77.318  1.00  0.00     0.023 C 
ATOM      9  O   UNL     1      98.929  81.261  80.348  1.00  0.00    -0.320 OA
ATOM     10  O   UNL     1      99.998  82.966  79.293  1.00  0.00    -0.313 OA
ATOM     11  C   UNL     1      98.594  81.084  78.962  1.00  0.00     0.170 C 
ATOM     12  C   UNL     1      99.884  82.180  77.050  1.00  0.00     0.049 C 
ATOM     13  C   UNL     1     102.378  82.241  77.461  1.00  0.00     0.011 C 
ATOM     14  C   UNL     1      99.079  82.412  78.329  1.00  0.00     0.122 C 
BRANCH   6  15
ATOM     15  C   UNL     1     101.863  79.058  78.518  1.00  0.00     0.086 C 
ATOM     16  C   UNL     1     101.475  77.910  77.563  1.00  0.00     0.140 CG0
ATOM     17  C   UNL     1     103.334  79.240  78.266  1.00  0.00    -0.010 C 
ATOM     18  C   UNL     1     102.824  77.366  77.142  1.00  0.00     0.190 C 
ATOM     19  G   UNL     1     100.607  76.856  78.249  1.00  0.00     0.000 G0
ATOM     20  C   UNL     1     103.909  78.292  77.520  1.00  0.00    -0.008 C 
ATOM     21  O   UNL     1     103.008  76.327  76.526  1.00  0.00    -0.291 OA
ATOM     22  C   UNL     1     105.325  78.104  77.144  1.00  0.00     0.048 C 
BRANCH  16  23
ATOM     23  O   UNL     1     100.892  78.348  76.347  1.00  0.00    -0.381 OA
ATOM     24  H   UNL     1     101.529  78.195  75.629  1.00  0.00     0.212 HD
ENDBRANCH  16  23
ENDBRANCH   6  15
BRANCH   7  25
ATOM     25  C   UNL     1     100.622  82.467  81.559  1.00  0.00     0.135 C 
BRANCH  25  26
ATOM     26  C   UNL     1      99.616  82.171  82.643  1.00  0.00    -0.040 A 
ATOM     27  C   UNL     1      98.440  82.918  82.726  1.00  0.00     0.004 A 
ATOM     28  C   UNL     1      99.860  81.151  83.562  1.00  0.00     0.004 A 
ATOM     29  C   UNL     1      97.509  82.644  83.728  1.00  0.00     0.000 A 
ATOM     30  C   UNL     1      98.929  80.878  84.565  1.00  0.00     0.000 A 
ATOM     31  C   UNL     1      97.754  81.625  84.648  1.00  0.00     0.000 A 
ENDBRANCH  25  26
ENDBRANCH   7  25
BRANCH  14  32
ATOM     32  C   UNL     1      97.960  83.383  78.135  1.00  0.00    -0.046 C 
ATOM     33  C   UNL     1      97.051  83.590  79.310  1.00  0.00     0.042 C 
ATOM     34  C   UNL     1      97.777  84.032  76.975  1.00  0.00     0.010 C 
ENDBRANCH  14  32
ENDBRANCH   3   4
BRANCH   2  35
ATOM     35  C   UNL     1     100.570  76.843  78.264  1.00  0.00     0.078 CG0
ATOM     36  G   UNL     1     101.460  77.883  77.585  1.00  0.00     0.000 G0
ENDBRANCH   2  35
ENDBRANCH   1   2
BRANCH   1  37
ATOM     37  O   UNL     1      98.601  76.770  81.302  1.00  0.00    -0.461 OA
BRANCH  37  38
ATOM     38  C   UNL     1      99.508  76.384  82.261  1.00  0.00     0.310 C 
ATOM     39  O   UNL     1      99.938  75.248  82.405  1.00  0.00    -0.252 OA
BRANCH  38  40
ATOM     40  C   UNL     1      99.888  77.578  83.105  1.00  0.00     0.158 C 
BRANCH  40  41
ATOM     41  C   UNL     1     101.353  77.920  83.015  1.00  0.00    -0.033 A 
ATOM     42  C   UNL     1     102.005  78.492  84.109  1.00  0.00     0.054 A 
ATOM     43  C   UNL     1     102.059  77.663  81.840  1.00  0.00     0.008 A 
ATOM     44  C   UNL     1     103.361  78.808  84.025  1.00  0.00     0.160 A 
ATOM     45  C   UNL     1     103.415  77.979  81.756  1.00  0.00     0.050 A 
ATOM     46  C   UNL     1     104.066  78.551  82.849  1.00  0.00     0.157 A 
BRANCH  44  47
ATOM     47  O   UNL     1     103.985  79.367  85.099  1.00  0.00    -0.493 OA
ATOM     48  C   UNL     1     103.965  80.790  85.193  1.00  0.00     0.278 C 
ENDBRANCH  44  47
BRANCH  46  49
ATOM     49  O   UNL     1     105.390  78.854  82.756  1.00  0.00    -0.504 OA
ATOM     50  H   UNL     1     105.884  78.050  82.521  1.00  0.00     0.293 HD
ENDBRANCH  46  49
ENDBRANCH  40  41
ENDBRANCH  38  40
ENDBRANCH  37  38
ENDBRANCH   1  37
TORSDOF 11
ENDMDL
MODEL 10
REMARK VINA RESULT:    -4.993     10.220     15.141
REMARK INTER + INTRA:         -10.855
REMARK INTER:                  -9.013
REMARK INTRA:                  -1.842
REMARK UNBOUND:                -2.068
REMARK SMILES C=C(C)[C@]12C[C@@H](C)[C@@]34O[C@](Cc5ccccc5)(O[C@@H]1[C@@H]3C=C(COC(=O)Cc1ccc(O)c(OC)c1)C[C@]1(O)C(=O)C(C)=C[C@@H]41)O2
REMARK SMILES IDX 23 1 22 2 21 3 20 4 9 5 8 6 10 7 6 8 18 9 46 10 19 11 5 12
REMARK SMILES IDX 7 13 4 14 45 15 38 16 44 17 40 18 42 20 41 21 43 22 39 23
REMARK SMILES IDX 11 25 12 26 13 27 17 28 14 29 16 30 15 31 2 32 3 33 1 34
REMARK SMILES IDX 37 35 24 37 25 38 26 39 27 40 28 41 36 42 29 43 33 44 30 45
REMARK SMILES IDX 31 46 34 47 35 48 32 49
REMARK H PARENT 39 24 32 50
REMARK Flexibility Score: 90.00
ROOT
ATOM      1  C   UNL     1      71.270  92.340  74.874  1.00  0.00     0.264 C 
ENDROOT
BRANCH   1   2
ATOM      2  C   UNL     1      72.667  92.463  75.435  1.00  0.00    -0.033 C 
ATOM      3  C   UNL     1      73.673  92.844  74.622  1.00  0.00    -0.015 C 
BRANCH   3   4
ATOM      4  C   UNL     1      75.159  92.966  74.917  1.00  0.00     0.078 C 
ATOM      5  O   UNL     1      75.564  95.304  75.618  1.00  0.00    -0.319 OA
ATOM      6  C   UNL     1      75.614  93.920  76.084  1.00  0.00     0.095 C 
ATOM      7  C   UNL     1      76.072  95.526  74.289  1.00  0.00     0.289 C 
ATOM      8  C   UNL     1      77.109  93.546  76.454  1.00  0.00     0.023 C 
ATOM      9  O   UNL     1      75.379  94.730  73.331  1.00  0.00    -0.320 OA
ATOM     10  O   UNL     1      77.445  95.165  74.167  1.00  0.00    -0.313 OA
ATOM     11  C   UNL     1      75.911  93.434  73.647  1.00  0.00     0.170 C 
ATOM     12  C   UNL     1      77.906  93.071  75.200  1.00  0.00     0.049 C 
ATOM     13  C   UNL     1      77.904  94.645  77.179  1.00  0.00     0.011 C 
ATOM     14  C   UNL     1      77.404  93.744  73.922  1.00  0.00     0.122 C 
BRANCH   6  15
ATOM     15  C   UNL     1      74.601  93.871  77.264  1.00  0.00     0.086 C 
ATOM     16  C   UNL     1      74.069  92.473  77.645  1.00  0.00     0.140 CG0
ATOM     17  C   UNL     1      74.982  94.472  78.588  1.00  0.00    -0.010 C 
ATOM     18  C   UNL     1      73.901  92.586  79.146  1.00  0.00     0.190 C 
ATOM     19  G   UNL     1      72.758  92.141  76.933  1.00  0.00     0.000 G0
ATOM     20  C   UNL     1      74.580  93.789  79.665  1.00  0.00    -0.008 C 
ATOM     21  O   UNL     1      73.329  91.775  79.858  1.00  0.00    -0.291 OA
ATOM     22  C   UNL     1      74.701  94.117  81.100  1.00  0.00     0.048 C 
BRANCH  16  23
ATOM     23  O   UNL     1      75.021  91.434  77.488  1.00  0.00    -0.381 OA
ATOM     24  H   UNL     1      75.666  91.497  78.212  1.00  0.00     0.212 HD
ENDBRANCH  16  23
ENDBRANCH   6  15
BRANCH   7  25
ATOM     25  C   UNL     1      75.903  96.994  73.954  1.00  0.00     0.135 C 
BRANCH  25  26
ATOM     26  C   UNL     1      76.555  97.353  72.642  1.00  0.00    -0.040 A 
ATOM     27  C   UNL     1      75.997  96.913  71.442  1.00  0.00     0.004 A 
ATOM     28  C   UNL     1      77.716  98.127  72.629  1.00  0.00     0.004 A 
ATOM     29  C   UNL     1      76.600  97.245  70.228  1.00  0.00     0.000 A 
ATOM     30  C   UNL     1      78.319  98.459  71.415  1.00  0.00     0.000 A 
ATOM     31  C   UNL     1      77.761  98.017  70.215  1.00  0.00     0.000 A 
ENDBRANCH  25  26
ENDBRANCH   7  25
BRANCH  14  32
ATOM     32  C   UNL     1      78.266  93.446  72.739  1.00  0.00    -0.046 C 
ATOM     33  C   UNL     1      78.878  94.629  72.050  1.00  0.00     0.042 C 
ATOM     34  C   UNL     1      78.481  92.191  72.316  1.00  0.00     0.010 C 
ENDBRANCH  14  32
ENDBRANCH   3   4
BRANCH   2  35
ATOM     35  C   UNL     1      72.747  92.130  76.913  1.00  0.00     0.078 CG0
ATOM     36  G   UNL     1      74.048  92.472  77.638  1.00  0.00     0.000 G0
ENDBRANCH   2  35
ENDBRANCH   1   2
BRANCH   1  37
ATOM     37  O   UNL     1      71.267  92.770  73.530  1.00  0.00    -0.461 OA
BRANCH  37  38
ATOM     38  C   UNL     1      70.692  91.914  72.619  1.00  0.00     0.310 C 
ATOM     39  O   UNL     1      69.689  91.244  72.821  1.00  0.00    -0.252 OA
BRANCH  38  40
ATOM     40  C   UNL     1      71.490  91.932  71.337  1.00  0.00     0.158 C 
BRANCH  40  41
ATOM     41  C   UNL     1      72.401  90.740  71.195  1.00  0.00    -0.033 A 
ATOM     42  C   UNL     1      71.897  89.530  70.717  1.00  0.00     0.054 A 
ATOM     43  C   UNL     1      73.748  90.847  71.540  1.00  0.00     0.008 A 
ATOM     44  C   UNL     1      72.740  88.427  70.585  1.00  0.00     0.160 A 
ATOM     45  C   UNL     1      74.592  89.743  71.408  1.00  0.00     0.050 A 
ATOM     46  C   UNL     1      74.088  88.533  70.932  1.00  0.00     0.157 A 
BRANCH  44  47
ATOM     47  O   UNL     1      72.236  87.250  70.119  1.00  0.00    -0.493 OA
ATOM     48  C   UNL     1      72.311  87.026  68.712  1.00  0.00     0.278 C 
ENDBRANCH  44  47
BRANCH  46  49
ATOM     49  O   UNL     1      74.921  87.463  70.806  1.00  0.00    -0.504 OA
ATOM     50  H   UNL     1      74.875  87.131  69.894  1.00  0.00     0.293 HD
ENDBRANCH  46  49
ENDBRANCH  40  41
ENDBRANCH  38  40
ENDBRANCH  37  38
ENDBRANCH   1  37
TORSDOF 11
ENDMDL
