MODEL 1
REMARK VINA RESULT:    -6.380      0.000      0.000
REMARK INTER + INTRA:         -11.159
REMARK INTER:                  -9.923
REMARK INTRA:                  -1.236
REMARK UNBOUND:                -1.236
REMARK SMILES COc1cc(CNC(=O)CCCC/C=C/C(C)C)ccc1O
REMARK SMILES IDX 10 1 8 2 7 3 9 5 6 6 5 7 3 8 21 9 4 10 20 11 19 12 2 13 1 14
REMARK SMILES IDX 22 15 11 17 12 18 13 19 14 20 15 21 16 22 17 23 18 24
REMARK H PARENT 7 4 22 16
REMARK Flexibility Score: inf
ROOT
ATOM      1  C   UNL     1      95.575  97.330  74.098  1.00  0.00     0.100 C 
ENDROOT
BRANCH   1   2
ATOM      2  C   UNL     1      96.250  97.414  75.408  1.00  0.00     0.220 C 
ATOM      3  N   UNL     1      96.342  96.316  76.210  1.00  0.00    -0.352 N 
ATOM      4  H   UNL     1      95.900  95.483  75.845  1.00  0.00     0.163 HD
ATOM      5  O   UNL     1      96.753  98.513  75.745  1.00  0.00    -0.275 OA
BRANCH   3   6
ATOM      6  C   UNL     1      97.000  96.285  77.477  1.00  0.00     0.151 C 
BRANCH   6   7
ATOM      7  C   UNL     1      96.437  95.227  78.359  1.00  0.00    -0.025 A 
ATOM      8  C   UNL     1      96.642  93.770  80.333  1.00  0.00     0.160 A 
ATOM      9  C   UNL     1      95.370  93.223  80.063  1.00  0.00     0.157 A 
ATOM     10  C   UNL     1      97.164  94.764  79.479  1.00  0.00     0.056 A 
ATOM     11  C   UNL     1      94.643  93.661  78.939  1.00  0.00     0.050 A 
ATOM     12  C   UNL     1      95.167  94.662  78.098  1.00  0.00     0.009 A 
BRANCH   8  13
ATOM     13  O   UNL     1      97.382  93.300  81.388  1.00  0.00    -0.493 OA
ATOM     14  C   UNL     1      98.406  94.208  81.837  1.00  0.00     0.278 C 
ENDBRANCH   8  13
BRANCH   9  15
ATOM     15  O   UNL     1      94.833  92.275  80.873  1.00  0.00    -0.504 OA
ATOM     16  H   UNL     1      94.016  91.950  80.489  1.00  0.00     0.293 HD
ENDBRANCH   9  15
ENDBRANCH   6   7
ENDBRANCH   3   6
ENDBRANCH   1   2
BRANCH   1  17
ATOM     17  C   UNL     1      94.039  97.503  74.233  1.00  0.00     0.010 C 
BRANCH  17  18
ATOM     18  C   UNL     1      93.320  96.198  74.678  1.00  0.00     0.005 C 
BRANCH  18  19
ATOM     19  C   UNL     1      92.806  96.276  76.141  1.00  0.00     0.027 C 
BRANCH  19  20
ATOM     20  C   UNL     1      91.774  95.286  76.412  1.00  0.00    -0.031 C 
ATOM     21  C   UNL     1      91.870  93.985  76.084  1.00  0.00    -0.028 C 
BRANCH  21  22
ATOM     22  C   UNL     1      90.827  93.004  76.384  1.00  0.00     0.005 C 
ATOM     23  C   UNL     1      91.046  91.663  75.630  1.00  0.00     0.012 C 
ATOM     24  C   UNL     1      90.736  92.769  77.914  1.00  0.00     0.012 C 
ENDBRANCH  21  22
ENDBRANCH  19  20
ENDBRANCH  18  19
ENDBRANCH  17  18
ENDBRANCH   1  17
TORSDOF 10
ENDMDL
MODEL 2
REMARK VINA RESULT:    -6.022      2.578      3.687
REMARK INTER + INTRA:         -10.602
REMARK INTER:                  -9.744
REMARK INTRA:                  -0.858
REMARK UNBOUND:                -1.236
REMARK SMILES COc1cc(CNC(=O)CCCC/C=C/C(C)C)ccc1O
REMARK SMILES IDX 10 1 8 2 7 3 9 5 6 6 5 7 3 8 21 9 4 10 20 11 19 12 2 13 1 14
REMARK SMILES IDX 22 15 11 17 12 18 13 19 14 20 15 21 16 22 17 23 18 24
REMARK H PARENT 7 4 22 16
REMARK Flexibility Score: inf
ROOT
ATOM      1  C   UNL     1      94.694  93.916  76.881  1.00  0.00     0.100 C 
ENDROOT
BRANCH   1   2
ATOM      2  C   UNL     1      95.416  93.465  78.086  1.00  0.00     0.220 C 
ATOM      3  N   UNL     1      95.085  93.953  79.314  1.00  0.00    -0.352 N 
ATOM      4  H   UNL     1      94.345  94.642  79.314  1.00  0.00     0.163 HD
ATOM      5  O   UNL     1      96.321  92.606  77.947  1.00  0.00    -0.275 OA
BRANCH   3   6
ATOM      6  C   UNL     1      95.698  93.558  80.541  1.00  0.00     0.151 C 
BRANCH   6   7
ATOM      7  C   UNL     1      96.430  94.689  81.175  1.00  0.00    -0.025 A 
ATOM      8  C   UNL     1      98.513  95.630  82.090  1.00  0.00     0.160 A 
ATOM      9  C   UNL     1      97.846  96.841  82.366  1.00  0.00     0.157 A 
ATOM     10  C   UNL     1      97.800  94.565  81.500  1.00  0.00     0.056 A 
ATOM     11  C   UNL     1      96.476  96.972  82.065  1.00  0.00     0.050 A 
ATOM     12  C   UNL     1      95.775  95.908  81.465  1.00  0.00     0.009 A 
BRANCH   8  13
ATOM     13  O   UNL     1      99.830  95.475  82.441  1.00  0.00    -0.493 OA
ATOM     14  C   UNL     1     100.026  94.889  83.741  1.00  0.00     0.278 C 
ENDBRANCH   8  13
BRANCH   9  15
ATOM     15  O   UNL     1      98.507  97.890  82.921  1.00  0.00    -0.504 OA
ATOM     16  H   UNL     1      98.117  98.712  82.616  1.00  0.00     0.293 HD
ENDBRANCH   9  15
ENDBRANCH   6   7
ENDBRANCH   3   6
ENDBRANCH   1   2
BRANCH   1  17
ATOM     17  C   UNL     1      94.074  95.326  77.079  1.00  0.00     0.010 C 
BRANCH  17  18
ATOM     18  C   UNL     1      92.856  95.588  76.149  1.00  0.00     0.005 C 
BRANCH  18  19
ATOM     19  C   UNL     1      91.506  95.529  76.913  1.00  0.00     0.027 C 
BRANCH  19  20
ATOM     20  C   UNL     1      90.691  94.397  76.498  1.00  0.00    -0.031 C 
ATOM     21  C   UNL     1      91.190  93.214  76.093  1.00  0.00    -0.028 C 
BRANCH  21  22
ATOM     22  C   UNL     1      90.351  92.083  75.698  1.00  0.00     0.005 C 
ATOM     23  C   UNL     1      91.131  91.039  74.851  1.00  0.00     0.012 C 
ATOM     24  C   UNL     1      89.722  91.419  76.951  1.00  0.00     0.012 C 
ENDBRANCH  21  22
ENDBRANCH  19  20
ENDBRANCH  18  19
ENDBRANCH  17  18
ENDBRANCH   1  17
TORSDOF 10
ENDMDL
MODEL 3
REMARK VINA RESULT:    -5.889     21.933     25.997
REMARK INTER + INTRA:         -10.396
REMARK INTER:                  -9.100
REMARK INTRA:                  -1.295
REMARK UNBOUND:                -1.236
REMARK SMILES COc1cc(CNC(=O)CCCC/C=C/C(C)C)ccc1O
REMARK SMILES IDX 10 1 8 2 7 3 9 5 6 6 5 7 3 8 21 9 4 10 20 11 19 12 2 13 1 14
REMARK SMILES IDX 22 15 11 17 12 18 13 19 14 20 15 21 16 22 17 23 18 24
REMARK H PARENT 7 4 22 16
REMARK Flexibility Score: inf
ROOT
ATOM      1  C   UNL     1      69.808  84.480  67.318  1.00  0.00     0.100 C 
ENDROOT
BRANCH   1   2
ATOM      2  C   UNL     1      70.606  85.252  68.290  1.00  0.00     0.220 C 
ATOM      3  N   UNL     1      71.641  86.032  67.869  1.00  0.00    -0.352 N 
ATOM      4  H   UNL     1      71.815  86.011  66.874  1.00  0.00     0.163 HD
ATOM      5  O   UNL     1      70.290  85.186  69.502  1.00  0.00    -0.275 OA
BRANCH   3   6
ATOM      6  C   UNL     1      72.452  86.841  68.723  1.00  0.00     0.151 C 
BRANCH   6   7
ATOM      7  C   UNL     1      73.895  86.499  68.590  1.00  0.00    -0.025 A 
ATOM      8  C   UNL     1      76.106  86.944  67.603  1.00  0.00     0.160 A 
ATOM      9  C   UNL     1      76.651  85.872  68.341  1.00  0.00     0.157 A 
ATOM     10  C   UNL     1      74.734  87.245  67.733  1.00  0.00     0.056 A 
ATOM     11  C   UNL     1      75.823  85.107  69.184  1.00  0.00     0.050 A 
ATOM     12  C   UNL     1      74.456  85.423  69.316  1.00  0.00     0.009 A 
BRANCH   8  13
ATOM     13  O   UNL     1      76.894  87.650  66.731  1.00  0.00    -0.493 OA
ATOM     14  C   UNL     1      77.104  89.023  67.110  1.00  0.00     0.278 C 
ENDBRANCH   8  13
BRANCH   9  15
ATOM     15  O   UNL     1      77.971  85.564  68.249  1.00  0.00    -0.504 OA
ATOM     16  H   UNL     1      78.071  84.620  68.108  1.00  0.00     0.293 HD
ENDBRANCH   9  15
ENDBRANCH   6   7
ENDBRANCH   3   6
ENDBRANCH   1   2
BRANCH   1  17
ATOM     17  C   UNL     1      70.709  83.765  66.276  1.00  0.00     0.010 C 
BRANCH  17  18
ATOM     18  C   UNL     1      70.157  82.376  65.849  1.00  0.00     0.005 C 
BRANCH  18  19
ATOM     19  C   UNL     1      71.093  81.651  64.845  1.00  0.00     0.027 C 
BRANCH  19  20
ATOM     20  C   UNL     1      72.472  82.100  64.961  1.00  0.00    -0.031 C 
ATOM     21  C   UNL     1      73.472  81.351  65.461  1.00  0.00    -0.028 C 
BRANCH  21  22
ATOM     22  C   UNL     1      74.856  81.817  65.549  1.00  0.00     0.005 C 
ATOM     23  C   UNL     1      75.602  81.708  64.190  1.00  0.00     0.012 C 
ATOM     24  C   UNL     1      74.900  83.270  66.089  1.00  0.00     0.012 C 
ENDBRANCH  21  22
ENDBRANCH  19  20
ENDBRANCH  18  19
ENDBRANCH  17  18
ENDBRANCH   1  17
TORSDOF 10
ENDMDL
MODEL 4
REMARK VINA RESULT:    -5.871      8.365     12.016
REMARK INTER + INTRA:         -10.368
REMARK INTER:                  -8.717
REMARK INTRA:                  -1.651
REMARK UNBOUND:                -1.236
REMARK SMILES COc1cc(CNC(=O)CCCC/C=C/C(C)C)ccc1O
REMARK SMILES IDX 10 1 8 2 7 3 9 5 6 6 5 7 3 8 21 9 4 10 20 11 19 12 2 13 1 14
REMARK SMILES IDX 22 15 11 17 12 18 13 19 14 20 15 21 16 22 17 23 18 24
REMARK H PARENT 7 4 22 16
REMARK Flexibility Score: inf
ROOT
ATOM      1  C   UNL     1      88.115  99.283  66.238  1.00  0.00     0.100 C 
ENDROOT
BRANCH   1   2
ATOM      2  C   UNL     1      89.080  98.795  67.243  1.00  0.00     0.220 C 
ATOM      3  N   UNL     1      88.709  98.657  68.547  1.00  0.00    -0.352 N 
ATOM      4  H   UNL     1      87.759  98.933  68.752  1.00  0.00     0.163 HD
ATOM      5  O   UNL     1      90.235  98.492  66.857  1.00  0.00    -0.275 OA
BRANCH   3   6
ATOM      6  C   UNL     1      89.555  98.165  69.587  1.00  0.00     0.151 C 
BRANCH   6   7
ATOM      7  C   UNL     1      90.244  99.274  70.301  1.00  0.00    -0.025 A 
ATOM      8  C   UNL     1      92.208 100.127  71.517  1.00  0.00     0.160 A 
ATOM      9  C   UNL     1      91.582 101.384  71.649  1.00  0.00     0.157 A 
ATOM     10  C   UNL     1      91.533  99.085  70.848  1.00  0.00     0.056 A 
ATOM     11  C   UNL     1      90.288 101.582  71.126  1.00  0.00     0.050 A 
ATOM     12  C   UNL     1      89.627 100.539  70.449  1.00  0.00     0.009 A 
BRANCH   8  13
ATOM     13  O   UNL     1      93.439  99.910  72.082  1.00  0.00    -0.493 OA
ATOM     14  C   UNL     1      93.431  98.956  73.160  1.00  0.00     0.278 C 
ENDBRANCH   8  13
BRANCH   9  15
ATOM     15  O   UNL     1      92.209 102.412  72.276  1.00  0.00    -0.504 OA
ATOM     16  H   UNL     1      93.132 102.432  72.015  1.00  0.00     0.293 HD
ENDBRANCH   9  15
ENDBRANCH   6   7
ENDBRANCH   3   6
ENDBRANCH   1   2
BRANCH   1  17
ATOM     17  C   UNL     1      87.067 100.240  66.867  1.00  0.00     0.010 C 
BRANCH  17  18
ATOM     18  C   UNL     1      87.155 101.687  66.306  1.00  0.00     0.005 C 
BRANCH  18  19
ATOM     19  C   UNL     1      88.225 102.541  67.038  1.00  0.00     0.027 C 
BRANCH  19  20
ATOM     20  C   UNL     1      89.546 102.383  66.451  1.00  0.00    -0.031 C 
ATOM     21  C   UNL     1      90.653 102.073  67.151  1.00  0.00    -0.028 C 
BRANCH  21  22
ATOM     22  C   UNL     1      91.969 101.900  66.536  1.00  0.00     0.005 C 
ATOM     23  C   UNL     1      91.897 101.101  65.205  1.00  0.00     0.012 C 
ATOM     24  C   UNL     1      92.644 103.279  66.318  1.00  0.00     0.012 C 
ENDBRANCH  21  22
ENDBRANCH  19  20
ENDBRANCH  18  19
ENDBRANCH  17  18
ENDBRANCH   1  17
TORSDOF 10
ENDMDL
MODEL 5
REMARK VINA RESULT:    -5.788      3.411      5.281
REMARK INTER + INTRA:         -10.239
REMARK INTER:                  -9.682
REMARK INTRA:                  -0.556
REMARK UNBOUND:                -1.236
REMARK SMILES COc1cc(CNC(=O)CCCC/C=C/C(C)C)ccc1O
REMARK SMILES IDX 10 1 8 2 7 3 9 5 6 6 5 7 3 8 21 9 4 10 20 11 19 12 2 13 1 14
REMARK SMILES IDX 22 15 11 17 12 18 13 19 14 20 15 21 16 22 17 23 18 24
REMARK H PARENT 7 4 22 16
REMARK Flexibility Score: inf
ROOT
ATOM      1  C   UNL     1      94.489  93.287  78.458  1.00  0.00     0.100 C 
ENDROOT
BRANCH   1   2
ATOM      2  C   UNL     1      95.043  93.501  79.808  1.00  0.00     0.220 C 
ATOM      3  N   UNL     1      95.579  94.706  80.153  1.00  0.00    -0.352 N 
ATOM      4  H   UNL     1      95.581  95.398  79.416  1.00  0.00     0.163 HD
ATOM      5  O   UNL     1      94.984  92.554  80.630  1.00  0.00    -0.275 OA
BRANCH   3   6
ATOM      6  C   UNL     1      96.110  95.024  81.439  1.00  0.00     0.151 C 
BRANCH   6   7
ATOM      7  C   UNL     1      96.783  96.352  81.440  1.00  0.00    -0.025 A 
ATOM      8  C   UNL     1      96.687  98.786  81.796  1.00  0.00     0.160 A 
ATOM      9  C   UNL     1      98.054  98.889  81.465  1.00  0.00     0.157 A 
ATOM     10  C   UNL     1      96.064  97.520  81.778  1.00  0.00     0.056 A 
ATOM     11  C   UNL     1      98.778  97.735  81.106  1.00  0.00     0.050 A 
ATOM     12  C   UNL     1      98.151  96.474  81.103  1.00  0.00     0.009 A 
BRANCH   8  13
ATOM     13  O   UNL     1      95.961  99.915  82.082  1.00  0.00    -0.493 OA
ATOM     14  C   UNL     1      95.872 100.215  83.487  1.00  0.00     0.278 C 
ENDBRANCH   8  13
BRANCH   9  15
ATOM     15  O   UNL     1      98.686 100.091  81.485  1.00  0.00    -0.504 OA
ATOM     16  H   UNL     1      99.561  99.999  81.100  1.00  0.00     0.293 HD
ENDBRANCH   9  15
ENDBRANCH   6   7
ENDBRANCH   3   6
ENDBRANCH   1   2
BRANCH   1  17
ATOM     17  C   UNL     1      93.060  93.877  78.325  1.00  0.00     0.010 C 
BRANCH  17  18
ATOM     18  C   UNL     1      92.331  93.414  77.032  1.00  0.00     0.005 C 
BRANCH  18  19
ATOM     19  C   UNL     1      90.903  92.876  77.319  1.00  0.00     0.027 C 
BRANCH  19  20
ATOM     20  C   UNL     1      90.428  91.995  76.263  1.00  0.00    -0.031 C 
ATOM     21  C   UNL     1      91.172  91.605  75.212  1.00  0.00    -0.028 C 
BRANCH  21  22
ATOM     22  C   UNL     1      90.680  90.702  74.172  1.00  0.00     0.005 C 
ATOM     23  C   UNL     1      90.854  89.207  74.558  1.00  0.00     0.012 C 
ATOM     24  C   UNL     1      89.198  91.019  73.844  1.00  0.00     0.012 C 
ENDBRANCH  21  22
ENDBRANCH  19  20
ENDBRANCH  18  19
ENDBRANCH  17  18
ENDBRANCH   1  17
TORSDOF 10
ENDMDL
MODEL 6
REMARK VINA RESULT:    -5.771      2.529      3.901
REMARK INTER + INTRA:         -10.212
REMARK INTER:                  -9.302
REMARK INTRA:                  -0.911
REMARK UNBOUND:                -1.236
REMARK SMILES COc1cc(CNC(=O)CCCC/C=C/C(C)C)ccc1O
REMARK SMILES IDX 10 1 8 2 7 3 9 5 6 6 5 7 3 8 21 9 4 10 20 11 19 12 2 13 1 14
REMARK SMILES IDX 22 15 11 17 12 18 13 19 14 20 15 21 16 22 17 23 18 24
REMARK H PARENT 7 4 22 16
REMARK Flexibility Score: inf
ROOT
ATOM      1  C   UNL     1      94.824  93.956  76.779  1.00  0.00     0.100 C 
ENDROOT
BRANCH   1   2
ATOM      2  C   UNL     1      95.380  93.430  78.040  1.00  0.00     0.220 C 
ATOM      3  N   UNL     1      94.939  93.902  79.240  1.00  0.00    -0.352 N 
ATOM      4  H   UNL     1      94.242  94.632  79.181  1.00  0.00     0.163 HD
ATOM      5  O   UNL     1      96.248  92.526  77.974  1.00  0.00    -0.275 OA
BRANCH   3   6
ATOM      6  C   UNL     1      95.388  93.438  80.514  1.00  0.00     0.151 C 
BRANCH   6   7
ATOM      7  C   UNL     1      96.425  94.338  81.088  1.00  0.00    -0.025 A 
ATOM      8  C   UNL     1      97.030  96.434  82.230  1.00  0.00     0.160 A 
ATOM      9  C   UNL     1      98.389  96.056  82.205  1.00  0.00     0.157 A 
ATOM     10  C   UNL     1      96.063  95.573  81.670  1.00  0.00     0.056 A 
ATOM     11  C   UNL     1      98.768  94.837  81.610  1.00  0.00     0.050 A 
ATOM     12  C   UNL     1      97.793  93.979  81.064  1.00  0.00     0.009 A 
BRANCH   8  13
ATOM     13  O   UNL     1      96.663  97.650  82.748  1.00  0.00    -0.493 OA
ATOM     14  C   UNL     1      96.455  98.672  81.756  1.00  0.00     0.278 C 
ENDBRANCH   8  13
BRANCH   9  15
ATOM     15  O   UNL     1      99.344  96.856  82.747  1.00  0.00    -0.504 OA
ATOM     16  H   UNL     1      99.584  97.540  82.117  1.00  0.00     0.293 HD
ENDBRANCH   9  15
ENDBRANCH   6   7
ENDBRANCH   3   6
ENDBRANCH   1   2
BRANCH   1  17
ATOM     17  C   UNL     1      94.373  95.434  76.924  1.00  0.00     0.010 C 
BRANCH  17  18
ATOM     18  C   UNL     1      93.068  95.749  76.139  1.00  0.00     0.005 C 
BRANCH  18  19
ATOM     19  C   UNL     1      91.798  95.586  77.016  1.00  0.00     0.027 C 
BRANCH  19  20
ATOM     20  C   UNL     1      91.047  94.387  76.675  1.00  0.00    -0.031 C 
ATOM     21  C   UNL     1      91.515  93.135  76.822  1.00  0.00    -0.028 C 
BRANCH  21  22
ATOM     22  C   UNL     1      90.735  91.943  76.491  1.00  0.00     0.005 C 
ATOM     23  C   UNL     1      89.477  91.793  77.391  1.00  0.00     0.012 C 
ATOM     24  C   UNL     1      90.343  91.958  74.990  1.00  0.00     0.012 C 
ENDBRANCH  21  22
ENDBRANCH  19  20
ENDBRANCH  18  19
ENDBRANCH  17  18
ENDBRANCH   1  17
TORSDOF 10
ENDMDL
MODEL 7
REMARK VINA RESULT:    -5.689     12.584     15.133
REMARK INTER + INTRA:         -10.084
REMARK INTER:                  -9.236
REMARK INTRA:                  -0.848
REMARK UNBOUND:                -1.236
REMARK SMILES COc1cc(CNC(=O)CCCC/C=C/C(C)C)ccc1O
REMARK SMILES IDX 10 1 8 2 7 3 9 5 6 6 5 7 3 8 21 9 4 10 20 11 19 12 2 13 1 14
REMARK SMILES IDX 22 15 11 17 12 18 13 19 14 20 15 21 16 22 17 23 18 24
REMARK H PARENT 7 4 22 16
REMARK Flexibility Score: inf
ROOT
ATOM      1  C   UNL     1      97.015  82.086  78.486  1.00  0.00     0.100 C 
ENDROOT
BRANCH   1   2
ATOM      2  C   UNL     1      96.542  82.085  77.088  1.00  0.00     0.220 C 
ATOM      3  N   UNL     1      96.806  83.140  76.268  1.00  0.00    -0.352 N 
ATOM      4  H   UNL     1      97.314  83.900  76.700  1.00  0.00     0.163 HD
ATOM      5  O   UNL     1      95.914  81.080  76.676  1.00  0.00    -0.275 OA
BRANCH   3   6
ATOM      6  C   UNL     1      96.421  83.223  74.895  1.00  0.00     0.151 C 
BRANCH   6   7
ATOM      7  C   UNL     1      97.503  82.740  73.995  1.00  0.00    -0.025 A 
ATOM      8  C   UNL     1      98.507  80.940  72.647  1.00  0.00     0.160 A 
ATOM      9  C   UNL     1      99.548  81.809  72.260  1.00  0.00     0.157 A 
ATOM     10  C   UNL     1      97.497  81.412  73.511  1.00  0.00     0.056 A 
ATOM     11  C   UNL     1      99.579  83.130  72.750  1.00  0.00     0.050 A 
ATOM     12  C   UNL     1      98.560  83.596  73.603  1.00  0.00     0.009 A 
BRANCH   8  13
ATOM     13  O   UNL     1      98.508  79.635  72.225  1.00  0.00    -0.493 OA
ATOM     14  C   UNL     1      97.524  79.343  71.216  1.00  0.00     0.278 C 
ENDBRANCH   8  13
BRANCH   9  15
ATOM     15  O   UNL     1     100.529  81.390  71.420  1.00  0.00    -0.504 OA
ATOM     16  H   UNL     1     101.383  81.494  71.845  1.00  0.00     0.293 HD
ENDBRANCH   9  15
ENDBRANCH   6   7
ENDBRANCH   3   6
ENDBRANCH   1   2
BRANCH   1  17
ATOM     17  C   UNL     1      98.411  81.420  78.618  1.00  0.00     0.010 C 
BRANCH  17  18
ATOM     18  C   UNL     1      98.633  80.750  80.003  1.00  0.00     0.005 C 
BRANCH  18  19
ATOM     19  C   UNL     1      97.356  80.039  80.527  1.00  0.00     0.027 C 
BRANCH  19  20
ATOM     20  C   UNL     1      96.931  80.558  81.818  1.00  0.00    -0.031 C 
ATOM     21  C   UNL     1      96.680  81.857  82.064  1.00  0.00    -0.028 C 
BRANCH  21  22
ATOM     22  C   UNL     1      96.234  82.355  83.365  1.00  0.00     0.005 C 
ATOM     23  C   UNL     1      95.942  83.881  83.344  1.00  0.00     0.012 C 
ATOM     24  C   UNL     1      94.991  81.561  83.846  1.00  0.00     0.012 C 
ENDBRANCH  21  22
ENDBRANCH  19  20
ENDBRANCH  18  19
ENDBRANCH  17  18
ENDBRANCH   1  17
TORSDOF 10
ENDMDL
MODEL 8
REMARK VINA RESULT:    -5.674      9.083     12.602
REMARK INTER + INTRA:         -10.061
REMARK INTER:                  -9.135
REMARK INTRA:                  -0.926
REMARK UNBOUND:                -1.236
REMARK SMILES COc1cc(CNC(=O)CCCC/C=C/C(C)C)ccc1O
REMARK SMILES IDX 10 1 8 2 7 3 9 5 6 6 5 7 3 8 21 9 4 10 20 11 19 12 2 13 1 14
REMARK SMILES IDX 22 15 11 17 12 18 13 19 14 20 15 21 16 22 17 23 18 24
REMARK H PARENT 7 4 22 16
REMARK Flexibility Score: inf
ROOT
ATOM      1  C   UNL     1      89.197  98.540  66.749  1.00  0.00     0.100 C 
ENDROOT
BRANCH   1   2
ATOM      2  C   UNL     1      89.702  98.139  68.076  1.00  0.00     0.220 C 
ATOM      3  N   UNL     1      89.428  98.893  69.178  1.00  0.00    -0.352 N 
ATOM      4  H   UNL     1      88.889  99.729  68.999  1.00  0.00     0.163 HD
ATOM      5  O   UNL     1      90.367  97.078  68.161  1.00  0.00    -0.275 OA
BRANCH   3   6
ATOM      6  C   UNL     1      89.842  98.575  70.507  1.00  0.00     0.151 C 
BRANCH   6   7
ATOM      7  C   UNL     1      90.673  99.662  71.094  1.00  0.00    -0.025 A 
ATOM      8  C   UNL     1      90.935 102.017  71.761  1.00  0.00     0.160 A 
ATOM      9  C   UNL     1      92.236 101.741  72.230  1.00  0.00     0.157 A 
ATOM     10  C   UNL     1      90.168 100.977  71.197  1.00  0.00     0.056 A 
ATOM     11  C   UNL     1      92.761 100.438  72.117  1.00  0.00     0.050 A 
ATOM     12  C   UNL     1      91.983  99.403  71.562  1.00  0.00     0.009 A 
BRANCH   8  13
ATOM     13  O   UNL     1      90.445 103.297  71.809  1.00  0.00    -0.493 OA
ATOM     14  C   UNL     1      89.379 103.482  72.759  1.00  0.00     0.278 C 
ENDBRANCH   8  13
BRANCH   9  15
ATOM     15  O   UNL     1      92.996 102.716  72.791  1.00  0.00    -0.504 OA
ATOM     16  H   UNL     1      92.531 103.094  73.541  1.00  0.00     0.293 HD
ENDBRANCH   9  15
ENDBRANCH   6   7
ENDBRANCH   3   6
ENDBRANCH   1   2
BRANCH   1  17
ATOM     17  C   UNL     1      89.914  99.812  66.224  1.00  0.00     0.010 C 
BRANCH  17  18
ATOM     18  C   UNL     1      89.066 101.103  66.402  1.00  0.00     0.005 C 
BRANCH  18  19
ATOM     19  C   UNL     1      87.544 100.804  66.470  1.00  0.00     0.027 C 
BRANCH  19  20
ATOM     20  C   UNL     1      86.743 102.008  66.305  1.00  0.00    -0.031 C 
ATOM     21  C   UNL     1      87.250 103.252  66.248  1.00  0.00    -0.028 C 
BRANCH  21  22
ATOM     22  C   UNL     1      86.427 104.447  66.061  1.00  0.00     0.005 C 
ATOM     23  C   UNL     1      85.642 104.828  67.347  1.00  0.00     0.012 C 
ATOM     24  C   UNL     1      87.303 105.631  65.577  1.00  0.00     0.012 C 
ENDBRANCH  21  22
ENDBRANCH  19  20
ENDBRANCH  18  19
ENDBRANCH  17  18
ENDBRANCH   1  17
TORSDOF 10
ENDMDL
MODEL 9
REMARK VINA RESULT:    -5.613     12.527     15.042
REMARK INTER + INTRA:          -9.966
REMARK INTER:                  -9.127
REMARK INTRA:                  -0.839
REMARK UNBOUND:                -1.236
REMARK SMILES COc1cc(CNC(=O)CCCC/C=C/C(C)C)ccc1O
REMARK SMILES IDX 10 1 8 2 7 3 9 5 6 6 5 7 3 8 21 9 4 10 20 11 19 12 2 13 1 14
REMARK SMILES IDX 22 15 11 17 12 18 13 19 14 20 15 21 16 22 17 23 18 24
REMARK H PARENT 7 4 22 16
REMARK Flexibility Score: inf
ROOT
ATOM      1  C   UNL     1      97.824  79.706  81.882  1.00  0.00     0.100 C 
ENDROOT
BRANCH   1   2
ATOM      2  C   UNL     1      98.606  79.968  80.658  1.00  0.00     0.220 C 
ATOM      3  N   UNL     1      97.995  80.432  79.533  1.00  0.00    -0.352 N 
ATOM      4  H   UNL     1      96.993  80.549  79.609  1.00  0.00     0.163 HD
ATOM      5  O   UNL     1      99.846  79.775  80.695  1.00  0.00    -0.275 OA
BRANCH   3   6
ATOM      6  C   UNL     1      98.664  80.747  78.311  1.00  0.00     0.151 C 
BRANCH   6   7
ATOM      7  C   UNL     1      97.818  81.594  77.427  1.00  0.00    -0.025 A 
ATOM      8  C   UNL     1      97.463  82.727  75.270  1.00  0.00     0.160 A 
ATOM      9  C   UNL     1      96.209  83.191  75.720  1.00  0.00     0.157 A 
ATOM     10  C   UNL     1      98.255  81.936  76.127  1.00  0.00     0.056 A 
ATOM     11  C   UNL     1      95.768  82.874  77.020  1.00  0.00     0.050 A 
ATOM     12  C   UNL     1      96.562  82.073  77.864  1.00  0.00     0.009 A 
BRANCH   8  13
ATOM     13  O   UNL     1      97.925  83.087  74.030  1.00  0.00    -0.493 OA
ATOM     14  C   UNL     1      99.328  82.836  73.831  1.00  0.00     0.278 C 
ENDBRANCH   8  13
BRANCH   9  15
ATOM     15  O   UNL     1      95.416  83.943  74.914  1.00  0.00    -0.504 OA
ATOM     16  H   UNL     1      95.942  84.628  74.495  1.00  0.00     0.293 HD
ENDBRANCH   9  15
ENDBRANCH   6   7
ENDBRANCH   3   6
ENDBRANCH   1   2
BRANCH   1  17
ATOM     17  C   UNL     1      96.627  80.685  82.018  1.00  0.00     0.010 C 
BRANCH  17  18
ATOM     18  C   UNL     1      97.073  82.158  82.243  1.00  0.00     0.005 C 
BRANCH  18  19
ATOM     19  C   UNL     1      95.973  83.009  82.931  1.00  0.00     0.027 C 
BRANCH  19  20
ATOM     20  C   UNL     1      95.092  82.200  83.760  1.00  0.00    -0.031 C 
ATOM     21  C   UNL     1      95.192  82.103  85.098  1.00  0.00    -0.028 C 
BRANCH  21  22
ATOM     22  C   UNL     1      94.283  81.298  85.914  1.00  0.00     0.005 C 
ATOM     23  C   UNL     1      93.149  82.150  86.547  1.00  0.00     0.012 C 
ATOM     24  C   UNL     1      93.697  80.134  85.073  1.00  0.00     0.012 C 
ENDBRANCH  21  22
ENDBRANCH  19  20
ENDBRANCH  18  19
ENDBRANCH  17  18
ENDBRANCH   1  17
TORSDOF 10
ENDMDL
MODEL 10
REMARK VINA RESULT:    -5.605      4.981      6.629
REMARK INTER + INTRA:          -9.953
REMARK INTER:                  -9.366
REMARK INTRA:                  -0.587
REMARK UNBOUND:                -1.236
REMARK SMILES COc1cc(CNC(=O)CCCC/C=C/C(C)C)ccc1O
REMARK SMILES IDX 10 1 8 2 7 3 9 5 6 6 5 7 3 8 21 9 4 10 20 11 19 12 2 13 1 14
REMARK SMILES IDX 22 15 11 17 12 18 13 19 14 20 15 21 16 22 17 23 18 24
REMARK H PARENT 7 4 22 16
REMARK Flexibility Score: inf
ROOT
ATOM      1  C   UNL     1      93.684  99.860  71.884  1.00  0.00     0.100 C 
ENDROOT
BRANCH   1   2
ATOM      2  C   UNL     1      94.658  98.908  72.452  1.00  0.00     0.220 C 
ATOM      3  N   UNL     1      94.260  97.967  73.353  1.00  0.00    -0.352 N 
ATOM      4  H   UNL     1      93.281  98.000  73.601  1.00  0.00     0.163 HD
ATOM      5  O   UNL     1      95.850  98.977  72.064  1.00  0.00    -0.275 OA
BRANCH   3   6
ATOM      6  C   UNL     1      95.115  96.982  73.935  1.00  0.00     0.151 C 
BRANCH   6   7
ATOM      7  C   UNL     1      94.418  96.216  75.004  1.00  0.00    -0.025 A 
ATOM      8  C   UNL     1      94.370  94.330  76.586  1.00  0.00     0.160 A 
ATOM      9  C   UNL     1      93.110  94.754  77.056  1.00  0.00     0.157 A 
ATOM     10  C   UNL     1      95.010  95.062  75.564  1.00  0.00     0.056 A 
ATOM     11  C   UNL     1      92.498  95.892  76.494  1.00  0.00     0.050 A 
ATOM     12  C   UNL     1      93.150  96.624  75.482  1.00  0.00     0.009 A 
BRANCH   8  13
ATOM     13  O   UNL     1      94.941  93.186  77.084  1.00  0.00    -0.493 OA
ATOM     14  C   UNL     1      95.882  93.415  78.148  1.00  0.00     0.278 C 
ENDBRANCH   8  13
BRANCH   9  15
ATOM     15  O   UNL     1      92.474  94.080  78.048  1.00  0.00    -0.504 OA
ATOM     16  H   UNL     1      92.985  94.141  78.858  1.00  0.00     0.293 HD
ENDBRANCH   9  15
ENDBRANCH   6   7
ENDBRANCH   3   6
ENDBRANCH   1   2
BRANCH   1  17
ATOM     17  C   UNL     1      92.232  99.319  71.980  1.00  0.00     0.010 C 
BRANCH  17  18
ATOM     18  C   UNL     1      91.288  99.928  70.905  1.00  0.00     0.005 C 
BRANCH  18  19
ATOM     19  C   UNL     1      90.066  99.018  70.609  1.00  0.00     0.027 C 
BRANCH  19  20
ATOM     20  C   UNL     1      89.832  98.861  69.181  1.00  0.00    -0.031 C 
ATOM     21  C   UNL     1      88.736  99.308  68.541  1.00  0.00    -0.028 C 
BRANCH  21  22
ATOM     22  C   UNL     1      88.532  99.157  67.101  1.00  0.00     0.005 C 
ATOM     23  C   UNL     1      87.471 100.150  66.549  1.00  0.00     0.012 C 
ATOM     24  C   UNL     1      89.879  99.313  66.349  1.00  0.00     0.012 C 
ENDBRANCH  21  22
ENDBRANCH  19  20
ENDBRANCH  18  19
ENDBRANCH  17  18
ENDBRANCH   1  17
TORSDOF 10
ENDMDL
