MODEL 1
REMARK VINA RESULT:    -5.934      0.000      0.000
REMARK INTER + INTRA:         -11.392
REMARK INTER:                 -10.444
REMARK INTRA:                  -0.948
REMARK UNBOUND:                -0.948
REMARK SMILES C=C(C)[C@]12C[C@@H](C)[C@@]34O[C@](Cc5ccccc5)(O[C@@H]1[C@@H]3C=C(COC(=O)Cc1ccc(O)c(OC)c1)C[C@]1(O)C(=O)C(C)=C[C@@H]41)O2
REMARK SMILES IDX 23 1 22 2 21 3 20 4 9 5 8 6 10 7 6 8 18 9 46 10 19 11 5 12
REMARK SMILES IDX 7 13 4 14 45 15 38 16 44 17 40 18 42 20 41 21 43 22 39 23
REMARK SMILES IDX 11 25 12 26 13 27 17 28 14 29 16 30 15 31 2 32 3 33 1 34
REMARK SMILES IDX 37 35 24 37 25 38 26 39 27 40 28 41 36 42 29 43 33 44 30 45
REMARK SMILES IDX 31 46 34 47 35 48 32 49
REMARK H PARENT 39 24 32 50
REMARK Flexibility Score: 90.00
ROOT
ATOM      1  C   UNL     1      69.027  86.942  70.734  1.00  0.00     0.264 C 
ENDROOT
BRANCH   1   2
ATOM      2  C   UNL     1      69.758  87.024  69.414  1.00  0.00    -0.033 C 
ATOM      3  C   UNL     1      70.706  87.967  69.243  1.00  0.00    -0.015 C 
BRANCH   3   4
ATOM      4  C   UNL     1      71.520  88.304  68.004  1.00  0.00     0.078 C 
ATOM      5  O   UNL     1      73.610  86.988  68.135  1.00  0.00    -0.319 OA
ATOM      6  C   UNL     1      72.392  87.169  67.350  1.00  0.00     0.095 C 
ATOM      7  C   UNL     1      74.249  88.204  68.570  1.00  0.00     0.289 C 
ATOM      8  C   UNL     1      72.777  87.643  65.887  1.00  0.00     0.023 C 
ATOM      9  O   UNL     1      73.360  89.006  69.344  1.00  0.00    -0.320 OA
ATOM     10  O   UNL     1      74.655  89.023  67.477  1.00  0.00    -0.313 OA
ATOM     11  C   UNL     1      72.482  89.478  68.310  1.00  0.00     0.170 C 
ATOM     12  C   UNL     1      72.958  89.190  65.817  1.00  0.00     0.049 C 
ATOM     13  C   UNL     1      74.008  86.956  65.274  1.00  0.00     0.011 C 
ATOM     14  C   UNL     1      73.461  89.762  67.143  1.00  0.00     0.122 C 
BRANCH   6  15
ATOM     15  C   UNL     1      71.666  85.795  67.438  1.00  0.00     0.086 C 
ATOM     16  C   UNL     1      70.156  85.803  67.122  1.00  0.00     0.140 CG0
ATOM     17  C   UNL     1      72.185  84.635  66.635  1.00  0.00    -0.010 C 
ATOM     18  C   UNL     1      69.955  84.457  66.457  1.00  0.00     0.190 C 
ATOM     19  G   UNL     1      69.304  85.967  68.380  1.00  0.00     0.000 G0
ATOM     20  C   UNL     1      71.248  83.848  66.095  1.00  0.00    -0.008 C 
ATOM     21  O   UNL     1      68.874  83.949  66.200  1.00  0.00    -0.291 OA
ATOM     22  C   UNL     1      71.387  82.594  65.327  1.00  0.00     0.048 C 
BRANCH  16  23
ATOM     23  O   UNL     1      69.783  86.734  66.120  1.00  0.00    -0.381 OA
ATOM     24  H   UNL     1      68.842  86.608  65.917  1.00  0.00     0.212 HD
ENDBRANCH  16  23
ENDBRANCH   6  15
BRANCH   7  25
ATOM     25  C   UNL     1      75.460  87.833  69.402  1.00  0.00     0.135 C 
BRANCH  25  26
ATOM     26  C   UNL     1      76.180  86.630  68.847  1.00  0.00    -0.040 A 
ATOM     27  C   UNL     1      76.111  85.407  69.515  1.00  0.00     0.004 A 
ATOM     28  C   UNL     1      76.914  86.739  67.666  1.00  0.00     0.004 A 
ATOM     29  C   UNL     1      76.777  84.293  69.002  1.00  0.00     0.000 A 
ATOM     30  C   UNL     1      77.580  85.626  67.153  1.00  0.00     0.000 A 
ATOM     31  C   UNL     1      77.511  84.403  67.821  1.00  0.00     0.000 A 
ENDBRANCH  25  26
ENDBRANCH   7  25
BRANCH  14  32
ATOM     32  C   UNL     1      73.815  91.210  67.047  1.00  0.00    -0.046 C 
ATOM     33  C   UNL     1      72.894  92.165  67.747  1.00  0.00     0.042 C 
ATOM     34  C   UNL     1      74.896  91.633  66.374  1.00  0.00     0.010 C 
ENDBRANCH  14  32
ENDBRANCH   3   4
BRANCH   2  35
ATOM     35  C   UNL     1      69.305  85.974  68.417  1.00  0.00     0.078 CG0
ATOM     36  G   UNL     1      70.142  85.808  67.149  1.00  0.00     0.000 G0
ENDBRANCH   2  35
ENDBRANCH   1   2
BRANCH   1  37
ATOM     37  O   UNL     1      67.834  86.209  70.562  1.00  0.00    -0.461 OA
BRANCH  37  38
ATOM     38  C   UNL     1      66.830  86.459  71.468  1.00  0.00     0.310 C 
ATOM     39  O   UNL     1      66.890  87.279  72.374  1.00  0.00    -0.252 OA
BRANCH  38  40
ATOM     40  C   UNL     1      65.648  85.566  71.172  1.00  0.00     0.158 C 
BRANCH  40  41
ATOM     41  C   UNL     1      64.608  85.585  72.263  1.00  0.00    -0.033 A 
ATOM     42  C   UNL     1      63.480  86.396  72.136  1.00  0.00     0.054 A 
ATOM     43  C   UNL     1      64.774  84.793  73.398  1.00  0.00     0.008 A 
ATOM     44  C   UNL     1      62.517  86.414  73.145  1.00  0.00     0.160 A 
ATOM     45  C   UNL     1      63.811  84.811  74.408  1.00  0.00     0.050 A 
ATOM     46  C   UNL     1      62.683  85.621  74.282  1.00  0.00     0.157 A 
BRANCH  44  47
ATOM     47  O   UNL     1      61.420  87.210  73.010  1.00  0.00    -0.493 OA
ATOM     48  C   UNL     1      60.578  86.967  71.884  1.00  0.00     0.278 C 
ENDBRANCH  44  47
BRANCH  46  49
ATOM     49  O   UNL     1      61.749  85.630  75.273  1.00  0.00    -0.504 OA
ATOM     50  H   UNL     1      61.213  86.437  75.196  1.00  0.00     0.293 HD
ENDBRANCH  46  49
ENDBRANCH  40  41
ENDBRANCH  38  40
ENDBRANCH  37  38
ENDBRANCH   1  37
TORSDOF 11
ENDMDL
MODEL 2
REMARK VINA RESULT:    -5.587     29.345     32.109
REMARK INTER + INTRA:         -10.781
REMARK INTER:                  -9.592
REMARK INTRA:                  -1.189
REMARK UNBOUND:                -0.948
REMARK SMILES C=C(C)[C@]12C[C@@H](C)[C@@]34O[C@](Cc5ccccc5)(O[C@@H]1[C@@H]3C=C(COC(=O)Cc1ccc(O)c(OC)c1)C[C@]1(O)C(=O)C(C)=C[C@@H]41)O2
REMARK SMILES IDX 23 1 22 2 21 3 20 4 9 5 8 6 10 7 6 8 18 9 46 10 19 11 5 12
REMARK SMILES IDX 7 13 4 14 45 15 38 16 44 17 40 18 42 20 41 21 43 22 39 23
REMARK SMILES IDX 11 25 12 26 13 27 17 28 14 29 16 30 15 31 2 32 3 33 1 34
REMARK SMILES IDX 37 35 24 37 25 38 26 39 27 40 28 41 36 42 29 43 33 44 30 45
REMARK SMILES IDX 31 46 34 47 35 48 32 49
REMARK H PARENT 39 24 32 50
REMARK Flexibility Score: 90.00
ROOT
ATOM      1  C   UNL     1      88.221  95.198  93.325  1.00  0.00     0.264 C 
ENDROOT
BRANCH   1   2
ATOM      2  C   UNL     1      89.709  95.067  93.102  1.00  0.00    -0.033 C 
ATOM      3  C   UNL     1      90.282  93.849  93.175  1.00  0.00    -0.015 C 
BRANCH   3   4
ATOM      4  C   UNL     1      91.749  93.465  93.068  1.00  0.00     0.078 C 
ATOM      5  O   UNL     1      92.183  92.930  90.692  1.00  0.00    -0.319 OA
ATOM      6  C   UNL     1      92.534  93.861  91.762  1.00  0.00     0.095 C 
ATOM      7  C   UNL     1      92.114  91.545  91.079  1.00  0.00     0.289 C 
ATOM      8  C   UNL     1      94.082  93.738  92.077  1.00  0.00     0.023 C 
ATOM      9  O   UNL     1      91.178  91.349  92.136  1.00  0.00    -0.320 OA
ATOM     10  O   UNL     1      93.359  91.058  91.573  1.00  0.00    -0.313 OA
ATOM     11  C   UNL     1      91.905  91.933  93.228  1.00  0.00     0.170 C 
ATOM     12  C   UNL     1      94.369  92.587  93.090  1.00  0.00     0.049 C 
ATOM     13  C   UNL     1      94.994  93.578  90.849  1.00  0.00     0.011 C 
ATOM     14  C   UNL     1      93.353  91.452  92.960  1.00  0.00     0.122 C 
BRANCH   6  15
ATOM     15  C   UNL     1      92.067  95.250  91.238  1.00  0.00     0.086 C 
ATOM     16  C   UNL     1      91.868  96.348  92.303  1.00  0.00     0.140 CG0
ATOM     17  C   UNL     1      92.867  95.941  90.169  1.00  0.00    -0.010 C 
ATOM     18  C   UNL     1      92.283  97.601  91.562  1.00  0.00     0.190 C 
ATOM     19  G   UNL     1      90.425  96.414  92.802  1.00  0.00     0.000 G0
ATOM     20  C   UNL     1      92.984  97.266  90.308  1.00  0.00    -0.008 C 
ATOM     21  O   UNL     1      92.116  98.745  91.956  1.00  0.00    -0.291 OA
ATOM     22  C   UNL     1      93.616  98.263  89.420  1.00  0.00     0.048 C 
BRANCH  16  23
ATOM     23  O   UNL     1      92.786  96.273  93.382  1.00  0.00    -0.381 OA
ATOM     24  H   UNL     1      93.401  95.541  93.211  1.00  0.00     0.212 HD
ENDBRANCH  16  23
ENDBRANCH   6  15
BRANCH   7  25
ATOM     25  C   UNL     1      91.697  90.733  89.869  1.00  0.00     0.135 C 
BRANCH  25  26
ATOM     26  C   UNL     1      92.883  90.297  89.045  1.00  0.00    -0.040 A 
ATOM     27  C   UNL     1      93.334  88.979  89.115  1.00  0.00     0.004 A 
ATOM     28  C   UNL     1      93.528  91.211  88.212  1.00  0.00     0.004 A 
ATOM     29  C   UNL     1      94.431  88.575  88.353  1.00  0.00     0.000 A 
ATOM     30  C   UNL     1      94.625  90.807  87.450  1.00  0.00     0.000 A 
ATOM     31  C   UNL     1      95.076  89.489  87.521  1.00  0.00     0.000 A 
ENDBRANCH  25  26
ENDBRANCH   7  25
BRANCH  14  32
ATOM     32  C   UNL     1      93.712  90.262  93.789  1.00  0.00    -0.046 C 
ATOM     33  C   UNL     1      93.809  90.491  95.268  1.00  0.00     0.042 C 
ATOM     34  C   UNL     1      93.935  89.058  93.242  1.00  0.00     0.010 C 
ENDBRANCH  14  32
ENDBRANCH   3   4
BRANCH   2  35
ATOM     35  C   UNL     1      90.385  96.393  92.804  1.00  0.00     0.078 CG0
ATOM     36  G   UNL     1      91.837  96.346  92.331  1.00  0.00     0.000 G0
ENDBRANCH   2  35
ENDBRANCH   1   2
BRANCH   1  37
ATOM     37  O   UNL     1      87.976  96.243  94.241  1.00  0.00    -0.461 OA
BRANCH  37  38
ATOM     38  C   UNL     1      86.889  97.043  93.975  1.00  0.00     0.310 C 
ATOM     39  O   UNL     1      85.720  96.692  94.061  1.00  0.00    -0.252 OA
BRANCH  38  40
ATOM     40  C   UNL     1      87.362  98.417  93.562  1.00  0.00     0.158 C 
BRANCH  40  41
ATOM     41  C   UNL     1      86.931  98.793  92.168  1.00  0.00    -0.033 A 
ATOM     42  C   UNL     1      85.917  99.733  91.981  1.00  0.00     0.054 A 
ATOM     43  C   UNL     1      87.547  98.202  91.065  1.00  0.00     0.008 A 
ATOM     44  C   UNL     1      85.519 100.081  90.690  1.00  0.00     0.160 A 
ATOM     45  C   UNL     1      87.148  98.549  89.774  1.00  0.00     0.050 A 
ATOM     46  C   UNL     1      86.134  99.489  89.586  1.00  0.00     0.157 A 
BRANCH  44  47
ATOM     47  O   UNL     1      84.528 101.000  90.519  1.00  0.00    -0.493 OA
ATOM     48  C   UNL     1      84.900 102.259  89.961  1.00  0.00     0.278 C 
ENDBRANCH  44  47
BRANCH  46  49
ATOM     49  O   UNL     1      85.754  99.821  88.321  1.00  0.00    -0.504 OA
ATOM     50  H   UNL     1      85.498 100.759  88.304  1.00  0.00     0.293 HD
ENDBRANCH  46  49
ENDBRANCH  40  41
ENDBRANCH  38  40
ENDBRANCH  37  38
ENDBRANCH   1  37
TORSDOF 11
ENDMDL
MODEL 3
REMARK VINA RESULT:    -5.554     17.097     21.474
REMARK INTER + INTRA:         -10.722
REMARK INTER:                  -9.085
REMARK INTRA:                  -1.638
REMARK UNBOUND:                -0.948
REMARK SMILES C=C(C)[C@]12C[C@@H](C)[C@@]34O[C@](Cc5ccccc5)(O[C@@H]1[C@@H]3C=C(COC(=O)Cc1ccc(O)c(OC)c1)C[C@]1(O)C(=O)C(C)=C[C@@H]41)O2
REMARK SMILES IDX 23 1 22 2 21 3 20 4 9 5 8 6 10 7 6 8 18 9 46 10 19 11 5 12
REMARK SMILES IDX 7 13 4 14 45 15 38 16 44 17 40 18 42 20 41 21 43 22 39 23
REMARK SMILES IDX 11 25 12 26 13 27 17 28 14 29 16 30 15 31 2 32 3 33 1 34
REMARK SMILES IDX 37 35 24 37 25 38 26 39 27 40 28 41 36 42 29 43 33 44 30 45
REMARK SMILES IDX 31 46 34 47 35 48 32 49
REMARK H PARENT 39 24 32 50
REMARK Flexibility Score: 90.00
ROOT
ATOM      1  C   UNL     1      57.508  79.345  84.222  1.00  0.00     0.264 C 
ENDROOT
BRANCH   1   2
ATOM      2  C   UNL     1      58.635  78.344  84.327  1.00  0.00    -0.033 C 
ATOM      3  C   UNL     1      59.810  78.608  83.722  1.00  0.00    -0.015 C 
BRANCH   3   4
ATOM      4  C   UNL     1      61.055  77.744  83.614  1.00  0.00     0.078 C 
ATOM      5  O   UNL     1      62.517  78.346  85.516  1.00  0.00    -0.319 OA
ATOM      6  C   UNL     1      61.741  77.249  84.942  1.00  0.00     0.095 C 
ATOM      7  C   UNL     1      63.284  79.118  84.574  1.00  0.00     0.289 C 
ATOM      8  C   UNL     1      62.717  76.059  84.563  1.00  0.00     0.023 C 
ATOM      9  O   UNL     1      62.450  79.675  83.561  1.00  0.00    -0.320 OA
ATOM     10  O   UNL     1      64.250  78.328  83.885  1.00  0.00    -0.313 OA
ATOM     11  C   UNL     1      62.146  78.491  82.807  1.00  0.00     0.170 C 
ATOM     12  C   UNL     1      63.338  76.259  83.147  1.00  0.00     0.049 C 
ATOM     13  C   UNL     1      63.836  75.776  85.578  1.00  0.00     0.011 C 
ATOM     14  C   UNL     1      63.500  77.740  82.803  1.00  0.00     0.122 C 
BRANCH   6  15
ATOM     15  C   UNL     1      60.673  76.920  86.024  1.00  0.00     0.086 C 
ATOM     16  C   UNL     1      59.426  76.153  85.538  1.00  0.00     0.140 CG0
ATOM     17  C   UNL     1      61.084  76.170  87.261  1.00  0.00    -0.010 C 
ATOM     18  C   UNL     1      59.092  75.283  86.732  1.00  0.00     0.190 C 
ATOM     19  G   UNL     1      58.281  77.092  85.161  1.00  0.00     0.000 G0
ATOM     20  C   UNL     1      60.206  75.263  87.699  1.00  0.00    -0.008 C 
ATOM     21  O   UNL     1      58.066  74.635  86.871  1.00  0.00    -0.291 OA
ATOM     22  C   UNL     1      60.237  74.415  88.908  1.00  0.00     0.048 C 
BRANCH  16  23
ATOM     23  O   UNL     1      59.693  75.220  84.504  1.00  0.00    -0.381 OA
ATOM     24  H   UNL     1      58.931  75.205  83.901  1.00  0.00     0.212 HD
ENDBRANCH  16  23
ENDBRANCH   6  15
BRANCH   7  25
ATOM     25  C   UNL     1      63.985  80.230  85.328  1.00  0.00     0.135 C 
BRANCH  25  26
ATOM     26  C   UNL     1      63.838  81.563  84.636  1.00  0.00    -0.040 A 
ATOM     27  C   UNL     1      62.903  82.489  85.099  1.00  0.00     0.004 A 
ATOM     28  C   UNL     1      64.637  81.869  83.536  1.00  0.00     0.004 A 
ATOM     29  C   UNL     1      62.767  83.722  84.459  1.00  0.00     0.000 A 
ATOM     30  C   UNL     1      64.501  83.102  82.896  1.00  0.00     0.000 A 
ATOM     31  C   UNL     1      63.566  84.028  83.358  1.00  0.00     0.000 A 
ENDBRANCH  25  26
ENDBRANCH   7  25
BRANCH  14  32
ATOM     32  C   UNL     1      64.258  77.955  81.534  1.00  0.00    -0.046 C 
ATOM     33  C   UNL     1      65.596  77.284  81.439  1.00  0.00     0.042 C 
ATOM     34  C   UNL     1      63.770  78.706  80.535  1.00  0.00     0.010 C 
ENDBRANCH  14  32
ENDBRANCH   3   4
BRANCH   2  35
ATOM     35  C   UNL     1      58.270  77.122  85.149  1.00  0.00     0.078 CG0
ATOM     36  G   UNL     1      59.406  76.175  85.534  1.00  0.00     0.000 G0
ENDBRANCH   2  35
ENDBRANCH   1   2
BRANCH   1  37
ATOM     37  O   UNL     1      57.378  80.033  85.448  1.00  0.00    -0.461 OA
BRANCH  37  38
ATOM     38  C   UNL     1      56.112  80.460  85.775  1.00  0.00     0.310 C 
ATOM     39  O   UNL     1      55.577  81.470  85.338  1.00  0.00    -0.252 OA
BRANCH  38  40
ATOM     40  C   UNL     1      55.490  79.492  86.753  1.00  0.00     0.158 C 
BRANCH  40  41
ATOM     41  C   UNL     1      56.391  79.174  87.919  1.00  0.00    -0.033 A 
ATOM     42  C   UNL     1      57.104  80.195  88.548  1.00  0.00     0.054 A 
ATOM     43  C   UNL     1      56.511  77.859  88.368  1.00  0.00     0.008 A 
ATOM     44  C   UNL     1      57.938  79.900  89.627  1.00  0.00     0.160 A 
ATOM     45  C   UNL     1      57.345  77.564  89.447  1.00  0.00     0.050 A 
ATOM     46  C   UNL     1      58.059  78.584  90.076  1.00  0.00     0.157 A 
BRANCH  44  47
ATOM     47  O   UNL     1      58.630  80.904  90.233  1.00  0.00    -0.493 OA
ATOM     48  C   UNL     1      59.986  81.092  89.831  1.00  0.00     0.278 C 
ENDBRANCH  44  47
BRANCH  46  49
ATOM     49  O   UNL     1      58.869  78.284  91.129  1.00  0.00    -0.504 OA
ATOM     50  H   UNL     1      58.320  78.107  91.911  1.00  0.00     0.293 HD
ENDBRANCH  46  49
ENDBRANCH  40  41
ENDBRANCH  38  40
ENDBRANCH  37  38
ENDBRANCH   1  37
TORSDOF 11
ENDMDL
MODEL 4
REMARK VINA RESULT:    -5.513     31.042     34.702
REMARK INTER + INTRA:         -10.651
REMARK INTER:                  -8.630
REMARK INTRA:                  -2.021
REMARK UNBOUND:                -0.948
REMARK SMILES C=C(C)[C@]12C[C@@H](C)[C@@]34O[C@](Cc5ccccc5)(O[C@@H]1[C@@H]3C=C(COC(=O)Cc1ccc(O)c(OC)c1)C[C@]1(O)C(=O)C(C)=C[C@@H]41)O2
REMARK SMILES IDX 23 1 22 2 21 3 20 4 9 5 8 6 10 7 6 8 18 9 46 10 19 11 5 12
REMARK SMILES IDX 7 13 4 14 45 15 38 16 44 17 40 18 42 20 41 21 43 22 39 23
REMARK SMILES IDX 11 25 12 26 13 27 17 28 14 29 16 30 15 31 2 32 3 33 1 34
REMARK SMILES IDX 37 35 24 37 25 38 26 39 27 40 28 41 36 42 29 43 33 44 30 45
REMARK SMILES IDX 31 46 34 47 35 48 32 49
REMARK H PARENT 39 24 32 50
REMARK Flexibility Score: 90.00
ROOT
ATOM      1  C   UNL     1      93.218  88.194  93.546  1.00  0.00     0.264 C 
ENDROOT
BRANCH   1   2
ATOM      2  C   UNL     1      93.545  89.470  94.287  1.00  0.00    -0.033 C 
ATOM      3  C   UNL     1      94.011  90.531  93.598  1.00  0.00    -0.015 C 
BRANCH   3   4
ATOM      4  C   UNL     1      94.480  91.883  94.110  1.00  0.00     0.078 C 
ATOM      5  O   UNL     1      92.526  93.399  94.033  1.00  0.00    -0.319 OA
ATOM      6  C   UNL     1      93.472  92.758  94.944  1.00  0.00     0.095 C 
ATOM      7  C   UNL     1      93.102  93.943  92.830  1.00  0.00     0.289 C 
ATOM      8  C   UNL     1      94.311  93.872  95.696  1.00  0.00     0.023 C 
ATOM      9  O   UNL     1      93.794  92.941  92.089  1.00  0.00    -0.320 OA
ATOM     10  O   UNL     1      94.068  94.955  93.102  1.00  0.00    -0.313 OA
ATOM     11  C   UNL     1      94.948  92.761  92.924  1.00  0.00     0.170 C 
ATOM     12  C   UNL     1      95.546  94.321  94.855  1.00  0.00     0.049 C 
ATOM     13  C   UNL     1      93.516  95.111  96.139  1.00  0.00     0.011 C 
ATOM     14  C   UNL     1      95.278  94.212  93.354  1.00  0.00     0.122 C 
BRANCH   6  15
ATOM     15  C   UNL     1      92.585  91.860  95.855  1.00  0.00     0.086 C 
ATOM     16  C   UNL     1      93.309  90.713  96.590  1.00  0.00     0.140 CG0
ATOM     17  C   UNL     1      91.756  92.498  96.934  1.00  0.00    -0.010 C 
ATOM     18  C   UNL     1      92.550  90.634  97.898  1.00  0.00     0.190 C 
ATOM     19  G   UNL     1      93.259  89.403  95.805  1.00  0.00     0.000 G0
ATOM     20  C   UNL     1      91.693  91.820  98.085  1.00  0.00    -0.008 C 
ATOM     21  O   UNL     1      92.657  89.742  98.726  1.00  0.00    -0.291 OA
ATOM     22  C   UNL     1      90.920  92.098  99.313  1.00  0.00     0.048 C 
BRANCH  16  23
ATOM     23  O   UNL     1      94.633  91.029  96.986  1.00  0.00    -0.381 OA
ATOM     24  H   UNL     1      95.074  90.210  97.266  1.00  0.00     0.212 HD
ENDBRANCH  16  23
ENDBRANCH   6  15
BRANCH   7  25
ATOM     25  C   UNL     1      91.984  94.523  91.988  1.00  0.00     0.135 C 
BRANCH  25  26
ATOM     26  C   UNL     1      92.429  95.744  91.221  1.00  0.00    -0.040 A 
ATOM     27  C   UNL     1      93.278  95.606  90.123  1.00  0.00     0.004 A 
ATOM     28  C   UNL     1      91.990  97.009  91.609  1.00  0.00     0.004 A 
ATOM     29  C   UNL     1      93.690  96.736  89.414  1.00  0.00     0.000 A 
ATOM     30  C   UNL     1      92.401  98.138  90.900  1.00  0.00     0.000 A 
ATOM     31  C   UNL     1      93.251  98.001  89.803  1.00  0.00     0.000 A 
ENDBRANCH  25  26
ENDBRANCH   7  25
BRANCH  14  32
ATOM     32  C   UNL     1      96.374  94.806  92.530  1.00  0.00    -0.046 C 
ATOM     33  C   UNL     1      96.286  96.282  92.275  1.00  0.00     0.042 C 
ATOM     34  C   UNL     1      97.381  94.063  92.046  1.00  0.00     0.010 C 
ENDBRANCH  14  32
ENDBRANCH   3   4
BRANCH   2  35
ATOM     35  C   UNL     1      93.281  89.376  95.778  1.00  0.00     0.078 CG0
ATOM     36  G   UNL     1      93.327  90.677  96.578  1.00  0.00     0.000 G0
ENDBRANCH   2  35
ENDBRANCH   1   2
BRANCH   1  37
ATOM     37  O   UNL     1      94.160  88.000  92.513  1.00  0.00    -0.461 OA
BRANCH  37  38
ATOM     38  C   UNL     1      93.733  87.264  91.432  1.00  0.00     0.310 C 
ATOM     39  O   UNL     1      94.102  86.128  91.166  1.00  0.00    -0.252 OA
BRANCH  38  40
ATOM     40  C   UNL     1      92.743  88.074  90.628  1.00  0.00     0.158 C 
BRANCH  40  41
ATOM     41  C   UNL     1      93.377  88.791  89.465  1.00  0.00    -0.033 A 
ATOM     42  C   UNL     1      93.485  90.183  89.478  1.00  0.00     0.054 A 
ATOM     43  C   UNL     1      93.857  88.065  88.375  1.00  0.00     0.008 A 
ATOM     44  C   UNL     1      94.072  90.847  88.401  1.00  0.00     0.160 A 
ATOM     45  C   UNL     1      94.445  88.729  87.298  1.00  0.00     0.050 A 
ATOM     46  C   UNL     1      94.552  90.120  87.310  1.00  0.00     0.157 A 
BRANCH  44  47
ATOM     47  O   UNL     1      94.171  92.205  88.425  1.00  0.00    -0.493 OA
ATOM     48  C   UNL     1      95.225  92.765  89.206  1.00  0.00     0.278 C 
ENDBRANCH  44  47
BRANCH  46  49
ATOM     49  O   UNL     1      95.128  90.757  86.254  1.00  0.00    -0.504 OA
ATOM     50  H   UNL     1      94.882  91.697  86.279  1.00  0.00     0.293 HD
ENDBRANCH  46  49
ENDBRANCH  40  41
ENDBRANCH  38  40
ENDBRANCH  37  38
ENDBRANCH   1  37
TORSDOF 11
ENDMDL
MODEL 5
REMARK VINA RESULT:    -5.475     20.521     23.605
REMARK INTER + INTRA:         -10.584
REMARK INTER:                  -9.274
REMARK INTRA:                  -1.310
REMARK UNBOUND:                -0.948
REMARK SMILES C=C(C)[C@]12C[C@@H](C)[C@@]34O[C@](Cc5ccccc5)(O[C@@H]1[C@@H]3C=C(COC(=O)Cc1ccc(O)c(OC)c1)C[C@]1(O)C(=O)C(C)=C[C@@H]41)O2
REMARK SMILES IDX 23 1 22 2 21 3 20 4 9 5 8 6 10 7 6 8 18 9 46 10 19 11 5 12
REMARK SMILES IDX 7 13 4 14 45 15 38 16 44 17 40 18 42 20 41 21 43 22 39 23
REMARK SMILES IDX 11 25 12 26 13 27 17 28 14 29 16 30 15 31 2 32 3 33 1 34
REMARK SMILES IDX 37 35 24 37 25 38 26 39 27 40 28 41 36 42 29 43 33 44 30 45
REMARK SMILES IDX 31 46 34 47 35 48 32 49
REMARK H PARENT 39 24 32 50
REMARK Flexibility Score: 90.00
ROOT
ATOM      1  C   UNL     1      59.653  86.252  86.246  1.00  0.00     0.264 C 
ENDROOT
BRANCH   1   2
ATOM      2  C   UNL     1      59.675  84.950  87.012  1.00  0.00    -0.033 C 
ATOM      3  C   UNL     1      58.511  84.402  87.416  1.00  0.00    -0.015 C 
BRANCH   3   4
ATOM      4  C   UNL     1      58.270  83.158  88.255  1.00  0.00     0.078 C 
ATOM      5  O   UNL     1      58.005  81.268  86.682  1.00  0.00    -0.319 OA
ATOM      6  C   UNL     1      58.857  81.788  87.749  1.00  0.00     0.095 C 
ATOM      7  C   UNL     1      56.588  81.385  86.912  1.00  0.00     0.289 C 
ATOM      8  C   UNL     1      58.841  80.778  88.970  1.00  0.00     0.023 C 
ATOM      9  O   UNL     1      56.210  82.741  87.133  1.00  0.00    -0.320 OA
ATOM     10  O   UNL     1      56.168  80.674  88.074  1.00  0.00    -0.313 OA
ATOM     11  C   UNL     1      56.749  82.941  88.449  1.00  0.00     0.170 C 
ATOM     12  C   UNL     1      57.629  81.044  89.915  1.00  0.00     0.049 C 
ATOM     13  C   UNL     1      58.881  79.288  88.595  1.00  0.00     0.011 C 
ATOM     14  C   UNL     1      56.427  81.598  89.150  1.00  0.00     0.122 C 
BRANCH   6  15
ATOM     15  C   UNL     1      60.243  81.998  87.072  1.00  0.00     0.086 C 
ATOM     16  C   UNL     1      61.209  82.964  87.787  1.00  0.00     0.140 CG0
ATOM     17  C   UNL     1      61.103  80.803  86.770  1.00  0.00    -0.010 C 
ATOM     18  C   UNL     1      62.561  82.344  87.502  1.00  0.00     0.190 C 
ATOM     19  G   UNL     1      61.097  84.392  87.254  1.00  0.00     0.000 G0
ATOM     20  C   UNL     1      62.413  80.974  86.975  1.00  0.00    -0.008 C 
ATOM     21  O   UNL     1      63.642  82.870  87.721  1.00  0.00    -0.291 OA
ATOM     22  C   UNL     1      63.545  80.062  86.712  1.00  0.00     0.048 C 
BRANCH  16  23
ATOM     23  O   UNL     1      61.113  82.931  89.201  1.00  0.00    -0.381 OA
ATOM     24  H   UNL     1      61.728  83.587  89.567  1.00  0.00     0.212 HD
ENDBRANCH  16  23
ENDBRANCH   6  15
BRANCH   7  25
ATOM     25  C   UNL     1      55.863  80.843  85.697  1.00  0.00     0.135 C 
BRANCH  25  26
ATOM     26  C   UNL     1      56.693  79.831  84.948  1.00  0.00    -0.040 A 
ATOM     27  C   UNL     1      57.216  78.724  85.618  1.00  0.00     0.004 A 
ATOM     28  C   UNL     1      56.936  79.999  83.585  1.00  0.00     0.004 A 
ATOM     29  C   UNL     1      57.984  77.788  84.925  1.00  0.00     0.000 A 
ATOM     30  C   UNL     1      57.704  79.063  82.892  1.00  0.00     0.000 A 
ATOM     31  C   UNL     1      58.228  77.957  83.563  1.00  0.00     0.000 A 
ENDBRANCH  25  26
ENDBRANCH   7  25
BRANCH  14  32
ATOM     32  C   UNL     1      55.199  81.688  89.998  1.00  0.00    -0.046 C 
ATOM     33  C   UNL     1      54.133  80.669  89.729  1.00  0.00     0.042 C 
ATOM     34  C   UNL     1      55.059  82.627  90.945  1.00  0.00     0.010 C 
ENDBRANCH  14  32
ENDBRANCH   3   4
BRANCH   2  35
ATOM     35  C   UNL     1      61.077  84.409  87.225  1.00  0.00     0.078 CG0
ATOM     36  G   UNL     1      61.202  82.993  87.784  1.00  0.00     0.000 G0
ENDBRANCH   2  35
ENDBRANCH   1   2
BRANCH   1  37
ATOM     37  O   UNL     1      58.347  86.786  86.271  1.00  0.00    -0.461 OA
BRANCH  37  38
ATOM     38  C   UNL     1      58.167  87.986  85.623  1.00  0.00     0.310 C 
ATOM     39  O   UNL     1      57.978  88.114  84.421  1.00  0.00    -0.252 OA
BRANCH  38  40
ATOM     40  C   UNL     1      58.241  89.115  86.624  1.00  0.00     0.158 C 
BRANCH  40  41
ATOM     41  C   UNL     1      57.297  88.935  87.785  1.00  0.00    -0.033 A 
ATOM     42  C   UNL     1      57.802  88.687  89.062  1.00  0.00     0.054 A 
ATOM     43  C   UNL     1      55.920  89.015  87.583  1.00  0.00     0.008 A 
ATOM     44  C   UNL     1      56.928  88.520  90.137  1.00  0.00     0.160 A 
ATOM     45  C   UNL     1      55.046  88.848  88.658  1.00  0.00     0.050 A 
ATOM     46  C   UNL     1      55.550  88.600  89.934  1.00  0.00     0.157 A 
BRANCH  44  47
ATOM     47  O   UNL     1      57.433  88.279  91.378  1.00  0.00    -0.493 OA
ATOM     48  C   UNL     1      57.963  89.395  92.091  1.00  0.00     0.278 C 
ENDBRANCH  44  47
BRANCH  46  49
ATOM     49  O   UNL     1      54.688  88.440  90.976  1.00  0.00    -0.504 OA
ATOM     50  H   UNL     1      55.116  87.900  91.661  1.00  0.00     0.293 HD
ENDBRANCH  46  49
ENDBRANCH  40  41
ENDBRANCH  38  40
ENDBRANCH  37  38
ENDBRANCH   1  37
TORSDOF 11
ENDMDL
MODEL 6
REMARK VINA RESULT:    -5.353     22.058     25.660
REMARK INTER + INTRA:         -10.369
REMARK INTER:                  -8.298
REMARK INTRA:                  -2.070
REMARK UNBOUND:                -0.948
REMARK SMILES C=C(C)[C@]12C[C@@H](C)[C@@]34O[C@](Cc5ccccc5)(O[C@@H]1[C@@H]3C=C(COC(=O)Cc1ccc(O)c(OC)c1)C[C@]1(O)C(=O)C(C)=C[C@@H]41)O2
REMARK SMILES IDX 23 1 22 2 21 3 20 4 9 5 8 6 10 7 6 8 18 9 46 10 19 11 5 12
REMARK SMILES IDX 7 13 4 14 45 15 38 16 44 17 40 18 42 20 41 21 43 22 39 23
REMARK SMILES IDX 11 25 12 26 13 27 17 28 14 29 16 30 15 31 2 32 3 33 1 34
REMARK SMILES IDX 37 35 24 37 25 38 26 39 27 40 28 41 36 42 29 43 33 44 30 45
REMARK SMILES IDX 31 46 34 47 35 48 32 49
REMARK H PARENT 39 24 32 50
REMARK Flexibility Score: 90.00
ROOT
ATOM      1  C   UNL     1      78.211  73.480  84.001  1.00  0.00     0.264 C 
ENDROOT
BRANCH   1   2
ATOM      2  C   UNL     1      77.786  72.694  85.220  1.00  0.00    -0.033 C 
ATOM      3  C   UNL     1      77.364  73.356  86.316  1.00  0.00    -0.015 C 
BRANCH   3   4
ATOM      4  C   UNL     1      76.961  72.810  87.677  1.00  0.00     0.078 C 
ATOM      5  O   UNL     1      74.519  72.421  87.603  1.00  0.00    -0.319 OA
ATOM      6  C   UNL     1      75.805  71.743  87.743  1.00  0.00     0.095 C 
ATOM      7  C   UNL     1      74.386  73.650  88.342  1.00  0.00     0.289 C 
ATOM      8  C   UNL     1      75.877  71.047  89.165  1.00  0.00     0.023 C 
ATOM      9  O   UNL     1      75.399  74.584  87.980  1.00  0.00    -0.320 OA
ATOM     10  O   UNL     1      74.527  73.454  89.746  1.00  0.00    -0.313 OA
ATOM     11  C   UNL     1      76.539  73.975  88.606  1.00  0.00     0.170 C 
ATOM     12  C   UNL     1      76.368  72.039  90.263  1.00  0.00     0.049 C 
ATOM     13  C   UNL     1      74.580  70.367  89.633  1.00  0.00     0.011 C 
ATOM     14  C   UNL     1      75.954  73.478  89.952  1.00  0.00     0.122 C 
BRANCH   6  15
ATOM     15  C   UNL     1      75.873  70.780  86.523  1.00  0.00     0.086 C 
ATOM     16  C   UNL     1      77.279  70.290  86.120  1.00  0.00     0.140 CG0
ATOM     17  C   UNL     1      75.053  69.521  86.532  1.00  0.00    -0.010 C 
ATOM     18  C   UNL     1      77.006  68.884  85.628  1.00  0.00     0.190 C 
ATOM     19  G   UNL     1      77.912  71.173  85.045  1.00  0.00     0.000 G0
ATOM     20  C   UNL     1      75.651  68.444  86.011  1.00  0.00    -0.008 C 
ATOM     21  O   UNL     1      77.804  68.173  85.037  1.00  0.00    -0.291 OA
ATOM     22  C   UNL     1      75.128  67.082  85.784  1.00  0.00     0.048 C 
BRANCH  16  23
ATOM     23  O   UNL     1      78.157  70.101  87.217  1.00  0.00    -0.381 OA
ATOM     24  H   UNL     1      77.639  70.156  88.037  1.00  0.00     0.212 HD
ENDBRANCH  16  23
ENDBRANCH   6  15
BRANCH   7  25
ATOM     25  C   UNL     1      73.020  74.237  88.047  1.00  0.00     0.135 C 
BRANCH  25  26
ATOM     26  C   UNL     1      72.560  75.172  89.137  1.00  0.00    -0.040 A 
ATOM     27  C   UNL     1      73.149  76.430  89.271  1.00  0.00     0.004 A 
ATOM     28  C   UNL     1      71.545  74.782  90.010  1.00  0.00     0.004 A 
ATOM     29  C   UNL     1      72.723  77.296  90.279  1.00  0.00     0.000 A 
ATOM     30  C   UNL     1      71.119  75.648  91.018  1.00  0.00     0.000 A 
ATOM     31  C   UNL     1      71.709  76.905  91.152  1.00  0.00     0.000 A 
ENDBRANCH  25  26
ENDBRANCH   7  25
BRANCH  14  32
ATOM     32  C   UNL     1      76.253  74.417  91.075  1.00  0.00    -0.046 C 
ATOM     33  C   UNL     1      77.660  74.930  91.153  1.00  0.00     0.042 C 
ATOM     34  C   UNL     1      75.316  74.781  91.963  1.00  0.00     0.010 C 
ENDBRANCH  14  32
ENDBRANCH   3   4
BRANCH   2  35
ATOM     35  C   UNL     1      77.891  71.193  85.027  1.00  0.00     0.078 CG0
ATOM     36  G   UNL     1      77.302  70.305  86.122  1.00  0.00     0.000 G0
ENDBRANCH   2  35
ENDBRANCH   1   2
BRANCH   1  37
ATOM     37  O   UNL     1      79.017  74.566  84.404  1.00  0.00    -0.461 OA
BRANCH  37  38
ATOM     38  C   UNL     1      80.307  74.577  83.926  1.00  0.00     0.310 C 
ATOM     39  O   UNL     1      80.787  75.453  83.220  1.00  0.00    -0.252 OA
BRANCH  38  40
ATOM     40  C   UNL     1      81.033  73.343  84.406  1.00  0.00     0.158 C 
BRANCH  40  41
ATOM     41  C   UNL     1      81.290  73.352  85.891  1.00  0.00    -0.033 A 
ATOM     42  C   UNL     1      81.410  74.565  86.570  1.00  0.00     0.054 A 
ATOM     43  C   UNL     1      81.406  72.149  86.586  1.00  0.00     0.008 A 
ATOM     44  C   UNL     1      81.647  74.574  87.945  1.00  0.00     0.160 A 
ATOM     45  C   UNL     1      81.643  72.158  87.961  1.00  0.00     0.050 A 
ATOM     46  C   UNL     1      81.764  73.370  88.640  1.00  0.00     0.157 A 
BRANCH  44  47
ATOM     47  O   UNL     1      81.763  75.764  88.597  1.00  0.00    -0.493 OA
ATOM     48  C   UNL     1      81.333  76.931  87.898  1.00  0.00     0.278 C 
ENDBRANCH  44  47
BRANCH  46  49
ATOM     49  O   UNL     1      81.995  73.366  89.983  1.00  0.00    -0.504 OA
ATOM     50  H   UNL     1      81.490  74.088  90.393  1.00  0.00     0.293 HD
ENDBRANCH  46  49
ENDBRANCH  40  41
ENDBRANCH  38  40
ENDBRANCH  37  38
ENDBRANCH   1  37
TORSDOF 11
ENDMDL
MODEL 7
REMARK VINA RESULT:    -5.346     12.576     17.474
REMARK INTER + INTRA:         -10.357
REMARK INTER:                  -9.171
REMARK INTRA:                  -1.186
REMARK UNBOUND:                -0.948
REMARK SMILES C=C(C)[C@]12C[C@@H](C)[C@@]34O[C@](Cc5ccccc5)(O[C@@H]1[C@@H]3C=C(COC(=O)Cc1ccc(O)c(OC)c1)C[C@]1(O)C(=O)C(C)=C[C@@H]41)O2
REMARK SMILES IDX 23 1 22 2 21 3 20 4 9 5 8 6 10 7 6 8 18 9 46 10 19 11 5 12
REMARK SMILES IDX 7 13 4 14 45 15 38 16 44 17 40 18 42 20 41 21 43 22 39 23
REMARK SMILES IDX 11 25 12 26 13 27 17 28 14 29 16 30 15 31 2 32 3 33 1 34
REMARK SMILES IDX 37 35 24 37 25 38 26 39 27 40 28 41 36 42 29 43 33 44 30 45
REMARK SMILES IDX 31 46 34 47 35 48 32 49
REMARK H PARENT 39 24 32 50
REMARK Flexibility Score: 90.00
ROOT
ATOM      1  C   UNL     1      77.861  98.780  71.748  1.00  0.00     0.264 C 
ENDROOT
BRANCH   1   2
ATOM      2  C   UNL     1      79.129  99.594  71.863  1.00  0.00    -0.033 C 
ATOM      3  C   UNL     1      79.845  99.858  70.751  1.00  0.00    -0.015 C 
BRANCH   3   4
ATOM      4  C   UNL     1      81.177 100.577  70.610  1.00  0.00     0.078 C 
ATOM      5  O   UNL     1      80.667 102.964  70.207  1.00  0.00    -0.319 OA
ATOM      6  C   UNL     1      81.294 102.048  71.157  1.00  0.00     0.095 C 
ATOM      7  C   UNL     1      80.952 102.704  68.820  1.00  0.00     0.289 C 
ATOM      8  C   UNL     1      82.836 102.394  71.276  1.00  0.00     0.023 C 
ATOM      9  O   UNL     1      80.568 101.382  68.452  1.00  0.00    -0.320 OA
ATOM     10  O   UNL     1      82.344 102.796  68.527  1.00  0.00    -0.313 OA
ATOM     11  C   UNL     1      81.592 100.627  69.119  1.00  0.00     0.170 C 
ATOM     12  C   UNL     1      83.668 101.686  70.163  1.00  0.00     0.049 C 
ATOM     13  C   UNL     1      83.177 103.893  71.294  1.00  0.00     0.011 C 
ATOM     14  C   UNL     1      82.853 101.495  68.883  1.00  0.00     0.122 C 
BRANCH   6  15
ATOM     15  C   UNL     1      80.468 102.218  72.465  1.00  0.00     0.086 C 
ATOM     16  C   UNL     1      80.571 101.068  73.488  1.00  0.00     0.140 CG0
ATOM     17  C   UNL     1      80.662 103.451  73.303  1.00  0.00    -0.010 C 
ATOM     18  C   UNL     1      80.472 101.799  74.811  1.00  0.00     0.190 C 
ATOM     19  G   UNL     1      79.461 100.034  73.307  1.00  0.00     0.000 G0
ATOM     20  C   UNL     1      80.642 103.253  74.626  1.00  0.00    -0.008 C 
ATOM     21  O   UNL     1      80.325 101.271  75.902  1.00  0.00    -0.291 OA
ATOM     22  C   UNL     1      80.715 104.226  75.735  1.00  0.00     0.048 C 
BRANCH  16  23
ATOM     23  O   UNL     1      81.848 100.454  73.535  1.00  0.00    -0.381 OA
ATOM     24  H   UNL     1      81.828  99.756  74.210  1.00  0.00     0.212 HD
ENDBRANCH  16  23
ENDBRANCH   6  15
BRANCH   7  25
ATOM     25  C   UNL     1      80.191 103.711  67.981  1.00  0.00     0.135 C 
BRANCH  25  26
ATOM     26  C   UNL     1      80.780 103.856  66.600  1.00  0.00    -0.040 A 
ATOM     27  C   UNL     1      80.639 102.826  65.670  1.00  0.00     0.004 A 
ATOM     28  C   UNL     1      81.463 105.021  66.252  1.00  0.00     0.004 A 
ATOM     29  C   UNL     1      81.183 102.960  64.392  1.00  0.00     0.000 A 
ATOM     30  C   UNL     1      82.008 105.155  64.974  1.00  0.00     0.000 A 
ATOM     31  C   UNL     1      81.867 104.124  64.045  1.00  0.00     0.000 A 
ENDBRANCH  25  26
ENDBRANCH   7  25
BRANCH  14  32
ATOM     32  C   UNL     1      83.679 100.986  67.747  1.00  0.00    -0.046 C 
ATOM     33  C   UNL     1      83.503  99.539  67.395  1.00  0.00     0.042 C 
ATOM     34  C   UNL     1      84.531 101.779  67.078  1.00  0.00     0.010 C 
ENDBRANCH  14  32
ENDBRANCH   3   4
BRANCH   2  35
ATOM     35  C   UNL     1      79.431 100.029  73.284  1.00  0.00     0.078 CG0
ATOM     36  G   UNL     1      80.533 101.069  73.478  1.00  0.00     0.000 G0
ENDBRANCH   2  35
ENDBRANCH   1   2
BRANCH   1  37
ATOM     37  O   UNL     1      78.190  97.442  71.442  1.00  0.00    -0.461 OA
BRANCH  37  38
ATOM     38  C   UNL     1      78.357  96.596  72.513  1.00  0.00     0.310 C 
ATOM     39  O   UNL     1      79.313  95.852  72.679  1.00  0.00    -0.252 OA
BRANCH  38  40
ATOM     40  C   UNL     1      77.178  96.728  73.449  1.00  0.00     0.158 C 
BRANCH  40  41
ATOM     41  C   UNL     1      76.210  95.578  73.341  1.00  0.00    -0.033 A 
ATOM     42  C   UNL     1      75.923  94.801  74.465  1.00  0.00     0.054 A 
ATOM     43  C   UNL     1      75.601  95.290  72.120  1.00  0.00     0.008 A 
ATOM     44  C   UNL     1      75.027  93.736  74.365  1.00  0.00     0.160 A 
ATOM     45  C   UNL     1      74.705  94.225  72.021  1.00  0.00     0.050 A 
ATOM     46  C   UNL     1      74.418  93.448  73.143  1.00  0.00     0.157 A 
BRANCH  44  47
ATOM     47  O   UNL     1      74.755  92.985  75.468  1.00  0.00    -0.493 OA
ATOM     48  C   UNL     1      75.312  93.425  76.706  1.00  0.00     0.278 C 
ENDBRANCH  44  47
BRANCH  46  49
ATOM     49  O   UNL     1      73.542  92.412  73.034  1.00  0.00    -0.504 OA
ATOM     50  H   UNL     1      73.802  91.711  73.655  1.00  0.00     0.293 HD
ENDBRANCH  46  49
ENDBRANCH  40  41
ENDBRANCH  38  40
ENDBRANCH  37  38
ENDBRANCH   1  37
TORSDOF 11
ENDMDL
MODEL 8
REMARK VINA RESULT:    -5.195     26.314     30.568
REMARK INTER + INTRA:         -10.091
REMARK INTER:                  -8.106
REMARK INTRA:                  -1.985
REMARK UNBOUND:                -0.948
REMARK SMILES C=C(C)[C@]12C[C@@H](C)[C@@]34O[C@](Cc5ccccc5)(O[C@@H]1[C@@H]3C=C(COC(=O)Cc1ccc(O)c(OC)c1)C[C@]1(O)C(=O)C(C)=C[C@@H]41)O2
REMARK SMILES IDX 23 1 22 2 21 3 20 4 9 5 8 6 10 7 6 8 18 9 46 10 19 11 5 12
REMARK SMILES IDX 7 13 4 14 45 15 38 16 44 17 40 18 42 20 41 21 43 22 39 23
REMARK SMILES IDX 11 25 12 26 13 27 17 28 14 29 16 30 15 31 2 32 3 33 1 34
REMARK SMILES IDX 37 35 24 37 25 38 26 39 27 40 28 41 36 42 29 43 33 44 30 45
REMARK SMILES IDX 31 46 34 47 35 48 32 49
REMARK H PARENT 39 24 32 50
REMARK Flexibility Score: 90.00
ROOT
ATOM      1  C   UNL     1      99.683  98.223  77.176  1.00  0.00     0.264 C 
ENDROOT
BRANCH   1   2
ATOM      2  C   UNL     1      99.394  99.092  75.974  1.00  0.00    -0.033 C 
ATOM      3  C   UNL     1      98.754  98.559  74.914  1.00  0.00    -0.015 C 
BRANCH   3   4
ATOM      4  C   UNL     1      98.418  99.190  73.573  1.00  0.00     0.078 C 
ATOM      5  O   UNL     1      96.137 100.126  73.769  1.00  0.00    -0.319 OA
ATOM      6  C   UNL     1      97.535 100.494  73.559  1.00  0.00     0.095 C 
ATOM      7  C   UNL     1      95.689  98.965  73.044  1.00  0.00     0.289 C 
ATOM      8  C   UNL     1      97.691 101.164  72.132  1.00  0.00     0.023 C 
ATOM      9  O   UNL     1      96.479  97.822  73.359  1.00  0.00    -0.320 OA
ATOM     10  O   UNL     1      95.799  99.132  71.633  1.00  0.00    -0.313 OA
ATOM     11  C   UNL     1      97.694  98.159  72.672  1.00  0.00     0.170 C 
ATOM     12  C   UNL     1      97.886 100.093  71.015  1.00  0.00     0.049 C 
ATOM     13  C   UNL     1      96.562 102.125  71.727  1.00  0.00     0.011 C 
ATOM     14  C   UNL     1      97.171  98.785  71.355  1.00  0.00     0.122 C 
BRANCH   6  15
ATOM     15  C   UNL     1      97.883 101.408  74.769  1.00  0.00     0.086 C 
ATOM     16  C   UNL     1      99.383 101.569  75.091  1.00  0.00     0.140 CG0
ATOM     17  C   UNL     1      97.365 102.819  74.799  1.00  0.00    -0.010 C 
ATOM     18  C   UNL     1      99.458 102.997  75.590  1.00  0.00     0.190 C 
ATOM     19  G   UNL     1      99.861 100.559  76.133  1.00  0.00     0.000 G0
ATOM     20  C   UNL     1      98.216 103.731  75.281  1.00  0.00    -0.008 C 
ATOM     21  O   UNL     1     100.426 103.507  76.133  1.00  0.00    -0.291 OA
ATOM     22  C   UNL     1      98.023 105.174  75.531  1.00  0.00     0.048 C 
BRANCH  16  23
ATOM     23  O   UNL     1     100.219 101.567  73.946  1.00  0.00    -0.381 OA
ATOM     24  H   UNL     1     101.119 101.330  74.223  1.00  0.00     0.212 HD
ENDBRANCH  16  23
ENDBRANCH   6  15
BRANCH   7  25
ATOM     25  C   UNL     1      94.242  98.704  73.411  1.00  0.00     0.135 C 
BRANCH  25  26
ATOM     26  C   UNL     1      93.299  99.640  72.696  1.00  0.00    -0.040 A 
ATOM     27  C   UNL     1      92.624  99.210  71.553  1.00  0.00     0.004 A 
ATOM     28  C   UNL     1      93.102 100.934  73.177  1.00  0.00     0.004 A 
ATOM     29  C   UNL     1      91.752 100.075  70.891  1.00  0.00     0.000 A 
ATOM     30  C   UNL     1      92.230 101.799  72.515  1.00  0.00     0.000 A 
ATOM     31  C   UNL     1      91.556 101.369  71.372  1.00  0.00     0.000 A 
ENDBRANCH  25  26
ENDBRANCH   7  25
BRANCH  14  32
ATOM     32  C   UNL     1      97.189  97.810  70.224  1.00  0.00    -0.046 C 
ATOM     33  C   UNL     1      98.542  97.346  69.771  1.00  0.00     0.042 C 
ATOM     34  C   UNL     1      96.061  97.373  69.645  1.00  0.00     0.010 C 
ENDBRANCH  14  32
ENDBRANCH   3   4
BRANCH   2  35
ATOM     35  C   UNL     1      99.881 100.519  76.141  1.00  0.00     0.078 CG0
ATOM     36  G   UNL     1      99.389 101.548  75.125  1.00  0.00     0.000 G0
ENDBRANCH   2  35
ENDBRANCH   1   2
BRANCH   1  37
ATOM     37  O   UNL     1      98.484  97.986  77.881  1.00  0.00    -0.461 OA
BRANCH  37  38
ATOM     38  C   UNL     1      98.156  98.907  78.849  1.00  0.00     0.310 C 
ATOM     39  O   UNL     1      98.923  99.338  79.698  1.00  0.00    -0.252 OA
BRANCH  38  40
ATOM     40  C   UNL     1      96.705  99.300  78.699  1.00  0.00     0.158 C 
BRANCH  40  41
ATOM     41  C   UNL     1      95.840  98.174  78.194  1.00  0.00    -0.033 A 
ATOM     42  C   UNL     1      95.743  96.988  78.922  1.00  0.00     0.054 A 
ATOM     43  C   UNL     1      95.135  98.318  76.999  1.00  0.00     0.008 A 
ATOM     44  C   UNL     1      94.942  95.946  78.454  1.00  0.00     0.160 A 
ATOM     45  C   UNL     1      94.335  97.276  76.530  1.00  0.00     0.050 A 
ATOM     46  C   UNL     1      94.238  96.090  77.257  1.00  0.00     0.157 A 
BRANCH  44  47
ATOM     47  O   UNL     1      94.856  94.792  79.173  1.00  0.00    -0.493 OA
ATOM     48  C   UNL     1      95.415  94.803  80.486  1.00  0.00     0.278 C 
ENDBRANCH  44  47
BRANCH  46  49
ATOM     49  O   UNL     1      93.452  95.080  76.791  1.00  0.00    -0.504 OA
ATOM     50  H   UNL     1      92.626  95.060  77.303  1.00  0.00     0.293 HD
ENDBRANCH  46  49
ENDBRANCH  40  41
ENDBRANCH  38  40
ENDBRANCH  37  38
ENDBRANCH   1  37
TORSDOF 11
ENDMDL
MODEL 9
REMARK VINA RESULT:    -5.190     20.467     24.018
REMARK INTER + INTRA:         -10.082
REMARK INTER:                  -8.950
REMARK INTRA:                  -1.133
REMARK UNBOUND:                -0.948
REMARK SMILES C=C(C)[C@]12C[C@@H](C)[C@@]34O[C@](Cc5ccccc5)(O[C@@H]1[C@@H]3C=C(COC(=O)Cc1ccc(O)c(OC)c1)C[C@]1(O)C(=O)C(C)=C[C@@H]41)O2
REMARK SMILES IDX 23 1 22 2 21 3 20 4 9 5 8 6 10 7 6 8 18 9 46 10 19 11 5 12
REMARK SMILES IDX 7 13 4 14 45 15 38 16 44 17 40 18 42 20 41 21 43 22 39 23
REMARK SMILES IDX 11 25 12 26 13 27 17 28 14 29 16 30 15 31 2 32 3 33 1 34
REMARK SMILES IDX 37 35 24 37 25 38 26 39 27 40 28 41 36 42 29 43 33 44 30 45
REMARK SMILES IDX 31 46 34 47 35 48 32 49
REMARK H PARENT 39 24 32 50
REMARK Flexibility Score: 90.00
ROOT
ATOM      1  C   UNL     1      56.446  85.085  89.146  1.00  0.00     0.264 C 
ENDROOT
BRANCH   1   2
ATOM      2  C   UNL     1      56.175  83.636  88.815  1.00  0.00    -0.033 C 
ATOM      3  C   UNL     1      56.512  83.163  87.598  1.00  0.00    -0.015 C 
BRANCH   3   4
ATOM      4  C   UNL     1      56.278  81.786  86.999  1.00  0.00     0.078 C 
ATOM      5  O   UNL     1      58.289  80.433  87.497  1.00  0.00    -0.319 OA
ATOM      6  C   UNL     1      56.854  80.532  87.757  1.00  0.00     0.095 C 
ATOM      7  C   UNL     1      58.686  80.676  86.134  1.00  0.00     0.289 C 
ATOM      8  C   UNL     1      56.128  79.247  87.181  1.00  0.00     0.023 C 
ATOM      9  O   UNL     1      58.263  81.963  85.693  1.00  0.00    -0.320 OA
ATOM     10  O   UNL     1      58.100  79.746  85.226  1.00  0.00    -0.313 OA
ATOM     11  C   UNL     1      56.851  81.733  85.562  1.00  0.00     0.170 C 
ATOM     12  C   UNL     1      55.786  79.415  85.668  1.00  0.00     0.049 C 
ATOM     13  C   UNL     1      56.870  77.918  87.393  1.00  0.00     0.011 C 
ATOM     14  C   UNL     1      56.800  80.309  84.954  1.00  0.00     0.122 C 
BRANCH   6  15
ATOM     15  C   UNL     1      56.752  80.724  89.298  1.00  0.00     0.086 C 
ATOM     16  C   UNL     1      55.434  81.331  89.822  1.00  0.00     0.140 CG0
ATOM     17  C   UNL     1      56.977  79.545  90.203  1.00  0.00    -0.010 C 
ATOM     18  C   UNL     1      55.258  80.631  91.153  1.00  0.00     0.190 C 
ATOM     19  G   UNL     1      55.515  82.850  89.965  1.00  0.00     0.000 G0
ATOM     20  C   UNL     1      56.172  79.480  91.269  1.00  0.00    -0.008 C 
ATOM     21  O   UNL     1      54.439  80.932  92.008  1.00  0.00    -0.291 OA
ATOM     22  C   UNL     1      56.162  78.525  92.396  1.00  0.00     0.048 C 
BRANCH  16  23
ATOM     23  O   UNL     1      54.289  80.942  89.081  1.00  0.00    -0.381 OA
ATOM     24  H   UNL     1      54.478  80.095  88.645  1.00  0.00     0.212 HD
ENDBRANCH  16  23
ENDBRANCH   6  15
BRANCH   7  25
ATOM     25  C   UNL     1      60.196  80.578  86.054  1.00  0.00     0.135 C 
BRANCH  25  26
ATOM     26  C   UNL     1      60.649  79.236  85.534  1.00  0.00    -0.040 A 
ATOM     27  C   UNL     1      60.691  78.135  86.391  1.00  0.00     0.004 A 
ATOM     28  C   UNL     1      61.023  79.095  84.199  1.00  0.00     0.004 A 
ATOM     29  C   UNL     1      61.110  76.894  85.910  1.00  0.00     0.000 A 
ATOM     30  C   UNL     1      61.442  77.853  83.718  1.00  0.00     0.000 A 
ATOM     31  C   UNL     1      61.485  76.753  84.575  1.00  0.00     0.000 A 
ENDBRANCH  25  26
ENDBRANCH   7  25
BRANCH  14  32
ATOM     32  C   UNL     1      56.599  80.337  83.474  1.00  0.00    -0.046 C 
ATOM     33  C   UNL     1      57.312  79.277  82.689  1.00  0.00     0.042 C 
ATOM     34  C   UNL     1      55.825  81.258  82.881  1.00  0.00     0.010 C 
ENDBRANCH  14  32
ENDBRANCH   3   4
BRANCH   2  35
ATOM     35  C   UNL     1      55.533  82.874  89.960  1.00  0.00     0.078 CG0
ATOM     36  G   UNL     1      55.456  81.354  89.831  1.00  0.00     0.000 G0
ENDBRANCH   2  35
ENDBRANCH   1   2
BRANCH   1  37
ATOM     37  O   UNL     1      56.026  85.896  88.071  1.00  0.00    -0.461 OA
BRANCH  37  38
ATOM     38  C   UNL     1      56.885  86.904  87.698  1.00  0.00     0.310 C 
ATOM     39  O   UNL     1      56.779  88.077  88.030  1.00  0.00    -0.252 OA
BRANCH  38  40
ATOM     40  C   UNL     1      57.974  86.339  86.817  1.00  0.00     0.158 C 
BRANCH  40  41
ATOM     41  C   UNL     1      59.347  86.841  87.184  1.00  0.00    -0.033 A 
ATOM     42  C   UNL     1      59.962  86.396  88.355  1.00  0.00     0.054 A 
ATOM     43  C   UNL     1      60.003  87.749  86.353  1.00  0.00     0.008 A 
ATOM     44  C   UNL     1      61.233  86.861  88.694  1.00  0.00     0.160 A 
ATOM     45  C   UNL     1      61.274  88.213  86.692  1.00  0.00     0.050 A 
ATOM     46  C   UNL     1      61.889  87.770  87.863  1.00  0.00     0.157 A 
BRANCH  44  47
ATOM     47  O   UNL     1      61.823  86.420  89.840  1.00  0.00    -0.493 OA
ATOM     48  C   UNL     1      62.138  87.402  90.826  1.00  0.00     0.278 C 
ENDBRANCH  44  47
BRANCH  46  49
ATOM     49  O   UNL     1      63.130  88.229  88.183  1.00  0.00    -0.504 OA
ATOM     50  H   UNL     1      63.549  87.605  88.799  1.00  0.00     0.293 HD
ENDBRANCH  46  49
ENDBRANCH  40  41
ENDBRANCH  38  40
ENDBRANCH  37  38
ENDBRANCH   1  37
TORSDOF 11
ENDMDL
MODEL 10
REMARK VINA RESULT:    -5.151     18.858     24.167
REMARK INTER + INTRA:         -10.013
REMARK INTER:                  -7.830
REMARK INTRA:                  -2.183
REMARK UNBOUND:                -0.948
REMARK SMILES C=C(C)[C@]12C[C@@H](C)[C@@]34O[C@](Cc5ccccc5)(O[C@@H]1[C@@H]3C=C(COC(=O)Cc1ccc(O)c(OC)c1)C[C@]1(O)C(=O)C(C)=C[C@@H]41)O2
REMARK SMILES IDX 23 1 22 2 21 3 20 4 9 5 8 6 10 7 6 8 18 9 46 10 19 11 5 12
REMARK SMILES IDX 7 13 4 14 45 15 38 16 44 17 40 18 42 20 41 21 43 22 39 23
REMARK SMILES IDX 11 25 12 26 13 27 17 28 14 29 16 30 15 31 2 32 3 33 1 34
REMARK SMILES IDX 37 35 24 37 25 38 26 39 27 40 28 41 36 42 29 43 33 44 30 45
REMARK SMILES IDX 31 46 34 47 35 48 32 49
REMARK H PARENT 39 24 32 50
REMARK Flexibility Score: 90.00
ROOT
ATOM      1  C   UNL     1      56.447  84.654  89.344  1.00  0.00     0.264 C 
ENDROOT
BRANCH   1   2
ATOM      2  C   UNL     1      56.227  83.181  89.086  1.00  0.00    -0.033 C 
ATOM      3  C   UNL     1      56.710  82.631  87.954  1.00  0.00    -0.015 C 
BRANCH   3   4
ATOM      4  C   UNL     1      56.560  81.212  87.431  1.00  0.00     0.078 C 
ATOM      5  O   UNL     1      58.519  79.935  88.238  1.00  0.00    -0.319 OA
ATOM      6  C   UNL     1      57.063  80.024  88.332  1.00  0.00     0.095 C 
ATOM      7  C   UNL     1      59.061  80.092  86.913  1.00  0.00     0.289 C 
ATOM      8  C   UNL     1      56.420  78.689  87.771  1.00  0.00     0.023 C 
ATOM      9  O   UNL     1      58.675  81.338  86.340  1.00  0.00    -0.320 OA
ATOM     10  O   UNL     1      58.590  79.092  86.014  1.00  0.00    -0.313 OA
ATOM     11  C   UNL     1      57.289  81.073  86.071  1.00  0.00     0.170 C 
ATOM     12  C   UNL     1      56.245  78.747  86.222  1.00  0.00     0.049 C 
ATOM     13  C   UNL     1      57.150  77.392  88.155  1.00  0.00     0.011 C 
ATOM     14  C   UNL     1      57.322  79.610  85.563  1.00  0.00     0.122 C 
BRANCH   6  15
ATOM     15  C   UNL     1      56.789  80.318  89.836  1.00  0.00     0.086 C 
ATOM     16  C   UNL     1      55.414  80.933  90.168  1.00  0.00     0.140 CG0
ATOM     17  C   UNL     1      56.928  79.208  90.840  1.00  0.00    -0.010 C 
ATOM     18  C   UNL     1      55.101  80.322  91.518  1.00  0.00     0.190 C 
ATOM     19  G   UNL     1      55.460  82.459  90.214  1.00  0.00     0.000 G0
ATOM     20  C   UNL     1      56.011  79.199  91.814  1.00  0.00    -0.008 C 
ATOM     21  O   UNL     1      54.189  80.663  92.256  1.00  0.00    -0.291 OA
ATOM     22  C   UNL     1      55.888  78.323  92.997  1.00  0.00     0.048 C 
BRANCH  16  23
ATOM     23  O   UNL     1      54.362  80.471  89.336  1.00  0.00    -0.381 OA
ATOM     24  H   UNL     1      53.688  81.168  89.279  1.00  0.00     0.212 HD
ENDBRANCH  16  23
ENDBRANCH   6  15
BRANCH   7  25
ATOM     25  C   UNL     1      60.572  80.018  87.006  1.00  0.00     0.135 C 
BRANCH  25  26
ATOM     26  C   UNL     1      61.199  81.385  87.114  1.00  0.00    -0.040 A 
ATOM     27  C   UNL     1      61.177  82.069  88.330  1.00  0.00     0.004 A 
ATOM     28  C   UNL     1      61.803  81.966  85.999  1.00  0.00     0.004 A 
ATOM     29  C   UNL     1      61.758  83.333  88.430  1.00  0.00     0.000 A 
ATOM     30  C   UNL     1      62.384  83.231  86.099  1.00  0.00     0.000 A 
ATOM     31  C   UNL     1      62.360  83.914  87.315  1.00  0.00     0.000 A 
ENDBRANCH  25  26
ENDBRANCH   7  25
BRANCH  14  32
ATOM     32  C   UNL     1      57.285  79.533  84.071  1.00  0.00    -0.046 C 
ATOM     33  C   UNL     1      56.461  80.575  83.374  1.00  0.00     0.042 C 
ATOM     34  C   UNL     1      57.952  78.587  83.393  1.00  0.00     0.010 C 
ENDBRANCH  14  32
ENDBRANCH   3   4
BRANCH   2  35
ATOM     35  C   UNL     1      55.461  82.490  90.198  1.00  0.00     0.078 CG0
ATOM     36  G   UNL     1      55.403  80.964  90.163  1.00  0.00     0.000 G0
ENDBRANCH   2  35
ENDBRANCH   1   2
BRANCH   1  37
ATOM     37  O   UNL     1      56.072  85.389  88.199  1.00  0.00    -0.461 OA
BRANCH  37  38
ATOM     38  C   UNL     1      56.881  86.450  87.866  1.00  0.00     0.310 C 
ATOM     39  O   UNL     1      56.777  87.582  88.317  1.00  0.00    -0.252 OA
BRANCH  38  40
ATOM     40  C   UNL     1      57.914  85.999  86.859  1.00  0.00     0.158 C 
BRANCH  40  41
ATOM     41  C   UNL     1      59.298  86.508  87.169  1.00  0.00    -0.033 A 
ATOM     42  C   UNL     1      60.139  86.916  86.133  1.00  0.00     0.054 A 
ATOM     43  C   UNL     1      59.738  86.572  88.491  1.00  0.00     0.008 A 
ATOM     44  C   UNL     1      61.421  87.387  86.420  1.00  0.00     0.160 A 
ATOM     45  C   UNL     1      61.020  87.043  88.778  1.00  0.00     0.050 A 
ATOM     46  C   UNL     1      61.861  87.450  87.743  1.00  0.00     0.157 A 
BRANCH  44  47
ATOM     47  O   UNL     1      62.233  87.782  85.401  1.00  0.00    -0.493 OA
ATOM     48  C   UNL     1      62.878  86.754  84.651  1.00  0.00     0.278 C 
ENDBRANCH  44  47
BRANCH  46  49
ATOM     49  O   UNL     1      63.109  87.909  88.036  1.00  0.00    -0.504 OA
ATOM     50  H   UNL     1      63.166  88.849  87.794  1.00  0.00     0.293 HD
ENDBRANCH  46  49
ENDBRANCH  40  41
ENDBRANCH  38  40
ENDBRANCH  37  38
ENDBRANCH   1  37
TORSDOF 11
ENDMDL
