MODEL 1
REMARK VINA RESULT:    -6.225      0.000      0.000
REMARK INTER + INTRA:         -11.239
REMARK INTER:                 -10.410
REMARK INTRA:                  -0.829
REMARK UNBOUND:                -0.829
REMARK SMILES COc1cc(CNC(=O)CCCCCCCC(C)C)ccc1O
REMARK SMILES IDX 11 1 10 2 8 3 9 4 7 5 6 7 5 8 4 9 20 10 3 11 21 12 22 13
REMARK SMILES IDX 2 14 1 15 23 16 12 18 13 19 14 20 15 21 16 22 17 23 18 24
REMARK SMILES IDX 19 25
REMARK H PARENT 7 6 23 17
REMARK Flexibility Score: inf
ROOT
ATOM      1  C   UNL     1      93.989  97.112  74.611  1.00  0.00     0.010 C 
ENDROOT
BRANCH   1   2
ATOM      2  C   UNL     1      94.603  97.787  73.386  1.00  0.00     0.100 C 
BRANCH   2   3
ATOM      3  C   UNL     1      93.859  99.051  72.989  1.00  0.00     0.220 C 
ATOM      4  O   UNL     1      93.404  99.849  73.803  1.00  0.00    -0.275 OA
ATOM      5  N   UNL     1      93.761  99.173  71.611  1.00  0.00    -0.352 N 
ATOM      6  H   UNL     1      94.160  98.454  71.014  1.00  0.00     0.163 HD
BRANCH   5   7
ATOM      7  C   UNL     1      93.093 100.281  70.968  1.00  0.00     0.151 C 
BRANCH   7   8
ATOM      8  C   UNL     1      91.817  99.858  70.301  1.00  0.00    -0.025 A 
ATOM      9  C   UNL     1      91.447 100.436  69.093  1.00  0.00     0.056 A 
ATOM     10  C   UNL     1      91.018  98.891  70.899  1.00  0.00     0.009 A 
ATOM     11  C   UNL     1      90.261 100.043  68.474  1.00  0.00     0.160 A 
ATOM     12  C   UNL     1      89.831  98.498  70.280  1.00  0.00     0.050 A 
ATOM     13  C   UNL     1      89.452  99.074  69.068  1.00  0.00     0.157 A 
BRANCH  11  14
ATOM     14  O   UNL     1      89.902 100.613  67.290  1.00  0.00    -0.493 OA
ATOM     15  C   UNL     1      90.490 100.073  66.106  1.00  0.00     0.278 C 
ENDBRANCH  11  14
BRANCH  13  16
ATOM     16  O   UNL     1      88.292  98.681  68.472  1.00  0.00    -0.504 OA
ATOM     17  H   UNL     1      87.787  99.470  68.211  1.00  0.00     0.293 HD
ENDBRANCH  13  16
ENDBRANCH   7   8
ENDBRANCH   5   7
ENDBRANCH   2   3
ENDBRANCH   1   2
BRANCH   1  18
ATOM     18  C   UNL     1      94.232  95.601  74.661  1.00  0.00     0.001 C 
BRANCH  18  19
ATOM     19  C   UNL     1      93.265  94.801  75.540  1.00  0.00     0.000 C 
BRANCH  19  20
ATOM     20  C   UNL     1      92.848  95.545  76.812  1.00  0.00     0.000 C 
BRANCH  20  21
ATOM     21  C   UNL     1      93.676  95.162  78.043  1.00  0.00     0.000 C 
BRANCH  21  22
ATOM     22  C   UNL     1      93.616  93.666  78.372  1.00  0.00     0.003 C 
BRANCH  22  23
ATOM     23  C   UNL     1      94.894  93.136  79.052  1.00  0.00    -0.017 C 
ATOM     24  C   UNL     1      95.464  94.205  79.987  1.00  0.00     0.007 C 
ATOM     25  C   UNL     1      95.962  92.713  78.043  1.00  0.00     0.007 C 
ENDBRANCH  22  23
ENDBRANCH  21  22
ENDBRANCH  20  21
ENDBRANCH  19  20
ENDBRANCH  18  19
ENDBRANCH   1  18
TORSDOF 12
ENDMDL
MODEL 2
REMARK VINA RESULT:    -6.106      5.857      9.379
REMARK INTER + INTRA:         -11.040
REMARK INTER:                  -9.273
REMARK INTRA:                  -1.767
REMARK UNBOUND:                -0.829
REMARK SMILES COc1cc(CNC(=O)CCCCCCCC(C)C)ccc1O
REMARK SMILES IDX 11 1 10 2 8 3 9 4 7 5 6 7 5 8 4 9 20 10 3 11 21 12 22 13
REMARK SMILES IDX 2 14 1 15 23 16 12 18 13 19 14 20 15 21 16 22 17 23 18 24
REMARK SMILES IDX 19 25
REMARK H PARENT 7 6 23 17
REMARK Flexibility Score: inf
ROOT
ATOM      1  C   UNL     1      94.708  92.922  78.695  1.00  0.00     0.010 C 
ENDROOT
BRANCH   1   2
ATOM      2  C   UNL     1      95.226  92.889  80.131  1.00  0.00     0.100 C 
BRANCH   2   3
ATOM      3  C   UNL     1      96.024  94.132  80.487  1.00  0.00     0.220 C 
ATOM      4  O   UNL     1      95.750  94.859  81.438  1.00  0.00    -0.275 OA
ATOM      5  N   UNL     1      97.076  94.333  79.606  1.00  0.00    -0.352 N 
ATOM      6  H   UNL     1      97.219  93.681  78.838  1.00  0.00     0.163 HD
BRANCH   5   7
ATOM      7  C   UNL     1      97.987  95.449  79.714  1.00  0.00     0.151 C 
BRANCH   7   8
ATOM      8  C   UNL     1      98.193  96.135  78.395  1.00  0.00    -0.025 A 
ATOM      9  C   UNL     1      99.482  96.430  77.967  1.00  0.00     0.056 A 
ATOM     10  C   UNL     1      97.092  96.469  77.615  1.00  0.00     0.009 A 
ATOM     11  C   UNL     1      99.673  97.067  76.741  1.00  0.00     0.160 A 
ATOM     12  C   UNL     1      97.284  97.107  76.389  1.00  0.00     0.050 A 
ATOM     13  C   UNL     1      98.573  97.407  75.952  1.00  0.00     0.157 A 
BRANCH  11  14
ATOM     14  O   UNL     1     100.938  97.355  76.325  1.00  0.00    -0.493 OA
ATOM     15  C   UNL     1     101.990  97.164  77.270  1.00  0.00     0.278 C 
ENDBRANCH  11  14
BRANCH  13  16
ATOM     16  O   UNL     1      98.747  98.029  74.753  1.00  0.00    -0.504 OA
ATOM     17  H   UNL     1      98.470  98.957  74.835  1.00  0.00     0.293 HD
ENDBRANCH  13  16
ENDBRANCH   7   8
ENDBRANCH   5   7
ENDBRANCH   2   3
ENDBRANCH   1   2
BRANCH   1  18
ATOM     18  C   UNL     1      93.624  93.977  78.461  1.00  0.00     0.001 C 
BRANCH  18  19
ATOM     19  C   UNL     1      92.260  93.441  78.014  1.00  0.00     0.000 C 
BRANCH  19  20
ATOM     20  C   UNL     1      91.405  94.488  77.296  1.00  0.00     0.000 C 
BRANCH  20  21
ATOM     21  C   UNL     1      92.102  95.844  77.142  1.00  0.00     0.000 C 
BRANCH  21  22
ATOM     22  C   UNL     1      92.405  96.209  75.685  1.00  0.00     0.003 C 
BRANCH  22  23
ATOM     23  C   UNL     1      93.907  96.163  75.340  1.00  0.00    -0.017 C 
ATOM     24  C   UNL     1      94.213  97.171  74.230  1.00  0.00     0.007 C 
ATOM     25  C   UNL     1      94.368  94.770  74.912  1.00  0.00     0.007 C 
ENDBRANCH  22  23
ENDBRANCH  21  22
ENDBRANCH  20  21
ENDBRANCH  19  20
ENDBRANCH  18  19
ENDBRANCH   1  18
TORSDOF 12
ENDMDL
MODEL 3
REMARK VINA RESULT:    -6.069     16.329     19.498
REMARK INTER + INTRA:         -10.979
REMARK INTER:                  -9.825
REMARK INTRA:                  -1.154
REMARK UNBOUND:                -0.829
REMARK SMILES COc1cc(CNC(=O)CCCCCCCC(C)C)ccc1O
REMARK SMILES IDX 11 1 10 2 8 3 9 4 7 5 6 7 5 8 4 9 20 10 3 11 21 12 22 13
REMARK SMILES IDX 2 14 1 15 23 16 12 18 13 19 14 20 15 21 16 22 17 23 18 24
REMARK SMILES IDX 19 25
REMARK H PARENT 7 6 23 17
REMARK Flexibility Score: inf
ROOT
ATOM      1  C   UNL     1      97.058  81.951  78.063  1.00  0.00     0.010 C 
ENDROOT
BRANCH   1   2
ATOM      2  C   UNL     1      98.377  81.233  78.340  1.00  0.00     0.100 C 
BRANCH   2   3
ATOM      3  C   UNL     1      98.444  80.672  79.751  1.00  0.00     0.220 C 
ATOM      4  O   UNL     1      99.459  80.175  80.231  1.00  0.00    -0.275 OA
ATOM      5  N   UNL     1      97.227  80.788  80.404  1.00  0.00    -0.352 N 
ATOM      6  H   UNL     1      96.436  81.205  79.921  1.00  0.00     0.163 HD
BRANCH   5   7
ATOM      7  C   UNL     1      97.016  80.324  81.756  1.00  0.00     0.151 C 
BRANCH   7   8
ATOM      8  C   UNL     1      96.382  81.377  82.619  1.00  0.00    -0.025 A 
ATOM      9  C   UNL     1      95.479  81.005  83.607  1.00  0.00     0.056 A 
ATOM     10  C   UNL     1      96.705  82.714  82.419  1.00  0.00     0.009 A 
ATOM     11  C   UNL     1      94.890  81.984  84.408  1.00  0.00     0.160 A 
ATOM     12  C   UNL     1      96.115  83.693  83.220  1.00  0.00     0.050 A 
ATOM     13  C   UNL     1      95.208  83.328  84.214  1.00  0.00     0.157 A 
BRANCH  11  14
ATOM     14  O   UNL     1      94.004  81.615  85.375  1.00  0.00    -0.493 OA
ATOM     15  C   UNL     1      92.669  81.333  84.958  1.00  0.00     0.278 C 
ENDBRANCH  11  14
BRANCH  13  16
ATOM     16  O   UNL     1      94.640  84.293  84.990  1.00  0.00    -0.504 OA
ATOM     17  H   UNL     1      94.042  83.872  85.631  1.00  0.00     0.293 HD
ENDBRANCH  13  16
ENDBRANCH   7   8
ENDBRANCH   5   7
ENDBRANCH   2   3
ENDBRANCH   1   2
BRANCH   1  18
ATOM     18  C   UNL     1      96.669  81.962  76.582  1.00  0.00     0.001 C 
BRANCH  18  19
ATOM     19  C   UNL     1      95.964  83.230  76.089  1.00  0.00     0.000 C 
BRANCH  19  20
ATOM     20  C   UNL     1      96.380  83.644  74.675  1.00  0.00     0.000 C 
BRANCH  20  21
ATOM     21  C   UNL     1      97.533  82.807  74.109  1.00  0.00     0.000 C 
BRANCH  21  22
ATOM     22  C   UNL     1      98.669  83.654  73.528  1.00  0.00     0.003 C 
BRANCH  22  23
ATOM     23  C   UNL     1     100.071  83.182  73.960  1.00  0.00    -0.017 C 
ATOM     24  C   UNL     1     100.855  82.701  72.736  1.00  0.00     0.007 C 
ATOM     25  C   UNL     1     100.017  82.067  75.006  1.00  0.00     0.007 C 
ENDBRANCH  22  23
ENDBRANCH  21  22
ENDBRANCH  20  21
ENDBRANCH  19  20
ENDBRANCH  18  19
ENDBRANCH   1  18
TORSDOF 12
ENDMDL
MODEL 4
REMARK VINA RESULT:    -6.059      3.332      5.911
REMARK INTER + INTRA:         -10.961
REMARK INTER:                 -10.127
REMARK INTRA:                  -0.834
REMARK UNBOUND:                -0.829
REMARK SMILES COc1cc(CNC(=O)CCCCCCCC(C)C)ccc1O
REMARK SMILES IDX 11 1 10 2 8 3 9 4 7 5 6 7 5 8 4 9 20 10 3 11 21 12 22 13
REMARK SMILES IDX 2 14 1 15 23 16 12 18 13 19 14 20 15 21 16 22 17 23 18 24
REMARK SMILES IDX 19 25
REMARK H PARENT 7 6 23 17
REMARK Flexibility Score: inf
ROOT
ATOM      1  C   UNL     1      89.844  99.432  70.772  1.00  0.00     0.010 C 
ENDROOT
BRANCH   1   2
ATOM      2  C   UNL     1      89.892  98.020  70.192  1.00  0.00     0.100 C 
BRANCH   2   3
ATOM      3  C   UNL     1      89.707  98.008  68.683  1.00  0.00     0.220 C 
ATOM      4  O   UNL     1      90.436  97.381  67.920  1.00  0.00    -0.275 OA
ATOM      5  N   UNL     1      88.631  98.792  68.295  1.00  0.00    -0.352 N 
ATOM      6  H   UNL     1      88.090  99.286  69.000  1.00  0.00     0.163 HD
BRANCH   5   7
ATOM      7  C   UNL     1      88.241  98.960  66.914  1.00  0.00     0.151 C 
BRANCH   7   8
ATOM      8  C   UNL     1      87.798 100.364  66.623  1.00  0.00    -0.025 A 
ATOM      9  C   UNL     1      88.730 101.396  66.635  1.00  0.00     0.056 A 
ATOM     10  C   UNL     1      86.461 100.618  66.343  1.00  0.00     0.009 A 
ATOM     11  C   UNL     1      88.318 102.700  66.364  1.00  0.00     0.160 A 
ATOM     12  C   UNL     1      86.049 101.924  66.073  1.00  0.00     0.050 A 
ATOM     13  C   UNL     1      86.977 102.965  66.083  1.00  0.00     0.157 A 
BRANCH  11  14
ATOM     14  O   UNL     1      89.234 103.709  66.378  1.00  0.00    -0.493 OA
ATOM     15  C   UNL     1      90.195 103.697  67.433  1.00  0.00     0.278 C 
ENDBRANCH  11  14
BRANCH  13  16
ATOM     16  O   UNL     1      86.563 104.235  65.817  1.00  0.00    -0.504 OA
ATOM     17  H   UNL     1      85.939 104.516  66.508  1.00  0.00     0.293 HD
ENDBRANCH  13  16
ENDBRANCH   7   8
ENDBRANCH   5   7
ENDBRANCH   2   3
ENDBRANCH   1   2
BRANCH   1  18
ATOM     18  C   UNL     1      91.168  99.880  71.397  1.00  0.00     0.001 C 
BRANCH  18  19
ATOM     19  C   UNL     1      92.424  99.600  70.565  1.00  0.00     0.000 C 
BRANCH  19  20
ATOM     20  C   UNL     1      93.709  99.579  71.398  1.00  0.00     0.000 C 
BRANCH  20  21
ATOM     21  C   UNL     1      93.531  98.937  72.778  1.00  0.00     0.000 C 
BRANCH  21  22
ATOM     22  C   UNL     1      94.694  98.021  73.174  1.00  0.00     0.003 C 
BRANCH  22  23
ATOM     23  C   UNL     1      94.596  97.494  74.620  1.00  0.00    -0.017 C 
ATOM     24  C   UNL     1      95.943  96.910  75.050  1.00  0.00     0.007 C 
ATOM     25  C   UNL     1      93.501  96.439  74.786  1.00  0.00     0.007 C 
ENDBRANCH  22  23
ENDBRANCH  21  22
ENDBRANCH  20  21
ENDBRANCH  19  20
ENDBRANCH  18  19
ENDBRANCH   1  18
TORSDOF 12
ENDMDL
MODEL 5
REMARK VINA RESULT:    -5.894     29.409     32.042
REMARK INTER + INTRA:         -10.686
REMARK INTER:                  -9.156
REMARK INTRA:                  -1.530
REMARK UNBOUND:                -0.829
REMARK SMILES COc1cc(CNC(=O)CCCCCCCC(C)C)ccc1O
REMARK SMILES IDX 11 1 10 2 8 3 9 4 7 5 6 7 5 8 4 9 20 10 3 11 21 12 22 13
REMARK SMILES IDX 2 14 1 15 23 16 12 18 13 19 14 20 15 21 16 22 17 23 18 24
REMARK SMILES IDX 19 25
REMARK H PARENT 7 6 23 17
REMARK Flexibility Score: inf
ROOT
ATOM      1  C   UNL     1      81.074  66.195  76.308  1.00  0.00     0.010 C 
ENDROOT
BRANCH   1   2
ATOM      2  C   UNL     1      82.443  65.524  76.223  1.00  0.00     0.100 C 
BRANCH   2   3
ATOM      3  C   UNL     1      83.575  66.531  76.115  1.00  0.00     0.220 C 
ATOM      4  O   UNL     1      83.787  67.400  76.956  1.00  0.00    -0.275 OA
ATOM      5  N   UNL     1      84.315  66.344  74.956  1.00  0.00    -0.352 N 
ATOM      6  H   UNL     1      84.057  65.602  74.311  1.00  0.00     0.163 HD
BRANCH   5   7
ATOM      7  C   UNL     1      85.445  67.173  74.605  1.00  0.00     0.151 C 
BRANCH   7   8
ATOM      8  C   UNL     1      85.077  68.226  73.600  1.00  0.00    -0.025 A 
ATOM      9  C   UNL     1      85.421  69.551  73.836  1.00  0.00     0.056 A 
ATOM     10  C   UNL     1      84.397  67.863  72.444  1.00  0.00     0.009 A 
ATOM     11  C   UNL     1      85.079  70.529  72.902  1.00  0.00     0.160 A 
ATOM     12  C   UNL     1      84.055  68.842  71.510  1.00  0.00     0.050 A 
ATOM     13  C   UNL     1      84.396  70.175  71.738  1.00  0.00     0.157 A 
BRANCH  11  14
ATOM     14  O   UNL     1      85.417  71.828  73.136  1.00  0.00    -0.493 OA
ATOM     15  C   UNL     1      86.593  72.062  73.910  1.00  0.00     0.278 C 
ENDBRANCH  11  14
BRANCH  13  16
ATOM     16  O   UNL     1      84.057  71.120  70.818  1.00  0.00    -0.504 OA
ATOM     17  H   UNL     1      83.370  70.759  70.232  1.00  0.00     0.293 HD
ENDBRANCH  13  16
ENDBRANCH   7   8
ENDBRANCH   5   7
ENDBRANCH   2   3
ENDBRANCH   1   2
BRANCH   1  18
ATOM     18  C   UNL     1      80.180  65.913  75.098  1.00  0.00     0.001 C 
BRANCH  18  19
ATOM     19  C   UNL     1      80.583  66.615  73.797  1.00  0.00     0.000 C 
BRANCH  19  20
ATOM     20  C   UNL     1      80.979  65.643  72.682  1.00  0.00     0.000 C 
BRANCH  20  21
ATOM     21  C   UNL     1      80.939  66.269  71.284  1.00  0.00     0.000 C 
BRANCH  21  22
ATOM     22  C   UNL     1      82.031  65.737  70.350  1.00  0.00     0.003 C 
BRANCH  22  23
ATOM     23  C   UNL     1      81.588  65.645  68.876  1.00  0.00    -0.017 C 
ATOM     24  C   UNL     1      81.712  67.019  68.212  1.00  0.00     0.007 C 
ATOM     25  C   UNL     1      80.156  65.130  68.726  1.00  0.00     0.007 C 
ENDBRANCH  22  23
ENDBRANCH  21  22
ENDBRANCH  20  21
ENDBRANCH  19  20
ENDBRANCH  18  19
ENDBRANCH   1  18
TORSDOF 12
ENDMDL
MODEL 6
REMARK VINA RESULT:    -5.790     16.142     18.597
REMARK INTER + INTRA:         -10.511
REMARK INTER:                  -9.917
REMARK INTRA:                  -0.594
REMARK UNBOUND:                -0.829
REMARK SMILES COc1cc(CNC(=O)CCCCCCCC(C)C)ccc1O
REMARK SMILES IDX 11 1 10 2 8 3 9 4 7 5 6 7 5 8 4 9 20 10 3 11 21 12 22 13
REMARK SMILES IDX 2 14 1 15 23 16 12 18 13 19 14 20 15 21 16 22 17 23 18 24
REMARK SMILES IDX 19 25
REMARK H PARENT 7 6 23 17
REMARK Flexibility Score: inf
ROOT
ATOM      1  C   UNL     1      96.830  82.257  83.891  1.00  0.00     0.010 C 
ENDROOT
BRANCH   1   2
ATOM      2  C   UNL     1      96.323  82.397  82.457  1.00  0.00     0.100 C 
BRANCH   2   3
ATOM      3  C   UNL     1      97.087  81.515  81.484  1.00  0.00     0.220 C 
ATOM      4  O   UNL     1      97.471  80.382  81.761  1.00  0.00    -0.275 OA
ATOM      5  N   UNL     1      97.294  82.155  80.271  1.00  0.00    -0.352 N 
ATOM      6  H   UNL     1      96.948  83.101  80.137  1.00  0.00     0.163 HD
BRANCH   5   7
ATOM      7  C   UNL     1      98.003  81.540  79.172  1.00  0.00     0.151 C 
BRANCH   7   8
ATOM      8  C   UNL     1      97.488  82.006  77.841  1.00  0.00    -0.025 A 
ATOM      9  C   UNL     1      98.280  81.860  76.708  1.00  0.00     0.056 A 
ATOM     10  C   UNL     1      96.226  82.580  77.756  1.00  0.00     0.009 A 
ATOM     11  C   UNL     1      97.801  82.293  75.472  1.00  0.00     0.160 A 
ATOM     12  C   UNL     1      95.748  83.015  76.519  1.00  0.00     0.050 A 
ATOM     13  C   UNL     1      96.535  82.871  75.377  1.00  0.00     0.157 A 
BRANCH  11  14
ATOM     14  O   UNL     1      98.580  82.148  74.363  1.00  0.00    -0.493 OA
ATOM     15  C   UNL     1      99.584  81.135  74.405  1.00  0.00     0.278 C 
ENDBRANCH  11  14
BRANCH  13  16
ATOM     16  O   UNL     1      96.057  83.298  74.175  1.00  0.00    -0.504 OA
ATOM     17  H   UNL     1      95.970  84.266  74.195  1.00  0.00     0.293 HD
ENDBRANCH  13  16
ENDBRANCH   7   8
ENDBRANCH   5   7
ENDBRANCH   2   3
ENDBRANCH   1   2
BRANCH   1  18
ATOM     18  C   UNL     1      95.726  82.386  84.944  1.00  0.00     0.001 C 
BRANCH  18  19
ATOM     19  C   UNL     1      94.726  81.227  85.003  1.00  0.00     0.000 C 
BRANCH  19  20
ATOM     20  C   UNL     1      93.269  81.678  84.862  1.00  0.00     0.000 C 
BRANCH  20  21
ATOM     21  C   UNL     1      92.274  80.514  84.792  1.00  0.00     0.000 C 
BRANCH  21  22
ATOM     22  C   UNL     1      90.836  80.961  84.511  1.00  0.00     0.003 C 
BRANCH  22  23
ATOM     23  C   UNL     1      89.792  79.851  84.739  1.00  0.00    -0.017 C 
ATOM     24  C   UNL     1      90.161  78.616  83.913  1.00  0.00     0.007 C 
ATOM     25  C   UNL     1      88.373  80.299  84.387  1.00  0.00     0.007 C 
ENDBRANCH  22  23
ENDBRANCH  21  22
ENDBRANCH  20  21
ENDBRANCH  19  20
ENDBRANCH  18  19
ENDBRANCH   1  18
TORSDOF 12
ENDMDL
MODEL 7
REMARK VINA RESULT:    -5.743     15.885     18.013
REMARK INTER + INTRA:         -10.433
REMARK INTER:                  -9.626
REMARK INTRA:                  -0.807
REMARK UNBOUND:                -0.829
REMARK SMILES COc1cc(CNC(=O)CCCCCCCC(C)C)ccc1O
REMARK SMILES IDX 11 1 10 2 8 3 9 4 7 5 6 7 5 8 4 9 20 10 3 11 21 12 22 13
REMARK SMILES IDX 2 14 1 15 23 16 12 18 13 19 14 20 15 21 16 22 17 23 18 24
REMARK SMILES IDX 19 25
REMARK H PARENT 7 6 23 17
REMARK Flexibility Score: inf
ROOT
ATOM      1  C   UNL     1      97.612  81.890  77.818  1.00  0.00     0.010 C 
ENDROOT
BRANCH   1   2
ATOM      2  C   UNL     1      96.295  82.476  77.314  1.00  0.00     0.100 C 
BRANCH   2   3
ATOM      3  C   UNL     1      96.434  83.117  75.943  1.00  0.00     0.220 C 
ATOM      4  O   UNL     1      95.540  83.767  75.409  1.00  0.00    -0.275 OA
ATOM      5  N   UNL     1      97.679  82.864  75.387  1.00  0.00    -0.352 N 
ATOM      6  H   UNL     1      98.354  82.303  75.900  1.00  0.00     0.163 HD
BRANCH   5   7
ATOM      7  C   UNL     1      98.069  83.352  74.084  1.00  0.00     0.151 C 
BRANCH   7   8
ATOM      8  C   UNL     1      98.466  82.236  73.162  1.00  0.00    -0.025 A 
ATOM      9  C   UNL     1      97.690  81.085  73.101  1.00  0.00     0.056 A 
ATOM     10  C   UNL     1      99.607  82.365  72.379  1.00  0.00     0.009 A 
ATOM     11  C   UNL     1      98.060  80.048  72.244  1.00  0.00     0.160 A 
ATOM     12  C   UNL     1      99.977  81.327  71.523  1.00  0.00     0.050 A 
ATOM     13  C   UNL     1      99.204  80.169  71.455  1.00  0.00     0.157 A 
BRANCH  11  14
ATOM     14  O   UNL     1      97.296  78.921  72.188  1.00  0.00    -0.493 OA
ATOM     15  C   UNL     1      97.066  78.232  73.416  1.00  0.00     0.278 C 
ENDBRANCH  11  14
BRANCH  13  16
ATOM     16  O   UNL     1      99.575  79.163  70.615  1.00  0.00    -0.504 OA
ATOM     17  H   UNL     1      98.812  78.577  70.466  1.00  0.00     0.293 HD
ENDBRANCH  13  16
ENDBRANCH   7   8
ENDBRANCH   5   7
ENDBRANCH   2   3
ENDBRANCH   1   2
BRANCH   1  18
ATOM     18  C   UNL     1      97.429  80.798  78.876  1.00  0.00     0.001 C 
BRANCH  18  19
ATOM     19  C   UNL     1      97.772  81.202  80.314  1.00  0.00     0.000 C 
BRANCH  19  20
ATOM     20  C   UNL     1      96.714  82.102  80.958  1.00  0.00     0.000 C 
BRANCH  20  21
ATOM     21  C   UNL     1      96.612  81.932  82.478  1.00  0.00     0.000 C 
BRANCH  21  22
ATOM     22  C   UNL     1      96.198  80.519  82.903  1.00  0.00     0.003 C 
BRANCH  22  23
ATOM     23  C   UNL     1      95.423  80.481  84.236  1.00  0.00    -0.017 C 
ATOM     24  C   UNL     1      94.808  79.094  84.437  1.00  0.00     0.007 C 
ATOM     25  C   UNL     1      94.327  81.545  84.307  1.00  0.00     0.007 C 
ENDBRANCH  22  23
ENDBRANCH  21  22
ENDBRANCH  20  21
ENDBRANCH  19  20
ENDBRANCH  18  19
ENDBRANCH   1  18
TORSDOF 12
ENDMDL
MODEL 8
REMARK VINA RESULT:    -5.712      4.733     11.387
REMARK INTER + INTRA:         -10.381
REMARK INTER:                  -9.397
REMARK INTRA:                  -0.983
REMARK UNBOUND:                -0.829
REMARK SMILES COc1cc(CNC(=O)CCCCCCCC(C)C)ccc1O
REMARK SMILES IDX 11 1 10 2 8 3 9 4 7 5 6 7 5 8 4 9 20 10 3 11 21 12 22 13
REMARK SMILES IDX 2 14 1 15 23 16 12 18 13 19 14 20 15 21 16 22 17 23 18 24
REMARK SMILES IDX 19 25
REMARK H PARENT 7 6 23 17
REMARK Flexibility Score: inf
ROOT
ATOM      1  C   UNL     1      88.048  99.908  67.154  1.00  0.00     0.010 C 
ENDROOT
BRANCH   1   2
ATOM      2  C   UNL     1      88.770  98.597  66.852  1.00  0.00     0.100 C 
BRANCH   2   3
ATOM      3  C   UNL     1      89.509  98.050  68.062  1.00  0.00     0.220 C 
ATOM      4  O   UNL     1      90.219  97.049  68.023  1.00  0.00    -0.275 OA
ATOM      5  N   UNL     1      89.268  98.815  69.194  1.00  0.00    -0.352 N 
ATOM      6  H   UNL     1      88.654  99.623  69.133  1.00  0.00     0.163 HD
BRANCH   5   7
ATOM      7  C   UNL     1      89.843  98.508  70.484  1.00  0.00     0.151 C 
BRANCH   7   8
ATOM      8  C   UNL     1      90.598  99.673  71.053  1.00  0.00    -0.025 A 
ATOM      9  C   UNL     1      91.927  99.515  71.428  1.00  0.00     0.056 A 
ATOM     10  C   UNL     1      89.961 100.899  71.200  1.00  0.00     0.009 A 
ATOM     11  C   UNL     1      92.629 100.598  71.957  1.00  0.00     0.160 A 
ATOM     12  C   UNL     1      90.663 101.982  71.730  1.00  0.00     0.050 A 
ATOM     13  C   UNL     1      91.996 101.832  72.109  1.00  0.00     0.157 A 
BRANCH  11  14
ATOM     14  O   UNL     1      93.931 100.439  72.324  1.00  0.00    -0.493 OA
ATOM     15  C   UNL     1      94.187 100.147  73.697  1.00  0.00     0.278 C 
ENDBRANCH  11  14
BRANCH  13  16
ATOM     16  O   UNL     1      92.671 102.897  72.624  1.00  0.00    -0.504 OA
ATOM     17  H   UNL     1      93.514 102.998  72.149  1.00  0.00     0.293 HD
ENDBRANCH  13  16
ENDBRANCH   7   8
ENDBRANCH   5   7
ENDBRANCH   2   3
ENDBRANCH   1   2
BRANCH   1  18
ATOM     18  C   UNL     1      86.752 100.088  66.359  1.00  0.00     0.001 C 
BRANCH  18  19
ATOM     19  C   UNL     1      86.390 101.533  65.998  1.00  0.00     0.000 C 
BRANCH  19  20
ATOM     20  C   UNL     1      87.528 102.525  66.257  1.00  0.00     0.000 C 
BRANCH  20  21
ATOM     21  C   UNL     1      87.064 103.985  66.309  1.00  0.00     0.000 C 
BRANCH  21  22
ATOM     22  C   UNL     1      85.563 104.135  66.576  1.00  0.00     0.003 C 
BRANCH  22  23
ATOM     23  C   UNL     1      84.830 104.974  65.511  1.00  0.00    -0.017 C 
ATOM     24  C   UNL     1      83.928 104.068  64.670  1.00  0.00     0.007 C 
ATOM     25  C   UNL     1      85.794 105.730  64.596  1.00  0.00     0.007 C 
ENDBRANCH  22  23
ENDBRANCH  21  22
ENDBRANCH  20  21
ENDBRANCH  19  20
ENDBRANCH  18  19
ENDBRANCH   1  18
TORSDOF 12
ENDMDL
MODEL 9
REMARK VINA RESULT:    -5.706      6.111      8.763
REMARK INTER + INTRA:         -10.371
REMARK INTER:                  -8.615
REMARK INTRA:                  -1.756
REMARK UNBOUND:                -0.829
REMARK SMILES COc1cc(CNC(=O)CCCCCCCC(C)C)ccc1O
REMARK SMILES IDX 11 1 10 2 8 3 9 4 7 5 6 7 5 8 4 9 20 10 3 11 21 12 22 13
REMARK SMILES IDX 2 14 1 15 23 16 12 18 13 19 14 20 15 21 16 22 17 23 18 24
REMARK SMILES IDX 19 25
REMARK H PARENT 7 6 23 17
REMARK Flexibility Score: inf
ROOT
ATOM      1  C   UNL     1      89.572  98.878  70.456  1.00  0.00     0.010 C 
ENDROOT
BRANCH   1   2
ATOM      2  C   UNL     1      90.210  98.189  69.252  1.00  0.00     0.100 C 
BRANCH   2   3
ATOM      3  C   UNL     1      89.306  98.204  68.030  1.00  0.00     0.220 C 
ATOM      4  O   UNL     1      89.224  97.267  67.241  1.00  0.00    -0.275 OA
ATOM      5  N   UNL     1      88.608  99.398  67.927  1.00  0.00    -0.352 N 
ATOM      6  H   UNL     1      88.749 100.124  68.625  1.00  0.00     0.163 HD
BRANCH   5   7
ATOM      7  C   UNL     1      87.684  99.675  66.851  1.00  0.00     0.151 C 
BRANCH   7   8
ATOM      8  C   UNL     1      87.562 101.147  66.582  1.00  0.00    -0.025 A 
ATOM      9  C   UNL     1      88.682 101.962  66.693  1.00  0.00     0.056 A 
ATOM     10  C   UNL     1      86.329 101.679  66.225  1.00  0.00     0.009 A 
ATOM     11  C   UNL     1      88.568 103.329  66.442  1.00  0.00     0.160 A 
ATOM     12  C   UNL     1      86.215 103.048  65.976  1.00  0.00     0.050 A 
ATOM     13  C   UNL     1      87.334 103.873  66.084  1.00  0.00     0.157 A 
BRANCH  11  14
ATOM     14  O   UNL     1      89.669 104.125  66.552  1.00  0.00    -0.493 OA
ATOM     15  C   UNL     1      90.099 104.456  67.872  1.00  0.00     0.278 C 
ENDBRANCH  11  14
BRANCH  13  16
ATOM     16  O   UNL     1      87.210 105.206  65.837  1.00  0.00    -0.504 OA
ATOM     17  H   UNL     1      86.411 105.356  65.303  1.00  0.00     0.293 HD
ENDBRANCH  13  16
ENDBRANCH   7   8
ENDBRANCH   5   7
ENDBRANCH   2   3
ENDBRANCH   1   2
BRANCH   1  18
ATOM     18  C   UNL     1      90.301 100.154  70.886  1.00  0.00     0.001 C 
BRANCH  18  19
ATOM     19  C   UNL     1      91.797  99.997  71.177  1.00  0.00     0.000 C 
BRANCH  19  20
ATOM     20  C   UNL     1      92.690 100.687  70.142  1.00  0.00     0.000 C 
BRANCH  20  21
ATOM     21  C   UNL     1      91.910 101.538  69.134  1.00  0.00     0.000 C 
BRANCH  21  22
ATOM     22  C   UNL     1      91.924 100.960  67.715  1.00  0.00     0.003 C 
BRANCH  22  23
ATOM     23  C   UNL     1      92.546 101.909  66.672  1.00  0.00    -0.017 C 
ATOM     24  C   UNL     1      92.075 101.517  65.269  1.00  0.00     0.007 C 
ATOM     25  C   UNL     1      94.075 101.910  66.718  1.00  0.00     0.007 C 
ENDBRANCH  22  23
ENDBRANCH  21  22
ENDBRANCH  20  21
ENDBRANCH  19  20
ENDBRANCH  18  19
ENDBRANCH   1  18
TORSDOF 12
ENDMDL
MODEL 10
REMARK VINA RESULT:    -5.674     20.904     23.595
REMARK INTER + INTRA:         -10.317
REMARK INTER:                  -8.501
REMARK INTRA:                  -1.816
REMARK UNBOUND:                -0.829
REMARK SMILES COc1cc(CNC(=O)CCCCCCCC(C)C)ccc1O
REMARK SMILES IDX 11 1 10 2 8 3 9 4 7 5 6 7 5 8 4 9 20 10 3 11 21 12 22 13
REMARK SMILES IDX 2 14 1 15 23 16 12 18 13 19 14 20 15 21 16 22 17 23 18 24
REMARK SMILES IDX 19 25
REMARK H PARENT 7 6 23 17
REMARK Flexibility Score: inf
ROOT
ATOM      1  C   UNL     1      74.185  89.845  66.632  1.00  0.00     0.010 C 
ENDROOT
BRANCH   1   2
ATOM      2  C   UNL     1      73.820  88.370  66.784  1.00  0.00     0.100 C 
BRANCH   2   3
ATOM      3  C   UNL     1      74.089  87.574  65.517  1.00  0.00     0.220 C 
ATOM      4  O   UNL     1      74.001  88.052  64.390  1.00  0.00    -0.275 OA
ATOM      5  N   UNL     1      74.432  86.261  65.804  1.00  0.00    -0.352 N 
ATOM      6  H   UNL     1      74.468  85.951  66.771  1.00  0.00     0.163 HD
BRANCH   5   7
ATOM      7  C   UNL     1      74.729  85.288  64.778  1.00  0.00     0.151 C 
BRANCH   7   8
ATOM      8  C   UNL     1      73.904  84.043  64.929  1.00  0.00    -0.025 A 
ATOM      9  C   UNL     1      72.523  84.145  65.052  1.00  0.00     0.056 A 
ATOM     10  C   UNL     1      74.528  82.802  64.943  1.00  0.00     0.009 A 
ATOM     11  C   UNL     1      71.756  82.988  65.192  1.00  0.00     0.160 A 
ATOM     12  C   UNL     1      73.761  81.645  65.084  1.00  0.00     0.050 A 
ATOM     13  C   UNL     1      72.375  81.738  65.209  1.00  0.00     0.157 A 
BRANCH  11  14
ATOM     14  O   UNL     1      70.403  83.091  65.314  1.00  0.00    -0.493 OA
ATOM     15  C   UNL     1      69.903  83.666  66.520  1.00  0.00     0.278 C 
ENDBRANCH  11  14
BRANCH  13  16
ATOM     16  O   UNL     1      71.637  80.601  65.345  1.00  0.00    -0.504 OA
ATOM     17  H   UNL     1      71.223  80.388  64.490  1.00  0.00     0.293 HD
ENDBRANCH  13  16
ENDBRANCH   7   8
ENDBRANCH   5   7
ENDBRANCH   2   3
ENDBRANCH   1   2
BRANCH   1  18
ATOM     18  C   UNL     1      75.399  90.263  67.466  1.00  0.00     0.001 C 
BRANCH  18  19
ATOM     19  C   UNL     1      76.158  89.122  68.152  1.00  0.00     0.000 C 
BRANCH  19  20
ATOM     20  C   UNL     1      77.349  88.613  67.336  1.00  0.00     0.000 C 
BRANCH  20  21
ATOM     21  C   UNL     1      77.515  87.090  67.383  1.00  0.00     0.000 C 
BRANCH  21  22
ATOM     22  C   UNL     1      76.749  86.433  68.536  1.00  0.00     0.003 C 
BRANCH  22  23
ATOM     23  C   UNL     1      76.731  84.893  68.463  1.00  0.00    -0.017 C 
ATOM     24  C   UNL     1      77.347  84.431  67.141  1.00  0.00     0.007 C 
ATOM     25  C   UNL     1      75.321  84.316  68.602  1.00  0.00     0.007 C 
ENDBRANCH  22  23
ENDBRANCH  21  22
ENDBRANCH  20  21
ENDBRANCH  19  20
ENDBRANCH  18  19
ENDBRANCH   1  18
TORSDOF 12
ENDMDL
