MODEL 1
REMARK VINA RESULT:    -6.379      0.000      0.000
REMARK INTER + INTRA:         -11.586
REMARK INTER:                 -10.668
REMARK INTRA:                  -0.918
REMARK UNBOUND:                -0.918
REMARK SMILES COc1cc(CNC(=O)CCCCCCCC(C)C)ccc1O
REMARK SMILES IDX 11 1 10 2 8 3 9 4 7 5 6 7 5 8 4 9 20 10 3 11 21 12 22 13
REMARK SMILES IDX 2 14 1 15 23 16 12 18 13 19 14 20 15 21 16 22 17 23 18 24
REMARK SMILES IDX 19 25
REMARK H PARENT 7 6 23 17
REMARK Flexibility Score: inf
ROOT
ATOM      1  C   UNL     1      92.694  95.618  77.417  1.00  0.00     0.010 C 
ENDROOT
BRANCH   1   2
ATOM      2  C   UNL     1      94.088  94.993  77.392  1.00  0.00     0.100 C 
BRANCH   2   3
ATOM      3  C   UNL     1      94.333  94.078  78.580  1.00  0.00     0.220 C 
ATOM      4  O   UNL     1      93.613  93.122  78.854  1.00  0.00    -0.275 OA
ATOM      5  N   UNL     1      95.451  94.468  79.302  1.00  0.00    -0.352 N 
ATOM      6  H   UNL     1      95.981  95.282  79.005  1.00  0.00     0.163 HD
BRANCH   5   7
ATOM      7  C   UNL     1      95.902  93.771  80.485  1.00  0.00     0.151 C 
BRANCH   7   8
ATOM      8  C   UNL     1      97.031  94.491  81.164  1.00  0.00    -0.025 A 
ATOM      9  C   UNL     1      96.941  95.860  81.383  1.00  0.00     0.056 A 
ATOM     10  C   UNL     1      98.155  93.780  81.566  1.00  0.00     0.009 A 
ATOM     11  C   UNL     1      97.991  96.528  82.013  1.00  0.00     0.160 A 
ATOM     12  C   UNL     1      99.205  94.448  82.196  1.00  0.00     0.050 A 
ATOM     13  C   UNL     1      99.123  95.822  82.420  1.00  0.00     0.157 A 
BRANCH  11  14
ATOM     14  O   UNL     1      97.899  97.871  82.226  1.00  0.00    -0.493 OA
ATOM     15  C   UNL     1      96.628  98.377  82.631  1.00  0.00     0.278 C 
ENDBRANCH  11  14
BRANCH  13  16
ATOM     16  O   UNL     1     100.154  96.464  83.037  1.00  0.00    -0.504 OA
ATOM     17  H   UNL     1     100.975  95.964  82.885  1.00  0.00     0.293 HD
ENDBRANCH  13  16
ENDBRANCH   7   8
ENDBRANCH   5   7
ENDBRANCH   2   3
ENDBRANCH   1   2
BRANCH   1  18
ATOM     18  C   UNL     1      91.754  95.054  76.348  1.00  0.00     0.001 C 
BRANCH  18  19
ATOM     19  C   UNL     1      90.333  94.727  76.818  1.00  0.00     0.000 C 
BRANCH  19  20
ATOM     20  C   UNL     1      90.231  93.385  77.548  1.00  0.00     0.000 C 
BRANCH  20  21
ATOM     21  C   UNL     1      90.957  92.243  76.829  1.00  0.00     0.000 C 
BRANCH  21  22
ATOM     22  C   UNL     1      90.005  91.247  76.158  1.00  0.00     0.003 C 
BRANCH  22  23
ATOM     23  C   UNL     1      90.373  90.935  74.694  1.00  0.00    -0.017 C 
ATOM     24  C   UNL     1      89.161  91.181  73.793  1.00  0.00     0.007 C 
ATOM     25  C   UNL     1      90.870  89.501  74.507  1.00  0.00     0.007 C 
ENDBRANCH  22  23
ENDBRANCH  21  22
ENDBRANCH  20  21
ENDBRANCH  19  20
ENDBRANCH  18  19
ENDBRANCH   1  18
TORSDOF 12
ENDMDL
MODEL 2
REMARK VINA RESULT:    -6.331      1.180      1.983
REMARK INTER + INTRA:         -11.506
REMARK INTER:                 -10.637
REMARK INTRA:                  -0.869
REMARK UNBOUND:                -0.918
REMARK SMILES COc1cc(CNC(=O)CCCCCCCC(C)C)ccc1O
REMARK SMILES IDX 11 1 10 2 8 3 9 4 7 5 6 7 5 8 4 9 20 10 3 11 21 12 22 13
REMARK SMILES IDX 2 14 1 15 23 16 12 18 13 19 14 20 15 21 16 22 17 23 18 24
REMARK SMILES IDX 19 25
REMARK H PARENT 7 6 23 17
REMARK Flexibility Score: inf
ROOT
ATOM      1  C   UNL     1      93.673  95.032  77.930  1.00  0.00     0.010 C 
ENDROOT
BRANCH   1   2
ATOM      2  C   UNL     1      93.679  93.561  78.342  1.00  0.00     0.100 C 
BRANCH   2   3
ATOM      3  C   UNL     1      95.009  93.133  78.941  1.00  0.00     0.220 C 
ATOM      4  O   UNL     1      95.862  92.513  78.312  1.00  0.00    -0.275 OA
ATOM      5  N   UNL     1      95.119  93.522  80.267  1.00  0.00    -0.352 N 
ATOM      6  H   UNL     1      94.353  94.024  80.709  1.00  0.00     0.163 HD
BRANCH   5   7
ATOM      7  C   UNL     1      96.282  93.233  81.074  1.00  0.00     0.151 C 
BRANCH   7   8
ATOM      8  C   UNL     1      97.220  94.403  81.148  1.00  0.00    -0.025 A 
ATOM      9  C   UNL     1      98.381  94.307  81.906  1.00  0.00     0.056 A 
ATOM     10  C   UNL     1      96.917  95.570  80.457  1.00  0.00     0.009 A 
ATOM     11  C   UNL     1      99.252  95.394  81.974  1.00  0.00     0.160 A 
ATOM     12  C   UNL     1      97.788  96.658  80.526  1.00  0.00     0.050 A 
ATOM     13  C   UNL     1      98.955  96.571  81.285  1.00  0.00     0.157 A 
BRANCH  11  14
ATOM     14  O   UNL     1     100.389  95.297  82.718  1.00  0.00    -0.493 OA
ATOM     15  C   UNL     1     100.229  95.068  84.118  1.00  0.00     0.278 C 
ENDBRANCH  11  14
BRANCH  13  16
ATOM     16  O   UNL     1      99.798  97.639  81.343  1.00  0.00    -0.504 OA
ATOM     17  H   UNL     1      99.444  98.287  81.976  1.00  0.00     0.293 HD
ENDBRANCH  13  16
ENDBRANCH   7   8
ENDBRANCH   5   7
ENDBRANCH   2   3
ENDBRANCH   1   2
BRANCH   1  18
ATOM     18  C   UNL     1      92.415  95.445  77.161  1.00  0.00     0.001 C 
BRANCH  18  19
ATOM     19  C   UNL     1      91.994  94.509  76.024  1.00  0.00     0.000 C 
BRANCH  19  20
ATOM     20  C   UNL     1      90.627  93.858  76.251  1.00  0.00     0.000 C 
BRANCH  20  21
ATOM     21  C   UNL     1      90.711  92.472  76.899  1.00  0.00     0.000 C 
BRANCH  21  22
ATOM     22  C   UNL     1      89.909  91.403  76.151  1.00  0.00     0.003 C 
BRANCH  22  23
ATOM     23  C   UNL     1      90.415  91.146  74.718  1.00  0.00    -0.017 C 
ATOM     24  C   UNL     1      89.280  91.379  73.718  1.00  0.00     0.007 C 
ATOM     25  C   UNL     1      90.976  89.734  74.539  1.00  0.00     0.007 C 
ENDBRANCH  22  23
ENDBRANCH  21  22
ENDBRANCH  20  21
ENDBRANCH  19  20
ENDBRANCH  18  19
ENDBRANCH   1  18
TORSDOF 12
ENDMDL
MODEL 3
REMARK VINA RESULT:    -5.807     12.215     14.472
REMARK INTER + INTRA:         -10.630
REMARK INTER:                  -9.677
REMARK INTRA:                  -0.952
REMARK UNBOUND:                -0.918
REMARK SMILES COc1cc(CNC(=O)CCCCCCCC(C)C)ccc1O
REMARK SMILES IDX 11 1 10 2 8 3 9 4 7 5 6 7 5 8 4 9 20 10 3 11 21 12 22 13
REMARK SMILES IDX 2 14 1 15 23 16 12 18 13 19 14 20 15 21 16 22 17 23 18 24
REMARK SMILES IDX 19 25
REMARK H PARENT 7 6 23 17
REMARK Flexibility Score: inf
ROOT
ATOM      1  C   UNL     1      96.105  82.699  84.101  1.00  0.00     0.010 C 
ENDROOT
BRANCH   1   2
ATOM      2  C   UNL     1      96.538  83.140  82.704  1.00  0.00     0.100 C 
BRANCH   2   3
ATOM      3  C   UNL     1      96.687  81.969  81.747  1.00  0.00     0.220 C 
ATOM      4  O   UNL     1      96.237  80.850  81.977  1.00  0.00    -0.275 OA
ATOM      5  N   UNL     1      97.392  82.327  80.608  1.00  0.00    -0.352 N 
ATOM      6  H   UNL     1      97.737  83.278  80.510  1.00  0.00     0.163 HD
BRANCH   5   7
ATOM      7  C   UNL     1      97.682  81.397  79.541  1.00  0.00     0.151 C 
BRANCH   7   8
ATOM      8  C   UNL     1      97.260  81.930  78.203  1.00  0.00    -0.025 A 
ATOM      9  C   UNL     1      98.127  81.836  77.121  1.00  0.00     0.056 A 
ATOM     10  C   UNL     1      96.006  82.513  78.060  1.00  0.00     0.009 A 
ATOM     11  C   UNL     1      97.734  82.332  75.877  1.00  0.00     0.160 A 
ATOM     12  C   UNL     1      95.614  83.009  76.816  1.00  0.00     0.050 A 
ATOM     13  C   UNL     1      96.478  82.919  75.724  1.00  0.00     0.157 A 
BRANCH  11  14
ATOM     14  O   UNL     1      98.587  82.238  74.819  1.00  0.00    -0.493 OA
ATOM     15  C   UNL     1      99.095  80.942  74.509  1.00  0.00     0.278 C 
ENDBRANCH  11  14
BRANCH  13  16
ATOM     16  O   UNL     1      96.083  83.405  74.515  1.00  0.00    -0.504 OA
ATOM     17  H   UNL     1      95.312  82.900  74.207  1.00  0.00     0.293 HD
ENDBRANCH  13  16
ENDBRANCH   7   8
ENDBRANCH   5   7
ENDBRANCH   2   3
ENDBRANCH   1   2
BRANCH   1  18
ATOM     18  C   UNL     1      95.183  83.702  84.799  1.00  0.00     0.001 C 
BRANCH  18  19
ATOM     19  C   UNL     1      94.544  83.220  86.106  1.00  0.00     0.000 C 
BRANCH  19  20
ATOM     20  C   UNL     1      93.161  83.825  86.363  1.00  0.00     0.000 C 
BRANCH  20  21
ATOM     21  C   UNL     1      92.048  82.777  86.471  1.00  0.00     0.000 C 
BRANCH  21  22
ATOM     22  C   UNL     1      91.897  81.920  85.209  1.00  0.00     0.003 C 
BRANCH  22  23
ATOM     23  C   UNL     1      92.006  80.406  85.478  1.00  0.00    -0.017 C 
ATOM     24  C   UNL     1      93.406  79.914  85.105  1.00  0.00     0.007 C 
ATOM     25  C   UNL     1      90.956  79.599  84.713  1.00  0.00     0.007 C 
ENDBRANCH  22  23
ENDBRANCH  21  22
ENDBRANCH  20  21
ENDBRANCH  19  20
ENDBRANCH  18  19
ENDBRANCH   1  18
TORSDOF 12
ENDMDL
MODEL 4
REMARK VINA RESULT:    -5.757     22.074     24.322
REMARK INTER + INTRA:         -10.545
REMARK INTER:                  -8.617
REMARK INTRA:                  -1.928
REMARK UNBOUND:                -0.918
REMARK SMILES COc1cc(CNC(=O)CCCCCCCC(C)C)ccc1O
REMARK SMILES IDX 11 1 10 2 8 3 9 4 7 5 6 7 5 8 4 9 20 10 3 11 21 12 22 13
REMARK SMILES IDX 2 14 1 15 23 16 12 18 13 19 14 20 15 21 16 22 17 23 18 24
REMARK SMILES IDX 19 25
REMARK H PARENT 7 6 23 17
REMARK Flexibility Score: inf
ROOT
ATOM      1  C   UNL     1      74.986  85.545  69.537  1.00  0.00     0.010 C 
ENDROOT
BRANCH   1   2
ATOM      2  C   UNL     1      76.189  84.759  69.019  1.00  0.00     0.100 C 
BRANCH   2   3
ATOM      3  C   UNL     1      77.060  85.583  68.085  1.00  0.00     0.220 C 
ATOM      4  O   UNL     1      77.800  85.086  67.240  1.00  0.00    -0.275 OA
ATOM      5  N   UNL     1      76.913  86.942  68.319  1.00  0.00    -0.352 N 
ATOM      6  H   UNL     1      76.283  87.261  69.050  1.00  0.00     0.163 HD
BRANCH   5   7
ATOM      7  C   UNL     1      77.636  87.947  67.573  1.00  0.00     0.151 C 
BRANCH   7   8
ATOM      8  C   UNL     1      76.718  88.800  66.746  1.00  0.00    -0.025 A 
ATOM      9  C   UNL     1      76.119  89.918  67.316  1.00  0.00     0.056 A 
ATOM     10  C   UNL     1      76.476  88.464  65.420  1.00  0.00     0.009 A 
ATOM     11  C   UNL     1      75.266  90.710  66.547  1.00  0.00     0.160 A 
ATOM     12  C   UNL     1      75.623  89.256  64.652  1.00  0.00     0.050 A 
ATOM     13  C   UNL     1      75.017  90.379  65.215  1.00  0.00     0.157 A 
BRANCH  11  14
ATOM     14  O   UNL     1      74.680  91.804  67.109  1.00  0.00    -0.493 OA
ATOM     15  C   UNL     1      75.491  92.969  67.257  1.00  0.00     0.278 C 
ENDBRANCH  11  14
BRANCH  13  16
ATOM     16  O   UNL     1      74.187  91.146  64.455  1.00  0.00    -0.504 OA
ATOM     17  H   UNL     1      74.506  92.065  64.466  1.00  0.00     0.293 HD
ENDBRANCH  13  16
ENDBRANCH   7   8
ENDBRANCH   5   7
ENDBRANCH   2   3
ENDBRANCH   1   2
BRANCH   1  18
ATOM     18  C   UNL     1      73.736  85.392  68.665  1.00  0.00     0.001 C 
BRANCH  18  19
ATOM     19  C   UNL     1      73.519  86.490  67.618  1.00  0.00     0.000 C 
BRANCH  19  20
ATOM     20  C   UNL     1      73.838  86.037  66.191  1.00  0.00     0.000 C 
BRANCH  20  21
ATOM     21  C   UNL     1      73.687  84.526  65.983  1.00  0.00     0.000 C 
BRANCH  21  22
ATOM     22  C   UNL     1      74.958  83.857  65.450  1.00  0.00     0.003 C 
BRANCH  22  23
ATOM     23  C   UNL     1      74.985  82.331  65.664  1.00  0.00    -0.017 C 
ATOM     24  C   UNL     1      75.840  81.671  64.579  1.00  0.00     0.007 C 
ATOM     25  C   UNL     1      73.586  81.714  65.663  1.00  0.00     0.007 C 
ENDBRANCH  22  23
ENDBRANCH  21  22
ENDBRANCH  20  21
ENDBRANCH  19  20
ENDBRANCH  18  19
ENDBRANCH   1  18
TORSDOF 12
ENDMDL
MODEL 5
REMARK VINA RESULT:    -5.675     24.833     29.871
REMARK INTER + INTRA:         -10.409
REMARK INTER:                  -8.925
REMARK INTRA:                  -1.484
REMARK UNBOUND:                -0.918
REMARK SMILES COc1cc(CNC(=O)CCCCCCCC(C)C)ccc1O
REMARK SMILES IDX 11 1 10 2 8 3 9 4 7 5 6 7 5 8 4 9 20 10 3 11 21 12 22 13
REMARK SMILES IDX 2 14 1 15 23 16 12 18 13 19 14 20 15 21 16 22 17 23 18 24
REMARK SMILES IDX 19 25
REMARK H PARENT 7 6 23 17
REMARK Flexibility Score: inf
ROOT
ATOM      1  C   UNL     1      80.475  65.233  76.769  1.00  0.00     0.010 C 
ENDROOT
BRANCH   1   2
ATOM      2  C   UNL     1      81.306  66.514  76.791  1.00  0.00     0.100 C 
BRANCH   2   3
ATOM      3  C   UNL     1      82.717  66.298  76.268  1.00  0.00     0.220 C 
ATOM      4  O   UNL     1      83.350  65.261  76.447  1.00  0.00    -0.275 OA
ATOM      5  N   UNL     1      83.183  67.411  75.584  1.00  0.00    -0.352 N 
ATOM      6  H   UNL     1      82.589  68.231  75.496  1.00  0.00     0.163 HD
BRANCH   5   7
ATOM      7  C   UNL     1      84.499  67.471  74.992  1.00  0.00     0.151 C 
BRANCH   7   8
ATOM      8  C   UNL     1      84.557  68.444  73.849  1.00  0.00    -0.025 A 
ATOM      9  C   UNL     1      85.238  69.645  74.003  1.00  0.00     0.056 A 
ATOM     10  C   UNL     1      83.928  68.132  72.650  1.00  0.00     0.009 A 
ATOM     11  C   UNL     1      85.291  70.548  72.941  1.00  0.00     0.160 A 
ATOM     12  C   UNL     1      83.980  69.036  71.589  1.00  0.00     0.050 A 
ATOM     13  C   UNL     1      84.662  70.244  71.734  1.00  0.00     0.157 A 
BRANCH  11  14
ATOM     14  O   UNL     1      85.960  71.726  73.095  1.00  0.00    -0.493 OA
ATOM     15  C   UNL     1      85.353  72.710  73.931  1.00  0.00     0.278 C 
ENDBRANCH  11  14
BRANCH  13  16
ATOM     16  O   UNL     1      84.707  71.118  70.690  1.00  0.00    -0.504 OA
ATOM     17  H   UNL     1      84.637  70.620  69.857  1.00  0.00     0.293 HD
ENDBRANCH  13  16
ENDBRANCH   7   8
ENDBRANCH   5   7
ENDBRANCH   2   3
ENDBRANCH   1   2
BRANCH   1  18
ATOM     18  C   UNL     1      79.609  65.089  75.514  1.00  0.00     0.001 C 
BRANCH  18  19
ATOM     19  C   UNL     1      80.356  64.710  74.231  1.00  0.00     0.000 C 
BRANCH  19  20
ATOM     20  C   UNL     1      80.570  65.893  73.283  1.00  0.00     0.000 C 
BRANCH  20  21
ATOM     21  C   UNL     1      81.362  65.529  72.023  1.00  0.00     0.000 C 
BRANCH  21  22
ATOM     22  C   UNL     1      80.890  66.277  70.772  1.00  0.00     0.003 C 
BRANCH  22  23
ATOM     23  C   UNL     1      81.733  65.973  69.518  1.00  0.00    -0.017 C 
ATOM     24  C   UNL     1      83.195  65.759  69.918  1.00  0.00     0.007 C 
ATOM     25  C   UNL     1      81.644  67.081  68.468  1.00  0.00     0.007 C 
ENDBRANCH  22  23
ENDBRANCH  21  22
ENDBRANCH  20  21
ENDBRANCH  19  20
ENDBRANCH  18  19
ENDBRANCH   1  18
TORSDOF 12
ENDMDL
MODEL 6
REMARK VINA RESULT:    -5.645     22.099     24.692
REMARK INTER + INTRA:         -10.359
REMARK INTER:                  -8.299
REMARK INTRA:                  -2.060
REMARK UNBOUND:                -0.918
REMARK SMILES COc1cc(CNC(=O)CCCCCCCC(C)C)ccc1O
REMARK SMILES IDX 11 1 10 2 8 3 9 4 7 5 6 7 5 8 4 9 20 10 3 11 21 12 22 13
REMARK SMILES IDX 2 14 1 15 23 16 12 18 13 19 14 20 15 21 16 22 17 23 18 24
REMARK SMILES IDX 19 25
REMARK H PARENT 7 6 23 17
REMARK Flexibility Score: inf
ROOT
ATOM      1  C   UNL     1      75.274  85.412  69.593  1.00  0.00     0.010 C 
ENDROOT
BRANCH   1   2
ATOM      2  C   UNL     1      76.374  84.653  68.853  1.00  0.00     0.100 C 
BRANCH   2   3
ATOM      3  C   UNL     1      77.158  85.547  67.907  1.00  0.00     0.220 C 
ATOM      4  O   UNL     1      77.830  85.115  66.974  1.00  0.00    -0.275 OA
ATOM      5  N   UNL     1      77.019  86.886  68.238  1.00  0.00    -0.352 N 
ATOM      6  H   UNL     1      76.448  87.149  69.037  1.00  0.00     0.163 HD
BRANCH   5   7
ATOM      7  C   UNL     1      77.669  87.947  67.503  1.00  0.00     0.151 C 
BRANCH   7   8
ATOM      8  C   UNL     1      76.689  88.762  66.710  1.00  0.00    -0.025 A 
ATOM      9  C   UNL     1      76.373  88.384  65.410  1.00  0.00     0.056 A 
ATOM     10  C   UNL     1      76.108  89.886  67.283  1.00  0.00     0.009 A 
ATOM     11  C   UNL     1      75.463  89.142  64.673  1.00  0.00     0.160 A 
ATOM     12  C   UNL     1      75.198  90.644  66.546  1.00  0.00     0.050 A 
ATOM     13  C   UNL     1      74.875  90.272  65.241  1.00  0.00     0.157 A 
BRANCH  11  14
ATOM     14  O   UNL     1      75.157  88.769  63.399  1.00  0.00    -0.493 OA
ATOM     15  C   UNL     1      74.208  87.714  63.243  1.00  0.00     0.278 C 
ENDBRANCH  11  14
BRANCH  13  16
ATOM     16  O   UNL     1      73.984  91.020  64.532  1.00  0.00    -0.504 OA
ATOM     17  H   UNL     1      74.180  91.962  64.672  1.00  0.00     0.293 HD
ENDBRANCH  13  16
ENDBRANCH   7   8
ENDBRANCH   5   7
ENDBRANCH   2   3
ENDBRANCH   1   2
BRANCH   1  18
ATOM     18  C   UNL     1      73.925  85.392  68.869  1.00  0.00     0.001 C 
BRANCH  18  19
ATOM     19  C   UNL     1      73.662  86.569  67.923  1.00  0.00     0.000 C 
BRANCH  19  20
ATOM     20  C   UNL     1      73.422  86.138  66.474  1.00  0.00     0.000 C 
BRANCH  20  21
ATOM     21  C   UNL     1      73.559  84.627  66.256  1.00  0.00     0.000 C 
BRANCH  21  22
ATOM     22  C   UNL     1      74.802  84.240  65.448  1.00  0.00     0.003 C 
BRANCH  22  23
ATOM     23  C   UNL     1      75.195  82.757  65.599  1.00  0.00    -0.017 C 
ATOM     24  C   UNL     1      75.830  82.256  64.299  1.00  0.00     0.007 C 
ATOM     25  C   UNL     1      74.006  81.869  65.966  1.00  0.00     0.007 C 
ENDBRANCH  22  23
ENDBRANCH  21  22
ENDBRANCH  20  21
ENDBRANCH  19  20
ENDBRANCH  18  19
ENDBRANCH   1  18
TORSDOF 12
ENDMDL
MODEL 7
REMARK VINA RESULT:    -5.575     12.820     15.255
REMARK INTER + INTRA:         -10.241
REMARK INTER:                  -8.378
REMARK INTRA:                  -1.863
REMARK UNBOUND:                -0.918
REMARK SMILES COc1cc(CNC(=O)CCCCCCCC(C)C)ccc1O
REMARK SMILES IDX 11 1 10 2 8 3 9 4 7 5 6 7 5 8 4 9 20 10 3 11 21 12 22 13
REMARK SMILES IDX 2 14 1 15 23 16 12 18 13 19 14 20 15 21 16 22 17 23 18 24
REMARK SMILES IDX 19 25
REMARK H PARENT 7 6 23 17
REMARK Flexibility Score: inf
ROOT
ATOM      1  C   UNL     1      99.754  82.977  73.609  1.00  0.00     0.010 C 
ENDROOT
BRANCH   1   2
ATOM      2  C   UNL     1      98.427  83.727  73.505  1.00  0.00     0.100 C 
BRANCH   2   3
ATOM      3  C   UNL     1      97.294  82.997  74.206  1.00  0.00     0.220 C 
ATOM      4  O   UNL     1      96.592  82.153  73.655  1.00  0.00    -0.275 OA
ATOM      5  N   UNL     1      97.159  83.411  75.523  1.00  0.00    -0.352 N 
ATOM      6  H   UNL     1      97.781  84.126  75.890  1.00  0.00     0.163 HD
BRANCH   5   7
ATOM      7  C   UNL     1      96.151  82.881  76.412  1.00  0.00     0.151 C 
BRANCH   7   8
ATOM      8  C   UNL     1      96.689  81.781  77.279  1.00  0.00    -0.025 A 
ATOM      9  C   UNL     1      97.032  82.050  78.598  1.00  0.00     0.056 A 
ATOM     10  C   UNL     1      96.840  80.503  76.753  1.00  0.00     0.009 A 
ATOM     11  C   UNL     1      97.532  81.027  79.404  1.00  0.00     0.160 A 
ATOM     12  C   UNL     1      97.341  79.481  77.559  1.00  0.00     0.050 A 
ATOM     13  C   UNL     1      97.688  79.742  78.884  1.00  0.00     0.157 A 
BRANCH  11  14
ATOM     14  O   UNL     1      97.868  81.295  80.697  1.00  0.00    -0.493 OA
ATOM     15  C   UNL     1      96.839  81.814  81.539  1.00  0.00     0.278 C 
ENDBRANCH  11  14
BRANCH  13  16
ATOM     16  O   UNL     1      98.175  78.735  79.661  1.00  0.00    -0.504 OA
ATOM     17  H   UNL     1      98.491  79.108  80.501  1.00  0.00     0.293 HD
ENDBRANCH  13  16
ENDBRANCH   7   8
ENDBRANCH   5   7
ENDBRANCH   2   3
ENDBRANCH   1   2
BRANCH   1  18
ATOM     18  C   UNL     1     100.131  82.223  72.330  1.00  0.00     0.001 C 
BRANCH  18  19
ATOM     19  C   UNL     1      99.829  80.721  72.332  1.00  0.00     0.000 C 
BRANCH  19  20
ATOM     20  C   UNL     1      99.482  80.175  73.719  1.00  0.00     0.000 C 
BRANCH  20  21
ATOM     21  C   UNL     1      99.938  78.728  73.937  1.00  0.00     0.000 C 
BRANCH  21  22
ATOM     22  C   UNL     1     101.197  78.613  74.803  1.00  0.00     0.003 C 
BRANCH  22  23
ATOM     23  C   UNL     1     101.515  79.895  75.597  1.00  0.00    -0.017 C 
ATOM     24  C   UNL     1     103.023  80.156  75.574  1.00  0.00     0.007 C 
ATOM     25  C   UNL     1     101.028  79.825  77.044  1.00  0.00     0.007 C 
ENDBRANCH  22  23
ENDBRANCH  21  22
ENDBRANCH  20  21
ENDBRANCH  19  20
ENDBRANCH  18  19
ENDBRANCH   1  18
TORSDOF 12
ENDMDL
MODEL 8
REMARK VINA RESULT:    -5.558      3.888      8.066
REMARK INTER + INTRA:         -10.212
REMARK INTER:                  -8.669
REMARK INTRA:                  -1.543
REMARK UNBOUND:                -0.918
REMARK SMILES COc1cc(CNC(=O)CCCCCCCC(C)C)ccc1O
REMARK SMILES IDX 11 1 10 2 8 3 9 4 7 5 6 7 5 8 4 9 20 10 3 11 21 12 22 13
REMARK SMILES IDX 2 14 1 15 23 16 12 18 13 19 14 20 15 21 16 22 17 23 18 24
REMARK SMILES IDX 19 25
REMARK H PARENT 7 6 23 17
REMARK Flexibility Score: inf
ROOT
ATOM      1  C   UNL     1      95.233  93.025  78.869  1.00  0.00     0.010 C 
ENDROOT
BRANCH   1   2
ATOM      2  C   UNL     1      93.717  93.023  79.053  1.00  0.00     0.100 C 
BRANCH   2   3
ATOM      3  C   UNL     1      92.996  93.737  77.921  1.00  0.00     0.220 C 
ATOM      4  O   UNL     1      91.810  94.050  77.970  1.00  0.00    -0.275 OA
ATOM      5  N   UNL     1      93.841  93.973  76.847  1.00  0.00    -0.352 N 
ATOM      6  H   UNL     1      94.809  93.666  76.893  1.00  0.00     0.163 HD
BRANCH   5   7
ATOM      7  C   UNL     1      93.404  94.631  75.637  1.00  0.00     0.151 C 
BRANCH   7   8
ATOM      8  C   UNL     1      94.232  95.845  75.328  1.00  0.00    -0.025 A 
ATOM      9  C   UNL     1      93.722  96.830  74.491  1.00  0.00     0.056 A 
ATOM     10  C   UNL     1      95.500  95.971  75.882  1.00  0.00     0.009 A 
ATOM     11  C   UNL     1      94.491  97.958  74.204  1.00  0.00     0.160 A 
ATOM     12  C   UNL     1      96.269  97.099  75.594  1.00  0.00     0.050 A 
ATOM     13  C   UNL     1      95.765  98.092  74.756  1.00  0.00     0.157 A 
BRANCH  11  14
ATOM     14  O   UNL     1      93.987  98.921  73.383  1.00  0.00    -0.493 OA
ATOM     15  C   UNL     1      94.439  98.919  72.029  1.00  0.00     0.278 C 
ENDBRANCH  11  14
BRANCH  13  16
ATOM     16  O   UNL     1      96.525  99.189  74.483  1.00  0.00    -0.504 OA
ATOM     17  H   UNL     1      97.033  99.427  75.278  1.00  0.00     0.293 HD
ENDBRANCH  13  16
ENDBRANCH   7   8
ENDBRANCH   5   7
ENDBRANCH   2   3
ENDBRANCH   1   2
BRANCH   1  18
ATOM     18  C   UNL     1      95.996  93.526  80.098  1.00  0.00     0.001 C 
BRANCH  18  19
ATOM     19  C   UNL     1      97.404  94.070  79.831  1.00  0.00     0.000 C 
BRANCH  19  20
ATOM     20  C   UNL     1      97.412  95.313  78.936  1.00  0.00     0.000 C 
BRANCH  20  21
ATOM     21  C   UNL     1      96.499  96.435  79.442  1.00  0.00     0.000 C 
BRANCH  21  22
ATOM     22  C   UNL     1      97.249  97.524  80.216  1.00  0.00     0.003 C 
BRANCH  22  23
ATOM     23  C   UNL     1      96.794  97.660  81.682  1.00  0.00    -0.017 C 
ATOM     24  C   UNL     1      95.750  96.587  82.001  1.00  0.00     0.007 C 
ATOM     25  C   UNL     1      96.221  99.043  81.993  1.00  0.00     0.007 C 
ENDBRANCH  22  23
ENDBRANCH  21  22
ENDBRANCH  20  21
ENDBRANCH  19  20
ENDBRANCH  18  19
ENDBRANCH   1  18
TORSDOF 12
ENDMDL
MODEL 9
REMARK VINA RESULT:    -5.530      1.854      2.849
REMARK INTER + INTRA:         -10.166
REMARK INTER:                  -9.565
REMARK INTRA:                  -0.600
REMARK UNBOUND:                -0.918
REMARK SMILES COc1cc(CNC(=O)CCCCCCCC(C)C)ccc1O
REMARK SMILES IDX 11 1 10 2 8 3 9 4 7 5 6 7 5 8 4 9 20 10 3 11 21 12 22 13
REMARK SMILES IDX 2 14 1 15 23 16 12 18 13 19 14 20 15 21 16 22 17 23 18 24
REMARK SMILES IDX 19 25
REMARK H PARENT 7 6 23 17
REMARK Flexibility Score: inf
ROOT
ATOM      1  C   UNL     1      94.644  94.443  78.008  1.00  0.00     0.010 C 
ENDROOT
BRANCH   1   2
ATOM      2  C   UNL     1      95.674  93.492  78.614  1.00  0.00     0.100 C 
BRANCH   2   3
ATOM      3  C   UNL     1      96.897  94.223  79.143  1.00  0.00     0.220 C 
ATOM      4  O   UNL     1      97.708  94.791  78.417  1.00  0.00    -0.275 OA
ATOM      5  N   UNL     1      96.973  94.154  80.526  1.00  0.00    -0.352 N 
ATOM      6  H   UNL     1      96.259  93.650  81.044  1.00  0.00     0.163 HD
BRANCH   5   7
ATOM      7  C   UNL     1      98.045  94.760  81.282  1.00  0.00     0.151 C 
BRANCH   7   8
ATOM      8  C   UNL     1      97.615  96.041  81.936  1.00  0.00    -0.025 A 
ATOM      9  C   UNL     1      98.231  96.453  83.112  1.00  0.00     0.056 A 
ATOM     10  C   UNL     1      96.606  96.802  81.359  1.00  0.00     0.009 A 
ATOM     11  C   UNL     1      97.832  97.644  83.720  1.00  0.00     0.160 A 
ATOM     12  C   UNL     1      96.206  97.993  81.968  1.00  0.00     0.050 A 
ATOM     13  C   UNL     1      96.818  98.414  83.148  1.00  0.00     0.157 A 
BRANCH  11  14
ATOM     14  O   UNL     1      98.437  98.044  84.873  1.00  0.00    -0.493 OA
ATOM     15  C   UNL     1      98.362  97.155  85.986  1.00  0.00     0.278 C 
ENDBRANCH  11  14
BRANCH  13  16
ATOM     16  O   UNL     1      96.420  99.578  83.731  1.00  0.00    -0.504 OA
ATOM     17  H   UNL     1      96.821 100.324  83.254  1.00  0.00     0.293 HD
ENDBRANCH  13  16
ENDBRANCH   7   8
ENDBRANCH   5   7
ENDBRANCH   2   3
ENDBRANCH   1   2
BRANCH   1  18
ATOM     18  C   UNL     1      93.473  93.725  77.332  1.00  0.00     0.001 C 
BRANCH  18  19
ATOM     19  C   UNL     1      92.342  93.277  78.263  1.00  0.00     0.000 C 
BRANCH  19  20
ATOM     20  C   UNL     1      91.043  92.948  77.522  1.00  0.00     0.000 C 
BRANCH  20  21
ATOM     21  C   UNL     1      91.121  93.202  76.013  1.00  0.00     0.000 C 
BRANCH  21  22
ATOM     22  C   UNL     1      91.445  91.942  75.202  1.00  0.00     0.003 C 
BRANCH  22  23
ATOM     23  C   UNL     1      90.256  90.971  75.074  1.00  0.00    -0.017 C 
ATOM     24  C   UNL     1      90.772  89.547  74.852  1.00  0.00     0.007 C 
ATOM     25  C   UNL     1      89.304  91.355  73.940  1.00  0.00     0.007 C 
ENDBRANCH  22  23
ENDBRANCH  21  22
ENDBRANCH  20  21
ENDBRANCH  19  20
ENDBRANCH  18  19
ENDBRANCH   1  18
TORSDOF 12
ENDMDL
MODEL 10
REMARK VINA RESULT:    -5.452      3.465      7.975
REMARK INTER + INTRA:         -10.036
REMARK INTER:                  -8.473
REMARK INTRA:                  -1.563
REMARK UNBOUND:                -0.918
REMARK SMILES COc1cc(CNC(=O)CCCCCCCC(C)C)ccc1O
REMARK SMILES IDX 11 1 10 2 8 3 9 4 7 5 6 7 5 8 4 9 20 10 3 11 21 12 22 13
REMARK SMILES IDX 2 14 1 15 23 16 12 18 13 19 14 20 15 21 16 22 17 23 18 24
REMARK SMILES IDX 19 25
REMARK H PARENT 7 6 23 17
REMARK Flexibility Score: inf
ROOT
ATOM      1  C   UNL     1      95.837  93.026  79.044  1.00  0.00     0.010 C 
ENDROOT
BRANCH   1   2
ATOM      2  C   UNL     1      94.342  92.925  79.340  1.00  0.00     0.100 C 
BRANCH   2   3
ATOM      3  C   UNL     1      93.490  93.461  78.202  1.00  0.00     0.220 C 
ATOM      4  O   UNL     1      92.293  93.709  78.316  1.00  0.00    -0.275 OA
ATOM      5  N   UNL     1      94.231  93.620  77.041  1.00  0.00    -0.352 N 
ATOM      6  H   UNL     1      95.218  93.376  77.038  1.00  0.00     0.163 HD
BRANCH   5   7
ATOM      7  C   UNL     1      93.660  94.107  75.807  1.00  0.00     0.151 C 
BRANCH   7   8
ATOM      8  C   UNL     1      94.239  95.432  75.405  1.00  0.00    -0.025 A 
ATOM      9  C   UNL     1      95.504  95.794  75.852  1.00  0.00     0.056 A 
ATOM     10  C   UNL     1      93.504  96.284  74.589  1.00  0.00     0.009 A 
ATOM     11  C   UNL     1      96.042  97.026  75.479  1.00  0.00     0.160 A 
ATOM     12  C   UNL     1      94.042  97.516  74.216  1.00  0.00     0.050 A 
ATOM     13  C   UNL     1      95.311  97.887  74.660  1.00  0.00     0.157 A 
BRANCH  11  14
ATOM     14  O   UNL     1      97.282  97.377  75.920  1.00  0.00    -0.493 OA
ATOM     15  C   UNL     1      97.471  97.449  77.332  1.00  0.00     0.278 C 
ENDBRANCH  11  14
BRANCH  13  16
ATOM     16  O   UNL     1      95.825  99.092  74.288  1.00  0.00    -0.504 OA
ATOM     17  H   UNL     1      95.520  99.303  73.389  1.00  0.00     0.293 HD
ENDBRANCH  13  16
ENDBRANCH   7   8
ENDBRANCH   5   7
ENDBRANCH   2   3
ENDBRANCH   1   2
BRANCH   1  18
ATOM     18  C   UNL     1      96.486  94.297  79.600  1.00  0.00     0.001 C 
BRANCH  18  19
ATOM     19  C   UNL     1      96.029  94.717  81.001  1.00  0.00     0.000 C 
BRANCH  19  20
ATOM     20  C   UNL     1      95.690  96.207  81.105  1.00  0.00     0.000 C 
BRANCH  20  21
ATOM     21  C   UNL     1      96.904  97.088  81.423  1.00  0.00     0.000 C 
BRANCH  21  22
ATOM     22  C   UNL     1      97.699  96.607  82.641  1.00  0.00     0.003 C 
BRANCH  22  23
ATOM     23  C   UNL     1      99.115  96.107  82.292  1.00  0.00    -0.017 C 
ATOM     24  C   UNL     1      99.395  96.342  80.806  1.00  0.00     0.007 C 
ATOM     25  C   UNL     1      99.313  94.628  82.625  1.00  0.00     0.007 C 
ENDBRANCH  22  23
ENDBRANCH  21  22
ENDBRANCH  20  21
ENDBRANCH  19  20
ENDBRANCH  18  19
ENDBRANCH   1  18
TORSDOF 12
ENDMDL
