MODEL 1
REMARK VINA RESULT:    -6.532      0.000      0.000
REMARK INTER + INTRA:         -10.865
REMARK INTER:                 -10.160
REMARK INTRA:                  -0.705
REMARK UNBOUND:                -0.705
REMARK SMILES COc1cc(CNC(=O)CCCC/C=C/C(C)C)ccc1O
REMARK SMILES IDX 10 1 8 2 7 3 9 5 6 6 5 7 3 8 21 9 4 10 20 11 19 12 2 13 1 14
REMARK SMILES IDX 22 15 11 17 12 18 13 19 14 20 15 21 16 22 17 23 18 24
REMARK H PARENT 7 4 22 16
REMARK Flexibility Score: inf
ROOT
ATOM      1  C   UNL     1      95.346  81.661  84.287  1.00  0.00     0.100 C 
ENDROOT
BRANCH   1   2
ATOM      2  C   UNL     1      94.157  81.786  85.151  1.00  0.00     0.220 C 
ATOM      3  N   UNL     1      92.912  81.877  84.605  1.00  0.00    -0.352 N 
ATOM      4  H   UNL     1      92.888  81.875  83.594  1.00  0.00     0.163 HD
ATOM      5  O   UNL     1      94.325  81.782  86.395  1.00  0.00    -0.275 OA
BRANCH   3   6
ATOM      6  C   UNL     1      91.698  81.968  85.351  1.00  0.00     0.151 C 
BRANCH   6   7
ATOM      7  C   UNL     1      90.725  80.919  84.944  1.00  0.00    -0.025 A 
ATOM      8  C   UNL     1      88.404  80.221  84.510  1.00  0.00     0.160 A 
ATOM      9  C   UNL     1      88.857  78.935  84.150  1.00  0.00     0.157 A 
ATOM     10  C   UNL     1      89.341  81.199  84.905  1.00  0.00     0.056 A 
ATOM     11  C   UNL     1      90.233  78.635  84.202  1.00  0.00     0.050 A 
ATOM     12  C   UNL     1      91.162  79.621  84.587  1.00  0.00     0.009 A 
BRANCH   8  13
ATOM     13  O   UNL     1      87.061  80.497  84.524  1.00  0.00    -0.493 OA
ATOM     14  C   UNL     1      86.685  81.621  83.706  1.00  0.00     0.278 C 
ENDBRANCH   8  13
BRANCH   9  15
ATOM     15  O   UNL     1      87.983  77.974  83.752  1.00  0.00    -0.504 OA
ATOM     16  H   UNL     1      87.987  77.254  84.387  1.00  0.00     0.293 HD
ENDBRANCH   9  15
ENDBRANCH   6   7
ENDBRANCH   3   6
ENDBRANCH   1   2
BRANCH   1  17
ATOM     17  C   UNL     1      95.526  80.210  83.766  1.00  0.00     0.010 C 
BRANCH  17  18
ATOM     18  C   UNL     1      96.366  80.135  82.460  1.00  0.00     0.005 C 
BRANCH  18  19
ATOM     19  C   UNL     1      96.662  81.540  81.868  1.00  0.00     0.027 C 
BRANCH  19  20
ATOM     20  C   UNL     1      97.242  81.460  80.535  1.00  0.00    -0.031 C 
ATOM     21  C   UNL     1      96.744  82.090  79.455  1.00  0.00    -0.028 C 
BRANCH  21  22
ATOM     22  C   UNL     1      97.355  82.011  78.129  1.00  0.00     0.005 C 
ATOM     23  C   UNL     1      98.303  80.788  77.988  1.00  0.00     0.012 C 
ATOM     24  C   UNL     1      96.258  81.990  77.034  1.00  0.00     0.012 C 
ENDBRANCH  21  22
ENDBRANCH  19  20
ENDBRANCH  18  19
ENDBRANCH  17  18
ENDBRANCH   1  17
TORSDOF 10
ENDMDL
MODEL 2
REMARK VINA RESULT:    -6.168     18.813     21.534
REMARK INTER + INTRA:         -10.298
REMARK INTER:                  -9.305
REMARK INTRA:                  -0.993
REMARK UNBOUND:                -0.705
REMARK SMILES COc1cc(CNC(=O)CCCC/C=C/C(C)C)ccc1O
REMARK SMILES IDX 10 1 8 2 7 3 9 5 6 6 5 7 3 8 21 9 4 10 20 11 19 12 2 13 1 14
REMARK SMILES IDX 22 15 11 17 12 18 13 19 14 20 15 21 16 22 17 23 18 24
REMARK H PARENT 7 4 22 16
REMARK Flexibility Score: inf
ROOT
ATOM      1  C   UNL     1      95.109  98.451  72.327  1.00  0.00     0.100 C 
ENDROOT
BRANCH   1   2
ATOM      2  C   UNL     1      93.764  99.057  72.322  1.00  0.00     0.220 C 
ATOM      3  N   UNL     1      93.354  99.819  71.270  1.00  0.00    -0.352 N 
ATOM      4  H   UNL     1      94.041  99.942  70.538  1.00  0.00     0.163 HD
ATOM      5  O   UNL     1      93.008  98.831  73.298  1.00  0.00    -0.275 OA
BRANCH   3   6
ATOM      6  C   UNL     1      92.065 100.422  71.153  1.00  0.00     0.151 C 
BRANCH   6   7
ATOM      7  C   UNL     1      91.198  99.681  70.197  1.00  0.00    -0.025 A 
ATOM      8  C   UNL     1      90.371  99.332  67.904  1.00  0.00     0.160 A 
ATOM      9  C   UNL     1      89.568  98.264  68.355  1.00  0.00     0.157 A 
ATOM     10  C   UNL     1      91.176 100.031  68.828  1.00  0.00     0.056 A 
ATOM     11  C   UNL     1      89.565  97.917  69.721  1.00  0.00     0.050 A 
ATOM     12  C   UNL     1      90.381  98.612  70.634  1.00  0.00     0.009 A 
BRANCH   8  13
ATOM     13  O   UNL     1      90.328  99.717  66.588  1.00  0.00    -0.493 OA
ATOM     14  C   UNL     1      90.134 101.130  66.396  1.00  0.00     0.278 C 
ENDBRANCH   8  13
BRANCH   9  15
ATOM     15  O   UNL     1      88.791  97.563  67.490  1.00  0.00    -0.504 OA
ATOM     16  H   UNL     1      87.916  97.446  67.866  1.00  0.00     0.293 HD
ENDBRANCH   9  15
ENDBRANCH   6   7
ENDBRANCH   3   6
ENDBRANCH   1   2
BRANCH   1  17
ATOM     17  C   UNL     1      95.767  98.530  73.731  1.00  0.00     0.010 C 
BRANCH  17  18
ATOM     18  C   UNL     1      96.084  97.131  74.331  1.00  0.00     0.005 C 
BRANCH  18  19
ATOM     19  C   UNL     1      95.218  96.007  73.699  1.00  0.00     0.027 C 
BRANCH  19  20
ATOM     20  C   UNL     1      94.335  95.384  74.673  1.00  0.00    -0.031 C 
ATOM     21  C   UNL     1      93.758  96.037  75.698  1.00  0.00    -0.028 C 
BRANCH  21  22
ATOM     22  C   UNL     1      92.858  95.394  76.655  1.00  0.00     0.005 C 
ATOM     23  C   UNL     1      91.649  96.297  77.025  1.00  0.00     0.012 C 
ATOM     24  C   UNL     1      92.378  94.027  76.103  1.00  0.00     0.012 C 
ENDBRANCH  21  22
ENDBRANCH  19  20
ENDBRANCH  18  19
ENDBRANCH  17  18
ENDBRANCH   1  17
TORSDOF 10
ENDMDL
MODEL 3
REMARK VINA RESULT:    -6.125     17.197     19.824
REMARK INTER + INTRA:         -10.232
REMARK INTER:                  -9.640
REMARK INTRA:                  -0.593
REMARK UNBOUND:                -0.705
REMARK SMILES COc1cc(CNC(=O)CCCC/C=C/C(C)C)ccc1O
REMARK SMILES IDX 10 1 8 2 7 3 9 5 6 6 5 7 3 8 21 9 4 10 20 11 19 12 2 13 1 14
REMARK SMILES IDX 22 15 11 17 12 18 13 19 14 20 15 21 16 22 17 23 18 24
REMARK H PARENT 7 4 22 16
REMARK Flexibility Score: inf
ROOT
ATOM      1  C   UNL     1      92.956  99.425  72.806  1.00  0.00     0.100 C 
ENDROOT
BRANCH   1   2
ATOM      2  C   UNL     1      93.928  98.365  73.133  1.00  0.00     0.220 C 
ATOM      3  N   UNL     1      93.727  97.549  74.205  1.00  0.00    -0.352 N 
ATOM      4  H   UNL     1      92.896  97.749  74.744  1.00  0.00     0.163 HD
ATOM      5  O   UNL     1      94.926  98.225  72.384  1.00  0.00    -0.275 OA
BRANCH   3   6
ATOM      6  C   UNL     1      94.589  96.476  74.587  1.00  0.00     0.151 C 
BRANCH   6   7
ATOM      7  C   UNL     1      93.939  95.579  75.580  1.00  0.00    -0.025 A 
ATOM      8  C   UNL     1      94.121  93.936  77.405  1.00  0.00     0.160 A 
ATOM      9  C   UNL     1      92.715  93.878  77.495  1.00  0.00     0.157 A 
ATOM     10  C   UNL     1      94.719  94.783  76.449  1.00  0.00     0.056 A 
ATOM     11  C   UNL     1      91.923  94.651  76.622  1.00  0.00     0.050 A 
ATOM     12  C   UNL     1      92.530  95.503  75.679  1.00  0.00     0.009 A 
BRANCH   8  13
ATOM     13  O   UNL     1      94.895  93.137  78.207  1.00  0.00    -0.493 OA
ATOM     14  C   UNL     1      96.253  93.590  78.353  1.00  0.00     0.278 C 
ENDBRANCH   8  13
BRANCH   9  15
ATOM     15  O   UNL     1      92.108  93.083  78.413  1.00  0.00    -0.504 OA
ATOM     16  H   UNL     1      92.476  93.258  79.282  1.00  0.00     0.293 HD
ENDBRANCH   9  15
ENDBRANCH   6   7
ENDBRANCH   3   6
ENDBRANCH   1   2
BRANCH   1  17
ATOM     17  C   UNL     1      92.460  99.315  71.339  1.00  0.00     0.010 C 
BRANCH  17  18
ATOM     18  C   UNL     1      91.054  99.943  71.126  1.00  0.00     0.005 C 
BRANCH  18  19
ATOM     19  C   UNL     1      89.977  98.878  70.785  1.00  0.00     0.027 C 
BRANCH  19  20
ATOM     20  C   UNL     1      89.912  98.603  69.358  1.00  0.00    -0.031 C 
ATOM     21  C   UNL     1      89.995  99.546  68.402  1.00  0.00    -0.028 C 
BRANCH  21  22
ATOM     22  C   UNL     1      89.947  99.244  66.971  1.00  0.00     0.005 C 
ATOM     23  C   UNL     1      88.492  99.075  66.453  1.00  0.00     0.012 C 
ATOM     24  C   UNL     1      90.698 100.337  66.167  1.00  0.00     0.012 C 
ENDBRANCH  21  22
ENDBRANCH  19  20
ENDBRANCH  18  19
ENDBRANCH  17  18
ENDBRANCH   1  17
TORSDOF 10
ENDMDL
MODEL 4
REMARK VINA RESULT:    -6.113     22.925     25.637
REMARK INTER + INTRA:         -10.212
REMARK INTER:                  -9.406
REMARK INTRA:                  -0.807
REMARK UNBOUND:                -0.705
REMARK SMILES COc1cc(CNC(=O)CCCC/C=C/C(C)C)ccc1O
REMARK SMILES IDX 10 1 8 2 7 3 9 5 6 6 5 7 3 8 21 9 4 10 20 11 19 12 2 13 1 14
REMARK SMILES IDX 22 15 11 17 12 18 13 19 14 20 15 21 16 22 17 23 18 24
REMARK H PARENT 7 4 22 16
REMARK Flexibility Score: inf
ROOT
ATOM      1  C   UNL     1      77.548  85.554  67.491  1.00  0.00     0.100 C 
ENDROOT
BRANCH   1   2
ATOM      2  C   UNL     1      77.338  84.563  66.419  1.00  0.00     0.220 C 
ATOM      3  N   UNL     1      76.456  84.812  65.410  1.00  0.00    -0.352 N 
ATOM      4  H   UNL     1      75.965  85.692  65.481  1.00  0.00     0.163 HD
ATOM      5  O   UNL     1      78.009  83.503  66.452  1.00  0.00    -0.275 OA
BRANCH   3   6
ATOM      6  C   UNL     1      76.205  83.935  64.312  1.00  0.00     0.151 C 
BRANCH   6   7
ATOM      7  C   UNL     1      75.016  83.074  64.561  1.00  0.00    -0.025 A 
ATOM      8  C   UNL     1      72.633  82.577  64.193  1.00  0.00     0.160 A 
ATOM      9  C   UNL     1      72.744  81.433  65.009  1.00  0.00     0.157 A 
ATOM     10  C   UNL     1      73.767  83.387  63.978  1.00  0.00     0.056 A 
ATOM     11  C   UNL     1      73.978  81.118  65.612  1.00  0.00     0.050 A 
ATOM     12  C   UNL     1      75.109  81.927  65.383  1.00  0.00     0.009 A 
BRANCH   8  13
ATOM     13  O   UNL     1      71.419  82.924  63.657  1.00  0.00    -0.493 OA
ATOM     14  C   UNL     1      70.734  83.965  64.378  1.00  0.00     0.278 C 
ENDBRANCH   8  13
BRANCH   9  15
ATOM     15  O   UNL     1      71.675  80.624  65.225  1.00  0.00    -0.504 OA
ATOM     16  H   UNL     1      71.811  80.121  66.031  1.00  0.00     0.293 HD
ENDBRANCH   9  15
ENDBRANCH   6   7
ENDBRANCH   3   6
ENDBRANCH   1   2
BRANCH   1  17
ATOM     17  C   UNL     1      76.286  85.711  68.382  1.00  0.00     0.010 C 
BRANCH  17  18
ATOM     18  C   UNL     1      75.724  87.160  68.386  1.00  0.00     0.005 C 
BRANCH  18  19
ATOM     19  C   UNL     1      76.757  88.195  67.864  1.00  0.00     0.027 C 
BRANCH  19  20
ATOM     20  C   UNL     1      76.270  89.561  67.979  1.00  0.00    -0.031 C 
ATOM     21  C   UNL     1      75.157  89.913  68.649  1.00  0.00    -0.028 C 
BRANCH  21  22
ATOM     22  C   UNL     1      74.695  91.296  68.768  1.00  0.00     0.005 C 
ATOM     23  C   UNL     1      73.161  91.425  68.562  1.00  0.00     0.012 C 
ATOM     24  C   UNL     1      75.120  91.886  70.138  1.00  0.00     0.012 C 
ENDBRANCH  21  22
ENDBRANCH  19  20
ENDBRANCH  18  19
ENDBRANCH  17  18
ENDBRANCH   1  17
TORSDOF 10
ENDMDL
MODEL 5
REMARK VINA RESULT:    -5.950     13.945     15.619
REMARK INTER + INTRA:          -9.959
REMARK INTER:                  -8.483
REMARK INTRA:                  -1.476
REMARK UNBOUND:                -0.705
REMARK SMILES COc1cc(CNC(=O)CCCC/C=C/C(C)C)ccc1O
REMARK SMILES IDX 10 1 8 2 7 3 9 5 6 6 5 7 3 8 21 9 4 10 20 11 19 12 2 13 1 14
REMARK SMILES IDX 22 15 11 17 12 18 13 19 14 20 15 21 16 22 17 23 18 24
REMARK H PARENT 7 4 22 16
REMARK Flexibility Score: inf
ROOT
ATOM      1  C   UNL     1      98.170  95.063  80.101  1.00  0.00     0.100 C 
ENDROOT
BRANCH   1   2
ATOM      2  C   UNL     1      96.827  94.512  80.363  1.00  0.00     0.220 C 
ATOM      3  N   UNL     1      96.245  93.658  79.475  1.00  0.00    -0.352 N 
ATOM      4  H   UNL     1      96.790  93.468  78.646  1.00  0.00     0.163 HD
ATOM      5  O   UNL     1      96.253  94.833  81.432  1.00  0.00    -0.275 OA
BRANCH   3   6
ATOM      6  C   UNL     1      94.966  93.046  79.651  1.00  0.00     0.151 C 
BRANCH   6   7
ATOM      7  C   UNL     1      93.948  93.639  78.741  1.00  0.00    -0.025 A 
ATOM      8  C   UNL     1      91.894  93.403  77.404  1.00  0.00     0.160 A 
ATOM      9  C   UNL     1      91.986  94.757  77.022  1.00  0.00     0.157 A 
ATOM     10  C   UNL     1      92.875  92.856  78.257  1.00  0.00     0.056 A 
ATOM     11  C   UNL     1      93.061  95.544  77.480  1.00  0.00     0.050 A 
ATOM     12  C   UNL     1      94.030  94.993  78.341  1.00  0.00     0.009 A 
BRANCH   8  13
ATOM     13  O   UNL     1      90.886  92.615  76.908  1.00  0.00    -0.493 OA
ATOM     14  C   UNL     1      89.809  92.387  77.835  1.00  0.00     0.278 C 
ENDBRANCH   8  13
BRANCH   9  15
ATOM     15  O   UNL     1      91.051  95.318  76.212  1.00  0.00    -0.504 OA
ATOM     16  H   UNL     1      90.178  95.019  76.477  1.00  0.00     0.293 HD
ENDBRANCH   9  15
ENDBRANCH   6   7
ENDBRANCH   3   6
ENDBRANCH   1   2
BRANCH   1  17
ATOM     17  C   UNL     1      98.138  96.609  79.963  1.00  0.00     0.010 C 
BRANCH  17  18
ATOM     18  C   UNL     1      97.198  97.096  78.824  1.00  0.00     0.005 C 
BRANCH  18  19
ATOM     19  C   UNL     1      97.571  96.482  77.448  1.00  0.00     0.027 C 
BRANCH  19  20
ATOM     20  C   UNL     1      96.782  97.048  76.364  1.00  0.00    -0.031 C 
ATOM     21  C   UNL     1      96.035  96.321  75.513  1.00  0.00    -0.028 C 
BRANCH  21  22
ATOM     22  C   UNL     1      95.234  96.914  74.443  1.00  0.00     0.005 C 
ATOM     23  C   UNL     1      95.353  98.462  74.406  1.00  0.00     0.012 C 
ATOM     24  C   UNL     1      95.626  96.296  73.075  1.00  0.00     0.012 C 
ENDBRANCH  21  22
ENDBRANCH  19  20
ENDBRANCH  18  19
ENDBRANCH  17  18
ENDBRANCH   1  17
TORSDOF 10
ENDMDL
MODEL 6
REMARK VINA RESULT:    -5.854     17.159     20.529
REMARK INTER + INTRA:          -9.810
REMARK INTER:                  -9.133
REMARK INTRA:                  -0.677
REMARK UNBOUND:                -0.705
REMARK SMILES COc1cc(CNC(=O)CCCC/C=C/C(C)C)ccc1O
REMARK SMILES IDX 10 1 8 2 7 3 9 5 6 6 5 7 3 8 21 9 4 10 20 11 19 12 2 13 1 14
REMARK SMILES IDX 22 15 11 17 12 18 13 19 14 20 15 21 16 22 17 23 18 24
REMARK H PARENT 7 4 22 16
REMARK Flexibility Score: inf
ROOT
ATOM      1  C   UNL     1      83.975  66.782  71.734  1.00  0.00     0.100 C 
ENDROOT
BRANCH   1   2
ATOM      2  C   UNL     1      84.125  68.176  72.194  1.00  0.00     0.220 C 
ATOM      3  N   UNL     1      84.594  69.137  71.349  1.00  0.00    -0.352 N 
ATOM      4  H   UNL     1      84.840  68.809  70.425  1.00  0.00     0.163 HD
ATOM      5  O   UNL     1      83.789  68.451  73.371  1.00  0.00    -0.275 OA
BRANCH   3   6
ATOM      6  C   UNL     1      84.746  70.516  71.686  1.00  0.00     0.151 C 
BRANCH   6   7
ATOM      7  C   UNL     1      86.143  70.981  71.469  1.00  0.00    -0.025 A 
ATOM      8  C   UNL     1      87.967  71.599  69.936  1.00  0.00     0.160 A 
ATOM      9  C   UNL     1      88.798  71.885  71.039  1.00  0.00     0.157 A 
ATOM     10  C   UNL     1      86.650  71.148  70.161  1.00  0.00     0.056 A 
ATOM     11  C   UNL     1      88.313  71.704  72.349  1.00  0.00     0.050 A 
ATOM     12  C   UNL     1      86.992  71.265  72.564  1.00  0.00     0.009 A 
BRANCH   8  13
ATOM     13  O   UNL     1      88.456  71.710  68.659  1.00  0.00    -0.493 OA
ATOM     14  C   UNL     1      87.469  72.092  67.684  1.00  0.00     0.278 C 
ENDBRANCH   8  13
BRANCH   9  15
ATOM     15  O   UNL     1      90.067  72.334  70.857  1.00  0.00    -0.504 OA
ATOM     16  H   UNL     1      90.684  71.729  71.276  1.00  0.00     0.293 HD
ENDBRANCH   9  15
ENDBRANCH   6   7
ENDBRANCH   3   6
ENDBRANCH   1   2
BRANCH   1  17
ATOM     17  C   UNL     1      82.817  66.639  70.710  1.00  0.00     0.010 C 
BRANCH  17  18
ATOM     18  C   UNL     1      81.803  65.526  71.095  1.00  0.00     0.005 C 
BRANCH  18  19
ATOM     19  C   UNL     1      80.831  65.975  72.219  1.00  0.00     0.027 C 
BRANCH  19  20
ATOM     20  C   UNL     1      80.950  65.146  73.409  1.00  0.00    -0.031 C 
ATOM     21  C   UNL     1      80.173  65.273  74.500  1.00  0.00    -0.028 C 
BRANCH  21  22
ATOM     22  C   UNL     1      80.297  64.415  75.678  1.00  0.00     0.005 C 
ATOM     23  C   UNL     1      79.375  63.166  75.597  1.00  0.00     0.012 C 
ATOM     24  C   UNL     1      81.776  63.997  75.883  1.00  0.00     0.012 C 
ENDBRANCH  21  22
ENDBRANCH  19  20
ENDBRANCH  18  19
ENDBRANCH  17  18
ENDBRANCH   1  17
TORSDOF 10
ENDMDL
MODEL 7
REMARK VINA RESULT:    -5.721     13.982     15.737
REMARK INTER + INTRA:          -9.603
REMARK INTER:                  -8.874
REMARK INTRA:                  -0.729
REMARK UNBOUND:                -0.705
REMARK SMILES COc1cc(CNC(=O)CCCC/C=C/C(C)C)ccc1O
REMARK SMILES IDX 10 1 8 2 7 3 9 5 6 6 5 7 3 8 21 9 4 10 20 11 19 12 2 13 1 14
REMARK SMILES IDX 22 15 11 17 12 18 13 19 14 20 15 21 16 22 17 23 18 24
REMARK H PARENT 7 4 22 16
REMARK Flexibility Score: inf
ROOT
ATOM      1  C   UNL     1      97.092  96.109  80.327  1.00  0.00     0.100 C 
ENDROOT
BRANCH   1   2
ATOM      2  C   UNL     1      96.029  95.088  80.406  1.00  0.00     0.220 C 
ATOM      3  N   UNL     1      95.600  94.448  79.282  1.00  0.00    -0.352 N 
ATOM      4  H   UNL     1      96.045  94.746  78.425  1.00  0.00     0.163 HD
ATOM      5  O   UNL     1      95.554  94.814  81.535  1.00  0.00    -0.275 OA
BRANCH   3   6
ATOM      6  C   UNL     1      94.604  93.425  79.256  1.00  0.00     0.151 C 
BRANCH   6   7
ATOM      7  C   UNL     1      93.451  93.808  78.396  1.00  0.00    -0.025 A 
ATOM      8  C   UNL     1      92.448  95.314  76.727  1.00  0.00     0.160 A 
ATOM      9  C   UNL     1      91.268  94.541  76.737  1.00  0.00     0.157 A 
ATOM     10  C   UNL     1      93.525  94.942  77.557  1.00  0.00     0.056 A 
ATOM     11  C   UNL     1      91.172  93.418  77.583  1.00  0.00     0.050 A 
ATOM     12  C   UNL     1      92.258  93.048  78.400  1.00  0.00     0.009 A 
BRANCH   8  13
ATOM     13  O   UNL     1      92.522  96.445  75.954  1.00  0.00    -0.493 OA
ATOM     14  C   UNL     1      93.576  96.419  74.975  1.00  0.00     0.278 C 
ENDBRANCH   8  13
BRANCH   9  15
ATOM     15  O   UNL     1      90.217  94.864  75.939  1.00  0.00    -0.504 OA
ATOM     16  H   UNL     1      89.588  94.139  75.929  1.00  0.00     0.293 HD
ENDBRANCH   9  15
ENDBRANCH   6   7
ENDBRANCH   3   6
ENDBRANCH   1   2
BRANCH   1  17
ATOM     17  C   UNL     1      98.361  95.561  79.621  1.00  0.00     0.010 C 
BRANCH  17  18
ATOM     18  C   UNL     1      99.485  95.164  80.619  1.00  0.00     0.005 C 
BRANCH  18  19
ATOM     19  C   UNL     1      99.049  94.019  81.574  1.00  0.00     0.027 C 
BRANCH  19  20
ATOM     20  C   UNL     1      99.283  94.353  82.970  1.00  0.00    -0.031 C 
ATOM     21  C   UNL     1     100.379  94.989  83.423  1.00  0.00    -0.028 C 
BRANCH  21  22
ATOM     22  C   UNL     1     100.584  95.332  84.830  1.00  0.00     0.005 C 
ATOM     23  C   UNL     1     101.920  94.765  85.386  1.00  0.00     0.012 C 
ATOM     24  C   UNL     1     100.513  96.869  85.023  1.00  0.00     0.012 C 
ENDBRANCH  21  22
ENDBRANCH  19  20
ENDBRANCH  18  19
ENDBRANCH  17  18
ENDBRANCH   1  17
TORSDOF 10
ENDMDL
MODEL 8
REMARK VINA RESULT:    -5.627     16.877     19.886
REMARK INTER + INTRA:          -9.457
REMARK INTER:                  -7.991
REMARK INTRA:                  -1.466
REMARK UNBOUND:                -0.705
REMARK SMILES COc1cc(CNC(=O)CCCC/C=C/C(C)C)ccc1O
REMARK SMILES IDX 10 1 8 2 7 3 9 5 6 6 5 7 3 8 21 9 4 10 20 11 19 12 2 13 1 14
REMARK SMILES IDX 22 15 11 17 12 18 13 19 14 20 15 21 16 22 17 23 18 24
REMARK H PARENT 7 4 22 16
REMARK Flexibility Score: inf
ROOT
ATOM      1  C   UNL     1      83.523  64.240  75.697  1.00  0.00     0.100 C 
ENDROOT
BRANCH   1   2
ATOM      2  C   UNL     1      84.181  65.515  76.040  1.00  0.00     0.220 C 
ATOM      3  N   UNL     1      84.622  66.352  75.059  1.00  0.00    -0.352 N 
ATOM      4  H   UNL     1      84.481  66.016  74.117  1.00  0.00     0.163 HD
ATOM      5  O   UNL     1      84.300  65.812  77.254  1.00  0.00    -0.275 OA
BRANCH   3   6
ATOM      6  C   UNL     1      85.241  67.619  75.286  1.00  0.00     0.151 C 
BRANCH   6   7
ATOM      7  C   UNL     1      84.990  68.559  74.160  1.00  0.00    -0.025 A 
ATOM      8  C   UNL     1      85.253  70.789  73.149  1.00  0.00     0.160 A 
ATOM      9  C   UNL     1      84.536  70.359  72.013  1.00  0.00     0.157 A 
ATOM     10  C   UNL     1      85.471  69.887  74.211  1.00  0.00     0.056 A 
ATOM     11  C   UNL     1      84.033  69.044  71.956  1.00  0.00     0.050 A 
ATOM     12  C   UNL     1      84.266  68.147  73.016  1.00  0.00     0.009 A 
BRANCH   8  13
ATOM     13  O   UNL     1      85.687  72.087  73.238  1.00  0.00    -0.493 OA
ATOM     14  C   UNL     1      86.142  72.465  74.550  1.00  0.00     0.278 C 
ENDBRANCH   8  13
BRANCH   9  15
ATOM     15  O   UNL     1      84.320  71.198  70.967  1.00  0.00    -0.504 OA
ATOM     16  H   UNL     1      83.878  70.723  70.260  1.00  0.00     0.293 HD
ENDBRANCH   9  15
ENDBRANCH   6   7
ENDBRANCH   3   6
ENDBRANCH   1   2
BRANCH   1  17
ATOM     17  C   UNL     1      82.055  64.199  76.202  1.00  0.00     0.010 C 
BRANCH  17  18
ATOM     18  C   UNL     1      81.186  65.354  75.629  1.00  0.00     0.005 C 
BRANCH  18  19
ATOM     19  C   UNL     1      80.256  64.878  74.480  1.00  0.00     0.027 C 
BRANCH  19  20
ATOM     20  C   UNL     1      80.597  65.498  73.208  1.00  0.00    -0.031 C 
ATOM     21  C   UNL     1      81.746  65.277  72.544  1.00  0.00    -0.028 C 
BRANCH  21  22
ATOM     22  C   UNL     1      82.060  65.895  71.256  1.00  0.00     0.005 C 
ATOM     23  C   UNL     1      83.382  65.351  70.647  1.00  0.00     0.012 C 
ATOM     24  C   UNL     1      80.879  65.708  70.269  1.00  0.00     0.012 C 
ENDBRANCH  21  22
ENDBRANCH  19  20
ENDBRANCH  18  19
ENDBRANCH  17  18
ENDBRANCH   1  17
TORSDOF 10
ENDMDL
MODEL 9
REMARK VINA RESULT:    -5.535     24.076     27.365
REMARK INTER + INTRA:          -9.314
REMARK INTER:                  -7.547
REMARK INTRA:                  -1.768
REMARK UNBOUND:                -0.705
REMARK SMILES COc1cc(CNC(=O)CCCC/C=C/C(C)C)ccc1O
REMARK SMILES IDX 10 1 8 2 7 3 9 5 6 6 5 7 3 8 21 9 4 10 20 11 19 12 2 13 1 14
REMARK SMILES IDX 22 15 11 17 12 18 13 19 14 20 15 21 16 22 17 23 18 24
REMARK H PARENT 7 4 22 16
REMARK Flexibility Score: inf
ROOT
ATOM      1  C   UNL     1      89.187  98.616  69.039  1.00  0.00     0.100 C 
ENDROOT
BRANCH   1   2
ATOM      2  C   UNL     1      90.056  99.784  69.278  1.00  0.00     0.220 C 
ATOM      3  N   UNL     1      91.094 100.057  68.439  1.00  0.00    -0.352 N 
ATOM      4  H   UNL     1      91.219  99.395  67.685  1.00  0.00     0.163 HD
ATOM      5  O   UNL     1      89.796 100.526  70.257  1.00  0.00    -0.275 OA
BRANCH   3   6
ATOM      6  C   UNL     1      91.971 101.177  68.564  1.00  0.00     0.151 C 
BRANCH   6   7
ATOM      7  C   UNL     1      92.272 101.786  67.240  1.00  0.00    -0.025 A 
ATOM      8  C   UNL     1      93.320 103.571  65.906  1.00  0.00     0.160 A 
ATOM      9  C   UNL     1      92.872 102.950  64.722  1.00  0.00     0.157 A 
ATOM     10  C   UNL     1      93.015 102.985  67.152  1.00  0.00     0.056 A 
ATOM     11  C   UNL     1      92.114 101.765  64.794  1.00  0.00     0.050 A 
ATOM     12  C   UNL     1      91.824 101.181  66.042  1.00  0.00     0.009 A 
BRANCH   8  13
ATOM     13  O   UNL     1      94.002 104.760  65.844  1.00  0.00    -0.493 OA
ATOM     14  C   UNL     1      95.171 104.810  66.682  1.00  0.00     0.278 C 
ENDBRANCH   8  13
BRANCH   9  15
ATOM     15  O   UNL     1      93.160 103.481  63.505  1.00  0.00    -0.504 OA
ATOM     16  H   UNL     1      92.344 103.696  63.048  1.00  0.00     0.293 HD
ENDBRANCH   9  15
ENDBRANCH   6   7
ENDBRANCH   3   6
ENDBRANCH   1   2
BRANCH   1  17
ATOM     17  C   UNL     1      89.491  97.946  67.672  1.00  0.00     0.010 C 
BRANCH  17  18
ATOM     18  C   UNL     1      88.830  98.687  66.475  1.00  0.00     0.005 C 
BRANCH  18  19
ATOM     19  C   UNL     1      87.624  99.560  66.915  1.00  0.00     0.027 C 
BRANCH  19  20
ATOM     20  C   UNL     1      87.669 100.891  66.328  1.00  0.00    -0.031 C 
ATOM     21  C   UNL     1      88.284 101.946  66.893  1.00  0.00    -0.028 C 
BRANCH  21  22
ATOM     22  C   UNL     1      88.334 103.271  66.275  1.00  0.00     0.005 C 
ATOM     23  C   UNL     1      86.949 103.975  66.279  1.00  0.00     0.012 C 
ATOM     24  C   UNL     1      89.403 104.149  66.976  1.00  0.00     0.012 C 
ENDBRANCH  21  22
ENDBRANCH  19  20
ENDBRANCH  18  19
ENDBRANCH  17  18
ENDBRANCH   1  17
TORSDOF 10
ENDMDL
MODEL 10
REMARK VINA RESULT:    -5.497     17.780     20.647
REMARK INTER + INTRA:          -9.255
REMARK INTER:                  -8.611
REMARK INTRA:                  -0.644
REMARK UNBOUND:                -0.705
REMARK SMILES COc1cc(CNC(=O)CCCC/C=C/C(C)C)ccc1O
REMARK SMILES IDX 10 1 8 2 7 3 9 5 6 6 5 7 3 8 21 9 4 10 20 11 19 12 2 13 1 14
REMARK SMILES IDX 22 15 11 17 12 18 13 19 14 20 15 21 16 22 17 23 18 24
REMARK H PARENT 7 4 22 16
REMARK Flexibility Score: inf
ROOT
ATOM      1  C   UNL     1      93.977 100.007  71.962  1.00  0.00     0.100 C 
ENDROOT
BRANCH   1   2
ATOM      2  C   UNL     1      95.037  99.071  72.383  1.00  0.00     0.220 C 
ATOM      3  N   UNL     1      94.755  97.753  72.586  1.00  0.00    -0.352 N 
ATOM      4  H   UNL     1      93.787  97.498  72.448  1.00  0.00     0.163 HD
ATOM      5  O   UNL     1      96.200  99.518  72.526  1.00  0.00    -0.275 OA
BRANCH   3   6
ATOM      6  C   UNL     1      95.712  96.763  72.962  1.00  0.00     0.151 C 
BRANCH   6   7
ATOM      7  C   UNL     1      95.439  96.229  74.324  1.00  0.00    -0.025 A 
ATOM      8  C   UNL     1      94.247  94.652  75.793  1.00  0.00     0.160 A 
ATOM      9  C   UNL     1      94.920  95.185  76.912  1.00  0.00     0.157 A 
ATOM     10  C   UNL     1      94.511  95.180  74.512  1.00  0.00     0.056 A 
ATOM     11  C   UNL     1      95.833  96.244  76.743  1.00  0.00     0.050 A 
ATOM     12  C   UNL     1      96.099  96.757  75.459  1.00  0.00     0.009 A 
BRANCH   8  13
ATOM     13  O   UNL     1      93.308  93.666  75.960  1.00  0.00    -0.493 OA
ATOM     14  C   UNL     1      91.956  94.151  76.044  1.00  0.00     0.278 C 
ENDBRANCH   8  13
BRANCH   9  15
ATOM     15  O   UNL     1      94.699  94.691  78.158  1.00  0.00    -0.504 OA
ATOM     16  H   UNL     1      95.322  95.083  78.774  1.00  0.00     0.293 HD
ENDBRANCH   9  15
ENDBRANCH   6   7
ENDBRANCH   3   6
ENDBRANCH   1   2
BRANCH   1  17
ATOM     17  C   UNL     1      92.967  99.331  70.996  1.00  0.00     0.010 C 
BRANCH  17  18
ATOM     18  C   UNL     1      91.556  99.981  71.045  1.00  0.00     0.005 C 
BRANCH  18  19
ATOM     19  C   UNL     1      90.425  98.960  70.746  1.00  0.00     0.027 C 
BRANCH  19  20
ATOM     20  C   UNL     1      89.993  99.013  69.357  1.00  0.00    -0.031 C 
ATOM     21  C   UNL     1      88.839  99.569  68.945  1.00  0.00    -0.028 C 
BRANCH  21  22
ATOM     22  C   UNL     1      88.434  99.629  67.541  1.00  0.00     0.005 C 
ATOM     23  C   UNL     1      88.623 101.046  66.933  1.00  0.00     0.012 C 
ATOM     24  C   UNL     1      89.203  98.565  66.715  1.00  0.00     0.012 C 
ENDBRANCH  21  22
ENDBRANCH  19  20
ENDBRANCH  18  19
ENDBRANCH  17  18
ENDBRANCH   1  17
TORSDOF 10
ENDMDL
