MODEL 1
REMARK VINA RESULT:    -5.844      0.000      0.000
REMARK INTER + INTRA:         -10.777
REMARK INTER:                  -9.773
REMARK INTRA:                  -1.004
REMARK UNBOUND:                -1.004
REMARK SMILES COc1cc(CNC(=O)CCCCCCCC(C)C)ccc1O
REMARK SMILES IDX 11 1 10 2 8 3 9 4 7 5 6 7 5 8 4 9 20 10 3 11 21 12 22 13
REMARK SMILES IDX 2 14 1 15 23 16 12 18 13 19 14 20 15 21 16 22 17 23 18 24
REMARK SMILES IDX 19 25
REMARK H PARENT 7 6 23 17
REMARK Flexibility Score: inf
ROOT
ATOM      1  C   UNL     1      92.169  74.067  81.160  1.00  0.00     0.010 C 
ENDROOT
BRANCH   1   2
ATOM      2  C   UNL     1      91.845  75.557  81.252  1.00  0.00     0.100 C 
BRANCH   2   3
ATOM      3  C   UNL     1      91.186  75.926  82.571  1.00  0.00     0.220 C 
ATOM      4  O   UNL     1      90.232  75.313  83.042  1.00  0.00    -0.275 OA
ATOM      5  N   UNL     1      91.793  77.029  83.152  1.00  0.00    -0.352 N 
ATOM      6  H   UNL     1      92.573  77.479  82.681  1.00  0.00     0.163 HD
BRANCH   5   7
ATOM      7  C   UNL     1      91.355  77.593  84.408  1.00  0.00     0.151 C 
BRANCH   7   8
ATOM      8  C   UNL     1      90.853  78.998  84.248  1.00  0.00    -0.025 A 
ATOM      9  C   UNL     1      89.486  79.245  84.251  1.00  0.00     0.056 A 
ATOM     10  C   UNL     1      91.762  80.039  84.099  1.00  0.00     0.009 A 
ATOM     11  C   UNL     1      89.020  80.552  84.103  1.00  0.00     0.160 A 
ATOM     12  C   UNL     1      91.296  81.346  83.949  1.00  0.00     0.050 A 
ATOM     13  C   UNL     1      89.925  81.602  83.951  1.00  0.00     0.157 A 
BRANCH  11  14
ATOM     14  O   UNL     1      87.679  80.790  84.105  1.00  0.00    -0.493 OA
ATOM     15  C   UNL     1      87.018  80.791  82.841  1.00  0.00     0.278 C 
ENDBRANCH  11  14
BRANCH  13  16
ATOM     16  O   UNL     1      89.483  82.882  83.806  1.00  0.00    -0.504 OA
ATOM     17  H   UNL     1      89.082  82.980  82.925  1.00  0.00     0.293 HD
ENDBRANCH  13  16
ENDBRANCH   7   8
ENDBRANCH   5   7
ENDBRANCH   2   3
ENDBRANCH   1   2
BRANCH   1  18
ATOM     18  C   UNL     1      91.058  73.240  80.506  1.00  0.00     0.001 C 
BRANCH  18  19
ATOM     19  C   UNL     1      90.275  73.943  79.392  1.00  0.00     0.000 C 
BRANCH  19  20
ATOM     20  C   UNL     1      90.718  73.527  77.986  1.00  0.00     0.000 C 
BRANCH  20  21
ATOM     21  C   UNL     1      90.814  74.701  77.005  1.00  0.00     0.000 C 
BRANCH  21  22
ATOM     22  C   UNL     1      91.320  75.994  77.654  1.00  0.00     0.003 C 
BRANCH  22  23
ATOM     23  C   UNL     1      90.854  77.269  76.925  1.00  0.00    -0.017 C 
ATOM     24  C   UNL     1      89.989  76.891  75.722  1.00  0.00     0.007 C 
ATOM     25  C   UNL     1      92.023  78.141  76.464  1.00  0.00     0.007 C 
ENDBRANCH  22  23
ENDBRANCH  21  22
ENDBRANCH  20  21
ENDBRANCH  19  20
ENDBRANCH  18  19
ENDBRANCH   1  18
TORSDOF 12
ENDMDL
MODEL 2
REMARK VINA RESULT:    -5.801     17.123     19.945
REMARK INTER + INTRA:         -10.705
REMARK INTER:                  -9.848
REMARK INTRA:                  -0.857
REMARK UNBOUND:                -1.004
REMARK SMILES COc1cc(CNC(=O)CCCCCCCC(C)C)ccc1O
REMARK SMILES IDX 11 1 10 2 8 3 9 4 7 5 6 7 5 8 4 9 20 10 3 11 21 12 22 13
REMARK SMILES IDX 2 14 1 15 23 16 12 18 13 19 14 20 15 21 16 22 17 23 18 24
REMARK SMILES IDX 19 25
REMARK H PARENT 7 6 23 17
REMARK Flexibility Score: inf
ROOT
ATOM      1  C   UNL     1      95.412  96.429  78.083  1.00  0.00     0.010 C 
ENDROOT
BRANCH   1   2
ATOM      2  C   UNL     1      95.356  94.960  78.498  1.00  0.00     0.100 C 
BRANCH   2   3
ATOM      3  C   UNL     1      95.380  94.784  80.007  1.00  0.00     0.220 C 
ATOM      4  O   UNL     1      94.590  94.066  80.614  1.00  0.00    -0.275 OA
ATOM      5  N   UNL     1      96.388  95.535  80.593  1.00  0.00    -0.352 N 
ATOM      6  H   UNL     1      96.988  96.112  80.009  1.00  0.00     0.163 HD
BRANCH   5   7
ATOM      7  C   UNL     1      96.623  95.555  82.018  1.00  0.00     0.151 C 
BRANCH   7   8
ATOM      8  C   UNL     1      97.960  96.146  82.358  1.00  0.00    -0.025 A 
ATOM      9  C   UNL     1      98.587  96.994  81.453  1.00  0.00     0.056 A 
ATOM     10  C   UNL     1      98.557  95.840  83.575  1.00  0.00     0.009 A 
ATOM     11  C   UNL     1      99.830  97.543  81.769  1.00  0.00     0.160 A 
ATOM     12  C   UNL     1      99.800  96.389  83.891  1.00  0.00     0.050 A 
ATOM     13  C   UNL     1     100.437  97.241  82.988  1.00  0.00     0.157 A 
BRANCH  11  14
ATOM     14  O   UNL     1     100.442  98.374  80.879  1.00  0.00    -0.493 OA
ATOM     15  C   UNL     1      99.614  99.313  80.194  1.00  0.00     0.278 C 
ENDBRANCH  11  14
BRANCH  13  16
ATOM     16  O   UNL     1     101.650  97.771  83.309  1.00  0.00    -0.504 OA
ATOM     17  H   UNL     1     102.237  97.058  83.611  1.00  0.00     0.293 HD
ENDBRANCH  13  16
ENDBRANCH   7   8
ENDBRANCH   5   7
ENDBRANCH   2   3
ENDBRANCH   1   2
BRANCH   1  18
ATOM     18  C   UNL     1      94.041  97.017  77.736  1.00  0.00     0.001 C 
BRANCH  18  19
ATOM     19  C   UNL     1      93.720  97.114  76.240  1.00  0.00     0.000 C 
BRANCH  19  20
ATOM     20  C   UNL     1      93.410  95.758  75.599  1.00  0.00     0.000 C 
BRANCH  20  21
ATOM     21  C   UNL     1      92.450  94.898  76.427  1.00  0.00     0.000 C 
BRANCH  21  22
ATOM     22  C   UNL     1      91.055  95.516  76.574  1.00  0.00     0.003 C 
BRANCH  22  23
ATOM     23  C   UNL     1      89.915  94.563  76.163  1.00  0.00    -0.017 C 
ATOM     24  C   UNL     1      89.696  93.517  77.258  1.00  0.00     0.007 C 
ATOM     25  C   UNL     1      90.187  93.864  74.831  1.00  0.00     0.007 C 
ENDBRANCH  22  23
ENDBRANCH  21  22
ENDBRANCH  20  21
ENDBRANCH  19  20
ENDBRANCH  18  19
ENDBRANCH   1  18
TORSDOF 12
ENDMDL
MODEL 3
REMARK VINA RESULT:    -5.759     16.309     19.246
REMARK INTER + INTRA:         -10.635
REMARK INTER:                 -10.017
REMARK INTRA:                  -0.618
REMARK UNBOUND:                -1.004
REMARK SMILES COc1cc(CNC(=O)CCCCCCCC(C)C)ccc1O
REMARK SMILES IDX 11 1 10 2 8 3 9 4 7 5 6 7 5 8 4 9 20 10 3 11 21 12 22 13
REMARK SMILES IDX 2 14 1 15 23 16 12 18 13 19 14 20 15 21 16 22 17 23 18 24
REMARK SMILES IDX 19 25
REMARK H PARENT 7 6 23 17
REMARK Flexibility Score: inf
ROOT
ATOM      1  C   UNL     1      93.344  96.826  76.769  1.00  0.00     0.010 C 
ENDROOT
BRANCH   1   2
ATOM      2  C   UNL     1      94.018  97.374  78.025  1.00  0.00     0.100 C 
BRANCH   2   3
ATOM      3  C   UNL     1      95.247  96.571  78.418  1.00  0.00     0.220 C 
ATOM      4  O   UNL     1      96.160  96.311  77.640  1.00  0.00    -0.275 OA
ATOM      5  N   UNL     1      95.192  96.175  79.746  1.00  0.00    -0.352 N 
ATOM      6  H   UNL     1      94.388  96.429  80.314  1.00  0.00     0.163 HD
BRANCH   5   7
ATOM      7  C   UNL     1      96.232  95.392  80.373  1.00  0.00     0.151 C 
BRANCH   7   8
ATOM      8  C   UNL     1      97.124  96.233  81.239  1.00  0.00    -0.025 A 
ATOM      9  C   UNL     1      96.663  97.452  81.722  1.00  0.00     0.056 A 
ATOM     10  C   UNL     1      98.402  95.785  81.548  1.00  0.00     0.009 A 
ATOM     11  C   UNL     1      97.492  98.234  82.526  1.00  0.00     0.160 A 
ATOM     12  C   UNL     1      99.232  96.567  82.352  1.00  0.00     0.050 A 
ATOM     13  C   UNL     1      98.777  97.792  82.841  1.00  0.00     0.157 A 
BRANCH  11  14
ATOM     14  O   UNL     1      97.037  99.428  82.997  1.00  0.00    -0.493 OA
ATOM     15  C   UNL     1      95.628  99.650  82.947  1.00  0.00     0.278 C 
ENDBRANCH  11  14
BRANCH  13  16
ATOM     16  O   UNL     1      99.596  98.546  83.626  1.00  0.00    -0.504 OA
ATOM     17  H   UNL     1      99.858  99.344  83.135  1.00  0.00     0.293 HD
ENDBRANCH  13  16
ENDBRANCH   7   8
ENDBRANCH   5   7
ENDBRANCH   2   3
ENDBRANCH   1   2
BRANCH   1  18
ATOM     18  C   UNL     1      92.339  95.707  77.055  1.00  0.00     0.001 C 
BRANCH  18  19
ATOM     19  C   UNL     1      91.611  95.139  75.832  1.00  0.00     0.000 C 
BRANCH  19  20
ATOM     20  C   UNL     1      90.475  94.179  76.196  1.00  0.00     0.000 C 
BRANCH  20  21
ATOM     21  C   UNL     1      90.359  92.983  75.245  1.00  0.00     0.000 C 
BRANCH  21  22
ATOM     22  C   UNL     1      89.812  91.721  75.922  1.00  0.00     0.003 C 
BRANCH  22  23
ATOM     23  C   UNL     1      89.554  90.561  74.941  1.00  0.00    -0.017 C 
ATOM     24  C   UNL     1      89.875  89.228  75.621  1.00  0.00     0.007 C 
ATOM     25  C   UNL     1      90.368  90.690  73.653  1.00  0.00     0.007 C 
ENDBRANCH  22  23
ENDBRANCH  21  22
ENDBRANCH  20  21
ENDBRANCH  19  20
ENDBRANCH  18  19
ENDBRANCH   1  18
TORSDOF 12
ENDMDL
MODEL 4
REMARK VINA RESULT:    -5.718      6.091      8.074
REMARK INTER + INTRA:         -10.567
REMARK INTER:                  -9.709
REMARK INTRA:                  -0.858
REMARK UNBOUND:                -1.004
REMARK SMILES COc1cc(CNC(=O)CCCCCCCC(C)C)ccc1O
REMARK SMILES IDX 11 1 10 2 8 3 9 4 7 5 6 7 5 8 4 9 20 10 3 11 21 12 22 13
REMARK SMILES IDX 2 14 1 15 23 16 12 18 13 19 14 20 15 21 16 22 17 23 18 24
REMARK SMILES IDX 19 25
REMARK H PARENT 7 6 23 17
REMARK Flexibility Score: inf
ROOT
ATOM      1  C   UNL     1      97.844  82.299  80.355  1.00  0.00     0.010 C 
ENDROOT
BRANCH   1   2
ATOM      2  C   UNL     1      97.034  81.455  81.337  1.00  0.00     0.100 C 
BRANCH   2   3
ATOM      3  C   UNL     1      96.947  82.092  82.714  1.00  0.00     0.220 C 
ATOM      4  O   UNL     1      97.825  81.981  83.564  1.00  0.00    -0.275 OA
ATOM      5  N   UNL     1      95.762  82.795  82.876  1.00  0.00    -0.352 N 
ATOM      6  H   UNL     1      95.087  82.823  82.117  1.00  0.00     0.163 HD
BRANCH   5   7
ATOM      7  C   UNL     1      95.425  83.489  84.098  1.00  0.00     0.151 C 
BRANCH   7   8
ATOM      8  C   UNL     1      94.420  82.731  84.915  1.00  0.00    -0.025 A 
ATOM      9  C   UNL     1      93.098  82.668  84.494  1.00  0.00     0.056 A 
ATOM     10  C   UNL     1      94.823  82.100  86.086  1.00  0.00     0.009 A 
ATOM     11  C   UNL     1      92.164  81.963  85.254  1.00  0.00     0.160 A 
ATOM     12  C   UNL     1      93.889  81.396  86.847  1.00  0.00     0.050 A 
ATOM     13  C   UNL     1      92.560  81.327  86.431  1.00  0.00     0.157 A 
BRANCH  11  14
ATOM     14  O   UNL     1      90.868  81.904  84.838  1.00  0.00    -0.493 OA
ATOM     15  C   UNL     1      90.536  80.884  83.897  1.00  0.00     0.278 C 
ENDBRANCH  11  14
BRANCH  13  16
ATOM     16  O   UNL     1      91.658  80.636  87.182  1.00  0.00    -0.504 OA
ATOM     17  H   UNL     1      92.034  79.768  87.409  1.00  0.00     0.293 HD
ENDBRANCH  13  16
ENDBRANCH   7   8
ENDBRANCH   5   7
ENDBRANCH   2   3
ENDBRANCH   1   2
BRANCH   1  18
ATOM     18  C   UNL     1      97.056  83.471  79.762  1.00  0.00     0.001 C 
BRANCH  18  19
ATOM     19  C   UNL     1      96.872  83.446  78.241  1.00  0.00     0.000 C 
BRANCH  19  20
ATOM     20  C   UNL     1      97.293  82.119  77.603  1.00  0.00     0.000 C 
BRANCH  20  21
ATOM     21  C   UNL     1      98.099  82.293  76.311  1.00  0.00     0.000 C 
BRANCH  21  22
ATOM     22  C   UNL     1      98.587  83.728  76.089  1.00  0.00     0.003 C 
BRANCH  22  23
ATOM     23  C   UNL     1      97.969  84.403  74.849  1.00  0.00    -0.017 C 
ATOM     24  C   UNL     1      96.651  85.081  75.233  1.00  0.00     0.007 C 
ATOM     25  C   UNL     1      97.726  83.418  73.706  1.00  0.00     0.007 C 
ENDBRANCH  22  23
ENDBRANCH  21  22
ENDBRANCH  20  21
ENDBRANCH  19  20
ENDBRANCH  18  19
ENDBRANCH   1  18
TORSDOF 12
ENDMDL
MODEL 5
REMARK VINA RESULT:    -5.712     10.714     12.829
REMARK INTER + INTRA:         -10.556
REMARK INTER:                  -9.181
REMARK INTRA:                  -1.375
REMARK UNBOUND:                -1.004
REMARK SMILES COc1cc(CNC(=O)CCCCCCCC(C)C)ccc1O
REMARK SMILES IDX 11 1 10 2 8 3 9 4 7 5 6 7 5 8 4 9 20 10 3 11 21 12 22 13
REMARK SMILES IDX 2 14 1 15 23 16 12 18 13 19 14 20 15 21 16 22 17 23 18 24
REMARK SMILES IDX 19 25
REMARK H PARENT 7 6 23 17
REMARK Flexibility Score: inf
ROOT
ATOM      1  C   UNL     1     102.119  81.218  78.259  1.00  0.00     0.010 C 
ENDROOT
BRANCH   1   2
ATOM      2  C   UNL     1     101.996  80.956  79.759  1.00  0.00     0.100 C 
BRANCH   2   3
ATOM      3  C   UNL     1     100.665  81.427  80.321  1.00  0.00     0.220 C 
ATOM      4  O   UNL     1     100.399  81.416  81.520  1.00  0.00    -0.275 OA
ATOM      5  N   UNL     1      99.809  81.853  79.317  1.00  0.00    -0.352 N 
ATOM      6  H   UNL     1     100.114  81.815  78.348  1.00  0.00     0.163 HD
BRANCH   5   7
ATOM      7  C   UNL     1      98.476  82.343  79.579  1.00  0.00     0.151 C 
BRANCH   7   8
ATOM      8  C   UNL     1      97.886  83.034  78.384  1.00  0.00    -0.025 A 
ATOM      9  C   UNL     1      98.613  83.103  77.202  1.00  0.00     0.056 A 
ATOM     10  C   UNL     1      96.620  83.599  78.473  1.00  0.00     0.009 A 
ATOM     11  C   UNL     1      98.065  83.746  76.092  1.00  0.00     0.160 A 
ATOM     12  C   UNL     1      96.072  84.242  77.362  1.00  0.00     0.050 A 
ATOM     13  C   UNL     1      96.794  84.316  76.172  1.00  0.00     0.157 A 
BRANCH  11  14
ATOM     14  O   UNL     1      98.781  83.812  74.934  1.00  0.00    -0.493 OA
ATOM     15  C   UNL     1      98.707  82.685  74.062  1.00  0.00     0.278 C 
ENDBRANCH  11  14
BRANCH  13  16
ATOM     16  O   UNL     1      96.249  84.945  75.094  1.00  0.00    -0.504 OA
ATOM     17  H   UNL     1      96.691  85.803  74.971  1.00  0.00     0.293 HD
ENDBRANCH  13  16
ENDBRANCH   7   8
ENDBRANCH   5   7
ENDBRANCH   2   3
ENDBRANCH   1   2
BRANCH   1  18
ATOM     18  C   UNL     1     103.567  81.354  77.780  1.00  0.00     0.001 C 
BRANCH  18  19
ATOM     19  C   UNL     1     103.755  82.038  76.421  1.00  0.00     0.000 C 
BRANCH  19  20
ATOM     20  C   UNL     1     102.545  81.888  75.495  1.00  0.00     0.000 C 
BRANCH  20  21
ATOM     21  C   UNL     1     102.311  83.106  74.595  1.00  0.00     0.000 C 
BRANCH  21  22
ATOM     22  C   UNL     1     103.465  84.114  74.627  1.00  0.00     0.003 C 
BRANCH  22  23
ATOM     23  C   UNL     1     103.028  85.557  74.310  1.00  0.00    -0.017 C 
ATOM     24  C   UNL     1     104.069  86.543  74.846  1.00  0.00     0.007 C 
ATOM     25  C   UNL     1     101.654  85.895  74.891  1.00  0.00     0.007 C 
ENDBRANCH  22  23
ENDBRANCH  21  22
ENDBRANCH  20  21
ENDBRANCH  19  20
ENDBRANCH  18  19
ENDBRANCH   1  18
TORSDOF 12
ENDMDL
MODEL 6
REMARK VINA RESULT:    -5.634     17.285     20.190
REMARK INTER + INTRA:         -10.426
REMARK INTER:                  -9.534
REMARK INTRA:                  -0.892
REMARK UNBOUND:                -1.004
REMARK SMILES COc1cc(CNC(=O)CCCCCCCC(C)C)ccc1O
REMARK SMILES IDX 11 1 10 2 8 3 9 4 7 5 6 7 5 8 4 9 20 10 3 11 21 12 22 13
REMARK SMILES IDX 2 14 1 15 23 16 12 18 13 19 14 20 15 21 16 22 17 23 18 24
REMARK SMILES IDX 19 25
REMARK H PARENT 7 6 23 17
REMARK Flexibility Score: inf
ROOT
ATOM      1  C   UNL     1      94.173  95.313  78.345  1.00  0.00     0.010 C 
ENDROOT
BRANCH   1   2
ATOM      2  C   UNL     1      94.790  94.528  79.500  1.00  0.00     0.100 C 
BRANCH   2   3
ATOM      3  C   UNL     1      95.854  95.324  80.238  1.00  0.00     0.220 C 
ATOM      4  O   UNL     1      96.035  95.245  81.450  1.00  0.00    -0.275 OA
ATOM      5  N   UNL     1      96.571  96.139  79.375  1.00  0.00    -0.352 N 
ATOM      6  H   UNL     1      96.341  96.146  78.385  1.00  0.00     0.163 HD
BRANCH   5   7
ATOM      7  C   UNL     1      97.636  97.007  79.821  1.00  0.00     0.151 C 
BRANCH   7   8
ATOM      8  C   UNL     1      97.296  98.457  79.631  1.00  0.00    -0.025 A 
ATOM      9  C   UNL     1      96.735  99.175  80.680  1.00  0.00     0.056 A 
ATOM     10  C   UNL     1      97.544  99.066  78.406  1.00  0.00     0.009 A 
ATOM     11  C   UNL     1      96.419 100.522  80.503  1.00  0.00     0.160 A 
ATOM     12  C   UNL     1      97.227 100.413  78.229  1.00  0.00     0.050 A 
ATOM     13  C   UNL     1      96.664 101.141  79.277  1.00  0.00     0.157 A 
BRANCH  11  14
ATOM     14  O   UNL     1      95.869 101.223  81.534  1.00  0.00    -0.493 OA
ATOM     15  C   UNL     1      95.730 100.541  82.779  1.00  0.00     0.278 C 
ENDBRANCH  11  14
BRANCH  13  16
ATOM     16  O   UNL     1      96.360 102.456  79.092  1.00  0.00    -0.504 OA
ATOM     17  H   UNL     1      96.877 102.798  78.341  1.00  0.00     0.293 HD
ENDBRANCH  13  16
ENDBRANCH   7   8
ENDBRANCH   5   7
ENDBRANCH   2   3
ENDBRANCH   1   2
BRANCH   1  18
ATOM     18  C   UNL     1      92.702  94.971  78.091  1.00  0.00     0.001 C 
BRANCH  18  19
ATOM     19  C   UNL     1      92.220  95.144  76.647  1.00  0.00     0.000 C 
BRANCH  19  20
ATOM     20  C   UNL     1      90.764  95.609  76.548  1.00  0.00     0.000 C 
BRANCH  20  21
ATOM     21  C   UNL     1      89.791  94.488  76.168  1.00  0.00     0.000 C 
BRANCH  21  22
ATOM     22  C   UNL     1      90.241  93.682  74.945  1.00  0.00     0.003 C 
BRANCH  22  23
ATOM     23  C   UNL     1      90.326  92.165  75.207  1.00  0.00    -0.017 C 
ATOM     24  C   UNL     1      89.544  91.409  74.130  1.00  0.00     0.007 C 
ATOM     25  C   UNL     1      89.801  91.778  76.590  1.00  0.00     0.007 C 
ENDBRANCH  22  23
ENDBRANCH  21  22
ENDBRANCH  20  21
ENDBRANCH  19  20
ENDBRANCH  18  19
ENDBRANCH   1  18
TORSDOF 12
ENDMDL
MODEL 7
REMARK VINA RESULT:    -5.576     20.478     23.132
REMARK INTER + INTRA:         -10.328
REMARK INTER:                  -9.428
REMARK INTRA:                  -0.900
REMARK UNBOUND:                -1.004
REMARK SMILES COc1cc(CNC(=O)CCCCCCCC(C)C)ccc1O
REMARK SMILES IDX 11 1 10 2 8 3 9 4 7 5 6 7 5 8 4 9 20 10 3 11 21 12 22 13
REMARK SMILES IDX 2 14 1 15 23 16 12 18 13 19 14 20 15 21 16 22 17 23 18 24
REMARK SMILES IDX 19 25
REMARK H PARENT 7 6 23 17
REMARK Flexibility Score: inf
ROOT
ATOM      1  C   UNL     1      75.392  89.930  69.773  1.00  0.00     0.010 C 
ENDROOT
BRANCH   1   2
ATOM      2  C   UNL     1      74.170  90.362  70.581  1.00  0.00     0.100 C 
BRANCH   2   3
ATOM      3  C   UNL     1      73.997  91.871  70.608  1.00  0.00     0.220 C 
ATOM      4  O   UNL     1      73.681  92.530  69.621  1.00  0.00    -0.275 OA
ATOM      5  N   UNL     1      74.247  92.391  71.869  1.00  0.00    -0.352 N 
ATOM      6  H   UNL     1      74.515  91.767  72.625  1.00  0.00     0.163 HD
BRANCH   5   7
ATOM      7  C   UNL     1      74.161  93.802  72.165  1.00  0.00     0.151 C 
BRANCH   7   8
ATOM      8  C   UNL     1      75.485  94.368  72.592  1.00  0.00    -0.025 A 
ATOM      9  C   UNL     1      75.926  95.569  72.051  1.00  0.00     0.056 A 
ATOM     10  C   UNL     1      76.256  93.684  73.524  1.00  0.00     0.009 A 
ATOM     11  C   UNL     1      77.156  96.095  72.447  1.00  0.00     0.160 A 
ATOM     12  C   UNL     1      77.486  94.209  73.920  1.00  0.00     0.050 A 
ATOM     13  C   UNL     1      77.937  95.414  73.382  1.00  0.00     0.157 A 
BRANCH  11  14
ATOM     14  O   UNL     1      77.585  97.273  71.914  1.00  0.00    -0.493 OA
ATOM     15  C   UNL     1      76.866  98.450  72.279  1.00  0.00     0.278 C 
ENDBRANCH  11  14
BRANCH  13  16
ATOM     16  O   UNL     1      79.139  95.917  73.777  1.00  0.00    -0.504 OA
ATOM     17  H   UNL     1      79.194  96.851  73.511  1.00  0.00     0.293 HD
ENDBRANCH  13  16
ENDBRANCH   7   8
ENDBRANCH   5   7
ENDBRANCH   2   3
ENDBRANCH   1   2
BRANCH   1  18
ATOM     18  C   UNL     1      75.071  89.593  68.315  1.00  0.00     0.001 C 
BRANCH  18  19
ATOM     19  C   UNL     1      76.255  89.652  67.343  1.00  0.00     0.000 C 
BRANCH  19  20
ATOM     20  C   UNL     1      77.420  88.748  67.754  1.00  0.00     0.000 C 
BRANCH  20  21
ATOM     21  C   UNL     1      77.099  87.253  67.648  1.00  0.00     0.000 C 
BRANCH  21  22
ATOM     22  C   UNL     1      77.085  86.538  69.003  1.00  0.00     0.003 C 
BRANCH  22  23
ATOM     23  C   UNL     1      76.045  85.404  69.088  1.00  0.00    -0.017 C 
ATOM     24  C   UNL     1      76.054  84.797  70.494  1.00  0.00     0.007 C 
ATOM     25  C   UNL     1      76.289  84.305  68.053  1.00  0.00     0.007 C 
ENDBRANCH  22  23
ENDBRANCH  21  22
ENDBRANCH  20  21
ENDBRANCH  19  20
ENDBRANCH  18  19
ENDBRANCH   1  18
TORSDOF 12
ENDMDL
MODEL 8
REMARK VINA RESULT:    -5.388     17.124     20.328
REMARK INTER + INTRA:         -10.014
REMARK INTER:                  -9.257
REMARK INTRA:                  -0.757
REMARK UNBOUND:                -1.004
REMARK SMILES COc1cc(CNC(=O)CCCCCCCC(C)C)ccc1O
REMARK SMILES IDX 11 1 10 2 8 3 9 4 7 5 6 7 5 8 4 9 20 10 3 11 21 12 22 13
REMARK SMILES IDX 2 14 1 15 23 16 12 18 13 19 14 20 15 21 16 22 17 23 18 24
REMARK SMILES IDX 19 25
REMARK H PARENT 7 6 23 17
REMARK Flexibility Score: inf
ROOT
ATOM      1  C   UNL     1      95.531  96.297  77.982  1.00  0.00     0.010 C 
ENDROOT
BRANCH   1   2
ATOM      2  C   UNL     1      94.870  97.538  78.579  1.00  0.00     0.100 C 
BRANCH   2   3
ATOM      3  C   UNL     1      95.862  98.425  79.312  1.00  0.00     0.220 C 
ATOM      4  O   UNL     1      96.750  99.056  78.746  1.00  0.00    -0.275 OA
ATOM      5  N   UNL     1      95.636  98.418  80.681  1.00  0.00    -0.352 N 
ATOM      6  H   UNL     1      94.881  97.855  81.062  1.00  0.00     0.163 HD
BRANCH   5   7
ATOM      7  C   UNL     1      96.444  99.173  81.612  1.00  0.00     0.151 C 
BRANCH   7   8
ATOM      8  C   UNL     1      97.391  98.293  82.374  1.00  0.00    -0.025 A 
ATOM      9  C   UNL     1      98.318  98.865  83.238  1.00  0.00     0.056 A 
ATOM     10  C   UNL     1      97.332  96.915  82.209  1.00  0.00     0.009 A 
ATOM     11  C   UNL     1      99.198  98.047  83.946  1.00  0.00     0.160 A 
ATOM     12  C   UNL     1      98.214  96.097  82.917  1.00  0.00     0.050 A 
ATOM     13  C   UNL     1      99.146  96.662  83.785  1.00  0.00     0.157 A 
BRANCH  11  14
ATOM     14  O   UNL     1     100.105  98.612  84.791  1.00  0.00    -0.493 OA
ATOM     15  C   UNL     1      99.588  99.348  85.899  1.00  0.00     0.278 C 
ENDBRANCH  11  14
BRANCH  13  16
ATOM     16  O   UNL     1     100.000  95.853  84.472  1.00  0.00    -0.504 OA
ATOM     17  H   UNL     1     100.149  96.228  85.357  1.00  0.00     0.293 HD
ENDBRANCH  13  16
ENDBRANCH   7   8
ENDBRANCH   5   7
ENDBRANCH   2   3
ENDBRANCH   1   2
BRANCH   1  18
ATOM     18  C   UNL     1      94.587  95.096  77.872  1.00  0.00     0.001 C 
BRANCH  18  19
ATOM     19  C   UNL     1      93.585  95.143  76.714  1.00  0.00     0.000 C 
BRANCH  19  20
ATOM     20  C   UNL     1      92.193  95.622  77.137  1.00  0.00     0.000 C 
BRANCH  20  21
ATOM     21  C   UNL     1      91.256  94.483  77.552  1.00  0.00     0.000 C 
BRANCH  21  22
ATOM     22  C   UNL     1      90.152  94.203  76.527  1.00  0.00     0.003 C 
BRANCH  22  23
ATOM     23  C   UNL     1      90.464  93.014  75.598  1.00  0.00    -0.017 C 
ATOM     24  C   UNL     1      90.045  93.353  74.165  1.00  0.00     0.007 C 
ATOM     25  C   UNL     1      89.772  91.725  76.043  1.00  0.00     0.007 C 
ENDBRANCH  22  23
ENDBRANCH  21  22
ENDBRANCH  20  21
ENDBRANCH  19  20
ENDBRANCH  18  19
ENDBRANCH   1  18
TORSDOF 12
ENDMDL
MODEL 9
REMARK VINA RESULT:    -5.342     18.799     21.044
REMARK INTER + INTRA:          -9.936
REMARK INTER:                  -9.147
REMARK INTRA:                  -0.789
REMARK UNBOUND:                -1.004
REMARK SMILES COc1cc(CNC(=O)CCCCCCCC(C)C)ccc1O
REMARK SMILES IDX 11 1 10 2 8 3 9 4 7 5 6 7 5 8 4 9 20 10 3 11 21 12 22 13
REMARK SMILES IDX 2 14 1 15 23 16 12 18 13 19 14 20 15 21 16 22 17 23 18 24
REMARK SMILES IDX 19 25
REMARK H PARENT 7 6 23 17
REMARK Flexibility Score: inf
ROOT
ATOM      1  C   UNL     1      96.412  97.558  79.850  1.00  0.00     0.010 C 
ENDROOT
BRANCH   1   2
ATOM      2  C   UNL     1      95.520  98.772  80.104  1.00  0.00     0.100 C 
BRANCH   2   3
ATOM      3  C   UNL     1      95.623  99.276  81.535  1.00  0.00     0.220 C 
ATOM      4  O   UNL     1      94.816 100.054  82.034  1.00  0.00    -0.275 OA
ATOM      5  N   UNL     1      96.734  98.753  82.180  1.00  0.00    -0.352 N 
ATOM      6  H   UNL     1      97.354  98.122  81.680  1.00  0.00     0.163 HD
BRANCH   5   7
ATOM      7  C   UNL     1      97.070  99.078  83.547  1.00  0.00     0.151 C 
BRANCH   7   8
ATOM      8  C   UNL     1      98.201  98.236  84.062  1.00  0.00    -0.025 A 
ATOM      9  C   UNL     1      98.816  98.571  85.263  1.00  0.00     0.056 A 
ATOM     10  C   UNL     1      98.623  97.132  83.332  1.00  0.00     0.009 A 
ATOM     11  C   UNL     1      99.867  97.789  85.741  1.00  0.00     0.160 A 
ATOM     12  C   UNL     1      99.676  96.350  83.810  1.00  0.00     0.050 A 
ATOM     13  C   UNL     1     100.298  96.679  85.014  1.00  0.00     0.157 A 
BRANCH  11  14
ATOM     14  O   UNL     1     100.468  98.120  86.919  1.00  0.00    -0.493 OA
ATOM     15  C   UNL     1     101.143  99.376  86.971  1.00  0.00     0.278 C 
ENDBRANCH  11  14
BRANCH  13  16
ATOM     16  O   UNL     1     101.323  95.907  85.471  1.00  0.00    -0.504 OA
ATOM     17  H   UNL     1     102.141  96.160  85.008  1.00  0.00     0.293 HD
ENDBRANCH  13  16
ENDBRANCH   7   8
ENDBRANCH   5   7
ENDBRANCH   2   3
ENDBRANCH   1   2
BRANCH   1  18
ATOM     18  C   UNL     1      95.998  96.745  78.620  1.00  0.00     0.001 C 
BRANCH  18  19
ATOM     19  C   UNL     1      95.743  95.254  78.866  1.00  0.00     0.000 C 
BRANCH  19  20
ATOM     20  C   UNL     1      94.258  94.909  79.007  1.00  0.00     0.000 C 
BRANCH  20  21
ATOM     21  C   UNL     1      93.484  94.995  77.686  1.00  0.00     0.000 C 
BRANCH  21  22
ATOM     22  C   UNL     1      91.963  94.953  77.871  1.00  0.00     0.003 C 
BRANCH  22  23
ATOM     23  C   UNL     1      91.180  95.373  76.612  1.00  0.00    -0.017 C 
ATOM     24  C   UNL     1      89.796  94.719  76.621  1.00  0.00     0.007 C 
ATOM     25  C   UNL     1      91.911  95.009  75.318  1.00  0.00     0.007 C 
ENDBRANCH  22  23
ENDBRANCH  21  22
ENDBRANCH  20  21
ENDBRANCH  19  20
ENDBRANCH  18  19
ENDBRANCH   1  18
TORSDOF 12
ENDMDL
MODEL 10
REMARK VINA RESULT:    -5.332      6.677     10.071
REMARK INTER + INTRA:          -9.921
REMARK INTER:                  -8.875
REMARK INTRA:                  -1.045
REMARK UNBOUND:                -1.004
REMARK SMILES COc1cc(CNC(=O)CCCCCCCC(C)C)ccc1O
REMARK SMILES IDX 11 1 10 2 8 3 9 4 7 5 6 7 5 8 4 9 20 10 3 11 21 12 22 13
REMARK SMILES IDX 2 14 1 15 23 16 12 18 13 19 14 20 15 21 16 22 17 23 18 24
REMARK SMILES IDX 19 25
REMARK H PARENT 7 6 23 17
REMARK Flexibility Score: inf
ROOT
ATOM      1  C   UNL     1      95.445  81.290  83.982  1.00  0.00     0.010 C 
ENDROOT
BRANCH   1   2
ATOM      2  C   UNL     1      96.738  81.988  83.564  1.00  0.00     0.100 C 
BRANCH   2   3
ATOM      3  C   UNL     1      96.492  83.118  82.577  1.00  0.00     0.220 C 
ATOM      4  O   UNL     1      95.995  84.194  82.896  1.00  0.00    -0.275 OA
ATOM      5  N   UNL     1      96.891  82.771  81.295  1.00  0.00    -0.352 N 
ATOM      6  H   UNL     1      97.284  81.849  81.124  1.00  0.00     0.163 HD
BRANCH   5   7
ATOM      7  C   UNL     1      96.761  83.662  80.166  1.00  0.00     0.151 C 
BRANCH   7   8
ATOM      8  C   UNL     1      97.459  83.131  78.948  1.00  0.00    -0.025 A 
ATOM      9  C   UNL     1      98.593  82.341  79.094  1.00  0.00     0.056 A 
ATOM     10  C   UNL     1      96.964  83.435  77.685  1.00  0.00     0.009 A 
ATOM     11  C   UNL     1      99.241  81.848  77.962  1.00  0.00     0.160 A 
ATOM     12  C   UNL     1      97.613  82.942  76.553  1.00  0.00     0.050 A 
ATOM     13  C   UNL     1      98.752  82.149  76.691  1.00  0.00     0.157 A 
BRANCH  11  14
ATOM     14  O   UNL     1     100.353  81.074  78.110  1.00  0.00    -0.493 OA
ATOM     15  C   UNL     1     100.147  79.681  78.336  1.00  0.00     0.278 C 
ENDBRANCH  11  14
BRANCH  13  16
ATOM     16  O   UNL     1      99.376  81.673  75.578  1.00  0.00    -0.504 OA
ATOM     17  H   UNL     1      99.063  80.768  75.403  1.00  0.00     0.293 HD
ENDBRANCH  13  16
ENDBRANCH   7   8
ENDBRANCH   5   7
ENDBRANCH   2   3
ENDBRANCH   1   2
BRANCH   1  18
ATOM     18  C   UNL     1      95.446  79.785  83.702  1.00  0.00     0.001 C 
BRANCH  18  19
ATOM     19  C   UNL     1      94.349  78.978  84.405  1.00  0.00     0.000 C 
BRANCH  19  20
ATOM     20  C   UNL     1      93.847  79.634  85.694  1.00  0.00     0.000 C 
BRANCH  20  21
ATOM     21  C   UNL     1      92.330  79.854  85.716  1.00  0.00     0.000 C 
BRANCH  21  22
ATOM     22  C   UNL     1      91.644  79.477  84.399  1.00  0.00     0.003 C 
BRANCH  22  23
ATOM     23  C   UNL     1      90.897  80.652  83.737  1.00  0.00    -0.017 C 
ATOM     24  C   UNL     1      91.337  81.971  84.378  1.00  0.00     0.007 C 
ATOM     25  C   UNL     1      89.378  80.513  83.838  1.00  0.00     0.007 C 
ENDBRANCH  22  23
ENDBRANCH  21  22
ENDBRANCH  20  21
ENDBRANCH  19  20
ENDBRANCH  18  19
ENDBRANCH   1  18
TORSDOF 12
ENDMDL
