MODEL 1
REMARK VINA RESULT:    -6.521      0.000      0.000
REMARK INTER + INTRA:         -10.660
REMARK INTER:                 -10.143
REMARK INTRA:                  -0.517
REMARK UNBOUND:                -0.517
REMARK SMILES COc1cc(CNC(=O)CCCC/C=C/C(C)C)ccc1O
REMARK SMILES IDX 10 1 8 2 7 3 9 5 6 6 5 7 3 8 21 9 4 10 20 11 19 12 2 13 1 14
REMARK SMILES IDX 22 15 11 17 12 18 13 19 14 20 15 21 16 22 17 23 18 24
REMARK H PARENT 7 4 22 16
REMARK Flexibility Score: inf
ROOT
ATOM      1  C   UNL     1      80.145  65.650  71.832  1.00  0.00     0.100 C 
ENDROOT
BRANCH   1   2
ATOM      2  C   UNL     1      80.874  66.201  72.991  1.00  0.00     0.220 C 
ATOM      3  N   UNL     1      82.135  65.776  73.281  1.00  0.00    -0.352 N 
ATOM      4  H   UNL     1      82.496  65.060  72.665  1.00  0.00     0.163 HD
ATOM      5  O   UNL     1      80.308  67.084  73.681  1.00  0.00    -0.275 OA
BRANCH   3   6
ATOM      6  C   UNL     1      82.935  66.268  74.357  1.00  0.00     0.151 C 
BRANCH   6   7
ATOM      7  C   UNL     1      83.855  67.347  73.905  1.00  0.00    -0.025 A 
ATOM      8  C   UNL     1      85.910  68.665  74.225  1.00  0.00     0.160 A 
ATOM      9  C   UNL     1      85.631  69.388  73.047  1.00  0.00     0.157 A 
ATOM     10  C   UNL     1      85.020  67.654  74.643  1.00  0.00     0.056 A 
ATOM     11  C   UNL     1      84.463  69.107  72.311  1.00  0.00     0.050 A 
ATOM     12  C   UNL     1      83.586  68.088  72.731  1.00  0.00     0.009 A 
BRANCH   8  13
ATOM     13  O   UNL     1      87.012  68.979  74.980  1.00  0.00    -0.493 OA
ATOM     14  C   UNL     1      86.751  69.927  76.031  1.00  0.00     0.278 C 
ENDBRANCH   8  13
BRANCH   9  15
ATOM     15  O   UNL     1      86.474  70.359  72.610  1.00  0.00    -0.504 OA
ATOM     16  H   UNL     1      87.150  69.969  72.051  1.00  0.00     0.293 HD
ENDBRANCH   9  15
ENDBRANCH   6   7
ENDBRANCH   3   6
ENDBRANCH   1   2
BRANCH   1  17
ATOM     17  C   UNL     1      81.111  64.997  70.807  1.00  0.00     0.010 C 
BRANCH  17  18
ATOM     18  C   UNL     1      80.371  64.392  69.580  1.00  0.00     0.005 C 
BRANCH  18  19
ATOM     19  C   UNL     1      78.828  64.486  69.716  1.00  0.00     0.027 C 
BRANCH  19  20
ATOM     20  C   UNL     1      78.149  64.175  68.467  1.00  0.00    -0.031 C 
ATOM     21  C   UNL     1      76.919  64.615  68.145  1.00  0.00    -0.028 C 
BRANCH  21  22
ATOM     22  C   UNL     1      76.263  64.306  66.874  1.00  0.00     0.005 C 
ATOM     23  C   UNL     1      75.353  63.050  66.971  1.00  0.00     0.012 C 
ATOM     24  C   UNL     1      75.459  65.534  66.373  1.00  0.00     0.012 C 
ENDBRANCH  21  22
ENDBRANCH  19  20
ENDBRANCH  18  19
ENDBRANCH  17  18
ENDBRANCH   1  17
TORSDOF 10
ENDMDL
MODEL 2
REMARK VINA RESULT:    -6.464     20.034     23.477
REMARK INTER + INTRA:         -10.570
REMARK INTER:                 -10.211
REMARK INTRA:                  -0.359
REMARK UNBOUND:                -0.517
REMARK SMILES COc1cc(CNC(=O)CCCC/C=C/C(C)C)ccc1O
REMARK SMILES IDX 10 1 8 2 7 3 9 5 6 6 5 7 3 8 21 9 4 10 20 11 19 12 2 13 1 14
REMARK SMILES IDX 22 15 11 17 12 18 13 19 14 20 15 21 16 22 17 23 18 24
REMARK H PARENT 7 4 22 16
REMARK Flexibility Score: inf
ROOT
ATOM      1  C   UNL     1      94.698  80.208  84.877  1.00  0.00     0.100 C 
ENDROOT
BRANCH   1   2
ATOM      2  C   UNL     1      93.677  81.147  85.382  1.00  0.00     0.220 C 
ATOM      3  N   UNL     1      92.600  81.476  84.614  1.00  0.00    -0.352 N 
ATOM      4  H   UNL     1      92.585  81.051  83.697  1.00  0.00     0.163 HD
ATOM      5  O   UNL     1      93.819  81.609  86.539  1.00  0.00    -0.275 OA
BRANCH   3   6
ATOM      6  C   UNL     1      91.544  82.346  85.021  1.00  0.00     0.151 C 
BRANCH   6   7
ATOM      7  C   UNL     1      90.223  81.870  84.529  1.00  0.00    -0.025 A 
ATOM      8  C   UNL     1      87.802  82.222  84.250  1.00  0.00     0.160 A 
ATOM      9  C   UNL     1      87.698  80.985  83.580  1.00  0.00     0.157 A 
ATOM     10  C   UNL     1      89.061  82.651  84.719  1.00  0.00     0.056 A 
ATOM     11  C   UNL     1      88.845  80.186  83.401  1.00  0.00     0.050 A 
ATOM     12  C   UNL     1      90.100  80.628  83.862  1.00  0.00     0.009 A 
BRANCH   8  13
ATOM     13  O   UNL     1      86.678  82.973  84.485  1.00  0.00    -0.493 OA
ATOM     14  C   UNL     1      86.929  84.197  85.201  1.00  0.00     0.278 C 
ENDBRANCH   8  13
BRANCH   9  15
ATOM     15  O   UNL     1      86.504  80.549  83.104  1.00  0.00    -0.504 OA
ATOM     16  H   UNL     1      86.479  79.590  83.129  1.00  0.00     0.293 HD
ENDBRANCH   9  15
ENDBRANCH   6   7
ENDBRANCH   3   6
ENDBRANCH   1   2
BRANCH   1  17
ATOM     17  C   UNL     1      95.891  80.957  84.224  1.00  0.00     0.010 C 
BRANCH  17  18
ATOM     18  C   UNL     1      95.470  82.293  83.550  1.00  0.00     0.005 C 
BRANCH  18  19
ATOM     19  C   UNL     1      96.651  82.979  82.811  1.00  0.00     0.027 C 
BRANCH  19  20
ATOM     20  C   UNL     1      96.822  82.468  81.459  1.00  0.00    -0.031 C 
ATOM     21  C   UNL     1      97.017  83.243  80.377  1.00  0.00    -0.028 C 
BRANCH  21  22
ATOM     22  C   UNL     1      97.207  82.706  79.030  1.00  0.00     0.005 C 
ATOM     23  C   UNL     1      96.578  83.616  77.939  1.00  0.00     0.012 C 
ATOM     24  C   UNL     1      98.715  82.472  78.753  1.00  0.00     0.012 C 
ENDBRANCH  21  22
ENDBRANCH  19  20
ENDBRANCH  18  19
ENDBRANCH  17  18
ENDBRANCH   1  17
TORSDOF 10
ENDMDL
MODEL 3
REMARK VINA RESULT:    -6.267     24.342     25.811
REMARK INTER + INTRA:         -10.265
REMARK INTER:                  -9.640
REMARK INTRA:                  -0.625
REMARK UNBOUND:                -0.517
REMARK SMILES COc1cc(CNC(=O)CCCC/C=C/C(C)C)ccc1O
REMARK SMILES IDX 10 1 8 2 7 3 9 5 6 6 5 7 3 8 21 9 4 10 20 11 19 12 2 13 1 14
REMARK SMILES IDX 22 15 11 17 12 18 13 19 14 20 15 21 16 22 17 23 18 24
REMARK H PARENT 7 4 22 16
REMARK Flexibility Score: inf
ROOT
ATOM      1  C   UNL     1      73.490  90.430  71.418  1.00  0.00     0.100 C 
ENDROOT
BRANCH   1   2
ATOM      2  C   UNL     1      73.339  91.560  72.354  1.00  0.00     0.220 C 
ATOM      3  N   UNL     1      74.206  92.610  72.316  1.00  0.00    -0.352 N 
ATOM      4  H   UNL     1      74.944  92.529  71.629  1.00  0.00     0.163 HD
ATOM      5  O   UNL     1      72.381  91.534  73.165  1.00  0.00    -0.275 OA
BRANCH   3   6
ATOM      6  C   UNL     1      74.128  93.763  73.154  1.00  0.00     0.151 C 
BRANCH   6   7
ATOM      7  C   UNL     1      75.362  93.931  73.970  1.00  0.00    -0.025 A 
ATOM      8  C   UNL     1      76.439  94.233  76.163  1.00  0.00     0.160 A 
ATOM      9  C   UNL     1      77.706  94.231  75.542  1.00  0.00     0.157 A 
ATOM     10  C   UNL     1      75.281  94.086  75.372  1.00  0.00     0.056 A 
ATOM     11  C   UNL     1      77.801  94.097  74.143  1.00  0.00     0.050 A 
ATOM     12  C   UNL     1      76.640  93.938  73.363  1.00  0.00     0.009 A 
BRANCH   8  13
ATOM     13  O   UNL     1      76.337  94.429  77.517  1.00  0.00    -0.493 OA
ATOM     14  C   UNL     1      75.282  95.330  77.902  1.00  0.00     0.278 C 
ENDBRANCH   8  13
BRANCH   9  15
ATOM     15  O   UNL     1      78.841  94.358  76.276  1.00  0.00    -0.504 OA
ATOM     16  H   UNL     1      79.603  94.170  75.723  1.00  0.00     0.293 HD
ENDBRANCH   9  15
ENDBRANCH   6   7
ENDBRANCH   3   6
ENDBRANCH   1   2
BRANCH   1  17
ATOM     17  C   UNL     1      74.727  90.610  70.498  1.00  0.00     0.010 C 
BRANCH  17  18
ATOM     18  C   UNL     1      74.641  89.765  69.195  1.00  0.00     0.005 C 
BRANCH  18  19
ATOM     19  C   UNL     1      76.041  89.358  68.661  1.00  0.00     0.027 C 
BRANCH  19  20
ATOM     20  C   UNL     1      76.352  87.966  68.946  1.00  0.00    -0.031 C 
ATOM     21  C   UNL     1      77.132  87.191  68.170  1.00  0.00    -0.028 C 
BRANCH  21  22
ATOM     22  C   UNL     1      77.448  85.799  68.486  1.00  0.00     0.005 C 
ATOM     23  C   UNL     1      76.489  85.205  69.556  1.00  0.00     0.012 C 
ATOM     24  C   UNL     1      77.436  84.940  67.195  1.00  0.00     0.012 C 
ENDBRANCH  21  22
ENDBRANCH  19  20
ENDBRANCH  18  19
ENDBRANCH  17  18
ENDBRANCH   1  17
TORSDOF 10
ENDMDL
MODEL 4
REMARK VINA RESULT:    -6.168      1.416      2.202
REMARK INTER + INTRA:         -10.110
REMARK INTER:                  -9.476
REMARK INTRA:                  -0.634
REMARK UNBOUND:                -0.517
REMARK SMILES COc1cc(CNC(=O)CCCC/C=C/C(C)C)ccc1O
REMARK SMILES IDX 10 1 8 2 7 3 9 5 6 6 5 7 3 8 21 9 4 10 20 11 19 12 2 13 1 14
REMARK SMILES IDX 22 15 11 17 12 18 13 19 14 20 15 21 16 22 17 23 18 24
REMARK H PARENT 7 4 22 16
REMARK Flexibility Score: inf
ROOT
ATOM      1  C   UNL     1      80.717  66.561  72.660  1.00  0.00     0.100 C 
ENDROOT
BRANCH   1   2
ATOM      2  C   UNL     1      81.947  66.133  73.354  1.00  0.00     0.220 C 
ATOM      3  N   UNL     1      82.597  66.982  74.198  1.00  0.00    -0.352 N 
ATOM      4  H   UNL     1      82.184  67.902  74.278  1.00  0.00     0.163 HD
ATOM      5  O   UNL     1      82.358  64.963  73.161  1.00  0.00    -0.275 OA
BRANCH   3   6
ATOM      6  C   UNL     1      83.773  66.655  74.938  1.00  0.00     0.151 C 
BRANCH   6   7
ATOM      7  C   UNL     1      84.927  67.503  74.535  1.00  0.00    -0.025 A 
ATOM      8  C   UNL     1      85.824  69.413  73.266  1.00  0.00     0.160 A 
ATOM      9  C   UNL     1      87.113  69.144  73.771  1.00  0.00     0.157 A 
ATOM     10  C   UNL     1      84.745  68.590  73.651  1.00  0.00     0.056 A 
ATOM     11  C   UNL     1      87.314  68.051  74.638  1.00  0.00     0.050 A 
ATOM     12  C   UNL     1      86.228  67.243  75.026  1.00  0.00     0.009 A 
BRANCH   8  13
ATOM     13  O   UNL     1      85.636  70.435  72.370  1.00  0.00    -0.493 OA
ATOM     14  C   UNL     1      84.265  70.621  71.972  1.00  0.00     0.278 C 
ENDBRANCH   8  13
BRANCH   9  15
ATOM     15  O   UNL     1      88.171  69.924  73.431  1.00  0.00    -0.504 OA
ATOM     16  H   UNL     1      88.653  69.514  72.709  1.00  0.00     0.293 HD
ENDBRANCH   9  15
ENDBRANCH   6   7
ENDBRANCH   3   6
ENDBRANCH   1   2
BRANCH   1  17
ATOM     17  C   UNL     1      79.971  65.359  72.021  1.00  0.00     0.010 C 
BRANCH  17  18
ATOM     18  C   UNL     1      79.453  65.662  70.587  1.00  0.00     0.005 C 
BRANCH  18  19
ATOM     19  C   UNL     1      79.630  64.455  69.627  1.00  0.00     0.027 C 
BRANCH  19  20
ATOM     20  C   UNL     1      78.537  64.349  68.673  1.00  0.00    -0.031 C 
ATOM     21  C   UNL     1      77.316  64.883  68.860  1.00  0.00    -0.028 C 
BRANCH  21  22
ATOM     22  C   UNL     1      76.237  64.781  67.877  1.00  0.00     0.005 C 
ATOM     23  C   UNL     1      74.867  65.227  68.458  1.00  0.00     0.012 C 
ATOM     24  C   UNL     1      76.591  65.597  66.606  1.00  0.00     0.012 C 
ENDBRANCH  21  22
ENDBRANCH  19  20
ENDBRANCH  18  19
ENDBRANCH  17  18
ENDBRANCH   1  17
TORSDOF 10
ENDMDL
MODEL 5
REMARK VINA RESULT:    -6.163     14.767     17.451
REMARK INTER + INTRA:         -10.103
REMARK INTER:                  -9.346
REMARK INTRA:                  -0.757
REMARK UNBOUND:                -0.517
REMARK SMILES COc1cc(CNC(=O)CCCC/C=C/C(C)C)ccc1O
REMARK SMILES IDX 10 1 8 2 7 3 9 5 6 6 5 7 3 8 21 9 4 10 20 11 19 12 2 13 1 14
REMARK SMILES IDX 22 15 11 17 12 18 13 19 14 20 15 21 16 22 17 23 18 24
REMARK H PARENT 7 4 22 16
REMARK Flexibility Score: inf
ROOT
ATOM      1  C   UNL     1      91.477  75.024  81.280  1.00  0.00     0.100 C 
ENDROOT
BRANCH   1   2
ATOM      2  C   UNL     1      91.417  75.706  82.587  1.00  0.00     0.220 C 
ATOM      3  N   UNL     1      90.217  75.985  83.167  1.00  0.00    -0.352 N 
ATOM      4  H   UNL     1      89.408  75.714  82.626  1.00  0.00     0.163 HD
ATOM      5  O   UNL     1      92.499  75.996  83.153  1.00  0.00    -0.275 OA
BRANCH   3   6
ATOM      6  C   UNL     1      90.052  76.611  84.440  1.00  0.00     0.151 C 
BRANCH   6   7
ATOM      7  C   UNL     1      89.665  78.041  84.300  1.00  0.00    -0.025 A 
ATOM      8  C   UNL     1      90.306  80.403  84.026  1.00  0.00     0.160 A 
ATOM      9  C   UNL     1      88.944  80.772  84.013  1.00  0.00     0.157 A 
ATOM     10  C   UNL     1      90.653  79.044  84.172  1.00  0.00     0.056 A 
ATOM     11  C   UNL     1      87.949  79.786  84.160  1.00  0.00     0.050 A 
ATOM     12  C   UNL     1      88.305  78.429  84.293  1.00  0.00     0.009 A 
BRANCH   8  13
ATOM     13  O   UNL     1      91.280  81.366  83.950  1.00  0.00    -0.493 OA
ATOM     14  C   UNL     1      91.889  81.686  85.215  1.00  0.00     0.278 C 
ENDBRANCH   8  13
BRANCH   9  15
ATOM     15  O   UNL     1      88.576  82.070  83.862  1.00  0.00    -0.504 OA
ATOM     16  H   UNL     1      89.353  82.631  83.909  1.00  0.00     0.293 HD
ENDBRANCH   9  15
ENDBRANCH   6   7
ENDBRANCH   3   6
ENDBRANCH   1   2
BRANCH   1  17
ATOM     17  C   UNL     1      90.751  73.652  81.316  1.00  0.00     0.010 C 
BRANCH  17  18
ATOM     18  C   UNL     1      90.475  73.076  79.898  1.00  0.00     0.005 C 
BRANCH  18  19
ATOM     19  C   UNL     1      89.638  74.045  79.020  1.00  0.00     0.027 C 
BRANCH  19  20
ATOM     20  C   UNL     1      90.387  74.527  77.870  1.00  0.00    -0.031 C 
ATOM     21  C   UNL     1      90.201  75.729  77.295  1.00  0.00    -0.028 C 
BRANCH  21  22
ATOM     22  C   UNL     1      90.980  76.201  76.151  1.00  0.00     0.005 C 
ATOM     23  C   UNL     1      91.513  75.031  75.278  1.00  0.00     0.012 C 
ATOM     24  C   UNL     1      90.139  77.187  75.300  1.00  0.00     0.012 C 
ENDBRANCH  21  22
ENDBRANCH  19  20
ENDBRANCH  18  19
ENDBRANCH  17  18
ENDBRANCH   1  17
TORSDOF 10
ENDMDL
MODEL 6
REMARK VINA RESULT:    -6.130     24.330     25.841
REMARK INTER + INTRA:         -10.051
REMARK INTER:                  -9.448
REMARK INTRA:                  -0.603
REMARK UNBOUND:                -0.517
REMARK SMILES COc1cc(CNC(=O)CCCC/C=C/C(C)C)ccc1O
REMARK SMILES IDX 10 1 8 2 7 3 9 5 6 6 5 7 3 8 21 9 4 10 20 11 19 12 2 13 1 14
REMARK SMILES IDX 22 15 11 17 12 18 13 19 14 20 15 21 16 22 17 23 18 24
REMARK H PARENT 7 4 22 16
REMARK Flexibility Score: inf
ROOT
ATOM      1  C   UNL     1      73.671  90.967  71.213  1.00  0.00     0.100 C 
ENDROOT
BRANCH   1   2
ATOM      2  C   UNL     1      73.774  92.344  71.733  1.00  0.00     0.220 C 
ATOM      3  N   UNL     1      73.764  92.579  73.075  1.00  0.00    -0.352 N 
ATOM      4  H   UNL     1      73.659  91.755  73.652  1.00  0.00     0.163 HD
ATOM      5  O   UNL     1      73.893  93.282  70.908  1.00  0.00    -0.275 OA
BRANCH   3   6
ATOM      6  C   UNL     1      73.890  93.867  73.679  1.00  0.00     0.151 C 
BRANCH   6   7
ATOM      7  C   UNL     1      75.206  94.027  74.356  1.00  0.00    -0.025 A 
ATOM      8  C   UNL     1      77.617  94.512  74.235  1.00  0.00     0.160 A 
ATOM      9  C   UNL     1      77.719  94.355  75.632  1.00  0.00     0.157 A 
ATOM     10  C   UNL     1      76.363  94.344  73.610  1.00  0.00     0.056 A 
ATOM     11  C   UNL     1      76.578  94.019  76.387  1.00  0.00     0.050 A 
ATOM     12  C   UNL     1      75.328  93.866  75.756  1.00  0.00     0.009 A 
BRANCH   8  13
ATOM     13  O   UNL     1      78.737  94.774  73.488  1.00  0.00    -0.493 OA
ATOM     14  C   UNL     1      78.661  95.990  72.721  1.00  0.00     0.278 C 
ENDBRANCH   8  13
BRANCH   9  15
ATOM     15  O   UNL     1      78.909  94.523  76.267  1.00  0.00    -0.504 OA
ATOM     16  H   UNL     1      79.262  95.391  76.061  1.00  0.00     0.293 HD
ENDBRANCH   9  15
ENDBRANCH   6   7
ENDBRANCH   3   6
ENDBRANCH   1   2
BRANCH   1  17
ATOM     17  C   UNL     1      74.935  90.563  70.407  1.00  0.00     0.010 C 
BRANCH  17  18
ATOM     18  C   UNL     1      74.655  89.447  69.362  1.00  0.00     0.005 C 
BRANCH  18  19
ATOM     19  C   UNL     1      75.944  88.986  68.631  1.00  0.00     0.027 C 
BRANCH  19  20
ATOM     20  C   UNL     1      76.228  87.577  68.858  1.00  0.00    -0.031 C 
ATOM     21  C   UNL     1      77.149  86.872  68.176  1.00  0.00    -0.028 C 
BRANCH  21  22
ATOM     22  C   UNL     1      77.432  85.460  68.435  1.00  0.00     0.005 C 
ATOM     23  C   UNL     1      76.423  84.831  69.435  1.00  0.00     0.012 C 
ATOM     24  C   UNL     1      77.459  84.666  67.103  1.00  0.00     0.012 C 
ENDBRANCH  21  22
ENDBRANCH  19  20
ENDBRANCH  18  19
ENDBRANCH  17  18
ENDBRANCH   1  17
TORSDOF 10
ENDMDL
MODEL 7
REMARK VINA RESULT:    -6.108     28.612     33.383
REMARK INTER + INTRA:         -10.017
REMARK INTER:                  -9.211
REMARK INTRA:                  -0.807
REMARK UNBOUND:                -0.517
REMARK SMILES COc1cc(CNC(=O)CCCC/C=C/C(C)C)ccc1O
REMARK SMILES IDX 10 1 8 2 7 3 9 5 6 6 5 7 3 8 21 9 4 10 20 11 19 12 2 13 1 14
REMARK SMILES IDX 22 15 11 17 12 18 13 19 14 20 15 21 16 22 17 23 18 24
REMARK H PARENT 7 4 22 16
REMARK Flexibility Score: inf
ROOT
ATOM      1  C   UNL     1      93.713  98.514  72.217  1.00  0.00     0.100 C 
ENDROOT
BRANCH   1   2
ATOM      2  C   UNL     1      94.296  97.482  73.096  1.00  0.00     0.220 C 
ATOM      3  N   UNL     1      93.645  97.088  74.227  1.00  0.00    -0.352 N 
ATOM      4  H   UNL     1      92.775  97.569  74.407  1.00  0.00     0.163 HD
ATOM      5  O   UNL     1      95.389  96.966  72.760  1.00  0.00    -0.275 OA
BRANCH   3   6
ATOM      6  C   UNL     1      94.107  96.078  75.124  1.00  0.00     0.151 C 
BRANCH   6   7
ATOM      7  C   UNL     1      92.974  95.361  75.771  1.00  0.00    -0.025 A 
ATOM      8  C   UNL     1      90.887  94.069  75.581  1.00  0.00     0.160 A 
ATOM      9  C   UNL     1      90.818  93.974  76.987  1.00  0.00     0.157 A 
ATOM     10  C   UNL     1      91.962  94.762  74.987  1.00  0.00     0.056 A 
ATOM     11  C   UNL     1      91.809  94.582  77.781  1.00  0.00     0.050 A 
ATOM     12  C   UNL     1      92.885  95.263  77.179  1.00  0.00     0.009 A 
BRANCH   8  13
ATOM     13  O   UNL     1      89.890  93.535  74.806  1.00  0.00    -0.493 OA
ATOM     14  C   UNL     1      90.113  92.165  74.424  1.00  0.00     0.278 C 
ENDBRANCH   8  13
BRANCH   9  15
ATOM     15  O   UNL     1      89.803  93.302  77.590  1.00  0.00    -0.504 OA
ATOM     16  H   UNL     1      89.495  93.801  78.350  1.00  0.00     0.293 HD
ENDBRANCH   9  15
ENDBRANCH   6   7
ENDBRANCH   3   6
ENDBRANCH   1   2
BRANCH   1  17
ATOM     17  C   UNL     1      94.770  99.569  71.794  1.00  0.00     0.010 C 
BRANCH  17  18
ATOM     18  C   UNL     1      94.336 101.025  72.124  1.00  0.00     0.005 C 
BRANCH  18  19
ATOM     19  C   UNL     1      93.701 101.147  73.535  1.00  0.00     0.027 C 
BRANCH  19  20
ATOM     20  C   UNL     1      92.324 101.615  73.477  1.00  0.00    -0.031 C 
ATOM     21  C   UNL     1      91.532 101.502  72.395  1.00  0.00    -0.028 C 
BRANCH  21  22
ATOM     22  C   UNL     1      90.144 101.962  72.365  1.00  0.00     0.005 C 
ATOM     23  C   UNL     1      89.250 101.077  71.453  1.00  0.00     0.012 C 
ATOM     24  C   UNL     1      89.571 102.029  73.804  1.00  0.00     0.012 C 
ENDBRANCH  21  22
ENDBRANCH  19  20
ENDBRANCH  18  19
ENDBRANCH  17  18
ENDBRANCH   1  17
TORSDOF 10
ENDMDL
MODEL 8
REMARK VINA RESULT:    -5.928     21.067     22.660
REMARK INTER + INTRA:          -9.737
REMARK INTER:                  -7.873
REMARK INTRA:                  -1.864
REMARK UNBOUND:                -0.517
REMARK SMILES COc1cc(CNC(=O)CCCC/C=C/C(C)C)ccc1O
REMARK SMILES IDX 10 1 8 2 7 3 9 5 6 6 5 7 3 8 21 9 4 10 20 11 19 12 2 13 1 14
REMARK SMILES IDX 22 15 11 17 12 18 13 19 14 20 15 21 16 22 17 23 18 24
REMARK H PARENT 7 4 22 16
REMARK Flexibility Score: inf
ROOT
ATOM      1  C   UNL     1      75.276  84.255  63.339  1.00  0.00     0.100 C 
ENDROOT
BRANCH   1   2
ATOM      2  C   UNL     1      74.721  85.612  63.505  1.00  0.00     0.220 C 
ATOM      3  N   UNL     1      75.519  86.642  63.905  1.00  0.00    -0.352 N 
ATOM      4  H   UNL     1      76.479  86.389  64.092  1.00  0.00     0.163 HD
ATOM      5  O   UNL     1      73.506  85.791  63.246  1.00  0.00    -0.275 OA
BRANCH   3   6
ATOM      6  C   UNL     1      75.087  87.994  64.065  1.00  0.00     0.151 C 
BRANCH   6   7
ATOM      7  C   UNL     1      75.319  88.481  65.452  1.00  0.00    -0.025 A 
ATOM      8  C   UNL     1      74.464  89.522  67.513  1.00  0.00     0.160 A 
ATOM      9  C   UNL     1      75.739  89.398  68.105  1.00  0.00     0.157 A 
ATOM     10  C   UNL     1      74.267  89.065  66.193  1.00  0.00     0.056 A 
ATOM     11  C   UNL     1      76.802  88.836  67.371  1.00  0.00     0.050 A 
ATOM     12  C   UNL     1      76.592  88.372  66.058  1.00  0.00     0.009 A 
BRANCH   8  13
ATOM     13  O   UNL     1      73.443  90.128  68.200  1.00  0.00    -0.493 OA
ATOM     14  C   UNL     1      72.409  90.669  67.357  1.00  0.00     0.278 C 
ENDBRANCH   8  13
BRANCH   9  15
ATOM     15  O   UNL     1      75.959  89.816  69.378  1.00  0.00    -0.504 OA
ATOM     16  H   UNL     1      76.626  89.261  69.787  1.00  0.00     0.293 HD
ENDBRANCH   9  15
ENDBRANCH   6   7
ENDBRANCH   3   6
ENDBRANCH   1   2
BRANCH   1  17
ATOM     17  C   UNL     1      75.324  83.487  64.687  1.00  0.00     0.010 C 
BRANCH  17  18
ATOM     18  C   UNL     1      76.763  83.051  65.083  1.00  0.00     0.005 C 
BRANCH  18  19
ATOM     19  C   UNL     1      77.434  84.050  66.065  1.00  0.00     0.027 C 
BRANCH  19  20
ATOM     20  C   UNL     1      76.527  84.471  67.122  1.00  0.00    -0.031 C 
ATOM     21  C   UNL     1      76.891  85.230  68.172  1.00  0.00    -0.028 C 
BRANCH  21  22
ATOM     22  C   UNL     1      75.957  85.658  69.214  1.00  0.00     0.005 C 
ATOM     23  C   UNL     1      74.540  85.956  68.649  1.00  0.00     0.012 C 
ATOM     24  C   UNL     1      75.890  84.596  70.343  1.00  0.00     0.012 C 
ENDBRANCH  21  22
ENDBRANCH  19  20
ENDBRANCH  18  19
ENDBRANCH  17  18
ENDBRANCH   1  17
TORSDOF 10
ENDMDL
MODEL 9
REMARK VINA RESULT:    -5.717     23.522     25.519
REMARK INTER + INTRA:          -9.410
REMARK INTER:                  -8.590
REMARK INTRA:                  -0.820
REMARK UNBOUND:                -0.517
REMARK SMILES COc1cc(CNC(=O)CCCC/C=C/C(C)C)ccc1O
REMARK SMILES IDX 10 1 8 2 7 3 9 5 6 6 5 7 3 8 21 9 4 10 20 11 19 12 2 13 1 14
REMARK SMILES IDX 22 15 11 17 12 18 13 19 14 20 15 21 16 22 17 23 18 24
REMARK H PARENT 7 4 22 16
REMARK Flexibility Score: inf
ROOT
ATOM      1  C   UNL     1      98.081  83.386  80.029  1.00  0.00     0.100 C 
ENDROOT
BRANCH   1   2
ATOM      2  C   UNL     1      97.540  83.228  78.665  1.00  0.00     0.220 C 
ATOM      3  N   UNL     1      98.252  82.564  77.712  1.00  0.00    -0.352 N 
ATOM      4  H   UNL     1      99.156  82.228  78.011  1.00  0.00     0.163 HD
ATOM      5  O   UNL     1      96.404  83.701  78.421  1.00  0.00    -0.275 OA
BRANCH   3   6
ATOM      6  C   UNL     1      97.805  82.331  76.376  1.00  0.00     0.151 C 
BRANCH   6   7
ATOM      7  C   UNL     1      98.386  83.317  75.425  1.00  0.00    -0.025 A 
ATOM      8  C   UNL     1     100.239  84.796  74.759  1.00  0.00     0.160 A 
ATOM      9  C   UNL     1      99.518  85.184  73.611  1.00  0.00     0.157 A 
ATOM     10  C   UNL     1      99.666  83.869  75.655  1.00  0.00     0.056 A 
ATOM     11  C   UNL     1      98.232  84.657  73.378  1.00  0.00     0.050 A 
ATOM     12  C   UNL     1      97.673  83.723  74.272  1.00  0.00     0.009 A 
BRANCH   8  13
ATOM     13  O   UNL     1     101.463  85.356  75.025  1.00  0.00    -0.493 OA
ATOM     14  C   UNL     1     102.579  84.508  74.698  1.00  0.00     0.278 C 
ENDBRANCH   8  13
BRANCH   9  15
ATOM     15  O   UNL     1     100.046  86.064  72.722  1.00  0.00    -0.504 OA
ATOM     16  H   UNL     1     100.107  86.932  73.127  1.00  0.00     0.293 HD
ENDBRANCH   9  15
ENDBRANCH   6   7
ENDBRANCH   3   6
ENDBRANCH   1   2
BRANCH   1  17
ATOM     17  C   UNL     1      98.294  82.013  80.723  1.00  0.00     0.010 C 
BRANCH  17  18
ATOM     18  C   UNL     1      96.966  81.238  80.949  1.00  0.00     0.005 C 
BRANCH  18  19
ATOM     19  C   UNL     1      96.822  80.728  82.409  1.00  0.00     0.027 C 
BRANCH  19  20
ATOM     20  C   UNL     1      96.865  81.815  83.375  1.00  0.00    -0.031 C 
ATOM     21  C   UNL     1      96.179  82.966  83.249  1.00  0.00    -0.028 C 
BRANCH  21  22
ATOM     22  C   UNL     1      96.222  84.038  84.243  1.00  0.00     0.005 C 
ATOM     23  C   UNL     1      95.917  85.430  83.623  1.00  0.00     0.012 C 
ATOM     24  C   UNL     1      95.249  83.728  85.410  1.00  0.00     0.012 C 
ENDBRANCH  21  22
ENDBRANCH  19  20
ENDBRANCH  18  19
ENDBRANCH  17  18
ENDBRANCH   1  17
TORSDOF 10
ENDMDL
MODEL 10
REMARK VINA RESULT:    -5.681     31.044     33.844
REMARK INTER + INTRA:          -9.353
REMARK INTER:                  -8.524
REMARK INTRA:                  -0.829
REMARK UNBOUND:                -0.517
REMARK SMILES COc1cc(CNC(=O)CCCC/C=C/C(C)C)ccc1O
REMARK SMILES IDX 10 1 8 2 7 3 9 5 6 6 5 7 3 8 21 9 4 10 20 11 19 12 2 13 1 14
REMARK SMILES IDX 22 15 11 17 12 18 13 19 14 20 15 21 16 22 17 23 18 24
REMARK H PARENT 7 4 22 16
REMARK Flexibility Score: inf
ROOT
ATOM      1  C   UNL     1      93.699 100.355  73.095  1.00  0.00     0.100 C 
ENDROOT
BRANCH   1   2
ATOM      2  C   UNL     1      94.456  99.510  74.038  1.00  0.00     0.220 C 
ATOM      3  N   UNL     1      94.442  98.153  73.915  1.00  0.00    -0.352 N 
ATOM      4  H   UNL     1      93.868  97.799  73.163  1.00  0.00     0.163 HD
ATOM      5  O   UNL     1      95.126 100.077  74.935  1.00  0.00    -0.275 OA
BRANCH   3   6
ATOM      6  C   UNL     1      95.164  97.251  74.754  1.00  0.00     0.151 C 
BRANCH   6   7
ATOM      7  C   UNL     1      94.246  96.418  75.579  1.00  0.00    -0.025 A 
ATOM      8  C   UNL     1      93.630  95.449  77.756  1.00  0.00     0.160 A 
ATOM      9  C   UNL     1      92.496  94.850  77.170  1.00  0.00     0.157 A 
ATOM     10  C   UNL     1      94.495  96.225  76.956  1.00  0.00     0.056 A 
ATOM     11  C   UNL     1      92.246  95.018  75.794  1.00  0.00     0.050 A 
ATOM     12  C   UNL     1      93.109  95.804  75.005  1.00  0.00     0.009 A 
BRANCH   8  13
ATOM     13  O   UNL     1      93.913  95.234  79.081  1.00  0.00    -0.493 OA
ATOM     14  C   UNL     1      95.175  94.580  79.313  1.00  0.00     0.278 C 
ENDBRANCH   8  13
BRANCH   9  15
ATOM     15  O   UNL     1      91.636  94.109  77.915  1.00  0.00    -0.504 OA
ATOM     16  H   UNL     1      91.631  93.204  77.593  1.00  0.00     0.293 HD
ENDBRANCH   9  15
ENDBRANCH   6   7
ENDBRANCH   3   6
ENDBRANCH   1   2
BRANCH   1  17
ATOM     17  C   UNL     1      93.114  99.523  71.923  1.00  0.00     0.010 C 
BRANCH  17  18
ATOM     18  C   UNL     1      93.644  99.977  70.534  1.00  0.00     0.005 C 
BRANCH  18  19
ATOM     19  C   UNL     1      92.508 100.118  69.485  1.00  0.00     0.027 C 
BRANCH  19  20
ATOM     20  C   UNL     1      91.201 100.250  70.109  1.00  0.00    -0.031 C 
ATOM     21  C   UNL     1      90.124 100.785  69.504  1.00  0.00    -0.028 C 
BRANCH  21  22
ATOM     22  C   UNL     1      88.813 100.889  70.144  1.00  0.00     0.005 C 
ATOM     23  C   UNL     1      88.923 101.171  71.668  1.00  0.00     0.012 C 
ATOM     24  C   UNL     1      87.958 101.975  69.441  1.00  0.00     0.012 C 
ENDBRANCH  21  22
ENDBRANCH  19  20
ENDBRANCH  18  19
ENDBRANCH  17  18
ENDBRANCH   1  17
TORSDOF 10
ENDMDL
