MODEL 1
REMARK VINA RESULT:    -8.149      0.000      0.000
REMARK INTER + INTRA:          -9.949
REMARK INTER:                  -9.578
REMARK INTRA:                  -0.370
REMARK UNBOUND:                -0.370
REMARK SMILES O=C(/C=C/C=C/c1ccc2c(c1)OCO2)N1CCCCC1
REMARK SMILES IDX 3 1 4 2 2 3 1 4 16 5 17 6 21 7 18 8 20 9 19 10 5 11 6 12
REMARK SMILES IDX 7 13 12 14 8 15 11 16 9 17 13 18 10 19 14 20 15 21
REMARK H PARENT
REMARK Flexibility Score: inf
ROOT
ATOM      1  C   UNL     1      90.896  91.591  75.965  1.00  0.00     0.071 C 
ATOM      2  C   UNL     1      90.867  92.526  76.913  1.00  0.00     0.006 C 
ENDROOT
BRANCH   1   3
ATOM      3  C   UNL     1      89.609  91.059  75.475  1.00  0.00     0.246 C 
ATOM      4  O   UNL     1      88.652  91.081  76.250  1.00  0.00    -0.270 OA
ATOM      5  N   UNL     1      89.564  90.565  74.172  1.00  0.00    -0.339 N 
ATOM      6  C   UNL     1      88.301  90.026  73.659  1.00  0.00     0.120 C 
ATOM      7  C   UNL     1      90.694  90.482  73.235  1.00  0.00     0.120 C 
ATOM      8  C   UNL     1      87.916  90.674  72.334  1.00  0.00     0.022 C 
ATOM      9  C   UNL     1      90.345  91.119  71.890  1.00  0.00     0.022 C 
ATOM     10  C   UNL     1      89.048  90.555  71.318  1.00  0.00     0.004 C 
ENDBRANCH   1   3
BRANCH   2  11
ATOM     11  C   UNL     1      92.076  93.107  77.457  1.00  0.00     0.001 C 
ATOM     12  C   UNL     1      92.991  93.727  76.695  1.00  0.00     0.008 C 
BRANCH  12  13
ATOM     13  C   UNL     1      94.240  94.327  77.194  1.00  0.00    -0.022 A 
ATOM     14  C   UNL     1      94.452  94.405  78.564  1.00  0.00     0.058 A 
ATOM     15  C   UNL     1      95.178  94.804  76.274  1.00  0.00     0.012 A 
ATOM     16  C   UNL     1      95.636  94.975  78.983  1.00  0.00     0.166 A 
ATOM     17  C   UNL     1      96.369  95.376  76.727  1.00  0.00     0.051 A 
ATOM     18  O   UNL     1      96.027  95.143  80.276  1.00  0.00    -0.454 OA
ATOM     19  C   UNL     1      96.569  95.448  78.089  1.00  0.00     0.165 A 
ATOM     20  C   UNL     1      97.311  95.774  80.095  1.00  0.00     0.468 C 
ATOM     21  O   UNL     1      97.662  95.971  78.710  1.00  0.00    -0.454 OA
ENDBRANCH  12  13
ENDBRANCH   2  11
TORSDOF 3
ENDMDL
MODEL 2
REMARK VINA RESULT:    -7.091      1.449      2.034
REMARK INTER + INTRA:          -8.705
REMARK INTER:                  -8.335
REMARK INTRA:                  -0.370
REMARK UNBOUND:                -0.370
REMARK SMILES O=C(/C=C/C=C/c1ccc2c(c1)OCO2)N1CCCCC1
REMARK SMILES IDX 3 1 4 2 2 3 1 4 16 5 17 6 21 7 18 8 20 9 19 10 5 11 6 12
REMARK SMILES IDX 7 13 12 14 8 15 11 16 9 17 13 18 10 19 14 20 15 21
REMARK H PARENT
REMARK Flexibility Score: inf
ROOT
ATOM      1  C   UNL     1      91.279  93.441  76.396  1.00  0.00     0.071 C 
ATOM      2  C   UNL     1      92.185  93.212  77.345  1.00  0.00     0.006 C 
ENDROOT
BRANCH   1   3
ATOM      3  C   UNL     1      90.043  92.634  76.407  1.00  0.00     0.246 C 
ATOM      4  O   UNL     1      89.142  92.984  77.171  1.00  0.00    -0.270 OA
ATOM      5  N   UNL     1      89.980  91.529  75.559  1.00  0.00    -0.339 N 
ATOM      6  C   UNL     1      88.767  90.706  75.553  1.00  0.00     0.120 C 
ATOM      7  C   UNL     1      91.050  91.055  74.669  1.00  0.00     0.120 C 
ATOM      8  C   UNL     1      88.219  90.533  74.140  1.00  0.00     0.022 C 
ATOM      9  C   UNL     1      90.538  90.865  73.241  1.00  0.00     0.022 C 
ATOM     10  C   UNL     1      89.290  89.987  73.201  1.00  0.00     0.004 C 
ENDBRANCH   1   3
BRANCH   2  11
ATOM     11  C   UNL     1      93.428  93.951  77.416  1.00  0.00     0.001 C 
ATOM     12  C   UNL     1      94.146  94.273  76.328  1.00  0.00     0.008 C 
BRANCH  12  13
ATOM     13  C   UNL     1      95.418  95.015  76.344  1.00  0.00    -0.022 A 
ATOM     14  C   UNL     1      96.093  95.172  77.547  1.00  0.00     0.058 A 
ATOM     15  C   UNL     1      95.910  95.541  75.147  1.00  0.00     0.012 A 
ATOM     16  C   UNL     1      97.280  95.874  77.511  1.00  0.00     0.166 A 
ATOM     17  C   UNL     1      97.115  96.247  75.140  1.00  0.00     0.051 A 
ATOM     18  O   UNL     1      98.085  96.135  78.578  1.00  0.00    -0.454 OA
ATOM     19  C   UNL     1      97.778  96.397  76.340  1.00  0.00     0.165 A 
ATOM     20  C   UNL     1      99.145  96.882  77.946  1.00  0.00     0.468 C 
ATOM     21  O   UNL     1      98.956  97.052  76.526  1.00  0.00    -0.454 OA
ENDBRANCH  12  13
ENDBRANCH   2  11
TORSDOF 3
ENDMDL
MODEL 3
REMARK VINA RESULT:    -6.796      6.637      7.644
REMARK INTER + INTRA:          -8.358
REMARK INTER:                  -7.971
REMARK INTRA:                  -0.387
REMARK UNBOUND:                -0.370
REMARK SMILES O=C(/C=C/C=C/c1ccc2c(c1)OCO2)N1CCCCC1
REMARK SMILES IDX 3 1 4 2 2 3 1 4 16 5 17 6 21 7 18 8 20 9 19 10 5 11 6 12
REMARK SMILES IDX 7 13 12 14 8 15 11 16 9 17 13 18 10 19 14 20 15 21
REMARK H PARENT
REMARK Flexibility Score: inf
ROOT
ATOM      1  C   UNL     1      93.048  98.995  70.239  1.00  0.00     0.071 C 
ATOM      2  C   UNL     1      92.817  99.520  71.441  1.00  0.00     0.006 C 
ENDROOT
BRANCH   1   3
ATOM      3  C   UNL     1      92.455  99.664  69.064  1.00  0.00     0.246 C 
ATOM      4  O   UNL     1      93.031 100.660  68.625  1.00  0.00    -0.270 OA
ATOM      5  N   UNL     1      91.282  99.128  68.534  1.00  0.00    -0.339 N 
ATOM      6  C   UNL     1      90.667  99.773  67.370  1.00  0.00     0.120 C 
ATOM      7  C   UNL     1      90.542  97.969  69.057  1.00  0.00     0.120 C 
ATOM      8  C   UNL     1      90.418  98.774  66.246  1.00  0.00     0.022 C 
ATOM      9  C   UNL     1      90.270  96.944  67.957  1.00  0.00     0.022 C 
ATOM     10  C   UNL     1      89.603  97.584  66.742  1.00  0.00     0.004 C 
ENDBRANCH   1   3
BRANCH   2  11
ATOM     11  C   UNL     1      93.354  98.936  72.652  1.00  0.00     0.001 C 
ATOM     12  C   UNL     1      94.055  97.791  72.657  1.00  0.00     0.008 C 
BRANCH  12  13
ATOM     13  C   UNL     1      94.617  97.150  73.858  1.00  0.00    -0.022 A 
ATOM     14  C   UNL     1      93.976  96.041  74.394  1.00  0.00     0.058 A 
ATOM     15  C   UNL     1      95.780  97.676  74.426  1.00  0.00     0.012 A 
ATOM     16  C   UNL     1      94.540  95.475  75.519  1.00  0.00     0.166 A 
ATOM     17  C   UNL     1      96.329  97.083  75.565  1.00  0.00     0.051 A 
ATOM     18  O   UNL     1      94.065  94.390  76.190  1.00  0.00    -0.454 OA
ATOM     19  C   UNL     1      95.685  95.982  76.089  1.00  0.00     0.165 A 
ATOM     20  C   UNL     1      95.040  94.271  77.246  1.00  0.00     0.468 C 
ATOM     21  O   UNL     1      96.071  95.278  77.188  1.00  0.00    -0.454 OA
ENDBRANCH  12  13
ENDBRANCH   2  11
TORSDOF 3
ENDMDL
MODEL 4
REMARK VINA RESULT:    -6.689     12.723     14.334
REMARK INTER + INTRA:          -8.232
REMARK INTER:                  -7.862
REMARK INTRA:                  -0.370
REMARK UNBOUND:                -0.370
REMARK SMILES O=C(/C=C/C=C/c1ccc2c(c1)OCO2)N1CCCCC1
REMARK SMILES IDX 3 1 4 2 2 3 1 4 16 5 17 6 21 7 18 8 20 9 19 10 5 11 6 12
REMARK SMILES IDX 7 13 12 14 8 15 11 16 9 17 13 18 10 19 14 20 15 21
REMARK H PARENT
REMARK Flexibility Score: inf
ROOT
ATOM      1  C   UNL     1      96.152  82.740  83.677  1.00  0.00     0.071 C 
ATOM      2  C   UNL     1      96.990  83.457  82.930  1.00  0.00     0.006 C 
ENDROOT
BRANCH   1   3
ATOM      3  C   UNL     1      95.749  83.286  84.988  1.00  0.00     0.246 C 
ATOM      4  O   UNL     1      96.391  84.240  85.429  1.00  0.00    -0.270 OA
ATOM      5  N   UNL     1      94.675  82.683  85.641  1.00  0.00    -0.339 N 
ATOM      6  C   UNL     1      94.255  83.200  86.947  1.00  0.00     0.120 C 
ATOM      7  C   UNL     1      93.915  81.517  85.168  1.00  0.00     0.120 C 
ATOM      8  C   UNL     1      92.764  83.518  86.967  1.00  0.00     0.022 C 
ATOM      9  C   UNL     1      92.412  81.795  85.178  1.00  0.00     0.022 C 
ATOM     10  C   UNL     1      91.942  82.308  86.536  1.00  0.00     0.004 C 
ENDBRANCH   1   3
BRANCH   2  11
ATOM     11  C   UNL     1      97.442  83.005  81.632  1.00  0.00     0.001 C 
ATOM     12  C   UNL     1      96.600  82.570  80.680  1.00  0.00     0.008 C 
BRANCH  12  13
ATOM     13  C   UNL     1      97.007  82.092  79.348  1.00  0.00    -0.022 A 
ATOM     14  C   UNL     1      96.614  82.807  78.225  1.00  0.00     0.058 A 
ATOM     15  C   UNL     1      97.777  80.931  79.250  1.00  0.00     0.012 A 
ATOM     16  C   UNL     1      97.019  82.321  76.999  1.00  0.00     0.166 A 
ATOM     17  C   UNL     1      98.173  80.460  77.996  1.00  0.00     0.051 A 
ATOM     18  O   UNL     1      96.737  82.875  75.788  1.00  0.00    -0.454 OA
ATOM     19  C   UNL     1      97.778  81.178  76.887  1.00  0.00     0.165 A 
ATOM     20  C   UNL     1      97.404  81.953  74.902  1.00  0.00     0.468 C 
ATOM     21  O   UNL     1      98.067  80.874  75.593  1.00  0.00    -0.454 OA
ENDBRANCH  12  13
ENDBRANCH   2  11
TORSDOF 3
ENDMDL
MODEL 5
REMARK VINA RESULT:    -6.680     14.741     15.754
REMARK INTER + INTRA:          -8.222
REMARK INTER:                  -7.822
REMARK INTRA:                  -0.400
REMARK UNBOUND:                -0.370
REMARK SMILES O=C(/C=C/C=C/c1ccc2c(c1)OCO2)N1CCCCC1
REMARK SMILES IDX 3 1 4 2 2 3 1 4 16 5 17 6 21 7 18 8 20 9 19 10 5 11 6 12
REMARK SMILES IDX 7 13 12 14 8 15 11 16 9 17 13 18 10 19 14 20 15 21
REMARK H PARENT
REMARK Flexibility Score: inf
ROOT
ATOM      1  C   UNL     1      81.975  89.939  87.236  1.00  0.00     0.071 C 
ATOM      2  C   UNL     1      83.140  90.472  87.599  1.00  0.00     0.006 C 
ENDROOT
BRANCH   1   3
ATOM      3  C   UNL     1      81.868  88.467  87.189  1.00  0.00     0.246 C 
ATOM      4  O   UNL     1      81.865  87.863  88.262  1.00  0.00    -0.270 OA
ATOM      5  N   UNL     1      81.784  87.862  85.936  1.00  0.00    -0.339 N 
ATOM      6  C   UNL     1      81.682  86.402  85.857  1.00  0.00     0.120 C 
ATOM      7  C   UNL     1      81.829  88.546  84.635  1.00  0.00     0.120 C 
ATOM      8  C   UNL     1      80.490  85.971  85.010  1.00  0.00     0.022 C 
ATOM      9  C   UNL     1      80.650  88.137  83.753  1.00  0.00     0.022 C 
ATOM     10  C   UNL     1      80.538  86.620  83.630  1.00  0.00     0.004 C 
ENDBRANCH   1   3
BRANCH   2  11
ATOM     11  C   UNL     1      83.342  91.903  87.674  1.00  0.00     0.001 C 
ATOM     12  C   UNL     1      82.493  92.724  88.314  1.00  0.00     0.008 C 
BRANCH  12  13
ATOM     13  C   UNL     1      82.645  94.185  88.414  1.00  0.00    -0.022 A 
ATOM     14  C   UNL     1      81.852  94.887  89.312  1.00  0.00     0.058 A 
ATOM     15  C   UNL     1      83.585  94.826  87.603  1.00  0.00     0.012 A 
ATOM     16  C   UNL     1      82.032  96.254  89.370  1.00  0.00     0.166 A 
ATOM     17  C   UNL     1      83.746  96.211  87.682  1.00  0.00     0.051 A 
ATOM     18  O   UNL     1      81.355  97.114  90.179  1.00  0.00    -0.454 OA
ATOM     19  C   UNL     1      82.953  96.898  88.577  1.00  0.00     0.165 A 
ATOM     20  C   UNL     1      81.954  98.372  89.807  1.00  0.00     0.468 C 
ATOM     21  O   UNL     1      82.969  98.242  88.790  1.00  0.00    -0.454 OA
ENDBRANCH  12  13
ENDBRANCH   2  11
TORSDOF 3
ENDMDL
MODEL 6
REMARK VINA RESULT:    -6.669     12.380     13.130
REMARK INTER + INTRA:          -8.209
REMARK INTER:                  -7.854
REMARK INTRA:                  -0.355
REMARK UNBOUND:                -0.370
REMARK SMILES O=C(/C=C/C=C/c1ccc2c(c1)OCO2)N1CCCCC1
REMARK SMILES IDX 3 1 4 2 2 3 1 4 16 5 17 6 21 7 18 8 20 9 19 10 5 11 6 12
REMARK SMILES IDX 7 13 12 14 8 15 11 16 9 17 13 18 10 19 14 20 15 21
REMARK H PARENT
REMARK Flexibility Score: inf
ROOT
ATOM      1  C   UNL     1      98.851  82.295  79.887  1.00  0.00     0.071 C 
ATOM      2  C   UNL     1      97.667  81.998  80.421  1.00  0.00     0.006 C 
ENDROOT
BRANCH   1   3
ATOM      3  C   UNL     1      99.307  81.505  78.726  1.00  0.00     0.246 C 
ATOM      4  O   UNL     1      99.951  80.480  78.953  1.00  0.00    -0.270 OA
ATOM      5  N   UNL     1      98.983  81.975  77.454  1.00  0.00    -0.339 N 
ATOM      6  C   UNL     1      99.427  81.215  76.281  1.00  0.00     0.120 C 
ATOM      7  C   UNL     1      98.257  83.215  77.144  1.00  0.00     0.120 C 
ATOM      8  C   UNL     1      98.265  80.906  75.344  1.00  0.00     0.022 C 
ATOM      9  C   UNL     1      97.083  82.947  76.202  1.00  0.00     0.022 C 
ATOM     10  C   UNL     1      97.522  82.181  74.957  1.00  0.00     0.004 C 
ENDBRANCH   1   3
BRANCH   2  11
ATOM     11  C   UNL     1      97.135  82.715  81.561  1.00  0.00     0.001 C 
ATOM     12  C   UNL     1      97.711  82.682  82.773  1.00  0.00     0.008 C 
BRANCH  12  13
ATOM     13  C   UNL     1      97.209  83.384  83.966  1.00  0.00    -0.022 A 
ATOM     14  C   UNL     1      96.305  84.426  83.806  1.00  0.00     0.058 A 
ATOM     15  C   UNL     1      97.656  82.982  85.227  1.00  0.00     0.012 A 
ATOM     16  C   UNL     1      95.863  85.053  84.953  1.00  0.00     0.166 A 
ATOM     17  C   UNL     1      97.192  83.635  86.372  1.00  0.00     0.051 A 
ATOM     18  O   UNL     1      94.983  86.090  85.006  1.00  0.00    -0.454 OA
ATOM     19  C   UNL     1      96.294  84.668  86.202  1.00  0.00     0.165 A 
ATOM     20  C   UNL     1      94.908  86.314  86.429  1.00  0.00     0.468 C 
ATOM     21  O   UNL     1      95.738  85.416  87.194  1.00  0.00    -0.454 OA
ENDBRANCH  12  13
ENDBRANCH   2  11
TORSDOF 3
ENDMDL
MODEL 7
REMARK VINA RESULT:    -6.596     31.852     32.875
REMARK INTER + INTRA:          -8.123
REMARK INTER:                  -7.711
REMARK INTRA:                  -0.412
REMARK UNBOUND:                -0.370
REMARK SMILES O=C(/C=C/C=C/c1ccc2c(c1)OCO2)N1CCCCC1
REMARK SMILES IDX 3 1 4 2 2 3 1 4 16 5 17 6 21 7 18 8 20 9 19 10 5 11 6 12
REMARK SMILES IDX 7 13 12 14 8 15 11 16 9 17 13 18 10 19 14 20 15 21
REMARK H PARENT
REMARK Flexibility Score: inf
ROOT
ATOM      1  C   UNL     1      61.711  83.644  67.421  1.00  0.00     0.071 C 
ATOM      2  C   UNL     1      62.299  82.476  67.670  1.00  0.00     0.006 C 
ENDROOT
BRANCH   1   3
ATOM      3  C   UNL     1      61.372  83.967  66.021  1.00  0.00     0.246 C 
ATOM      4  O   UNL     1      60.672  83.161  65.405  1.00  0.00    -0.270 OA
ATOM      5  N   UNL     1      61.869  85.155  65.489  1.00  0.00    -0.339 N 
ATOM      6  C   UNL     1      61.553  85.500  64.099  1.00  0.00     0.120 C 
ATOM      7  C   UNL     1      62.742  86.117  66.178  1.00  0.00     0.120 C 
ATOM      8  C   UNL     1      60.957  86.900  63.994  1.00  0.00     0.022 C 
ATOM      9  C   UNL     1      62.179  87.536  66.091  1.00  0.00     0.022 C 
ATOM     10  C   UNL     1      61.868  87.932  64.651  1.00  0.00     0.004 C 
ENDBRANCH   1   3
BRANCH   2  11
ATOM     11  C   UNL     1      62.670  82.071  69.009  1.00  0.00     0.001 C 
ATOM     12  C   UNL     1      62.178  82.663  70.109  1.00  0.00     0.008 C 
BRANCH  12  13
ATOM     13  C   UNL     1      62.527  82.297  71.493  1.00  0.00    -0.022 A 
ATOM     14  C   UNL     1      61.999  83.038  72.541  1.00  0.00     0.058 A 
ATOM     15  C   UNL     1      63.381  81.213  71.712  1.00  0.00     0.012 A 
ATOM     16  C   UNL     1      62.354  82.656  73.819  1.00  0.00     0.166 A 
ATOM     17  C   UNL     1      63.724  80.849  73.016  1.00  0.00     0.051 A 
ATOM     18  O   UNL     1      61.946  83.253  74.972  1.00  0.00    -0.454 OA
ATOM     19  C   UNL     1      63.194  81.591  74.050  1.00  0.00     0.165 A 
ATOM     20  C   UNL     1      62.622  82.442  75.955  1.00  0.00     0.468 C 
ATOM     21  O   UNL     1      63.416  81.386  75.377  1.00  0.00    -0.454 OA
ENDBRANCH  12  13
ENDBRANCH   2  11
TORSDOF 3
ENDMDL
MODEL 8
REMARK VINA RESULT:    -6.556      3.058      4.053
REMARK INTER + INTRA:          -8.076
REMARK INTER:                  -7.773
REMARK INTRA:                  -0.304
REMARK UNBOUND:                -0.370
REMARK SMILES O=C(/C=C/C=C/c1ccc2c(c1)OCO2)N1CCCCC1
REMARK SMILES IDX 3 1 4 2 2 3 1 4 16 5 17 6 21 7 18 8 20 9 19 10 5 11 6 12
REMARK SMILES IDX 7 13 12 14 8 15 11 16 9 17 13 18 10 19 14 20 15 21
REMARK H PARENT
REMARK Flexibility Score: inf
ROOT
ATOM      1  C   UNL     1      91.615  93.311  76.335  1.00  0.00     0.071 C 
ATOM      2  C   UNL     1      92.893  93.527  76.644  1.00  0.00     0.006 C 
ENDROOT
BRANCH   1   3
ATOM      3  C   UNL     1      91.000  92.043  76.772  1.00  0.00     0.246 C 
ATOM      4  O   UNL     1      90.493  92.013  77.894  1.00  0.00    -0.270 OA
ATOM      5  N   UNL     1      91.038  90.964  75.890  1.00  0.00    -0.339 N 
ATOM      6  C   UNL     1      90.439  89.690  76.298  1.00  0.00     0.120 C 
ATOM      7  C   UNL     1      91.672  90.949  74.563  1.00  0.00     0.120 C 
ATOM      8  C   UNL     1      89.443  89.184  75.260  1.00  0.00     0.022 C 
ATOM      9  C   UNL     1      90.704  90.443  73.493  1.00  0.00     0.022 C 
ATOM     10  C   UNL     1      90.087  89.102  73.879  1.00  0.00     0.004 C 
ENDBRANCH   1   3
BRANCH   2  11
ATOM     11  C   UNL     1      93.583  94.740  76.259  1.00  0.00     0.001 C 
ATOM     12  C   UNL     1      94.604  94.749  75.388  1.00  0.00     0.008 C 
BRANCH  12  13
ATOM     13  C   UNL     1      95.346  95.950  74.968  1.00  0.00    -0.022 A 
ATOM     14  C   UNL     1      94.643  97.037  74.467  1.00  0.00     0.058 A 
ATOM     15  C   UNL     1      96.738  95.963  75.087  1.00  0.00     0.012 A 
ATOM     16  C   UNL     1      95.381  98.140  74.088  1.00  0.00     0.166 A 
ATOM     17  C   UNL     1      97.461  97.092  74.695  1.00  0.00     0.051 A 
ATOM     18  O   UNL     1      94.881  99.297  73.575  1.00  0.00    -0.454 OA
ATOM     19  C   UNL     1      96.753  98.167  74.199  1.00  0.00     0.165 A 
ATOM     20  C   UNL     1      96.091 100.055  73.376  1.00  0.00     0.468 C 
ATOM     21  O   UNL     1      97.283  99.344  73.770  1.00  0.00    -0.454 OA
ENDBRANCH  12  13
ENDBRANCH   2  11
TORSDOF 3
ENDMDL
MODEL 9
REMARK VINA RESULT:    -6.502     13.177     14.051
REMARK INTER + INTRA:          -8.013
REMARK INTER:                  -7.621
REMARK INTRA:                  -0.393
REMARK UNBOUND:                -0.370
REMARK SMILES O=C(/C=C/C=C/c1ccc2c(c1)OCO2)N1CCCCC1
REMARK SMILES IDX 3 1 4 2 2 3 1 4 16 5 17 6 21 7 18 8 20 9 19 10 5 11 6 12
REMARK SMILES IDX 7 13 12 14 8 15 11 16 9 17 13 18 10 19 14 20 15 21
REMARK H PARENT
REMARK Flexibility Score: inf
ROOT
ATOM      1  C   UNL     1      98.762  82.827  79.663  1.00  0.00     0.071 C 
ATOM      2  C   UNL     1      97.565  82.418  80.082  1.00  0.00     0.006 C 
ENDROOT
BRANCH   1   3
ATOM      3  C   UNL     1      99.250  82.329  78.362  1.00  0.00     0.246 C 
ATOM      4  O   UNL     1      98.779  82.839  77.345  1.00  0.00    -0.270 OA
ATOM      5  N   UNL     1     100.204  81.313  78.372  1.00  0.00    -0.339 N 
ATOM      6  C   UNL     1     100.704  80.794  77.095  1.00  0.00     0.120 C 
ATOM      7  C   UNL     1     100.755  80.649  79.563  1.00  0.00     0.120 C 
ATOM      8  C   UNL     1     102.228  80.824  77.040  1.00  0.00     0.022 C 
ATOM      9  C   UNL     1     102.284  80.655  79.542  1.00  0.00     0.022 C 
ATOM     10  C   UNL     1     102.832  80.093  78.234  1.00  0.00     0.004 C 
ENDBRANCH   1   3
BRANCH   2  11
ATOM     11  C   UNL     1      97.002  82.851  81.343  1.00  0.00     0.001 C 
ATOM     12  C   UNL     1      97.757  83.291  82.363  1.00  0.00     0.008 C 
BRANCH  12  13
ATOM     13  C   UNL     1      97.237  83.735  83.667  1.00  0.00    -0.022 A 
ATOM     14  C   UNL     1      96.306  84.764  83.709  1.00  0.00     0.058 A 
ATOM     15  C   UNL     1      97.697  83.108  84.828  1.00  0.00     0.012 A 
ATOM     16  C   UNL     1      95.849  85.144  84.954  1.00  0.00     0.166 A 
ATOM     17  C   UNL     1      97.217  83.513  86.076  1.00  0.00     0.051 A 
ATOM     18  O   UNL     1      94.941  86.127  85.205  1.00  0.00    -0.454 OA
ATOM     19  C   UNL     1      96.292  84.536  86.106  1.00  0.00     0.165 A 
ATOM     20  C   UNL     1      94.863  86.069  86.644  1.00  0.00     0.468 C 
ATOM     21  O   UNL     1      95.718  85.061  87.222  1.00  0.00    -0.454 OA
ENDBRANCH  12  13
ENDBRANCH   2  11
TORSDOF 3
ENDMDL
MODEL 10
REMARK VINA RESULT:    -6.485      7.341      9.802
REMARK INTER + INTRA:          -7.992
REMARK INTER:                  -7.589
REMARK INTRA:                  -0.403
REMARK UNBOUND:                -0.370
REMARK SMILES O=C(/C=C/C=C/c1ccc2c(c1)OCO2)N1CCCCC1
REMARK SMILES IDX 3 1 4 2 2 3 1 4 16 5 17 6 21 7 18 8 20 9 19 10 5 11 6 12
REMARK SMILES IDX 7 13 12 14 8 15 11 16 9 17 13 18 10 19 14 20 15 21
REMARK H PARENT
REMARK Flexibility Score: inf
ROOT
ATOM      1  C   UNL     1      94.454  97.088  73.744  1.00  0.00     0.071 C 
ATOM      2  C   UNL     1      94.046  98.356  73.762  1.00  0.00     0.006 C 
ENDROOT
BRANCH   1   3
ATOM      3  C   UNL     1      95.113  96.554  74.953  1.00  0.00     0.246 C 
ATOM      4  O   UNL     1      96.100  97.156  75.376  1.00  0.00    -0.270 OA
ATOM      5  N   UNL     1      94.578  95.403  75.529  1.00  0.00    -0.339 N 
ATOM      6  C   UNL     1      95.213  94.846  76.727  1.00  0.00     0.120 C 
ATOM      7  C   UNL     1      93.430  94.633  75.028  1.00  0.00     0.120 C 
ATOM      8  C   UNL     1      94.203  94.642  77.851  1.00  0.00     0.022 C 
ATOM      9  C   UNL     1      92.394  94.404  76.128  1.00  0.00     0.022 C 
ATOM     10  C   UNL     1      93.024  93.797  77.378  1.00  0.00     0.004 C 
ENDBRANCH   1   3
BRANCH   2  11
ATOM     11  C   UNL     1      93.391  98.969  72.626  1.00  0.00     0.001 C 
ATOM     12  C   UNL     1      93.206  98.328  71.461  1.00  0.00     0.008 C 
BRANCH  12  13
ATOM     13  C   UNL     1      92.555  98.906  70.273  1.00  0.00    -0.022 A 
ATOM     14  C   UNL     1      93.156  99.978  69.627  1.00  0.00     0.058 A 
ATOM     15  C   UNL     1      91.348  98.360  69.829  1.00  0.00     0.012 A 
ATOM     16  C   UNL     1      92.508 100.484  68.519  1.00  0.00     0.166 A 
ATOM     17  C   UNL     1      90.713  98.893  68.705  1.00  0.00     0.051 A 
ATOM     18  O   UNL     1      92.933 101.527  67.754  1.00  0.00    -0.454 OA
ATOM     19  C   UNL     1      91.319  99.957  68.070  1.00  0.00     0.165 A 
ATOM     20  C   UNL     1      91.878 101.596  66.773  1.00  0.00     0.468 C 
ATOM     21  O   UNL     1      90.851 100.602  66.968  1.00  0.00    -0.454 OA
ENDBRANCH  12  13
ENDBRANCH   2  11
TORSDOF 3
ENDMDL
