MODEL 1
REMARK VINA RESULT:    -6.100      0.000      0.000
REMARK INTER + INTRA:         -10.692
REMARK INTER:                  -9.488
REMARK INTRA:                  -1.204
REMARK UNBOUND:                -1.204
REMARK SMILES COc1cc(CNC(=O)CCCCCC(C)C)ccc1O
REMARK SMILES IDX 10 1 8 2 7 3 9 5 6 6 5 7 3 8 20 9 4 10 19 11 18 12 2 13 1 14
REMARK SMILES IDX 21 15 11 17 12 18 13 19 14 20 15 21 16 22 17 23
REMARK H PARENT 7 4 21 16
REMARK Flexibility Score: inf
ROOT
ATOM      1  C   UNL     1      97.840  95.614  78.700  1.00  0.00     0.100 C 
ENDROOT
BRANCH   1   2
ATOM      2  C   UNL     1      96.813  94.613  79.058  1.00  0.00     0.220 C 
ATOM      3  N   UNL     1      95.662  94.545  78.331  1.00  0.00    -0.352 N 
ATOM      4  H   UNL     1      95.537  95.292  77.663  1.00  0.00     0.163 HD
ATOM      5  O   UNL     1      97.041  93.817  80.001  1.00  0.00    -0.275 OA
BRANCH   3   6
ATOM      6  C   UNL     1      94.671  93.525  78.454  1.00  0.00     0.151 C 
BRANCH   6   7
ATOM      7  C   UNL     1      93.335  93.944  77.951  1.00  0.00    -0.025 A 
ATOM      8  C   UNL     1      90.954  93.463  77.567  1.00  0.00     0.160 A 
ATOM      9  C   UNL     1      90.776  94.766  77.056  1.00  0.00     0.157 A 
ATOM     10  C   UNL     1      92.236  93.054  77.994  1.00  0.00     0.056 A 
ATOM     11  C   UNL     1      91.868  95.650  76.983  1.00  0.00     0.050 A 
ATOM     12  C   UNL     1      93.136  95.245  77.433  1.00  0.00     0.009 A 
BRANCH   8  13
ATOM     13  O   UNL     1      89.908  92.581  77.628  1.00  0.00    -0.493 OA
ATOM     14  C   UNL     1      89.975  91.530  76.644  1.00  0.00     0.278 C 
ENDBRANCH   8  13
BRANCH   9  15
ATOM     15  O   UNL     1      89.549  95.169  76.640  1.00  0.00    -0.504 OA
ATOM     16  H   UNL     1      88.874  94.735  77.168  1.00  0.00     0.293 HD
ENDBRANCH   9  15
ENDBRANCH   6   7
ENDBRANCH   3   6
ENDBRANCH   1   2
BRANCH   1  17
ATOM     17  C   UNL     1      97.335  96.736  77.754  1.00  0.00     0.010 C 
BRANCH  17  18
ATOM     18  C   UNL     1      98.301  96.952  76.556  1.00  0.00     0.001 C 
BRANCH  18  19
ATOM     19  C   UNL     1      97.569  97.118  75.198  1.00  0.00     0.000 C 
BRANCH  19  20
ATOM     20  C   UNL     1      96.151  97.735  75.365  1.00  0.00     0.003 C 
BRANCH  20  21
ATOM     21  C   UNL     1      94.987  96.891  74.752  1.00  0.00    -0.017 C 
ATOM     22  C   UNL     1      95.513  95.959  73.620  1.00  0.00     0.007 C 
ATOM     23  C   UNL     1      93.818  97.769  74.219  1.00  0.00     0.007 C 
ENDBRANCH  20  21
ENDBRANCH  19  20
ENDBRANCH  18  19
ENDBRANCH  17  18
ENDBRANCH   1  17
TORSDOF 10
ENDMDL
MODEL 2
REMARK VINA RESULT:    -6.050      2.579      7.094
REMARK INTER + INTRA:         -10.613
REMARK INTER:                  -9.920
REMARK INTRA:                  -0.694
REMARK UNBOUND:                -1.204
REMARK SMILES COc1cc(CNC(=O)CCCCCC(C)C)ccc1O
REMARK SMILES IDX 10 1 8 2 7 3 9 5 6 6 5 7 3 8 20 9 4 10 19 11 18 12 2 13 1 14
REMARK SMILES IDX 21 15 11 17 12 18 13 19 14 20 15 21 16 22 17 23
REMARK H PARENT 7 4 21 16
REMARK Flexibility Score: inf
ROOT
ATOM      1  C   UNL     1      91.791  95.130  75.862  1.00  0.00     0.100 C 
ENDROOT
BRANCH   1   2
ATOM      2  C   UNL     1      93.172  95.617  76.059  1.00  0.00     0.220 C 
ATOM      3  N   UNL     1      93.979  94.996  76.965  1.00  0.00    -0.352 N 
ATOM      4  H   UNL     1      93.518  94.310  77.545  1.00  0.00     0.163 HD
ATOM      5  O   UNL     1      93.588  96.570  75.355  1.00  0.00    -0.275 OA
BRANCH   3   6
ATOM      6  C   UNL     1      95.375  95.248  77.131  1.00  0.00     0.151 C 
BRANCH   6   7
ATOM      7  C   UNL     1      95.916  94.719  78.412  1.00  0.00    -0.025 A 
ATOM      8  C   UNL     1      97.680  94.672  80.124  1.00  0.00     0.160 A 
ATOM      9  C   UNL     1      96.915  93.762  80.885  1.00  0.00     0.157 A 
ATOM     10  C   UNL     1      97.184  95.130  78.885  1.00  0.00     0.056 A 
ATOM     11  C   UNL     1      95.664  93.326  80.411  1.00  0.00     0.050 A 
ATOM     12  C   UNL     1      95.165  93.805  79.188  1.00  0.00     0.009 A 
BRANCH   8  13
ATOM     13  O   UNL     1      98.910  95.094  80.558  1.00  0.00    -0.493 OA
ATOM     14  C   UNL     1      99.850  95.338  79.494  1.00  0.00     0.278 C 
ENDBRANCH   8  13
BRANCH   9  15
ATOM     15  O   UNL     1      97.383  93.315  82.076  1.00  0.00    -0.504 OA
ATOM     16  H   UNL     1      97.451  94.049  82.690  1.00  0.00     0.293 HD
ENDBRANCH   9  15
ENDBRANCH   6   7
ENDBRANCH   3   6
ENDBRANCH   1   2
BRANCH   1  17
ATOM     17  C   UNL     1      91.001  94.904  77.179  1.00  0.00     0.010 C 
BRANCH  17  18
ATOM     18  C   UNL     1      90.897  93.395  77.533  1.00  0.00     0.001 C 
BRANCH  18  19
ATOM     19  C   UNL     1      91.413  92.461  76.407  1.00  0.00     0.000 C 
BRANCH  19  20
ATOM     20  C   UNL     1      90.318  91.470  75.916  1.00  0.00     0.003 C 
BRANCH  20  21
ATOM     21  C   UNL     1      90.525  90.920  74.467  1.00  0.00    -0.017 C 
ATOM     22  C   UNL     1      89.284  91.221  73.576  1.00  0.00     0.007 C 
ATOM     23  C   UNL     1      90.847  89.398  74.439  1.00  0.00     0.007 C 
ENDBRANCH  20  21
ENDBRANCH  19  20
ENDBRANCH  18  19
ENDBRANCH  17  18
ENDBRANCH   1  17
TORSDOF 10
ENDMDL
MODEL 3
REMARK VINA RESULT:    -5.984      2.513      5.831
REMARK INTER + INTRA:         -10.510
REMARK INTER:                  -9.733
REMARK INTRA:                  -0.777
REMARK UNBOUND:                -1.204
REMARK SMILES COc1cc(CNC(=O)CCCCCC(C)C)ccc1O
REMARK SMILES IDX 10 1 8 2 7 3 9 5 6 6 5 7 3 8 20 9 4 10 19 11 18 12 2 13 1 14
REMARK SMILES IDX 21 15 11 17 12 18 13 19 14 20 15 21 16 22 17 23
REMARK H PARENT 7 4 21 16
REMARK Flexibility Score: inf
ROOT
ATOM      1  C   UNL     1      95.152  96.668  74.334  1.00  0.00     0.100 C 
ENDROOT
BRANCH   1   2
ATOM      2  C   UNL     1      96.024  97.185  75.409  1.00  0.00     0.220 C 
ATOM      3  N   UNL     1      96.337  96.380  76.463  1.00  0.00    -0.352 N 
ATOM      4  H   UNL     1      95.829  95.508  76.497  1.00  0.00     0.163 HD
ATOM      5  O   UNL     1      96.495  98.344  75.306  1.00  0.00    -0.275 OA
BRANCH   3   6
ATOM      6  C   UNL     1      97.298  96.685  77.474  1.00  0.00     0.151 C 
BRANCH   6   7
ATOM      7  C   UNL     1      96.804  96.414  78.851  1.00  0.00    -0.025 A 
ATOM      8  C   UNL     1      95.797  94.884  80.492  1.00  0.00     0.160 A 
ATOM      9  C   UNL     1      95.924  95.874  81.489  1.00  0.00     0.157 A 
ATOM     10  C   UNL     1      96.220  95.166  79.176  1.00  0.00     0.056 A 
ATOM     11  C   UNL     1      96.479  97.127  81.171  1.00  0.00     0.050 A 
ATOM     12  C   UNL     1      96.920  97.394  79.864  1.00  0.00     0.009 A 
BRANCH   8  13
ATOM     13  O   UNL     1      95.242  93.664  80.777  1.00  0.00    -0.493 OA
ATOM     14  C   UNL     1      95.517  92.654  79.787  1.00  0.00     0.278 C 
ENDBRANCH   8  13
BRANCH   9  15
ATOM     15  O   UNL     1      95.519  95.614  82.758  1.00  0.00    -0.504 OA
ATOM     16  H   UNL     1      95.890  94.777  83.047  1.00  0.00     0.293 HD
ENDBRANCH   9  15
ENDBRANCH   6   7
ENDBRANCH   3   6
ENDBRANCH   1   2
BRANCH   1  17
ATOM     17  C   UNL     1      94.685  95.202  74.541  1.00  0.00     0.010 C 
BRANCH  17  18
ATOM     18  C   UNL     1      93.343  95.134  75.321  1.00  0.00     0.001 C 
BRANCH  18  19
ATOM     19  C   UNL     1      92.902  93.686  75.663  1.00  0.00     0.000 C 
BRANCH  19  20
ATOM     20  C   UNL     1      91.374  93.587  75.941  1.00  0.00     0.003 C 
BRANCH  20  21
ATOM     21  C   UNL     1      90.986  93.441  77.449  1.00  0.00    -0.017 C 
ATOM     22  C   UNL     1      92.255  93.275  78.336  1.00  0.00     0.007 C 
ATOM     23  C   UNL     1      89.996  92.269  77.708  1.00  0.00     0.007 C 
ENDBRANCH  20  21
ENDBRANCH  19  20
ENDBRANCH  18  19
ENDBRANCH  17  18
ENDBRANCH   1  17
TORSDOF 10
ENDMDL
MODEL 4
REMARK VINA RESULT:    -5.848      5.930      8.911
REMARK INTER + INTRA:         -10.299
REMARK INTER:                  -9.685
REMARK INTRA:                  -0.614
REMARK UNBOUND:                -1.204
REMARK SMILES COc1cc(CNC(=O)CCCCCC(C)C)ccc1O
REMARK SMILES IDX 10 1 8 2 7 3 9 5 6 6 5 7 3 8 20 9 4 10 19 11 18 12 2 13 1 14
REMARK SMILES IDX 21 15 11 17 12 18 13 19 14 20 15 21 16 22 17 23
REMARK H PARENT 7 4 21 16
REMARK Flexibility Score: inf
ROOT
ATOM      1  C   UNL     1      93.572  98.268  73.900  1.00  0.00     0.100 C 
ENDROOT
BRANCH   1   2
ATOM      2  C   UNL     1      93.529  98.961  72.596  1.00  0.00     0.220 C 
ATOM      3  N   UNL     1      92.332  99.390  72.105  1.00  0.00    -0.352 N 
ATOM      4  H   UNL     1      91.524  99.077  72.623  1.00  0.00     0.163 HD
ATOM      5  O   UNL     1      94.605  99.179  71.987  1.00  0.00    -0.275 OA
BRANCH   3   6
ATOM      6  C   UNL     1      92.166 100.218  70.954  1.00  0.00     0.151 C 
BRANCH   6   7
ATOM      7  C   UNL     1      91.244  99.633  69.942  1.00  0.00    -0.025 A 
ATOM      8  C   UNL     1      90.368  99.559  67.646  1.00  0.00     0.160 A 
ATOM      9  C   UNL     1      89.536  98.476  68.000  1.00  0.00     0.157 A 
ATOM     10  C   UNL     1      91.202 100.143  68.623  1.00  0.00     0.056 A 
ATOM     11  C   UNL     1      89.550  97.978  69.316  1.00  0.00     0.050 A 
ATOM     12  C   UNL     1      90.401  98.548  70.278  1.00  0.00     0.009 A 
BRANCH   8  13
ATOM     13  O   UNL     1      90.355 100.071  66.375  1.00  0.00    -0.493 OA
ATOM     14  C   UNL     1      91.361 101.076  66.142  1.00  0.00     0.278 C 
ENDBRANCH   8  13
BRANCH   9  15
ATOM     15  O   UNL     1      88.729  97.909  67.069  1.00  0.00    -0.504 OA
ATOM     16  H   UNL     1      89.233  97.736  66.270  1.00  0.00     0.293 HD
ENDBRANCH   9  15
ENDBRANCH   6   7
ENDBRANCH   3   6
ENDBRANCH   1   2
BRANCH   1  17
ATOM     17  C   UNL     1      94.553  97.065  73.952  1.00  0.00     0.010 C 
BRANCH  17  18
ATOM     18  C   UNL     1      93.962  95.879  74.762  1.00  0.00     0.001 C 
BRANCH  18  19
ATOM     19  C   UNL     1      92.889  96.312  75.795  1.00  0.00     0.000 C 
BRANCH  19  20
ATOM     20  C   UNL     1      93.041  95.562  77.151  1.00  0.00     0.003 C 
BRANCH  20  21
ATOM     21  C   UNL     1      91.828  94.658  77.545  1.00  0.00    -0.017 C 
ATOM     22  C   UNL     1      92.308  93.239  77.971  1.00  0.00     0.007 C 
ATOM     23  C   UNL     1      90.766  94.545  76.414  1.00  0.00     0.007 C 
ENDBRANCH  20  21
ENDBRANCH  19  20
ENDBRANCH  18  19
ENDBRANCH  17  18
ENDBRANCH   1  17
TORSDOF 10
ENDMDL
MODEL 5
REMARK VINA RESULT:    -5.587      8.724     11.617
REMARK INTER + INTRA:          -9.894
REMARK INTER:                  -8.142
REMARK INTRA:                  -1.752
REMARK UNBOUND:                -1.204
REMARK SMILES COc1cc(CNC(=O)CCCCCC(C)C)ccc1O
REMARK SMILES IDX 10 1 8 2 7 3 9 5 6 6 5 7 3 8 20 9 4 10 19 11 18 12 2 13 1 14
REMARK SMILES IDX 21 15 11 17 12 18 13 19 14 20 15 21 16 22 17 23
REMARK H PARENT 7 4 21 16
REMARK Flexibility Score: inf
ROOT
ATOM      1  C   UNL     1      88.427  98.992  66.563  1.00  0.00     0.100 C 
ENDROOT
BRANCH   1   2
ATOM      2  C   UNL     1      89.309  98.602  67.683  1.00  0.00     0.220 C 
ATOM      3  N   UNL     1      89.026  99.040  68.942  1.00  0.00    -0.352 N 
ATOM      4  H   UNL     1      88.286  99.725  68.997  1.00  0.00     0.163 HD
ATOM      5  O   UNL     1      90.280  97.839  67.456  1.00  0.00    -0.275 OA
BRANCH   3   6
ATOM      6  C   UNL     1      89.685  98.604  70.131  1.00  0.00     0.151 C 
BRANCH   6   7
ATOM      7  C   UNL     1      90.479  99.679  70.786  1.00  0.00    -0.025 A 
ATOM      8  C   UNL     1      90.652 101.972  71.656  1.00  0.00     0.160 A 
ATOM      9  C   UNL     1      91.967 101.704  72.095  1.00  0.00     0.157 A 
ATOM     10  C   UNL     1      89.924 100.965  70.989  1.00  0.00     0.056 A 
ATOM     11  C   UNL     1      92.538 100.437  71.875  1.00  0.00     0.050 A 
ATOM     12  C   UNL     1      91.798  99.430  71.231  1.00  0.00     0.009 A 
BRANCH   8  13
ATOM     13  O   UNL     1      90.085 103.205  71.843  1.00  0.00    -0.493 OA
ATOM     14  C   UNL     1      89.184 103.268  72.965  1.00  0.00     0.278 C 
ENDBRANCH   8  13
BRANCH   9  15
ATOM     15  O   UNL     1      92.676 102.666  72.735  1.00  0.00    -0.504 OA
ATOM     16  H   UNL     1      93.396 102.261  73.225  1.00  0.00     0.293 HD
ENDBRANCH   9  15
ENDBRANCH   6   7
ENDBRANCH   3   6
ENDBRANCH   1   2
BRANCH   1  17
ATOM     17  C   UNL     1      87.484 100.184  66.878  1.00  0.00     0.010 C 
BRANCH  17  18
ATOM     18  C   UNL     1      88.032 101.517  66.298  1.00  0.00     0.001 C 
BRANCH  18  19
ATOM     19  C   UNL     1      88.718 102.416  67.360  1.00  0.00     0.000 C 
BRANCH  19  20
ATOM     20  C   UNL     1      90.215 102.682  67.027  1.00  0.00     0.003 C 
BRANCH  20  21
ATOM     21  C   UNL     1      91.112 101.404  66.951  1.00  0.00    -0.017 C 
ATOM     22  C   UNL     1      92.257 101.466  68.003  1.00  0.00     0.007 C 
ATOM     23  C   UNL     1      91.703 101.164  65.531  1.00  0.00     0.007 C 
ENDBRANCH  20  21
ENDBRANCH  19  20
ENDBRANCH  18  19
ENDBRANCH  17  18
ENDBRANCH   1  17
TORSDOF 10
ENDMDL
MODEL 6
REMARK VINA RESULT:    -5.504      1.992      3.799
REMARK INTER + INTRA:          -9.765
REMARK INTER:                  -8.690
REMARK INTRA:                  -1.076
REMARK UNBOUND:                -1.204
REMARK SMILES COc1cc(CNC(=O)CCCCCC(C)C)ccc1O
REMARK SMILES IDX 10 1 8 2 7 3 9 5 6 6 5 7 3 8 20 9 4 10 19 11 18 12 2 13 1 14
REMARK SMILES IDX 21 15 11 17 12 18 13 19 14 20 15 21 16 22 17 23
REMARK H PARENT 7 4 21 16
REMARK Flexibility Score: inf
ROOT
ATOM      1  C   UNL     1      98.249  95.133  79.029  1.00  0.00     0.100 C 
ENDROOT
BRANCH   1   2
ATOM      2  C   UNL     1      97.097  94.348  79.520  1.00  0.00     0.220 C 
ATOM      3  N   UNL     1      95.943  94.330  78.796  1.00  0.00    -0.352 N 
ATOM      4  H   UNL     1      95.916  94.978  78.022  1.00  0.00     0.163 HD
ATOM      5  O   UNL     1      97.221  93.678  80.574  1.00  0.00    -0.275 OA
BRANCH   3   6
ATOM      6  C   UNL     1      94.822  93.485  79.059  1.00  0.00     0.151 C 
BRANCH   6   7
ATOM      7  C   UNL     1      93.582  93.926  78.363  1.00  0.00    -0.025 A 
ATOM      8  C   UNL     1      91.252  93.516  77.692  1.00  0.00     0.160 A 
ATOM      9  C   UNL     1      91.201  94.793  77.096  1.00  0.00     0.157 A 
ATOM     10  C   UNL     1      92.448  93.083  78.305  1.00  0.00     0.056 A 
ATOM     11  C   UNL     1      92.332  95.630  77.125  1.00  0.00     0.050 A 
ATOM     12  C   UNL     1      93.512  95.203  77.757  1.00  0.00     0.009 A 
BRANCH   8  13
ATOM     13  O   UNL     1      90.169  92.678  77.658  1.00  0.00    -0.493 OA
ATOM     14  C   UNL     1      90.189  91.744  76.562  1.00  0.00     0.278 C 
ENDBRANCH   8  13
BRANCH   9  15
ATOM     15  O   UNL     1      90.058  95.218  76.503  1.00  0.00    -0.504 OA
ATOM     16  H   UNL     1      90.255  95.950  75.914  1.00  0.00     0.293 HD
ENDBRANCH   9  15
ENDBRANCH   6   7
ENDBRANCH   3   6
ENDBRANCH   1   2
BRANCH   1  17
ATOM     17  C   UNL     1      97.863  96.346  78.141  1.00  0.00     0.010 C 
BRANCH  17  18
ATOM     18  C   UNL     1      98.263  97.692  78.805  1.00  0.00     0.001 C 
BRANCH  18  19
ATOM     19  C   UNL     1      97.310  98.120  79.953  1.00  0.00     0.000 C 
BRANCH  19  20
ATOM     20  C   UNL     1      97.946  97.903  81.357  1.00  0.00     0.003 C 
BRANCH  20  21
ATOM     21  C   UNL     1      97.163  96.923  82.291  1.00  0.00    -0.017 C 
ATOM     22  C   UNL     1      95.722  96.677  81.755  1.00  0.00     0.007 C 
ATOM     23  C   UNL     1      97.107  97.412  83.768  1.00  0.00     0.007 C 
ENDBRANCH  20  21
ENDBRANCH  19  20
ENDBRANCH  18  19
ENDBRANCH  17  18
ENDBRANCH   1  17
TORSDOF 10
ENDMDL
MODEL 7
REMARK VINA RESULT:    -5.503     12.893     14.475
REMARK INTER + INTRA:          -9.764
REMARK INTER:                  -9.052
REMARK INTRA:                  -0.712
REMARK UNBOUND:                -1.204
REMARK SMILES COc1cc(CNC(=O)CCCCCC(C)C)ccc1O
REMARK SMILES IDX 10 1 8 2 7 3 9 5 6 6 5 7 3 8 20 9 4 10 19 11 18 12 2 13 1 14
REMARK SMILES IDX 21 15 11 17 12 18 13 19 14 20 15 21 16 22 17 23
REMARK H PARENT 7 4 21 16
REMARK Flexibility Score: inf
ROOT
ATOM      1  C   UNL     1      96.898  81.143  77.256  1.00  0.00     0.100 C 
ENDROOT
BRANCH   1   2
ATOM      2  C   UNL     1      97.424  81.405  78.611  1.00  0.00     0.220 C 
ATOM      3  N   UNL     1      97.159  80.522  79.615  1.00  0.00    -0.352 N 
ATOM      4  H   UNL     1      96.493  79.799  79.380  1.00  0.00     0.163 HD
ATOM      5  O   UNL     1      98.143  82.417  78.801  1.00  0.00    -0.275 OA
BRANCH   3   6
ATOM      6  C   UNL     1      97.742  80.558  80.918  1.00  0.00     0.151 C 
BRANCH   6   7
ATOM      7  C   UNL     1      96.838  81.140  81.946  1.00  0.00    -0.025 A 
ATOM      8  C   UNL     1      95.285  80.847  83.830  1.00  0.00     0.160 A 
ATOM      9  C   UNL     1      95.168  82.249  83.948  1.00  0.00     0.157 A 
ATOM     10  C   UNL     1      96.103  80.302  82.819  1.00  0.00     0.056 A 
ATOM     11  C   UNL     1      95.873  83.091  83.069  1.00  0.00     0.050 A 
ATOM     12  C   UNL     1      96.706  82.542  82.080  1.00  0.00     0.009 A 
BRANCH   8  13
ATOM     13  O   UNL     1      94.591  80.009  84.664  1.00  0.00    -0.493 OA
ATOM     14  C   UNL     1      95.383  79.475  85.742  1.00  0.00     0.278 C 
ENDBRANCH   8  13
BRANCH   9  15
ATOM     15  O   UNL     1      94.382  82.783  84.916  1.00  0.00    -0.504 OA
ATOM     16  H   UNL     1      93.492  82.903  84.576  1.00  0.00     0.293 HD
ENDBRANCH   9  15
ENDBRANCH   6   7
ENDBRANCH   3   6
ENDBRANCH   1   2
BRANCH   1  17
ATOM     17  C   UNL     1      95.940  82.241  76.720  1.00  0.00     0.010 C 
BRANCH  17  18
ATOM     18  C   UNL     1      96.682  83.250  75.801  1.00  0.00     0.001 C 
BRANCH  18  19
ATOM     19  C   UNL     1      96.584  82.898  74.293  1.00  0.00     0.000 C 
BRANCH  19  20
ATOM     20  C   UNL     1      97.641  81.839  73.866  1.00  0.00     0.003 C 
BRANCH  20  21
ATOM     21  C   UNL     1      99.051  82.417  73.518  1.00  0.00    -0.017 C 
ATOM     22  C   UNL     1     100.048  82.197  74.694  1.00  0.00     0.007 C 
ATOM     23  C   UNL     1      99.007  83.924  73.130  1.00  0.00     0.007 C 
ENDBRANCH  20  21
ENDBRANCH  19  20
ENDBRANCH  18  19
ENDBRANCH  17  18
ENDBRANCH   1  17
TORSDOF 10
ENDMDL
MODEL 8
REMARK VINA RESULT:    -5.245     21.305     23.958
REMARK INTER + INTRA:          -9.362
REMARK INTER:                  -7.418
REMARK INTRA:                  -1.944
REMARK UNBOUND:                -1.204
REMARK SMILES COc1cc(CNC(=O)CCCCCC(C)C)ccc1O
REMARK SMILES IDX 10 1 8 2 7 3 9 5 6 6 5 7 3 8 20 9 4 10 19 11 18 12 2 13 1 14
REMARK SMILES IDX 21 15 11 17 12 18 13 19 14 20 15 21 16 22 17 23
REMARK H PARENT 7 4 21 16
REMARK Flexibility Score: inf
ROOT
ATOM      1  C   UNL     1      75.733  90.163  66.162  1.00  0.00     0.100 C 
ENDROOT
BRANCH   1   2
ATOM      2  C   UNL     1      75.455  89.138  65.134  1.00  0.00     0.220 C 
ATOM      3  N   UNL     1      74.478  88.214  65.356  1.00  0.00    -0.352 N 
ATOM      4  H   UNL     1      74.093  88.219  66.290  1.00  0.00     0.163 HD
ATOM      5  O   UNL     1      76.099  89.167  64.057  1.00  0.00    -0.275 OA
BRANCH   3   6
ATOM      6  C   UNL     1      73.990  87.285  64.388  1.00  0.00     0.151 C 
BRANCH   6   7
ATOM      7  C   UNL     1      74.163  85.866  64.801  1.00  0.00    -0.025 A 
ATOM      8  C   UNL     1      75.627  83.961  65.326  1.00  0.00     0.160 A 
ATOM      9  C   UNL     1      74.495  83.185  65.653  1.00  0.00     0.157 A 
ATOM     10  C   UNL     1      75.453  85.290  64.885  1.00  0.00     0.056 A 
ATOM     11  C   UNL     1      73.206  83.739  65.548  1.00  0.00     0.050 A 
ATOM     12  C   UNL     1      73.041  85.071  65.131  1.00  0.00     0.009 A 
BRANCH   8  13
ATOM     13  O   UNL     1      76.889  83.434  65.403  1.00  0.00    -0.493 OA
ATOM     14  C   UNL     1      77.574  83.740  66.633  1.00  0.00     0.278 C 
ENDBRANCH   8  13
BRANCH   9  15
ATOM     15  O   UNL     1      74.651  81.905  66.076  1.00  0.00    -0.504 OA
ATOM     16  H   UNL     1      75.284  81.881  66.797  1.00  0.00     0.293 HD
ENDBRANCH   9  15
ENDBRANCH   6   7
ENDBRANCH   3   6
ENDBRANCH   1   2
BRANCH   1  17
ATOM     17  C   UNL     1      76.199  89.587  67.527  1.00  0.00     0.010 C 
BRANCH  17  18
ATOM     18  C   UNL     1      77.416  88.635  67.361  1.00  0.00     0.001 C 
BRANCH  18  19
ATOM     19  C   UNL     1      77.095  87.159  67.714  1.00  0.00     0.000 C 
BRANCH  19  20
ATOM     20  C   UNL     1      75.899  87.036  68.702  1.00  0.00     0.003 C 
BRANCH  20  21
ATOM     21  C   UNL     1      75.069  85.717  68.573  1.00  0.00    -0.017 C 
ATOM     22  C   UNL     1      73.542  86.013  68.651  1.00  0.00     0.007 C 
ATOM     23  C   UNL     1      75.461  84.650  69.635  1.00  0.00     0.007 C 
ENDBRANCH  20  21
ENDBRANCH  19  20
ENDBRANCH  18  19
ENDBRANCH  17  18
ENDBRANCH   1  17
TORSDOF 10
ENDMDL
MODEL 9
REMARK VINA RESULT:    -5.181     12.860     15.429
REMARK INTER + INTRA:          -9.263
REMARK INTER:                  -8.744
REMARK INTRA:                  -0.518
REMARK UNBOUND:                -1.204
REMARK SMILES COc1cc(CNC(=O)CCCCCC(C)C)ccc1O
REMARK SMILES IDX 10 1 8 2 7 3 9 5 6 6 5 7 3 8 20 9 4 10 19 11 18 12 2 13 1 14
REMARK SMILES IDX 21 15 11 17 12 18 13 19 14 20 15 21 16 22 17 23
REMARK H PARENT 7 4 21 16
REMARK Flexibility Score: inf
ROOT
ATOM      1  C   UNL     1      96.824  80.115  82.185  1.00  0.00     0.100 C 
ENDROOT
BRANCH   1   2
ATOM      2  C   UNL     1      97.803  80.233  81.085  1.00  0.00     0.220 C 
ATOM      3  N   UNL     1      97.359  80.426  79.811  1.00  0.00    -0.352 N 
ATOM      4  H   UNL     1      96.360  80.341  79.692  1.00  0.00     0.163 HD
ATOM      5  O   UNL     1      99.029  80.196  81.354  1.00  0.00    -0.275 OA
BRANCH   3   6
ATOM      6  C   UNL     1      98.188  80.728  78.688  1.00  0.00     0.151 C 
BRANCH   6   7
ATOM      7  C   UNL     1      97.519  81.600  77.686  1.00  0.00    -0.025 A 
ATOM      8  C   UNL     1      97.412  82.551  75.421  1.00  0.00     0.160 A 
ATOM      9  C   UNL     1      96.209  83.208  75.756  1.00  0.00     0.157 A 
ATOM     10  C   UNL     1      98.069  81.767  76.392  1.00  0.00     0.056 A 
ATOM     11  C   UNL     1      95.667  83.071  77.047  1.00  0.00     0.050 A 
ATOM     12  C   UNL     1      96.314  82.269  78.003  1.00  0.00     0.009 A 
BRANCH   8  13
ATOM     13  O   UNL     1      97.966  82.688  74.175  1.00  0.00    -0.493 OA
ATOM     14  C   UNL     1      99.397  82.852  74.190  1.00  0.00     0.278 C 
ENDBRANCH   8  13
BRANCH   9  15
ATOM     15  O   UNL     1      95.570  83.967  74.830  1.00  0.00    -0.504 OA
ATOM     16  H   UNL     1      94.622  83.859  74.926  1.00  0.00     0.293 HD
ENDBRANCH   9  15
ENDBRANCH   6   7
ENDBRANCH   3   6
ENDBRANCH   1   2
BRANCH   1  17
ATOM     17  C   UNL     1      96.634  81.415  83.013  1.00  0.00     0.010 C 
BRANCH  17  18
ATOM     18  C   UNL     1      95.184  81.541  83.555  1.00  0.00     0.001 C 
BRANCH  18  19
ATOM     19  C   UNL     1      94.965  80.811  84.907  1.00  0.00     0.000 C 
BRANCH  19  20
ATOM     20  C   UNL     1      93.546  80.180  85.012  1.00  0.00     0.003 C 
BRANCH  20  21
ATOM     21  C   UNL     1      92.454  81.111  85.633  1.00  0.00    -0.017 C 
ATOM     22  C   UNL     1      91.293  81.354  84.625  1.00  0.00     0.007 C 
ATOM     23  C   UNL     1      93.028  82.472  86.124  1.00  0.00     0.007 C 
ENDBRANCH  20  21
ENDBRANCH  19  20
ENDBRANCH  18  19
ENDBRANCH  17  18
ENDBRANCH   1  17
TORSDOF 10
ENDMDL
MODEL 10
REMARK VINA RESULT:    -5.106     25.660     30.280
REMARK INTER + INTRA:          -9.145
REMARK INTER:                  -8.050
REMARK INTRA:                  -1.095
REMARK UNBOUND:                -1.204
REMARK SMILES COc1cc(CNC(=O)CCCCCC(C)C)ccc1O
REMARK SMILES IDX 10 1 8 2 7 3 9 5 6 6 5 7 3 8 20 9 4 10 19 11 18 12 2 13 1 14
REMARK SMILES IDX 21 15 11 17 12 18 13 19 14 20 15 21 16 22 17 23
REMARK H PARENT 7 4 21 16
REMARK Flexibility Score: inf
ROOT
ATOM      1  C   UNL     1      81.937  64.821  75.442  1.00  0.00     0.100 C 
ENDROOT
BRANCH   1   2
ATOM      2  C   UNL     1      83.116  65.666  75.723  1.00  0.00     0.220 C 
ATOM      3  N   UNL     1      83.635  66.443  74.730  1.00  0.00    -0.352 N 
ATOM      4  H   UNL     1      83.242  66.280  73.814  1.00  0.00     0.163 HD
ATOM      5  O   UNL     1      83.591  65.682  76.885  1.00  0.00    -0.275 OA
BRANCH   3   6
ATOM      6  C   UNL     1      84.653  67.428  74.905  1.00  0.00     0.151 C 
BRANCH   6   7
ATOM      7  C   UNL     1      84.673  68.447  73.821  1.00  0.00    -0.025 A 
ATOM      8  C   UNL     1      85.383  70.643  72.972  1.00  0.00     0.160 A 
ATOM      9  C   UNL     1      84.768  70.359  71.733  1.00  0.00     0.157 A 
ATOM     10  C   UNL     1      85.315  69.693  74.013  1.00  0.00     0.056 A 
ATOM     11  C   UNL     1      84.104  69.134  71.540  1.00  0.00     0.050 A 
ATOM     12  C   UNL     1      84.062  68.183  72.574  1.00  0.00     0.009 A 
BRANCH   8  13
ATOM     13  O   UNL     1      86.017  71.838  73.187  1.00  0.00    -0.493 OA
ATOM     14  C   UNL     1      85.319  72.713  74.093  1.00  0.00     0.278 C 
ENDBRANCH   8  13
BRANCH   9  15
ATOM     15  O   UNL     1      84.825  71.266  70.726  1.00  0.00    -0.504 OA
ATOM     16  H   UNL     1      85.277  72.056  71.032  1.00  0.00     0.293 HD
ENDBRANCH   9  15
ENDBRANCH   6   7
ENDBRANCH   3   6
ENDBRANCH   1   2
BRANCH   1  17
ATOM     17  C   UNL     1      80.742  65.583  74.807  1.00  0.00     0.010 C 
BRANCH  17  18
ATOM     18  C   UNL     1      80.519  65.166  73.327  1.00  0.00     0.001 C 
BRANCH  18  19
ATOM     19  C   UNL     1      80.983  66.239  72.308  1.00  0.00     0.000 C 
BRANCH  19  20
ATOM     20  C   UNL     1      81.410  65.614  70.948  1.00  0.00     0.003 C 
BRANCH  20  21
ATOM     21  C   UNL     1      80.710  66.225  69.691  1.00  0.00    -0.017 C 
ATOM     22  C   UNL     1      80.163  65.103  68.760  1.00  0.00     0.007 C 
ATOM     23  C   UNL     1      81.638  67.182  68.888  1.00  0.00     0.007 C 
ENDBRANCH  20  21
ENDBRANCH  19  20
ENDBRANCH  18  19
ENDBRANCH  17  18
ENDBRANCH   1  17
TORSDOF 10
ENDMDL
