MODEL 1
REMARK VINA RESULT:    -6.289      0.000      0.000
REMARK INTER + INTRA:         -10.746
REMARK INTER:                  -9.782
REMARK INTRA:                  -0.964
REMARK UNBOUND:                -0.964
REMARK SMILES CCCCC/C=C/C(=O)CCc1ccc(O)c(OC)c1
REMARK SMILES IDX 6 1 7 2 8 3 9 4 10 5 11 6 12 7 17 8 20 9 15 10 14 11 13 12
REMARK SMILES IDX 18 13 19 14 16 15 5 17 4 18 3 19 2 20 1 21
REMARK H PARENT 16 16
REMARK Flexibility Score: inf
ROOT
ATOM      1  C   UNL     1      94.526  97.558  76.951  1.00  0.00    -0.023 C 
ATOM      2  C   UNL     1      95.170  97.416  75.786  1.00  0.00     0.043 C 
ENDROOT
BRANCH   2   3
ATOM      3  C   UNL     1      94.437  96.922  74.588  1.00  0.00     0.155 C 
ATOM      4  O   UNL     1      94.371  97.579  73.551  1.00  0.00    -0.295 OA
BRANCH   3   5
ATOM      5  C   UNL     1      93.729  95.589  74.731  1.00  0.00     0.085 C 
BRANCH   5   6
ATOM      6  C   UNL     1      92.210  95.764  74.730  1.00  0.00     0.044 C 
BRANCH   6   7
ATOM      7  C   UNL     1      91.495  94.695  75.524  1.00  0.00    -0.044 A 
ATOM      8  C   UNL     1      90.379  92.573  75.609  1.00  0.00     0.160 A 
ATOM      9  C   UNL     1      91.039  93.559  74.875  1.00  0.00     0.054 A 
ATOM     10  C   UNL     1      90.185  92.735  76.980  1.00  0.00     0.157 A 
ATOM     11  C   UNL     1      90.651  93.885  77.619  1.00  0.00     0.050 A 
ATOM     12  C   UNL     1      91.310  94.872  76.885  1.00  0.00     0.008 A 
BRANCH   8  13
ATOM     13  O   UNL     1      89.929  91.454  74.974  1.00  0.00    -0.493 OA
ATOM     14  C   UNL     1      90.621  91.058  73.791  1.00  0.00     0.278 C 
ENDBRANCH   8  13
BRANCH  10  15
ATOM     15  O   UNL     1      89.543  91.779  77.707  1.00  0.00    -0.504 OA
ATOM     16  H   UNL     1      89.639  91.997  78.650  1.00  0.00     0.293 HD
ENDBRANCH  10  15
ENDBRANCH   6   7
ENDBRANCH   5   6
ENDBRANCH   3   5
ENDBRANCH   2   3
BRANCH   1  17
ATOM     17  C   UNL     1      95.193  98.049  78.202  1.00  0.00     0.027 C 
BRANCH  17  18
ATOM     18  C   UNL     1      95.562  96.920  79.170  1.00  0.00     0.004 C 
BRANCH  18  19
ATOM     19  C   UNL     1      95.818  95.577  78.478  1.00  0.00     0.000 C 
BRANCH  19  20
ATOM     20  C   UNL     1      94.751  94.549  78.856  1.00  0.00    -0.003 C 
ATOM     21  C   UNL     1      94.798  94.219  80.340  1.00  0.00     0.004 C 
ENDBRANCH  19  20
ENDBRANCH  18  19
ENDBRANCH  17  18
ENDBRANCH   1  17
TORSDOF 10
ENDMDL
MODEL 2
REMARK VINA RESULT:    -6.112      3.024      7.025
REMARK INTER + INTRA:         -10.470
REMARK INTER:                  -9.612
REMARK INTRA:                  -0.857
REMARK UNBOUND:                -0.964
REMARK SMILES CCCCC/C=C/C(=O)CCc1ccc(O)c(OC)c1
REMARK SMILES IDX 6 1 7 2 8 3 9 4 10 5 11 6 12 7 17 8 20 9 15 10 14 11 13 12
REMARK SMILES IDX 18 13 19 14 16 15 5 17 4 18 3 19 2 20 1 21
REMARK H PARENT 16 16
REMARK Flexibility Score: inf
ROOT
ATOM      1  C   UNL     1      91.965  94.428  76.771  1.00  0.00    -0.023 C 
ATOM      2  C   UNL     1      92.190  95.636  76.239  1.00  0.00     0.043 C 
ENDROOT
BRANCH   2   3
ATOM      3  C   UNL     1      93.516  95.950  75.642  1.00  0.00     0.155 C 
ATOM      4  O   UNL     1      94.047  95.210  74.815  1.00  0.00    -0.295 OA
BRANCH   3   5
ATOM      5  C   UNL     1      94.206  97.203  76.146  1.00  0.00     0.085 C 
BRANCH   5   6
ATOM      6  C   UNL     1      93.786  97.529  77.580  1.00  0.00     0.044 C 
BRANCH   6   7
ATOM      7  C   UNL     1      94.773  97.029  78.609  1.00  0.00    -0.044 A 
ATOM      8  C   UNL     1      96.345  97.479  80.365  1.00  0.00     0.160 A 
ATOM      9  C   UNL     1      95.434  97.941  79.415  1.00  0.00     0.054 A 
ATOM     10  C   UNL     1      96.582  96.111  80.497  1.00  0.00     0.157 A 
ATOM     11  C   UNL     1      95.909  95.204  79.677  1.00  0.00     0.050 A 
ATOM     12  C   UNL     1      94.998  95.667  78.726  1.00  0.00     0.008 A 
BRANCH   8  13
ATOM     13  O   UNL     1      96.996  98.374  81.159  1.00  0.00    -0.493 OA
ATOM     14  C   UNL     1      98.091  99.080  80.578  1.00  0.00     0.278 C 
ENDBRANCH   8  13
BRANCH  10  15
ATOM     15  O   UNL     1      97.469  95.647  81.421  1.00  0.00    -0.504 OA
ATOM     16  H   UNL     1      97.965  96.405  81.775  1.00  0.00     0.293 HD
ENDBRANCH  10  15
ENDBRANCH   6   7
ENDBRANCH   5   6
ENDBRANCH   3   5
ENDBRANCH   2   3
BRANCH   1  17
ATOM     17  C   UNL     1      90.657  94.035  77.392  1.00  0.00     0.027 C 
BRANCH  17  18
ATOM     18  C   UNL     1      89.960  92.889  76.651  1.00  0.00     0.004 C 
BRANCH  18  19
ATOM     19  C   UNL     1      90.279  92.841  75.154  1.00  0.00     0.000 C 
BRANCH  19  20
ATOM     20  C   UNL     1      90.156  91.418  74.608  1.00  0.00    -0.003 C 
ATOM     21  C   UNL     1      89.587  90.469  75.651  1.00  0.00     0.004 C 
ENDBRANCH  19  20
ENDBRANCH  18  19
ENDBRANCH  17  18
ENDBRANCH   1  17
TORSDOF 10
ENDMDL
MODEL 3
REMARK VINA RESULT:    -5.842      2.660      6.257
REMARK INTER + INTRA:         -10.050
REMARK INTER:                  -8.904
REMARK INTRA:                  -1.146
REMARK UNBOUND:                -0.964
REMARK SMILES CCCCC/C=C/C(=O)CCc1ccc(O)c(OC)c1
REMARK SMILES IDX 6 1 7 2 8 3 9 4 10 5 11 6 12 7 17 8 20 9 15 10 14 11 13 12
REMARK SMILES IDX 18 13 19 14 16 15 5 17 4 18 3 19 2 20 1 21
REMARK H PARENT 16 16
REMARK Flexibility Score: inf
ROOT
ATOM      1  C   UNL     1      92.374  96.068  76.548  1.00  0.00    -0.023 C 
ATOM      2  C   UNL     1      93.192  95.646  75.576  1.00  0.00     0.043 C 
ENDROOT
BRANCH   2   3
ATOM      3  C   UNL     1      93.998  96.631  74.805  1.00  0.00     0.155 C 
ATOM      4  O   UNL     1      93.636  97.047  73.706  1.00  0.00    -0.295 OA
BRANCH   3   5
ATOM      5  C   UNL     1      95.316  97.057  75.421  1.00  0.00     0.085 C 
BRANCH   5   6
ATOM      6  C   UNL     1      95.151  98.321  76.266  1.00  0.00     0.044 C 
BRANCH   6   7
ATOM      7  C   UNL     1      95.509  98.107  77.718  1.00  0.00    -0.044 A 
ATOM      8  C   UNL     1      95.638  96.666  79.632  1.00  0.00     0.160 A 
ATOM      9  C   UNL     1      95.307  96.862  78.291  1.00  0.00     0.054 A 
ATOM     10  C   UNL     1      96.167  97.716  80.382  1.00  0.00     0.157 A 
ATOM     11  C   UNL     1      96.365  98.965  79.790  1.00  0.00     0.050 A 
ATOM     12  C   UNL     1      96.033  99.161  78.449  1.00  0.00     0.008 A 
BRANCH   8  13
ATOM     13  O   UNL     1      95.440  95.443  80.198  1.00  0.00    -0.493 OA
ATOM     14  C   UNL     1      95.033  94.385  79.332  1.00  0.00     0.278 C 
ENDBRANCH   8  13
BRANCH  10  15
ATOM     15  O   UNL     1      96.495  97.537  81.691  1.00  0.00    -0.504 OA
ATOM     16  H   UNL     1      97.236  98.129  81.905  1.00  0.00     0.293 HD
ENDBRANCH  10  15
ENDBRANCH   6   7
ENDBRANCH   5   6
ENDBRANCH   3   5
ENDBRANCH   2   3
BRANCH   1  17
ATOM     17  C   UNL     1      91.529  95.139  77.370  1.00  0.00     0.027 C 
BRANCH  17  18
ATOM     18  C   UNL     1      90.318  94.592  76.607  1.00  0.00     0.004 C 
BRANCH  18  19
ATOM     19  C   UNL     1      90.278  93.063  76.534  1.00  0.00     0.000 C 
BRANCH  19  20
ATOM     20  C   UNL     1      90.541  92.571  75.110  1.00  0.00    -0.003 C 
ATOM     21  C   UNL     1      90.083  93.586  74.076  1.00  0.00     0.004 C 
ENDBRANCH  19  20
ENDBRANCH  18  19
ENDBRANCH  17  18
ENDBRANCH   1  17
TORSDOF 10
ENDMDL
MODEL 4
REMARK VINA RESULT:    -5.658     13.098     15.414
REMARK INTER + INTRA:          -9.764
REMARK INTER:                  -9.059
REMARK INTRA:                  -0.705
REMARK UNBOUND:                -0.964
REMARK SMILES CCCCC/C=C/C(=O)CCc1ccc(O)c(OC)c1
REMARK SMILES IDX 6 1 7 2 8 3 9 4 10 5 11 6 12 7 17 8 20 9 15 10 14 11 13 12
REMARK SMILES IDX 18 13 19 14 16 15 5 17 4 18 3 19 2 20 1 21
REMARK H PARENT 16 16
REMARK Flexibility Score: inf
ROOT
ATOM      1  C   UNL     1      96.556  82.453  81.972  1.00  0.00    -0.023 C 
ATOM      2  C   UNL     1      96.793  82.824  83.237  1.00  0.00     0.043 C 
ENDROOT
BRANCH   2   3
ATOM      3  C   UNL     1      95.819  83.695  83.949  1.00  0.00     0.155 C 
ATOM      4  O   UNL     1      96.091  84.853  84.260  1.00  0.00    -0.295 OA
BRANCH   3   5
ATOM      5  C   UNL     1      94.491  83.063  84.319  1.00  0.00     0.085 C 
BRANCH   5   6
ATOM      6  C   UNL     1      94.670  81.607  84.751  1.00  0.00     0.044 C 
BRANCH   6   7
ATOM      7  C   UNL     1      93.395  80.804  84.651  1.00  0.00    -0.044 A 
ATOM      8  C   UNL     1      91.033  80.704  84.236  1.00  0.00     0.160 A 
ATOM      9  C   UNL     1      92.210  81.447  84.329  1.00  0.00     0.054 A 
ATOM     10  C   UNL     1      91.056  79.329  84.466  1.00  0.00     0.157 A 
ATOM     11  C   UNL     1      92.256  78.696  84.790  1.00  0.00     0.050 A 
ATOM     12  C   UNL     1      93.434  79.439  84.883  1.00  0.00     0.008 A 
BRANCH   8  13
ATOM     13  O   UNL     1      89.867  81.334  83.919  1.00  0.00    -0.493 OA
ATOM     14  C   UNL     1      89.166  81.974  84.984  1.00  0.00     0.278 C 
ENDBRANCH   8  13
BRANCH  10  15
ATOM     15  O   UNL     1      89.913  78.593  84.378  1.00  0.00    -0.504 OA
ATOM     16  H   UNL     1      89.157  79.204  84.357  1.00  0.00     0.293 HD
ENDBRANCH  10  15
ENDBRANCH   6   7
ENDBRANCH   5   6
ENDBRANCH   3   5
ENDBRANCH   2   3
BRANCH   1  17
ATOM     17  C   UNL     1      97.488  81.578  81.186  1.00  0.00     0.027 C 
BRANCH  17  18
ATOM     18  C   UNL     1      97.510  81.913  79.691  1.00  0.00     0.004 C 
BRANCH  18  19
ATOM     19  C   UNL     1      97.047  83.339  79.374  1.00  0.00     0.000 C 
BRANCH  19  20
ATOM     20  C   UNL     1      96.835  83.530  77.872  1.00  0.00    -0.003 C 
ATOM     21  C   UNL     1      97.495  82.419  77.071  1.00  0.00     0.004 C 
ENDBRANCH  19  20
ENDBRANCH  18  19
ENDBRANCH  17  18
ENDBRANCH   1  17
TORSDOF 10
ENDMDL
MODEL 5
REMARK VINA RESULT:    -5.589      2.715      6.061
REMARK INTER + INTRA:          -9.657
REMARK INTER:                  -8.864
REMARK INTRA:                  -0.793
REMARK UNBOUND:                -0.964
REMARK SMILES CCCCC/C=C/C(=O)CCc1ccc(O)c(OC)c1
REMARK SMILES IDX 6 1 7 2 8 3 9 4 10 5 11 6 12 7 17 8 20 9 15 10 14 11 13 12
REMARK SMILES IDX 18 13 19 14 16 15 5 17 4 18 3 19 2 20 1 21
REMARK H PARENT 16 16
REMARK Flexibility Score: inf
ROOT
ATOM      1  C   UNL     1      93.873  95.348  75.256  1.00  0.00    -0.023 C 
ATOM      2  C   UNL     1      93.566  96.323  74.391  1.00  0.00     0.043 C 
ENDROOT
BRANCH   2   3
ATOM      3  C   UNL     1      94.648  97.142  73.782  1.00  0.00     0.155 C 
ATOM      4  O   UNL     1      95.362  96.708  72.880  1.00  0.00    -0.295 OA
BRANCH   3   5
ATOM      5  C   UNL     1      94.861  98.525  74.367  1.00  0.00     0.085 C 
BRANCH   5   6
ATOM      6  C   UNL     1      94.354  98.602  75.808  1.00  0.00     0.044 C 
BRANCH   6   7
ATOM      7  C   UNL     1      95.363  98.098  76.813  1.00  0.00    -0.044 A 
ATOM      8  C   UNL     1      95.871  96.822  78.781  1.00  0.00     0.160 A 
ATOM      9  C   UNL     1      94.938  97.287  77.853  1.00  0.00     0.054 A 
ATOM     10  C   UNL     1      97.214  97.174  78.657  1.00  0.00     0.157 A 
ATOM     11  C   UNL     1      97.626  97.993  77.605  1.00  0.00     0.050 A 
ATOM     12  C   UNL     1      96.694  98.458  76.677  1.00  0.00     0.008 A 
BRANCH   8  13
ATOM     13  O   UNL     1      95.456  96.024  79.805  1.00  0.00    -0.493 OA
ATOM     14  C   UNL     1      94.943  94.739  79.458  1.00  0.00     0.278 C 
ENDBRANCH   8  13
BRANCH  10  15
ATOM     15  O   UNL     1      98.134  96.727  79.557  1.00  0.00    -0.504 OA
ATOM     16  H   UNL     1      97.761  96.824  80.449  1.00  0.00     0.293 HD
ENDBRANCH  10  15
ENDBRANCH   6   7
ENDBRANCH   5   6
ENDBRANCH   3   5
ENDBRANCH   2   3
BRANCH   1  17
ATOM     17  C   UNL     1      92.841  94.478  75.913  1.00  0.00     0.027 C 
BRANCH  17  18
ATOM     18  C   UNL     1      91.405  94.877  75.558  1.00  0.00     0.004 C 
BRANCH  18  19
ATOM     19  C   UNL     1      90.511  95.106  76.781  1.00  0.00     0.000 C 
BRANCH  19  20
ATOM     20  C   UNL     1      90.366  93.827  77.606  1.00  0.00    -0.003 C 
ATOM     21  C   UNL     1      89.953  92.649  76.739  1.00  0.00     0.004 C 
ENDBRANCH  19  20
ENDBRANCH  18  19
ENDBRANCH  17  18
ENDBRANCH   1  17
TORSDOF 10
ENDMDL
MODEL 6
REMARK VINA RESULT:    -5.520     13.632     16.659
REMARK INTER + INTRA:          -9.549
REMARK INTER:                  -8.625
REMARK INTRA:                  -0.924
REMARK UNBOUND:                -0.964
REMARK SMILES CCCCC/C=C/C(=O)CCc1ccc(O)c(OC)c1
REMARK SMILES IDX 6 1 7 2 8 3 9 4 10 5 11 6 12 7 17 8 20 9 15 10 14 11 13 12
REMARK SMILES IDX 18 13 19 14 16 15 5 17 4 18 3 19 2 20 1 21
REMARK H PARENT 16 16
REMARK Flexibility Score: inf
ROOT
ATOM      1  C   UNL     1      91.347  80.751  84.315  1.00  0.00    -0.023 C 
ATOM      2  C   UNL     1      91.343  79.412  84.299  1.00  0.00     0.043 C 
ENDROOT
BRANCH   2   3
ATOM      3  C   UNL     1      92.627  78.665  84.379  1.00  0.00     0.155 C 
ATOM      4  O   UNL     1      92.747  77.529  83.924  1.00  0.00    -0.295 OA
BRANCH   3   5
ATOM      5  C   UNL     1      93.768  79.357  85.099  1.00  0.00     0.085 C 
BRANCH   5   6
ATOM      6  C   UNL     1      95.003  79.469  84.205  1.00  0.00     0.044 C 
BRANCH   6   7
ATOM      7  C   UNL     1      95.342  80.897  83.847  1.00  0.00    -0.044 A 
ATOM      8  C   UNL     1      96.604  82.463  82.538  1.00  0.00     0.160 A 
ATOM      9  C   UNL     1      96.291  81.145  82.868  1.00  0.00     0.054 A 
ATOM     10  C   UNL     1      95.964  83.517  83.191  1.00  0.00     0.157 A 
ATOM     11  C   UNL     1      95.011  83.251  84.175  1.00  0.00     0.050 A 
ATOM     12  C   UNL     1      94.698  81.932  84.505  1.00  0.00     0.008 A 
BRANCH   8  13
ATOM     13  O   UNL     1      97.536  82.710  81.576  1.00  0.00    -0.493 OA
ATOM     14  C   UNL     1      97.068  82.832  80.235  1.00  0.00     0.278 C 
ENDBRANCH   8  13
BRANCH  10  15
ATOM     15  O   UNL     1      96.260  84.809  82.877  1.00  0.00    -0.504 OA
ATOM     16  H   UNL     1      97.226  84.918  82.913  1.00  0.00     0.293 HD
ENDBRANCH  10  15
ENDBRANCH   6   7
ENDBRANCH   5   6
ENDBRANCH   3   5
ENDBRANCH   2   3
BRANCH   1  17
ATOM     17  C   UNL     1      90.096  81.577  84.237  1.00  0.00     0.027 C 
BRANCH  17  18
ATOM     18  C   UNL     1      88.860  80.761  83.844  1.00  0.00     0.004 C 
BRANCH  18  19
ATOM     19  C   UNL     1      87.545  81.348  84.368  1.00  0.00     0.000 C 
BRANCH  19  20
ATOM     20  C   UNL     1      87.412  82.824  83.992  1.00  0.00    -0.003 C 
ATOM     21  C   UNL     1      86.643  83.601  85.049  1.00  0.00     0.004 C 
ENDBRANCH  19  20
ENDBRANCH  18  19
ENDBRANCH  17  18
ENDBRANCH   1  17
TORSDOF 10
ENDMDL
MODEL 7
REMARK VINA RESULT:    -5.449     14.006     17.112
REMARK INTER + INTRA:          -9.439
REMARK INTER:                  -8.364
REMARK INTRA:                  -1.075
REMARK UNBOUND:                -0.964
REMARK SMILES CCCCC/C=C/C(=O)CCc1ccc(O)c(OC)c1
REMARK SMILES IDX 6 1 7 2 8 3 9 4 10 5 11 6 12 7 17 8 20 9 15 10 14 11 13 12
REMARK SMILES IDX 18 13 19 14 16 15 5 17 4 18 3 19 2 20 1 21
REMARK H PARENT 16 16
REMARK Flexibility Score: inf
ROOT
ATOM      1  C   UNL     1      89.699  79.279  84.004  1.00  0.00    -0.023 C 
ATOM      2  C   UNL     1      90.190  78.055  84.234  1.00  0.00     0.043 C 
ENDROOT
BRANCH   2   3
ATOM      3  C   UNL     1      91.662  77.850  84.312  1.00  0.00     0.155 C 
ATOM      4  O   UNL     1      92.232  76.983  83.653  1.00  0.00    -0.295 OA
BRANCH   3   5
ATOM      5  C   UNL     1      92.417  78.731  85.288  1.00  0.00     0.085 C 
BRANCH   5   6
ATOM      6  C   UNL     1      93.576  79.455  84.601  1.00  0.00     0.044 C 
BRANCH   6   7
ATOM      7  C   UNL     1      93.497  80.956  84.742  1.00  0.00    -0.044 A 
ATOM      8  C   UNL     1      94.443  83.128  84.359  1.00  0.00     0.160 A 
ATOM      9  C   UNL     1      94.517  81.741  84.229  1.00  0.00     0.054 A 
ATOM     10  C   UNL     1      93.351  83.712  85.000  1.00  0.00     0.157 A 
ATOM     11  C   UNL     1      92.332  82.908  85.512  1.00  0.00     0.050 A 
ATOM     12  C   UNL     1      92.406  81.521  85.382  1.00  0.00     0.008 A 
BRANCH   8  13
ATOM     13  O   UNL     1      95.445  83.902  83.855  1.00  0.00    -0.493 OA
ATOM     14  C   UNL     1      96.437  84.357  84.774  1.00  0.00     0.278 C 
ENDBRANCH   8  13
BRANCH  10  15
ATOM     15  O   UNL     1      93.268  85.065  85.133  1.00  0.00    -0.504 OA
ATOM     16  H   UNL     1      93.752  85.475  84.396  1.00  0.00     0.293 HD
ENDBRANCH  10  15
ENDBRANCH   6   7
ENDBRANCH   5   6
ENDBRANCH   3   5
ENDBRANCH   2   3
BRANCH   1  17
ATOM     17  C   UNL     1      88.229  79.568  83.910  1.00  0.00     0.027 C 
BRANCH  17  18
ATOM     18  C   UNL     1      87.780  80.707  84.833  1.00  0.00     0.004 C 
BRANCH  18  19
ATOM     19  C   UNL     1      88.586  81.997  84.653  1.00  0.00     0.000 C 
BRANCH  19  20
ATOM     20  C   UNL     1      87.722  83.109  84.057  1.00  0.00    -0.003 C 
ATOM     21  C   UNL     1      87.130  83.996  85.141  1.00  0.00     0.004 C 
ENDBRANCH  19  20
ENDBRANCH  18  19
ENDBRANCH  17  18
ENDBRANCH   1  17
TORSDOF 10
ENDMDL
MODEL 8
REMARK VINA RESULT:    -5.251     13.334     16.249
REMARK INTER + INTRA:          -9.131
REMARK INTER:                  -8.269
REMARK INTRA:                  -0.862
REMARK UNBOUND:                -0.964
REMARK SMILES CCCCC/C=C/C(=O)CCc1ccc(O)c(OC)c1
REMARK SMILES IDX 6 1 7 2 8 3 9 4 10 5 11 6 12 7 17 8 20 9 15 10 14 11 13 12
REMARK SMILES IDX 18 13 19 14 16 15 5 17 4 18 3 19 2 20 1 21
REMARK H PARENT 16 16
REMARK Flexibility Score: inf
ROOT
ATOM      1  C   UNL     1      92.402  80.460  84.977  1.00  0.00    -0.023 C 
ATOM      2  C   UNL     1      92.847  81.721  85.040  1.00  0.00     0.043 C 
ENDROOT
BRANCH   2   3
ATOM      3  C   UNL     1      94.043  82.045  85.865  1.00  0.00     0.155 C 
ATOM      4  O   UNL     1      93.945  82.406  87.036  1.00  0.00    -0.295 OA
BRANCH   3   5
ATOM      5  C   UNL     1      95.387  81.958  85.169  1.00  0.00     0.085 C 
BRANCH   5   6
ATOM      6  C   UNL     1      95.405  82.793  83.888  1.00  0.00     0.044 C 
BRANCH   6   7
ATOM      7  C   UNL     1      96.123  82.107  82.750  1.00  0.00    -0.044 A 
ATOM      8  C   UNL     1      97.303  82.236  80.664  1.00  0.00     0.160 A 
ATOM      9  C   UNL     1      96.639  82.870  81.715  1.00  0.00     0.054 A 
ATOM     10  C   UNL     1      97.442  80.849  80.662  1.00  0.00     0.157 A 
ATOM     11  C   UNL     1      96.916  80.094  81.712  1.00  0.00     0.050 A 
ATOM     12  C   UNL     1      96.252  80.728  82.762  1.00  0.00     0.008 A 
BRANCH   8  13
ATOM     13  O   UNL     1      97.812  82.984  79.645  1.00  0.00    -0.493 OA
ATOM     14  C   UNL     1      96.880  83.526  78.711  1.00  0.00     0.278 C 
ENDBRANCH   8  13
BRANCH  10  15
ATOM     15  O   UNL     1      98.088  80.218  79.643  1.00  0.00    -0.504 OA
ATOM     16  H   UNL     1      98.312  79.317  79.933  1.00  0.00     0.293 HD
ENDBRANCH  10  15
ENDBRANCH   6   7
ENDBRANCH   5   6
ENDBRANCH   3   5
ENDBRANCH   2   3
BRANCH   1  17
ATOM     17  C   UNL     1      91.204  80.053  84.170  1.00  0.00     0.027 C 
BRANCH  17  18
ATOM     18  C   UNL     1      90.307  81.234  83.784  1.00  0.00     0.004 C 
BRANCH  18  19
ATOM     19  C   UNL     1      89.122  81.440  84.733  1.00  0.00     0.000 C 
BRANCH  19  20
ATOM     20  C   UNL     1      87.802  81.494  83.963  1.00  0.00    -0.003 C 
ATOM     21  C   UNL     1      87.512  80.177  83.262  1.00  0.00     0.004 C 
ENDBRANCH  19  20
ENDBRANCH  18  19
ENDBRANCH  17  18
ENDBRANCH   1  17
TORSDOF 10
ENDMDL
MODEL 9
REMARK VINA RESULT:    -5.246     13.310     15.817
REMARK INTER + INTRA:          -9.123
REMARK INTER:                  -8.296
REMARK INTRA:                  -0.827
REMARK UNBOUND:                -0.964
REMARK SMILES CCCCC/C=C/C(=O)CCc1ccc(O)c(OC)c1
REMARK SMILES IDX 6 1 7 2 8 3 9 4 10 5 11 6 12 7 17 8 20 9 15 10 14 11 13 12
REMARK SMILES IDX 18 13 19 14 16 15 5 17 4 18 3 19 2 20 1 21
REMARK H PARENT 16 16
REMARK Flexibility Score: inf
ROOT
ATOM      1  C   UNL     1      92.792  82.408  85.260  1.00  0.00    -0.023 C 
ATOM      2  C   UNL     1      93.709  82.055  84.351  1.00  0.00     0.043 C 
ENDROOT
BRANCH   2   3
ATOM      3  C   UNL     1      95.057  82.686  84.374  1.00  0.00     0.155 C 
ATOM      4  O   UNL     1      95.660  82.890  85.426  1.00  0.00    -0.295 OA
BRANCH   3   5
ATOM      5  C   UNL     1      95.626  83.115  83.036  1.00  0.00     0.085 C 
BRANCH   5   6
ATOM      6  C   UNL     1      96.878  82.310  82.681  1.00  0.00     0.044 C 
BRANCH   6   7
ATOM      7  C   UNL     1      97.124  82.232  81.193  1.00  0.00    -0.044 A 
ATOM      8  C   UNL     1      97.825  80.980  79.270  1.00  0.00     0.160 A 
ATOM      9  C   UNL     1      97.598  81.052  80.644  1.00  0.00     0.054 A 
ATOM     10  C   UNL     1      97.575  82.089  78.462  1.00  0.00     0.157 A 
ATOM     11  C   UNL     1      97.098  83.272  79.030  1.00  0.00     0.050 A 
ATOM     12  C   UNL     1      96.871  83.343  80.405  1.00  0.00     0.008 A 
BRANCH   8  13
ATOM     13  O   UNL     1      98.291  79.820  78.727  1.00  0.00    -0.493 OA
ATOM     14  C   UNL     1      97.804  78.602  79.286  1.00  0.00     0.278 C 
ENDBRANCH   8  13
BRANCH  10  15
ATOM     15  O   UNL     1      97.792  82.032  77.119  1.00  0.00    -0.504 OA
ATOM     16  H   UNL     1      97.565  81.138  76.811  1.00  0.00     0.293 HD
ENDBRANCH  10  15
ENDBRANCH   6   7
ENDBRANCH   5   6
ENDBRANCH   3   5
ENDBRANCH   2   3
BRANCH   1  17
ATOM     17  C   UNL     1      91.411  81.820  85.303  1.00  0.00     0.027 C 
BRANCH  17  18
ATOM     18  C   UNL     1      90.824  81.560  83.912  1.00  0.00     0.004 C 
BRANCH  18  19
ATOM     19  C   UNL     1      90.541  80.081  83.631  1.00  0.00     0.000 C 
BRANCH  19  20
ATOM     20  C   UNL     1      91.191  79.185  84.686  1.00  0.00    -0.003 C 
ATOM     21  C   UNL     1      92.224  78.256  84.068  1.00  0.00     0.004 C 
ENDBRANCH  19  20
ENDBRANCH  18  19
ENDBRANCH  17  18
ENDBRANCH   1  17
TORSDOF 10
ENDMDL
MODEL 10
REMARK VINA RESULT:    -5.183     12.717     15.579
REMARK INTER + INTRA:          -9.026
REMARK INTER:                  -8.179
REMARK INTRA:                  -0.847
REMARK UNBOUND:                -0.964
REMARK SMILES CCCCC/C=C/C(=O)CCc1ccc(O)c(OC)c1
REMARK SMILES IDX 6 1 7 2 8 3 9 4 10 5 11 6 12 7 17 8 20 9 15 10 14 11 13 12
REMARK SMILES IDX 18 13 19 14 16 15 5 17 4 18 3 19 2 20 1 21
REMARK H PARENT 16 16
REMARK Flexibility Score: inf
ROOT
ATOM      1  C   UNL     1      94.078  84.353  86.868  1.00  0.00    -0.023 C 
ATOM      2  C   UNL     1      93.303  84.924  87.798  1.00  0.00     0.043 C 
ENDROOT
BRANCH   2   3
ATOM      3  C   UNL     1      93.770  84.999  89.209  1.00  0.00     0.155 C 
ATOM      4  O   UNL     1      94.207  84.014  89.801  1.00  0.00    -0.295 OA
BRANCH   3   5
ATOM      5  C   UNL     1      93.630  86.342  89.897  1.00  0.00     0.085 C 
BRANCH   5   6
ATOM      6  C   UNL     1      92.634  87.242  89.163  1.00  0.00     0.044 C 
BRANCH   6   7
ATOM      7  C   UNL     1      93.205  88.600  88.829  1.00  0.00    -0.044 A 
ATOM      8  C   UNL     1      93.254  90.973  89.184  1.00  0.00     0.160 A 
ATOM      9  C   UNL     1      92.726  89.719  89.492  1.00  0.00     0.054 A 
ATOM     10  C   UNL     1      94.252  91.092  88.218  1.00  0.00     0.157 A 
ATOM     11  C   UNL     1      94.723  89.956  87.559  1.00  0.00     0.050 A 
ATOM     12  C   UNL     1      94.195  88.702  87.867  1.00  0.00     0.008 A 
BRANCH   8  13
ATOM     13  O   UNL     1      92.785  92.074  89.835  1.00  0.00    -0.493 OA
ATOM     14  C   UNL     1      93.142  92.218  91.208  1.00  0.00     0.278 C 
ENDBRANCH   8  13
BRANCH  10  15
ATOM     15  O   UNL     1      94.775  92.311  87.909  1.00  0.00    -0.504 OA
ATOM     16  H   UNL     1      94.145  92.776  87.332  1.00  0.00     0.293 HD
ENDBRANCH  10  15
ENDBRANCH   6   7
ENDBRANCH   5   6
ENDBRANCH   3   5
ENDBRANCH   2   3
BRANCH   1  17
ATOM     17  C   UNL     1      93.679  84.238  85.425  1.00  0.00     0.027 C 
BRANCH  17  18
ATOM     18  C   UNL     1      93.745  82.801  84.895  1.00  0.00     0.004 C 
BRANCH  18  19
ATOM     19  C   UNL     1      92.544  81.942  85.302  1.00  0.00     0.000 C 
BRANCH  19  20
ATOM     20  C   UNL     1      91.525  81.845  84.166  1.00  0.00    -0.003 C 
ATOM     21  C   UNL     1      90.099  81.882  84.692  1.00  0.00     0.004 C 
ENDBRANCH  19  20
ENDBRANCH  18  19
ENDBRANCH  17  18
ENDBRANCH   1  17
TORSDOF 10
ENDMDL
