MODEL 1
REMARK VINA RESULT:    -6.309      0.000      0.000
REMARK INTER + INTRA:         -10.808
REMARK INTER:                 -10.181
REMARK INTRA:                  -0.627
REMARK UNBOUND:                -0.627
REMARK SMILES COc1cc(CNC(=O)CCCCC/C=C/C(C)C)ccc1O
REMARK SMILES IDX 11 1 10 2 8 3 7 4 9 6 6 7 5 8 3 9 22 10 4 11 21 12 20 13
REMARK SMILES IDX 2 14 1 15 23 16 12 18 13 19 14 20 15 21 16 22 17 23 18 24
REMARK SMILES IDX 19 25
REMARK H PARENT 7 5 23 17
REMARK Flexibility Score: inf
ROOT
ATOM      1  C   UNL     1      93.961  99.155  74.355  1.00  0.00     0.010 C 
ENDROOT
BRANCH   1   2
ATOM      2  C   UNL     1      92.564  99.759  74.061  1.00  0.00     0.100 C 
BRANCH   2   3
ATOM      3  C   UNL     1      92.426 100.317  72.703  1.00  0.00     0.220 C 
ATOM      4  N   UNL     1      91.204 100.720  72.256  1.00  0.00    -0.352 N 
ATOM      5  H   UNL     1      90.440 100.530  72.890  1.00  0.00     0.163 HD
ATOM      6  O   UNL     1      93.458 100.445  72.003  1.00  0.00    -0.275 OA
BRANCH   4   7
ATOM      7  C   UNL     1      90.947 101.362  71.008  1.00  0.00     0.151 C 
BRANCH   7   8
ATOM      8  C   UNL     1      90.060 100.562  70.125  1.00  0.00    -0.025 A 
ATOM      9  C   UNL     1      88.948  98.439  69.571  1.00  0.00     0.160 A 
ATOM     10  C   UNL     1      88.410  99.026  68.405  1.00  0.00     0.157 A 
ATOM     11  C   UNL     1      89.775  99.207  70.416  1.00  0.00     0.056 A 
ATOM     12  C   UNL     1      88.672 100.377  68.115  1.00  0.00     0.050 A 
ATOM     13  C   UNL     1      89.483 101.143  68.974  1.00  0.00     0.009 A 
BRANCH   9  14
ATOM     14  O   UNL     1      88.628  97.151  69.909  1.00  0.00    -0.493 OA
ATOM     15  C   UNL     1      89.447  96.156  69.273  1.00  0.00     0.278 C 
ENDBRANCH   9  14
BRANCH  10  16
ATOM     16  O   UNL     1      87.633  98.314  67.551  1.00  0.00    -0.504 OA
ATOM     17  H   UNL     1      87.981  98.394  66.659  1.00  0.00     0.293 HD
ENDBRANCH  10  16
ENDBRANCH   7   8
ENDBRANCH   4   7
ENDBRANCH   2   3
ENDBRANCH   1   2
BRANCH   1  18
ATOM     18  C   UNL     1      93.988  98.457  75.739  1.00  0.00     0.001 C 
BRANCH  18  19
ATOM     19  C   UNL     1      94.025  96.910  75.656  1.00  0.00     0.004 C 
BRANCH  19  20
ATOM     20  C   UNL     1      93.676  96.260  77.024  1.00  0.00     0.027 C 
BRANCH  20  21
ATOM     21  C   UNL     1      92.469  95.452  76.997  1.00  0.00    -0.031 C 
ATOM     22  C   UNL     1      91.437  95.674  77.830  1.00  0.00    -0.028 C 
BRANCH  22  23
ATOM     23  C   UNL     1      90.208  94.884  77.824  1.00  0.00     0.005 C 
ATOM     24  C   UNL     1      89.704  94.684  76.370  1.00  0.00     0.012 C 
ATOM     25  C   UNL     1      90.434  93.536  78.561  1.00  0.00     0.012 C 
ENDBRANCH  22  23
ENDBRANCH  20  21
ENDBRANCH  19  20
ENDBRANCH  18  19
ENDBRANCH   1  18
TORSDOF 11
ENDMDL
MODEL 2
REMARK VINA RESULT:    -6.087     18.862     21.789
REMARK INTER + INTRA:         -10.451
REMARK INTER:                  -9.312
REMARK INTRA:                  -1.139
REMARK UNBOUND:                -0.627
REMARK SMILES COc1cc(CNC(=O)CCCCC/C=C/C(C)C)ccc1O
REMARK SMILES IDX 11 1 10 2 8 3 7 4 9 6 6 7 5 8 3 9 22 10 4 11 21 12 20 13
REMARK SMILES IDX 2 14 1 15 23 16 12 18 13 19 14 20 15 21 16 22 17 23 18 24
REMARK SMILES IDX 19 25
REMARK H PARENT 7 5 23 17
REMARK Flexibility Score: inf
ROOT
ATOM      1  C   UNL     1      78.320  86.330  68.143  1.00  0.00     0.010 C 
ENDROOT
BRANCH   1   2
ATOM      2  C   UNL     1      77.124  86.899  67.337  1.00  0.00     0.100 C 
BRANCH   2   3
ATOM      3  C   UNL     1      76.910  86.240  66.035  1.00  0.00     0.220 C 
ATOM      4  N   UNL     1      77.253  84.932  65.873  1.00  0.00    -0.352 N 
ATOM      5  H   UNL     1      77.715  84.515  66.670  1.00  0.00     0.163 HD
ATOM      6  O   UNL     1      76.373  86.900  65.115  1.00  0.00    -0.275 OA
BRANCH   4   7
ATOM      7  C   UNL     1      77.012  84.150  64.704  1.00  0.00     0.151 C 
BRANCH   7   8
ATOM      8  C   UNL     1      75.879  83.203  64.873  1.00  0.00    -0.025 A 
ATOM      9  C   UNL     1      73.475  82.703  64.735  1.00  0.00     0.160 A 
ATOM     10  C   UNL     1      73.716  81.410  65.248  1.00  0.00     0.157 A 
ATOM     11  C   UNL     1      74.555  83.592  64.560  1.00  0.00     0.056 A 
ATOM     12  C   UNL     1      75.030  81.007  65.546  1.00  0.00     0.050 A 
ATOM     13  C   UNL     1      76.105  81.893  65.350  1.00  0.00     0.009 A 
BRANCH   9  14
ATOM     14  O   UNL     1      72.212  83.075  64.358  1.00  0.00    -0.493 OA
ATOM     15  C   UNL     1      71.953  82.938  62.951  1.00  0.00     0.278 C 
ENDBRANCH   9  14
BRANCH  10  16
ATOM     16  O   UNL     1      72.701  80.535  65.457  1.00  0.00    -0.504 OA
ATOM     17  H   UNL     1      72.802  79.782  64.870  1.00  0.00     0.293 HD
ENDBRANCH  10  16
ENDBRANCH   7   8
ENDBRANCH   4   7
ENDBRANCH   2   3
ENDBRANCH   1   2
BRANCH   1  18
ATOM     18  C   UNL     1      77.872  85.856  69.550  1.00  0.00     0.001 C 
BRANCH  18  19
ATOM     19  C   UNL     1      76.819  84.721  69.519  1.00  0.00     0.004 C 
BRANCH  19  20
ATOM     20  C   UNL     1      75.679  84.976  70.545  1.00  0.00     0.027 C 
BRANCH  20  21
ATOM     21  C   UNL     1      74.912  86.180  70.278  1.00  0.00    -0.031 C 
ATOM     22  C   UNL     1      75.219  87.366  70.831  1.00  0.00    -0.028 C 
BRANCH  22  23
ATOM     23  C   UNL     1      74.471  88.596  70.579  1.00  0.00     0.005 C 
ATOM     24  C   UNL     1      73.302  88.731  71.591  1.00  0.00     0.012 C 
ATOM     25  C   UNL     1      75.425  89.821  70.613  1.00  0.00     0.012 C 
ENDBRANCH  22  23
ENDBRANCH  20  21
ENDBRANCH  19  20
ENDBRANCH  18  19
ENDBRANCH   1  18
TORSDOF 11
ENDMDL
MODEL 3
REMARK VINA RESULT:    -6.086     19.005     21.582
REMARK INTER + INTRA:         -10.449
REMARK INTER:                  -8.895
REMARK INTRA:                  -1.554
REMARK UNBOUND:                -0.627
REMARK SMILES COc1cc(CNC(=O)CCCCC/C=C/C(C)C)ccc1O
REMARK SMILES IDX 11 1 10 2 8 3 7 4 9 6 6 7 5 8 3 9 22 10 4 11 21 12 20 13
REMARK SMILES IDX 2 14 1 15 23 16 12 18 13 19 14 20 15 21 16 22 17 23 18 24
REMARK SMILES IDX 19 25
REMARK H PARENT 7 5 23 17
REMARK Flexibility Score: inf
ROOT
ATOM      1  C   UNL     1      75.796  88.600  66.794  1.00  0.00     0.010 C 
ENDROOT
BRANCH   1   2
ATOM      2  C   UNL     1      77.058  87.700  66.810  1.00  0.00     0.100 C 
BRANCH   2   3
ATOM      3  C   UNL     1      77.109  86.717  65.711  1.00  0.00     0.220 C 
ATOM      4  N   UNL     1      77.288  85.397  65.991  1.00  0.00    -0.352 N 
ATOM      5  H   UNL     1      77.451  85.191  66.967  1.00  0.00     0.163 HD
ATOM      6  O   UNL     1      76.943  87.127  64.538  1.00  0.00    -0.275 OA
BRANCH   4   7
ATOM      7  C   UNL     1      77.260  84.336  65.037  1.00  0.00     0.151 C 
BRANCH   7   8
ATOM      8  C   UNL     1      76.097  83.429  65.224  1.00  0.00    -0.025 A 
ATOM      9  C   UNL     1      73.693  83.092  65.618  1.00  0.00     0.160 A 
ATOM     10  C   UNL     1      73.893  81.695  65.634  1.00  0.00     0.157 A 
ATOM     11  C   UNL     1      74.796  83.948  65.422  1.00  0.00     0.056 A 
ATOM     12  C   UNL     1      75.179  81.167  65.421  1.00  0.00     0.050 A 
ATOM     13  C   UNL     1      76.272  82.028  65.207  1.00  0.00     0.009 A 
BRANCH   9  14
ATOM     14  O   UNL     1      72.432  83.613  65.736  1.00  0.00    -0.493 OA
ATOM     15  C   UNL     1      72.132  84.135  67.042  1.00  0.00     0.278 C 
ENDBRANCH   9  14
BRANCH  10  16
ATOM     16  O   UNL     1      72.863  80.838  65.847  1.00  0.00    -0.504 OA
ATOM     17  H   UNL     1      73.200  79.941  65.906  1.00  0.00     0.293 HD
ENDBRANCH  10  16
ENDBRANCH   7   8
ENDBRANCH   4   7
ENDBRANCH   2   3
ENDBRANCH   1   2
BRANCH   1  18
ATOM     18  C   UNL     1      74.902  88.333  68.032  1.00  0.00     0.001 C 
BRANCH  18  19
ATOM     19  C   UNL     1      75.468  88.923  69.348  1.00  0.00     0.004 C 
BRANCH  19  20
ATOM     20  C   UNL     1      75.032  88.081  70.580  1.00  0.00     0.027 C 
BRANCH  20  21
ATOM     21  C   UNL     1      75.240  86.653  70.416  1.00  0.00    -0.031 C 
ATOM     22  C   UNL     1      76.467  86.101  70.410  1.00  0.00    -0.028 C 
BRANCH  22  23
ATOM     23  C   UNL     1      76.709  84.669  70.252  1.00  0.00     0.005 C 
ATOM     24  C   UNL     1      76.127  83.889  71.461  1.00  0.00     0.012 C 
ATOM     25  C   UNL     1      76.133  84.173  68.898  1.00  0.00     0.012 C 
ENDBRANCH  22  23
ENDBRANCH  20  21
ENDBRANCH  19  20
ENDBRANCH  18  19
ENDBRANCH   1  18
TORSDOF 11
ENDMDL
MODEL 4
REMARK VINA RESULT:    -6.041     19.659     22.560
REMARK INTER + INTRA:         -10.376
REMARK INTER:                  -9.555
REMARK INTRA:                  -0.821
REMARK UNBOUND:                -0.627
REMARK SMILES COc1cc(CNC(=O)CCCCC/C=C/C(C)C)ccc1O
REMARK SMILES IDX 11 1 10 2 8 3 7 4 9 6 6 7 5 8 3 9 22 10 4 11 21 12 20 13
REMARK SMILES IDX 2 14 1 15 23 16 12 18 13 19 14 20 15 21 16 22 17 23 18 24
REMARK SMILES IDX 19 25
REMARK H PARENT 7 5 23 17
REMARK Flexibility Score: inf
ROOT
ATOM      1  C   UNL     1      78.326  85.072  68.019  1.00  0.00     0.010 C 
ENDROOT
BRANCH   1   2
ATOM      2  C   UNL     1      77.760  84.432  66.725  1.00  0.00     0.100 C 
BRANCH   2   3
ATOM      3  C   UNL     1      76.736  83.399  66.965  1.00  0.00     0.220 C 
ATOM      4  N   UNL     1      76.571  82.387  66.069  1.00  0.00    -0.352 N 
ATOM      5  H   UNL     1      77.138  82.464  65.237  1.00  0.00     0.163 HD
ATOM      6  O   UNL     1      76.064  83.460  68.023  1.00  0.00    -0.275 OA
BRANCH   4   7
ATOM      7  C   UNL     1      75.689  81.276  66.226  1.00  0.00     0.151 C 
BRANCH   7   8
ATOM      8  C   UNL     1      74.396  81.467  65.520  1.00  0.00    -0.025 A 
ATOM      9  C   UNL     1      72.071  82.269  65.500  1.00  0.00     0.160 A 
ATOM     10  C   UNL     1      71.915  81.781  64.184  1.00  0.00     0.157 A 
ATOM     11  C   UNL     1      73.306  82.101  66.160  1.00  0.00     0.056 A 
ATOM     12  C   UNL     1      72.998  81.164  63.531  1.00  0.00     0.050 A 
ATOM     13  C   UNL     1      74.233  81.018  64.190  1.00  0.00     0.009 A 
BRANCH   9  14
ATOM     14  O   UNL     1      71.052  82.949  66.112  1.00  0.00    -0.493 OA
ATOM     15  C   UNL     1      71.431  83.601  67.335  1.00  0.00     0.278 C 
ENDBRANCH   9  14
BRANCH  10  16
ATOM     16  O   UNL     1      70.735  81.897  63.524  1.00  0.00    -0.504 OA
ATOM     17  H   UNL     1      70.329  82.739  63.743  1.00  0.00     0.293 HD
ENDBRANCH  10  16
ENDBRANCH   7   8
ENDBRANCH   4   7
ENDBRANCH   2   3
ENDBRANCH   1   2
BRANCH   1  18
ATOM     18  C   UNL     1      78.206  86.617  67.978  1.00  0.00     0.001 C 
BRANCH  18  19
ATOM     19  C   UNL     1      76.786  87.141  68.311  1.00  0.00     0.004 C 
BRANCH  19  20
ATOM     20  C   UNL     1      76.557  87.220  69.847  1.00  0.00     0.027 C 
BRANCH  20  21
ATOM     21  C   UNL     1      75.784  88.377  70.264  1.00  0.00    -0.031 C 
ATOM     22  C   UNL     1      74.607  88.263  70.903  1.00  0.00    -0.028 C 
BRANCH  22  23
ATOM     23  C   UNL     1      73.809  89.406  71.340  1.00  0.00     0.005 C 
ATOM     24  C   UNL     1      72.946  89.021  72.571  1.00  0.00     0.012 C 
ATOM     25  C   UNL     1      74.728  90.626  71.622  1.00  0.00     0.012 C 
ENDBRANCH  22  23
ENDBRANCH  20  21
ENDBRANCH  19  20
ENDBRANCH  18  19
ENDBRANCH   1  18
TORSDOF 11
ENDMDL
MODEL 5
REMARK VINA RESULT:    -5.952     29.674     32.068
REMARK INTER + INTRA:         -10.232
REMARK INTER:                  -9.069
REMARK INTRA:                  -1.163
REMARK UNBOUND:                -0.627
REMARK SMILES COc1cc(CNC(=O)CCCCC/C=C/C(C)C)ccc1O
REMARK SMILES IDX 11 1 10 2 8 3 7 4 9 6 6 7 5 8 3 9 22 10 4 11 21 12 20 13
REMARK SMILES IDX 2 14 1 15 23 16 12 18 13 19 14 20 15 21 16 22 17 23 18 24
REMARK SMILES IDX 19 25
REMARK H PARENT 7 5 23 17
REMARK Flexibility Score: inf
ROOT
ATOM      1  C   UNL     1      64.817  81.835  71.673  1.00  0.00     0.010 C 
ENDROOT
BRANCH   1   2
ATOM      2  C   UNL     1      64.763  81.809  70.124  1.00  0.00     0.100 C 
BRANCH   2   3
ATOM      3  C   UNL     1      63.555  82.436  69.555  1.00  0.00     0.220 C 
ATOM      4  N   UNL     1      63.285  83.745  69.813  1.00  0.00    -0.352 N 
ATOM      5  H   UNL     1      63.922  84.187  70.462  1.00  0.00     0.163 HD
ATOM      6  O   UNL     1      62.823  81.746  68.806  1.00  0.00    -0.275 OA
BRANCH   4   7
ATOM      7  C   UNL     1      62.210  84.497  69.252  1.00  0.00     0.151 C 
BRANCH   7   8
ATOM      8  C   UNL     1      61.250  84.977  70.279  1.00  0.00    -0.025 A 
ATOM      9  C   UNL     1      60.797  86.073  72.433  1.00  0.00     0.160 A 
ATOM     10  C   UNL     1      59.415  85.842  72.259  1.00  0.00     0.157 A 
ATOM     11  C   UNL     1      61.703  85.632  71.448  1.00  0.00     0.056 A 
ATOM     12  C   UNL     1      58.951  85.207  71.092  1.00  0.00     0.050 A 
ATOM     13  C   UNL     1      59.861  84.787  70.104  1.00  0.00     0.009 A 
BRANCH   9  14
ATOM     14  O   UNL     1      61.251  86.768  73.523  1.00  0.00    -0.493 OA
ATOM     15  C   UNL     1      62.505  86.293  74.041  1.00  0.00     0.278 C 
ENDBRANCH   9  14
BRANCH  10  16
ATOM     16  O   UNL     1      58.513  86.226  73.197  1.00  0.00    -0.504 OA
ATOM     17  H   UNL     1      58.816  87.032  73.621  1.00  0.00     0.293 HD
ENDBRANCH  10  16
ENDBRANCH   7   8
ENDBRANCH   4   7
ENDBRANCH   2   3
ENDBRANCH   1   2
BRANCH   1  18
ATOM     18  C   UNL     1      63.451  81.437  72.288  1.00  0.00     0.001 C 
BRANCH  18  19
ATOM     19  C   UNL     1      63.501  81.200  73.818  1.00  0.00     0.004 C 
BRANCH  19  20
ATOM     20  C   UNL     1      62.495  82.118  74.567  1.00  0.00     0.027 C 
BRANCH  20  21
ATOM     21  C   UNL     1      63.095  82.880  75.650  1.00  0.00    -0.031 C 
ATOM     22  C   UNL     1      64.426  82.973  75.812  1.00  0.00    -0.028 C 
BRANCH  22  23
ATOM     23  C   UNL     1      65.059  83.735  76.885  1.00  0.00     0.005 C 
ATOM     24  C   UNL     1      66.326  84.459  76.356  1.00  0.00     0.012 C 
ATOM     25  C   UNL     1      64.039  84.720  77.519  1.00  0.00     0.012 C 
ENDBRANCH  22  23
ENDBRANCH  20  21
ENDBRANCH  19  20
ENDBRANCH  18  19
ENDBRANCH   1  18
TORSDOF 11
ENDMDL
MODEL 6
REMARK VINA RESULT:    -5.938      1.882      2.580
REMARK INTER + INTRA:         -10.209
REMARK INTER:                  -9.549
REMARK INTRA:                  -0.661
REMARK UNBOUND:                -0.627
REMARK SMILES COc1cc(CNC(=O)CCCCC/C=C/C(C)C)ccc1O
REMARK SMILES IDX 11 1 10 2 8 3 7 4 9 6 6 7 5 8 3 9 22 10 4 11 21 12 20 13
REMARK SMILES IDX 2 14 1 15 23 16 12 18 13 19 14 20 15 21 16 22 17 23 18 24
REMARK SMILES IDX 19 25
REMARK H PARENT 7 5 23 17
REMARK Flexibility Score: inf
ROOT
ATOM      1  C   UNL     1      94.444  98.710  74.778  1.00  0.00     0.010 C 
ENDROOT
BRANCH   1   2
ATOM      2  C   UNL     1      93.028  99.293  74.534  1.00  0.00     0.100 C 
BRANCH   2   3
ATOM      3  C   UNL     1      92.894 100.034  73.266  1.00  0.00     0.220 C 
ATOM      4  N   UNL     1      91.667 100.459  72.855  1.00  0.00    -0.352 N 
ATOM      5  H   UNL     1      90.900 100.159  73.440  1.00  0.00     0.163 HD
ATOM      6  O   UNL     1      93.934 100.291  72.614  1.00  0.00    -0.275 OA
BRANCH   4   7
ATOM      7  C   UNL     1      91.410 101.265  71.707  1.00  0.00     0.151 C 
BRANCH   7   8
ATOM      8  C   UNL     1      90.473 100.619  70.752  1.00  0.00    -0.025 A 
ATOM      9  C   UNL     1      89.204  98.648  70.008  1.00  0.00     0.160 A 
ATOM     10  C   UNL     1      88.726  99.376  68.897  1.00  0.00     0.157 A 
ATOM     11  C   UNL     1      90.080  99.271  70.921  1.00  0.00     0.056 A 
ATOM     12  C   UNL     1      89.097 100.723  68.728  1.00  0.00     0.050 A 
ATOM     13  C   UNL     1      89.956 101.343  69.655  1.00  0.00     0.009 A 
BRANCH   9  14
ATOM     14  O   UNL     1      88.780  97.364  70.229  1.00  0.00    -0.493 OA
ATOM     15  C   UNL     1      89.747  96.358  69.884  1.00  0.00     0.278 C 
ENDBRANCH   9  14
BRANCH  10  16
ATOM     16  O   UNL     1      87.905  98.805  67.980  1.00  0.00    -0.504 OA
ATOM     17  H   UNL     1      87.368  99.485  67.565  1.00  0.00     0.293 HD
ENDBRANCH  10  16
ENDBRANCH   7   8
ENDBRANCH   4   7
ENDBRANCH   2   3
ENDBRANCH   1   2
BRANCH   1  18
ATOM     18  C   UNL     1      94.456  97.766  76.007  1.00  0.00     0.001 C 
BRANCH  18  19
ATOM     19  C   UNL     1      94.454  96.261  75.637  1.00  0.00     0.004 C 
BRANCH  19  20
ATOM     20  C   UNL     1      93.831  95.400  76.771  1.00  0.00     0.027 C 
BRANCH  20  21
ATOM     21  C   UNL     1      94.665  95.304  77.957  1.00  0.00    -0.031 C 
ATOM     22  C   UNL     1      95.000  94.123  78.507  1.00  0.00    -0.028 C 
BRANCH  22  23
ATOM     23  C   UNL     1      95.840  93.993  79.695  1.00  0.00     0.005 C 
ATOM     24  C   UNL     1      96.320  95.390  80.170  1.00  0.00     0.012 C 
ATOM     25  C   UNL     1      95.081  93.220  80.807  1.00  0.00     0.012 C 
ENDBRANCH  22  23
ENDBRANCH  20  21
ENDBRANCH  19  20
ENDBRANCH  18  19
ENDBRANCH   1  18
TORSDOF 11
ENDMDL
MODEL 7
REMARK VINA RESULT:    -5.891     22.097     25.092
REMARK INTER + INTRA:         -10.134
REMARK INTER:                  -9.113
REMARK INTRA:                  -1.021
REMARK UNBOUND:                -0.627
REMARK SMILES COc1cc(CNC(=O)CCCCC/C=C/C(C)C)ccc1O
REMARK SMILES IDX 11 1 10 2 8 3 7 4 9 6 6 7 5 8 3 9 22 10 4 11 21 12 20 13
REMARK SMILES IDX 2 14 1 15 23 16 12 18 13 19 14 20 15 21 16 22 17 23 18 24
REMARK SMILES IDX 19 25
REMARK H PARENT 7 5 23 17
REMARK Flexibility Score: inf
ROOT
ATOM      1  C   UNL     1      74.219  81.894  66.043  1.00  0.00     0.010 C 
ENDROOT
BRANCH   1   2
ATOM      2  C   UNL     1      73.481  80.992  65.020  1.00  0.00     0.100 C 
BRANCH   2   3
ATOM      3  C   UNL     1      72.103  81.424  64.724  1.00  0.00     0.220 C 
ATOM      4  N   UNL     1      71.442  82.232  65.599  1.00  0.00    -0.352 N 
ATOM      5  H   UNL     1      71.943  82.424  66.456  1.00  0.00     0.163 HD
ATOM      6  O   UNL     1      71.585  81.063  63.640  1.00  0.00    -0.275 OA
BRANCH   4   7
ATOM      7  C   UNL     1      70.150  82.798  65.392  1.00  0.00     0.151 C 
BRANCH   7   8
ATOM      8  C   UNL     1      69.429  83.062  66.664  1.00  0.00    -0.025 A 
ATOM      9  C   UNL     1      69.401  83.161  69.122  1.00  0.00     0.160 A 
ATOM     10  C   UNL     1      68.034  83.513  69.091  1.00  0.00     0.157 A 
ATOM     11  C   UNL     1      70.085  82.929  67.911  1.00  0.00     0.056 A 
ATOM     12  C   UNL     1      67.376  83.664  67.856  1.00  0.00     0.050 A 
ATOM     13  C   UNL     1      68.071  83.451  66.651  1.00  0.00     0.009 A 
BRANCH   9  14
ATOM     14  O   UNL     1      70.073  83.096  70.314  1.00  0.00    -0.493 OA
ATOM     15  C   UNL     1      70.780  84.300  70.655  1.00  0.00     0.278 C 
ENDBRANCH   9  14
BRANCH  10  16
ATOM     16  O   UNL     1      67.332  83.717  70.234  1.00  0.00    -0.504 OA
ATOM     17  H   UNL     1      66.422  83.932  70.016  1.00  0.00     0.293 HD
ENDBRANCH  10  16
ENDBRANCH   7   8
ENDBRANCH   4   7
ENDBRANCH   2   3
ENDBRANCH   1   2
BRANCH   1  18
ATOM     18  C   UNL     1      75.662  81.388  66.296  1.00  0.00     0.001 C 
BRANCH  18  19
ATOM     19  C   UNL     1      76.737  82.502  66.212  1.00  0.00     0.004 C 
BRANCH  19  20
ATOM     20  C   UNL     1      76.105  83.913  66.377  1.00  0.00     0.027 C 
BRANCH  20  21
ATOM     21  C   UNL     1      76.500  84.591  67.599  1.00  0.00    -0.031 C 
ATOM     22  C   UNL     1      76.828  83.922  68.719  1.00  0.00    -0.028 C 
BRANCH  22  23
ATOM     23  C   UNL     1      77.234  84.574  69.962  1.00  0.00     0.005 C 
ATOM     24  C   UNL     1      77.287  86.113  69.769  1.00  0.00     0.012 C 
ATOM     25  C   UNL     1      76.288  84.157  71.121  1.00  0.00     0.012 C 
ENDBRANCH  22  23
ENDBRANCH  20  21
ENDBRANCH  19  20
ENDBRANCH  18  19
ENDBRANCH   1  18
TORSDOF 11
ENDMDL
MODEL 8
REMARK VINA RESULT:    -5.889     22.349     25.428
REMARK INTER + INTRA:         -10.130
REMARK INTER:                  -9.502
REMARK INTRA:                  -0.628
REMARK UNBOUND:                -0.627
REMARK SMILES COc1cc(CNC(=O)CCCCC/C=C/C(C)C)ccc1O
REMARK SMILES IDX 11 1 10 2 8 3 7 4 9 6 6 7 5 8 3 9 22 10 4 11 21 12 20 13
REMARK SMILES IDX 2 14 1 15 23 16 12 18 13 19 14 20 15 21 16 22 17 23 18 24
REMARK SMILES IDX 19 25
REMARK H PARENT 7 5 23 17
REMARK Flexibility Score: inf
ROOT
ATOM      1  C   UNL     1      71.255  83.042  66.992  1.00  0.00     0.010 C 
ENDROOT
BRANCH   1   2
ATOM      2  C   UNL     1      71.486  82.219  65.699  1.00  0.00     0.100 C 
BRANCH   2   3
ATOM      3  C   UNL     1      72.855  81.688  65.562  1.00  0.00     0.220 C 
ATOM      4  N   UNL     1      73.880  82.272  66.242  1.00  0.00    -0.352 N 
ATOM      5  H   UNL     1      73.625  83.104  66.755  1.00  0.00     0.163 HD
ATOM      6  O   UNL     1      73.032  80.675  64.844  1.00  0.00    -0.275 OA
BRANCH   4   7
ATOM      7  C   UNL     1      75.227  81.802  66.276  1.00  0.00     0.151 C 
BRANCH   7   8
ATOM      8  C   UNL     1      76.155  82.773  66.911  1.00  0.00    -0.025 A 
ATOM      9  C   UNL     1      76.628  84.462  68.635  1.00  0.00     0.160 A 
ATOM     10  C   UNL     1      77.913  84.662  68.086  1.00  0.00     0.157 A 
ATOM     11  C   UNL     1      75.757  83.527  68.040  1.00  0.00     0.056 A 
ATOM     12  C   UNL     1      78.326  83.906  66.974  1.00  0.00     0.050 A 
ATOM     13  C   UNL     1      77.458  82.960  66.397  1.00  0.00     0.009 A 
BRANCH   9  14
ATOM     14  O   UNL     1      76.248  85.130  69.769  1.00  0.00    -0.493 OA
ATOM     15  C   UNL     1      76.147  84.296  70.936  1.00  0.00     0.278 C 
ENDBRANCH   9  14
BRANCH  10  16
ATOM     16  O   UNL     1      78.771  85.573  68.612  1.00  0.00    -0.504 OA
ATOM     17  H   UNL     1      79.420  85.820  67.948  1.00  0.00     0.293 HD
ENDBRANCH  10  16
ENDBRANCH   7   8
ENDBRANCH   4   7
ENDBRANCH   2   3
ENDBRANCH   1   2
BRANCH   1  18
ATOM     18  C   UNL     1      70.061  82.481  67.806  1.00  0.00     0.001 C 
BRANCH  18  19
ATOM     19  C   UNL     1      68.874  83.468  67.932  1.00  0.00     0.004 C 
BRANCH  19  20
ATOM     20  C   UNL     1      68.376  83.572  69.401  1.00  0.00     0.027 C 
BRANCH  20  21
ATOM     21  C   UNL     1      66.933  83.469  69.538  1.00  0.00    -0.031 C 
ATOM     22  C   UNL     1      66.351  82.595  70.377  1.00  0.00    -0.028 C 
BRANCH  22  23
ATOM     23  C   UNL     1      64.905  82.470  70.541  1.00  0.00     0.005 C 
ATOM     24  C   UNL     1      64.255  81.964  69.225  1.00  0.00     0.012 C 
ATOM     25  C   UNL     1      64.578  81.553  71.751  1.00  0.00     0.012 C 
ENDBRANCH  22  23
ENDBRANCH  20  21
ENDBRANCH  19  20
ENDBRANCH  18  19
ENDBRANCH   1  18
TORSDOF 11
ENDMDL
MODEL 9
REMARK VINA RESULT:    -5.865     15.801     18.363
REMARK INTER + INTRA:         -10.093
REMARK INTER:                  -9.228
REMARK INTRA:                  -0.865
REMARK UNBOUND:                -0.627
REMARK SMILES COc1cc(CNC(=O)CCCCC/C=C/C(C)C)ccc1O
REMARK SMILES IDX 11 1 10 2 8 3 7 4 9 6 6 7 5 8 3 9 22 10 4 11 21 12 20 13
REMARK SMILES IDX 2 14 1 15 23 16 12 18 13 19 14 20 15 21 16 22 17 23 18 24
REMARK SMILES IDX 19 25
REMARK H PARENT 7 5 23 17
REMARK Flexibility Score: inf
ROOT
ATOM      1  C   UNL     1      74.357  92.095  71.468  1.00  0.00     0.010 C 
ENDROOT
BRANCH   1   2
ATOM      2  C   UNL     1      73.886  91.195  72.640  1.00  0.00     0.100 C 
BRANCH   2   3
ATOM      3  C   UNL     1      73.498  89.832  72.231  1.00  0.00     0.220 C 
ATOM      4  N   UNL     1      74.189  89.197  71.245  1.00  0.00    -0.352 N 
ATOM      5  H   UNL     1      74.902  89.759  70.801  1.00  0.00     0.163 HD
ATOM      6  O   UNL     1      72.553  89.275  72.839  1.00  0.00    -0.275 OA
BRANCH   4   7
ATOM      7  C   UNL     1      73.982  87.850  70.822  1.00  0.00     0.151 C 
BRANCH   7   8
ATOM      8  C   UNL     1      75.215  87.225  70.277  1.00  0.00    -0.025 A 
ATOM      9  C   UNL     1      76.449  85.235  69.526  1.00  0.00     0.160 A 
ATOM     10  C   UNL     1      77.589  86.033  69.287  1.00  0.00     0.157 A 
ATOM     11  C   UNL     1      75.275  85.835  70.027  1.00  0.00     0.056 A 
ATOM     12  C   UNL     1      77.535  87.420  69.516  1.00  0.00     0.050 A 
ATOM     13  C   UNL     1      76.353  88.014  69.997  1.00  0.00     0.009 A 
BRANCH   9  14
ATOM     14  O   UNL     1      76.462  83.899  69.224  1.00  0.00    -0.493 OA
ATOM     15  C   UNL     1      76.098  83.600  67.866  1.00  0.00     0.278 C 
ENDBRANCH   9  14
BRANCH  10  16
ATOM     16  O   UNL     1      78.746  85.490  68.832  1.00  0.00    -0.504 OA
ATOM     17  H   UNL     1      79.411  86.178  68.752  1.00  0.00     0.293 HD
ENDBRANCH  10  16
ENDBRANCH   7   8
ENDBRANCH   4   7
ENDBRANCH   2   3
ENDBRANCH   1   2
BRANCH   1  18
ATOM     18  C   UNL     1      75.879  91.940  71.219  1.00  0.00     0.001 C 
BRANCH  18  19
ATOM     19  C   UNL     1      76.722  93.121  71.761  1.00  0.00     0.004 C 
BRANCH  19  20
ATOM     20  C   UNL     1      77.865  92.623  72.690  1.00  0.00     0.027 C 
BRANCH  20  21
ATOM     21  C   UNL     1      77.810  93.175  74.033  1.00  0.00    -0.031 C 
ATOM     22  C   UNL     1      76.656  93.299  74.712  1.00  0.00    -0.028 C 
BRANCH  22  23
ATOM     23  C   UNL     1      76.567  93.845  76.064  1.00  0.00     0.005 C 
ATOM     24  C   UNL     1      75.709  92.917  76.964  1.00  0.00     0.012 C 
ATOM     25  C   UNL     1      77.989  94.077  76.644  1.00  0.00     0.012 C 
ENDBRANCH  22  23
ENDBRANCH  20  21
ENDBRANCH  19  20
ENDBRANCH  18  19
ENDBRANCH   1  18
TORSDOF 11
ENDMDL
MODEL 10
REMARK VINA RESULT:    -5.718     19.300     22.593
REMARK INTER + INTRA:          -9.855
REMARK INTER:                  -8.081
REMARK INTRA:                  -1.774
REMARK UNBOUND:                -0.627
REMARK SMILES COc1cc(CNC(=O)CCCCC/C=C/C(C)C)ccc1O
REMARK SMILES IDX 11 1 10 2 8 3 7 4 9 6 6 7 5 8 3 9 22 10 4 11 21 12 20 13
REMARK SMILES IDX 2 14 1 15 23 16 12 18 13 19 14 20 15 21 16 22 17 23 18 24
REMARK SMILES IDX 19 25
REMARK H PARENT 7 5 23 17
REMARK Flexibility Score: inf
ROOT
ATOM      1  C   UNL     1      77.181  83.692  64.515  1.00  0.00     0.010 C 
ENDROOT
BRANCH   1   2
ATOM      2  C   UNL     1      76.176  82.629  64.001  1.00  0.00     0.100 C 
BRANCH   2   3
ATOM      3  C   UNL     1      75.119  82.283  64.970  1.00  0.00     0.220 C 
ATOM      4  N   UNL     1      74.095  83.152  65.194  1.00  0.00    -0.352 N 
ATOM      5  H   UNL     1      74.178  84.036  64.712  1.00  0.00     0.163 HD
ATOM      6  O   UNL     1      75.174  81.166  65.537  1.00  0.00    -0.275 OA
BRANCH   4   7
ATOM      7  C   UNL     1      72.963  82.902  66.027  1.00  0.00     0.151 C 
BRANCH   7   8
ATOM      8  C   UNL     1      72.835  83.891  67.129  1.00  0.00    -0.025 A 
ATOM      9  C   UNL     1      71.507  84.942  68.913  1.00  0.00     0.160 A 
ATOM     10  C   UNL     1      72.579  85.817  69.194  1.00  0.00     0.157 A 
ATOM     11  C   UNL     1      71.640  83.993  67.878  1.00  0.00     0.056 A 
ATOM     12  C   UNL     1      73.779  85.713  68.467  1.00  0.00     0.050 A 
ATOM     13  C   UNL     1      73.910  84.750  67.449  1.00  0.00     0.009 A 
BRANCH   9  14
ATOM     14  O   UNL     1      70.368  84.976  69.672  1.00  0.00    -0.493 OA
ATOM     15  C   UNL     1      70.326  83.986  70.713  1.00  0.00     0.278 C 
ENDBRANCH   9  14
BRANCH  10  16
ATOM     16  O   UNL     1      72.482  86.762  70.162  1.00  0.00    -0.504 OA
ATOM     17  H   UNL     1      71.659  87.246  70.055  1.00  0.00     0.293 HD
ENDBRANCH  10  16
ENDBRANCH   7   8
ENDBRANCH   4   7
ENDBRANCH   2   3
ENDBRANCH   1   2
BRANCH   1  18
ATOM     18  C   UNL     1      76.975  85.050  63.797  1.00  0.00     0.001 C 
BRANCH  18  19
ATOM     19  C   UNL     1      76.181  86.084  64.635  1.00  0.00     0.004 C 
BRANCH  19  20
ATOM     20  C   UNL     1      77.130  86.982  65.476  1.00  0.00     0.027 C 
BRANCH  20  21
ATOM     21  C   UNL     1      76.919  86.874  66.909  1.00  0.00    -0.031 C 
ATOM     22  C   UNL     1      77.925  86.993  67.795  1.00  0.00    -0.028 C 
BRANCH  22  23
ATOM     23  C   UNL     1      77.745  86.895  69.241  1.00  0.00     0.005 C 
ATOM     24  C   UNL     1      76.575  87.805  69.701  1.00  0.00     0.012 C 
ATOM     25  C   UNL     1      77.538  85.413  69.657  1.00  0.00     0.012 C 
ENDBRANCH  22  23
ENDBRANCH  20  21
ENDBRANCH  19  20
ENDBRANCH  18  19
ENDBRANCH   1  18
TORSDOF 11
ENDMDL
