MODEL 1
REMARK VINA RESULT:    -6.332      0.000      0.000
REMARK INTER + INTRA:         -10.620
REMARK INTER:                  -9.849
REMARK INTRA:                  -0.772
REMARK UNBOUND:                -0.772
REMARK SMILES COc1cc(CNC(=O)CCCC/C=C/C(C)C)ccc1O
REMARK SMILES IDX 10 1 8 2 7 3 9 5 6 6 5 7 3 8 21 9 4 10 20 11 19 12 2 13 1 14
REMARK SMILES IDX 22 15 11 17 12 18 13 19 14 20 15 21 16 22 17 23 18 24
REMARK H PARENT 7 4 22 16
REMARK Flexibility Score: inf
ROOT
ATOM      1  C   UNL     1      94.171  93.243  79.114  1.00  0.00     0.100 C 
ENDROOT
BRANCH   1   2
ATOM      2  C   UNL     1      95.339  94.142  79.187  1.00  0.00     0.220 C 
ATOM      3  N   UNL     1      95.491  95.153  78.286  1.00  0.00    -0.352 N 
ATOM      4  H   UNL     1      94.769  95.207  77.580  1.00  0.00     0.163 HD
ATOM      5  O   UNL     1      96.168  93.963  80.111  1.00  0.00    -0.275 OA
BRANCH   3   6
ATOM      6  C   UNL     1      96.564  96.095  78.290  1.00  0.00     0.151 C 
BRANCH   6   7
ATOM      7  C   UNL     1      96.883  96.566  76.914  1.00  0.00    -0.025 A 
ATOM      8  C   UNL     1      96.163  97.048  74.609  1.00  0.00     0.160 A 
ATOM      9  C   UNL     1      97.468  97.480  74.291  1.00  0.00     0.157 A 
ATOM     10  C   UNL     1      95.884  96.594  75.915  1.00  0.00     0.056 A 
ATOM     11  C   UNL     1      98.479  97.439  75.272  1.00  0.00     0.050 A 
ATOM     12  C   UNL     1      98.187  96.995  76.576  1.00  0.00     0.009 A 
BRANCH   8  13
ATOM     13  O   UNL     1      95.191  97.024  73.641  1.00  0.00    -0.493 OA
ATOM     14  C   UNL     1      93.892  97.436  74.103  1.00  0.00     0.278 C 
ENDBRANCH   8  13
BRANCH   9  15
ATOM     15  O   UNL     1      97.767  97.935  73.048  1.00  0.00    -0.504 OA
ATOM     16  H   UNL     1      98.645  97.637  72.799  1.00  0.00     0.293 HD
ENDBRANCH   9  15
ENDBRANCH   6   7
ENDBRANCH   3   6
ENDBRANCH   1   2
BRANCH   1  17
ATOM     17  C   UNL     1      93.415  93.396  77.767  1.00  0.00     0.010 C 
BRANCH  17  18
ATOM     18  C   UNL     1      91.994  94.005  77.937  1.00  0.00     0.005 C 
BRANCH  18  19
ATOM     19  C   UNL     1      90.872  93.000  77.560  1.00  0.00     0.027 C 
BRANCH  19  20
ATOM     20  C   UNL     1      91.089  92.402  76.252  1.00  0.00    -0.031 C 
ATOM     21  C   UNL     1      90.472  91.287  75.818  1.00  0.00    -0.028 C 
BRANCH  21  22
ATOM     22  C   UNL     1      90.692  90.714  74.491  1.00  0.00     0.005 C 
ATOM     23  C   UNL     1      90.869  89.171  74.537  1.00  0.00     0.012 C 
ATOM     24  C   UNL     1      89.533  91.109  73.538  1.00  0.00     0.012 C 
ENDBRANCH  21  22
ENDBRANCH  19  20
ENDBRANCH  18  19
ENDBRANCH  17  18
ENDBRANCH   1  17
TORSDOF 10
ENDMDL
MODEL 2
REMARK VINA RESULT:    -5.993      3.655      7.445
REMARK INTER + INTRA:         -10.093
REMARK INTER:                  -9.542
REMARK INTRA:                  -0.551
REMARK UNBOUND:                -0.772
REMARK SMILES COc1cc(CNC(=O)CCCC/C=C/C(C)C)ccc1O
REMARK SMILES IDX 10 1 8 2 7 3 9 5 6 6 5 7 3 8 21 9 4 10 20 11 19 12 2 13 1 14
REMARK SMILES IDX 22 15 11 17 12 18 13 19 14 20 15 21 16 22 17 23 18 24
REMARK H PARENT 7 4 22 16
REMARK Flexibility Score: inf
ROOT
ATOM      1  C   UNL     1      95.339  98.584  74.350  1.00  0.00     0.100 C 
ENDROOT
BRANCH   1   2
ATOM      2  C   UNL     1      95.422  97.114  74.247  1.00  0.00     0.220 C 
ATOM      3  N   UNL     1      94.433  96.328  74.757  1.00  0.00    -0.352 N 
ATOM      4  H   UNL     1      93.683  96.829  75.214  1.00  0.00     0.163 HD
ATOM      5  O   UNL     1      96.413  96.617  73.659  1.00  0.00    -0.275 OA
BRANCH   3   6
ATOM      6  C   UNL     1      94.403  94.903  74.680  1.00  0.00     0.151 C 
BRANCH   6   7
ATOM      7  C   UNL     1      94.142  94.290  76.011  1.00  0.00    -0.025 A 
ATOM      8  C   UNL     1      92.552  93.448  77.693  1.00  0.00     0.160 A 
ATOM      9  C   UNL     1      93.627  93.103  78.538  1.00  0.00     0.157 A 
ATOM     10  C   UNL     1      92.819  94.040  76.440  1.00  0.00     0.056 A 
ATOM     11  C   UNL     1      94.951  93.364  78.132  1.00  0.00     0.050 A 
ATOM     12  C   UNL     1      95.208  93.944  76.874  1.00  0.00     0.009 A 
BRANCH   8  13
ATOM     13  O   UNL     1      91.260  93.257  78.111  1.00  0.00    -0.493 OA
ATOM     14  C   UNL     1      90.456  92.486  77.198  1.00  0.00     0.278 C 
ENDBRANCH   8  13
BRANCH   9  15
ATOM     15  O   UNL     1      93.405  92.521  79.744  1.00  0.00    -0.504 OA
ATOM     16  H   UNL     1      94.109  92.761  80.351  1.00  0.00     0.293 HD
ENDBRANCH   9  15
ENDBRANCH   6   7
ENDBRANCH   3   6
ENDBRANCH   1   2
BRANCH   1  17
ATOM     17  C   UNL     1      94.778  99.219  73.049  1.00  0.00     0.010 C 
BRANCH  17  18
ATOM     18  C   UNL     1      93.225  99.291  73.032  1.00  0.00     0.005 C 
BRANCH  18  19
ATOM     19  C   UNL     1      92.682 100.012  71.769  1.00  0.00     0.027 C 
BRANCH  19  20
ATOM     20  C   UNL     1      91.496  99.360  71.235  1.00  0.00    -0.031 C 
ATOM     21  C   UNL     1      90.701  99.893  70.289  1.00  0.00    -0.028 C 
BRANCH  21  22
ATOM     22  C   UNL     1      89.524  99.211  69.752  1.00  0.00     0.005 C 
ATOM     23  C   UNL     1      88.923  99.950  68.524  1.00  0.00     0.012 C 
ATOM     24  C   UNL     1      89.872  97.742  69.396  1.00  0.00     0.012 C 
ENDBRANCH  21  22
ENDBRANCH  19  20
ENDBRANCH  18  19
ENDBRANCH  17  18
ENDBRANCH   1  17
TORSDOF 10
ENDMDL
MODEL 3
REMARK VINA RESULT:    -5.859     12.530     15.031
REMARK INTER + INTRA:          -9.884
REMARK INTER:                  -9.151
REMARK INTRA:                  -0.733
REMARK UNBOUND:                -0.772
REMARK SMILES COc1cc(CNC(=O)CCCC/C=C/C(C)C)ccc1O
REMARK SMILES IDX 10 1 8 2 7 3 9 5 6 6 5 7 3 8 21 9 4 10 20 11 19 12 2 13 1 14
REMARK SMILES IDX 22 15 11 17 12 18 13 19 14 20 15 21 16 22 17 23 18 24
REMARK H PARENT 7 4 22 16
REMARK Flexibility Score: inf
ROOT
ATOM      1  C   UNL     1      96.167  82.316  77.739  1.00  0.00     0.100 C 
ENDROOT
BRANCH   1   2
ATOM      2  C   UNL     1      96.236  82.856  76.368  1.00  0.00     0.220 C 
ATOM      3  N   UNL     1      97.009  82.250  75.424  1.00  0.00    -0.352 N 
ATOM      4  H   UNL     1      97.526  81.445  75.749  1.00  0.00     0.163 HD
ATOM      5  O   UNL     1      95.546  83.869  76.095  1.00  0.00    -0.275 OA
BRANCH   3   6
ATOM      6  C   UNL     1      97.118  82.674  74.064  1.00  0.00     0.151 C 
BRANCH   6   7
ATOM      7  C   UNL     1      97.551  81.559  73.178  1.00  0.00    -0.025 A 
ATOM      8  C   UNL     1      99.308  80.446  71.861  1.00  0.00     0.160 A 
ATOM      9  C   UNL     1      98.398  79.431  71.502  1.00  0.00     0.157 A 
ATOM     10  C   UNL     1      98.877  81.500  72.693  1.00  0.00     0.056 A 
ATOM     11  C   UNL     1      97.067  79.486  71.962  1.00  0.00     0.050 A 
ATOM     12  C   UNL     1      96.648  80.537  72.802  1.00  0.00     0.009 A 
BRANCH   8  13
ATOM     13  O   UNL     1     100.586  80.431  71.363  1.00  0.00    -0.493 OA
ATOM     14  C   UNL     1     101.605  80.658  72.353  1.00  0.00     0.278 C 
ENDBRANCH   8  13
BRANCH   9  15
ATOM     15  O   UNL     1      98.785  78.394  70.714  1.00  0.00    -0.504 OA
ATOM     16  H   UNL     1      98.066  77.762  70.640  1.00  0.00     0.293 HD
ENDBRANCH   9  15
ENDBRANCH   6   7
ENDBRANCH   3   6
ENDBRANCH   1   2
BRANCH   1  17
ATOM     17  C   UNL     1      97.569  81.899  78.261  1.00  0.00     0.010 C 
BRANCH  17  18
ATOM     18  C   UNL     1      97.527  80.630  79.158  1.00  0.00     0.005 C 
BRANCH  18  19
ATOM     19  C   UNL     1      98.194  80.863  80.541  1.00  0.00     0.027 C 
BRANCH  19  20
ATOM     20  C   UNL     1      97.216  81.147  81.580  1.00  0.00    -0.031 C 
ATOM     21  C   UNL     1      96.639  82.349  81.767  1.00  0.00    -0.028 C 
BRANCH  21  22
ATOM     22  C   UNL     1      95.643  82.607  82.806  1.00  0.00     0.005 C 
ATOM     23  C   UNL     1      95.509  81.422  83.802  1.00  0.00     0.012 C 
ATOM     24  C   UNL     1      95.978  83.924  83.554  1.00  0.00     0.012 C 
ENDBRANCH  21  22
ENDBRANCH  19  20
ENDBRANCH  18  19
ENDBRANCH  17  18
ENDBRANCH   1  17
TORSDOF 10
ENDMDL
MODEL 4
REMARK VINA RESULT:    -5.775     24.694     29.621
REMARK INTER + INTRA:          -9.754
REMARK INTER:                  -8.546
REMARK INTRA:                  -1.209
REMARK UNBOUND:                -0.772
REMARK SMILES COc1cc(CNC(=O)CCCC/C=C/C(C)C)ccc1O
REMARK SMILES IDX 10 1 8 2 7 3 9 5 6 6 5 7 3 8 21 9 4 10 20 11 19 12 2 13 1 14
REMARK SMILES IDX 22 15 11 17 12 18 13 19 14 20 15 21 16 22 17 23 18 24
REMARK H PARENT 7 4 22 16
REMARK Flexibility Score: inf
ROOT
ATOM      1  C   UNL     1      82.000  65.480  76.368  1.00  0.00     0.100 C 
ENDROOT
BRANCH   1   2
ATOM      2  C   UNL     1      83.293  65.852  75.763  1.00  0.00     0.220 C 
ATOM      3  N   UNL     1      83.736  67.139  75.818  1.00  0.00    -0.352 N 
ATOM      4  H   UNL     1      83.108  67.788  76.272  1.00  0.00     0.163 HD
ATOM      5  O   UNL     1      83.976  64.949  75.223  1.00  0.00    -0.275 OA
BRANCH   3   6
ATOM      6  C   UNL     1      84.984  67.595  75.294  1.00  0.00     0.151 C 
BRANCH   6   7
ATOM      7  C   UNL     1      84.789  68.531  74.153  1.00  0.00    -0.025 A 
ATOM      8  C   UNL     1      85.228  70.704  73.083  1.00  0.00     0.160 A 
ATOM      9  C   UNL     1      84.442  70.319  71.977  1.00  0.00     0.157 A 
ATOM     10  C   UNL     1      85.392  69.808  74.160  1.00  0.00     0.056 A 
ATOM     11  C   UNL     1      83.818  69.056  71.964  1.00  0.00     0.050 A 
ATOM     12  C   UNL     1      83.997  68.164  73.039  1.00  0.00     0.009 A 
BRANCH   8  13
ATOM     13  O   UNL     1      85.783  71.958  73.129  1.00  0.00    -0.493 OA
ATOM     14  C   UNL     1      85.750  72.566  74.433  1.00  0.00     0.278 C 
ENDBRANCH   8  13
BRANCH   9  15
ATOM     15  O   UNL     1      84.275  71.153  70.917  1.00  0.00    -0.504 OA
ATOM     16  H   UNL     1      84.006  70.644  70.149  1.00  0.00     0.293 HD
ENDBRANCH   9  15
ENDBRANCH   6   7
ENDBRANCH   3   6
ENDBRANCH   1   2
BRANCH   1  17
ATOM     17  C   UNL     1      81.332  64.301  75.609  1.00  0.00     0.010 C 
BRANCH  17  18
ATOM     18  C   UNL     1      80.168  64.758  74.685  1.00  0.00     0.005 C 
BRANCH  18  19
ATOM     19  C   UNL     1      80.561  65.971  73.798  1.00  0.00     0.027 C 
BRANCH  19  20
ATOM     20  C   UNL     1      81.212  65.558  72.564  1.00  0.00    -0.031 C 
ATOM     21  C   UNL     1      80.879  66.016  71.343  1.00  0.00    -0.028 C 
BRANCH  21  22
ATOM     22  C   UNL     1      81.560  65.602  70.117  1.00  0.00     0.005 C 
ATOM     23  C   UNL     1      82.543  64.423  70.359  1.00  0.00     0.012 C 
ATOM     24  C   UNL     1      80.523  65.242  69.022  1.00  0.00     0.012 C 
ENDBRANCH  21  22
ENDBRANCH  19  20
ENDBRANCH  18  19
ENDBRANCH  17  18
ENDBRANCH   1  17
TORSDOF 10
ENDMDL
MODEL 5
REMARK VINA RESULT:    -5.768     21.800     24.885
REMARK INTER + INTRA:          -9.743
REMARK INTER:                  -8.171
REMARK INTRA:                  -1.572
REMARK UNBOUND:                -0.772
REMARK SMILES COc1cc(CNC(=O)CCCC/C=C/C(C)C)ccc1O
REMARK SMILES IDX 10 1 8 2 7 3 9 5 6 6 5 7 3 8 21 9 4 10 20 11 19 12 2 13 1 14
REMARK SMILES IDX 22 15 11 17 12 18 13 19 14 20 15 21 16 22 17 23 18 24
REMARK H PARENT 7 4 22 16
REMARK Flexibility Score: inf
ROOT
ATOM      1  C   UNL     1      70.869  83.194  65.051  1.00  0.00     0.100 C 
ENDROOT
BRANCH   1   2
ATOM      2  C   UNL     1      70.962  84.034  66.261  1.00  0.00     0.220 C 
ATOM      3  N   UNL     1      72.106  84.718  66.542  1.00  0.00    -0.352 N 
ATOM      4  H   UNL     1      72.859  84.580  65.881  1.00  0.00     0.163 HD
ATOM      5  O   UNL     1      69.954  84.115  67.004  1.00  0.00    -0.275 OA
BRANCH   3   6
ATOM      6  C   UNL     1      72.286  85.580  67.666  1.00  0.00     0.151 C 
BRANCH   6   7
ATOM      7  C   UNL     1      73.671  86.122  67.723  1.00  0.00    -0.025 A 
ATOM      8  C   UNL     1      75.323  87.816  67.044  1.00  0.00     0.160 A 
ATOM      9  C   UNL     1      76.301  87.181  67.836  1.00  0.00     0.157 A 
ATOM     10  C   UNL     1      74.019  87.281  66.993  1.00  0.00     0.056 A 
ATOM     11  C   UNL     1      75.974  86.013  68.554  1.00  0.00     0.050 A 
ATOM     12  C   UNL     1      74.666  85.493  68.506  1.00  0.00     0.009 A 
BRANCH   8  13
ATOM     13  O   UNL     1      75.654  88.915  66.292  1.00  0.00    -0.493 OA
ATOM     14  C   UNL     1      76.092  88.601  64.957  1.00  0.00     0.278 C 
ENDBRANCH   8  13
BRANCH   9  15
ATOM     15  O   UNL     1      77.562  87.678  67.917  1.00  0.00    -0.504 OA
ATOM     16  H   UNL     1      78.186  87.026  67.590  1.00  0.00     0.293 HD
ENDBRANCH   9  15
ENDBRANCH   6   7
ENDBRANCH   3   6
ENDBRANCH   1   2
BRANCH   1  17
ATOM     17  C   UNL     1      71.284  81.726  65.339  1.00  0.00     0.010 C 
BRANCH  17  18
ATOM     18  C   UNL     1      72.636  81.338  64.679  1.00  0.00     0.005 C 
BRANCH  18  19
ATOM     19  C   UNL     1      73.805  81.307  65.700  1.00  0.00     0.027 C 
BRANCH  19  20
ATOM     20  C   UNL     1      74.646  82.491  65.606  1.00  0.00    -0.031 C 
ATOM     21  C   UNL     1      75.949  82.468  65.272  1.00  0.00    -0.028 C 
BRANCH  21  22
ATOM     22  C   UNL     1      76.771  83.673  65.164  1.00  0.00     0.005 C 
ATOM     23  C   UNL     1      75.935  84.924  64.776  1.00  0.00     0.012 C 
ATOM     24  C   UNL     1      77.545  83.914  66.487  1.00  0.00     0.012 C 
ENDBRANCH  21  22
ENDBRANCH  19  20
ENDBRANCH  18  19
ENDBRANCH  17  18
ENDBRANCH   1  17
TORSDOF 10
ENDMDL
MODEL 6
REMARK VINA RESULT:    -5.616     17.371     19.805
REMARK INTER + INTRA:          -9.507
REMARK INTER:                  -8.741
REMARK INTRA:                  -0.766
REMARK UNBOUND:                -0.772
REMARK SMILES COc1cc(CNC(=O)CCCC/C=C/C(C)C)ccc1O
REMARK SMILES IDX 10 1 8 2 7 3 9 5 6 6 5 7 3 8 21 9 4 10 20 11 19 12 2 13 1 14
REMARK SMILES IDX 22 15 11 17 12 18 13 19 14 20 15 21 16 22 17 23 18 24
REMARK H PARENT 7 4 22 16
REMARK Flexibility Score: inf
ROOT
ATOM      1  C   UNL     1      74.323  90.305  69.707  1.00  0.00     0.100 C 
ENDROOT
BRANCH   1   2
ATOM      2  C   UNL     1      74.040  91.612  70.330  1.00  0.00     0.220 C 
ATOM      3  N   UNL     1      74.835  92.688  70.072  1.00  0.00    -0.352 N 
ATOM      4  H   UNL     1      75.616  92.504  69.458  1.00  0.00     0.163 HD
ATOM      5  O   UNL     1      73.039  91.706  71.081  1.00  0.00    -0.275 OA
BRANCH   3   6
ATOM      6  C   UNL     1      74.628  94.000  70.598  1.00  0.00     0.151 C 
BRANCH   6   7
ATOM      7  C   UNL     1      75.764  94.428  71.460  1.00  0.00    -0.025 A 
ATOM      8  C   UNL     1      77.584  96.011  71.951  1.00  0.00     0.160 A 
ATOM      9  C   UNL     1      77.919  95.269  73.102  1.00  0.00     0.157 A 
ATOM     10  C   UNL     1      76.512  95.583  71.140  1.00  0.00     0.056 A 
ATOM     11  C   UNL     1      77.195  94.104  73.423  1.00  0.00     0.050 A 
ATOM     12  C   UNL     1      76.118  93.691  72.614  1.00  0.00     0.009 A 
BRANCH   8  13
ATOM     13  O   UNL     1      78.328  97.109  71.599  1.00  0.00    -0.493 OA
ATOM     14  C   UNL     1      77.593  98.105  70.865  1.00  0.00     0.278 C 
ENDBRANCH   8  13
BRANCH   9  15
ATOM     15  O   UNL     1      78.937  95.662  73.912  1.00  0.00    -0.504 OA
ATOM     16  H   UNL     1      79.767  95.320  73.572  1.00  0.00     0.293 HD
ENDBRANCH   9  15
ENDBRANCH   6   7
ENDBRANCH   3   6
ENDBRANCH   1   2
BRANCH   1  17
ATOM     17  C   UNL     1      75.641  90.335  68.887  1.00  0.00     0.010 C 
BRANCH  17  18
ATOM     18  C   UNL     1      75.609  89.388  67.655  1.00  0.00     0.005 C 
BRANCH  18  19
ATOM     19  C   UNL     1      77.030  89.074  67.115  1.00  0.00     0.027 C 
BRANCH  19  20
ATOM     20  C   UNL     1      77.468  87.733  67.472  1.00  0.00    -0.031 C 
ATOM     21  C   UNL     1      76.711  86.843  68.140  1.00  0.00    -0.028 C 
BRANCH  21  22
ATOM     22  C   UNL     1      77.164  85.493  68.472  1.00  0.00     0.005 C 
ATOM     23  C   UNL     1      76.181  84.759  69.426  1.00  0.00     0.012 C 
ATOM     24  C   UNL     1      77.395  84.671  67.177  1.00  0.00     0.012 C 
ENDBRANCH  21  22
ENDBRANCH  19  20
ENDBRANCH  18  19
ENDBRANCH  17  18
ENDBRANCH   1  17
TORSDOF 10
ENDMDL
MODEL 7
REMARK VINA RESULT:    -5.583     14.212     16.928
REMARK INTER + INTRA:          -9.455
REMARK INTER:                  -8.739
REMARK INTRA:                  -0.716
REMARK UNBOUND:                -0.772
REMARK SMILES COc1cc(CNC(=O)CCCC/C=C/C(C)C)ccc1O
REMARK SMILES IDX 10 1 8 2 7 3 9 5 6 6 5 7 3 8 21 9 4 10 20 11 19 12 2 13 1 14
REMARK SMILES IDX 22 15 11 17 12 18 13 19 14 20 15 21 16 22 17 23 18 24
REMARK H PARENT 7 4 22 16
REMARK Flexibility Score: inf
ROOT
ATOM      1  C   UNL     1      94.954  82.148  84.340  1.00  0.00     0.100 C 
ENDROOT
BRANCH   1   2
ATOM      2  C   UNL     1      94.397  82.612  85.626  1.00  0.00     0.220 C 
ATOM      3  N   UNL     1      93.239  83.329  85.659  1.00  0.00    -0.352 N 
ATOM      4  H   UNL     1      92.831  83.523  84.755  1.00  0.00     0.163 HD
ATOM      5  O   UNL     1      95.007  82.307  86.679  1.00  0.00    -0.275 OA
BRANCH   3   6
ATOM      6  C   UNL     1      92.603  83.795  86.850  1.00  0.00     0.151 C 
BRANCH   6   7
ATOM      7  C   UNL     1      91.507  82.883  87.277  1.00  0.00    -0.025 A 
ATOM      8  C   UNL     1      89.589  81.447  86.708  1.00  0.00     0.160 A 
ATOM      9  C   UNL     1      89.423  81.127  88.071  1.00  0.00     0.157 A 
ATOM     10  C   UNL     1      90.627  82.322  86.324  1.00  0.00     0.056 A 
ATOM     11  C   UNL     1      90.281  81.694  89.035  1.00  0.00     0.050 A 
ATOM     12  C   UNL     1      91.321  82.558  88.641  1.00  0.00     0.009 A 
BRANCH   8  13
ATOM     13  O   UNL     1      88.717  80.950  85.774  1.00  0.00    -0.493 OA
ATOM     14  C   UNL     1      89.162  81.105  84.413  1.00  0.00     0.278 C 
ENDBRANCH   8  13
BRANCH   9  15
ATOM     15  O   UNL     1      88.443  80.278  88.473  1.00  0.00    -0.504 OA
ATOM     16  H   UNL     1      88.786  79.688  89.148  1.00  0.00     0.293 HD
ENDBRANCH   9  15
ENDBRANCH   6   7
ENDBRANCH   3   6
ENDBRANCH   1   2
BRANCH   1  17
ATOM     17  C   UNL     1      95.752  83.270  83.623  1.00  0.00     0.010 C 
BRANCH  17  18
ATOM     18  C   UNL     1      96.552  82.753  82.395  1.00  0.00     0.005 C 
BRANCH  18  19
ATOM     19  C   UNL     1      96.591  81.203  82.325  1.00  0.00     0.027 C 
BRANCH  19  20
ATOM     20  C   UNL     1      97.054  80.725  81.031  1.00  0.00    -0.031 C 
ATOM     21  C   UNL     1      97.228  81.510  79.953  1.00  0.00    -0.028 C 
BRANCH  21  22
ATOM     22  C   UNL     1      97.715  81.011  78.667  1.00  0.00     0.005 C 
ATOM     23  C   UNL     1      97.551  82.057  77.529  1.00  0.00     0.012 C 
ATOM     24  C   UNL     1      99.192  80.557  78.792  1.00  0.00     0.012 C 
ENDBRANCH  21  22
ENDBRANCH  19  20
ENDBRANCH  18  19
ENDBRANCH  17  18
ENDBRANCH   1  17
TORSDOF 10
ENDMDL
MODEL 8
REMARK VINA RESULT:    -5.568     24.374     27.863
REMARK INTER + INTRA:          -9.431
REMARK INTER:                  -8.566
REMARK INTRA:                  -0.865
REMARK UNBOUND:                -0.772
REMARK SMILES COc1cc(CNC(=O)CCCC/C=C/C(C)C)ccc1O
REMARK SMILES IDX 10 1 8 2 7 3 9 5 6 6 5 7 3 8 21 9 4 10 20 11 19 12 2 13 1 14
REMARK SMILES IDX 22 15 11 17 12 18 13 19 14 20 15 21 16 22 17 23 18 24
REMARK H PARENT 7 4 22 16
REMARK Flexibility Score: inf
ROOT
ATOM      1  C   UNL     1      83.794  68.059  74.049  1.00  0.00     0.100 C 
ENDROOT
BRANCH   1   2
ATOM      2  C   UNL     1      84.124  68.661  72.743  1.00  0.00     0.220 C 
ATOM      3  N   UNL     1      84.205  70.014  72.607  1.00  0.00    -0.352 N 
ATOM      4  H   UNL     1      84.001  70.541  73.445  1.00  0.00     0.163 HD
ATOM      5  O   UNL     1      84.349  67.893  71.777  1.00  0.00    -0.275 OA
BRANCH   3   6
ATOM      6  C   UNL     1      84.547  70.693  71.397  1.00  0.00     0.151 C 
BRANCH   6   7
ATOM      7  C   UNL     1      85.981  71.090  71.381  1.00  0.00    -0.025 A 
ATOM      8  C   UNL     1      88.013  71.782  72.588  1.00  0.00     0.160 A 
ATOM      9  C   UNL     1      88.721  71.831  71.370  1.00  0.00     0.157 A 
ATOM     10  C   UNL     1      86.651  71.415  72.582  1.00  0.00     0.056 A 
ATOM     11  C   UNL     1      88.062  71.529  70.162  1.00  0.00     0.050 A 
ATOM     12  C   UNL     1      86.705  71.152  70.167  1.00  0.00     0.009 A 
BRANCH   8  13
ATOM     13  O   UNL     1      88.632  72.139  73.759  1.00  0.00    -0.493 OA
ATOM     14  C   UNL     1      88.816  71.050  74.682  1.00  0.00     0.278 C 
ENDBRANCH   8  13
BRANCH   9  15
ATOM     15  O   UNL     1      90.036  72.168  71.342  1.00  0.00    -0.504 OA
ATOM     16  H   UNL     1      90.262  72.507  70.473  1.00  0.00     0.293 HD
ENDBRANCH   9  15
ENDBRANCH   6   7
ENDBRANCH   3   6
ENDBRANCH   1   2
BRANCH   1  17
ATOM     17  C   UNL     1      82.900  66.800  73.890  1.00  0.00     0.010 C 
BRANCH  17  18
ATOM     18  C   UNL     1      81.400  67.147  73.674  1.00  0.00     0.005 C 
BRANCH  18  19
ATOM     19  C   UNL     1      80.581  65.932  73.162  1.00  0.00     0.027 C 
BRANCH  19  20
ATOM     20  C   UNL     1      80.953  65.552  71.807  1.00  0.00    -0.031 C 
ATOM     21  C   UNL     1      80.833  66.357  70.736  1.00  0.00    -0.028 C 
BRANCH  21  22
ATOM     22  C   UNL     1      81.232  65.961  69.386  1.00  0.00     0.005 C 
ATOM     23  C   UNL     1      80.123  65.155  68.655  1.00  0.00     0.012 C 
ATOM     24  C   UNL     1      81.644  67.208  68.561  1.00  0.00     0.012 C 
ENDBRANCH  21  22
ENDBRANCH  19  20
ENDBRANCH  18  19
ENDBRANCH  17  18
ENDBRANCH   1  17
TORSDOF 10
ENDMDL
MODEL 9
REMARK VINA RESULT:    -5.535     12.477     15.426
REMARK INTER + INTRA:          -9.380
REMARK INTER:                  -8.717
REMARK INTRA:                  -0.663
REMARK UNBOUND:                -0.772
REMARK SMILES COc1cc(CNC(=O)CCCC/C=C/C(C)C)ccc1O
REMARK SMILES IDX 10 1 8 2 7 3 9 5 6 6 5 7 3 8 21 9 4 10 20 11 19 12 2 13 1 14
REMARK SMILES IDX 22 15 11 17 12 18 13 19 14 20 15 21 16 22 17 23 18 24
REMARK H PARENT 7 4 22 16
REMARK Flexibility Score: inf
ROOT
ATOM      1  C   UNL     1      97.934  80.781  77.415  1.00  0.00     0.100 C 
ENDROOT
BRANCH   1   2
ATOM      2  C   UNL     1      98.330  80.067  78.644  1.00  0.00     0.220 C 
ATOM      3  N   UNL     1      97.989  80.557  79.869  1.00  0.00    -0.352 N 
ATOM      4  H   UNL     1      97.483  81.431  79.853  1.00  0.00     0.163 HD
ATOM      5  O   UNL     1      98.966  78.991  78.525  1.00  0.00    -0.275 OA
BRANCH   3   6
ATOM      6  C   UNL     1      98.296  79.927  81.113  1.00  0.00     0.151 C 
BRANCH   6   7
ATOM      7  C   UNL     1      97.206  80.122  82.108  1.00  0.00    -0.025 A 
ATOM      8  C   UNL     1      95.752  81.626  83.406  1.00  0.00     0.160 A 
ATOM      9  C   UNL     1      95.116  80.510  83.987  1.00  0.00     0.157 A 
ATOM     10  C   UNL     1      96.792  81.422  82.474  1.00  0.00     0.056 A 
ATOM     11  C   UNL     1      95.531  79.208  83.647  1.00  0.00     0.050 A 
ATOM     12  C   UNL     1      96.562  79.014  82.706  1.00  0.00     0.009 A 
BRANCH   8  13
ATOM     13  O   UNL     1      95.396  82.896  83.784  1.00  0.00    -0.493 OA
ATOM     14  C   UNL     1      96.165  83.934  83.150  1.00  0.00     0.278 C 
ENDBRANCH   8  13
BRANCH   9  15
ATOM     15  O   UNL     1      94.103  80.672  84.878  1.00  0.00    -0.504 OA
ATOM     16  H   UNL     1      93.658  81.506  84.709  1.00  0.00     0.293 HD
ENDBRANCH   9  15
ENDBRANCH   6   7
ENDBRANCH   3   6
ENDBRANCH   1   2
BRANCH   1  17
ATOM     17  C   UNL     1      97.082  82.039  77.734  1.00  0.00     0.010 C 
BRANCH  17  18
ATOM     18  C   UNL     1      95.923  82.258  76.720  1.00  0.00     0.005 C 
BRANCH  18  19
ATOM     19  C   UNL     1      95.965  83.668  76.071  1.00  0.00     0.027 C 
BRANCH  19  20
ATOM     20  C   UNL     1      96.678  83.665  74.803  1.00  0.00    -0.031 C 
ATOM     21  C   UNL     1      97.723  82.864  74.524  1.00  0.00    -0.028 C 
BRANCH  21  22
ATOM     22  C   UNL     1      98.414  82.865  73.235  1.00  0.00     0.005 C 
ATOM     23  C   UNL     1      99.305  84.123  73.045  1.00  0.00     0.012 C 
ATOM     24  C   UNL     1      99.246  81.567  73.072  1.00  0.00     0.012 C 
ENDBRANCH  21  22
ENDBRANCH  19  20
ENDBRANCH  18  19
ENDBRANCH  17  18
ENDBRANCH   1  17
TORSDOF 10
ENDMDL
MODEL 10
REMARK VINA RESULT:    -5.487     22.340     26.930
REMARK INTER + INTRA:          -9.307
REMARK INTER:                  -8.771
REMARK INTRA:                  -0.536
REMARK UNBOUND:                -0.772
REMARK SMILES COc1cc(CNC(=O)CCCC/C=C/C(C)C)ccc1O
REMARK SMILES IDX 10 1 8 2 7 3 9 5 6 6 5 7 3 8 21 9 4 10 20 11 19 12 2 13 1 14
REMARK SMILES IDX 22 15 11 17 12 18 13 19 14 20 15 21 16 22 17 23 18 24
REMARK H PARENT 7 4 22 16
REMARK Flexibility Score: inf
ROOT
ATOM      1  C   UNL     1      69.689  85.739  69.743  1.00  0.00     0.100 C 
ENDROOT
BRANCH   1   2
ATOM      2  C   UNL     1      70.378  85.247  68.534  1.00  0.00     0.220 C 
ATOM      3  N   UNL     1      71.572  85.782  68.152  1.00  0.00    -0.352 N 
ATOM      4  H   UNL     1      71.910  86.531  68.740  1.00  0.00     0.163 HD
ATOM      5  O   UNL     1      69.845  84.313  67.887  1.00  0.00    -0.275 OA
BRANCH   3   6
ATOM      6  C   UNL     1      72.332  85.356  67.021  1.00  0.00     0.151 C 
BRANCH   6   7
ATOM      7  C   UNL     1      73.794  85.415  67.291  1.00  0.00    -0.025 A 
ATOM      8  C   UNL     1      76.077  84.610  66.839  1.00  0.00     0.160 A 
ATOM      9  C   UNL     1      76.588  85.528  67.779  1.00  0.00     0.157 A 
ATOM     10  C   UNL     1      74.686  84.561  66.605  1.00  0.00     0.056 A 
ATOM     11  C   UNL     1      75.708  86.373  68.485  1.00  0.00     0.050 A 
ATOM     12  C   UNL     1      74.323  86.325  68.237  1.00  0.00     0.009 A 
BRANCH   8  13
ATOM     13  O   UNL     1      76.922  83.741  66.197  1.00  0.00    -0.493 OA
ATOM     14  C   UNL     1      76.249  82.752  65.396  1.00  0.00     0.278 C 
ENDBRANCH   8  13
BRANCH   9  15
ATOM     15  O   UNL     1      77.922  85.611  68.018  1.00  0.00    -0.504 OA
ATOM     16  H   UNL     1      78.294  86.337  67.513  1.00  0.00     0.293 HD
ENDBRANCH   9  15
ENDBRANCH   6   7
ENDBRANCH   3   6
ENDBRANCH   1   2
BRANCH   1  17
ATOM     17  C   UNL     1      68.972  84.589  70.500  1.00  0.00     0.010 C 
BRANCH  17  18
ATOM     18  C   UNL     1      67.829  85.095  71.425  1.00  0.00     0.005 C 
BRANCH  18  19
ATOM     19  C   UNL     1      66.443  85.055  70.727  1.00  0.00     0.027 C 
BRANCH  19  20
ATOM     20  C   UNL     1      65.943  83.696  70.580  1.00  0.00    -0.031 C 
ATOM     21  C   UNL     1      64.766  83.266  71.071  1.00  0.00    -0.028 C 
BRANCH  21  22
ATOM     22  C   UNL     1      64.275  81.900  70.895  1.00  0.00     0.005 C 
ATOM     23  C   UNL     1      63.407  81.426  72.094  1.00  0.00     0.012 C 
ATOM     24  C   UNL     1      63.489  81.781  69.563  1.00  0.00     0.012 C 
ENDBRANCH  21  22
ENDBRANCH  19  20
ENDBRANCH  18  19
ENDBRANCH  17  18
ENDBRANCH   1  17
TORSDOF 10
ENDMDL
