MODEL 1
REMARK VINA RESULT:    -5.206      0.000      0.000
REMARK INTER + INTRA:         -10.426
REMARK INTER:                  -8.401
REMARK INTRA:                  -2.024
REMARK UNBOUND:                -2.024
REMARK SMILES COc1cc(CNC(=O)CCCCCCC(C)C)ccc1O
REMARK SMILES IDX 11 1 10 2 8 3 7 4 9 6 6 7 5 8 3 9 21 10 4 11 20 12 19 13
REMARK SMILES IDX 2 14 1 15 22 16 12 18 13 19 14 20 15 21 16 22 17 23 18 24
REMARK H PARENT 7 5 22 17
REMARK Flexibility Score: inf
ROOT
ATOM      1  C   UNL     1      82.862  92.852  88.768  1.00  0.00     0.010 C 
ENDROOT
BRANCH   1   2
ATOM      2  C   UNL     1      83.662  91.521  88.830  1.00  0.00     0.100 C 
BRANCH   2   3
ATOM      3  C   UNL     1      83.854  90.892  87.504  1.00  0.00     0.220 C 
ATOM      4  N   UNL     1      82.866  90.949  86.564  1.00  0.00    -0.352 N 
ATOM      5  H   UNL     1      82.018  91.402  86.872  1.00  0.00     0.163 HD
ATOM      6  O   UNL     1      84.949  90.329  87.257  1.00  0.00    -0.275 OA
BRANCH   4   7
ATOM      7  C   UNL     1      82.959  90.429  85.234  1.00  0.00     0.151 C 
BRANCH   7   8
ATOM      8  C   UNL     1      82.012  89.311  84.973  1.00  0.00    -0.025 A 
ATOM      9  C   UNL     1      81.522  86.901  84.927  1.00  0.00     0.160 A 
ATOM     10  C   UNL     1      80.199  87.176  84.519  1.00  0.00     0.157 A 
ATOM     11  C   UNL     1      82.423  87.968  85.132  1.00  0.00     0.056 A 
ATOM     12  C   UNL     1      79.789  88.506  84.320  1.00  0.00     0.050 A 
ATOM     13  C   UNL     1      80.685  89.568  84.555  1.00  0.00     0.009 A 
BRANCH   9  14
ATOM     14  O   UNL     1      81.943  85.609  85.086  1.00  0.00    -0.493 OA
ATOM     15  C   UNL     1      82.664  85.379  86.310  1.00  0.00     0.278 C 
ENDBRANCH   9  14
BRANCH  10  16
ATOM     16  O   UNL     1      79.311  86.168  84.313  1.00  0.00    -0.504 OA
ATOM     17  H   UNL     1      78.746  86.388  83.568  1.00  0.00     0.293 HD
ENDBRANCH  10  16
ENDBRANCH   7   8
ENDBRANCH   4   7
ENDBRANCH   2   3
ENDBRANCH   1   2
BRANCH   1  18
ATOM     18  C   UNL     1      81.712  92.894  89.813  1.00  0.00     0.001 C 
BRANCH  18  19
ATOM     19  C   UNL     1      80.428  92.142  89.362  1.00  0.00     0.000 C 
BRANCH  19  20
ATOM     20  C   UNL     1      80.391  90.691  89.918  1.00  0.00     0.000 C 
BRANCH  20  21
ATOM     21  C   UNL     1      79.656  89.675  88.998  1.00  0.00     0.003 C 
BRANCH  21  22
ATOM     22  C   UNL     1      80.579  88.579  88.373  1.00  0.00    -0.017 C 
ATOM     23  C   UNL     1      79.779  87.268  88.131  1.00  0.00     0.007 C 
ATOM     24  C   UNL     1      81.861  88.289  89.208  1.00  0.00     0.007 C 
ENDBRANCH  21  22
ENDBRANCH  20  21
ENDBRANCH  19  20
ENDBRANCH  18  19
ENDBRANCH   1  18
TORSDOF 11
ENDMDL
MODEL 2
REMARK VINA RESULT:    -5.038      2.717      5.914
REMARK INTER + INTRA:         -10.155
REMARK INTER:                  -8.132
REMARK INTRA:                  -2.023
REMARK UNBOUND:                -2.024
REMARK SMILES COc1cc(CNC(=O)CCCCCCC(C)C)ccc1O
REMARK SMILES IDX 11 1 10 2 8 3 7 4 9 6 6 7 5 8 3 9 21 10 4 11 20 12 19 13
REMARK SMILES IDX 2 14 1 15 22 16 12 18 13 19 14 20 15 21 16 22 17 23 18 24
REMARK H PARENT 7 5 22 17
REMARK Flexibility Score: inf
ROOT
ATOM      1  C   UNL     1      80.723  87.981  83.810  1.00  0.00     0.010 C 
ENDROOT
BRANCH   1   2
ATOM      2  C   UNL     1      80.834  86.513  84.308  1.00  0.00     0.100 C 
BRANCH   2   3
ATOM      3  C   UNL     1      81.469  86.394  85.639  1.00  0.00     0.220 C 
ATOM      4  N   UNL     1      80.702  86.249  86.758  1.00  0.00    -0.352 N 
ATOM      5  H   UNL     1      79.707  86.277  86.593  1.00  0.00     0.163 HD
ATOM      6  O   UNL     1      82.722  86.404  85.711  1.00  0.00    -0.275 OA
BRANCH   4   7
ATOM      7  C   UNL     1      81.204  86.067  88.087  1.00  0.00     0.151 C 
BRANCH   7   8
ATOM      8  C   UNL     1      80.829  87.171  89.012  1.00  0.00    -0.025 A 
ATOM      9  C   UNL     1      79.113  88.625  90.007  1.00  0.00     0.160 A 
ATOM     10  C   UNL     1      80.098  89.244  90.806  1.00  0.00     0.157 A 
ATOM     11  C   UNL     1      79.488  87.608  89.104  1.00  0.00     0.056 A 
ATOM     12  C   UNL     1      81.442  88.845  90.696  1.00  0.00     0.050 A 
ATOM     13  C   UNL     1      81.805  87.808  89.814  1.00  0.00     0.009 A 
BRANCH   9  14
ATOM     14  O   UNL     1      77.809  89.033  90.078  1.00  0.00    -0.493 OA
ATOM     15  C   UNL     1      77.001  88.243  90.969  1.00  0.00     0.278 C 
ENDBRANCH   9  14
BRANCH  10  16
ATOM     16  O   UNL     1      79.766  90.228  91.683  1.00  0.00    -0.504 OA
ATOM     17  H   UNL     1      79.182  89.871  92.357  1.00  0.00     0.293 HD
ENDBRANCH  10  16
ENDBRANCH   7   8
ENDBRANCH   4   7
ENDBRANCH   2   3
ENDBRANCH   1   2
BRANCH   1  18
ATOM     18  C   UNL     1      79.681  88.799  84.623  1.00  0.00     0.001 C 
BRANCH  18  19
ATOM     19  C   UNL     1      80.222  90.160  85.146  1.00  0.00     0.000 C 
BRANCH  19  20
ATOM     20  C   UNL     1      80.687  90.059  86.626  1.00  0.00     0.000 C 
BRANCH  20  21
ATOM     21  C   UNL     1      82.214  89.835  86.800  1.00  0.00     0.003 C 
BRANCH  21  22
ATOM     22  C   UNL     1      83.109  90.648  85.808  1.00  0.00    -0.017 C 
ATOM     23  C   UNL     1      83.879  89.688  84.859  1.00  0.00     0.007 C 
ATOM     24  C   UNL     1      84.095  91.625  86.513  1.00  0.00     0.007 C 
ENDBRANCH  21  22
ENDBRANCH  20  21
ENDBRANCH  19  20
ENDBRANCH  18  19
ENDBRANCH   1  18
TORSDOF 11
ENDMDL
MODEL 3
REMARK VINA RESULT:    -4.948     24.546     26.989
REMARK INTER + INTRA:         -10.010
REMARK INTER:                  -9.134
REMARK INTRA:                  -0.877
REMARK UNBOUND:                -2.024
REMARK SMILES COc1cc(CNC(=O)CCCCCCC(C)C)ccc1O
REMARK SMILES IDX 11 1 10 2 8 3 7 4 9 6 6 7 5 8 3 9 21 10 4 11 20 12 19 13
REMARK SMILES IDX 2 14 1 15 22 16 12 18 13 19 14 20 15 21 16 22 17 23 18 24
REMARK H PARENT 7 5 22 17
REMARK Flexibility Score: inf
ROOT
ATOM      1  C   UNL     1      82.265  64.446  74.733  1.00  0.00     0.010 C 
ENDROOT
BRANCH   1   2
ATOM      2  C   UNL     1      82.390  64.684  76.264  1.00  0.00     0.100 C 
BRANCH   2   3
ATOM      3  C   UNL     1      83.758  64.456  76.781  1.00  0.00     0.220 C 
ATOM      4  N   UNL     1      83.957  63.680  77.886  1.00  0.00    -0.352 N 
ATOM      5  H   UNL     1      83.111  63.336  78.316  1.00  0.00     0.163 HD
ATOM      6  O   UNL     1      84.726  64.970  76.168  1.00  0.00    -0.275 OA
BRANCH   4   7
ATOM      7  C   UNL     1      85.233  63.344  78.440  1.00  0.00     0.151 C 
BRANCH   7   8
ATOM      8  C   UNL     1      85.561  64.119  79.669  1.00  0.00    -0.025 A 
ATOM      9  C   UNL     1      86.688  66.018  80.751  1.00  0.00     0.160 A 
ATOM     10  C   UNL     1      86.156  65.626  81.998  1.00  0.00     0.157 A 
ATOM     11  C   UNL     1      86.403  65.253  79.601  1.00  0.00     0.056 A 
ATOM     12  C   UNL     1      85.349  64.477  82.085  1.00  0.00     0.050 A 
ATOM     13  C   UNL     1      85.044  63.734  80.928  1.00  0.00     0.009 A 
BRANCH   9  14
ATOM     14  O   UNL     1      87.506  67.112  80.662  1.00  0.00    -0.493 OA
ATOM     15  C   UNL     1      88.274  67.164  79.446  1.00  0.00     0.278 C 
ENDBRANCH   9  14
BRANCH  10  16
ATOM     16  O   UNL     1      86.415  66.343  83.123  1.00  0.00    -0.504 OA
ATOM     17  H   UNL     1      85.804  66.083  83.816  1.00  0.00     0.293 HD
ENDBRANCH  10  16
ENDBRANCH   7   8
ENDBRANCH   4   7
ENDBRANCH   2   3
ENDBRANCH   1   2
BRANCH   1  18
ATOM     18  C   UNL     1      80.959  63.687  74.362  1.00  0.00     0.001 C 
BRANCH  18  19
ATOM     19  C   UNL     1      79.949  64.542  73.545  1.00  0.00     0.000 C 
BRANCH  19  20
ATOM     20  C   UNL     1      80.168  66.063  73.777  1.00  0.00     0.000 C 
BRANCH  20  21
ATOM     21  C   UNL     1      80.235  66.904  72.472  1.00  0.00     0.003 C 
BRANCH  21  22
ATOM     22  C   UNL     1      80.443  66.065  71.169  1.00  0.00    -0.017 C 
ATOM     23  C   UNL     1      81.941  66.073  70.751  1.00  0.00     0.007 C 
ATOM     24  C   UNL     1      79.544  66.520  69.982  1.00  0.00     0.007 C 
ENDBRANCH  21  22
ENDBRANCH  20  21
ENDBRANCH  19  20
ENDBRANCH  18  19
ENDBRANCH   1  18
TORSDOF 11
ENDMDL
MODEL 4
REMARK VINA RESULT:    -4.791      2.032      4.470
REMARK INTER + INTRA:          -9.756
REMARK INTER:                  -8.510
REMARK INTRA:                  -1.246
REMARK UNBOUND:                -2.024
REMARK SMILES COc1cc(CNC(=O)CCCCCCC(C)C)ccc1O
REMARK SMILES IDX 11 1 10 2 8 3 7 4 9 6 6 7 5 8 3 9 21 10 4 11 20 12 19 13
REMARK SMILES IDX 2 14 1 15 22 16 12 18 13 19 14 20 15 21 16 22 17 23 18 24
REMARK H PARENT 7 5 22 17
REMARK Flexibility Score: inf
ROOT
ATOM      1  C   UNL     1      84.327  91.866  86.260  1.00  0.00     0.010 C 
ENDROOT
BRANCH   1   2
ATOM      2  C   UNL     1      84.281  91.114  87.619  1.00  0.00     0.100 C 
BRANCH   2   3
ATOM      3  C   UNL     1      82.923  91.047  88.205  1.00  0.00     0.220 C 
ATOM      4  N   UNL     1      81.864  90.645  87.445  1.00  0.00    -0.352 N 
ATOM      5  H   UNL     1      82.087  90.452  86.480  1.00  0.00     0.163 HD
ATOM      6  O   UNL     1      82.775  91.345  89.416  1.00  0.00    -0.275 OA
BRANCH   4   7
ATOM      7  C   UNL     1      80.522  90.487  87.917  1.00  0.00     0.151 C 
BRANCH   7   8
ATOM      8  C   UNL     1      80.283  89.175  88.579  1.00  0.00    -0.025 A 
ATOM      9  C   UNL     1      80.907  86.823  88.931  1.00  0.00     0.160 A 
ATOM     10  C   UNL     1      79.862  86.683  89.869  1.00  0.00     0.157 A 
ATOM     11  C   UNL     1      81.098  88.060  88.280  1.00  0.00     0.056 A 
ATOM     12  C   UNL     1      79.019  87.775  90.146  1.00  0.00     0.050 A 
ATOM     13  C   UNL     1      79.233  89.015  89.515  1.00  0.00     0.009 A 
BRANCH   9  14
ATOM     14  O   UNL     1      81.708  85.756  88.625  1.00  0.00    -0.493 OA
ATOM     15  C   UNL     1      82.147  85.734  87.254  1.00  0.00     0.278 C 
ENDBRANCH   9  14
BRANCH  10  16
ATOM     16  O   UNL     1      79.654  85.502  90.510  1.00  0.00    -0.504 OA
ATOM     17  H   UNL     1      78.729  85.256  90.433  1.00  0.00     0.293 HD
ENDBRANCH  10  16
ENDBRANCH   7   8
ENDBRANCH   4   7
ENDBRANCH   2   3
ENDBRANCH   1   2
BRANCH   1  18
ATOM     18  C   UNL     1      84.897  90.979  85.117  1.00  0.00     0.001 C 
BRANCH  18  19
ATOM     19  C   UNL     1      84.229  89.578  85.019  1.00  0.00     0.000 C 
BRANCH  19  20
ATOM     20  C   UNL     1      82.779  89.672  84.467  1.00  0.00     0.000 C 
BRANCH  20  21
ATOM     21  C   UNL     1      81.951  88.367  84.625  1.00  0.00     0.003 C 
BRANCH  21  22
ATOM     22  C   UNL     1      80.606  88.350  83.826  1.00  0.00    -0.017 C 
ATOM     23  C   UNL     1      79.457  88.952  84.683  1.00  0.00     0.007 C 
ATOM     24  C   UNL     1      80.211  86.939  83.299  1.00  0.00     0.007 C 
ENDBRANCH  21  22
ENDBRANCH  20  21
ENDBRANCH  19  20
ENDBRANCH  18  19
ENDBRANCH   1  18
TORSDOF 11
ENDMDL
MODEL 5
REMARK VINA RESULT:    -4.783     25.237     26.580
REMARK INTER + INTRA:          -9.744
REMARK INTER:                  -8.780
REMARK INTRA:                  -0.964
REMARK UNBOUND:                -2.024
REMARK SMILES COc1cc(CNC(=O)CCCCCCC(C)C)ccc1O
REMARK SMILES IDX 11 1 10 2 8 3 7 4 9 6 6 7 5 8 3 9 21 10 4 11 20 12 19 13
REMARK SMILES IDX 2 14 1 15 22 16 12 18 13 19 14 20 15 21 16 22 17 23 18 24
REMARK H PARENT 7 5 22 17
REMARK Flexibility Score: inf
ROOT
ATOM      1  C   UNL     1      82.333  67.901  72.264  1.00  0.00     0.010 C 
ENDROOT
BRANCH   1   2
ATOM      2  C   UNL     1      83.115  68.843  71.307  1.00  0.00     0.100 C 
BRANCH   2   3
ATOM      3  C   UNL     1      84.505  69.101  71.747  1.00  0.00     0.220 C 
ATOM      4  N   UNL     1      85.452  69.490  70.845  1.00  0.00    -0.352 N 
ATOM      5  H   UNL     1      85.130  69.534  69.889  1.00  0.00     0.163 HD
ATOM      6  O   UNL     1      84.782  68.980  72.965  1.00  0.00    -0.275 OA
BRANCH   4   7
ATOM      7  C   UNL     1      86.807  69.823  71.163  1.00  0.00     0.151 C 
BRANCH   7   8
ATOM      8  C   UNL     1      87.477  70.629  70.105  1.00  0.00    -0.025 A 
ATOM      9  C   UNL     1      87.468  71.611  67.851  1.00  0.00     0.160 A 
ATOM     10  C   UNL     1      88.726  72.202  68.100  1.00  0.00     0.157 A 
ATOM     11  C   UNL     1      86.862  70.815  68.846  1.00  0.00     0.056 A 
ATOM     12  C   UNL     1      89.365  71.991  69.335  1.00  0.00     0.050 A 
ATOM     13  C   UNL     1      88.742  71.220  70.335  1.00  0.00     0.009 A 
BRANCH   9  14
ATOM     14  O   UNL     1      86.855  71.777  66.638  1.00  0.00    -0.493 OA
ATOM     15  C   UNL     1      86.866  70.595  65.816  1.00  0.00     0.278 C 
ENDBRANCH   9  14
BRANCH  10  16
ATOM     16  O   UNL     1      89.333  72.972  67.159  1.00  0.00    -0.504 OA
ATOM     17  H   UNL     1      90.072  73.438  67.556  1.00  0.00     0.293 HD
ENDBRANCH  10  16
ENDBRANCH   7   8
ENDBRANCH   4   7
ENDBRANCH   2   3
ENDBRANCH   1   2
BRANCH   1  18
ATOM     18  C   UNL     1      81.960  66.553  71.586  1.00  0.00     0.001 C 
BRANCH  18  19
ATOM     19  C   UNL     1      80.447  66.205  71.674  1.00  0.00     0.000 C 
BRANCH  19  20
ATOM     20  C   UNL     1      80.157  65.201  72.825  1.00  0.00     0.000 C 
BRANCH  20  21
ATOM     21  C   UNL     1      80.052  65.856  74.230  1.00  0.00     0.003 C 
BRANCH  21  22
ATOM     22  C   UNL     1      81.172  65.425  75.233  1.00  0.00    -0.017 C 
ATOM     23  C   UNL     1      81.894  66.675  75.812  1.00  0.00     0.007 C 
ATOM     24  C   UNL     1      82.206  64.431  74.627  1.00  0.00     0.007 C 
ENDBRANCH  21  22
ENDBRANCH  20  21
ENDBRANCH  19  20
ENDBRANCH  18  19
ENDBRANCH   1  18
TORSDOF 11
ENDMDL
MODEL 6
REMARK VINA RESULT:    -4.772     24.375     26.683
REMARK INTER + INTRA:          -9.726
REMARK INTER:                  -8.569
REMARK INTRA:                  -1.157
REMARK UNBOUND:                -2.024
REMARK SMILES COc1cc(CNC(=O)CCCCCCC(C)C)ccc1O
REMARK SMILES IDX 11 1 10 2 8 3 7 4 9 6 6 7 5 8 3 9 21 10 4 11 20 12 19 13
REMARK SMILES IDX 2 14 1 15 22 16 12 18 13 19 14 20 15 21 16 22 17 23 18 24
REMARK H PARENT 7 5 22 17
REMARK Flexibility Score: inf
ROOT
ATOM      1  C   UNL     1      80.773  64.013  74.149  1.00  0.00     0.010 C 
ENDROOT
BRANCH   1   2
ATOM      2  C   UNL     1      81.437  64.875  75.258  1.00  0.00     0.100 C 
BRANCH   2   3
ATOM      3  C   UNL     1      82.820  64.453  75.577  1.00  0.00     0.220 C 
ATOM      4  N   UNL     1      83.218  64.322  76.875  1.00  0.00    -0.352 N 
ATOM      5  H   UNL     1      82.518  64.575  77.558  1.00  0.00     0.163 HD
ATOM      6  O   UNL     1      83.604  64.198  74.630  1.00  0.00    -0.275 OA
BRANCH   4   7
ATOM      7  C   UNL     1      84.506  63.867  77.302  1.00  0.00     0.151 C 
BRANCH   7   8
ATOM      8  C   UNL     1      85.244  64.873  78.115  1.00  0.00    -0.025 A 
ATOM      9  C   UNL     1      86.431  65.486  80.180  1.00  0.00     0.160 A 
ATOM     10  C   UNL     1      86.689  66.770  79.653  1.00  0.00     0.157 A 
ATOM     11  C   UNL     1      85.696  64.555  79.416  1.00  0.00     0.056 A 
ATOM     12  C   UNL     1      86.210  67.111  78.375  1.00  0.00     0.050 A 
ATOM     13  C   UNL     1      85.502  66.167  77.606  1.00  0.00     0.009 A 
BRANCH   9  14
ATOM     14  O   UNL     1      86.857  65.157  81.437  1.00  0.00    -0.493 OA
ATOM     15  C   UNL     1      85.789  64.987  82.386  1.00  0.00     0.278 C 
ENDBRANCH   9  14
BRANCH  10  16
ATOM     16  O   UNL     1      87.393  67.687  80.367  1.00  0.00    -0.504 OA
ATOM     17  H   UNL     1      87.169  68.570  80.062  1.00  0.00     0.293 HD
ENDBRANCH  10  16
ENDBRANCH   7   8
ENDBRANCH   4   7
ENDBRANCH   2   3
ENDBRANCH   1   2
BRANCH   1  18
ATOM     18  C   UNL     1      79.835  64.853  73.236  1.00  0.00     0.001 C 
BRANCH  18  19
ATOM     19  C   UNL     1      80.522  65.375  71.943  1.00  0.00     0.000 C 
BRANCH  19  20
ATOM     20  C   UNL     1      80.245  66.889  71.719  1.00  0.00     0.000 C 
BRANCH  20  21
ATOM     21  C   UNL     1      80.876  67.817  72.793  1.00  0.00     0.003 C 
BRANCH  21  22
ATOM     22  C   UNL     1      82.331  68.291  72.470  1.00  0.00    -0.017 C 
ATOM     23  C   UNL     1      82.578  68.281  70.936  1.00  0.00     0.007 C 
ATOM     24  C   UNL     1      83.432  67.472  73.205  1.00  0.00     0.007 C 
ENDBRANCH  21  22
ENDBRANCH  20  21
ENDBRANCH  19  20
ENDBRANCH  18  19
ENDBRANCH   1  18
TORSDOF 11
ENDMDL
MODEL 7
REMARK VINA RESULT:    -4.694     16.361     19.023
REMARK INTER + INTRA:          -9.601
REMARK INTER:                  -8.563
REMARK INTRA:                  -1.037
REMARK UNBOUND:                -2.024
REMARK SMILES COc1cc(CNC(=O)CCCCCCC(C)C)ccc1O
REMARK SMILES IDX 11 1 10 2 8 3 7 4 9 6 6 7 5 8 3 9 21 10 4 11 20 12 19 13
REMARK SMILES IDX 2 14 1 15 22 16 12 18 13 19 14 20 15 21 16 22 17 23 18 24
REMARK H PARENT 7 5 22 17
REMARK Flexibility Score: inf
ROOT
ATOM      1  C   UNL     1      97.265  81.836  78.963  1.00  0.00     0.010 C 
ENDROOT
BRANCH   1   2
ATOM      2  C   UNL     1      98.654  82.415  79.345  1.00  0.00     0.100 C 
BRANCH   2   3
ATOM      3  C   UNL     1      98.913  82.401  80.803  1.00  0.00     0.220 C 
ATOM      4  N   UNL     1      97.877  82.479  81.687  1.00  0.00    -0.352 N 
ATOM      5  H   UNL     1      96.968  82.589  81.262  1.00  0.00     0.163 HD
ATOM      6  O   UNL     1     100.098  82.292  81.203  1.00  0.00    -0.275 OA
BRANCH   4   7
ATOM      7  C   UNL     1      98.000  82.417  83.112  1.00  0.00     0.151 C 
BRANCH   7   8
ATOM      8  C   UNL     1      97.001  83.259  83.825  1.00  0.00    -0.025 A 
ATOM      9  C   UNL     1      95.188  83.478  85.472  1.00  0.00     0.160 A 
ATOM     10  C   UNL     1      95.123  84.866  85.220  1.00  0.00     0.157 A 
ATOM     11  C   UNL     1      96.112  82.684  84.761  1.00  0.00     0.056 A 
ATOM     12  C   UNL     1      95.977  85.444  84.263  1.00  0.00     0.050 A 
ATOM     13  C   UNL     1      96.916  84.650  83.577  1.00  0.00     0.009 A 
BRANCH   9  14
ATOM     14  O   UNL     1      94.336  82.900  86.373  1.00  0.00    -0.493 OA
ATOM     15  C   UNL     1      93.211  82.239  85.765  1.00  0.00     0.278 C 
ENDBRANCH   9  14
BRANCH  10  16
ATOM     16  O   UNL     1      94.243  85.655  85.890  1.00  0.00    -0.504 OA
ATOM     17  H   UNL     1      94.373  86.571  85.630  1.00  0.00     0.293 HD
ENDBRANCH  10  16
ENDBRANCH   7   8
ENDBRANCH   4   7
ENDBRANCH   2   3
ENDBRANCH   1   2
BRANCH   1  18
ATOM     18  C   UNL     1      96.434  82.827  78.098  1.00  0.00     0.001 C 
BRANCH  18  19
ATOM     19  C   UNL     1      97.229  83.446  76.915  1.00  0.00     0.000 C 
BRANCH  19  20
ATOM     20  C   UNL     1      97.138  82.561  75.639  1.00  0.00     0.000 C 
BRANCH  20  21
ATOM     21  C   UNL     1      98.510  82.245  74.983  1.00  0.00     0.003 C 
BRANCH  21  22
ATOM     22  C   UNL     1      99.678  83.183  75.433  1.00  0.00    -0.017 C 
ATOM     23  C   UNL     1     100.296  83.908  74.205  1.00  0.00     0.007 C 
ATOM     24  C   UNL     1     100.785  82.455  76.251  1.00  0.00     0.007 C 
ENDBRANCH  21  22
ENDBRANCH  20  21
ENDBRANCH  19  20
ENDBRANCH  18  19
ENDBRANCH   1  18
TORSDOF 11
ENDMDL
MODEL 8
REMARK VINA RESULT:    -4.560      2.933      7.120
REMARK INTER + INTRA:          -9.384
REMARK INTER:                  -7.900
REMARK INTRA:                  -1.484
REMARK UNBOUND:                -2.024
REMARK SMILES COc1cc(CNC(=O)CCCCCCC(C)C)ccc1O
REMARK SMILES IDX 11 1 10 2 8 3 7 4 9 6 6 7 5 8 3 9 21 10 4 11 20 12 19 13
REMARK SMILES IDX 2 14 1 15 22 16 12 18 13 19 14 20 15 21 16 22 17 23 18 24
REMARK H PARENT 7 5 22 17
REMARK Flexibility Score: inf
ROOT
ATOM      1  C   UNL     1      80.040  86.563  87.097  1.00  0.00     0.010 C 
ENDROOT
BRANCH   1   2
ATOM      2  C   UNL     1      81.358  86.439  87.910  1.00  0.00     0.100 C 
BRANCH   2   3
ATOM      3  C   UNL     1      81.291  87.090  89.237  1.00  0.00     0.220 C 
ATOM      4  N   UNL     1      82.436  87.396  89.914  1.00  0.00    -0.352 N 
ATOM      5  H   UNL     1      83.287  87.103  89.456  1.00  0.00     0.163 HD
ATOM      6  O   UNL     1      80.164  87.376  89.711  1.00  0.00    -0.275 OA
BRANCH   4   7
ATOM      7  C   UNL     1      82.496  88.076  91.172  1.00  0.00     0.151 C 
BRANCH   7   8
ATOM      8  C   UNL     1      82.928  89.496  91.052  1.00  0.00    -0.025 A 
ATOM      9  C   UNL     1      84.429  91.328  91.713  1.00  0.00     0.160 A 
ATOM     10  C   UNL     1      83.785  92.189  90.797  1.00  0.00     0.157 A 
ATOM     11  C   UNL     1      83.984  89.996  91.847  1.00  0.00     0.056 A 
ATOM     12  C   UNL     1      82.707  91.713  90.028  1.00  0.00     0.050 A 
ATOM     13  C   UNL     1      82.288  90.374  90.146  1.00  0.00     0.009 A 
BRANCH   9  14
ATOM     14  O   UNL     1      85.452  91.792  92.494  1.00  0.00    -0.493 OA
ATOM     15  C   UNL     1      85.037  92.207  93.808  1.00  0.00     0.278 C 
ENDBRANCH   9  14
BRANCH  10  16
ATOM     16  O   UNL     1      84.192  93.477  90.648  1.00  0.00    -0.504 OA
ATOM     17  H   UNL     1      84.922  93.652  91.246  1.00  0.00     0.293 HD
ENDBRANCH  10  16
ENDBRANCH   7   8
ENDBRANCH   4   7
ENDBRANCH   2   3
ENDBRANCH   1   2
BRANCH   1  18
ATOM     18  C   UNL     1      80.113  85.808  85.740  1.00  0.00     0.001 C 
BRANCH  18  19
ATOM     19  C   UNL     1      81.294  86.259  84.835  1.00  0.00     0.000 C 
BRANCH  19  20
ATOM     20  C   UNL     1      80.939  87.539  84.027  1.00  0.00     0.000 C 
BRANCH  20  21
ATOM     21  C   UNL     1      81.866  88.752  84.315  1.00  0.00     0.003 C 
BRANCH  21  22
ATOM     22  C   UNL     1      81.190  89.911  85.119  1.00  0.00    -0.017 C 
ATOM     23  C   UNL     1      81.694  89.918  86.590  1.00  0.00     0.007 C 
ATOM     24  C   UNL     1      79.634  89.877  85.075  1.00  0.00     0.007 C 
ENDBRANCH  21  22
ENDBRANCH  20  21
ENDBRANCH  19  20
ENDBRANCH  18  19
ENDBRANCH   1  18
TORSDOF 11
ENDMDL
MODEL 9
REMARK VINA RESULT:    -4.471     17.202     20.463
REMARK INTER + INTRA:          -9.239
REMARK INTER:                  -8.321
REMARK INTRA:                  -0.918
REMARK UNBOUND:                -2.024
REMARK SMILES COc1cc(CNC(=O)CCCCCCC(C)C)ccc1O
REMARK SMILES IDX 11 1 10 2 8 3 7 4 9 6 6 7 5 8 3 9 21 10 4 11 20 12 19 13
REMARK SMILES IDX 2 14 1 15 22 16 12 18 13 19 14 20 15 21 16 22 17 23 18 24
REMARK H PARENT 7 5 22 17
REMARK Flexibility Score: inf
ROOT
ATOM      1  C   UNL     1      62.232  85.058  76.478  1.00  0.00     0.010 C 
ENDROOT
BRANCH   1   2
ATOM      2  C   UNL     1      62.971  86.372  76.853  1.00  0.00     0.100 C 
BRANCH   2   3
ATOM      3  C   UNL     1      64.401  86.168  77.175  1.00  0.00     0.220 C 
ATOM      4  N   UNL     1      64.936  86.707  78.309  1.00  0.00    -0.352 N 
ATOM      5  H   UNL     1      64.296  87.269  78.850  1.00  0.00     0.163 HD
ATOM      6  O   UNL     1      65.099  85.471  76.398  1.00  0.00    -0.275 OA
BRANCH   4   7
ATOM      7  C   UNL     1      66.285  86.528  78.751  1.00  0.00     0.151 C 
BRANCH   7   8
ATOM      8  C   UNL     1      66.383  85.928  80.110  1.00  0.00    -0.025 A 
ATOM      9  C   UNL     1      65.457  85.602  82.365  1.00  0.00     0.160 A 
ATOM     10  C   UNL     1      66.537  84.753  82.689  1.00  0.00     0.157 A 
ATOM     11  C   UNL     1      65.397  86.197  81.087  1.00  0.00     0.056 A 
ATOM     12  C   UNL     1      67.545  84.509  81.738  1.00  0.00     0.050 A 
ATOM     13  C   UNL     1      67.464  85.083  80.454  1.00  0.00     0.009 A 
BRANCH   9  14
ATOM     14  O   UNL     1      64.492  85.878  83.296  1.00  0.00    -0.493 OA
ATOM     15  C   UNL     1      64.014  87.235  83.251  1.00  0.00     0.278 C 
ENDBRANCH   9  14
BRANCH  10  16
ATOM     16  O   UNL     1      66.621  84.168  83.912  1.00  0.00    -0.504 OA
ATOM     17  H   UNL     1      66.255  84.759  84.575  1.00  0.00     0.293 HD
ENDBRANCH  10  16
ENDBRANCH   7   8
ENDBRANCH   4   7
ENDBRANCH   2   3
ENDBRANCH   1   2
BRANCH   1  18
ATOM     18  C   UNL     1      62.244  84.794  74.945  1.00  0.00     0.001 C 
BRANCH  18  19
ATOM     19  C   UNL     1      62.050  83.299  74.565  1.00  0.00     0.000 C 
BRANCH  19  20
ATOM     20  C   UNL     1      62.476  82.355  75.725  1.00  0.00     0.000 C 
BRANCH  20  21
ATOM     21  C   UNL     1      63.798  81.582  75.464  1.00  0.00     0.003 C 
BRANCH  21  22
ATOM     22  C   UNL     1      64.398  81.783  74.034  1.00  0.00    -0.017 C 
ATOM     23  C   UNL     1      64.745  80.411  73.392  1.00  0.00     0.007 C 
ATOM     24  C   UNL     1      65.636  82.728  74.003  1.00  0.00     0.007 C 
ENDBRANCH  21  22
ENDBRANCH  20  21
ENDBRANCH  19  20
ENDBRANCH  18  19
ENDBRANCH   1  18
TORSDOF 11
ENDMDL
MODEL 10
REMARK VINA RESULT:    -4.443     15.039     17.063
REMARK INTER + INTRA:          -9.195
REMARK INTER:                  -8.226
REMARK INTRA:                  -0.969
REMARK UNBOUND:                -2.024
REMARK SMILES COc1cc(CNC(=O)CCCCCCC(C)C)ccc1O
REMARK SMILES IDX 11 1 10 2 8 3 7 4 9 6 6 7 5 8 3 9 21 10 4 11 20 12 19 13
REMARK SMILES IDX 2 14 1 15 22 16 12 18 13 19 14 20 15 21 16 22 17 23 18 24
REMARK H PARENT 7 5 22 17
REMARK Flexibility Score: inf
ROOT
ATOM      1  C   UNL     1      95.435  81.309  84.257  1.00  0.00     0.010 C 
ENDROOT
BRANCH   1   2
ATOM      2  C   UNL     1      95.749  82.831  84.256  1.00  0.00     0.100 C 
BRANCH   2   3
ATOM      3  C   UNL     1      96.865  83.197  83.356  1.00  0.00     0.220 C 
ATOM      4  N   UNL     1      97.484  82.243  82.601  1.00  0.00    -0.352 N 
ATOM      5  H   UNL     1      97.146  81.304  82.750  1.00  0.00     0.163 HD
ATOM      6  O   UNL     1      97.211  84.402  83.286  1.00  0.00    -0.275 OA
BRANCH   4   7
ATOM      7  C   UNL     1      98.531  82.488  81.657  1.00  0.00     0.151 C 
BRANCH   7   8
ATOM      8  C   UNL     1      98.051  82.542  80.249  1.00  0.00    -0.025 A 
ATOM      9  C   UNL     1      98.523  82.750  77.844  1.00  0.00     0.160 A 
ATOM     10  C   UNL     1      97.148  82.603  77.559  1.00  0.00     0.157 A 
ATOM     11  C   UNL     1      98.961  82.737  79.185  1.00  0.00     0.056 A 
ATOM     12  C   UNL     1      96.228  82.448  78.611  1.00  0.00     0.050 A 
ATOM     13  C   UNL     1      96.675  82.407  79.946  1.00  0.00     0.009 A 
BRANCH   9  14
ATOM     14  O   UNL     1      99.422  82.941  76.831  1.00  0.00    -0.493 OA
ATOM     15  C   UNL     1     100.229  81.784  76.544  1.00  0.00     0.278 C 
ENDBRANCH   9  14
BRANCH  10  16
ATOM     16  O   UNL     1      96.698  82.613  76.277  1.00  0.00    -0.504 OA
ATOM     17  H   UNL     1      95.984  81.978  76.184  1.00  0.00     0.293 HD
ENDBRANCH  10  16
ENDBRANCH   7   8
ENDBRANCH   4   7
ENDBRANCH   2   3
ENDBRANCH   1   2
BRANCH   1  18
ATOM     18  C   UNL     1      94.402  80.923  85.354  1.00  0.00     0.001 C 
BRANCH  18  19
ATOM     19  C   UNL     1      92.928  80.946  84.861  1.00  0.00     0.000 C 
BRANCH  19  20
ATOM     20  C   UNL     1      92.152  82.167  85.432  1.00  0.00     0.000 C 
BRANCH  20  21
ATOM     21  C   UNL     1      92.707  82.698  86.783  1.00  0.00     0.003 C 
BRANCH  21  22
ATOM     22  C   UNL     1      91.805  82.388  88.023  1.00  0.00    -0.017 C 
ATOM     23  C   UNL     1      92.553  81.459  89.020  1.00  0.00     0.007 C 
ATOM     24  C   UNL     1      90.418  81.785  87.652  1.00  0.00     0.007 C 
ENDBRANCH  21  22
ENDBRANCH  20  21
ENDBRANCH  19  20
ENDBRANCH  18  19
ENDBRANCH   1  18
TORSDOF 11
ENDMDL
