MODEL 1
REMARK VINA RESULT:    -6.093      0.000      0.000
REMARK INTER + INTRA:         -10.520
REMARK INTER:                  -9.477
REMARK INTRA:                  -1.043
REMARK UNBOUND:                -1.043
REMARK SMILES CCCCC/C=C/C(=O)CCc1ccc(O)c(OC)c1
REMARK SMILES IDX 6 1 7 2 8 3 9 4 10 5 11 6 12 7 17 8 20 9 15 10 14 11 13 12
REMARK SMILES IDX 18 13 19 14 16 15 5 17 4 18 3 19 2 20 1 21
REMARK H PARENT 16 16
REMARK Flexibility Score: inf
ROOT
ATOM      1  C   UNL     1      94.889  93.995  77.903  1.00  0.00    -0.023 C 
ATOM      2  C   UNL     1      95.012  95.303  77.645  1.00  0.00     0.043 C 
ENDROOT
BRANCH   2   3
ATOM      3  C   UNL     1      95.126  95.773  76.237  1.00  0.00     0.155 C 
ATOM      4  O   UNL     1      95.976  96.593  75.894  1.00  0.00    -0.295 OA
BRANCH   3   5
ATOM      5  C   UNL     1      94.105  95.229  75.257  1.00  0.00     0.085 C 
BRANCH   5   6
ATOM      6  C   UNL     1      92.682  95.600  75.675  1.00  0.00     0.044 C 
BRANCH   6   7
ATOM      7  C   UNL     1      91.868  94.406  76.114  1.00  0.00    -0.044 A 
ATOM      8  C   UNL     1      91.217  92.116  75.813  1.00  0.00     0.160 A 
ATOM      9  C   UNL     1      91.968  93.219  75.407  1.00  0.00     0.054 A 
ATOM     10  C   UNL     1      90.376  92.214  76.921  1.00  0.00     0.157 A 
ATOM     11  C   UNL     1      90.285  93.417  77.623  1.00  0.00     0.050 A 
ATOM     12  C   UNL     1      91.037  94.520  77.216  1.00  0.00     0.008 A 
BRANCH   8  13
ATOM     13  O   UNL     1      91.314  90.947  75.119  1.00  0.00    -0.493 OA
ATOM     14  C   UNL     1      90.394  90.751  74.047  1.00  0.00     0.278 C 
ENDBRANCH   8  13
BRANCH  10  15
ATOM     15  O   UNL     1      89.638  91.144  77.327  1.00  0.00    -0.504 OA
ATOM     16  H   UNL     1      90.002  90.345  76.909  1.00  0.00     0.293 HD
ENDBRANCH  10  15
ENDBRANCH   6   7
ENDBRANCH   5   6
ENDBRANCH   3   5
ENDBRANCH   2   3
BRANCH   1  17
ATOM     17  C   UNL     1      94.769  93.441  79.293  1.00  0.00     0.027 C 
BRANCH  17  18
ATOM     18  C   UNL     1      95.601  94.213  80.322  1.00  0.00     0.004 C 
BRANCH  18  19
ATOM     19  C   UNL     1      97.034  93.691  80.469  1.00  0.00     0.000 C 
BRANCH  19  20
ATOM     20  C   UNL     1      98.024  94.841  80.660  1.00  0.00    -0.003 C 
ATOM     21  C   UNL     1      98.802  94.696  81.958  1.00  0.00     0.004 C 
ENDBRANCH  19  20
ENDBRANCH  18  19
ENDBRANCH  17  18
ENDBRANCH   1  17
TORSDOF 10
ENDMDL
MODEL 2
REMARK VINA RESULT:    -5.768      2.502      5.372
REMARK INTER + INTRA:         -10.014
REMARK INTER:                  -8.454
REMARK INTRA:                  -1.560
REMARK UNBOUND:                -1.043
REMARK SMILES CCCCC/C=C/C(=O)CCc1ccc(O)c(OC)c1
REMARK SMILES IDX 6 1 7 2 8 3 9 4 10 5 11 6 12 7 17 8 20 9 15 10 14 11 13 12
REMARK SMILES IDX 18 13 19 14 16 15 5 17 4 18 3 19 2 20 1 21
REMARK H PARENT 16 16
REMARK Flexibility Score: inf
ROOT
ATOM      1  C   UNL     1      94.974  93.361  78.469  1.00  0.00    -0.023 C 
ATOM      2  C   UNL     1      94.017  94.257  78.198  1.00  0.00     0.043 C 
ENDROOT
BRANCH   2   3
ATOM      3  C   UNL     1      92.732  93.810  77.593  1.00  0.00     0.155 C 
ATOM      4  O   UNL     1      91.929  93.118  78.214  1.00  0.00    -0.295 OA
BRANCH   3   5
ATOM      5  C   UNL     1      92.490  94.209  76.150  1.00  0.00     0.085 C 
BRANCH   5   6
ATOM      6  C   UNL     1      93.783  94.161  75.335  1.00  0.00     0.044 C 
BRANCH   6   7
ATOM      7  C   UNL     1      94.120  95.483  74.689  1.00  0.00    -0.044 A 
ATOM      8  C   UNL     1      95.483  96.774  73.194  1.00  0.00     0.160 A 
ATOM      9  C   UNL     1      95.173  95.552  73.791  1.00  0.00     0.054 A 
ATOM     10  C   UNL     1      94.736  97.911  73.501  1.00  0.00     0.157 A 
ATOM     11  C   UNL     1      93.678  97.826  74.408  1.00  0.00     0.050 A 
ATOM     12  C   UNL     1      93.369  96.604  75.005  1.00  0.00     0.008 A 
BRANCH   8  13
ATOM     13  O   UNL     1      96.519  96.844  72.311  1.00  0.00    -0.493 OA
ATOM     14  C   UNL     1      96.236  96.513  70.953  1.00  0.00     0.278 C 
ENDBRANCH   8  13
BRANCH  10  15
ATOM     15  O   UNL     1      95.029  99.109  72.924  1.00  0.00    -0.504 OA
ATOM     16  H   UNL     1      95.985  99.264  73.010  1.00  0.00     0.293 HD
ENDBRANCH  10  15
ENDBRANCH   6   7
ENDBRANCH   5   6
ENDBRANCH   3   5
ENDBRANCH   2   3
BRANCH   1  17
ATOM     17  C   UNL     1      96.295  93.731  79.078  1.00  0.00     0.027 C 
BRANCH  17  18
ATOM     18  C   UNL     1      96.413  95.225  79.398  1.00  0.00     0.004 C 
BRANCH  18  19
ATOM     19  C   UNL     1      97.410  95.968  78.504  1.00  0.00     0.000 C 
BRANCH  19  20
ATOM     20  C   UNL     1      96.834  96.195  77.106  1.00  0.00    -0.003 C 
ATOM     21  C   UNL     1      97.061  97.623  76.635  1.00  0.00     0.004 C 
ENDBRANCH  19  20
ENDBRANCH  18  19
ENDBRANCH  17  18
ENDBRANCH   1  17
TORSDOF 10
ENDMDL
MODEL 3
REMARK VINA RESULT:    -5.635      2.394      4.029
REMARK INTER + INTRA:          -9.808
REMARK INTER:                  -8.757
REMARK INTRA:                  -1.050
REMARK UNBOUND:                -1.043
REMARK SMILES CCCCC/C=C/C(=O)CCc1ccc(O)c(OC)c1
REMARK SMILES IDX 6 1 7 2 8 3 9 4 10 5 11 6 12 7 17 8 20 9 15 10 14 11 13 12
REMARK SMILES IDX 18 13 19 14 16 15 5 17 4 18 3 19 2 20 1 21
REMARK H PARENT 16 16
REMARK Flexibility Score: inf
ROOT
ATOM      1  C   UNL     1      98.059  95.020  79.103  1.00  0.00    -0.023 C 
ATOM      2  C   UNL     1      96.786  95.297  79.414  1.00  0.00     0.043 C 
ENDROOT
BRANCH   2   3
ATOM      3  C   UNL     1      95.873  94.203  79.842  1.00  0.00     0.155 C 
ATOM      4  O   UNL     1      95.460  94.116  80.997  1.00  0.00    -0.295 OA
BRANCH   3   5
ATOM      5  C   UNL     1      95.518  93.168  78.792  1.00  0.00     0.085 C 
BRANCH   5   6
ATOM      6  C   UNL     1      95.187  93.827  77.452  1.00  0.00     0.044 C 
BRANCH   6   7
ATOM      7  C   UNL     1      93.721  94.160  77.307  1.00  0.00    -0.044 A 
ATOM      8  C   UNL     1      91.436  93.442  77.162  1.00  0.00     0.160 A 
ATOM      9  C   UNL     1      92.790  93.134  77.295  1.00  0.00     0.054 A 
ATOM     10  C   UNL     1      91.031  94.771  77.042  1.00  0.00     0.157 A 
ATOM     11  C   UNL     1      91.981  95.793  77.056  1.00  0.00     0.050 A 
ATOM     12  C   UNL     1      93.335  95.485  77.189  1.00  0.00     0.008 A 
BRANCH   8  13
ATOM     13  O   UNL     1      90.518  92.435  77.149  1.00  0.00    -0.493 OA
ATOM     14  C   UNL     1      90.448  91.636  75.970  1.00  0.00     0.278 C 
ENDBRANCH   8  13
BRANCH  10  15
ATOM     15  O   UNL     1      89.712  95.084  76.912  1.00  0.00    -0.504 OA
ATOM     16  H   UNL     1      89.372  94.649  76.111  1.00  0.00     0.293 HD
ENDBRANCH  10  15
ENDBRANCH   6   7
ENDBRANCH   5   6
ENDBRANCH   3   5
ENDBRANCH   2   3
BRANCH   1  17
ATOM     17  C   UNL     1      99.041  96.066  78.663  1.00  0.00     0.027 C 
BRANCH  17  18
ATOM     18  C   UNL     1      98.742  96.624  77.267  1.00  0.00     0.004 C 
BRANCH  18  19
ATOM     19  C   UNL     1      97.669  97.717  77.261  1.00  0.00     0.000 C 
BRANCH  19  20
ATOM     20  C   UNL     1      97.085  97.910  75.860  1.00  0.00    -0.003 C 
ATOM     21  C   UNL     1      96.097  96.808  75.512  1.00  0.00     0.004 C 
ENDBRANCH  19  20
ENDBRANCH  18  19
ENDBRANCH  17  18
ENDBRANCH   1  17
TORSDOF 10
ENDMDL
MODEL 4
REMARK VINA RESULT:    -5.338     12.416     14.048
REMARK INTER + INTRA:          -9.346
REMARK INTER:                  -8.661
REMARK INTRA:                  -0.685
REMARK UNBOUND:                -1.043
REMARK SMILES CCCCC/C=C/C(=O)CCc1ccc(O)c(OC)c1
REMARK SMILES IDX 6 1 7 2 8 3 9 4 10 5 11 6 12 7 17 8 20 9 15 10 14 11 13 12
REMARK SMILES IDX 18 13 19 14 16 15 5 17 4 18 3 19 2 20 1 21
REMARK H PARENT 16 16
REMARK Flexibility Score: inf
ROOT
ATOM      1  C   UNL     1      97.462  82.440  74.601  1.00  0.00    -0.023 C 
ATOM      2  C   UNL     1      96.801  83.336  75.345  1.00  0.00     0.043 C 
ENDROOT
BRANCH   2   3
ATOM      3  C   UNL     1      96.098  82.899  76.581  1.00  0.00     0.155 C 
ATOM      4  O   UNL     1      95.232  83.591  77.114  1.00  0.00    -0.295 OA
BRANCH   3   5
ATOM      5  C   UNL     1      96.541  81.579  77.181  1.00  0.00     0.085 C 
BRANCH   5   6
ATOM      6  C   UNL     1      97.679  81.780  78.184  1.00  0.00     0.044 C 
BRANCH   6   7
ATOM      7  C   UNL     1      97.323  81.314  79.576  1.00  0.00    -0.044 A 
ATOM      8  C   UNL     1      97.168  79.552  81.198  1.00  0.00     0.160 A 
ATOM      9  C   UNL     1      97.497  79.981  79.912  1.00  0.00     0.054 A 
ATOM     10  C   UNL     1      96.671  80.460  82.131  1.00  0.00     0.157 A 
ATOM     11  C   UNL     1      96.501  81.800  81.778  1.00  0.00     0.050 A 
ATOM     12  C   UNL     1      96.829  82.229  80.492  1.00  0.00     0.008 A 
BRANCH   8  13
ATOM     13  O   UNL     1      97.338  78.241  81.530  1.00  0.00    -0.493 OA
ATOM     14  C   UNL     1      98.676  77.795  81.746  1.00  0.00     0.278 C 
ENDBRANCH   8  13
BRANCH  10  15
ATOM     15  O   UNL     1      96.347  80.054  83.390  1.00  0.00    -0.504 OA
ATOM     16  H   UNL     1      95.838  80.763  83.819  1.00  0.00     0.293 HD
ENDBRANCH  10  15
ENDBRANCH   6   7
ENDBRANCH   5   6
ENDBRANCH   3   5
ENDBRANCH   2   3
BRANCH   1  17
ATOM     17  C   UNL     1      98.195  82.800  73.342  1.00  0.00     0.027 C 
BRANCH  17  18
ATOM     18  C   UNL     1      99.257  83.885  73.552  1.00  0.00     0.004 C 
BRANCH  18  19
ATOM     19  C   UNL     1      99.653  84.614  72.265  1.00  0.00     0.000 C 
BRANCH  19  20
ATOM     20  C   UNL     1     101.040  84.179  71.789  1.00  0.00    -0.003 C 
ATOM     21  C   UNL     1     101.896  83.686  72.945  1.00  0.00     0.004 C 
ENDBRANCH  19  20
ENDBRANCH  18  19
ENDBRANCH  17  18
ENDBRANCH   1  17
TORSDOF 10
ENDMDL
MODEL 5
REMARK VINA RESULT:    -5.225     12.172     13.979
REMARK INTER + INTRA:          -9.170
REMARK INTER:                  -8.621
REMARK INTRA:                  -0.549
REMARK UNBOUND:                -1.043
REMARK SMILES CCCCC/C=C/C(=O)CCc1ccc(O)c(OC)c1
REMARK SMILES IDX 6 1 7 2 8 3 9 4 10 5 11 6 12 7 17 8 20 9 15 10 14 11 13 12
REMARK SMILES IDX 18 13 19 14 16 15 5 17 4 18 3 19 2 20 1 21
REMARK H PARENT 16 16
REMARK Flexibility Score: inf
ROOT
ATOM      1  C   UNL     1      98.346  81.787  75.205  1.00  0.00    -0.023 C 
ATOM      2  C   UNL     1      97.385  82.714  75.303  1.00  0.00     0.043 C 
ENDROOT
BRANCH   2   3
ATOM      3  C   UNL     1      96.393  82.640  76.410  1.00  0.00     0.155 C 
ATOM      4  O   UNL     1      95.475  83.451  76.513  1.00  0.00    -0.295 OA
BRANCH   3   5
ATOM      5  C   UNL     1      96.606  81.545  77.437  1.00  0.00     0.085 C 
BRANCH   5   6
ATOM      6  C   UNL     1      97.522  82.015  78.568  1.00  0.00     0.044 C 
BRANCH   6   7
ATOM      7  C   UNL     1      97.182  81.385  79.899  1.00  0.00    -0.044 A 
ATOM      8  C   UNL     1      96.339  81.591  82.136  1.00  0.00     0.160 A 
ATOM      9  C   UNL     1      96.653  82.173  80.908  1.00  0.00     0.054 A 
ATOM     10  C   UNL     1      96.558  80.229  82.339  1.00  0.00     0.157 A 
ATOM     11  C   UNL     1      97.093  79.449  81.313  1.00  0.00     0.050 A 
ATOM     12  C   UNL     1      97.407  80.031  80.085  1.00  0.00     0.008 A 
BRANCH   8  13
ATOM     13  O   UNL     1      95.817  82.364  83.130  1.00  0.00    -0.493 OA
ATOM     14  C   UNL     1      96.205  83.736  83.154  1.00  0.00     0.278 C 
ENDBRANCH   8  13
BRANCH  10  15
ATOM     15  O   UNL     1      96.256  79.649  83.533  1.00  0.00    -0.504 OA
ATOM     16  H   UNL     1      95.569  80.184  83.967  1.00  0.00     0.293 HD
ENDBRANCH  10  15
ENDBRANCH   6   7
ENDBRANCH   5   6
ENDBRANCH   3   5
ENDBRANCH   2   3
BRANCH   1  17
ATOM     17  C   UNL     1      99.381  81.790  74.118  1.00  0.00     0.027 C 
BRANCH  17  18
ATOM     18  C   UNL     1      99.095  82.817  73.017  1.00  0.00     0.004 C 
BRANCH  18  19
ATOM     19  C   UNL     1     100.066  84.003  73.017  1.00  0.00     0.000 C 
BRANCH  19  20
ATOM     20  C   UNL     1     100.338  84.492  71.593  1.00  0.00    -0.003 C 
ATOM     21  C   UNL     1     101.467  83.710  70.942  1.00  0.00     0.004 C 
ENDBRANCH  19  20
ENDBRANCH  18  19
ENDBRANCH  17  18
ENDBRANCH   1  17
TORSDOF 10
ENDMDL
MODEL 6
REMARK VINA RESULT:    -5.223      2.197      3.415
REMARK INTER + INTRA:          -9.166
REMARK INTER:                  -8.190
REMARK INTRA:                  -0.976
REMARK UNBOUND:                -1.043
REMARK SMILES CCCCC/C=C/C(=O)CCc1ccc(O)c(OC)c1
REMARK SMILES IDX 6 1 7 2 8 3 9 4 10 5 11 6 12 7 17 8 20 9 15 10 14 11 13 12
REMARK SMILES IDX 18 13 19 14 16 15 5 17 4 18 3 19 2 20 1 21
REMARK H PARENT 16 16
REMARK Flexibility Score: inf
ROOT
ATOM      1  C   UNL     1      98.028  94.969  79.067  1.00  0.00    -0.023 C 
ATOM      2  C   UNL     1      96.754  95.236  79.378  1.00  0.00     0.043 C 
ENDROOT
BRANCH   2   3
ATOM      3  C   UNL     1      95.839  94.131  79.773  1.00  0.00     0.155 C 
ATOM      4  O   UNL     1      95.419  94.016  80.922  1.00  0.00    -0.295 OA
BRANCH   3   5
ATOM      5  C   UNL     1      95.493  93.122  78.696  1.00  0.00     0.085 C 
BRANCH   5   6
ATOM      6  C   UNL     1      95.188  93.812  77.365  1.00  0.00     0.044 C 
BRANCH   6   7
ATOM      7  C   UNL     1      93.726  94.153  77.202  1.00  0.00    -0.044 A 
ATOM      8  C   UNL     1      91.439  93.448  77.028  1.00  0.00     0.160 A 
ATOM      9  C   UNL     1      92.789  93.132  77.179  1.00  0.00     0.054 A 
ATOM     10  C   UNL     1      91.043  94.779  76.902  1.00  0.00     0.157 A 
ATOM     11  C   UNL     1      91.999  95.796  76.926  1.00  0.00     0.050 A 
ATOM     12  C   UNL     1      93.349  95.480  77.077  1.00  0.00     0.008 A 
BRANCH   8  13
ATOM     13  O   UNL     1      90.516  92.446  77.006  1.00  0.00    -0.493 OA
ATOM     14  C   UNL     1      90.445  91.655  75.821  1.00  0.00     0.278 C 
ENDBRANCH   8  13
BRANCH  10  15
ATOM     15  O   UNL     1      89.727  95.100  76.755  1.00  0.00    -0.504 OA
ATOM     16  H   UNL     1      89.395  94.665  75.950  1.00  0.00     0.293 HD
ENDBRANCH  10  15
ENDBRANCH   6   7
ENDBRANCH   5   6
ENDBRANCH   3   5
ENDBRANCH   2   3
BRANCH   1  17
ATOM     17  C   UNL     1      99.013  96.026  78.659  1.00  0.00     0.027 C 
BRANCH  17  18
ATOM     18  C   UNL     1      99.475  96.901  79.829  1.00  0.00     0.004 C 
BRANCH  18  19
ATOM     19  C   UNL     1     100.382  96.168  80.823  1.00  0.00     0.000 C 
BRANCH  19  20
ATOM     20  C   UNL     1     100.012  96.513  82.266  1.00  0.00    -0.003 C 
ATOM     21  C   UNL     1      98.799  95.724  82.733  1.00  0.00     0.004 C 
ENDBRANCH  19  20
ENDBRANCH  18  19
ENDBRANCH  17  18
ENDBRANCH   1  17
TORSDOF 10
ENDMDL
MODEL 7
REMARK VINA RESULT:    -5.122      2.916      6.228
REMARK INTER + INTRA:          -9.010
REMARK INTER:                  -8.090
REMARK INTRA:                  -0.920
REMARK UNBOUND:                -1.043
REMARK SMILES CCCCC/C=C/C(=O)CCc1ccc(O)c(OC)c1
REMARK SMILES IDX 6 1 7 2 8 3 9 4 10 5 11 6 12 7 17 8 20 9 15 10 14 11 13 12
REMARK SMILES IDX 18 13 19 14 16 15 5 17 4 18 3 19 2 20 1 21
REMARK H PARENT 16 16
REMARK Flexibility Score: inf
ROOT
ATOM      1  C   UNL     1      94.382  93.583  77.825  1.00  0.00    -0.023 C 
ATOM      2  C   UNL     1      94.282  94.881  77.510  1.00  0.00     0.043 C 
ENDROOT
BRANCH   2   3
ATOM      3  C   UNL     1      93.076  95.379  76.795  1.00  0.00     0.155 C 
ATOM      4  O   UNL     1      91.946  95.251  77.260  1.00  0.00    -0.295 OA
BRANCH   3   5
ATOM      5  C   UNL     1      93.309  96.009  75.435  1.00  0.00     0.085 C 
BRANCH   5   6
ATOM      6  C   UNL     1      94.381  95.252  74.649  1.00  0.00     0.044 C 
BRANCH   6   7
ATOM      7  C   UNL     1      95.486  96.151  74.148  1.00  0.00    -0.044 A 
ATOM      8  C   UNL     1      97.349  97.595  74.597  1.00  0.00     0.160 A 
ATOM      9  C   UNL     1      96.328  96.766  75.061  1.00  0.00     0.054 A 
ATOM     10  C   UNL     1      97.515  97.800  73.228  1.00  0.00     0.157 A 
ATOM     11  C   UNL     1      96.658  97.175  72.321  1.00  0.00     0.050 A 
ATOM     12  C   UNL     1      95.637  96.345  72.784  1.00  0.00     0.008 A 
BRANCH   8  13
ATOM     13  O   UNL     1      98.179  98.201  75.493  1.00  0.00    -0.493 OA
ATOM     14  C   UNL     1      99.238  97.412  76.031  1.00  0.00     0.278 C 
ENDBRANCH   8  13
BRANCH  10  15
ATOM     15  O   UNL     1      98.508  98.608  72.763  1.00  0.00    -0.504 OA
ATOM     16  H   UNL     1      99.192  98.048  72.356  1.00  0.00     0.293 HD
ENDBRANCH  10  15
ENDBRANCH   6   7
ENDBRANCH   5   6
ENDBRANCH   3   5
ENDBRANCH   2   3
BRANCH   1  17
ATOM     17  C   UNL     1      95.564  93.002  78.545  1.00  0.00     0.027 C 
BRANCH  17  18
ATOM     18  C   UNL     1      95.377  92.951  80.065  1.00  0.00     0.004 C 
BRANCH  18  19
ATOM     19  C   UNL     1      96.311  93.894  80.830  1.00  0.00     0.000 C 
BRANCH  19  20
ATOM     20  C   UNL     1      95.887  95.353  80.656  1.00  0.00    -0.003 C 
ATOM     21  C   UNL     1      95.817  96.076  81.991  1.00  0.00     0.004 C 
ENDBRANCH  19  20
ENDBRANCH  18  19
ENDBRANCH  17  18
ENDBRANCH   1  17
TORSDOF 10
ENDMDL
MODEL 8
REMARK VINA RESULT:    -5.104     13.059     15.040
REMARK INTER + INTRA:          -8.981
REMARK INTER:                  -8.475
REMARK INTRA:                  -0.506
REMARK UNBOUND:                -1.043
REMARK SMILES CCCCC/C=C/C(=O)CCc1ccc(O)c(OC)c1
REMARK SMILES IDX 6 1 7 2 8 3 9 4 10 5 11 6 12 7 17 8 20 9 15 10 14 11 13 12
REMARK SMILES IDX 18 13 19 14 16 15 5 17 4 18 3 19 2 20 1 21
REMARK H PARENT 16 16
REMARK Flexibility Score: inf
ROOT
ATOM      1  C   UNL     1      93.215  81.645  84.676  1.00  0.00    -0.023 C 
ATOM      2  C   UNL     1      94.377  81.092  85.045  1.00  0.00     0.043 C 
ENDROOT
BRANCH   2   3
ATOM      3  C   UNL     1      95.641  81.509  84.380  1.00  0.00     0.155 C 
ATOM      4  O   UNL     1      96.403  82.328  84.891  1.00  0.00    -0.295 OA
BRANCH   3   5
ATOM      5  C   UNL     1      95.917  80.912  83.014  1.00  0.00     0.085 C 
BRANCH   5   6
ATOM      6  C   UNL     1      96.795  81.837  82.170  1.00  0.00     0.044 C 
BRANCH   6   7
ATOM      7  C   UNL     1      97.097  81.273  80.802  1.00  0.00    -0.044 A 
ATOM      8  C   UNL     1      97.270  81.572  78.427  1.00  0.00     0.160 A 
ATOM      9  C   UNL     1      96.990  82.093  79.690  1.00  0.00     0.054 A 
ATOM     10  C   UNL     1      97.653  80.238  78.292  1.00  0.00     0.157 A 
ATOM     11  C   UNL     1      97.756  79.424  79.421  1.00  0.00     0.050 A 
ATOM     12  C   UNL     1      97.476  79.946  80.684  1.00  0.00     0.008 A 
BRANCH   8  13
ATOM     13  O   UNL     1      97.165  82.376  77.333  1.00  0.00    -0.493 OA
ATOM     14  C   UNL     1      95.860  82.838  76.989  1.00  0.00     0.278 C 
ENDBRANCH   8  13
BRANCH  10  15
ATOM     15  O   UNL     1      97.929  79.717  77.064  1.00  0.00    -0.504 OA
ATOM     16  H   UNL     1      97.088  79.567  76.600  1.00  0.00     0.293 HD
ENDBRANCH  10  15
ENDBRANCH   6   7
ENDBRANCH   5   6
ENDBRANCH   3   5
ENDBRANCH   2   3
BRANCH   1  17
ATOM     17  C   UNL     1      91.898  81.278  85.296  1.00  0.00     0.027 C 
BRANCH  17  18
ATOM     18  C   UNL     1      90.798  81.017  84.262  1.00  0.00     0.004 C 
BRANCH  18  19
ATOM     19  C   UNL     1      89.381  81.194  84.816  1.00  0.00     0.000 C 
BRANCH  19  20
ATOM     20  C   UNL     1      88.660  79.849  84.927  1.00  0.00    -0.003 C 
ATOM     21  C   UNL     1      88.601  79.137  83.585  1.00  0.00     0.004 C 
ENDBRANCH  19  20
ENDBRANCH  18  19
ENDBRANCH  17  18
ENDBRANCH   1  17
TORSDOF 10
ENDMDL
MODEL 9
REMARK VINA RESULT:    -4.939      4.528      9.188
REMARK INTER + INTRA:          -8.724
REMARK INTER:                  -8.024
REMARK INTRA:                  -0.700
REMARK UNBOUND:                -1.043
REMARK SMILES CCCCC/C=C/C(=O)CCc1ccc(O)c(OC)c1
REMARK SMILES IDX 6 1 7 2 8 3 9 4 10 5 11 6 12 7 17 8 20 9 15 10 14 11 13 12
REMARK SMILES IDX 18 13 19 14 16 15 5 17 4 18 3 19 2 20 1 21
REMARK H PARENT 16 16
REMARK Flexibility Score: inf
ROOT
ATOM      1  C   UNL     1      94.469  94.959  77.726  1.00  0.00    -0.023 C 
ATOM      2  C   UNL     1      95.574  94.580  78.380  1.00  0.00     0.043 C 
ENDROOT
BRANCH   2   3
ATOM      3  C   UNL     1      95.638  94.703  79.861  1.00  0.00     0.155 C 
ATOM      4  O   UNL     1      95.409  93.749  80.602  1.00  0.00    -0.295 OA
BRANCH   3   5
ATOM      5  C   UNL     1      95.948  96.081  80.413  1.00  0.00     0.085 C 
BRANCH   5   6
ATOM      6  C   UNL     1      96.670  95.991  81.758  1.00  0.00     0.044 C 
BRANCH   6   7
ATOM      7  C   UNL     1      96.603  97.277  82.548  1.00  0.00    -0.044 A 
ATOM      8  C   UNL     1      96.916  98.463  84.610  1.00  0.00     0.160 A 
ATOM      9  C   UNL     1      96.979  97.275  83.882  1.00  0.00     0.054 A 
ATOM     10  C   UNL     1      96.479  99.636  83.997  1.00  0.00     0.157 A 
ATOM     11  C   UNL     1      96.103  99.621  82.653  1.00  0.00     0.050 A 
ATOM     12  C   UNL     1      96.165  98.434  81.924  1.00  0.00     0.008 A 
BRANCH   8  13
ATOM     13  O   UNL     1      97.286  98.463  85.922  1.00  0.00    -0.493 OA
ATOM     14  C   UNL     1      98.683  98.403  86.202  1.00  0.00     0.278 C 
ENDBRANCH   8  13
BRANCH  10  15
ATOM     15  O   UNL     1      96.414 100.802  84.698  1.00  0.00    -0.504 OA
ATOM     16  H   UNL     1      95.544 101.207  84.537  1.00  0.00     0.293 HD
ENDBRANCH  10  15
ENDBRANCH   6   7
ENDBRANCH   5   6
ENDBRANCH   3   5
ENDBRANCH   2   3
BRANCH   1  17
ATOM     17  C   UNL     1      94.326  94.868  76.234  1.00  0.00     0.027 C 
BRANCH  17  18
ATOM     18  C   UNL     1      92.893  95.117  75.751  1.00  0.00     0.004 C 
BRANCH  18  19
ATOM     19  C   UNL     1      91.998  95.781  76.801  1.00  0.00     0.000 C 
BRANCH  19  20
ATOM     20  C   UNL     1      90.644  95.076  76.897  1.00  0.00    -0.003 C 
ATOM     21  C   UNL     1      90.806  93.600  77.222  1.00  0.00     0.004 C 
ENDBRANCH  19  20
ENDBRANCH  18  19
ENDBRANCH  17  18
ENDBRANCH   1  17
TORSDOF 10
ENDMDL
MODEL 10
REMARK VINA RESULT:    -4.883     13.808     15.468
REMARK INTER + INTRA:          -8.638
REMARK INTER:                  -8.058
REMARK INTRA:                  -0.580
REMARK UNBOUND:                -1.043
REMARK SMILES CCCCC/C=C/C(=O)CCc1ccc(O)c(OC)c1
REMARK SMILES IDX 6 1 7 2 8 3 9 4 10 5 11 6 12 7 17 8 20 9 15 10 14 11 13 12
REMARK SMILES IDX 18 13 19 14 16 15 5 17 4 18 3 19 2 20 1 21
REMARK H PARENT 16 16
REMARK Flexibility Score: inf
ROOT
ATOM      1  C   UNL     1      96.287  81.477  83.259  1.00  0.00    -0.023 C 
ATOM      2  C   UNL     1      95.313  82.051  83.975  1.00  0.00     0.043 C 
ENDROOT
BRANCH   2   3
ATOM      3  C   UNL     1      95.080  81.628  85.383  1.00  0.00     0.155 C 
ATOM      4  O   UNL     1      95.910  81.828  86.267  1.00  0.00    -0.295 OA
BRANCH   3   5
ATOM      5  C   UNL     1      93.786  80.888  85.661  1.00  0.00     0.085 C 
BRANCH   5   6
ATOM      6  C   UNL     1      92.688  81.301  84.679  1.00  0.00     0.044 C 
BRANCH   6   7
ATOM      7  C   UNL     1      91.301  80.959  85.171  1.00  0.00    -0.044 A 
ATOM      8  C   UNL     1      89.830  80.336  86.961  1.00  0.00     0.160 A 
ATOM      9  C   UNL     1      91.111  80.651  86.508  1.00  0.00     0.054 A 
ATOM     10  C   UNL     1      88.757  80.331  86.072  1.00  0.00     0.157 A 
ATOM     11  C   UNL     1      88.964  80.642  84.727  1.00  0.00     0.050 A 
ATOM     12  C   UNL     1      90.245  80.958  84.274  1.00  0.00     0.008 A 
BRANCH   8  13
ATOM     13  O   UNL     1      89.641  80.034  88.276  1.00  0.00    -0.493 OA
ATOM     14  C   UNL     1      90.343  80.826  89.232  1.00  0.00     0.278 C 
ENDBRANCH   8  13
BRANCH  10  15
ATOM     15  O   UNL     1      87.501  80.025  86.502  1.00  0.00    -0.504 OA
ATOM     16  H   UNL     1      87.066  79.487  85.818  1.00  0.00     0.293 HD
ENDBRANCH  10  15
ENDBRANCH   6   7
ENDBRANCH   5   6
ENDBRANCH   3   5
ENDBRANCH   2   3
BRANCH   1  17
ATOM     17  C   UNL     1      96.586  81.847  81.835  1.00  0.00     0.027 C 
BRANCH  17  18
ATOM     18  C   UNL     1      97.659  80.960  81.195  1.00  0.00     0.004 C 
BRANCH  18  19
ATOM     19  C   UNL     1      97.455  80.737  79.693  1.00  0.00     0.000 C 
BRANCH  19  20
ATOM     20  C   UNL     1      97.183  82.058  78.971  1.00  0.00    -0.003 C 
ATOM     21  C   UNL     1      96.924  81.839  77.489  1.00  0.00     0.004 C 
ENDBRANCH  19  20
ENDBRANCH  18  19
ENDBRANCH  17  18
ENDBRANCH   1  17
TORSDOF 10
ENDMDL
