MODEL 1
REMARK VINA RESULT:    -6.378      0.000      0.000
REMARK INTER + INTRA:         -10.982
REMARK INTER:                 -10.293
REMARK INTRA:                  -0.690
REMARK UNBOUND:                -0.690
REMARK SMILES COc1cc(CNC(=O)CCCCC/C=C/C(C)C)ccc1O
REMARK SMILES IDX 11 1 10 2 8 3 7 4 9 6 6 7 5 8 3 9 22 10 4 11 21 12 20 13
REMARK SMILES IDX 2 14 1 15 23 16 12 18 13 19 14 20 15 21 16 22 17 23 18 24
REMARK SMILES IDX 19 25
REMARK H PARENT 7 5 23 17
REMARK Flexibility Score: inf
ROOT
ATOM      1  C   UNL     1      96.865  85.480  85.677  1.00  0.00     0.010 C 
ENDROOT
BRANCH   1   2
ATOM      2  C   UNL     1      95.696  85.824  86.635  1.00  0.00     0.100 C 
BRANCH   2   3
ATOM      3  C   UNL     1      96.119  86.479  87.887  1.00  0.00     0.220 C 
ATOM      4  N   UNL     1      96.263  87.832  87.930  1.00  0.00    -0.352 N 
ATOM      5  H   UNL     1      96.132  88.298  87.042  1.00  0.00     0.163 HD
ATOM      6  O   UNL     1      96.298  85.764  88.902  1.00  0.00    -0.275 OA
BRANCH   4   7
ATOM      7  C   UNL     1      96.570  88.598  89.094  1.00  0.00     0.151 C 
BRANCH   7   8
ATOM      8  C   UNL     1      95.364  89.203  89.716  1.00  0.00    -0.025 A 
ATOM      9  C   UNL     1      93.349  88.997  91.111  1.00  0.00     0.160 A 
ATOM     10  C   UNL     1      93.035  90.350  90.856  1.00  0.00     0.157 A 
ATOM     11  C   UNL     1      94.504  88.432  90.533  1.00  0.00     0.056 A 
ATOM     12  C   UNL     1      93.893  91.130  90.058  1.00  0.00     0.050 A 
ATOM     13  C   UNL     1      95.054  90.564  89.501  1.00  0.00     0.009 A 
BRANCH   9  14
ATOM     14  O   UNL     1      92.569  88.253  91.956  1.00  0.00    -0.493 OA
ATOM     15  C   UNL     1      91.996  87.083  91.350  1.00  0.00     0.278 C 
ENDBRANCH   9  14
BRANCH  10  16
ATOM     16  O   UNL     1      91.919  90.924  91.369  1.00  0.00    -0.504 OA
ATOM     17  H   UNL     1      91.520  91.495  90.708  1.00  0.00     0.293 HD
ENDBRANCH  10  16
ENDBRANCH   7   8
ENDBRANCH   4   7
ENDBRANCH   2   3
ENDBRANCH   1   2
BRANCH   1  18
ATOM     18  C   UNL     1      96.938  83.955  85.409  1.00  0.00     0.001 C 
BRANCH  18  19
ATOM     19  C   UNL     1      98.225  83.513  84.668  1.00  0.00     0.004 C 
BRANCH  19  20
ATOM     20  C   UNL     1      98.003  82.188  83.886  1.00  0.00     0.027 C 
BRANCH  20  21
ATOM     21  C   UNL     1      98.492  82.228  82.519  1.00  0.00    -0.031 C 
ATOM     22  C   UNL     1      98.031  83.111  81.615  1.00  0.00    -0.028 C 
BRANCH  22  23
ATOM     23  C   UNL     1      98.506  83.181  80.236  1.00  0.00     0.005 C 
ATOM     24  C   UNL     1      99.201  81.852  79.839  1.00  0.00     0.012 C 
ATOM     25  C   UNL     1      97.334  83.541  79.282  1.00  0.00     0.012 C 
ENDBRANCH  22  23
ENDBRANCH  20  21
ENDBRANCH  19  20
ENDBRANCH  18  19
ENDBRANCH   1  18
TORSDOF 11
ENDMDL
MODEL 2
REMARK VINA RESULT:    -6.148     25.821     28.496
REMARK INTER + INTRA:         -10.611
REMARK INTER:                  -9.712
REMARK INTRA:                  -0.900
REMARK UNBOUND:                -0.690
REMARK SMILES COc1cc(CNC(=O)CCCCC/C=C/C(C)C)ccc1O
REMARK SMILES IDX 11 1 10 2 8 3 7 4 9 6 6 7 5 8 3 9 22 10 4 11 21 12 20 13
REMARK SMILES IDX 2 14 1 15 23 16 12 18 13 19 14 20 15 21 16 22 17 23 18 24
REMARK SMILES IDX 19 25
REMARK H PARENT 7 5 23 17
REMARK Flexibility Score: inf
ROOT
ATOM      1  C   UNL     1      77.370  82.874  66.088  1.00  0.00     0.010 C 
ENDROOT
BRANCH   1   2
ATOM      2  C   UNL     1      78.404  83.645  66.949  1.00  0.00     0.100 C 
BRANCH   2   3
ATOM      3  C   UNL     1      77.822  84.318  68.125  1.00  0.00     0.220 C 
ATOM      4  N   UNL     1      78.387  85.463  68.598  1.00  0.00    -0.352 N 
ATOM      5  H   UNL     1      79.241  85.736  68.131  1.00  0.00     0.163 HD
ATOM      6  O   UNL     1      76.786  83.833  68.637  1.00  0.00    -0.275 OA
BRANCH   4   7
ATOM      7  C   UNL     1      77.873  86.264  69.661  1.00  0.00     0.151 C 
BRANCH   7   8
ATOM      8  C   UNL     1      76.961  87.334  69.182  1.00  0.00    -0.025 A 
ATOM      9  C   UNL     1      75.347  89.131  69.644  1.00  0.00     0.160 A 
ATOM     10  C   UNL     1      75.182  89.339  68.257  1.00  0.00     0.157 A 
ATOM     11  C   UNL     1      76.227  88.126  70.095  1.00  0.00     0.056 A 
ATOM     12  C   UNL     1      75.920  88.568  67.340  1.00  0.00     0.050 A 
ATOM     13  C   UNL     1      76.811  87.581  67.799  1.00  0.00     0.009 A 
BRANCH   9  14
ATOM     14  O   UNL     1      74.700  89.934  70.546  1.00  0.00    -0.493 OA
ATOM     15  C   UNL     1      75.488  91.039  71.020  1.00  0.00     0.278 C 
ENDBRANCH   9  14
BRANCH  10  16
ATOM     16  O   UNL     1      74.324  90.276  67.782  1.00  0.00    -0.504 OA
ATOM     17  H   UNL     1      74.710  91.148  67.894  1.00  0.00     0.293 HD
ENDBRANCH  10  16
ENDBRANCH   7   8
ENDBRANCH   4   7
ENDBRANCH   2   3
ENDBRANCH   1   2
BRANCH   1  18
ATOM     18  C   UNL     1      76.835  83.758  64.932  1.00  0.00     0.001 C 
BRANCH  18  19
ATOM     19  C   UNL     1      76.492  82.963  63.646  1.00  0.00     0.004 C 
BRANCH  19  20
ATOM     20  C   UNL     1      76.295  81.451  63.950  1.00  0.00     0.027 C 
BRANCH  20  21
ATOM     21  C   UNL     1      74.909  81.019  63.890  1.00  0.00    -0.031 C 
ATOM     22  C   UNL     1      74.104  81.031  64.967  1.00  0.00    -0.028 C 
BRANCH  22  23
ATOM     23  C   UNL     1      72.706  80.609  64.938  1.00  0.00     0.005 C 
ATOM     24  C   UNL     1      71.772  81.823  65.189  1.00  0.00     0.012 C 
ATOM     25  C   UNL     1      72.391  79.890  63.598  1.00  0.00     0.012 C 
ENDBRANCH  22  23
ENDBRANCH  20  21
ENDBRANCH  19  20
ENDBRANCH  18  19
ENDBRANCH   1  18
TORSDOF 11
ENDMDL
MODEL 3
REMARK VINA RESULT:    -6.113      4.362      6.104
REMARK INTER + INTRA:         -10.555
REMARK INTER:                  -9.900
REMARK INTRA:                  -0.655
REMARK UNBOUND:                -0.690
REMARK SMILES COc1cc(CNC(=O)CCCCC/C=C/C(C)C)ccc1O
REMARK SMILES IDX 11 1 10 2 8 3 7 4 9 6 6 7 5 8 3 9 22 10 4 11 21 12 20 13
REMARK SMILES IDX 2 14 1 15 23 16 12 18 13 19 14 20 15 21 16 22 17 23 18 24
REMARK SMILES IDX 19 25
REMARK H PARENT 7 5 23 17
REMARK Flexibility Score: inf
ROOT
ATOM      1  C   UNL     1      96.939  82.824  85.302  1.00  0.00     0.010 C 
ENDROOT
BRANCH   1   2
ATOM      2  C   UNL     1      96.198  84.148  85.622  1.00  0.00     0.100 C 
BRANCH   2   3
ATOM      3  C   UNL     1      95.439  84.120  86.886  1.00  0.00     0.220 C 
ATOM      4  N   UNL     1      94.124  84.471  86.895  1.00  0.00    -0.352 N 
ATOM      5  H   UNL     1      93.771  84.808  86.010  1.00  0.00     0.163 HD
ATOM      6  O   UNL     1      96.025  83.729  87.924  1.00  0.00    -0.275 OA
BRANCH   4   7
ATOM      7  C   UNL     1      93.253  84.397  88.023  1.00  0.00     0.151 C 
BRANCH   7   8
ATOM      8  C   UNL     1      92.138  83.435  87.822  1.00  0.00    -0.025 A 
ATOM      9  C   UNL     1      91.134  81.554  86.595  1.00  0.00     0.160 A 
ATOM     10  C   UNL     1      89.984  81.638  87.409  1.00  0.00     0.157 A 
ATOM     11  C   UNL     1      92.197  82.458  86.801  1.00  0.00     0.056 A 
ATOM     12  C   UNL     1      89.921  82.595  88.438  1.00  0.00     0.050 A 
ATOM     13  C   UNL     1      90.995  83.480  88.650  1.00  0.00     0.009 A 
BRANCH   9  14
ATOM     14  O   UNL     1      91.242  80.571  85.648  1.00  0.00    -0.493 OA
ATOM     15  C   UNL     1      91.890  79.375  86.114  1.00  0.00     0.278 C 
ENDBRANCH   9  14
BRANCH  10  16
ATOM     16  O   UNL     1      88.928  80.807  87.225  1.00  0.00    -0.504 OA
ATOM     17  H   UNL     1      88.323  80.890  87.967  1.00  0.00     0.293 HD
ENDBRANCH  10  16
ENDBRANCH   7   8
ENDBRANCH   4   7
ENDBRANCH   2   3
ENDBRANCH   1   2
BRANCH   1  18
ATOM     18  C   UNL     1      98.260  83.094  84.535  1.00  0.00     0.001 C 
BRANCH  18  19
ATOM     19  C   UNL     1      98.318  82.424  83.139  1.00  0.00     0.004 C 
BRANCH  19  20
ATOM     20  C   UNL     1      97.841  83.396  82.024  1.00  0.00     0.027 C 
BRANCH  20  21
ATOM     21  C   UNL     1      98.435  83.130  80.725  1.00  0.00    -0.031 C 
ATOM     22  C   UNL     1      97.843  83.499  79.575  1.00  0.00    -0.028 C 
BRANCH  22  23
ATOM     23  C   UNL     1      98.416  83.252  78.254  1.00  0.00     0.005 C 
ATOM     24  C   UNL     1      98.635  81.731  78.039  1.00  0.00     0.012 C 
ATOM     25  C   UNL     1      97.518  83.880  77.153  1.00  0.00     0.012 C 
ENDBRANCH  22  23
ENDBRANCH  20  21
ENDBRANCH  19  20
ENDBRANCH  18  19
ENDBRANCH   1  18
TORSDOF 11
ENDMDL
MODEL 4
REMARK VINA RESULT:    -6.061      4.697      6.406
REMARK INTER + INTRA:         -10.471
REMARK INTER:                  -9.680
REMARK INTRA:                  -0.791
REMARK UNBOUND:                -0.690
REMARK SMILES COc1cc(CNC(=O)CCCCC/C=C/C(C)C)ccc1O
REMARK SMILES IDX 11 1 10 2 8 3 7 4 9 6 6 7 5 8 3 9 22 10 4 11 21 12 20 13
REMARK SMILES IDX 2 14 1 15 23 16 12 18 13 19 14 20 15 21 16 22 17 23 18 24
REMARK SMILES IDX 19 25
REMARK H PARENT 7 5 23 17
REMARK Flexibility Score: inf
ROOT
ATOM      1  C   UNL     1      97.011  83.390  86.908  1.00  0.00     0.010 C 
ENDROOT
BRANCH   1   2
ATOM      2  C   UNL     1      96.442  84.690  87.533  1.00  0.00     0.100 C 
BRANCH   2   3
ATOM      3  C   UNL     1      94.990  84.864  87.338  1.00  0.00     0.220 C 
ATOM      4  N   UNL     1      94.119  83.993  87.920  1.00  0.00    -0.352 N 
ATOM      5  H   UNL     1      94.555  83.220  88.403  1.00  0.00     0.163 HD
ATOM      6  O   UNL     1      94.593  85.845  86.667  1.00  0.00    -0.275 OA
BRANCH   4   7
ATOM      7  C   UNL     1      92.697  84.101  87.893  1.00  0.00     0.151 C 
BRANCH   7   8
ATOM      8  C   UNL     1      92.043  82.905  87.302  1.00  0.00    -0.025 A 
ATOM      9  C   UNL     1      90.024  81.572  86.863  1.00  0.00     0.160 A 
ATOM     10  C   UNL     1      90.811  80.593  86.218  1.00  0.00     0.157 A 
ATOM     11  C   UNL     1      90.646  82.714  87.407  1.00  0.00     0.056 A 
ATOM     12  C   UNL     1      92.200  80.781  86.092  1.00  0.00     0.050 A 
ATOM     13  C   UNL     1      92.810  81.933  86.621  1.00  0.00     0.009 A 
BRANCH   9  14
ATOM     14  O   UNL     1      88.661  81.441  86.913  1.00  0.00    -0.493 OA
ATOM     15  C   UNL     1      87.974  82.017  85.790  1.00  0.00     0.278 C 
ENDBRANCH   9  14
BRANCH  10  16
ATOM     16  O   UNL     1      90.256  79.466  85.706  1.00  0.00    -0.504 OA
ATOM     17  H   UNL     1      90.872  79.056  85.094  1.00  0.00     0.293 HD
ENDBRANCH  10  16
ENDBRANCH   7   8
ENDBRANCH   4   7
ENDBRANCH   2   3
ENDBRANCH   1   2
BRANCH   1  18
ATOM     18  C   UNL     1      96.495  83.193  85.460  1.00  0.00     0.001 C 
BRANCH  18  19
ATOM     19  C   UNL     1      97.376  83.880  84.386  1.00  0.00     0.004 C 
BRANCH  19  20
ATOM     20  C   UNL     1      97.922  82.851  83.357  1.00  0.00     0.027 C 
BRANCH  20  21
ATOM     21  C   UNL     1      97.857  83.310  81.980  1.00  0.00    -0.031 C 
ATOM     22  C   UNL     1      98.748  82.921  81.050  1.00  0.00    -0.028 C 
BRANCH  22  23
ATOM     23  C   UNL     1      98.707  83.360  79.657  1.00  0.00     0.005 C 
ATOM     24  C   UNL     1      99.802  82.634  78.832  1.00  0.00     0.012 C 
ATOM     25  C   UNL     1      97.286  83.146  79.069  1.00  0.00     0.012 C 
ENDBRANCH  22  23
ENDBRANCH  20  21
ENDBRANCH  19  20
ENDBRANCH  18  19
ENDBRANCH   1  18
TORSDOF 11
ENDMDL
MODEL 5
REMARK VINA RESULT:    -5.996      6.699     11.208
REMARK INTER + INTRA:         -10.366
REMARK INTER:                  -9.604
REMARK INTRA:                  -0.762
REMARK UNBOUND:                -0.690
REMARK SMILES COc1cc(CNC(=O)CCCCC/C=C/C(C)C)ccc1O
REMARK SMILES IDX 11 1 10 2 8 3 7 4 9 6 6 7 5 8 3 9 22 10 4 11 21 12 20 13
REMARK SMILES IDX 2 14 1 15 23 16 12 18 13 19 14 20 15 21 16 22 17 23 18 24
REMARK SMILES IDX 19 25
REMARK H PARENT 7 5 23 17
REMARK Flexibility Score: inf
ROOT
ATOM      1  C   UNL     1      97.473  83.987  84.689  1.00  0.00     0.010 C 
ENDROOT
BRANCH   1   2
ATOM      2  C   UNL     1      97.624  82.452  84.524  1.00  0.00     0.100 C 
BRANCH   2   3
ATOM      3  C   UNL     1      98.373  82.048  83.320  1.00  0.00     0.220 C 
ATOM      4  N   UNL     1      98.915  82.998  82.508  1.00  0.00    -0.352 N 
ATOM      5  H   UNL     1      98.691  83.950  82.766  1.00  0.00     0.163 HD
ATOM      6  O   UNL     1      98.526  80.824  83.097  1.00  0.00    -0.275 OA
BRANCH   4   7
ATOM      7  C   UNL     1      99.740  82.746  81.372  1.00  0.00     0.151 C 
BRANCH   7   8
ATOM      8  C   UNL     1      99.055  83.049  80.089  1.00  0.00    -0.025 A 
ATOM      9  C   UNL     1      99.126  83.352  77.649  1.00  0.00     0.160 A 
ATOM     10  C   UNL     1      97.753  83.681  77.651  1.00  0.00     0.157 A 
ATOM     11  C   UNL     1      99.768  83.048  78.867  1.00  0.00     0.056 A 
ATOM     12  C   UNL     1      97.030  83.668  78.858  1.00  0.00     0.050 A 
ATOM     13  C   UNL     1      97.674  83.344  80.067  1.00  0.00     0.009 A 
BRANCH   9  14
ATOM     14  O   UNL     1      99.819  83.276  76.470  1.00  0.00    -0.493 OA
ATOM     15  C   UNL     1     101.218  82.987  76.627  1.00  0.00     0.278 C 
ENDBRANCH   9  14
BRANCH  10  16
ATOM     16  O   UNL     1      97.105  84.007  76.505  1.00  0.00    -0.504 OA
ATOM     17  H   UNL     1      97.667  83.809  75.752  1.00  0.00     0.293 HD
ENDBRANCH  10  16
ENDBRANCH   7   8
ENDBRANCH   4   7
ENDBRANCH   2   3
ENDBRANCH   1   2
BRANCH   1  18
ATOM     18  C   UNL     1      98.226  84.491  85.947  1.00  0.00     0.001 C 
BRANCH  18  19
ATOM     19  C   UNL     1      98.842  83.355  86.801  1.00  0.00     0.004 C 
BRANCH  19  20
ATOM     20  C   UNL     1      99.683  83.923  87.978  1.00  0.00     0.027 C 
BRANCH  20  21
ATOM     21  C   UNL     1     101.052  83.436  88.007  1.00  0.00    -0.031 C 
ATOM     22  C   UNL     1     101.665  83.083  89.151  1.00  0.00    -0.028 C 
BRANCH  22  23
ATOM     23  C   UNL     1     103.037  82.585  89.213  1.00  0.00     0.005 C 
ATOM     24  C   UNL     1     103.873  83.164  88.041  1.00  0.00     0.012 C 
ATOM     25  C   UNL     1     103.662  82.905  90.598  1.00  0.00     0.012 C 
ENDBRANCH  22  23
ENDBRANCH  20  21
ENDBRANCH  19  20
ENDBRANCH  18  19
ENDBRANCH   1  18
TORSDOF 11
ENDMDL
MODEL 6
REMARK VINA RESULT:    -5.985     10.888     12.302
REMARK INTER + INTRA:         -10.349
REMARK INTER:                  -9.684
REMARK INTRA:                  -0.665
REMARK UNBOUND:                -0.690
REMARK SMILES COc1cc(CNC(=O)CCCCC/C=C/C(C)C)ccc1O
REMARK SMILES IDX 11 1 10 2 8 3 7 4 9 6 6 7 5 8 3 9 22 10 4 11 21 12 20 13
REMARK SMILES IDX 2 14 1 15 23 16 12 18 13 19 14 20 15 21 16 22 17 23 18 24
REMARK SMILES IDX 19 25
REMARK H PARENT 7 5 23 17
REMARK Flexibility Score: inf
ROOT
ATOM      1  C   UNL     1      93.903  94.286  79.889  1.00  0.00     0.010 C 
ENDROOT
BRANCH   1   2
ATOM      2  C   UNL     1      95.212  93.581  80.329  1.00  0.00     0.100 C 
BRANCH   2   3
ATOM      3  C   UNL     1      95.742  94.053  81.622  1.00  0.00     0.220 C 
ATOM      4  N   UNL     1      96.774  94.941  81.648  1.00  0.00    -0.352 N 
ATOM      5  H   UNL     1      97.161  95.164  80.742  1.00  0.00     0.163 HD
ATOM      6  O   UNL     1      95.193  93.648  82.674  1.00  0.00    -0.275 OA
BRANCH   4   7
ATOM      7  C   UNL     1      97.315  95.549  82.820  1.00  0.00     0.151 C 
BRANCH   7   8
ATOM      8  C   UNL     1      96.743  96.895  83.082  1.00  0.00    -0.025 A 
ATOM      9  C   UNL     1      96.193  98.715  84.642  1.00  0.00     0.160 A 
ATOM     10  C   UNL     1      95.600  99.440  83.586  1.00  0.00     0.157 A 
ATOM     11  C   UNL     1      96.751  97.446  84.385  1.00  0.00     0.056 A 
ATOM     12  C   UNL     1      95.602  98.909  82.283  1.00  0.00     0.050 A 
ATOM     13  C   UNL     1      96.178  97.651  82.031  1.00  0.00     0.009 A 
BRANCH   9  14
ATOM     14  O   UNL     1      96.275  99.261  85.896  1.00  0.00    -0.493 OA
ATOM     15  C   UNL     1      96.252  98.295  86.960  1.00  0.00     0.278 C 
ENDBRANCH   9  14
BRANCH  10  16
ATOM     16  O   UNL     1      95.028 100.652  83.797  1.00  0.00    -0.504 OA
ATOM     17  H   UNL     1      95.624 101.203  84.310  1.00  0.00     0.293 HD
ENDBRANCH  10  16
ENDBRANCH   7   8
ENDBRANCH   4   7
ENDBRANCH   2   3
ENDBRANCH   1   2
BRANCH   1  18
ATOM     18  C   UNL     1      94.156  95.779  79.557  1.00  0.00     0.001 C 
BRANCH  18  19
ATOM     19  C   UNL     1      93.910  96.137  78.069  1.00  0.00     0.004 C 
BRANCH  19  20
ATOM     20  C   UNL     1      93.928  94.869  77.170  1.00  0.00     0.027 C 
BRANCH  20  21
ATOM     21  C   UNL     1      92.673  94.135  77.170  1.00  0.00    -0.031 C 
ATOM     22  C   UNL     1      91.480  94.752  77.219  1.00  0.00    -0.028 C 
BRANCH  22  23
ATOM     23  C   UNL     1      90.202  94.044  77.214  1.00  0.00     0.005 C 
ATOM     24  C   UNL     1      90.119  93.076  78.424  1.00  0.00     0.012 C 
ATOM     25  C   UNL     1      89.026  95.059  77.189  1.00  0.00     0.012 C 
ENDBRANCH  22  23
ENDBRANCH  20  21
ENDBRANCH  19  20
ENDBRANCH  18  19
ENDBRANCH   1  18
TORSDOF 11
ENDMDL
MODEL 7
REMARK VINA RESULT:    -5.910      6.863     10.646
REMARK INTER + INTRA:         -10.227
REMARK INTER:                  -8.857
REMARK INTRA:                  -1.371
REMARK UNBOUND:                -0.690
REMARK SMILES COc1cc(CNC(=O)CCCCC/C=C/C(C)C)ccc1O
REMARK SMILES IDX 11 1 10 2 8 3 7 4 9 6 6 7 5 8 3 9 22 10 4 11 21 12 20 13
REMARK SMILES IDX 2 14 1 15 23 16 12 18 13 19 14 20 15 21 16 22 17 23 18 24
REMARK SMILES IDX 19 25
REMARK H PARENT 7 5 23 17
REMARK Flexibility Score: inf
ROOT
ATOM      1  C   UNL     1      99.981  82.674  75.696  1.00  0.00     0.010 C 
ENDROOT
BRANCH   1   2
ATOM      2  C   UNL     1      99.207  83.966  76.065  1.00  0.00     0.100 C 
BRANCH   2   3
ATOM      3  C   UNL     1      98.242  83.793  77.167  1.00  0.00     0.220 C 
ATOM      4  N   UNL     1      98.691  83.577  78.434  1.00  0.00    -0.352 N 
ATOM      5  H   UNL     1      99.693  83.476  78.514  1.00  0.00     0.163 HD
ATOM      6  O   UNL     1      97.019  83.891  76.908  1.00  0.00    -0.275 OA
BRANCH   4   7
ATOM      7  C   UNL     1      97.874  83.490  79.600  1.00  0.00     0.151 C 
BRANCH   7   8
ATOM      8  C   UNL     1      98.602  82.930  80.768  1.00  0.00    -0.025 A 
ATOM      9  C   UNL     1      98.867  82.682  83.201  1.00  0.00     0.160 A 
ATOM     10  C   UNL     1     100.027  81.903  82.993  1.00  0.00     0.157 A 
ATOM     11  C   UNL     1      98.170  83.196  82.089  1.00  0.00     0.056 A 
ATOM     12  C   UNL     1     100.456  81.619  81.684  1.00  0.00     0.050 A 
ATOM     13  C   UNL     1      99.743  82.120  80.579  1.00  0.00     0.009 A 
BRANCH   9  14
ATOM     14  O   UNL     1      98.391  82.891  84.468  1.00  0.00    -0.493 OA
ATOM     15  C   UNL     1      97.175  83.655  84.520  1.00  0.00     0.278 C 
ENDBRANCH   9  14
BRANCH  10  16
ATOM     16  O   UNL     1     100.743  81.414  84.037  1.00  0.00    -0.504 OA
ATOM     17  H   UNL     1     100.373  81.741  84.860  1.00  0.00     0.293 HD
ENDBRANCH  10  16
ENDBRANCH   7   8
ENDBRANCH   4   7
ENDBRANCH   2   3
ENDBRANCH   1   2
BRANCH   1  18
ATOM     18  C   UNL     1     101.427  82.999  75.242  1.00  0.00     0.001 C 
BRANCH  18  19
ATOM     19  C   UNL     1     102.398  83.285  76.415  1.00  0.00     0.004 C 
BRANCH  19  20
ATOM     20  C   UNL     1     102.067  82.406  77.653  1.00  0.00     0.027 C 
BRANCH  20  21
ATOM     21  C   UNL     1     103.209  81.675  78.174  1.00  0.00    -0.031 C 
ATOM     22  C   UNL     1     103.410  81.499  79.492  1.00  0.00    -0.028 C 
BRANCH  22  23
ATOM     23  C   UNL     1     104.545  80.765  80.047  1.00  0.00     0.005 C 
ATOM     24  C   UNL     1     105.838  81.097  79.256  1.00  0.00     0.012 C 
ATOM     25  C   UNL     1     104.688  81.065  81.564  1.00  0.00     0.012 C 
ENDBRANCH  22  23
ENDBRANCH  20  21
ENDBRANCH  19  20
ENDBRANCH  18  19
ENDBRANCH   1  18
TORSDOF 11
ENDMDL
MODEL 8
REMARK VINA RESULT:    -5.907     26.053     28.664
REMARK INTER + INTRA:         -10.223
REMARK INTER:                  -9.232
REMARK INTRA:                  -0.990
REMARK UNBOUND:                -0.690
REMARK SMILES COc1cc(CNC(=O)CCCCC/C=C/C(C)C)ccc1O
REMARK SMILES IDX 11 1 10 2 8 3 7 4 9 6 6 7 5 8 3 9 22 10 4 11 21 12 20 13
REMARK SMILES IDX 2 14 1 15 23 16 12 18 13 19 14 20 15 21 16 22 17 23 18 24
REMARK SMILES IDX 19 25
REMARK H PARENT 7 5 23 17
REMARK Flexibility Score: inf
ROOT
ATOM      1  C   UNL     1      77.512  83.362  65.749  1.00  0.00     0.010 C 
ENDROOT
BRANCH   1   2
ATOM      2  C   UNL     1      78.427  84.092  66.767  1.00  0.00     0.100 C 
BRANCH   2   3
ATOM      3  C   UNL     1      77.812  84.291  68.092  1.00  0.00     0.220 C 
ATOM      4  N   UNL     1      78.214  85.328  68.877  1.00  0.00    -0.352 N 
ATOM      5  H   UNL     1      78.986  85.863  68.505  1.00  0.00     0.163 HD
ATOM      6  O   UNL     1      76.895  83.512  68.446  1.00  0.00    -0.275 OA
BRANCH   4   7
ATOM      7  C   UNL     1      77.638  85.691  70.131  1.00  0.00     0.151 C 
BRANCH   7   8
ATOM      8  C   UNL     1      76.440  86.557  69.982  1.00  0.00    -0.025 A 
ATOM      9  C   UNL     1      74.002  86.816  69.796  1.00  0.00     0.160 A 
ATOM     10  C   UNL     1      74.162  88.210  69.643  1.00  0.00     0.157 A 
ATOM     11  C   UNL     1      75.140  86.000  69.955  1.00  0.00     0.056 A 
ATOM     12  C   UNL     1      75.449  88.777  69.686  1.00  0.00     0.050 A 
ATOM     13  C   UNL     1      76.579  87.958  69.865  1.00  0.00     0.009 A 
BRANCH   9  14
ATOM     14  O   UNL     1      72.749  86.264  69.843  1.00  0.00    -0.493 OA
ATOM     15  C   UNL     1      72.408  85.479  68.689  1.00  0.00     0.278 C 
ENDBRANCH   9  14
BRANCH  10  16
ATOM     16  O   UNL     1      73.095  89.027  69.459  1.00  0.00    -0.504 OA
ATOM     17  H   UNL     1      73.194  89.810  70.007  1.00  0.00     0.293 HD
ENDBRANCH  10  16
ENDBRANCH   7   8
ENDBRANCH   4   7
ENDBRANCH   2   3
ENDBRANCH   1   2
BRANCH   1  18
ATOM     18  C   UNL     1      76.611  84.367  64.987  1.00  0.00     0.001 C 
BRANCH  18  19
ATOM     19  C   UNL     1      76.159  83.864  63.592  1.00  0.00     0.004 C 
BRANCH  19  20
ATOM     20  C   UNL     1      76.122  82.312  63.534  1.00  0.00     0.027 C 
BRANCH  20  21
ATOM     21  C   UNL     1      74.781  81.756  63.611  1.00  0.00    -0.031 C 
ATOM     22  C   UNL     1      74.336  81.103  64.698  1.00  0.00    -0.028 C 
BRANCH  22  23
ATOM     23  C   UNL     1      72.993  80.537  64.809  1.00  0.00     0.005 C 
ATOM     24  C   UNL     1      71.991  81.622  65.287  1.00  0.00     0.012 C 
ATOM     25  C   UNL     1      72.568  79.894  63.461  1.00  0.00     0.012 C 
ENDBRANCH  22  23
ENDBRANCH  20  21
ENDBRANCH  19  20
ENDBRANCH  18  19
ENDBRANCH   1  18
TORSDOF 11
ENDMDL
MODEL 9
REMARK VINA RESULT:    -5.777     26.538     29.709
REMARK INTER + INTRA:         -10.013
REMARK INTER:                  -8.383
REMARK INTRA:                  -1.630
REMARK UNBOUND:                -0.690
REMARK SMILES COc1cc(CNC(=O)CCCCC/C=C/C(C)C)ccc1O
REMARK SMILES IDX 11 1 10 2 8 3 7 4 9 6 6 7 5 8 3 9 22 10 4 11 21 12 20 13
REMARK SMILES IDX 2 14 1 15 23 16 12 18 13 19 14 20 15 21 16 22 17 23 18 24
REMARK SMILES IDX 19 25
REMARK H PARENT 7 5 23 17
REMARK Flexibility Score: inf
ROOT
ATOM      1  C   UNL     1      73.529  81.252  65.503  1.00  0.00     0.010 C 
ENDROOT
BRANCH   1   2
ATOM      2  C   UNL     1      74.209  80.864  64.165  1.00  0.00     0.100 C 
BRANCH   2   3
ATOM      3  C   UNL     1      75.488  81.556  63.918  1.00  0.00     0.220 C 
ATOM      4  N   UNL     1      75.587  82.896  64.138  1.00  0.00    -0.352 N 
ATOM      5  H   UNL     1      74.720  83.346  64.396  1.00  0.00     0.163 HD
ATOM      6  O   UNL     1      76.472  80.874  63.546  1.00  0.00    -0.275 OA
BRANCH   4   7
ATOM      7  C   UNL     1      76.783  83.667  64.034  1.00  0.00     0.151 C 
BRANCH   7   8
ATOM      8  C   UNL     1      77.271  84.148  65.352  1.00  0.00    -0.025 A 
ATOM      9  C   UNL     1      77.605  85.967  66.973  1.00  0.00     0.160 A 
ATOM     10  C   UNL     1      78.253  85.068  67.847  1.00  0.00     0.157 A 
ATOM     11  C   UNL     1      77.127  85.503  65.730  1.00  0.00     0.056 A 
ATOM     12  C   UNL     1      78.386  83.714  67.489  1.00  0.00     0.050 A 
ATOM     13  C   UNL     1      77.889  83.255  66.255  1.00  0.00     0.009 A 
BRANCH   9  14
ATOM     14  O   UNL     1      77.392  87.267  67.349  1.00  0.00    -0.493 OA
ATOM     15  C   UNL     1      76.562  88.013  66.443  1.00  0.00     0.278 C 
ENDBRANCH   9  14
BRANCH  10  16
ATOM     16  O   UNL     1      78.752  85.481  69.040  1.00  0.00    -0.504 OA
ATOM     17  H   UNL     1      79.238  84.761  69.449  1.00  0.00     0.293 HD
ENDBRANCH  10  16
ENDBRANCH   7   8
ENDBRANCH   4   7
ENDBRANCH   2   3
ENDBRANCH   1   2
BRANCH   1  18
ATOM     18  C   UNL     1      72.257  82.104  65.259  1.00  0.00     0.001 C 
BRANCH  18  19
ATOM     19  C   UNL     1      72.011  83.182  66.344  1.00  0.00     0.004 C 
BRANCH  19  20
ATOM     20  C   UNL     1      73.323  83.934  66.705  1.00  0.00     0.027 C 
BRANCH  20  21
ATOM     21  C   UNL     1      73.230  84.718  67.924  1.00  0.00    -0.031 C 
ATOM     22  C   UNL     1      74.317  85.096  68.620  1.00  0.00    -0.028 C 
BRANCH  22  23
ATOM     23  C   UNL     1      74.259  85.889  69.846  1.00  0.00     0.005 C 
ATOM     24  C   UNL     1      75.574  86.690  70.031  1.00  0.00     0.012 C 
ATOM     25  C   UNL     1      73.006  86.807  69.831  1.00  0.00     0.012 C 
ENDBRANCH  22  23
ENDBRANCH  20  21
ENDBRANCH  19  20
ENDBRANCH  18  19
ENDBRANCH   1  18
TORSDOF 11
ENDMDL
MODEL 10
REMARK VINA RESULT:    -5.716     27.524     30.750
REMARK INTER + INTRA:          -9.914
REMARK INTER:                  -9.170
REMARK INTRA:                  -0.744
REMARK UNBOUND:                -0.690
REMARK SMILES COc1cc(CNC(=O)CCCCC/C=C/C(C)C)ccc1O
REMARK SMILES IDX 11 1 10 2 8 3 7 4 9 6 6 7 5 8 3 9 22 10 4 11 21 12 20 13
REMARK SMILES IDX 2 14 1 15 23 16 12 18 13 19 14 20 15 21 16 22 17 23 18 24
REMARK SMILES IDX 19 25
REMARK H PARENT 7 5 23 17
REMARK Flexibility Score: inf
ROOT
ATOM      1  C   UNL     1      73.535  81.200  65.438  1.00  0.00     0.010 C 
ENDROOT
BRANCH   1   2
ATOM      2  C   UNL     1      74.162  80.986  64.036  1.00  0.00     0.100 C 
BRANCH   2   3
ATOM      3  C   UNL     1      75.417  81.729  63.820  1.00  0.00     0.220 C 
ATOM      4  N   UNL     1      75.452  83.075  64.025  1.00  0.00    -0.352 N 
ATOM      5  H   UNL     1      74.558  83.490  64.250  1.00  0.00     0.163 HD
ATOM      6  O   UNL     1      76.441  81.086  63.488  1.00  0.00    -0.275 OA
BRANCH   4   7
ATOM      7  C   UNL     1      76.616  83.897  63.947  1.00  0.00     0.151 C 
BRANCH   7   8
ATOM      8  C   UNL     1      77.151  84.260  65.285  1.00  0.00    -0.025 A 
ATOM      9  C   UNL     1      77.518  85.923  67.059  1.00  0.00     0.160 A 
ATOM     10  C   UNL     1      78.220  84.960  67.815  1.00  0.00     0.157 A 
ATOM     11  C   UNL     1      76.997  85.569  65.798  1.00  0.00     0.056 A 
ATOM     12  C   UNL     1      78.365  83.650  67.323  1.00  0.00     0.050 A 
ATOM     13  C   UNL     1      77.825  83.299  66.071  1.00  0.00     0.009 A 
BRANCH   9  14
ATOM     14  O   UNL     1      77.296  87.176  67.567  1.00  0.00    -0.493 OA
ATOM     15  C   UNL     1      76.397  87.977  66.783  1.00  0.00     0.278 C 
ENDBRANCH   9  14
BRANCH  10  16
ATOM     16  O   UNL     1      78.762  85.268  69.020  1.00  0.00    -0.504 OA
ATOM     17  H   UNL     1      79.279  84.524  69.338  1.00  0.00     0.293 HD
ENDBRANCH  10  16
ENDBRANCH   7   8
ENDBRANCH   4   7
ENDBRANCH   2   3
ENDBRANCH   1   2
BRANCH   1  18
ATOM     18  C   UNL     1      72.203  81.986  65.340  1.00  0.00     0.001 C 
BRANCH  18  19
ATOM     19  C   UNL     1      71.884  82.832  66.599  1.00  0.00     0.004 C 
BRANCH  19  20
ATOM     20  C   UNL     1      70.467  82.515  67.152  1.00  0.00     0.027 C 
BRANCH  20  21
ATOM     21  C   UNL     1      70.157  83.201  68.394  1.00  0.00    -0.031 C 
ATOM     22  C   UNL     1      68.910  83.249  68.897  1.00  0.00    -0.028 C 
BRANCH  22  23
ATOM     23  C   UNL     1      68.567  83.925  70.146  1.00  0.00     0.005 C 
ATOM     24  C   UNL     1      67.340  83.243  70.808  1.00  0.00     0.012 C 
ATOM     25  C   UNL     1      69.799  83.967  71.090  1.00  0.00     0.012 C 
ENDBRANCH  22  23
ENDBRANCH  20  21
ENDBRANCH  19  20
ENDBRANCH  18  19
ENDBRANCH   1  18
TORSDOF 11
ENDMDL
