MODEL 1
REMARK VINA RESULT:    -6.470      0.000      0.000
REMARK INTER + INTRA:         -11.219
REMARK INTER:                 -10.441
REMARK INTRA:                  -0.777
REMARK UNBOUND:                -0.777
REMARK SMILES COc1cc(CNC(=O)CCCCCCC(C)C)ccc1O
REMARK SMILES IDX 11 1 10 2 8 3 7 4 9 6 6 7 5 8 3 9 21 10 4 11 20 12 19 13
REMARK SMILES IDX 2 14 1 15 22 16 12 18 13 19 14 20 15 21 16 22 17 23 18 24
REMARK H PARENT 7 5 22 17
REMARK Flexibility Score: inf
ROOT
ATOM      1  C   UNL     1      93.239  93.989  76.706  1.00  0.00     0.010 C 
ENDROOT
BRANCH   1   2
ATOM      2  C   UNL     1      91.954  94.851  76.566  1.00  0.00     0.100 C 
BRANCH   2   3
ATOM      3  C   UNL     1      90.790  94.089  76.060  1.00  0.00     0.220 C 
ATOM      4  N   UNL     1      90.656  92.762  76.349  1.00  0.00    -0.352 N 
ATOM      5  H   UNL     1      91.420  92.368  76.878  1.00  0.00     0.163 HD
ATOM      6  O   UNL     1      89.923  94.694  75.383  1.00  0.00    -0.275 OA
BRANCH   4   7
ATOM      7  C   UNL     1      89.549  91.940  75.964  1.00  0.00     0.151 C 
BRANCH   7   8
ATOM      8  C   UNL     1      89.947  90.552  75.602  1.00  0.00    -0.025 A 
ATOM      9  C   UNL     1      90.455  88.240  76.268  1.00  0.00     0.160 A 
ATOM     10  C   UNL     1      90.662  87.894  74.915  1.00  0.00     0.157 A 
ATOM     11  C   UNL     1      90.118  89.568  76.602  1.00  0.00     0.056 A 
ATOM     12  C   UNL     1      90.533  88.873  73.913  1.00  0.00     0.050 A 
ATOM     13  C   UNL     1      90.168  90.191  74.252  1.00  0.00     0.009 A 
BRANCH   9  14
ATOM     14  O   UNL     1      90.616  87.304  77.253  1.00  0.00    -0.493 OA
ATOM     15  C   UNL     1      89.864  87.585  78.448  1.00  0.00     0.278 C 
ENDBRANCH   9  14
BRANCH  10  16
ATOM     16  O   UNL     1      90.989  86.622  74.563  1.00  0.00    -0.504 OA
ATOM     17  H   UNL     1      91.943  86.517  74.597  1.00  0.00     0.293 HD
ENDBRANCH  10  16
ENDBRANCH   7   8
ENDBRANCH   4   7
ENDBRANCH   2   3
ENDBRANCH   1   2
BRANCH   1  18
ATOM     18  C   UNL     1      94.123  94.040  75.428  1.00  0.00     0.001 C 
BRANCH  18  19
ATOM     19  C   UNL     1      95.649  93.984  75.718  1.00  0.00     0.000 C 
BRANCH  19  20
ATOM     20  C   UNL     1      95.939  93.948  77.245  1.00  0.00     0.000 C 
BRANCH  20  21
ATOM     21  C   UNL     1      96.224  95.342  77.872  1.00  0.00     0.003 C 
BRANCH  21  22
ATOM     22  C   UNL     1      96.179  95.373  79.435  1.00  0.00    -0.017 C 
ATOM     23  C   UNL     1      97.580  95.718  80.012  1.00  0.00     0.007 C 
ATOM     24  C   UNL     1      95.634  94.060  80.071  1.00  0.00     0.007 C 
ENDBRANCH  21  22
ENDBRANCH  20  21
ENDBRANCH  19  20
ENDBRANCH  18  19
ENDBRANCH   1  18
TORSDOF 11
ENDMDL
MODEL 2
REMARK VINA RESULT:    -5.910     25.579     28.589
REMARK INTER + INTRA:         -10.316
REMARK INTER:                  -9.341
REMARK INTRA:                  -0.975
REMARK UNBOUND:                -0.777
REMARK SMILES COc1cc(CNC(=O)CCCCCCC(C)C)ccc1O
REMARK SMILES IDX 11 1 10 2 8 3 7 4 9 6 6 7 5 8 3 9 21 10 4 11 20 12 19 13
REMARK SMILES IDX 2 14 1 15 22 16 12 18 13 19 14 20 15 21 16 22 17 23 18 24
REMARK H PARENT 7 5 22 17
REMARK Flexibility Score: inf
ROOT
ATOM      1  C   UNL     1      81.340  66.433  75.313  1.00  0.00     0.010 C 
ENDROOT
BRANCH   1   2
ATOM      2  C   UNL     1      81.673  65.196  76.193  1.00  0.00     0.100 C 
BRANCH   2   3
ATOM      3  C   UNL     1      83.117  65.061  76.488  1.00  0.00     0.220 C 
ATOM      4  N   UNL     1      83.567  64.040  77.273  1.00  0.00    -0.352 N 
ATOM      5  H   UNL     1      82.841  63.446  77.649  1.00  0.00     0.163 HD
ATOM      6  O   UNL     1      83.915  65.887  75.982  1.00  0.00    -0.275 OA
BRANCH   4   7
ATOM      7  C   UNL     1      84.940  63.775  77.578  1.00  0.00     0.151 C 
BRANCH   7   8
ATOM      8  C   UNL     1      85.329  64.201  78.951  1.00  0.00    -0.025 A 
ATOM      9  C   UNL     1      86.409  65.822  80.452  1.00  0.00     0.160 A 
ATOM     10  C   UNL     1      86.035  65.042  81.567  1.00  0.00     0.157 A 
ATOM     11  C   UNL     1      86.070  65.387  79.153  1.00  0.00     0.056 A 
ATOM     12  C   UNL     1      85.331  63.839  81.376  1.00  0.00     0.050 A 
ATOM     13  C   UNL     1      84.970  63.426  80.079  1.00  0.00     0.009 A 
BRANCH   9  14
ATOM     14  O   UNL     1      87.128  66.974  80.624  1.00  0.00    -0.493 OA
ATOM     15  C   UNL     1      87.464  67.637  79.392  1.00  0.00     0.278 C 
ENDBRANCH   9  14
BRANCH  10  16
ATOM     16  O   UNL     1      86.349  65.436  82.830  1.00  0.00    -0.504 OA
ATOM     17  H   UNL     1      86.539  66.377  82.833  1.00  0.00     0.293 HD
ENDBRANCH  10  16
ENDBRANCH   7   8
ENDBRANCH   4   7
ENDBRANCH   2   3
ENDBRANCH   1   2
BRANCH   1  18
ATOM     18  C   UNL     1      80.192  66.143  74.304  1.00  0.00     0.001 C 
BRANCH  18  19
ATOM     19  C   UNL     1      80.582  65.138  73.184  1.00  0.00     0.000 C 
BRANCH  19  20
ATOM     20  C   UNL     1      80.201  65.674  71.775  1.00  0.00     0.000 C 
BRANCH  20  21
ATOM     21  C   UNL     1      80.408  67.204  71.598  1.00  0.00     0.003 C 
BRANCH  21  22
ATOM     22  C   UNL     1      81.854  67.619  71.173  1.00  0.00    -0.017 C 
ATOM     23  C   UNL     1      82.615  66.403  70.574  1.00  0.00     0.007 C 
ATOM     24  C   UNL     1      82.681  68.268  72.322  1.00  0.00     0.007 C 
ENDBRANCH  21  22
ENDBRANCH  20  21
ENDBRANCH  19  20
ENDBRANCH  18  19
ENDBRANCH   1  18
TORSDOF 11
ENDMDL
MODEL 3
REMARK VINA RESULT:    -5.814     26.926     29.471
REMARK INTER + INTRA:         -10.160
REMARK INTER:                  -9.347
REMARK INTRA:                  -0.813
REMARK UNBOUND:                -0.777
REMARK SMILES COc1cc(CNC(=O)CCCCCCC(C)C)ccc1O
REMARK SMILES IDX 11 1 10 2 8 3 7 4 9 6 6 7 5 8 3 9 21 10 4 11 20 12 19 13
REMARK SMILES IDX 2 14 1 15 22 16 12 18 13 19 14 20 15 21 16 22 17 23 18 24
REMARK H PARENT 7 5 22 17
REMARK Flexibility Score: inf
ROOT
ATOM      1  C   UNL     1      63.466  85.664  75.506  1.00  0.00     0.010 C 
ENDROOT
BRANCH   1   2
ATOM      2  C   UNL     1      64.681  85.039  76.247  1.00  0.00     0.100 C 
BRANCH   2   3
ATOM      3  C   UNL     1      65.312  85.963  77.216  1.00  0.00     0.220 C 
ATOM      4  N   UNL     1      64.749  86.167  78.442  1.00  0.00    -0.352 N 
ATOM      5  H   UNL     1      63.876  85.681  78.590  1.00  0.00     0.163 HD
ATOM      6  O   UNL     1      66.385  86.531  76.895  1.00  0.00    -0.275 OA
BRANCH   4   7
ATOM      7  C   UNL     1      65.298  86.988  79.477  1.00  0.00     0.151 C 
BRANCH   7   8
ATOM      8  C   UNL     1      65.778  86.209  80.652  1.00  0.00    -0.025 A 
ATOM      9  C   UNL     1      65.574  85.587  83.022  1.00  0.00     0.160 A 
ATOM     10  C   UNL     1      66.660  84.694  82.884  1.00  0.00     0.157 A 
ATOM     11  C   UNL     1      65.155  86.349  81.912  1.00  0.00     0.056 A 
ATOM     12  C   UNL     1      67.314  84.574  81.644  1.00  0.00     0.050 A 
ATOM     13  C   UNL     1      66.871  85.317  80.532  1.00  0.00     0.009 A 
BRANCH   9  14
ATOM     14  O   UNL     1      64.957  85.740  84.233  1.00  0.00    -0.493 OA
ATOM     15  C   UNL     1      63.599  85.264  84.256  1.00  0.00     0.278 C 
ENDBRANCH   9  14
BRANCH  10  16
ATOM     16  O   UNL     1      67.086  83.948  83.936  1.00  0.00    -0.504 OA
ATOM     17  H   UNL     1      66.559  84.157  84.710  1.00  0.00     0.293 HD
ENDBRANCH  10  16
ENDBRANCH   7   8
ENDBRANCH   4   7
ENDBRANCH   2   3
ENDBRANCH   1   2
BRANCH   1  18
ATOM     18  C   UNL     1      62.489  84.581  74.965  1.00  0.00     0.001 C 
BRANCH  18  19
ATOM     19  C   UNL     1      62.394  83.317  75.864  1.00  0.00     0.000 C 
BRANCH  19  20
ATOM     20  C   UNL     1      62.436  82.011  75.022  1.00  0.00     0.000 C 
BRANCH  20  21
ATOM     21  C   UNL     1      63.848  81.370  74.909  1.00  0.00     0.003 C 
BRANCH  21  22
ATOM     22  C   UNL     1      64.062  80.488  73.636  1.00  0.00    -0.017 C 
ATOM     23  C   UNL     1      65.557  80.084  73.500  1.00  0.00     0.007 C 
ATOM     24  C   UNL     1      63.555  81.153  72.322  1.00  0.00     0.007 C 
ENDBRANCH  21  22
ENDBRANCH  20  21
ENDBRANCH  19  20
ENDBRANCH  18  19
ENDBRANCH   1  18
TORSDOF 11
ENDMDL
MODEL 4
REMARK VINA RESULT:    -5.718     23.099     26.910
REMARK INTER + INTRA:         -10.006
REMARK INTER:                  -8.258
REMARK INTRA:                  -1.748
REMARK UNBOUND:                -0.777
REMARK SMILES COc1cc(CNC(=O)CCCCCCC(C)C)ccc1O
REMARK SMILES IDX 11 1 10 2 8 3 7 4 9 6 6 7 5 8 3 9 21 10 4 11 20 12 19 13
REMARK SMILES IDX 2 14 1 15 22 16 12 18 13 19 14 20 15 21 16 22 17 23 18 24
REMARK H PARENT 7 5 22 17
REMARK Flexibility Score: inf
ROOT
ATOM      1  C   UNL     1      81.758  67.863  71.008  1.00  0.00     0.010 C 
ENDROOT
BRANCH   1   2
ATOM      2  C   UNL     1      82.947  66.897  71.270  1.00  0.00     0.100 C 
BRANCH   2   3
ATOM      3  C   UNL     1      84.147  67.579  71.805  1.00  0.00     0.220 C 
ATOM      4  N   UNL     1      84.129  68.125  73.055  1.00  0.00    -0.352 N 
ATOM      5  H   UNL     1      83.242  68.058  73.532  1.00  0.00     0.163 HD
ATOM      6  O   UNL     1      85.181  67.620  71.096  1.00  0.00    -0.275 OA
BRANCH   4   7
ATOM      7  C   UNL     1      85.243  68.754  73.698  1.00  0.00     0.151 C 
BRANCH   7   8
ATOM      8  C   UNL     1      85.470  68.269  75.087  1.00  0.00    -0.025 A 
ATOM      9  C   UNL     1      85.975  68.733  77.448  1.00  0.00     0.160 A 
ATOM     10  C   UNL     1      85.862  67.357  77.745  1.00  0.00     0.157 A 
ATOM     11  C   UNL     1      85.797  69.176  76.121  1.00  0.00     0.056 A 
ATOM     12  C   UNL     1      85.575  66.441  76.717  1.00  0.00     0.050 A 
ATOM     13  C   UNL     1      85.370  66.893  75.399  1.00  0.00     0.009 A 
BRANCH   9  14
ATOM     14  O   UNL     1      86.292  69.628  78.433  1.00  0.00    -0.493 OA
ATOM     15  C   UNL     1      87.692  69.961  78.486  1.00  0.00     0.278 C 
ENDBRANCH   9  14
BRANCH  10  16
ATOM     16  O   UNL     1      86.029  66.903  79.015  1.00  0.00    -0.504 OA
ATOM     17  H   UNL     1      85.740  67.576  79.636  1.00  0.00     0.293 HD
ENDBRANCH  10  16
ENDBRANCH   7   8
ENDBRANCH   4   7
ENDBRANCH   2   3
ENDBRANCH   1   2
BRANCH   1  18
ATOM     18  C   UNL     1      80.462  67.410  71.737  1.00  0.00     0.001 C 
BRANCH  18  19
ATOM     19  C   UNL     1      80.179  65.885  71.623  1.00  0.00     0.000 C 
BRANCH  19  20
ATOM     20  C   UNL     1      80.180  65.198  73.018  1.00  0.00     0.000 C 
BRANCH  20  21
ATOM     21  C   UNL     1      80.358  66.177  74.211  1.00  0.00     0.003 C 
BRANCH  21  22
ATOM     22  C   UNL     1      81.751  66.093  74.918  1.00  0.00    -0.017 C 
ATOM     23  C   UNL     1      82.421  64.719  74.639  1.00  0.00     0.007 C 
ATOM     24  C   UNL     1      81.693  66.371  76.449  1.00  0.00     0.007 C 
ENDBRANCH  21  22
ENDBRANCH  20  21
ENDBRANCH  19  20
ENDBRANCH  18  19
ENDBRANCH   1  18
TORSDOF 11
ENDMDL
MODEL 5
REMARK VINA RESULT:    -5.586     26.695     29.329
REMARK INTER + INTRA:          -9.791
REMARK INTER:                  -9.050
REMARK INTRA:                  -0.741
REMARK UNBOUND:                -0.777
REMARK SMILES COc1cc(CNC(=O)CCCCCCC(C)C)ccc1O
REMARK SMILES IDX 11 1 10 2 8 3 7 4 9 6 6 7 5 8 3 9 21 10 4 11 20 12 19 13
REMARK SMILES IDX 2 14 1 15 22 16 12 18 13 19 14 20 15 21 16 22 17 23 18 24
REMARK H PARENT 7 5 22 17
REMARK Flexibility Score: inf
ROOT
ATOM      1  C   UNL     1      64.072  85.407  76.379  1.00  0.00     0.010 C 
ENDROOT
BRANCH   1   2
ATOM      2  C   UNL     1      65.294  86.332  76.125  1.00  0.00     0.100 C 
BRANCH   2   3
ATOM      3  C   UNL     1      66.175  86.475  77.307  1.00  0.00     0.220 C 
ATOM      4  N   UNL     1      65.992  85.683  78.402  1.00  0.00    -0.352 N 
ATOM      5  H   UNL     1      65.205  85.054  78.340  1.00  0.00     0.163 HD
ATOM      6  O   UNL     1      67.102  87.320  77.267  1.00  0.00    -0.275 OA
BRANCH   4   7
ATOM      7  C   UNL     1      66.814  85.691  79.574  1.00  0.00     0.151 C 
BRANCH   7   8
ATOM      8  C   UNL     1      66.032  85.771  80.838  1.00  0.00    -0.025 A 
ATOM      9  C   UNL     1      65.752  85.183  83.210  1.00  0.00     0.160 A 
ATOM     10  C   UNL     1      64.571  85.955  83.264  1.00  0.00     0.157 A 
ATOM     11  C   UNL     1      66.462  85.082  81.995  1.00  0.00     0.056 A 
ATOM     12  C   UNL     1      64.111  86.614  82.109  1.00  0.00     0.050 A 
ATOM     13  C   UNL     1      64.841  86.532  80.907  1.00  0.00     0.009 A 
BRANCH   9  14
ATOM     14  O   UNL     1      66.186  84.506  84.317  1.00  0.00    -0.493 OA
ATOM     15  C   UNL     1      67.486  84.919  84.776  1.00  0.00     0.278 C 
ENDBRANCH   9  14
BRANCH  10  16
ATOM     16  O   UNL     1      63.865  86.069  84.420  1.00  0.00    -0.504 OA
ATOM     17  H   UNL     1      64.208  85.446  85.066  1.00  0.00     0.293 HD
ENDBRANCH  10  16
ENDBRANCH   7   8
ENDBRANCH   4   7
ENDBRANCH   2   3
ENDBRANCH   1   2
BRANCH   1  18
ATOM     18  C   UNL     1      64.277  83.986  75.782  1.00  0.00     0.001 C 
BRANCH  18  19
ATOM     19  C   UNL     1      63.283  83.637  74.638  1.00  0.00     0.000 C 
BRANCH  19  20
ATOM     20  C   UNL     1      62.466  82.355  74.962  1.00  0.00     0.000 C 
BRANCH  20  21
ATOM     21  C   UNL     1      63.157  81.032  74.531  1.00  0.00     0.003 C 
BRANCH  21  22
ATOM     22  C   UNL     1      64.172  81.184  73.350  1.00  0.00    -0.017 C 
ATOM     23  C   UNL     1      63.423  81.185  71.988  1.00  0.00     0.007 C 
ATOM     24  C   UNL     1      65.298  80.109  73.352  1.00  0.00     0.007 C 
ENDBRANCH  21  22
ENDBRANCH  20  21
ENDBRANCH  19  20
ENDBRANCH  18  19
ENDBRANCH   1  18
TORSDOF 11
ENDMDL
MODEL 6
REMARK VINA RESULT:    -5.583     25.322     27.727
REMARK INTER + INTRA:          -9.787
REMARK INTER:                  -7.980
REMARK INTRA:                  -1.808
REMARK UNBOUND:                -0.777
REMARK SMILES COc1cc(CNC(=O)CCCCCCC(C)C)ccc1O
REMARK SMILES IDX 11 1 10 2 8 3 7 4 9 6 6 7 5 8 3 9 21 10 4 11 20 12 19 13
REMARK SMILES IDX 2 14 1 15 22 16 12 18 13 19 14 20 15 21 16 22 17 23 18 24
REMARK H PARENT 7 5 22 17
REMARK Flexibility Score: inf
ROOT
ATOM      1  C   UNL     1      81.733  67.930  71.153  1.00  0.00     0.010 C 
ENDROOT
BRANCH   1   2
ATOM      2  C   UNL     1      82.927  66.953  71.339  1.00  0.00     0.100 C 
BRANCH   2   3
ATOM      3  C   UNL     1      84.064  67.552  72.075  1.00  0.00     0.220 C 
ATOM      4  N   UNL     1      83.992  67.732  73.426  1.00  0.00    -0.352 N 
ATOM      5  H   UNL     1      83.110  67.469  73.839  1.00  0.00     0.163 HD
ATOM      6  O   UNL     1      85.097  67.866  71.434  1.00  0.00    -0.275 OA
BRANCH   4   7
ATOM      7  C   UNL     1      85.046  68.246  74.247  1.00  0.00     0.151 C 
BRANCH   7   8
ATOM      8  C   UNL     1      85.302  67.418  75.458  1.00  0.00    -0.025 A 
ATOM      9  C   UNL     1      86.028  65.300  76.475  1.00  0.00     0.160 A 
ATOM     10  C   UNL     1      85.835  65.848  77.761  1.00  0.00     0.157 A 
ATOM     11  C   UNL     1      85.743  66.081  75.335  1.00  0.00     0.056 A 
ATOM     12  C   UNL     1      85.359  67.165  77.897  1.00  0.00     0.050 A 
ATOM     13  C   UNL     1      85.104  67.949  76.755  1.00  0.00     0.009 A 
BRANCH   9  14
ATOM     14  O   UNL     1      86.453  64.007  76.332  1.00  0.00    -0.493 OA
ATOM     15  C   UNL     1      85.384  63.064  76.130  1.00  0.00     0.278 C 
ENDBRANCH   9  14
BRANCH  10  16
ATOM     16  O   UNL     1      86.099  65.119  78.877  1.00  0.00    -0.504 OA
ATOM     17  H   UNL     1      85.472  65.350  79.566  1.00  0.00     0.293 HD
ENDBRANCH  10  16
ENDBRANCH   7   8
ENDBRANCH   4   7
ENDBRANCH   2   3
ENDBRANCH   1   2
BRANCH   1  18
ATOM     18  C   UNL     1      80.441  67.416  71.848  1.00  0.00     0.001 C 
BRANCH  18  19
ATOM     19  C   UNL     1      80.202  65.889  71.676  1.00  0.00     0.000 C 
BRANCH  19  20
ATOM     20  C   UNL     1      80.132  65.162  73.048  1.00  0.00     0.000 C 
BRANCH  20  21
ATOM     21  C   UNL     1      80.336  66.095  74.274  1.00  0.00     0.003 C 
BRANCH  21  22
ATOM     22  C   UNL     1      81.731  65.963  74.967  1.00  0.00    -0.017 C 
ATOM     23  C   UNL     1      82.283  64.518  74.808  1.00  0.00     0.007 C 
ATOM     24  C   UNL     1      81.727  66.382  76.467  1.00  0.00     0.007 C 
ENDBRANCH  21  22
ENDBRANCH  20  21
ENDBRANCH  19  20
ENDBRANCH  18  19
ENDBRANCH   1  18
TORSDOF 11
ENDMDL
MODEL 7
REMARK VINA RESULT:    -5.580      4.390      9.227
REMARK INTER + INTRA:          -9.782
REMARK INTER:                  -8.916
REMARK INTRA:                  -0.866
REMARK UNBOUND:                -0.777
REMARK SMILES COc1cc(CNC(=O)CCCCCCC(C)C)ccc1O
REMARK SMILES IDX 11 1 10 2 8 3 7 4 9 6 6 7 5 8 3 9 21 10 4 11 20 12 19 13
REMARK SMILES IDX 2 14 1 15 22 16 12 18 13 19 14 20 15 21 16 22 17 23 18 24
REMARK H PARENT 7 5 22 17
REMARK Flexibility Score: inf
ROOT
ATOM      1  C   UNL     1      92.380  92.991  76.074  1.00  0.00     0.010 C 
ENDROOT
BRANCH   1   2
ATOM      2  C   UNL     1      92.660  94.429  75.558  1.00  0.00     0.100 C 
BRANCH   2   3
ATOM      3  C   UNL     1      94.102  94.720  75.390  1.00  0.00     0.220 C 
ATOM      4  N   UNL     1      94.537  96.009  75.291  1.00  0.00    -0.352 N 
ATOM      5  H   UNL     1      93.804  96.703  75.298  1.00  0.00     0.163 HD
ATOM      6  O   UNL     1      94.910  93.760  75.365  1.00  0.00    -0.275 OA
BRANCH   4   7
ATOM      7  C   UNL     1      95.907  96.413  75.184  1.00  0.00     0.151 C 
BRANCH   7   8
ATOM      8  C   UNL     1      96.318  96.732  73.790  1.00  0.00    -0.025 A 
ATOM      9  C   UNL     1      95.994  98.011  71.714  1.00  0.00     0.160 A 
ATOM     10  C   UNL     1      97.121  97.378  71.146  1.00  0.00     0.157 A 
ATOM     11  C   UNL     1      95.590  97.670  73.022  1.00  0.00     0.056 A 
ATOM     12  C   UNL     1      97.829  96.414  71.885  1.00  0.00     0.050 A 
ATOM     13  C   UNL     1      97.438  96.100  73.201  1.00  0.00     0.009 A 
BRANCH   9  14
ATOM     14  O   UNL     1      95.274  98.922  70.989  1.00  0.00    -0.493 OA
ATOM     15  C   UNL     1      94.030  98.405  70.482  1.00  0.00     0.278 C 
ENDBRANCH   9  14
BRANCH  10  16
ATOM     16  O   UNL     1      97.531  97.686  69.887  1.00  0.00    -0.504 OA
ATOM     17  H   UNL     1      97.908  96.905  69.474  1.00  0.00     0.293 HD
ENDBRANCH  10  16
ENDBRANCH   7   8
ENDBRANCH   4   7
ENDBRANCH   2   3
ENDBRANCH   1   2
BRANCH   1  18
ATOM     18  C   UNL     1      91.843  92.985  77.534  1.00  0.00     0.001 C 
BRANCH  18  19
ATOM     19  C   UNL     1      90.634  92.032  77.752  1.00  0.00     0.000 C 
BRANCH  19  20
ATOM     20  C   UNL     1      89.649  92.073  76.550  1.00  0.00     0.000 C 
BRANCH  20  21
ATOM     21  C   UNL     1      88.841  90.762  76.344  1.00  0.00     0.003 C 
BRANCH  21  22
ATOM     22  C   UNL     1      89.114  90.037  74.986  1.00  0.00    -0.017 C 
ATOM     23  C   UNL     1      90.641  89.976  74.699  1.00  0.00     0.007 C 
ATOM     24  C   UNL     1      88.358  90.666  73.778  1.00  0.00     0.007 C 
ENDBRANCH  21  22
ENDBRANCH  20  21
ENDBRANCH  19  20
ENDBRANCH  18  19
ENDBRANCH   1  18
TORSDOF 11
ENDMDL
MODEL 8
REMARK VINA RESULT:    -5.520     24.937     27.683
REMARK INTER + INTRA:          -9.685
REMARK INTER:                  -7.650
REMARK INTRA:                  -2.035
REMARK UNBOUND:                -0.777
REMARK SMILES COc1cc(CNC(=O)CCCCCCC(C)C)ccc1O
REMARK SMILES IDX 11 1 10 2 8 3 7 4 9 6 6 7 5 8 3 9 21 10 4 11 20 12 19 13
REMARK SMILES IDX 2 14 1 15 22 16 12 18 13 19 14 20 15 21 16 22 17 23 18 24
REMARK H PARENT 7 5 22 17
REMARK Flexibility Score: inf
ROOT
ATOM      1  C   UNL     1      80.113  65.526  73.446  1.00  0.00     0.010 C 
ENDROOT
BRANCH   1   2
ATOM      2  C   UNL     1      80.486  64.151  74.066  1.00  0.00     0.100 C 
BRANCH   2   3
ATOM      3  C   UNL     1      81.807  64.150  74.732  1.00  0.00     0.220 C 
ATOM      4  N   UNL     1      81.963  64.732  75.956  1.00  0.00    -0.352 N 
ATOM      5  H   UNL     1      81.134  65.181  76.317  1.00  0.00     0.163 HD
ATOM      6  O   UNL     1      82.769  63.581  74.159  1.00  0.00    -0.275 OA
BRANCH   4   7
ATOM      7  C   UNL     1      83.174  64.741  76.719  1.00  0.00     0.151 C 
BRANCH   7   8
ATOM      8  C   UNL     1      84.024  65.936  76.457  1.00  0.00    -0.025 A 
ATOM      9  C   UNL     1      86.086  66.925  75.553  1.00  0.00     0.160 A 
ATOM     10  C   UNL     1      85.630  68.211  75.913  1.00  0.00     0.157 A 
ATOM     11  C   UNL     1      85.290  65.797  75.844  1.00  0.00     0.056 A 
ATOM     12  C   UNL     1      84.389  68.358  76.559  1.00  0.00     0.050 A 
ATOM     13  C   UNL     1      83.586  67.231  76.820  1.00  0.00     0.009 A 
BRANCH   9  14
ATOM     14  O   UNL     1      87.309  66.767  74.960  1.00  0.00    -0.493 OA
ATOM     15  C   UNL     1      88.053  65.639  75.456  1.00  0.00     0.278 C 
ENDBRANCH   9  14
BRANCH  10  16
ATOM     16  O   UNL     1      86.376  69.315  75.647  1.00  0.00    -0.504 OA
ATOM     17  H   UNL     1      86.358  69.494  74.704  1.00  0.00     0.293 HD
ENDBRANCH  10  16
ENDBRANCH   7   8
ENDBRANCH   4   7
ENDBRANCH   2   3
ENDBRANCH   1   2
BRANCH   1  18
ATOM     18  C   UNL     1      80.406  65.580  71.919  1.00  0.00     0.001 C 
BRANCH  18  19
ATOM     19  C   UNL     1      80.262  67.000  71.303  1.00  0.00     0.000 C 
BRANCH  19  20
ATOM     20  C   UNL     1      81.642  67.696  71.140  1.00  0.00     0.000 C 
BRANCH  20  21
ATOM     21  C   UNL     1      82.154  68.406  72.424  1.00  0.00     0.003 C 
BRANCH  21  22
ATOM     22  C   UNL     1      83.562  67.931  72.913  1.00  0.00    -0.017 C 
ATOM     23  C   UNL     1      84.658  68.944  72.478  1.00  0.00     0.007 C 
ATOM     24  C   UNL     1      83.933  66.492  72.446  1.00  0.00     0.007 C 
ENDBRANCH  21  22
ENDBRANCH  20  21
ENDBRANCH  19  20
ENDBRANCH  18  19
ENDBRANCH   1  18
TORSDOF 11
ENDMDL
MODEL 9
REMARK VINA RESULT:    -5.506     26.862     29.966
REMARK INTER + INTRA:          -9.664
REMARK INTER:                  -8.896
REMARK INTRA:                  -0.768
REMARK UNBOUND:                -0.777
REMARK SMILES COc1cc(CNC(=O)CCCCCCC(C)C)ccc1O
REMARK SMILES IDX 11 1 10 2 8 3 7 4 9 6 6 7 5 8 3 9 21 10 4 11 20 12 19 13
REMARK SMILES IDX 2 14 1 15 22 16 12 18 13 19 14 20 15 21 16 22 17 23 18 24
REMARK H PARENT 7 5 22 17
REMARK Flexibility Score: inf
ROOT
ATOM      1  C   UNL     1      61.338  86.299  76.020  1.00  0.00     0.010 C 
ENDROOT
BRANCH   1   2
ATOM      2  C   UNL     1      61.272  87.009  77.400  1.00  0.00     0.100 C 
BRANCH   2   3
ATOM      3  C   UNL     1      62.564  87.601  77.816  1.00  0.00     0.220 C 
ATOM      4  N   UNL     1      63.602  86.797  78.188  1.00  0.00    -0.352 N 
ATOM      5  H   UNL     1      63.389  85.810  78.193  1.00  0.00     0.163 HD
ATOM      6  O   UNL     1      62.688  88.850  77.794  1.00  0.00    -0.275 OA
BRANCH   4   7
ATOM      7  C   UNL     1      64.909  87.252  78.552  1.00  0.00     0.151 C 
BRANCH   7   8
ATOM      8  C   UNL     1      65.510  86.476  79.672  1.00  0.00    -0.025 A 
ATOM      9  C   UNL     1      65.439  85.705  82.006  1.00  0.00     0.160 A 
ATOM     10  C   UNL     1      66.623  84.964  81.800  1.00  0.00     0.157 A 
ATOM     11  C   UNL     1      64.903  86.469  80.948  1.00  0.00     0.056 A 
ATOM     12  C   UNL     1      67.258  84.995  80.545  1.00  0.00     0.050 A 
ATOM     13  C   UNL     1      66.701  85.736  79.485  1.00  0.00     0.009 A 
BRANCH   9  14
ATOM     14  O   UNL     1      64.835  85.714  83.234  1.00  0.00    -0.493 OA
ATOM     15  C   UNL     1      64.941  86.973  83.923  1.00  0.00     0.278 C 
ENDBRANCH   9  14
BRANCH  10  16
ATOM     16  O   UNL     1      67.163  84.221  82.801  1.00  0.00    -0.504 OA
ATOM     17  H   UNL     1      67.377  83.346  82.469  1.00  0.00     0.293 HD
ENDBRANCH  10  16
ENDBRANCH   7   8
ENDBRANCH   4   7
ENDBRANCH   2   3
ENDBRANCH   1   2
BRANCH   1  18
ATOM     18  C   UNL     1      61.248  84.752  76.151  1.00  0.00     0.001 C 
BRANCH  18  19
ATOM     19  C   UNL     1      62.615  84.029  75.989  1.00  0.00     0.000 C 
BRANCH  19  20
ATOM     20  C   UNL     1      62.445  82.484  75.958  1.00  0.00     0.000 C 
BRANCH  20  21
ATOM     21  C   UNL     1      63.662  81.721  75.365  1.00  0.00     0.003 C 
BRANCH  21  22
ATOM     22  C   UNL     1      63.610  81.519  73.815  1.00  0.00    -0.017 C 
ATOM     23  C   UNL     1      62.152  81.246  73.351  1.00  0.00     0.007 C 
ATOM     24  C   UNL     1      64.565  80.404  73.298  1.00  0.00     0.007 C 
ENDBRANCH  21  22
ENDBRANCH  20  21
ENDBRANCH  19  20
ENDBRANCH  18  19
ENDBRANCH   1  18
TORSDOF 11
ENDMDL
MODEL 10
REMARK VINA RESULT:    -5.359     11.160     13.355
REMARK INTER + INTRA:          -9.426
REMARK INTER:                  -8.423
REMARK INTRA:                  -1.002
REMARK UNBOUND:                -0.777
REMARK SMILES COc1cc(CNC(=O)CCCCCCC(C)C)ccc1O
REMARK SMILES IDX 11 1 10 2 8 3 7 4 9 6 6 7 5 8 3 9 21 10 4 11 20 12 19 13
REMARK SMILES IDX 2 14 1 15 22 16 12 18 13 19 14 20 15 21 16 22 17 23 18 24
REMARK H PARENT 7 5 22 17
REMARK Flexibility Score: inf
ROOT
ATOM      1  C   UNL     1      97.147  81.661  76.888  1.00  0.00     0.010 C 
ENDROOT
BRANCH   1   2
ATOM      2  C   UNL     1      96.579  82.358  78.155  1.00  0.00     0.100 C 
BRANCH   2   3
ATOM      3  C   UNL     1      97.570  82.482  79.248  1.00  0.00     0.220 C 
ATOM      4  N   UNL     1      97.391  81.807  80.420  1.00  0.00    -0.352 N 
ATOM      5  H   UNL     1      96.533  81.278  80.475  1.00  0.00     0.163 HD
ATOM      6  O   UNL     1      98.583  83.199  79.063  1.00  0.00    -0.275 OA
BRANCH   4   7
ATOM      7  C   UNL     1      98.307  81.804  81.520  1.00  0.00     0.151 C 
BRANCH   7   8
ATOM      8  C   UNL     1      97.808  82.561  82.701  1.00  0.00    -0.025 A 
ATOM      9  C   UNL     1      97.915  83.071  85.104  1.00  0.00     0.160 A 
ATOM     10  C   UNL     1      96.892  84.031  84.949  1.00  0.00     0.157 A 
ATOM     11  C   UNL     1      98.351  82.331  83.985  1.00  0.00     0.056 A 
ATOM     12  C   UNL     1      96.316  84.242  83.683  1.00  0.00     0.050 A 
ATOM     13  C   UNL     1      96.777  83.520  82.564  1.00  0.00     0.009 A 
BRANCH   9  14
ATOM     14  O   UNL     1      98.455  82.830  86.339  1.00  0.00    -0.493 OA
ATOM     15  C   UNL     1      99.881  82.637  86.320  1.00  0.00     0.278 C 
ENDBRANCH   9  14
BRANCH  10  16
ATOM     16  O   UNL     1      96.451  84.757  86.009  1.00  0.00    -0.504 OA
ATOM     17  H   UNL     1      96.715  84.324  86.825  1.00  0.00     0.293 HD
ENDBRANCH  10  16
ENDBRANCH   7   8
ENDBRANCH   4   7
ENDBRANCH   2   3
ENDBRANCH   1   2
BRANCH   1  18
ATOM     18  C   UNL     1      97.194  82.617  75.663  1.00  0.00     0.001 C 
BRANCH  18  19
ATOM     19  C   UNL     1      98.456  83.524  75.623  1.00  0.00     0.000 C 
BRANCH  19  20
ATOM     20  C   UNL     1      99.701  82.750  75.105  1.00  0.00     0.000 C 
BRANCH  20  21
ATOM     21  C   UNL     1     100.899  82.736  76.094  1.00  0.00     0.003 C 
BRANCH  21  22
ATOM     22  C   UNL     1     101.363  81.308  76.534  1.00  0.00    -0.017 C 
ATOM     23  C   UNL     1     100.872  80.997  77.975  1.00  0.00     0.007 C 
ATOM     24  C   UNL     1     102.900  81.088  76.421  1.00  0.00     0.007 C 
ENDBRANCH  21  22
ENDBRANCH  20  21
ENDBRANCH  19  20
ENDBRANCH  18  19
ENDBRANCH   1  18
TORSDOF 11
ENDMDL
