MODEL 1
REMARK VINA RESULT:    -6.383      0.000      0.000
REMARK INTER + INTRA:         -10.962
REMARK INTER:                  -9.927
REMARK INTRA:                  -1.034
REMARK UNBOUND:                -1.034
REMARK SMILES COc1cc(CNC(=O)CCCCCC(C)C)ccc1O
REMARK SMILES IDX 10 1 8 2 7 3 9 5 6 6 5 7 3 8 20 9 4 10 19 11 18 12 2 13 1 14
REMARK SMILES IDX 21 15 11 17 12 18 13 19 14 20 15 21 16 22 17 23
REMARK H PARENT 7 4 21 16
REMARK Flexibility Score: inf
ROOT
ATOM      1  C   UNL     1      92.072  94.598  76.290  1.00  0.00     0.100 C 
ENDROOT
BRANCH   1   2
ATOM      2  C   UNL     1      91.392  93.653  75.380  1.00  0.00     0.220 C 
ATOM      3  N   UNL     1      90.416  92.837  75.869  1.00  0.00    -0.352 N 
ATOM      4  H   UNL     1      90.318  92.847  76.874  1.00  0.00     0.163 HD
ATOM      5  O   UNL     1      91.699  93.652  74.163  1.00  0.00    -0.275 OA
BRANCH   3   6
ATOM      6  C   UNL     1      89.565  92.007  75.078  1.00  0.00     0.151 C 
BRANCH   6   7
ATOM      7  C   UNL     1      90.027  90.595  75.008  1.00  0.00    -0.025 A 
ATOM      8  C   UNL     1      90.475  88.441  76.106  1.00  0.00     0.160 A 
ATOM      9  C   UNL     1      90.843  87.886  74.862  1.00  0.00     0.157 A 
ATOM     10  C   UNL     1      90.088  89.796  76.174  1.00  0.00     0.056 A 
ATOM     11  C   UNL     1      90.813  88.678  73.700  1.00  0.00     0.050 A 
ATOM     12  C   UNL     1      90.403  90.020  73.771  1.00  0.00     0.009 A 
BRANCH   8  13
ATOM     13  O   UNL     1      90.517  87.691  77.253  1.00  0.00    -0.493 OA
ATOM     14  C   UNL     1      89.759  88.252  78.342  1.00  0.00     0.278 C 
ENDBRANCH   8  13
BRANCH   9  15
ATOM     15  O   UNL     1      91.219  86.584  74.786  1.00  0.00    -0.504 OA
ATOM     16  H   UNL     1      91.252  86.314  73.866  1.00  0.00     0.293 HD
ENDBRANCH   9  15
ENDBRANCH   6   7
ENDBRANCH   3   6
ENDBRANCH   1   2
BRANCH   1  17
ATOM     17  C   UNL     1      93.020  93.924  77.318  1.00  0.00     0.010 C 
BRANCH  17  18
ATOM     18  C   UNL     1      94.488  94.401  77.141  1.00  0.00     0.001 C 
BRANCH  18  19
ATOM     19  C   UNL     1      95.181  93.807  75.887  1.00  0.00     0.000 C 
BRANCH  19  20
ATOM     20  C   UNL     1      95.871  94.902  75.022  1.00  0.00     0.003 C 
BRANCH  20  21
ATOM     21  C   UNL     1      95.406  96.365  75.316  1.00  0.00    -0.017 C 
ATOM     22  C   UNL     1      94.544  96.920  74.143  1.00  0.00     0.007 C 
ATOM     23  C   UNL     1      96.592  97.329  75.610  1.00  0.00     0.007 C 
ENDBRANCH  20  21
ENDBRANCH  19  20
ENDBRANCH  18  19
ENDBRANCH  17  18
ENDBRANCH   1  17
TORSDOF 10
ENDMDL
MODEL 2
REMARK VINA RESULT:    -6.266      2.427      3.666
REMARK INTER + INTRA:         -10.780
REMARK INTER:                  -9.945
REMARK INTRA:                  -0.835
REMARK UNBOUND:                -1.034
REMARK SMILES COc1cc(CNC(=O)CCCCCC(C)C)ccc1O
REMARK SMILES IDX 10 1 8 2 7 3 9 5 6 6 5 7 3 8 20 9 4 10 19 11 18 12 2 13 1 14
REMARK SMILES IDX 21 15 11 17 12 18 13 19 14 20 15 21 16 22 17 23
REMARK H PARENT 7 4 21 16
REMARK Flexibility Score: inf
ROOT
ATOM      1  C   UNL     1      94.800  94.017  75.277  1.00  0.00     0.100 C 
ENDROOT
BRANCH   1   2
ATOM      2  C   UNL     1      93.323  94.029  75.321  1.00  0.00     0.220 C 
ATOM      3  N   UNL     1      92.624  93.116  74.588  1.00  0.00    -0.352 N 
ATOM      4  H   UNL     1      93.182  92.568  73.949  1.00  0.00     0.163 HD
ATOM      5  O   UNL     1      92.742  94.854  76.067  1.00  0.00    -0.275 OA
BRANCH   3   6
ATOM      6  C   UNL     1      91.215  92.903  74.669  1.00  0.00     0.151 C 
BRANCH   6   7
ATOM      7  C   UNL     1      90.834  91.895  75.695  1.00  0.00    -0.025 A 
ATOM      8  C   UNL     1      90.586  89.549  76.389  1.00  0.00     0.160 A 
ATOM      9  C   UNL     1      90.174  89.974  77.670  1.00  0.00     0.157 A 
ATOM     10  C   UNL     1      90.895  90.511  75.404  1.00  0.00     0.056 A 
ATOM     11  C   UNL     1      90.085  91.348  77.961  1.00  0.00     0.050 A 
ATOM     12  C   UNL     1      90.417  92.301  76.984  1.00  0.00     0.009 A 
BRANCH   8  13
ATOM     13  O   UNL     1      90.660  88.216  76.079  1.00  0.00    -0.493 OA
ATOM     14  C   UNL     1      89.528  87.728  75.335  1.00  0.00     0.278 C 
ENDBRANCH   8  13
BRANCH   9  15
ATOM     15  O   UNL     1      89.873  89.058  78.624  1.00  0.00    -0.504 OA
ATOM     16  H   UNL     1      89.640  88.225  78.206  1.00  0.00     0.293 HD
ENDBRANCH   9  15
ENDBRANCH   6   7
ENDBRANCH   3   6
ENDBRANCH   1   2
BRANCH   1  17
ATOM     17  C   UNL     1      95.478  94.846  76.401  1.00  0.00     0.010 C 
BRANCH  17  18
ATOM     18  C   UNL     1      95.845  93.960  77.624  1.00  0.00     0.001 C 
BRANCH  18  19
ATOM     19  C   UNL     1      94.922  94.188  78.849  1.00  0.00     0.000 C 
BRANCH  19  20
ATOM     20  C   UNL     1      95.729  94.410  80.161  1.00  0.00     0.003 C 
BRANCH  20  21
ATOM     21  C   UNL     1      95.768  95.888  80.669  1.00  0.00    -0.017 C 
ATOM     22  C   UNL     1      96.877  96.699  79.937  1.00  0.00     0.007 C 
ATOM     23  C   UNL     1      95.960  95.993  82.210  1.00  0.00     0.007 C 
ENDBRANCH  20  21
ENDBRANCH  19  20
ENDBRANCH  18  19
ENDBRANCH  17  18
ENDBRANCH   1  17
TORSDOF 10
ENDMDL
MODEL 3
REMARK VINA RESULT:    -5.864      2.683      4.352
REMARK INTER + INTRA:         -10.155
REMARK INTER:                  -9.426
REMARK INTRA:                  -0.728
REMARK UNBOUND:                -1.034
REMARK SMILES COc1cc(CNC(=O)CCCCCC(C)C)ccc1O
REMARK SMILES IDX 10 1 8 2 7 3 9 5 6 6 5 7 3 8 20 9 4 10 19 11 18 12 2 13 1 14
REMARK SMILES IDX 21 15 11 17 12 18 13 19 14 20 15 21 16 22 17 23
REMARK H PARENT 7 4 21 16
REMARK Flexibility Score: inf
ROOT
ATOM      1  C   UNL     1      95.867  94.097  75.440  1.00  0.00     0.100 C 
ENDROOT
BRANCH   1   2
ATOM      2  C   UNL     1      94.448  94.261  75.820  1.00  0.00     0.220 C 
ATOM      3  N   UNL     1      93.876  93.368  76.675  1.00  0.00    -0.352 N 
ATOM      4  H   UNL     1      94.445  92.562  76.890  1.00  0.00     0.163 HD
ATOM      5  O   UNL     1      93.811  95.248  75.378  1.00  0.00    -0.275 OA
BRANCH   3   6
ATOM      6  C   UNL     1      92.579  93.502  77.257  1.00  0.00     0.151 C 
BRANCH   6   7
ATOM      7  C   UNL     1      91.570  92.592  76.652  1.00  0.00    -0.025 A 
ATOM      8  C   UNL     1      90.848  91.133  74.808  1.00  0.00     0.160 A 
ATOM      9  C   UNL     1      89.679  90.805  75.528  1.00  0.00     0.157 A 
ATOM     10  C   UNL     1      91.776  92.038  75.366  1.00  0.00     0.056 A 
ATOM     11  C   UNL     1      89.452  91.371  76.797  1.00  0.00     0.050 A 
ATOM     12  C   UNL     1      90.392  92.252  77.357  1.00  0.00     0.009 A 
BRANCH   8  13
ATOM     13  O   UNL     1      91.079  90.609  73.563  1.00  0.00    -0.493 OA
ATOM     14  C   UNL     1      90.779  91.516  72.485  1.00  0.00     0.278 C 
ENDBRANCH   8  13
BRANCH   9  15
ATOM     15  O   UNL     1      88.780  89.938  75.001  1.00  0.00    -0.504 OA
ATOM     16  H   UNL     1      88.586  90.190  74.095  1.00  0.00     0.293 HD
ENDBRANCH   9  15
ENDBRANCH   6   7
ENDBRANCH   3   6
ENDBRANCH   1   2
BRANCH   1  17
ATOM     17  C   UNL     1      96.759  95.329  75.752  1.00  0.00     0.010 C 
BRANCH  17  18
ATOM     18  C   UNL     1      97.112  95.412  77.263  1.00  0.00     0.001 C 
BRANCH  18  19
ATOM     19  C   UNL     1      96.794  96.792  77.895  1.00  0.00     0.000 C 
BRANCH  19  20
ATOM     20  C   UNL     1      96.937  96.777  79.445  1.00  0.00     0.003 C 
BRANCH  20  21
ATOM     21  C   UNL     1      96.557  95.424  80.129  1.00  0.00    -0.017 C 
ATOM     22  C   UNL     1      95.156  95.516  80.802  1.00  0.00     0.007 C 
ATOM     23  C   UNL     1      97.618  94.952  81.167  1.00  0.00     0.007 C 
ENDBRANCH  20  21
ENDBRANCH  19  20
ENDBRANCH  18  19
ENDBRANCH  17  18
ENDBRANCH   1  17
TORSDOF 10
ENDMDL
MODEL 4
REMARK VINA RESULT:    -5.656     13.759     16.232
REMARK INTER + INTRA:          -9.832
REMARK INTER:                  -8.142
REMARK INTRA:                  -1.690
REMARK UNBOUND:                -1.034
REMARK SMILES COc1cc(CNC(=O)CCCCCC(C)C)ccc1O
REMARK SMILES IDX 10 1 8 2 7 3 9 5 6 6 5 7 3 8 20 9 4 10 19 11 18 12 2 13 1 14
REMARK SMILES IDX 21 15 11 17 12 18 13 19 14 20 15 21 16 22 17 23
REMARK H PARENT 7 4 21 16
REMARK Flexibility Score: inf
ROOT
ATOM      1  C   UNL     1      83.457  92.198  88.007  1.00  0.00     0.100 C 
ENDROOT
BRANCH   1   2
ATOM      2  C   UNL     1      83.831  91.036  87.174  1.00  0.00     0.220 C 
ATOM      3  N   UNL     1      83.209  90.843  85.977  1.00  0.00    -0.352 N 
ATOM      4  H   UNL     1      82.424  91.454  85.803  1.00  0.00     0.163 HD
ATOM      5  O   UNL     1      84.746  90.273  87.569  1.00  0.00    -0.275 OA
BRANCH   3   6
ATOM      6  C   UNL     1      83.588  89.872  85.002  1.00  0.00     0.151 C 
BRANCH   6   7
ATOM      7  C   UNL     1      82.825  88.599  85.117  1.00  0.00    -0.025 A 
ATOM      8  C   UNL     1      80.884  87.215  84.517  1.00  0.00     0.160 A 
ATOM      9  C   UNL     1      81.407  86.152  85.284  1.00  0.00     0.157 A 
ATOM     10  C   UNL     1      81.586  88.437  84.454  1.00  0.00     0.056 A 
ATOM     11  C   UNL     1      82.625  86.312  85.969  1.00  0.00     0.050 A 
ATOM     12  C   UNL     1      83.332  87.523  85.883  1.00  0.00     0.009 A 
BRANCH   8  13
ATOM     13  O   UNL     1      79.689  87.087  83.858  1.00  0.00    -0.493 OA
ATOM     14  C   UNL     1      79.817  87.048  82.423  1.00  0.00     0.278 C 
ENDBRANCH   8  13
BRANCH   9  15
ATOM     15  O   UNL     1      80.738  84.974  85.353  1.00  0.00    -0.504 OA
ATOM     16  H   UNL     1      81.076  84.457  86.088  1.00  0.00     0.293 HD
ENDBRANCH   9  15
ENDBRANCH   6   7
ENDBRANCH   3   6
ENDBRANCH   1   2
BRANCH   1  17
ATOM     17  C   UNL     1      81.961  92.234  88.418  1.00  0.00     0.010 C 
BRANCH  17  18
ATOM     18  C   UNL     1      81.503  90.883  89.033  1.00  0.00     0.001 C 
BRANCH  18  19
ATOM     19  C   UNL     1      80.169  90.357  88.441  1.00  0.00     0.000 C 
BRANCH  19  20
ATOM     20  C   UNL     1      80.345  88.992  87.715  1.00  0.00     0.003 C 
BRANCH  20  21
ATOM     21  C   UNL     1      79.982  87.736  88.573  1.00  0.00    -0.017 C 
ATOM     22  C   UNL     1      78.869  88.073  89.608  1.00  0.00     0.007 C 
ATOM     23  C   UNL     1      81.216  87.122  89.297  1.00  0.00     0.007 C 
ENDBRANCH  20  21
ENDBRANCH  19  20
ENDBRANCH  18  19
ENDBRANCH  17  18
ENDBRANCH   1  17
TORSDOF 10
ENDMDL
MODEL 5
REMARK VINA RESULT:    -5.540     22.950     26.512
REMARK INTER + INTRA:          -9.650
REMARK INTER:                  -8.192
REMARK INTRA:                  -1.458
REMARK UNBOUND:                -1.034
REMARK SMILES COc1cc(CNC(=O)CCCCCC(C)C)ccc1O
REMARK SMILES IDX 10 1 8 2 7 3 9 5 6 6 5 7 3 8 20 9 4 10 19 11 18 12 2 13 1 14
REMARK SMILES IDX 21 15 11 17 12 18 13 19 14 20 15 21 16 22 17 23
REMARK H PARENT 7 4 21 16
REMARK Flexibility Score: inf
ROOT
ATOM      1  C   UNL     1      82.448  67.034  71.121  1.00  0.00     0.100 C 
ENDROOT
BRANCH   1   2
ATOM      2  C   UNL     1      83.390  68.089  71.550  1.00  0.00     0.220 C 
ATOM      3  N   UNL     1      84.581  67.736  72.109  1.00  0.00    -0.352 N 
ATOM      4  H   UNL     1      84.680  66.752  72.314  1.00  0.00     0.163 HD
ATOM      5  O   UNL     1      83.089  69.292  71.351  1.00  0.00    -0.275 OA
BRANCH   3   6
ATOM      6  C   UNL     1      85.648  68.637  72.407  1.00  0.00     0.151 C 
BRANCH   6   7
ATOM      7  C   UNL     1      85.734  68.984  73.852  1.00  0.00    -0.025 A 
ATOM      8  C   UNL     1      85.159  68.512  76.196  1.00  0.00     0.160 A 
ATOM      9  C   UNL     1      85.951  69.605  76.607  1.00  0.00     0.157 A 
ATOM     10  C   UNL     1      85.040  68.220  74.820  1.00  0.00     0.056 A 
ATOM     11  C   UNL     1      86.623  70.387  75.651  1.00  0.00     0.050 A 
ATOM     12  C   UNL     1      86.520  70.077  74.285  1.00  0.00     0.009 A 
BRANCH   8  13
ATOM     13  O   UNL     1      84.480  67.749  77.109  1.00  0.00    -0.493 OA
ATOM     14  C   UNL     1      85.127  66.500  77.419  1.00  0.00     0.278 C 
ENDBRANCH   8  13
BRANCH   9  15
ATOM     15  O   UNL     1      86.070  69.895  77.927  1.00  0.00    -0.504 OA
ATOM     16  H   UNL     1      86.128  69.080  78.431  1.00  0.00     0.293 HD
ENDBRANCH   9  15
ENDBRANCH   6   7
ENDBRANCH   3   6
ENDBRANCH   1   2
BRANCH   1  17
ATOM     17  C   UNL     1      80.967  67.310  71.494  1.00  0.00     0.010 C 
BRANCH  17  18
ATOM     18  C   UNL     1      80.157  65.992  71.637  1.00  0.00     0.001 C 
BRANCH  18  19
ATOM     19  C   UNL     1      80.215  65.386  73.064  1.00  0.00     0.000 C 
BRANCH  19  20
ATOM     20  C   UNL     1      80.415  66.474  74.158  1.00  0.00     0.003 C 
BRANCH  20  21
ATOM     21  C   UNL     1      81.759  66.374  74.950  1.00  0.00    -0.017 C 
ATOM     22  C   UNL     1      82.684  65.281  74.339  1.00  0.00     0.007 C 
ATOM     23  C   UNL     1      81.548  66.107  76.469  1.00  0.00     0.007 C 
ENDBRANCH  20  21
ENDBRANCH  19  20
ENDBRANCH  18  19
ENDBRANCH  17  18
ENDBRANCH   1  17
TORSDOF 10
ENDMDL
MODEL 6
REMARK VINA RESULT:    -5.494     16.087     18.824
REMARK INTER + INTRA:          -9.579
REMARK INTER:                  -8.719
REMARK INTRA:                  -0.860
REMARK UNBOUND:                -1.034
REMARK SMILES COc1cc(CNC(=O)CCCCCC(C)C)ccc1O
REMARK SMILES IDX 10 1 8 2 7 3 9 5 6 6 5 7 3 8 20 9 4 10 19 11 18 12 2 13 1 14
REMARK SMILES IDX 21 15 11 17 12 18 13 19 14 20 15 21 16 22 17 23
REMARK H PARENT 7 4 21 16
REMARK Flexibility Score: inf
ROOT
ATOM      1  C   UNL     1      77.566  89.983  63.683  1.00  0.00     0.100 C 
ENDROOT
BRANCH   1   2
ATOM      2  C   UNL     1      76.982  91.194  64.297  1.00  0.00     0.220 C 
ATOM      3  N   UNL     1      77.568  92.405  64.078  1.00  0.00    -0.352 N 
ATOM      4  H   UNL     1      78.459  92.366  63.605  1.00  0.00     0.163 HD
ATOM      5  O   UNL     1      75.930  91.087  64.974  1.00  0.00    -0.275 OA
BRANCH   3   6
ATOM      6  C   UNL     1      77.017  93.665  64.461  1.00  0.00     0.151 C 
BRANCH   6   7
ATOM      7  C   UNL     1      77.801  94.345  65.528  1.00  0.00    -0.025 A 
ATOM      8  C   UNL     1      78.022  95.106  67.856  1.00  0.00     0.160 A 
ATOM      9  C   UNL     1      79.321  95.579  67.576  1.00  0.00     0.157 A 
ATOM     10  C   UNL     1      77.263  94.509  66.826  1.00  0.00     0.056 A 
ATOM     11  C   UNL     1      79.856  95.445  66.281  1.00  0.00     0.050 A 
ATOM     12  C   UNL     1      79.105  94.828  65.267  1.00  0.00     0.009 A 
BRANCH   8  13
ATOM     13  O   UNL     1      77.475  95.245  69.104  1.00  0.00    -0.493 OA
ATOM     14  C   UNL     1      76.324  94.409  69.332  1.00  0.00     0.278 C 
ENDBRANCH   8  13
BRANCH   9  15
ATOM     15  O   UNL     1      80.058  96.157  68.558  1.00  0.00    -0.504 OA
ATOM     16  H   UNL     1      80.557  95.481  69.023  1.00  0.00     0.293 HD
ENDBRANCH   9  15
ENDBRANCH   6   7
ENDBRANCH   3   6
ENDBRANCH   1   2
BRANCH   1  17
ATOM     17  C   UNL     1      77.229  88.664  64.428  1.00  0.00     0.010 C 
BRANCH  17  18
ATOM     18  C   UNL     1      78.149  88.452  65.662  1.00  0.00     0.001 C 
BRANCH  18  19
ATOM     19  C   UNL     1      77.419  87.810  66.872  1.00  0.00     0.000 C 
BRANCH  19  20
ATOM     20  C   UNL     1      76.408  88.789  67.537  1.00  0.00     0.003 C 
BRANCH  20  21
ATOM     21  C   UNL     1      74.975  88.206  67.761  1.00  0.00    -0.017 C 
ATOM     22  C   UNL     1      74.293  88.869  68.994  1.00  0.00     0.007 C 
ATOM     23  C   UNL     1      74.970  86.658  67.917  1.00  0.00     0.007 C 
ENDBRANCH  20  21
ENDBRANCH  19  20
ENDBRANCH  18  19
ENDBRANCH  17  18
ENDBRANCH   1  17
TORSDOF 10
ENDMDL
MODEL 7
REMARK VINA RESULT:    -5.483      4.613      8.669
REMARK INTER + INTRA:          -9.563
REMARK INTER:                  -8.940
REMARK INTRA:                  -0.622
REMARK UNBOUND:                -1.034
REMARK SMILES COc1cc(CNC(=O)CCCCCC(C)C)ccc1O
REMARK SMILES IDX 10 1 8 2 7 3 9 5 6 6 5 7 3 8 20 9 4 10 19 11 18 12 2 13 1 14
REMARK SMILES IDX 21 15 11 17 12 18 13 19 14 20 15 21 16 22 17 23
REMARK H PARENT 7 4 21 16
REMARK Flexibility Score: inf
ROOT
ATOM      1  C   UNL     1      95.010  94.317  75.413  1.00  0.00     0.100 C 
ENDROOT
BRANCH   1   2
ATOM      2  C   UNL     1      95.640  95.472  76.085  1.00  0.00     0.220 C 
ATOM      3  N   UNL     1      96.227  95.300  77.303  1.00  0.00    -0.352 N 
ATOM      4  H   UNL     1      96.070  94.396  77.726  1.00  0.00     0.163 HD
ATOM      5  O   UNL     1      95.658  96.582  75.500  1.00  0.00    -0.275 OA
BRANCH   3   6
ATOM      6  C   UNL     1      97.016  96.278  77.981  1.00  0.00     0.151 C 
BRANCH   6   7
ATOM      7  C   UNL     1      96.693  96.388  79.429  1.00  0.00    -0.025 A 
ATOM      8  C   UNL     1      95.636  95.476  81.453  1.00  0.00     0.160 A 
ATOM      9  C   UNL     1      96.132  96.565  82.200  1.00  0.00     0.157 A 
ATOM     10  C   UNL     1      95.903  95.404  80.069  1.00  0.00     0.056 A 
ATOM     11  C   UNL     1      96.896  97.564  81.568  1.00  0.00     0.050 A 
ATOM     12  C   UNL     1      97.178  97.474  80.194  1.00  0.00     0.009 A 
BRANCH   8  13
ATOM     13  O   UNL     1      94.875  94.503  82.046  1.00  0.00    -0.493 OA
ATOM     14  C   UNL     1      95.547  93.236  82.177  1.00  0.00     0.278 C 
ENDBRANCH   8  13
BRANCH   9  15
ATOM     15  O   UNL     1      95.879  96.645  83.531  1.00  0.00    -0.504 OA
ATOM     16  H   UNL     1      96.480  97.276  83.934  1.00  0.00     0.293 HD
ENDBRANCH   9  15
ENDBRANCH   6   7
ENDBRANCH   3   6
ENDBRANCH   1   2
BRANCH   1  17
ATOM     17  C   UNL     1      93.467  94.253  75.567  1.00  0.00     0.010 C 
BRANCH  17  18
ATOM     18  C   UNL     1      92.867  93.030  74.819  1.00  0.00     0.001 C 
BRANCH  18  19
ATOM     19  C   UNL     1      91.318  93.054  74.741  1.00  0.00     0.000 C 
BRANCH  19  20
ATOM     20  C   UNL     1      90.688  91.682  75.121  1.00  0.00     0.003 C 
BRANCH  20  21
ATOM     21  C   UNL     1      89.850  91.684  76.441  1.00  0.00    -0.017 C 
ATOM     22  C   UNL     1      90.703  92.194  77.640  1.00  0.00     0.007 C 
ATOM     23  C   UNL     1      89.243  90.290  76.773  1.00  0.00     0.007 C 
ENDBRANCH  20  21
ENDBRANCH  19  20
ENDBRANCH  18  19
ENDBRANCH  17  18
ENDBRANCH   1  17
TORSDOF 10
ENDMDL
MODEL 8
REMARK VINA RESULT:    -5.325     25.734     28.958
REMARK INTER + INTRA:          -9.316
REMARK INTER:                  -8.460
REMARK INTRA:                  -0.856
REMARK UNBOUND:                -1.034
REMARK SMILES COc1cc(CNC(=O)CCCCCC(C)C)ccc1O
REMARK SMILES IDX 10 1 8 2 7 3 9 5 6 6 5 7 3 8 20 9 4 10 19 11 18 12 2 13 1 14
REMARK SMILES IDX 21 15 11 17 12 18 13 19 14 20 15 21 16 22 17 23
REMARK H PARENT 7 4 21 16
REMARK Flexibility Score: inf
ROOT
ATOM      1  C   UNL     1      83.362  64.581  75.129  1.00  0.00     0.100 C 
ENDROOT
BRANCH   1   2
ATOM      2  C   UNL     1      84.385  64.022  76.037  1.00  0.00     0.220 C 
ATOM      3  N   UNL     1      84.034  63.675  77.308  1.00  0.00    -0.352 N 
ATOM      4  H   UNL     1      83.104  63.955  77.584  1.00  0.00     0.163 HD
ATOM      5  O   UNL     1      85.549  63.840  75.605  1.00  0.00    -0.275 OA
BRANCH   3   6
ATOM      6  C   UNL     1      84.870  62.971  78.227  1.00  0.00     0.151 C 
BRANCH   6   7
ATOM      7  C   UNL     1      85.327  63.814  79.365  1.00  0.00    -0.025 A 
ATOM      8  C   UNL     1      86.507  65.800  80.207  1.00  0.00     0.160 A 
ATOM      9  C   UNL     1      86.142  65.455  81.526  1.00  0.00     0.157 A 
ATOM     10  C   UNL     1      86.114  64.968  79.137  1.00  0.00     0.056 A 
ATOM     11  C   UNL     1      85.382  64.295  81.766  1.00  0.00     0.050 A 
ATOM     12  C   UNL     1      84.973  63.484  80.694  1.00  0.00     0.009 A 
BRANCH   8  13
ATOM     13  O   UNL     1      87.263  66.914  79.954  1.00  0.00    -0.493 OA
ATOM     14  C   UNL     1      86.707  67.778  78.944  1.00  0.00     0.278 C 
ENDBRANCH   8  13
BRANCH   9  15
ATOM     15  O   UNL     1      86.517  66.247  82.561  1.00  0.00    -0.504 OA
ATOM     16  H   UNL     1      87.154  65.781  83.107  1.00  0.00     0.293 HD
ENDBRANCH   9  15
ENDBRANCH   6   7
ENDBRANCH   3   6
ENDBRANCH   1   2
BRANCH   1  17
ATOM     17  C   UNL     1      82.424  65.627  75.790  1.00  0.00     0.010 C 
BRANCH  17  18
ATOM     18  C   UNL     1      81.040  65.682  75.085  1.00  0.00     0.001 C 
BRANCH  18  19
ATOM     19  C   UNL     1      80.862  64.595  73.992  1.00  0.00     0.000 C 
BRANCH  19  20
ATOM     20  C   UNL     1      80.006  65.100  72.795  1.00  0.00     0.003 C 
BRANCH  20  21
ATOM     21  C   UNL     1      80.703  66.168  71.889  1.00  0.00    -0.017 C 
ATOM     22  C   UNL     1      79.942  66.335  70.541  1.00  0.00     0.007 C 
ATOM     23  C   UNL     1      82.202  65.847  71.620  1.00  0.00     0.007 C 
ENDBRANCH  20  21
ENDBRANCH  19  20
ENDBRANCH  18  19
ENDBRANCH  17  18
ENDBRANCH   1  17
TORSDOF 10
ENDMDL
MODEL 9
REMARK VINA RESULT:    -5.277      4.631      7.909
REMARK INTER + INTRA:          -9.242
REMARK INTER:                  -8.757
REMARK INTRA:                  -0.485
REMARK UNBOUND:                -1.034
REMARK SMILES COc1cc(CNC(=O)CCCCCC(C)C)ccc1O
REMARK SMILES IDX 10 1 8 2 7 3 9 5 6 6 5 7 3 8 20 9 4 10 19 11 18 12 2 13 1 14
REMARK SMILES IDX 21 15 11 17 12 18 13 19 14 20 15 21 16 22 17 23
REMARK H PARENT 7 4 21 16
REMARK Flexibility Score: inf
ROOT
ATOM      1  C   UNL     1      93.643  97.967  72.736  1.00  0.00     0.100 C 
ENDROOT
BRANCH   1   2
ATOM      2  C   UNL     1      94.648  97.856  73.814  1.00  0.00     0.220 C 
ATOM      3  N   UNL     1      95.114  96.626  74.171  1.00  0.00    -0.352 N 
ATOM      4  H   UNL     1      94.627  95.848  73.748  1.00  0.00     0.163 HD
ATOM      5  O   UNL     1      95.083  98.903  74.352  1.00  0.00    -0.275 OA
BRANCH   3   6
ATOM      6  C   UNL     1      96.200  96.386  75.066  1.00  0.00     0.151 C 
BRANCH   6   7
ATOM      7  C   UNL     1      95.788  95.678  76.308  1.00  0.00    -0.025 A 
ATOM      8  C   UNL     1      94.223  94.205  77.504  1.00  0.00     0.160 A 
ATOM      9  C   UNL     1      95.040  94.275  78.653  1.00  0.00     0.157 A 
ATOM     10  C   UNL     1      94.593  94.922  76.346  1.00  0.00     0.056 A 
ATOM     11  C   UNL     1      96.217  95.045  78.635  1.00  0.00     0.050 A 
ATOM     12  C   UNL     1      96.592  95.736  77.471  1.00  0.00     0.009 A 
BRANCH   8  13
ATOM     13  O   UNL     1      93.063  93.477  77.507  1.00  0.00    -0.493 OA
ATOM     14  C   UNL     1      91.998  94.077  76.745  1.00  0.00     0.278 C 
ENDBRANCH   8  13
BRANCH   9  15
ATOM     15  O   UNL     1      94.693  93.591  79.772  1.00  0.00    -0.504 OA
ATOM     16  H   UNL     1      95.153  93.962  80.529  1.00  0.00     0.293 HD
ENDBRANCH   9  15
ENDBRANCH   6   7
ENDBRANCH   3   6
ENDBRANCH   1   2
BRANCH   1  17
ATOM     17  C   UNL     1      94.165  98.655  71.446  1.00  0.00     0.010 C 
BRANCH  17  18
ATOM     18  C   UNL     1      93.037  99.433  70.715  1.00  0.00     0.001 C 
BRANCH  18  19
ATOM     19  C   UNL     1      92.189  98.544  69.768  1.00  0.00     0.000 C 
BRANCH  19  20
ATOM     20  C   UNL     1      91.245  99.385  68.860  1.00  0.00     0.003 C 
BRANCH  20  21
ATOM     21  C   UNL     1      90.148  98.563  68.108  1.00  0.00    -0.017 C 
ATOM     22  C   UNL     1      90.447  97.037  68.184  1.00  0.00     0.007 C 
ATOM     23  C   UNL     1      89.977  99.000  66.624  1.00  0.00     0.007 C 
ENDBRANCH  20  21
ENDBRANCH  19  20
ENDBRANCH  18  19
ENDBRANCH  17  18
ENDBRANCH   1  17
TORSDOF 10
ENDMDL
MODEL 10
REMARK VINA RESULT:    -5.234      2.999      5.151
REMARK INTER + INTRA:          -9.175
REMARK INTER:                  -8.626
REMARK INTRA:                  -0.549
REMARK UNBOUND:                -1.034
REMARK SMILES COc1cc(CNC(=O)CCCCCC(C)C)ccc1O
REMARK SMILES IDX 10 1 8 2 7 3 9 5 6 6 5 7 3 8 20 9 4 10 19 11 18 12 2 13 1 14
REMARK SMILES IDX 21 15 11 17 12 18 13 19 14 20 15 21 16 22 17 23
REMARK H PARENT 7 4 21 16
REMARK Flexibility Score: inf
ROOT
ATOM      1  C   UNL     1      95.726  95.864  74.852  1.00  0.00     0.100 C 
ENDROOT
BRANCH   1   2
ATOM      2  C   UNL     1      95.231  95.201  76.076  1.00  0.00     0.220 C 
ATOM      3  N   UNL     1      93.950  94.738  76.115  1.00  0.00    -0.352 N 
ATOM      4  H   UNL     1      93.377  95.007  75.329  1.00  0.00     0.163 HD
ATOM      5  O   UNL     1      96.017  95.039  77.041  1.00  0.00    -0.275 OA
BRANCH   3   6
ATOM      6  C   UNL     1      93.399  93.931  77.157  1.00  0.00     0.151 C 
BRANCH   6   7
ATOM      7  C   UNL     1      92.168  93.205  76.745  1.00  0.00    -0.025 A 
ATOM      8  C   UNL     1      90.620  92.460  74.985  1.00  0.00     0.160 A 
ATOM      9  C   UNL     1      89.860  91.767  75.951  1.00  0.00     0.157 A 
ATOM     10  C   UNL     1      91.757  93.190  75.391  1.00  0.00     0.056 A 
ATOM     11  C   UNL     1      90.244  91.797  77.304  1.00  0.00     0.050 A 
ATOM     12  C   UNL     1      91.391  92.505  77.698  1.00  0.00     0.009 A 
BRANCH   8  13
ATOM     13  O   UNL     1      90.252  92.460  73.665  1.00  0.00    -0.493 OA
ATOM     14  C   UNL     1      90.976  91.511  72.860  1.00  0.00     0.278 C 
ENDBRANCH   8  13
BRANCH   9  15
ATOM     15  O   UNL     1      88.763  91.064  75.572  1.00  0.00    -0.504 OA
ATOM     16  H   UNL     1      88.071  91.671  75.303  1.00  0.00     0.293 HD
ENDBRANCH   9  15
ENDBRANCH   6   7
ENDBRANCH   3   6
ENDBRANCH   1   2
BRANCH   1  17
ATOM     17  C   UNL     1      95.213  97.317  74.662  1.00  0.00     0.010 C 
BRANCH  17  18
ATOM     18  C   UNL     1      94.313  97.446  73.402  1.00  0.00     0.001 C 
BRANCH  18  19
ATOM     19  C   UNL     1      93.601  98.820  73.291  1.00  0.00     0.000 C 
BRANCH  19  20
ATOM     20  C   UNL     1      93.552  99.340  71.825  1.00  0.00     0.003 C 
BRANCH  20  21
ATOM     21  C   UNL     1      92.893 100.747  71.645  1.00  0.00    -0.017 C 
ATOM     22  C   UNL     1      92.428 101.321  73.016  1.00  0.00     0.007 C 
ATOM     23  C   UNL     1      91.704 100.734  70.641  1.00  0.00     0.007 C 
ENDBRANCH  20  21
ENDBRANCH  19  20
ENDBRANCH  18  19
ENDBRANCH  17  18
ENDBRANCH   1  17
TORSDOF 10
ENDMDL
