MODEL 1
REMARK VINA RESULT:    -5.937      0.000      0.000
REMARK INTER + INTRA:         -11.975
REMARK INTER:                  -9.754
REMARK INTRA:                  -2.221
REMARK UNBOUND:                -2.221
REMARK SMILES CCCCC[C@H](O)CC(=O)CCc1ccc(O)c(OC)c1
REMARK SMILES IDX 8 1 6 2 7 3 5 5 4 6 3 7 2 8 1 9 9 10 10 11 11 12 12 13 13 14
REMARK SMILES IDX 21 15 14 16 18 17 15 18 16 19 19 20 20 21 17 22
REMARK H PARENT 7 4 17 23
REMARK Flexibility Score: inf
ROOT
ATOM      1  C   UNL     1      80.451  85.763  85.473  1.00  0.00     0.107 C 
ENDROOT
BRANCH   1   2
ATOM      2  C   UNL     1      81.731  85.721  86.311  1.00  0.00     0.121 C 
BRANCH   2   3
ATOM      3  O   UNL     1      82.861  85.977  85.480  1.00  0.00    -0.393 OA
ATOM      4  H   UNL     1      83.641  86.059  86.056  1.00  0.00     0.210 HD
ENDBRANCH   2   3
BRANCH   2   5
ATOM      5  C   UNL     1      81.721  86.722  87.472  1.00  0.00     0.032 C 
BRANCH   5   6
ATOM      6  C   UNL     1      80.667  86.368  88.529  1.00  0.00     0.003 C 
BRANCH   6   7
ATOM      7  C   UNL     1      79.497  87.356  88.572  1.00  0.00    -0.000 C 
BRANCH   7   8
ATOM      8  C   UNL     1      79.709  88.514  89.546  1.00  0.00    -0.003 C 
ATOM      9  C   UNL     1      80.589  88.100  90.716  1.00  0.00     0.004 C 
ENDBRANCH   7   8
ENDBRANCH   6   7
ENDBRANCH   5   6
ENDBRANCH   2   5
ENDBRANCH   1   2
BRANCH   1  10
ATOM     10  C   UNL     1      80.519  86.763  84.331  1.00  0.00     0.135 C 
ATOM     11  O   UNL     1      81.086  86.481  83.275  1.00  0.00    -0.300 OA
BRANCH  10  12
ATOM     12  C   UNL     1      79.818  88.095  84.548  1.00  0.00     0.080 C 
BRANCH  12  13
ATOM     13  C   UNL     1      80.690  89.310  84.224  1.00  0.00     0.043 C 
BRANCH  13  14
ATOM     14  C   UNL     1      81.649  89.663  85.336  1.00  0.00    -0.044 A 
ATOM     15  C   UNL     1      83.014  89.420  85.184  1.00  0.00     0.054 A 
ATOM     16  C   UNL     1      81.168  90.232  86.516  1.00  0.00     0.008 A 
ATOM     17  C   UNL     1      83.899  89.748  86.212  1.00  0.00     0.160 A 
ATOM     18  C   UNL     1      82.053  90.560  87.544  1.00  0.00     0.050 A 
ATOM     19  C   UNL     1      83.418  90.317  87.392  1.00  0.00     0.157 A 
BRANCH  17  20
ATOM     20  O   UNL     1      85.230  89.506  86.052  1.00  0.00    -0.493 OA
ATOM     21  C   UNL     1      85.957  90.408  85.221  1.00  0.00     0.278 C 
ENDBRANCH  17  20
BRANCH  19  22
ATOM     22  O   UNL     1      84.272  90.641  88.402  1.00  0.00    -0.504 OA
ATOM     23  H   UNL     1      83.959  91.455  88.833  1.00  0.00     0.293 HD
ENDBRANCH  19  22
ENDBRANCH  13  14
ENDBRANCH  12  13
ENDBRANCH  10  12
ENDBRANCH   1  10
TORSDOF 12
ENDMDL
MODEL 2
REMARK VINA RESULT:    -5.304      1.599      4.006
REMARK INTER + INTRA:         -10.936
REMARK INTER:                  -8.636
REMARK INTRA:                  -2.300
REMARK UNBOUND:                -2.221
REMARK SMILES CCCCC[C@H](O)CC(=O)CCc1ccc(O)c(OC)c1
REMARK SMILES IDX 8 1 6 2 7 3 5 5 4 6 3 7 2 8 1 9 9 10 10 11 11 12 12 13 13 14
REMARK SMILES IDX 21 15 14 16 18 17 15 18 16 19 19 20 20 21 17 22
REMARK H PARENT 7 4 17 23
REMARK Flexibility Score: inf
ROOT
ATOM      1  C   UNL     1      80.737  85.954  85.496  1.00  0.00     0.107 C 
ENDROOT
BRANCH   1   2
ATOM      2  C   UNL     1      80.876  86.930  84.325  1.00  0.00     0.121 C 
BRANCH   2   3
ATOM      3  O   UNL     1      80.985  86.206  83.102  1.00  0.00    -0.393 OA
ATOM      4  H   UNL     1      80.298  86.538  82.498  1.00  0.00     0.210 HD
ENDBRANCH   2   3
BRANCH   2   5
ATOM      5  C   UNL     1      79.707  87.917  84.225  1.00  0.00     0.032 C 
BRANCH   5   6
ATOM      6  C   UNL     1      80.100  89.326  84.686  1.00  0.00     0.003 C 
BRANCH   6   7
ATOM      7  C   UNL     1      81.548  89.694  84.344  1.00  0.00    -0.000 C 
BRANCH   7   8
ATOM      8  C   UNL     1      82.402  90.020  85.567  1.00  0.00    -0.003 C 
ATOM      9  C   UNL     1      83.563  89.048  85.708  1.00  0.00     0.004 C 
ENDBRANCH   7   8
ENDBRANCH   6   7
ENDBRANCH   5   6
ENDBRANCH   2   5
ENDBRANCH   1   2
BRANCH   1  10
ATOM     10  C   UNL     1      82.052  85.692  86.212  1.00  0.00     0.135 C 
ATOM     11  O   UNL     1      83.071  85.412  85.581  1.00  0.00    -0.300 OA
BRANCH  10  12
ATOM     12  C   UNL     1      82.046  85.838  87.726  1.00  0.00     0.080 C 
BRANCH  12  13
ATOM     13  C   UNL     1      80.789  86.519  88.272  1.00  0.00     0.043 C 
BRANCH  13  14
ATOM     14  C   UNL     1      80.984  87.992  88.541  1.00  0.00    -0.044 A 
ATOM     15  C   UNL     1      82.166  88.445  89.127  1.00  0.00     0.054 A 
ATOM     16  C   UNL     1      79.980  88.901  88.203  1.00  0.00     0.008 A 
ATOM     17  C   UNL     1      82.345  89.806  89.374  1.00  0.00     0.160 A 
ATOM     18  C   UNL     1      80.159  90.262  88.450  1.00  0.00     0.050 A 
ATOM     19  C   UNL     1      81.341  90.715  89.036  1.00  0.00     0.157 A 
BRANCH  17  20
ATOM     20  O   UNL     1      83.503  90.236  89.947  1.00  0.00    -0.493 OA
ATOM     21  C   UNL     1      83.738  89.853  91.301  1.00  0.00     0.278 C 
ENDBRANCH  17  20
BRANCH  19  22
ATOM     22  O   UNL     1      81.504  92.046  89.272  1.00  0.00    -0.504 OA
ATOM     23  H   UNL     1      81.266  92.235  90.196  1.00  0.00     0.293 HD
ENDBRANCH  19  22
ENDBRANCH  13  14
ENDBRANCH  12  13
ENDBRANCH  10  12
ENDBRANCH   1  10
TORSDOF 12
ENDMDL
MODEL 3
REMARK VINA RESULT:    -5.251      1.645      3.980
REMARK INTER + INTRA:         -10.848
REMARK INTER:                  -9.008
REMARK INTRA:                  -1.840
REMARK UNBOUND:                -2.221
REMARK SMILES CCCCC[C@H](O)CC(=O)CCc1ccc(O)c(OC)c1
REMARK SMILES IDX 8 1 6 2 7 3 5 5 4 6 3 7 2 8 1 9 9 10 10 11 11 12 12 13 13 14
REMARK SMILES IDX 21 15 14 16 18 17 15 18 16 19 19 20 20 21 17 22
REMARK H PARENT 7 4 17 23
REMARK Flexibility Score: inf
ROOT
ATOM      1  C   UNL     1      80.189  86.359  85.675  1.00  0.00     0.107 C 
ENDROOT
BRANCH   1   2
ATOM      2  C   UNL     1      81.097  86.811  84.528  1.00  0.00     0.121 C 
BRANCH   2   3
ATOM      3  O   UNL     1      81.144  85.802  83.522  1.00  0.00    -0.393 OA
ATOM      4  H   UNL     1      80.326  85.866  82.998  1.00  0.00     0.210 HD
ENDBRANCH   2   3
BRANCH   2   5
ATOM      5  C   UNL     1      80.650  88.135  83.895  1.00  0.00     0.032 C 
BRANCH   5   6
ATOM      6  C   UNL     1      81.348  89.343  84.532  1.00  0.00     0.003 C 
BRANCH   6   7
ATOM      7  C   UNL     1      82.785  89.050  84.974  1.00  0.00    -0.000 C 
BRANCH   7   8
ATOM      8  C   UNL     1      83.706  90.266  84.906  1.00  0.00    -0.003 C 
ATOM      9  C   UNL     1      84.899  90.110  85.838  1.00  0.00     0.004 C 
ENDBRANCH   7   8
ENDBRANCH   6   7
ENDBRANCH   5   6
ENDBRANCH   2   5
ENDBRANCH   1   2
BRANCH   1  10
ATOM     10  C   UNL     1      80.886  86.366  87.025  1.00  0.00     0.135 C 
ATOM     11  O   UNL     1      81.961  85.788  87.185  1.00  0.00    -0.300 OA
BRANCH  10  12
ATOM     12  C   UNL     1      80.212  87.155  88.137  1.00  0.00     0.080 C 
BRANCH  12  13
ATOM     13  C   UNL     1      80.165  88.662  87.880  1.00  0.00     0.043 C 
BRANCH  13  14
ATOM     14  C   UNL     1      81.330  89.404  88.491  1.00  0.00    -0.044 A 
ATOM     15  C   UNL     1      81.688  90.662  88.006  1.00  0.00     0.054 A 
ATOM     16  C   UNL     1      82.049  88.829  89.540  1.00  0.00     0.008 A 
ATOM     17  C   UNL     1      82.764  91.346  88.572  1.00  0.00     0.160 A 
ATOM     18  C   UNL     1      83.125  89.514  90.106  1.00  0.00     0.050 A 
ATOM     19  C   UNL     1      83.482  90.772  89.621  1.00  0.00     0.157 A 
BRANCH  17  20
ATOM     20  O   UNL     1      83.105  92.574  88.090  1.00  0.00    -0.493 OA
ATOM     21  C   UNL     1      82.423  93.699  88.643  1.00  0.00     0.278 C 
ENDBRANCH  17  20
BRANCH  19  22
ATOM     22  O   UNL     1      84.535  91.430  90.181  1.00  0.00    -0.504 OA
ATOM     23  H   UNL     1      85.292  91.396  89.571  1.00  0.00     0.293 HD
ENDBRANCH  19  22
ENDBRANCH  13  14
ENDBRANCH  12  13
ENDBRANCH  10  12
ENDBRANCH   1  10
TORSDOF 12
ENDMDL
MODEL 4
REMARK VINA RESULT:    -5.208     13.163     16.849
REMARK INTER + INTRA:         -10.779
REMARK INTER:                  -9.903
REMARK INTRA:                  -0.875
REMARK UNBOUND:                -2.221
REMARK SMILES CCCCC[C@H](O)CC(=O)CCc1ccc(O)c(OC)c1
REMARK SMILES IDX 8 1 6 2 7 3 5 5 4 6 3 7 2 8 1 9 9 10 10 11 11 12 12 13 13 14
REMARK SMILES IDX 21 15 14 16 18 17 15 18 16 19 19 20 20 21 17 22
REMARK H PARENT 7 4 17 23
REMARK Flexibility Score: inf
ROOT
ATOM      1  C   UNL     1      94.060  94.978  75.857  1.00  0.00     0.107 C 
ENDROOT
BRANCH   1   2
ATOM      2  C   UNL     1      93.644  93.512  76.004  1.00  0.00     0.121 C 
BRANCH   2   3
ATOM      3  O   UNL     1      93.108  93.290  77.307  1.00  0.00    -0.393 OA
ATOM      4  H   UNL     1      93.246  94.101  77.827  1.00  0.00     0.210 HD
ENDBRANCH   2   3
BRANCH   2   5
ATOM      5  C   UNL     1      92.616  93.072  74.954  1.00  0.00     0.032 C 
BRANCH   5   6
ATOM      6  C   UNL     1      91.491  92.230  75.567  1.00  0.00     0.003 C 
BRANCH   6   7
ATOM      7  C   UNL     1      90.177  93.001  75.733  1.00  0.00    -0.000 C 
BRANCH   7   8
ATOM      8  C   UNL     1      89.588  92.912  77.140  1.00  0.00    -0.003 C 
ATOM      9  C   UNL     1      90.121  91.699  77.887  1.00  0.00     0.004 C 
ENDBRANCH   7   8
ENDBRANCH   6   7
ENDBRANCH   5   6
ENDBRANCH   2   5
ENDBRANCH   1   2
BRANCH   1  10
ATOM     10  C   UNL     1      95.533  95.149  75.524  1.00  0.00     0.135 C 
ATOM     11  O   UNL     1      96.057  94.501  74.618  1.00  0.00    -0.300 OA
BRANCH  10  12
ATOM     12  C   UNL     1      96.299  96.183  76.334  1.00  0.00     0.080 C 
BRANCH  12  13
ATOM     13  C   UNL     1      97.277  95.575  77.342  1.00  0.00     0.043 C 
BRANCH  13  14
ATOM     14  C   UNL     1      96.662  95.352  78.703  1.00  0.00    -0.044 A 
ATOM     15  C   UNL     1      96.849  96.293  79.716  1.00  0.00     0.054 A 
ATOM     16  C   UNL     1      95.906  94.205  78.947  1.00  0.00     0.008 A 
ATOM     17  C   UNL     1      96.279  96.086  80.972  1.00  0.00     0.160 A 
ATOM     18  C   UNL     1      95.337  93.998  80.203  1.00  0.00     0.050 A 
ATOM     19  C   UNL     1      95.524  94.939  81.216  1.00  0.00     0.157 A 
BRANCH  17  20
ATOM     20  O   UNL     1      96.469  97.012  81.954  1.00  0.00    -0.493 OA
ATOM     21  C   UNL     1      96.176  98.370  81.630  1.00  0.00     0.278 C 
ENDBRANCH  17  20
BRANCH  19  22
ATOM     22  O   UNL     1      94.963  94.726  82.439  1.00  0.00    -0.504 OA
ATOM     23  H   UNL     1      95.587  94.225  82.991  1.00  0.00     0.293 HD
ENDBRANCH  19  22
ENDBRANCH  13  14
ENDBRANCH  12  13
ENDBRANCH  10  12
ENDBRANCH   1  10
TORSDOF 12
ENDMDL
MODEL 5
REMARK VINA RESULT:    -5.053      1.929      4.765
REMARK INTER + INTRA:         -10.524
REMARK INTER:                  -8.806
REMARK INTRA:                  -1.718
REMARK UNBOUND:                -2.221
REMARK SMILES CCCCC[C@H](O)CC(=O)CCc1ccc(O)c(OC)c1
REMARK SMILES IDX 8 1 6 2 7 3 5 5 4 6 3 7 2 8 1 9 9 10 10 11 11 12 12 13 13 14
REMARK SMILES IDX 21 15 14 16 18 17 15 18 16 19 19 20 20 21 17 22
REMARK H PARENT 7 4 17 23
REMARK Flexibility Score: inf
ROOT
ATOM      1  C   UNL     1      83.682  90.697  84.338  1.00  0.00     0.107 C 
ENDROOT
BRANCH   1   2
ATOM      2  C   UNL     1      82.735  89.494  84.331  1.00  0.00     0.121 C 
BRANCH   2   3
ATOM      3  O   UNL     1      83.341  88.398  85.012  1.00  0.00    -0.393 OA
ATOM      4  H   UNL     1      83.573  88.696  85.909  1.00  0.00     0.210 HD
ENDBRANCH   2   3
BRANCH   2   5
ATOM      5  C   UNL     1      81.375  89.797  84.973  1.00  0.00     0.032 C 
BRANCH   5   6
ATOM      6  C   UNL     1      80.472  88.559  85.020  1.00  0.00     0.003 C 
BRANCH   6   7
ATOM      7  C   UNL     1      80.100  88.025  83.633  1.00  0.00    -0.000 C 
BRANCH   7   8
ATOM      8  C   UNL     1      80.529  86.578  83.398  1.00  0.00    -0.003 C 
ATOM      9  C   UNL     1      80.908  85.894  84.703  1.00  0.00     0.004 C 
ENDBRANCH   7   8
ENDBRANCH   6   7
ENDBRANCH   5   6
ENDBRANCH   2   5
ENDBRANCH   1   2
BRANCH   1  10
ATOM     10  C   UNL     1      85.005  90.410  85.028  1.00  0.00     0.135 C 
ATOM     11  O   UNL     1      85.955  89.936  84.404  1.00  0.00    -0.300 OA
BRANCH  10  12
ATOM     12  C   UNL     1      85.100  90.778  86.501  1.00  0.00     0.080 C 
BRANCH  12  13
ATOM     13  C   UNL     1      84.083  91.834  86.938  1.00  0.00     0.043 C 
BRANCH  13  14
ATOM     14  C   UNL     1      83.041  91.295  87.889  1.00  0.00    -0.044 A 
ATOM     15  C   UNL     1      82.992  89.929  88.169  1.00  0.00     0.054 A 
ATOM     16  C   UNL     1      82.128  92.164  88.488  1.00  0.00     0.008 A 
ATOM     17  C   UNL     1      82.030  89.433  89.048  1.00  0.00     0.160 A 
ATOM     18  C   UNL     1      81.166  91.667  89.367  1.00  0.00     0.050 A 
ATOM     19  C   UNL     1      81.117  90.301  89.647  1.00  0.00     0.157 A 
BRANCH  17  20
ATOM     20  O   UNL     1      81.991  88.097  89.314  1.00  0.00    -0.493 OA
ATOM     21  C   UNL     1      81.660  87.230  88.230  1.00  0.00     0.278 C 
ENDBRANCH  17  20
BRANCH  19  22
ATOM     22  O   UNL     1      80.173  89.828  90.508  1.00  0.00    -0.504 OA
ATOM     23  H   UNL     1      80.408  88.921  90.769  1.00  0.00     0.293 HD
ENDBRANCH  19  22
ENDBRANCH  13  14
ENDBRANCH  12  13
ENDBRANCH  10  12
ENDBRANCH   1  10
TORSDOF 12
ENDMDL
MODEL 6
REMARK VINA RESULT:    -4.994      1.495      4.593
REMARK INTER + INTRA:         -10.426
REMARK INTER:                  -8.819
REMARK INTRA:                  -1.606
REMARK UNBOUND:                -2.221
REMARK SMILES CCCCC[C@H](O)CC(=O)CCc1ccc(O)c(OC)c1
REMARK SMILES IDX 8 1 6 2 7 3 5 5 4 6 3 7 2 8 1 9 9 10 10 11 11 12 12 13 13 14
REMARK SMILES IDX 21 15 14 16 18 17 15 18 16 19 19 20 20 21 17 22
REMARK H PARENT 7 4 17 23
REMARK Flexibility Score: inf
ROOT
ATOM      1  C   UNL     1      83.910  90.382  88.624  1.00  0.00     0.107 C 
ENDROOT
BRANCH   1   2
ATOM      2  C   UNL     1      82.808  89.331  88.773  1.00  0.00     0.121 C 
BRANCH   2   3
ATOM      3  O   UNL     1      82.987  88.611  89.991  1.00  0.00    -0.393 OA
ATOM      4  H   UNL     1      83.940  88.444  90.099  1.00  0.00     0.210 HD
ENDBRANCH   2   3
BRANCH   2   5
ATOM      5  C   UNL     1      81.397  89.933  88.746  1.00  0.00     0.032 C 
BRANCH   5   6
ATOM      6  C   UNL     1      80.490  89.325  89.823  1.00  0.00     0.003 C 
BRANCH   6   7
ATOM      7  C   UNL     1      79.351  88.477  89.247  1.00  0.00    -0.000 C 
BRANCH   7   8
ATOM      8  C   UNL     1      79.817  87.429  88.238  1.00  0.00    -0.003 C 
ATOM      9  C   UNL     1      80.498  86.259  88.930  1.00  0.00     0.004 C 
ENDBRANCH   7   8
ENDBRANCH   6   7
ENDBRANCH   5   6
ENDBRANCH   2   5
ENDBRANCH   1   2
BRANCH   1  10
ATOM     10  C   UNL     1      83.871  91.101  87.285  1.00  0.00     0.135 C 
ATOM     11  O   UNL     1      83.730  92.322  87.226  1.00  0.00    -0.300 OA
BRANCH  10  12
ATOM     12  C   UNL     1      84.060  90.242  86.044  1.00  0.00     0.080 C 
BRANCH  12  13
ATOM     13  C   UNL     1      82.998  90.473  84.968  1.00  0.00     0.043 C 
BRANCH  13  14
ATOM     14  C   UNL     1      82.024  89.327  84.841  1.00  0.00    -0.044 A 
ATOM     15  C   UNL     1      82.464  88.014  85.013  1.00  0.00     0.054 A 
ATOM     16  C   UNL     1      80.683  89.580  84.553  1.00  0.00     0.008 A 
ATOM     17  C   UNL     1      81.563  86.956  84.897  1.00  0.00     0.160 A 
ATOM     18  C   UNL     1      79.781  88.522  84.437  1.00  0.00     0.050 A 
ATOM     19  C   UNL     1      80.222  87.210  84.608  1.00  0.00     0.157 A 
BRANCH  17  20
ATOM     20  O   UNL     1      82.005  85.678  85.066  1.00  0.00    -0.493 OA
ATOM     21  C   UNL     1      82.753  85.402  86.248  1.00  0.00     0.278 C 
ENDBRANCH  17  20
BRANCH  19  22
ATOM     22  O   UNL     1      79.332  86.185  84.492  1.00  0.00    -0.504 OA
ATOM     23  H   UNL     1      78.499  86.528  84.128  1.00  0.00     0.293 HD
ENDBRANCH  19  22
ENDBRANCH  13  14
ENDBRANCH  12  13
ENDBRANCH  10  12
ENDBRANCH   1  10
TORSDOF 12
ENDMDL
MODEL 7
REMARK VINA RESULT:    -4.783     23.441     25.319
REMARK INTER + INTRA:         -10.080
REMARK INTER:                  -9.319
REMARK INTRA:                  -0.761
REMARK UNBOUND:                -2.221
REMARK SMILES CCCCC[C@H](O)CC(=O)CCc1ccc(O)c(OC)c1
REMARK SMILES IDX 8 1 6 2 7 3 5 5 4 6 3 7 2 8 1 9 9 10 10 11 11 12 12 13 13 14
REMARK SMILES IDX 21 15 14 16 18 17 15 18 16 19 19 20 20 21 17 22
REMARK H PARENT 7 4 17 23
REMARK Flexibility Score: inf
ROOT
ATOM      1  C   UNL     1      83.513  65.899  76.229  1.00  0.00     0.107 C 
ENDROOT
BRANCH   1   2
ATOM      2  C   UNL     1      82.025  66.222  76.070  1.00  0.00     0.121 C 
BRANCH   2   3
ATOM      3  O   UNL     1      81.683  67.340  76.887  1.00  0.00    -0.393 OA
ATOM      4  H   UNL     1      80.722  67.316  77.035  1.00  0.00     0.210 HD
ENDBRANCH   2   3
BRANCH   2   5
ATOM      5  C   UNL     1      81.626  66.516  74.619  1.00  0.00     0.032 C 
BRANCH   5   6
ATOM      6  C   UNL     1      80.199  66.049  74.307  1.00  0.00     0.003 C 
BRANCH   6   7
ATOM      7  C   UNL     1      80.114  65.138  73.078  1.00  0.00    -0.000 C 
BRANCH   7   8
ATOM      8  C   UNL     1      80.924  65.642  71.885  1.00  0.00    -0.003 C 
ATOM      9  C   UNL     1      80.052  66.421  70.913  1.00  0.00     0.004 C 
ENDBRANCH   7   8
ENDBRANCH   6   7
ENDBRANCH   5   6
ENDBRANCH   2   5
ENDBRANCH   1   2
BRANCH   1  10
ATOM     10  C   UNL     1      83.809  64.409  76.167  1.00  0.00     0.135 C 
ATOM     11  O   UNL     1      84.174  63.880  75.117  1.00  0.00    -0.300 OA
BRANCH  10  12
ATOM     12  C   UNL     1      83.674  63.632  77.467  1.00  0.00     0.080 C 
BRANCH  12  13
ATOM     13  C   UNL     1      85.014  63.199  78.066  1.00  0.00     0.043 C 
BRANCH  13  14
ATOM     14  C   UNL     1      85.393  63.985  79.299  1.00  0.00    -0.044 A 
ATOM     15  C   UNL     1      86.089  65.187  79.173  1.00  0.00     0.054 A 
ATOM     16  C   UNL     1      85.047  63.508  80.563  1.00  0.00     0.008 A 
ATOM     17  C   UNL     1      86.438  65.913  80.312  1.00  0.00     0.160 A 
ATOM     18  C   UNL     1      85.396  64.234  81.702  1.00  0.00     0.050 A 
ATOM     19  C   UNL     1      86.092  65.436  81.576  1.00  0.00     0.157 A 
BRANCH  17  20
ATOM     20  O   UNL     1      87.119  67.085  80.176  1.00  0.00    -0.493 OA
ATOM     21  C   UNL     1      88.502  66.997  79.839  1.00  0.00     0.278 C 
ENDBRANCH  17  20
BRANCH  19  22
ATOM     22  O   UNL     1      86.427  66.136  82.696  1.00  0.00    -0.504 OA
ATOM     23  H   UNL     1      86.400  67.087  82.495  1.00  0.00     0.293 HD
ENDBRANCH  19  22
ENDBRANCH  13  14
ENDBRANCH  12  13
ENDBRANCH  10  12
ENDBRANCH   1  10
TORSDOF 12
ENDMDL
MODEL 8
REMARK VINA RESULT:    -4.771      2.294      4.592
REMARK INTER + INTRA:         -10.059
REMARK INTER:                  -7.789
REMARK INTRA:                  -2.271
REMARK UNBOUND:                -2.221
REMARK SMILES CCCCC[C@H](O)CC(=O)CCc1ccc(O)c(OC)c1
REMARK SMILES IDX 8 1 6 2 7 3 5 5 4 6 3 7 2 8 1 9 9 10 10 11 11 12 12 13 13 14
REMARK SMILES IDX 21 15 14 16 18 17 15 18 16 19 19 20 20 21 17 22
REMARK H PARENT 7 4 17 23
REMARK Flexibility Score: inf
ROOT
ATOM      1  C   UNL     1      83.255  90.283  84.675  1.00  0.00     0.107 C 
ENDROOT
BRANCH   1   2
ATOM      2  C   UNL     1      82.811  88.823  84.557  1.00  0.00     0.121 C 
BRANCH   2   3
ATOM      3  O   UNL     1      83.565  88.015  85.457  1.00  0.00    -0.393 OA
ATOM      4  H   UNL     1      83.449  88.378  86.353  1.00  0.00     0.210 HD
ENDBRANCH   2   3
BRANCH   2   5
ATOM      5  C   UNL     1      81.316  88.627  84.834  1.00  0.00     0.032 C 
BRANCH   5   6
ATOM      6  C   UNL     1      80.778  89.647  85.845  1.00  0.00     0.003 C 
BRANCH   6   7
ATOM      7  C   UNL     1      80.435  89.030  87.205  1.00  0.00    -0.000 C 
BRANCH   7   8
ATOM      8  C   UNL     1      80.230  87.517  87.157  1.00  0.00    -0.003 C 
ATOM      9  C   UNL     1      81.093  86.807  88.189  1.00  0.00     0.004 C 
ENDBRANCH   7   8
ENDBRANCH   6   7
ENDBRANCH   5   6
ENDBRANCH   2   5
ENDBRANCH   1   2
BRANCH   1  10
ATOM     10  C   UNL     1      84.727  90.432  85.027  1.00  0.00     0.135 C 
ATOM     11  O   UNL     1      85.603  89.989  84.285  1.00  0.00    -0.300 OA
BRANCH  10  12
ATOM     12  C   UNL     1      85.049  91.189  86.306  1.00  0.00     0.080 C 
BRANCH  12  13
ATOM     13  C   UNL     1      83.871  91.996  86.856  1.00  0.00     0.043 C 
BRANCH  13  14
ATOM     14  C   UNL     1      83.255  91.379  88.089  1.00  0.00    -0.044 A 
ATOM     15  C   UNL     1      82.233  92.045  88.766  1.00  0.00     0.054 A 
ATOM     16  C   UNL     1      83.708  90.143  88.551  1.00  0.00     0.008 A 
ATOM     17  C   UNL     1      81.664  91.474  89.904  1.00  0.00     0.160 A 
ATOM     18  C   UNL     1      83.139  89.572  89.689  1.00  0.00     0.050 A 
ATOM     19  C   UNL     1      82.117  90.237  90.366  1.00  0.00     0.157 A 
BRANCH  17  20
ATOM     20  O   UNL     1      80.666  92.133  90.557  1.00  0.00    -0.493 OA
ATOM     21  C   UNL     1      80.931  93.477  90.955  1.00  0.00     0.278 C 
ENDBRANCH  17  20
BRANCH  19  22
ATOM     22  O   UNL     1      81.568  89.670  91.476  1.00  0.00    -0.504 OA
ATOM     23  H   UNL     1      81.862  88.744  91.536  1.00  0.00     0.293 HD
ENDBRANCH  19  22
ENDBRANCH  13  14
ENDBRANCH  12  13
ENDBRANCH  10  12
ENDBRANCH   1  10
TORSDOF 12
ENDMDL
MODEL 9
REMARK VINA RESULT:    -4.754      2.091      4.526
REMARK INTER + INTRA:         -10.032
REMARK INTER:                  -8.501
REMARK INTRA:                  -1.531
REMARK UNBOUND:                -2.221
REMARK SMILES CCCCC[C@H](O)CC(=O)CCc1ccc(O)c(OC)c1
REMARK SMILES IDX 8 1 6 2 7 3 5 5 4 6 3 7 2 8 1 9 9 10 10 11 11 12 12 13 13 14
REMARK SMILES IDX 21 15 14 16 18 17 15 18 16 19 19 20 20 21 17 22
REMARK H PARENT 7 4 17 23
REMARK Flexibility Score: inf
ROOT
ATOM      1  C   UNL     1      82.472  89.842  84.408  1.00  0.00     0.107 C 
ENDROOT
BRANCH   1   2
ATOM      2  C   UNL     1      83.615  89.551  85.384  1.00  0.00     0.121 C 
BRANCH   2   3
ATOM      3  O   UNL     1      83.908  88.156  85.384  1.00  0.00    -0.393 OA
ATOM      4  H   UNL     1      84.562  87.989  86.085  1.00  0.00     0.210 HD
ENDBRANCH   2   3
BRANCH   2   5
ATOM      5  C   UNL     1      84.892  90.336  85.062  1.00  0.00     0.032 C 
BRANCH   5   6
ATOM      6  C   UNL     1      84.964  91.661  85.830  1.00  0.00     0.003 C 
BRANCH   6   7
ATOM      7  C   UNL     1      83.937  91.762  86.962  1.00  0.00    -0.000 C 
BRANCH   7   8
ATOM      8  C   UNL     1      83.629  93.198  87.382  1.00  0.00    -0.003 C 
ATOM      9  C   UNL     1      82.703  93.236  88.589  1.00  0.00     0.004 C 
ENDBRANCH   7   8
ENDBRANCH   6   7
ENDBRANCH   5   6
ENDBRANCH   2   5
ENDBRANCH   1   2
BRANCH   1  10
ATOM     10  C   UNL     1      81.438  88.729  84.354  1.00  0.00     0.135 C 
ATOM     11  O   UNL     1      81.714  87.631  83.871  1.00  0.00    -0.300 OA
BRANCH  10  12
ATOM     12  C   UNL     1      80.077  89.032  84.964  1.00  0.00     0.080 C 
BRANCH  12  13
ATOM     13  C   UNL     1      80.142  89.950  86.186  1.00  0.00     0.043 C 
BRANCH  13  14
ATOM     14  C   UNL     1      80.518  89.221  87.454  1.00  0.00    -0.044 A 
ATOM     15  C   UNL     1      81.148  89.908  88.492  1.00  0.00     0.054 A 
ATOM     16  C   UNL     1      80.235  87.862  87.587  1.00  0.00     0.008 A 
ATOM     17  C   UNL     1      81.494  89.234  89.664  1.00  0.00     0.160 A 
ATOM     18  C   UNL     1      80.582  87.188  88.758  1.00  0.00     0.050 A 
ATOM     19  C   UNL     1      81.211  87.874  89.797  1.00  0.00     0.157 A 
BRANCH  17  20
ATOM     20  O   UNL     1      82.109  89.915  90.671  1.00  0.00    -0.493 OA
ATOM     21  C   UNL     1      83.510  90.147  90.535  1.00  0.00     0.278 C 
ENDBRANCH  17  20
BRANCH  19  22
ATOM     22  O   UNL     1      81.545  87.206  90.936  1.00  0.00    -0.504 OA
ATOM     23  H   UNL     1      80.768  87.169  91.520  1.00  0.00     0.293 HD
ENDBRANCH  19  22
ENDBRANCH  13  14
ENDBRANCH  12  13
ENDBRANCH  10  12
ENDBRANCH   1  10
TORSDOF 12
ENDMDL
MODEL 10
REMARK VINA RESULT:    -4.606      1.993      4.231
REMARK INTER + INTRA:          -9.789
REMARK INTER:                  -8.089
REMARK INTRA:                  -1.700
REMARK UNBOUND:                -2.221
REMARK SMILES CCCCC[C@H](O)CC(=O)CCc1ccc(O)c(OC)c1
REMARK SMILES IDX 8 1 6 2 7 3 5 5 4 6 3 7 2 8 1 9 9 10 10 11 11 12 12 13 13 14
REMARK SMILES IDX 21 15 14 16 18 17 15 18 16 19 19 20 20 21 17 22
REMARK H PARENT 7 4 17 23
REMARK Flexibility Score: inf
ROOT
ATOM      1  C   UNL     1      80.836  88.987  90.801  1.00  0.00     0.107 C 
ENDROOT
BRANCH   1   2
ATOM      2  C   UNL     1      81.417  87.898  89.896  1.00  0.00     0.121 C 
BRANCH   2   3
ATOM      3  O   UNL     1      82.533  87.284  90.535  1.00  0.00    -0.393 OA
ATOM      4  H   UNL     1      82.702  86.436  90.088  1.00  0.00     0.210 HD
ENDBRANCH   2   3
BRANCH   2   5
ATOM      5  C   UNL     1      80.393  86.820  89.521  1.00  0.00     0.032 C 
BRANCH   5   6
ATOM      6  C   UNL     1      80.334  86.582  88.007  1.00  0.00     0.003 C 
BRANCH   6   7
ATOM      7  C   UNL     1      81.672  86.133  87.411  1.00  0.00    -0.000 C 
BRANCH   7   8
ATOM      8  C   UNL     1      81.580  85.718  85.944  1.00  0.00    -0.003 C 
ATOM      9  C   UNL     1      80.154  85.823  85.427  1.00  0.00     0.004 C 
ENDBRANCH   7   8
ENDBRANCH   6   7
ENDBRANCH   5   6
ENDBRANCH   2   5
ENDBRANCH   1   2
BRANCH   1  10
ATOM     10  C   UNL     1      79.597  89.648  90.218  1.00  0.00     0.135 C 
ATOM     11  O   UNL     1      78.480  89.419  90.681  1.00  0.00    -0.300 OA
BRANCH  10  12
ATOM     12  C   UNL     1      79.821  90.629  89.076  1.00  0.00     0.080 C 
BRANCH  12  13
ATOM     13  C   UNL     1      81.295  90.832  88.720  1.00  0.00     0.043 C 
BRANCH  13  14
ATOM     14  C   UNL     1      81.682  90.185  87.411  1.00  0.00    -0.044 A 
ATOM     15  C   UNL     1      83.000  89.783  87.194  1.00  0.00     0.054 A 
ATOM     16  C   UNL     1      80.720  89.989  86.419  1.00  0.00     0.008 A 
ATOM     17  C   UNL     1      83.356  89.185  85.985  1.00  0.00     0.160 A 
ATOM     18  C   UNL     1      81.076  89.391  85.210  1.00  0.00     0.050 A 
ATOM     19  C   UNL     1      82.394  88.990  84.993  1.00  0.00     0.157 A 
BRANCH  17  20
ATOM     20  O   UNL     1      84.646  88.798  85.784  1.00  0.00    -0.493 OA
ATOM     21  C   UNL     1      85.651  89.804  85.903  1.00  0.00     0.278 C 
ENDBRANCH  17  20
BRANCH  19  22
ATOM     22  O   UNL     1      82.729  88.407  83.809  1.00  0.00    -0.504 OA
ATOM     23  H   UNL     1      82.299  88.892  83.084  1.00  0.00     0.293 HD
ENDBRANCH  19  22
ENDBRANCH  13  14
ENDBRANCH  12  13
ENDBRANCH  10  12
ENDBRANCH   1  10
TORSDOF 12
ENDMDL
