MODEL 1
REMARK VINA RESULT:    -6.026      0.000      0.000
REMARK INTER + INTRA:         -11.088
REMARK INTER:                  -9.901
REMARK INTRA:                  -1.187
REMARK UNBOUND:                -1.187
REMARK SMILES CCCCC[C@H](O)CC(=O)CCc1ccc(O)c(OC)c1
REMARK SMILES IDX 8 1 6 2 7 3 5 5 4 6 3 7 2 8 1 9 9 10 10 11 11 12 12 13 13 14
REMARK SMILES IDX 21 15 14 16 18 17 15 18 16 19 19 20 20 21 17 22
REMARK H PARENT 7 4 17 23
REMARK Flexibility Score: inf
ROOT
ATOM      1  C   UNL     1      93.301  97.120  76.147  1.00  0.00     0.107 C 
ENDROOT
BRANCH   1   2
ATOM      2  C   UNL     1      92.758  95.738  76.519  1.00  0.00     0.121 C 
BRANCH   2   3
ATOM      3  O   UNL     1      93.829  94.800  76.585  1.00  0.00    -0.393 OA
ATOM      4  H   UNL     1      94.318  94.847  75.745  1.00  0.00     0.210 HD
ENDBRANCH   2   3
BRANCH   2   5
ATOM      5  C   UNL     1      91.998  95.732  77.851  1.00  0.00     0.032 C 
BRANCH   5   6
ATOM      6  C   UNL     1      90.478  95.765  77.648  1.00  0.00     0.003 C 
BRANCH   6   7
ATOM      7  C   UNL     1      89.867  94.380  77.411  1.00  0.00    -0.000 C 
BRANCH   7   8
ATOM      8  C   UNL     1      90.826  93.229  77.711  1.00  0.00    -0.003 C 
ATOM      9  C   UNL     1      91.174  92.455  76.449  1.00  0.00     0.004 C 
ENDBRANCH   7   8
ENDBRANCH   6   7
ENDBRANCH   5   6
ENDBRANCH   2   5
ENDBRANCH   1   2
BRANCH   1  10
ATOM     10  C   UNL     1      94.761  97.308  76.526  1.00  0.00     0.135 C 
ATOM     11  O   UNL     1      95.660  97.072  75.719  1.00  0.00    -0.300 OA
BRANCH  10  12
ATOM     12  C   UNL     1      95.040  97.841  77.923  1.00  0.00     0.080 C 
BRANCH  12  13
ATOM     13  C   UNL     1      96.300  97.257  78.564  1.00  0.00     0.043 C 
BRANCH  13  14
ATOM     14  C   UNL     1      96.001  96.315  79.706  1.00  0.00    -0.044 A 
ATOM     15  C   UNL     1      95.649  96.824  80.956  1.00  0.00     0.054 A 
ATOM     16  C   UNL     1      96.078  94.936  79.510  1.00  0.00     0.008 A 
ATOM     17  C   UNL     1      95.372  95.953  82.010  1.00  0.00     0.160 A 
ATOM     18  C   UNL     1      95.801  94.065  80.564  1.00  0.00     0.050 A 
ATOM     19  C   UNL     1      95.449  94.574  81.814  1.00  0.00     0.157 A 
BRANCH  17  20
ATOM     20  O   UNL     1      95.029  96.462  83.227  1.00  0.00    -0.493 OA
ATOM     21  C   UNL     1      95.986  97.302  83.870  1.00  0.00     0.278 C 
ENDBRANCH  17  20
BRANCH  19  22
ATOM     22  O   UNL     1      95.181  93.714  82.836  1.00  0.00    -0.504 OA
ATOM     23  H   UNL     1      95.913  93.078  82.915  1.00  0.00     0.293 HD
ENDBRANCH  19  22
ENDBRANCH  13  14
ENDBRANCH  12  13
ENDBRANCH  10  12
ENDBRANCH   1  10
TORSDOF 12
ENDMDL
MODEL 2
REMARK VINA RESULT:    -6.025     21.576     26.187
REMARK INTER + INTRA:         -11.087
REMARK INTER:                 -10.171
REMARK INTRA:                  -0.916
REMARK UNBOUND:                -1.187
REMARK SMILES CCCCC[C@H](O)CC(=O)CCc1ccc(O)c(OC)c1
REMARK SMILES IDX 8 1 6 2 7 3 5 5 4 6 3 7 2 8 1 9 9 10 10 11 11 12 12 13 13 14
REMARK SMILES IDX 21 15 14 16 18 17 15 18 16 19 19 20 20 21 17 22
REMARK H PARENT 7 4 17 23
REMARK Flexibility Score: inf
ROOT
ATOM      1  C   UNL     1      77.856  85.412  66.952  1.00  0.00     0.107 C 
ENDROOT
BRANCH   1   2
ATOM      2  C   UNL     1      77.789  85.635  68.465  1.00  0.00     0.121 C 
BRANCH   2   3
ATOM      3  O   UNL     1      79.058  85.353  69.052  1.00  0.00    -0.393 OA
ATOM      4  H   UNL     1      79.490  86.202  69.248  1.00  0.00     0.210 HD
ENDBRANCH   2   3
BRANCH   2   5
ATOM      5  C   UNL     1      77.364  87.059  68.844  1.00  0.00     0.032 C 
BRANCH   5   6
ATOM      6  C   UNL     1      76.035  87.078  69.610  1.00  0.00     0.003 C 
BRANCH   6   7
ATOM      7  C   UNL     1      75.309  85.729  69.600  1.00  0.00    -0.000 C 
BRANCH   7   8
ATOM      8  C   UNL     1      75.156  85.106  70.987  1.00  0.00    -0.003 C 
ATOM      9  C   UNL     1      76.264  84.103  71.269  1.00  0.00     0.004 C 
ENDBRANCH   7   8
ENDBRANCH   6   7
ENDBRANCH   5   6
ENDBRANCH   2   5
ENDBRANCH   1   2
BRANCH   1  10
ATOM     10  C   UNL     1      78.048  83.953  66.573  1.00  0.00     0.135 C 
ATOM     11  O   UNL     1      78.827  83.234  67.199  1.00  0.00    -0.300 OA
BRANCH  10  12
ATOM     12  C   UNL     1      77.202  83.430  65.422  1.00  0.00     0.080 C 
BRANCH  12  13
ATOM     13  C   UNL     1      77.048  81.908  65.414  1.00  0.00     0.043 C 
BRANCH  13  14
ATOM     14  C   UNL     1      75.737  81.448  64.822  1.00  0.00    -0.044 A 
ATOM     15  C   UNL     1      74.586  81.422  65.610  1.00  0.00     0.054 A 
ATOM     16  C   UNL     1      75.677  81.050  63.486  1.00  0.00     0.008 A 
ATOM     17  C   UNL     1      73.376  80.999  65.061  1.00  0.00     0.160 A 
ATOM     18  C   UNL     1      74.467  80.627  62.938  1.00  0.00     0.050 A 
ATOM     19  C   UNL     1      73.316  80.600  63.725  1.00  0.00     0.157 A 
BRANCH  17  20
ATOM     20  O   UNL     1      72.258  80.977  65.841  1.00  0.00    -0.493 OA
ATOM     21  C   UNL     1      71.710  82.237  66.223  1.00  0.00     0.278 C 
ENDBRANCH  17  20
BRANCH  19  22
ATOM     22  O   UNL     1      72.140  80.185  63.179  1.00  0.00    -0.504 OA
ATOM     23  H   UNL     1      71.505  80.921  63.195  1.00  0.00     0.293 HD
ENDBRANCH  19  22
ENDBRANCH  13  14
ENDBRANCH  12  13
ENDBRANCH  10  12
ENDBRANCH   1  10
TORSDOF 12
ENDMDL
MODEL 3
REMARK VINA RESULT:    -5.624     21.777     26.085
REMARK INTER + INTRA:         -10.427
REMARK INTER:                  -9.283
REMARK INTRA:                  -1.144
REMARK UNBOUND:                -1.187
REMARK SMILES CCCCC[C@H](O)CC(=O)CCc1ccc(O)c(OC)c1
REMARK SMILES IDX 8 1 6 2 7 3 5 5 4 6 3 7 2 8 1 9 9 10 10 11 11 12 12 13 13 14
REMARK SMILES IDX 21 15 14 16 18 17 15 18 16 19 19 20 20 21 17 22
REMARK H PARENT 7 4 17 23
REMARK Flexibility Score: inf
ROOT
ATOM      1  C   UNL     1      76.528  85.624  66.519  1.00  0.00     0.107 C 
ENDROOT
BRANCH   1   2
ATOM      2  C   UNL     1      77.299  86.924  66.763  1.00  0.00     0.121 C 
BRANCH   2   3
ATOM      3  O   UNL     1      76.385  87.998  66.966  1.00  0.00    -0.393 OA
ATOM      4  H   UNL     1      75.892  88.130  66.137  1.00  0.00     0.210 HD
ENDBRANCH   2   3
BRANCH   2   5
ATOM      5  C   UNL     1      78.252  86.839  67.962  1.00  0.00     0.032 C 
BRANCH   5   6
ATOM      6  C   UNL     1      77.500  86.636  69.283  1.00  0.00     0.003 C 
BRANCH   6   7
ATOM      7  C   UNL     1      77.914  85.363  70.027  1.00  0.00    -0.000 C 
BRANCH   7   8
ATOM      8  C   UNL     1      76.732  84.536  70.530  1.00  0.00    -0.003 C 
ATOM      9  C   UNL     1      75.411  85.241  70.267  1.00  0.00     0.004 C 
ENDBRANCH   7   8
ENDBRANCH   6   7
ENDBRANCH   5   6
ENDBRANCH   2   5
ENDBRANCH   1   2
BRANCH   1  10
ATOM     10  C   UNL     1      76.998  84.876  65.282  1.00  0.00     0.135 C 
ATOM     11  O   UNL     1      76.808  85.334  64.155  1.00  0.00    -0.300 OA
BRANCH  10  12
ATOM     12  C   UNL     1      77.745  83.572  65.517  1.00  0.00     0.080 C 
BRANCH  12  13
ATOM     13  C   UNL     1      76.921  82.515  66.254  1.00  0.00     0.043 C 
BRANCH  13  14
ATOM     14  C   UNL     1      75.856  81.885  65.388  1.00  0.00    -0.044 A 
ATOM     15  C   UNL     1      74.577  81.669  65.901  1.00  0.00     0.054 A 
ATOM     16  C   UNL     1      76.152  81.520  64.074  1.00  0.00     0.008 A 
ATOM     17  C   UNL     1      73.594  81.088  65.100  1.00  0.00     0.160 A 
ATOM     18  C   UNL     1      75.168  80.939  63.273  1.00  0.00     0.050 A 
ATOM     19  C   UNL     1      73.890  80.723  63.786  1.00  0.00     0.157 A 
BRANCH  17  20
ATOM     20  O   UNL     1      72.348  80.881  65.612  1.00  0.00    -0.493 OA
ATOM     21  C   UNL     1      71.676  82.014  66.159  1.00  0.00     0.278 C 
ENDBRANCH  17  20
BRANCH  19  22
ATOM     22  O   UNL     1      72.938  80.155  62.994  1.00  0.00    -0.504 OA
ATOM     23  H   UNL     1      73.272  79.307  62.655  1.00  0.00     0.293 HD
ENDBRANCH  19  22
ENDBRANCH  13  14
ENDBRANCH  12  13
ENDBRANCH  10  12
ENDBRANCH   1  10
TORSDOF 12
ENDMDL
MODEL 4
REMARK VINA RESULT:    -5.593     22.280     26.087
REMARK INTER + INTRA:         -10.377
REMARK INTER:                  -8.239
REMARK INTRA:                  -2.138
REMARK UNBOUND:                -1.187
REMARK SMILES CCCCC[C@H](O)CC(=O)CCc1ccc(O)c(OC)c1
REMARK SMILES IDX 8 1 6 2 7 3 5 5 4 6 3 7 2 8 1 9 9 10 10 11 11 12 12 13 13 14
REMARK SMILES IDX 21 15 14 16 18 17 15 18 16 19 19 20 20 21 17 22
REMARK H PARENT 7 4 17 23
REMARK Flexibility Score: inf
ROOT
ATOM      1  C   UNL     1      73.307  82.221  64.378  1.00  0.00     0.107 C 
ENDROOT
BRANCH   1   2
ATOM      2  C   UNL     1      72.115  81.495  65.006  1.00  0.00     0.121 C 
BRANCH   2   3
ATOM      3  O   UNL     1      72.481  80.156  65.332  1.00  0.00    -0.393 OA
ATOM      4  H   UNL     1      71.679  79.607  65.280  1.00  0.00     0.210 HD
ENDBRANCH   2   3
BRANCH   2   5
ATOM      5  C   UNL     1      71.582  82.192  66.263  1.00  0.00     0.032 C 
BRANCH   5   6
ATOM      6  C   UNL     1      71.754  83.715  66.195  1.00  0.00     0.003 C 
BRANCH   6   7
ATOM      7  C   UNL     1      72.520  84.293  67.388  1.00  0.00    -0.000 C 
BRANCH   7   8
ATOM      8  C   UNL     1      73.255  85.595  67.071  1.00  0.00    -0.003 C 
ATOM      9  C   UNL     1      74.142  85.446  65.845  1.00  0.00     0.004 C 
ENDBRANCH   7   8
ENDBRANCH   6   7
ENDBRANCH   5   6
ENDBRANCH   2   5
ENDBRANCH   1   2
BRANCH   1  10
ATOM     10  C   UNL     1      74.491  81.304  64.113  1.00  0.00     0.135 C 
ATOM     11  O   UNL     1      74.460  80.479  63.200  1.00  0.00    -0.300 OA
BRANCH  10  12
ATOM     12  C   UNL     1      75.712  81.495  64.999  1.00  0.00     0.080 C 
BRANCH  12  13
ATOM     13  C   UNL     1      75.372  81.826  66.453  1.00  0.00     0.043 C 
BRANCH  13  14
ATOM     14  C   UNL     1      76.324  82.821  67.073  1.00  0.00    -0.044 A 
ATOM     15  C   UNL     1      76.024  83.400  68.306  1.00  0.00     0.054 A 
ATOM     16  C   UNL     1      77.504  83.162  66.411  1.00  0.00     0.008 A 
ATOM     17  C   UNL     1      76.905  84.318  68.877  1.00  0.00     0.160 A 
ATOM     18  C   UNL     1      78.385  84.080  66.982  1.00  0.00     0.050 A 
ATOM     19  C   UNL     1      78.085  84.659  68.215  1.00  0.00     0.157 A 
BRANCH  17  20
ATOM     20  O   UNL     1      76.601  84.877  70.082  1.00  0.00    -0.493 OA
ATOM     21  C   UNL     1      75.556  85.848  70.101  1.00  0.00     0.278 C 
ENDBRANCH  17  20
BRANCH  19  22
ATOM     22  O   UNL     1      78.953  85.554  68.763  1.00  0.00    -0.504 OA
ATOM     23  H   UNL     1      79.856  85.339  68.473  1.00  0.00     0.293 HD
ENDBRANCH  19  22
ENDBRANCH  13  14
ENDBRANCH  12  13
ENDBRANCH  10  12
ENDBRANCH   1  10
TORSDOF 12
ENDMDL
MODEL 5
REMARK VINA RESULT:    -5.516     21.823     24.414
REMARK INTER + INTRA:         -10.250
REMARK INTER:                  -9.095
REMARK INTRA:                  -1.156
REMARK UNBOUND:                -1.187
REMARK SMILES CCCCC[C@H](O)CC(=O)CCc1ccc(O)c(OC)c1
REMARK SMILES IDX 8 1 6 2 7 3 5 5 4 6 3 7 2 8 1 9 9 10 10 11 11 12 12 13 13 14
REMARK SMILES IDX 21 15 14 16 18 17 15 18 16 19 19 20 20 21 17 22
REMARK H PARENT 7 4 17 23
REMARK Flexibility Score: inf
ROOT
ATOM      1  C   UNL     1      77.919  83.924  65.367  1.00  0.00     0.107 C 
ENDROOT
BRANCH   1   2
ATOM      2  C   UNL     1      76.926  82.771  65.203  1.00  0.00     0.121 C 
BRANCH   2   3
ATOM      3  O   UNL     1      77.485  81.572  65.733  1.00  0.00    -0.393 OA
ATOM      4  H   UNL     1      77.011  80.821  65.336  1.00  0.00     0.210 HD
ENDBRANCH   2   3
BRANCH   2   5
ATOM      5  C   UNL     1      75.576  83.040  65.879  1.00  0.00     0.032 C 
BRANCH   5   6
ATOM      6  C   UNL     1      74.882  81.745  66.318  1.00  0.00     0.003 C 
BRANCH   6   7
ATOM      7  C   UNL     1      73.668  81.384  65.455  1.00  0.00    -0.000 C 
BRANCH   7   8
ATOM      8  C   UNL     1      74.037  80.776  64.104  1.00  0.00    -0.003 C 
ATOM      9  C   UNL     1      72.869  80.008  63.505  1.00  0.00     0.004 C 
ENDBRANCH   7   8
ENDBRANCH   6   7
ENDBRANCH   5   6
ENDBRANCH   2   5
ENDBRANCH   1   2
BRANCH   1  10
ATOM     10  C   UNL     1      78.309  84.173  66.815  1.00  0.00     0.135 C 
ATOM     11  O   UNL     1      78.821  83.283  67.494  1.00  0.00    -0.300 OA
BRANCH  10  12
ATOM     12  C   UNL     1      78.074  85.576  67.353  1.00  0.00     0.080 C 
BRANCH  12  13
ATOM     13  C   UNL     1      77.912  85.633  68.873  1.00  0.00     0.043 C 
BRANCH  13  14
ATOM     14  C   UNL     1      76.548  86.115  69.305  1.00  0.00    -0.044 A 
ATOM     15  C   UNL     1      76.421  87.312  70.010  1.00  0.00     0.054 A 
ATOM     16  C   UNL     1      75.414  85.362  68.999  1.00  0.00     0.008 A 
ATOM     17  C   UNL     1      75.160  87.757  70.408  1.00  0.00     0.160 A 
ATOM     18  C   UNL     1      74.153  85.807  69.397  1.00  0.00     0.050 A 
ATOM     19  C   UNL     1      74.026  87.004  70.102  1.00  0.00     0.157 A 
BRANCH  17  20
ATOM     20  O   UNL     1      75.049  88.927  71.096  1.00  0.00    -0.493 OA
ATOM     21  C   UNL     1      75.133  90.134  70.341  1.00  0.00     0.278 C 
ENDBRANCH  17  20
BRANCH  19  22
ATOM     22  O   UNL     1      72.790  87.428  70.485  1.00  0.00    -0.504 OA
ATOM     23  H   UNL     1      72.842  88.363  70.745  1.00  0.00     0.293 HD
ENDBRANCH  19  22
ENDBRANCH  13  14
ENDBRANCH  12  13
ENDBRANCH  10  12
ENDBRANCH   1  10
TORSDOF 12
ENDMDL
MODEL 6
REMARK VINA RESULT:    -5.503      1.685      4.916
REMARK INTER + INTRA:         -10.228
REMARK INTER:                  -8.655
REMARK INTRA:                  -1.573
REMARK UNBOUND:                -1.187
REMARK SMILES CCCCC[C@H](O)CC(=O)CCc1ccc(O)c(OC)c1
REMARK SMILES IDX 8 1 6 2 7 3 5 5 4 6 3 7 2 8 1 9 9 10 10 11 11 12 12 13 13 14
REMARK SMILES IDX 21 15 14 16 18 17 15 18 16 19 19 20 20 21 17 22
REMARK H PARENT 7 4 17 23
REMARK Flexibility Score: inf
ROOT
ATOM      1  C   UNL     1      95.704  94.107  80.117  1.00  0.00     0.107 C 
ENDROOT
BRANCH   1   2
ATOM      2  C   UNL     1      94.402  93.671  79.439  1.00  0.00     0.121 C 
BRANCH   2   3
ATOM      3  O   UNL     1      93.365  93.562  80.411  1.00  0.00    -0.393 OA
ATOM      4  H   UNL     1      93.115  92.624  80.476  1.00  0.00     0.210 HD
ENDBRANCH   2   3
BRANCH   2   5
ATOM      5  C   UNL     1      93.955  94.626  78.326  1.00  0.00     0.032 C 
BRANCH   5   6
ATOM      6  C   UNL     1      92.668  95.375  78.693  1.00  0.00     0.003 C 
BRANCH   6   7
ATOM      7  C   UNL     1      91.843  95.796  77.472  1.00  0.00    -0.000 C 
BRANCH   7   8
ATOM      8  C   UNL     1      90.413  95.258  77.485  1.00  0.00    -0.003 C 
ATOM      9  C   UNL     1      90.311  93.973  78.291  1.00  0.00     0.004 C 
ENDBRANCH   7   8
ENDBRANCH   6   7
ENDBRANCH   5   6
ENDBRANCH   2   5
ENDBRANCH   1   2
BRANCH   1  10
ATOM     10  C   UNL     1      95.516  94.491  81.575  1.00  0.00     0.135 C 
ATOM     11  O   UNL     1      95.203  93.649  82.416  1.00  0.00    -0.300 OA
BRANCH  10  12
ATOM     12  C   UNL     1      95.779  95.945  81.937  1.00  0.00     0.080 C 
BRANCH  12  13
ATOM     13  C   UNL     1      95.034  96.944  81.050  1.00  0.00     0.043 C 
BRANCH  13  14
ATOM     14  C   UNL     1      95.930  97.625  80.043  1.00  0.00    -0.044 A 
ATOM     15  C   UNL     1      95.570  97.654  78.696  1.00  0.00     0.054 A 
ATOM     16  C   UNL     1      97.118  98.226  80.462  1.00  0.00     0.008 A 
ATOM     17  C   UNL     1      96.398  98.285  77.767  1.00  0.00     0.160 A 
ATOM     18  C   UNL     1      97.946  98.856  79.532  1.00  0.00     0.050 A 
ATOM     19  C   UNL     1      97.586  98.885  78.185  1.00  0.00     0.157 A 
BRANCH  17  20
ATOM     20  O   UNL     1      96.036  98.306  76.454  1.00  0.00    -0.493 OA
ATOM     21  C   UNL     1      95.385  97.145  75.942  1.00  0.00     0.278 C 
ENDBRANCH  17  20
BRANCH  19  22
ATOM     22  O   UNL     1      98.402  99.504  77.287  1.00  0.00    -0.504 OA
ATOM     23  H   UNL     1      99.043  98.857  76.944  1.00  0.00     0.293 HD
ENDBRANCH  19  22
ENDBRANCH  13  14
ENDBRANCH  12  13
ENDBRANCH  10  12
ENDBRANCH   1  10
TORSDOF 12
ENDMDL
MODEL 7
REMARK VINA RESULT:    -5.476      2.298      4.453
REMARK INTER + INTRA:         -10.184
REMARK INTER:                  -8.517
REMARK INTRA:                  -1.667
REMARK UNBOUND:                -1.187
REMARK SMILES CCCCC[C@H](O)CC(=O)CCc1ccc(O)c(OC)c1
REMARK SMILES IDX 8 1 6 2 7 3 5 5 4 6 3 7 2 8 1 9 9 10 10 11 11 12 12 13 13 14
REMARK SMILES IDX 21 15 14 16 18 17 15 18 16 19 19 20 20 21 17 22
REMARK H PARENT 7 4 17 23
REMARK Flexibility Score: inf
ROOT
ATOM      1  C   UNL     1      95.062  93.895  79.563  1.00  0.00     0.107 C 
ENDROOT
BRANCH   1   2
ATOM      2  C   UNL     1      93.624  94.150  79.103  1.00  0.00     0.121 C 
BRANCH   2   3
ATOM      3  O   UNL     1      92.710  93.578  80.035  1.00  0.00    -0.393 OA
ATOM      4  H   UNL     1      93.227  93.216  80.776  1.00  0.00     0.210 HD
ENDBRANCH   2   3
BRANCH   2   5
ATOM      5  C   UNL     1      93.304  95.641  78.933  1.00  0.00     0.032 C 
BRANCH   5   6
ATOM      6  C   UNL     1      92.121  95.872  77.985  1.00  0.00     0.003 C 
BRANCH   6   7
ATOM      7  C   UNL     1      92.511  95.825  76.505  1.00  0.00    -0.000 C 
BRANCH   7   8
ATOM      8  C   UNL     1      93.705  96.712  76.158  1.00  0.00    -0.003 C 
ATOM      9  C   UNL     1      93.257  98.026  75.535  1.00  0.00     0.004 C 
ENDBRANCH   7   8
ENDBRANCH   6   7
ENDBRANCH   5   6
ENDBRANCH   2   5
ENDBRANCH   1   2
BRANCH   1  10
ATOM     10  C   UNL     1      95.208  93.873  81.076  1.00  0.00     0.135 C 
ATOM     11  O   UNL     1      94.757  92.942  81.742  1.00  0.00    -0.300 OA
BRANCH  10  12
ATOM     12  C   UNL     1      95.973  95.029  81.703  1.00  0.00     0.080 C 
BRANCH  12  13
ATOM     13  C   UNL     1      97.016  95.653  80.774  1.00  0.00     0.043 C 
BRANCH  13  14
ATOM     14  C   UNL     1      96.679  97.070  80.374  1.00  0.00    -0.044 A 
ATOM     15  C   UNL     1      96.595  98.068  81.344  1.00  0.00     0.054 A 
ATOM     16  C   UNL     1      96.453  97.380  79.032  1.00  0.00     0.008 A 
ATOM     17  C   UNL     1      96.285  99.377  80.973  1.00  0.00     0.160 A 
ATOM     18  C   UNL     1      96.143  98.688  78.661  1.00  0.00     0.050 A 
ATOM     19  C   UNL     1      96.059  99.686  79.631  1.00  0.00     0.157 A 
BRANCH  17  20
ATOM     20  O   UNL     1      96.205 100.343  81.929  1.00  0.00    -0.493 OA
ATOM     21  C   UNL     1      95.190 100.192  82.920  1.00  0.00     0.278 C 
ENDBRANCH  17  20
BRANCH  19  22
ATOM     22  O   UNL     1      95.755 100.960  79.257  1.00  0.00    -0.504 OA
ATOM     23  H   UNL     1      96.132 101.579  79.905  1.00  0.00     0.293 HD
ENDBRANCH  19  22
ENDBRANCH  13  14
ENDBRANCH  12  13
ENDBRANCH  10  12
ENDBRANCH   1  10
TORSDOF 12
ENDMDL
MODEL 8
REMARK VINA RESULT:    -5.363     22.361     27.031
REMARK INTER + INTRA:          -9.999
REMARK INTER:                  -8.991
REMARK INTRA:                  -1.008
REMARK UNBOUND:                -1.187
REMARK SMILES CCCCC[C@H](O)CC(=O)CCc1ccc(O)c(OC)c1
REMARK SMILES IDX 8 1 6 2 7 3 5 5 4 6 3 7 2 8 1 9 9 10 10 11 11 12 12 13 13 14
REMARK SMILES IDX 21 15 14 16 18 17 15 18 16 19 19 20 20 21 17 22
REMARK H PARENT 7 4 17 23
REMARK Flexibility Score: inf
ROOT
ATOM      1  C   UNL     1      76.657  84.204  66.812  1.00  0.00     0.107 C 
ENDROOT
BRANCH   1   2
ATOM      2  C   UNL     1      77.799  83.946  67.797  1.00  0.00     0.121 C 
BRANCH   2   3
ATOM      3  O   UNL     1      78.907  83.367  67.112  1.00  0.00    -0.393 OA
ATOM      4  H   UNL     1      78.638  83.210  66.190  1.00  0.00     0.210 HD
ENDBRANCH   2   3
BRANCH   2   5
ATOM      5  C   UNL     1      78.262  85.214  68.525  1.00  0.00     0.032 C 
BRANCH   5   6
ATOM      6  C   UNL     1      77.272  86.373  68.351  1.00  0.00     0.003 C 
BRANCH   6   7
ATOM      7  C   UNL     1      77.242  87.330  69.547  1.00  0.00    -0.000 C 
BRANCH   7   8
ATOM      8  C   UNL     1      75.837  87.592  70.085  1.00  0.00    -0.003 C 
ATOM      9  C   UNL     1      75.113  86.292  70.401  1.00  0.00     0.004 C 
ENDBRANCH   7   8
ENDBRANCH   6   7
ENDBRANCH   5   6
ENDBRANCH   2   5
ENDBRANCH   1   2
BRANCH   1  10
ATOM     10  C   UNL     1      76.472  83.079  65.807  1.00  0.00     0.135 C 
ATOM     11  O   UNL     1      76.912  83.175  64.661  1.00  0.00    -0.300 OA
BRANCH  10  12
ATOM     12  C   UNL     1      75.763  81.829  66.305  1.00  0.00     0.080 C 
BRANCH  12  13
ATOM     13  C   UNL     1      75.223  80.940  65.184  1.00  0.00     0.043 C 
BRANCH  13  14
ATOM     14  C   UNL     1      73.821  81.307  64.759  1.00  0.00    -0.044 A 
ATOM     15  C   UNL     1      72.879  81.685  65.715  1.00  0.00     0.054 A 
ATOM     16  C   UNL     1      73.470  81.268  63.409  1.00  0.00     0.008 A 
ATOM     17  C   UNL     1      71.584  82.025  65.321  1.00  0.00     0.160 A 
ATOM     18  C   UNL     1      72.175  81.608  63.015  1.00  0.00     0.050 A 
ATOM     19  C   UNL     1      71.233  81.986  63.971  1.00  0.00     0.157 A 
BRANCH  17  20
ATOM     20  O   UNL     1      70.672  82.392  66.264  1.00  0.00    -0.493 OA
ATOM     21  C   UNL     1      71.096  83.341  67.241  1.00  0.00     0.278 C 
ENDBRANCH  17  20
BRANCH  19  22
ATOM     22  O   UNL     1      69.972  82.316  63.575  1.00  0.00    -0.504 OA
ATOM     23  H   UNL     1      69.990  83.197  63.163  1.00  0.00     0.293 HD
ENDBRANCH  19  22
ENDBRANCH  13  14
ENDBRANCH  12  13
ENDBRANCH  10  12
ENDBRANCH   1  10
TORSDOF 12
ENDMDL
MODEL 9
REMARK VINA RESULT:    -5.343      1.695      6.540
REMARK INTER + INTRA:          -9.966
REMARK INTER:                  -8.356
REMARK INTRA:                  -1.609
REMARK UNBOUND:                -1.187
REMARK SMILES CCCCC[C@H](O)CC(=O)CCc1ccc(O)c(OC)c1
REMARK SMILES IDX 8 1 6 2 7 3 5 5 4 6 3 7 2 8 1 9 9 10 10 11 11 12 12 13 13 14
REMARK SMILES IDX 21 15 14 16 18 17 15 18 16 19 19 20 20 21 17 22
REMARK H PARENT 7 4 17 23
REMARK Flexibility Score: inf
ROOT
ATOM      1  C   UNL     1      94.890  96.854  81.733  1.00  0.00     0.107 C 
ENDROOT
BRANCH   1   2
ATOM      2  C   UNL     1      95.469  97.589  82.945  1.00  0.00     0.121 C 
BRANCH   2   3
ATOM      3  O   UNL     1      95.606  96.685  84.038  1.00  0.00    -0.393 OA
ATOM      4  H   UNL     1      96.124  95.921  83.730  1.00  0.00     0.210 HD
ENDBRANCH   2   3
BRANCH   2   5
ATOM      5  C   UNL     1      96.826  98.244  82.657  1.00  0.00     0.032 C 
BRANCH   5   6
ATOM      6  C   UNL     1      96.796  99.094  81.381  1.00  0.00     0.003 C 
BRANCH   6   7
ATOM      7  C   UNL     1      97.758  98.596  80.298  1.00  0.00    -0.000 C 
BRANCH   7   8
ATOM      8  C   UNL     1      97.419  99.105  78.898  1.00  0.00    -0.003 C 
ATOM      9  C   UNL     1      96.351  98.246  78.238  1.00  0.00     0.004 C 
ENDBRANCH   7   8
ENDBRANCH   6   7
ENDBRANCH   5   6
ENDBRANCH   2   5
ENDBRANCH   1   2
BRANCH   1  10
ATOM     10  C   UNL     1      95.456  95.454  81.559  1.00  0.00     0.135 C 
ATOM     11  O   UNL     1      95.230  94.572  82.388  1.00  0.00    -0.300 OA
BRANCH  10  12
ATOM     12  C   UNL     1      96.268  95.199  80.298  1.00  0.00     0.080 C 
BRANCH  12  13
ATOM     13  C   UNL     1      95.714  94.069  79.429  1.00  0.00     0.043 C 
BRANCH  13  14
ATOM     14  C   UNL     1      94.397  94.415  78.776  1.00  0.00    -0.044 A 
ATOM     15  C   UNL     1      94.379  95.133  77.580  1.00  0.00     0.054 A 
ATOM     16  C   UNL     1      93.199  94.016  79.369  1.00  0.00     0.008 A 
ATOM     17  C   UNL     1      93.162  95.451  76.977  1.00  0.00     0.160 A 
ATOM     18  C   UNL     1      91.982  94.334  78.766  1.00  0.00     0.050 A 
ATOM     19  C   UNL     1      91.964  95.052  77.570  1.00  0.00     0.157 A 
BRANCH  17  20
ATOM     20  O   UNL     1      93.156  96.153  75.810  1.00  0.00    -0.493 OA
ATOM     21  C   UNL     1      93.834  97.409  75.805  1.00  0.00     0.278 C 
ENDBRANCH  17  20
BRANCH  19  22
ATOM     22  O   UNL     1      90.769  95.357  76.991  1.00  0.00    -0.504 OA
ATOM     23  H   UNL     1      90.920  95.989  76.267  1.00  0.00     0.293 HD
ENDBRANCH  19  22
ENDBRANCH  13  14
ENDBRANCH  12  13
ENDBRANCH  10  12
ENDBRANCH   1  10
TORSDOF 12
ENDMDL
MODEL 10
REMARK VINA RESULT:    -5.321     22.569     25.203
REMARK INTER + INTRA:          -9.929
REMARK INTER:                  -8.020
REMARK INTRA:                  -1.908
REMARK UNBOUND:                -1.187
REMARK SMILES CCCCC[C@H](O)CC(=O)CCc1ccc(O)c(OC)c1
REMARK SMILES IDX 8 1 6 2 7 3 5 5 4 6 3 7 2 8 1 9 9 10 10 11 11 12 12 13 13 14
REMARK SMILES IDX 21 15 14 16 18 17 15 18 16 19 19 20 20 21 17 22
REMARK H PARENT 7 4 17 23
REMARK Flexibility Score: inf
ROOT
ATOM      1  C   UNL     1      77.454  87.337  66.318  1.00  0.00     0.107 C 
ENDROOT
BRANCH   1   2
ATOM      2  C   UNL     1      77.017  86.409  67.455  1.00  0.00     0.121 C 
BRANCH   2   3
ATOM      3  O   UNL     1      75.696  85.933  67.210  1.00  0.00    -0.393 OA
ATOM      4  H   UNL     1      75.312  85.667  68.064  1.00  0.00     0.210 HD
ENDBRANCH   2   3
BRANCH   2   5
ATOM      5  C   UNL     1      77.957  85.213  67.648  1.00  0.00     0.032 C 
BRANCH   5   6
ATOM      6  C   UNL     1      77.437  84.237  68.710  1.00  0.00     0.003 C 
BRANCH   6   7
ATOM      7  C   UNL     1      77.364  84.849  70.113  1.00  0.00    -0.000 C 
BRANCH   7   8
ATOM      8  C   UNL     1      75.988  84.728  70.763  1.00  0.00    -0.003 C 
ATOM      9  C   UNL     1      75.185  86.010  70.605  1.00  0.00     0.004 C 
ENDBRANCH   7   8
ENDBRANCH   6   7
ENDBRANCH   5   6
ENDBRANCH   2   5
ENDBRANCH   1   2
BRANCH   1  10
ATOM     10  C   UNL     1      76.607  87.183  65.065  1.00  0.00     0.135 C 
ATOM     11  O   UNL     1      75.524  87.758  64.958  1.00  0.00    -0.300 OA
BRANCH  10  12
ATOM     12  C   UNL     1      77.189  86.327  63.951  1.00  0.00     0.080 C 
BRANCH  12  13
ATOM     13  C   UNL     1      76.199  85.313  63.373  1.00  0.00     0.043 C 
BRANCH  13  14
ATOM     14  C   UNL     1      75.944  84.144  64.294  1.00  0.00    -0.044 A 
ATOM     15  C   UNL     1      74.645  83.858  64.715  1.00  0.00     0.054 A 
ATOM     16  C   UNL     1      77.007  83.350  64.723  1.00  0.00     0.008 A 
ATOM     17  C   UNL     1      74.410  82.777  65.565  1.00  0.00     0.160 A 
ATOM     18  C   UNL     1      76.773  82.269  65.573  1.00  0.00     0.050 A 
ATOM     19  C   UNL     1      75.474  81.983  65.994  1.00  0.00     0.157 A 
BRANCH  17  20
ATOM     20  O   UNL     1      73.138  82.508  65.970  1.00  0.00    -0.493 OA
ATOM     21  C   UNL     1      72.461  83.528  66.703  1.00  0.00     0.278 C 
ENDBRANCH  17  20
BRANCH  19  22
ATOM     22  O   UNL     1      75.257  80.925  66.824  1.00  0.00    -0.504 OA
ATOM     23  H   UNL     1      74.485  80.427  66.507  1.00  0.00     0.293 HD
ENDBRANCH  19  22
ENDBRANCH  13  14
ENDBRANCH  12  13
ENDBRANCH  10  12
ENDBRANCH   1  10
TORSDOF 12
ENDMDL
