MODEL 1
REMARK VINA RESULT:    -6.713      0.000      0.000
REMARK INTER + INTRA:         -11.538
REMARK INTER:                 -10.834
REMARK INTRA:                  -0.704
REMARK UNBOUND:                -0.704
REMARK SMILES COc1cc(CNC(=O)CCCCC/C=C/C(C)C)ccc1O
REMARK SMILES IDX 11 1 10 2 8 3 7 4 9 6 6 7 5 8 3 9 22 10 4 11 21 12 20 13
REMARK SMILES IDX 2 14 1 15 23 16 12 18 13 19 14 20 15 21 16 22 17 23 18 24
REMARK SMILES IDX 19 25
REMARK H PARENT 7 5 23 17
REMARK Flexibility Score: inf
ROOT
ATOM      1  C   UNL     1      79.966  65.330  72.122  1.00  0.00     0.010 C 
ENDROOT
BRANCH   1   2
ATOM      2  C   UNL     1      80.537  66.428  73.056  1.00  0.00     0.100 C 
BRANCH   2   3
ATOM      3  C   UNL     1      81.906  66.157  73.534  1.00  0.00     0.220 C 
ATOM      4  N   UNL     1      82.436  66.912  74.536  1.00  0.00    -0.352 N 
ATOM      5  H   UNL     1      81.852  67.678  74.840  1.00  0.00     0.163 HD
ATOM      6  O   UNL     1      82.537  65.201  73.023  1.00  0.00    -0.275 OA
BRANCH   4   7
ATOM      7  C   UNL     1      83.704  66.697  75.155  1.00  0.00     0.151 C 
BRANCH   7   8
ATOM      8  C   UNL     1      84.702  67.735  74.790  1.00  0.00    -0.025 A 
ATOM      9  C   UNL     1      85.609  69.352  73.174  1.00  0.00     0.160 A 
ATOM     10  C   UNL     1      86.642  69.676  74.079  1.00  0.00     0.157 A 
ATOM     11  C   UNL     1      84.653  68.379  73.531  1.00  0.00     0.056 A 
ATOM     12  C   UNL     1      86.691  69.054  75.340  1.00  0.00     0.050 A 
ATOM     13  C   UNL     1      85.722  68.098  75.697  1.00  0.00     0.009 A 
BRANCH   9  14
ATOM     14  O   UNL     1      85.501  70.014  71.979  1.00  0.00    -0.493 OA
ATOM     15  C   UNL     1      84.478  71.023  71.957  1.00  0.00     0.278 C 
ENDBRANCH   9  14
BRANCH  10  16
ATOM     16  O   UNL     1      87.598  70.586  73.762  1.00  0.00    -0.504 OA
ATOM     17  H   UNL     1      88.465  70.186  73.862  1.00  0.00     0.293 HD
ENDBRANCH  10  16
ENDBRANCH   7   8
ENDBRANCH   4   7
ENDBRANCH   2   3
ENDBRANCH   1   2
BRANCH   1  18
ATOM     18  C   UNL     1      79.476  65.935  70.782  1.00  0.00     0.001 C 
BRANCH  18  19
ATOM     19  C   UNL     1      79.761  65.037  69.552  1.00  0.00     0.004 C 
BRANCH  19  20
ATOM     20  C   UNL     1      78.783  63.830  69.493  1.00  0.00     0.027 C 
BRANCH  20  21
ATOM     21  C   UNL     1      77.579  64.091  68.722  1.00  0.00    -0.031 C 
ATOM     22  C   UNL     1      77.574  64.098  67.377  1.00  0.00    -0.028 C 
BRANCH  22  23
ATOM     23  C   UNL     1      76.380  64.352  66.574  1.00  0.00     0.005 C 
ATOM     24  C   UNL     1      75.217  63.434  67.035  1.00  0.00     0.012 C 
ATOM     25  C   UNL     1      76.002  65.857  66.633  1.00  0.00     0.012 C 
ENDBRANCH  22  23
ENDBRANCH  20  21
ENDBRANCH  19  20
ENDBRANCH  18  19
ENDBRANCH   1  18
TORSDOF 11
ENDMDL
MODEL 2
REMARK VINA RESULT:    -6.577      1.053      2.116
REMARK INTER + INTRA:         -11.318
REMARK INTER:                 -10.765
REMARK INTRA:                  -0.553
REMARK UNBOUND:                -0.704
REMARK SMILES COc1cc(CNC(=O)CCCCC/C=C/C(C)C)ccc1O
REMARK SMILES IDX 11 1 10 2 8 3 7 4 9 6 6 7 5 8 3 9 22 10 4 11 21 12 20 13
REMARK SMILES IDX 2 14 1 15 23 16 12 18 13 19 14 20 15 21 16 22 17 23 18 24
REMARK SMILES IDX 19 25
REMARK H PARENT 7 5 23 17
REMARK Flexibility Score: inf
ROOT
ATOM      1  C   UNL     1      79.852  65.497  72.260  1.00  0.00     0.010 C 
ENDROOT
BRANCH   1   2
ATOM      2  C   UNL     1      80.590  66.638  73.007  1.00  0.00     0.100 C 
BRANCH   2   3
ATOM      3  C   UNL     1      82.011  66.355  73.280  1.00  0.00     0.220 C 
ATOM      4  N   UNL     1      82.572  66.768  74.450  1.00  0.00    -0.352 N 
ATOM      5  H   UNL     1      81.964  67.324  75.036  1.00  0.00     0.163 HD
ATOM      6  O   UNL     1      82.661  65.698  72.432  1.00  0.00    -0.275 OA
BRANCH   4   7
ATOM      7  C   UNL     1      83.901  66.479  74.880  1.00  0.00     0.151 C 
BRANCH   7   8
ATOM      8  C   UNL     1      84.838  67.607  74.642  1.00  0.00    -0.025 A 
ATOM      9  C   UNL     1      86.239  69.438  75.499  1.00  0.00     0.160 A 
ATOM     10  C   UNL     1      86.584  69.792  74.176  1.00  0.00     0.157 A 
ATOM     11  C   UNL     1      85.364  68.356  75.721  1.00  0.00     0.056 A 
ATOM     12  C   UNL     1      86.081  69.044  73.096  1.00  0.00     0.050 A 
ATOM     13  C   UNL     1      85.223  67.953  73.327  1.00  0.00     0.009 A 
BRANCH   9  14
ATOM     14  O   UNL     1      86.792  70.104  76.560  1.00  0.00    -0.493 OA
ATOM     15  C   UNL     1      87.994  69.503  77.070  1.00  0.00     0.278 C 
ENDBRANCH   9  14
BRANCH  10  16
ATOM     16  O   UNL     1      87.400  70.844  73.918  1.00  0.00    -0.504 OA
ATOM     17  H   UNL     1      88.287  70.644  74.229  1.00  0.00     0.293 HD
ENDBRANCH  10  16
ENDBRANCH   7   8
ENDBRANCH   4   7
ENDBRANCH   2   3
ENDBRANCH   1   2
BRANCH   1  18
ATOM     18  C   UNL     1      79.453  65.934  70.827  1.00  0.00     0.001 C 
BRANCH  18  19
ATOM     19  C   UNL     1      80.044  65.032  69.714  1.00  0.00     0.004 C 
BRANCH  19  20
ATOM     20  C   UNL     1      79.092  63.851  69.375  1.00  0.00     0.027 C 
BRANCH  20  21
ATOM     21  C   UNL     1      78.062  64.190  68.408  1.00  0.00    -0.031 C 
ATOM     22  C   UNL     1      77.110  65.105  68.663  1.00  0.00    -0.028 C 
BRANCH  22  23
ATOM     23  C   UNL     1      76.065  65.473  67.711  1.00  0.00     0.005 C 
ATOM     24  C   UNL     1      76.476  65.058  66.274  1.00  0.00     0.012 C 
ATOM     25  C   UNL     1      74.707  64.851  68.138  1.00  0.00     0.012 C 
ENDBRANCH  22  23
ENDBRANCH  20  21
ENDBRANCH  19  20
ENDBRANCH  18  19
ENDBRANCH   1  18
TORSDOF 11
ENDMDL
MODEL 3
REMARK VINA RESULT:    -6.472     20.575     26.821
REMARK INTER + INTRA:         -11.150
REMARK INTER:                 -10.350
REMARK INTRA:                  -0.800
REMARK UNBOUND:                -0.704
REMARK SMILES COc1cc(CNC(=O)CCCCC/C=C/C(C)C)ccc1O
REMARK SMILES IDX 11 1 10 2 8 3 7 4 9 6 6 7 5 8 3 9 22 10 4 11 21 12 20 13
REMARK SMILES IDX 2 14 1 15 23 16 12 18 13 19 14 20 15 21 16 22 17 23 18 24
REMARK SMILES IDX 19 25
REMARK H PARENT 7 5 23 17
REMARK Flexibility Score: inf
ROOT
ATOM      1  C   UNL     1      92.835  85.328  88.006  1.00  0.00     0.010 C 
ENDROOT
BRANCH   1   2
ATOM      2  C   UNL     1      93.224  85.101  86.522  1.00  0.00     0.100 C 
BRANCH   2   3
ATOM      3  C   UNL     1      93.161  83.692  86.093  1.00  0.00     0.220 C 
ATOM      4  N   UNL     1      92.643  83.376  84.874  1.00  0.00    -0.352 N 
ATOM      5  H   UNL     1      92.260  84.160  84.363  1.00  0.00     0.163 HD
ATOM      6  O   UNL     1      93.629  82.815  86.858  1.00  0.00    -0.275 OA
BRANCH   4   7
ATOM      7  C   UNL     1      92.611  82.071  84.298  1.00  0.00     0.151 C 
BRANCH   7   8
ATOM      8  C   UNL     1      91.237  81.511  84.227  1.00  0.00    -0.025 A 
ATOM      9  C   UNL     1      88.798  81.821  84.296  1.00  0.00     0.160 A 
ATOM     10  C   UNL     1      88.618  80.429  84.143  1.00  0.00     0.157 A 
ATOM     11  C   UNL     1      90.104  82.350  84.346  1.00  0.00     0.056 A 
ATOM     12  C   UNL     1      89.737  79.588  84.006  1.00  0.00     0.050 A 
ATOM     13  C   UNL     1      91.037  80.126  84.037  1.00  0.00     0.009 A 
BRANCH   9  14
ATOM     14  O   UNL     1      87.715  82.658  84.342  1.00  0.00    -0.493 OA
ATOM     15  C   UNL     1      87.685  83.518  85.494  1.00  0.00     0.278 C 
ENDBRANCH   9  14
BRANCH  10  16
ATOM     16  O   UNL     1      87.379  79.877  84.119  1.00  0.00    -0.504 OA
ATOM     17  H   UNL     1      86.744  80.530  83.814  1.00  0.00     0.293 HD
ENDBRANCH  10  16
ENDBRANCH   7   8
ENDBRANCH   4   7
ENDBRANCH   2   3
ENDBRANCH   1   2
BRANCH   1  18
ATOM     18  C   UNL     1      93.849  86.263  88.713  1.00  0.00     0.001 C 
BRANCH  18  19
ATOM     19  C   UNL     1      93.355  86.796  90.082  1.00  0.00     0.004 C 
BRANCH  19  20
ATOM     20  C   UNL     1      92.690  88.193  89.940  1.00  0.00     0.027 C 
BRANCH  20  21
ATOM     21  C   UNL     1      93.430  89.109  89.090  1.00  0.00    -0.031 C 
ATOM     22  C   UNL     1      93.044  90.384  88.899  1.00  0.00    -0.028 C 
BRANCH  22  23
ATOM     23  C   UNL     1      93.769  91.331  88.055  1.00  0.00     0.005 C 
ATOM     24  C   UNL     1      94.596  92.308  88.931  1.00  0.00     0.012 C 
ATOM     25  C   UNL     1      94.650  90.569  87.028  1.00  0.00     0.012 C 
ENDBRANCH  22  23
ENDBRANCH  20  21
ENDBRANCH  19  20
ENDBRANCH  18  19
ENDBRANCH   1  18
TORSDOF 11
ENDMDL
MODEL 4
REMARK VINA RESULT:    -6.122     29.577     33.964
REMARK INTER + INTRA:         -10.584
REMARK INTER:                  -9.721
REMARK INTRA:                  -0.863
REMARK UNBOUND:                -0.704
REMARK SMILES COc1cc(CNC(=O)CCCCC/C=C/C(C)C)ccc1O
REMARK SMILES IDX 11 1 10 2 8 3 7 4 9 6 6 7 5 8 3 9 22 10 4 11 21 12 20 13
REMARK SMILES IDX 2 14 1 15 23 16 12 18 13 19 14 20 15 21 16 22 17 23 18 24
REMARK SMILES IDX 19 25
REMARK H PARENT 7 5 23 17
REMARK Flexibility Score: inf
ROOT
ATOM      1  C   UNL     1      95.090  97.402  74.199  1.00  0.00     0.010 C 
ENDROOT
BRANCH   1   2
ATOM      2  C   UNL     1      95.412  97.029  72.729  1.00  0.00     0.100 C 
BRANCH   2   3
ATOM      3  C   UNL     1      95.024  98.061  71.749  1.00  0.00     0.220 C 
ATOM      4  N   UNL     1      93.798  98.648  71.832  1.00  0.00    -0.352 N 
ATOM      5  H   UNL     1      93.195  98.265  72.547  1.00  0.00     0.163 HD
ATOM      6  O   UNL     1      95.861  98.401  70.879  1.00  0.00    -0.275 OA
BRANCH   4   7
ATOM      7  C   UNL     1      93.335  99.721  71.014  1.00  0.00     0.151 C 
BRANCH   7   8
ATOM      8  C   UNL     1      92.261 100.515  71.665  1.00  0.00    -0.025 A 
ATOM      9  C   UNL     1      89.940 101.326  71.721  1.00  0.00     0.160 A 
ATOM     10  C   UNL     1      90.230 102.074  72.882  1.00  0.00     0.157 A 
ATOM     11  C   UNL     1      90.958 100.560  71.116  1.00  0.00     0.056 A 
ATOM     12  C   UNL     1      91.518 102.023  73.446  1.00  0.00     0.050 A 
ATOM     13  C   UNL     1      92.524 101.240  72.848  1.00  0.00     0.009 A 
BRANCH   9  14
ATOM     14  O   UNL     1      88.667 101.299  71.214  1.00  0.00    -0.493 OA
ATOM     15  C   UNL     1      88.607 101.178  69.784  1.00  0.00     0.278 C 
ENDBRANCH   9  14
BRANCH  10  16
ATOM     16  O   UNL     1      89.287 102.846  73.478  1.00  0.00    -0.504 OA
ATOM     17  H   UNL     1      88.672 103.168  72.815  1.00  0.00     0.293 HD
ENDBRANCH  10  16
ENDBRANCH   7   8
ENDBRANCH   4   7
ENDBRANCH   2   3
ENDBRANCH   1   2
BRANCH   1  18
ATOM     18  C   UNL     1      94.057  96.422  74.811  1.00  0.00     0.001 C 
BRANCH  18  19
ATOM     19  C   UNL     1      94.320  96.091  76.302  1.00  0.00     0.004 C 
BRANCH  19  20
ATOM     20  C   UNL     1      93.182  96.633  77.212  1.00  0.00     0.027 C 
BRANCH  20  21
ATOM     21  C   UNL     1      91.859  96.166  76.835  1.00  0.00    -0.031 C 
ATOM     22  C   UNL     1      91.469  94.891  77.014  1.00  0.00    -0.028 C 
BRANCH  22  23
ATOM     23  C   UNL     1      90.145  94.392  76.651  1.00  0.00     0.005 C 
ATOM     24  C   UNL     1      90.035  94.228  75.112  1.00  0.00     0.012 C 
ATOM     25  C   UNL     1      89.845  93.069  77.407  1.00  0.00     0.012 C 
ENDBRANCH  22  23
ENDBRANCH  20  21
ENDBRANCH  19  20
ENDBRANCH  18  19
ENDBRANCH   1  18
TORSDOF 11
ENDMDL
MODEL 5
REMARK VINA RESULT:    -5.793      2.004      2.453
REMARK INTER + INTRA:         -10.054
REMARK INTER:                  -9.343
REMARK INTRA:                  -0.711
REMARK UNBOUND:                -0.704
REMARK SMILES COc1cc(CNC(=O)CCCCC/C=C/C(C)C)ccc1O
REMARK SMILES IDX 11 1 10 2 8 3 7 4 9 6 6 7 5 8 3 9 22 10 4 11 21 12 20 13
REMARK SMILES IDX 2 14 1 15 23 16 12 18 13 19 14 20 15 21 16 22 17 23 18 24
REMARK SMILES IDX 19 25
REMARK H PARENT 7 5 23 17
REMARK Flexibility Score: inf
ROOT
ATOM      1  C   UNL     1      80.515  65.593  72.618  1.00  0.00     0.010 C 
ENDROOT
BRANCH   1   2
ATOM      2  C   UNL     1      81.349  66.735  73.253  1.00  0.00     0.100 C 
BRANCH   2   3
ATOM      3  C   UNL     1      82.755  66.769  72.811  1.00  0.00     0.220 C 
ATOM      4  N   UNL     1      83.571  65.709  73.065  1.00  0.00    -0.352 N 
ATOM      5  H   UNL     1      83.152  64.978  73.623  1.00  0.00     0.163 HD
ATOM      6  O   UNL     1      83.154  67.770  72.170  1.00  0.00    -0.275 OA
BRANCH   4   7
ATOM      7  C   UNL     1      84.917  65.570  72.611  1.00  0.00     0.151 C 
BRANCH   7   8
ATOM      8  C   UNL     1      85.911  65.983  73.635  1.00  0.00    -0.025 A 
ATOM      9  C   UNL     1      87.206  67.739  74.770  1.00  0.00     0.160 A 
ATOM     10  C   UNL     1      87.848  66.757  75.555  1.00  0.00     0.157 A 
ATOM     11  C   UNL     1      86.251  67.345  73.811  1.00  0.00     0.056 A 
ATOM     12  C   UNL     1      87.506  65.401  75.400  1.00  0.00     0.050 A 
ATOM     13  C   UNL     1      86.537  65.018  74.455  1.00  0.00     0.009 A 
BRANCH   9  14
ATOM     14  O   UNL     1      87.468  69.069  74.973  1.00  0.00    -0.493 OA
ATOM     15  C   UNL     1      86.455  69.758  75.724  1.00  0.00     0.278 C 
ENDBRANCH   9  14
BRANCH  10  16
ATOM     16  O   UNL     1      88.794  67.093  76.468  1.00  0.00    -0.504 OA
ATOM     17  H   UNL     1      88.728  68.030  76.667  1.00  0.00     0.293 HD
ENDBRANCH  10  16
ENDBRANCH   7   8
ENDBRANCH   4   7
ENDBRANCH   2   3
ENDBRANCH   1   2
BRANCH   1  18
ATOM     18  C   UNL     1      80.512  65.695  71.072  1.00  0.00     0.001 C 
BRANCH  18  19
ATOM     19  C   UNL     1      79.116  65.481  70.435  1.00  0.00     0.004 C 
BRANCH  19  20
ATOM     20  C   UNL     1      79.073  64.179  69.587  1.00  0.00     0.027 C 
BRANCH  20  21
ATOM     21  C   UNL     1      77.845  64.017  68.827  1.00  0.00    -0.031 C 
ATOM     22  C   UNL     1      77.609  64.696  67.690  1.00  0.00    -0.028 C 
BRANCH  22  23
ATOM     23  C   UNL     1      76.389  64.551  66.900  1.00  0.00     0.005 C 
ATOM     24  C   UNL     1      75.339  63.716  67.680  1.00  0.00     0.012 C 
ATOM     25  C   UNL     1      75.846  65.948  66.491  1.00  0.00     0.012 C 
ENDBRANCH  22  23
ENDBRANCH  20  21
ENDBRANCH  19  20
ENDBRANCH  18  19
ENDBRANCH   1  18
TORSDOF 11
ENDMDL
MODEL 6
REMARK VINA RESULT:    -5.684     19.659     20.943
REMARK INTER + INTRA:          -9.878
REMARK INTER:                  -8.970
REMARK INTRA:                  -0.908
REMARK UNBOUND:                -0.704
REMARK SMILES COc1cc(CNC(=O)CCCCC/C=C/C(C)C)ccc1O
REMARK SMILES IDX 11 1 10 2 8 3 7 4 9 6 6 7 5 8 3 9 22 10 4 11 21 12 20 13
REMARK SMILES IDX 2 14 1 15 23 16 12 18 13 19 14 20 15 21 16 22 17 23 18 24
REMARK SMILES IDX 19 25
REMARK H PARENT 7 5 23 17
REMARK Flexibility Score: inf
ROOT
ATOM      1  C   UNL     1      70.654  84.395  68.708  1.00  0.00     0.010 C 
ENDROOT
BRANCH   1   2
ATOM      2  C   UNL     1      70.211  83.848  67.326  1.00  0.00     0.100 C 
BRANCH   2   3
ATOM      3  C   UNL     1      71.327  83.586  66.399  1.00  0.00     0.220 C 
ATOM      4  N   UNL     1      72.410  84.412  66.389  1.00  0.00    -0.352 N 
ATOM      5  H   UNL     1      72.330  85.217  66.995  1.00  0.00     0.163 HD
ATOM      6  O   UNL     1      71.265  82.572  65.663  1.00  0.00    -0.275 OA
BRANCH   4   7
ATOM      7  C   UNL     1      73.594  84.220  65.617  1.00  0.00     0.151 C 
BRANCH   7   8
ATOM      8  C   UNL     1      74.825  84.619  66.347  1.00  0.00    -0.025 A 
ATOM      9  C   UNL     1      75.919  85.517  68.358  1.00  0.00     0.160 A 
ATOM     10  C   UNL     1      77.172  85.431  67.714  1.00  0.00     0.157 A 
ATOM     11  C   UNL     1      74.755  85.120  67.668  1.00  0.00     0.056 A 
ATOM     12  C   UNL     1      77.255  84.918  66.407  1.00  0.00     0.050 A 
ATOM     13  C   UNL     1      76.091  84.506  65.732  1.00  0.00     0.009 A 
BRANCH   9  14
ATOM     14  O   UNL     1      75.837  85.932  69.661  1.00  0.00    -0.493 OA
ATOM     15  C   UNL     1      76.013  84.880  70.625  1.00  0.00     0.278 C 
ENDBRANCH   9  14
BRANCH  10  16
ATOM     16  O   UNL     1      78.312  85.829  68.333  1.00  0.00    -0.504 OA
ATOM     17  H   UNL     1      78.320  86.787  68.401  1.00  0.00     0.293 HD
ENDBRANCH  10  16
ENDBRANCH   7   8
ENDBRANCH   4   7
ENDBRANCH   2   3
ENDBRANCH   1   2
BRANCH   1  18
ATOM     18  C   UNL     1      69.672  83.955  69.824  1.00  0.00     0.001 C 
BRANCH  18  19
ATOM     19  C   UNL     1      68.694  85.072  70.269  1.00  0.00     0.004 C 
BRANCH  19  20
ATOM     20  C   UNL     1      67.309  84.920  69.581  1.00  0.00     0.027 C 
BRANCH  20  21
ATOM     21  C   UNL     1      66.789  83.563  69.608  1.00  0.00    -0.031 C 
ATOM     22  C   UNL     1      65.787  83.161  68.806  1.00  0.00    -0.028 C 
BRANCH  22  23
ATOM     23  C   UNL     1      65.247  81.804  68.804  1.00  0.00     0.005 C 
ATOM     24  C   UNL     1      64.111  81.676  69.854  1.00  0.00     0.012 C 
ATOM     25  C   UNL     1      64.776  81.415  67.376  1.00  0.00     0.012 C 
ENDBRANCH  22  23
ENDBRANCH  20  21
ENDBRANCH  19  20
ENDBRANCH  18  19
ENDBRANCH   1  18
TORSDOF 11
ENDMDL
MODEL 7
REMARK VINA RESULT:    -5.527      4.845     10.677
REMARK INTER + INTRA:          -9.624
REMARK INTER:                  -9.086
REMARK INTRA:                  -0.538
REMARK UNBOUND:                -0.704
REMARK SMILES COc1cc(CNC(=O)CCCCC/C=C/C(C)C)ccc1O
REMARK SMILES IDX 11 1 10 2 8 3 7 4 9 6 6 7 5 8 3 9 22 10 4 11 21 12 20 13
REMARK SMILES IDX 2 14 1 15 23 16 12 18 13 19 14 20 15 21 16 22 17 23 18 24
REMARK SMILES IDX 19 25
REMARK H PARENT 7 5 23 17
REMARK Flexibility Score: inf
ROOT
ATOM      1  C   UNL     1      87.565  69.961  71.430  1.00  0.00     0.010 C 
ENDROOT
BRANCH   1   2
ATOM      2  C   UNL     1      86.101  70.038  71.934  1.00  0.00     0.100 C 
BRANCH   2   3
ATOM      3  C   UNL     1      85.680  68.874  72.736  1.00  0.00     0.220 C 
ATOM      4  N   UNL     1      84.357  68.659  72.976  1.00  0.00    -0.352 N 
ATOM      5  H   UNL     1      83.743  69.384  72.632  1.00  0.00     0.163 HD
ATOM      6  O   UNL     1      86.562  68.083  73.146  1.00  0.00    -0.275 OA
BRANCH   4   7
ATOM      7  C   UNL     1      83.810  67.526  73.650  1.00  0.00     0.151 C 
BRANCH   7   8
ATOM      8  C   UNL     1      82.646  66.942  72.934  1.00  0.00    -0.025 A 
ATOM      9  C   UNL     1      81.693  65.829  70.959  1.00  0.00     0.160 A 
ATOM     10  C   UNL     1      80.412  65.876  71.552  1.00  0.00     0.157 A 
ATOM     11  C   UNL     1      82.797  66.369  71.650  1.00  0.00     0.056 A 
ATOM     12  C   UNL     1      80.253  66.428  72.836  1.00  0.00     0.050 A 
ATOM     13  C   UNL     1      81.364  66.948  73.527  1.00  0.00     0.009 A 
BRANCH   9  14
ATOM     14  O   UNL     1      81.873  65.215  69.748  1.00  0.00    -0.493 OA
ATOM     15  C   UNL     1      82.325  63.854  69.840  1.00  0.00     0.278 C 
ENDBRANCH   9  14
BRANCH  10  16
ATOM     16  O   UNL     1      79.319  65.393  70.909  1.00  0.00    -0.504 OA
ATOM     17  H   UNL     1      78.759  66.125  70.637  1.00  0.00     0.293 HD
ENDBRANCH  10  16
ENDBRANCH   7   8
ENDBRANCH   4   7
ENDBRANCH   2   3
ENDBRANCH   1   2
BRANCH   1  18
ATOM     18  C   UNL     1      87.753  70.783  70.130  1.00  0.00     0.001 C 
BRANCH  18  19
ATOM     19  C   UNL     1      89.132  71.483  70.030  1.00  0.00     0.004 C 
BRANCH  19  20
ATOM     20  C   UNL     1      89.341  72.126  68.630  1.00  0.00     0.027 C 
BRANCH  20  21
ATOM     21  C   UNL     1      90.443  73.072  68.580  1.00  0.00    -0.031 C 
ATOM     22  C   UNL     1      90.369  74.226  67.894  1.00  0.00    -0.028 C 
BRANCH  22  23
ATOM     23  C   UNL     1      91.455  75.200  67.829  1.00  0.00     0.005 C 
ATOM     24  C   UNL     1      92.570  74.831  68.843  1.00  0.00     0.012 C 
ATOM     25  C   UNL     1      91.993  75.308  66.376  1.00  0.00     0.012 C 
ENDBRANCH  22  23
ENDBRANCH  20  21
ENDBRANCH  19  20
ENDBRANCH  18  19
ENDBRANCH   1  18
TORSDOF 11
ENDMDL
MODEL 8
REMARK VINA RESULT:    -5.517     31.062     34.261
REMARK INTER + INTRA:          -9.608
REMARK INTER:                  -8.163
REMARK INTRA:                  -1.445
REMARK UNBOUND:                -0.704
REMARK SMILES COc1cc(CNC(=O)CCCCC/C=C/C(C)C)ccc1O
REMARK SMILES IDX 11 1 10 2 8 3 7 4 9 6 6 7 5 8 3 9 22 10 4 11 21 12 20 13
REMARK SMILES IDX 2 14 1 15 23 16 12 18 13 19 14 20 15 21 16 22 17 23 18 24
REMARK SMILES IDX 19 25
REMARK H PARENT 7 5 23 17
REMARK Flexibility Score: inf
ROOT
ATOM      1  C   UNL     1      97.694  98.220  73.384  1.00  0.00     0.010 C 
ENDROOT
BRANCH   1   2
ATOM      2  C   UNL     1      97.703  99.690  73.878  1.00  0.00     0.100 C 
BRANCH   2   3
ATOM      3  C   UNL     1      97.166  99.868  75.240  1.00  0.00     0.220 C 
ATOM      4  N   UNL     1      96.456  98.865  75.825  1.00  0.00    -0.352 N 
ATOM      5  H   UNL     1      96.283  98.067  75.229  1.00  0.00     0.163 HD
ATOM      6  O   UNL     1      97.416 100.939  75.843  1.00  0.00    -0.275 OA
BRANCH   4   7
ATOM      7  C   UNL     1      95.965  98.868  77.165  1.00  0.00     0.151 C 
BRANCH   7   8
ATOM      8  C   UNL     1      95.147  97.667  77.477  1.00  0.00    -0.025 A 
ATOM      9  C   UNL     1      93.145  96.289  77.099  1.00  0.00     0.160 A 
ATOM     10  C   UNL     1      93.564  95.404  78.117  1.00  0.00     0.157 A 
ATOM     11  C   UNL     1      93.934  97.417  76.794  1.00  0.00     0.056 A 
ATOM     12  C   UNL     1      94.777  95.634  78.791  1.00  0.00     0.050 A 
ATOM     13  C   UNL     1      95.568  96.751  78.467  1.00  0.00     0.009 A 
BRANCH   9  14
ATOM     14  O   UNL     1      92.012  96.027  76.377  1.00  0.00    -0.493 OA
ATOM     15  C   UNL     1      92.237  95.246  75.192  1.00  0.00     0.278 C 
ENDBRANCH   9  14
BRANCH  10  16
ATOM     16  O   UNL     1      92.820  94.323  78.460  1.00  0.00    -0.504 OA
ATOM     17  H   UNL     1      92.047  94.273  77.892  1.00  0.00     0.293 HD
ENDBRANCH  10  16
ENDBRANCH   7   8
ENDBRANCH   4   7
ENDBRANCH   2   3
ENDBRANCH   1   2
BRANCH   1  18
ATOM     18  C   UNL     1      96.714  98.035  72.197  1.00  0.00     0.001 C 
BRANCH  18  19
ATOM     19  C   UNL     1      95.686  96.895  72.411  1.00  0.00     0.004 C 
BRANCH  19  20
ATOM     20  C   UNL     1      94.458  97.385  73.228  1.00  0.00     0.027 C 
BRANCH  20  21
ATOM     21  C   UNL     1      94.010  98.719  72.866  1.00  0.00    -0.031 C 
ATOM     22  C   UNL     1      93.086  98.933  71.913  1.00  0.00    -0.028 C 
BRANCH  22  23
ATOM     23  C   UNL     1      92.610 100.260  71.530  1.00  0.00     0.005 C 
ATOM     24  C   UNL     1      91.175 100.169  70.946  1.00  0.00     0.012 C 
ATOM     25  C   UNL     1      92.695 101.230  72.739  1.00  0.00     0.012 C 
ENDBRANCH  22  23
ENDBRANCH  20  21
ENDBRANCH  19  20
ENDBRANCH  18  19
ENDBRANCH   1  18
TORSDOF 11
ENDMDL
MODEL 9
REMARK VINA RESULT:    -5.453     19.268     20.984
REMARK INTER + INTRA:          -9.504
REMARK INTER:                  -8.317
REMARK INTRA:                  -1.187
REMARK UNBOUND:                -0.704
REMARK SMILES COc1cc(CNC(=O)CCCCC/C=C/C(C)C)ccc1O
REMARK SMILES IDX 11 1 10 2 8 3 7 4 9 6 6 7 5 8 3 9 22 10 4 11 21 12 20 13
REMARK SMILES IDX 2 14 1 15 23 16 12 18 13 19 14 20 15 21 16 22 17 23 18 24
REMARK SMILES IDX 19 25
REMARK H PARENT 7 5 23 17
REMARK Flexibility Score: inf
ROOT
ATOM      1  C   UNL     1      70.920  84.768  65.754  1.00  0.00     0.010 C 
ENDROOT
BRANCH   1   2
ATOM      2  C   UNL     1      71.018  83.427  64.982  1.00  0.00     0.100 C 
BRANCH   2   3
ATOM      3  C   UNL     1      72.399  82.959  64.765  1.00  0.00     0.220 C 
ATOM      4  N   UNL     1      73.316  83.792  64.199  1.00  0.00    -0.352 N 
ATOM      5  H   UNL     1      72.945  84.681  63.892  1.00  0.00     0.163 HD
ATOM      6  O   UNL     1      72.705  81.806  65.150  1.00  0.00    -0.275 OA
BRANCH   4   7
ATOM      7  C   UNL     1      74.702  83.503  64.021  1.00  0.00     0.151 C 
BRANCH   7   8
ATOM      8  C   UNL     1      75.551  84.096  65.086  1.00  0.00    -0.025 A 
ATOM      9  C   UNL     1      75.970  85.858  66.751  1.00  0.00     0.160 A 
ATOM     10  C   UNL     1      77.203  85.253  67.079  1.00  0.00     0.157 A 
ATOM     11  C   UNL     1      75.159  85.281  65.752  1.00  0.00     0.056 A 
ATOM     12  C   UNL     1      77.595  84.065  66.436  1.00  0.00     0.050 A 
ATOM     13  C   UNL     1      76.770  83.485  65.454  1.00  0.00     0.009 A 
BRANCH   9  14
ATOM     14  O   UNL     1      75.538  86.965  67.432  1.00  0.00    -0.493 OA
ATOM     15  C   UNL     1      74.121  87.188  67.353  1.00  0.00     0.278 C 
ENDBRANCH   9  14
BRANCH  10  16
ATOM     16  O   UNL     1      78.025  85.792  68.014  1.00  0.00    -0.504 OA
ATOM     17  H   UNL     1      78.630  85.117  68.334  1.00  0.00     0.293 HD
ENDBRANCH  10  16
ENDBRANCH   7   8
ENDBRANCH   4   7
ENDBRANCH   2   3
ENDBRANCH   1   2
BRANCH   1  18
ATOM     18  C   UNL     1      71.343  84.594  67.235  1.00  0.00     0.001 C 
BRANCH  18  19
ATOM     19  C   UNL     1      70.412  83.655  68.043  1.00  0.00     0.004 C 
BRANCH  19  20
ATOM     20  C   UNL     1      69.982  84.305  69.388  1.00  0.00     0.027 C 
BRANCH  20  21
ATOM     21  C   UNL     1      68.548  84.270  69.621  1.00  0.00    -0.031 C 
ATOM     22  C   UNL     1      67.705  83.598  68.817  1.00  0.00    -0.028 C 
BRANCH  22  23
ATOM     23  C   UNL     1      66.261  83.539  69.027  1.00  0.00     0.005 C 
ATOM     24  C   UNL     1      65.791  82.063  69.122  1.00  0.00     0.012 C 
ATOM     25  C   UNL     1      65.866  84.364  70.282  1.00  0.00     0.012 C 
ENDBRANCH  22  23
ENDBRANCH  20  21
ENDBRANCH  19  20
ENDBRANCH  18  19
ENDBRANCH   1  18
TORSDOF 11
ENDMDL
MODEL 10
REMARK VINA RESULT:    -5.428     22.900     25.917
REMARK INTER + INTRA:          -9.464
REMARK INTER:                  -8.114
REMARK INTRA:                  -1.350
REMARK UNBOUND:                -0.704
REMARK SMILES COc1cc(CNC(=O)CCCCC/C=C/C(C)C)ccc1O
REMARK SMILES IDX 11 1 10 2 8 3 7 4 9 6 6 7 5 8 3 9 22 10 4 11 21 12 20 13
REMARK SMILES IDX 2 14 1 15 23 16 12 18 13 19 14 20 15 21 16 22 17 23 18 24
REMARK SMILES IDX 19 25
REMARK H PARENT 7 5 23 17
REMARK Flexibility Score: inf
ROOT
ATOM      1  C   UNL     1     102.114  83.986  72.422  1.00  0.00     0.010 C 
ENDROOT
BRANCH   1   2
ATOM      2  C   UNL     1     101.633  85.286  73.118  1.00  0.00     0.100 C 
BRANCH   2   3
ATOM      3  C   UNL     1     100.168  85.386  73.256  1.00  0.00     0.220 C 
ATOM      4  N   UNL     1      99.407  84.257  73.234  1.00  0.00    -0.352 N 
ATOM      5  H   UNL     1      99.919  83.407  73.045  1.00  0.00     0.163 HD
ATOM      6  O   UNL     1      99.663  86.519  73.432  1.00  0.00    -0.275 OA
BRANCH   4   7
ATOM      7  C   UNL     1      97.998  84.203  73.453  1.00  0.00     0.151 C 
BRANCH   7   8
ATOM      8  C   UNL     1      97.648  84.038  74.887  1.00  0.00    -0.025 A 
ATOM      9  C   UNL     1      97.915  82.860  77.030  1.00  0.00     0.160 A 
ATOM     10  C   UNL     1      96.935  83.694  77.610  1.00  0.00     0.157 A 
ATOM     11  C   UNL     1      98.257  83.031  75.673  1.00  0.00     0.056 A 
ATOM     12  C   UNL     1      96.335  84.710  76.843  1.00  0.00     0.050 A 
ATOM     13  C   UNL     1      96.696  84.887  75.494  1.00  0.00     0.009 A 
BRANCH   9  14
ATOM     14  O   UNL     1      98.568  81.926  77.790  1.00  0.00    -0.493 OA
ATOM     15  C   UNL     1      98.026  80.599  77.686  1.00  0.00     0.278 C 
ENDBRANCH   9  14
BRANCH  10  16
ATOM     16  O   UNL     1      96.556  83.543  78.904  1.00  0.00    -0.504 OA
ATOM     17  H   UNL     1      96.895  82.710  79.241  1.00  0.00     0.293 HD
ENDBRANCH  10  16
ENDBRANCH   7   8
ENDBRANCH   4   7
ENDBRANCH   2   3
ENDBRANCH   1   2
BRANCH   1  18
ATOM     18  C   UNL     1     103.134  83.223  73.306  1.00  0.00     0.001 C 
BRANCH  18  19
ATOM     19  C   UNL     1     103.024  83.558  74.815  1.00  0.00     0.004 C 
BRANCH  19  20
ATOM     20  C   UNL     1     102.139  82.522  75.563  1.00  0.00     0.027 C 
BRANCH  20  21
ATOM     21  C   UNL     1     102.696  82.086  76.832  1.00  0.00    -0.031 C 
ATOM     22  C   UNL     1     101.983  81.375  77.723  1.00  0.00    -0.028 C 
BRANCH  22  23
ATOM     23  C   UNL     1     102.515  80.917  79.005  1.00  0.00     0.005 C 
ATOM     24  C   UNL     1     101.357  80.654  80.005  1.00  0.00     0.012 C 
ATOM     25  C   UNL     1     103.411  79.666  78.798  1.00  0.00     0.012 C 
ENDBRANCH  22  23
ENDBRANCH  20  21
ENDBRANCH  19  20
ENDBRANCH  18  19
ENDBRANCH   1  18
TORSDOF 11
ENDMDL
