MODEL 1
REMARK VINA RESULT:    -5.669      0.000      0.000
REMARK INTER + INTRA:         -11.220
REMARK INTER:                  -9.314
REMARK INTRA:                  -1.906
REMARK UNBOUND:                -1.906
REMARK SMILES CCCCC[C@H](O)CC(=O)CCc1ccc(O)c(OC)c1
REMARK SMILES IDX 8 1 6 2 7 3 5 5 4 6 3 7 2 8 1 9 9 10 10 11 11 12 12 13 13 14
REMARK SMILES IDX 21 15 14 16 18 17 15 18 16 19 19 20 20 21 17 22
REMARK H PARENT 7 4 17 23
REMARK Flexibility Score: inf
ROOT
ATOM      1  C   UNL     1      96.085  97.880  75.464  1.00  0.00     0.107 C 
ENDROOT
BRANCH   1   2
ATOM      2  C   UNL     1      96.163  98.365  76.914  1.00  0.00     0.121 C 
BRANCH   2   3
ATOM      3  O   UNL     1      96.298  99.784  76.943  1.00  0.00    -0.393 OA
ATOM      4  H   UNL     1      96.973 100.032  76.287  1.00  0.00     0.210 HD
ENDBRANCH   2   3
BRANCH   2   5
ATOM      5  C   UNL     1      94.943  97.956  77.749  1.00  0.00     0.032 C 
BRANCH   5   6
ATOM      6  C   UNL     1      95.259  96.797  78.702  1.00  0.00     0.003 C 
BRANCH   6   7
ATOM      7  C   UNL     1      95.882  95.587  77.998  1.00  0.00    -0.000 C 
BRANCH   7   8
ATOM      8  C   UNL     1      95.347  94.246  78.498  1.00  0.00    -0.003 C 
ATOM      9  C   UNL     1      94.172  94.436  79.444  1.00  0.00     0.004 C 
ENDBRANCH   7   8
ENDBRANCH   6   7
ENDBRANCH   5   6
ENDBRANCH   2   5
ENDBRANCH   1   2
BRANCH   1  10
ATOM     10  C   UNL     1      94.818  98.329  74.753  1.00  0.00     0.135 C 
ATOM     11  O   UNL     1      94.499  99.518  74.720  1.00  0.00    -0.300 OA
BRANCH  10  12
ATOM     12  C   UNL     1      94.007  97.248  74.057  1.00  0.00     0.080 C 
BRANCH  12  13
ATOM     13  C   UNL     1      94.044  95.896  74.772  1.00  0.00     0.043 C 
BRANCH  13  14
ATOM     14  C   UNL     1      92.704  95.489  75.339  1.00  0.00    -0.044 A 
ATOM     15  C   UNL     1      91.868  94.640  74.615  1.00  0.00     0.054 A 
ATOM     16  C   UNL     1      92.304  95.964  76.589  1.00  0.00     0.008 A 
ATOM     17  C   UNL     1      90.632  94.265  75.141  1.00  0.00     0.160 A 
ATOM     18  C   UNL     1      91.068  95.589  77.115  1.00  0.00     0.050 A 
ATOM     19  C   UNL     1      90.231  94.739  76.390  1.00  0.00     0.157 A 
BRANCH  17  20
ATOM     20  O   UNL     1      89.823  93.435  74.424  1.00  0.00    -0.493 OA
ATOM     21  C   UNL     1      90.302  92.114  74.180  1.00  0.00     0.278 C 
ENDBRANCH  17  20
BRANCH  19  22
ATOM     22  O   UNL     1      89.027  94.380  76.914  1.00  0.00    -0.504 OA
ATOM     23  H   UNL     1      89.042  94.527  77.875  1.00  0.00     0.293 HD
ENDBRANCH  19  22
ENDBRANCH  13  14
ENDBRANCH  12  13
ENDBRANCH  10  12
ENDBRANCH   1  10
TORSDOF 12
ENDMDL
MODEL 2
REMARK VINA RESULT:    -5.636     14.216     16.209
REMARK INTER + INTRA:         -11.166
REMARK INTER:                 -10.596
REMARK INTRA:                  -0.570
REMARK UNBOUND:                -1.906
REMARK SMILES CCCCC[C@H](O)CC(=O)CCc1ccc(O)c(OC)c1
REMARK SMILES IDX 8 1 6 2 7 3 5 5 4 6 3 7 2 8 1 9 9 10 10 11 11 12 12 13 13 14
REMARK SMILES IDX 21 15 14 16 18 17 15 18 16 19 19 20 20 21 17 22
REMARK H PARENT 7 4 17 23
REMARK Flexibility Score: inf
ROOT
ATOM      1  C   UNL     1      94.756  82.308  84.477  1.00  0.00     0.107 C 
ENDROOT
BRANCH   1   2
ATOM      2  C   UNL     1      95.414  83.619  84.040  1.00  0.00     0.121 C 
BRANCH   2   3
ATOM      3  O   UNL     1      96.331  84.057  85.040  1.00  0.00    -0.393 OA
ATOM      4  H   UNL     1      96.737  83.267  85.438  1.00  0.00     0.210 HD
ENDBRANCH   2   3
BRANCH   2   5
ATOM      5  C   UNL     1      96.148  83.503  82.699  1.00  0.00     0.032 C 
BRANCH   5   6
ATOM      6  C   UNL     1      97.214  82.401  82.718  1.00  0.00     0.003 C 
BRANCH   6   7
ATOM      7  C   UNL     1      98.020  82.314  81.418  1.00  0.00    -0.000 C 
BRANCH   7   8
ATOM      8  C   UNL     1      97.152  82.246  80.163  1.00  0.00    -0.003 C 
ATOM      9  C   UNL     1      97.462  83.392  79.212  1.00  0.00     0.004 C 
ENDBRANCH   7   8
ENDBRANCH   6   7
ENDBRANCH   5   6
ENDBRANCH   2   5
ENDBRANCH   1   2
BRANCH   1  10
ATOM     10  C   UNL     1      93.378  82.508  85.087  1.00  0.00     0.135 C 
ATOM     11  O   UNL     1      93.243  83.063  86.177  1.00  0.00    -0.300 OA
BRANCH  10  12
ATOM     12  C   UNL     1      92.192  82.031  84.263  1.00  0.00     0.080 C 
BRANCH  12  13
ATOM     13  C   UNL     1      91.218  81.145  85.042  1.00  0.00     0.043 C 
BRANCH  13  14
ATOM     14  C   UNL     1      89.790  81.274  84.566  1.00  0.00    -0.044 A 
ATOM     15  C   UNL     1      89.115  82.487  84.704  1.00  0.00     0.054 A 
ATOM     16  C   UNL     1      89.147  80.179  83.989  1.00  0.00     0.008 A 
ATOM     17  C   UNL     1      87.797  82.605  84.263  1.00  0.00     0.160 A 
ATOM     18  C   UNL     1      87.828  80.297  83.548  1.00  0.00     0.050 A 
ATOM     19  C   UNL     1      87.154  81.510  83.686  1.00  0.00     0.157 A 
BRANCH  17  20
ATOM     20  O   UNL     1      87.148  83.794  84.403  1.00  0.00    -0.493 OA
ATOM     21  C   UNL     1      86.683  84.129  85.710  1.00  0.00     0.278 C 
ENDBRANCH  17  20
BRANCH  19  22
ATOM     22  O   UNL     1      85.867  81.613  83.252  1.00  0.00    -0.504 OA
ATOM     23  H   UNL     1      85.863  81.998  82.358  1.00  0.00     0.293 HD
ENDBRANCH  19  22
ENDBRANCH  13  14
ENDBRANCH  12  13
ENDBRANCH  10  12
ENDBRANCH   1  10
TORSDOF 12
ENDMDL
MODEL 3
REMARK VINA RESULT:    -5.567     15.995     17.246
REMARK INTER + INTRA:         -11.053
REMARK INTER:                  -9.782
REMARK INTRA:                  -1.271
REMARK UNBOUND:                -1.906
REMARK SMILES CCCCC[C@H](O)CC(=O)CCc1ccc(O)c(OC)c1
REMARK SMILES IDX 8 1 6 2 7 3 5 5 4 6 3 7 2 8 1 9 9 10 10 11 11 12 12 13 13 14
REMARK SMILES IDX 21 15 14 16 18 17 15 18 16 19 19 20 20 21 17 22
REMARK H PARENT 7 4 17 23
REMARK Flexibility Score: inf
ROOT
ATOM      1  C   UNL     1      94.474  82.538  85.230  1.00  0.00     0.107 C 
ENDROOT
BRANCH   1   2
ATOM      2  C   UNL     1      94.744  81.771  83.933  1.00  0.00     0.121 C 
BRANCH   2   3
ATOM      3  O   UNL     1      95.734  82.453  83.166  1.00  0.00    -0.393 OA
ATOM      4  H   UNL     1      96.041  83.215  83.687  1.00  0.00     0.210 HD
ENDBRANCH   2   3
BRANCH   2   5
ATOM      5  C   UNL     1      95.199  80.327  84.174  1.00  0.00     0.032 C 
BRANCH   5   6
ATOM      6  C   UNL     1      94.721  79.791  85.529  1.00  0.00     0.003 C 
BRANCH   6   7
ATOM      7  C   UNL     1      93.369  79.074  85.456  1.00  0.00    -0.000 C 
BRANCH   7   8
ATOM      8  C   UNL     1      93.304  77.998  84.374  1.00  0.00    -0.003 C 
ATOM      9  C   UNL     1      91.871  77.739  83.935  1.00  0.00     0.004 C 
ENDBRANCH   7   8
ENDBRANCH   6   7
ENDBRANCH   5   6
ENDBRANCH   2   5
ENDBRANCH   1   2
BRANCH   1  10
ATOM     10  C   UNL     1      93.054  83.075  85.320  1.00  0.00     0.135 C 
ATOM     11  O   UNL     1      92.789  84.049  86.024  1.00  0.00    -0.300 OA
BRANCH  10  12
ATOM     12  C   UNL     1      92.006  82.377  84.466  1.00  0.00     0.080 C 
BRANCH  12  13
ATOM     13  C   UNL     1      91.028  81.520  85.272  1.00  0.00     0.043 C 
BRANCH  13  14
ATOM     14  C   UNL     1      89.631  81.519  84.699  1.00  0.00    -0.044 A 
ATOM     15  C   UNL     1      88.814  82.640  84.849  1.00  0.00     0.054 A 
ATOM     16  C   UNL     1      89.157  80.397  84.019  1.00  0.00     0.008 A 
ATOM     17  C   UNL     1      87.524  82.638  84.318  1.00  0.00     0.160 A 
ATOM     18  C   UNL     1      87.867  80.395  83.488  1.00  0.00     0.050 A 
ATOM     19  C   UNL     1      87.051  81.516  83.638  1.00  0.00     0.157 A 
BRANCH  17  20
ATOM     20  O   UNL     1      86.736  83.739  84.471  1.00  0.00    -0.493 OA
ATOM     21  C   UNL     1      86.379  84.100  85.804  1.00  0.00     0.278 C 
ENDBRANCH  17  20
BRANCH  19  22
ATOM     22  O   UNL     1      85.793  81.502  83.116  1.00  0.00    -0.504 OA
ATOM     23  H   UNL     1      85.726  80.780  82.468  1.00  0.00     0.293 HD
ENDBRANCH  19  22
ENDBRANCH  13  14
ENDBRANCH  12  13
ENDBRANCH  10  12
ENDBRANCH   1  10
TORSDOF 12
ENDMDL
MODEL 4
REMARK VINA RESULT:    -5.326     28.573     33.741
REMARK INTER + INTRA:         -10.657
REMARK INTER:                  -9.827
REMARK INTRA:                  -0.830
REMARK UNBOUND:                -1.906
REMARK SMILES CCCCC[C@H](O)CC(=O)CCc1ccc(O)c(OC)c1
REMARK SMILES IDX 8 1 6 2 7 3 5 5 4 6 3 7 2 8 1 9 9 10 10 11 11 12 12 13 13 14
REMARK SMILES IDX 21 15 14 16 18 17 15 18 16 19 19 20 20 21 17 22
REMARK H PARENT 7 4 17 23
REMARK Flexibility Score: inf
ROOT
ATOM      1  C   UNL     1      79.281  65.411  70.389  1.00  0.00     0.107 C 
ENDROOT
BRANCH   1   2
ATOM      2  C   UNL     1      79.533  64.357  69.308  1.00  0.00     0.121 C 
BRANCH   2   3
ATOM      3  O   UNL     1      80.539  63.447  69.745  1.00  0.00    -0.393 OA
ATOM      4  H   UNL     1      81.406  63.850  69.559  1.00  0.00     0.210 HD
ENDBRANCH   2   3
BRANCH   2   5
ATOM      5  C   UNL     1      78.271  63.572  68.930  1.00  0.00     0.032 C 
BRANCH   5   6
ATOM      6  C   UNL     1      77.118  64.495  68.519  1.00  0.00     0.003 C 
BRANCH   6   7
ATOM      7  C   UNL     1      77.185  64.933  67.052  1.00  0.00    -0.000 C 
BRANCH   7   8
ATOM      8  C   UNL     1      76.103  65.939  66.664  1.00  0.00    -0.003 C 
ATOM      9  C   UNL     1      74.812  65.239  66.267  1.00  0.00     0.004 C 
ENDBRANCH   7   8
ENDBRANCH   6   7
ENDBRANCH   5   6
ENDBRANCH   2   5
ENDBRANCH   1   2
BRANCH   1  10
ATOM     10  C   UNL     1      80.523  65.739  71.202  1.00  0.00     0.135 C 
ATOM     11  O   UNL     1      81.587  66.014  70.649  1.00  0.00    -0.300 OA
BRANCH  10  12
ATOM     12  C   UNL     1      80.364  65.751  72.715  1.00  0.00     0.080 C 
BRANCH  12  13
ATOM     13  C   UNL     1      81.124  66.886  73.404  1.00  0.00     0.043 C 
BRANCH  13  14
ATOM     14  C   UNL     1      82.517  66.489  73.834  1.00  0.00    -0.044 A 
ATOM     15  C   UNL     1      83.541  67.435  73.839  1.00  0.00     0.054 A 
ATOM     16  C   UNL     1      82.777  65.176  74.226  1.00  0.00     0.008 A 
ATOM     17  C   UNL     1      84.827  67.068  74.237  1.00  0.00     0.160 A 
ATOM     18  C   UNL     1      84.063  64.808  74.624  1.00  0.00     0.050 A 
ATOM     19  C   UNL     1      85.088  65.755  74.629  1.00  0.00     0.157 A 
BRANCH  17  20
ATOM     20  O   UNL     1      85.820  68.001  74.238  1.00  0.00    -0.493 OA
ATOM     21  C   UNL     1      85.884  68.879  75.360  1.00  0.00     0.278 C 
ENDBRANCH  17  20
BRANCH  19  22
ATOM     22  O   UNL     1      86.339  65.384  75.020  1.00  0.00    -0.504 OA
ATOM     23  H   UNL     1      86.441  65.565  75.970  1.00  0.00     0.293 HD
ENDBRANCH  19  22
ENDBRANCH  13  14
ENDBRANCH  12  13
ENDBRANCH  10  12
ENDBRANCH   1  10
TORSDOF 12
ENDMDL
MODEL 5
REMARK VINA RESULT:    -5.236     12.579     14.931
REMARK INTER + INTRA:         -10.509
REMARK INTER:                  -9.618
REMARK INTRA:                  -0.891
REMARK UNBOUND:                -1.906
REMARK SMILES CCCCC[C@H](O)CC(=O)CCc1ccc(O)c(OC)c1
REMARK SMILES IDX 8 1 6 2 7 3 5 5 4 6 3 7 2 8 1 9 9 10 10 11 11 12 12 13 13 14
REMARK SMILES IDX 21 15 14 16 18 17 15 18 16 19 19 20 20 21 17 22
REMARK H PARENT 7 4 17 23
REMARK Flexibility Score: inf
ROOT
ATOM      1  C   UNL     1      97.838  83.403  76.788  1.00  0.00     0.107 C 
ENDROOT
BRANCH   1   2
ATOM      2  C   UNL     1      97.089  84.043  75.617  1.00  0.00     0.121 C 
BRANCH   2   3
ATOM      3  O   UNL     1      97.055  85.459  75.780  1.00  0.00    -0.393 OA
ATOM      4  H   UNL     1      96.131  85.718  75.943  1.00  0.00     0.210 HD
ENDBRANCH   2   3
BRANCH   2   5
ATOM      5  C   UNL     1      97.706  83.707  74.254  1.00  0.00     0.032 C 
BRANCH   5   6
ATOM      6  C   UNL     1      98.564  84.856  73.710  1.00  0.00     0.003 C 
BRANCH   6   7
ATOM      7  C   UNL     1     100.047  84.494  73.576  1.00  0.00    -0.000 C 
BRANCH   7   8
ATOM      8  C   UNL     1     100.834  84.649  74.875  1.00  0.00    -0.003 C 
ATOM      9  C   UNL     1     101.703  85.897  74.852  1.00  0.00     0.004 C 
ENDBRANCH   7   8
ENDBRANCH   6   7
ENDBRANCH   5   6
ENDBRANCH   2   5
ENDBRANCH   1   2
BRANCH   1  10
ATOM     10  C   UNL     1      97.111  83.554  78.114  1.00  0.00     0.135 C 
ATOM     11  O   UNL     1      95.948  83.956  78.156  1.00  0.00    -0.300 OA
BRANCH  10  12
ATOM     12  C   UNL     1      97.876  83.142  79.362  1.00  0.00     0.080 C 
BRANCH  12  13
ATOM     13  C   UNL     1      97.556  81.724  79.840  1.00  0.00     0.043 C 
BRANCH  13  14
ATOM     14  C   UNL     1      97.108  81.672  81.281  1.00  0.00    -0.044 A 
ATOM     15  C   UNL     1      97.064  82.841  82.041  1.00  0.00     0.054 A 
ATOM     16  C   UNL     1      96.737  80.454  81.852  1.00  0.00     0.008 A 
ATOM     17  C   UNL     1      96.649  82.792  83.372  1.00  0.00     0.160 A 
ATOM     18  C   UNL     1      96.322  80.405  83.183  1.00  0.00     0.050 A 
ATOM     19  C   UNL     1      96.278  81.574  83.943  1.00  0.00     0.157 A 
BRANCH  17  20
ATOM     20  O   UNL     1      96.610  83.940  84.104  1.00  0.00    -0.493 OA
ATOM     21  C   UNL     1      95.929  85.053  83.529  1.00  0.00     0.278 C 
ENDBRANCH  17  20
BRANCH  19  22
ATOM     22  O   UNL     1      95.872  81.513  85.241  1.00  0.00    -0.504 OA
ATOM     23  H   UNL     1      95.431  80.660  85.396  1.00  0.00     0.293 HD
ENDBRANCH  19  22
ENDBRANCH  13  14
ENDBRANCH  12  13
ENDBRANCH  10  12
ENDBRANCH   1  10
TORSDOF 12
ENDMDL
MODEL 6
REMARK VINA RESULT:    -4.982     12.519     15.061
REMARK INTER + INTRA:         -10.092
REMARK INTER:                  -9.324
REMARK INTRA:                  -0.767
REMARK UNBOUND:                -1.906
REMARK SMILES CCCCC[C@H](O)CC(=O)CCc1ccc(O)c(OC)c1
REMARK SMILES IDX 8 1 6 2 7 3 5 5 4 6 3 7 2 8 1 9 9 10 10 11 11 12 12 13 13 14
REMARK SMILES IDX 21 15 14 16 18 17 15 18 16 19 19 20 20 21 17 22
REMARK H PARENT 7 4 17 23
REMARK Flexibility Score: inf
ROOT
ATOM      1  C   UNL     1      97.944  83.441  77.143  1.00  0.00     0.107 C 
ENDROOT
BRANCH   1   2
ATOM      2  C   UNL     1      97.119  83.880  75.930  1.00  0.00     0.121 C 
BRANCH   2   3
ATOM      3  O   UNL     1      96.968  85.297  75.935  1.00  0.00    -0.393 OA
ATOM      4  H   UNL     1      96.029  85.496  76.096  1.00  0.00     0.210 HD
ENDBRANCH   2   3
BRANCH   2   5
ATOM      5  C   UNL     1      97.735  83.442  74.595  1.00  0.00     0.032 C 
BRANCH   5   6
ATOM      6  C   UNL     1      99.164  83.970  74.419  1.00  0.00     0.003 C 
BRANCH   6   7
ATOM      7  C   UNL     1      99.806  83.553  73.092  1.00  0.00    -0.000 C 
BRANCH   7   8
ATOM      8  C   UNL     1     100.025  84.716  72.126  1.00  0.00    -0.003 C 
ATOM      9  C   UNL     1      99.733  86.052  72.791  1.00  0.00     0.004 C 
ENDBRANCH   7   8
ENDBRANCH   6   7
ENDBRANCH   5   6
ENDBRANCH   2   5
ENDBRANCH   1   2
BRANCH   1  10
ATOM     10  C   UNL     1      97.174  83.527  78.450  1.00  0.00     0.135 C 
ATOM     11  O   UNL     1      95.987  83.856  78.465  1.00  0.00    -0.300 OA
BRANCH  10  12
ATOM     12  C   UNL     1      97.929  83.144  79.713  1.00  0.00     0.080 C 
BRANCH  12  13
ATOM     13  C   UNL     1      97.163  82.178  80.619  1.00  0.00     0.043 C 
BRANCH  13  14
ATOM     14  C   UNL     1      96.944  82.719  82.011  1.00  0.00    -0.044 A 
ATOM     15  C   UNL     1      97.459  82.039  83.114  1.00  0.00     0.054 A 
ATOM     16  C   UNL     1      96.225  83.901  82.194  1.00  0.00     0.008 A 
ATOM     17  C   UNL     1      97.257  82.541  84.400  1.00  0.00     0.160 A 
ATOM     18  C   UNL     1      96.023  84.403  83.480  1.00  0.00     0.050 A 
ATOM     19  C   UNL     1      96.539  83.722  84.583  1.00  0.00     0.157 A 
BRANCH  17  20
ATOM     20  O   UNL     1      97.765  81.867  85.470  1.00  0.00    -0.493 OA
ATOM     21  C   UNL     1      99.120  81.430  85.377  1.00  0.00     0.278 C 
ENDBRANCH  17  20
BRANCH  19  22
ATOM     22  O   UNL     1      96.335  84.222  85.833  1.00  0.00    -0.504 OA
ATOM     23  H   UNL     1      95.869  83.557  86.368  1.00  0.00     0.293 HD
ENDBRANCH  19  22
ENDBRANCH  13  14
ENDBRANCH  12  13
ENDBRANCH  10  12
ENDBRANCH   1  10
TORSDOF 12
ENDMDL
MODEL 7
REMARK VINA RESULT:    -4.970     13.667     16.536
REMARK INTER + INTRA:         -10.072
REMARK INTER:                  -9.234
REMARK INTRA:                  -0.838
REMARK UNBOUND:                -1.906
REMARK SMILES CCCCC[C@H](O)CC(=O)CCc1ccc(O)c(OC)c1
REMARK SMILES IDX 8 1 6 2 7 3 5 5 4 6 3 7 2 8 1 9 9 10 10 11 11 12 12 13 13 14
REMARK SMILES IDX 21 15 14 16 18 17 15 18 16 19 19 20 20 21 17 22
REMARK H PARENT 7 4 17 23
REMARK Flexibility Score: inf
ROOT
ATOM      1  C   UNL     1      93.885  82.379  83.941  1.00  0.00     0.107 C 
ENDROOT
BRANCH   1   2
ATOM      2  C   UNL     1      93.104  82.752  85.203  1.00  0.00     0.121 C 
BRANCH   2   3
ATOM      3  O   UNL     1      92.607  84.083  85.089  1.00  0.00    -0.393 OA
ATOM      4  H   UNL     1      91.670  84.030  84.830  1.00  0.00     0.210 HD
ENDBRANCH   2   3
BRANCH   2   5
ATOM      5  C   UNL     1      91.936  81.800  85.489  1.00  0.00     0.032 C 
BRANCH   5   6
ATOM      6  C   UNL     1      90.944  81.737  84.321  1.00  0.00     0.003 C 
BRANCH   6   7
ATOM      7  C   UNL     1      90.820  80.340  83.706  1.00  0.00    -0.000 C 
BRANCH   7   8
ATOM      8  C   UNL     1      91.401  79.231  84.582  1.00  0.00    -0.003 C 
ATOM      9  C   UNL     1      91.612  77.951  83.788  1.00  0.00     0.004 C 
ENDBRANCH   7   8
ENDBRANCH   6   7
ENDBRANCH   5   6
ENDBRANCH   2   5
ENDBRANCH   1   2
BRANCH   1  10
ATOM     10  C   UNL     1      95.154  81.596  84.236  1.00  0.00     0.135 C 
ATOM     11  O   UNL     1      95.104  80.486  84.765  1.00  0.00    -0.300 OA
BRANCH  10  12
ATOM     12  C   UNL     1      96.465  82.233  83.802  1.00  0.00     0.080 C 
BRANCH  12  13
ATOM     13  C   UNL     1      96.320  83.198  82.624  1.00  0.00     0.043 C 
BRANCH  13  14
ATOM     14  C   UNL     1      97.213  82.847  81.458  1.00  0.00    -0.044 A 
ATOM     15  C   UNL     1      97.038  83.483  80.229  1.00  0.00     0.054 A 
ATOM     16  C   UNL     1      98.214  81.887  81.611  1.00  0.00     0.008 A 
ATOM     17  C   UNL     1      97.864  83.159  79.153  1.00  0.00     0.160 A 
ATOM     18  C   UNL     1      99.040  81.562  80.534  1.00  0.00     0.050 A 
ATOM     19  C   UNL     1      98.864  82.198  79.305  1.00  0.00     0.157 A 
BRANCH  17  20
ATOM     20  O   UNL     1      97.683  83.786  77.957  1.00  0.00    -0.493 OA
ATOM     21  C   UNL     1      96.340  83.941  77.503  1.00  0.00     0.278 C 
ENDBRANCH  17  20
BRANCH  19  22
ATOM     22  O   UNL     1      99.677  81.873  78.262  1.00  0.00    -0.504 OA
ATOM     23  H   UNL     1     100.409  81.323  78.590  1.00  0.00     0.293 HD
ENDBRANCH  19  22
ENDBRANCH  13  14
ENDBRANCH  12  13
ENDBRANCH  10  12
ENDBRANCH   1  10
TORSDOF 12
ENDMDL
MODEL 8
REMARK VINA RESULT:    -4.874     13.190     15.502
REMARK INTER + INTRA:          -9.914
REMARK INTER:                  -8.545
REMARK INTRA:                  -1.369
REMARK UNBOUND:                -1.906
REMARK SMILES CCCCC[C@H](O)CC(=O)CCc1ccc(O)c(OC)c1
REMARK SMILES IDX 8 1 6 2 7 3 5 5 4 6 3 7 2 8 1 9 9 10 10 11 11 12 12 13 13 14
REMARK SMILES IDX 21 15 14 16 18 17 15 18 16 19 19 20 20 21 17 22
REMARK H PARENT 7 4 17 23
REMARK Flexibility Score: inf
ROOT
ATOM      1  C   UNL     1      97.588  82.154  77.280  1.00  0.00     0.107 C 
ENDROOT
BRANCH   1   2
ATOM      2  C   UNL     1      98.565  82.571  76.178  1.00  0.00     0.121 C 
BRANCH   2   3
ATOM      3  O   UNL     1      98.716  83.988  76.177  1.00  0.00    -0.393 OA
ATOM      4  H   UNL     1      98.932  84.265  77.085  1.00  0.00     0.210 HD
ENDBRANCH   2   3
BRANCH   2   5
ATOM      5  C   UNL     1      99.944  81.916  76.320  1.00  0.00     0.032 C 
BRANCH   5   6
ATOM      6  C   UNL     1     100.279  81.586  77.779  1.00  0.00     0.003 C 
BRANCH   6   7
ATOM      7  C   UNL     1     101.779  81.403  78.031  1.00  0.00    -0.000 C 
BRANCH   7   8
ATOM      8  C   UNL     1     102.104  80.853  79.419  1.00  0.00    -0.003 C 
ATOM      9  C   UNL     1     101.068  81.289  80.444  1.00  0.00     0.004 C 
ENDBRANCH   7   8
ENDBRANCH   6   7
ENDBRANCH   5   6
ENDBRANCH   2   5
ENDBRANCH   1   2
BRANCH   1  10
ATOM     10  C   UNL     1      96.902  83.335  77.946  1.00  0.00     0.135 C 
ATOM     11  O   UNL     1      96.141  84.065  77.312  1.00  0.00    -0.300 OA
BRANCH  10  12
ATOM     12  C   UNL     1      97.171  83.532  79.430  1.00  0.00     0.080 C 
BRANCH  12  13
ATOM     13  C   UNL     1      97.357  82.223  80.200  1.00  0.00     0.043 C 
BRANCH  13  14
ATOM     14  C   UNL     1      97.227  82.392  81.695  1.00  0.00    -0.044 A 
ATOM     15  C   UNL     1      96.340  83.335  82.217  1.00  0.00     0.054 A 
ATOM     16  C   UNL     1      97.993  81.605  82.555  1.00  0.00     0.008 A 
ATOM     17  C   UNL     1      96.221  83.490  83.598  1.00  0.00     0.160 A 
ATOM     18  C   UNL     1      97.873  81.760  83.936  1.00  0.00     0.050 A 
ATOM     19  C   UNL     1      96.987  82.703  84.458  1.00  0.00     0.157 A 
BRANCH  17  20
ATOM     20  O   UNL     1      95.352  84.414  84.095  1.00  0.00    -0.493 OA
ATOM     21  C   UNL     1      95.715  85.787  83.953  1.00  0.00     0.278 C 
ENDBRANCH  17  20
BRANCH  19  22
ATOM     22  O   UNL     1      96.879  82.845  85.808  1.00  0.00    -0.504 OA
ATOM     23  H   UNL     1      96.431  83.686  86.003  1.00  0.00     0.293 HD
ENDBRANCH  19  22
ENDBRANCH  13  14
ENDBRANCH  12  13
ENDBRANCH  10  12
ENDBRANCH   1  10
TORSDOF 12
ENDMDL
MODEL 9
REMARK VINA RESULT:    -4.793     13.889     16.261
REMARK INTER + INTRA:          -9.781
REMARK INTER:                  -9.129
REMARK INTRA:                  -0.652
REMARK UNBOUND:                -1.906
REMARK SMILES CCCCC[C@H](O)CC(=O)CCc1ccc(O)c(OC)c1
REMARK SMILES IDX 8 1 6 2 7 3 5 5 4 6 3 7 2 8 1 9 9 10 10 11 11 12 12 13 13 14
REMARK SMILES IDX 21 15 14 16 18 17 15 18 16 19 19 20 20 21 17 22
REMARK H PARENT 7 4 17 23
REMARK Flexibility Score: inf
ROOT
ATOM      1  C   UNL     1      98.269  81.535  79.698  1.00  0.00     0.107 C 
ENDROOT
BRANCH   1   2
ATOM      2  C   UNL     1      97.420  82.744  79.296  1.00  0.00     0.121 C 
BRANCH   2   3
ATOM      3  O   UNL     1      97.968  83.930  79.865  1.00  0.00    -0.393 OA
ATOM      4  H   UNL     1      98.437  84.409  79.160  1.00  0.00     0.210 HD
ENDBRANCH   2   3
BRANCH   2   5
ATOM      5  C   UNL     1      97.307  82.918  77.776  1.00  0.00     0.032 C 
BRANCH   5   6
ATOM      6  C   UNL     1      96.296  84.007  77.395  1.00  0.00     0.003 C 
BRANCH   6   7
ATOM      7  C   UNL     1      96.648  84.731  76.091  1.00  0.00    -0.000 C 
BRANCH   7   8
ATOM      8  C   UNL     1      97.817  84.100  75.337  1.00  0.00    -0.003 C 
ATOM      9  C   UNL     1      97.635  84.219  73.832  1.00  0.00     0.004 C 
ENDBRANCH   7   8
ENDBRANCH   6   7
ENDBRANCH   5   6
ENDBRANCH   2   5
ENDBRANCH   1   2
BRANCH   1  10
ATOM     10  C   UNL     1      98.247  81.263  81.193  1.00  0.00     0.135 C 
ATOM     11  O   UNL     1      99.281  81.306  81.860  1.00  0.00    -0.300 OA
BRANCH  10  12
ATOM     12  C   UNL     1      96.887  80.985  81.816  1.00  0.00     0.080 C 
BRANCH  12  13
ATOM     13  C   UNL     1      96.500  81.977  82.914  1.00  0.00     0.043 C 
BRANCH  13  14
ATOM     14  C   UNL     1      95.268  81.558  83.682  1.00  0.00    -0.044 A 
ATOM     15  C   UNL     1      95.128  80.238  84.109  1.00  0.00     0.054 A 
ATOM     16  C   UNL     1      94.272  82.493  83.965  1.00  0.00     0.008 A 
ATOM     17  C   UNL     1      93.990  79.853  84.819  1.00  0.00     0.160 A 
ATOM     18  C   UNL     1      93.135  82.108  84.675  1.00  0.00     0.050 A 
ATOM     19  C   UNL     1      92.994  80.788  85.101  1.00  0.00     0.157 A 
BRANCH  17  20
ATOM     20  O   UNL     1      93.863  78.560  85.230  1.00  0.00    -0.493 OA
ATOM     21  C   UNL     1      93.803  77.560  84.215  1.00  0.00     0.278 C 
ENDBRANCH  17  20
BRANCH  19  22
ATOM     22  O   UNL     1      91.879  80.423  85.794  1.00  0.00    -0.504 OA
ATOM     23  H   UNL     1      91.276  81.184  85.846  1.00  0.00     0.293 HD
ENDBRANCH  19  22
ENDBRANCH  13  14
ENDBRANCH  12  13
ENDBRANCH  10  12
ENDBRANCH   1  10
TORSDOF 12
ENDMDL
MODEL 10
REMARK VINA RESULT:    -4.762      3.082      5.332
REMARK INTER + INTRA:          -9.731
REMARK INTER:                  -9.168
REMARK INTRA:                  -0.563
REMARK UNBOUND:                -1.906
REMARK SMILES CCCCC[C@H](O)CC(=O)CCc1ccc(O)c(OC)c1
REMARK SMILES IDX 8 1 6 2 7 3 5 5 4 6 3 7 2 8 1 9 9 10 10 11 11 12 12 13 13 14
REMARK SMILES IDX 21 15 14 16 18 17 15 18 16 19 19 20 20 21 17 22
REMARK H PARENT 7 4 17 23
REMARK Flexibility Score: inf
ROOT
ATOM      1  C   UNL     1      94.133  97.187  73.687  1.00  0.00     0.107 C 
ENDROOT
BRANCH   1   2
ATOM      2  C   UNL     1      95.182  97.912  72.840  1.00  0.00     0.121 C 
BRANCH   2   3
ATOM      3  O   UNL     1      96.291  97.049  72.601  1.00  0.00    -0.393 OA
ATOM      4  H   UNL     1      96.019  96.392  71.936  1.00  0.00     0.210 HD
ENDBRANCH   2   3
BRANCH   2   5
ATOM      5  C   UNL     1      94.630  98.409  71.498  1.00  0.00     0.032 C 
BRANCH   5   6
ATOM      6  C   UNL     1      95.737  98.595  70.453  1.00  0.00     0.003 C 
BRANCH   6   7
ATOM      7  C   UNL     1      95.329  98.135  69.050  1.00  0.00    -0.000 C 
BRANCH   7   8
ATOM      8  C   UNL     1      95.858  99.033  67.933  1.00  0.00    -0.003 C 
ATOM      9  C   UNL     1      97.316  99.401  68.161  1.00  0.00     0.004 C 
ENDBRANCH   7   8
ENDBRANCH   6   7
ENDBRANCH   5   6
ENDBRANCH   2   5
ENDBRANCH   1   2
BRANCH   1  10
ATOM     10  C   UNL     1      94.639  96.816  75.072  1.00  0.00     0.135 C 
ATOM     11  O   UNL     1      95.559  97.442  75.598  1.00  0.00    -0.300 OA
BRANCH  10  12
ATOM     12  C   UNL     1      93.923  95.675  75.777  1.00  0.00     0.080 C 
BRANCH  12  13
ATOM     13  C   UNL     1      92.492  96.014  76.200  1.00  0.00     0.043 C 
BRANCH  13  14
ATOM     14  C   UNL     1      91.599  94.800  76.293  1.00  0.00    -0.044 A 
ATOM     15  C   UNL     1      91.228  94.117  75.135  1.00  0.00     0.054 A 
ATOM     16  C   UNL     1      91.144  94.364  77.537  1.00  0.00     0.008 A 
ATOM     17  C   UNL     1      90.403  92.995  75.222  1.00  0.00     0.160 A 
ATOM     18  C   UNL     1      90.319  93.242  77.625  1.00  0.00     0.050 A 
ATOM     19  C   UNL     1      89.948  92.558  76.467  1.00  0.00     0.157 A 
BRANCH  17  20
ATOM     20  O   UNL     1      90.047  92.335  74.085  1.00  0.00    -0.493 OA
ATOM     21  C   UNL     1      90.694  91.090  73.828  1.00  0.00     0.278 C 
ENDBRANCH  17  20
BRANCH  19  22
ATOM     22  O   UNL     1      89.143  91.464  76.565  1.00  0.00    -0.504 OA
ATOM     23  H   UNL     1      89.692  90.662  76.532  1.00  0.00     0.293 HD
ENDBRANCH  19  22
ENDBRANCH  13  14
ENDBRANCH  12  13
ENDBRANCH  10  12
ENDBRANCH   1  10
TORSDOF 12
ENDMDL
