MODEL 1
REMARK VINA RESULT:    -8.150      0.000      0.000
REMARK INTER + INTRA:          -9.961
REMARK INTER:                  -9.579
REMARK INTRA:                  -0.382
REMARK UNBOUND:                -0.382
REMARK SMILES O=C(/C=C/C=C/c1ccc2c(c1)OCO2)N1CCCCC1
REMARK SMILES IDX 3 1 4 2 2 3 1 4 16 5 17 6 21 7 18 8 20 9 19 10 5 11 6 12
REMARK SMILES IDX 7 13 12 14 8 15 11 16 9 17 13 18 10 19 14 20 15 21
REMARK H PARENT
REMARK Flexibility Score: inf
ROOT
ATOM      1  C   UNL     1      90.954  91.708  75.992  1.00  0.00     0.071 C 
ATOM      2  C   UNL     1      90.892  92.636  76.945  1.00  0.00     0.006 C 
ENDROOT
BRANCH   1   3
ATOM      3  C   UNL     1      89.692  91.085  75.545  1.00  0.00     0.246 C 
ATOM      4  O   UNL     1      88.766  91.034  76.355  1.00  0.00    -0.270 OA
ATOM      5  N   UNL     1      89.636  90.594  74.242  1.00  0.00    -0.339 N 
ATOM      6  C   UNL     1      88.398  89.965  73.772  1.00  0.00     0.120 C 
ATOM      7  C   UNL     1      90.734  90.597  73.264  1.00  0.00     0.120 C 
ATOM      8  C   UNL     1      87.919  90.587  72.465  1.00  0.00     0.022 C 
ATOM      9  C   UNL     1      90.291  91.211  71.936  1.00  0.00     0.022 C 
ATOM     10  C   UNL     1      89.019  90.555  71.408  1.00  0.00     0.004 C 
ENDBRANCH   1   3
BRANCH   2  11
ATOM     11  C   UNL     1      92.074  93.303  77.448  1.00  0.00     0.001 C 
ATOM     12  C   UNL     1      93.159  93.529  76.690  1.00  0.00     0.008 C 
BRANCH  12  13
ATOM     13  C   UNL     1      94.389  94.194  77.153  1.00  0.00    -0.022 A 
ATOM     14  C   UNL     1      94.608  94.335  78.516  1.00  0.00     0.058 A 
ATOM     15  C   UNL     1      95.301  94.666  76.206  1.00  0.00     0.012 A 
ATOM     16  C   UNL     1      95.774  94.965  78.901  1.00  0.00     0.166 A 
ATOM     17  C   UNL     1      96.474  95.299  76.623  1.00  0.00     0.051 A 
ATOM     18  O   UNL     1      96.169  95.199  80.182  1.00  0.00    -0.454 OA
ATOM     19  C   UNL     1      96.683  95.434  77.980  1.00  0.00     0.165 A 
ATOM     20  C   UNL     1      97.428  95.869  79.964  1.00  0.00     0.468 C 
ATOM     21  O   UNL     1      97.760  96.021  78.569  1.00  0.00    -0.454 OA
ENDBRANCH  12  13
ENDBRANCH   2  11
TORSDOF 3
ENDMDL
MODEL 2
REMARK VINA RESULT:    -7.736      2.734      8.989
REMARK INTER + INTRA:          -9.476
REMARK INTER:                  -9.128
REMARK INTRA:                  -0.347
REMARK UNBOUND:                -0.382
REMARK SMILES O=C(/C=C/C=C/c1ccc2c(c1)OCO2)N1CCCCC1
REMARK SMILES IDX 3 1 4 2 2 3 1 4 16 5 17 6 21 7 18 8 20 9 19 10 5 11 6 12
REMARK SMILES IDX 7 13 12 14 8 15 11 16 9 17 13 18 10 19 14 20 15 21
REMARK H PARENT
REMARK Flexibility Score: inf
ROOT
ATOM      1  C   UNL     1      94.803  94.461  75.331  1.00  0.00     0.071 C 
ATOM      2  C   UNL     1      93.559  94.894  75.528  1.00  0.00     0.006 C 
ENDROOT
BRANCH   1   3
ATOM      3  C   UNL     1      95.909  95.225  75.943  1.00  0.00     0.246 C 
ATOM      4  O   UNL     1      96.451  96.091  75.255  1.00  0.00    -0.270 OA
ATOM      5  N   UNL     1      96.269  94.911  77.253  1.00  0.00    -0.339 N 
ATOM      6  C   UNL     1      97.367  95.649  77.884  1.00  0.00     0.120 C 
ATOM      7  C   UNL     1      95.677  93.856  78.087  1.00  0.00     0.120 C 
ATOM      8  C   UNL     1      96.945  96.234  79.228  1.00  0.00     0.022 C 
ATOM      9  C   UNL     1      95.243  94.404  79.447  1.00  0.00     0.022 C 
ATOM     10  C   UNL     1      96.377  95.153  80.141  1.00  0.00     0.004 C 
ENDBRANCH   1   3
BRANCH   2  11
ATOM     11  C   UNL     1      92.410  94.213  74.970  1.00  0.00     0.001 C 
ATOM     12  C   UNL     1      92.119  92.932  75.247  1.00  0.00     0.008 C 
BRANCH  12  13
ATOM     13  C   UNL     1      90.970  92.190  74.701  1.00  0.00    -0.022 A 
ATOM     14  C   UNL     1      90.240  92.746  73.660  1.00  0.00     0.058 A 
ATOM     15  C   UNL     1      90.646  90.946  75.248  1.00  0.00     0.012 A 
ATOM     16  C   UNL     1      89.173  92.013  73.182  1.00  0.00     0.166 A 
ATOM     17  C   UNL     1      89.561  90.225  74.745  1.00  0.00     0.051 A 
ATOM     18  O   UNL     1      88.339  92.383  72.172  1.00  0.00    -0.454 OA
ATOM     19  C   UNL     1      88.842  90.786  73.710  1.00  0.00     0.165 A 
ATOM     20  C   UNL     1      87.446  91.252  72.124  1.00  0.00     0.468 C 
ATOM     21  O   UNL     1      87.759  90.234  73.097  1.00  0.00    -0.454 OA
ENDBRANCH  12  13
ENDBRANCH   2  11
TORSDOF 3
ENDMDL
MODEL 3
REMARK VINA RESULT:    -7.666      1.652      2.088
REMARK INTER + INTRA:          -9.392
REMARK INTER:                  -8.995
REMARK INTRA:                  -0.397
REMARK UNBOUND:                -0.382
REMARK SMILES O=C(/C=C/C=C/c1ccc2c(c1)OCO2)N1CCCCC1
REMARK SMILES IDX 3 1 4 2 2 3 1 4 16 5 17 6 21 7 18 8 20 9 19 10 5 11 6 12
REMARK SMILES IDX 7 13 12 14 8 15 11 16 9 17 13 18 10 19 14 20 15 21
REMARK H PARENT
REMARK Flexibility Score: inf
ROOT
ATOM      1  C   UNL     1      91.648  92.688  75.128  1.00  0.00     0.071 C 
ATOM      2  C   UNL     1      91.554  93.848  75.774  1.00  0.00     0.006 C 
ENDROOT
BRANCH   1   3
ATOM      3  C   UNL     1      90.414  92.104  74.566  1.00  0.00     0.246 C 
ATOM      4  O   UNL     1      89.861  92.716  73.652  1.00  0.00    -0.270 OA
ATOM      5  N   UNL     1      89.957  90.904  75.109  1.00  0.00    -0.339 N 
ATOM      6  C   UNL     1      88.731  90.303  74.575  1.00  0.00     0.120 C 
ATOM      7  C   UNL     1      90.565  90.169  76.229  1.00  0.00     0.120 C 
ATOM      8  C   UNL     1      88.953  88.849  74.173  1.00  0.00     0.022 C 
ATOM      9  C   UNL     1      90.800  88.704  75.865  1.00  0.00     0.022 C 
ATOM     10  C   UNL     1      89.532  88.044  75.332  1.00  0.00     0.004 C 
ENDBRANCH   1   3
BRANCH   2  11
ATOM     11  C   UNL     1      92.707  94.498  76.360  1.00  0.00     0.001 C 
ATOM     12  C   UNL     1      93.630  93.835  77.075  1.00  0.00     0.008 C 
BRANCH  12  13
ATOM     13  C   UNL     1      94.815  94.447  77.699  1.00  0.00    -0.022 A 
ATOM     14  C   UNL     1      94.969  94.370  79.077  1.00  0.00     0.058 A 
ATOM     15  C   UNL     1      95.753  95.089  76.886  1.00  0.00     0.012 A 
ATOM     16  C   UNL     1      96.096  94.958  79.614  1.00  0.00     0.166 A 
ATOM     17  C   UNL     1      96.884  95.676  77.457  1.00  0.00     0.051 A 
ATOM     18  O   UNL     1      96.426  94.992  80.935  1.00  0.00    -0.454 OA
ATOM     19  C   UNL     1      97.028  95.594  78.827  1.00  0.00     0.165 A 
ATOM     20  C   UNL     1      97.670  95.719  80.889  1.00  0.00     0.468 C 
ATOM     21  O   UNL     1      98.058  96.105  79.554  1.00  0.00    -0.454 OA
ENDBRANCH  12  13
ENDBRANCH   2  11
TORSDOF 3
ENDMDL
MODEL 4
REMARK VINA RESULT:    -7.414      2.775      8.961
REMARK INTER + INTRA:          -9.097
REMARK INTER:                  -8.850
REMARK INTRA:                  -0.247
REMARK UNBOUND:                -0.382
REMARK SMILES O=C(/C=C/C=C/c1ccc2c(c1)OCO2)N1CCCCC1
REMARK SMILES IDX 3 1 4 2 2 3 1 4 16 5 17 6 21 7 18 8 20 9 19 10 5 11 6 12
REMARK SMILES IDX 7 13 12 14 8 15 11 16 9 17 13 18 10 19 14 20 15 21
REMARK H PARENT
REMARK Flexibility Score: inf
ROOT
ATOM      1  C   UNL     1      94.097  94.550  77.004  1.00  0.00     0.071 C 
ATOM      2  C   UNL     1      94.103  93.902  75.841  1.00  0.00     0.006 C 
ENDROOT
BRANCH   1   3
ATOM      3  C   UNL     1      95.371  94.665  77.742  1.00  0.00     0.246 C 
ATOM      4  O   UNL     1      95.541  93.915  78.704  1.00  0.00    -0.270 OA
ATOM      5  N   UNL     1      96.291  95.616  77.305  1.00  0.00    -0.339 N 
ATOM      6  C   UNL     1      97.563  95.757  78.021  1.00  0.00     0.120 C 
ATOM      7  C   UNL     1      96.105  96.558  76.191  1.00  0.00     0.120 C 
ATOM      8  C   UNL     1      98.751  95.667  77.070  1.00  0.00     0.022 C 
ATOM      9  C   UNL     1      97.281  96.500  75.215  1.00  0.00     0.022 C 
ATOM     10  C   UNL     1      98.617  96.672  75.931  1.00  0.00     0.004 C 
ENDBRANCH   1   3
BRANCH   2  11
ATOM     11  C   UNL     1      92.905  93.737  75.046  1.00  0.00     0.001 C 
ATOM     12  C   UNL     1      92.147  92.629  75.095  1.00  0.00     0.008 C 
BRANCH  12  13
ATOM     13  C   UNL     1      90.926  92.407  74.303  1.00  0.00    -0.022 A 
ATOM     14  C   UNL     1      90.237  91.210  74.446  1.00  0.00     0.058 A 
ATOM     15  C   UNL     1      90.493  93.407  73.429  1.00  0.00     0.012 A 
ATOM     16  C   UNL     1      89.098  91.048  73.683  1.00  0.00     0.166 A 
ATOM     17  C   UNL     1      89.337  93.216  72.668  1.00  0.00     0.051 A 
ATOM     18  O   UNL     1      88.290  89.953  73.679  1.00  0.00    -0.454 OA
ATOM     19  C   UNL     1      88.660  92.024  72.818  1.00  0.00     0.165 A 
ATOM     20  C   UNL     1      87.294  90.350  72.715  1.00  0.00     0.468 C 
ATOM     21  O   UNL     1      87.523  91.663  72.164  1.00  0.00    -0.454 OA
ENDBRANCH  12  13
ENDBRANCH   2  11
TORSDOF 3
ENDMDL
MODEL 5
REMARK VINA RESULT:    -7.182      3.264      9.031
REMARK INTER + INTRA:          -8.824
REMARK INTER:                  -8.452
REMARK INTRA:                  -0.372
REMARK UNBOUND:                -0.382
REMARK SMILES O=C(/C=C/C=C/c1ccc2c(c1)OCO2)N1CCCCC1
REMARK SMILES IDX 3 1 4 2 2 3 1 4 16 5 17 6 21 7 18 8 20 9 19 10 5 11 6 12
REMARK SMILES IDX 7 13 12 14 8 15 11 16 9 17 13 18 10 19 14 20 15 21
REMARK H PARENT
REMARK Flexibility Score: inf
ROOT
ATOM      1  C   UNL     1      94.736  95.046  75.214  1.00  0.00     0.071 C 
ATOM      2  C   UNL     1      93.642  94.818  75.938  1.00  0.00     0.006 C 
ENDROOT
BRANCH   1   3
ATOM      3  C   UNL     1      95.842  95.794  75.845  1.00  0.00     0.246 C 
ATOM      4  O   UNL     1      95.976  95.690  77.065  1.00  0.00    -0.270 OA
ATOM      5  N   UNL     1      96.655  96.570  75.021  1.00  0.00    -0.339 N 
ATOM      6  C   UNL     1      97.758  97.328  75.619  1.00  0.00     0.120 C 
ATOM      7  C   UNL     1      96.498  96.754  73.570  1.00  0.00     0.120 C 
ATOM      8  C   UNL     1      99.081  97.033  74.920  1.00  0.00     0.022 C 
ATOM      9  C   UNL     1      97.807  96.471  72.832  1.00  0.00     0.022 C 
ATOM     10  C   UNL     1      98.968  97.270  73.417  1.00  0.00     0.004 C 
ENDBRANCH   1   3
BRANCH   2  11
ATOM     11  C   UNL     1      92.506  94.094  75.407  1.00  0.00     0.001 C 
ATOM     12  C   UNL     1      92.635  92.987  74.659  1.00  0.00     0.008 C 
BRANCH  12  13
ATOM     13  C   UNL     1      91.516  92.218  74.088  1.00  0.00    -0.022 A 
ATOM     14  C   UNL     1      90.480  92.898  73.461  1.00  0.00     0.058 A 
ATOM     15  C   UNL     1      91.527  90.825  74.193  1.00  0.00     0.012 A 
ATOM     16  C   UNL     1      89.455  92.134  72.942  1.00  0.00     0.166 A 
ATOM     17  C   UNL     1      90.476  90.077  73.659  1.00  0.00     0.051 A 
ATOM     18  O   UNL     1      88.355  92.610  72.295  1.00  0.00    -0.454 OA
ATOM     19  C   UNL     1      89.452  90.762  73.038  1.00  0.00     0.165 A 
ATOM     20  C   UNL     1      87.661  91.382  71.995  1.00  0.00     0.468 C 
ATOM     21  O   UNL     1      88.351  90.205  72.463  1.00  0.00    -0.454 OA
ENDBRANCH  12  13
ENDBRANCH   2  11
TORSDOF 3
ENDMDL
MODEL 6
REMARK VINA RESULT:    -7.047     26.546     28.799
REMARK INTER + INTRA:          -8.665
REMARK INTER:                  -8.302
REMARK INTRA:                  -0.363
REMARK UNBOUND:                -0.382
REMARK SMILES O=C(/C=C/C=C/c1ccc2c(c1)OCO2)N1CCCCC1
REMARK SMILES IDX 3 1 4 2 2 3 1 4 16 5 17 6 21 7 18 8 20 9 19 10 5 11 6 12
REMARK SMILES IDX 7 13 12 14 8 15 11 16 9 17 13 18 10 19 14 20 15 21
REMARK H PARENT
REMARK Flexibility Score: inf
ROOT
ATOM      1  C   UNL     1      63.037  84.203  75.993  1.00  0.00     0.071 C 
ATOM      2  C   UNL     1      64.016  85.092  75.843  1.00  0.00     0.006 C 
ENDROOT
BRANCH   1   3
ATOM      3  C   UNL     1      62.573  83.473  74.796  1.00  0.00     0.246 C 
ATOM      4  O   UNL     1      61.719  84.016  74.094  1.00  0.00    -0.270 OA
ATOM      5  N   UNL     1      63.126  82.218  74.545  1.00  0.00    -0.339 N 
ATOM      6  C   UNL     1      62.681  81.467  73.367  1.00  0.00     0.120 C 
ATOM      7  C   UNL     1      64.112  81.520  75.384  1.00  0.00     0.120 C 
ATOM      8  C   UNL     1      63.862  81.025  72.510  1.00  0.00     0.022 C 
ATOM      9  C   UNL     1      65.312  81.056  74.558  1.00  0.00     0.022 C 
ATOM     10  C   UNL     1      64.878  80.246  73.339  1.00  0.00     0.004 C 
ENDBRANCH   1   3
BRANCH   2  11
ATOM     11  C   UNL     1      64.538  85.857  76.956  1.00  0.00     0.001 C 
ATOM     12  C   UNL     1      65.670  85.526  77.598  1.00  0.00     0.008 C 
BRANCH  12  13
ATOM     13  C   UNL     1      66.240  86.262  78.738  1.00  0.00    -0.022 A 
ATOM     14  C   UNL     1      66.183  87.649  78.744  1.00  0.00     0.058 A 
ATOM     15  C   UNL     1      66.824  85.544  79.785  1.00  0.00     0.012 A 
ATOM     16  C   UNL     1      66.730  88.294  79.834  1.00  0.00     0.166 A 
ATOM     17  C   UNL     1      67.370  86.222  80.876  1.00  0.00     0.051 A 
ATOM     18  O   UNL     1      66.773  89.641  80.025  1.00  0.00    -0.454 OA
ATOM     19  C   UNL     1      67.308  87.600  80.872  1.00  0.00     0.165 A 
ATOM     20  C   UNL     1      67.443  89.717  81.300  1.00  0.00     0.468 C 
ATOM     21  O   UNL     1      67.786  88.425  81.843  1.00  0.00    -0.454 OA
ENDBRANCH  12  13
ENDBRANCH   2  11
TORSDOF 3
ENDMDL
MODEL 7
REMARK VINA RESULT:    -6.829      3.308      9.367
REMARK INTER + INTRA:          -8.409
REMARK INTER:                  -8.084
REMARK INTRA:                  -0.324
REMARK UNBOUND:                -0.382
REMARK SMILES O=C(/C=C/C=C/c1ccc2c(c1)OCO2)N1CCCCC1
REMARK SMILES IDX 3 1 4 2 2 3 1 4 16 5 17 6 21 7 18 8 20 9 19 10 5 11 6 12
REMARK SMILES IDX 7 13 12 14 8 15 11 16 9 17 13 18 10 19 14 20 15 21
REMARK H PARENT
REMARK Flexibility Score: inf
ROOT
ATOM      1  C   UNL     1      96.000  95.435  78.514  1.00  0.00     0.071 C 
ATOM      2  C   UNL     1      95.321  94.301  78.348  1.00  0.00     0.006 C 
ENDROOT
BRANCH   1   3
ATOM      3  C   UNL     1      96.922  95.530  79.663  1.00  0.00     0.246 C 
ATOM      4  O   UNL     1      96.514  95.131  80.754  1.00  0.00    -0.270 OA
ATOM      5  N   UNL     1      98.187  96.070  79.438  1.00  0.00    -0.339 N 
ATOM      6  C   UNL     1      99.122  96.183  80.561  1.00  0.00     0.120 C 
ATOM      7  C   UNL     1      98.692  96.598  78.162  1.00  0.00     0.120 C 
ATOM      8  C   UNL     1     100.465  95.538  80.235  1.00  0.00     0.022 C 
ATOM      9  C   UNL     1     100.041  95.976  77.801  1.00  0.00     0.022 C 
ATOM     10  C   UNL     1     101.045  96.105  78.944  1.00  0.00     0.004 C 
ENDBRANCH   1   3
BRANCH   2  11
ATOM     11  C   UNL     1      94.395  94.112  77.252  1.00  0.00     0.001 C 
ATOM     12  C   UNL     1      93.128  93.704  77.433  1.00  0.00     0.008 C 
BRANCH  12  13
ATOM     13  C   UNL     1      92.148  93.488  76.355  1.00  0.00    -0.022 A 
ATOM     14  C   UNL     1      92.488  92.670  75.287  1.00  0.00     0.058 A 
ATOM     15  C   UNL     1      90.902  94.114  76.438  1.00  0.00     0.012 A 
ATOM     16  C   UNL     1      91.536  92.498  74.302  1.00  0.00     0.166 A 
ATOM     17  C   UNL     1      89.957  93.923  75.427  1.00  0.00     0.051 A 
ATOM     18  O   UNL     1      91.677  91.740  73.180  1.00  0.00    -0.454 OA
ATOM     19  C   UNL     1      90.305  93.108  74.370  1.00  0.00     0.165 A 
ATOM     20  C   UNL     1      90.395  91.942  72.550  1.00  0.00     0.468 C 
ATOM     21  O   UNL     1      89.519  92.808  73.300  1.00  0.00    -0.454 OA
ENDBRANCH  12  13
ENDBRANCH   2  11
TORSDOF 3
ENDMDL
MODEL 8
REMARK VINA RESULT:    -6.721     21.660     25.389
REMARK INTER + INTRA:          -8.282
REMARK INTER:                  -7.956
REMARK INTRA:                  -0.326
REMARK UNBOUND:                -0.382
REMARK SMILES O=C(/C=C/C=C/c1ccc2c(c1)OCO2)N1CCCCC1
REMARK SMILES IDX 3 1 4 2 2 3 1 4 16 5 17 6 21 7 18 8 20 9 19 10 5 11 6 12
REMARK SMILES IDX 7 13 12 14 8 15 11 16 9 17 13 18 10 19 14 20 15 21
REMARK H PARENT
REMARK Flexibility Score: inf
ROOT
ATOM      1  C   UNL     1      84.140  68.934  71.951  1.00  0.00     0.071 C 
ATOM      2  C   UNL     1      85.452  69.118  71.811  1.00  0.00     0.006 C 
ENDROOT
BRANCH   1   3
ATOM      3  C   UNL     1      83.683  67.807  72.789  1.00  0.00     0.246 C 
ATOM      4  O   UNL     1      84.177  67.695  73.912  1.00  0.00    -0.270 OA
ATOM      5  N   UNL     1      82.728  66.945  72.253  1.00  0.00    -0.339 N 
ATOM      6  C   UNL     1      82.259  65.814  73.059  1.00  0.00     0.120 C 
ATOM      7  C   UNL     1      82.150  67.020  70.903  1.00  0.00     0.120 C 
ATOM      8  C   UNL     1      80.737  65.790  73.152  1.00  0.00     0.022 C 
ATOM      9  C   UNL     1      80.622  66.994  70.954  1.00  0.00     0.022 C 
ATOM     10  C   UNL     1      80.104  65.810  71.764  1.00  0.00     0.004 C 
ENDBRANCH   1   3
BRANCH   2  11
ATOM     11  C   UNL     1      85.996  70.194  71.010  1.00  0.00     0.001 C 
ATOM     12  C   UNL     1      86.721  69.979  69.901  1.00  0.00     0.008 C 
BRANCH  12  13
ATOM     13  C   UNL     1      87.304  71.035  69.055  1.00  0.00    -0.022 A 
ATOM     14  C   UNL     1      88.490  71.639  69.451  1.00  0.00     0.058 A 
ATOM     15  C   UNL     1      86.647  71.399  67.877  1.00  0.00     0.012 A 
ATOM     16  C   UNL     1      88.997  72.622  68.626  1.00  0.00     0.166 A 
ATOM     17  C   UNL     1      87.183  72.397  67.061  1.00  0.00     0.051 A 
ATOM     18  O   UNL     1      90.140  73.330  68.837  1.00  0.00    -0.454 OA
ATOM     19  C   UNL     1      88.361  72.991  67.462  1.00  0.00     0.165 A 
ATOM     20  C   UNL     1      90.152  74.186  67.677  1.00  0.00     0.468 C 
ATOM     21  O   UNL     1      89.027  73.976  66.800  1.00  0.00    -0.454 OA
ENDBRANCH  12  13
ENDBRANCH   2  11
TORSDOF 3
ENDMDL
MODEL 9
REMARK VINA RESULT:    -6.712     14.745     15.753
REMARK INTER + INTRA:          -8.271
REMARK INTER:                  -7.873
REMARK INTRA:                  -0.398
REMARK UNBOUND:                -0.382
REMARK SMILES O=C(/C=C/C=C/c1ccc2c(c1)OCO2)N1CCCCC1
REMARK SMILES IDX 3 1 4 2 2 3 1 4 16 5 17 6 21 7 18 8 20 9 19 10 5 11 6 12
REMARK SMILES IDX 7 13 12 14 8 15 11 16 9 17 13 18 10 19 14 20 15 21
REMARK H PARENT
REMARK Flexibility Score: inf
ROOT
ATOM      1  C   UNL     1      81.973  89.920  87.197  1.00  0.00     0.071 C 
ATOM      2  C   UNL     1      83.155  90.449  87.507  1.00  0.00     0.006 C 
ENDROOT
BRANCH   1   3
ATOM      3  C   UNL     1      81.861  88.448  87.153  1.00  0.00     0.246 C 
ATOM      4  O   UNL     1      81.863  87.845  88.227  1.00  0.00    -0.270 OA
ATOM      5  N   UNL     1      81.766  87.841  85.902  1.00  0.00    -0.339 N 
ATOM      6  C   UNL     1      81.659  86.381  85.826  1.00  0.00     0.120 C 
ATOM      7  C   UNL     1      81.806  88.523  84.600  1.00  0.00     0.120 C 
ATOM      8  C   UNL     1      80.460  85.953  84.987  1.00  0.00     0.022 C 
ATOM      9  C   UNL     1      80.619  88.117  83.726  1.00  0.00     0.022 C 
ATOM     10  C   UNL     1      80.501  86.600  83.606  1.00  0.00     0.004 C 
ENDBRANCH   1   3
BRANCH   2  11
ATOM     11  C   UNL     1      83.363  91.880  87.575  1.00  0.00     0.001 C 
ATOM     12  C   UNL     1      82.533  92.704  88.235  1.00  0.00     0.008 C 
BRANCH  12  13
ATOM     13  C   UNL     1      82.692  94.165  88.329  1.00  0.00    -0.022 A 
ATOM     14  C   UNL     1      81.884  94.878  89.205  1.00  0.00     0.058 A 
ATOM     15  C   UNL     1      83.653  94.795  87.534  1.00  0.00     0.012 A 
ATOM     16  C   UNL     1      82.071  96.244  89.258  1.00  0.00     0.166 A 
ATOM     17  C   UNL     1      83.821  96.179  87.608  1.00  0.00     0.051 A 
ATOM     18  O   UNL     1      81.382  97.114  90.047  1.00  0.00    -0.454 OA
ATOM     19  C   UNL     1      83.014  96.878  88.481  1.00  0.00     0.165 A 
ATOM     20  C   UNL     1      81.997  98.365  89.679  1.00  0.00     0.468 C 
ATOM     21  O   UNL     1      83.034  98.223  88.686  1.00  0.00    -0.454 OA
ENDBRANCH  12  13
ENDBRANCH   2  11
TORSDOF 3
ENDMDL
MODEL 10
REMARK VINA RESULT:    -6.538     12.927     14.495
REMARK INTER + INTRA:          -8.067
REMARK INTER:                  -7.692
REMARK INTRA:                  -0.375
REMARK UNBOUND:                -0.382
REMARK SMILES O=C(/C=C/C=C/c1ccc2c(c1)OCO2)N1CCCCC1
REMARK SMILES IDX 3 1 4 2 2 3 1 4 16 5 17 6 21 7 18 8 20 9 19 10 5 11 6 12
REMARK SMILES IDX 7 13 12 14 8 15 11 16 9 17 13 18 10 19 14 20 15 21
REMARK H PARENT
REMARK Flexibility Score: inf
ROOT
ATOM      1  C   UNL     1      96.297  82.711  83.360  1.00  0.00     0.071 C 
ATOM      2  C   UNL     1      97.430  83.116  82.788  1.00  0.00     0.006 C 
ENDROOT
BRANCH   1   3
ATOM      3  C   UNL     1      96.071  83.061  84.776  1.00  0.00     0.246 C 
ATOM      4  O   UNL     1      96.804  83.916  85.275  1.00  0.00    -0.270 OA
ATOM      5  N   UNL     1      95.049  82.398  85.454  1.00  0.00    -0.339 N 
ATOM      6  C   UNL     1      94.805  82.720  86.863  1.00  0.00     0.120 C 
ATOM      7  C   UNL     1      94.186  81.342  84.906  1.00  0.00     0.120 C 
ATOM      8  C   UNL     1      93.342  83.076  87.107  1.00  0.00     0.022 C 
ATOM      9  C   UNL     1      92.708  81.661  85.134  1.00  0.00     0.022 C 
ATOM     10  C   UNL     1      92.419  81.972  86.600  1.00  0.00     0.004 C 
ENDBRANCH   1   3
BRANCH   2  11
ATOM     11  C   UNL     1      97.741  82.822  81.405  1.00  0.00     0.001 C 
ATOM     12  C   UNL     1      96.968  82.037  80.637  1.00  0.00     0.008 C 
BRANCH  12  13
ATOM     13  C   UNL     1      97.242  81.699  79.230  1.00  0.00    -0.022 A 
ATOM     14  C   UNL     1      96.754  82.527  78.229  1.00  0.00     0.058 A 
ATOM     15  C   UNL     1      97.987  80.552  78.942  1.00  0.00     0.012 A 
ATOM     16  C   UNL     1      97.037  82.170  76.927  1.00  0.00     0.166 A 
ATOM     17  C   UNL     1      98.258  80.214  77.614  1.00  0.00     0.051 A 
ATOM     18  O   UNL     1      96.649  82.846  75.811  1.00  0.00    -0.454 OA
ATOM     19  C   UNL     1      97.769  81.043  76.627  1.00  0.00     0.165 A 
ATOM     20  C   UNL     1      97.219  82.020  74.776  1.00  0.00     0.468 C 
ATOM     21  O   UNL     1      97.931  80.874  75.287  1.00  0.00    -0.454 OA
ENDBRANCH  12  13
ENDBRANCH   2  11
TORSDOF 3
ENDMDL
