MODEL 1
REMARK VINA RESULT:    -6.598      0.000      0.000
REMARK INTER + INTRA:         -11.410
REMARK INTER:                 -10.649
REMARK INTRA:                  -0.761
REMARK UNBOUND:                -0.761
REMARK SMILES COc1cc(CNC(=O)CCCCC/C=C/C(C)C)ccc1O
REMARK SMILES IDX 11 1 10 2 8 3 7 4 9 6 6 7 5 8 3 9 22 10 4 11 21 12 20 13
REMARK SMILES IDX 2 14 1 15 23 16 12 18 13 19 14 20 15 21 16 22 17 23 18 24
REMARK SMILES IDX 19 25
REMARK H PARENT 7 5 23 17
REMARK Flexibility Score: inf
ROOT
ATOM      1  C   UNL     1      94.192  98.315  75.301  1.00  0.00     0.010 C 
ENDROOT
BRANCH   1   2
ATOM      2  C   UNL     1      92.891  99.102  74.998  1.00  0.00     0.100 C 
BRANCH   2   3
ATOM      3  C   UNL     1      92.819  99.637  73.626  1.00  0.00     0.220 C 
ATOM      4  N   UNL     1      91.607  99.909  73.067  1.00  0.00    -0.352 N 
ATOM      5  H   UNL     1      90.813  99.644  73.634  1.00  0.00     0.163 HD
ATOM      6  O   UNL     1      93.892  99.869  73.020  1.00  0.00    -0.275 OA
BRANCH   4   7
ATOM      7  C   UNL     1      91.398 100.516  71.793  1.00  0.00     0.151 C 
BRANCH   7   8
ATOM      8  C   UNL     1      90.480  99.730  70.928  1.00  0.00    -0.025 A 
ATOM      9  C   UNL     1      88.950  99.592  69.008  1.00  0.00     0.160 A 
ATOM     10  C   UNL     1      88.688  98.239  69.315  1.00  0.00     0.157 A 
ATOM     11  C   UNL     1      89.835 100.329  69.821  1.00  0.00     0.056 A 
ATOM     12  C   UNL     1      89.337  97.629  70.404  1.00  0.00     0.050 A 
ATOM     13  C   UNL     1      90.235  98.366  71.199  1.00  0.00     0.009 A 
BRANCH   9  14
ATOM     14  O   UNL     1      88.392 100.171  67.899  1.00  0.00    -0.493 OA
ATOM     15  C   UNL     1      88.526 101.601  67.853  1.00  0.00     0.278 C 
ENDBRANCH   9  14
BRANCH  10  16
ATOM     16  O   UNL     1      87.821  97.503  68.575  1.00  0.00    -0.504 OA
ATOM     17  H   UNL     1      88.171  97.395  67.687  1.00  0.00     0.293 HD
ENDBRANCH  10  16
ENDBRANCH   7   8
ENDBRANCH   4   7
ENDBRANCH   2   3
ENDBRANCH   1   2
BRANCH   1  18
ATOM     18  C   UNL     1      94.021  97.407  76.546  1.00  0.00     0.001 C 
BRANCH  18  19
ATOM     19  C   UNL     1      94.895  96.128  76.510  1.00  0.00     0.004 C 
BRANCH  19  20
ATOM     20  C   UNL     1      94.326  95.027  77.447  1.00  0.00     0.027 C 
BRANCH  20  21
ATOM     21  C   UNL     1      92.967  94.628  77.122  1.00  0.00    -0.031 C 
ATOM     22  C   UNL     1      92.051  94.358  78.070  1.00  0.00    -0.028 C 
BRANCH  22  23
ATOM     23  C   UNL     1      90.676  93.961  77.776  1.00  0.00     0.005 C 
ATOM     24  C   UNL     1      89.822  95.205  77.416  1.00  0.00     0.012 C 
ATOM     25  C   UNL     1      90.656  92.887  76.655  1.00  0.00     0.012 C 
ENDBRANCH  22  23
ENDBRANCH  20  21
ENDBRANCH  19  20
ENDBRANCH  18  19
ENDBRANCH   1  18
TORSDOF 11
ENDMDL
MODEL 2
REMARK VINA RESULT:    -6.250     18.920     21.523
REMARK INTER + INTRA:         -10.848
REMARK INTER:                 -10.080
REMARK INTRA:                  -0.768
REMARK UNBOUND:                -0.761
REMARK SMILES COc1cc(CNC(=O)CCCCC/C=C/C(C)C)ccc1O
REMARK SMILES IDX 11 1 10 2 8 3 7 4 9 6 6 7 5 8 3 9 22 10 4 11 21 12 20 13
REMARK SMILES IDX 2 14 1 15 23 16 12 18 13 19 14 20 15 21 16 22 17 23 18 24
REMARK SMILES IDX 19 25
REMARK H PARENT 7 5 23 17
REMARK Flexibility Score: inf
ROOT
ATOM      1  C   UNL     1      77.817  86.556  68.276  1.00  0.00     0.010 C 
ENDROOT
BRANCH   1   2
ATOM      2  C   UNL     1      78.379  85.119  68.432  1.00  0.00     0.100 C 
BRANCH   2   3
ATOM      3  C   UNL     1      78.164  84.259  67.254  1.00  0.00     0.220 C 
ATOM      4  N   UNL     1      77.289  84.644  66.284  1.00  0.00    -0.352 N 
ATOM      5  H   UNL     1      76.778  85.492  66.490  1.00  0.00     0.163 HD
ATOM      6  O   UNL     1      78.832  83.202  67.158  1.00  0.00    -0.275 OA
BRANCH   4   7
ATOM      7  C   UNL     1      77.059  83.958  65.054  1.00  0.00     0.151 C 
BRANCH   7   8
ATOM      8  C   UNL     1      75.921  83.006  65.134  1.00  0.00    -0.025 A 
ATOM      9  C   UNL     1      73.692  82.407  65.983  1.00  0.00     0.160 A 
ATOM     10  C   UNL     1      73.777  81.160  65.326  1.00  0.00     0.157 A 
ATOM     11  C   UNL     1      74.767  83.315  65.891  1.00  0.00     0.056 A 
ATOM     12  C   UNL     1      74.914  80.849  64.557  1.00  0.00     0.050 A 
ATOM     13  C   UNL     1      75.973  81.769  64.453  1.00  0.00     0.009 A 
BRANCH   9  14
ATOM     14  O   UNL     1      72.554  82.755  66.662  1.00  0.00    -0.493 OA
ATOM     15  C   UNL     1      71.669  83.612  65.922  1.00  0.00     0.278 C 
ENDBRANCH   9  14
BRANCH  10  16
ATOM     16  O   UNL     1      72.778  80.247  65.413  1.00  0.00    -0.504 OA
ATOM     17  H   UNL     1      72.867  79.606  64.703  1.00  0.00     0.293 HD
ENDBRANCH  10  16
ENDBRANCH   7   8
ENDBRANCH   4   7
ENDBRANCH   2   3
ENDBRANCH   1   2
BRANCH   1  18
ATOM     18  C   UNL     1      77.154  87.043  69.589  1.00  0.00     0.001 C 
BRANCH  18  19
ATOM     19  C   UNL     1      75.967  88.014  69.365  1.00  0.00     0.004 C 
BRANCH  19  20
ATOM     20  C   UNL     1      75.263  88.367  70.705  1.00  0.00     0.027 C 
BRANCH  20  21
ATOM     21  C   UNL     1      74.987  89.785  70.864  1.00  0.00    -0.031 C 
ATOM     22  C   UNL     1      75.950  90.676  71.161  1.00  0.00    -0.028 C 
BRANCH  22  23
ATOM     23  C   UNL     1      75.706  92.107  71.322  1.00  0.00     0.005 C 
ATOM     24  C   UNL     1      74.287  92.349  71.901  1.00  0.00     0.012 C 
ATOM     25  C   UNL     1      76.817  92.746  72.198  1.00  0.00     0.012 C 
ENDBRANCH  22  23
ENDBRANCH  20  21
ENDBRANCH  19  20
ENDBRANCH  18  19
ENDBRANCH   1  18
TORSDOF 11
ENDMDL
MODEL 3
REMARK VINA RESULT:    -6.231     18.182     20.666
REMARK INTER + INTRA:         -10.817
REMARK INTER:                  -9.927
REMARK INTRA:                  -0.890
REMARK UNBOUND:                -0.761
REMARK SMILES COc1cc(CNC(=O)CCCCC/C=C/C(C)C)ccc1O
REMARK SMILES IDX 11 1 10 2 8 3 7 4 9 6 6 7 5 8 3 9 22 10 4 11 21 12 20 13
REMARK SMILES IDX 2 14 1 15 23 16 12 18 13 19 14 20 15 21 16 22 17 23 18 24
REMARK SMILES IDX 19 25
REMARK H PARENT 7 5 23 17
REMARK Flexibility Score: inf
ROOT
ATOM      1  C   UNL     1      96.308  83.826  85.139  1.00  0.00     0.010 C 
ENDROOT
BRANCH   1   2
ATOM      2  C   UNL     1      96.240  84.732  86.395  1.00  0.00     0.100 C 
BRANCH   2   3
ATOM      3  C   UNL     1      95.189  84.350  87.356  1.00  0.00     0.220 C 
ATOM      4  N   UNL     1      93.879  84.419  86.990  1.00  0.00    -0.352 N 
ATOM      5  H   UNL     1      93.717  84.811  86.073  1.00  0.00     0.163 HD
ATOM      6  O   UNL     1      95.537  83.928  88.484  1.00  0.00    -0.275 OA
BRANCH   4   7
ATOM      7  C   UNL     1      92.773  83.990  87.783  1.00  0.00     0.151 C 
BRANCH   7   8
ATOM      8  C   UNL     1      92.088  82.800  87.213  1.00  0.00    -0.025 A 
ATOM      9  C   UNL     1      90.039  81.497  86.825  1.00  0.00     0.160 A 
ATOM     10  C   UNL     1      90.797  80.501  86.171  1.00  0.00     0.157 A 
ATOM     11  C   UNL     1      90.690  82.633  87.348  1.00  0.00     0.056 A 
ATOM     12  C   UNL     1      92.186  80.665  86.017  1.00  0.00     0.050 A 
ATOM     13  C   UNL     1      92.825  81.811  86.525  1.00  0.00     0.009 A 
BRANCH   9  14
ATOM     14  O   UNL     1      88.675  81.389  86.903  1.00  0.00    -0.493 OA
ATOM     15  C   UNL     1      87.975  81.979  85.795  1.00  0.00     0.278 C 
ENDBRANCH   9  14
BRANCH  10  16
ATOM     16  O   UNL     1      90.213  79.380  85.679  1.00  0.00    -0.504 OA
ATOM     17  H   UNL     1      89.982  79.519  84.757  1.00  0.00     0.293 HD
ENDBRANCH  10  16
ENDBRANCH   7   8
ENDBRANCH   4   7
ENDBRANCH   2   3
ENDBRANCH   1   2
BRANCH   1  18
ATOM     18  C   UNL     1      97.014  82.483  85.456  1.00  0.00     0.001 C 
BRANCH  18  19
ATOM     19  C   UNL     1      97.646  81.804  84.215  1.00  0.00     0.004 C 
BRANCH  19  20
ATOM     20  C   UNL     1      98.497  82.809  83.390  1.00  0.00     0.027 C 
BRANCH  20  21
ATOM     21  C   UNL     1      98.087  82.919  82.000  1.00  0.00    -0.031 C 
ATOM     22  C   UNL     1      98.975  83.011  80.994  1.00  0.00    -0.028 C 
BRANCH  22  23
ATOM     23  C   UNL     1      98.596  83.117  79.587  1.00  0.00     0.005 C 
ATOM     24  C   UNL     1      98.900  81.788  78.846  1.00  0.00     0.012 C 
ATOM     25  C   UNL     1      97.105  83.534  79.463  1.00  0.00     0.012 C 
ENDBRANCH  22  23
ENDBRANCH  20  21
ENDBRANCH  19  20
ENDBRANCH  18  19
ENDBRANCH   1  18
TORSDOF 11
ENDMDL
MODEL 4
REMARK VINA RESULT:    -6.044     21.437     24.091
REMARK INTER + INTRA:         -10.515
REMARK INTER:                  -9.013
REMARK INTRA:                  -1.503
REMARK UNBOUND:                -0.761
REMARK SMILES COc1cc(CNC(=O)CCCCC/C=C/C(C)C)ccc1O
REMARK SMILES IDX 11 1 10 2 8 3 7 4 9 6 6 7 5 8 3 9 22 10 4 11 21 12 20 13
REMARK SMILES IDX 2 14 1 15 23 16 12 18 13 19 14 20 15 21 16 22 17 23 18 24
REMARK SMILES IDX 19 25
REMARK H PARENT 7 5 23 17
REMARK Flexibility Score: inf
ROOT
ATOM      1  C   UNL     1      76.623  81.927  65.472  1.00  0.00     0.010 C 
ENDROOT
BRANCH   1   2
ATOM      2  C   UNL     1      75.985  80.980  64.422  1.00  0.00     0.100 C 
BRANCH   2   3
ATOM      3  C   UNL     1      74.516  81.075  64.342  1.00  0.00     0.220 C 
ATOM      4  N   UNL     1      73.774  81.091  65.484  1.00  0.00    -0.352 N 
ATOM      5  H   UNL     1      74.305  80.958  66.333  1.00  0.00     0.163 HD
ATOM      6  O   UNL     1      73.987  81.182  63.210  1.00  0.00    -0.275 OA
BRANCH   4   7
ATOM      7  C   UNL     1      72.361  81.276  65.553  1.00  0.00     0.151 C 
BRANCH   7   8
ATOM      8  C   UNL     1      71.970  82.348  66.504  1.00  0.00    -0.025 A 
ATOM      9  C   UNL     1      70.332  83.344  68.045  1.00  0.00     0.160 A 
ATOM     10  C   UNL     1      71.209  84.426  68.277  1.00  0.00     0.157 A 
ATOM     11  C   UNL     1      70.714  82.320  67.155  1.00  0.00     0.056 A 
ATOM     12  C   UNL     1      72.467  84.456  67.648  1.00  0.00     0.050 A 
ATOM     13  C   UNL     1      72.850  83.420  66.777  1.00  0.00     0.009 A 
BRANCH   9  14
ATOM     14  O   UNL     1      69.142  83.261  68.718  1.00  0.00    -0.493 OA
ATOM     15  C   UNL     1      68.032  83.859  68.028  1.00  0.00     0.278 C 
ENDBRANCH   9  14
BRANCH  10  16
ATOM     16  O   UNL     1      70.868  85.446  69.104  1.00  0.00    -0.504 OA
ATOM     17  H   UNL     1      70.325  85.108  69.821  1.00  0.00     0.293 HD
ENDBRANCH  10  16
ENDBRANCH   7   8
ENDBRANCH   4   7
ENDBRANCH   2   3
ENDBRANCH   1   2
BRANCH   1  18
ATOM     18  C   UNL     1      76.651  83.390  64.961  1.00  0.00     0.001 C 
BRANCH  18  19
ATOM     19  C   UNL     1      77.545  84.329  65.809  1.00  0.00     0.004 C 
BRANCH  19  20
ATOM     20  C   UNL     1      78.102  83.600  67.064  1.00  0.00     0.027 C 
BRANCH  20  21
ATOM     21  C   UNL     1      77.679  84.195  68.321  1.00  0.00    -0.031 C 
ATOM     22  C   UNL     1      76.386  84.442  68.600  1.00  0.00    -0.028 C 
BRANCH  22  23
ATOM     23  C   UNL     1      75.928  85.034  69.855  1.00  0.00     0.005 C 
ATOM     24  C   UNL     1      76.360  84.150  71.055  1.00  0.00     0.012 C 
ATOM     25  C   UNL     1      76.445  86.492  69.981  1.00  0.00     0.012 C 
ENDBRANCH  22  23
ENDBRANCH  20  21
ENDBRANCH  19  20
ENDBRANCH  18  19
ENDBRANCH   1  18
TORSDOF 11
ENDMDL
MODEL 5
REMARK VINA RESULT:    -5.988      3.184      8.813
REMARK INTER + INTRA:         -10.425
REMARK INTER:                  -9.601
REMARK INTRA:                  -0.824
REMARK UNBOUND:                -0.761
REMARK SMILES COc1cc(CNC(=O)CCCCC/C=C/C(C)C)ccc1O
REMARK SMILES IDX 11 1 10 2 8 3 7 4 9 6 6 7 5 8 3 9 22 10 4 11 21 12 20 13
REMARK SMILES IDX 2 14 1 15 23 16 12 18 13 19 14 20 15 21 16 22 17 23 18 24
REMARK SMILES IDX 19 25
REMARK H PARENT 7 5 23 17
REMARK Flexibility Score: inf
ROOT
ATOM      1  C   UNL     1      93.709 100.064  72.072  1.00  0.00     0.010 C 
ENDROOT
BRANCH   1   2
ATOM      2  C   UNL     1      93.419  99.863  73.581  1.00  0.00     0.100 C 
BRANCH   2   3
ATOM      3  C   UNL     1      94.343  98.930  74.251  1.00  0.00     0.220 C 
ATOM      4  N   UNL     1      93.980  98.343  75.426  1.00  0.00    -0.352 N 
ATOM      5  H   UNL     1      93.097  98.660  75.801  1.00  0.00     0.163 HD
ATOM      6  O   UNL     1      95.434  98.668  73.692  1.00  0.00    -0.275 OA
BRANCH   4   7
ATOM      7  C   UNL     1      94.733  97.353  76.125  1.00  0.00     0.151 C 
BRANCH   7   8
ATOM      8  C   UNL     1      93.875  96.443  76.928  1.00  0.00    -0.025 A 
ATOM      9  C   UNL     1      93.636  94.639  78.582  1.00  0.00     0.160 A 
ATOM     10  C   UNL     1      92.235  94.673  78.416  1.00  0.00     0.157 A 
ATOM     11  C   UNL     1      94.445  95.516  77.831  1.00  0.00     0.056 A 
ATOM     12  C   UNL     1      91.655  95.603  77.532  1.00  0.00     0.050 A 
ATOM     13  C   UNL     1      92.469  96.489  76.802  1.00  0.00     0.009 A 
BRANCH   9  14
ATOM     14  O   UNL     1      94.204  93.799  79.503  1.00  0.00    -0.493 OA
ATOM     15  C   UNL     1      94.778  94.471  80.636  1.00  0.00     0.278 C 
ENDBRANCH   9  14
BRANCH  10  16
ATOM     16  O   UNL     1      91.423  93.827  79.098  1.00  0.00    -0.504 OA
ATOM     17  H   UNL     1      91.605  92.923  78.828  1.00  0.00     0.293 HD
ENDBRANCH  10  16
ENDBRANCH   7   8
ENDBRANCH   4   7
ENDBRANCH   2   3
ENDBRANCH   1   2
BRANCH   1  18
ATOM     18  C   UNL     1      92.523 100.766  71.362  1.00  0.00     0.001 C 
BRANCH  18  19
ATOM     19  C   UNL     1      91.304 101.016  72.286  1.00  0.00     0.004 C 
BRANCH  19  20
ATOM     20  C   UNL     1      89.964 100.819  71.523  1.00  0.00     0.027 C 
BRANCH  20  21
ATOM     21  C   UNL     1      89.974  99.691  70.607  1.00  0.00    -0.031 C 
ATOM     22  C   UNL     1      88.883  98.938  70.381  1.00  0.00    -0.028 C 
BRANCH  22  23
ATOM     23  C   UNL     1      88.859  97.803  69.463  1.00  0.00     0.005 C 
ATOM     24  C   UNL     1      89.131  98.279  68.011  1.00  0.00     0.012 C 
ATOM     25  C   UNL     1      89.867  96.716  69.926  1.00  0.00     0.012 C 
ENDBRANCH  22  23
ENDBRANCH  20  21
ENDBRANCH  19  20
ENDBRANCH  18  19
ENDBRANCH   1  18
TORSDOF 11
ENDMDL
MODEL 6
REMARK VINA RESULT:    -5.809     16.922     19.511
REMARK INTER + INTRA:         -10.135
REMARK INTER:                  -9.517
REMARK INTRA:                  -0.618
REMARK UNBOUND:                -0.761
REMARK SMILES COc1cc(CNC(=O)CCCCC/C=C/C(C)C)ccc1O
REMARK SMILES IDX 11 1 10 2 8 3 7 4 9 6 6 7 5 8 3 9 22 10 4 11 21 12 20 13
REMARK SMILES IDX 2 14 1 15 23 16 12 18 13 19 14 20 15 21 16 22 17 23 18 24
REMARK SMILES IDX 19 25
REMARK H PARENT 7 5 23 17
REMARK Flexibility Score: inf
ROOT
ATOM      1  C   UNL     1      97.798  81.420  85.999  1.00  0.00     0.010 C 
ENDROOT
BRANCH   1   2
ATOM      2  C   UNL     1      97.723  82.436  84.831  1.00  0.00     0.100 C 
BRANCH   2   3
ATOM      3  C   UNL     1      98.407  81.990  83.602  1.00  0.00     0.220 C 
ATOM      4  N   UNL     1      99.012  82.904  82.794  1.00  0.00    -0.352 N 
ATOM      5  H   UNL     1      98.880  83.866  83.072  1.00  0.00     0.163 HD
ATOM      6  O   UNL     1      98.446  80.762  83.355  1.00  0.00    -0.275 OA
BRANCH   4   7
ATOM      7  C   UNL     1      99.787  82.601  81.634  1.00  0.00     0.151 C 
BRANCH   7   8
ATOM      8  C   UNL     1      99.089  82.957  80.372  1.00  0.00    -0.025 A 
ATOM      9  C   UNL     1      99.131  83.338  77.942  1.00  0.00     0.160 A 
ATOM     10  C   UNL     1      97.764  83.689  77.975  1.00  0.00     0.157 A 
ATOM     11  C   UNL     1      99.784  82.983  79.140  1.00  0.00     0.056 A 
ATOM     12  C   UNL     1      97.058  83.650  79.191  1.00  0.00     0.050 A 
ATOM     13  C   UNL     1      97.713  83.276  80.379  1.00  0.00     0.009 A 
BRANCH   9  14
ATOM     14  O   UNL     1      99.805  83.288  76.751  1.00  0.00    -0.493 OA
ATOM     15  C   UNL     1     100.593  82.099  76.571  1.00  0.00     0.278 C 
ENDBRANCH   9  14
BRANCH  10  16
ATOM     16  O   UNL     1      97.105  84.063  76.849  1.00  0.00    -0.504 OA
ATOM     17  H   UNL     1      96.195  84.280  77.068  1.00  0.00     0.293 HD
ENDBRANCH  10  16
ENDBRANCH   7   8
ENDBRANCH   4   7
ENDBRANCH   2   3
ENDBRANCH   1   2
BRANCH   1  18
ATOM     18  C   UNL     1      96.402  80.823  86.312  1.00  0.00     0.001 C 
BRANCH  18  19
ATOM     19  C   UNL     1      95.460  81.800  87.060  1.00  0.00     0.004 C 
BRANCH  19  20
ATOM     20  C   UNL     1      94.161  82.066  86.251  1.00  0.00     0.027 C 
BRANCH  20  21
ATOM     21  C   UNL     1      92.964  82.136  87.072  1.00  0.00    -0.031 C 
ATOM     22  C   UNL     1      91.743  81.844  86.590  1.00  0.00    -0.028 C 
BRANCH  22  23
ATOM     23  C   UNL     1      90.523  81.899  87.391  1.00  0.00     0.005 C 
ATOM     24  C   UNL     1      89.277  81.967  86.469  1.00  0.00     0.012 C 
ATOM     25  C   UNL     1      90.467  80.694  88.369  1.00  0.00     0.012 C 
ENDBRANCH  22  23
ENDBRANCH  20  21
ENDBRANCH  19  20
ENDBRANCH  18  19
ENDBRANCH   1  18
TORSDOF 11
ENDMDL
MODEL 7
REMARK VINA RESULT:    -5.793     30.013     32.575
REMARK INTER + INTRA:         -10.109
REMARK INTER:                  -7.978
REMARK INTRA:                  -2.131
REMARK UNBOUND:                -0.761
REMARK SMILES COc1cc(CNC(=O)CCCCC/C=C/C(C)C)ccc1O
REMARK SMILES IDX 11 1 10 2 8 3 7 4 9 6 6 7 5 8 3 9 22 10 4 11 21 12 20 13
REMARK SMILES IDX 2 14 1 15 23 16 12 18 13 19 14 20 15 21 16 22 17 23 18 24
REMARK SMILES IDX 19 25
REMARK H PARENT 7 5 23 17
REMARK Flexibility Score: inf
ROOT
ATOM      1  C   UNL     1      64.612  82.298  71.935  1.00  0.00     0.010 C 
ENDROOT
BRANCH   1   2
ATOM      2  C   UNL     1      63.912  81.286  72.878  1.00  0.00     0.100 C 
BRANCH   2   3
ATOM      3  C   UNL     1      62.692  81.809  73.521  1.00  0.00     0.220 C 
ATOM      4  N   UNL     1      62.686  83.068  74.041  1.00  0.00    -0.352 N 
ATOM      5  H   UNL     1      63.578  83.541  74.007  1.00  0.00     0.163 HD
ATOM      6  O   UNL     1      61.669  81.084  73.536  1.00  0.00    -0.275 OA
BRANCH   4   7
ATOM      7  C   UNL     1      61.552  83.728  74.600  1.00  0.00     0.151 C 
BRANCH   7   8
ATOM      8  C   UNL     1      61.252  85.019  73.927  1.00  0.00    -0.025 A 
ATOM      9  C   UNL     1      62.006  87.160  72.980  1.00  0.00     0.160 A 
ATOM     10  C   UNL     1      60.667  87.503  72.692  1.00  0.00     0.157 A 
ATOM     11  C   UNL     1      62.288  85.926  73.602  1.00  0.00     0.056 A 
ATOM     12  C   UNL     1      59.631  86.601  72.995  1.00  0.00     0.050 A 
ATOM     13  C   UNL     1      59.922  85.363  73.599  1.00  0.00     0.009 A 
BRANCH   9  14
ATOM     14  O   UNL     1      63.029  87.992  72.610  1.00  0.00    -0.493 OA
ATOM     15  C   UNL     1      63.990  87.386  71.729  1.00  0.00     0.278 C 
ENDBRANCH   9  14
BRANCH  10  16
ATOM     16  O   UNL     1      60.352  88.692  72.120  1.00  0.00    -0.504 OA
ATOM     17  H   UNL     1      61.106  89.284  72.176  1.00  0.00     0.293 HD
ENDBRANCH  10  16
ENDBRANCH   7   8
ENDBRANCH   4   7
ENDBRANCH   2   3
ENDBRANCH   1   2
BRANCH   1  18
ATOM     18  C   UNL     1      65.051  81.620  70.613  1.00  0.00     0.001 C 
BRANCH  18  19
ATOM     19  C   UNL     1      64.600  82.382  69.341  1.00  0.00     0.004 C 
BRANCH  19  20
ATOM     20  C   UNL     1      63.178  81.944  68.892  1.00  0.00     0.027 C 
BRANCH  20  21
ATOM     21  C   UNL     1      62.181  82.994  69.003  1.00  0.00    -0.031 C 
ATOM     22  C   UNL     1      62.221  83.925  69.973  1.00  0.00    -0.028 C 
BRANCH  22  23
ATOM     23  C   UNL     1      61.238  84.996  70.109  1.00  0.00     0.005 C 
ATOM     24  C   UNL     1      61.584  86.168  69.152  1.00  0.00     0.012 C 
ATOM     25  C   UNL     1      59.806  84.443  69.871  1.00  0.00     0.012 C 
ENDBRANCH  22  23
ENDBRANCH  20  21
ENDBRANCH  19  20
ENDBRANCH  18  19
ENDBRANCH   1  18
TORSDOF 11
ENDMDL
MODEL 8
REMARK VINA RESULT:    -5.729     18.803     20.739
REMARK INTER + INTRA:         -10.006
REMARK INTER:                  -9.377
REMARK INTRA:                  -0.629
REMARK UNBOUND:                -0.761
REMARK SMILES COc1cc(CNC(=O)CCCCC/C=C/C(C)C)ccc1O
REMARK SMILES IDX 11 1 10 2 8 3 7 4 9 6 6 7 5 8 3 9 22 10 4 11 21 12 20 13
REMARK SMILES IDX 2 14 1 15 23 16 12 18 13 19 14 20 15 21 16 22 17 23 18 24
REMARK SMILES IDX 19 25
REMARK H PARENT 7 5 23 17
REMARK Flexibility Score: inf
ROOT
ATOM      1  C   UNL     1      96.992  83.587  85.263  1.00  0.00     0.010 C 
ENDROOT
BRANCH   1   2
ATOM      2  C   UNL     1      96.186  84.866  85.607  1.00  0.00     0.100 C 
BRANCH   2   3
ATOM      3  C   UNL     1      95.478  84.799  86.899  1.00  0.00     0.220 C 
ATOM      4  N   UNL     1      94.117  84.841  86.929  1.00  0.00    -0.352 N 
ATOM      5  H   UNL     1      93.680  84.993  86.030  1.00  0.00     0.163 HD
ATOM      6  O   UNL     1      96.157  84.663  87.944  1.00  0.00    -0.275 OA
BRANCH   4   7
ATOM      7  C   UNL     1      93.308  84.689  88.094  1.00  0.00     0.151 C 
BRANCH   7   8
ATOM      8  C   UNL     1      92.255  83.654  87.929  1.00  0.00    -0.025 A 
ATOM      9  C   UNL     1      91.392  81.647  86.799  1.00  0.00     0.160 A 
ATOM     10  C   UNL     1      90.219  81.712  87.582  1.00  0.00     0.157 A 
ATOM     11  C   UNL     1      92.396  82.621  86.972  1.00  0.00     0.056 A 
ATOM     12  C   UNL     1      90.076  82.724  88.549  1.00  0.00     0.050 A 
ATOM     13  C   UNL     1      91.091  83.682  88.728  1.00  0.00     0.009 A 
BRANCH   9  14
ATOM     14  O   UNL     1      91.580  80.615  85.918  1.00  0.00    -0.493 OA
ATOM     15  C   UNL     1      92.300  79.499  86.465  1.00  0.00     0.278 C 
ENDBRANCH   9  14
BRANCH  10  16
ATOM     16  O   UNL     1      89.217  80.811  87.427  1.00  0.00    -0.504 OA
ATOM     17  H   UNL     1      89.579  79.922  87.456  1.00  0.00     0.293 HD
ENDBRANCH  10  16
ENDBRANCH   7   8
ENDBRANCH   4   7
ENDBRANCH   2   3
ENDBRANCH   1   2
BRANCH   1  18
ATOM     18  C   UNL     1      97.371  83.552  83.760  1.00  0.00     0.001 C 
BRANCH  18  19
ATOM     19  C   UNL     1      98.162  82.285  83.346  1.00  0.00     0.004 C 
BRANCH  19  20
ATOM     20  C   UNL     1      99.284  82.626  82.326  1.00  0.00     0.027 C 
BRANCH  20  21
ATOM     21  C   UNL     1      98.911  82.378  80.943  1.00  0.00    -0.031 C 
ATOM     22  C   UNL     1      99.434  83.079  79.921  1.00  0.00    -0.028 C 
BRANCH  22  23
ATOM     23  C   UNL     1      99.085  82.851  78.521  1.00  0.00     0.005 C 
ATOM     24  C   UNL     1     100.277  83.228  77.601  1.00  0.00     0.012 C 
ATOM     25  C   UNL     1      98.623  81.382  78.316  1.00  0.00     0.012 C 
ENDBRANCH  22  23
ENDBRANCH  20  21
ENDBRANCH  19  20
ENDBRANCH  18  19
ENDBRANCH   1  18
TORSDOF 11
ENDMDL
MODEL 9
REMARK VINA RESULT:    -5.688     19.295     22.102
REMARK INTER + INTRA:          -9.941
REMARK INTER:                  -7.679
REMARK INTRA:                  -2.261
REMARK UNBOUND:                -0.761
REMARK SMILES COc1cc(CNC(=O)CCCCC/C=C/C(C)C)ccc1O
REMARK SMILES IDX 11 1 10 2 8 3 7 4 9 6 6 7 5 8 3 9 22 10 4 11 21 12 20 13
REMARK SMILES IDX 2 14 1 15 23 16 12 18 13 19 14 20 15 21 16 22 17 23 18 24
REMARK SMILES IDX 19 25
REMARK H PARENT 7 5 23 17
REMARK Flexibility Score: inf
ROOT
ATOM      1  C   UNL     1      75.340  81.038  65.913  1.00  0.00     0.010 C 
ENDROOT
BRANCH   1   2
ATOM      2  C   UNL     1      73.988  81.329  65.212  1.00  0.00     0.100 C 
BRANCH   2   3
ATOM      3  C   UNL     1      73.132  82.288  65.935  1.00  0.00     0.220 C 
ATOM      4  N   UNL     1      73.699  83.278  66.678  1.00  0.00    -0.352 N 
ATOM      5  H   UNL     1      74.707  83.236  66.736  1.00  0.00     0.163 HD
ATOM      6  O   UNL     1      71.888  82.186  65.812  1.00  0.00    -0.275 OA
BRANCH   4   7
ATOM      7  C   UNL     1      72.993  84.323  67.344  1.00  0.00     0.151 C 
BRANCH   7   8
ATOM      8  C   UNL     1      73.715  85.621  67.298  1.00  0.00    -0.025 A 
ATOM      9  C   UNL     1      74.434  87.705  68.388  1.00  0.00     0.160 A 
ATOM     10  C   UNL     1      75.049  88.121  67.187  1.00  0.00     0.157 A 
ATOM     11  C   UNL     1      73.765  86.465  68.432  1.00  0.00     0.056 A 
ATOM     12  C   UNL     1      75.019  87.282  66.058  1.00  0.00     0.050 A 
ATOM     13  C   UNL     1      74.367  86.037  66.116  1.00  0.00     0.009 A 
BRANCH   9  14
ATOM     14  O   UNL     1      74.532  88.474  69.518  1.00  0.00    -0.493 OA
ATOM     15  C   UNL     1      74.250  87.766  70.736  1.00  0.00     0.278 C 
ENDBRANCH   9  14
BRANCH  10  16
ATOM     16  O   UNL     1      75.677  89.319  67.094  1.00  0.00    -0.504 OA
ATOM     17  H   UNL     1      76.485  89.218  66.583  1.00  0.00     0.293 HD
ENDBRANCH  10  16
ENDBRANCH   7   8
ENDBRANCH   4   7
ENDBRANCH   2   3
ENDBRANCH   1   2
BRANCH   1  18
ATOM     18  C   UNL     1      76.488  81.868  65.283  1.00  0.00     0.001 C 
BRANCH  18  19
ATOM     19  C   UNL     1      77.471  82.462  66.323  1.00  0.00     0.004 C 
BRANCH  19  20
ATOM     20  C   UNL     1      77.700  83.981  66.083  1.00  0.00     0.027 C 
BRANCH  20  21
ATOM     21  C   UNL     1      77.635  84.780  67.295  1.00  0.00    -0.031 C 
ATOM     22  C   UNL     1      76.915  84.404  68.367  1.00  0.00    -0.028 C 
BRANCH  22  23
ATOM     23  C   UNL     1      76.834  85.181  69.601  1.00  0.00     0.005 C 
ATOM     24  C   UNL     1      77.169  84.286  70.823  1.00  0.00     0.012 C 
ATOM     25  C   UNL     1      77.756  86.427  69.512  1.00  0.00     0.012 C 
ENDBRANCH  22  23
ENDBRANCH  20  21
ENDBRANCH  19  20
ENDBRANCH  18  19
ENDBRANCH   1  18
TORSDOF 11
ENDMDL
MODEL 10
REMARK VINA RESULT:    -5.666      4.848      7.618
REMARK INTER + INTRA:          -9.904
REMARK INTER:                  -7.391
REMARK INTRA:                  -2.514
REMARK UNBOUND:                -0.761
REMARK SMILES COc1cc(CNC(=O)CCCCC/C=C/C(C)C)ccc1O
REMARK SMILES IDX 11 1 10 2 8 3 7 4 9 6 6 7 5 8 3 9 22 10 4 11 21 12 20 13
REMARK SMILES IDX 2 14 1 15 23 16 12 18 13 19 14 20 15 21 16 22 17 23 18 24
REMARK SMILES IDX 19 25
REMARK H PARENT 7 5 23 17
REMARK Flexibility Score: inf
ROOT
ATOM      1  C   UNL     1      88.215  99.683  68.042  1.00  0.00     0.010 C 
ENDROOT
BRANCH   1   2
ATOM      2  C   UNL     1      89.559 100.205  67.472  1.00  0.00     0.100 C 
BRANCH   2   3
ATOM      3  C   UNL     1      89.884 101.587  67.871  1.00  0.00     0.220 C 
ATOM      4  N   UNL     1      89.002 102.299  68.626  1.00  0.00    -0.352 N 
ATOM      5  H   UNL     1      88.124 101.831  68.803  1.00  0.00     0.163 HD
ATOM      6  O   UNL     1      90.995 102.059  67.533  1.00  0.00    -0.275 OA
BRANCH   4   7
ATOM      7  C   UNL     1      89.231 103.603  69.159  1.00  0.00     0.151 C 
BRANCH   7   8
ATOM      8  C   UNL     1      89.633 103.574  70.589  1.00  0.00    -0.025 A 
ATOM      9  C   UNL     1      91.254 104.096  72.363  1.00  0.00     0.160 A 
ATOM     10  C   UNL     1      90.418 103.466  73.311  1.00  0.00     0.157 A 
ATOM     11  C   UNL     1      90.860 104.137  71.010  1.00  0.00     0.056 A 
ATOM     12  C   UNL     1      89.188 102.918  72.906  1.00  0.00     0.050 A 
ATOM     13  C   UNL     1      88.793 102.980  71.557  1.00  0.00     0.009 A 
BRANCH   9  14
ATOM     14  O   UNL     1      92.412 104.710  72.761  1.00  0.00    -0.493 OA
ATOM     15  C   UNL     1      93.568 103.857  72.736  1.00  0.00     0.278 C 
ENDBRANCH   9  14
BRANCH  10  16
ATOM     16  O   UNL     1      90.773 103.381  74.618  1.00  0.00    -0.504 OA
ATOM     17  H   UNL     1      91.097 104.234  74.918  1.00  0.00     0.293 HD
ENDBRANCH  10  16
ENDBRANCH   7   8
ENDBRANCH   4   7
ENDBRANCH   2   3
ENDBRANCH   1   2
BRANCH   1  18
ATOM     18  C   UNL     1      88.213  98.136  68.142  1.00  0.00     0.001 C 
BRANCH  18  19
ATOM     19  C   UNL     1      89.440  97.558  68.892  1.00  0.00     0.004 C 
BRANCH  19  20
ATOM     20  C   UNL     1      89.223  97.576  70.431  1.00  0.00     0.027 C 
BRANCH  20  21
ATOM     21  C   UNL     1      89.796  98.739  71.087  1.00  0.00    -0.031 C 
ATOM     22  C   UNL     1      90.941  99.309  70.671  1.00  0.00    -0.028 C 
BRANCH  22  23
ATOM     23  C   UNL     1      91.539 100.481  71.306  1.00  0.00     0.005 C 
ATOM     24  C   UNL     1      91.976 100.143  72.756  1.00  0.00     0.012 C 
ATOM     25  C   UNL     1      92.715 101.016  70.444  1.00  0.00     0.012 C 
ENDBRANCH  22  23
ENDBRANCH  20  21
ENDBRANCH  19  20
ENDBRANCH  18  19
ENDBRANCH   1  18
TORSDOF 11
ENDMDL
