MODEL 1
REMARK VINA RESULT:    -6.090      0.000      0.000
REMARK INTER + INTRA:         -10.317
REMARK INTER:                  -9.828
REMARK INTRA:                  -0.489
REMARK UNBOUND:                -0.489
REMARK SMILES CCCCCCCCC(=O)NCc1ccc(O)c(OC)c1
REMARK SMILES IDX 7 1 6 2 5 3 4 4 3 5 2 6 1 7 8 8 9 9 10 10 11 11 12 13 13 14
REMARK SMILES IDX 21 15 14 16 18 17 15 18 16 19 19 20 20 21 17 22
REMARK H PARENT 11 12 17 23
REMARK Flexibility Score: inf
ROOT
ATOM      1  C   UNL     1      78.558  64.753  69.285  1.00  0.00     0.010 C 
ENDROOT
BRANCH   1   2
ATOM      2  C   UNL     1      77.916  63.392  68.889  1.00  0.00     0.001 C 
BRANCH   2   3
ATOM      3  C   UNL     1      77.585  63.317  67.370  1.00  0.00     0.000 C 
BRANCH   3   4
ATOM      4  C   UNL     1      76.062  63.265  67.062  1.00  0.00    -0.000 C 
BRANCH   4   5
ATOM      5  C   UNL     1      75.208  64.007  68.129  1.00  0.00    -0.000 C 
BRANCH   5   6
ATOM      6  C   UNL     1      75.246  65.549  67.955  1.00  0.00    -0.003 C 
ATOM      7  C   UNL     1      75.645  65.983  66.527  1.00  0.00     0.004 C 
ENDBRANCH   5   6
ENDBRANCH   4   5
ENDBRANCH   3   4
ENDBRANCH   2   3
ENDBRANCH   1   2
BRANCH   1   8
ATOM      8  C   UNL     1      79.870  64.615  70.107  1.00  0.00     0.100 C 
BRANCH   8   9
ATOM      9  C   UNL     1      79.998  65.703  71.106  1.00  0.00     0.220 C 
ATOM     10  O   UNL     1      79.140  66.618  71.103  1.00  0.00    -0.275 OA
ATOM     11  N   UNL     1      81.011  65.689  72.022  1.00  0.00    -0.352 N 
ATOM     12  H   UNL     1      81.692  64.957  71.879  1.00  0.00     0.163 HD
BRANCH  11  13
ATOM     13  C   UNL     1      81.160  66.597  73.117  1.00  0.00     0.151 C 
BRANCH  13  14
ATOM     14  C   UNL     1      82.546  66.669  73.654  1.00  0.00    -0.025 A 
ATOM     15  C   UNL     1      83.356  67.799  73.386  1.00  0.00     0.056 A 
ATOM     16  C   UNL     1      83.078  65.617  74.434  1.00  0.00     0.009 A 
ATOM     17  C   UNL     1      84.668  67.889  73.904  1.00  0.00     0.160 A 
ATOM     18  C   UNL     1      84.383  65.701  74.953  1.00  0.00     0.050 A 
ATOM     19  C   UNL     1      85.182  66.829  74.685  1.00  0.00     0.157 A 
BRANCH  17  20
ATOM     20  O   UNL     1      85.466  68.965  73.609  1.00  0.00    -0.493 OA
ATOM     21  C   UNL     1      85.792  69.091  72.213  1.00  0.00     0.278 C 
ENDBRANCH  17  20
BRANCH  19  22
ATOM     22  O   UNL     1      86.449  66.888  75.167  1.00  0.00    -0.504 OA
ATOM     23  H   UNL     1      86.519  66.338  75.951  1.00  0.00     0.293 HD
ENDBRANCH  19  22
ENDBRANCH  13  14
ENDBRANCH  11  13
ENDBRANCH   8   9
ENDBRANCH   1   8
TORSDOF 11
ENDMDL
MODEL 2
REMARK VINA RESULT:    -5.856     30.662     34.159
REMARK INTER + INTRA:          -9.940
REMARK INTER:                  -8.947
REMARK INTRA:                  -0.993
REMARK UNBOUND:                -0.489
REMARK SMILES CCCCCCCCC(=O)NCc1ccc(O)c(OC)c1
REMARK SMILES IDX 7 1 6 2 5 3 4 4 3 5 2 6 1 7 8 8 9 9 10 10 11 11 12 13 13 14
REMARK SMILES IDX 21 15 14 16 18 17 15 18 16 19 19 20 20 21 17 22
REMARK H PARENT 11 12 17 23
REMARK Flexibility Score: inf
ROOT
ATOM      1  C   UNL     1      94.073  96.502  74.395  1.00  0.00     0.010 C 
ENDROOT
BRANCH   1   2
ATOM      2  C   UNL     1      93.560  95.435  75.404  1.00  0.00     0.001 C 
BRANCH   2   3
ATOM      3  C   UNL     1      92.705  96.064  76.543  1.00  0.00     0.000 C 
BRANCH   3   4
ATOM      4  C   UNL     1      91.987  95.016  77.440  1.00  0.00    -0.000 C 
BRANCH   4   5
ATOM      5  C   UNL     1      90.562  94.662  76.927  1.00  0.00    -0.000 C 
BRANCH   5   6
ATOM      6  C   UNL     1      90.551  93.403  76.018  1.00  0.00    -0.003 C 
ATOM      7  C   UNL     1      90.274  93.735  74.536  1.00  0.00     0.004 C 
ENDBRANCH   5   6
ENDBRANCH   4   5
ENDBRANCH   3   4
ENDBRANCH   2   3
ENDBRANCH   1   2
BRANCH   1   8
ATOM      8  C   UNL     1      94.378  97.883  75.040  1.00  0.00     0.100 C 
BRANCH   8   9
ATOM      9  C   UNL     1      95.759  97.934  75.577  1.00  0.00     0.220 C 
ATOM     10  O   UNL     1      96.705  98.102  74.770  1.00  0.00    -0.275 OA
ATOM     11  N   UNL     1      95.987  97.830  76.919  1.00  0.00    -0.352 N 
ATOM     12  H   UNL     1      95.167  97.612  77.466  1.00  0.00     0.163 HD
BRANCH  11  13
ATOM     13  C   UNL     1      97.250  98.005  77.569  1.00  0.00     0.151 C 
BRANCH  13  14
ATOM     14  C   UNL     1      97.358  97.297  78.873  1.00  0.00    -0.025 A 
ATOM     15  C   UNL     1      96.346  96.395  79.280  1.00  0.00     0.056 A 
ATOM     16  C   UNL     1      98.464  97.513  79.727  1.00  0.00     0.009 A 
ATOM     17  C   UNL     1      96.444  95.702  80.508  1.00  0.00     0.160 A 
ATOM     18  C   UNL     1      98.568  96.826  80.950  1.00  0.00     0.050 A 
ATOM     19  C   UNL     1      97.559  95.928  81.347  1.00  0.00     0.157 A 
BRANCH  17  20
ATOM     20  O   UNL     1      95.442  94.860  80.920  1.00  0.00    -0.493 OA
ATOM     21  C   UNL     1      94.705  94.252  79.845  1.00  0.00     0.278 C 
ENDBRANCH  17  20
BRANCH  19  22
ATOM     22  O   UNL     1      97.654  95.290  82.542  1.00  0.00    -0.504 OA
ATOM     23  H   UNL     1      96.778  95.032  82.838  1.00  0.00     0.293 HD
ENDBRANCH  19  22
ENDBRANCH  13  14
ENDBRANCH  11  13
ENDBRANCH   8   9
ENDBRANCH   1   8
TORSDOF 11
ENDMDL
MODEL 3
REMARK VINA RESULT:    -5.820     29.245     33.539
REMARK INTER + INTRA:          -9.882
REMARK INTER:                  -9.201
REMARK INTRA:                  -0.681
REMARK UNBOUND:                -0.489
REMARK SMILES CCCCCCCCC(=O)NCc1ccc(O)c(OC)c1
REMARK SMILES IDX 7 1 6 2 5 3 4 4 3 5 2 6 1 7 8 8 9 9 10 10 11 11 12 13 13 14
REMARK SMILES IDX 21 15 14 16 18 17 15 18 16 19 19 20 20 21 17 22
REMARK H PARENT 11 12 17 23
REMARK Flexibility Score: inf
ROOT
ATOM      1  C   UNL     1      93.294  95.342  75.492  1.00  0.00     0.010 C 
ENDROOT
BRANCH   1   2
ATOM      2  C   UNL     1      91.898  94.806  75.064  1.00  0.00     0.001 C 
BRANCH   2   3
ATOM      3  C   UNL     1      90.782  95.190  76.080  1.00  0.00     0.000 C 
BRANCH   3   4
ATOM      4  C   UNL     1      89.721  94.075  76.298  1.00  0.00    -0.000 C 
BRANCH   4   5
ATOM      5  C   UNL     1      90.334  92.646  76.248  1.00  0.00    -0.000 C 
BRANCH   5   6
ATOM      6  C   UNL     1      89.834  91.826  75.028  1.00  0.00    -0.003 C 
ATOM      7  C   UNL     1      89.556  90.347  75.372  1.00  0.00     0.004 C 
ENDBRANCH   5   6
ENDBRANCH   4   5
ENDBRANCH   3   4
ENDBRANCH   2   3
ENDBRANCH   1   2
BRANCH   1   8
ATOM      8  C   UNL     1      93.560  95.255  77.021  1.00  0.00     0.100 C 
BRANCH   8   9
ATOM      9  C   UNL     1      94.501  96.311  77.467  1.00  0.00     0.220 C 
ATOM     10  O   UNL     1      94.094  97.497  77.495  1.00  0.00    -0.275 OA
ATOM     11  N   UNL     1      95.768  95.989  77.862  1.00  0.00    -0.352 N 
ATOM     12  H   UNL     1      96.018  95.022  77.716  1.00  0.00     0.163 HD
BRANCH  11  13
ATOM     13  C   UNL     1      96.716  96.890  78.441  1.00  0.00     0.151 C 
BRANCH  13  14
ATOM     14  C   UNL     1      97.114  96.534  79.830  1.00  0.00    -0.025 A 
ATOM     15  C   UNL     1      98.278  97.098  80.404  1.00  0.00     0.056 A 
ATOM     16  C   UNL     1      96.344  95.629  80.596  1.00  0.00     0.009 A 
ATOM     17  C   UNL     1      98.658  96.782  81.729  1.00  0.00     0.160 A 
ATOM     18  C   UNL     1      96.716  95.312  81.915  1.00  0.00     0.050 A 
ATOM     19  C   UNL     1      97.874  95.878  82.481  1.00  0.00     0.157 A 
BRANCH  17  20
ATOM     20  O   UNL     1      99.810  97.296  82.270  1.00  0.00    -0.493 OA
ATOM     21  C   UNL     1     100.900  97.405  81.338  1.00  0.00     0.278 C 
ENDBRANCH  17  20
BRANCH  19  22
ATOM     22  O   UNL     1      98.240  95.544  83.745  1.00  0.00    -0.504 OA
ATOM     23  H   UNL     1      97.491  95.654  84.335  1.00  0.00     0.293 HD
ENDBRANCH  19  22
ENDBRANCH  13  14
ENDBRANCH  11  13
ENDBRANCH   8   9
ENDBRANCH   1   8
TORSDOF 11
ENDMDL
MODEL 4
REMARK VINA RESULT:    -5.801     24.245     25.947
REMARK INTER + INTRA:          -9.851
REMARK INTER:                  -9.228
REMARK INTRA:                  -0.622
REMARK UNBOUND:                -0.489
REMARK SMILES CCCCCCCCC(=O)NCc1ccc(O)c(OC)c1
REMARK SMILES IDX 7 1 6 2 5 3 4 4 3 5 2 6 1 7 8 8 9 9 10 10 11 11 12 13 13 14
REMARK SMILES IDX 21 15 14 16 18 17 15 18 16 19 19 20 20 21 17 22
REMARK H PARENT 11 12 17 23
REMARK Flexibility Score: inf
ROOT
ATOM      1  C   UNL     1      98.379  82.893  77.873  1.00  0.00     0.010 C 
ENDROOT
BRANCH   1   2
ATOM      2  C   UNL     1      97.998  82.980  76.367  1.00  0.00     0.001 C 
BRANCH   2   3
ATOM      3  C   UNL     1      96.924  84.073  76.094  1.00  0.00     0.000 C 
BRANCH   3   4
ATOM      4  C   UNL     1      97.089  84.785  74.721  1.00  0.00    -0.000 C 
BRANCH   4   5
ATOM      5  C   UNL     1      97.787  83.887  73.660  1.00  0.00    -0.000 C 
BRANCH   5   6
ATOM      6  C   UNL     1      98.901  84.638  72.883  1.00  0.00    -0.003 C 
ATOM      7  C   UNL     1      99.723  85.589  73.782  1.00  0.00     0.004 C 
ENDBRANCH   5   6
ENDBRANCH   4   5
ENDBRANCH   3   4
ENDBRANCH   2   3
ENDBRANCH   1   2
BRANCH   1   8
ATOM      8  C   UNL     1      97.271  83.408  78.834  1.00  0.00     0.100 C 
BRANCH   8   9
ATOM      9  C   UNL     1      97.411  82.817  80.186  1.00  0.00     0.220 C 
ATOM     10  O   UNL     1      98.160  81.820  80.325  1.00  0.00    -0.275 OA
ATOM     11  N   UNL     1      96.761  83.366  81.254  1.00  0.00    -0.352 N 
ATOM     12  H   UNL     1      96.120  84.108  81.016  1.00  0.00     0.163 HD
BRANCH  11  13
ATOM     13  C   UNL     1      96.924  82.977  82.622  1.00  0.00     0.151 C 
BRANCH  13  14
ATOM     14  C   UNL     1      95.891  83.537  83.533  1.00  0.00    -0.025 A 
ATOM     15  C   UNL     1      94.805  82.735  83.957  1.00  0.00     0.056 A 
ATOM     16  C   UNL     1      95.971  84.873  83.988  1.00  0.00     0.009 A 
ATOM     17  C   UNL     1      93.824  83.249  84.837  1.00  0.00     0.160 A 
ATOM     18  C   UNL     1      95.000  85.390  84.865  1.00  0.00     0.050 A 
ATOM     19  C   UNL     1      93.923  84.585  85.285  1.00  0.00     0.157 A 
BRANCH  17  20
ATOM     20  O   UNL     1      92.750  82.483  85.213  1.00  0.00    -0.493 OA
ATOM     21  C   UNL     1      92.808  81.121  84.755  1.00  0.00     0.278 C 
ENDBRANCH  17  20
BRANCH  19  22
ATOM     22  O   UNL     1      92.976  85.101  86.109  1.00  0.00    -0.504 OA
ATOM     23  H   UNL     1      92.138  84.661  85.948  1.00  0.00     0.293 HD
ENDBRANCH  19  22
ENDBRANCH  13  14
ENDBRANCH  11  13
ENDBRANCH   8   9
ENDBRANCH   1   8
TORSDOF 11
ENDMDL
MODEL 5
REMARK VINA RESULT:    -5.745     21.281     23.086
REMARK INTER + INTRA:          -9.760
REMARK INTER:                  -8.057
REMARK INTRA:                  -1.703
REMARK UNBOUND:                -0.489
REMARK SMILES CCCCCCCCC(=O)NCc1ccc(O)c(OC)c1
REMARK SMILES IDX 7 1 6 2 5 3 4 4 3 5 2 6 1 7 8 8 9 9 10 10 11 11 12 13 13 14
REMARK SMILES IDX 21 15 14 16 18 17 15 18 16 19 19 20 20 21 17 22
REMARK H PARENT 11 12 17 23
REMARK Flexibility Score: inf
ROOT
ATOM      1  C   UNL     1      72.191  89.611  69.622  1.00  0.00     0.010 C 
ENDROOT
BRANCH   1   2
ATOM      2  C   UNL     1      73.299  89.658  70.714  1.00  0.00     0.001 C 
BRANCH   2   3
ATOM      3  C   UNL     1      74.663  90.153  70.147  1.00  0.00     0.000 C 
BRANCH   3   4
ATOM      4  C   UNL     1      75.346  89.140  69.185  1.00  0.00    -0.000 C 
BRANCH   4   5
ATOM      5  C   UNL     1      75.342  89.621  67.706  1.00  0.00    -0.000 C 
BRANCH   5   6
ATOM      6  C   UNL     1      76.694  89.355  66.990  1.00  0.00    -0.003 C 
ATOM      7  C   UNL     1      77.554  88.292  67.707  1.00  0.00     0.004 C 
ENDBRANCH   5   6
ENDBRANCH   4   5
ENDBRANCH   3   4
ENDBRANCH   2   3
ENDBRANCH   1   2
BRANCH   1   8
ATOM      8  C   UNL     1      71.145  88.481  69.836  1.00  0.00     0.100 C 
BRANCH   8   9
ATOM      9  C   UNL     1      71.372  87.352  68.901  1.00  0.00     0.220 C 
ATOM     10  O   UNL     1      70.559  86.397  68.912  1.00  0.00    -0.275 OA
ATOM     11  N   UNL     1      72.426  87.372  68.032  1.00  0.00    -0.352 N 
ATOM     12  H   UNL     1      73.064  88.142  68.167  1.00  0.00     0.163 HD
BRANCH  11  13
ATOM     13  C   UNL     1      72.670  86.419  66.993  1.00  0.00     0.151 C 
BRANCH  13  14
ATOM     14  C   UNL     1      74.051  85.868  66.995  1.00  0.00    -0.025 A 
ATOM     15  C   UNL     1      74.577  85.267  68.163  1.00  0.00     0.056 A 
ATOM     16  C   UNL     1      74.863  85.937  65.839  1.00  0.00     0.009 A 
ATOM     17  C   UNL     1      75.882  84.723  68.175  1.00  0.00     0.160 A 
ATOM     18  C   UNL     1      76.161  85.398  65.843  1.00  0.00     0.050 A 
ATOM     19  C   UNL     1      76.677  84.798  67.008  1.00  0.00     0.157 A 
BRANCH  17  20
ATOM     20  O   UNL     1      76.405  84.178  69.320  1.00  0.00    -0.493 OA
ATOM     21  C   UNL     1      75.774  84.634  70.530  1.00  0.00     0.278 C 
ENDBRANCH  17  20
BRANCH  19  22
ATOM     22  O   UNL     1      77.942  84.305  67.011  1.00  0.00    -0.504 OA
ATOM     23  H   UNL     1      78.553  84.993  67.283  1.00  0.00     0.293 HD
ENDBRANCH  19  22
ENDBRANCH  13  14
ENDBRANCH  11  13
ENDBRANCH   8   9
ENDBRANCH   1   8
TORSDOF 11
ENDMDL
MODEL 6
REMARK VINA RESULT:    -5.626     30.425     34.729
REMARK INTER + INTRA:          -9.568
REMARK INTER:                  -8.878
REMARK INTRA:                  -0.690
REMARK UNBOUND:                -0.489
REMARK SMILES CCCCCCCCC(=O)NCc1ccc(O)c(OC)c1
REMARK SMILES IDX 7 1 6 2 5 3 4 4 3 5 2 6 1 7 8 8 9 9 10 10 11 11 12 13 13 14
REMARK SMILES IDX 21 15 14 16 18 17 15 18 16 19 19 20 20 21 17 22
REMARK H PARENT 11 12 17 23
REMARK Flexibility Score: inf
ROOT
ATOM      1  C   UNL     1      93.765  96.139  77.926  1.00  0.00     0.010 C 
ENDROOT
BRANCH   1   2
ATOM      2  C   UNL     1      92.384  95.868  77.263  1.00  0.00     0.001 C 
BRANCH   2   3
ATOM      3  C   UNL     1      91.765  94.515  77.721  1.00  0.00     0.000 C 
BRANCH   3   4
ATOM      4  C   UNL     1      90.290  94.316  77.272  1.00  0.00    -0.000 C 
BRANCH   4   5
ATOM      5  C   UNL     1      89.920  92.818  77.075  1.00  0.00    -0.000 C 
BRANCH   5   6
ATOM      6  C   UNL     1      90.217  92.316  75.636  1.00  0.00    -0.003 C 
ATOM      7  C   UNL     1      90.152  93.442  74.581  1.00  0.00     0.004 C 
ENDBRANCH   5   6
ENDBRANCH   4   5
ENDBRANCH   3   4
ENDBRANCH   2   3
ENDBRANCH   1   2
BRANCH   1   8
ATOM      8  C   UNL     1      94.578  94.851  78.236  1.00  0.00     0.100 C 
BRANCH   8   9
ATOM      9  C   UNL     1      95.104  94.864  79.622  1.00  0.00     0.220 C 
ATOM     10  O   UNL     1      94.539  94.144  80.480  1.00  0.00    -0.275 OA
ATOM     11  N   UNL     1      96.194  95.621  79.943  1.00  0.00    -0.352 N 
ATOM     12  H   UNL     1      96.515  96.226  79.202  1.00  0.00     0.163 HD
BRANCH  11  13
ATOM     13  C   UNL     1      96.877  95.611  81.201  1.00  0.00     0.151 C 
BRANCH  13  14
ATOM     14  C   UNL     1      97.090  96.964  81.780  1.00  0.00    -0.025 A 
ATOM     15  C   UNL     1      98.097  97.172  82.754  1.00  0.00     0.056 A 
ATOM     16  C   UNL     1      96.296  98.061  81.376  1.00  0.00     0.009 A 
ATOM     17  C   UNL     1      98.323  98.456  83.301  1.00  0.00     0.160 A 
ATOM     18  C   UNL     1      96.516  99.341  81.915  1.00  0.00     0.050 A 
ATOM     19  C   UNL     1      97.521  99.541  82.881  1.00  0.00     0.157 A 
BRANCH  17  20
ATOM     20  O   UNL     1      99.270  98.646  84.275  1.00  0.00    -0.493 OA
ATOM     21  C   UNL     1     100.623  98.654  83.787  1.00  0.00     0.278 C 
ENDBRANCH  17  20
BRANCH  19  22
ATOM     22  O   UNL     1      97.708 100.775  83.416  1.00  0.00    -0.504 OA
ATOM     23  H   UNL     1      97.816 100.698  84.367  1.00  0.00     0.293 HD
ENDBRANCH  19  22
ENDBRANCH  13  14
ENDBRANCH  11  13
ENDBRANCH   8   9
ENDBRANCH   1   8
TORSDOF 11
ENDMDL
MODEL 7
REMARK VINA RESULT:    -5.554     22.334     26.231
REMARK INTER + INTRA:          -9.452
REMARK INTER:                  -8.640
REMARK INTRA:                  -0.811
REMARK UNBOUND:                -0.489
REMARK SMILES CCCCCCCCC(=O)NCc1ccc(O)c(OC)c1
REMARK SMILES IDX 7 1 6 2 5 3 4 4 3 5 2 6 1 7 8 8 9 9 10 10 11 11 12 13 13 14
REMARK SMILES IDX 21 15 14 16 18 17 15 18 16 19 19 20 20 21 17 22
REMARK H PARENT 11 12 17 23
REMARK Flexibility Score: inf
ROOT
ATOM      1  C   UNL     1      92.350  80.828  84.705  1.00  0.00     0.010 C 
ENDROOT
BRANCH   1   2
ATOM      2  C   UNL     1      91.086  79.931  84.570  1.00  0.00     0.001 C 
BRANCH   2   3
ATOM      3  C   UNL     1      90.036  80.535  83.592  1.00  0.00     0.000 C 
BRANCH   3   4
ATOM      4  C   UNL     1      88.617  80.685  84.211  1.00  0.00    -0.000 C 
BRANCH   4   5
ATOM      5  C   UNL     1      88.471  81.972  85.073  1.00  0.00    -0.000 C 
BRANCH   5   6
ATOM      6  C   UNL     1      87.689  83.095  84.340  1.00  0.00    -0.003 C 
ATOM      7  C   UNL     1      86.604  82.547  83.387  1.00  0.00     0.004 C 
ENDBRANCH   5   6
ENDBRANCH   4   5
ENDBRANCH   3   4
ENDBRANCH   2   3
ENDBRANCH   1   2
BRANCH   1   8
ATOM      8  C   UNL     1      92.072  82.343  84.490  1.00  0.00     0.100 C 
BRANCH   8   9
ATOM      9  C   UNL     1      93.092  83.180  85.166  1.00  0.00     0.220 C 
ATOM     10  O   UNL     1      94.173  82.641  85.508  1.00  0.00    -0.275 OA
ATOM     11  N   UNL     1      92.867  84.509  85.382  1.00  0.00    -0.352 N 
ATOM     12  H   UNL     1      91.935  84.818  85.148  1.00  0.00     0.163 HD
BRANCH  11  13
ATOM     13  C   UNL     1      93.821  85.446  85.892  1.00  0.00     0.151 C 
BRANCH  13  14
ATOM     14  C   UNL     1      93.616  85.793  87.324  1.00  0.00    -0.025 A 
ATOM     15  C   UNL     1      93.634  84.779  88.312  1.00  0.00     0.056 A 
ATOM     16  C   UNL     1      93.398  87.131  87.724  1.00  0.00     0.009 A 
ATOM     17  C   UNL     1      93.459  85.095  89.679  1.00  0.00     0.160 A 
ATOM     18  C   UNL     1      93.224  87.452  89.082  1.00  0.00     0.050 A 
ATOM     19  C   UNL     1      93.246  86.439  90.060  1.00  0.00     0.157 A 
BRANCH  17  20
ATOM     20  O   UNL     1      93.434  84.106  90.630  1.00  0.00    -0.493 OA
ATOM     21  C   UNL     1      94.722  83.531  90.915  1.00  0.00     0.278 C 
ENDBRANCH  17  20
BRANCH  19  22
ATOM     22  O   UNL     1      93.049  86.756  91.365  1.00  0.00    -0.504 OA
ATOM     23  H   UNL     1      92.244  86.337  91.678  1.00  0.00     0.293 HD
ENDBRANCH  19  22
ENDBRANCH  13  14
ENDBRANCH  11  13
ENDBRANCH   8   9
ENDBRANCH   1   8
TORSDOF 11
ENDMDL
MODEL 8
REMARK VINA RESULT:    -5.459     24.515     26.166
REMARK INTER + INTRA:          -9.299
REMARK INTER:                  -8.461
REMARK INTRA:                  -0.838
REMARK UNBOUND:                -0.489
REMARK SMILES CCCCCCCCC(=O)NCc1ccc(O)c(OC)c1
REMARK SMILES IDX 7 1 6 2 5 3 4 4 3 5 2 6 1 7 8 8 9 9 10 10 11 11 12 13 13 14
REMARK SMILES IDX 21 15 14 16 18 17 15 18 16 19 19 20 20 21 17 22
REMARK H PARENT 11 12 17 23
REMARK Flexibility Score: inf
ROOT
ATOM      1  C   UNL     1      97.670  81.748  77.886  1.00  0.00     0.010 C 
ENDROOT
BRANCH   1   2
ATOM      2  C   UNL     1      98.608  81.132  78.964  1.00  0.00     0.001 C 
BRANCH   2   3
ATOM      3  C   UNL     1      99.131  82.201  79.969  1.00  0.00     0.000 C 
BRANCH   3   4
ATOM      4  C   UNL     1      98.642  81.982  81.429  1.00  0.00    -0.000 C 
BRANCH   4   5
ATOM      5  C   UNL     1      97.347  81.124  81.505  1.00  0.00    -0.000 C 
BRANCH   5   6
ATOM      6  C   UNL     1      96.320  81.684  82.526  1.00  0.00    -0.003 C 
ATOM      7  C   UNL     1      96.355  83.225  82.627  1.00  0.00     0.004 C 
ENDBRANCH   5   6
ENDBRANCH   4   5
ENDBRANCH   3   4
ENDBRANCH   2   3
ENDBRANCH   1   2
BRANCH   1   8
ATOM      8  C   UNL     1      97.143  83.165  78.245  1.00  0.00     0.100 C 
BRANCH   8   9
ATOM      9  C   UNL     1      96.796  83.937  77.027  1.00  0.00     0.220 C 
ATOM     10  O   UNL     1      95.875  84.785  77.102  1.00  0.00    -0.275 OA
ATOM     11  N   UNL     1      97.486  83.744  75.864  1.00  0.00    -0.352 N 
ATOM     12  H   UNL     1      98.144  82.980  75.891  1.00  0.00     0.163 HD
BRANCH  11  13
ATOM     13  C   UNL     1      97.343  84.519  74.670  1.00  0.00     0.151 C 
BRANCH  13  14
ATOM     14  C   UNL     1      98.244  84.094  73.566  1.00  0.00    -0.025 A 
ATOM     15  C   UNL     1      99.213  84.989  73.052  1.00  0.00     0.056 A 
ATOM     16  C   UNL     1      98.149  82.798  73.008  1.00  0.00     0.009 A 
ATOM     17  C   UNL     1     100.087  84.593  72.014  1.00  0.00     0.160 A 
ATOM     18  C   UNL     1      99.016  82.397  71.977  1.00  0.00     0.050 A 
ATOM     19  C   UNL     1      99.980  83.292  71.473  1.00  0.00     0.157 A 
BRANCH  17  20
ATOM     20  O   UNL     1     100.998  85.475  71.489  1.00  0.00    -0.493 OA
ATOM     21  C   UNL     1     101.932  85.999  72.449  1.00  0.00     0.278 C 
ENDBRANCH  17  20
BRANCH  19  22
ATOM     22  O   UNL     1     100.795  82.905  70.458  1.00  0.00    -0.504 OA
ATOM     23  H   UNL     1     101.666  83.288  70.584  1.00  0.00     0.293 HD
ENDBRANCH  19  22
ENDBRANCH  13  14
ENDBRANCH  11  13
ENDBRANCH   8   9
ENDBRANCH   1   8
TORSDOF 11
ENDMDL
MODEL 9
REMARK VINA RESULT:    -5.435     24.806     26.499
REMARK INTER + INTRA:          -9.260
REMARK INTER:                  -8.312
REMARK INTRA:                  -0.948
REMARK UNBOUND:                -0.489
REMARK SMILES CCCCCCCCC(=O)NCc1ccc(O)c(OC)c1
REMARK SMILES IDX 7 1 6 2 5 3 4 4 3 5 2 6 1 7 8 8 9 9 10 10 11 11 12 13 13 14
REMARK SMILES IDX 21 15 14 16 18 17 15 18 16 19 19 20 20 21 17 22
REMARK H PARENT 11 12 17 23
REMARK Flexibility Score: inf
ROOT
ATOM      1  C   UNL     1      98.731  82.004  80.984  1.00  0.00     0.010 C 
ENDROOT
BRANCH   1   2
ATOM      2  C   UNL     1      98.144  81.633  82.376  1.00  0.00     0.001 C 
BRANCH   2   3
ATOM      3  C   UNL     1      96.620  81.319  82.308  1.00  0.00     0.000 C 
BRANCH   3   4
ATOM      4  C   UNL     1      95.745  82.271  83.172  1.00  0.00    -0.000 C 
BRANCH   4   5
ATOM      5  C   UNL     1      96.058  83.772  82.916  1.00  0.00    -0.000 C 
BRANCH   5   6
ATOM      6  C   UNL     1      96.242  84.576  84.232  1.00  0.00    -0.003 C 
ATOM      7  C   UNL     1      97.176  83.870  85.240  1.00  0.00     0.004 C 
ENDBRANCH   5   6
ENDBRANCH   4   5
ENDBRANCH   3   4
ENDBRANCH   2   3
ENDBRANCH   1   2
BRANCH   1   8
ATOM      8  C   UNL     1      97.816  81.614  79.790  1.00  0.00     0.100 C 
BRANCH   8   9
ATOM      9  C   UNL     1      97.402  82.807  79.014  1.00  0.00     0.220 C 
ATOM     10  O   UNL     1      97.158  83.868  79.638  1.00  0.00    -0.275 OA
ATOM     11  N   UNL     1      97.320  82.755  77.652  1.00  0.00    -0.352 N 
ATOM     12  H   UNL     1      97.452  81.834  77.261  1.00  0.00     0.163 HD
BRANCH  11  13
ATOM     13  C   UNL     1      97.072  83.867  76.786  1.00  0.00     0.151 C 
BRANCH  13  14
ATOM     14  C   UNL     1      97.900  83.864  75.551  1.00  0.00    -0.025 A 
ATOM     15  C   UNL     1      99.307  83.991  75.636  1.00  0.00     0.056 A 
ATOM     16  C   UNL     1      97.302  83.738  74.276  1.00  0.00     0.009 A 
ATOM     17  C   UNL     1     100.109  83.972  74.472  1.00  0.00     0.160 A 
ATOM     18  C   UNL     1      98.094  83.718  73.114  1.00  0.00     0.050 A 
ATOM     19  C   UNL     1      99.494  83.842  73.206  1.00  0.00     0.157 A 
BRANCH  17  20
ATOM     20  O   UNL     1     101.468  84.137  74.554  1.00  0.00    -0.493 OA
ATOM     21  C   UNL     1     101.879  85.467  74.918  1.00  0.00     0.278 C 
ENDBRANCH  17  20
BRANCH  19  22
ATOM     22  O   UNL     1     100.247  83.848  72.077  1.00  0.00    -0.504 OA
ATOM     23  H   UNL     1     100.886  84.564  72.123  1.00  0.00     0.293 HD
ENDBRANCH  19  22
ENDBRANCH  13  14
ENDBRANCH  11  13
ENDBRANCH   8   9
ENDBRANCH   1   8
TORSDOF 11
ENDMDL
MODEL 10
REMARK VINA RESULT:    -5.347     30.676     35.072
REMARK INTER + INTRA:          -9.119
REMARK INTER:                  -8.469
REMARK INTRA:                  -0.650
REMARK UNBOUND:                -0.489
REMARK SMILES CCCCCCCCC(=O)NCc1ccc(O)c(OC)c1
REMARK SMILES IDX 7 1 6 2 5 3 4 4 3 5 2 6 1 7 8 8 9 9 10 10 11 11 12 13 13 14
REMARK SMILES IDX 21 15 14 16 18 17 15 18 16 19 19 20 20 21 17 22
REMARK H PARENT 11 12 17 23
REMARK Flexibility Score: inf
ROOT
ATOM      1  C   UNL     1      94.564  97.332  77.352  1.00  0.00     0.010 C 
ENDROOT
BRANCH   1   2
ATOM      2  C   UNL     1      93.100  96.843  77.158  1.00  0.00     0.001 C 
BRANCH   2   3
ATOM      3  C   UNL     1      92.987  95.291  77.205  1.00  0.00     0.000 C 
BRANCH   3   4
ATOM      4  C   UNL     1      91.570  94.776  77.586  1.00  0.00    -0.000 C 
BRANCH   4   5
ATOM      5  C   UNL     1      90.533  94.970  76.443  1.00  0.00    -0.000 C 
BRANCH   5   6
ATOM      6  C   UNL     1      91.039  94.425  75.081  1.00  0.00    -0.003 C 
ATOM      7  C   UNL     1      90.736  92.923  74.886  1.00  0.00     0.004 C 
ENDBRANCH   5   6
ENDBRANCH   4   5
ENDBRANCH   3   4
ENDBRANCH   2   3
ENDBRANCH   1   2
BRANCH   1   8
ATOM      8  C   UNL     1      95.508  96.264  77.972  1.00  0.00     0.100 C 
BRANCH   8   9
ATOM      9  C   UNL     1      95.738  96.518  79.414  1.00  0.00     0.220 C 
ATOM     10  O   UNL     1      95.276  97.572  79.914  1.00  0.00    -0.275 OA
ATOM     11  N   UNL     1      96.412  95.610  80.180  1.00  0.00    -0.352 N 
ATOM     12  H   UNL     1      96.814  94.843  79.661  1.00  0.00     0.163 HD
BRANCH  11  13
ATOM     13  C   UNL     1      96.575  95.672  81.600  1.00  0.00     0.151 C 
BRANCH  13  14
ATOM     14  C   UNL     1      97.901  96.189  82.031  1.00  0.00    -0.025 A 
ATOM     15  C   UNL     1      98.651  97.029  81.174  1.00  0.00     0.056 A 
ATOM     16  C   UNL     1      98.438  95.850  83.295  1.00  0.00     0.009 A 
ATOM     17  C   UNL     1      99.905  97.542  81.577  1.00  0.00     0.160 A 
ATOM     18  C   UNL     1      99.684  96.358  83.702  1.00  0.00     0.050 A 
ATOM     19  C   UNL     1     100.423  97.196  82.845  1.00  0.00     0.157 A 
BRANCH  17  20
ATOM     20  O   UNL     1     100.649  98.323  80.728  1.00  0.00    -0.493 OA
ATOM     21  C   UNL     1     101.060  97.655  79.522  1.00  0.00     0.278 C 
ENDBRANCH  17  20
BRANCH  19  22
ATOM     22  O   UNL     1     101.638  97.659  83.236  1.00  0.00    -0.504 OA
ATOM     23  H   UNL     1     101.615  97.866  84.174  1.00  0.00     0.293 HD
ENDBRANCH  19  22
ENDBRANCH  13  14
ENDBRANCH  11  13
ENDBRANCH   8   9
ENDBRANCH   1   8
TORSDOF 11
ENDMDL
