MODEL 1
REMARK VINA RESULT:    -7.234      0.000      0.000
REMARK INTER + INTRA:          -8.904
REMARK INTER:                  -8.503
REMARK INTRA:                  -0.401
REMARK UNBOUND:                -0.401
REMARK SMILES O=C(/C=C/C=C/c1ccc2c(c1)OCO2)N1CCCCC1
REMARK SMILES IDX 3 1 4 2 2 3 1 4 16 5 17 6 21 7 18 8 20 9 19 10 5 11 6 12
REMARK SMILES IDX 7 13 12 14 8 15 11 16 9 17 13 18 10 19 14 20 15 21
REMARK H PARENT
REMARK Flexibility Score: inf
ROOT
ATOM      1  C   UNL     1      99.059  82.893  81.072  1.00  0.00     0.071 C 
ATOM      2  C   UNL     1      99.078  82.060  82.110  1.00  0.00     0.006 C 
ENDROOT
BRANCH   1   3
ATOM      3  C   UNL     1      99.863  82.543  79.885  1.00  0.00     0.246 C 
ATOM      4  O   UNL     1     100.869  81.854  80.062  1.00  0.00    -0.270 OA
ATOM      5  N   UNL     1      99.435  83.018  78.646  1.00  0.00    -0.339 N 
ATOM      6  C   UNL     1     100.217  82.691  77.450  1.00  0.00     0.120 C 
ATOM      7  C   UNL     1      98.269  83.879  78.402  1.00  0.00     0.120 C 
ATOM      8  C   UNL     1      99.342  82.072  76.365  1.00  0.00     0.022 C 
ATOM      9  C   UNL     1      97.367  83.293  77.315  1.00  0.00     0.022 C 
ATOM     10  C   UNL     1      98.150  82.969  76.046  1.00  0.00     0.004 C 
ENDBRANCH   1   3
BRANCH   2  11
ATOM     11  C   UNL     1      98.322  82.317  83.318  1.00  0.00     0.001 C 
ATOM     12  C   UNL     1      97.726  83.495  83.564  1.00  0.00     0.008 C 
BRANCH  12  13
ATOM     13  C   UNL     1      96.954  83.813  84.777  1.00  0.00    -0.022 A 
ATOM     14  C   UNL     1      96.872  85.133  85.200  1.00  0.00     0.058 A 
ATOM     15  C   UNL     1      96.324  82.776  85.471  1.00  0.00     0.012 A 
ATOM     16  C   UNL     1      96.137  85.380  86.341  1.00  0.00     0.166 A 
ATOM     17  C   UNL     1      95.586  83.055  86.623  1.00  0.00     0.051 A 
ATOM     18  O   UNL     1      95.940  86.600  86.914  1.00  0.00    -0.454 OA
ATOM     19  C   UNL     1      95.512  84.370  87.034  1.00  0.00     0.165 A 
ATOM     20  C   UNL     1      95.120  86.242  88.045  1.00  0.00     0.468 C 
ATOM     21  O   UNL     1      94.844  84.829  88.127  1.00  0.00    -0.454 OA
ENDBRANCH  12  13
ENDBRANCH   2  11
TORSDOF 3
ENDMDL
MODEL 2
REMARK VINA RESULT:    -7.067     23.972     26.184
REMARK INTER + INTRA:          -8.707
REMARK INTER:                  -8.278
REMARK INTRA:                  -0.429
REMARK UNBOUND:                -0.401
REMARK SMILES O=C(/C=C/C=C/c1ccc2c(c1)OCO2)N1CCCCC1
REMARK SMILES IDX 3 1 4 2 2 3 1 4 16 5 17 6 21 7 18 8 20 9 19 10 5 11 6 12
REMARK SMILES IDX 7 13 12 14 8 15 11 16 9 17 13 18 10 19 14 20 15 21
REMARK H PARENT
REMARK Flexibility Score: inf
ROOT
ATOM      1  C   UNL     1      75.753  91.589  71.200  1.00  0.00     0.071 C 
ATOM      2  C   UNL     1      74.787  90.695  71.405  1.00  0.00     0.006 C 
ENDROOT
BRANCH   1   3
ATOM      3  C   UNL     1      75.531  92.971  71.671  1.00  0.00     0.246 C 
ATOM      4  O   UNL     1      74.565  93.580  71.213  1.00  0.00    -0.270 OA
ATOM      5  N   UNL     1      76.433  93.493  72.598  1.00  0.00    -0.339 N 
ATOM      6  C   UNL     1      76.242  94.864  73.080  1.00  0.00     0.120 C 
ATOM      7  C   UNL     1      77.622  92.813  73.132  1.00  0.00     0.120 C 
ATOM      8  C   UNL     1      76.223  94.921  74.604  1.00  0.00     0.022 C 
ATOM      9  C   UNL     1      77.641  92.852  74.660  1.00  0.00     0.022 C 
ATOM     10  C   UNL     1      77.473  94.273  75.191  1.00  0.00     0.004 C 
ENDBRANCH   1   3
BRANCH   2  11
ATOM     11  C   UNL     1      74.911  89.317  70.979  1.00  0.00     0.001 C 
ATOM     12  C   UNL     1      76.012  88.840  70.376  1.00  0.00     0.008 C 
BRANCH  12  13
ATOM     13  C   UNL     1      76.188  87.452  69.916  1.00  0.00    -0.022 A 
ATOM     14  C   UNL     1      77.345  87.109  69.230  1.00  0.00     0.058 A 
ATOM     15  C   UNL     1      75.184  86.517  70.183  1.00  0.00     0.012 A 
ATOM     16  C   UNL     1      77.464  85.797  68.819  1.00  0.00     0.166 A 
ATOM     17  C   UNL     1      75.331  85.196  69.756  1.00  0.00     0.051 A 
ATOM     18  O   UNL     1      78.516  85.267  68.136  1.00  0.00    -0.454 OA
ATOM     19  C   UNL     1      76.484  84.866  69.075  1.00  0.00     0.165 A 
ATOM     20  C   UNL     1      78.087  83.898  67.991  1.00  0.00     0.468 C 
ATOM     21  O   UNL     1      76.799  83.636  68.584  1.00  0.00    -0.454 OA
ENDBRANCH  12  13
ENDBRANCH   2  11
TORSDOF 3
ENDMDL
MODEL 3
REMARK VINA RESULT:    -6.907      2.673      9.082
REMARK INTER + INTRA:          -8.520
REMARK INTER:                  -8.179
REMARK INTRA:                  -0.341
REMARK UNBOUND:                -0.401
REMARK SMILES O=C(/C=C/C=C/c1ccc2c(c1)OCO2)N1CCCCC1
REMARK SMILES IDX 3 1 4 2 2 3 1 4 16 5 17 6 21 7 18 8 20 9 19 10 5 11 6 12
REMARK SMILES IDX 7 13 12 14 8 15 11 16 9 17 13 18 10 19 14 20 15 21
REMARK H PARENT
REMARK Flexibility Score: inf
ROOT
ATOM      1  C   UNL     1      97.192  83.894  84.538  1.00  0.00     0.071 C 
ATOM      2  C   UNL     1      97.934  83.154  83.716  1.00  0.00     0.006 C 
ENDROOT
BRANCH   1   3
ATOM      3  C   UNL     1      97.438  83.778  85.989  1.00  0.00     0.246 C 
ATOM      4  O   UNL     1      98.420  84.362  86.448  1.00  0.00    -0.270 OA
ATOM      5  N   UNL     1      96.546  83.014  86.739  1.00  0.00    -0.339 N 
ATOM      6  C   UNL     1      96.767  82.876  88.182  1.00  0.00     0.120 C 
ATOM      7  C   UNL     1      95.391  82.267  86.220  1.00  0.00     0.120 C 
ATOM      8  C   UNL     1      95.518  83.248  88.975  1.00  0.00     0.022 C 
ATOM      9  C   UNL     1      94.117  82.610  86.993  1.00  0.00     0.022 C 
ATOM     10  C   UNL     1      94.310  82.448  88.498  1.00  0.00     0.004 C 
ENDBRANCH   1   3
BRANCH   2  11
ATOM     11  C   UNL     1      97.768  83.198  82.279  1.00  0.00     0.001 C 
ATOM     12  C   UNL     1      98.802  83.136  81.425  1.00  0.00     0.008 C 
BRANCH  12  13
ATOM     13  C   UNL     1      98.691  83.185  79.958  1.00  0.00    -0.022 A 
ATOM     14  C   UNL     1      99.788  82.831  79.184  1.00  0.00     0.058 A 
ATOM     15  C   UNL     1      97.482  83.586  79.383  1.00  0.00     0.012 A 
ATOM     16  C   UNL     1      99.634  82.893  77.815  1.00  0.00     0.166 A 
ATOM     17  C   UNL     1      97.354  83.639  77.994  1.00  0.00     0.051 A 
ATOM     18  O   UNL     1     100.587  82.589  76.890  1.00  0.00    -0.454 OA
ATOM     19  C   UNL     1      98.450  83.286  77.235  1.00  0.00     0.165 A 
ATOM     20  C   UNL     1      99.869  82.835  75.664  1.00  0.00     0.468 C 
ATOM     21  O   UNL     1      98.512  83.278  75.875  1.00  0.00    -0.454 OA
ENDBRANCH  12  13
ENDBRANCH   2  11
TORSDOF 3
ENDMDL
MODEL 4
REMARK VINA RESULT:    -6.897     24.988     26.155
REMARK INTER + INTRA:          -8.508
REMARK INTER:                  -8.123
REMARK INTRA:                  -0.385
REMARK UNBOUND:                -0.401
REMARK SMILES O=C(/C=C/C=C/c1ccc2c(c1)OCO2)N1CCCCC1
REMARK SMILES IDX 3 1 4 2 2 3 1 4 16 5 17 6 21 7 18 8 20 9 19 10 5 11 6 12
REMARK SMILES IDX 7 13 12 14 8 15 11 16 9 17 13 18 10 19 14 20 15 21
REMARK H PARENT
REMARK Flexibility Score: inf
ROOT
ATOM      1  C   UNL     1      76.804  85.511  68.464  1.00  0.00     0.071 C 
ATOM      2  C   UNL     1      77.480  86.591  68.851  1.00  0.00     0.006 C 
ENDROOT
BRANCH   1   3
ATOM      3  C   UNL     1      77.490  84.538  67.590  1.00  0.00     0.246 C 
ATOM      4  O   UNL     1      78.698  84.371  67.762  1.00  0.00    -0.270 OA
ATOM      5  N   UNL     1      76.727  83.879  66.628  1.00  0.00    -0.339 N 
ATOM      6  C   UNL     1      77.381  82.911  65.741  1.00  0.00     0.120 C 
ATOM      7  C   UNL     1      75.295  84.084  66.363  1.00  0.00     0.120 C 
ATOM      8  C   UNL     1      76.660  81.568  65.754  1.00  0.00     0.022 C 
ATOM      9  C   UNL     1      74.536  82.757  66.364  1.00  0.00     0.022 C 
ATOM     10  C   UNL     1      75.180  81.739  65.427  1.00  0.00     0.004 C 
ENDBRANCH   1   3
BRANCH   2  11
ATOM     11  C   UNL     1      76.893  87.600  69.707  1.00  0.00     0.001 C 
ATOM     12  C   UNL     1      75.568  87.725  69.879  1.00  0.00     0.008 C 
BRANCH  12  13
ATOM     13  C   UNL     1      74.919  88.737  70.730  1.00  0.00    -0.022 A 
ATOM     14  C   UNL     1      75.454  90.017  70.785  1.00  0.00     0.058 A 
ATOM     15  C   UNL     1      73.781  88.381  71.458  1.00  0.00     0.012 A 
ATOM     16  C   UNL     1      74.810  90.930  71.595  1.00  0.00     0.166 A 
ATOM     17  C   UNL     1      73.150  89.325  72.271  1.00  0.00     0.051 A 
ATOM     18  O   UNL     1      75.178  92.227  71.785  1.00  0.00    -0.454 OA
ATOM     19  C   UNL     1      73.689  90.594  72.319  1.00  0.00     0.165 A 
ATOM     20  C   UNL     1      74.162  92.669  72.708  1.00  0.00     0.468 C 
ATOM     21  O   UNL     1      73.214  91.637  73.051  1.00  0.00    -0.454 OA
ENDBRANCH  12  13
ENDBRANCH   2  11
TORSDOF 3
ENDMDL
MODEL 5
REMARK VINA RESULT:    -6.795      2.523      3.005
REMARK INTER + INTRA:          -8.387
REMARK INTER:                  -8.067
REMARK INTRA:                  -0.320
REMARK UNBOUND:                -0.401
REMARK SMILES O=C(/C=C/C=C/c1ccc2c(c1)OCO2)N1CCCCC1
REMARK SMILES IDX 3 1 4 2 2 3 1 4 16 5 17 6 21 7 18 8 20 9 19 10 5 11 6 12
REMARK SMILES IDX 7 13 12 14 8 15 11 16 9 17 13 18 10 19 14 20 15 21
REMARK H PARENT
REMARK Flexibility Score: inf
ROOT
ATOM      1  C   UNL     1      98.632  83.132  80.258  1.00  0.00     0.071 C 
ATOM      2  C   UNL     1      97.723  83.280  81.219  1.00  0.00     0.006 C 
ENDROOT
BRANCH   1   3
ATOM      3  C   UNL     1      98.174  83.186  78.855  1.00  0.00     0.246 C 
ATOM      4  O   UNL     1      96.980  83.412  78.654  1.00  0.00    -0.270 OA
ATOM      5  N   UNL     1      99.120  82.972  77.854  1.00  0.00    -0.339 N 
ATOM      6  C   UNL     1      98.694  83.013  76.452  1.00  0.00     0.120 C 
ATOM      7  C   UNL     1     100.542  82.655  78.055  1.00  0.00     0.120 C 
ATOM      8  C   UNL     1      99.553  83.973  75.637  1.00  0.00     0.022 C 
ATOM      9  C   UNL     1     101.438  83.596  77.250  1.00  0.00     0.022 C 
ATOM     10  C   UNL     1     101.034  83.637  75.779  1.00  0.00     0.004 C 
ENDBRANCH   1   3
BRANCH   2  11
ATOM     11  C   UNL     1      98.075  83.243  82.623  1.00  0.00     0.001 C 
ATOM     12  C   UNL     1      97.333  83.833  83.574  1.00  0.00     0.008 C 
BRANCH  12  13
ATOM     13  C   UNL     1      97.649  83.833  85.013  1.00  0.00    -0.022 A 
ATOM     14  C   UNL     1      98.860  83.304  85.438  1.00  0.00     0.058 A 
ATOM     15  C   UNL     1      96.720  84.365  85.910  1.00  0.00     0.012 A 
ATOM     16  C   UNL     1      99.110  83.327  86.795  1.00  0.00     0.166 A 
ATOM     17  C   UNL     1      96.999  84.375  87.278  1.00  0.00     0.051 A 
ATOM     18  O   UNL     1     100.232  82.858  87.408  1.00  0.00    -0.454 OA
ATOM     19  C   UNL     1      98.205  83.848  87.691  1.00  0.00     0.165 A 
ATOM     20  C   UNL     1      99.931  83.143  88.789  1.00  0.00     0.468 C 
ATOM     21  O   UNL     1      98.646  83.771  88.976  1.00  0.00    -0.454 OA
ENDBRANCH  12  13
ENDBRANCH   2  11
TORSDOF 3
ENDMDL
MODEL 6
REMARK VINA RESULT:    -6.706      2.985      8.867
REMARK INTER + INTRA:          -8.283
REMARK INTER:                  -7.905
REMARK INTRA:                  -0.378
REMARK UNBOUND:                -0.401
REMARK SMILES O=C(/C=C/C=C/c1ccc2c(c1)OCO2)N1CCCCC1
REMARK SMILES IDX 3 1 4 2 2 3 1 4 16 5 17 6 21 7 18 8 20 9 19 10 5 11 6 12
REMARK SMILES IDX 7 13 12 14 8 15 11 16 9 17 13 18 10 19 14 20 15 21
REMARK H PARENT
REMARK Flexibility Score: inf
ROOT
ATOM      1  C   UNL     1      96.657  82.749  85.298  1.00  0.00     0.071 C 
ATOM      2  C   UNL     1      97.137  83.850  84.723  1.00  0.00     0.006 C 
ENDROOT
BRANCH   1   3
ATOM      3  C   UNL     1      96.419  82.775  86.755  1.00  0.00     0.246 C 
ATOM      4  O   UNL     1      97.287  83.284  87.465  1.00  0.00    -0.270 OA
ATOM      5  N   UNL     1      95.233  82.216  87.229  1.00  0.00    -0.339 N 
ATOM      6  C   UNL     1      94.970  82.222  88.671  1.00  0.00     0.120 C 
ATOM      7  C   UNL     1      94.196  81.560  86.418  1.00  0.00     0.120 C 
ATOM      8  C   UNL     1      93.609  82.832  88.988  1.00  0.00     0.022 C 
ATOM      9  C   UNL     1      92.814  82.143  86.710  1.00  0.00     0.022 C 
ATOM     10  C   UNL     1      92.502  82.135  88.204  1.00  0.00     0.004 C 
ENDBRANCH   1   3
BRANCH   2  11
ATOM     11  C   UNL     1      97.404  83.922  83.302  1.00  0.00     0.001 C 
ATOM     12  C   UNL     1      98.118  82.991  82.649  1.00  0.00     0.008 C 
BRANCH  12  13
ATOM     13  C   UNL     1      98.425  83.019  81.209  1.00  0.00    -0.022 A 
ATOM     14  C   UNL     1      97.446  83.436  80.317  1.00  0.00     0.058 A 
ATOM     15  C   UNL     1      99.695  82.624  80.779  1.00  0.00     0.012 A 
ATOM     16  C   UNL     1      97.782  83.446  78.979  1.00  0.00     0.166 A 
ATOM     17  C   UNL     1     100.007  82.644  79.418  1.00  0.00     0.051 A 
ATOM     18  O   UNL     1      96.966  83.818  77.954  1.00  0.00    -0.454 OA
ATOM     19  C   UNL     1      99.028  83.060  78.541  1.00  0.00     0.165 A 
ATOM     20  C   UNL     1      97.839  83.624  76.823  1.00  0.00     0.468 C 
ATOM     21  O   UNL     1      99.149  83.143  77.188  1.00  0.00    -0.454 OA
ENDBRANCH  12  13
ENDBRANCH   2  11
TORSDOF 3
ENDMDL
MODEL 7
REMARK VINA RESULT:    -6.670     24.337     25.622
REMARK INTER + INTRA:          -8.241
REMARK INTER:                  -7.869
REMARK INTRA:                  -0.372
REMARK UNBOUND:                -0.401
REMARK SMILES O=C(/C=C/C=C/c1ccc2c(c1)OCO2)N1CCCCC1
REMARK SMILES IDX 3 1 4 2 2 3 1 4 16 5 17 6 21 7 18 8 20 9 19 10 5 11 6 12
REMARK SMILES IDX 7 13 12 14 8 15 11 16 9 17 13 18 10 19 14 20 15 21
REMARK H PARENT
REMARK Flexibility Score: inf
ROOT
ATOM      1  C   UNL     1      75.737  88.653  70.433  1.00  0.00     0.071 C 
ATOM      2  C   UNL     1      74.896  89.529  70.981  1.00  0.00     0.006 C 
ENDROOT
BRANCH   1   3
ATOM      3  C   UNL     1      75.271  87.263  70.253  1.00  0.00     0.246 C 
ATOM      4  O   UNL     1      74.072  87.038  70.421  1.00  0.00    -0.270 OA
ATOM      5  N   UNL     1      76.219  86.300  69.911  1.00  0.00    -0.339 N 
ATOM      6  C   UNL     1      75.788  84.910  69.731  1.00  0.00     0.120 C 
ATOM      7  C   UNL     1      77.663  86.522  69.746  1.00  0.00     0.120 C 
ATOM      8  C   UNL     1      76.241  84.357  68.384  1.00  0.00     0.022 C 
ATOM      9  C   UNL     1      78.158  85.976  68.407  1.00  0.00     0.022 C 
ATOM     10  C   UNL     1      77.747  84.520  68.205  1.00  0.00     0.004 C 
ENDBRANCH   1   3
BRANCH   2  11
ATOM     11  C   UNL     1      75.261  90.913  71.198  1.00  0.00     0.001 C 
ATOM     12  C   UNL     1      76.504  91.292  71.537  1.00  0.00     0.008 C 
BRANCH  12  13
ATOM     13  C   UNL     1      76.927  92.682  71.778  1.00  0.00    -0.022 A 
ATOM     14  C   UNL     1      76.120  93.720  71.333  1.00  0.00     0.058 A 
ATOM     15  C   UNL     1      78.130  92.918  72.447  1.00  0.00     0.012 A 
ATOM     16  C   UNL     1      76.558  95.004  71.582  1.00  0.00     0.166 A 
ATOM     17  C   UNL     1      78.550  94.228  72.686  1.00  0.00     0.051 A 
ATOM     18  O   UNL     1      75.914  96.150  71.227  1.00  0.00    -0.454 OA
ATOM     19  C   UNL     1      77.741  95.252  72.240  1.00  0.00     0.165 A 
ATOM     20  C   UNL     1      76.824  97.146  71.736  1.00  0.00     0.468 C 
ATOM     21  O   UNL     1      77.985  96.584  72.381  1.00  0.00    -0.454 OA
ENDBRANCH  12  13
ENDBRANCH   2  11
TORSDOF 3
ENDMDL
MODEL 8
REMARK VINA RESULT:    -6.668     24.468     26.490
REMARK INTER + INTRA:          -8.239
REMARK INTER:                  -7.881
REMARK INTRA:                  -0.358
REMARK UNBOUND:                -0.401
REMARK SMILES O=C(/C=C/C=C/c1ccc2c(c1)OCO2)N1CCCCC1
REMARK SMILES IDX 3 1 4 2 2 3 1 4 16 5 17 6 21 7 18 8 20 9 19 10 5 11 6 12
REMARK SMILES IDX 7 13 12 14 8 15 11 16 9 17 13 18 10 19 14 20 15 21
REMARK H PARENT
REMARK Flexibility Score: inf
ROOT
ATOM      1  C   UNL     1      75.203  90.735  71.071  1.00  0.00     0.071 C 
ATOM      2  C   UNL     1      74.968  89.425  71.095  1.00  0.00     0.006 C 
ENDROOT
BRANCH   1   3
ATOM      3  C   UNL     1      74.829  91.530  72.258  1.00  0.00     0.246 C 
ATOM      4  O   UNL     1      73.751  91.277  72.796  1.00  0.00    -0.270 OA
ATOM      5  N   UNL     1      75.718  92.514  72.687  1.00  0.00    -0.339 N 
ATOM      6  C   UNL     1      75.372  93.323  73.860  1.00  0.00     0.120 C 
ATOM      7  C   UNL     1      76.991  92.875  72.046  1.00  0.00     0.120 C 
ATOM      8  C   UNL     1      76.490  93.308  74.896  1.00  0.00     0.022 C 
ATOM      9  C   UNL     1      78.139  92.875  73.055  1.00  0.00     0.022 C 
ATOM     10  C   UNL     1      77.817  93.733  74.275  1.00  0.00     0.004 C 
ENDBRANCH   1   3
BRANCH   2  11
ATOM     11  C   UNL     1      75.299  88.563  69.980  1.00  0.00     0.001 C 
ATOM     12  C   UNL     1      76.409  87.807  69.950  1.00  0.00     0.008 C 
BRANCH  12  13
ATOM     13  C   UNL     1      76.797  86.921  68.840  1.00  0.00    -0.022 A 
ATOM     14  C   UNL     1      76.579  85.555  68.957  1.00  0.00     0.058 A 
ATOM     15  C   UNL     1      77.375  87.480  67.697  1.00  0.00     0.012 A 
ATOM     16  C   UNL     1      76.959  84.767  67.891  1.00  0.00     0.166 A 
ATOM     17  C   UNL     1      77.751  86.658  66.632  1.00  0.00     0.051 A 
ATOM     18  O   UNL     1      76.831  83.413  67.814  1.00  0.00    -0.454 OA
ATOM     19  C   UNL     1      77.529  85.303  66.759  1.00  0.00     0.165 A 
ATOM     20  C   UNL     1      77.384  83.159  66.507  1.00  0.00     0.468 C 
ATOM     21  O   UNL     1      77.829  84.354  65.832  1.00  0.00    -0.454 OA
ENDBRANCH  12  13
ENDBRANCH   2  11
TORSDOF 3
ENDMDL
MODEL 9
REMARK VINA RESULT:    -6.298     25.324     26.340
REMARK INTER + INTRA:          -7.804
REMARK INTER:                  -7.410
REMARK INTRA:                  -0.393
REMARK UNBOUND:                -0.401
REMARK SMILES O=C(/C=C/C=C/c1ccc2c(c1)OCO2)N1CCCCC1
REMARK SMILES IDX 3 1 4 2 2 3 1 4 16 5 17 6 21 7 18 8 20 9 19 10 5 11 6 12
REMARK SMILES IDX 7 13 12 14 8 15 11 16 9 17 13 18 10 19 14 20 15 21
REMARK H PARENT
REMARK Flexibility Score: inf
ROOT
ATOM      1  C   UNL     1      76.213  86.027  68.351  1.00  0.00     0.071 C 
ATOM      2  C   UNL     1      76.974  86.711  69.204  1.00  0.00     0.006 C 
ENDROOT
BRANCH   1   3
ATOM      3  C   UNL     1      76.802  84.848  67.686  1.00  0.00     0.246 C 
ATOM      4  O   UNL     1      76.899  83.812  68.345  1.00  0.00    -0.270 OA
ATOM      5  N   UNL     1      77.212  84.986  66.361  1.00  0.00    -0.339 N 
ATOM      6  C   UNL     1      77.806  83.834  65.676  1.00  0.00     0.120 C 
ATOM      7  C   UNL     1      77.154  86.217  65.558  1.00  0.00     0.120 C 
ATOM      8  C   UNL     1      77.102  83.550  64.353  1.00  0.00     0.022 C 
ATOM      9  C   UNL     1      76.457  85.971  64.220  1.00  0.00     0.022 C 
ATOM     10  C   UNL     1      77.074  84.793  63.470  1.00  0.00     0.004 C 
ENDBRANCH   1   3
BRANCH   2  11
ATOM     11  C   UNL     1      76.486  87.880  69.903  1.00  0.00     0.001 C 
ATOM     12  C   UNL     1      75.254  87.948  70.434  1.00  0.00     0.008 C 
BRANCH  12  13
ATOM     13  C   UNL     1      74.705  89.113  71.148  1.00  0.00    -0.022 A 
ATOM     14  C   UNL     1      73.556  88.958  71.911  1.00  0.00     0.058 A 
ATOM     15  C   UNL     1      75.357  90.344  71.036  1.00  0.00     0.012 A 
ATOM     16  C   UNL     1      73.081  90.078  72.561  1.00  0.00     0.166 A 
ATOM     17  C   UNL     1      74.853  91.462  71.705  1.00  0.00     0.051 A 
ATOM     18  O   UNL     1      71.974  90.133  73.352  1.00  0.00    -0.454 OA
ATOM     19  C   UNL     1      73.711  91.297  72.461  1.00  0.00     0.165 A 
ATOM     20  C   UNL     1      71.979  91.522  73.738  1.00  0.00     0.468 C 
ATOM     21  O   UNL     1      73.079  92.267  73.176  1.00  0.00    -0.454 OA
ENDBRANCH  12  13
ENDBRANCH   2  11
TORSDOF 3
ENDMDL
MODEL 10
REMARK VINA RESULT:    -6.201      8.477     10.883
REMARK INTER + INTRA:          -7.690
REMARK INTER:                  -7.313
REMARK INTRA:                  -0.376
REMARK UNBOUND:                -0.401
REMARK SMILES O=C(/C=C/C=C/c1ccc2c(c1)OCO2)N1CCCCC1
REMARK SMILES IDX 3 1 4 2 2 3 1 4 16 5 17 6 21 7 18 8 20 9 19 10 5 11 6 12
REMARK SMILES IDX 7 13 12 14 8 15 11 16 9 17 13 18 10 19 14 20 15 21
REMARK H PARENT
REMARK Flexibility Score: inf
ROOT
ATOM      1  C   UNL     1      94.921  87.040  89.879  1.00  0.00     0.071 C 
ATOM      2  C   UNL     1      94.983  86.376  88.726  1.00  0.00     0.006 C 
ENDROOT
BRANCH   1   3
ATOM      3  C   UNL     1      95.649  88.321  89.982  1.00  0.00     0.246 C 
ATOM      4  O   UNL     1      96.808  88.352  89.567  1.00  0.00    -0.270 OA
ATOM      5  N   UNL     1      94.978  89.405  90.547  1.00  0.00    -0.339 N 
ATOM      6  C   UNL     1      95.677  90.688  90.668  1.00  0.00     0.120 C 
ATOM      7  C   UNL     1      93.613  89.394  91.093  1.00  0.00     0.120 C 
ATOM      8  C   UNL     1      94.868  91.823  90.049  1.00  0.00     0.022 C 
ATOM      9  C   UNL     1      92.770  90.522  90.499  1.00  0.00     0.022 C 
ATOM     10  C   UNL     1      93.461  91.875  90.637  1.00  0.00     0.004 C 
ENDBRANCH   1   3
BRANCH   2  11
ATOM     11  C   UNL     1      94.304  85.113  88.528  1.00  0.00     0.001 C 
ATOM     12  C   UNL     1      92.968  84.991  88.580  1.00  0.00     0.008 C 
BRANCH  12  13
ATOM     13  C   UNL     1      92.228  83.731  88.395  1.00  0.00    -0.022 A 
ATOM     14  C   UNL     1      92.317  83.068  87.179  1.00  0.00     0.058 A 
ATOM     15  C   UNL     1      91.455  83.238  89.450  1.00  0.00     0.012 A 
ATOM     16  C   UNL     1      91.606  81.892  87.054  1.00  0.00     0.166 A 
ATOM     17  C   UNL     1      90.745  82.045  89.296  1.00  0.00     0.051 A 
ATOM     18  O   UNL     1      91.563  81.099  85.948  1.00  0.00    -0.454 OA
ATOM     19  C   UNL     1      90.841  81.394  88.084  1.00  0.00     0.165 A 
ATOM     20  C   UNL     1      90.685  80.047  86.398  1.00  0.00     0.468 C 
ATOM     21  O   UNL     1      90.223  80.228  87.752  1.00  0.00    -0.454 OA
ENDBRANCH  12  13
ENDBRANCH   2  11
TORSDOF 3
ENDMDL
