MODEL 1
REMARK VINA RESULT:    -6.328      0.000      0.000
REMARK INTER + INTRA:         -11.073
REMARK INTER:                 -10.213
REMARK INTRA:                  -0.860
REMARK UNBOUND:                -0.860
REMARK SMILES CCCCCCCCC(=O)NCc1ccc(O)c(OC)c1
REMARK SMILES IDX 7 1 6 2 5 3 4 4 3 5 2 6 1 7 8 8 9 9 10 10 11 11 12 13 13 14
REMARK SMILES IDX 21 15 14 16 18 17 15 18 16 19 19 20 20 21 17 22
REMARK H PARENT 11 12 17 23
REMARK Flexibility Score: inf
ROOT
ATOM      1  C   UNL     1      90.724  94.829  76.447  1.00  0.00     0.010 C 
ENDROOT
BRANCH   1   2
ATOM      2  C   UNL     1      90.085  93.862  77.485  1.00  0.00     0.001 C 
BRANCH   2   3
ATOM      3  C   UNL     1      90.570  92.394  77.297  1.00  0.00     0.000 C 
BRANCH   3   4
ATOM      4  C   UNL     1      91.081  92.081  75.862  1.00  0.00    -0.000 C 
BRANCH   4   5
ATOM      5  C   UNL     1      90.581  90.707  75.333  1.00  0.00    -0.000 C 
BRANCH   5   6
ATOM      6  C   UNL     1      90.293  90.724  73.808  1.00  0.00    -0.003 C 
ATOM      7  C   UNL     1      88.998  91.485  73.450  1.00  0.00     0.004 C 
ENDBRANCH   5   6
ENDBRANCH   4   5
ENDBRANCH   3   4
ENDBRANCH   2   3
ENDBRANCH   1   2
BRANCH   1   8
ATOM      8  C   UNL     1      91.777  95.797  77.055  1.00  0.00     0.100 C 
BRANCH   8   9
ATOM      9  C   UNL     1      93.159  95.339  76.769  1.00  0.00     0.220 C 
ATOM     10  O   UNL     1      93.860  96.019  75.982  1.00  0.00    -0.275 OA
ATOM     11  N   UNL     1      93.658  94.222  77.374  1.00  0.00    -0.352 N 
ATOM     12  H   UNL     1      92.984  93.705  77.918  1.00  0.00     0.163 HD
BRANCH  11  13
ATOM     13  C   UNL     1      95.010  93.760  77.291  1.00  0.00     0.151 C 
BRANCH  13  14
ATOM     14  C   UNL     1      95.768  93.886  78.565  1.00  0.00    -0.025 A 
ATOM     15  C   UNL     1      96.838  94.806  78.670  1.00  0.00     0.056 A 
ATOM     16  C   UNL     1      95.439  93.091  79.687  1.00  0.00     0.009 A 
ATOM     17  C   UNL     1      97.555  94.949  79.880  1.00  0.00     0.160 A 
ATOM     18  C   UNL     1      96.148  93.229  80.893  1.00  0.00     0.050 A 
ATOM     19  C   UNL     1      97.209  94.149  80.992  1.00  0.00     0.157 A 
BRANCH  17  20
ATOM     20  O   UNL     1      98.619  95.811  79.967  1.00  0.00    -0.493 OA
ATOM     21  C   UNL     1      99.822  95.326  79.346  1.00  0.00     0.278 C 
ENDBRANCH  17  20
BRANCH  19  22
ATOM     22  O   UNL     1      97.906  94.255  82.153  1.00  0.00    -0.504 OA
ATOM     23  H   UNL     1      97.652  93.542  82.744  1.00  0.00     0.293 HD
ENDBRANCH  19  22
ENDBRANCH  13  14
ENDBRANCH  11  13
ENDBRANCH   8   9
ENDBRANCH   1   8
TORSDOF 11
ENDMDL
MODEL 2
REMARK VINA RESULT:    -6.010      2.543      4.021
REMARK INTER + INTRA:         -10.560
REMARK INTER:                  -9.512
REMARK INTRA:                  -1.047
REMARK UNBOUND:                -0.860
REMARK SMILES CCCCCCCCC(=O)NCc1ccc(O)c(OC)c1
REMARK SMILES IDX 7 1 6 2 5 3 4 4 3 5 2 6 1 7 8 8 9 9 10 10 11 11 12 13 13 14
REMARK SMILES IDX 21 15 14 16 18 17 15 18 16 19 19 20 20 21 17 22
REMARK H PARENT 11 12 17 23
REMARK Flexibility Score: inf
ROOT
ATOM      1  C   UNL     1      94.299  96.819  75.020  1.00  0.00     0.010 C 
ENDROOT
BRANCH   1   2
ATOM      2  C   UNL     1      93.864  95.348  74.762  1.00  0.00     0.001 C 
BRANCH   2   3
ATOM      3  C   UNL     1      93.969  94.470  76.043  1.00  0.00     0.000 C 
BRANCH   3   4
ATOM      4  C   UNL     1      93.214  95.057  77.270  1.00  0.00    -0.000 C 
BRANCH   4   5
ATOM      5  C   UNL     1      91.715  94.644  77.307  1.00  0.00    -0.000 C 
BRANCH   5   6
ATOM      6  C   UNL     1      91.498  93.245  77.943  1.00  0.00    -0.003 C 
ATOM      7  C   UNL     1      90.140  92.616  77.562  1.00  0.00     0.004 C 
ENDBRANCH   5   6
ENDBRANCH   4   5
ENDBRANCH   3   4
ENDBRANCH   2   3
ENDBRANCH   1   2
BRANCH   1   8
ATOM      8  C   UNL     1      95.642  97.207  74.338  1.00  0.00     0.100 C 
BRANCH   8   9
ATOM      9  C   UNL     1      96.780  97.090  75.282  1.00  0.00     0.220 C 
ATOM     10  O   UNL     1      97.917  97.445  74.889  1.00  0.00    -0.275 OA
ATOM     11  N   UNL     1      96.583  96.633  76.553  1.00  0.00    -0.352 N 
ATOM     12  H   UNL     1      95.649  96.294  76.735  1.00  0.00     0.163 HD
BRANCH  11  13
ATOM     13  C   UNL     1      97.565  96.608  77.594  1.00  0.00     0.151 C 
BRANCH  13  14
ATOM     14  C   UNL     1      97.004  96.331  78.943  1.00  0.00    -0.025 A 
ATOM     15  C   UNL     1      96.515  95.041  79.260  1.00  0.00     0.056 A 
ATOM     16  C   UNL     1      96.946  97.344  79.928  1.00  0.00     0.009 A 
ATOM     17  C   UNL     1      95.995  94.758  80.544  1.00  0.00     0.160 A 
ATOM     18  C   UNL     1      96.432  97.069  81.207  1.00  0.00     0.050 A 
ATOM     19  C   UNL     1      95.949  95.783  81.517  1.00  0.00     0.157 A 
BRANCH  17  20
ATOM     20  O   UNL     1      95.482  93.520  80.836  1.00  0.00    -0.493 OA
ATOM     21  C   UNL     1      94.733  92.924  79.762  1.00  0.00     0.278 C 
ENDBRANCH  17  20
BRANCH  19  22
ATOM     22  O   UNL     1      95.429  95.534  82.746  1.00  0.00    -0.504 OA
ATOM     23  H   UNL     1      95.408  96.348  83.255  1.00  0.00     0.293 HD
ENDBRANCH  19  22
ENDBRANCH  13  14
ENDBRANCH  11  13
ENDBRANCH   8   9
ENDBRANCH   1   8
TORSDOF 11
ENDMDL
MODEL 3
REMARK VINA RESULT:    -5.981      2.429      3.829
REMARK INTER + INTRA:         -10.513
REMARK INTER:                  -9.581
REMARK INTRA:                  -0.931
REMARK UNBOUND:                -0.860
REMARK SMILES CCCCCCCCC(=O)NCc1ccc(O)c(OC)c1
REMARK SMILES IDX 7 1 6 2 5 3 4 4 3 5 2 6 1 7 8 8 9 9 10 10 11 11 12 13 13 14
REMARK SMILES IDX 21 15 14 16 18 17 15 18 16 19 19 20 20 21 17 22
REMARK H PARENT 11 12 17 23
REMARK Flexibility Score: inf
ROOT
ATOM      1  C   UNL     1      94.253  97.187  74.722  1.00  0.00     0.010 C 
ENDROOT
BRANCH   1   2
ATOM      2  C   UNL     1      94.202  95.649  74.494  1.00  0.00     0.001 C 
BRANCH   2   3
ATOM      3  C   UNL     1      93.089  94.965  75.342  1.00  0.00     0.000 C 
BRANCH   3   4
ATOM      4  C   UNL     1      92.808  95.674  76.697  1.00  0.00    -0.000 C 
BRANCH   4   5
ATOM      5  C   UNL     1      91.289  95.782  77.013  1.00  0.00    -0.000 C 
BRANCH   5   6
ATOM      6  C   UNL     1      90.561  94.414  76.915  1.00  0.00    -0.003 C 
ATOM      7  C   UNL     1      91.179  93.338  77.836  1.00  0.00     0.004 C 
ENDBRANCH   5   6
ENDBRANCH   4   5
ENDBRANCH   3   4
ENDBRANCH   2   3
ENDBRANCH   1   2
BRANCH   1   8
ATOM      8  C   UNL     1      95.647  97.818  74.447  1.00  0.00     0.100 C 
BRANCH   8   9
ATOM      9  C   UNL     1      96.555  97.648  75.606  1.00  0.00     0.220 C 
ATOM     10  O   UNL     1      97.320  98.595  75.907  1.00  0.00    -0.275 OA
ATOM     11  N   UNL     1      96.534  96.497  76.341  1.00  0.00    -0.352 N 
ATOM     12  H   UNL     1      95.946  95.770  75.961  1.00  0.00     0.163 HD
BRANCH  11  13
ATOM     13  C   UNL     1      97.254  96.269  77.557  1.00  0.00     0.151 C 
BRANCH  13  14
ATOM     14  C   UNL     1      96.686  95.180  78.396  1.00  0.00    -0.025 A 
ATOM     15  C   UNL     1      97.175  94.962  79.706  1.00  0.00     0.056 A 
ATOM     16  C   UNL     1      95.657  94.344  77.904  1.00  0.00     0.009 A 
ATOM     17  C   UNL     1      96.633  93.942  80.522  1.00  0.00     0.160 A 
ATOM     18  C   UNL     1      95.114  93.328  78.710  1.00  0.00     0.050 A 
ATOM     19  C   UNL     1      95.602  93.119  80.014  1.00  0.00     0.157 A 
BRANCH  17  20
ATOM     20  O   UNL     1      97.137  93.705  81.776  1.00  0.00    -0.493 OA
ATOM     21  C   UNL     1      98.574  93.681  81.839  1.00  0.00     0.278 C 
ENDBRANCH  17  20
BRANCH  19  22
ATOM     22  O   UNL     1      95.090  92.118  80.775  1.00  0.00    -0.504 OA
ATOM     23  H   UNL     1      94.225  92.376  81.102  1.00  0.00     0.293 HD
ENDBRANCH  19  22
ENDBRANCH  13  14
ENDBRANCH  11  13
ENDBRANCH   8   9
ENDBRANCH   1   8
TORSDOF 11
ENDMDL
MODEL 4
REMARK VINA RESULT:    -5.868      2.153      3.048
REMARK INTER + INTRA:         -10.330
REMARK INTER:                  -9.579
REMARK INTRA:                  -0.751
REMARK UNBOUND:                -0.860
REMARK SMILES CCCCCCCCC(=O)NCc1ccc(O)c(OC)c1
REMARK SMILES IDX 7 1 6 2 5 3 4 4 3 5 2 6 1 7 8 8 9 9 10 10 11 11 12 13 13 14
REMARK SMILES IDX 21 15 14 16 18 17 15 18 16 19 19 20 20 21 17 22
REMARK H PARENT 11 12 17 23
REMARK Flexibility Score: inf
ROOT
ATOM      1  C   UNL     1      93.480  95.096  77.822  1.00  0.00     0.010 C 
ENDROOT
BRANCH   1   2
ATOM      2  C   UNL     1      92.209  95.486  77.014  1.00  0.00     0.001 C 
BRANCH   2   3
ATOM      3  C   UNL     1      91.039  94.483  77.235  1.00  0.00     0.000 C 
BRANCH   3   4
ATOM      4  C   UNL     1      90.610  93.726  75.946  1.00  0.00    -0.000 C 
BRANCH   4   5
ATOM      5  C   UNL     1      90.640  92.181  76.119  1.00  0.00    -0.000 C 
BRANCH   5   6
ATOM      6  C   UNL     1      90.229  91.428  74.825  1.00  0.00    -0.003 C 
ATOM      7  C   UNL     1      90.900  90.042  74.698  1.00  0.00     0.004 C 
ENDBRANCH   5   6
ENDBRANCH   4   5
ENDBRANCH   3   4
ENDBRANCH   2   3
ENDBRANCH   1   2
BRANCH   1   8
ATOM      8  C   UNL     1      94.105  93.738  77.394  1.00  0.00     0.100 C 
BRANCH   8   9
ATOM      9  C   UNL     1      95.091  93.260  78.392  1.00  0.00     0.220 C 
ATOM     10  O   UNL     1      96.098  92.635  77.982  1.00  0.00    -0.275 OA
ATOM     11  N   UNL     1      94.916  93.521  79.721  1.00  0.00    -0.352 N 
ATOM     12  H   UNL     1      94.032  93.952  79.948  1.00  0.00     0.163 HD
BRANCH  11  13
ATOM     13  C   UNL     1      95.859  93.238  80.760  1.00  0.00     0.151 C 
BRANCH  13  14
ATOM     14  C   UNL     1      96.581  94.439  81.259  1.00  0.00    -0.025 A 
ATOM     15  C   UNL     1      97.958  94.361  81.577  1.00  0.00     0.056 A 
ATOM     16  C   UNL     1      95.910  95.672  81.428  1.00  0.00     0.009 A 
ATOM     17  C   UNL     1      98.662  95.498  82.037  1.00  0.00     0.160 A 
ATOM     18  C   UNL     1      96.605  96.807  81.884  1.00  0.00     0.050 A 
ATOM     19  C   UNL     1      97.976  96.723  82.196  1.00  0.00     0.157 A 
BRANCH  17  20
ATOM     20  O   UNL     1      99.986  95.409  82.384  1.00  0.00    -0.493 OA
ATOM     21  C   UNL     1     100.214  94.884  83.704  1.00  0.00     0.278 C 
ENDBRANCH  17  20
BRANCH  19  22
ATOM     22  O   UNL     1      98.631  97.817  82.661  1.00  0.00    -0.504 OA
ATOM     23  H   UNL     1      98.314  98.599  82.202  1.00  0.00     0.293 HD
ENDBRANCH  19  22
ENDBRANCH  13  14
ENDBRANCH  11  13
ENDBRANCH   8   9
ENDBRANCH   1   8
TORSDOF 11
ENDMDL
MODEL 5
REMARK VINA RESULT:    -5.464     12.672     14.155
REMARK INTER + INTRA:          -9.679
REMARK INTER:                  -8.962
REMARK INTRA:                  -0.717
REMARK UNBOUND:                -0.860
REMARK SMILES CCCCCCCCC(=O)NCc1ccc(O)c(OC)c1
REMARK SMILES IDX 7 1 6 2 5 3 4 4 3 5 2 6 1 7 8 8 9 9 10 10 11 11 12 13 13 14
REMARK SMILES IDX 21 15 14 16 18 17 15 18 16 19 19 20 20 21 17 22
REMARK H PARENT 11 12 17 23
REMARK Flexibility Score: inf
ROOT
ATOM      1  C   UNL     1      97.606  81.824  77.905  1.00  0.00     0.010 C 
ENDROOT
BRANCH   1   2
ATOM      2  C   UNL     1      97.594  81.233  79.344  1.00  0.00     0.001 C 
BRANCH   2   3
ATOM      3  C   UNL     1      96.852  82.156  80.355  1.00  0.00     0.000 C 
BRANCH   3   4
ATOM      4  C   UNL     1      96.692  81.535  81.771  1.00  0.00    -0.000 C 
BRANCH   4   5
ATOM      5  C   UNL     1      96.663  79.980  81.745  1.00  0.00    -0.000 C 
BRANCH   5   6
ATOM      6  C   UNL     1      96.219  79.369  83.101  1.00  0.00    -0.003 C 
ATOM      7  C   UNL     1      95.320  80.320  83.922  1.00  0.00     0.004 C 
ENDBRANCH   5   6
ENDBRANCH   4   5
ENDBRANCH   3   4
ENDBRANCH   2   3
ENDBRANCH   1   2
BRANCH   1   8
ATOM      8  C   UNL     1      96.278  82.522  77.500  1.00  0.00     0.100 C 
BRANCH   8   9
ATOM      9  C   UNL     1      96.219  82.765  76.039  1.00  0.00     0.220 C 
ATOM     10  O   UNL     1      95.592  83.771  75.627  1.00  0.00    -0.275 OA
ATOM     11  N   UNL     1      96.859  81.928  75.170  1.00  0.00    -0.352 N 
ATOM     12  H   UNL     1      97.258  81.106  75.599  1.00  0.00     0.163 HD
BRANCH  11  13
ATOM     13  C   UNL     1      96.995  82.132  73.760  1.00  0.00     0.151 C 
BRANCH  13  14
ATOM     14  C   UNL     1      98.357  82.559  73.343  1.00  0.00    -0.025 A 
ATOM     15  C   UNL     1      99.315  81.596  72.944  1.00  0.00     0.056 A 
ATOM     16  C   UNL     1      98.722  83.925  73.341  1.00  0.00     0.009 A 
ATOM     17  C   UNL     1     100.608  81.988  72.529  1.00  0.00     0.160 A 
ATOM     18  C   UNL     1     100.006  84.322  72.928  1.00  0.00     0.050 A 
ATOM     19  C   UNL     1     100.953  83.359  72.529  1.00  0.00     0.157 A 
BRANCH  17  20
ATOM     20  O   UNL     1     101.548  81.050  72.183  1.00  0.00    -0.493 OA
ATOM     21  C   UNL     1     102.066  80.298  73.294  1.00  0.00     0.278 C 
ENDBRANCH  17  20
BRANCH  19  22
ATOM     22  O   UNL     1     102.199  83.750  72.159  1.00  0.00    -0.504 OA
ATOM     23  H   UNL     1     102.547  84.367  72.807  1.00  0.00     0.293 HD
ENDBRANCH  19  22
ENDBRANCH  13  14
ENDBRANCH  11  13
ENDBRANCH   8   9
ENDBRANCH   1   8
TORSDOF 11
ENDMDL
MODEL 6
REMARK VINA RESULT:    -5.311     12.020     13.572
REMARK INTER + INTRA:          -9.432
REMARK INTER:                  -8.633
REMARK INTRA:                  -0.799
REMARK UNBOUND:                -0.860
REMARK SMILES CCCCCCCCC(=O)NCc1ccc(O)c(OC)c1
REMARK SMILES IDX 7 1 6 2 5 3 4 4 3 5 2 6 1 7 8 8 9 9 10 10 11 11 12 13 13 14
REMARK SMILES IDX 21 15 14 16 18 17 15 18 16 19 19 20 20 21 17 22
REMARK H PARENT 11 12 17 23
REMARK Flexibility Score: inf
ROOT
ATOM      1  C   UNL     1      96.657  82.074  77.735  1.00  0.00     0.010 C 
ENDROOT
BRANCH   1   2
ATOM      2  C   UNL     1      96.477  82.802  76.371  1.00  0.00     0.001 C 
BRANCH   2   3
ATOM      3  C   UNL     1      97.039  81.970  75.181  1.00  0.00     0.000 C 
BRANCH   3   4
ATOM      4  C   UNL     1      97.034  82.731  73.826  1.00  0.00    -0.000 C 
BRANCH   4   5
ATOM      5  C   UNL     1      98.462  82.927  73.241  1.00  0.00    -0.000 C 
BRANCH   5   6
ATOM      6  C   UNL     1      99.574  82.712  74.302  1.00  0.00    -0.003 C 
ATOM      7  C   UNL     1     100.796  83.631  74.086  1.00  0.00     0.004 C 
ENDBRANCH   5   6
ENDBRANCH   4   5
ENDBRANCH   3   4
ENDBRANCH   2   3
ENDBRANCH   1   2
BRANCH   1   8
ATOM      8  C   UNL     1      98.134  81.732  78.076  1.00  0.00     0.100 C 
BRANCH   8   9
ATOM      9  C   UNL     1      98.243  81.067  79.397  1.00  0.00     0.220 C 
ATOM     10  O   UNL     1      99.386  80.775  79.824  1.00  0.00    -0.275 OA
ATOM     11  N   UNL     1      97.126  80.809  80.138  1.00  0.00    -0.352 N 
ATOM     12  H   UNL     1      96.256  81.004  79.664  1.00  0.00     0.163 HD
BRANCH  11  13
ATOM     13  C   UNL     1      97.109  80.305  81.477  1.00  0.00     0.151 C 
BRANCH  13  14
ATOM     14  C   UNL     1      96.709  81.314  82.494  1.00  0.00    -0.025 A 
ATOM     15  C   UNL     1      96.622  80.953  83.860  1.00  0.00     0.056 A 
ATOM     16  C   UNL     1      96.406  82.643  82.119  1.00  0.00     0.009 A 
ATOM     17  C   UNL     1      96.260  81.906  84.840  1.00  0.00     0.160 A 
ATOM     18  C   UNL     1      96.047  83.596  83.089  1.00  0.00     0.050 A 
ATOM     19  C   UNL     1      95.965  83.231  84.447  1.00  0.00     0.157 A 
BRANCH  17  20
ATOM     20  O   UNL     1      96.136  81.544  86.158  1.00  0.00    -0.493 OA
ATOM     21  C   UNL     1      94.952  80.781  86.449  1.00  0.00     0.278 C 
ENDBRANCH  17  20
BRANCH  19  22
ATOM     22  O   UNL     1      95.591  84.150  85.372  1.00  0.00    -0.504 OA
ATOM     23  H   UNL     1      95.881  83.866  86.242  1.00  0.00     0.293 HD
ENDBRANCH  19  22
ENDBRANCH  13  14
ENDBRANCH  11  13
ENDBRANCH   8   9
ENDBRANCH   1   8
TORSDOF 11
ENDMDL
MODEL 7
REMARK VINA RESULT:    -5.296     13.992     16.164
REMARK INTER + INTRA:          -9.407
REMARK INTER:                  -8.848
REMARK INTRA:                  -0.559
REMARK UNBOUND:                -0.860
REMARK SMILES CCCCCCCCC(=O)NCc1ccc(O)c(OC)c1
REMARK SMILES IDX 7 1 6 2 5 3 4 4 3 5 2 6 1 7 8 8 9 9 10 10 11 11 12 13 13 14
REMARK SMILES IDX 21 15 14 16 18 17 15 18 16 19 19 20 20 21 17 22
REMARK H PARENT 11 12 17 23
REMARK Flexibility Score: inf
ROOT
ATOM      1  C   UNL     1      95.829  81.468  82.662  1.00  0.00     0.010 C 
ENDROOT
BRANCH   1   2
ATOM      2  C   UNL     1      97.106  81.794  81.835  1.00  0.00     0.001 C 
BRANCH   2   3
ATOM      3  C   UNL     1      96.826  81.813  80.303  1.00  0.00     0.000 C 
BRANCH   3   4
ATOM      4  C   UNL     1      98.112  81.783  79.430  1.00  0.00    -0.000 C 
BRANCH   4   5
ATOM      5  C   UNL     1      97.811  81.935  77.912  1.00  0.00    -0.000 C 
BRANCH   5   6
ATOM      6  C   UNL     1      96.297  81.819  77.591  1.00  0.00    -0.003 C 
ATOM      7  C   UNL     1      95.736  83.073  76.885  1.00  0.00     0.004 C 
ENDBRANCH   5   6
ENDBRANCH   4   5
ENDBRANCH   3   4
ENDBRANCH   2   3
ENDBRANCH   1   2
BRANCH   1   8
ATOM      8  C   UNL     1      95.950  80.180  83.525  1.00  0.00     0.100 C 
BRANCH   8   9
ATOM      9  C   UNL     1      94.833  80.074  84.495  1.00  0.00     0.220 C 
ATOM     10  O   UNL     1      94.989  79.346  85.504  1.00  0.00    -0.275 OA
ATOM     11  N   UNL     1      93.677  80.775  84.302  1.00  0.00    -0.352 N 
ATOM     12  H   UNL     1      93.625  81.258  83.417  1.00  0.00     0.163 HD
BRANCH  11  13
ATOM     13  C   UNL     1      92.591  80.866  85.228  1.00  0.00     0.151 C 
BRANCH  13  14
ATOM     14  C   UNL     1      91.451  79.966  84.909  1.00  0.00    -0.025 A 
ATOM     15  C   UNL     1      90.173  80.507  84.628  1.00  0.00     0.056 A 
ATOM     16  C   UNL     1      91.618  78.562  84.883  1.00  0.00     0.009 A 
ATOM     17  C   UNL     1      89.084  79.665  84.305  1.00  0.00     0.160 A 
ATOM     18  C   UNL     1      90.539  77.719  84.561  1.00  0.00     0.050 A 
ATOM     19  C   UNL     1      89.272  78.264  84.280  1.00  0.00     0.157 A 
BRANCH  17  20
ATOM     20  O   UNL     1      87.837  80.188  84.075  1.00  0.00    -0.493 OA
ATOM     21  C   UNL     1      87.358  81.052  85.121  1.00  0.00     0.278 C 
ENDBRANCH  17  20
BRANCH  19  22
ATOM     22  O   UNL     1      88.230  77.441  83.998  1.00  0.00    -0.504 OA
ATOM     23  H   UNL     1      88.335  77.083  83.113  1.00  0.00     0.293 HD
ENDBRANCH  19  22
ENDBRANCH  13  14
ENDBRANCH  11  13
ENDBRANCH   8   9
ENDBRANCH   1   8
TORSDOF 11
ENDMDL
MODEL 8
REMARK VINA RESULT:    -5.190      4.066      8.278
REMARK INTER + INTRA:          -9.235
REMARK INTER:                  -8.562
REMARK INTRA:                  -0.673
REMARK UNBOUND:                -0.860
REMARK SMILES CCCCCCCCC(=O)NCc1ccc(O)c(OC)c1
REMARK SMILES IDX 7 1 6 2 5 3 4 4 3 5 2 6 1 7 8 8 9 9 10 10 11 11 12 13 13 14
REMARK SMILES IDX 21 15 14 16 18 17 15 18 16 19 19 20 20 21 17 22
REMARK H PARENT 11 12 17 23
REMARK Flexibility Score: inf
ROOT
ATOM      1  C   UNL     1      95.897  96.975  81.630  1.00  0.00     0.010 C 
ENDROOT
BRANCH   1   2
ATOM      2  C   UNL     1      96.683  98.312  81.755  1.00  0.00     0.001 C 
BRANCH   2   3
ATOM      3  C   UNL     1      96.292  99.107  83.035  1.00  0.00     0.000 C 
BRANCH   3   4
ATOM      4  C   UNL     1      96.321 100.651  82.848  1.00  0.00    -0.000 C 
BRANCH   4   5
ATOM      5  C   UNL     1      95.293 101.147  81.792  1.00  0.00    -0.000 C 
BRANCH   5   6
ATOM      6  C   UNL     1      94.051 101.818  82.438  1.00  0.00    -0.003 C 
ATOM      7  C   UNL     1      94.235 102.092  83.947  1.00  0.00     0.004 C 
ENDBRANCH   5   6
ENDBRANCH   4   5
ENDBRANCH   3   4
ENDBRANCH   2   3
ENDBRANCH   1   2
BRANCH   1   8
ATOM      8  C   UNL     1      96.805  95.713  81.590  1.00  0.00     0.100 C 
BRANCH   8   9
ATOM      9  C   UNL     1      96.608  94.947  80.336  1.00  0.00     0.220 C 
ATOM     10  O   UNL     1      97.129  95.385  79.283  1.00  0.00    -0.275 OA
ATOM     11  N   UNL     1      95.901  93.778  80.341  1.00  0.00    -0.352 N 
ATOM     12  H   UNL     1      95.454  93.565  81.221  1.00  0.00     0.163 HD
BRANCH  11  13
ATOM     13  C   UNL     1      95.762  92.881  79.235  1.00  0.00     0.151 C 
BRANCH  13  14
ATOM     14  C   UNL     1      94.628  93.213  78.331  1.00  0.00    -0.025 A 
ATOM     15  C   UNL     1      94.874  93.593  76.990  1.00  0.00     0.056 A 
ATOM     16  C   UNL     1      93.292  93.160  78.791  1.00  0.00     0.009 A 
ATOM     17  C   UNL     1      93.806  93.895  76.114  1.00  0.00     0.160 A 
ATOM     18  C   UNL     1      92.225  93.458  77.924  1.00  0.00     0.050 A 
ATOM     19  C   UNL     1      92.477  93.832  76.591  1.00  0.00     0.157 A 
BRANCH  17  20
ATOM     20  O   UNL     1      94.049  94.304  74.827  1.00  0.00    -0.493 OA
ATOM     21  C   UNL     1      94.532  95.655  74.720  1.00  0.00     0.278 C 
ENDBRANCH  17  20
BRANCH  19  22
ATOM     22  O   UNL     1      91.442  94.144  75.770  1.00  0.00    -0.504 OA
ATOM     23  H   UNL     1      90.709  94.478  76.292  1.00  0.00     0.293 HD
ENDBRANCH  19  22
ENDBRANCH  13  14
ENDBRANCH  11  13
ENDBRANCH   8   9
ENDBRANCH   1   8
TORSDOF 11
ENDMDL
MODEL 9
REMARK VINA RESULT:    -5.008     25.476     28.896
REMARK INTER + INTRA:          -8.943
REMARK INTER:                  -7.882
REMARK INTRA:                  -1.061
REMARK UNBOUND:                -0.860
REMARK SMILES CCCCCCCCC(=O)NCc1ccc(O)c(OC)c1
REMARK SMILES IDX 7 1 6 2 5 3 4 4 3 5 2 6 1 7 8 8 9 9 10 10 11 11 12 13 13 14
REMARK SMILES IDX 21 15 14 16 18 17 15 18 16 19 19 20 20 21 17 22
REMARK H PARENT 11 12 17 23
REMARK Flexibility Score: inf
ROOT
ATOM      1  C   UNL     1      81.206  65.426  76.429  1.00  0.00     0.010 C 
ENDROOT
BRANCH   1   2
ATOM      2  C   UNL     1      79.974  64.885  75.648  1.00  0.00     0.001 C 
BRANCH   2   3
ATOM      3  C   UNL     1      80.256  64.749  74.123  1.00  0.00     0.000 C 
BRANCH   3   4
ATOM      4  C   UNL     1      80.640  66.089  73.434  1.00  0.00    -0.000 C 
BRANCH   4   5
ATOM      5  C   UNL     1      81.624  65.894  72.246  1.00  0.00    -0.000 C 
BRANCH   5   6
ATOM      6  C   UNL     1      80.949  66.129  70.868  1.00  0.00    -0.003 C 
ATOM      7  C   UNL     1      80.958  64.871  69.972  1.00  0.00     0.004 C 
ENDBRANCH   5   6
ENDBRANCH   4   5
ENDBRANCH   3   4
ENDBRANCH   2   3
ENDBRANCH   1   2
BRANCH   1   8
ATOM      8  C   UNL     1      82.541  64.716  76.069  1.00  0.00     0.100 C 
BRANCH   8   9
ATOM      9  C   UNL     1      83.692  65.645  76.176  1.00  0.00     0.220 C 
ATOM     10  O   UNL     1      84.640  65.332  76.936  1.00  0.00    -0.275 OA
ATOM     11  N   UNL     1      83.726  66.795  75.441  1.00  0.00    -0.352 N 
ATOM     12  H   UNL     1      82.877  66.990  74.931  1.00  0.00     0.163 HD
BRANCH  11  13
ATOM     13  C   UNL     1      84.834  67.696  75.349  1.00  0.00     0.151 C 
BRANCH  13  14
ATOM     14  C   UNL     1      84.764  68.619  74.185  1.00  0.00    -0.025 A 
ATOM     15  C   UNL     1      85.402  69.881  74.238  1.00  0.00     0.056 A 
ATOM     16  C   UNL     1      84.061  68.258  73.013  1.00  0.00     0.009 A 
ATOM     17  C   UNL     1      85.359  70.762  73.133  1.00  0.00     0.160 A 
ATOM     18  C   UNL     1      84.015  69.130  71.910  1.00  0.00     0.050 A 
ATOM     19  C   UNL     1      84.655  70.383  71.968  1.00  0.00     0.157 A 
BRANCH  17  20
ATOM     20  O   UNL     1      85.942  72.002  73.201  1.00  0.00    -0.493 OA
ATOM     21  C   UNL     1      85.451  72.826  74.274  1.00  0.00     0.278 C 
ENDBRANCH  17  20
BRANCH  19  22
ATOM     22  O   UNL     1      84.581  71.228  70.909  1.00  0.00    -0.504 OA
ATOM     23  H   UNL     1      85.462  71.538  70.685  1.00  0.00     0.293 HD
ENDBRANCH  19  22
ENDBRANCH  13  14
ENDBRANCH  11  13
ENDBRANCH   8   9
ENDBRANCH   1   8
TORSDOF 11
ENDMDL
MODEL 10
REMARK VINA RESULT:    -5.008      6.448      9.756
REMARK INTER + INTRA:          -8.943
REMARK INTER:                  -8.247
REMARK INTRA:                  -0.695
REMARK UNBOUND:                -0.860
REMARK SMILES CCCCCCCCC(=O)NCc1ccc(O)c(OC)c1
REMARK SMILES IDX 7 1 6 2 5 3 4 4 3 5 2 6 1 7 8 8 9 9 10 10 11 11 12 13 13 14
REMARK SMILES IDX 21 15 14 16 18 17 15 18 16 19 19 20 20 21 17 22
REMARK H PARENT 11 12 17 23
REMARK Flexibility Score: inf
ROOT
ATOM      1  C   UNL     1      94.883  97.000  73.750  1.00  0.00     0.010 C 
ENDROOT
BRANCH   1   2
ATOM      2  C   UNL     1      94.837  96.329  75.153  1.00  0.00     0.001 C 
BRANCH   2   3
ATOM      3  C   UNL     1      93.510  95.549  75.389  1.00  0.00     0.000 C 
BRANCH   3   4
ATOM      4  C   UNL     1      93.029  95.564  76.868  1.00  0.00    -0.000 C 
BRANCH   4   5
ATOM      5  C   UNL     1      91.490  95.752  76.997  1.00  0.00    -0.000 C 
BRANCH   5   6
ATOM      6  C   UNL     1      90.741  94.409  77.212  1.00  0.00    -0.003 C 
ATOM      7  C   UNL     1      91.623  93.330  77.877  1.00  0.00     0.004 C 
ENDBRANCH   5   6
ENDBRANCH   4   5
ENDBRANCH   3   4
ENDBRANCH   2   3
ENDBRANCH   1   2
BRANCH   1   8
ATOM      8  C   UNL     1      95.842  96.298  72.747  1.00  0.00     0.100 C 
BRANCH   8   9
ATOM      9  C   UNL     1      95.916  97.038  71.464  1.00  0.00     0.220 C 
ATOM     10  O   UNL     1      96.321  96.425  70.447  1.00  0.00    -0.275 OA
ATOM     11  N   UNL     1      95.525  98.344  71.392  1.00  0.00    -0.352 N 
ATOM     12  H   UNL     1      95.300  98.762  72.283  1.00  0.00     0.163 HD
BRANCH  11  13
ATOM     13  C   UNL     1      95.416  99.119  70.194  1.00  0.00     0.151 C 
BRANCH  13  14
ATOM     14  C   UNL     1      94.115  99.825  70.051  1.00  0.00    -0.025 A 
ATOM     15  C   UNL     1      92.958  99.324  70.694  1.00  0.00     0.056 A 
ATOM     16  C   UNL     1      94.008 101.001  69.272  1.00  0.00     0.009 A 
ATOM     17  C   UNL     1      91.718  99.995  70.581  1.00  0.00     0.160 A 
ATOM     18  C   UNL     1      92.778 101.673  69.157  1.00  0.00     0.050 A 
ATOM     19  C   UNL     1      91.632 101.171  69.802  1.00  0.00     0.157 A 
BRANCH  17  20
ATOM     20  O   UNL     1      90.589  99.485  71.170  1.00  0.00    -0.493 OA
ATOM     21  C   UNL     1      89.957  98.432  70.420  1.00  0.00     0.278 C 
ENDBRANCH  17  20
BRANCH  19  22
ATOM     22  O   UNL     1      90.443 101.811  69.662  1.00  0.00    -0.504 OA
ATOM     23  H   UNL     1      89.845 101.266  69.145  1.00  0.00     0.293 HD
ENDBRANCH  19  22
ENDBRANCH  13  14
ENDBRANCH  11  13
ENDBRANCH   8   9
ENDBRANCH   1   8
TORSDOF 11
ENDMDL
