MODEL 1
REMARK VINA RESULT:    -8.060      0.000      0.000
REMARK INTER + INTRA:          -9.854
REMARK INTER:                  -9.474
REMARK INTRA:                  -0.380
REMARK UNBOUND:                -0.380
REMARK SMILES O=C(/C=C/C=C/c1ccc2c(c1)OCO2)N1CCCCC1
REMARK SMILES IDX 3 1 4 2 2 3 1 4 16 5 17 6 21 7 18 8 20 9 19 10 5 11 6 12
REMARK SMILES IDX 7 13 12 14 8 15 11 16 9 17 13 18 10 19 14 20 15 21
REMARK H PARENT
REMARK Flexibility Score: inf
ROOT
ATOM      1  C   UNL     1      90.960  91.883  75.835  1.00  0.00     0.071 C 
ATOM      2  C   UNL     1      91.036  92.440  77.042  1.00  0.00     0.006 C 
ENDROOT
BRANCH   1   3
ATOM      3  C   UNL     1      89.680  91.267  75.433  1.00  0.00     0.246 C 
ATOM      4  O   UNL     1      88.768  91.257  76.261  1.00  0.00    -0.270 OA
ATOM      5  N   UNL     1      89.590  90.735  74.147  1.00  0.00    -0.339 N 
ATOM      6  C   UNL     1      88.334  90.112  73.721  1.00  0.00     0.120 C 
ATOM      7  C   UNL     1      90.669  90.689  73.149  1.00  0.00     0.120 C 
ATOM      8  C   UNL     1      87.839  90.701  72.404  1.00  0.00     0.022 C 
ATOM      9  C   UNL     1      90.210  91.267  71.811  1.00  0.00     0.022 C 
ATOM     10  C   UNL     1      88.917  90.616  71.329  1.00  0.00     0.004 C 
ENDBRANCH   1   3
BRANCH   2  11
ATOM     11  C   UNL     1      92.247  93.068  77.526  1.00  0.00     0.001 C 
ATOM     12  C   UNL     1      93.139  93.651  76.709  1.00  0.00     0.008 C 
BRANCH  12  13
ATOM     13  C   UNL     1      94.389  94.296  77.146  1.00  0.00    -0.022 A 
ATOM     14  C   UNL     1      94.648  94.416  78.504  1.00  0.00     0.058 A 
ATOM     15  C   UNL     1      95.281  94.769  76.180  1.00  0.00     0.012 A 
ATOM     16  C   UNL     1      95.831  95.026  78.865  1.00  0.00     0.166 A 
ATOM     17  C   UNL     1      96.472  95.383  76.573  1.00  0.00     0.051 A 
ATOM     18  O   UNL     1      96.264  95.240  80.138  1.00  0.00    -0.454 OA
ATOM     19  C   UNL     1      96.720  95.497  77.925  1.00  0.00     0.165 A 
ATOM     20  C   UNL     1      97.524  95.897  79.893  1.00  0.00     0.468 C 
ATOM     21  O   UNL     1      97.820  96.064  78.491  1.00  0.00    -0.454 OA
ENDBRANCH  12  13
ENDBRANCH   2  11
TORSDOF 3
ENDMDL
MODEL 2
REMARK VINA RESULT:    -7.885      2.759      9.153
REMARK INTER + INTRA:          -9.648
REMARK INTER:                  -9.268
REMARK INTRA:                  -0.379
REMARK UNBOUND:                -0.380
REMARK SMILES O=C(/C=C/C=C/c1ccc2c(c1)OCO2)N1CCCCC1
REMARK SMILES IDX 3 1 4 2 2 3 1 4 16 5 17 6 21 7 18 8 20 9 19 10 5 11 6 12
REMARK SMILES IDX 7 13 12 14 8 15 11 16 9 17 13 18 10 19 14 20 15 21
REMARK H PARENT
REMARK Flexibility Score: inf
ROOT
ATOM      1  C   UNL     1      94.693  94.461  76.304  1.00  0.00     0.071 C 
ATOM      2  C   UNL     1      93.858  95.002  75.419  1.00  0.00     0.006 C 
ENDROOT
BRANCH   1   3
ATOM      3  C   UNL     1      95.853  95.260  76.745  1.00  0.00     0.246 C 
ATOM      4  O   UNL     1      96.444  95.924  75.892  1.00  0.00    -0.270 OA
ATOM      5  N   UNL     1      96.204  95.207  78.093  1.00  0.00    -0.339 N 
ATOM      6  C   UNL     1      97.355  95.986  78.560  1.00  0.00     0.120 C 
ATOM      7  C   UNL     1      95.552  94.394  79.130  1.00  0.00     0.120 C 
ATOM      8  C   UNL     1      96.986  96.869  79.747  1.00  0.00     0.022 C 
ATOM      9  C   UNL     1      95.169  95.244  80.341  1.00  0.00     0.022 C 
ATOM     10  C   UNL     1      96.357  96.045  80.866  1.00  0.00     0.004 C 
ENDBRANCH   1   3
BRANCH   2  11
ATOM     11  C   UNL     1      92.694  94.297  74.927  1.00  0.00     0.001 C 
ATOM     12  C   UNL     1      92.663  92.963  74.778  1.00  0.00     0.008 C 
BRANCH  12  13
ATOM     13  C   UNL     1      91.510  92.196  74.275  1.00  0.00    -0.022 A 
ATOM     14  C   UNL     1      90.547  92.846  73.515  1.00  0.00     0.058 A 
ATOM     15  C   UNL     1      91.417  90.836  74.578  1.00  0.00     0.012 A 
ATOM     16  C   UNL     1      89.487  92.086  73.066  1.00  0.00     0.166 A 
ATOM     17  C   UNL     1      90.333  90.090  74.110  1.00  0.00     0.051 A 
ATOM     18  O   UNL     1      88.445  92.535  72.312  1.00  0.00    -0.454 OA
ATOM     19  C   UNL     1      89.382  90.745  73.356  1.00  0.00     0.165 A 
ATOM     20  C   UNL     1      87.675  91.325  72.160  1.00  0.00     0.468 C 
ATOM     21  O   UNL     1      88.263  90.185  72.820  1.00  0.00    -0.454 OA
ENDBRANCH  12  13
ENDBRANCH   2  11
TORSDOF 3
ENDMDL
MODEL 3
REMARK VINA RESULT:    -7.789      2.712      9.193
REMARK INTER + INTRA:          -9.535
REMARK INTER:                  -9.155
REMARK INTRA:                  -0.380
REMARK UNBOUND:                -0.380
REMARK SMILES O=C(/C=C/C=C/c1ccc2c(c1)OCO2)N1CCCCC1
REMARK SMILES IDX 3 1 4 2 2 3 1 4 16 5 17 6 21 7 18 8 20 9 19 10 5 11 6 12
REMARK SMILES IDX 7 13 12 14 8 15 11 16 9 17 13 18 10 19 14 20 15 21
REMARK H PARENT
REMARK Flexibility Score: inf
ROOT
ATOM      1  C   UNL     1      95.773  94.224  77.695  1.00  0.00     0.071 C 
ATOM      2  C   UNL     1      94.570  94.618  77.281  1.00  0.00     0.006 C 
ENDROOT
BRANCH   1   3
ATOM      3  C   UNL     1      96.659  95.230  78.313  1.00  0.00     0.246 C 
ATOM      4  O   UNL     1      97.290  95.972  77.559  1.00  0.00    -0.270 OA
ATOM      5  N   UNL     1      96.725  95.270  79.705  1.00  0.00    -0.339 N 
ATOM      6  C   UNL     1      97.601  96.255  80.347  1.00  0.00     0.120 C 
ATOM      7  C   UNL     1      96.022  94.374  80.634  1.00  0.00     0.120 C 
ATOM      8  C   UNL     1      96.845  97.081  81.383  1.00  0.00     0.022 C 
ATOM      9  C   UNL     1      95.254  95.165  81.692  1.00  0.00     0.022 C 
ATOM     10  C   UNL     1      96.149  96.180  82.398  1.00  0.00     0.004 C 
ENDBRANCH   1   3
BRANCH   2  11
ATOM     11  C   UNL     1      93.632  93.706  76.663  1.00  0.00     0.001 C 
ATOM     12  C   UNL     1      92.460  93.375  77.229  1.00  0.00     0.008 C 
BRANCH  12  13
ATOM     13  C   UNL     1      91.474  92.447  76.649  1.00  0.00    -0.022 A 
ATOM     14  C   UNL     1      91.782  91.786  75.468  1.00  0.00     0.058 A 
ATOM     15  C   UNL     1      90.255  92.258  77.304  1.00  0.00     0.012 A 
ATOM     16  C   UNL     1      90.827  90.927  74.964  1.00  0.00     0.166 A 
ATOM     17  C   UNL     1      89.306  91.383  76.771  1.00  0.00     0.051 A 
ATOM     18  O   UNL     1      90.937  90.191  73.824  1.00  0.00    -0.454 OA
ATOM     19  C   UNL     1      89.622  90.730  75.598  1.00  0.00     0.165 A 
ATOM     20  C   UNL     1      89.666  89.510  73.812  1.00  0.00     0.468 C 
ATOM     21  O   UNL     1      88.826  89.847  74.935  1.00  0.00    -0.454 OA
ENDBRANCH  12  13
ENDBRANCH   2  11
TORSDOF 3
ENDMDL
MODEL 4
REMARK VINA RESULT:    -7.450      2.706      9.139
REMARK INTER + INTRA:          -9.137
REMARK INTER:                  -8.820
REMARK INTRA:                  -0.317
REMARK UNBOUND:                -0.380
REMARK SMILES O=C(/C=C/C=C/c1ccc2c(c1)OCO2)N1CCCCC1
REMARK SMILES IDX 3 1 4 2 2 3 1 4 16 5 17 6 21 7 18 8 20 9 19 10 5 11 6 12
REMARK SMILES IDX 7 13 12 14 8 15 11 16 9 17 13 18 10 19 14 20 15 21
REMARK H PARENT
REMARK Flexibility Score: inf
ROOT
ATOM      1  C   UNL     1      94.659  94.190  77.559  1.00  0.00     0.071 C 
ATOM      2  C   UNL     1      93.416  93.720  77.644  1.00  0.00     0.006 C 
ENDROOT
BRANCH   1   3
ATOM      3  C   UNL     1      95.265  94.776  78.772  1.00  0.00     0.246 C 
ATOM      4  O   UNL     1      94.801  94.434  79.861  1.00  0.00    -0.270 OA
ATOM      5  N   UNL     1      96.314  95.677  78.604  1.00  0.00    -0.339 N 
ATOM      6  C   UNL     1      96.932  96.279  79.789  1.00  0.00     0.120 C 
ATOM      7  C   UNL     1      96.864  96.142  77.321  1.00  0.00     0.120 C 
ATOM      8  C   UNL     1      98.446  96.095  79.783  1.00  0.00     0.022 C 
ATOM      9  C   UNL     1      98.383  95.976  77.278  1.00  0.00     0.022 C 
ATOM     10  C   UNL     1      99.055  96.619  78.487  1.00  0.00     0.004 C 
ENDBRANCH   1   3
BRANCH   2  11
ATOM     11  C   UNL     1      92.738  93.129  76.510  1.00  0.00     0.001 C 
ATOM     12  C   UNL     1      91.506  92.602  76.594  1.00  0.00     0.008 C 
BRANCH  12  13
ATOM     13  C   UNL     1      90.775  91.981  75.476  1.00  0.00    -0.022 A 
ATOM     14  C   UNL     1      91.310  92.051  74.197  1.00  0.00     0.058 A 
ATOM     15  C   UNL     1      89.561  91.339  75.734  1.00  0.00     0.012 A 
ATOM     16  C   UNL     1      90.589  91.455  73.183  1.00  0.00     0.166 A 
ATOM     17  C   UNL     1      88.852  90.744  74.689  1.00  0.00     0.051 A 
ATOM     18  O   UNL     1      90.942  91.416  71.869  1.00  0.00    -0.454 OA
ATOM     19  C   UNL     1      89.392  90.819  73.422  1.00  0.00     0.165 A 
ATOM     20  C   UNL     1      89.833  90.684  71.308  1.00  0.00     0.468 C 
ATOM     21  O   UNL     1      88.846  90.301  72.288  1.00  0.00    -0.454 OA
ENDBRANCH  12  13
ENDBRANCH   2  11
TORSDOF 3
ENDMDL
MODEL 5
REMARK VINA RESULT:    -6.976      1.606      2.416
REMARK INTER + INTRA:          -8.580
REMARK INTER:                  -8.257
REMARK INTRA:                  -0.322
REMARK UNBOUND:                -0.380
REMARK SMILES O=C(/C=C/C=C/c1ccc2c(c1)OCO2)N1CCCCC1
REMARK SMILES IDX 3 1 4 2 2 3 1 4 16 5 17 6 21 7 18 8 20 9 19 10 5 11 6 12
REMARK SMILES IDX 7 13 12 14 8 15 11 16 9 17 13 18 10 19 14 20 15 21
REMARK H PARENT
REMARK Flexibility Score: inf
ROOT
ATOM      1  C   UNL     1      91.520  91.661  75.268  1.00  0.00     0.071 C 
ATOM      2  C   UNL     1      91.866  92.818  75.831  1.00  0.00     0.006 C 
ENDROOT
BRANCH   1   3
ATOM      3  C   UNL     1      90.089  91.297  75.253  1.00  0.00     0.246 C 
ATOM      4  O   UNL     1      89.432  91.529  76.269  1.00  0.00    -0.270 OA
ATOM      5  N   UNL     1      89.580  90.710  74.095  1.00  0.00    -0.339 N 
ATOM      6  C   UNL     1      88.164  90.332  74.053  1.00  0.00     0.120 C 
ATOM      7  C   UNL     1      90.342  90.377  72.883  1.00  0.00     0.120 C 
ATOM      8  C   UNL     1      87.467  90.921  72.831  1.00  0.00     0.022 C 
ATOM      9  C   UNL     1      89.671  90.948  71.634  1.00  0.00     0.022 C 
ATOM     10  C   UNL     1      88.202  90.546  71.548  1.00  0.00     0.004 C 
ENDBRANCH   1   3
BRANCH   2  11
ATOM     11  C   UNL     1      93.242  93.261  75.894  1.00  0.00     0.001 C 
ATOM     12  C   UNL     1      93.583  94.544  76.094  1.00  0.00     0.008 C 
BRANCH  12  13
ATOM     13  C   UNL     1      94.965  95.051  76.159  1.00  0.00    -0.022 A 
ATOM     14  C   UNL     1      95.508  95.675  75.045  1.00  0.00     0.058 A 
ATOM     15  C   UNL     1      95.691  94.888  77.341  1.00  0.00     0.012 A 
ATOM     16  C   UNL     1      96.805  96.133  75.154  1.00  0.00     0.166 A 
ATOM     17  C   UNL     1      97.002  95.361  77.424  1.00  0.00     0.051 A 
ATOM     18  O   UNL     1      97.512  96.767  74.179  1.00  0.00    -0.454 OA
ATOM     19  C   UNL     1      97.533  95.980  76.312  1.00  0.00     0.165 A 
ATOM     20  C   UNL     1      98.766  96.996  74.853  1.00  0.00     0.468 C 
ATOM     21  O   UNL     1      98.786  96.499  76.207  1.00  0.00    -0.454 OA
ENDBRANCH  12  13
ENDBRANCH   2  11
TORSDOF 3
ENDMDL
MODEL 6
REMARK VINA RESULT:    -6.903      4.355      7.999
REMARK INTER + INTRA:          -8.493
REMARK INTER:                  -8.110
REMARK INTRA:                  -0.383
REMARK UNBOUND:                -0.380
REMARK SMILES O=C(/C=C/C=C/c1ccc2c(c1)OCO2)N1CCCCC1
REMARK SMILES IDX 3 1 4 2 2 3 1 4 16 5 17 6 21 7 18 8 20 9 19 10 5 11 6 12
REMARK SMILES IDX 7 13 12 14 8 15 11 16 9 17 13 18 10 19 14 20 15 21
REMARK H PARENT
REMARK Flexibility Score: inf
ROOT
ATOM      1  C   UNL     1      94.173  96.706  74.310  1.00  0.00     0.071 C 
ATOM      2  C   UNL     1      94.736  95.828  75.138  1.00  0.00     0.006 C 
ENDROOT
BRANCH   1   3
ATOM      3  C   UNL     1      94.896  97.963  74.035  1.00  0.00     0.246 C 
ATOM      4  O   UNL     1      95.685  98.365  74.891  1.00  0.00    -0.270 OA
ATOM      5  N   UNL     1      94.634  98.614  72.830  1.00  0.00    -0.339 N 
ATOM      6  C   UNL     1      95.332  99.867  72.532  1.00  0.00     0.120 C 
ATOM      7  C   UNL     1      93.667  98.189  71.806  1.00  0.00     0.120 C 
ATOM      8  C   UNL     1      96.018  99.813  71.171  1.00  0.00     0.022 C 
ATOM      9  C   UNL     1      94.318  98.126  70.424  1.00  0.00     0.022 C 
ATOM     10  C   UNL     1      95.029  99.430  70.075  1.00  0.00     0.004 C 
ENDBRANCH   1   3
BRANCH   2  11
ATOM     11  C   UNL     1      94.104  94.568  75.469  1.00  0.00     0.001 C 
ATOM     12  C   UNL     1      92.894  94.218  75.005  1.00  0.00     0.008 C 
BRANCH  12  13
ATOM     13  C   UNL     1      92.203  92.955  75.315  1.00  0.00    -0.022 A 
ATOM     14  C   UNL     1      91.666  92.773  76.583  1.00  0.00     0.058 A 
ATOM     15  C   UNL     1      92.107  91.974  74.325  1.00  0.00     0.012 A 
ATOM     16  C   UNL     1      91.028  91.574  76.826  1.00  0.00     0.166 A 
ATOM     17  C   UNL     1      91.455  90.769  74.599  1.00  0.00     0.051 A 
ATOM     18  O   UNL     1      90.442  91.205  77.998  1.00  0.00    -0.454 OA
ATOM     19  C   UNL     1      90.926  90.598  75.861  1.00  0.00     0.165 A 
ATOM     20  C   UNL     1      89.958  89.889  77.661  1.00  0.00     0.468 C 
ATOM     21  O   UNL     1      90.262  89.497  76.307  1.00  0.00    -0.454 OA
ENDBRANCH  12  13
ENDBRANCH   2  11
TORSDOF 3
ENDMDL
MODEL 7
REMARK VINA RESULT:    -6.856     26.511     28.756
REMARK INTER + INTRA:          -8.438
REMARK INTER:                  -8.033
REMARK INTRA:                  -0.404
REMARK UNBOUND:                -0.380
REMARK SMILES O=C(/C=C/C=C/c1ccc2c(c1)OCO2)N1CCCCC1
REMARK SMILES IDX 3 1 4 2 2 3 1 4 16 5 17 6 21 7 18 8 20 9 19 10 5 11 6 12
REMARK SMILES IDX 7 13 12 14 8 15 11 16 9 17 13 18 10 19 14 20 15 21
REMARK H PARENT
REMARK Flexibility Score: inf
ROOT
ATOM      1  C   UNL     1      63.426  84.335  75.890  1.00  0.00     0.071 C 
ATOM      2  C   UNL     1      64.355  85.242  75.596  1.00  0.00     0.006 C 
ENDROOT
BRANCH   1   3
ATOM      3  C   UNL     1      62.800  83.595  74.776  1.00  0.00     0.246 C 
ATOM      4  O   UNL     1      61.878  84.146  74.174  1.00  0.00    -0.270 OA
ATOM      5  N   UNL     1      63.291  82.324  74.483  1.00  0.00    -0.339 N 
ATOM      6  C   UNL     1      62.685  81.563  73.386  1.00  0.00     0.120 C 
ATOM      7  C   UNL     1      64.358  81.616  75.206  1.00  0.00     0.120 C 
ATOM      8  C   UNL     1      63.740  81.077  72.397  1.00  0.00     0.022 C 
ATOM      9  C   UNL     1      65.434  81.110  74.247  1.00  0.00     0.022 C 
ATOM     10  C   UNL     1      64.835  80.289  73.109  1.00  0.00     0.004 C 
ENDBRANCH   1   3
BRANCH   2  11
ATOM     11  C   UNL     1      65.024  86.017  76.619  1.00  0.00     0.001 C 
ATOM     12  C   UNL     1      65.404  85.494  77.795  1.00  0.00     0.008 C 
BRANCH  12  13
ATOM     13  C   UNL     1      66.079  86.237  78.872  1.00  0.00    -0.022 A 
ATOM     14  C   UNL     1      66.007  87.623  78.884  1.00  0.00     0.058 A 
ATOM     15  C   UNL     1      66.776  85.526  79.853  1.00  0.00     0.012 A 
ATOM     16  C   UNL     1      66.655  88.275  79.913  1.00  0.00     0.166 A 
ATOM     17  C   UNL     1      67.423  86.212  80.883  1.00  0.00     0.051 A 
ATOM     18  O   UNL     1      66.703  89.623  80.100  1.00  0.00    -0.454 OA
ATOM     19  C   UNL     1      67.345  87.589  80.886  1.00  0.00     0.165 A 
ATOM     20  C   UNL     1      67.499  89.707  81.299  1.00  0.00     0.468 C 
ATOM     21  O   UNL     1      67.910  88.420  81.804  1.00  0.00    -0.454 OA
ENDBRANCH  12  13
ENDBRANCH   2  11
TORSDOF 3
ENDMDL
MODEL 8
REMARK VINA RESULT:    -6.849     21.850     25.424
REMARK INTER + INTRA:          -8.430
REMARK INTER:                  -8.099
REMARK INTRA:                  -0.331
REMARK UNBOUND:                -0.380
REMARK SMILES O=C(/C=C/C=C/c1ccc2c(c1)OCO2)N1CCCCC1
REMARK SMILES IDX 3 1 4 2 2 3 1 4 16 5 17 6 21 7 18 8 20 9 19 10 5 11 6 12
REMARK SMILES IDX 7 13 12 14 8 15 11 16 9 17 13 18 10 19 14 20 15 21
REMARK H PARENT
REMARK Flexibility Score: inf
ROOT
ATOM      1  C   UNL     1      83.982  68.960  71.739  1.00  0.00     0.071 C 
ATOM      2  C   UNL     1      85.274  69.134  71.468  1.00  0.00     0.006 C 
ENDROOT
BRANCH   1   3
ATOM      3  C   UNL     1      83.616  67.981  72.782  1.00  0.00     0.246 C 
ATOM      4  O   UNL     1      84.149  68.099  73.886  1.00  0.00    -0.270 OA
ATOM      5  N   UNL     1      82.697  66.988  72.447  1.00  0.00    -0.339 N 
ATOM      6  C   UNL     1      82.318  65.998  73.460  1.00  0.00     0.120 C 
ATOM      7  C   UNL     1      82.074  66.789  71.130  1.00  0.00     0.120 C 
ATOM      8  C   UNL     1      80.804  65.913  73.617  1.00  0.00     0.022 C 
ATOM      9  C   UNL     1      80.553  66.694  71.245  1.00  0.00     0.022 C 
ATOM     10  C   UNL     1      80.129  65.650  72.274  1.00  0.00     0.004 C 
ENDBRANCH   1   3
BRANCH   2  11
ATOM     11  C   UNL     1      85.730  70.070  70.463  1.00  0.00     0.001 C 
ATOM     12  C   UNL     1      87.031  70.281  70.204  1.00  0.00     0.008 C 
BRANCH  12  13
ATOM     13  C   UNL     1      87.550  71.226  69.201  1.00  0.00    -0.022 A 
ATOM     14  C   UNL     1      88.767  71.853  69.429  1.00  0.00     0.058 A 
ATOM     15  C   UNL     1      86.801  71.465  68.045  1.00  0.00     0.012 A 
ATOM     16  C   UNL     1      89.211  72.729  68.460  1.00  0.00     0.166 A 
ATOM     17  C   UNL     1      87.275  72.357  67.081  1.00  0.00     0.051 A 
ATOM     18  O   UNL     1      90.372  73.439  68.498  1.00  0.00    -0.454 OA
ATOM     19  C   UNL     1      88.485  72.974  67.317  1.00  0.00     0.165 A 
ATOM     20  C   UNL     1      90.295  74.159  67.251  1.00  0.00     0.468 C 
ATOM     21  O   UNL     1      89.100  73.869  66.496  1.00  0.00    -0.454 OA
ENDBRANCH  12  13
ENDBRANCH   2  11
TORSDOF 3
ENDMDL
MODEL 9
REMARK VINA RESULT:    -6.842     12.433     14.105
REMARK INTER + INTRA:          -8.422
REMARK INTER:                  -8.119
REMARK INTRA:                  -0.303
REMARK UNBOUND:                -0.380
REMARK SMILES O=C(/C=C/C=C/c1ccc2c(c1)OCO2)N1CCCCC1
REMARK SMILES IDX 3 1 4 2 2 3 1 4 16 5 17 6 21 7 18 8 20 9 19 10 5 11 6 12
REMARK SMILES IDX 7 13 12 14 8 15 11 16 9 17 13 18 10 19 14 20 15 21
REMARK H PARENT
REMARK Flexibility Score: inf
ROOT
ATOM      1  C   UNL     1      96.710  83.409  84.427  1.00  0.00     0.071 C 
ATOM      2  C   UNL     1      96.183  82.972  83.285  1.00  0.00     0.006 C 
ENDROOT
BRANCH   1   3
ATOM      3  C   UNL     1      95.967  83.152  85.678  1.00  0.00     0.246 C 
ATOM      4  O   UNL     1      96.116  82.053  86.213  1.00  0.00    -0.270 OA
ATOM      5  N   UNL     1      95.145  84.167  86.165  1.00  0.00    -0.339 N 
ATOM      6  C   UNL     1      94.391  83.940  87.401  1.00  0.00     0.120 C 
ATOM      7  C   UNL     1      94.908  85.473  85.531  1.00  0.00     0.120 C 
ATOM      8  C   UNL     1      94.634  85.054  88.414  1.00  0.00     0.022 C 
ATOM      9  C   UNL     1      95.138  86.617  86.518  1.00  0.00     0.022 C 
ATOM     10  C   UNL     1      94.342  86.421  87.805  1.00  0.00     0.004 C 
ENDBRANCH   1   3
BRANCH   2  11
ATOM     11  C   UNL     1      96.836  83.176  82.009  1.00  0.00     0.001 C 
ATOM     12  C   UNL     1      96.671  82.344  80.968  1.00  0.00     0.008 C 
BRANCH  12  13
ATOM     13  C   UNL     1      97.316  82.499  79.653  1.00  0.00    -0.022 A 
ATOM     14  C   UNL     1      96.523  82.567  78.515  1.00  0.00     0.058 A 
ATOM     15  C   UNL     1      98.709  82.574  79.587  1.00  0.00     0.012 A 
ATOM     16  C   UNL     1      97.173  82.712  77.307  1.00  0.00     0.166 A 
ATOM     17  C   UNL     1      99.341  82.722  78.350  1.00  0.00     0.051 A 
ATOM     18  O   UNL     1      96.578  82.796  76.086  1.00  0.00    -0.454 OA
ATOM     19  C   UNL     1      98.545  82.788  77.226  1.00  0.00     0.165 A 
ATOM     20  C   UNL     1      97.729  82.933  75.228  1.00  0.00     0.468 C 
ATOM     21  O   UNL     1      98.980  82.928  75.945  1.00  0.00    -0.454 OA
ENDBRANCH  12  13
ENDBRANCH   2  11
TORSDOF 3
ENDMDL
MODEL 10
REMARK VINA RESULT:    -6.722      3.763      8.432
REMARK INTER + INTRA:          -8.281
REMARK INTER:                  -7.891
REMARK INTRA:                  -0.390
REMARK UNBOUND:                -0.380
REMARK SMILES O=C(/C=C/C=C/c1ccc2c(c1)OCO2)N1CCCCC1
REMARK SMILES IDX 3 1 4 2 2 3 1 4 16 5 17 6 21 7 18 8 20 9 19 10 5 11 6 12
REMARK SMILES IDX 7 13 12 14 8 15 11 16 9 17 13 18 10 19 14 20 15 21
REMARK H PARENT
REMARK Flexibility Score: inf
ROOT
ATOM      1  C   UNL     1      95.191  95.985  74.844  1.00  0.00     0.071 C 
ATOM      2  C   UNL     1      95.402  94.738  75.263  1.00  0.00     0.006 C 
ENDROOT
BRANCH   1   3
ATOM      3  C   UNL     1      96.368  96.828  74.554  1.00  0.00     0.246 C 
ATOM      4  O   UNL     1      97.384  96.636  75.223  1.00  0.00    -0.270 OA
ATOM      5  N   UNL     1      96.248  97.787  73.549  1.00  0.00    -0.339 N 
ATOM      6  C   UNL     1      97.398  98.643  73.243  1.00  0.00     0.120 C 
ATOM      7  C   UNL     1      95.040  98.075  72.763  1.00  0.00     0.120 C 
ATOM      8  C   UNL     1      97.735  98.612  71.756  1.00  0.00     0.022 C 
ATOM      9  C   UNL     1      95.338  98.057  71.264  1.00  0.00     0.022 C 
ATOM     10  C   UNL     1      96.514  98.963  70.911  1.00  0.00     0.004 C 
ENDBRANCH   1   3
BRANCH   2  11
ATOM     11  C   UNL     1      94.313  93.836  75.573  1.00  0.00     0.001 C 
ATOM     12  C   UNL     1      93.022  94.186  75.449  1.00  0.00     0.008 C 
BRANCH  12  13
ATOM     13  C   UNL     1      91.877  93.313  75.757  1.00  0.00    -0.022 A 
ATOM     14  C   UNL     1      91.714  92.135  75.040  1.00  0.00     0.058 A 
ATOM     15  C   UNL     1      90.987  93.693  76.764  1.00  0.00     0.012 A 
ATOM     16  C   UNL     1      90.627  91.350  75.366  1.00  0.00     0.166 A 
ATOM     17  C   UNL     1      89.894  92.880  77.073  1.00  0.00     0.051 A 
ATOM     18  O   UNL     1      90.293  90.167  74.781  1.00  0.00    -0.454 OA
ATOM     19  C   UNL     1      89.741  91.712  76.355  1.00  0.00     0.165 A 
ATOM     20  C   UNL     1      89.099  89.825  75.514  1.00  0.00     0.468 C 
ATOM     21  O   UNL     1      88.743  90.801  76.514  1.00  0.00    -0.454 OA
ENDBRANCH  12  13
ENDBRANCH   2  11
TORSDOF 3
ENDMDL
