MODEL 1
REMARK VINA RESULT:    -5.318      0.000      0.000
REMARK INTER + INTRA:         -10.098
REMARK INTER:                  -8.271
REMARK INTRA:                  -1.826
REMARK UNBOUND:                -1.826
REMARK SMILES CCCCC/C=C/C(=O)CCc1ccc(O)c(OC)c1
REMARK SMILES IDX 6 1 7 2 8 3 9 4 10 5 11 6 12 7 17 8 20 9 15 10 14 11 13 12
REMARK SMILES IDX 18 13 19 14 16 15 5 17 4 18 3 19 2 20 1 21
REMARK H PARENT 16 16
REMARK Flexibility Score: inf
ROOT
ATOM      1  C   UNL     1      75.866  84.314  63.621  1.00  0.00    -0.023 C 
ATOM      2  C   UNL     1      76.203  83.114  63.132  1.00  0.00     0.043 C 
ENDROOT
BRANCH   2   3
ATOM      3  C   UNL     1      75.552  81.886  63.665  1.00  0.00     0.155 C 
ATOM      4  O   UNL     1      74.583  81.372  63.110  1.00  0.00    -0.295 OA
BRANCH   3   5
ATOM      5  C   UNL     1      76.114  81.330  64.959  1.00  0.00     0.085 C 
BRANCH   5   6
ATOM      6  C   UNL     1      75.425  81.951  66.176  1.00  0.00     0.044 C 
BRANCH   6   7
ATOM      7  C   UNL     1      76.330  82.875  66.955  1.00  0.00    -0.044 A 
ATOM      8  C   UNL     1      76.709  84.292  68.855  1.00  0.00     0.160 A 
ATOM      9  C   UNL     1      75.872  83.438  68.136  1.00  0.00     0.054 A 
ATOM     10  C   UNL     1      77.991  84.571  68.386  1.00  0.00     0.157 A 
ATOM     11  C   UNL     1      78.438  83.997  67.195  1.00  0.00     0.050 A 
ATOM     12  C   UNL     1      77.602  83.143  66.475  1.00  0.00     0.008 A 
BRANCH   8  13
ATOM     13  O   UNL     1      76.260  84.846  70.016  1.00  0.00    -0.493 OA
ATOM     14  C   UNL     1      75.065  85.621  69.946  1.00  0.00     0.278 C 
ENDBRANCH   8  13
BRANCH  10  15
ATOM     15  O   UNL     1      78.818  85.402  69.080  1.00  0.00    -0.504 OA
ATOM     16  H   UNL     1      79.146  84.924  69.861  1.00  0.00     0.293 HD
ENDBRANCH  10  15
ENDBRANCH   6   7
ENDBRANCH   5   6
ENDBRANCH   3   5
ENDBRANCH   2   3
BRANCH   1  17
ATOM     17  C   UNL     1      76.476  85.597  63.138  1.00  0.00     0.027 C 
BRANCH  17  18
ATOM     18  C   UNL     1      76.819  86.566  64.274  1.00  0.00     0.004 C 
BRANCH  18  19
ATOM     19  C   UNL     1      75.648  86.835  65.225  1.00  0.00     0.000 C 
BRANCH  19  20
ATOM     20  C   UNL     1      76.145  87.151  66.637  1.00  0.00    -0.003 C 
ATOM     21  C   UNL     1      77.568  87.688  66.619  1.00  0.00     0.004 C 
ENDBRANCH  19  20
ENDBRANCH  18  19
ENDBRANCH  17  18
ENDBRANCH   1  17
TORSDOF 10
ENDMDL
MODEL 2
REMARK VINA RESULT:    -5.276     13.612     15.586
REMARK INTER + INTRA:         -10.032
REMARK INTER:                  -8.861
REMARK INTRA:                  -1.172
REMARK UNBOUND:                -1.826
REMARK SMILES CCCCC/C=C/C(=O)CCc1ccc(O)c(OC)c1
REMARK SMILES IDX 6 1 7 2 8 3 9 4 10 5 11 6 12 7 17 8 20 9 15 10 14 11 13 12
REMARK SMILES IDX 18 13 19 14 16 15 5 17 4 18 3 19 2 20 1 21
REMARK H PARENT 16 16
REMARK Flexibility Score: inf
ROOT
ATOM      1  C   UNL     1      62.124  84.936  69.846  1.00  0.00    -0.023 C 
ATOM      2  C   UNL     1      62.497  83.724  69.415  1.00  0.00     0.043 C 
ENDROOT
BRANCH   2   3
ATOM      3  C   UNL     1      63.913  83.289  69.561  1.00  0.00     0.155 C 
ATOM      4  O   UNL     1      64.852  84.036  69.294  1.00  0.00    -0.295 OA
BRANCH   3   5
ATOM      5  C   UNL     1      64.138  81.857  70.005  1.00  0.00     0.085 C 
BRANCH   5   6
ATOM      6  C   UNL     1      64.852  81.800  71.356  1.00  0.00     0.044 C 
BRANCH   6   7
ATOM      7  C   UNL     1      63.945  82.141  72.515  1.00  0.00    -0.044 A 
ATOM      8  C   UNL     1      63.324  83.624  74.296  1.00  0.00     0.160 A 
ATOM      9  C   UNL     1      64.162  83.310  73.226  1.00  0.00     0.054 A 
ATOM     10  C   UNL     1      62.281  82.766  74.641  1.00  0.00     0.157 A 
ATOM     11  C   UNL     1      62.075  81.591  73.915  1.00  0.00     0.050 A 
ATOM     12  C   UNL     1      62.914  81.277  72.845  1.00  0.00     0.008 A 
BRANCH   8  13
ATOM     13  O   UNL     1      63.535  84.773  74.997  1.00  0.00    -0.493 OA
ATOM     14  C   UNL     1      64.526  84.735  76.022  1.00  0.00     0.278 C 
ENDBRANCH   8  13
BRANCH  10  15
ATOM     15  O   UNL     1      61.455  83.061  75.683  1.00  0.00    -0.504 OA
ATOM     16  H   UNL     1      60.564  82.736  75.469  1.00  0.00     0.293 HD
ENDBRANCH  10  15
ENDBRANCH   6   7
ENDBRANCH   5   6
ENDBRANCH   3   5
ENDBRANCH   2   3
BRANCH   1  17
ATOM     17  C   UNL     1      60.718  85.449  69.735  1.00  0.00     0.027 C 
BRANCH  17  18
ATOM     18  C   UNL     1      59.661  84.367  69.981  1.00  0.00     0.004 C 
BRANCH  18  19
ATOM     19  C   UNL     1      58.495  84.835  70.857  1.00  0.00     0.000 C 
BRANCH  19  20
ATOM     20  C   UNL     1      58.716  86.266  71.350  1.00  0.00    -0.003 C 
ATOM     21  C   UNL     1      58.835  86.321  72.865  1.00  0.00     0.004 C 
ENDBRANCH  19  20
ENDBRANCH  18  19
ENDBRANCH  17  18
ENDBRANCH   1  17
TORSDOF 10
ENDMDL
MODEL 3
REMARK VINA RESULT:    -5.066      2.245      5.539
REMARK INTER + INTRA:          -9.705
REMARK INTER:                  -7.962
REMARK INTRA:                  -1.743
REMARK UNBOUND:                -1.826
REMARK SMILES CCCCC/C=C/C(=O)CCc1ccc(O)c(OC)c1
REMARK SMILES IDX 6 1 7 2 8 3 9 4 10 5 11 6 12 7 17 8 20 9 15 10 14 11 13 12
REMARK SMILES IDX 18 13 19 14 16 15 5 17 4 18 3 19 2 20 1 21
REMARK H PARENT 16 16
REMARK Flexibility Score: inf
ROOT
ATOM      1  C   UNL     1      78.026  84.242  68.197  1.00  0.00    -0.023 C 
ATOM      2  C   UNL     1      76.969  84.080  69.002  1.00  0.00     0.043 C 
ENDROOT
BRANCH   2   3
ATOM      3  C   UNL     1      76.701  85.069  70.082  1.00  0.00     0.155 C 
ATOM      4  O   UNL     1      75.876  84.854  70.968  1.00  0.00    -0.295 OA
BRANCH   3   5
ATOM      5  C   UNL     1      77.460  86.379  70.003  1.00  0.00     0.085 C 
BRANCH   5   6
ATOM      6  C   UNL     1      76.584  87.495  69.432  1.00  0.00     0.044 C 
BRANCH   6   7
ATOM      7  C   UNL     1      76.401  87.392  67.936  1.00  0.00    -0.044 A 
ATOM      8  C   UNL     1      74.968  87.069  66.039  1.00  0.00     0.160 A 
ATOM      9  C   UNL     1      75.136  87.164  67.420  1.00  0.00     0.054 A 
ATOM     10  C   UNL     1      76.068  87.203  65.191  1.00  0.00     0.157 A 
ATOM     11  C   UNL     1      77.336  87.432  65.726  1.00  0.00     0.050 A 
ATOM     12  C   UNL     1      77.504  87.527  67.108  1.00  0.00     0.008 A 
BRANCH   8  13
ATOM     13  O   UNL     1      73.725  86.845  65.529  1.00  0.00    -0.493 OA
ATOM     14  C   UNL     1      73.249  85.500  65.547  1.00  0.00     0.278 C 
ENDBRANCH   8  13
BRANCH  10  15
ATOM     15  O   UNL     1      75.917  87.113  63.841  1.00  0.00    -0.504 OA
ATOM     16  H   UNL     1      75.392  87.875  63.541  1.00  0.00     0.293 HD
ENDBRANCH  10  15
ENDBRANCH   6   7
ENDBRANCH   5   6
ENDBRANCH   3   5
ENDBRANCH   2   3
BRANCH   1  17
ATOM     17  C   UNL     1      78.365  83.291  67.087  1.00  0.00     0.027 C 
BRANCH  17  18
ATOM     18  C   UNL     1      77.950  83.806  65.705  1.00  0.00     0.004 C 
BRANCH  18  19
ATOM     19  C   UNL     1      76.526  83.407  65.304  1.00  0.00     0.000 C 
BRANCH  19  20
ATOM     20  C   UNL     1      76.212  81.974  65.736  1.00  0.00    -0.003 C 
ATOM     21  C   UNL     1      75.526  81.194  64.626  1.00  0.00     0.004 C 
ENDBRANCH  19  20
ENDBRANCH  18  19
ENDBRANCH  17  18
ENDBRANCH   1  17
TORSDOF 10
ENDMDL
MODEL 4
REMARK VINA RESULT:    -5.018     18.769     22.119
REMARK INTER + INTRA:          -9.630
REMARK INTER:                  -8.304
REMARK INTRA:                  -1.327
REMARK UNBOUND:                -1.826
REMARK SMILES CCCCC/C=C/C(=O)CCc1ccc(O)c(OC)c1
REMARK SMILES IDX 6 1 7 2 8 3 9 4 10 5 11 6 12 7 17 8 20 9 15 10 14 11 13 12
REMARK SMILES IDX 18 13 19 14 16 15 5 17 4 18 3 19 2 20 1 21
REMARK H PARENT 16 16
REMARK Flexibility Score: inf
ROOT
ATOM      1  C   UNL     1      89.897  99.574  71.223  1.00  0.00    -0.023 C 
ATOM      2  C   UNL     1      90.405  98.428  70.754  1.00  0.00     0.043 C 
ENDROOT
BRANCH   2   3
ATOM      3  C   UNL     1      89.521  97.456  70.055  1.00  0.00     0.155 C 
ATOM      4  O   UNL     1      89.644  96.242  70.206  1.00  0.00    -0.295 OA
BRANCH   3   5
ATOM      5  C   UNL     1      88.493  98.039  69.105  1.00  0.00     0.085 C 
BRANCH   5   6
ATOM      6  C   UNL     1      89.132  98.439  67.774  1.00  0.00     0.044 C 
BRANCH   6   7
ATOM      7  C   UNL     1      89.300  99.933  67.629  1.00  0.00    -0.044 A 
ATOM      8  C   UNL     1      90.600 101.812  66.895  1.00  0.00     0.160 A 
ATOM      9  C   UNL     1      90.445 100.432  67.029  1.00  0.00     0.054 A 
ATOM     10  C   UNL     1      89.608 102.674  67.362  1.00  0.00     0.157 A 
ATOM     11  C   UNL     1      88.461 102.156  67.965  1.00  0.00     0.050 A 
ATOM     12  C   UNL     1      88.306 100.776  68.099  1.00  0.00     0.008 A 
BRANCH   8  13
ATOM     13  O   UNL     1      91.725 102.305  66.306  1.00  0.00    -0.493 OA
ATOM     14  C   UNL     1      92.874 102.467  67.135  1.00  0.00     0.278 C 
ENDBRANCH   8  13
BRANCH  10  15
ATOM     15  O   UNL     1      89.748 104.023  67.237  1.00  0.00    -0.504 OA
ATOM     16  H   UNL     1      90.686 104.219  67.073  1.00  0.00     0.293 HD
ENDBRANCH  10  15
ENDBRANCH   6   7
ENDBRANCH   5   6
ENDBRANCH   3   5
ENDBRANCH   2   3
BRANCH   1  17
ATOM     17  C   UNL     1      90.721 100.605  71.939  1.00  0.00     0.027 C 
BRANCH  17  18
ATOM     18  C   UNL     1      92.229 100.370  71.802  1.00  0.00     0.004 C 
BRANCH  18  19
ATOM     19  C   UNL     1      93.051 100.985  72.939  1.00  0.00     0.000 C 
BRANCH  19  20
ATOM     20  C   UNL     1      92.478 100.602  74.304  1.00  0.00    -0.003 C 
ATOM     21  C   UNL     1      92.856  99.180  74.688  1.00  0.00     0.004 C 
ENDBRANCH  19  20
ENDBRANCH  18  19
ENDBRANCH  17  18
ENDBRANCH   1  17
TORSDOF 10
ENDMDL
MODEL 5
REMARK VINA RESULT:    -5.006     12.073     14.554
REMARK INTER + INTRA:          -9.612
REMARK INTER:                  -8.021
REMARK INTRA:                  -1.591
REMARK UNBOUND:                -1.826
REMARK SMILES CCCCC/C=C/C(=O)CCc1ccc(O)c(OC)c1
REMARK SMILES IDX 6 1 7 2 8 3 9 4 10 5 11 6 12 7 17 8 20 9 15 10 14 11 13 12
REMARK SMILES IDX 18 13 19 14 16 15 5 17 4 18 3 19 2 20 1 21
REMARK H PARENT 16 16
REMARK Flexibility Score: inf
ROOT
ATOM      1  C   UNL     1      65.712  84.886  72.280  1.00  0.00    -0.023 C 
ATOM      2  C   UNL     1      66.435  83.803  71.971  1.00  0.00     0.043 C 
ENDROOT
BRANCH   2   3
ATOM      3  C   UNL     1      66.186  83.086  70.690  1.00  0.00     0.155 C 
ATOM      4  O   UNL     1      66.417  83.605  69.600  1.00  0.00    -0.295 OA
BRANCH   3   5
ATOM      5  C   UNL     1      65.582  81.699  70.798  1.00  0.00     0.085 C 
BRANCH   5   6
ATOM      6  C   UNL     1      64.060  81.744  70.658  1.00  0.00     0.044 C 
BRANCH   6   7
ATOM      7  C   UNL     1      63.359  82.076  71.954  1.00  0.00    -0.044 A 
ATOM      8  C   UNL     1      61.759  83.387  73.169  1.00  0.00     0.160 A 
ATOM      9  C   UNL     1      62.405  83.081  71.972  1.00  0.00     0.054 A 
ATOM     10  C   UNL     1      62.074  82.686  74.332  1.00  0.00     0.157 A 
ATOM     11  C   UNL     1      63.038  81.677  74.298  1.00  0.00     0.050 A 
ATOM     12  C   UNL     1      63.684  81.370  73.101  1.00  0.00     0.008 A 
BRANCH   8  13
ATOM     13  O   UNL     1      60.820  84.375  73.190  1.00  0.00    -0.493 OA
ATOM     14  C   UNL     1      60.150  84.658  71.963  1.00  0.00     0.278 C 
ENDBRANCH   8  13
BRANCH  10  15
ATOM     15  O   UNL     1      61.449  82.975  75.507  1.00  0.00    -0.504 OA
ATOM     16  H   UNL     1      60.588  83.379  75.304  1.00  0.00     0.293 HD
ENDBRANCH  10  15
ENDBRANCH   6   7
ENDBRANCH   5   6
ENDBRANCH   3   5
ENDBRANCH   2   3
BRANCH   1  17
ATOM     17  C   UNL     1      65.901  85.664  73.550  1.00  0.00     0.027 C 
BRANCH  17  18
ATOM     18  C   UNL     1      65.061  85.128  74.714  1.00  0.00     0.004 C 
BRANCH  18  19
ATOM     19  C   UNL     1      65.880  84.825  75.973  1.00  0.00     0.000 C 
BRANCH  19  20
ATOM     20  C   UNL     1      67.364  85.126  75.752  1.00  0.00    -0.003 C 
ATOM     21  C   UNL     1      68.147  85.051  77.053  1.00  0.00     0.004 C 
ENDBRANCH  19  20
ENDBRANCH  18  19
ENDBRANCH  17  18
ENDBRANCH   1  17
TORSDOF 10
ENDMDL
MODEL 6
REMARK VINA RESULT:    -4.861     22.112     25.030
REMARK INTER + INTRA:          -9.387
REMARK INTER:                  -8.146
REMARK INTRA:                  -1.241
REMARK UNBOUND:                -1.826
REMARK SMILES CCCCC/C=C/C(=O)CCc1ccc(O)c(OC)c1
REMARK SMILES IDX 6 1 7 2 8 3 9 4 10 5 11 6 12 7 17 8 20 9 15 10 14 11 13 12
REMARK SMILES IDX 18 13 19 14 16 15 5 17 4 18 3 19 2 20 1 21
REMARK H PARENT 16 16
REMARK Flexibility Score: inf
ROOT
ATOM      1  C   UNL     1      93.707  94.495  79.684  1.00  0.00    -0.023 C 
ATOM      2  C   UNL     1      92.964  94.019  78.678  1.00  0.00     0.043 C 
ENDROOT
BRANCH   2   3
ATOM      3  C   UNL     1      91.603  94.570  78.435  1.00  0.00     0.155 C 
ATOM      4  O   UNL     1      90.589  93.978  78.800  1.00  0.00    -0.295 OA
BRANCH   3   5
ATOM      5  C   UNL     1      91.529  95.875  77.667  1.00  0.00     0.085 C 
BRANCH   5   6
ATOM      6  C   UNL     1      92.428  95.844  76.431  1.00  0.00     0.044 C 
BRANCH   6   7
ATOM      7  C   UNL     1      93.401  96.997  76.383  1.00  0.00    -0.044 A 
ATOM      8  C   UNL     1      94.012  99.163  75.548  1.00  0.00     0.160 A 
ATOM      9  C   UNL     1      93.112  98.097  75.591  1.00  0.00     0.054 A 
ATOM     10  C   UNL     1      95.188  99.115  76.296  1.00  0.00     0.157 A 
ATOM     11  C   UNL     1      95.465  97.999  77.088  1.00  0.00     0.050 A 
ATOM     12  C   UNL     1      94.566  96.934  77.131  1.00  0.00     0.008 A 
BRANCH   8  13
ATOM     13  O   UNL     1      93.730 100.246  74.771  1.00  0.00    -0.493 OA
ATOM     14  C   UNL     1      93.930 100.105  73.366  1.00  0.00     0.278 C 
ENDBRANCH   8  13
BRANCH  10  15
ATOM     15  O   UNL     1      96.073 100.149  76.262  1.00  0.00    -0.504 OA
ATOM     16  H   UNL     1      96.258 100.423  77.177  1.00  0.00     0.293 HD
ENDBRANCH  10  15
ENDBRANCH   6   7
ENDBRANCH   5   6
ENDBRANCH   3   5
ENDBRANCH   2   3
BRANCH   1  17
ATOM     17  C   UNL     1      95.087  93.993  79.994  1.00  0.00     0.027 C 
BRANCH  17  18
ATOM     18  C   UNL     1      95.446  94.097  81.480  1.00  0.00     0.004 C 
BRANCH  18  19
ATOM     19  C   UNL     1      96.528  95.140  81.778  1.00  0.00     0.000 C 
BRANCH  19  20
ATOM     20  C   UNL     1      96.356  96.380  80.900  1.00  0.00    -0.003 C 
ATOM     21  C   UNL     1      97.644  96.731  80.172  1.00  0.00     0.004 C 
ENDBRANCH  19  20
ENDBRANCH  18  19
ENDBRANCH  17  18
ENDBRANCH   1  17
TORSDOF 10
ENDMDL
MODEL 7
REMARK VINA RESULT:    -4.788     20.036     22.996
REMARK INTER + INTRA:          -9.273
REMARK INTER:                  -8.735
REMARK INTRA:                  -0.538
REMARK UNBOUND:                -1.826
REMARK SMILES CCCCC/C=C/C(=O)CCc1ccc(O)c(OC)c1
REMARK SMILES IDX 6 1 7 2 8 3 9 4 10 5 11 6 12 7 17 8 20 9 15 10 14 11 13 12
REMARK SMILES IDX 18 13 19 14 16 15 5 17 4 18 3 19 2 20 1 21
REMARK H PARENT 16 16
REMARK Flexibility Score: inf
ROOT
ATOM      1  C   UNL     1      91.809 100.049  72.698  1.00  0.00    -0.023 C 
ATOM      2  C   UNL     1      92.953  99.911  73.380  1.00  0.00     0.043 C 
ENDROOT
BRANCH   2   3
ATOM      3  C   UNL     1      92.966 100.111  74.855  1.00  0.00     0.155 C 
ATOM      4  O   UNL     1      92.349 101.029  75.391  1.00  0.00    -0.295 OA
BRANCH   3   5
ATOM      5  C   UNL     1      93.824  99.154  75.659  1.00  0.00     0.085 C 
BRANCH   5   6
ATOM      6  C   UNL     1      93.744  97.732  75.100  1.00  0.00     0.044 C 
BRANCH   6   7
ATOM      7  C   UNL     1      93.390  96.707  76.151  1.00  0.00    -0.044 A 
ATOM      8  C   UNL     1      94.045  94.911  77.601  1.00  0.00     0.160 A 
ATOM      9  C   UNL     1      94.373  95.857  76.630  1.00  0.00     0.054 A 
ATOM     10  C   UNL     1      92.738  94.827  78.080  1.00  0.00     0.157 A 
ATOM     11  C   UNL     1      91.758  95.690  77.588  1.00  0.00     0.050 A 
ATOM     12  C   UNL     1      92.087  96.636  76.617  1.00  0.00     0.008 A 
BRANCH   8  13
ATOM     13  O   UNL     1      95.011  94.073  78.073  1.00  0.00    -0.493 OA
ATOM     14  C   UNL     1      95.725  94.496  79.233  1.00  0.00     0.278 C 
ENDBRANCH   8  13
BRANCH  10  15
ATOM     15  O   UNL     1      92.406  93.908  79.028  1.00  0.00    -0.504 OA
ATOM     16  H   UNL     1      93.006  93.148  78.941  1.00  0.00     0.293 HD
ENDBRANCH  10  15
ENDBRANCH   6   7
ENDBRANCH   5   6
ENDBRANCH   3   5
ENDBRANCH   2   3
BRANCH   1  17
ATOM     17  C   UNL     1      91.713  99.865  71.211  1.00  0.00     0.027 C 
BRANCH  17  18
ATOM     18  C   UNL     1      90.304  99.486  70.742  1.00  0.00     0.004 C 
BRANCH  18  19
ATOM     19  C   UNL     1      89.671 100.519  69.805  1.00  0.00     0.000 C 
BRANCH  19  20
ATOM     20  C   UNL     1      89.493  99.951  68.397  1.00  0.00    -0.003 C 
ATOM     21  C   UNL     1      88.076  99.448  68.173  1.00  0.00     0.004 C 
ENDBRANCH  19  20
ENDBRANCH  18  19
ENDBRANCH  17  18
ENDBRANCH   1  17
TORSDOF 10
ENDMDL
MODEL 8
REMARK VINA RESULT:    -4.787     22.478     25.055
REMARK INTER + INTRA:          -9.271
REMARK INTER:                  -8.333
REMARK INTRA:                  -0.938
REMARK UNBOUND:                -1.826
REMARK SMILES CCCCC/C=C/C(=O)CCc1ccc(O)c(OC)c1
REMARK SMILES IDX 6 1 7 2 8 3 9 4 10 5 11 6 12 7 17 8 20 9 15 10 14 11 13 12
REMARK SMILES IDX 18 13 19 14 16 15 5 17 4 18 3 19 2 20 1 21
REMARK H PARENT 16 16
REMARK Flexibility Score: inf
ROOT
ATOM      1  C   UNL     1      93.285  97.626  76.074  1.00  0.00    -0.023 C 
ATOM      2  C   UNL     1      93.235  96.305  76.286  1.00  0.00     0.043 C 
ENDROOT
BRANCH   2   3
ATOM      3  C   UNL     1      92.210  95.740  77.205  1.00  0.00     0.155 C 
ATOM      4  O   UNL     1      91.086  96.228  77.302  1.00  0.00    -0.295 OA
BRANCH   3   5
ATOM      5  C   UNL     1      92.641  94.562  78.057  1.00  0.00     0.085 C 
BRANCH   5   6
ATOM      6  C   UNL     1      94.165  94.478  78.157  1.00  0.00     0.044 C 
BRANCH   6   7
ATOM      7  C   UNL     1      94.682  94.815  79.535  1.00  0.00    -0.044 A 
ATOM      8  C   UNL     1      95.288  96.455  81.180  1.00  0.00     0.160 A 
ATOM      9  C   UNL     1      94.810  96.144  79.906  1.00  0.00     0.054 A 
ATOM     10  C   UNL     1      95.631  95.434  82.065  1.00  0.00     0.157 A 
ATOM     11  C   UNL     1      95.497  94.100  81.676  1.00  0.00     0.050 A 
ATOM     12  C   UNL     1      95.020  93.789  80.403  1.00  0.00     0.008 A 
BRANCH   8  13
ATOM     13  O   UNL     1      95.414  97.761  81.547  1.00  0.00    -0.493 OA
ATOM     14  C   UNL     1      95.944  98.660  80.574  1.00  0.00     0.278 C 
ENDBRANCH   8  13
BRANCH  10  15
ATOM     15  O   UNL     1      96.098  95.725  83.311  1.00  0.00    -0.504 OA
ATOM     16  H   UNL     1      97.070  95.731  83.279  1.00  0.00     0.293 HD
ENDBRANCH  10  15
ENDBRANCH   6   7
ENDBRANCH   5   6
ENDBRANCH   3   5
ENDBRANCH   2   3
BRANCH   1  17
ATOM     17  C   UNL     1      94.288  98.274  75.164  1.00  0.00     0.027 C 
BRANCH  17  18
ATOM     18  C   UNL     1      95.472  97.361  74.827  1.00  0.00     0.004 C 
BRANCH  18  19
ATOM     19  C   UNL     1      96.659  98.101  74.202  1.00  0.00     0.000 C 
BRANCH  19  20
ATOM     20  C   UNL     1      96.354  98.514  72.761  1.00  0.00    -0.003 C 
ATOM     21  C   UNL     1      96.449  97.332  71.811  1.00  0.00     0.004 C 
ENDBRANCH  19  20
ENDBRANCH  18  19
ENDBRANCH  17  18
ENDBRANCH   1  17
TORSDOF 10
ENDMDL
MODEL 9
REMARK VINA RESULT:    -4.777     23.454     26.159
REMARK INTER + INTRA:          -9.257
REMARK INTER:                  -7.984
REMARK INTRA:                  -1.273
REMARK UNBOUND:                -1.826
REMARK SMILES CCCCC/C=C/C(=O)CCc1ccc(O)c(OC)c1
REMARK SMILES IDX 6 1 7 2 8 3 9 4 10 5 11 6 12 7 17 8 20 9 15 10 14 11 13 12
REMARK SMILES IDX 18 13 19 14 16 15 5 17 4 18 3 19 2 20 1 21
REMARK H PARENT 16 16
REMARK Flexibility Score: inf
ROOT
ATOM      1  C   UNL     1      94.079  94.535  78.116  1.00  0.00    -0.023 C 
ATOM      2  C   UNL     1      93.793  94.284  79.400  1.00  0.00     0.043 C 
ENDROOT
BRANCH   2   3
ATOM      3  C   UNL     1      94.883  93.914  80.344  1.00  0.00     0.155 C 
ATOM      4  O   UNL     1      95.440  92.820  80.294  1.00  0.00    -0.295 OA
BRANCH   3   5
ATOM      5  C   UNL     1      95.235  94.939  81.405  1.00  0.00     0.085 C 
BRANCH   5   6
ATOM      6  C   UNL     1      94.841  96.350  80.966  1.00  0.00     0.044 C 
BRANCH   6   7
ATOM      7  C   UNL     1      95.976  97.099  80.308  1.00  0.00    -0.044 A 
ATOM      8  C   UNL     1      98.264  97.823  80.316  1.00  0.00     0.160 A 
ATOM      9  C   UNL     1      97.216  97.132  80.925  1.00  0.00     0.054 A 
ATOM     10  C   UNL     1      98.058  98.472  79.099  1.00  0.00     0.157 A 
ATOM     11  C   UNL     1      96.803  98.430  78.490  1.00  0.00     0.050 A 
ATOM     12  C   UNL     1      95.755  97.739  79.099  1.00  0.00     0.008 A 
BRANCH   8  13
ATOM     13  O   UNL     1      99.484  97.857  80.921  1.00  0.00    -0.493 OA
ATOM     14  C   UNL     1      99.580  98.578  82.148  1.00  0.00     0.278 C 
ENDBRANCH   8  13
BRANCH  10  15
ATOM     15  O   UNL     1      99.073  99.150  78.495  1.00  0.00    -0.504 OA
ATOM     16  H   UNL     1      99.724  99.394  79.175  1.00  0.00     0.293 HD
ENDBRANCH  10  15
ENDBRANCH   6   7
ENDBRANCH   5   6
ENDBRANCH   3   5
ENDBRANCH   2   3
BRANCH   1  17
ATOM     17  C   UNL     1      93.038  94.913  77.103  1.00  0.00     0.027 C 
BRANCH  17  18
ATOM     18  C   UNL     1      92.096  96.019  77.591  1.00  0.00     0.004 C 
BRANCH  18  19
ATOM     19  C   UNL     1      90.616  95.627  77.550  1.00  0.00     0.000 C 
BRANCH  19  20
ATOM     20  C   UNL     1      90.448  94.133  77.269  1.00  0.00    -0.003 C 
ATOM     21  C   UNL     1      89.485  93.486  78.252  1.00  0.00     0.004 C 
ENDBRANCH  19  20
ENDBRANCH  18  19
ENDBRANCH  17  18
ENDBRANCH   1  17
TORSDOF 10
ENDMDL
MODEL 10
REMARK VINA RESULT:    -4.766     19.021     22.361
REMARK INTER + INTRA:          -9.239
REMARK INTER:                  -7.311
REMARK INTRA:                  -1.928
REMARK UNBOUND:                -1.826
REMARK SMILES CCCCC/C=C/C(=O)CCc1ccc(O)c(OC)c1
REMARK SMILES IDX 6 1 7 2 8 3 9 4 10 5 11 6 12 7 17 8 20 9 15 10 14 11 13 12
REMARK SMILES IDX 18 13 19 14 16 15 5 17 4 18 3 19 2 20 1 21
REMARK H PARENT 16 16
REMARK Flexibility Score: inf
ROOT
ATOM      1  C   UNL     1      89.862  99.347  70.912  1.00  0.00    -0.023 C 
ATOM      2  C   UNL     1      90.004  98.288  70.105  1.00  0.00     0.043 C 
ENDROOT
BRANCH   2   3
ATOM      3  C   UNL     1      88.870  97.854  69.244  1.00  0.00     0.155 C 
ATOM      4  O   UNL     1      88.426  96.708  69.286  1.00  0.00    -0.295 OA
BRANCH   3   5
ATOM      5  C   UNL     1      88.325  98.883  68.274  1.00  0.00     0.085 C 
BRANCH   5   6
ATOM      6  C   UNL     1      89.434  99.456  67.390  1.00  0.00     0.044 C 
BRANCH   6   7
ATOM      7  C   UNL     1      89.511 100.964  67.448  1.00  0.00    -0.044 A 
ATOM      8  C   UNL     1      90.718 102.996  67.034  1.00  0.00     0.160 A 
ATOM      9  C   UNL     1      90.648 101.604  66.981  1.00  0.00     0.054 A 
ATOM     10  C   UNL     1      89.652 103.730  67.554  1.00  0.00     0.157 A 
ATOM     11  C   UNL     1      88.515 103.070  68.022  1.00  0.00     0.050 A 
ATOM     12  C   UNL     1      88.444 101.678  67.969  1.00  0.00     0.008 A 
BRANCH   8  13
ATOM     13  O   UNL     1      91.834 103.628  66.575  1.00  0.00    -0.493 OA
ATOM     14  C   UNL     1      92.988 103.598  67.413  1.00  0.00     0.278 C 
ENDBRANCH   8  13
BRANCH  10  15
ATOM     15  O   UNL     1      89.709 105.089  67.611  1.00  0.00    -0.504 OA
ATOM     16  H   UNL     1      90.644 105.354  67.662  1.00  0.00     0.293 HD
ENDBRANCH  10  15
ENDBRANCH   6   7
ENDBRANCH   5   6
ENDBRANCH   3   5
ENDBRANCH   2   3
BRANCH   1  17
ATOM     17  C   UNL     1      90.956  99.847  71.809  1.00  0.00     0.027 C 
BRANCH  17  18
ATOM     18  C   UNL     1      91.966 100.743  71.085  1.00  0.00     0.004 C 
BRANCH  18  19
ATOM     19  C   UNL     1      91.393 102.100  70.664  1.00  0.00     0.000 C 
BRANCH  19  20
ATOM     20  C   UNL     1      90.683 102.785  71.833  1.00  0.00    -0.003 C 
ATOM     21  C   UNL     1      89.231 103.091  71.501  1.00  0.00     0.004 C 
ENDBRANCH  19  20
ENDBRANCH  18  19
ENDBRANCH  17  18
ENDBRANCH   1  17
TORSDOF 10
ENDMDL
