MODEL 1
REMARK VINA RESULT:    -6.769      0.000      0.000
REMARK INTER + INTRA:         -11.170
REMARK INTER:                 -10.529
REMARK INTRA:                  -0.642
REMARK UNBOUND:                -0.642
REMARK SMILES COc1cc(CNC(=O)CCCC/C=C/C(C)C)ccc1O
REMARK SMILES IDX 10 1 8 2 7 3 9 5 6 6 5 7 3 8 21 9 4 10 20 11 19 12 2 13 1 14
REMARK SMILES IDX 22 15 11 17 12 18 13 19 14 20 15 21 16 22 17 23 18 24
REMARK H PARENT 7 4 22 16
REMARK Flexibility Score: inf
ROOT
ATOM      1  C   UNL     1      95.296  81.685  83.678  1.00  0.00     0.100 C 
ENDROOT
BRANCH   1   2
ATOM      2  C   UNL     1      94.244  81.704  84.713  1.00  0.00     0.220 C 
ATOM      3  N   UNL     1      92.928  81.676  84.361  1.00  0.00    -0.352 N 
ATOM      4  H   UNL     1      92.753  81.666  83.365  1.00  0.00     0.163 HD
ATOM      5  O   UNL     1      94.597  81.723  85.917  1.00  0.00    -0.275 OA
BRANCH   3   6
ATOM      6  C   UNL     1      91.837  81.659  85.283  1.00  0.00     0.151 C 
BRANCH   6   7
ATOM      7  C   UNL     1      90.856  80.591  84.948  1.00  0.00    -0.025 A 
ATOM      8  C   UNL     1      88.599  79.926  84.222  1.00  0.00     0.160 A 
ATOM      9  C   UNL     1      88.977  78.569  84.288  1.00  0.00     0.157 A 
ATOM     10  C   UNL     1      89.540  80.923  84.555  1.00  0.00     0.056 A 
ATOM     11  C   UNL     1      90.280  78.222  84.697  1.00  0.00     0.050 A 
ATOM     12  C   UNL     1      91.216  79.225  85.016  1.00  0.00     0.009 A 
BRANCH   8  13
ATOM     13  O   UNL     1      87.313  80.266  83.888  1.00  0.00    -0.493 OA
ATOM     14  C   UNL     1      86.907  81.564  84.361  1.00  0.00     0.278 C 
ENDBRANCH   8  13
BRANCH   9  15
ATOM     15  O   UNL     1      88.099  77.585  83.962  1.00  0.00    -0.504 OA
ATOM     16  H   UNL     1      87.295  77.689  84.476  1.00  0.00     0.293 HD
ENDBRANCH   9  15
ENDBRANCH   6   7
ENDBRANCH   3   6
ENDBRANCH   1   2
BRANCH   1  17
ATOM     17  C   UNL     1      95.676  80.235  83.275  1.00  0.00     0.010 C 
BRANCH  17  18
ATOM     18  C   UNL     1      96.725  80.181  82.128  1.00  0.00     0.005 C 
BRANCH  18  19
ATOM     19  C   UNL     1      97.043  81.588  81.553  1.00  0.00     0.027 C 
BRANCH  19  20
ATOM     20  C   UNL     1      97.380  81.537  80.138  1.00  0.00    -0.031 C 
ATOM     21  C   UNL     1      96.670  82.145  79.170  1.00  0.00    -0.028 C 
BRANCH  21  22
ATOM     22  C   UNL     1      97.039  82.097  77.755  1.00  0.00     0.005 C 
ATOM     23  C   UNL     1      97.442  80.667  77.299  1.00  0.00     0.012 C 
ATOM     24  C   UNL     1      95.883  82.651  76.881  1.00  0.00     0.012 C 
ENDBRANCH  21  22
ENDBRANCH  19  20
ENDBRANCH  18  19
ENDBRANCH  17  18
ENDBRANCH   1  17
TORSDOF 10
ENDMDL
MODEL 2
REMARK VINA RESULT:    -6.303      4.334      9.657
REMARK INTER + INTRA:         -10.446
REMARK INTER:                  -9.744
REMARK INTRA:                  -0.702
REMARK UNBOUND:                -0.642
REMARK SMILES COc1cc(CNC(=O)CCCC/C=C/C(C)C)ccc1O
REMARK SMILES IDX 10 1 8 2 7 3 9 5 6 6 5 7 3 8 21 9 4 10 20 11 19 12 2 13 1 14
REMARK SMILES IDX 22 15 11 17 12 18 13 19 14 20 15 21 16 22 17 23 18 24
REMARK H PARENT 7 4 22 16
REMARK Flexibility Score: inf
ROOT
ATOM      1  C   UNL     1      96.933  80.750  82.207  1.00  0.00     0.100 C 
ENDROOT
BRANCH   1   2
ATOM      2  C   UNL     1      97.471  80.418  80.874  1.00  0.00     0.220 C 
ATOM      3  N   UNL     1      97.909  81.402  80.040  1.00  0.00    -0.352 N 
ATOM      4  H   UNL     1      97.810  82.341  80.400  1.00  0.00     0.163 HD
ATOM      5  O   UNL     1      97.534  79.208  80.545  1.00  0.00    -0.275 OA
BRANCH   3   6
ATOM      6  C   UNL     1      98.474  81.184  78.747  1.00  0.00     0.151 C 
BRANCH   6   7
ATOM      7  C   UNL     1      97.711  81.900  77.689  1.00  0.00    -0.025 A 
ATOM      8  C   UNL     1      97.544  82.728  75.376  1.00  0.00     0.160 A 
ATOM      9  C   UNL     1      96.262  83.247  75.654  1.00  0.00     0.157 A 
ATOM     10  C   UNL     1      98.257  82.063  76.395  1.00  0.00     0.056 A 
ATOM     11  C   UNL     1      95.714  83.110  76.944  1.00  0.00     0.050 A 
ATOM     12  C   UNL     1      96.428  82.433  77.952  1.00  0.00     0.009 A 
BRANCH   8  13
ATOM     13  O   UNL     1      98.109  82.917  74.140  1.00  0.00    -0.493 OA
ATOM     14  C   UNL     1      98.842  81.779  73.650  1.00  0.00     0.278 C 
ENDBRANCH   8  13
BRANCH   9  15
ATOM     15  O   UNL     1      95.544  83.882  74.691  1.00  0.00    -0.504 OA
ATOM     16  H   UNL     1      96.028  84.652  74.385  1.00  0.00     0.293 HD
ENDBRANCH   9  15
ENDBRANCH   6   7
ENDBRANCH   3   6
ENDBRANCH   1   2
BRANCH   1  17
ATOM     17  C   UNL     1      96.381  82.200  82.256  1.00  0.00     0.010 C 
BRANCH  17  18
ATOM     18  C   UNL     1      95.527  82.479  83.525  1.00  0.00     0.005 C 
BRANCH  18  19
ATOM     19  C   UNL     1      95.128  81.175  84.268  1.00  0.00     0.027 C 
BRANCH  19  20
ATOM     20  C   UNL     1      93.886  81.327  85.011  1.00  0.00    -0.031 C 
ATOM     21  C   UNL     1      92.770  80.616  84.770  1.00  0.00    -0.028 C 
BRANCH  21  22
ATOM     22  C   UNL     1      91.538  80.770  85.543  1.00  0.00     0.005 C 
ATOM     23  C   UNL     1      90.429  81.509  84.744  1.00  0.00     0.012 C 
ATOM     24  C   UNL     1      91.037  79.388  86.035  1.00  0.00     0.012 C 
ENDBRANCH  21  22
ENDBRANCH  19  20
ENDBRANCH  18  19
ENDBRANCH  17  18
ENDBRANCH   1  17
TORSDOF 10
ENDMDL
MODEL 3
REMARK VINA RESULT:    -5.921      5.923      9.529
REMARK INTER + INTRA:          -9.851
REMARK INTER:                  -9.006
REMARK INTRA:                  -0.845
REMARK UNBOUND:                -0.642
REMARK SMILES COc1cc(CNC(=O)CCCC/C=C/C(C)C)ccc1O
REMARK SMILES IDX 10 1 8 2 7 3 9 5 6 6 5 7 3 8 21 9 4 10 20 11 19 12 2 13 1 14
REMARK SMILES IDX 22 15 11 17 12 18 13 19 14 20 15 21 16 22 17 23 18 24
REMARK H PARENT 7 4 22 16
REMARK Flexibility Score: inf
ROOT
ATOM      1  C   UNL     1      97.387  78.010  80.352  1.00  0.00     0.100 C 
ENDROOT
BRANCH   1   2
ATOM      2  C   UNL     1      98.106  78.603  79.208  1.00  0.00     0.220 C 
ATOM      3  N   UNL     1      98.248  79.955  79.106  1.00  0.00    -0.352 N 
ATOM      4  H   UNL     1      97.811  80.487  79.846  1.00  0.00     0.163 HD
ATOM      5  O   UNL     1      98.597  77.829  78.352  1.00  0.00    -0.275 OA
BRANCH   3   6
ATOM      6  C   UNL     1      98.952  80.624  78.059  1.00  0.00     0.151 C 
BRANCH   6   7
ATOM      7  C   UNL     1      98.035  81.448  77.225  1.00  0.00    -0.025 A 
ATOM      8  C   UNL     1      97.457  82.451  75.052  1.00  0.00     0.160 A 
ATOM      9  C   UNL     1      96.288  83.001  75.615  1.00  0.00     0.157 A 
ATOM     10  C   UNL     1      98.320  81.682  75.861  1.00  0.00     0.056 A 
ATOM     11  C   UNL     1      96.000  82.793  76.979  1.00  0.00     0.050 A 
ATOM     12  C   UNL     1      96.862  82.014  77.776  1.00  0.00     0.009 A 
BRANCH   8  13
ATOM     13  O   UNL     1      97.775  82.706  73.742  1.00  0.00    -0.493 OA
ATOM     14  C   UNL     1      98.862  83.635  73.572  1.00  0.00     0.278 C 
ENDBRANCH   8  13
BRANCH   9  15
ATOM     15  O   UNL     1      95.430  83.735  74.861  1.00  0.00    -0.504 OA
ATOM     16  H   UNL     1      94.900  84.297  75.432  1.00  0.00     0.293 HD
ENDBRANCH   9  15
ENDBRANCH   6   7
ENDBRANCH   3   6
ENDBRANCH   1   2
BRANCH   1  17
ATOM     17  C   UNL     1      96.991  79.086  81.399  1.00  0.00     0.010 C 
BRANCH  17  18
ATOM     18  C   UNL     1      96.898  78.518  82.844  1.00  0.00     0.005 C 
BRANCH  18  19
ATOM     19  C   UNL     1      95.744  79.163  83.658  1.00  0.00     0.027 C 
BRANCH  19  20
ATOM     20  C   UNL     1      95.566  80.570  83.335  1.00  0.00    -0.031 C 
ATOM     21  C   UNL     1      95.645  81.569  84.233  1.00  0.00    -0.028 C 
BRANCH  21  22
ATOM     22  C   UNL     1      95.481  82.979  83.881  1.00  0.00     0.005 C 
ATOM     23  C   UNL     1      95.364  83.889  85.135  1.00  0.00     0.012 C 
ATOM     24  C   UNL     1      96.646  83.443  82.969  1.00  0.00     0.012 C 
ENDBRANCH  21  22
ENDBRANCH  19  20
ENDBRANCH  18  19
ENDBRANCH  17  18
ENDBRANCH   1  17
TORSDOF 10
ENDMDL
MODEL 4
REMARK VINA RESULT:    -5.843      5.529      9.623
REMARK INTER + INTRA:          -9.730
REMARK INTER:                  -8.994
REMARK INTRA:                  -0.735
REMARK UNBOUND:                -0.642
REMARK SMILES COc1cc(CNC(=O)CCCC/C=C/C(C)C)ccc1O
REMARK SMILES IDX 10 1 8 2 7 3 9 5 6 6 5 7 3 8 21 9 4 10 20 11 19 12 2 13 1 14
REMARK SMILES IDX 22 15 11 17 12 18 13 19 14 20 15 21 16 22 17 23 18 24
REMARK H PARENT 7 4 22 16
REMARK Flexibility Score: inf
ROOT
ATOM      1  C   UNL     1      97.726  79.461  81.874  1.00  0.00     0.100 C 
ENDROOT
BRANCH   1   2
ATOM      2  C   UNL     1      98.559  79.815  80.708  1.00  0.00     0.220 C 
ATOM      3  N   UNL     1      97.989  80.329  79.582  1.00  0.00    -0.352 N 
ATOM      4  H   UNL     1      96.983  80.417  79.615  1.00  0.00     0.163 HD
ATOM      5  O   UNL     1      99.800  79.651  80.795  1.00  0.00    -0.275 OA
BRANCH   3   6
ATOM      6  C   UNL     1      98.708  80.732  78.416  1.00  0.00     0.151 C 
BRANCH   6   7
ATOM      7  C   UNL     1      97.866  81.568  77.517  1.00  0.00    -0.025 A 
ATOM      8  C   UNL     1      97.502  82.641  75.331  1.00  0.00     0.160 A 
ATOM      9  C   UNL     1      96.264  83.143  75.783  1.00  0.00     0.157 A 
ATOM     10  C   UNL     1      98.291  81.861  76.201  1.00  0.00     0.056 A 
ATOM     11  C   UNL     1      95.835  82.875  77.098  1.00  0.00     0.050 A 
ATOM     12  C   UNL     1      96.625  82.086  77.956  1.00  0.00     0.009 A 
BRANCH   8  13
ATOM     13  O   UNL     1      97.953  82.954  74.074  1.00  0.00    -0.493 OA
ATOM     14  C   UNL     1      99.387  83.009  73.962  1.00  0.00     0.278 C 
ENDBRANCH   8  13
BRANCH   9  15
ATOM     15  O   UNL     1      95.474  83.886  74.965  1.00  0.00    -0.504 OA
ATOM     16  H   UNL     1      95.245  84.710  75.402  1.00  0.00     0.293 HD
ENDBRANCH   9  15
ENDBRANCH   6   7
ENDBRANCH   3   6
ENDBRANCH   1   2
BRANCH   1  17
ATOM     17  C   UNL     1      96.572  80.478  82.083  1.00  0.00     0.010 C 
BRANCH  17  18
ATOM     18  C   UNL     1      97.078  81.900  82.455  1.00  0.00     0.005 C 
BRANCH  18  19
ATOM     19  C   UNL     1      95.917  82.863  82.820  1.00  0.00     0.027 C 
BRANCH  19  20
ATOM     20  C   UNL     1      95.145  82.384  83.956  1.00  0.00    -0.031 C 
ATOM     21  C   UNL     1      95.476  82.602  85.242  1.00  0.00    -0.028 C 
BRANCH  21  22
ATOM     22  C   UNL     1      94.674  82.127  86.369  1.00  0.00     0.005 C 
ATOM     23  C   UNL     1      95.514  81.975  87.667  1.00  0.00     0.012 C 
ATOM     24  C   UNL     1      93.464  83.069  86.600  1.00  0.00     0.012 C 
ENDBRANCH  21  22
ENDBRANCH  19  20
ENDBRANCH  18  19
ENDBRANCH  17  18
ENDBRANCH   1  17
TORSDOF 10
ENDMDL
MODEL 5
REMARK VINA RESULT:    -5.822      2.869      4.251
REMARK INTER + INTRA:          -9.697
REMARK INTER:                  -9.102
REMARK INTRA:                  -0.595
REMARK UNBOUND:                -0.642
REMARK SMILES COc1cc(CNC(=O)CCCC/C=C/C(C)C)ccc1O
REMARK SMILES IDX 10 1 8 2 7 3 9 5 6 6 5 7 3 8 21 9 4 10 20 11 19 12 2 13 1 14
REMARK SMILES IDX 22 15 11 17 12 18 13 19 14 20 15 21 16 22 17 23 18 24
REMARK H PARENT 7 4 22 16
REMARK Flexibility Score: inf
ROOT
ATOM      1  C   UNL     1      96.639  82.651  82.210  1.00  0.00     0.100 C 
ENDROOT
BRANCH   1   2
ATOM      2  C   UNL     1      96.259  82.047  83.501  1.00  0.00     0.220 C 
ATOM      3  N   UNL     1      95.084  81.367  83.628  1.00  0.00    -0.352 N 
ATOM      4  H   UNL     1      94.515  81.341  82.793  1.00  0.00     0.163 HD
ATOM      5  O   UNL     1      97.055  82.158  84.464  1.00  0.00    -0.275 OA
BRANCH   3   6
ATOM      6  C   UNL     1      94.641  80.721  84.821  1.00  0.00     0.151 C 
BRANCH   6   7
ATOM      7  C   UNL     1      93.508  81.453  85.451  1.00  0.00    -0.025 A 
ATOM      8  C   UNL     1      92.679  83.346  86.789  1.00  0.00     0.160 A 
ATOM      9  C   UNL     1      91.359  82.873  86.642  1.00  0.00     0.157 A 
ATOM     10  C   UNL     1      93.740  82.632  86.195  1.00  0.00     0.056 A 
ATOM     11  C   UNL     1      91.114  81.688  85.920  1.00  0.00     0.050 A 
ATOM     12  C   UNL     1      92.179  80.988  85.320  1.00  0.00     0.009 A 
BRANCH   8  13
ATOM     13  O   UNL     1      92.929  84.462  87.547  1.00  0.00    -0.493 OA
ATOM     14  C   UNL     1      94.317  84.645  87.882  1.00  0.00     0.278 C 
ENDBRANCH   8  13
BRANCH   9  15
ATOM     15  O   UNL     1      90.313  83.544  87.190  1.00  0.00    -0.504 OA
ATOM     16  H   UNL     1      90.105  84.310  86.650  1.00  0.00     0.293 HD
ENDBRANCH   9  15
ENDBRANCH   6   7
ENDBRANCH   3   6
ENDBRANCH   1   2
BRANCH   1  17
ATOM     17  C   UNL     1      97.143  81.582  81.204  1.00  0.00     0.010 C 
BRANCH  17  18
ATOM     18  C   UNL     1      97.018  82.038  79.723  1.00  0.00     0.005 C 
BRANCH  18  19
ATOM     19  C   UNL     1      97.810  81.119  78.753  1.00  0.00     0.027 C 
BRANCH  19  20
ATOM     20  C   UNL     1      97.861  81.663  77.404  1.00  0.00    -0.031 C 
ATOM     21  C   UNL     1      96.932  82.485  76.884  1.00  0.00    -0.028 C 
BRANCH  21  22
ATOM     22  C   UNL     1      97.014  83.036  75.532  1.00  0.00     0.005 C 
ATOM     23  C   UNL     1      96.844  81.943  74.440  1.00  0.00     0.012 C 
ATOM     24  C   UNL     1      95.970  84.167  75.349  1.00  0.00     0.012 C 
ENDBRANCH  21  22
ENDBRANCH  19  20
ENDBRANCH  18  19
ENDBRANCH  17  18
ENDBRANCH   1  17
TORSDOF 10
ENDMDL
MODEL 6
REMARK VINA RESULT:    -5.779      8.277     10.597
REMARK INTER + INTRA:          -9.630
REMARK INTER:                  -8.726
REMARK INTRA:                  -0.904
REMARK UNBOUND:                -0.642
REMARK SMILES COc1cc(CNC(=O)CCCC/C=C/C(C)C)ccc1O
REMARK SMILES IDX 10 1 8 2 7 3 9 5 6 6 5 7 3 8 21 9 4 10 20 11 19 12 2 13 1 14
REMARK SMILES IDX 22 15 11 17 12 18 13 19 14 20 15 21 16 22 17 23 18 24
REMARK H PARENT 7 4 22 16
REMARK Flexibility Score: inf
ROOT
ATOM      1  C   UNL     1     102.073  79.003  76.939  1.00  0.00     0.100 C 
ENDROOT
BRANCH   1   2
ATOM      2  C   UNL     1     101.094  79.682  77.810  1.00  0.00     0.220 C 
ATOM      3  N   UNL     1      99.806  79.852  77.401  1.00  0.00    -0.352 N 
ATOM      4  H   UNL     1      99.603  79.504  76.474  1.00  0.00     0.163 HD
ATOM      5  O   UNL     1     101.478  80.073  78.939  1.00  0.00    -0.275 OA
BRANCH   3   6
ATOM      6  C   UNL     1      98.778  80.465  78.179  1.00  0.00     0.151 C 
BRANCH   6   7
ATOM      7  C   UNL     1      97.896  81.322  77.341  1.00  0.00    -0.025 A 
ATOM      8  C   UNL     1      97.303  82.259  75.143  1.00  0.00     0.160 A 
ATOM      9  C   UNL     1      96.212  82.937  75.725  1.00  0.00     0.157 A 
ATOM     10  C   UNL     1      98.134  81.460  75.955  1.00  0.00     0.056 A 
ATOM     11  C   UNL     1      95.973  82.825  77.109  1.00  0.00     0.050 A 
ATOM     12  C   UNL     1      96.802  82.016  77.910  1.00  0.00     0.009 A 
BRANCH   8  13
ATOM     13  O   UNL     1      97.578  82.418  73.808  1.00  0.00    -0.493 OA
ATOM     14  C   UNL     1      97.926  81.196  73.131  1.00  0.00     0.278 C 
ENDBRANCH   8  13
BRANCH   9  15
ATOM     15  O   UNL     1      95.384  83.703  74.968  1.00  0.00    -0.504 OA
ATOM     16  H   UNL     1      95.217  84.535  75.418  1.00  0.00     0.293 HD
ENDBRANCH   9  15
ENDBRANCH   6   7
ENDBRANCH   3   6
ENDBRANCH   1   2
BRANCH   1  17
ATOM     17  C   UNL     1     102.818  80.010  76.021  1.00  0.00     0.010 C 
BRANCH  17  18
ATOM     18  C   UNL     1     101.893  80.651  74.949  1.00  0.00     0.005 C 
BRANCH  18  19
ATOM     19  C   UNL     1     102.645  80.951  73.624  1.00  0.00     0.027 C 
BRANCH  19  20
ATOM     20  C   UNL     1     102.454  82.326  73.187  1.00  0.00    -0.031 C 
ATOM     21  C   UNL     1     101.326  82.789  72.618  1.00  0.00    -0.028 C 
BRANCH  21  22
ATOM     22  C   UNL     1     101.149  84.181  72.204  1.00  0.00     0.005 C 
ATOM     23  C   UNL     1     101.474  84.393  70.699  1.00  0.00     0.012 C 
ATOM     24  C   UNL     1      99.711  84.659  72.532  1.00  0.00     0.012 C 
ENDBRANCH  21  22
ENDBRANCH  19  20
ENDBRANCH  18  19
ENDBRANCH  17  18
ENDBRANCH   1  17
TORSDOF 10
ENDMDL
MODEL 7
REMARK VINA RESULT:    -5.524      3.363      8.768
REMARK INTER + INTRA:          -9.233
REMARK INTER:                  -8.694
REMARK INTRA:                  -0.539
REMARK UNBOUND:                -0.642
REMARK SMILES COc1cc(CNC(=O)CCCC/C=C/C(C)C)ccc1O
REMARK SMILES IDX 10 1 8 2 7 3 9 5 6 6 5 7 3 8 21 9 4 10 20 11 19 12 2 13 1 14
REMARK SMILES IDX 22 15 11 17 12 18 13 19 14 20 15 21 16 22 17 23 18 24
REMARK H PARENT 7 4 22 16
REMARK Flexibility Score: inf
ROOT
ATOM      1  C   UNL     1      94.820  81.797  83.992  1.00  0.00     0.100 C 
ENDROOT
BRANCH   1   2
ATOM      2  C   UNL     1      96.202  81.676  83.488  1.00  0.00     0.220 C 
ATOM      3  N   UNL     1      96.439  81.231  82.222  1.00  0.00    -0.352 N 
ATOM      4  H   UNL     1      95.613  80.981  81.696  1.00  0.00     0.163 HD
ATOM      5  O   UNL     1      97.141  82.016  84.247  1.00  0.00    -0.275 OA
BRANCH   3   6
ATOM      6  C   UNL     1      97.733  81.109  81.630  1.00  0.00     0.151 C 
BRANCH   6   7
ATOM      7  C   UNL     1      97.642  80.862  80.165  1.00  0.00    -0.025 A 
ATOM      8  C   UNL     1      97.379  81.724  77.873  1.00  0.00     0.160 A 
ATOM      9  C   UNL     1      97.487  80.413  77.367  1.00  0.00     0.157 A 
ATOM     10  C   UNL     1      97.455  81.937  79.266  1.00  0.00     0.056 A 
ATOM     11  C   UNL     1      97.654  79.330  78.252  1.00  0.00     0.050 A 
ATOM     12  C   UNL     1      97.741  79.553  79.640  1.00  0.00     0.009 A 
BRANCH   8  13
ATOM     13  O   UNL     1      97.150  82.774  77.021  1.00  0.00    -0.493 OA
ATOM     14  C   UNL     1      95.757  83.088  76.837  1.00  0.00     0.278 C 
ENDBRANCH   8  13
BRANCH   9  15
ATOM     15  O   UNL     1      97.431  80.176  76.031  1.00  0.00    -0.504 OA
ATOM     16  H   UNL     1      98.321  80.089  75.683  1.00  0.00     0.293 HD
ENDBRANCH   9  15
ENDBRANCH   6   7
ENDBRANCH   3   6
ENDBRANCH   1   2
BRANCH   1  17
ATOM     17  C   UNL     1      94.740  81.514  85.516  1.00  0.00     0.010 C 
BRANCH  17  18
ATOM     18  C   UNL     1      93.288  81.256  86.008  1.00  0.00     0.005 C 
BRANCH  18  19
ATOM     19  C   UNL     1      92.227  81.618  84.934  1.00  0.00     0.027 C 
BRANCH  19  20
ATOM     20  C   UNL     1      91.023  80.811  85.060  1.00  0.00    -0.031 C 
ATOM     21  C   UNL     1      89.883  81.042  84.383  1.00  0.00    -0.028 C 
BRANCH  21  22
ATOM     22  C   UNL     1      88.691  80.205  84.512  1.00  0.00     0.005 C 
ATOM     23  C   UNL     1      88.754  78.946  83.604  1.00  0.00     0.012 C 
ATOM     24  C   UNL     1      88.472  79.807  85.994  1.00  0.00     0.012 C 
ENDBRANCH  21  22
ENDBRANCH  19  20
ENDBRANCH  18  19
ENDBRANCH  17  18
ENDBRANCH   1  17
TORSDOF 10
ENDMDL
MODEL 8
REMARK VINA RESULT:    -5.502      6.307      9.484
REMARK INTER + INTRA:          -9.199
REMARK INTER:                  -8.076
REMARK INTRA:                  -1.124
REMARK UNBOUND:                -0.642
REMARK SMILES COc1cc(CNC(=O)CCCC/C=C/C(C)C)ccc1O
REMARK SMILES IDX 10 1 8 2 7 3 9 5 6 6 5 7 3 8 21 9 4 10 20 11 19 12 2 13 1 14
REMARK SMILES IDX 22 15 11 17 12 18 13 19 14 20 15 21 16 22 17 23 18 24
REMARK H PARENT 7 4 22 16
REMARK Flexibility Score: inf
ROOT
ATOM      1  C   UNL     1     101.294  79.486  78.655  1.00  0.00     0.100 C 
ENDROOT
BRANCH   1   2
ATOM      2  C   UNL     1      99.907  79.148  78.283  1.00  0.00     0.220 C 
ATOM      3  N   UNL     1      98.928  80.095  78.331  1.00  0.00    -0.352 N 
ATOM      4  H   UNL     1      99.229  81.003  78.656  1.00  0.00     0.163 HD
ATOM      5  O   UNL     1      99.665  77.978  77.901  1.00  0.00    -0.275 OA
BRANCH   3   6
ATOM      6  C   UNL     1      97.566  79.878  77.962  1.00  0.00     0.151 C 
BRANCH   6   7
ATOM      7  C   UNL     1      97.040  80.995  77.131  1.00  0.00    -0.025 A 
ATOM      8  C   UNL     1      96.730  82.043  74.924  1.00  0.00     0.160 A 
ATOM      9  C   UNL     1      96.029  83.107  75.527  1.00  0.00     0.157 A 
ATOM     10  C   UNL     1      97.231  80.999  75.731  1.00  0.00     0.056 A 
ATOM     11  C   UNL     1      95.848  83.126  76.925  1.00  0.00     0.050 A 
ATOM     12  C   UNL     1      96.341  82.074  77.720  1.00  0.00     0.009 A 
BRANCH   8  13
ATOM     13  O   UNL     1      96.966  82.053  73.573  1.00  0.00    -0.493 OA
ATOM     14  C   UNL     1      97.029  80.743  72.979  1.00  0.00     0.278 C 
ENDBRANCH   8  13
BRANCH   9  15
ATOM     15  O   UNL     1      95.522  84.121  74.778  1.00  0.00    -0.504 OA
ATOM     16  H   UNL     1      95.934  84.948  75.039  1.00  0.00     0.293 HD
ENDBRANCH   9  15
ENDBRANCH   6   7
ENDBRANCH   3   6
ENDBRANCH   1   2
BRANCH   1  17
ATOM     17  C   UNL     1     101.407  79.873  80.155  1.00  0.00     0.010 C 
BRANCH  17  18
ATOM     18  C   UNL     1     101.444  78.638  81.097  1.00  0.00     0.005 C 
BRANCH  18  19
ATOM     19  C   UNL     1     100.067  78.355  81.756  1.00  0.00     0.027 C 
BRANCH  19  20
ATOM     20  C   UNL     1      99.269  79.563  81.895  1.00  0.00    -0.031 C 
ATOM     21  C   UNL     1      98.038  79.598  82.437  1.00  0.00    -0.028 C 
BRANCH  21  22
ATOM     22  C   UNL     1      97.260  80.829  82.584  1.00  0.00     0.005 C 
ATOM     23  C   UNL     1      97.173  81.632  81.257  1.00  0.00     0.012 C 
ATOM     24  C   UNL     1      95.845  80.506  83.130  1.00  0.00     0.012 C 
ENDBRANCH  21  22
ENDBRANCH  19  20
ENDBRANCH  18  19
ENDBRANCH  17  18
ENDBRANCH   1  17
TORSDOF 10
ENDMDL
MODEL 9
REMARK VINA RESULT:    -5.467      1.954      3.021
REMARK INTER + INTRA:          -9.144
REMARK INTER:                  -8.666
REMARK INTRA:                  -0.479
REMARK UNBOUND:                -0.642
REMARK SMILES COc1cc(CNC(=O)CCCC/C=C/C(C)C)ccc1O
REMARK SMILES IDX 10 1 8 2 7 3 9 5 6 6 5 7 3 8 21 9 4 10 20 11 19 12 2 13 1 14
REMARK SMILES IDX 22 15 11 17 12 18 13 19 14 20 15 21 16 22 17 23 18 24
REMARK H PARENT 7 4 22 16
REMARK Flexibility Score: inf
ROOT
ATOM      1  C   UNL     1      96.666  82.662  82.132  1.00  0.00     0.100 C 
ENDROOT
BRANCH   1   2
ATOM      2  C   UNL     1      96.511  81.943  83.411  1.00  0.00     0.220 C 
ATOM      3  N   UNL     1      95.334  81.331  83.722  1.00  0.00    -0.352 N 
ATOM      4  H   UNL     1      94.604  81.435  83.031  1.00  0.00     0.163 HD
ATOM      5  O   UNL     1      97.496  81.894  84.187  1.00  0.00    -0.275 OA
BRANCH   3   6
ATOM      6  C   UNL     1      95.093  80.586  84.916  1.00  0.00     0.151 C 
BRANCH   6   7
ATOM      7  C   UNL     1      93.682  80.118  84.992  1.00  0.00    -0.025 A 
ATOM      8  C   UNL     1      91.274  80.622  85.088  1.00  0.00     0.160 A 
ATOM      9  C   UNL     1      90.985  79.242  85.118  1.00  0.00     0.157 A 
ATOM     10  C   UNL     1      92.618  81.047  85.028  1.00  0.00     0.056 A 
ATOM     11  C   UNL     1      92.036  78.305  85.103  1.00  0.00     0.050 A 
ATOM     12  C   UNL     1      93.375  78.738  85.031  1.00  0.00     0.009 A 
BRANCH   8  13
ATOM     13  O   UNL     1      90.257  81.540  85.169  1.00  0.00    -0.493 OA
ATOM     14  C   UNL     1      89.984  81.997  86.506  1.00  0.00     0.278 C 
ENDBRANCH   8  13
BRANCH   9  15
ATOM     15  O   UNL     1      89.702  78.800  85.163  1.00  0.00    -0.504 OA
ATOM     16  H   UNL     1      89.258  79.181  85.924  1.00  0.00     0.293 HD
ENDBRANCH   9  15
ENDBRANCH   6   7
ENDBRANCH   3   6
ENDBRANCH   1   2
BRANCH   1  17
ATOM     17  C   UNL     1      97.181  81.724  81.007  1.00  0.00     0.010 C 
BRANCH  17  18
ATOM     18  C   UNL     1      96.646  82.115  79.601  1.00  0.00     0.005 C 
BRANCH  18  19
ATOM     19  C   UNL     1      97.601  81.670  78.461  1.00  0.00     0.027 C 
BRANCH  19  20
ATOM     20  C   UNL     1      97.304  82.341  77.205  1.00  0.00    -0.031 C 
ATOM     21  C   UNL     1      96.994  81.703  76.061  1.00  0.00    -0.028 C 
BRANCH  21  22
ATOM     22  C   UNL     1      96.679  82.399  74.814  1.00  0.00     0.005 C 
ATOM     23  C   UNL     1      96.191  83.854  75.058  1.00  0.00     0.012 C 
ATOM     24  C   UNL     1      97.905  82.379  73.865  1.00  0.00     0.012 C 
ENDBRANCH  21  22
ENDBRANCH  19  20
ENDBRANCH  18  19
ENDBRANCH  17  18
ENDBRANCH   1  17
TORSDOF 10
ENDMDL
MODEL 10
REMARK VINA RESULT:    -5.353      2.755      8.155
REMARK INTER + INTRA:          -8.968
REMARK INTER:                  -7.129
REMARK INTRA:                  -1.839
REMARK UNBOUND:                -0.642
REMARK SMILES COc1cc(CNC(=O)CCCC/C=C/C(C)C)ccc1O
REMARK SMILES IDX 10 1 8 2 7 3 9 5 6 6 5 7 3 8 21 9 4 10 20 11 19 12 2 13 1 14
REMARK SMILES IDX 22 15 11 17 12 18 13 19 14 20 15 21 16 22 17 23 18 24
REMARK H PARENT 7 4 22 16
REMARK Flexibility Score: inf
ROOT
ATOM      1  C   UNL     1      89.242  77.757  84.743  1.00  0.00     0.100 C 
ENDROOT
BRANCH   1   2
ATOM      2  C   UNL     1      90.538  77.894  85.435  1.00  0.00     0.220 C 
ATOM      3  N   UNL     1      91.699  77.938  84.724  1.00  0.00    -0.352 N 
ATOM      4  H   UNL     1      91.591  77.845  83.723  1.00  0.00     0.163 HD
ATOM      5  O   UNL     1      90.535  77.993  86.686  1.00  0.00    -0.275 OA
BRANCH   3   6
ATOM      6  C   UNL     1      92.999  78.100  85.293  1.00  0.00     0.151 C 
BRANCH   6   7
ATOM      7  C   UNL     1      93.582  79.427  84.955  1.00  0.00    -0.025 A 
ATOM      8  C   UNL     1      95.404  80.766  83.981  1.00  0.00     0.160 A 
ATOM      9  C   UNL     1      94.699  81.949  84.286  1.00  0.00     0.157 A 
ATOM     10  C   UNL     1      94.840  79.518  84.320  1.00  0.00     0.056 A 
ATOM     11  C   UNL     1      93.452  81.875  84.937  1.00  0.00     0.050 A 
ATOM     12  C   UNL     1      92.892  80.624  85.261  1.00  0.00     0.009 A 
BRANCH   8  13
ATOM     13  O   UNL     1      96.648  80.835  83.406  1.00  0.00    -0.493 OA
ATOM     14  C   UNL     1      96.662  80.532  81.999  1.00  0.00     0.278 C 
ENDBRANCH   8  13
BRANCH   9  15
ATOM     15  O   UNL     1      95.207  83.166  83.962  1.00  0.00    -0.504 OA
ATOM     16  H   UNL     1      94.539  83.840  84.101  1.00  0.00     0.293 HD
ENDBRANCH   9  15
ENDBRANCH   6   7
ENDBRANCH   3   6
ENDBRANCH   1   2
BRANCH   1  17
ATOM     17  C   UNL     1      89.046  78.860  83.669  1.00  0.00     0.010 C 
BRANCH  17  18
ATOM     18  C   UNL     1      89.001  80.292  84.273  1.00  0.00     0.005 C 
BRANCH  18  19
ATOM     19  C   UNL     1      87.958  80.418  85.416  1.00  0.00     0.027 C 
BRANCH  19  20
ATOM     20  C   UNL     1      88.546  80.946  86.638  1.00  0.00    -0.031 C 
ATOM     21  C   UNL     1      89.746  81.551  86.699  1.00  0.00    -0.028 C 
BRANCH  21  22
ATOM     22  C   UNL     1      90.310  82.092  87.936  1.00  0.00     0.005 C 
ATOM     23  C   UNL     1      91.258  81.083  88.642  1.00  0.00     0.012 C 
ATOM     24  C   UNL     1      91.039  83.431  87.652  1.00  0.00     0.012 C 
ENDBRANCH  21  22
ENDBRANCH  19  20
ENDBRANCH  18  19
ENDBRANCH  17  18
ENDBRANCH   1  17
TORSDOF 10
ENDMDL
