MODEL 1
REMARK VINA RESULT:    -6.953      0.000      0.000
REMARK INTER + INTRA:         -11.599
REMARK INTER:                 -10.815
REMARK INTRA:                  -0.784
REMARK UNBOUND:                -0.784
REMARK SMILES COc1cc(CNC(=O)CCCCCC(C)C)ccc1O
REMARK SMILES IDX 10 1 8 2 7 3 9 5 6 6 5 7 3 8 20 9 4 10 19 11 18 12 2 13 1 14
REMARK SMILES IDX 21 15 11 17 12 18 13 19 14 20 15 21 16 22 17 23
REMARK H PARENT 7 4 21 16
REMARK Flexibility Score: inf
ROOT
ATOM      1  C   UNL     1      92.423  95.213  75.667  1.00  0.00     0.100 C 
ENDROOT
BRANCH   1   2
ATOM      2  C   UNL     1      93.856  94.947  75.909  1.00  0.00     0.220 C 
ATOM      3  N   UNL     1      94.517  95.656  76.867  1.00  0.00    -0.352 N 
ATOM      4  H   UNL     1      93.994  96.425  77.263  1.00  0.00     0.163 HD
ATOM      5  O   UNL     1      94.426  94.040  75.253  1.00  0.00    -0.275 OA
BRANCH   3   6
ATOM      6  C   UNL     1      95.843  95.387  77.321  1.00  0.00     0.151 C 
BRANCH   6   7
ATOM      7  C   UNL     1      95.880  94.602  78.584  1.00  0.00    -0.025 A 
ATOM      8  C   UNL     1      96.881  94.147  80.784  1.00  0.00     0.160 A 
ATOM      9  C   UNL     1      95.908  93.152  81.018  1.00  0.00     0.157 A 
ATOM     10  C   UNL     1      96.872  94.852  79.561  1.00  0.00     0.056 A 
ATOM     11  C   UNL     1      94.933  92.876  80.042  1.00  0.00     0.050 A 
ATOM     12  C   UNL     1      94.915  93.599  78.837  1.00  0.00     0.009 A 
BRANCH   8  13
ATOM     13  O   UNL     1      97.851  94.417  81.713  1.00  0.00    -0.493 OA
ATOM     14  C   UNL     1      97.972  95.815  82.038  1.00  0.00     0.278 C 
ENDBRANCH   8  13
BRANCH   9  15
ATOM     15  O   UNL     1      95.909  92.467  82.189  1.00  0.00    -0.504 OA
ATOM     16  H   UNL     1      96.400  91.649  82.081  1.00  0.00     0.293 HD
ENDBRANCH   9  15
ENDBRANCH   6   7
ENDBRANCH   3   6
ENDBRANCH   1   2
BRANCH   1  17
ATOM     17  C   UNL     1      91.539  95.157  76.943  1.00  0.00     0.010 C 
BRANCH  17  18
ATOM     18  C   UNL     1      90.509  93.996  76.875  1.00  0.00     0.001 C 
BRANCH  18  19
ATOM     19  C   UNL     1      91.165  92.596  76.750  1.00  0.00     0.000 C 
BRANCH  19  20
ATOM     20  C   UNL     1      90.176  91.531  76.194  1.00  0.00     0.003 C 
BRANCH  20  21
ATOM     21  C   UNL     1      90.447  91.083  74.721  1.00  0.00    -0.017 C 
ATOM     22  C   UNL     1      89.197  91.334  73.826  1.00  0.00     0.007 C 
ATOM     23  C   UNL     1      90.891  89.596  74.613  1.00  0.00     0.007 C 
ENDBRANCH  20  21
ENDBRANCH  19  20
ENDBRANCH  18  19
ENDBRANCH  17  18
ENDBRANCH   1  17
TORSDOF 10
ENDMDL
MODEL 2
REMARK VINA RESULT:    -6.014      1.931      3.028
REMARK INTER + INTRA:         -10.139
REMARK INTER:                  -9.633
REMARK INTRA:                  -0.505
REMARK UNBOUND:                -0.784
REMARK SMILES COc1cc(CNC(=O)CCCCCC(C)C)ccc1O
REMARK SMILES IDX 10 1 8 2 7 3 9 5 6 6 5 7 3 8 20 9 4 10 19 11 18 12 2 13 1 14
REMARK SMILES IDX 21 15 11 17 12 18 13 19 14 20 15 21 16 22 17 23
REMARK H PARENT 7 4 21 16
REMARK Flexibility Score: inf
ROOT
ATOM      1  C   UNL     1      92.868  93.301  78.318  1.00  0.00     0.100 C 
ENDROOT
BRANCH   1   2
ATOM      2  C   UNL     1      94.315  93.379  78.608  1.00  0.00     0.220 C 
ATOM      3  N   UNL     1      94.736  93.437  79.903  1.00  0.00    -0.352 N 
ATOM      4  H   UNL     1      93.999  93.558  80.584  1.00  0.00     0.163 HD
ATOM      5  O   UNL     1      95.130  93.347  77.654  1.00  0.00    -0.275 OA
BRANCH   3   6
ATOM      6  C   UNL     1      96.094  93.341  80.331  1.00  0.00     0.151 C 
BRANCH   6   7
ATOM      7  C   UNL     1      96.690  94.658  80.683  1.00  0.00    -0.025 A 
ATOM      8  C   UNL     1      98.292  95.994  81.985  1.00  0.00     0.160 A 
ATOM      9  C   UNL     1      97.872  97.157  81.305  1.00  0.00     0.157 A 
ATOM     10  C   UNL     1      97.686  94.756  81.684  1.00  0.00     0.056 A 
ATOM     11  C   UNL     1      96.865  97.075  80.326  1.00  0.00     0.050 A 
ATOM     12  C   UNL     1      96.282  95.836  80.013  1.00  0.00     0.009 A 
BRANCH   8  13
ATOM     13  O   UNL     1      99.258  96.055  82.956  1.00  0.00    -0.493 OA
ATOM     14  C   UNL     1      99.713  94.765  83.406  1.00  0.00     0.278 C 
ENDBRANCH   8  13
BRANCH   9  15
ATOM     15  O   UNL     1      98.447  98.352  81.589  1.00  0.00    -0.504 OA
ATOM     16  H   UNL     1      99.204  98.216  82.163  1.00  0.00     0.293 HD
ENDBRANCH   9  15
ENDBRANCH   6   7
ENDBRANCH   3   6
ENDBRANCH   1   2
BRANCH   1  17
ATOM     17  C   UNL     1      92.297  94.543  77.583  1.00  0.00     0.010 C 
BRANCH  17  18
ATOM     18  C   UNL     1      90.925  94.237  76.920  1.00  0.00     0.001 C 
BRANCH  18  19
ATOM     19  C   UNL     1      90.636  92.719  76.778  1.00  0.00     0.000 C 
BRANCH  19  20
ATOM     20  C   UNL     1      90.911  92.200  75.336  1.00  0.00     0.003 C 
BRANCH  20  21
ATOM     21  C   UNL     1      89.943  91.075  74.844  1.00  0.00    -0.017 C 
ATOM     22  C   UNL     1      90.727  89.764  74.538  1.00  0.00     0.007 C 
ATOM     23  C   UNL     1      89.106  91.498  73.603  1.00  0.00     0.007 C 
ENDBRANCH  20  21
ENDBRANCH  19  20
ENDBRANCH  18  19
ENDBRANCH  17  18
ENDBRANCH   1  17
TORSDOF 10
ENDMDL
MODEL 3
REMARK VINA RESULT:    -5.862      4.816      6.343
REMARK INTER + INTRA:          -9.902
REMARK INTER:                  -9.370
REMARK INTRA:                  -0.532
REMARK UNBOUND:                -0.784
REMARK SMILES COc1cc(CNC(=O)CCCCCC(C)C)ccc1O
REMARK SMILES IDX 10 1 8 2 7 3 9 5 6 6 5 7 3 8 20 9 4 10 19 11 18 12 2 13 1 14
REMARK SMILES IDX 21 15 11 17 12 18 13 19 14 20 15 21 16 22 17 23
REMARK H PARENT 7 4 21 16
REMARK Flexibility Score: inf
ROOT
ATOM      1  C   UNL     1      93.648  99.295  73.577  1.00  0.00     0.100 C 
ENDROOT
BRANCH   1   2
ATOM      2  C   UNL     1      94.399  98.141  74.113  1.00  0.00     0.220 C 
ATOM      3  N   UNL     1      93.830  96.902  74.091  1.00  0.00    -0.352 N 
ATOM      4  H   UNL     1      92.857  96.887  73.820  1.00  0.00     0.163 HD
ATOM      5  O   UNL     1      95.566  98.319  74.541  1.00  0.00    -0.275 OA
BRANCH   3   6
ATOM      6  C   UNL     1      94.501  95.684  74.413  1.00  0.00     0.151 C 
BRANCH   6   7
ATOM      7  C   UNL     1      93.837  94.922  75.505  1.00  0.00    -0.025 A 
ATOM      8  C   UNL     1      93.980  93.540  77.534  1.00  0.00     0.160 A 
ATOM      9  C   UNL     1      92.572  93.528  77.623  1.00  0.00     0.157 A 
ATOM     10  C   UNL     1      94.603  94.221  76.466  1.00  0.00     0.056 A 
ATOM     11  C   UNL     1      91.800  94.200  76.658  1.00  0.00     0.050 A 
ATOM     12  C   UNL     1      92.426  94.896  75.610  1.00  0.00     0.009 A 
BRANCH   8  13
ATOM     13  O   UNL     1      94.750  92.875  78.452  1.00  0.00    -0.493 OA
ATOM     14  C   UNL     1      95.416  93.742  79.390  1.00  0.00     0.278 C 
ENDBRANCH   8  13
BRANCH   9  15
ATOM     15  O   UNL     1      91.964  92.874  78.644  1.00  0.00    -0.504 OA
ATOM     16  H   UNL     1      91.239  93.407  78.978  1.00  0.00     0.293 HD
ENDBRANCH   9  15
ENDBRANCH   6   7
ENDBRANCH   3   6
ENDBRANCH   1   2
BRANCH   1  17
ATOM     17  C   UNL     1      93.400  99.239  72.046  1.00  0.00     0.010 C 
BRANCH  17  18
ATOM     18  C   UNL     1      92.015  99.833  71.668  1.00  0.00     0.001 C 
BRANCH  18  19
ATOM     19  C   UNL     1      91.477  99.325  70.304  1.00  0.00     0.000 C 
BRANCH  19  20
ATOM     20  C   UNL     1      90.100  98.614  70.443  1.00  0.00     0.003 C 
BRANCH  20  21
ATOM     21  C   UNL     1      89.237  98.587  69.140  1.00  0.00    -0.017 C 
ATOM     22  C   UNL     1      89.806  97.559  68.118  1.00  0.00     0.007 C 
ATOM     23  C   UNL     1      89.105  99.987  68.473  1.00  0.00     0.007 C 
ENDBRANCH  20  21
ENDBRANCH  19  20
ENDBRANCH  18  19
ENDBRANCH  17  18
ENDBRANCH   1  17
TORSDOF 10
ENDMDL
MODEL 4
REMARK VINA RESULT:    -5.827      2.105      3.315
REMARK INTER + INTRA:          -9.847
REMARK INTER:                  -9.102
REMARK INTRA:                  -0.745
REMARK UNBOUND:                -0.784
REMARK SMILES COc1cc(CNC(=O)CCCCCC(C)C)ccc1O
REMARK SMILES IDX 10 1 8 2 7 3 9 5 6 6 5 7 3 8 20 9 4 10 19 11 18 12 2 13 1 14
REMARK SMILES IDX 21 15 11 17 12 18 13 19 14 20 15 21 16 22 17 23
REMARK H PARENT 7 4 21 16
REMARK Flexibility Score: inf
ROOT
ATOM      1  C   UNL     1      93.011  93.452  78.304  1.00  0.00     0.100 C 
ENDROOT
BRANCH   1   2
ATOM      2  C   UNL     1      94.215  93.237  79.134  1.00  0.00     0.220 C 
ATOM      3  N   UNL     1      95.401  93.789  78.749  1.00  0.00    -0.352 N 
ATOM      4  H   UNL     1      95.396  94.207  77.829  1.00  0.00     0.163 HD
ATOM      5  O   UNL     1      94.111  92.585  80.201  1.00  0.00    -0.275 OA
BRANCH   3   6
ATOM      6  C   UNL     1      96.592  93.808  79.535  1.00  0.00     0.151 C 
BRANCH   6   7
ATOM      7  C   UNL     1      96.810  95.102  80.236  1.00  0.00    -0.025 A 
ATOM      8  C   UNL     1      98.049  97.211  80.483  1.00  0.00     0.160 A 
ATOM      9  C   UNL     1      97.181  97.597  81.526  1.00  0.00     0.157 A 
ATOM     10  C   UNL     1      97.870  95.959  79.857  1.00  0.00     0.056 A 
ATOM     11  C   UNL     1      96.140  96.741  81.929  1.00  0.00     0.050 A 
ATOM     12  C   UNL     1      95.951  95.506  81.285  1.00  0.00     0.009 A 
BRANCH   8  13
ATOM     13  O   UNL     1      99.082  98.022  80.089  1.00  0.00    -0.493 OA
ATOM     14  C   UNL     1     100.356  97.658  80.656  1.00  0.00     0.278 C 
ENDBRANCH   8  13
BRANCH   9  15
ATOM     15  O   UNL     1      97.346  98.798  82.136  1.00  0.00    -0.504 OA
ATOM     16  H   UNL     1      96.955  99.488  81.595  1.00  0.00     0.293 HD
ENDBRANCH   9  15
ENDBRANCH   6   7
ENDBRANCH   3   6
ENDBRANCH   1   2
BRANCH   1  17
ATOM     17  C   UNL     1      93.043  94.754  77.459  1.00  0.00     0.010 C 
BRANCH  17  18
ATOM     18  C   UNL     1      91.611  95.232  77.090  1.00  0.00     0.001 C 
BRANCH  18  19
ATOM     19  C   UNL     1      90.581  94.076  76.995  1.00  0.00     0.000 C 
BRANCH  19  20
ATOM     20  C   UNL     1      90.718  93.273  75.669  1.00  0.00     0.003 C 
BRANCH  20  21
ATOM     21  C   UNL     1      90.809  91.722  75.842  1.00  0.00    -0.017 C 
ATOM     22  C   UNL     1      90.728  91.004  74.462  1.00  0.00     0.007 C 
ATOM     23  C   UNL     1      89.723  91.157  76.803  1.00  0.00     0.007 C 
ENDBRANCH  20  21
ENDBRANCH  19  20
ENDBRANCH  18  19
ENDBRANCH  17  18
ENDBRANCH   1  17
TORSDOF 10
ENDMDL
MODEL 5
REMARK VINA RESULT:    -5.745      2.620      4.642
REMARK INTER + INTRA:          -9.720
REMARK INTER:                  -8.749
REMARK INTRA:                  -0.971
REMARK UNBOUND:                -0.784
REMARK SMILES COc1cc(CNC(=O)CCCCCC(C)C)ccc1O
REMARK SMILES IDX 10 1 8 2 7 3 9 5 6 6 5 7 3 8 20 9 4 10 19 11 18 12 2 13 1 14
REMARK SMILES IDX 21 15 11 17 12 18 13 19 14 20 15 21 16 22 17 23
REMARK H PARENT 7 4 21 16
REMARK Flexibility Score: inf
ROOT
ATOM      1  C   UNL     1      91.546  95.039  76.860  1.00  0.00     0.100 C 
ENDROOT
BRANCH   1   2
ATOM      2  C   UNL     1      92.229  93.889  77.491  1.00  0.00     0.220 C 
ATOM      3  N   UNL     1      93.327  94.106  78.267  1.00  0.00    -0.352 N 
ATOM      4  H   UNL     1      93.681  95.052  78.248  1.00  0.00     0.163 HD
ATOM      5  O   UNL     1      91.755  92.738  77.331  1.00  0.00    -0.275 OA
BRANCH   3   6
ATOM      6  C   UNL     1      93.975  93.118  79.069  1.00  0.00     0.151 C 
BRANCH   6   7
ATOM      7  C   UNL     1      95.317  93.545  79.551  1.00  0.00    -0.025 A 
ATOM      8  C   UNL     1      97.398  94.812  79.220  1.00  0.00     0.160 A 
ATOM      9  C   UNL     1      97.843  94.411  80.497  1.00  0.00     0.157 A 
ATOM     10  C   UNL     1      96.147  94.361  78.747  1.00  0.00     0.056 A 
ATOM     11  C   UNL     1      97.037  93.577  81.294  1.00  0.00     0.050 A 
ATOM     12  C   UNL     1      95.781  93.152  80.828  1.00  0.00     0.009 A 
BRANCH   8  13
ATOM     13  O   UNL     1      98.176  95.607  78.420  1.00  0.00    -0.493 OA
ATOM     14  C   UNL     1      97.679  96.951  78.276  1.00  0.00     0.278 C 
ENDBRANCH   8  13
BRANCH   9  15
ATOM     15  O   UNL     1      99.045  94.836  80.960  1.00  0.00    -0.504 OA
ATOM     16  H   UNL     1      99.082  94.718  81.912  1.00  0.00     0.293 HD
ENDBRANCH   9  15
ENDBRANCH   6   7
ENDBRANCH   3   6
ENDBRANCH   1   2
BRANCH   1  17
ATOM     17  C   UNL     1      92.483  96.231  76.524  1.00  0.00     0.010 C 
BRANCH  17  18
ATOM     18  C   UNL     1      93.352  95.939  75.270  1.00  0.00     0.001 C 
BRANCH  18  19
ATOM     19  C   UNL     1      94.859  95.760  75.593  1.00  0.00     0.000 C 
BRANCH  19  20
ATOM     20  C   UNL     1      95.770  96.568  74.624  1.00  0.00     0.003 C 
BRANCH  20  21
ATOM     21  C   UNL     1      95.009  97.358  73.509  1.00  0.00    -0.017 C 
ATOM     22  C   UNL     1      95.751  97.244  72.144  1.00  0.00     0.007 C 
ATOM     23  C   UNL     1      94.788  98.855  73.873  1.00  0.00     0.007 C 
ENDBRANCH  20  21
ENDBRANCH  19  20
ENDBRANCH  18  19
ENDBRANCH  17  18
ENDBRANCH   1  17
TORSDOF 10
ENDMDL
MODEL 6
REMARK VINA RESULT:    -5.679     21.255     23.250
REMARK INTER + INTRA:          -9.617
REMARK INTER:                  -8.221
REMARK INTRA:                  -1.395
REMARK UNBOUND:                -0.784
REMARK SMILES COc1cc(CNC(=O)CCCCCC(C)C)ccc1O
REMARK SMILES IDX 10 1 8 2 7 3 9 5 6 6 5 7 3 8 20 9 4 10 19 11 18 12 2 13 1 14
REMARK SMILES IDX 21 15 11 17 12 18 13 19 14 20 15 21 16 22 17 23
REMARK H PARENT 7 4 21 16
REMARK Flexibility Score: inf
ROOT
ATOM      1  C   UNL     1      73.190  89.385  69.673  1.00  0.00     0.100 C 
ENDROOT
BRANCH   1   2
ATOM      2  C   UNL     1      73.029  88.192  68.816  1.00  0.00     0.220 C 
ATOM      3  N   UNL     1      73.649  87.029  69.164  1.00  0.00    -0.352 N 
ATOM      4  H   UNL     1      74.297  87.107  69.935  1.00  0.00     0.163 HD
ATOM      5  O   UNL     1      72.288  88.263  67.805  1.00  0.00    -0.275 OA
BRANCH   3   6
ATOM      6  C   UNL     1      73.442  85.766  68.531  1.00  0.00     0.151 C 
BRANCH   6   7
ATOM      7  C   UNL     1      74.694  85.175  67.984  1.00  0.00    -0.025 A 
ATOM      8  C   UNL     1      75.845  83.803  66.299  1.00  0.00     0.160 A 
ATOM      9  C   UNL     1      77.084  84.105  66.903  1.00  0.00     0.157 A 
ATOM     10  C   UNL     1      74.657  84.324  66.854  1.00  0.00     0.056 A 
ATOM     11  C   UNL     1      77.130  84.928  68.043  1.00  0.00     0.050 A 
ATOM     12  C   UNL     1      75.945  85.464  68.576  1.00  0.00     0.009 A 
BRANCH   8  13
ATOM     13  O   UNL     1      75.777  82.987  65.200  1.00  0.00    -0.493 OA
ATOM     14  C   UNL     1      74.967  81.812  65.397  1.00  0.00     0.278 C 
ENDBRANCH   8  13
BRANCH   9  15
ATOM     15  O   UNL     1      78.232  83.607  66.379  1.00  0.00    -0.504 OA
ATOM     16  H   UNL     1      78.739  84.320  65.985  1.00  0.00     0.293 HD
ENDBRANCH   9  15
ENDBRANCH   6   7
ENDBRANCH   3   6
ENDBRANCH   1   2
BRANCH   1  17
ATOM     17  C   UNL     1      73.902  90.577  68.979  1.00  0.00     0.010 C 
BRANCH  17  18
ATOM     18  C   UNL     1      75.436  90.552  69.228  1.00  0.00     0.001 C 
BRANCH  18  19
ATOM     19  C   UNL     1      76.159  89.390  68.497  1.00  0.00     0.000 C 
BRANCH  19  20
ATOM     20  C   UNL     1      76.494  89.743  67.019  1.00  0.00     0.003 C 
BRANCH  20  21
ATOM     21  C   UNL     1      75.599  89.032  65.952  1.00  0.00    -0.017 C 
ATOM     22  C   UNL     1      76.184  87.639  65.575  1.00  0.00     0.007 C 
ATOM     23  C   UNL     1      75.392  89.889  64.669  1.00  0.00     0.007 C 
ENDBRANCH  20  21
ENDBRANCH  19  20
ENDBRANCH  18  19
ENDBRANCH  17  18
ENDBRANCH   1  17
TORSDOF 10
ENDMDL
MODEL 7
REMARK VINA RESULT:    -5.635     11.676     13.445
REMARK INTER + INTRA:          -9.549
REMARK INTER:                  -8.544
REMARK INTRA:                  -1.005
REMARK UNBOUND:                -0.784
REMARK SMILES COc1cc(CNC(=O)CCCCCC(C)C)ccc1O
REMARK SMILES IDX 10 1 8 2 7 3 9 5 6 6 5 7 3 8 20 9 4 10 19 11 18 12 2 13 1 14
REMARK SMILES IDX 21 15 11 17 12 18 13 19 14 20 15 21 16 22 17 23
REMARK H PARENT 7 4 21 16
REMARK Flexibility Score: inf
ROOT
ATOM      1  C   UNL     1      96.676  82.912  74.083  1.00  0.00     0.100 C 
ENDROOT
BRANCH   1   2
ATOM      2  C   UNL     1      96.233  83.200  75.462  1.00  0.00     0.220 C 
ATOM      3  N   UNL     1      96.452  82.279  76.443  1.00  0.00    -0.352 N 
ATOM      4  H   UNL     1      96.795  81.387  76.118  1.00  0.00     0.163 HD
ATOM      5  O   UNL     1      95.699  84.309  75.711  1.00  0.00    -0.275 OA
BRANCH   3   6
ATOM      6  C   UNL     1      96.236  82.496  77.837  1.00  0.00     0.151 C 
BRANCH   6   7
ATOM      7  C   UNL     1      97.201  81.763  78.699  1.00  0.00    -0.025 A 
ATOM      8  C   UNL     1      97.946  81.036  80.928  1.00  0.00     0.160 A 
ATOM      9  C   UNL     1      99.002  80.311  80.336  1.00  0.00     0.157 A 
ATOM     10  C   UNL     1      97.064  81.772  80.108  1.00  0.00     0.056 A 
ATOM     11  C   UNL     1      99.164  80.316  78.938  1.00  0.00     0.050 A 
ATOM     12  C   UNL     1      98.268  81.031  78.126  1.00  0.00     0.009 A 
BRANCH   8  13
ATOM     13  O   UNL     1      97.783  81.061  82.288  1.00  0.00    -0.493 OA
ATOM     14  C   UNL     1      96.406  81.024  82.710  1.00  0.00     0.278 C 
ENDBRANCH   8  13
BRANCH   9  15
ATOM     15  O   UNL     1      99.856  79.602  81.116  1.00  0.00    -0.504 OA
ATOM     16  H   UNL     1     100.526  79.190  80.564  1.00  0.00     0.293 HD
ENDBRANCH   9  15
ENDBRANCH   6   7
ENDBRANCH   3   6
ENDBRANCH   1   2
BRANCH   1  17
ATOM     17  C   UNL     1      97.415  81.556  73.920  1.00  0.00     0.010 C 
BRANCH  17  18
ATOM     18  C   UNL     1      98.910  81.760  73.550  1.00  0.00     0.001 C 
BRANCH  18  19
ATOM     19  C   UNL     1      99.732  82.456  74.666  1.00  0.00     0.000 C 
BRANCH  19  20
ATOM     20  C   UNL     1     100.709  83.525  74.098  1.00  0.00     0.003 C 
BRANCH  20  21
ATOM     21  C   UNL     1     101.380  83.149  72.736  1.00  0.00    -0.017 C 
ATOM     22  C   UNL     1     102.736  82.419  72.968  1.00  0.00     0.007 C 
ATOM     23  C   UNL     1     101.588  84.379  71.805  1.00  0.00     0.007 C 
ENDBRANCH  20  21
ENDBRANCH  19  20
ENDBRANCH  18  19
ENDBRANCH  17  18
ENDBRANCH   1  17
TORSDOF 10
ENDMDL
MODEL 8
REMARK VINA RESULT:    -5.588     13.299     15.673
REMARK INTER + INTRA:          -9.475
REMARK INTER:                  -8.922
REMARK INTRA:                  -0.553
REMARK UNBOUND:                -0.784
REMARK SMILES COc1cc(CNC(=O)CCCCCC(C)C)ccc1O
REMARK SMILES IDX 10 1 8 2 7 3 9 5 6 6 5 7 3 8 20 9 4 10 19 11 18 12 2 13 1 14
REMARK SMILES IDX 21 15 11 17 12 18 13 19 14 20 15 21 16 22 17 23
REMARK H PARENT 7 4 21 16
REMARK Flexibility Score: inf
ROOT
ATOM      1  C   UNL     1      95.223  82.519  83.927  1.00  0.00     0.100 C 
ENDROOT
BRANCH   1   2
ATOM      2  C   UNL     1      94.215  82.402  85.002  1.00  0.00     0.220 C 
ATOM      3  N   UNL     1      93.018  81.809  84.735  1.00  0.00    -0.352 N 
ATOM      4  H   UNL     1      92.853  81.604  83.760  1.00  0.00     0.163 HD
ATOM      5  O   UNL     1      94.502  82.815  86.152  1.00  0.00    -0.275 OA
BRANCH   3   6
ATOM      6  C   UNL     1      92.030  81.476  85.711  1.00  0.00     0.151 C 
BRANCH   6   7
ATOM      7  C   UNL     1      91.023  80.500  85.214  1.00  0.00    -0.025 A 
ATOM      8  C   UNL     1      88.704  79.950  84.610  1.00  0.00     0.160 A 
ATOM      9  C   UNL     1      89.117  78.663  84.204  1.00  0.00     0.157 A 
ATOM     10  C   UNL     1      89.656  80.853  85.129  1.00  0.00     0.056 A 
ATOM     11  C   UNL     1      90.470  78.292  84.309  1.00  0.00     0.050 A 
ATOM     12  C   UNL     1      91.417  79.204  84.804  1.00  0.00     0.009 A 
BRANCH   8  13
ATOM     13  O   UNL     1      87.388  80.324  84.535  1.00  0.00    -0.493 OA
ATOM     14  C   UNL     1      87.195  81.695  84.137  1.00  0.00     0.278 C 
ENDBRANCH   8  13
BRANCH   9  15
ATOM     15  O   UNL     1      88.209  77.787  83.706  1.00  0.00    -0.504 OA
ATOM     16  H   UNL     1      88.166  77.879  82.751  1.00  0.00     0.293 HD
ENDBRANCH   9  15
ENDBRANCH   6   7
ENDBRANCH   3   6
ENDBRANCH   1   2
BRANCH   1  17
ATOM     17  C   UNL     1      96.275  81.378  83.910  1.00  0.00     0.010 C 
BRANCH  17  18
ATOM     18  C   UNL     1      95.883  80.252  82.914  1.00  0.00     0.001 C 
BRANCH  18  19
ATOM     19  C   UNL     1      96.837  80.149  81.695  1.00  0.00     0.000 C 
BRANCH  19  20
ATOM     20  C   UNL     1      96.975  81.502  80.939  1.00  0.00     0.003 C 
BRANCH  20  21
ATOM     21  C   UNL     1      97.627  81.404  79.522  1.00  0.00    -0.017 C 
ATOM     22  C   UNL     1      96.786  82.182  78.468  1.00  0.00     0.007 C 
ATOM     23  C   UNL     1      97.840  79.934  79.055  1.00  0.00     0.007 C 
ENDBRANCH  20  21
ENDBRANCH  19  20
ENDBRANCH  18  19
ENDBRANCH  17  18
ENDBRANCH   1  17
TORSDOF 10
ENDMDL
MODEL 9
REMARK VINA RESULT:    -5.574      3.525      8.200
REMARK INTER + INTRA:          -9.453
REMARK INTER:                  -8.781
REMARK INTRA:                  -0.672
REMARK UNBOUND:                -0.784
REMARK SMILES COc1cc(CNC(=O)CCCCCC(C)C)ccc1O
REMARK SMILES IDX 10 1 8 2 7 3 9 5 6 6 5 7 3 8 20 9 4 10 19 11 18 12 2 13 1 14
REMARK SMILES IDX 21 15 11 17 12 18 13 19 14 20 15 21 16 22 17 23
REMARK H PARENT 7 4 21 16
REMARK Flexibility Score: inf
ROOT
ATOM      1  C   UNL     1      95.893  96.323  81.674  1.00  0.00     0.100 C 
ENDROOT
BRANCH   1   2
ATOM      2  C   UNL     1      96.198  95.365  80.591  1.00  0.00     0.220 C 
ATOM      3  N   UNL     1      95.638  94.122  80.619  1.00  0.00    -0.352 N 
ATOM      4  H   UNL     1      95.145  93.897  81.472  1.00  0.00     0.163 HD
ATOM      5  O   UNL     1      96.934  95.732  79.643  1.00  0.00    -0.275 OA
BRANCH   3   6
ATOM      6  C   UNL     1      95.706  93.166  79.561  1.00  0.00     0.151 C 
BRANCH   6   7
ATOM      7  C   UNL     1      94.627  93.336  78.550  1.00  0.00    -0.025 A 
ATOM      8  C   UNL     1      93.922  93.807  76.242  1.00  0.00     0.160 A 
ATOM      9  C   UNL     1      92.577  93.592  76.612  1.00  0.00     0.157 A 
ATOM     10  C   UNL     1      94.936  93.696  77.217  1.00  0.00     0.056 A 
ATOM     11  C   UNL     1      92.256  93.259  77.940  1.00  0.00     0.050 A 
ATOM     12  C   UNL     1      93.273  93.127  78.901  1.00  0.00     0.009 A 
BRANCH   8  13
ATOM     13  O   UNL     1      94.254  94.152  74.958  1.00  0.00    -0.493 OA
ATOM     14  C   UNL     1      94.568  95.548  74.793  1.00  0.00     0.278 C 
ENDBRANCH   8  13
BRANCH   9  15
ATOM     15  O   UNL     1      91.595  93.699  75.682  1.00  0.00    -0.504 OA
ATOM     16  H   UNL     1      90.855  94.187  76.052  1.00  0.00     0.293 HD
ENDBRANCH   9  15
ENDBRANCH   6   7
ENDBRANCH   3   6
ENDBRANCH   1   2
BRANCH   1  17
ATOM     17  C   UNL     1      97.107  97.176  82.132  1.00  0.00     0.010 C 
BRANCH  17  18
ATOM     18  C   UNL     1      96.948  98.665  81.720  1.00  0.00     0.001 C 
BRANCH  18  19
ATOM     19  C   UNL     1      95.605  99.292  82.177  1.00  0.00     0.000 C 
BRANCH  19  20
ATOM     20  C   UNL     1      95.800 100.688  82.836  1.00  0.00     0.003 C 
BRANCH  20  21
ATOM     21  C   UNL     1      95.170 101.883  82.049  1.00  0.00    -0.017 C 
ATOM     22  C   UNL     1      93.651 102.017  82.367  1.00  0.00     0.007 C 
ATOM     23  C   UNL     1      95.387 101.777  80.512  1.00  0.00     0.007 C 
ENDBRANCH  20  21
ENDBRANCH  19  20
ENDBRANCH  18  19
ENDBRANCH  17  18
ENDBRANCH   1  17
TORSDOF 10
ENDMDL
MODEL 10
REMARK VINA RESULT:    -5.444     22.172     25.271
REMARK INTER + INTRA:          -9.252
REMARK INTER:                  -8.288
REMARK INTRA:                  -0.964
REMARK UNBOUND:                -0.784
REMARK SMILES COc1cc(CNC(=O)CCCCCC(C)C)ccc1O
REMARK SMILES IDX 10 1 8 2 7 3 9 5 6 6 5 7 3 8 20 9 4 10 19 11 18 12 2 13 1 14
REMARK SMILES IDX 21 15 11 17 12 18 13 19 14 20 15 21 16 22 17 23
REMARK H PARENT 7 4 21 16
REMARK Flexibility Score: inf
ROOT
ATOM      1  C   UNL     1      74.938  82.460  63.652  1.00  0.00     0.100 C 
ENDROOT
BRANCH   1   2
ATOM      2  C   UNL     1      75.934  83.005  64.598  1.00  0.00     0.220 C 
ATOM      3  N   UNL     1      76.055  84.355  64.738  1.00  0.00    -0.352 N 
ATOM      4  H   UNL     1      75.530  84.900  64.069  1.00  0.00     0.163 HD
ATOM      5  O   UNL     1      76.619  82.210  65.286  1.00  0.00    -0.275 OA
BRANCH   3   6
ATOM      6  C   UNL     1      76.845  85.011  65.731  1.00  0.00     0.151 C 
BRANCH   6   7
ATOM      7  C   UNL     1      76.196  85.038  67.069  1.00  0.00    -0.025 A 
ATOM      8  C   UNL     1      74.231  85.487  68.478  1.00  0.00     0.160 A 
ATOM      9  C   UNL     1      74.939  85.026  69.608  1.00  0.00     0.157 A 
ATOM     10  C   UNL     1      74.870  85.508  67.220  1.00  0.00     0.056 A 
ATOM     11  C   UNL     1      76.267  84.582  69.475  1.00  0.00     0.050 A 
ATOM     12  C   UNL     1      76.889  84.582  68.215  1.00  0.00     0.009 A 
BRANCH   8  13
ATOM     13  O   UNL     1      72.943  85.942  68.590  1.00  0.00    -0.493 OA
ATOM     14  C   UNL     1      72.829  87.378  68.560  1.00  0.00     0.278 C 
ENDBRANCH   8  13
BRANCH   9  15
ATOM     15  O   UNL     1      74.335  85.004  70.823  1.00  0.00    -0.504 OA
ATOM     16  H   UNL     1      75.002  84.955  71.511  1.00  0.00     0.293 HD
ENDBRANCH   9  15
ENDBRANCH   6   7
ENDBRANCH   3   6
ENDBRANCH   1   2
BRANCH   1  17
ATOM     17  C   UNL     1      74.095  81.285  64.218  1.00  0.00     0.010 C 
BRANCH  17  18
ATOM     18  C   UNL     1      72.972  81.792  65.164  1.00  0.00     0.001 C 
BRANCH  18  19
ATOM     19  C   UNL     1      71.589  81.148  64.879  1.00  0.00     0.000 C 
BRANCH  19  20
ATOM     20  C   UNL     1      70.416  81.996  65.452  1.00  0.00     0.003 C 
BRANCH  20  21
ATOM     21  C   UNL     1      69.601  82.800  64.387  1.00  0.00    -0.017 C 
ATOM     22  C   UNL     1      69.504  82.010  63.049  1.00  0.00     0.007 C 
ATOM     23  C   UNL     1      70.183  84.220  64.128  1.00  0.00     0.007 C 
ENDBRANCH  20  21
ENDBRANCH  19  20
ENDBRANCH  18  19
ENDBRANCH  17  18
ENDBRANCH   1  17
TORSDOF 10
ENDMDL
