MODEL 1
REMARK VINA RESULT:    -5.857      0.000      0.000
REMARK INTER + INTRA:         -11.010
REMARK INTER:                  -9.453
REMARK INTRA:                  -1.557
REMARK UNBOUND:                -1.557
REMARK SMILES COc1cc(CNC(=O)CCCCC/C=C/C(C)C)ccc1O
REMARK SMILES IDX 11 1 10 2 8 3 7 4 9 6 6 7 5 8 3 9 22 10 4 11 21 12 20 13
REMARK SMILES IDX 2 14 1 15 23 16 12 18 13 19 14 20 15 21 16 22 17 23 18 24
REMARK SMILES IDX 19 25
REMARK H PARENT 7 5 23 17
REMARK Flexibility Score: inf
ROOT
ATOM      1  C   UNL     1      75.029  86.675  70.343  1.00  0.00     0.010 C 
ENDROOT
BRANCH   1   2
ATOM      2  C   UNL     1      75.394  85.237  70.794  1.00  0.00     0.100 C 
BRANCH   2   3
ATOM      3  C   UNL     1      76.372  84.564  69.919  1.00  0.00     0.220 C 
ATOM      4  N   UNL     1      76.018  84.212  68.652  1.00  0.00    -0.352 N 
ATOM      5  H   UNL     1      75.049  84.382  68.422  1.00  0.00     0.163 HD
ATOM      6  O   UNL     1      77.530  84.369  70.359  1.00  0.00    -0.275 OA
BRANCH   4   7
ATOM      7  C   UNL     1      76.890  83.647  67.674  1.00  0.00     0.151 C 
BRANCH   7   8
ATOM      8  C   UNL     1      76.165  82.838  66.660  1.00  0.00    -0.025 A 
ATOM      9  C   UNL     1      74.067  81.921  65.761  1.00  0.00     0.160 A 
ATOM     10  C   UNL     1      74.793  81.249  64.754  1.00  0.00     0.157 A 
ATOM     11  C   UNL     1      74.758  82.701  66.711  1.00  0.00     0.056 A 
ATOM     12  C   UNL     1      76.191  81.392  64.683  1.00  0.00     0.050 A 
ATOM     13  C   UNL     1      76.871  82.189  65.623  1.00  0.00     0.009 A 
BRANCH   9  14
ATOM     14  O   UNL     1      72.699  81.860  65.786  1.00  0.00    -0.493 OA
ATOM     15  C   UNL     1      72.049  83.012  65.224  1.00  0.00     0.278 C 
ENDBRANCH   9  14
BRANCH  10  16
ATOM     16  O   UNL     1      74.170  80.466  63.839  1.00  0.00    -0.504 OA
ATOM     17  H   UNL     1      74.269  80.854  62.966  1.00  0.00     0.293 HD
ENDBRANCH  10  16
ENDBRANCH   7   8
ENDBRANCH   4   7
ENDBRANCH   2   3
ENDBRANCH   1   2
BRANCH   1  18
ATOM     18  C   UNL     1      76.295  87.476  69.948  1.00  0.00     0.001 C 
BRANCH  18  19
ATOM     19  C   UNL     1      76.328  87.893  68.456  1.00  0.00     0.004 C 
BRANCH  19  20
ATOM     20  C   UNL     1      77.572  87.307  67.730  1.00  0.00     0.027 C 
BRANCH  20  21
ATOM     21  C   UNL     1      77.502  87.402  66.282  1.00  0.00    -0.031 C 
ATOM     22  C   UNL     1      76.840  86.503  65.533  1.00  0.00    -0.028 C 
BRANCH  22  23
ATOM     23  C   UNL     1      76.747  86.574  64.077  1.00  0.00     0.005 C 
ATOM     24  C   UNL     1      76.733  85.146  63.469  1.00  0.00     0.012 C 
ATOM     25  C   UNL     1      75.504  87.405  63.659  1.00  0.00     0.012 C 
ENDBRANCH  22  23
ENDBRANCH  20  21
ENDBRANCH  19  20
ENDBRANCH  18  19
ENDBRANCH   1  18
TORSDOF 11
ENDMDL
MODEL 2
REMARK VINA RESULT:    -5.448      2.156      7.081
REMARK INTER + INTRA:         -10.349
REMARK INTER:                  -9.416
REMARK INTRA:                  -0.933
REMARK UNBOUND:                -1.557
REMARK SMILES COc1cc(CNC(=O)CCCCC/C=C/C(C)C)ccc1O
REMARK SMILES IDX 11 1 10 2 8 3 7 4 9 6 6 7 5 8 3 9 22 10 4 11 21 12 20 13
REMARK SMILES IDX 2 14 1 15 23 16 12 18 13 19 14 20 15 21 16 22 17 23 18 24
REMARK SMILES IDX 19 25
REMARK H PARENT 7 5 23 17
REMARK Flexibility Score: inf
ROOT
ATOM      1  C   UNL     1      74.664  80.916  64.054  1.00  0.00     0.010 C 
ENDROOT
BRANCH   1   2
ATOM      2  C   UNL     1      75.216  81.229  65.469  1.00  0.00     0.100 C 
BRANCH   2   3
ATOM      3  C   UNL     1      76.458  82.025  65.465  1.00  0.00     0.220 C 
ATOM      4  N   UNL     1      76.423  83.334  65.090  1.00  0.00    -0.352 N 
ATOM      5  H   UNL     1      75.523  83.654  64.760  1.00  0.00     0.163 HD
ATOM      6  O   UNL     1      77.518  81.477  65.852  1.00  0.00    -0.275 OA
BRANCH   4   7
ATOM      7  C   UNL     1      77.526  84.238  65.133  1.00  0.00     0.151 C 
BRANCH   7   8
ATOM      8  C   UNL     1      77.503  85.111  66.336  1.00  0.00    -0.025 A 
ATOM      9  C   UNL     1      77.540  85.381  68.780  1.00  0.00     0.160 A 
ATOM     10  C   UNL     1      77.405  86.778  68.627  1.00  0.00     0.157 A 
ATOM     11  C   UNL     1      77.579  84.558  67.636  1.00  0.00     0.056 A 
ATOM     12  C   UNL     1      77.345  87.340  67.339  1.00  0.00     0.050 A 
ATOM     13  C   UNL     1      77.405  86.514  66.201  1.00  0.00     0.009 A 
BRANCH   9  14
ATOM     14  O   UNL     1      77.686  84.832  70.027  1.00  0.00    -0.493 OA
ATOM     15  C   UNL     1      76.488  84.237  70.551  1.00  0.00     0.278 C 
ENDBRANCH   9  14
BRANCH  10  16
ATOM     16  O   UNL     1      77.335  87.601  69.703  1.00  0.00    -0.504 OA
ATOM     17  H   UNL     1      78.222  87.800  70.012  1.00  0.00     0.293 HD
ENDBRANCH  10  16
ENDBRANCH   7   8
ENDBRANCH   4   7
ENDBRANCH   2   3
ENDBRANCH   1   2
BRANCH   1  18
ATOM     18  C   UNL     1      73.228  80.336  64.130  1.00  0.00     0.001 C 
BRANCH  18  19
ATOM     19  C   UNL     1      72.327  80.744  62.938  1.00  0.00     0.004 C 
BRANCH  19  20
ATOM     20  C   UNL     1      71.893  82.233  63.038  1.00  0.00     0.027 C 
BRANCH  20  21
ATOM     21  C   UNL     1      70.805  82.463  63.973  1.00  0.00    -0.031 C 
ATOM     22  C   UNL     1      70.984  83.106  65.140  1.00  0.00    -0.028 C 
BRANCH  22  23
ATOM     23  C   UNL     1      69.911  83.358  66.099  1.00  0.00     0.005 C 
ATOM     24  C   UNL     1      68.532  83.061  65.452  1.00  0.00     0.012 C 
ATOM     25  C   UNL     1      70.144  82.534  67.394  1.00  0.00     0.012 C 
ENDBRANCH  22  23
ENDBRANCH  20  21
ENDBRANCH  19  20
ENDBRANCH  18  19
ENDBRANCH   1  18
TORSDOF 11
ENDMDL
MODEL 3
REMARK VINA RESULT:    -5.341      2.337      3.908
REMARK INTER + INTRA:         -10.176
REMARK INTER:                  -7.801
REMARK INTRA:                  -2.375
REMARK UNBOUND:                -1.557
REMARK SMILES COc1cc(CNC(=O)CCCCC/C=C/C(C)C)ccc1O
REMARK SMILES IDX 11 1 10 2 8 3 7 4 9 6 6 7 5 8 3 9 22 10 4 11 21 12 20 13
REMARK SMILES IDX 2 14 1 15 23 16 12 18 13 19 14 20 15 21 16 22 17 23 18 24
REMARK SMILES IDX 19 25
REMARK H PARENT 7 5 23 17
REMARK Flexibility Score: inf
ROOT
ATOM      1  C   UNL     1      72.612  87.828  69.710  1.00  0.00     0.010 C 
ENDROOT
BRANCH   1   2
ATOM      2  C   UNL     1      71.818  86.555  70.103  1.00  0.00     0.100 C 
BRANCH   2   3
ATOM      3  C   UNL     1      72.002  85.424  69.175  1.00  0.00     0.220 C 
ATOM      4  N   UNL     1      72.921  85.510  68.174  1.00  0.00    -0.352 N 
ATOM      5  H   UNL     1      73.377  86.408  68.096  1.00  0.00     0.163 HD
ATOM      6  O   UNL     1      71.325  84.385  69.362  1.00  0.00    -0.275 OA
BRANCH   4   7
ATOM      7  C   UNL     1      73.266  84.459  67.272  1.00  0.00     0.151 C 
BRANCH   7   8
ATOM      8  C   UNL     1      74.731  84.218  67.208  1.00  0.00    -0.025 A 
ATOM      9  C   UNL     1      76.735  83.568  65.940  1.00  0.00     0.160 A 
ATOM     10  C   UNL     1      77.518  83.708  67.107  1.00  0.00     0.157 A 
ATOM     11  C   UNL     1      75.349  83.815  66.001  1.00  0.00     0.056 A 
ATOM     12  C   UNL     1      76.917  84.126  68.309  1.00  0.00     0.050 A 
ATOM     13  C   UNL     1      75.536  84.389  68.357  1.00  0.00     0.009 A 
BRANCH   9  14
ATOM     14  O   UNL     1      77.324  83.247  64.746  1.00  0.00    -0.493 OA
ATOM     15  C   UNL     1      77.456  84.355  63.839  1.00  0.00     0.278 C 
ENDBRANCH   9  14
BRANCH  10  16
ATOM     16  O   UNL     1      78.850  83.453  67.097  1.00  0.00    -0.504 OA
ATOM     17  H   UNL     1      79.235  83.731  67.932  1.00  0.00     0.293 HD
ENDBRANCH  10  16
ENDBRANCH   7   8
ENDBRANCH   4   7
ENDBRANCH   2   3
ENDBRANCH   1   2
BRANCH   1  18
ATOM     18  C   UNL     1      73.513  88.308  70.877  1.00  0.00     0.001 C 
BRANCH  18  19
ATOM     19  C   UNL     1      74.898  87.615  70.922  1.00  0.00     0.004 C 
BRANCH  19  20
ATOM     20  C   UNL     1      75.937  88.369  70.046  1.00  0.00     0.027 C 
BRANCH  20  21
ATOM     21  C   UNL     1      76.233  87.705  68.788  1.00  0.00    -0.031 C 
ATOM     22  C   UNL     1      75.695  88.104  67.622  1.00  0.00    -0.028 C 
BRANCH  22  23
ATOM     23  C   UNL     1      75.975  87.462  66.340  1.00  0.00     0.005 C 
ATOM     24  C   UNL     1      75.286  88.240  65.187  1.00  0.00     0.012 C 
ATOM     25  C   UNL     1      77.508  87.331  66.129  1.00  0.00     0.012 C 
ENDBRANCH  22  23
ENDBRANCH  20  21
ENDBRANCH  19  20
ENDBRANCH  18  19
ENDBRANCH   1  18
TORSDOF 11
ENDMDL
MODEL 4
REMARK VINA RESULT:    -5.299     24.133     26.608
REMARK INTER + INTRA:         -10.108
REMARK INTER:                  -9.562
REMARK INTRA:                  -0.546
REMARK UNBOUND:                -1.557
REMARK SMILES COc1cc(CNC(=O)CCCCC/C=C/C(C)C)ccc1O
REMARK SMILES IDX 11 1 10 2 8 3 7 4 9 6 6 7 5 8 3 9 22 10 4 11 21 12 20 13
REMARK SMILES IDX 2 14 1 15 23 16 12 18 13 19 14 20 15 21 16 22 17 23 18 24
REMARK SMILES IDX 19 25
REMARK H PARENT 7 5 23 17
REMARK Flexibility Score: inf
ROOT
ATOM      1  C   UNL     1      96.742  83.870  85.043  1.00  0.00     0.010 C 
ENDROOT
BRANCH   1   2
ATOM      2  C   UNL     1      96.206  82.754  85.976  1.00  0.00     0.100 C 
BRANCH   2   3
ATOM      3  C   UNL     1      95.231  83.225  86.977  1.00  0.00     0.220 C 
ATOM      4  N   UNL     1      93.902  83.227  86.680  1.00  0.00    -0.352 N 
ATOM      5  H   UNL     1      93.681  82.961  85.730  1.00  0.00     0.163 HD
ATOM      6  O   UNL     1      95.656  83.578  88.102  1.00  0.00    -0.275 OA
BRANCH   4   7
ATOM      7  C   UNL     1      92.850  83.564  87.584  1.00  0.00     0.151 C 
BRANCH   7   8
ATOM      8  C   UNL     1      91.951  82.416  87.868  1.00  0.00    -0.025 A 
ATOM      9  C   UNL     1      89.738  81.351  87.733  1.00  0.00     0.160 A 
ATOM     10  C   UNL     1      90.227  80.245  88.461  1.00  0.00     0.157 A 
ATOM     11  C   UNL     1      90.600  82.430  87.450  1.00  0.00     0.056 A 
ATOM     12  C   UNL     1      91.573  80.212  88.868  1.00  0.00     0.050 A 
ATOM     13  C   UNL     1      92.432  81.284  88.564  1.00  0.00     0.009 A 
BRANCH   9  14
ATOM     14  O   UNL     1      88.454  81.354  87.257  1.00  0.00    -0.493 OA
ATOM     15  C   UNL     1      88.310  81.947  85.955  1.00  0.00     0.278 C 
ENDBRANCH   9  14
BRANCH  10  16
ATOM     16  O   UNL     1      89.423  79.199  88.779  1.00  0.00    -0.504 OA
ATOM     17  H   UNL     1      88.511  79.498  88.823  1.00  0.00     0.293 HD
ENDBRANCH  10  16
ENDBRANCH   7   8
ENDBRANCH   4   7
ENDBRANCH   2   3
ENDBRANCH   1   2
BRANCH   1  18
ATOM     18  C   UNL     1      97.852  83.330  84.105  1.00  0.00     0.001 C 
BRANCH  18  19
ATOM     19  C   UNL     1      97.497  83.428  82.599  1.00  0.00     0.004 C 
BRANCH  19  20
ATOM     20  C   UNL     1      98.676  82.948  81.707  1.00  0.00     0.027 C 
BRANCH  20  21
ATOM     21  C   UNL     1      98.462  83.172  80.287  1.00  0.00    -0.031 C 
ATOM     22  C   UNL     1      99.341  82.762  79.355  1.00  0.00    -0.028 C 
BRANCH  22  23
ATOM     23  C   UNL     1      99.153  82.966  77.921  1.00  0.00     0.005 C 
ATOM     24  C   UNL     1      98.055  84.034  77.669  1.00  0.00     0.012 C 
ATOM     25  C   UNL     1     100.503  83.338  77.250  1.00  0.00     0.012 C 
ENDBRANCH  22  23
ENDBRANCH  20  21
ENDBRANCH  19  20
ENDBRANCH  18  19
ENDBRANCH   1  18
TORSDOF 11
ENDMDL
MODEL 5
REMARK VINA RESULT:    -5.261     21.102     24.393
REMARK INTER + INTRA:         -10.048
REMARK INTER:                  -9.263
REMARK INTRA:                  -0.785
REMARK UNBOUND:                -1.557
REMARK SMILES COc1cc(CNC(=O)CCCCC/C=C/C(C)C)ccc1O
REMARK SMILES IDX 11 1 10 2 8 3 7 4 9 6 6 7 5 8 3 9 22 10 4 11 21 12 20 13
REMARK SMILES IDX 2 14 1 15 23 16 12 18 13 19 14 20 15 21 16 22 17 23 18 24
REMARK SMILES IDX 19 25
REMARK H PARENT 7 5 23 17
REMARK Flexibility Score: inf
ROOT
ATOM      1  C   UNL     1      93.159 100.567  74.844  1.00  0.00     0.010 C 
ENDROOT
BRANCH   1   2
ATOM      2  C   UNL     1      92.703  99.087  74.777  1.00  0.00     0.100 C 
BRANCH   2   3
ATOM      3  C   UNL     1      93.733  98.122  75.204  1.00  0.00     0.220 C 
ATOM      4  N   UNL     1      93.428  97.169  76.128  1.00  0.00    -0.352 N 
ATOM      5  H   UNL     1      92.499  97.244  76.520  1.00  0.00     0.163 HD
ATOM      6  O   UNL     1      94.865  98.182  74.668  1.00  0.00    -0.275 OA
BRANCH   4   7
ATOM      7  C   UNL     1      94.296  96.120  76.556  1.00  0.00     0.151 C 
BRANCH   7   8
ATOM      8  C   UNL     1      94.795  96.320  77.941  1.00  0.00    -0.025 A 
ATOM      9  C   UNL     1      94.952  95.584  80.283  1.00  0.00     0.160 A 
ATOM     10  C   UNL     1      95.707  96.736  80.593  1.00  0.00     0.157 A 
ATOM     11  C   UNL     1      94.495  95.389  78.963  1.00  0.00     0.056 A 
ATOM     12  C   UNL     1      96.026  97.660  79.581  1.00  0.00     0.050 A 
ATOM     13  C   UNL     1      95.582  97.448  78.263  1.00  0.00     0.009 A 
BRANCH   9  14
ATOM     14  O   UNL     1      94.710  94.635  81.240  1.00  0.00    -0.493 OA
ATOM     15  C   UNL     1      94.854  93.282  80.777  1.00  0.00     0.278 C 
ENDBRANCH   9  14
BRANCH  10  16
ATOM     16  O   UNL     1      96.141  96.975  81.856  1.00  0.00    -0.504 OA
ATOM     17  H   UNL     1      95.385  97.100  82.436  1.00  0.00     0.293 HD
ENDBRANCH  10  16
ENDBRANCH   7   8
ENDBRANCH   4   7
ENDBRANCH   2   3
ENDBRANCH   1   2
BRANCH   1  18
ATOM     18  C   UNL     1      92.417 101.429  73.790  1.00  0.00     0.001 C 
BRANCH  18  19
ATOM     19  C   UNL     1      92.228 100.718  72.426  1.00  0.00     0.004 C 
BRANCH  19  20
ATOM     20  C   UNL     1      90.762 100.838  71.923  1.00  0.00     0.027 C 
BRANCH  20  21
ATOM     21  C   UNL     1      90.398  99.831  70.941  1.00  0.00    -0.031 C 
ATOM     22  C   UNL     1      89.337  99.020  71.102  1.00  0.00    -0.028 C 
BRANCH  22  23
ATOM     23  C   UNL     1      88.941  98.003  70.131  1.00  0.00     0.005 C 
ATOM     24  C   UNL     1      89.151  98.528  68.686  1.00  0.00     0.012 C 
ATOM     25  C   UNL     1      89.710  96.680  70.396  1.00  0.00     0.012 C 
ENDBRANCH  22  23
ENDBRANCH  20  21
ENDBRANCH  19  20
ENDBRANCH  18  19
ENDBRANCH   1  18
TORSDOF 11
ENDMDL
MODEL 6
REMARK VINA RESULT:    -5.177      2.955      7.199
REMARK INTER + INTRA:          -9.912
REMARK INTER:                  -9.180
REMARK INTRA:                  -0.732
REMARK UNBOUND:                -1.557
REMARK SMILES COc1cc(CNC(=O)CCCCC/C=C/C(C)C)ccc1O
REMARK SMILES IDX 11 1 10 2 8 3 7 4 9 6 6 7 5 8 3 9 22 10 4 11 21 12 20 13
REMARK SMILES IDX 2 14 1 15 23 16 12 18 13 19 14 20 15 21 16 22 17 23 18 24
REMARK SMILES IDX 19 25
REMARK H PARENT 7 5 23 17
REMARK Flexibility Score: inf
ROOT
ATOM      1  C   UNL     1      72.122  81.794  63.936  1.00  0.00     0.010 C 
ENDROOT
BRANCH   1   2
ATOM      2  C   UNL     1      73.357  80.990  64.419  1.00  0.00     0.100 C 
BRANCH   2   3
ATOM      3  C   UNL     1      74.648  81.548  63.976  1.00  0.00     0.220 C 
ATOM      4  N   UNL     1      75.187  82.612  64.632  1.00  0.00    -0.352 N 
ATOM      5  H   UNL     1      74.602  83.000  65.360  1.00  0.00     0.163 HD
ATOM      6  O   UNL     1      75.240  80.994  63.020  1.00  0.00    -0.275 OA
BRANCH   4   7
ATOM      7  C   UNL     1      76.467  83.187  64.371  1.00  0.00     0.151 C 
BRANCH   7   8
ATOM      8  C   UNL     1      77.049  83.854  65.564  1.00  0.00    -0.025 A 
ATOM      9  C   UNL     1      77.656  85.903  66.782  1.00  0.00     0.160 A 
ATOM     10  C   UNL     1      78.209  85.121  67.820  1.00  0.00     0.157 A 
ATOM     11  C   UNL     1      77.089  85.265  65.660  1.00  0.00     0.056 A 
ATOM     12  C   UNL     1      78.159  83.717  67.743  1.00  0.00     0.050 A 
ATOM     13  C   UNL     1      77.574  83.088  66.629  1.00  0.00     0.009 A 
BRANCH   9  14
ATOM     14  O   UNL     1      77.621  87.268  66.887  1.00  0.00    -0.493 OA
ATOM     15  C   UNL     1      76.352  87.792  67.314  1.00  0.00     0.278 C 
ENDBRANCH   9  14
BRANCH  10  16
ATOM     16  O   UNL     1      78.789  85.696  68.903  1.00  0.00    -0.504 OA
ATOM     17  H   UNL     1      78.327  85.419  69.698  1.00  0.00     0.293 HD
ENDBRANCH  10  16
ENDBRANCH   7   8
ENDBRANCH   4   7
ENDBRANCH   2   3
ENDBRANCH   1   2
BRANCH   1  18
ATOM     18  C   UNL     1      71.607  82.747  65.044  1.00  0.00     0.001 C 
BRANCH  18  19
ATOM     19  C   UNL     1      71.344  82.044  66.399  1.00  0.00     0.004 C 
BRANCH  19  20
ATOM     20  C   UNL     1      70.174  82.716  67.170  1.00  0.00     0.027 C 
BRANCH  20  21
ATOM     21  C   UNL     1      70.605  83.519  68.301  1.00  0.00    -0.031 C 
ATOM     22  C   UNL     1      69.992  83.464  69.497  1.00  0.00    -0.028 C 
BRANCH  22  23
ATOM     23  C   UNL     1      70.404  84.254  70.655  1.00  0.00     0.005 C 
ATOM     24  C   UNL     1      70.816  85.683  70.213  1.00  0.00     0.012 C 
ATOM     25  C   UNL     1      69.276  84.269  71.723  1.00  0.00     0.012 C 
ENDBRANCH  22  23
ENDBRANCH  20  21
ENDBRANCH  19  20
ENDBRANCH  18  19
ENDBRANCH   1  18
TORSDOF 11
ENDMDL
MODEL 7
REMARK VINA RESULT:    -5.169      3.053      5.260
REMARK INTER + INTRA:          -9.898
REMARK INTER:                  -7.693
REMARK INTRA:                  -2.205
REMARK UNBOUND:                -1.557
REMARK SMILES COc1cc(CNC(=O)CCCCC/C=C/C(C)C)ccc1O
REMARK SMILES IDX 11 1 10 2 8 3 7 4 9 6 6 7 5 8 3 9 22 10 4 11 21 12 20 13
REMARK SMILES IDX 2 14 1 15 23 16 12 18 13 19 14 20 15 21 16 22 17 23 18 24
REMARK SMILES IDX 19 25
REMARK H PARENT 7 5 23 17
REMARK Flexibility Score: inf
ROOT
ATOM      1  C   UNL     1      71.236  88.069  71.560  1.00  0.00     0.010 C 
ENDROOT
BRANCH   1   2
ATOM      2  C   UNL     1      71.023  87.698  70.070  1.00  0.00     0.100 C 
BRANCH   2   3
ATOM      3  C   UNL     1      71.570  86.382  69.694  1.00  0.00     0.220 C 
ATOM      4  N   UNL     1      72.632  86.306  68.845  1.00  0.00    -0.352 N 
ATOM      5  H   UNL     1      72.932  87.193  68.464  1.00  0.00     0.163 HD
ATOM      6  O   UNL     1      71.061  85.357  70.206  1.00  0.00    -0.275 OA
BRANCH   4   7
ATOM      7  C   UNL     1      73.317  85.110  68.477  1.00  0.00     0.151 C 
BRANCH   7   8
ATOM      8  C   UNL     1      74.792  85.232  68.606  1.00  0.00    -0.025 A 
ATOM      9  C   UNL     1      77.053  84.866  67.708  1.00  0.00     0.160 A 
ATOM     10  C   UNL     1      77.608  85.421  68.881  1.00  0.00     0.157 A 
ATOM     11  C   UNL     1      75.652  84.767  67.583  1.00  0.00     0.056 A 
ATOM     12  C   UNL     1      76.762  85.903  69.898  1.00  0.00     0.050 A 
ATOM     13  C   UNL     1      75.365  85.819  69.757  1.00  0.00     0.009 A 
BRANCH   9  14
ATOM     14  O   UNL     1      77.864  84.475  66.676  1.00  0.00    -0.493 OA
ATOM     15  C   UNL     1      77.373  83.342  65.940  1.00  0.00     0.278 C 
ENDBRANCH   9  14
BRANCH  10  16
ATOM     16  O   UNL     1      78.951  85.508  69.053  1.00  0.00    -0.504 OA
ATOM     17  H   UNL     1      79.240  84.822  69.660  1.00  0.00     0.293 HD
ENDBRANCH  10  16
ENDBRANCH   7   8
ENDBRANCH   4   7
ENDBRANCH   2   3
ENDBRANCH   1   2
BRANCH   1  18
ATOM     18  C   UNL     1      72.377  89.105  71.721  1.00  0.00     0.001 C 
BRANCH  18  19
ATOM     19  C   UNL     1      73.794  88.509  71.523  1.00  0.00     0.004 C 
BRANCH  19  20
ATOM     20  C   UNL     1      74.839  89.618  71.219  1.00  0.00     0.027 C 
BRANCH  20  21
ATOM     21  C   UNL     1      75.273  89.647  69.832  1.00  0.00    -0.031 C 
ATOM     22  C   UNL     1      74.464  89.291  68.818  1.00  0.00    -0.028 C 
BRANCH  22  23
ATOM     23  C   UNL     1      74.868  89.315  67.415  1.00  0.00     0.005 C 
ATOM     24  C   UNL     1      75.059  90.778  66.935  1.00  0.00     0.012 C 
ATOM     25  C   UNL     1      76.144  88.455  67.209  1.00  0.00     0.012 C 
ENDBRANCH  22  23
ENDBRANCH  20  21
ENDBRANCH  19  20
ENDBRANCH  18  19
ENDBRANCH   1  18
TORSDOF 11
ENDMDL
MODEL 8
REMARK VINA RESULT:    -5.141     10.829     13.548
REMARK INTER + INTRA:          -9.853
REMARK INTER:                  -7.576
REMARK INTRA:                  -2.277
REMARK UNBOUND:                -1.557
REMARK SMILES COc1cc(CNC(=O)CCCCC/C=C/C(C)C)ccc1O
REMARK SMILES IDX 11 1 10 2 8 3 7 4 9 6 6 7 5 8 3 9 22 10 4 11 21 12 20 13
REMARK SMILES IDX 2 14 1 15 23 16 12 18 13 19 14 20 15 21 16 22 17 23 18 24
REMARK SMILES IDX 19 25
REMARK H PARENT 7 5 23 17
REMARK Flexibility Score: inf
ROOT
ATOM      1  C   UNL     1      62.856  84.129  74.407  1.00  0.00     0.010 C 
ENDROOT
BRANCH   1   2
ATOM      2  C   UNL     1      61.434  83.621  74.053  1.00  0.00     0.100 C 
BRANCH   2   3
ATOM      3  C   UNL     1      60.880  84.201  72.816  1.00  0.00     0.220 C 
ATOM      4  N   UNL     1      61.620  84.191  71.672  1.00  0.00    -0.352 N 
ATOM      5  H   UNL     1      62.561  83.837  71.782  1.00  0.00     0.163 HD
ATOM      6  O   UNL     1      59.712  84.656  72.841  1.00  0.00    -0.275 OA
BRANCH   4   7
ATOM      7  C   UNL     1      61.172  84.628  70.390  1.00  0.00     0.151 C 
BRANCH   7   8
ATOM      8  C   UNL     1      62.207  84.467  69.337  1.00  0.00    -0.025 A 
ATOM      9  C   UNL     1      63.861  85.443  67.800  1.00  0.00     0.160 A 
ATOM     10  C   UNL     1      64.143  84.158  67.289  1.00  0.00     0.157 A 
ATOM     11  C   UNL     1      62.891  85.589  68.812  1.00  0.00     0.056 A 
ATOM     12  C   UNL     1      63.482  83.033  67.815  1.00  0.00     0.050 A 
ATOM     13  C   UNL     1      62.529  83.185  68.839  1.00  0.00     0.009 A 
BRANCH   9  14
ATOM     14  O   UNL     1      64.561  86.534  67.357  1.00  0.00    -0.493 OA
ATOM     15  C   UNL     1      64.633  87.611  68.305  1.00  0.00     0.278 C 
ENDBRANCH   9  14
BRANCH  10  16
ATOM     16  O   UNL     1      65.049  83.977  66.295  1.00  0.00    -0.504 OA
ATOM     17  H   UNL     1      64.652  83.460  65.590  1.00  0.00     0.293 HD
ENDBRANCH  10  16
ENDBRANCH   7   8
ENDBRANCH   4   7
ENDBRANCH   2   3
ENDBRANCH   1   2
BRANCH   1  18
ATOM     18  C   UNL     1      63.881  82.966  74.405  1.00  0.00     0.001 C 
BRANCH  18  19
ATOM     19  C   UNL     1      63.318  81.639  73.836  1.00  0.00     0.004 C 
BRANCH  19  20
ATOM     20  C   UNL     1      63.956  81.295  72.462  1.00  0.00     0.027 C 
BRANCH  20  21
ATOM     21  C   UNL     1      64.711  82.390  71.877  1.00  0.00    -0.031 C 
ATOM     22  C   UNL     1      65.546  82.213  70.838  1.00  0.00    -0.028 C 
BRANCH  22  23
ATOM     23  C   UNL     1      66.314  83.294  70.224  1.00  0.00     0.005 C 
ATOM     24  C   UNL     1      65.871  84.664  70.802  1.00  0.00     0.012 C 
ATOM     25  C   UNL     1      67.835  83.041  70.407  1.00  0.00     0.012 C 
ENDBRANCH  22  23
ENDBRANCH  20  21
ENDBRANCH  19  20
ENDBRANCH  18  19
ENDBRANCH   1  18
TORSDOF 11
ENDMDL
MODEL 9
REMARK VINA RESULT:    -5.088      3.176      5.317
REMARK INTER + INTRA:          -9.768
REMARK INTER:                  -7.769
REMARK INTRA:                  -2.000
REMARK UNBOUND:                -1.557
REMARK SMILES COc1cc(CNC(=O)CCCCC/C=C/C(C)C)ccc1O
REMARK SMILES IDX 11 1 10 2 8 3 7 4 9 6 6 7 5 8 3 9 22 10 4 11 21 12 20 13
REMARK SMILES IDX 2 14 1 15 23 16 12 18 13 19 14 20 15 21 16 22 17 23 18 24
REMARK SMILES IDX 19 25
REMARK H PARENT 7 5 23 17
REMARK Flexibility Score: inf
ROOT
ATOM      1  C   UNL     1      74.509  91.741  68.995  1.00  0.00     0.010 C 
ENDROOT
BRANCH   1   2
ATOM      2  C   UNL     1      73.684  90.781  68.098  1.00  0.00     0.100 C 
BRANCH   2   3
ATOM      3  C   UNL     1      74.461  90.164  67.006  1.00  0.00     0.220 C 
ATOM      4  N   UNL     1      74.948  88.901  67.151  1.00  0.00    -0.352 N 
ATOM      5  H   UNL     1      74.794  88.492  68.062  1.00  0.00     0.163 HD
ATOM      6  O   UNL     1      74.618  90.815  65.946  1.00  0.00    -0.275 OA
BRANCH   4   7
ATOM      7  C   UNL     1      75.628  88.154  66.144  1.00  0.00     0.151 C 
BRANCH   7   8
ATOM      8  C   UNL     1      75.509  86.686  66.342  1.00  0.00    -0.025 A 
ATOM      9  C   UNL     1      76.471  84.427  66.204  1.00  0.00     0.160 A 
ATOM     10  C   UNL     1      75.255  83.881  66.673  1.00  0.00     0.157 A 
ATOM     11  C   UNL     1      76.585  85.821  66.034  1.00  0.00     0.056 A 
ATOM     12  C   UNL     1      74.184  84.733  66.998  1.00  0.00     0.050 A 
ATOM     13  C   UNL     1      74.313  86.126  66.844  1.00  0.00     0.009 A 
BRANCH   9  14
ATOM     14  O   UNL     1      77.548  83.615  65.968  1.00  0.00    -0.493 OA
ATOM     15  C   UNL     1      78.479  83.540  67.061  1.00  0.00     0.278 C 
ENDBRANCH   9  14
BRANCH  10  16
ATOM     16  O   UNL     1      75.095  82.543  66.823  1.00  0.00    -0.504 OA
ATOM     17  H   UNL     1      74.854  82.350  67.732  1.00  0.00     0.293 HD
ENDBRANCH  10  16
ENDBRANCH   7   8
ENDBRANCH   4   7
ENDBRANCH   2   3
ENDBRANCH   1   2
BRANCH   1  18
ATOM     18  C   UNL     1      74.468  91.293  70.478  1.00  0.00     0.001 C 
BRANCH  18  19
ATOM     19  C   UNL     1      75.491  90.181  70.822  1.00  0.00     0.004 C 
BRANCH  19  20
ATOM     20  C   UNL     1      74.833  88.773  70.782  1.00  0.00     0.027 C 
BRANCH  20  21
ATOM     21  C   UNL     1      75.727  87.723  70.323  1.00  0.00    -0.031 C 
ATOM     22  C   UNL     1      75.429  86.418  70.453  1.00  0.00    -0.028 C 
BRANCH  22  23
ATOM     23  C   UNL     1      76.303  85.340  69.997  1.00  0.00     0.005 C 
ATOM     24  C   UNL     1      77.731  85.883  69.724  1.00  0.00     0.012 C 
ATOM     25  C   UNL     1      76.302  84.177  71.027  1.00  0.00     0.012 C 
ENDBRANCH  22  23
ENDBRANCH  20  21
ENDBRANCH  19  20
ENDBRANCH  18  19
ENDBRANCH   1  18
TORSDOF 11
ENDMDL
MODEL 10
REMARK VINA RESULT:    -5.010     20.756     24.035
REMARK INTER + INTRA:          -9.642
REMARK INTER:                  -8.813
REMARK INTRA:                  -0.829
REMARK UNBOUND:                -1.557
REMARK SMILES COc1cc(CNC(=O)CCCCC/C=C/C(C)C)ccc1O
REMARK SMILES IDX 11 1 10 2 8 3 7 4 9 6 6 7 5 8 3 9 22 10 4 11 21 12 20 13
REMARK SMILES IDX 2 14 1 15 23 16 12 18 13 19 14 20 15 21 16 22 17 23 18 24
REMARK SMILES IDX 19 25
REMARK H PARENT 7 5 23 17
REMARK Flexibility Score: inf
ROOT
ATOM      1  C   UNL     1      94.255  96.804  76.087  1.00  0.00     0.010 C 
ENDROOT
BRANCH   1   2
ATOM      2  C   UNL     1      93.124  97.802  75.730  1.00  0.00     0.100 C 
BRANCH   2   3
ATOM      3  C   UNL     1      93.468  98.735  74.640  1.00  0.00     0.220 C 
ATOM      4  N   UNL     1      92.507  99.541  74.110  1.00  0.00    -0.352 N 
ATOM      5  H   UNL     1      91.576  99.381  74.470  1.00  0.00     0.163 HD
ATOM      6  O   UNL     1      94.660  98.788  74.256  1.00  0.00    -0.275 OA
BRANCH   4   7
ATOM      7  C   UNL     1      92.723 100.551  73.125  1.00  0.00     0.151 C 
BRANCH   7   8
ATOM      8  C   UNL     1      91.783 100.443  71.980  1.00  0.00    -0.025 A 
ATOM      9  C   UNL     1      89.970  99.264  70.808  1.00  0.00     0.160 A 
ATOM     10  C   UNL     1      90.029 100.213  69.764  1.00  0.00     0.157 A 
ATOM     11  C   UNL     1      90.851  99.381  71.901  1.00  0.00     0.056 A 
ATOM     12  C   UNL     1      90.939 101.283  69.839  1.00  0.00     0.050 A 
ATOM     13  C   UNL     1      91.803 101.403  70.944  1.00  0.00     0.009 A 
BRANCH   9  14
ATOM     14  O   UNL     1      89.028  98.270  70.787  1.00  0.00    -0.493 OA
ATOM     15  C   UNL     1      89.549  96.974  70.445  1.00  0.00     0.278 C 
ENDBRANCH   9  14
BRANCH  10  16
ATOM     16  O   UNL     1      89.218 100.121  68.680  1.00  0.00    -0.504 OA
ATOM     17  H   UNL     1      89.355  99.274  68.250  1.00  0.00     0.293 HD
ENDBRANCH  10  16
ENDBRANCH   7   8
ENDBRANCH   4   7
ENDBRANCH   2   3
ENDBRANCH   1   2
BRANCH   1  18
ATOM     18  C   UNL     1      93.684  95.397  76.396  1.00  0.00     0.001 C 
BRANCH  18  19
ATOM     19  C   UNL     1      92.720  95.368  77.609  1.00  0.00     0.004 C 
BRANCH  19  20
ATOM     20  C   UNL     1      93.360  94.643  78.825  1.00  0.00     0.027 C 
BRANCH  20  21
ATOM     21  C   UNL     1      94.005  95.541  79.768  1.00  0.00    -0.031 C 
ATOM     22  C   UNL     1      95.309  95.439  80.082  1.00  0.00    -0.028 C 
BRANCH  22  23
ATOM     23  C   UNL     1      95.987  96.329  81.021  1.00  0.00     0.005 C 
ATOM     24  C   UNL     1      94.953  97.026  81.944  1.00  0.00     0.012 C 
ATOM     25  C   UNL     1      97.061  95.544  81.824  1.00  0.00     0.012 C 
ENDBRANCH  22  23
ENDBRANCH  20  21
ENDBRANCH  19  20
ENDBRANCH  18  19
ENDBRANCH   1  18
TORSDOF 11
ENDMDL
