MODEL 1
REMARK VINA RESULT:    -5.726      0.000      0.000
REMARK INTER + INTRA:         -10.089
REMARK INTER:                  -9.241
REMARK INTRA:                  -0.849
REMARK UNBOUND:                -0.849
REMARK SMILES CCCCCCCCC(=O)NCc1ccc(O)c(OC)c1
REMARK SMILES IDX 7 1 6 2 5 3 4 4 3 5 2 6 1 7 8 8 9 9 10 10 11 11 12 13 13 14
REMARK SMILES IDX 21 15 14 16 18 17 15 18 16 19 19 20 20 21 17 22
REMARK H PARENT 11 12 17 23
REMARK Flexibility Score: inf
ROOT
ATOM      1  C   UNL     1      94.121  99.231  75.745  1.00  0.00     0.010 C 
ENDROOT
BRANCH   1   2
ATOM      2  C   UNL     1      95.058  97.992  75.648  1.00  0.00     0.001 C 
BRANCH   2   3
ATOM      3  C   UNL     1      94.283  96.653  75.821  1.00  0.00     0.000 C 
BRANCH   3   4
ATOM      4  C   UNL     1      94.405  96.037  77.243  1.00  0.00    -0.000 C 
BRANCH   4   5
ATOM      5  C   UNL     1      93.022  95.769  77.902  1.00  0.00    -0.000 C 
BRANCH   5   6
ATOM      6  C   UNL     1      91.842  95.970  76.913  1.00  0.00    -0.003 C 
ATOM      7  C   UNL     1      90.476  96.087  77.624  1.00  0.00     0.004 C 
ENDBRANCH   5   6
ENDBRANCH   4   5
ENDBRANCH   3   4
ENDBRANCH   2   3
ENDBRANCH   1   2
BRANCH   1   8
ATOM      8  C   UNL     1      92.778  99.066  74.980  1.00  0.00     0.100 C 
BRANCH   8   9
ATOM      9  C   UNL     1      92.857  99.648  73.619  1.00  0.00     0.220 C 
ATOM     10  O   UNL     1      93.987  99.956  73.168  1.00  0.00    -0.275 OA
ATOM     11  N   UNL     1      91.728  99.816  72.869  1.00  0.00    -0.352 N 
ATOM     12  H   UNL     1      90.869  99.618  73.359  1.00  0.00     0.163 HD
BRANCH  11  13
ATOM     13  C   UNL     1      91.688 100.232  71.501  1.00  0.00     0.151 C 
BRANCH  13  14
ATOM     14  C   UNL     1      90.653  99.536  70.691  1.00  0.00    -0.025 A 
ATOM     15  C   UNL     1      90.028 100.202  69.609  1.00  0.00     0.056 A 
ATOM     16  C   UNL     1      90.273  98.207  70.985  1.00  0.00     0.009 A 
ATOM     17  C   UNL     1      89.055  99.547  68.819  1.00  0.00     0.160 A 
ATOM     18  C   UNL     1      89.306  97.549  70.203  1.00  0.00     0.050 A 
ATOM     19  C   UNL     1      88.691  98.217  69.126  1.00  0.00     0.157 A 
BRANCH  17  20
ATOM     20  O   UNL     1      88.420 100.208  67.798  1.00  0.00    -0.493 OA
ATOM     21  C   UNL     1      88.710 101.615  67.737  1.00  0.00     0.278 C 
ENDBRANCH  17  20
BRANCH  19  22
ATOM     22  O   UNL     1      87.739  97.583  68.394  1.00  0.00    -0.504 OA
ATOM     23  H   UNL     1      87.748  96.645  68.601  1.00  0.00     0.293 HD
ENDBRANCH  19  22
ENDBRANCH  13  14
ENDBRANCH  11  13
ENDBRANCH   8   9
ENDBRANCH   1   8
TORSDOF 11
ENDMDL
MODEL 2
REMARK VINA RESULT:    -5.364     19.879     22.952
REMARK INTER + INTRA:          -9.504
REMARK INTER:                  -8.695
REMARK INTRA:                  -0.809
REMARK UNBOUND:                -0.849
REMARK SMILES CCCCCCCCC(=O)NCc1ccc(O)c(OC)c1
REMARK SMILES IDX 7 1 6 2 5 3 4 4 3 5 2 6 1 7 8 8 9 9 10 10 11 11 12 13 13 14
REMARK SMILES IDX 21 15 14 16 18 17 15 18 16 19 19 20 20 21 17 22
REMARK H PARENT 11 12 17 23
REMARK Flexibility Score: inf
ROOT
ATOM      1  C   UNL     1      76.999  83.399  66.220  1.00  0.00     0.010 C 
ENDROOT
BRANCH   1   2
ATOM      2  C   UNL     1      76.884  81.902  65.809  1.00  0.00     0.001 C 
BRANCH   2   3
ATOM      3  C   UNL     1      75.485  81.305  66.142  1.00  0.00     0.000 C 
BRANCH   3   4
ATOM      4  C   UNL     1      74.514  81.268  64.927  1.00  0.00    -0.000 C 
BRANCH   4   5
ATOM      5  C   UNL     1      73.026  81.437  65.344  1.00  0.00    -0.000 C 
BRANCH   5   6
ATOM      6  C   UNL     1      72.050  80.722  64.371  1.00  0.00    -0.003 C 
ATOM      7  C   UNL     1      72.778  79.853  63.322  1.00  0.00     0.004 C 
ENDBRANCH   5   6
ENDBRANCH   4   5
ENDBRANCH   3   4
ENDBRANCH   2   3
ENDBRANCH   1   2
BRANCH   1   8
ATOM      8  C   UNL     1      78.314  83.747  66.970  1.00  0.00     0.100 C 
BRANCH   8   9
ATOM      9  C   UNL     1      78.038  84.449  68.246  1.00  0.00     0.220 C 
ATOM     10  O   UNL     1      78.716  85.468  68.523  1.00  0.00    -0.275 OA
ATOM     11  N   UNL     1      77.051  84.010  69.081  1.00  0.00    -0.352 N 
ATOM     12  H   UNL     1      76.629  83.135  68.804  1.00  0.00     0.163 HD
BRANCH  11  13
ATOM     13  C   UNL     1      76.597  84.678  70.262  1.00  0.00     0.151 C 
BRANCH  13  14
ATOM     14  C   UNL     1      75.586  85.738  70.003  1.00  0.00    -0.025 A 
ATOM     15  C   UNL     1      74.322  85.400  69.462  1.00  0.00     0.056 A 
ATOM     16  C   UNL     1      75.866  87.094  70.286  1.00  0.00     0.009 A 
ATOM     17  C   UNL     1      73.345  86.394  69.226  1.00  0.00     0.160 A 
ATOM     18  C   UNL     1      74.899  88.088  70.054  1.00  0.00     0.050 A 
ATOM     19  C   UNL     1      73.642  87.744  69.519  1.00  0.00     0.157 A 
BRANCH  17  20
ATOM     20  O   UNL     1      72.137  86.070  68.662  1.00  0.00    -0.493 OA
ATOM     21  C   UNL     1      72.216  85.690  67.277  1.00  0.00     0.278 C 
ENDBRANCH  17  20
BRANCH  19  22
ATOM     22  O   UNL     1      72.725  88.714  69.273  1.00  0.00    -0.504 OA
ATOM     23  H   UNL     1      73.046  89.552  69.615  1.00  0.00     0.293 HD
ENDBRANCH  19  22
ENDBRANCH  13  14
ENDBRANCH  11  13
ENDBRANCH   8   9
ENDBRANCH   1   8
TORSDOF 11
ENDMDL
MODEL 3
REMARK VINA RESULT:    -5.313     20.176     21.666
REMARK INTER + INTRA:          -9.423
REMARK INTER:                  -8.466
REMARK INTRA:                  -0.957
REMARK UNBOUND:                -0.849
REMARK SMILES CCCCCCCCC(=O)NCc1ccc(O)c(OC)c1
REMARK SMILES IDX 7 1 6 2 5 3 4 4 3 5 2 6 1 7 8 8 9 9 10 10 11 11 12 13 13 14
REMARK SMILES IDX 21 15 14 16 18 17 15 18 16 19 19 20 20 21 17 22
REMARK H PARENT 11 12 17 23
REMARK Flexibility Score: inf
ROOT
ATOM      1  C   UNL     1      94.289  85.712  90.104  1.00  0.00     0.010 C 
ENDROOT
BRANCH   1   2
ATOM      2  C   UNL     1      94.837  86.369  88.805  1.00  0.00     0.001 C 
BRANCH   2   3
ATOM      3  C   UNL     1      94.568  85.496  87.544  1.00  0.00     0.000 C 
BRANCH   3   4
ATOM      4  C   UNL     1      95.823  84.734  87.030  1.00  0.00    -0.000 C 
BRANCH   4   5
ATOM      5  C   UNL     1      96.393  85.336  85.714  1.00  0.00    -0.000 C 
BRANCH   5   6
ATOM      6  C   UNL     1      97.654  84.584  85.212  1.00  0.00    -0.003 C 
ATOM      7  C   UNL     1      97.343  83.578  84.082  1.00  0.00     0.004 C 
ENDBRANCH   5   6
ENDBRANCH   4   5
ENDBRANCH   3   4
ENDBRANCH   2   3
ENDBRANCH   1   2
BRANCH   1   8
ATOM      8  C   UNL     1      93.142  86.514  90.780  1.00  0.00     0.100 C 
BRANCH   8   9
ATOM      9  C   UNL     1      91.834  85.838  90.605  1.00  0.00     0.220 C 
ATOM     10  O   UNL     1      90.793  86.464  90.919  1.00  0.00    -0.275 OA
ATOM     11  N   UNL     1      91.769  84.576  90.088  1.00  0.00    -0.352 N 
ATOM     12  H   UNL     1      92.666  84.133  89.952  1.00  0.00     0.163 HD
BRANCH  11  13
ATOM     13  C   UNL     1      90.570  83.875  89.741  1.00  0.00     0.151 C 
BRANCH  13  14
ATOM     14  C   UNL     1      90.700  83.027  88.526  1.00  0.00    -0.025 A 
ATOM     15  C   UNL     1      89.546  82.487  87.908  1.00  0.00     0.056 A 
ATOM     16  C   UNL     1      91.968  82.741  87.971  1.00  0.00     0.009 A 
ATOM     17  C   UNL     1      89.652  81.694  86.743  1.00  0.00     0.160 A 
ATOM     18  C   UNL     1      92.080  81.953  86.812  1.00  0.00     0.050 A 
ATOM     19  C   UNL     1      90.929  81.422  86.200  1.00  0.00     0.157 A 
BRANCH  17  20
ATOM     20  O   UNL     1      88.537  81.137  86.169  1.00  0.00    -0.493 OA
ATOM     21  C   UNL     1      87.753  82.058  85.391  1.00  0.00     0.278 C 
ENDBRANCH  17  20
BRANCH  19  22
ATOM     22  O   UNL     1      91.049  80.640  85.097  1.00  0.00    -0.504 OA
ATOM     23  H   UNL     1      91.620  81.074  84.458  1.00  0.00     0.293 HD
ENDBRANCH  19  22
ENDBRANCH  13  14
ENDBRANCH  11  13
ENDBRANCH   8   9
ENDBRANCH   1   8
TORSDOF 11
ENDMDL
MODEL 4
REMARK VINA RESULT:    -5.297     30.695     32.958
REMARK INTER + INTRA:          -9.397
REMARK INTER:                  -7.564
REMARK INTRA:                  -1.833
REMARK UNBOUND:                -0.849
REMARK SMILES CCCCCCCCC(=O)NCc1ccc(O)c(OC)c1
REMARK SMILES IDX 7 1 6 2 5 3 4 4 3 5 2 6 1 7 8 8 9 9 10 10 11 11 12 13 13 14
REMARK SMILES IDX 21 15 14 16 18 17 15 18 16 19 19 20 20 21 17 22
REMARK H PARENT 11 12 17 23
REMARK Flexibility Score: inf
ROOT
ATOM      1  C   UNL     1      61.106  84.168  69.684  1.00  0.00     0.010 C 
ENDROOT
BRANCH   1   2
ATOM      2  C   UNL     1      62.633  84.268  69.406  1.00  0.00     0.001 C 
BRANCH   2   3
ATOM      3  C   UNL     1      63.485  83.856  70.643  1.00  0.00     0.000 C 
BRANCH   3   4
ATOM      4  C   UNL     1      63.060  82.499  71.273  1.00  0.00    -0.000 C 
BRANCH   4   5
ATOM      5  C   UNL     1      64.212  81.818  72.066  1.00  0.00    -0.000 C 
BRANCH   5   6
ATOM      6  C   UNL     1      63.717  81.146  73.375  1.00  0.00    -0.003 C 
ATOM      7  C   UNL     1      62.219  81.402  73.653  1.00  0.00     0.004 C 
ENDBRANCH   5   6
ENDBRANCH   4   5
ENDBRANCH   3   4
ENDBRANCH   2   3
ENDBRANCH   1   2
BRANCH   1   8
ATOM      8  C   UNL     1      60.516  85.405  70.417  1.00  0.00     0.100 C 
BRANCH   8   9
ATOM      9  C   UNL     1      60.216  85.100  71.836  1.00  0.00     0.220 C 
ATOM     10  O   UNL     1      59.267  84.320  72.089  1.00  0.00    -0.275 OA
ATOM     11  N   UNL     1      60.976  85.634  72.837  1.00  0.00    -0.352 N 
ATOM     12  H   UNL     1      61.655  86.314  72.528  1.00  0.00     0.163 HD
BRANCH  11  13
ATOM     13  C   UNL     1      60.878  85.308  74.227  1.00  0.00     0.151 C 
BRANCH  13  14
ATOM     14  C   UNL     1      62.174  84.925  74.848  1.00  0.00    -0.025 A 
ATOM     15  C   UNL     1      62.224  84.535  76.207  1.00  0.00     0.056 A 
ATOM     16  C   UNL     1      63.373  84.946  74.099  1.00  0.00     0.009 A 
ATOM     17  C   UNL     1      63.446  84.151  76.807  1.00  0.00     0.160 A 
ATOM     18  C   UNL     1      64.591  84.564  74.688  1.00  0.00     0.050 A 
ATOM     19  C   UNL     1      64.634  84.175  76.041  1.00  0.00     0.157 A 
BRANCH  17  20
ATOM     20  O   UNL     1      63.500  83.814  78.136  1.00  0.00    -0.493 OA
ATOM     21  C   UNL     1      62.663  84.622  78.982  1.00  0.00     0.278 C 
ENDBRANCH  17  20
BRANCH  19  22
ATOM     22  O   UNL     1      65.819  83.835  76.609  1.00  0.00    -0.504 OA
ATOM     23  H   UNL     1      65.682  83.630  77.537  1.00  0.00     0.293 HD
ENDBRANCH  19  22
ENDBRANCH  13  14
ENDBRANCH  11  13
ENDBRANCH   8   9
ENDBRANCH   1   8
TORSDOF 11
ENDMDL
MODEL 5
REMARK VINA RESULT:    -5.228     16.547     19.251
REMARK INTER + INTRA:          -9.285
REMARK INTER:                  -8.678
REMARK INTRA:                  -0.607
REMARK UNBOUND:                -0.849
REMARK SMILES CCCCCCCCC(=O)NCc1ccc(O)c(OC)c1
REMARK SMILES IDX 7 1 6 2 5 3 4 4 3 5 2 6 1 7 8 8 9 9 10 10 11 11 12 13 13 14
REMARK SMILES IDX 21 15 14 16 18 17 15 18 16 19 19 20 20 21 17 22
REMARK H PARENT 11 12 17 23
REMARK Flexibility Score: inf
ROOT
ATOM      1  C   UNL     1      74.856  91.300  71.726  1.00  0.00     0.010 C 
ENDROOT
BRANCH   1   2
ATOM      2  C   UNL     1      75.622  92.529  72.293  1.00  0.00     0.001 C 
BRANCH   2   3
ATOM      3  C   UNL     1      77.137  92.495  71.936  1.00  0.00     0.000 C 
BRANCH   3   4
ATOM      4  C   UNL     1      78.070  92.870  73.122  1.00  0.00    -0.000 C 
BRANCH   4   5
ATOM      5  C   UNL     1      77.331  93.659  74.240  1.00  0.00    -0.000 C 
BRANCH   5   6
ATOM      6  C   UNL     1      77.638  93.110  75.659  1.00  0.00    -0.003 C 
ATOM      7  C   UNL     1      77.571  94.200  76.752  1.00  0.00     0.004 C 
ENDBRANCH   5   6
ENDBRANCH   4   5
ENDBRANCH   3   4
ENDBRANCH   2   3
ENDBRANCH   1   2
BRANCH   1   8
ATOM      8  C   UNL     1      75.721  90.384  70.815  1.00  0.00     0.100 C 
BRANCH   8   9
ATOM      9  C   UNL     1      75.002  89.135  70.467  1.00  0.00     0.220 C 
ATOM     10  O   UNL     1      73.813  89.222  70.076  1.00  0.00    -0.275 OA
ATOM     11  N   UNL     1      75.633  87.926  70.545  1.00  0.00    -0.352 N 
ATOM     12  H   UNL     1      76.556  87.963  70.952  1.00  0.00     0.163 HD
BRANCH  11  13
ATOM     13  C   UNL     1      75.097  86.674  70.105  1.00  0.00     0.151 C 
BRANCH  13  14
ATOM     14  C   UNL     1      76.059  85.849  69.327  1.00  0.00    -0.025 A 
ATOM     15  C   UNL     1      75.612  84.702  68.628  1.00  0.00     0.056 A 
ATOM     16  C   UNL     1      77.431  86.189  69.273  1.00  0.00     0.009 A 
ATOM     17  C   UNL     1      76.512  83.918  67.870  1.00  0.00     0.160 A 
ATOM     18  C   UNL     1      78.331  85.413  68.520  1.00  0.00     0.050 A 
ATOM     19  C   UNL     1      77.878  84.275  67.825  1.00  0.00     0.157 A 
BRANCH  17  20
ATOM     20  O   UNL     1      76.084  82.783  67.229  1.00  0.00    -0.493 OA
ATOM     21  C   UNL     1      74.907  82.971  66.422  1.00  0.00     0.278 C 
ENDBRANCH  17  20
BRANCH  19  22
ATOM     22  O   UNL     1      78.759  83.517  67.123  1.00  0.00    -0.504 OA
ATOM     23  H   UNL     1      79.476  84.072  66.806  1.00  0.00     0.293 HD
ENDBRANCH  19  22
ENDBRANCH  13  14
ENDBRANCH  11  13
ENDBRANCH   8   9
ENDBRANCH   1   8
TORSDOF 11
ENDMDL
MODEL 6
REMARK VINA RESULT:    -5.138     17.793     20.675
REMARK INTER + INTRA:          -9.140
REMARK INTER:                  -8.249
REMARK INTRA:                  -0.891
REMARK UNBOUND:                -0.849
REMARK SMILES CCCCCCCCC(=O)NCc1ccc(O)c(OC)c1
REMARK SMILES IDX 7 1 6 2 5 3 4 4 3 5 2 6 1 7 8 8 9 9 10 10 11 11 12 13 13 14
REMARK SMILES IDX 21 15 14 16 18 17 15 18 16 19 19 20 20 21 17 22
REMARK H PARENT 11 12 17 23
REMARK Flexibility Score: inf
ROOT
ATOM      1  C   UNL     1      74.506  88.111  70.209  1.00  0.00     0.010 C 
ENDROOT
BRANCH   1   2
ATOM      2  C   UNL     1      73.875  88.525  71.570  1.00  0.00     0.001 C 
BRANCH   2   3
ATOM      3  C   UNL     1      73.240  89.946  71.515  1.00  0.00     0.000 C 
BRANCH   3   4
ATOM      4  C   UNL     1      74.052  91.026  72.285  1.00  0.00    -0.000 C 
BRANCH   4   5
ATOM      5  C   UNL     1      74.955  91.879  71.348  1.00  0.00    -0.000 C 
BRANCH   5   6
ATOM      6  C   UNL     1      76.465  91.718  71.668  1.00  0.00    -0.003 C 
ATOM      7  C   UNL     1      77.107  93.019  72.199  1.00  0.00     0.004 C 
ENDBRANCH   5   6
ENDBRANCH   4   5
ENDBRANCH   3   4
ENDBRANCH   2   3
ENDBRANCH   1   2
BRANCH   1   8
ATOM      8  C   UNL     1      76.040  88.352  70.128  1.00  0.00     0.100 C 
BRANCH   8   9
ATOM      9  C   UNL     1      76.765  87.105  69.785  1.00  0.00     0.220 C 
ATOM     10  O   UNL     1      77.918  87.201  69.301  1.00  0.00    -0.275 OA
ATOM     11  N   UNL     1      76.197  85.885  70.019  1.00  0.00    -0.352 N 
ATOM     12  H   UNL     1      75.236  85.924  70.327  1.00  0.00     0.163 HD
BRANCH  11  13
ATOM     13  C   UNL     1      76.844  84.618  69.864  1.00  0.00     0.151 C 
BRANCH  13  14
ATOM     14  C   UNL     1      76.889  84.133  68.459  1.00  0.00    -0.025 A 
ATOM     15  C   UNL     1      75.688  83.851  67.764  1.00  0.00     0.056 A 
ATOM     16  C   UNL     1      78.122  83.942  67.795  1.00  0.00     0.009 A 
ATOM     17  C   UNL     1      75.714  83.406  66.422  1.00  0.00     0.160 A 
ATOM     18  C   UNL     1      78.155  83.501  66.460  1.00  0.00     0.050 A 
ATOM     19  C   UNL     1      76.957  83.225  65.774  1.00  0.00     0.157 A 
BRANCH  17  20
ATOM     20  O   UNL     1      74.552  83.093  65.764  1.00  0.00    -0.493 OA
ATOM     21  C   UNL     1      73.357  83.358  66.521  1.00  0.00     0.278 C 
ENDBRANCH  17  20
BRANCH  19  22
ATOM     22  O   UNL     1      77.000  82.773  64.494  1.00  0.00    -0.504 OA
ATOM     23  H   UNL     1      76.178  82.322  64.286  1.00  0.00     0.293 HD
ENDBRANCH  19  22
ENDBRANCH  13  14
ENDBRANCH  11  13
ENDBRANCH   8   9
ENDBRANCH   1   8
TORSDOF 11
ENDMDL
MODEL 7
REMARK VINA RESULT:    -5.105     30.515     33.429
REMARK INTER + INTRA:          -9.087
REMARK INTER:                  -7.934
REMARK INTRA:                  -1.153
REMARK UNBOUND:                -0.849
REMARK SMILES CCCCCCCCC(=O)NCc1ccc(O)c(OC)c1
REMARK SMILES IDX 7 1 6 2 5 3 4 4 3 5 2 6 1 7 8 8 9 9 10 10 11 11 12 13 13 14
REMARK SMILES IDX 21 15 14 16 18 17 15 18 16 19 19 20 20 21 17 22
REMARK H PARENT 11 12 17 23
REMARK Flexibility Score: inf
ROOT
ATOM      1  C   UNL     1      62.696  84.404  69.072  1.00  0.00     0.010 C 
ENDROOT
BRANCH   1   2
ATOM      2  C   UNL     1      61.441  85.081  69.694  1.00  0.00     0.001 C 
BRANCH   2   3
ATOM      3  C   UNL     1      60.191  84.153  69.656  1.00  0.00     0.000 C 
BRANCH   3   4
ATOM      4  C   UNL     1      59.002  84.666  70.517  1.00  0.00    -0.000 C 
BRANCH   4   5
ATOM      5  C   UNL     1      59.157  86.159  70.924  1.00  0.00    -0.000 C 
BRANCH   5   6
ATOM      6  C   UNL     1      59.005  86.378  72.454  1.00  0.00    -0.003 C 
ATOM      7  C   UNL     1      60.344  86.254  73.214  1.00  0.00     0.004 C 
ENDBRANCH   5   6
ENDBRANCH   4   5
ENDBRANCH   3   4
ENDBRANCH   2   3
ENDBRANCH   1   2
BRANCH   1   8
ATOM      8  C   UNL     1      62.622  82.851  69.039  1.00  0.00     0.100 C 
BRANCH   8   9
ATOM      9  C   UNL     1      63.464  82.248  70.100  1.00  0.00     0.220 C 
ATOM     10  O   UNL     1      64.673  82.029  69.848  1.00  0.00    -0.275 OA
ATOM     11  N   UNL     1      62.937  81.968  71.328  1.00  0.00    -0.352 N 
ATOM     12  H   UNL     1      61.938  82.102  71.394  1.00  0.00     0.163 HD
BRANCH  11  13
ATOM     13  C   UNL     1      63.673  81.520  72.471  1.00  0.00     0.151 C 
BRANCH  13  14
ATOM     14  C   UNL     1      63.302  82.213  73.734  1.00  0.00    -0.025 A 
ATOM     15  C   UNL     1      64.278  82.439  74.734  1.00  0.00     0.056 A 
ATOM     16  C   UNL     1      61.977  82.652  73.960  1.00  0.00     0.009 A 
ATOM     17  C   UNL     1      63.944  83.112  75.932  1.00  0.00     0.160 A 
ATOM     18  C   UNL     1      61.640  83.322  75.149  1.00  0.00     0.050 A 
ATOM     19  C   UNL     1      62.616  83.547  76.139  1.00  0.00     0.157 A 
BRANCH  17  20
ATOM     20  O   UNL     1      64.881  83.293  76.919  1.00  0.00    -0.493 OA
ATOM     21  C   UNL     1      65.910  84.241  76.586  1.00  0.00     0.278 C 
ENDBRANCH  17  20
BRANCH  19  22
ATOM     22  O   UNL     1      62.274  84.170  77.295  1.00  0.00    -0.504 OA
ATOM     23  H   UNL     1      61.627  83.639  77.766  1.00  0.00     0.293 HD
ENDBRANCH  19  22
ENDBRANCH  13  14
ENDBRANCH  11  13
ENDBRANCH   8   9
ENDBRANCH   1   8
TORSDOF 11
ENDMDL
MODEL 8
REMARK VINA RESULT:    -5.051     19.456     21.060
REMARK INTER + INTRA:          -9.000
REMARK INTER:                  -8.298
REMARK INTRA:                  -0.701
REMARK UNBOUND:                -0.849
REMARK SMILES CCCCCCCCC(=O)NCc1ccc(O)c(OC)c1
REMARK SMILES IDX 7 1 6 2 5 3 4 4 3 5 2 6 1 7 8 8 9 9 10 10 11 11 12 13 13 14
REMARK SMILES IDX 21 15 14 16 18 17 15 18 16 19 19 20 20 21 17 22
REMARK H PARENT 11 12 17 23
REMARK Flexibility Score: inf
ROOT
ATOM      1  C   UNL     1      94.943  87.599  90.267  1.00  0.00     0.010 C 
ENDROOT
BRANCH   1   2
ATOM      2  C   UNL     1      94.502  88.980  90.832  1.00  0.00     0.001 C 
BRANCH   2   3
ATOM      3  C   UNL     1      94.692  90.128  89.797  1.00  0.00     0.000 C 
BRANCH   3   4
ATOM      4  C   UNL     1      93.629  91.257  89.911  1.00  0.00    -0.000 C 
BRANCH   4   5
ATOM      5  C   UNL     1      94.174  92.524  90.630  1.00  0.00    -0.000 C 
BRANCH   5   6
ATOM      6  C   UNL     1      93.058  93.555  90.949  1.00  0.00    -0.003 C 
ATOM      7  C   UNL     1      91.843  92.923  91.661  1.00  0.00     0.004 C 
ENDBRANCH   5   6
ENDBRANCH   4   5
ENDBRANCH   3   4
ENDBRANCH   2   3
ENDBRANCH   1   2
BRANCH   1   8
ATOM      8  C   UNL     1      95.987  87.693  89.119  1.00  0.00     0.100 C 
BRANCH   8   9
ATOM      9  C   UNL     1      95.799  86.606  88.128  1.00  0.00     0.220 C 
ATOM     10  O   UNL     1      95.896  86.888  86.910  1.00  0.00    -0.275 OA
ATOM     11  N   UNL     1      95.555  85.327  88.539  1.00  0.00    -0.352 N 
ATOM     12  H   UNL     1      95.410  85.229  89.534  1.00  0.00     0.163 HD
BRANCH  11  13
ATOM     13  C   UNL     1      95.496  84.174  87.694  1.00  0.00     0.151 C 
BRANCH  13  14
ATOM     14  C   UNL     1      94.133  83.593  87.564  1.00  0.00    -0.025 A 
ATOM     15  C   UNL     1      93.040  84.181  88.244  1.00  0.00     0.056 A 
ATOM     16  C   UNL     1      93.904  82.448  86.767  1.00  0.00     0.009 A 
ATOM     17  C   UNL     1      91.736  83.650  88.117  1.00  0.00     0.160 A 
ATOM     18  C   UNL     1      92.609  81.915  86.635  1.00  0.00     0.050 A 
ATOM     19  C   UNL     1      91.526  82.507  87.312  1.00  0.00     0.157 A 
BRANCH  17  20
ATOM     20  O   UNL     1      90.685  84.195  88.810  1.00  0.00    -0.493 OA
ATOM     21  C   UNL     1      90.664  83.857  90.208  1.00  0.00     0.278 C 
ENDBRANCH  17  20
BRANCH  19  22
ATOM     22  O   UNL     1      90.285  81.969  87.200  1.00  0.00    -0.504 OA
ATOM     23  H   UNL     1      90.318  81.037  87.428  1.00  0.00     0.293 HD
ENDBRANCH  19  22
ENDBRANCH  13  14
ENDBRANCH  11  13
ENDBRANCH   8   9
ENDBRANCH   1   8
TORSDOF 11
ENDMDL
MODEL 9
REMARK VINA RESULT:    -4.999     20.457     23.378
REMARK INTER + INTRA:          -8.917
REMARK INTER:                  -7.633
REMARK INTRA:                  -1.284
REMARK UNBOUND:                -0.849
REMARK SMILES CCCCCCCCC(=O)NCc1ccc(O)c(OC)c1
REMARK SMILES IDX 7 1 6 2 5 3 4 4 3 5 2 6 1 7 8 8 9 9 10 10 11 11 12 13 13 14
REMARK SMILES IDX 21 15 14 16 18 17 15 18 16 19 19 20 20 21 17 22
REMARK H PARENT 11 12 17 23
REMARK Flexibility Score: inf
ROOT
ATOM      1  C   UNL     1      78.288  83.842  67.656  1.00  0.00     0.010 C 
ENDROOT
BRANCH   1   2
ATOM      2  C   UNL     1      78.025  84.088  66.142  1.00  0.00     0.001 C 
BRANCH   2   3
ATOM      3  C   UNL     1      76.582  83.680  65.721  1.00  0.00     0.000 C 
BRANCH   3   4
ATOM      4  C   UNL     1      75.931  82.624  66.658  1.00  0.00    -0.000 C 
BRANCH   4   5
ATOM      5  C   UNL     1      75.678  81.265  65.946  1.00  0.00    -0.000 C 
BRANCH   5   6
ATOM      6  C   UNL     1      74.736  81.401  64.720  1.00  0.00    -0.003 C 
ATOM      7  C   UNL     1      75.444  81.092  63.382  1.00  0.00     0.004 C 
ENDBRANCH   5   6
ENDBRANCH   4   5
ENDBRANCH   3   4
ENDBRANCH   2   3
ENDBRANCH   1   2
BRANCH   1   8
ATOM      8  C   UNL     1      78.292  85.138  68.513  1.00  0.00     0.100 C 
BRANCH   8   9
ATOM      9  C   UNL     1      77.053  85.255  69.320  1.00  0.00     0.220 C 
ATOM     10  O   UNL     1      77.080  84.864  70.511  1.00  0.00    -0.275 OA
ATOM     11  N   UNL     1      75.924  85.804  68.782  1.00  0.00    -0.352 N 
ATOM     12  H   UNL     1      75.987  86.004  67.795  1.00  0.00     0.163 HD
BRANCH  11  13
ATOM     13  C   UNL     1      74.718  86.099  69.494  1.00  0.00     0.151 C 
BRANCH  13  14
ATOM     14  C   UNL     1      73.511  85.438  68.931  1.00  0.00    -0.025 A 
ATOM     15  C   UNL     1      72.315  85.375  69.687  1.00  0.00     0.056 A 
ATOM     16  C   UNL     1      73.533  84.858  67.642  1.00  0.00     0.009 A 
ATOM     17  C   UNL     1      71.155  84.765  69.159  1.00  0.00     0.160 A 
ATOM     18  C   UNL     1      72.382  84.251  67.110  1.00  0.00     0.050 A 
ATOM     19  C   UNL     1      71.195  84.195  67.866  1.00  0.00     0.157 A 
BRANCH  17  20
ATOM     20  O   UNL     1      70.010  84.668  69.909  1.00  0.00    -0.493 OA
ATOM     21  C   UNL     1      70.173  83.944  71.141  1.00  0.00     0.278 C 
ENDBRANCH  17  20
BRANCH  19  22
ATOM     22  O   UNL     1      70.097  83.582  67.355  1.00  0.00    -0.504 OA
ATOM     23  H   UNL     1      69.347  84.179  67.402  1.00  0.00     0.293 HD
ENDBRANCH  19  22
ENDBRANCH  13  14
ENDBRANCH  11  13
ENDBRANCH   8   9
ENDBRANCH   1   8
TORSDOF 11
ENDMDL
MODEL 10
REMARK VINA RESULT:    -4.987     19.443     21.846
REMARK INTER + INTRA:          -8.896
REMARK INTER:                  -7.633
REMARK INTRA:                  -1.263
REMARK UNBOUND:                -0.849
REMARK SMILES CCCCCCCCC(=O)NCc1ccc(O)c(OC)c1
REMARK SMILES IDX 7 1 6 2 5 3 4 4 3 5 2 6 1 7 8 8 9 9 10 10 11 11 12 13 13 14
REMARK SMILES IDX 21 15 14 16 18 17 15 18 16 19 19 20 20 21 17 22
REMARK H PARENT 11 12 17 23
REMARK Flexibility Score: inf
ROOT
ATOM      1  C   UNL     1      77.104  83.517  66.044  1.00  0.00     0.010 C 
ENDROOT
BRANCH   1   2
ATOM      2  C   UNL     1      76.817  82.058  65.584  1.00  0.00     0.001 C 
BRANCH   2   3
ATOM      3  C   UNL     1      75.600  81.435  66.329  1.00  0.00     0.000 C 
BRANCH   3   4
ATOM      4  C   UNL     1      74.355  81.218  65.423  1.00  0.00    -0.000 C 
BRANCH   4   5
ATOM      5  C   UNL     1      73.111  82.014  65.913  1.00  0.00    -0.000 C 
BRANCH   5   6
ATOM      6  C   UNL     1      73.316  83.550  65.828  1.00  0.00    -0.003 C 
ATOM      7  C   UNL     1      73.122  84.257  67.188  1.00  0.00     0.004 C 
ENDBRANCH   5   6
ENDBRANCH   4   5
ENDBRANCH   3   4
ENDBRANCH   2   3
ENDBRANCH   1   2
BRANCH   1   8
ATOM      8  C   UNL     1      78.258  83.636  67.078  1.00  0.00     0.100 C 
BRANCH   8   9
ATOM      9  C   UNL     1      77.822  84.366  68.293  1.00  0.00     0.220 C 
ATOM     10  O   UNL     1      78.668  85.060  68.906  1.00  0.00    -0.275 OA
ATOM     11  N   UNL     1      76.523  84.303  68.711  1.00  0.00    -0.352 N 
ATOM     12  H   UNL     1      75.950  83.650  68.197  1.00  0.00     0.163 HD
BRANCH  11  13
ATOM     13  C   UNL     1      75.950  85.068  69.776  1.00  0.00     0.151 C 
BRANCH  13  14
ATOM     14  C   UNL     1      75.675  86.485  69.418  1.00  0.00    -0.025 A 
ATOM     15  C   UNL     1      75.423  86.844  68.073  1.00  0.00     0.056 A 
ATOM     16  C   UNL     1      75.664  87.495  70.408  1.00  0.00     0.009 A 
ATOM     17  C   UNL     1      75.143  88.184  67.720  1.00  0.00     0.160 A 
ATOM     18  C   UNL     1      75.385  88.830  70.064  1.00  0.00     0.050 A 
ATOM     19  C   UNL     1      75.132  89.180  68.723  1.00  0.00     0.157 A 
BRANCH  17  20
ATOM     20  O   UNL     1      74.941  88.537  66.410  1.00  0.00    -0.493 OA
ATOM     21  C   UNL     1      73.927  87.766  65.742  1.00  0.00     0.278 C 
ENDBRANCH  17  20
BRANCH  19  22
ATOM     22  O   UNL     1      74.891  90.475  68.397  1.00  0.00    -0.504 OA
ATOM     23  H   UNL     1      74.937  91.018  69.188  1.00  0.00     0.293 HD
ENDBRANCH  19  22
ENDBRANCH  13  14
ENDBRANCH  11  13
ENDBRANCH   8   9
ENDBRANCH   1   8
TORSDOF 11
ENDMDL
