MODEL 1
REMARK VINA RESULT:    -6.330      0.000      0.000
REMARK INTER + INTRA:         -13.084
REMARK INTER:                 -11.141
REMARK INTRA:                  -1.942
REMARK UNBOUND:                -1.942
REMARK SMILES C=C(C)[C@]12C[C@@H](C)[C@@]34O[C@](Cc5ccccc5)(O[C@@H]1[C@@H]3C=C(COC(=O)Cc1ccc(O)c(OC)c1)C[C@]1(O)C(=O)C(C)=C[C@@H]41)O2
REMARK SMILES IDX 23 1 22 2 21 3 20 4 9 5 8 6 10 7 6 8 18 9 46 10 19 11 5 12
REMARK SMILES IDX 7 13 4 14 45 15 38 16 44 17 40 18 42 20 41 21 43 22 39 23
REMARK SMILES IDX 11 25 12 26 13 27 17 28 14 29 16 30 15 31 2 32 3 33 1 34
REMARK SMILES IDX 37 35 24 37 25 38 26 39 27 40 28 41 36 42 29 43 33 44 30 45
REMARK SMILES IDX 31 46 34 47 35 48 32 49
REMARK H PARENT 39 24 32 50
REMARK Flexibility Score: 90.00
ROOT
ATOM      1  C   UNL     1      70.622  85.165  66.177  1.00  0.00     0.264 C 
ENDROOT
BRANCH   1   2
ATOM      2  C   UNL     1      71.953  85.874  66.092  1.00  0.00    -0.033 C 
ATOM      3  C   UNL     1      72.049  87.150  66.514  1.00  0.00    -0.015 C 
BRANCH   3   4
ATOM      4  C   UNL     1      73.237  88.097  66.465  1.00  0.00     0.078 C 
ATOM      5  O   UNL     1      74.428  87.871  68.621  1.00  0.00    -0.319 OA
ATOM      6  C   UNL     1      74.570  87.663  67.182  1.00  0.00     0.095 C 
ATOM      7  C   UNL     1      73.790  89.104  69.006  1.00  0.00     0.289 C 
ATOM      8  C   UNL     1      75.733  88.587  66.632  1.00  0.00     0.023 C 
ATOM      9  O   UNL     1      72.491  89.215  68.431  1.00  0.00    -0.320 OA
ATOM     10  O   UNL     1      74.510  90.249  68.556  1.00  0.00    -0.313 OA
ATOM     11  C   UNL     1      72.842  89.470  67.062  1.00  0.00     0.170 C 
ATOM     12  C   UNL     1      75.215  90.019  66.295  1.00  0.00     0.049 C 
ATOM     13  C   UNL     1      76.975  88.692  67.532  1.00  0.00     0.011 C 
ATOM     14  C   UNL     1      74.052  90.427  67.200  1.00  0.00     0.122 C 
BRANCH   6  15
ATOM     15  C   UNL     1      74.804  86.132  67.032  1.00  0.00     0.086 C 
ATOM     16  C   UNL     1      74.522  85.534  65.638  1.00  0.00     0.140 CG0
ATOM     17  C   UNL     1      76.143  85.553  67.396  1.00  0.00    -0.010 C 
ATOM     18  C   UNL     1      75.563  84.440  65.535  1.00  0.00     0.190 C 
ATOM     19  G   UNL     1      73.096  84.998  65.518  1.00  0.00     0.000 G0
ATOM     20  C   UNL     1      76.584  84.581  66.590  1.00  0.00    -0.008 C 
ATOM     21  O   UNL     1      75.600  83.577  64.672  1.00  0.00    -0.291 OA
ATOM     22  C   UNL     1      77.796  83.741  66.688  1.00  0.00     0.048 C 
BRANCH  16  23
ATOM     23  O   UNL     1      74.839  86.405  64.565  1.00  0.00    -0.381 OA
ATOM     24  H   UNL     1      75.215  85.877  63.841  1.00  0.00     0.212 HD
ENDBRANCH  16  23
ENDBRANCH   6  15
BRANCH   7  25
ATOM     25  C   UNL     1      73.686  89.134  70.517  1.00  0.00     0.135 C 
BRANCH  25  26
ATOM     26  C   UNL     1      73.477  90.533  71.042  1.00  0.00    -0.040 A 
ATOM     27  C   UNL     1      74.562  91.402  71.161  1.00  0.00     0.004 A 
ATOM     28  C   UNL     1      72.200  90.957  71.407  1.00  0.00     0.004 A 
ATOM     29  C   UNL     1      74.369  92.696  71.646  1.00  0.00     0.000 A 
ATOM     30  C   UNL     1      72.007  92.251  71.892  1.00  0.00     0.000 A 
ATOM     31  C   UNL     1      73.092  93.120  72.011  1.00  0.00     0.000 A 
ENDBRANCH  25  26
ENDBRANCH   7  25
BRANCH  14  32
ATOM     32  C   UNL     1      73.659  91.857  67.020  1.00  0.00    -0.046 C 
ATOM     33  C   UNL     1      72.785  92.443  68.089  1.00  0.00     0.042 C 
ATOM     34  C   UNL     1      74.064  92.577  65.963  1.00  0.00     0.010 C 
ENDBRANCH  14  32
ENDBRANCH   3   4
BRANCH   2  35
ATOM     35  C   UNL     1      73.056  85.002  65.520  1.00  0.00     0.078 CG0
ATOM     36  G   UNL     1      74.489  85.516  65.647  1.00  0.00     0.000 G0
ENDBRANCH   2  35
ENDBRANCH   1   2
BRANCH   1  37
ATOM     37  O   UNL     1      70.560  84.431  67.381  1.00  0.00    -0.461 OA
BRANCH  37  38
ATOM     38  C   UNL     1      69.496  84.707  68.208  1.00  0.00     0.310 C 
ATOM     39  O   UNL     1      68.328  84.781  67.850  1.00  0.00    -0.252 OA
BRANCH  38  40
ATOM     40  C   UNL     1      69.993  84.905  69.620  1.00  0.00     0.158 C 
BRANCH  40  41
ATOM     41  C   UNL     1      69.428  86.138  70.276  1.00  0.00    -0.033 A 
ATOM     42  C   UNL     1      68.360  86.027  71.167  1.00  0.00     0.054 A 
ATOM     43  C   UNL     1      69.972  87.390  69.993  1.00  0.00     0.008 A 
ATOM     44  C   UNL     1      67.836  87.169  71.774  1.00  0.00     0.160 A 
ATOM     45  C   UNL     1      69.448  88.532  70.599  1.00  0.00     0.050 A 
ATOM     46  C   UNL     1      68.381  88.422  71.490  1.00  0.00     0.157 A 
BRANCH  44  47
ATOM     47  O   UNL     1      66.793  87.048  72.642  1.00  0.00    -0.493 OA
ATOM     48  C   UNL     1      66.447  85.728  73.060  1.00  0.00     0.278 C 
ENDBRANCH  44  47
BRANCH  46  49
ATOM     49  O   UNL     1      67.879  89.543  72.077  1.00  0.00    -0.504 OA
ATOM     50  H   UNL     1      67.392  89.290  72.879  1.00  0.00     0.293 HD
ENDBRANCH  46  49
ENDBRANCH  40  41
ENDBRANCH  38  40
ENDBRANCH  37  38
ENDBRANCH   1  37
TORSDOF 11
ENDMDL
MODEL 2
REMARK VINA RESULT:    -6.064      1.837      2.738
REMARK INTER + INTRA:         -12.615
REMARK INTER:                 -11.376
REMARK INTRA:                  -1.238
REMARK UNBOUND:                -1.942
REMARK SMILES C=C(C)[C@]12C[C@@H](C)[C@@]34O[C@](Cc5ccccc5)(O[C@@H]1[C@@H]3C=C(COC(=O)Cc1ccc(O)c(OC)c1)C[C@]1(O)C(=O)C(C)=C[C@@H]41)O2
REMARK SMILES IDX 23 1 22 2 21 3 20 4 9 5 8 6 10 7 6 8 18 9 46 10 19 11 5 12
REMARK SMILES IDX 7 13 4 14 45 15 38 16 44 17 40 18 42 20 41 21 43 22 39 23
REMARK SMILES IDX 11 25 12 26 13 27 17 28 14 29 16 30 15 31 2 32 3 33 1 34
REMARK SMILES IDX 37 35 24 37 25 38 26 39 27 40 28 41 36 42 29 43 33 44 30 45
REMARK SMILES IDX 31 46 34 47 35 48 32 49
REMARK H PARENT 39 24 32 50
REMARK Flexibility Score: 90.00
ROOT
ATOM      1  C   UNL     1      70.227  86.116  67.460  1.00  0.00     0.264 C 
ENDROOT
BRANCH   1   2
ATOM      2  C   UNL     1      71.602  86.701  67.236  1.00  0.00    -0.033 C 
ATOM      3  C   UNL     1      71.818  88.002  67.515  1.00  0.00    -0.015 C 
BRANCH   3   4
ATOM      4  C   UNL     1      73.071  88.838  67.307  1.00  0.00     0.078 C 
ATOM      5  O   UNL     1      74.365  88.731  69.413  1.00  0.00    -0.319 OA
ATOM      6  C   UNL     1      74.406  88.370  67.998  1.00  0.00     0.095 C 
ATOM      7  C   UNL     1      73.847  90.045  69.699  1.00  0.00     0.289 C 
ATOM      8  C   UNL     1      75.603  89.136  67.297  1.00  0.00     0.023 C 
ATOM      9  O   UNL     1      72.529  90.204  69.182  1.00  0.00    -0.320 OA
ATOM     10  O   UNL     1      74.625  91.076  69.097  1.00  0.00    -0.313 OA
ATOM     11  C   UNL     1      72.818  90.292  67.778  1.00  0.00     0.170 C 
ATOM     12  C   UNL     1      75.177  90.565  66.839  1.00  0.00     0.049 C 
ATOM     13  C   UNL     1      76.899  89.227  68.118  1.00  0.00     0.011 C 
ATOM     14  C   UNL     1      74.103  91.155  67.754  1.00  0.00     0.122 C 
BRANCH   6  15
ATOM     15  C   UNL     1      74.513  86.818  67.996  1.00  0.00     0.086 C 
ATOM     16  C   UNL     1      74.101  86.109  66.689  1.00  0.00     0.140 CG0
ATOM     17  C   UNL     1      75.824  86.170  68.346  1.00  0.00    -0.010 C 
ATOM     18  C   UNL     1      75.047  84.928  66.646  1.00  0.00     0.190 C 
ATOM     19  G   UNL     1      72.633  85.683  66.703  1.00  0.00     0.000 G0
ATOM     20  C   UNL     1      76.139  85.089  67.625  1.00  0.00    -0.008 C 
ATOM     21  O   UNL     1      74.965  83.983  65.876  1.00  0.00    -0.291 OA
ATOM     22  C   UNL     1      77.287  84.167  67.744  1.00  0.00     0.048 C 
BRANCH  16  23
ATOM     23  O   UNL     1      74.417  86.839  65.516  1.00  0.00    -0.381 OA
ATOM     24  H   UNL     1      73.906  87.666  65.522  1.00  0.00     0.212 HD
ENDBRANCH  16  23
ENDBRANCH   6  15
BRANCH   7  25
ATOM     25  C   UNL     1      73.834  90.233  71.203  1.00  0.00     0.135 C 
BRANCH  25  26
ATOM     26  C   UNL     1      73.575  91.668  71.590  1.00  0.00    -0.040 A 
ATOM     27  C   UNL     1      72.269  92.161  71.606  1.00  0.00     0.004 A 
ATOM     28  C   UNL     1      74.638  92.501  71.933  1.00  0.00     0.004 A 
ATOM     29  C   UNL     1      72.029  93.488  71.964  1.00  0.00     0.000 A 
ATOM     30  C   UNL     1      74.398  93.828  72.291  1.00  0.00     0.000 A 
ATOM     31  C   UNL     1      73.093  94.321  72.307  1.00  0.00     0.000 A 
ENDBRANCH  25  26
ENDBRANCH   7  25
BRANCH  14  32
ATOM     32  C   UNL     1      73.811  92.588  67.447  1.00  0.00    -0.046 C 
ATOM     33  C   UNL     1      73.550  92.917  66.007  1.00  0.00     0.042 C 
ATOM     34  C   UNL     1      73.784  93.527  68.404  1.00  0.00     0.010 C 
ENDBRANCH  14  32
ENDBRANCH   3   4
BRANCH   2  35
ATOM     35  C   UNL     1      72.600  85.688  66.708  1.00  0.00     0.078 CG0
ATOM     36  G   UNL     1      74.074  86.094  66.708  1.00  0.00     0.000 G0
ENDBRANCH   2  35
ENDBRANCH   1   2
BRANCH   1  37
ATOM     37  O   UNL     1      70.052  85.848  68.834  1.00  0.00    -0.461 OA
BRANCH  37  38
ATOM     38  C   UNL     1      70.026  84.522  69.197  1.00  0.00     0.310 C 
ATOM     39  O   UNL     1      70.568  83.614  68.581  1.00  0.00    -0.252 OA
BRANCH  38  40
ATOM     40  C   UNL     1      69.228  84.362  70.469  1.00  0.00     0.158 C 
BRANCH  40  41
ATOM     41  C   UNL     1      67.741  84.319  70.229  1.00  0.00    -0.033 A 
ATOM     42  C   UNL     1      67.218  83.482  69.242  1.00  0.00     0.054 A 
ATOM     43  C   UNL     1      66.887  85.114  70.992  1.00  0.00     0.008 A 
ATOM     44  C   UNL     1      65.842  83.442  69.019  1.00  0.00     0.160 A 
ATOM     45  C   UNL     1      65.510  85.074  70.769  1.00  0.00     0.050 A 
ATOM     46  C   UNL     1      64.988  84.239  69.783  1.00  0.00     0.157 A 
BRANCH  44  47
ATOM     47  O   UNL     1      65.343  82.621  68.052  1.00  0.00    -0.493 OA
ATOM     48  C   UNL     1      65.409  83.091  66.707  1.00  0.00     0.278 C 
ENDBRANCH  44  47
BRANCH  46  49
ATOM     49  O   UNL     1      63.642  84.207  69.575  1.00  0.00    -0.504 OA
ATOM     50  H   UNL     1      63.470  83.925  68.661  1.00  0.00     0.293 HD
ENDBRANCH  46  49
ENDBRANCH  40  41
ENDBRANCH  38  40
ENDBRANCH  37  38
ENDBRANCH   1  37
TORSDOF 11
ENDMDL
MODEL 3
REMARK VINA RESULT:    -5.628      4.099      8.751
REMARK INTER + INTRA:         -11.847
REMARK INTER:                 -10.740
REMARK INTRA:                  -1.108
REMARK UNBOUND:                -1.942
REMARK SMILES C=C(C)[C@]12C[C@@H](C)[C@@]34O[C@](Cc5ccccc5)(O[C@@H]1[C@@H]3C=C(COC(=O)Cc1ccc(O)c(OC)c1)C[C@]1(O)C(=O)C(C)=C[C@@H]41)O2
REMARK SMILES IDX 23 1 22 2 21 3 20 4 9 5 8 6 10 7 6 8 18 9 46 10 19 11 5 12
REMARK SMILES IDX 7 13 4 14 45 15 38 16 44 17 40 18 42 20 41 21 43 22 39 23
REMARK SMILES IDX 11 25 12 26 13 27 17 28 14 29 16 30 15 31 2 32 3 33 1 34
REMARK SMILES IDX 37 35 24 37 25 38 26 39 27 40 28 41 36 42 29 43 33 44 30 45
REMARK SMILES IDX 31 46 34 47 35 48 32 49
REMARK H PARENT 39 24 32 50
REMARK Flexibility Score: 90.00
ROOT
ATOM      1  C   UNL     1      74.213  89.578  70.155  1.00  0.00     0.264 C 
ENDROOT
BRANCH   1   2
ATOM      2  C   UNL     1      73.673  90.919  70.594  1.00  0.00    -0.033 C 
ATOM      3  C   UNL     1      73.232  91.070  71.859  1.00  0.00    -0.015 C 
BRANCH   3   4
ATOM      4  C   UNL     1      72.580  92.276  72.516  1.00  0.00     0.078 C 
ATOM      5  O   UNL     1      74.395  93.600  73.553  1.00  0.00    -0.319 OA
ATOM      6  C   UNL     1      73.363  93.642  72.519  1.00  0.00     0.095 C 
ATOM      7  C   UNL     1      73.988  93.020  74.806  1.00  0.00     0.289 C 
ATOM      8  C   UNL     1      72.325  94.789  72.861  1.00  0.00     0.023 C 
ATOM      9  O   UNL     1      73.510  91.688  74.629  1.00  0.00    -0.320 OA
ATOM     10  O   UNL     1      72.914  93.736  75.411  1.00  0.00    -0.313 OA
ATOM     11  C   UNL     1      72.250  91.955  73.995  1.00  0.00     0.170 C 
ATOM     12  C   UNL     1      71.217  94.285  73.836  1.00  0.00     0.049 C 
ATOM     13  C   UNL     1      72.936  96.089  73.408  1.00  0.00     0.011 C 
ATOM     14  C   UNL     1      71.740  93.195  74.771  1.00  0.00     0.122 C 
BRANCH   6  15
ATOM     15  C   UNL     1      74.152  93.828  71.190  1.00  0.00     0.086 C 
ATOM     16  C   UNL     1      73.406  93.440  69.896  1.00  0.00     0.140 CG0
ATOM     17  C   UNL     1      74.741  95.172  70.865  1.00  0.00    -0.010 C 
ATOM     18  C   UNL     1      73.941  94.445  68.898  1.00  0.00     0.190 C 
ATOM     19  G   UNL     1      73.685  91.997  69.480  1.00  0.00     0.000 G0
ATOM     20  C   UNL     1      74.663  95.536  69.581  1.00  0.00    -0.008 C 
ATOM     21  O   UNL     1      73.767  94.405  67.690  1.00  0.00    -0.291 OA
ATOM     22  C   UNL     1      75.199  96.730  68.896  1.00  0.00     0.048 C 
BRANCH  16  23
ATOM     23  O   UNL     1      72.015  93.709  69.934  1.00  0.00    -0.381 OA
ATOM     24  H   UNL     1      71.580  93.174  69.249  1.00  0.00     0.212 HD
ENDBRANCH  16  23
ENDBRANCH   6  15
BRANCH   7  25
ATOM     25  C   UNL     1      75.182  93.016  75.739  1.00  0.00     0.135 C 
BRANCH  25  26
ATOM     26  C   UNL     1      74.776  93.211  77.178  1.00  0.00    -0.040 A 
ATOM     27  C   UNL     1      75.064  94.412  77.827  1.00  0.00     0.004 A 
ATOM     28  C   UNL     1      74.112  92.192  77.860  1.00  0.00     0.004 A 
ATOM     29  C   UNL     1      74.688  94.593  79.159  1.00  0.00     0.000 A 
ATOM     30  C   UNL     1      73.736  92.373  79.192  1.00  0.00     0.000 A 
ATOM     31  C   UNL     1      74.025  93.574  79.840  1.00  0.00     0.000 A 
ENDBRANCH  25  26
ENDBRANCH   7  25
BRANCH  14  32
ATOM     32  C   UNL     1      70.754  92.826  75.831  1.00  0.00    -0.046 C 
ATOM     33  C   UNL     1      70.590  93.808  76.953  1.00  0.00     0.042 C 
ATOM     34  C   UNL     1      70.055  91.682  75.784  1.00  0.00     0.010 C 
ENDBRANCH  14  32
ENDBRANCH   3   4
BRANCH   2  35
ATOM     35  C   UNL     1      73.710  91.964  69.495  1.00  0.00     0.078 CG0
ATOM     36  G   UNL     1      73.403  93.407  69.892  1.00  0.00     0.000 G0
ENDBRANCH   2  35
ENDBRANCH   1   2
BRANCH   1  37
ATOM     37  O   UNL     1      74.376  89.577  68.753  1.00  0.00    -0.461 OA
BRANCH  37  38
ATOM     38  C   UNL     1      73.981  88.434  68.096  1.00  0.00     0.310 C 
ATOM     39  O   UNL     1      73.446  88.405  66.996  1.00  0.00    -0.252 OA
BRANCH  38  40
ATOM     40  C   UNL     1      74.309  87.227  68.942  1.00  0.00     0.158 C 
BRANCH  40  41
ATOM     41  C   UNL     1      75.301  86.301  68.286  1.00  0.00    -0.033 A 
ATOM     42  C   UNL     1      74.851  85.228  67.516  1.00  0.00     0.054 A 
ATOM     43  C   UNL     1      76.669  86.517  68.448  1.00  0.00     0.008 A 
ATOM     44  C   UNL     1      75.769  84.372  66.909  1.00  0.00     0.160 A 
ATOM     45  C   UNL     1      77.588  85.661  67.841  1.00  0.00     0.050 A 
ATOM     46  C   UNL     1      77.138  84.588  67.072  1.00  0.00     0.157 A 
BRANCH  44  47
ATOM     47  O   UNL     1      75.317  83.328  66.160  1.00  0.00    -0.493 OA
ATOM     48  C   UNL     1      74.815  83.632  64.860  1.00  0.00     0.278 C 
ENDBRANCH  44  47
BRANCH  46  49
ATOM     49  O   UNL     1      78.044  83.759  66.483  1.00  0.00    -0.504 OA
ATOM     50  H   UNL     1      78.896  84.222  66.409  1.00  0.00     0.293 HD
ENDBRANCH  46  49
ENDBRANCH  40  41
ENDBRANCH  38  40
ENDBRANCH  37  38
ENDBRANCH   1  37
TORSDOF 11
ENDMDL
MODEL 4
REMARK VINA RESULT:    -5.478     21.581     25.197
REMARK INTER + INTRA:         -11.584
REMARK INTER:                 -10.573
REMARK INTRA:                  -1.010
REMARK UNBOUND:                -1.942
REMARK SMILES C=C(C)[C@]12C[C@@H](C)[C@@]34O[C@](Cc5ccccc5)(O[C@@H]1[C@@H]3C=C(COC(=O)Cc1ccc(O)c(OC)c1)C[C@]1(O)C(=O)C(C)=C[C@@H]41)O2
REMARK SMILES IDX 23 1 22 2 21 3 20 4 9 5 8 6 10 7 6 8 18 9 46 10 19 11 5 12
REMARK SMILES IDX 7 13 4 14 45 15 38 16 44 17 40 18 42 20 41 21 43 22 39 23
REMARK SMILES IDX 11 25 12 26 13 27 17 28 14 29 16 30 15 31 2 32 3 33 1 34
REMARK SMILES IDX 37 35 24 37 25 38 26 39 27 40 28 41 36 42 29 43 33 44 30 45
REMARK SMILES IDX 31 46 34 47 35 48 32 49
REMARK H PARENT 39 24 32 50
REMARK Flexibility Score: 90.00
ROOT
ATOM      1  C   UNL     1      96.099  97.056  72.066  1.00  0.00     0.264 C 
ENDROOT
BRANCH   1   2
ATOM      2  C   UNL     1      95.979  98.070  70.952  1.00  0.00    -0.033 C 
ATOM      3  C   UNL     1      94.792  98.672  70.735  1.00  0.00    -0.015 C 
BRANCH   3   4
ATOM      4  C   UNL     1      94.395  99.656  69.646  1.00  0.00     0.078 C 
ATOM      5  O   UNL     1      94.756 101.926  70.560  1.00  0.00    -0.319 OA
ATOM      6  C   UNL     1      95.203 101.001  69.521  1.00  0.00     0.095 C 
ATOM      7  C   UNL     1      93.332 101.978  70.769  1.00  0.00     0.289 C 
ATOM      8  C   UNL     1      94.887 101.620  68.097  1.00  0.00     0.023 C 
ATOM      9  O   UNL     1      92.810 100.692  71.093  1.00  0.00    -0.320 OA
ATOM     10  O   UNL     1      92.629 102.396  69.601  1.00  0.00    -0.313 OA
ATOM     11  C   UNL     1      92.906 100.051  69.811  1.00  0.00     0.170 C 
ATOM     12  C   UNL     1      93.428 101.300  67.646  1.00  0.00     0.049 C 
ATOM     13  C   UNL     1      95.144 103.130  67.962  1.00  0.00     0.011 C 
ATOM     14  C   UNL     1      92.481 101.180  68.840  1.00  0.00     0.122 C 
BRANCH   6  15
ATOM     15  C   UNL     1      96.711 100.769  69.829  1.00  0.00     0.086 C 
ATOM     16  C   UNL     1      97.343  99.502  69.217  1.00  0.00     0.140 CG0
ATOM     17  C   UNL     1      97.704 101.849  69.502  1.00  0.00    -0.010 C 
ATOM     18  C   UNL     1      98.757  99.954  68.920  1.00  0.00     0.190 C 
ATOM     19  G   UNL     1      97.298  98.314  70.177  1.00  0.00     0.000 G0
ATOM     20  C   UNL     1      98.874 101.422  69.015  1.00  0.00    -0.008 C 
ATOM     21  O   UNL     1      99.680  99.224  68.592  1.00  0.00    -0.291 OA
ATOM     22  C   UNL     1     100.093 102.180  68.666  1.00  0.00     0.048 C 
BRANCH  16  23
ATOM     23  O   UNL     1      96.822  99.159  67.944  1.00  0.00    -0.381 OA
ATOM     24  H   UNL     1      97.090  98.248  67.738  1.00  0.00     0.212 HD
ENDBRANCH  16  23
ENDBRANCH   6  15
BRANCH   7  25
ATOM     25  C   UNL     1      93.052 102.945  71.901  1.00  0.00     0.135 C 
BRANCH  25  26
ATOM     26  C   UNL     1      91.620 102.868  72.369  1.00  0.00    -0.040 A 
ATOM     27  C   UNL     1      90.653 103.692  71.793  1.00  0.00     0.004 A 
ATOM     28  C   UNL     1      91.262 101.972  73.376  1.00  0.00     0.004 A 
ATOM     29  C   UNL     1      89.329 103.621  72.226  1.00  0.00     0.000 A 
ATOM     30  C   UNL     1      89.938 101.901  73.808  1.00  0.00     0.000 A 
ATOM     31  C   UNL     1      88.971 102.726  73.233  1.00  0.00     0.000 A 
ENDBRANCH  25  26
ENDBRANCH   7  25
BRANCH  14  32
ATOM     32  C   UNL     1      91.050 101.055  68.427  1.00  0.00    -0.046 C 
ATOM     33  C   UNL     1      90.760 101.268  66.971  1.00  0.00     0.042 C 
ATOM     34  C   UNL     1      90.080 100.769  69.308  1.00  0.00     0.010 C 
ENDBRANCH  14  32
ENDBRANCH   3   4
BRANCH   2  35
ATOM     35  C   UNL     1      97.279  98.286  70.201  1.00  0.00     0.078 CG0
ATOM     36  G   UNL     1      97.342  99.473  69.241  1.00  0.00     0.000 G0
ENDBRANCH   2  35
ENDBRANCH   1   2
BRANCH   1  37
ATOM     37  O   UNL     1      95.123  97.324  73.049  1.00  0.00    -0.461 OA
BRANCH  37  38
ATOM     38  C   UNL     1      95.570  97.932  74.200  1.00  0.00     0.310 C 
ATOM     39  O   UNL     1      96.745  98.112  74.488  1.00  0.00    -0.252 OA
BRANCH  38  40
ATOM     40  C   UNL     1      94.388  98.340  75.047  1.00  0.00     0.158 C 
BRANCH  40  41
ATOM     41  C   UNL     1      93.800  97.193  75.827  1.00  0.00    -0.033 A 
ATOM     42  C   UNL     1      93.069  96.203  75.168  1.00  0.00     0.054 A 
ATOM     43  C   UNL     1      93.986  97.119  77.207  1.00  0.00     0.008 A 
ATOM     44  C   UNL     1      92.524  95.141  75.890  1.00  0.00     0.160 A 
ATOM     45  C   UNL     1      93.441  96.057  77.929  1.00  0.00     0.050 A 
ATOM     46  C   UNL     1      92.711  95.068  77.271  1.00  0.00     0.157 A 
BRANCH  44  47
ATOM     47  O   UNL     1      91.813  94.182  75.236  1.00  0.00    -0.493 OA
ATOM     48  C   UNL     1      90.393  94.320  75.228  1.00  0.00     0.278 C 
ENDBRANCH  44  47
BRANCH  46  49
ATOM     49  O   UNL     1      92.185  94.036  77.986  1.00  0.00    -0.504 OA
ATOM     50  H   UNL     1      92.278  93.215  77.473  1.00  0.00     0.293 HD
ENDBRANCH  46  49
ENDBRANCH  40  41
ENDBRANCH  38  40
ENDBRANCH  37  38
ENDBRANCH   1  37
TORSDOF 11
ENDMDL
MODEL 5
REMARK VINA RESULT:    -5.403      3.851      9.075
REMARK INTER + INTRA:         -11.451
REMARK INTER:                 -10.196
REMARK INTRA:                  -1.255
REMARK UNBOUND:                -1.942
REMARK SMILES C=C(C)[C@]12C[C@@H](C)[C@@]34O[C@](Cc5ccccc5)(O[C@@H]1[C@@H]3C=C(COC(=O)Cc1ccc(O)c(OC)c1)C[C@]1(O)C(=O)C(C)=C[C@@H]41)O2
REMARK SMILES IDX 23 1 22 2 21 3 20 4 9 5 8 6 10 7 6 8 18 9 46 10 19 11 5 12
REMARK SMILES IDX 7 13 4 14 45 15 38 16 44 17 40 18 42 20 41 21 43 22 39 23
REMARK SMILES IDX 11 25 12 26 13 27 17 28 14 29 16 30 15 31 2 32 3 33 1 34
REMARK SMILES IDX 37 35 24 37 25 38 26 39 27 40 28 41 36 42 29 43 33 44 30 45
REMARK SMILES IDX 31 46 34 47 35 48 32 49
REMARK H PARENT 39 24 32 50
REMARK Flexibility Score: 90.00
ROOT
ATOM      1  C   UNL     1      74.825  95.294  67.468  1.00  0.00     0.264 C 
ENDROOT
BRANCH   1   2
ATOM      2  C   UNL     1      74.054  94.030  67.770  1.00  0.00    -0.033 C 
ATOM      3  C   UNL     1      74.296  92.920  67.045  1.00  0.00    -0.015 C 
BRANCH   3   4
ATOM      4  C   UNL     1      73.612  91.564  67.099  1.00  0.00     0.078 C 
ATOM      5  O   UNL     1      74.898  90.170  68.688  1.00  0.00    -0.319 OA
ATOM      6  C   UNL     1      73.592  90.789  68.469  1.00  0.00     0.095 C 
ATOM      7  C   UNL     1      75.484  89.542  67.532  1.00  0.00     0.289 C 
ATOM      8  C   UNL     1      72.488  89.657  68.364  1.00  0.00     0.023 C 
ATOM      9  O   UNL     1      75.628  90.467  66.458  1.00  0.00    -0.320 OA
ATOM     10  O   UNL     1      74.676  88.484  67.024  1.00  0.00    -0.313 OA
ATOM     11  C   UNL     1      74.254  90.609  66.062  1.00  0.00     0.170 C 
ATOM     12  C   UNL     1      72.380  89.097  66.912  1.00  0.00     0.049 C 
ATOM     13  C   UNL     1      72.644  88.489  69.352  1.00  0.00     0.011 C 
ATOM     14  C   UNL     1      73.721  89.159  66.180  1.00  0.00     0.122 C 
BRANCH   6  15
ATOM     15  C   UNL     1      73.426  91.777  69.659  1.00  0.00     0.086 C 
ATOM     16  C   UNL     1      72.402  92.914  69.461  1.00  0.00     0.140 CG0
ATOM     17  C   UNL     1      73.091  91.239  71.022  1.00  0.00    -0.010 C 
ATOM     18  C   UNL     1      71.844  93.097  70.856  1.00  0.00     0.190 C 
ATOM     19  G   UNL     1      73.051  94.187  68.918  1.00  0.00     0.000 G0
ATOM     20  C   UNL     1      72.226  91.972  71.731  1.00  0.00    -0.008 C 
ATOM     21  O   UNL     1      71.128  94.019  71.217  1.00  0.00    -0.291 OA
ATOM     22  C   UNL     1      71.740  91.797  73.115  1.00  0.00     0.048 C 
BRANCH  16  23
ATOM     23  O   UNL     1      71.271  92.540  68.691  1.00  0.00    -0.381 OA
ATOM     24  H   UNL     1      70.719  91.946  69.224  1.00  0.00     0.212 HD
ENDBRANCH  16  23
ENDBRANCH   6  15
BRANCH   7  25
ATOM     25  C   UNL     1      76.843  88.998  67.925  1.00  0.00     0.135 C 
BRANCH  25  26
ATOM     26  C   UNL     1      76.832  87.495  68.061  1.00  0.00    -0.040 A 
ATOM     27  C   UNL     1      77.173  86.694  66.971  1.00  0.00     0.004 A 
ATOM     28  C   UNL     1      76.483  86.907  69.276  1.00  0.00     0.004 A 
ATOM     29  C   UNL     1      77.163  85.304  67.097  1.00  0.00     0.000 A 
ATOM     30  C   UNL     1      76.473  85.518  69.402  1.00  0.00     0.000 A 
ATOM     31  C   UNL     1      76.813  84.717  68.312  1.00  0.00     0.000 A 
ENDBRANCH  25  26
ENDBRANCH   7  25
BRANCH  14  32
ATOM     32  C   UNL     1      73.686  88.465  64.858  1.00  0.00    -0.046 C 
ATOM     33  C   UNL     1      74.434  87.167  64.772  1.00  0.00     0.042 C 
ATOM     34  C   UNL     1      73.025  88.972  63.807  1.00  0.00     0.010 C 
ENDBRANCH  14  32
ENDBRANCH   3   4
BRANCH   2  35
ATOM     35  C   UNL     1      73.069  94.193  68.913  1.00  0.00     0.078 CG0
ATOM     36  G   UNL     1      72.399  92.927  69.444  1.00  0.00     0.000 G0
ENDBRANCH   2  35
ENDBRANCH   1   2
BRANCH   1  37
ATOM     37  O   UNL     1      75.716  95.563  68.529  1.00  0.00    -0.461 OA
BRANCH  37  38
ATOM     38  C   UNL     1      75.811  96.877  68.925  1.00  0.00     0.310 C 
ATOM     39  O   UNL     1      74.924  97.711  68.809  1.00  0.00    -0.252 OA
BRANCH  38  40
ATOM     40  C   UNL     1      77.176  97.126  69.522  1.00  0.00     0.158 C 
BRANCH  40  41
ATOM     41  C   UNL     1      77.263  96.733  70.974  1.00  0.00    -0.033 A 
ATOM     42  C   UNL     1      76.193  96.077  71.585  1.00  0.00     0.054 A 
ATOM     43  C   UNL     1      78.412  97.025  71.708  1.00  0.00     0.008 A 
ATOM     44  C   UNL     1      76.274  95.714  72.929  1.00  0.00     0.160 A 
ATOM     45  C   UNL     1      78.493  96.662  73.053  1.00  0.00     0.050 A 
ATOM     46  C   UNL     1      77.424  96.007  73.663  1.00  0.00     0.157 A 
BRANCH  44  47
ATOM     47  O   UNL     1      75.223  95.075  73.514  1.00  0.00    -0.493 OA
ATOM     48  C   UNL     1      75.182  93.653  73.397  1.00  0.00     0.278 C 
ENDBRANCH  44  47
BRANCH  46  49
ATOM     49  O   UNL     1      77.514  95.656  74.976  1.00  0.00    -0.504 OA
ATOM     50  H   UNL     1      76.682  95.236  75.250  1.00  0.00     0.293 HD
ENDBRANCH  46  49
ENDBRANCH  40  41
ENDBRANCH  38  40
ENDBRANCH  37  38
ENDBRANCH   1  37
TORSDOF 11
ENDMDL
MODEL 6
REMARK VINA RESULT:    -5.171      2.630      4.100
REMARK INTER + INTRA:         -11.043
REMARK INTER:                 -10.036
REMARK INTRA:                  -1.007
REMARK UNBOUND:                -1.942
REMARK SMILES C=C(C)[C@]12C[C@@H](C)[C@@]34O[C@](Cc5ccccc5)(O[C@@H]1[C@@H]3C=C(COC(=O)Cc1ccc(O)c(OC)c1)C[C@]1(O)C(=O)C(C)=C[C@@H]41)O2
REMARK SMILES IDX 23 1 22 2 21 3 20 4 9 5 8 6 10 7 6 8 18 9 46 10 19 11 5 12
REMARK SMILES IDX 7 13 4 14 45 15 38 16 44 17 40 18 42 20 41 21 43 22 39 23
REMARK SMILES IDX 11 25 12 26 13 27 17 28 14 29 16 30 15 31 2 32 3 33 1 34
REMARK SMILES IDX 37 35 24 37 25 38 26 39 27 40 28 41 36 42 29 43 33 44 30 45
REMARK SMILES IDX 31 46 34 47 35 48 32 49
REMARK H PARENT 39 24 32 50
REMARK Flexibility Score: 90.00
ROOT
ATOM      1  C   UNL     1      68.797  87.541  68.516  1.00  0.00     0.264 C 
ENDROOT
BRANCH   1   2
ATOM      2  C   UNL     1      69.816  87.488  67.402  1.00  0.00    -0.033 C 
ATOM      3  C   UNL     1      70.731  88.473  67.298  1.00  0.00    -0.015 C 
BRANCH   3   4
ATOM      4  C   UNL     1      71.799  88.689  66.238  1.00  0.00     0.078 C 
ATOM      5  O   UNL     1      73.861  87.598  67.061  1.00  0.00    -0.319 OA
ATOM      6  C   UNL     1      72.858  87.550  65.999  1.00  0.00     0.095 C 
ATOM      7  C   UNL     1      74.315  88.917  67.420  1.00  0.00     0.289 C 
ATOM      8  C   UNL     1      73.558  87.829  64.605  1.00  0.00     0.023 C 
ATOM      9  O   UNL     1      73.228  89.746  67.825  1.00  0.00    -0.320 OA
ATOM     10  O   UNL     1      74.929  89.595  66.327  1.00  0.00    -0.313 OA
ATOM     11  C   UNL     1      72.600  89.976  66.554  1.00  0.00     0.170 C 
ATOM     12  C   UNL     1      73.672  89.358  64.320  1.00  0.00     0.049 C 
ATOM     13  C   UNL     1      74.933  87.169  64.413  1.00  0.00     0.011 C 
ATOM     14  C   UNL     1      73.814  90.166  65.611  1.00  0.00     0.122 C 
BRANCH   6  15
ATOM     15  C   UNL     1      72.202  86.146  66.149  1.00  0.00     0.086 C 
ATOM     16  C   UNL     1      70.812  85.974  65.503  1.00  0.00     0.140 CG0
ATOM     17  C   UNL     1      72.955  84.929  65.690  1.00  0.00    -0.010 C 
ATOM     18  C   UNL     1      70.843  84.531  65.044  1.00  0.00     0.190 C 
ATOM     19  G   UNL     1      69.679  86.249  66.490  1.00  0.00     0.000 G0
ATOM     20  C   UNL     1      72.215  83.991  65.090  1.00  0.00    -0.008 C 
ATOM     21  O   UNL     1      69.881  83.897  64.637  1.00  0.00    -0.291 OA
ATOM     22  C   UNL     1      72.594  82.652  64.593  1.00  0.00     0.048 C 
BRANCH  16  23
ATOM     23  O   UNL     1      70.642  86.708  64.302  1.00  0.00    -0.381 OA
ATOM     24  H   UNL     1      70.949  86.160  63.561  1.00  0.00     0.212 HD
ENDBRANCH  16  23
ENDBRANCH   6  15
BRANCH   7  25
ATOM     25  C   UNL     1      75.309  88.785  68.556  1.00  0.00     0.135 C 
BRANCH  25  26
ATOM     26  C   UNL     1      75.915  87.405  68.620  1.00  0.00    -0.040 A 
ATOM     27  C   UNL     1      75.356  86.436  69.453  1.00  0.00     0.004 A 
ATOM     28  C   UNL     1      77.032  87.098  67.844  1.00  0.00     0.004 A 
ATOM     29  C   UNL     1      75.917  85.160  69.512  1.00  0.00     0.000 A 
ATOM     30  C   UNL     1      77.593  85.821  67.903  1.00  0.00     0.000 A 
ATOM     31  C   UNL     1      77.034  84.853  68.737  1.00  0.00     0.000 A 
ENDBRANCH  25  26
ENDBRANCH   7  25
BRANCH  14  32
ATOM     32  C   UNL     1      74.108  91.608  65.357  1.00  0.00    -0.046 C 
ATOM     33  C   UNL     1      73.822  92.108  63.972  1.00  0.00     0.042 C 
ATOM     34  C   UNL     1      74.599  92.411  66.312  1.00  0.00     0.010 C 
ENDBRANCH  14  32
ENDBRANCH   3   4
BRANCH   2  35
ATOM     35  C   UNL     1      69.666  86.265  66.516  1.00  0.00     0.078 CG0
ATOM     36  G   UNL     1      70.801  85.969  65.537  1.00  0.00     0.000 G0
ENDBRANCH   2  35
ENDBRANCH   1   2
BRANCH   1  37
ATOM     37  O   UNL     1      68.432  86.227  68.879  1.00  0.00    -0.461 OA
BRANCH  37  38
ATOM     38  C   UNL     1      69.013  85.729  70.022  1.00  0.00     0.310 C 
ATOM     39  O   UNL     1      70.151  85.977  70.398  1.00  0.00    -0.252 OA
BRANCH  38  40
ATOM     40  C   UNL     1      68.031  84.830  70.737  1.00  0.00     0.158 C 
BRANCH  40  41
ATOM     41  C   UNL     1      67.361  85.505  71.906  1.00  0.00    -0.033 A 
ATOM     42  C   UNL     1      66.176  86.217  71.714  1.00  0.00     0.054 A 
ATOM     43  C   UNL     1      67.924  85.416  73.179  1.00  0.00     0.008 A 
ATOM     44  C   UNL     1      65.556  86.841  72.797  1.00  0.00     0.160 A 
ATOM     45  C   UNL     1      67.303  86.040  74.261  1.00  0.00     0.050 A 
ATOM     46  C   UNL     1      66.119  86.753  74.070  1.00  0.00     0.157 A 
BRANCH  44  47
ATOM     47  O   UNL     1      64.400  87.534  72.597  1.00  0.00    -0.493 OA
ATOM     48  C   UNL     1      63.178  86.841  72.843  1.00  0.00     0.278 C 
ENDBRANCH  44  47
BRANCH  46  49
ATOM     49  O   UNL     1      65.522  87.357  75.134  1.00  0.00    -0.504 OA
ATOM     50  H   UNL     1      64.757  87.868  74.820  1.00  0.00     0.293 HD
ENDBRANCH  46  49
ENDBRANCH  40  41
ENDBRANCH  38  40
ENDBRANCH  37  38
ENDBRANCH   1  37
TORSDOF 11
ENDMDL
MODEL 7
REMARK VINA RESULT:    -5.156     22.018     25.640
REMARK INTER + INTRA:         -11.017
REMARK INTER:                  -9.513
REMARK INTRA:                  -1.504
REMARK UNBOUND:                -1.942
REMARK SMILES C=C(C)[C@]12C[C@@H](C)[C@@]34O[C@](Cc5ccccc5)(O[C@@H]1[C@@H]3C=C(COC(=O)Cc1ccc(O)c(OC)c1)C[C@]1(O)C(=O)C(C)=C[C@@H]41)O2
REMARK SMILES IDX 23 1 22 2 21 3 20 4 9 5 8 6 10 7 6 8 18 9 46 10 19 11 5 12
REMARK SMILES IDX 7 13 4 14 45 15 38 16 44 17 40 18 42 20 41 21 43 22 39 23
REMARK SMILES IDX 11 25 12 26 13 27 17 28 14 29 16 30 15 31 2 32 3 33 1 34
REMARK SMILES IDX 37 35 24 37 25 38 26 39 27 40 28 41 36 42 29 43 33 44 30 45
REMARK SMILES IDX 31 46 34 47 35 48 32 49
REMARK H PARENT 39 24 32 50
REMARK Flexibility Score: 90.00
ROOT
ATOM      1  C   UNL     1      96.748  97.351  71.007  1.00  0.00     0.264 C 
ENDROOT
BRANCH   1   2
ATOM      2  C   UNL     1      96.108  98.311  70.031  1.00  0.00    -0.033 C 
ATOM      3  C   UNL     1      94.917  98.864  70.336  1.00  0.00    -0.015 C 
BRANCH   3   4
ATOM      4  C   UNL     1      94.040  99.786  69.504  1.00  0.00     0.078 C 
ATOM      5  O   UNL     1      94.670 102.104  70.092  1.00  0.00    -0.319 OA
ATOM      6  C   UNL     1      94.653 101.142  68.992  1.00  0.00     0.095 C 
ATOM      7  C   UNL     1      93.482 102.131  70.906  1.00  0.00     0.289 C 
ATOM      8  C   UNL     1      93.717 101.686  67.835  1.00  0.00     0.023 C 
ATOM      9  O   UNL     1      93.211 100.850  71.467  1.00  0.00    -0.320 OA
ATOM     10  O   UNL     1      92.320 102.476  70.156  1.00  0.00    -0.313 OA
ATOM     11  C   UNL     1      92.761 100.151  70.296  1.00  0.00     0.170 C 
ATOM     12  C   UNL     1      92.224 101.309  68.084  1.00  0.00     0.049 C 
ATOM     13  C   UNL     1      93.824 103.193  67.553  1.00  0.00     0.011 C 
ATOM     14  C   UNL     1      91.904 101.223  69.577  1.00  0.00     0.122 C 
BRANCH   6  15
ATOM     15  C   UNL     1      96.151 100.962  68.611  1.00  0.00     0.086 C 
ATOM     16  C   UNL     1      96.506  99.674  67.840  1.00  0.00     0.140 CG0
ATOM     17  C   UNL     1      96.847 102.041  67.830  1.00  0.00    -0.010 C 
ATOM     18  C   UNL     1      97.622 100.138  66.927  1.00  0.00     0.190 C 
ATOM     19  G   UNL     1      96.944  98.545  68.772  1.00  0.00     0.000 G0
ATOM     20  C   UNL     1      97.701 101.610  66.895  1.00  0.00    -0.008 C 
ATOM     21  O   UNL     1      98.338  99.409  66.257  1.00  0.00    -0.291 OA
ATOM     22  C   UNL     1      98.605 102.372  66.009  1.00  0.00     0.048 C 
BRANCH  16  23
ATOM     23  O   UNL     1      95.494  99.244  66.945  1.00  0.00    -0.381 OA
ATOM     24  H   UNL     1      95.597  99.727  66.109  1.00  0.00     0.212 HD
ENDBRANCH  16  23
ENDBRANCH   6  15
BRANCH   7  25
ATOM     25  C   UNL     1      93.688 103.144  72.014  1.00  0.00     0.135 C 
BRANCH  25  26
ATOM     26  C   UNL     1      94.702 102.674  73.028  1.00  0.00    -0.040 A 
ATOM     27  C   UNL     1      94.309 102.424  74.343  1.00  0.00     0.004 A 
ATOM     28  C   UNL     1      96.031 102.487  72.650  1.00  0.00     0.004 A 
ATOM     29  C   UNL     1      95.246 101.990  75.281  1.00  0.00     0.000 A 
ATOM     30  C   UNL     1      96.968 102.053  73.588  1.00  0.00     0.000 A 
ATOM     31  C   UNL     1      96.575 101.804  74.903  1.00  0.00     0.000 A 
ENDBRANCH  25  26
ENDBRANCH   7  25
BRANCH  14  32
ATOM     32  C   UNL     1      90.444 101.044  69.842  1.00  0.00    -0.046 C 
ATOM     33  C   UNL     1      90.019  99.688  70.320  1.00  0.00     0.042 C 
ATOM     34  C   UNL     1      89.563 102.040  69.661  1.00  0.00     0.010 C 
ENDBRANCH  14  32
ENDBRANCH   3   4
BRANCH   2  35
ATOM     35  C   UNL     1      96.941  98.535  68.784  1.00  0.00     0.078 CG0
ATOM     36  G   UNL     1      96.513  99.666  67.851  1.00  0.00     0.000 G0
ENDBRANCH   2  35
ENDBRANCH   1   2
BRANCH   1  37
ATOM     37  O   UNL     1      95.884  97.156  72.106  1.00  0.00    -0.461 OA
BRANCH  37  38
ATOM     38  C   UNL     1      96.275  97.723  73.296  1.00  0.00     0.310 C 
ATOM     39  O   UNL     1      97.431  97.813  73.685  1.00  0.00    -0.252 OA
BRANCH  38  40
ATOM     40  C   UNL     1      95.059  98.216  74.044  1.00  0.00     0.158 C 
BRANCH  40  41
ATOM     41  C   UNL     1      94.587  97.250  75.101  1.00  0.00    -0.033 A 
ATOM     42  C   UNL     1      93.666  96.253  74.773  1.00  0.00     0.054 A 
ATOM     43  C   UNL     1      95.071  97.351  76.405  1.00  0.00     0.008 A 
ATOM     44  C   UNL     1      93.230  95.359  75.751  1.00  0.00     0.160 A 
ATOM     45  C   UNL     1      94.634  96.456  77.382  1.00  0.00     0.050 A 
ATOM     46  C   UNL     1      93.714  95.461  77.056  1.00  0.00     0.157 A 
BRANCH  44  47
ATOM     47  O   UNL     1      92.331  94.391  75.419  1.00  0.00    -0.493 OA
ATOM     48  C   UNL     1      90.955  94.668  75.677  1.00  0.00     0.278 C 
ENDBRANCH  44  47
BRANCH  46  49
ATOM     49  O   UNL     1      93.296  94.593  78.018  1.00  0.00    -0.504 OA
ATOM     50  H   UNL     1      93.565  94.931  78.888  1.00  0.00     0.293 HD
ENDBRANCH  46  49
ENDBRANCH  40  41
ENDBRANCH  38  40
ENDBRANCH  37  38
ENDBRANCH   1  37
TORSDOF 11
ENDMDL
MODEL 8
REMARK VINA RESULT:    -4.922     19.113     24.968
REMARK INTER + INTRA:         -10.605
REMARK INTER:                  -9.298
REMARK INTRA:                  -1.306
REMARK UNBOUND:                -1.942
REMARK SMILES C=C(C)[C@]12C[C@@H](C)[C@@]34O[C@](Cc5ccccc5)(O[C@@H]1[C@@H]3C=C(COC(=O)Cc1ccc(O)c(OC)c1)C[C@]1(O)C(=O)C(C)=C[C@@H]41)O2
REMARK SMILES IDX 23 1 22 2 21 3 20 4 9 5 8 6 10 7 6 8 18 9 46 10 19 11 5 12
REMARK SMILES IDX 7 13 4 14 45 15 38 16 44 17 40 18 42 20 41 21 43 22 39 23
REMARK SMILES IDX 11 25 12 26 13 27 17 28 14 29 16 30 15 31 2 32 3 33 1 34
REMARK SMILES IDX 37 35 24 37 25 38 26 39 27 40 28 41 36 42 29 43 33 44 30 45
REMARK SMILES IDX 31 46 34 47 35 48 32 49
REMARK H PARENT 39 24 32 50
REMARK Flexibility Score: 90.00
ROOT
ATOM      1  C   UNL     1      61.741  79.977  88.218  1.00  0.00     0.264 C 
ENDROOT
BRANCH   1   2
ATOM      2  C   UNL     1      60.327  79.593  87.850  1.00  0.00    -0.033 C 
ATOM      3  C   UNL     1      59.306  80.017  88.621  1.00  0.00    -0.015 C 
BRANCH   3   4
ATOM      4  C   UNL     1      57.821  79.709  88.513  1.00  0.00     0.078 C 
ATOM      5  O   UNL     1      56.810  81.509  87.149  1.00  0.00    -0.319 OA
ATOM      6  C   UNL     1      57.077  80.073  87.174  1.00  0.00     0.095 C 
ATOM      7  C   UNL     1      56.341  82.070  88.390  1.00  0.00     0.289 C 
ATOM      8  C   UNL     1      55.703  79.284  87.159  1.00  0.00     0.023 C 
ATOM      9  O   UNL     1      57.264  81.828  89.449  1.00  0.00    -0.320 OA
ATOM     10  O   UNL     1      55.109  81.491  88.813  1.00  0.00    -0.313 OA
ATOM     11  C   UNL     1      57.051  80.422  89.652  1.00  0.00     0.170 C 
ATOM     12  C   UNL     1      55.122  79.122  88.598  1.00  0.00     0.049 C 
ATOM     13  C   UNL     1      54.620  79.862  86.233  1.00  0.00     0.011 C 
ATOM     14  C   UNL     1      55.515  80.291  89.502  1.00  0.00     0.122 C 
BRANCH   6  15
ATOM     15  C   UNL     1      58.001  79.828  85.945  1.00  0.00     0.086 C 
ATOM     16  C   UNL     1      58.841  78.534  85.973  1.00  0.00     0.140 CG0
ATOM     17  C   UNL     1      57.407  79.830  84.565  1.00  0.00    -0.010 C 
ATOM     18  C   UNL     1      58.888  78.145  84.510  1.00  0.00     0.190 C 
ATOM     19  G   UNL     1      60.232  78.761  86.563  1.00  0.00     0.000 G0
ATOM     20  C   UNL     1      57.904  78.915  83.726  1.00  0.00    -0.008 C 
ATOM     21  O   UNL     1      59.602  77.277  84.031  1.00  0.00    -0.291 OA
ATOM     22  C   UNL     1      57.622  78.684  82.294  1.00  0.00     0.048 C 
BRANCH  16  23
ATOM     23  O   UNL     1      58.187  77.439  86.593  1.00  0.00    -0.381 OA
ATOM     24  H   UNL     1      58.812  76.697  86.644  1.00  0.00     0.212 HD
ENDBRANCH  16  23
ENDBRANCH   6  15
BRANCH   7  25
ATOM     25  C   UNL     1      56.160  83.562  88.199  1.00  0.00     0.135 C 
BRANCH  25  26
ATOM     26  C   UNL     1      57.481  84.278  88.057  1.00  0.00    -0.040 A 
ATOM     27  C   UNL     1      58.214  84.159  86.876  1.00  0.00     0.004 A 
ATOM     28  C   UNL     1      57.967  85.059  89.104  1.00  0.00     0.004 A 
ATOM     29  C   UNL     1      59.436  84.820  86.744  1.00  0.00     0.000 A 
ATOM     30  C   UNL     1      59.188  85.721  88.972  1.00  0.00     0.000 A 
ATOM     31  C   UNL     1      59.922  85.601  87.792  1.00  0.00     0.000 A 
ENDBRANCH  25  26
ENDBRANCH   7  25
BRANCH  14  32
ATOM     32  C   UNL     1      54.824  80.251  90.825  1.00  0.00    -0.046 C 
ATOM     33  C   UNL     1      55.622  80.723  92.004  1.00  0.00     0.042 C 
ATOM     34  C   UNL     1      53.560  79.817  90.953  1.00  0.00     0.010 C 
ENDBRANCH  14  32
ENDBRANCH   3   4
BRANCH   2  35
ATOM     35  C   UNL     1      60.248  78.746  86.593  1.00  0.00     0.078 CG0
ATOM     36  G   UNL     1      58.864  78.523  85.986  1.00  0.00     0.000 G0
ENDBRANCH   2  35
ENDBRANCH   1   2
BRANCH   1  37
ATOM     37  O   UNL     1      62.613  78.916  87.890  1.00  0.00    -0.461 OA
BRANCH  37  38
ATOM     38  C   UNL     1      63.890  79.271  87.521  1.00  0.00     0.310 C 
ATOM     39  O   UNL     1      64.897  79.058  88.182  1.00  0.00    -0.252 OA
BRANCH  38  40
ATOM     40  C   UNL     1      63.853  79.961  86.177  1.00  0.00     0.158 C 
BRANCH  40  41
ATOM     41  C   UNL     1      63.797  78.995  85.022  1.00  0.00    -0.033 A 
ATOM     42  C   UNL     1      62.951  79.250  83.941  1.00  0.00     0.054 A 
ATOM     43  C   UNL     1      64.589  77.848  85.032  1.00  0.00     0.008 A 
ATOM     44  C   UNL     1      62.899  78.356  82.871  1.00  0.00     0.160 A 
ATOM     45  C   UNL     1      64.537  76.954  83.962  1.00  0.00     0.050 A 
ATOM     46  C   UNL     1      63.692  77.207  82.882  1.00  0.00     0.157 A 
BRANCH  44  47
ATOM     47  O   UNL     1      62.070  78.615  81.822  1.00  0.00    -0.493 OA
ATOM     48  C   UNL     1      62.586  79.437  80.776  1.00  0.00     0.278 C 
ENDBRANCH  44  47
BRANCH  46  49
ATOM     49  O   UNL     1      63.650  76.328  81.843  1.00  0.00    -0.504 OA
ATOM     50  H   UNL     1      63.049  75.598  82.070  1.00  0.00     0.293 HD
ENDBRANCH  46  49
ENDBRANCH  40  41
ENDBRANCH  38  40
ENDBRANCH  37  38
ENDBRANCH   1  37
TORSDOF 11
ENDMDL
MODEL 9
REMARK VINA RESULT:    -4.490     27.428     31.117
REMARK INTER + INTRA:          -9.844
REMARK INTER:                  -8.314
REMARK INTRA:                  -1.530
REMARK UNBOUND:                -1.942
REMARK SMILES C=C(C)[C@]12C[C@@H](C)[C@@]34O[C@](Cc5ccccc5)(O[C@@H]1[C@@H]3C=C(COC(=O)Cc1ccc(O)c(OC)c1)C[C@]1(O)C(=O)C(C)=C[C@@H]41)O2
REMARK SMILES IDX 23 1 22 2 21 3 20 4 9 5 8 6 10 7 6 8 18 9 46 10 19 11 5 12
REMARK SMILES IDX 7 13 4 14 45 15 38 16 44 17 40 18 42 20 41 21 43 22 39 23
REMARK SMILES IDX 11 25 12 26 13 27 17 28 14 29 16 30 15 31 2 32 3 33 1 34
REMARK SMILES IDX 37 35 24 37 25 38 26 39 27 40 28 41 36 42 29 43 33 44 30 45
REMARK SMILES IDX 31 46 34 47 35 48 32 49
REMARK H PARENT 39 24 32 50
REMARK Flexibility Score: 90.00
ROOT
ATOM      1  C   UNL     1      98.638  76.682  80.250  1.00  0.00     0.264 C 
ENDROOT
BRANCH   1   2
ATOM      2  C   UNL     1      98.939  77.722  81.304  1.00  0.00    -0.033 C 
ATOM      3  C   UNL     1      97.939  78.497  81.770  1.00  0.00    -0.015 C 
BRANCH   3   4
ATOM      4  C   UNL     1      97.993  79.650  82.759  1.00  0.00     0.078 C 
ATOM      5  O   UNL     1      97.581  78.694  85.003  1.00  0.00    -0.319 OA
ATOM      6  C   UNL     1      98.585  79.380  84.193  1.00  0.00     0.095 C 
ATOM      7  C   UNL     1      96.238  79.200  84.880  1.00  0.00     0.289 C 
ATOM      8  C   UNL     1      98.916  80.784  84.848  1.00  0.00     0.023 C 
ATOM      9  O   UNL     1      95.792  79.158  83.527  1.00  0.00    -0.320 OA
ATOM     10  O   UNL     1      96.136  80.565  85.277  1.00  0.00    -0.313 OA
ATOM     11  C   UNL     1      96.572  80.228  82.971  1.00  0.00     0.170 C 
ATOM     12  C   UNL     1      97.908  81.881  84.387  1.00  0.00     0.049 C 
ATOM     13  C   UNL     1      99.013  80.791  86.382  1.00  0.00     0.011 C 
ATOM     14  C   UNL     1      96.527  81.294  84.094  1.00  0.00     0.122 C 
BRANCH   6  15
ATOM     15  C   UNL     1      99.775  78.379  84.119  1.00  0.00     0.086 C 
ATOM     16  C   UNL     1     100.763  78.583  82.952  1.00  0.00     0.140 CG0
ATOM     17  C   UNL     1     100.672  78.213  85.313  1.00  0.00    -0.010 C 
ATOM     18  C   UNL     1     102.084  78.174  83.569  1.00  0.00     0.190 C 
ATOM     19  G   UNL     1     100.400  77.737  81.733  1.00  0.00     0.000 G0
ATOM     20  C   UNL     1     101.972  78.067  85.036  1.00  0.00    -0.008 C 
ATOM     21  O   UNL     1     103.128  78.001  82.958  1.00  0.00    -0.291 OA
ATOM     22  C   UNL     1     103.113  77.803  85.937  1.00  0.00     0.048 C 
BRANCH  16  23
ATOM     23  O   UNL     1     100.962  79.942  82.599  1.00  0.00    -0.381 OA
ATOM     24  H   UNL     1     100.262  80.203  81.978  1.00  0.00     0.212 HD
ENDBRANCH  16  23
ENDBRANCH   6  15
BRANCH   7  25
ATOM     25  C   UNL     1      95.329  78.352  85.746  1.00  0.00     0.135 C 
BRANCH  25  26
ATOM     26  C   UNL     1      93.960  78.185  85.134  1.00  0.00    -0.040 A 
ATOM     27  C   UNL     1      93.661  77.039  84.397  1.00  0.00     0.004 A 
ATOM     28  C   UNL     1      92.994  79.176  85.305  1.00  0.00     0.004 A 
ATOM     29  C   UNL     1      92.395  76.884  83.831  1.00  0.00     0.000 A 
ATOM     30  C   UNL     1      91.728  79.021  84.739  1.00  0.00     0.000 A 
ATOM     31  C   UNL     1      91.429  77.875  84.002  1.00  0.00     0.000 A 
ENDBRANCH  25  26
ENDBRANCH   7  25
BRANCH  14  32
ATOM     32  C   UNL     1      95.500  82.346  83.829  1.00  0.00    -0.046 C 
ATOM     33  C   UNL     1      95.887  83.419  82.855  1.00  0.00     0.042 C 
ATOM     34  C   UNL     1      94.299  82.332  84.428  1.00  0.00     0.010 C 
ENDBRANCH  14  32
ENDBRANCH   3   4
BRANCH   2  35
ATOM     35  C   UNL     1     100.399  77.745  81.717  1.00  0.00     0.078 CG0
ATOM     36  G   UNL     1     100.761  78.562  82.956  1.00  0.00     0.000 G0
ENDBRANCH   2  35
ENDBRANCH   1   2
BRANCH   1  37
ATOM     37  O   UNL     1      99.044  77.166  78.988  1.00  0.00    -0.461 OA
BRANCH  37  38
ATOM     38  C   UNL     1      98.037  77.528  78.123  1.00  0.00     0.310 C 
ATOM     39  O   UNL     1      97.424  76.758  77.397  1.00  0.00    -0.252 OA
BRANCH  38  40
ATOM     40  C   UNL     1      97.809  79.019  78.209  1.00  0.00     0.158 C 
BRANCH  40  41
ATOM     41  C   UNL     1      99.048  79.822  77.905  1.00  0.00    -0.033 A 
ATOM     42  C   UNL     1      99.913  80.188  78.938  1.00  0.00     0.054 A 
ATOM     43  C   UNL     1      99.331  80.198  76.593  1.00  0.00     0.008 A 
ATOM     44  C   UNL     1     101.059  80.931  78.657  1.00  0.00     0.160 A 
ATOM     45  C   UNL     1     100.478  80.941  76.312  1.00  0.00     0.050 A 
ATOM     46  C   UNL     1     101.342  81.308  77.343  1.00  0.00     0.157 A 
BRANCH  44  47
ATOM     47  O   UNL     1     101.895  81.282  79.673  1.00  0.00    -0.493 OA
ATOM     48  C   UNL     1     103.121  80.560  79.784  1.00  0.00     0.278 C 
ENDBRANCH  44  47
BRANCH  46  49
ATOM     49  O   UNL     1     102.459  82.032  77.057  1.00  0.00    -0.504 OA
ATOM     50  H   UNL     1     103.161  81.428  76.762  1.00  0.00     0.293 HD
ENDBRANCH  46  49
ENDBRANCH  40  41
ENDBRANCH  38  40
ENDBRANCH  37  38
ENDBRANCH   1  37
TORSDOF 11
ENDMDL
MODEL 10
REMARK VINA RESULT:    -4.421      6.437     10.757
REMARK INTER + INTRA:          -9.723
REMARK INTER:                  -8.177
REMARK INTRA:                  -1.547
REMARK UNBOUND:                -1.942
REMARK SMILES C=C(C)[C@]12C[C@@H](C)[C@@]34O[C@](Cc5ccccc5)(O[C@@H]1[C@@H]3C=C(COC(=O)Cc1ccc(O)c(OC)c1)C[C@]1(O)C(=O)C(C)=C[C@@H]41)O2
REMARK SMILES IDX 23 1 22 2 21 3 20 4 9 5 8 6 10 7 6 8 18 9 46 10 19 11 5 12
REMARK SMILES IDX 7 13 4 14 45 15 38 16 44 17 40 18 42 20 41 21 43 22 39 23
REMARK SMILES IDX 11 25 12 26 13 27 17 28 14 29 16 30 15 31 2 32 3 33 1 34
REMARK SMILES IDX 37 35 24 37 25 38 26 39 27 40 28 41 36 42 29 43 33 44 30 45
REMARK SMILES IDX 31 46 34 47 35 48 32 49
REMARK H PARENT 39 24 32 50
REMARK Flexibility Score: 90.00
ROOT
ATOM      1  C   UNL     1      71.605  94.587  73.275  1.00  0.00     0.264 C 
ENDROOT
BRANCH   1   2
ATOM      2  C   UNL     1      73.029  94.584  73.780  1.00  0.00    -0.033 C 
ATOM      3  C   UNL     1      73.922  95.439  73.241  1.00  0.00    -0.015 C 
BRANCH   3   4
ATOM      4  C   UNL     1      75.410  95.579  73.514  1.00  0.00     0.078 C 
ATOM      5  O   UNL     1      75.659  97.266  75.305  1.00  0.00    -0.319 OA
ATOM      6  C   UNL     1      75.878  95.856  74.991  1.00  0.00     0.095 C 
ATOM      7  C   UNL     1      76.024  98.194  74.266  1.00  0.00     0.289 C 
ATOM      8  C   UNL     1      77.428  95.537  75.072  1.00  0.00     0.023 C 
ATOM      9  O   UNL     1      75.324  97.915  73.055  1.00  0.00    -0.320 OA
ATOM     10  O   UNL     1      77.408  98.119  73.936  1.00  0.00    -0.313 OA
ATOM     11  C   UNL     1      76.000  96.716  72.644  1.00  0.00     0.170 C 
ATOM     12  C   UNL     1      78.150  95.868  73.730  1.00  0.00     0.049 C 
ATOM     13  C   UNL     1      78.179  96.204  76.235  1.00  0.00     0.011 C 
ATOM     14  C   UNL     1      77.476  97.028  72.996  1.00  0.00     0.122 C 
BRANCH   6  15
ATOM     15  C   UNL     1      74.983  95.088  76.006  1.00  0.00     0.086 C 
ATOM     16  C   UNL     1      74.613  93.639  75.627  1.00  0.00     0.140 CG0
ATOM     17  C   UNL     1      75.426  94.973  77.438  1.00  0.00    -0.010 C 
ATOM     18  C   UNL     1      74.571  92.950  76.974  1.00  0.00     0.190 C 
ATOM     19  G   UNL     1      73.279  93.559  74.887  1.00  0.00     0.000 G0
ATOM     20  C   UNL     1      75.183  93.793  78.019  1.00  0.00    -0.008 C 
ATOM     21  O   UNL     1      74.139  91.826  77.181  1.00  0.00    -0.291 OA
ATOM     22  C   UNL     1      75.403  93.355  79.413  1.00  0.00     0.048 C 
BRANCH  16  23
ATOM     23  O   UNL     1      75.636  92.951  74.926  1.00  0.00    -0.381 OA
ATOM     24  H   UNL     1      76.496  93.270  75.247  1.00  0.00     0.212 HD
ENDBRANCH  16  23
ENDBRANCH   6  15
BRANCH   7  25
ATOM     25  C   UNL     1      75.691  99.594  74.739  1.00  0.00     0.135 C 
BRANCH  25  26
ATOM     26  C   UNL     1      76.581 100.632  74.103  1.00  0.00    -0.040 A 
ATOM     27  C   UNL     1      76.231 101.194  72.875  1.00  0.00     0.004 A 
ATOM     28  C   UNL     1      77.754 101.032  74.743  1.00  0.00     0.004 A 
ATOM     29  C   UNL     1      77.055 102.155  72.287  1.00  0.00     0.000 A 
ATOM     30  C   UNL     1      78.578 101.992  74.155  1.00  0.00     0.000 A 
ATOM     31  C   UNL     1      78.228 102.553  72.927  1.00  0.00     0.000 A 
ENDBRANCH  25  26
ENDBRANCH   7  25
BRANCH  14  32
ATOM     32  C   UNL     1      78.254  97.481  71.803  1.00  0.00    -0.046 C 
ATOM     33  C   UNL     1      78.200  96.589  70.599  1.00  0.00     0.042 C 
ATOM     34  C   UNL     1      78.959  98.622  71.809  1.00  0.00     0.010 C 
ENDBRANCH  14  32
ENDBRANCH   3   4
BRANCH   2  35
ATOM     35  C   UNL     1      73.267  93.573  74.885  1.00  0.00     0.078 CG0
ATOM     36  G   UNL     1      74.606  93.639  75.618  1.00  0.00     0.000 G0
ENDBRANCH   2  35
ENDBRANCH   1   2
BRANCH   1  37
ATOM     37  O   UNL     1      71.248  93.280  72.879  1.00  0.00    -0.461 OA
BRANCH  37  38
ATOM     38  C   UNL     1      71.296  93.019  71.529  1.00  0.00     0.310 C 
ATOM     39  O   UNL     1      71.370  93.868  70.652  1.00  0.00    -0.252 OA
BRANCH  38  40
ATOM     40  C   UNL     1      71.241  91.527  71.302  1.00  0.00     0.158 C 
BRANCH  40  41
ATOM     41  C   UNL     1      72.501  90.981  70.681  1.00  0.00    -0.033 A 
ATOM     42  C   UNL     1      72.426  90.169  69.549  1.00  0.00     0.054 A 
ATOM     43  C   UNL     1      73.743  91.286  71.238  1.00  0.00     0.008 A 
ATOM     44  C   UNL     1      73.592  89.663  68.974  1.00  0.00     0.160 A 
ATOM     45  C   UNL     1      74.909  90.781  70.664  1.00  0.00     0.050 A 
ATOM     46  C   UNL     1      74.834  89.969  69.532  1.00  0.00     0.157 A 
BRANCH  44  47
ATOM     47  O   UNL     1      73.505  88.872  67.869  1.00  0.00    -0.493 OA
ATOM     48  C   UNL     1      73.084  87.523  68.069  1.00  0.00     0.278 C 
ENDBRANCH  44  47
BRANCH  46  49
ATOM     49  O   UNL     1      75.979  89.482  68.979  1.00  0.00    -0.504 OA
ATOM     50  H   UNL     1      76.683  89.489  69.650  1.00  0.00     0.293 HD
ENDBRANCH  46  49
ENDBRANCH  40  41
ENDBRANCH  38  40
ENDBRANCH  37  38
ENDBRANCH   1  37
TORSDOF 11
ENDMDL
