MODEL 1
REMARK VINA RESULT:    -6.079      0.000      0.000
REMARK INTER + INTRA:         -10.669
REMARK INTER:                  -9.987
REMARK INTRA:                  -0.682
REMARK UNBOUND:                -0.682
REMARK SMILES CCCCC[C@H](O)CC(=O)CCc1ccc(O)c(OC)c1
REMARK SMILES IDX 8 1 6 2 7 3 5 5 4 6 3 7 2 8 1 9 9 10 10 11 11 12 12 13 13 14
REMARK SMILES IDX 21 15 14 16 18 17 15 18 16 19 19 20 20 21 17 22
REMARK H PARENT 7 4 17 23
REMARK Flexibility Score: inf
ROOT
ATOM      1  C   UNL     1      77.310  85.393  67.369  1.00  0.00     0.107 C 
ENDROOT
BRANCH   1   2
ATOM      2  C   UNL     1      77.538  85.769  68.836  1.00  0.00     0.121 C 
BRANCH   2   3
ATOM      3  O   UNL     1      78.854  85.392  69.232  1.00  0.00    -0.393 OA
ATOM      4  H   UNL     1      78.877  84.421  69.300  1.00  0.00     0.210 HD
ENDBRANCH   2   3
BRANCH   2   5
ATOM      5  C   UNL     1      77.337  87.265  69.110  1.00  0.00     0.032 C 
BRANCH   5   6
ATOM      6  C   UNL     1      76.094  87.532  69.967  1.00  0.00     0.003 C 
BRANCH   6   7
ATOM      7  C   UNL     1      75.906  89.011  70.319  1.00  0.00    -0.000 C 
BRANCH   7   8
ATOM      8  C   UNL     1      74.628  89.296  71.105  1.00  0.00    -0.003 C 
ATOM      9  C   UNL     1      73.711  88.082  71.131  1.00  0.00     0.004 C 
ENDBRANCH   7   8
ENDBRANCH   6   7
ENDBRANCH   5   6
ENDBRANCH   2   5
ENDBRANCH   1   2
BRANCH   1  10
ATOM     10  C   UNL     1      77.730  83.968  67.048  1.00  0.00     0.135 C 
ATOM     11  O   UNL     1      78.906  83.617  67.149  1.00  0.00    -0.300 OA
BRANCH  10  12
ATOM     12  C   UNL     1      76.624  83.006  66.644  1.00  0.00     0.080 C 
BRANCH  12  13
ATOM     13  C   UNL     1      76.574  82.721  65.142  1.00  0.00     0.043 C 
BRANCH  13  14
ATOM     14  C   UNL     1      75.372  81.903  64.734  1.00  0.00    -0.044 A 
ATOM     15  C   UNL     1      74.246  81.859  65.556  1.00  0.00     0.054 A 
ATOM     16  C   UNL     1      75.387  81.192  63.534  1.00  0.00     0.008 A 
ATOM     17  C   UNL     1      73.136  81.104  65.178  1.00  0.00     0.160 A 
ATOM     18  C   UNL     1      74.277  80.437  63.155  1.00  0.00     0.050 A 
ATOM     19  C   UNL     1      73.151  80.393  63.978  1.00  0.00     0.157 A 
BRANCH  17  20
ATOM     20  O   UNL     1      72.042  81.068  65.990  1.00  0.00    -0.493 OA
ATOM     21  C   UNL     1      71.496  82.321  66.398  1.00  0.00     0.278 C 
ENDBRANCH  17  20
BRANCH  19  22
ATOM     22  O   UNL     1      72.073  79.652  63.598  1.00  0.00    -0.504 OA
ATOM     23  H   UNL     1      72.098  79.528  62.634  1.00  0.00     0.293 HD
ENDBRANCH  19  22
ENDBRANCH  13  14
ENDBRANCH  12  13
ENDBRANCH  10  12
ENDBRANCH   1  10
TORSDOF 12
ENDMDL
MODEL 2
REMARK VINA RESULT:    -5.934      2.457      7.550
REMARK INTER + INTRA:         -10.432
REMARK INTER:                  -9.549
REMARK INTRA:                  -0.883
REMARK UNBOUND:                -0.682
REMARK SMILES CCCCC[C@H](O)CC(=O)CCc1ccc(O)c(OC)c1
REMARK SMILES IDX 8 1 6 2 7 3 5 5 4 6 3 7 2 8 1 9 9 10 10 11 11 12 12 13 13 14
REMARK SMILES IDX 21 15 14 16 18 17 15 18 16 19 19 20 20 21 17 22
REMARK H PARENT 7 4 17 23
REMARK Flexibility Score: inf
ROOT
ATOM      1  C   UNL     1      76.634  83.489  67.429  1.00  0.00     0.107 C 
ENDROOT
BRANCH   1   2
ATOM      2  C   UNL     1      76.289  83.157  65.975  1.00  0.00     0.121 C 
BRANCH   2   3
ATOM      3  O   UNL     1      77.063  83.971  65.097  1.00  0.00    -0.393 OA
ATOM      4  H   UNL     1      77.706  83.396  64.648  1.00  0.00     0.210 HD
ENDBRANCH   2   3
BRANCH   2   5
ATOM      5  C   UNL     1      76.515  81.681  65.626  1.00  0.00     0.032 C 
BRANCH   5   6
ATOM      6  C   UNL     1      75.809  81.282  64.324  1.00  0.00     0.003 C 
BRANCH   6   7
ATOM      7  C   UNL     1      74.325  80.952  64.515  1.00  0.00    -0.000 C 
BRANCH   7   8
ATOM      8  C   UNL     1      73.660  80.380  63.265  1.00  0.00    -0.003 C 
ATOM      9  C   UNL     1      72.273  79.837  63.574  1.00  0.00     0.004 C 
ENDBRANCH   7   8
ENDBRANCH   6   7
ENDBRANCH   5   6
ENDBRANCH   2   5
ENDBRANCH   1   2
BRANCH   1  10
ATOM     10  C   UNL     1      78.046  84.027  67.598  1.00  0.00     0.135 C 
ATOM     11  O   UNL     1      78.996  83.505  67.015  1.00  0.00    -0.300 OA
BRANCH  10  12
ATOM     12  C   UNL     1      78.206  85.256  68.479  1.00  0.00     0.080 C 
BRANCH  12  13
ATOM     13  C   UNL     1      77.423  85.179  69.791  1.00  0.00     0.043 C 
BRANCH  13  14
ATOM     14  C   UNL     1      76.328  86.213  69.890  1.00  0.00    -0.044 A 
ATOM     15  C   UNL     1      74.991  85.816  69.896  1.00  0.00     0.054 A 
ATOM     16  C   UNL     1      76.654  87.567  69.974  1.00  0.00     0.008 A 
ATOM     17  C   UNL     1      73.980  86.773  69.988  1.00  0.00     0.160 A 
ATOM     18  C   UNL     1      75.643  88.524  70.066  1.00  0.00     0.050 A 
ATOM     19  C   UNL     1      74.306  88.127  70.072  1.00  0.00     0.157 A 
BRANCH  17  20
ATOM     20  O   UNL     1      72.678  86.372  69.993  1.00  0.00    -0.493 OA
ATOM     21  C   UNL     1      72.289  85.417  69.008  1.00  0.00     0.278 C 
ENDBRANCH  17  20
BRANCH  19  22
ATOM     22  O   UNL     1      73.327  89.070  70.162  1.00  0.00    -0.504 OA
ATOM     23  H   UNL     1      72.606  88.837  69.553  1.00  0.00     0.293 HD
ENDBRANCH  19  22
ENDBRANCH  13  14
ENDBRANCH  12  13
ENDBRANCH  10  12
ENDBRANCH   1  10
TORSDOF 12
ENDMDL
MODEL 3
REMARK VINA RESULT:    -5.930      1.652      2.198
REMARK INTER + INTRA:         -10.425
REMARK INTER:                  -9.417
REMARK INTRA:                  -1.008
REMARK UNBOUND:                -0.682
REMARK SMILES CCCCC[C@H](O)CC(=O)CCc1ccc(O)c(OC)c1
REMARK SMILES IDX 8 1 6 2 7 3 5 5 4 6 3 7 2 8 1 9 9 10 10 11 11 12 12 13 13 14
REMARK SMILES IDX 21 15 14 16 18 17 15 18 16 19 19 20 20 21 17 22
REMARK H PARENT 7 4 17 23
REMARK Flexibility Score: inf
ROOT
ATOM      1  C   UNL     1      77.126  85.455  66.852  1.00  0.00     0.107 C 
ENDROOT
BRANCH   1   2
ATOM      2  C   UNL     1      77.982  86.582  67.434  1.00  0.00     0.121 C 
BRANCH   2   3
ATOM      3  O   UNL     1      77.484  87.844  66.994  1.00  0.00    -0.393 OA
ATOM      4  H   UNL     1      77.518  87.855  66.022  1.00  0.00     0.210 HD
ENDBRANCH   2   3
BRANCH   2   5
ATOM      5  C   UNL     1      78.036  86.566  68.966  1.00  0.00     0.032 C 
BRANCH   5   6
ATOM      6  C   UNL     1      76.789  87.202  69.593  1.00  0.00     0.003 C 
BRANCH   6   7
ATOM      7  C   UNL     1      75.832  86.179  70.213  1.00  0.00    -0.000 C 
BRANCH   7   8
ATOM      8  C   UNL     1      76.460  84.801  70.419  1.00  0.00    -0.003 C 
ATOM      9  C   UNL     1      75.847  84.087  71.614  1.00  0.00     0.004 C 
ENDBRANCH   7   8
ENDBRANCH   6   7
ENDBRANCH   5   6
ENDBRANCH   2   5
ENDBRANCH   1   2
BRANCH   1  10
ATOM     10  C   UNL     1      77.950  84.297  66.313  1.00  0.00     0.135 C 
ATOM     11  O   UNL     1      78.772  83.720  67.025  1.00  0.00    -0.300 OA
BRANCH  10  12
ATOM     12  C   UNL     1      77.673  83.871  64.880  1.00  0.00     0.080 C 
BRANCH  12  13
ATOM     13  C   UNL     1      76.273  84.244  64.388  1.00  0.00     0.043 C 
BRANCH  13  14
ATOM     14  C   UNL     1      75.245  83.171  64.659  1.00  0.00    -0.044 A 
ATOM     15  C   UNL     1      73.926  83.524  64.941  1.00  0.00     0.054 A 
ATOM     16  C   UNL     1      75.616  81.827  64.628  1.00  0.00     0.008 A 
ATOM     17  C   UNL     1      72.977  82.532  65.191  1.00  0.00     0.160 A 
ATOM     18  C   UNL     1      74.668  80.835  64.877  1.00  0.00     0.050 A 
ATOM     19  C   UNL     1      73.348  81.188  65.159  1.00  0.00     0.157 A 
BRANCH  17  20
ATOM     20  O   UNL     1      71.691  82.889  65.466  1.00  0.00    -0.493 OA
ATOM     21  C   UNL     1      71.357  83.106  66.835  1.00  0.00     0.278 C 
ENDBRANCH  17  20
BRANCH  19  22
ATOM     22  O   UNL     1      72.431  80.211  65.402  1.00  0.00    -0.504 OA
ATOM     23  H   UNL     1      71.680  80.323  64.793  1.00  0.00     0.293 HD
ENDBRANCH  19  22
ENDBRANCH  13  14
ENDBRANCH  12  13
ENDBRANCH  10  12
ENDBRANCH   1  10
TORSDOF 12
ENDMDL
MODEL 4
REMARK VINA RESULT:    -5.891     20.435     23.622
REMARK INTER + INTRA:         -10.362
REMARK INTER:                  -9.618
REMARK INTRA:                  -0.744
REMARK UNBOUND:                -0.682
REMARK SMILES CCCCC[C@H](O)CC(=O)CCc1ccc(O)c(OC)c1
REMARK SMILES IDX 8 1 6 2 7 3 5 5 4 6 3 7 2 8 1 9 9 10 10 11 11 12 12 13 13 14
REMARK SMILES IDX 21 15 14 16 18 17 15 18 16 19 19 20 20 21 17 22
REMARK H PARENT 7 4 17 23
REMARK Flexibility Score: inf
ROOT
ATOM      1  C   UNL     1      92.688 100.764  73.345  1.00  0.00     0.107 C 
ENDROOT
BRANCH   1   2
ATOM      2  C   UNL     1      92.078 100.560  71.956  1.00  0.00     0.121 C 
BRANCH   2   3
ATOM      3  O   UNL     1      93.045  99.980  71.084  1.00  0.00    -0.393 OA
ATOM      4  H   UNL     1      93.730  99.563  71.635  1.00  0.00     0.210 HD
ENDBRANCH   2   3
BRANCH   2   5
ATOM      5  C   UNL     1      90.823  99.679  71.975  1.00  0.00     0.032 C 
BRANCH   5   6
ATOM      6  C   UNL     1      90.615  98.942  70.646  1.00  0.00     0.003 C 
BRANCH   6   7
ATOM      7  C   UNL     1      89.612  97.788  70.743  1.00  0.00    -0.000 C 
BRANCH   7   8
ATOM      8  C   UNL     1      89.591  96.890  69.507  1.00  0.00    -0.003 C 
ATOM      9  C   UNL     1      88.972  97.603  68.314  1.00  0.00     0.004 C 
ENDBRANCH   7   8
ENDBRANCH   6   7
ENDBRANCH   5   6
ENDBRANCH   2   5
ENDBRANCH   1   2
BRANCH   1  10
ATOM     10  C   UNL     1      93.616  99.634  73.760  1.00  0.00     0.135 C 
ATOM     11  O   UNL     1      94.711  99.484  73.217  1.00  0.00    -0.300 OA
BRANCH  10  12
ATOM     12  C   UNL     1      93.141  98.743  74.897  1.00  0.00     0.080 C 
BRANCH  12  13
ATOM     13  C   UNL     1      94.176  97.706  75.339  1.00  0.00     0.043 C 
BRANCH  13  14
ATOM     14  C   UNL     1      93.597  96.639  76.237  1.00  0.00    -0.044 A 
ATOM     15  C   UNL     1      92.255  96.695  76.614  1.00  0.00     0.054 A 
ATOM     16  C   UNL     1      94.405  95.595  76.689  1.00  0.00     0.008 A 
ATOM     17  C   UNL     1      91.722  95.708  77.442  1.00  0.00     0.160 A 
ATOM     18  C   UNL     1      93.872  94.607  77.517  1.00  0.00     0.050 A 
ATOM     19  C   UNL     1      92.530  94.664  77.894  1.00  0.00     0.157 A 
BRANCH  17  20
ATOM     20  O   UNL     1      90.410  95.774  77.804  1.00  0.00    -0.493 OA
ATOM     21  C   UNL     1      89.491  94.975  77.061  1.00  0.00     0.278 C 
ENDBRANCH  17  20
BRANCH  19  22
ATOM     22  O   UNL     1      92.020  93.695  78.703  1.00  0.00    -0.504 OA
ATOM     23  H   UNL     1      92.581  93.614  79.494  1.00  0.00     0.293 HD
ENDBRANCH  19  22
ENDBRANCH  13  14
ENDBRANCH  12  13
ENDBRANCH  10  12
ENDBRANCH   1  10
TORSDOF 12
ENDMDL
MODEL 5
REMARK VINA RESULT:    -5.782      3.684      5.264
REMARK INTER + INTRA:         -10.182
REMARK INTER:                  -8.562
REMARK INTRA:                  -1.620
REMARK UNBOUND:                -0.682
REMARK SMILES CCCCC[C@H](O)CC(=O)CCc1ccc(O)c(OC)c1
REMARK SMILES IDX 8 1 6 2 7 3 5 5 4 6 3 7 2 8 1 9 9 10 10 11 11 12 12 13 13 14
REMARK SMILES IDX 21 15 14 16 18 17 15 18 16 19 19 20 20 21 17 22
REMARK H PARENT 7 4 17 23
REMARK Flexibility Score: inf
ROOT
ATOM      1  C   UNL     1      75.044  85.442  70.482  1.00  0.00     0.107 C 
ENDROOT
BRANCH   1   2
ATOM      2  C   UNL     1      74.614  85.946  69.102  1.00  0.00     0.121 C 
BRANCH   2   3
ATOM      3  O   UNL     1      73.432  85.266  68.686  1.00  0.00    -0.393 OA
ATOM      4  H   UNL     1      73.613  84.311  68.715  1.00  0.00     0.210 HD
ENDBRANCH   2   3
BRANCH   2   5
ATOM      5  C   UNL     1      74.365  87.459  69.067  1.00  0.00     0.032 C 
BRANCH   5   6
ATOM      6  C   UNL     1      74.667  88.125  70.415  1.00  0.00     0.003 C 
BRANCH   6   7
ATOM      7  C   UNL     1      75.846  89.102  70.358  1.00  0.00    -0.000 C 
BRANCH   7   8
ATOM      8  C   UNL     1      75.504  90.503  70.861  1.00  0.00    -0.003 C 
ATOM      9  C   UNL     1      74.201  90.508  71.645  1.00  0.00     0.004 C 
ENDBRANCH   7   8
ENDBRANCH   6   7
ENDBRANCH   5   6
ENDBRANCH   2   5
ENDBRANCH   1   2
BRANCH   1  10
ATOM     10  C   UNL     1      76.438  84.837  70.487  1.00  0.00     0.135 C 
ATOM     11  O   UNL     1      76.612  83.652  70.770  1.00  0.00    -0.300 OA
BRANCH  10  12
ATOM     12  C   UNL     1      77.582  85.754  70.083  1.00  0.00     0.080 C 
BRANCH  12  13
ATOM     13  C   UNL     1      78.345  85.278  68.845  1.00  0.00     0.043 C 
BRANCH  13  14
ATOM     14  C   UNL     1      77.803  85.854  67.558  1.00  0.00    -0.044 A 
ATOM     15  C   UNL     1      77.384  85.003  66.535  1.00  0.00     0.054 A 
ATOM     16  C   UNL     1      77.720  87.237  67.393  1.00  0.00     0.008 A 
ATOM     17  C   UNL     1      76.883  85.535  65.347  1.00  0.00     0.160 A 
ATOM     18  C   UNL     1      77.219  87.769  66.205  1.00  0.00     0.050 A 
ATOM     19  C   UNL     1      76.801  86.918  65.182  1.00  0.00     0.157 A 
BRANCH  17  20
ATOM     20  O   UNL     1      76.478  84.695  64.354  1.00  0.00    -0.493 OA
ATOM     21  C   UNL     1      77.482  84.213  63.463  1.00  0.00     0.278 C 
ENDBRANCH  17  20
BRANCH  19  22
ATOM     22  O   UNL     1      76.313  87.450  64.027  1.00  0.00    -0.504 OA
ATOM     23  H   UNL     1      75.924  88.321  64.218  1.00  0.00     0.293 HD
ENDBRANCH  19  22
ENDBRANCH  13  14
ENDBRANCH  12  13
ENDBRANCH  10  12
ENDBRANCH   1  10
TORSDOF 12
ENDMDL
MODEL 6
REMARK VINA RESULT:    -5.762     21.989     25.632
REMARK INTER + INTRA:         -10.150
REMARK INTER:                  -8.885
REMARK INTRA:                  -1.265
REMARK UNBOUND:                -0.682
REMARK SMILES CCCCC[C@H](O)CC(=O)CCc1ccc(O)c(OC)c1
REMARK SMILES IDX 8 1 6 2 7 3 5 5 4 6 3 7 2 8 1 9 9 10 10 11 11 12 12 13 13 14
REMARK SMILES IDX 21 15 14 16 18 17 15 18 16 19 19 20 20 21 17 22
REMARK H PARENT 7 4 17 23
REMARK Flexibility Score: inf
ROOT
ATOM      1  C   UNL     1      95.803  94.154  79.342  1.00  0.00     0.107 C 
ENDROOT
BRANCH   1   2
ATOM      2  C   UNL     1      94.613  93.558  80.097  1.00  0.00     0.121 C 
BRANCH   2   3
ATOM      3  O   UNL     1      94.889  93.537  81.496  1.00  0.00    -0.393 OA
ATOM      4  H   UNL     1      94.922  92.607  81.778  1.00  0.00     0.210 HD
ENDBRANCH   2   3
BRANCH   2   5
ATOM      5  C   UNL     1      93.305  94.321  79.853  1.00  0.00     0.032 C 
BRANCH   5   6
ATOM      6  C   UNL     1      92.691  93.991  78.487  1.00  0.00     0.003 C 
BRANCH   6   7
ATOM      7  C   UNL     1      91.164  94.114  78.462  1.00  0.00    -0.000 C 
BRANCH   7   8
ATOM      8  C   UNL     1      90.656  95.251  77.577  1.00  0.00    -0.003 C 
ATOM      9  C   UNL     1      89.202  95.039  77.183  1.00  0.00     0.004 C 
ENDBRANCH   7   8
ENDBRANCH   6   7
ENDBRANCH   5   6
ENDBRANCH   2   5
ENDBRANCH   1   2
BRANCH   1  10
ATOM     10  C   UNL     1      96.056  95.613  79.683  1.00  0.00     0.135 C 
ATOM     11  O   UNL     1      96.611  95.930  80.735  1.00  0.00    -0.300 OA
BRANCH  10  12
ATOM     12  C   UNL     1      95.631  96.640  78.645  1.00  0.00     0.080 C 
BRANCH  12  13
ATOM     13  C   UNL     1      95.218  96.026  77.306  1.00  0.00     0.043 C 
BRANCH  13  14
ATOM     14  C   UNL     1      94.769  97.056  76.296  1.00  0.00    -0.044 A 
ATOM     15  C   UNL     1      95.699  97.644  75.439  1.00  0.00     0.054 A 
ATOM     16  C   UNL     1      93.423  97.417  76.220  1.00  0.00     0.008 A 
ATOM     17  C   UNL     1      95.283  98.594  74.506  1.00  0.00     0.160 A 
ATOM     18  C   UNL     1      93.008  98.367  75.287  1.00  0.00     0.050 A 
ATOM     19  C   UNL     1      93.938  98.956  74.431  1.00  0.00     0.157 A 
BRANCH  17  20
ATOM     20  O   UNL     1      96.200  99.163  73.675  1.00  0.00    -0.493 OA
ATOM     21  C   UNL     1      97.566  99.110  74.084  1.00  0.00     0.278 C 
ENDBRANCH  17  20
BRANCH  19  22
ATOM     22  O   UNL     1      93.520  99.883  73.524  1.00  0.00    -0.504 OA
ATOM     23  H   UNL     1      93.412 100.739  73.973  1.00  0.00     0.293 HD
ENDBRANCH  19  22
ENDBRANCH  13  14
ENDBRANCH  12  13
ENDBRANCH  10  12
ENDBRANCH   1  10
TORSDOF 12
ENDMDL
MODEL 7
REMARK VINA RESULT:    -5.665     25.443     27.898
REMARK INTER + INTRA:          -9.990
REMARK INTER:                  -9.217
REMARK INTRA:                  -0.773
REMARK UNBOUND:                -0.682
REMARK SMILES CCCCC[C@H](O)CC(=O)CCc1ccc(O)c(OC)c1
REMARK SMILES IDX 8 1 6 2 7 3 5 5 4 6 3 7 2 8 1 9 9 10 10 11 11 12 12 13 13 14
REMARK SMILES IDX 21 15 14 16 18 17 15 18 16 19 19 20 20 21 17 22
REMARK H PARENT 7 4 17 23
REMARK Flexibility Score: inf
ROOT
ATOM      1  C   UNL     1      99.303  83.229  77.929  1.00  0.00     0.107 C 
ENDROOT
BRANCH   1   2
ATOM      2  C   UNL     1      99.551  83.563  76.456  1.00  0.00     0.121 C 
BRANCH   2   3
ATOM      3  O   UNL     1      99.105  84.889  76.179  1.00  0.00    -0.393 OA
ATOM      4  H   UNL     1      99.295  85.077  75.243  1.00  0.00     0.210 HD
ENDBRANCH   2   3
BRANCH   2   5
ATOM      5  C   UNL     1     101.023  83.430  76.049  1.00  0.00     0.032 C 
BRANCH   5   6
ATOM      6  C   UNL     1     101.796  84.740  76.245  1.00  0.00     0.003 C 
BRANCH   6   7
ATOM      7  C   UNL     1     102.459  85.250  74.961  1.00  0.00    -0.000 C 
BRANCH   7   8
ATOM      8  C   UNL     1     101.468  85.555  73.840  1.00  0.00    -0.003 C 
ATOM      9  C   UNL     1     102.174  85.699  72.500  1.00  0.00     0.004 C 
ENDBRANCH   7   8
ENDBRANCH   6   7
ENDBRANCH   5   6
ENDBRANCH   2   5
ENDBRANCH   1   2
BRANCH   1  10
ATOM     10  C   UNL     1      97.874  83.501  78.370  1.00  0.00     0.135 C 
ATOM     11  O   UNL     1      96.989  83.723  77.544  1.00  0.00    -0.300 OA
BRANCH  10  12
ATOM     12  C   UNL     1      97.598  83.438  79.864  1.00  0.00     0.080 C 
BRANCH  12  13
ATOM     13  C   UNL     1      98.823  83.065  80.701  1.00  0.00     0.043 C 
BRANCH  13  14
ATOM     14  C   UNL     1      98.465  82.523  82.065  1.00  0.00    -0.044 A 
ATOM     15  C   UNL     1      97.804  83.335  82.986  1.00  0.00     0.054 A 
ATOM     16  C   UNL     1      98.797  81.211  82.403  1.00  0.00     0.008 A 
ATOM     17  C   UNL     1      97.473  82.834  84.245  1.00  0.00     0.160 A 
ATOM     18  C   UNL     1      98.467  80.710  83.662  1.00  0.00     0.050 A 
ATOM     19  C   UNL     1      97.805  81.521  84.583  1.00  0.00     0.157 A 
BRANCH  17  20
ATOM     20  O   UNL     1      96.827  83.636  85.137  1.00  0.00    -0.493 OA
ATOM     21  C   UNL     1      97.574  84.713  85.700  1.00  0.00     0.278 C 
ENDBRANCH  17  20
BRANCH  19  22
ATOM     22  O   UNL     1      97.487  81.021  85.809  1.00  0.00    -0.504 OA
ATOM     23  H   UNL     1      98.289  80.650  86.218  1.00  0.00     0.293 HD
ENDBRANCH  19  22
ENDBRANCH  13  14
ENDBRANCH  12  13
ENDBRANCH  10  12
ENDBRANCH   1  10
TORSDOF 12
ENDMDL
MODEL 8
REMARK VINA RESULT:    -5.654     25.109     28.162
REMARK INTER + INTRA:          -9.971
REMARK INTER:                  -8.539
REMARK INTRA:                  -1.432
REMARK UNBOUND:                -0.682
REMARK SMILES CCCCC[C@H](O)CC(=O)CCc1ccc(O)c(OC)c1
REMARK SMILES IDX 8 1 6 2 7 3 5 5 4 6 3 7 2 8 1 9 9 10 10 11 11 12 12 13 13 14
REMARK SMILES IDX 21 15 14 16 18 17 15 18 16 19 19 20 20 21 17 22
REMARK H PARENT 7 4 17 23
REMARK Flexibility Score: inf
ROOT
ATOM      1  C   UNL     1     100.846  79.306  82.774  1.00  0.00     0.107 C 
ENDROOT
BRANCH   1   2
ATOM      2  C   UNL     1      99.345  79.251  82.480  1.00  0.00     0.121 C 
BRANCH   2   3
ATOM      3  O   UNL     1      98.993  77.954  82.004  1.00  0.00    -0.393 OA
ATOM      4  H   UNL     1      99.088  77.329  82.744  1.00  0.00     0.210 HD
ENDBRANCH   2   3
BRANCH   2   5
ATOM      5  C   UNL     1      98.481  79.592  83.700  1.00  0.00     0.032 C 
BRANCH   5   6
ATOM      6  C   UNL     1      98.007  81.050  83.681  1.00  0.00     0.003 C 
BRANCH   6   7
ATOM      7  C   UNL     1      98.231  81.778  85.011  1.00  0.00    -0.000 C 
BRANCH   7   8
ATOM      8  C   UNL     1      98.349  83.294  84.867  1.00  0.00    -0.003 C 
ATOM      9  C   UNL     1      97.202  83.863  84.046  1.00  0.00     0.004 C 
ENDBRANCH   7   8
ENDBRANCH   6   7
ENDBRANCH   5   6
ENDBRANCH   2   5
ENDBRANCH   1   2
BRANCH   1  10
ATOM     10  C   UNL     1     101.454  80.674  82.511  1.00  0.00     0.135 C 
ATOM     11  O   UNL     1     102.240  81.182  83.311  1.00  0.00    -0.300 OA
BRANCH  10  12
ATOM     12  C   UNL     1     101.078  81.347  81.199  1.00  0.00     0.080 C 
BRANCH  12  13
ATOM     13  C   UNL     1     100.243  82.616  81.377  1.00  0.00     0.043 C 
BRANCH  13  14
ATOM     14  C   UNL     1      99.347  82.906  80.197  1.00  0.00    -0.044 A 
ATOM     15  C   UNL     1      99.853  82.822  78.900  1.00  0.00     0.054 A 
ATOM     16  C   UNL     1      98.013  83.258  80.404  1.00  0.00     0.008 A 
ATOM     17  C   UNL     1      99.024  83.089  77.810  1.00  0.00     0.160 A 
ATOM     18  C   UNL     1      97.184  83.525  79.314  1.00  0.00     0.050 A 
ATOM     19  C   UNL     1      97.690  83.440  78.017  1.00  0.00     0.157 A 
BRANCH  17  20
ATOM     20  O   UNL     1      99.529  83.004  76.547  1.00  0.00    -0.493 OA
ATOM     21  C   UNL     1     100.642  83.841  76.237  1.00  0.00     0.278 C 
ENDBRANCH  17  20
BRANCH  19  22
ATOM     22  O   UNL     1      96.871  83.703  76.961  1.00  0.00    -0.504 OA
ATOM     23  H   UNL     1      97.389  83.656  76.139  1.00  0.00     0.293 HD
ENDBRANCH  19  22
ENDBRANCH  13  14
ENDBRANCH  12  13
ENDBRANCH  10  12
ENDBRANCH   1  10
TORSDOF 12
ENDMDL
MODEL 9
REMARK VINA RESULT:    -5.601     10.316     13.185
REMARK INTER + INTRA:          -9.885
REMARK INTER:                  -8.131
REMARK INTRA:                  -1.754
REMARK UNBOUND:                -0.682
REMARK SMILES CCCCC[C@H](O)CC(=O)CCc1ccc(O)c(OC)c1
REMARK SMILES IDX 8 1 6 2 7 3 5 5 4 6 3 7 2 8 1 9 9 10 10 11 11 12 12 13 13 14
REMARK SMILES IDX 21 15 14 16 18 17 15 18 16 19 19 20 20 21 17 22
REMARK H PARENT 7 4 17 23
REMARK Flexibility Score: inf
ROOT
ATOM      1  C   UNL     1      66.140  84.762  71.004  1.00  0.00     0.107 C 
ENDROOT
BRANCH   1   2
ATOM      2  C   UNL     1      66.779  84.549  72.378  1.00  0.00     0.121 C 
BRANCH   2   3
ATOM      3  O   UNL     1      68.184  84.776  72.299  1.00  0.00    -0.393 OA
ATOM      4  H   UNL     1      68.628  84.074  72.806  1.00  0.00     0.210 HD
ENDBRANCH   2   3
BRANCH   2   5
ATOM      5  C   UNL     1      66.182  85.452  73.464  1.00  0.00     0.032 C 
BRANCH   5   6
ATOM      6  C   UNL     1      65.228  84.688  74.390  1.00  0.00     0.003 C 
BRANCH   6   7
ATOM      7  C   UNL     1      65.705  84.639  75.846  1.00  0.00    -0.000 C 
BRANCH   7   8
ATOM      8  C   UNL     1      65.126  83.470  76.641  1.00  0.00    -0.003 C 
ATOM      9  C   UNL     1      63.932  83.906  77.476  1.00  0.00     0.004 C 
ENDBRANCH   7   8
ENDBRANCH   6   7
ENDBRANCH   5   6
ENDBRANCH   2   5
ENDBRANCH   1   2
BRANCH   1  10
ATOM     10  C   UNL     1      66.122  83.502  70.154  1.00  0.00     0.135 C 
ATOM     11  O   UNL     1      66.303  83.557  68.937  1.00  0.00    -0.300 OA
BRANCH  10  12
ATOM     12  C   UNL     1      65.915  82.187  70.888  1.00  0.00     0.080 C 
BRANCH  12  13
ATOM     13  C   UNL     1      64.483  81.656  70.808  1.00  0.00     0.043 C 
BRANCH  13  14
ATOM     14  C   UNL     1      63.652  82.008  72.020  1.00  0.00    -0.044 A 
ATOM     15  C   UNL     1      62.801  83.113  71.985  1.00  0.00     0.054 A 
ATOM     16  C   UNL     1      63.737  81.228  73.173  1.00  0.00     0.008 A 
ATOM     17  C   UNL     1      62.034  83.437  73.104  1.00  0.00     0.160 A 
ATOM     18  C   UNL     1      62.970  81.552  74.293  1.00  0.00     0.050 A 
ATOM     19  C   UNL     1      62.119  82.657  74.258  1.00  0.00     0.157 A 
BRANCH  17  20
ATOM     20  O   UNL     1      61.207  84.519  73.059  1.00  0.00    -0.493 OA
ATOM     21  C   UNL     1      59.982  84.368  72.343  1.00  0.00     0.278 C 
ENDBRANCH  17  20
BRANCH  19  22
ATOM     22  O   UNL     1      61.375  82.964  75.357  1.00  0.00    -0.504 OA
ATOM     23  H   UNL     1      60.432  82.878  75.135  1.00  0.00     0.293 HD
ENDBRANCH  19  22
ENDBRANCH  13  14
ENDBRANCH  12  13
ENDBRANCH  10  12
ENDBRANCH   1  10
TORSDOF 12
ENDMDL
MODEL 10
REMARK VINA RESULT:    -5.597     19.911     22.882
REMARK INTER + INTRA:          -9.877
REMARK INTER:                  -8.705
REMARK INTRA:                  -1.173
REMARK UNBOUND:                -0.682
REMARK SMILES CCCCC[C@H](O)CC(=O)CCc1ccc(O)c(OC)c1
REMARK SMILES IDX 8 1 6 2 7 3 5 5 4 6 3 7 2 8 1 9 9 10 10 11 11 12 12 13 13 14
REMARK SMILES IDX 21 15 14 16 18 17 15 18 16 19 19 20 20 21 17 22
REMARK H PARENT 7 4 17 23
REMARK Flexibility Score: inf
ROOT
ATOM      1  C   UNL     1      89.079  98.427  70.737  1.00  0.00     0.107 C 
ENDROOT
BRANCH   1   2
ATOM      2  C   UNL     1      90.356  99.139  71.189  1.00  0.00     0.121 C 
BRANCH   2   3
ATOM      3  O   UNL     1      91.367  98.997  70.194  1.00  0.00    -0.393 OA
ATOM      4  H   UNL     1      92.118  98.528  70.597  1.00  0.00     0.210 HD
ENDBRANCH   2   3
BRANCH   2   5
ATOM      5  C   UNL     1      90.141 100.629  71.480  1.00  0.00     0.032 C 
BRANCH   5   6
ATOM      6  C   UNL     1      91.233 101.201  72.393  1.00  0.00     0.003 C 
BRANCH   6   7
ATOM      7  C   UNL     1      92.197 100.137  72.927  1.00  0.00    -0.000 C 
BRANCH   7   8
ATOM      8  C   UNL     1      92.583 100.339  74.391  1.00  0.00    -0.003 C 
ATOM      9  C   UNL     1      92.946  99.020  75.055  1.00  0.00     0.004 C 
ENDBRANCH   7   8
ENDBRANCH   6   7
ENDBRANCH   5   6
ENDBRANCH   2   5
ENDBRANCH   1   2
BRANCH   1  10
ATOM     10  C   UNL     1      89.323  97.406  69.638  1.00  0.00     0.135 C 
ATOM     11  O   UNL     1      89.837  96.316  69.890  1.00  0.00    -0.300 OA
BRANCH  10  12
ATOM     12  C   UNL     1      88.860  97.785  68.240  1.00  0.00     0.080 C 
BRANCH  12  13
ATOM     13  C   UNL     1      88.006  99.053  68.198  1.00  0.00     0.043 C 
BRANCH  13  14
ATOM     14  C   UNL     1      88.792 100.284  67.814  1.00  0.00    -0.044 A 
ATOM     15  C   UNL     1      88.289 101.552  68.105  1.00  0.00     0.054 A 
ATOM     16  C   UNL     1      90.022 100.152  67.169  1.00  0.00     0.008 A 
ATOM     17  C   UNL     1      89.017 102.689  67.751  1.00  0.00     0.160 A 
ATOM     18  C   UNL     1      90.750 101.289  66.815  1.00  0.00     0.050 A 
ATOM     19  C   UNL     1      90.247 102.557  67.105  1.00  0.00     0.157 A 
BRANCH  17  20
ATOM     20  O   UNL     1      88.515 103.922  68.039  1.00  0.00    -0.493 OA
ATOM     21  C   UNL     1      88.590 104.351  69.398  1.00  0.00     0.278 C 
ENDBRANCH  17  20
BRANCH  19  22
ATOM     22  O   UNL     1      90.966 103.659  66.755  1.00  0.00    -0.504 OA
ATOM     23  H   UNL     1      91.253 103.569  65.830  1.00  0.00     0.293 HD
ENDBRANCH  19  22
ENDBRANCH  13  14
ENDBRANCH  12  13
ENDBRANCH  10  12
ENDBRANCH   1  10
TORSDOF 12
ENDMDL
