MODEL 1
REMARK VINA RESULT:    -6.664      0.000      0.000
REMARK INTER + INTRA:         -13.371
REMARK INTER:                 -11.729
REMARK INTRA:                  -1.642
REMARK UNBOUND:                -1.642
REMARK SMILES C=C(C)[C@]12C[C@@H](C)[C@@]34O[C@](Cc5ccccc5)(O[C@@H]1[C@@H]3C=C(COC(=O)Cc1ccc(O)c(OC)c1)C[C@]1(O)C(=O)C(C)=C[C@@H]41)O2
REMARK SMILES IDX 23 1 22 2 21 3 20 4 9 5 8 6 10 7 6 8 18 9 46 10 19 11 5 12
REMARK SMILES IDX 7 13 4 14 45 15 38 16 44 17 40 18 42 20 41 21 43 22 39 23
REMARK SMILES IDX 11 25 12 26 13 27 17 28 14 29 16 30 15 31 2 32 3 33 1 34
REMARK SMILES IDX 37 35 24 37 25 38 26 39 27 40 28 41 36 42 29 43 33 44 30 45
REMARK SMILES IDX 31 46 34 47 35 48 32 49
REMARK H PARENT 39 24 32 50
REMARK Flexibility Score: 90.00
ROOT
ATOM      1  C   UNL     1      72.216  89.408  67.597  1.00  0.00     0.264 C 
ENDROOT
BRANCH   1   2
ATOM      2  C   UNL     1      71.837  88.007  68.014  1.00  0.00    -0.033 C 
ATOM      3  C   UNL     1      70.801  87.827  68.858  1.00  0.00    -0.015 C 
BRANCH   3   4
ATOM      4  C   UNL     1      70.275  86.544  69.481  1.00  0.00     0.078 C 
ATOM      5  O   UNL     1      68.514  85.681  67.974  1.00  0.00    -0.319 OA
ATOM      6  C   UNL     1      69.832  85.375  68.525  1.00  0.00     0.095 C 
ATOM      7  C   UNL     1      67.564  86.222  68.912  1.00  0.00     0.289 C 
ATOM      8  C   UNL     1      69.742  84.053  69.394  1.00  0.00     0.023 C 
ATOM      9  O   UNL     1      68.058  87.414  69.518  1.00  0.00    -0.320 OA
ATOM     10  O   UNL     1      67.295  85.326  69.987  1.00  0.00    -0.313 OA
ATOM     11  C   UNL     1      69.059  86.859  70.386  1.00  0.00     0.170 C 
ATOM     12  C   UNL     1      69.288  84.359  70.855  1.00  0.00     0.049 C 
ATOM     13  C   UNL     1      68.861  82.937  68.809  1.00  0.00     0.011 C 
ATOM     14  C   UNL     1      68.368  85.579  70.918  1.00  0.00     0.122 C 
BRANCH   6  15
ATOM     15  C   UNL     1      70.764  85.295  67.282  1.00  0.00     0.086 C 
ATOM     16  C   UNL     1      72.273  85.469  67.551  1.00  0.00     0.140 CG0
ATOM     17  C   UNL     1      70.705  84.084  66.393  1.00  0.00    -0.010 C 
ATOM     18  C   UNL     1      72.896  84.551  66.520  1.00  0.00     0.190 C 
ATOM     19  G   UNL     1      72.724  86.921  67.390  1.00  0.00     0.000 G0
ATOM     20  C   UNL     1      71.883  83.658  65.927  1.00  0.00    -0.008 C 
ATOM     21  O   UNL     1      74.084  84.505  66.240  1.00  0.00    -0.291 OA
ATOM     22  C   UNL     1      72.194  82.568  64.979  1.00  0.00     0.048 C 
BRANCH  16  23
ATOM     23  O   UNL     1      72.701  84.928  68.789  1.00  0.00    -0.381 OA
ATOM     24  H   UNL     1      72.162  85.317  69.497  1.00  0.00     0.212 HD
ENDBRANCH  16  23
ENDBRANCH   6  15
BRANCH   7  25
ATOM     25  C   UNL     1      66.278  86.521  68.168  1.00  0.00     0.135 C 
BRANCH  25  26
ATOM     26  C   UNL     1      65.072  86.445  69.071  1.00  0.00    -0.040 A 
ATOM     27  C   UNL     1      64.603  87.596  69.705  1.00  0.00     0.004 A 
ATOM     28  C   UNL     1      64.426  85.226  69.271  1.00  0.00     0.004 A 
ATOM     29  C   UNL     1      63.487  87.526  70.540  1.00  0.00     0.000 A 
ATOM     30  C   UNL     1      63.310  85.156  70.106  1.00  0.00     0.000 A 
ATOM     31  C   UNL     1      62.841  86.307  70.740  1.00  0.00     0.000 A 
ENDBRANCH  25  26
ENDBRANCH   7  25
BRANCH  14  32
ATOM     32  C   UNL     1      67.776  85.782  72.274  1.00  0.00    -0.046 C 
ATOM     33  C   UNL     1      66.708  86.830  72.380  1.00  0.00     0.042 C 
ATOM     34  C   UNL     1      68.177  85.069  73.337  1.00  0.00     0.010 C 
ENDBRANCH  14  32
ENDBRANCH   3   4
BRANCH   2  35
ATOM     35  C   UNL     1      72.716  86.941  67.387  1.00  0.00     0.078 CG0
ATOM     36  G   UNL     1      72.267  85.488  67.534  1.00  0.00     0.000 G0
ENDBRANCH   2  35
ENDBRANCH   1   2
BRANCH   1  37
ATOM     37  O   UNL     1      73.618  89.490  67.454  1.00  0.00    -0.461 OA
BRANCH  37  38
ATOM     38  C   UNL     1      74.250  90.462  68.194  1.00  0.00     0.310 C 
ATOM     39  O   UNL     1      74.199  91.663  67.965  1.00  0.00    -0.252 OA
BRANCH  38  40
ATOM     40  C   UNL     1      75.014  89.818  69.326  1.00  0.00     0.158 C 
BRANCH  40  41
ATOM     41  C   UNL     1      75.807  88.613  68.890  1.00  0.00    -0.033 A 
ATOM     42  C   UNL     1      75.348  87.330  69.191  1.00  0.00     0.054 A 
ATOM     43  C   UNL     1      76.999  88.780  68.186  1.00  0.00     0.008 A 
ATOM     44  C   UNL     1      76.082  86.214  68.787  1.00  0.00     0.160 A 
ATOM     45  C   UNL     1      77.733  87.665  67.782  1.00  0.00     0.050 A 
ATOM     46  C   UNL     1      77.276  86.382  68.083  1.00  0.00     0.157 A 
BRANCH  44  47
ATOM     47  O   UNL     1      75.625  84.967  69.087  1.00  0.00    -0.493 OA
ATOM     48  C   UNL     1      75.677  84.569  70.456  1.00  0.00     0.278 C 
ENDBRANCH  44  47
BRANCH  46  49
ATOM     49  O   UNL     1      78.000  85.301  67.682  1.00  0.00    -0.504 OA
ATOM     50  H   UNL     1      77.544  84.491  67.967  1.00  0.00     0.293 HD
ENDBRANCH  46  49
ENDBRANCH  40  41
ENDBRANCH  38  40
ENDBRANCH  37  38
ENDBRANCH   1  37
TORSDOF 11
ENDMDL
MODEL 2
REMARK VINA RESULT:    -6.272      1.232      2.013
REMARK INTER + INTRA:         -12.681
REMARK INTER:                 -11.019
REMARK INTRA:                  -1.663
REMARK UNBOUND:                -1.642
REMARK SMILES C=C(C)[C@]12C[C@@H](C)[C@@]34O[C@](Cc5ccccc5)(O[C@@H]1[C@@H]3C=C(COC(=O)Cc1ccc(O)c(OC)c1)C[C@]1(O)C(=O)C(C)=C[C@@H]41)O2
REMARK SMILES IDX 23 1 22 2 21 3 20 4 9 5 8 6 10 7 6 8 18 9 46 10 19 11 5 12
REMARK SMILES IDX 7 13 4 14 45 15 38 16 44 17 40 18 42 20 41 21 43 22 39 23
REMARK SMILES IDX 11 25 12 26 13 27 17 28 14 29 16 30 15 31 2 32 3 33 1 34
REMARK SMILES IDX 37 35 24 37 25 38 26 39 27 40 28 41 36 42 29 43 33 44 30 45
REMARK SMILES IDX 31 46 34 47 35 48 32 49
REMARK H PARENT 39 24 32 50
REMARK Flexibility Score: 90.00
ROOT
ATOM      1  C   UNL     1      72.169  89.567  68.693  1.00  0.00     0.264 C 
ENDROOT
BRANCH   1   2
ATOM      2  C   UNL     1      71.669  88.152  68.869  1.00  0.00    -0.033 C 
ATOM      3  C   UNL     1      70.558  87.931  69.600  1.00  0.00    -0.015 C 
BRANCH   3   4
ATOM      4  C   UNL     1      69.903  86.615  69.987  1.00  0.00     0.078 C 
ATOM      5  O   UNL     1      68.205  86.120  68.257  1.00  0.00    -0.319 OA
ATOM      6  C   UNL     1      69.455  85.636  68.838  1.00  0.00     0.095 C 
ATOM      7  C   UNL     1      67.226  86.590  69.204  1.00  0.00     0.289 C 
ATOM      8  C   UNL     1      69.212  84.212  69.489  1.00  0.00     0.023 C 
ATOM      9  O   UNL     1      67.752  87.638  70.014  1.00  0.00    -0.320 OA
ATOM     10  O   UNL     1      66.819  85.569  70.111  1.00  0.00    -0.313 OA
ATOM     11  C   UNL     1      68.646  86.886  70.849  1.00  0.00     0.170 C 
ATOM     12  C   UNL     1      68.673  84.334  70.947  1.00  0.00     0.049 C 
ATOM     13  C   UNL     1      68.306  83.265  68.686  1.00  0.00     0.011 C 
ATOM     14  C   UNL     1      67.834  85.598  71.136  1.00  0.00     0.122 C 
BRANCH   6  15
ATOM     15  C   UNL     1      70.470  85.668  67.658  1.00  0.00     0.086 C 
ATOM     16  C   UNL     1      71.963  85.683  68.046  1.00  0.00     0.140 CG0
ATOM     17  C   UNL     1      70.396  84.610  66.594  1.00  0.00    -0.010 C 
ATOM     18  C   UNL     1      72.598  84.882  66.930  1.00  0.00     0.190 C 
ATOM     19  G   UNL     1      72.521  87.103  68.138  1.00  0.00     0.000 G0
ATOM     20  C   UNL     1      71.574  84.167  66.144  1.00  0.00    -0.008 C 
ATOM     21  O   UNL     1      73.798  84.784  66.721  1.00  0.00    -0.291 OA
ATOM     22  C   UNL     1      71.880  83.208  65.063  1.00  0.00     0.048 C 
BRANCH  16  23
ATOM     23  O   UNL     1      72.260  84.934  69.213  1.00  0.00    -0.381 OA
ATOM     24  H   UNL     1      71.434  84.783  69.700  1.00  0.00     0.212 HD
ENDBRANCH  16  23
ENDBRANCH   6  15
BRANCH   7  25
ATOM     25  C   UNL     1      66.022  87.092  68.434  1.00  0.00     0.135 C 
BRANCH  25  26
ATOM     26  C   UNL     1      65.910  86.446  67.075  1.00  0.00    -0.040 A 
ATOM     27  C   UNL     1      65.228  85.236  66.933  1.00  0.00     0.004 A 
ATOM     28  C   UNL     1      66.485  87.057  65.962  1.00  0.00     0.004 A 
ATOM     29  C   UNL     1      65.124  84.638  65.677  1.00  0.00     0.000 A 
ATOM     30  C   UNL     1      66.380  86.459  64.706  1.00  0.00     0.000 A 
ATOM     31  C   UNL     1      65.700  85.249  64.564  1.00  0.00     0.000 A 
ENDBRANCH  25  26
ENDBRANCH   7  25
BRANCH  14  32
ATOM     32  C   UNL     1      67.158  85.646  72.467  1.00  0.00    -0.046 C 
ATOM     33  C   UNL     1      67.928  85.079  73.622  1.00  0.00     0.042 C 
ATOM     34  C   UNL     1      65.930  86.165  72.621  1.00  0.00     0.010 C 
ENDBRANCH  14  32
ENDBRANCH   3   4
BRANCH   2  35
ATOM     35  C   UNL     1      72.527  87.125  68.155  1.00  0.00     0.078 CG0
ATOM     36  G   UNL     1      71.963  85.711  68.026  1.00  0.00     0.000 G0
ENDBRANCH   2  35
ENDBRANCH   1   2
BRANCH   1  37
ATOM     37  O   UNL     1      73.017  89.626  67.567  1.00  0.00    -0.461 OA
BRANCH  37  38
ATOM     38  C   UNL     1      74.127  90.430  67.682  1.00  0.00     0.310 C 
ATOM     39  O   UNL     1      74.347  91.426  67.006  1.00  0.00    -0.252 OA
BRANCH  38  40
ATOM     40  C   UNL     1      75.027  89.894  68.770  1.00  0.00     0.158 C 
BRANCH  40  41
ATOM     41  C   UNL     1      75.781  88.657  68.352  1.00  0.00    -0.033 A 
ATOM     42  C   UNL     1      75.987  87.624  69.267  1.00  0.00     0.054 A 
ATOM     43  C   UNL     1      76.273  88.546  67.052  1.00  0.00     0.008 A 
ATOM     44  C   UNL     1      76.685  86.479  68.880  1.00  0.00     0.160 A 
ATOM     45  C   UNL     1      76.971  87.402  66.666  1.00  0.00     0.050 A 
ATOM     46  C   UNL     1      77.177  86.369  67.579  1.00  0.00     0.157 A 
BRANCH  44  47
ATOM     47  O   UNL     1      76.879  85.477  69.782  1.00  0.00    -0.493 OA
ATOM     48  C   UNL     1      75.756  84.652  70.087  1.00  0.00     0.278 C 
ENDBRANCH  44  47
BRANCH  46  49
ATOM     49  O   UNL     1      77.859  85.256  67.190  1.00  0.00    -0.504 OA
ATOM     50  H   UNL     1      77.698  85.100  66.245  1.00  0.00     0.293 HD
ENDBRANCH  46  49
ENDBRANCH  40  41
ENDBRANCH  38  40
ENDBRANCH  37  38
ENDBRANCH   1  37
TORSDOF 11
ENDMDL
MODEL 3
REMARK VINA RESULT:    -5.589     25.939     31.360
REMARK INTER + INTRA:         -11.478
REMARK INTER:                 -10.660
REMARK INTRA:                  -0.819
REMARK UNBOUND:                -1.642
REMARK SMILES C=C(C)[C@]12C[C@@H](C)[C@@]34O[C@](Cc5ccccc5)(O[C@@H]1[C@@H]3C=C(COC(=O)Cc1ccc(O)c(OC)c1)C[C@]1(O)C(=O)C(C)=C[C@@H]41)O2
REMARK SMILES IDX 23 1 22 2 21 3 20 4 9 5 8 6 10 7 6 8 18 9 46 10 19 11 5 12
REMARK SMILES IDX 7 13 4 14 45 15 38 16 44 17 40 18 42 20 41 21 43 22 39 23
REMARK SMILES IDX 11 25 12 26 13 27 17 28 14 29 16 30 15 31 2 32 3 33 1 34
REMARK SMILES IDX 37 35 24 37 25 38 26 39 27 40 28 41 36 42 29 43 33 44 30 45
REMARK SMILES IDX 31 46 34 47 35 48 32 49
REMARK H PARENT 39 24 32 50
REMARK Flexibility Score: 90.00
ROOT
ATOM      1  C   UNL     1      97.119  78.625  81.863  1.00  0.00     0.264 C 
ENDROOT
BRANCH   1   2
ATOM      2  C   UNL     1      98.017  79.540  81.063  1.00  0.00    -0.033 C 
ATOM      3  C   UNL     1      99.193  79.070  80.600  1.00  0.00    -0.015 C 
BRANCH   3   4
ATOM      4  C   UNL     1     100.294  79.799  79.848  1.00  0.00     0.078 C 
ATOM      5  O   UNL     1      99.849  79.483  77.435  1.00  0.00    -0.319 OA
ATOM      6  C   UNL     1      99.933  80.497  78.484  1.00  0.00     0.095 C 
ATOM      7  C   UNL     1     100.883  78.481  77.461  1.00  0.00     0.289 C 
ATOM      8  C   UNL     1     101.102  81.510  78.139  1.00  0.00     0.023 C 
ATOM      9  O   UNL     1     100.909  77.797  78.711  1.00  0.00    -0.320 OA
ATOM     10  O   UNL     1     102.183  79.042  77.302  1.00  0.00    -0.313 OA
ATOM     11  C   UNL     1     101.461  78.825  79.549  1.00  0.00     0.170 C 
ATOM     12  C   UNL     1     102.481  80.984  78.644  1.00  0.00     0.049 C 
ATOM     13  C   UNL     1     101.217  81.906  76.659  1.00  0.00     0.011 C 
ATOM     14  C   UNL     1     102.542  79.456  78.637  1.00  0.00     0.122 C 
BRANCH   6  15
ATOM     15  C   UNL     1      98.507  81.117  78.541  1.00  0.00     0.086 C 
ATOM     16  C   UNL     1      98.141  81.861  79.842  1.00  0.00     0.140 CG0
ATOM     17  C   UNL     1      98.073  82.067  77.461  1.00  0.00    -0.010 C 
ATOM     18  C   UNL     1      97.248  82.976  79.340  1.00  0.00     0.190 C 
ATOM     19  G   UNL     1      97.434  80.953  80.847  1.00  0.00     0.000 G0
ATOM     20  C   UNL     1      97.341  83.107  77.873  1.00  0.00    -0.008 C 
ATOM     21  O   UNL     1      96.574  83.714  80.042  1.00  0.00    -0.291 OA
ATOM     22  C   UNL     1      96.684  84.177  77.095  1.00  0.00     0.048 C 
BRANCH  16  23
ATOM     23  O   UNL     1      99.232  82.544  80.439  1.00  0.00    -0.381 OA
ATOM     24  H   UNL     1      98.879  83.236  81.022  1.00  0.00     0.212 HD
ENDBRANCH  16  23
ENDBRANCH   6  15
BRANCH   7  25
ATOM     25  C   UNL     1     100.617  77.494  76.343  1.00  0.00     0.135 C 
BRANCH  25  26
ATOM     26  C   UNL     1      99.804  76.314  76.812  1.00  0.00    -0.040 A 
ATOM     27  C   UNL     1      98.463  76.485  77.159  1.00  0.00     0.004 A 
ATOM     28  C   UNL     1     100.391  75.052  76.898  1.00  0.00     0.004 A 
ATOM     29  C   UNL     1      97.711  75.393  77.593  1.00  0.00     0.000 A 
ATOM     30  C   UNL     1      99.638  73.960  77.332  1.00  0.00     0.000 A 
ATOM     31  C   UNL     1      98.298  74.131  77.680  1.00  0.00     0.000 A 
ENDBRANCH  25  26
ENDBRANCH   7  25
BRANCH  14  32
ATOM     32  C   UNL     1     103.908  78.934  78.941  1.00  0.00    -0.046 C 
ATOM     33  C   UNL     1     105.054  79.838  78.598  1.00  0.00     0.042 C 
ATOM     34  C   UNL     1     104.099  77.725  79.489  1.00  0.00     0.010 C 
ENDBRANCH  14  32
ENDBRANCH   3   4
BRANCH   2  35
ATOM     35  C   UNL     1      97.437  80.929  80.877  1.00  0.00     0.078 CG0
ATOM     36  G   UNL     1      98.128  81.846  79.869  1.00  0.00     0.000 G0
ENDBRANCH   2  35
ENDBRANCH   1   2
BRANCH   1  37
ATOM     37  O   UNL     1      96.253  79.403  82.661  1.00  0.00    -0.461 OA
BRANCH  37  38
ATOM     38  C   UNL     1      96.149  79.036  83.983  1.00  0.00     0.310 C 
ATOM     39  O   UNL     1      97.088  78.708  84.696  1.00  0.00    -0.252 OA
BRANCH  38  40
ATOM     40  C   UNL     1      94.703  79.101  84.413  1.00  0.00     0.158 C 
BRANCH  40  41
ATOM     41  C   UNL     1      94.206  80.512  84.594  1.00  0.00    -0.033 A 
ATOM     42  C   UNL     1      92.841  80.788  84.505  1.00  0.00     0.054 A 
ATOM     43  C   UNL     1      95.110  81.542  84.851  1.00  0.00     0.008 A 
ATOM     44  C   UNL     1      92.381  82.094  84.673  1.00  0.00     0.160 A 
ATOM     45  C   UNL     1      94.650  82.849  85.018  1.00  0.00     0.050 A 
ATOM     46  C   UNL     1      93.286  83.125  84.929  1.00  0.00     0.157 A 
BRANCH  44  47
ATOM     47  O   UNL     1      91.047  82.351  84.583  1.00  0.00    -0.493 OA
ATOM     48  C   UNL     1      90.194  81.249  84.274  1.00  0.00     0.278 C 
ENDBRANCH  44  47
BRANCH  46  49
ATOM     49  O   UNL     1      92.849  84.404  85.095  1.00  0.00    -0.504 OA
ATOM     50  H   UNL     1      93.607  85.009  85.031  1.00  0.00     0.293 HD
ENDBRANCH  46  49
ENDBRANCH  40  41
ENDBRANCH  38  40
ENDBRANCH  37  38
ENDBRANCH   1  37
TORSDOF 11
ENDMDL
MODEL 4
REMARK VINA RESULT:    -5.539     26.632     31.306
REMARK INTER + INTRA:         -11.390
REMARK INTER:                  -9.202
REMARK INTRA:                  -2.188
REMARK UNBOUND:                -1.642
REMARK SMILES C=C(C)[C@]12C[C@@H](C)[C@@]34O[C@](Cc5ccccc5)(O[C@@H]1[C@@H]3C=C(COC(=O)Cc1ccc(O)c(OC)c1)C[C@]1(O)C(=O)C(C)=C[C@@H]41)O2
REMARK SMILES IDX 23 1 22 2 21 3 20 4 9 5 8 6 10 7 6 8 18 9 46 10 19 11 5 12
REMARK SMILES IDX 7 13 4 14 45 15 38 16 44 17 40 18 42 20 41 21 43 22 39 23
REMARK SMILES IDX 11 25 12 26 13 27 17 28 14 29 16 30 15 31 2 32 3 33 1 34
REMARK SMILES IDX 37 35 24 37 25 38 26 39 27 40 28 41 36 42 29 43 33 44 30 45
REMARK SMILES IDX 31 46 34 47 35 48 32 49
REMARK H PARENT 39 24 32 50
REMARK Flexibility Score: 90.00
ROOT
ATOM      1  C   UNL     1      96.605  75.870  81.794  1.00  0.00     0.264 C 
ENDROOT
BRANCH   1   2
ATOM      2  C   UNL     1      96.988  77.231  81.260  1.00  0.00    -0.033 C 
ATOM      3  C   UNL     1      96.706  78.329  81.989  1.00  0.00    -0.015 C 
BRANCH   3   4
ATOM      4  C   UNL     1      96.915  79.795  81.646  1.00  0.00     0.078 C 
ATOM      5  O   UNL     1      99.129  80.436  82.545  1.00  0.00    -0.319 OA
ATOM      6  C   UNL     1      98.372  80.283  81.304  1.00  0.00     0.095 C 
ATOM      7  C   UNL     1      98.415  81.057  83.630  1.00  0.00     0.289 C 
ATOM      8  C   UNL     1      98.250  81.692  80.589  1.00  0.00     0.023 C 
ATOM      9  O   UNL     1      97.225  80.339  83.945  1.00  0.00    -0.320 OA
ATOM     10  O   UNL     1      97.992  82.381  83.312  1.00  0.00    -0.313 OA
ATOM     11  C   UNL     1      96.415  80.684  82.811  1.00  0.00     0.170 C 
ATOM     12  C   UNL     1      97.039  82.508  81.136  1.00  0.00     0.049 C 
ATOM     13  C   UNL     1      99.515  82.565  80.630  1.00  0.00     0.011 C 
ATOM     14  C   UNL     1      96.753  82.181  82.602  1.00  0.00     0.122 C 
BRANCH   6  15
ATOM     15  C   UNL     1      99.147  79.193  80.508  1.00  0.00     0.086 C 
ATOM     16  C   UNL     1      98.355  78.469  79.400  1.00  0.00     0.140 CG0
ATOM     17  C   UNL     1     100.441  79.554  79.834  1.00  0.00    -0.010 C 
ATOM     18  C   UNL     1      99.418  78.214  78.353  1.00  0.00     0.190 C 
ATOM     19  G   UNL     1      97.708  77.179  79.902  1.00  0.00     0.000 G0
ATOM     20  C   UNL     1     100.636  78.998  78.634  1.00  0.00    -0.008 C 
ATOM     21  O   UNL     1      99.288  77.500  77.370  1.00  0.00    -0.291 OA
ATOM     22  C   UNL     1     101.807  79.060  77.735  1.00  0.00     0.048 C 
BRANCH  16  23
ATOM     23  O   UNL     1      97.415  79.295  78.734  1.00  0.00    -0.381 OA
ATOM     24  H   UNL     1      96.780  78.724  78.269  1.00  0.00     0.212 HD
ENDBRANCH  16  23
ENDBRANCH   6  15
BRANCH   7  25
ATOM     25  C   UNL     1      99.327  81.094  84.840  1.00  0.00     0.135 C 
BRANCH  25  26
ATOM     26  C   UNL     1      99.647  79.711  85.349  1.00  0.00    -0.040 A 
ATOM     27  C   UNL     1     100.837  79.088  84.972  1.00  0.00     0.004 A 
ATOM     28  C   UNL     1      98.755  79.055  86.196  1.00  0.00     0.004 A 
ATOM     29  C   UNL     1     101.134  77.808  85.442  1.00  0.00     0.000 A 
ATOM     30  C   UNL     1      99.052  77.775  86.667  1.00  0.00     0.000 A 
ATOM     31  C   UNL     1     100.241  77.152  86.289  1.00  0.00     0.000 A 
ENDBRANCH  25  26
ENDBRANCH   7  25
BRANCH  14  32
ATOM     32  C   UNL     1      95.719  83.079  83.199  1.00  0.00    -0.046 C 
ATOM     33  C   UNL     1      96.086  84.529  83.312  1.00  0.00     0.042 C 
ATOM     34  C   UNL     1      94.529  82.615  83.611  1.00  0.00     0.010 C 
ENDBRANCH  14  32
ENDBRANCH   3   4
BRANCH   2  35
ATOM     35  C   UNL     1      97.680  77.167  79.911  1.00  0.00     0.078 CG0
ATOM     36  G   UNL     1      98.348  78.445  79.407  1.00  0.00     0.000 G0
ENDBRANCH   2  35
ENDBRANCH   1   2
BRANCH   1  37
ATOM     37  O   UNL     1      95.207  75.821  81.984  1.00  0.00    -0.461 OA
BRANCH  37  38
ATOM     38  C   UNL     1      94.765  75.081  83.056  1.00  0.00     0.310 C 
ATOM     39  O   UNL     1      95.359  74.131  83.547  1.00  0.00    -0.252 OA
BRANCH  38  40
ATOM     40  C   UNL     1      93.436  75.622  83.528  1.00  0.00     0.158 C 
BRANCH  40  41
ATOM     41  C   UNL     1      93.562  76.934  84.259  1.00  0.00    -0.033 A 
ATOM     42  C   UNL     1      92.471  77.802  84.327  1.00  0.00     0.054 A 
ATOM     43  C   UNL     1      94.768  77.281  84.868  1.00  0.00     0.008 A 
ATOM     44  C   UNL     1      92.588  79.017  85.003  1.00  0.00     0.160 A 
ATOM     45  C   UNL     1      94.884  78.495  85.544  1.00  0.00     0.050 A 
ATOM     46  C   UNL     1      93.795  79.364  85.612  1.00  0.00     0.157 A 
BRANCH  44  47
ATOM     47  O   UNL     1      91.517  79.856  85.062  1.00  0.00    -0.493 OA
ATOM     48  C   UNL     1      91.037  80.383  83.826  1.00  0.00     0.278 C 
ENDBRANCH  44  47
BRANCH  46  49
ATOM     49  O   UNL     1      93.920  80.546  86.276  1.00  0.00    -0.504 OA
ATOM     50  H   UNL     1      94.643  81.059  85.876  1.00  0.00     0.293 HD
ENDBRANCH  46  49
ENDBRANCH  40  41
ENDBRANCH  38  40
ENDBRANCH  37  38
ENDBRANCH   1  37
TORSDOF 11
ENDMDL
MODEL 5
REMARK VINA RESULT:    -5.465     25.216     28.082
REMARK INTER + INTRA:         -11.260
REMARK INTER:                 -10.489
REMARK INTRA:                  -0.771
REMARK UNBOUND:                -1.642
REMARK SMILES C=C(C)[C@]12C[C@@H](C)[C@@]34O[C@](Cc5ccccc5)(O[C@@H]1[C@@H]3C=C(COC(=O)Cc1ccc(O)c(OC)c1)C[C@]1(O)C(=O)C(C)=C[C@@H]41)O2
REMARK SMILES IDX 23 1 22 2 21 3 20 4 9 5 8 6 10 7 6 8 18 9 46 10 19 11 5 12
REMARK SMILES IDX 7 13 4 14 45 15 38 16 44 17 40 18 42 20 41 21 43 22 39 23
REMARK SMILES IDX 11 25 12 26 13 27 17 28 14 29 16 30 15 31 2 32 3 33 1 34
REMARK SMILES IDX 37 35 24 37 25 38 26 39 27 40 28 41 36 42 29 43 33 44 30 45
REMARK SMILES IDX 31 46 34 47 35 48 32 49
REMARK H PARENT 39 24 32 50
REMARK Flexibility Score: 90.00
ROOT
ATOM      1  C   UNL     1      91.059  77.927  84.228  1.00  0.00     0.264 C 
ENDROOT
BRANCH   1   2
ATOM      2  C   UNL     1      91.722  76.622  83.852  1.00  0.00    -0.033 C 
ATOM      3  C   UNL     1      90.955  75.556  83.547  1.00  0.00    -0.015 C 
BRANCH   3   4
ATOM      4  C   UNL     1      91.369  74.132  83.217  1.00  0.00     0.078 C 
ATOM      5  O   UNL     1      91.617  74.004  80.759  1.00  0.00    -0.319 OA
ATOM      6  C   UNL     1      92.358  73.899  82.014  1.00  0.00     0.095 C 
ATOM      7  C   UNL     1      90.330  73.359  80.747  1.00  0.00     0.289 C 
ATOM      8  C   UNL     1      92.946  72.434  82.153  1.00  0.00     0.023 C 
ATOM      9  O   UNL     1      89.488  73.865  81.780  1.00  0.00    -0.320 OA
ATOM     10  O   UNL     1      90.425  71.956  80.981  1.00  0.00    -0.313 OA
ATOM     11  C   UNL     1      90.114  73.272  82.928  1.00  0.00     0.170 C 
ATOM     12  C   UNL     1      91.904  71.456  82.777  1.00  0.00     0.049 C 
ATOM     13  C   UNL     1      93.510  71.824  80.860  1.00  0.00     0.011 C 
ATOM     14  C   UNL     1      90.471  71.853  82.419  1.00  0.00     0.122 C 
BRANCH   6  15
ATOM     15  C   UNL     1      93.414  75.040  81.939  1.00  0.00     0.086 C 
ATOM     16  C   UNL     1      94.008  75.506  83.285  1.00  0.00     0.140 CG0
ATOM     17  C   UNL     1      94.623  74.867  81.064  1.00  0.00    -0.010 C 
ATOM     18  C   UNL     1      95.431  75.860  82.907  1.00  0.00     0.190 C 
ATOM     19  G   UNL     1      93.245  76.692  83.872  1.00  0.00     0.000 G0
ATOM     20  C   UNL     1      95.767  75.343  81.568  1.00  0.00    -0.008 C 
ATOM     21  O   UNL     1      96.227  76.450  83.622  1.00  0.00    -0.291 OA
ATOM     22  C   UNL     1      97.113  75.420  80.964  1.00  0.00     0.048 C 
BRANCH  16  23
ATOM     23  O   UNL     1      94.159  74.465  84.236  1.00  0.00    -0.381 OA
ATOM     24  H   UNL     1      94.736  74.784  84.950  1.00  0.00     0.212 HD
ENDBRANCH  16  23
ENDBRANCH   6  15
BRANCH   7  25
ATOM     25  C   UNL     1      89.687  73.604  79.397  1.00  0.00     0.135 C 
BRANCH  25  26
ATOM     26  C   UNL     1      90.654  74.216  78.414  1.00  0.00    -0.040 A 
ATOM     27  C   UNL     1      90.651  75.594  78.198  1.00  0.00     0.004 A 
ATOM     28  C   UNL     1      91.552  73.404  77.721  1.00  0.00     0.004 A 
ATOM     29  C   UNL     1      91.545  76.160  77.289  1.00  0.00     0.000 A 
ATOM     30  C   UNL     1      92.446  73.970  76.812  1.00  0.00     0.000 A 
ATOM     31  C   UNL     1      92.442  75.348  76.596  1.00  0.00     0.000 A 
ENDBRANCH  25  26
ENDBRANCH   7  25
BRANCH  14  32
ATOM     32  C   UNL     1      89.468  70.833  82.850  1.00  0.00    -0.046 C 
ATOM     33  C   UNL     1      88.079  71.338  83.106  1.00  0.00     0.042 C 
ATOM     34  C   UNL     1      89.791  69.540  82.999  1.00  0.00     0.010 C 
ENDBRANCH  14  32
ENDBRANCH   3   4
BRANCH   2  35
ATOM     35  C   UNL     1      93.237  76.699  83.864  1.00  0.00     0.078 CG0
ATOM     36  G   UNL     1      94.002  75.512  83.282  1.00  0.00     0.000 G0
ENDBRANCH   2  35
ENDBRANCH   1   2
BRANCH   1  37
ATOM     37  O   UNL     1      92.029  78.951  84.258  1.00  0.00    -0.461 OA
BRANCH  37  38
ATOM     38  C   UNL     1      91.593  80.190  84.666  1.00  0.00     0.310 C 
ATOM     39  O   UNL     1      90.539  80.711  84.327  1.00  0.00    -0.252 OA
BRANCH  38  40
ATOM     40  C   UNL     1      92.614  80.805  85.594  1.00  0.00     0.158 C 
BRANCH  40  41
ATOM     41  C   UNL     1      93.839  81.305  84.872  1.00  0.00    -0.033 A 
ATOM     42  C   UNL     1      93.983  82.668  84.606  1.00  0.00     0.054 A 
ATOM     43  C   UNL     1      94.827  80.408  84.471  1.00  0.00     0.008 A 
ATOM     44  C   UNL     1      95.117  83.131  83.938  1.00  0.00     0.160 A 
ATOM     45  C   UNL     1      95.961  80.871  83.802  1.00  0.00     0.050 A 
ATOM     46  C   UNL     1      96.106  82.232  83.536  1.00  0.00     0.157 A 
BRANCH  44  47
ATOM     47  O   UNL     1      95.246  84.463  83.683  1.00  0.00    -0.493 OA
ATOM     48  C   UNL     1      94.996  85.357  84.766  1.00  0.00     0.278 C 
ENDBRANCH  44  47
BRANCH  46  49
ATOM     49  O   UNL     1      97.217  82.673  82.884  1.00  0.00    -0.504 OA
ATOM     50  H   UNL     1      96.975  83.427  82.320  1.00  0.00     0.293 HD
ENDBRANCH  46  49
ENDBRANCH  40  41
ENDBRANCH  38  40
ENDBRANCH  37  38
ENDBRANCH   1  37
TORSDOF 11
ENDMDL
MODEL 6
REMARK VINA RESULT:    -5.420     29.516     32.325
REMARK INTER + INTRA:         -11.182
REMARK INTER:                 -10.160
REMARK INTRA:                  -1.022
REMARK UNBOUND:                -1.642
REMARK SMILES C=C(C)[C@]12C[C@@H](C)[C@@]34O[C@](Cc5ccccc5)(O[C@@H]1[C@@H]3C=C(COC(=O)Cc1ccc(O)c(OC)c1)C[C@]1(O)C(=O)C(C)=C[C@@H]41)O2
REMARK SMILES IDX 23 1 22 2 21 3 20 4 9 5 8 6 10 7 6 8 18 9 46 10 19 11 5 12
REMARK SMILES IDX 7 13 4 14 45 15 38 16 44 17 40 18 42 20 41 21 43 22 39 23
REMARK SMILES IDX 11 25 12 26 13 27 17 28 14 29 16 30 15 31 2 32 3 33 1 34
REMARK SMILES IDX 37 35 24 37 25 38 26 39 27 40 28 41 36 42 29 43 33 44 30 45
REMARK SMILES IDX 31 46 34 47 35 48 32 49
REMARK H PARENT 39 24 32 50
REMARK Flexibility Score: 90.00
ROOT
ATOM      1  C   UNL     1      91.673  92.627  93.206  1.00  0.00     0.264 C 
ENDROOT
BRANCH   1   2
ATOM      2  C   UNL     1      91.136  93.830  92.466  1.00  0.00    -0.033 C 
ATOM      3  C   UNL     1      89.956  94.363  92.842  1.00  0.00    -0.015 C 
BRANCH   3   4
ATOM      4  C   UNL     1      89.173  95.508  92.220  1.00  0.00     0.078 C 
ATOM      5  O   UNL     1      89.858  97.573  93.398  1.00  0.00    -0.319 OA
ATOM      6  C   UNL     1      89.872  96.913  92.095  1.00  0.00     0.095 C 
ATOM      7  C   UNL     1      88.622  97.465  94.130  1.00  0.00     0.289 C 
ATOM      8  C   UNL     1      89.035  97.775  91.062  1.00  0.00     0.023 C 
ATOM      9  O   UNL     1      88.263  96.102  94.341  1.00  0.00    -0.320 OA
ATOM     10  O   UNL     1      87.526  98.047  93.430  1.00  0.00    -0.313 OA
ATOM     11  C   UNL     1      87.861  95.738  93.011  1.00  0.00     0.170 C 
ATOM     12  C   UNL     1      87.515  97.432  91.132  1.00  0.00     0.049 C 
ATOM     13  C   UNL     1      89.222  99.297  91.169  1.00  0.00     0.011 C 
ATOM     14  C   UNL     1      87.096  96.999  92.537  1.00  0.00     0.122 C 
BRANCH   6  15
ATOM     15  C   UNL     1      91.383  96.749  91.759  1.00  0.00     0.086 C 
ATOM     16  C   UNL     1      91.732  95.686  90.697  1.00  0.00     0.140 CG0
ATOM     17  C   UNL     1      92.176  97.950  91.326  1.00  0.00    -0.010 C 
ATOM     18  C   UNL     1      92.925  96.303  89.998  1.00  0.00     0.190 C 
ATOM     19  G   UNL     1      92.057  94.330  91.322  1.00  0.00     0.000 G0
ATOM     20  C   UNL     1      93.070  97.726  90.357  1.00  0.00    -0.008 C 
ATOM     21  O   UNL     1      93.652  95.731  89.200  1.00  0.00    -0.291 OA
ATOM     22  C   UNL     1      94.063  98.636  89.751  1.00  0.00     0.048 C 
BRANCH  16  23
ATOM     23  O   UNL     1      90.763  95.562  89.669  1.00  0.00    -0.381 OA
ATOM     24  H   UNL     1      89.890  95.758  90.045  1.00  0.00     0.212 HD
ENDBRANCH  16  23
ENDBRANCH   6  15
BRANCH   7  25
ATOM     25  C   UNL     1      88.797  98.160  95.465  1.00  0.00     0.135 C 
BRANCH  25  26
ATOM     26  C   UNL     1      89.842  97.487  96.320  1.00  0.00    -0.040 A 
ATOM     27  C   UNL     1      89.561  96.265  96.931  1.00  0.00     0.004 A 
ATOM     28  C   UNL     1      91.088  98.086  96.499  1.00  0.00     0.004 A 
ATOM     29  C   UNL     1      90.527  95.642  97.722  1.00  0.00     0.000 A 
ATOM     30  C   UNL     1      92.054  97.463  97.291  1.00  0.00     0.000 A 
ATOM     31  C   UNL     1      91.773  96.241  97.902  1.00  0.00     0.000 A 
ENDBRANCH  25  26
ENDBRANCH   7  25
BRANCH  14  32
ATOM     32  C   UNL     1      85.617  96.842  92.673  1.00  0.00    -0.046 C 
ATOM     33  C   UNL     1      84.838  98.099  92.925  1.00  0.00     0.042 C 
ATOM     34  C   UNL     1      85.018  95.646  92.574  1.00  0.00     0.010 C 
ENDBRANCH  14  32
ENDBRANCH   3   4
BRANCH   2  35
ATOM     35  C   UNL     1      92.050  94.298  91.349  1.00  0.00     0.078 CG0
ATOM     36  G   UNL     1      91.746  95.657  90.721  1.00  0.00     0.000 G0
ENDBRANCH   2  35
ENDBRANCH   1   2
BRANCH   1  37
ATOM     37  O   UNL     1      92.799  92.122  92.522  1.00  0.00    -0.461 OA
BRANCH  37  38
ATOM     38  C   UNL     1      92.757  90.790  92.183  1.00  0.00     0.310 C 
ATOM     39  O   UNL     1      93.232  89.880  92.849  1.00  0.00    -0.252 OA
BRANCH  38  40
ATOM     40  C   UNL     1      92.037  90.626  90.865  1.00  0.00     0.158 C 
BRANCH  40  41
ATOM     41  C   UNL     1      92.975  90.443  89.700  1.00  0.00    -0.033 A 
ATOM     42  C   UNL     1      93.208  89.167  89.187  1.00  0.00     0.054 A 
ATOM     43  C   UNL     1      93.610  91.549  89.136  1.00  0.00     0.008 A 
ATOM     44  C   UNL     1      94.077  88.997  88.109  1.00  0.00     0.160 A 
ATOM     45  C   UNL     1      94.479  91.379  88.058  1.00  0.00     0.050 A 
ATOM     46  C   UNL     1      94.713  90.104  87.544  1.00  0.00     0.157 A 
BRANCH  44  47
ATOM     47  O   UNL     1      94.297  87.746  87.616  1.00  0.00    -0.493 OA
ATOM     48  C   UNL     1      93.617  86.668  88.257  1.00  0.00     0.278 C 
ENDBRANCH  44  47
BRANCH  46  49
ATOM     49  O   UNL     1      95.562  89.951  86.491  1.00  0.00    -0.504 OA
ATOM     50  H   UNL     1      96.474  89.899  86.824  1.00  0.00     0.293 HD
ENDBRANCH  46  49
ENDBRANCH  40  41
ENDBRANCH  38  40
ENDBRANCH  37  38
ENDBRANCH   1  37
TORSDOF 11
ENDMDL
MODEL 7
REMARK VINA RESULT:    -5.418     27.191     31.713
REMARK INTER + INTRA:         -11.178
REMARK INTER:                 -10.256
REMARK INTRA:                  -0.923
REMARK UNBOUND:                -1.642
REMARK SMILES C=C(C)[C@]12C[C@@H](C)[C@@]34O[C@](Cc5ccccc5)(O[C@@H]1[C@@H]3C=C(COC(=O)Cc1ccc(O)c(OC)c1)C[C@]1(O)C(=O)C(C)=C[C@@H]41)O2
REMARK SMILES IDX 23 1 22 2 21 3 20 4 9 5 8 6 10 7 6 8 18 9 46 10 19 11 5 12
REMARK SMILES IDX 7 13 4 14 45 15 38 16 44 17 40 18 42 20 41 21 43 22 39 23
REMARK SMILES IDX 11 25 12 26 13 27 17 28 14 29 16 30 15 31 2 32 3 33 1 34
REMARK SMILES IDX 37 35 24 37 25 38 26 39 27 40 28 41 36 42 29 43 33 44 30 45
REMARK SMILES IDX 31 46 34 47 35 48 32 49
REMARK H PARENT 39 24 32 50
REMARK Flexibility Score: 90.00
ROOT
ATOM      1  C   UNL     1      97.267  78.799  81.772  1.00  0.00     0.264 C 
ENDROOT
BRANCH   1   2
ATOM      2  C   UNL     1      98.084  79.722  80.898  1.00  0.00    -0.033 C 
ATOM      3  C   UNL     1      99.233  79.271  80.356  1.00  0.00    -0.015 C 
BRANCH   3   4
ATOM      4  C   UNL     1     100.260  80.013  79.517  1.00  0.00     0.078 C 
ATOM      5  O   UNL     1      99.646  79.659  77.147  1.00  0.00    -0.319 OA
ATOM      6  C   UNL     1      99.785  80.687  78.175  1.00  0.00     0.095 C 
ATOM      7  C   UNL     1     100.700  78.679  77.107  1.00  0.00     0.289 C 
ATOM      8  C   UNL     1     100.904  81.720  77.735  1.00  0.00     0.023 C 
ATOM      9  O   UNL     1     100.833  78.011  78.360  1.00  0.00    -0.320 OA
ATOM     10  O   UNL     1     101.973  79.265  76.847  1.00  0.00    -0.313 OA
ATOM     11  C   UNL     1     101.422  79.060  79.143  1.00  0.00     0.170 C 
ATOM     12  C   UNL     1     102.327  81.229  78.142  1.00  0.00     0.049 C 
ATOM     13  C   UNL     1     100.901  82.100  76.245  1.00  0.00     0.011 C 
ATOM     14  C   UNL     1     102.419  79.702  78.147  1.00  0.00     0.122 C 
BRANCH   6  15
ATOM     15  C   UNL     1      98.354  81.278  78.331  1.00  0.00     0.086 C 
ATOM     16  C   UNL     1      98.066  82.025  79.650  1.00  0.00     0.140 CG0
ATOM     17  C   UNL     1      97.823  82.210  77.279  1.00  0.00    -0.010 C 
ATOM     18  C   UNL     1      97.117  83.117  79.206  1.00  0.00     0.190 C 
ATOM     19  G   UNL     1      97.452  81.110  80.709  1.00  0.00     0.000 G0
ATOM     20  C   UNL     1      97.101  83.238  77.736  1.00  0.00    -0.008 C 
ATOM     21  O   UNL     1      96.479  83.846  79.950  1.00  0.00    -0.291 OA
ATOM     22  C   UNL     1      96.367  84.288  77.000  1.00  0.00     0.048 C 
BRANCH  16  23
ATOM     23  O   UNL     1      99.182  82.734  80.163  1.00  0.00    -0.381 OA
ATOM     24  H   UNL     1      99.794  82.916  79.430  1.00  0.00     0.212 HD
ENDBRANCH  16  23
ENDBRANCH   6  15
BRANCH   7  25
ATOM     25  C   UNL     1     100.375  77.673  76.022  1.00  0.00     0.135 C 
BRANCH  25  26
ATOM     26  C   UNL     1     101.497  77.534  75.024  1.00  0.00    -0.040 A 
ATOM     27  C   UNL     1     102.448  76.525  75.180  1.00  0.00     0.004 A 
ATOM     28  C   UNL     1     101.584  78.414  73.946  1.00  0.00     0.004 A 
ATOM     29  C   UNL     1     103.486  76.396  74.257  1.00  0.00     0.000 A 
ATOM     30  C   UNL     1     102.623  78.285  73.022  1.00  0.00     0.000 A 
ATOM     31  C   UNL     1     103.573  77.276  73.179  1.00  0.00     0.000 A 
ENDBRANCH  25  26
ENDBRANCH   7  25
BRANCH  14  32
ATOM     32  C   UNL     1     103.815  79.212  78.355  1.00  0.00    -0.046 C 
ATOM     33  C   UNL     1     104.775  80.187  78.970  1.00  0.00     0.042 C 
ATOM     34  C   UNL     1     104.190  77.971  78.011  1.00  0.00     0.010 C 
ENDBRANCH  14  32
ENDBRANCH   3   4
BRANCH   2  35
ATOM     35  C   UNL     1      97.460  81.095  80.737  1.00  0.00     0.078 CG0
ATOM     36  G   UNL     1      98.048  82.009  79.662  1.00  0.00     0.000 G0
ENDBRANCH   2  35
ENDBRANCH   1   2
BRANCH   1  37
ATOM     37  O   UNL     1      96.401  79.566  82.579  1.00  0.00    -0.461 OA
BRANCH  37  38
ATOM     38  C   UNL     1      96.409  79.280  83.925  1.00  0.00     0.310 C 
ATOM     39  O   UNL     1      97.414  79.187  84.617  1.00  0.00    -0.252 OA
BRANCH  38  40
ATOM     40  C   UNL     1      94.991  79.097  84.411  1.00  0.00     0.158 C 
BRANCH  40  41
ATOM     41  C   UNL     1      94.275  80.403  84.639  1.00  0.00    -0.033 A 
ATOM     42  C   UNL     1      94.991  81.600  84.638  1.00  0.00     0.054 A 
ATOM     43  C   UNL     1      92.896  80.415  84.850  1.00  0.00     0.008 A 
ATOM     44  C   UNL     1      94.328  82.810  84.849  1.00  0.00     0.160 A 
ATOM     45  C   UNL     1      92.233  81.624  85.060  1.00  0.00     0.050 A 
ATOM     46  C   UNL     1      92.948  82.821  85.060  1.00  0.00     0.157 A 
BRANCH  44  47
ATOM     47  O   UNL     1      95.038  83.972  84.846  1.00  0.00    -0.493 OA
ATOM     48  C   UNL     1      96.445  83.872  84.635  1.00  0.00     0.278 C 
ENDBRANCH  44  47
BRANCH  46  49
ATOM     49  O   UNL     1      92.290  83.995  85.266  1.00  0.00    -0.504 OA
ATOM     50  H   UNL     1      91.367  83.896  84.977  1.00  0.00     0.293 HD
ENDBRANCH  46  49
ENDBRANCH  40  41
ENDBRANCH  38  40
ENDBRANCH  37  38
ENDBRANCH   1  37
TORSDOF 11
ENDMDL
MODEL 8
REMARK VINA RESULT:    -5.338     28.247     32.429
REMARK INTER + INTRA:         -11.036
REMARK INTER:                  -9.898
REMARK INTRA:                  -1.138
REMARK UNBOUND:                -1.642
REMARK SMILES C=C(C)[C@]12C[C@@H](C)[C@@]34O[C@](Cc5ccccc5)(O[C@@H]1[C@@H]3C=C(COC(=O)Cc1ccc(O)c(OC)c1)C[C@]1(O)C(=O)C(C)=C[C@@H]41)O2
REMARK SMILES IDX 23 1 22 2 21 3 20 4 9 5 8 6 10 7 6 8 18 9 46 10 19 11 5 12
REMARK SMILES IDX 7 13 4 14 45 15 38 16 44 17 40 18 42 20 41 21 43 22 39 23
REMARK SMILES IDX 11 25 12 26 13 27 17 28 14 29 16 30 15 31 2 32 3 33 1 34
REMARK SMILES IDX 37 35 24 37 25 38 26 39 27 40 28 41 36 42 29 43 33 44 30 45
REMARK SMILES IDX 31 46 34 47 35 48 32 49
REMARK H PARENT 39 24 32 50
REMARK Flexibility Score: 90.00
ROOT
ATOM      1  C   UNL     1      96.708  79.320  82.203  1.00  0.00     0.264 C 
ENDROOT
BRANCH   1   2
ATOM      2  C   UNL     1      97.782  80.037  81.418  1.00  0.00    -0.033 C 
ATOM      3  C   UNL     1      99.001  79.474  81.303  1.00  0.00    -0.015 C 
BRANCH   3   4
ATOM      4  C   UNL     1     100.257  80.018  80.642  1.00  0.00     0.078 C 
ATOM      5  O   UNL     1     100.251  79.209  78.305  1.00  0.00    -0.319 OA
ATOM      6  C   UNL     1     100.190  80.419  79.121  1.00  0.00     0.095 C 
ATOM      7  C   UNL     1     101.213  78.225  78.732  1.00  0.00     0.289 C 
ATOM      8  C   UNL     1     101.451  81.326  78.808  1.00  0.00     0.023 C 
ATOM      9  O   UNL     1     100.973  77.818  80.077  1.00  0.00    -0.320 OA
ATOM     10  O   UNL     1     102.546  78.728  78.714  1.00  0.00    -0.313 OA
ATOM     11  C   UNL     1     101.410  78.993  80.777  1.00  0.00     0.170 C 
ATOM     12  C   UNL     1     102.685  80.905  79.664  1.00  0.00     0.049 C 
ATOM     13  C   UNL     1     101.857  81.402  77.327  1.00  0.00     0.011 C 
ATOM     14  C   UNL     1     102.671  79.409  79.979  1.00  0.00     0.122 C 
BRANCH   6  15
ATOM     15  C   UNL     1      98.810  81.050  78.778  1.00  0.00     0.086 C 
ATOM     16  C   UNL     1      98.241  82.046  79.810  1.00  0.00     0.140 CG0
ATOM     17  C   UNL     1      98.633  81.765  77.467  1.00  0.00    -0.010 C 
ATOM     18  C   UNL     1      97.513  83.043  78.934  1.00  0.00     0.190 C 
ATOM     19  G   UNL     1      97.314  81.366  80.817  1.00  0.00     0.000 G0
ATOM     20  C   UNL     1      97.887  82.873  77.516  1.00  0.00    -0.008 C 
ATOM     21  O   UNL     1      96.755  83.914  79.332  1.00  0.00    -0.291 OA
ATOM     22  C   UNL     1      97.440  83.769  76.430  1.00  0.00     0.048 C 
BRANCH  16  23
ATOM     23  O   UNL     1      99.231  82.825  80.460  1.00  0.00    -0.381 OA
ATOM     24  H   UNL     1      98.927  83.016  81.363  1.00  0.00     0.212 HD
ENDBRANCH  16  23
ENDBRANCH   6  15
BRANCH   7  25
ATOM     25  C   UNL     1     101.111  77.028  77.809  1.00  0.00     0.135 C 
BRANCH  25  26
ATOM     26  C   UNL     1     102.289  76.098  77.956  1.00  0.00    -0.040 A 
ATOM     27  C   UNL     1     103.308  76.106  77.002  1.00  0.00     0.004 A 
ATOM     28  C   UNL     1     102.362  75.232  79.047  1.00  0.00     0.004 A 
ATOM     29  C   UNL     1     104.398  75.246  77.139  1.00  0.00     0.000 A 
ATOM     30  C   UNL     1     103.453  74.372  79.183  1.00  0.00     0.000 A 
ATOM     31  C   UNL     1     104.470  74.380  78.229  1.00  0.00     0.000 A 
ENDBRANCH  25  26
ENDBRANCH   7  25
BRANCH  14  32
ATOM     32  C   UNL     1     103.930  78.949  80.639  1.00  0.00    -0.046 C 
ATOM     33  C   UNL     1     105.211  79.443  80.037  1.00  0.00     0.042 C 
ATOM     34  C   UNL     1     103.915  78.141  81.710  1.00  0.00     0.010 C 
ENDBRANCH  14  32
ENDBRANCH   3   4
BRANCH   2  35
ATOM     35  C   UNL     1      97.311  81.355  80.834  1.00  0.00     0.078 CG0
ATOM     36  G   UNL     1      98.218  82.026  79.803  1.00  0.00     0.000 G0
ENDBRANCH   2  35
ENDBRANCH   1   2
BRANCH   1  37
ATOM     37  O   UNL     1      96.914  79.537  83.582  1.00  0.00    -0.461 OA
BRANCH  37  38
ATOM     38  C   UNL     1      95.868  80.105  84.272  1.00  0.00     0.310 C 
ATOM     39  O   UNL     1      94.684  79.877  84.065  1.00  0.00    -0.252 OA
BRANCH  38  40
ATOM     40  C   UNL     1      96.409  81.051  85.319  1.00  0.00     0.158 C 
BRANCH  40  41
ATOM     41  C   UNL     1      96.049  82.490  85.053  1.00  0.00    -0.033 A 
ATOM     42  C   UNL     1      95.206  83.171  85.932  1.00  0.00     0.054 A 
ATOM     43  C   UNL     1      96.558  83.141  83.930  1.00  0.00     0.008 A 
ATOM     44  C   UNL     1      94.872  84.504  85.686  1.00  0.00     0.160 A 
ATOM     45  C   UNL     1      96.225  84.473  83.684  1.00  0.00     0.050 A 
ATOM     46  C   UNL     1      95.382  85.154  84.561  1.00  0.00     0.157 A 
BRANCH  44  47
ATOM     47  O   UNL     1      94.048  85.158  86.550  1.00  0.00    -0.493 OA
ATOM     48  C   UNL     1      93.691  84.473  87.750  1.00  0.00     0.278 C 
ENDBRANCH  44  47
BRANCH  46  49
ATOM     49  O   UNL     1      95.065  86.455  84.312  1.00  0.00    -0.504 OA
ATOM     50  H   UNL     1      95.825  86.892  83.893  1.00  0.00     0.293 HD
ENDBRANCH  46  49
ENDBRANCH  40  41
ENDBRANCH  38  40
ENDBRANCH  37  38
ENDBRANCH   1  37
TORSDOF 11
ENDMDL
MODEL 9
REMARK VINA RESULT:    -5.321     25.935     31.977
REMARK INTER + INTRA:         -11.007
REMARK INTER:                 -10.157
REMARK INTRA:                  -0.849
REMARK UNBOUND:                -1.642
REMARK SMILES C=C(C)[C@]12C[C@@H](C)[C@@]34O[C@](Cc5ccccc5)(O[C@@H]1[C@@H]3C=C(COC(=O)Cc1ccc(O)c(OC)c1)C[C@]1(O)C(=O)C(C)=C[C@@H]41)O2
REMARK SMILES IDX 23 1 22 2 21 3 20 4 9 5 8 6 10 7 6 8 18 9 46 10 19 11 5 12
REMARK SMILES IDX 7 13 4 14 45 15 38 16 44 17 40 18 42 20 41 21 43 22 39 23
REMARK SMILES IDX 11 25 12 26 13 27 17 28 14 29 16 30 15 31 2 32 3 33 1 34
REMARK SMILES IDX 37 35 24 37 25 38 26 39 27 40 28 41 36 42 29 43 33 44 30 45
REMARK SMILES IDX 31 46 34 47 35 48 32 49
REMARK H PARENT 39 24 32 50
REMARK Flexibility Score: 90.00
ROOT
ATOM      1  C   UNL     1      96.944  79.176  82.591  1.00  0.00     0.264 C 
ENDROOT
BRANCH   1   2
ATOM      2  C   UNL     1      97.871  79.940  81.675  1.00  0.00    -0.033 C 
ATOM      3  C   UNL     1      99.052  79.391  81.325  1.00  0.00    -0.015 C 
BRANCH   3   4
ATOM      4  C   UNL     1     100.179  79.978  80.492  1.00  0.00     0.078 C 
ATOM      5  O   UNL     1      99.765  79.308  78.147  1.00  0.00    -0.319 OA
ATOM      6  C   UNL     1      99.854  80.468  79.031  1.00  0.00     0.095 C 
ATOM      7  C   UNL     1     100.778  78.304  78.343  1.00  0.00     0.289 C 
ATOM      8  C   UNL     1     101.049  81.396  78.559  1.00  0.00     0.023 C 
ATOM      9  O   UNL     1     100.771  77.817  79.682  1.00  0.00    -0.320 OA
ATOM     10  O   UNL     1     102.092  78.811  78.124  1.00  0.00    -0.313 OA
ATOM     11  C   UNL     1     101.330  78.949  80.365  1.00  0.00     0.170 C 
ATOM     12  C   UNL     1     102.409  80.928  79.163  1.00  0.00     0.049 C 
ATOM     13  C   UNL     1     101.194  81.561  77.038  1.00  0.00     0.011 C 
ATOM     14  C   UNL     1     102.438  79.415  79.387  1.00  0.00     0.122 C 
BRANCH   6  15
ATOM     15  C   UNL     1      98.440  81.114  78.969  1.00  0.00     0.086 C 
ATOM     16  C   UNL     1      98.065  82.045  80.141  1.00  0.00     0.140 CG0
ATOM     17  C   UNL     1      98.046  81.906  77.754  1.00  0.00    -0.010 C 
ATOM     18  C   UNL     1      97.205  83.091  79.464  1.00  0.00     0.190 C 
ATOM     19  G   UNL     1      97.320  81.303  81.250  1.00  0.00     0.000 G0
ATOM     20  C   UNL     1      97.328  83.008  77.997  1.00  0.00    -0.008 C 
ATOM     21  O   UNL     1      96.533  83.934  80.038  1.00  0.00    -0.291 OA
ATOM     22  C   UNL     1      96.708  83.966  77.058  1.00  0.00     0.048 C 
BRANCH  16  23
ATOM     23  O   UNL     1      99.158  82.786  80.657  1.00  0.00    -0.381 OA
ATOM     24  H   UNL     1      99.015  82.922  81.608  1.00  0.00     0.212 HD
ENDBRANCH  16  23
ENDBRANCH   6  15
BRANCH   7  25
ATOM     25  C   UNL     1     100.509  77.163  77.382  1.00  0.00     0.135 C 
BRANCH  25  26
ATOM     26  C   UNL     1     101.736  76.316  77.153  1.00  0.00    -0.040 A 
ATOM     27  C   UNL     1     102.496  76.487  75.995  1.00  0.00     0.004 A 
ATOM     28  C   UNL     1     102.112  75.363  78.099  1.00  0.00     0.004 A 
ATOM     29  C   UNL     1     103.631  75.704  75.783  1.00  0.00     0.000 A 
ATOM     30  C   UNL     1     103.247  74.579  77.887  1.00  0.00     0.000 A 
ATOM     31  C   UNL     1     104.006  74.750  76.729  1.00  0.00     0.000 A 
ENDBRANCH  25  26
ENDBRANCH   7  25
BRANCH  14  32
ATOM     32  C   UNL     1     103.788  78.921  79.792  1.00  0.00    -0.046 C 
ATOM     33  C   UNL     1     104.542  78.135  78.761  1.00  0.00     0.042 C 
ATOM     34  C   UNL     1     104.298  79.165  81.009  1.00  0.00     0.010 C 
ENDBRANCH  14  32
ENDBRANCH   3   4
BRANCH   2  35
ATOM     35  C   UNL     1      97.311  81.284  81.247  1.00  0.00     0.078 CG0
ATOM     36  G   UNL     1      98.066  82.039  80.155  1.00  0.00     0.000 G0
ENDBRANCH   2  35
ENDBRANCH   1   2
BRANCH   1  37
ATOM     37  O   UNL     1      97.428  79.252  83.914  1.00  0.00    -0.461 OA
BRANCH  37  38
ATOM     38  C   UNL     1      96.549  79.735  84.856  1.00  0.00     0.310 C 
ATOM     39  O   UNL     1      96.644  79.556  86.063  1.00  0.00    -0.252 OA
BRANCH  38  40
ATOM     40  C   UNL     1      95.454  80.518  84.171  1.00  0.00     0.158 C 
BRANCH  40  41
ATOM     41  C   UNL     1      94.083  79.940  84.406  1.00  0.00    -0.033 A 
ATOM     42  C   UNL     1      93.017  80.783  84.725  1.00  0.00     0.054 A 
ATOM     43  C   UNL     1      93.879  78.565  84.305  1.00  0.00     0.008 A 
ATOM     44  C   UNL     1      91.747  80.248  84.943  1.00  0.00     0.160 A 
ATOM     45  C   UNL     1      92.609  78.030  84.523  1.00  0.00     0.050 A 
ATOM     46  C   UNL     1      91.543  78.871  84.842  1.00  0.00     0.157 A 
BRANCH  44  47
ATOM     47  O   UNL     1      90.714  81.079  85.253  1.00  0.00    -0.493 OA
ATOM     48  C   UNL     1      89.748  81.323  84.232  1.00  0.00     0.278 C 
ENDBRANCH  44  47
BRANCH  46  49
ATOM     49  O   UNL     1      90.307  78.337  85.051  1.00  0.00    -0.504 OA
ATOM     50  H   UNL     1      90.192  77.567  84.469  1.00  0.00     0.293 HD
ENDBRANCH  46  49
ENDBRANCH  40  41
ENDBRANCH  38  40
ENDBRANCH  37  38
ENDBRANCH   1  37
TORSDOF 11
ENDMDL
MODEL 10
REMARK VINA RESULT:    -5.286     28.182     30.938
REMARK INTER + INTRA:         -10.945
REMARK INTER:                  -9.091
REMARK INTRA:                  -1.854
REMARK UNBOUND:                -1.642
REMARK SMILES C=C(C)[C@]12C[C@@H](C)[C@@]34O[C@](Cc5ccccc5)(O[C@@H]1[C@@H]3C=C(COC(=O)Cc1ccc(O)c(OC)c1)C[C@]1(O)C(=O)C(C)=C[C@@H]41)O2
REMARK SMILES IDX 23 1 22 2 21 3 20 4 9 5 8 6 10 7 6 8 18 9 46 10 19 11 5 12
REMARK SMILES IDX 7 13 4 14 45 15 38 16 44 17 40 18 42 20 41 21 43 22 39 23
REMARK SMILES IDX 11 25 12 26 13 27 17 28 14 29 16 30 15 31 2 32 3 33 1 34
REMARK SMILES IDX 37 35 24 37 25 38 26 39 27 40 28 41 36 42 29 43 33 44 30 45
REMARK SMILES IDX 31 46 34 47 35 48 32 49
REMARK H PARENT 39 24 32 50
REMARK Flexibility Score: 90.00
ROOT
ATOM      1  C   UNL     1      98.968  79.355  71.880  1.00  0.00     0.264 C 
ENDROOT
BRANCH   1   2
ATOM      2  C   UNL     1      99.690  78.664  73.012  1.00  0.00    -0.033 C 
ATOM      3  C   UNL     1      99.936  79.343  74.150  1.00  0.00    -0.015 C 
BRANCH   3   4
ATOM      4  C   UNL     1     100.702  78.907  75.389  1.00  0.00     0.078 C 
ATOM      5  O   UNL     1      99.048  77.945  76.956  1.00  0.00    -0.319 OA
ATOM      6  C   UNL     1     100.221  77.616  76.150  1.00  0.00     0.095 C 
ATOM      7  C   UNL     1      99.120  79.195  77.667  1.00  0.00     0.289 C 
ATOM      8  C   UNL     1     101.399  77.154  77.104  1.00  0.00     0.023 C 
ATOM      9  O   UNL     1      99.341  80.285  76.776  1.00  0.00    -0.320 OA
ATOM     10  O   UNL     1     100.203  79.230  78.593  1.00  0.00    -0.313 OA
ATOM     11  C   UNL     1     100.715  80.053  76.430  1.00  0.00     0.170 C 
ATOM     12  C   UNL     1     102.209  78.374  77.643  1.00  0.00     0.049 C 
ATOM     13  C   UNL     1     100.983  76.256  78.280  1.00  0.00     0.011 C 
ATOM     14  C   UNL     1     101.331  79.618  77.783  1.00  0.00     0.122 C 
BRANCH   6  15
ATOM     15  C   UNL     1      99.713  76.540  75.146  1.00  0.00     0.086 C 
ATOM     16  C   UNL     1     100.552  76.357  73.864  1.00  0.00     0.140 CG0
ATOM     17  C   UNL     1      99.493  75.132  75.624  1.00  0.00    -0.010 C 
ATOM     18  C   UNL     1     100.415  74.873  73.594  1.00  0.00     0.190 C 
ATOM     19  G   UNL     1     100.034  77.212  72.708  1.00  0.00     0.000 G0
ATOM     20  C   UNL     1      99.852  74.173  74.764  1.00  0.00    -0.008 C 
ATOM     21  O   UNL     1     100.767  74.304  72.572  1.00  0.00    -0.291 OA
ATOM     22  C   UNL     1      99.706  72.706  74.860  1.00  0.00     0.048 C 
BRANCH  16  23
ATOM     23  O   UNL     1     101.945  76.539  74.058  1.00  0.00    -0.381 OA
ATOM     24  H   UNL     1     102.216  77.350  73.598  1.00  0.00     0.212 HD
ENDBRANCH  16  23
ENDBRANCH   6  15
BRANCH   7  25
ATOM     25  C   UNL     1      97.813  79.396  78.408  1.00  0.00     0.135 C 
BRANCH  25  26
ATOM     26  C   UNL     1      97.755  80.737  79.097  1.00  0.00    -0.040 A 
ATOM     27  C   UNL     1      97.888  80.815  80.484  1.00  0.00     0.004 A 
ATOM     28  C   UNL     1      97.569  81.899  78.348  1.00  0.00     0.004 A 
ATOM     29  C   UNL     1      97.834  82.055  81.121  1.00  0.00     0.000 A 
ATOM     30  C   UNL     1      97.515  83.139  78.985  1.00  0.00     0.000 A 
ATOM     31  C   UNL     1      97.648  83.216  80.372  1.00  0.00     0.000 A 
ENDBRANCH  25  26
ENDBRANCH   7  25
BRANCH  14  32
ATOM     32  C   UNL     1     102.036  80.744  78.467  1.00  0.00    -0.046 C 
ATOM     33  C   UNL     1     101.488  81.156  79.801  1.00  0.00     0.042 C 
ATOM     34  C   UNL     1     103.099  81.352  77.919  1.00  0.00     0.010 C 
ENDBRANCH  14  32
ENDBRANCH   3   4
BRANCH   2  35
ATOM     35  C   UNL     1     100.050  77.224  72.697  1.00  0.00     0.078 CG0
ATOM     36  G   UNL     1     100.547  76.358  73.854  1.00  0.00     0.000 G0
ENDBRANCH   2  35
ENDBRANCH   1   2
BRANCH   1  37
ATOM     37  O   UNL     1      99.898  79.708  70.879  1.00  0.00    -0.461 OA
BRANCH  37  38
ATOM     38  C   UNL     1     100.704  80.789  71.150  1.00  0.00     0.310 C 
ATOM     39  O   UNL     1     101.881  80.724  71.475  1.00  0.00    -0.252 OA
BRANCH  38  40
ATOM     40  C   UNL     1      99.910  82.064  70.986  1.00  0.00     0.158 C 
BRANCH  40  41
ATOM     41  C   UNL     1      99.488  82.668  72.300  1.00  0.00    -0.033 A 
ATOM     42  C   UNL     1     100.438  83.265  73.130  1.00  0.00     0.054 A 
ATOM     43  C   UNL     1      98.149  82.631  72.688  1.00  0.00     0.008 A 
ATOM     44  C   UNL     1     100.048  83.824  74.347  1.00  0.00     0.160 A 
ATOM     45  C   UNL     1      97.759  83.190  73.905  1.00  0.00     0.050 A 
ATOM     46  C   UNL     1      98.708  83.786  74.735  1.00  0.00     0.157 A 
BRANCH  44  47
ATOM     47  O   UNL     1     100.985  84.403  75.149  1.00  0.00    -0.493 OA
ATOM     48  C   UNL     1     101.604  85.595  74.666  1.00  0.00     0.278 C 
ENDBRANCH  44  47
BRANCH  46  49
ATOM     49  O   UNL     1      98.315  84.330  75.920  1.00  0.00    -0.504 OA
ATOM     50  H   UNL     1      98.098  85.267  75.782  1.00  0.00     0.293 HD
ENDBRANCH  46  49
ENDBRANCH  40  41
ENDBRANCH  38  40
ENDBRANCH  37  38
ENDBRANCH   1  37
TORSDOF 11
ENDMDL
