MODEL 1
REMARK VINA RESULT:    -6.501      0.000      0.000
REMARK INTER + INTRA:         -10.761
REMARK INTER:                 -10.112
REMARK INTRA:                  -0.649
REMARK UNBOUND:                -0.649
REMARK SMILES CCCCC/C=C/C(=O)CCc1ccc(O)c(OC)c1
REMARK SMILES IDX 6 1 7 2 8 3 9 4 10 5 11 6 12 7 17 8 20 9 15 10 14 11 13 12
REMARK SMILES IDX 18 13 19 14 16 15 5 17 4 18 3 19 2 20 1 21
REMARK H PARENT 16 16
REMARK Flexibility Score: inf
ROOT
ATOM      1  C   UNL     1      95.734  82.397  84.417  1.00  0.00    -0.023 C 
ATOM      2  C   UNL     1      94.483  82.325  83.947  1.00  0.00     0.043 C 
ENDROOT
BRANCH   2   3
ATOM      3  C   UNL     1      93.383  81.856  84.833  1.00  0.00     0.155 C 
ATOM      4  O   UNL     1      93.607  81.268  85.888  1.00  0.00    -0.295 OA
BRANCH   3   5
ATOM      5  C   UNL     1      91.969  82.095  84.340  1.00  0.00     0.085 C 
BRANCH   5   6
ATOM      6  C   UNL     1      90.959  81.258  85.125  1.00  0.00     0.044 C 
BRANCH   6   7
ATOM      7  C   UNL     1      89.553  81.375  84.585  1.00  0.00    -0.044 A 
ATOM      8  C   UNL     1      87.538  82.648  84.302  1.00  0.00     0.160 A 
ATOM      9  C   UNL     1      88.836  82.541  84.803  1.00  0.00     0.054 A 
ATOM     10  C   UNL     1      86.974  81.589  83.592  1.00  0.00     0.157 A 
ATOM     11  C   UNL     1      87.709  80.421  83.381  1.00  0.00     0.050 A 
ATOM     12  C   UNL     1      89.007  80.314  83.881  1.00  0.00     0.008 A 
BRANCH   8  13
ATOM     13  O   UNL     1      86.831  83.793  84.515  1.00  0.00    -0.493 OA
ATOM     14  C   UNL     1      86.536  84.131  85.869  1.00  0.00     0.278 C 
ENDBRANCH   8  13
BRANCH  10  15
ATOM     15  O   UNL     1      85.708  81.681  83.098  1.00  0.00    -0.504 OA
ATOM     16  H   UNL     1      85.134  81.093  83.618  1.00  0.00     0.293 HD
ENDBRANCH  10  15
ENDBRANCH   6   7
ENDBRANCH   5   6
ENDBRANCH   3   5
ENDBRANCH   2   3
BRANCH   1  17
ATOM     17  C   UNL     1      96.898  82.859  83.588  1.00  0.00     0.027 C 
BRANCH  17  18
ATOM     18  C   UNL     1      96.498  83.271  82.168  1.00  0.00     0.004 C 
BRANCH  18  19
ATOM     19  C   UNL     1      97.191  82.453  81.073  1.00  0.00     0.000 C 
BRANCH  19  20
ATOM     20  C   UNL     1      96.951  80.955  81.269  1.00  0.00    -0.003 C 
ATOM     21  C   UNL     1      98.252  80.171  81.214  1.00  0.00     0.004 C 
ENDBRANCH  19  20
ENDBRANCH  18  19
ENDBRANCH  17  18
ENDBRANCH   1  17
TORSDOF 10
ENDMDL
MODEL 2
REMARK VINA RESULT:    -6.379     20.875     24.665
REMARK INTER + INTRA:         -10.570
REMARK INTER:                 -10.003
REMARK INTRA:                  -0.568
REMARK UNBOUND:                -0.649
REMARK SMILES CCCCC/C=C/C(=O)CCc1ccc(O)c(OC)c1
REMARK SMILES IDX 6 1 7 2 8 3 9 4 10 5 11 6 12 7 17 8 20 9 15 10 14 11 13 12
REMARK SMILES IDX 18 13 19 14 16 15 5 17 4 18 3 19 2 20 1 21
REMARK H PARENT 16 16
REMARK Flexibility Score: inf
ROOT
ATOM      1  C   UNL     1      78.219  64.376  68.872  1.00  0.00    -0.023 C 
ATOM      2  C   UNL     1      79.283  64.256  69.674  1.00  0.00     0.043 C 
ENDROOT
BRANCH   2   3
ATOM      3  C   UNL     1      79.624  65.350  70.624  1.00  0.00     0.155 C 
ATOM      4  O   UNL     1      78.920  66.351  70.739  1.00  0.00    -0.295 OA
BRANCH   3   5
ATOM      5  C   UNL     1      80.913  65.190  71.406  1.00  0.00     0.085 C 
BRANCH   5   6
ATOM      6  C   UNL     1      80.853  65.943  72.736  1.00  0.00     0.044 C 
BRANCH   6   7
ATOM      7  C   UNL     1      82.216  66.156  73.352  1.00  0.00    -0.044 A 
ATOM      8  C   UNL     1      84.201  67.483  73.587  1.00  0.00     0.160 A 
ATOM      9  C   UNL     1      82.943  67.286  73.017  1.00  0.00     0.054 A 
ATOM     10  C   UNL     1      84.715  66.546  74.483  1.00  0.00     0.157 A 
ATOM     11  C   UNL     1      83.971  65.412  74.810  1.00  0.00     0.050 A 
ATOM     12  C   UNL     1      82.713  65.216  74.240  1.00  0.00     0.008 A 
BRANCH   8  13
ATOM     13  O   UNL     1      84.919  68.594  73.259  1.00  0.00    -0.493 OA
ATOM     14  C   UNL     1      84.301  69.528  72.376  1.00  0.00     0.278 C 
ENDBRANCH   8  13
BRANCH  10  15
ATOM     15  O   UNL     1      85.942  66.727  75.046  1.00  0.00    -0.504 OA
ATOM     16  H   UNL     1      86.104  67.683  75.127  1.00  0.00     0.293 HD
ENDBRANCH  10  15
ENDBRANCH   6   7
ENDBRANCH   5   6
ENDBRANCH   3   5
ENDBRANCH   2   3
BRANCH   1  17
ATOM     17  C   UNL     1      77.809  63.320  67.887  1.00  0.00     0.027 C 
BRANCH  17  18
ATOM     18  C   UNL     1      76.883  63.848  66.787  1.00  0.00     0.004 C 
BRANCH  18  19
ATOM     19  C   UNL     1      75.407  63.506  67.011  1.00  0.00     0.000 C 
BRANCH  19  20
ATOM     20  C   UNL     1      74.569  64.771  67.199  1.00  0.00    -0.003 C 
ATOM     21  C   UNL     1      74.584  65.240  68.645  1.00  0.00     0.004 C 
ENDBRANCH  19  20
ENDBRANCH  18  19
ENDBRANCH  17  18
ENDBRANCH   1  17
TORSDOF 10
ENDMDL
MODEL 3
REMARK VINA RESULT:    -6.157     13.519     14.822
REMARK INTER + INTRA:         -10.225
REMARK INTER:                  -9.804
REMARK INTRA:                  -0.420
REMARK UNBOUND:                -0.649
REMARK SMILES CCCCC/C=C/C(=O)CCc1ccc(O)c(OC)c1
REMARK SMILES IDX 6 1 7 2 8 3 9 4 10 5 11 6 12 7 17 8 20 9 15 10 14 11 13 12
REMARK SMILES IDX 18 13 19 14 16 15 5 17 4 18 3 19 2 20 1 21
REMARK H PARENT 16 16
REMARK Flexibility Score: inf
ROOT
ATOM      1  C   UNL     1      94.265  95.551  78.506  1.00  0.00    -0.023 C 
ATOM      2  C   UNL     1      93.983  95.062  77.292  1.00  0.00     0.043 C 
ENDROOT
BRANCH   2   3
ATOM      3  C   UNL     1      93.012  95.770  76.414  1.00  0.00     0.155 C 
ATOM      4  O   UNL     1      93.363  96.326  75.375  1.00  0.00    -0.295 OA
BRANCH   3   5
ATOM      5  C   UNL     1      91.575  95.817  76.894  1.00  0.00     0.085 C 
BRANCH   5   6
ATOM      6  C   UNL     1      91.110  94.447  77.390  1.00  0.00     0.044 C 
BRANCH   6   7
ATOM      7  C   UNL     1      90.635  93.548  76.272  1.00  0.00    -0.044 A 
ATOM      8  C   UNL     1      89.716  91.455  75.543  1.00  0.00     0.160 A 
ATOM      9  C   UNL     1      90.155  92.284  76.575  1.00  0.00     0.054 A 
ATOM     10  C   UNL     1      89.763  91.900  74.222  1.00  0.00     0.157 A 
ATOM     11  C   UNL     1      90.249  93.176  73.933  1.00  0.00     0.050 A 
ATOM     12  C   UNL     1      90.688  94.005  74.966  1.00  0.00     0.008 A 
BRANCH   8  13
ATOM     13  O   UNL     1      89.243  90.212  75.838  1.00  0.00    -0.493 OA
ATOM     14  C   UNL     1      90.084  89.105  75.517  1.00  0.00     0.278 C 
ENDBRANCH   8  13
BRANCH  10  15
ATOM     15  O   UNL     1      89.336  91.100  73.206  1.00  0.00    -0.504 OA
ATOM     16  H   UNL     1      89.647  91.481  72.366  1.00  0.00     0.293 HD
ENDBRANCH  10  15
ENDBRANCH   6   7
ENDBRANCH   5   6
ENDBRANCH   3   5
ENDBRANCH   2   3
BRANCH   1  17
ATOM     17  C   UNL     1      95.231  94.896  79.450  1.00  0.00     0.027 C 
BRANCH  17  18
ATOM     18  C   UNL     1      96.246  95.876  80.049  1.00  0.00     0.004 C 
BRANCH  18  19
ATOM     19  C   UNL     1      95.947  97.343  79.723  1.00  0.00     0.000 C 
BRANCH  19  20
ATOM     20  C   UNL     1      96.598  98.278  80.744  1.00  0.00    -0.003 C 
ATOM     21  C   UNL     1      96.894  97.557  82.050  1.00  0.00     0.004 C 
ENDBRANCH  19  20
ENDBRANCH  18  19
ENDBRANCH  17  18
ENDBRANCH   1  17
TORSDOF 10
ENDMDL
MODEL 4
REMARK VINA RESULT:    -6.029     13.973     15.561
REMARK INTER + INTRA:         -10.027
REMARK INTER:                  -9.269
REMARK INTRA:                  -0.758
REMARK UNBOUND:                -0.649
REMARK SMILES CCCCC/C=C/C(=O)CCc1ccc(O)c(OC)c1
REMARK SMILES IDX 6 1 7 2 8 3 9 4 10 5 11 6 12 7 17 8 20 9 15 10 14 11 13 12
REMARK SMILES IDX 18 13 19 14 16 15 5 17 4 18 3 19 2 20 1 21
REMARK H PARENT 16 16
REMARK Flexibility Score: inf
ROOT
ATOM      1  C   UNL     1      94.989  96.879  77.313  1.00  0.00    -0.023 C 
ATOM      2  C   UNL     1      94.882  97.702  76.262  1.00  0.00     0.043 C 
ENDROOT
BRANCH   2   3
ATOM      3  C   UNL     1      94.399  97.178  74.956  1.00  0.00     0.155 C 
ATOM      4  O   UNL     1      94.343  97.887  73.953  1.00  0.00    -0.295 OA
BRANCH   3   5
ATOM      5  C   UNL     1      93.927  95.737  74.938  1.00  0.00     0.085 C 
BRANCH   5   6
ATOM      6  C   UNL     1      92.445  95.643  74.571  1.00  0.00     0.044 C 
BRANCH   6   7
ATOM      7  C   UNL     1      91.689  94.657  75.430  1.00  0.00    -0.044 A 
ATOM      8  C   UNL     1      90.448  92.613  75.639  1.00  0.00     0.160 A 
ATOM      9  C   UNL     1      91.146  93.524  74.845  1.00  0.00     0.054 A 
ATOM     10  C   UNL     1      90.302  92.847  77.006  1.00  0.00     0.157 A 
ATOM     11  C   UNL     1      90.855  93.993  77.580  1.00  0.00     0.050 A 
ATOM     12  C   UNL     1      91.553  94.904  76.786  1.00  0.00     0.008 A 
BRANCH   8  13
ATOM     13  O   UNL     1      89.913  91.499  75.067  1.00  0.00    -0.493 OA
ATOM     14  C   UNL     1      90.192  91.281  73.685  1.00  0.00     0.278 C 
ENDBRANCH   8  13
BRANCH  10  15
ATOM     15  O   UNL     1      89.624  91.965  77.792  1.00  0.00    -0.504 OA
ATOM     16  H   UNL     1      88.774  91.766  77.363  1.00  0.00     0.293 HD
ENDBRANCH  10  15
ENDBRANCH   6   7
ENDBRANCH   5   6
ENDBRANCH   3   5
ENDBRANCH   2   3
BRANCH   1  17
ATOM     17  C   UNL     1      95.468  97.328  78.663  1.00  0.00     0.027 C 
BRANCH  17  18
ATOM     18  C   UNL     1      96.766  96.641  79.100  1.00  0.00     0.004 C 
BRANCH  18  19
ATOM     19  C   UNL     1      96.589  95.696  80.292  1.00  0.00     0.000 C 
BRANCH  19  20
ATOM     20  C   UNL     1      97.200  96.289  81.562  1.00  0.00    -0.003 C 
ATOM     21  C   UNL     1      97.626  95.202  82.536  1.00  0.00     0.004 C 
ENDBRANCH  19  20
ENDBRANCH  18  19
ENDBRANCH  17  18
ENDBRANCH   1  17
TORSDOF 10
ENDMDL
MODEL 5
REMARK VINA RESULT:    -5.975     20.890     24.657
REMARK INTER + INTRA:          -9.942
REMARK INTER:                  -9.350
REMARK INTRA:                  -0.592
REMARK UNBOUND:                -0.649
REMARK SMILES CCCCC/C=C/C(=O)CCc1ccc(O)c(OC)c1
REMARK SMILES IDX 6 1 7 2 8 3 9 4 10 5 11 6 12 7 17 8 20 9 15 10 14 11 13 12
REMARK SMILES IDX 18 13 19 14 16 15 5 17 4 18 3 19 2 20 1 21
REMARK H PARENT 16 16
REMARK Flexibility Score: inf
ROOT
ATOM      1  C   UNL     1      78.329  64.414  68.973  1.00  0.00    -0.023 C 
ATOM      2  C   UNL     1      79.471  64.627  69.638  1.00  0.00     0.043 C 
ENDROOT
BRANCH   2   3
ATOM      3  C   UNL     1      79.514  65.631  70.736  1.00  0.00     0.155 C 
ATOM      4  O   UNL     1      78.694  66.543  70.813  1.00  0.00    -0.295 OA
BRANCH   3   5
ATOM      5  C   UNL     1      80.656  65.503  71.725  1.00  0.00     0.085 C 
BRANCH   5   6
ATOM      6  C   UNL     1      81.910  66.219  71.221  1.00  0.00     0.044 C 
BRANCH   6   7
ATOM      7  C   UNL     1      82.850  66.611  72.336  1.00  0.00    -0.044 A 
ATOM      8  C   UNL     1      83.978  66.072  74.385  1.00  0.00     0.160 A 
ATOM      9  C   UNL     1      83.110  65.709  73.355  1.00  0.00     0.054 A 
ATOM     10  C   UNL     1      84.576  67.332  74.382  1.00  0.00     0.157 A 
ATOM     11  C   UNL     1      84.304  68.231  73.349  1.00  0.00     0.050 A 
ATOM     12  C   UNL     1      83.435  67.867  72.320  1.00  0.00     0.008 A 
BRANCH   8  13
ATOM     13  O   UNL     1      84.235  65.187  75.388  1.00  0.00    -0.493 OA
ATOM     14  C   UNL     1      83.560  63.932  75.334  1.00  0.00     0.278 C 
ENDBRANCH   8  13
BRANCH  10  15
ATOM     15  O   UNL     1      85.426  67.699  75.381  1.00  0.00    -0.504 OA
ATOM     16  H   UNL     1      85.918  68.486  75.091  1.00  0.00     0.293 HD
ENDBRANCH  10  15
ENDBRANCH   6   7
ENDBRANCH   5   6
ENDBRANCH   3   5
ENDBRANCH   2   3
BRANCH   1  17
ATOM     17  C   UNL     1      78.203  63.420  67.855  1.00  0.00     0.027 C 
BRANCH  17  18
ATOM     18  C   UNL     1      76.924  63.601  67.031  1.00  0.00     0.004 C 
BRANCH  18  19
ATOM     19  C   UNL     1      76.727  65.027  66.508  1.00  0.00     0.000 C 
BRANCH  19  20
ATOM     20  C   UNL     1      75.242  65.366  66.376  1.00  0.00    -0.003 C 
ATOM     21  C   UNL     1      74.463  64.950  67.613  1.00  0.00     0.004 C 
ENDBRANCH  19  20
ENDBRANCH  18  19
ENDBRANCH  17  18
ENDBRANCH   1  17
TORSDOF 10
ENDMDL
MODEL 6
REMARK VINA RESULT:    -5.831     19.779     23.470
REMARK INTER + INTRA:          -9.717
REMARK INTER:                  -9.192
REMARK INTRA:                  -0.525
REMARK UNBOUND:                -0.649
REMARK SMILES CCCCC/C=C/C(=O)CCc1ccc(O)c(OC)c1
REMARK SMILES IDX 6 1 7 2 8 3 9 4 10 5 11 6 12 7 17 8 20 9 15 10 14 11 13 12
REMARK SMILES IDX 18 13 19 14 16 15 5 17 4 18 3 19 2 20 1 21
REMARK H PARENT 16 16
REMARK Flexibility Score: inf
ROOT
ATOM      1  C   UNL     1      79.155  64.800  70.033  1.00  0.00    -0.023 C 
ATOM      2  C   UNL     1      80.370  64.685  70.585  1.00  0.00     0.043 C 
ENDROOT
BRANCH   2   3
ATOM      3  C   UNL     1      80.726  65.507  71.773  1.00  0.00     0.155 C 
ATOM      4  O   UNL     1      79.900  66.219  72.341  1.00  0.00    -0.295 OA
BRANCH   3   5
ATOM      5  C   UNL     1      82.175  65.464  72.216  1.00  0.00     0.085 C 
BRANCH   5   6
ATOM      6  C   UNL     1      82.362  66.142  73.574  1.00  0.00     0.044 C 
BRANCH   6   7
ATOM      7  C   UNL     1      83.430  67.209  73.556  1.00  0.00    -0.044 A 
ATOM      8  C   UNL     1      85.264  68.327  74.626  1.00  0.00     0.160 A 
ATOM      9  C   UNL     1      84.278  67.341  74.644  1.00  0.00     0.054 A 
ATOM     10  C   UNL     1      85.390  69.168  73.522  1.00  0.00     0.157 A 
ATOM     11  C   UNL     1      84.528  69.024  72.434  1.00  0.00     0.050 A 
ATOM     12  C   UNL     1      83.542  68.038  72.451  1.00  0.00     0.008 A 
BRANCH   8  13
ATOM     13  O   UNL     1      86.099  68.458  75.695  1.00  0.00    -0.493 OA
ATOM     14  C   UNL     1      87.248  67.613  75.728  1.00  0.00     0.278 C 
ENDBRANCH   8  13
BRANCH  10  15
ATOM     15  O   UNL     1      86.350  70.134  73.492  1.00  0.00    -0.504 OA
ATOM     16  H   UNL     1      86.999  69.899  72.808  1.00  0.00     0.293 HD
ENDBRANCH  10  15
ENDBRANCH   6   7
ENDBRANCH   5   6
ENDBRANCH   3   5
ENDBRANCH   2   3
BRANCH   1  17
ATOM     17  C   UNL     1      78.720  64.008  68.835  1.00  0.00     0.027 C 
BRANCH  17  18
ATOM     18  C   UNL     1      77.310  64.369  68.355  1.00  0.00     0.004 C 
BRANCH  18  19
ATOM     19  C   UNL     1      76.924  63.705  67.029  1.00  0.00     0.000 C 
BRANCH  19  20
ATOM     20  C   UNL     1      75.915  64.557  66.258  1.00  0.00    -0.003 C 
ATOM     21  C   UNL     1      76.129  66.041  66.513  1.00  0.00     0.004 C 
ENDBRANCH  19  20
ENDBRANCH  18  19
ENDBRANCH  17  18
ENDBRANCH   1  17
TORSDOF 10
ENDMDL
MODEL 7
REMARK VINA RESULT:    -5.713      8.309     12.911
REMARK INTER + INTRA:          -9.535
REMARK INTER:                  -8.942
REMARK INTRA:                  -0.593
REMARK UNBOUND:                -0.649
REMARK SMILES CCCCC/C=C/C(=O)CCc1ccc(O)c(OC)c1
REMARK SMILES IDX 6 1 7 2 8 3 9 4 10 5 11 6 12 7 17 8 20 9 15 10 14 11 13 12
REMARK SMILES IDX 18 13 19 14 16 15 5 17 4 18 3 19 2 20 1 21
REMARK H PARENT 16 16
REMARK Flexibility Score: inf
ROOT
ATOM      1  C   UNL     1      97.505  82.364  78.299  1.00  0.00    -0.023 C 
ATOM      2  C   UNL     1      96.932  83.569  78.200  1.00  0.00     0.043 C 
ENDROOT
BRANCH   2   3
ATOM      3  C   UNL     1      96.726  84.185  76.861  1.00  0.00     0.155 C 
ATOM      4  O   UNL     1      95.956  85.129  76.692  1.00  0.00    -0.295 OA
BRANCH   3   5
ATOM      5  C   UNL     1      97.475  83.553  75.704  1.00  0.00     0.085 C 
BRANCH   5   6
ATOM      6  C   UNL     1      97.220  84.309  74.399  1.00  0.00     0.044 C 
BRANCH   6   7
ATOM      7  C   UNL     1      98.315  84.105  73.379  1.00  0.00    -0.044 A 
ATOM      8  C   UNL     1      99.509  82.663  71.878  1.00  0.00     0.160 A 
ATOM      9  C   UNL     1      98.498  82.850  72.820  1.00  0.00     0.054 A 
ATOM     10  C   UNL     1     100.324  83.731  71.507  1.00  0.00     0.157 A 
ATOM     11  C   UNL     1     100.128  84.989  72.079  1.00  0.00     0.050 A 
ATOM     12  C   UNL     1      99.117  85.177  73.021  1.00  0.00     0.008 A 
BRANCH   8  13
ATOM     13  O   UNL     1      99.691  81.430  71.327  1.00  0.00    -0.493 OA
ATOM     14  C   UNL     1      98.522  80.727  70.909  1.00  0.00     0.278 C 
ENDBRANCH   8  13
BRANCH  10  15
ATOM     15  O   UNL     1     101.315  83.561  70.587  1.00  0.00    -0.504 OA
ATOM     16  H   UNL     1     102.170  83.589  71.051  1.00  0.00     0.293 HD
ENDBRANCH  10  15
ENDBRANCH   6   7
ENDBRANCH   5   6
ENDBRANCH   3   5
ENDBRANCH   2   3
BRANCH   1  17
ATOM     17  C   UNL     1      97.749  81.676  79.611  1.00  0.00     0.027 C 
BRANCH  17  18
ATOM     18  C   UNL     1      97.212  82.464  80.812  1.00  0.00     0.004 C 
BRANCH  18  19
ATOM     19  C   UNL     1      96.887  81.587  82.025  1.00  0.00     0.000 C 
BRANCH  19  20
ATOM     20  C   UNL     1      95.904  82.287  82.964  1.00  0.00    -0.003 C 
ATOM     21  C   UNL     1      96.047  83.799  82.893  1.00  0.00     0.004 C 
ENDBRANCH  19  20
ENDBRANCH  18  19
ENDBRANCH  17  18
ENDBRANCH   1  17
TORSDOF 10
ENDMDL
MODEL 8
REMARK VINA RESULT:    -5.671      5.587     10.218
REMARK INTER + INTRA:          -9.469
REMARK INTER:                  -8.823
REMARK INTRA:                  -0.646
REMARK UNBOUND:                -0.649
REMARK SMILES CCCCC/C=C/C(=O)CCc1ccc(O)c(OC)c1
REMARK SMILES IDX 6 1 7 2 8 3 9 4 10 5 11 6 12 7 17 8 20 9 15 10 14 11 13 12
REMARK SMILES IDX 18 13 19 14 16 15 5 17 4 18 3 19 2 20 1 21
REMARK H PARENT 16 16
REMARK Flexibility Score: inf
ROOT
ATOM      1  C   UNL     1      97.305  82.567  82.833  1.00  0.00    -0.023 C 
ATOM      2  C   UNL     1      96.680  82.111  81.741  1.00  0.00     0.043 C 
ENDROOT
BRANCH   2   3
ATOM      3  C   UNL     1      97.447  81.891  80.484  1.00  0.00     0.155 C 
ATOM      4  O   UNL     1      97.844  80.776  80.153  1.00  0.00    -0.295 OA
BRANCH   3   5
ATOM      5  C   UNL     1      97.759  83.124  79.659  1.00  0.00     0.085 C 
BRANCH   5   6
ATOM      6  C   UNL     1      96.569  83.522  78.784  1.00  0.00     0.044 C 
BRANCH   6   7
ATOM      7  C   UNL     1      96.938  83.682  77.328  1.00  0.00    -0.044 A 
ATOM      8  C   UNL     1      98.178  82.945  75.410  1.00  0.00     0.160 A 
ATOM      9  C   UNL     1      97.838  82.798  76.754  1.00  0.00     0.054 A 
ATOM     10  C   UNL     1      97.614  83.974  74.656  1.00  0.00     0.157 A 
ATOM     11  C   UNL     1      96.710  84.857  75.248  1.00  0.00     0.050 A 
ATOM     12  C   UNL     1      96.370  84.710  76.593  1.00  0.00     0.008 A 
BRANCH   8  13
ATOM     13  O   UNL     1      99.062  82.077  74.843  1.00  0.00    -0.493 OA
ATOM     14  C   UNL     1     100.394  82.084  75.353  1.00  0.00     0.278 C 
ENDBRANCH   8  13
BRANCH  10  15
ATOM     15  O   UNL     1      97.938  84.129  73.342  1.00  0.00    -0.504 OA
ATOM     16  H   UNL     1      98.907  84.156  73.268  1.00  0.00     0.293 HD
ENDBRANCH  10  15
ENDBRANCH   6   7
ENDBRANCH   5   6
ENDBRANCH   3   5
ENDBRANCH   2   3
BRANCH   1  17
ATOM     17  C   UNL     1      96.604  82.815  84.137  1.00  0.00     0.027 C 
BRANCH  17  18
ATOM     18  C   UNL     1      95.511  81.784  84.437  1.00  0.00     0.004 C 
BRANCH  18  19
ATOM     19  C   UNL     1      94.280  82.379  85.128  1.00  0.00     0.000 C 
BRANCH  19  20
ATOM     20  C   UNL     1      93.011  82.118  84.314  1.00  0.00    -0.003 C 
ATOM     21  C   UNL     1      92.371  80.791  84.690  1.00  0.00     0.004 C 
ENDBRANCH  19  20
ENDBRANCH  18  19
ENDBRANCH  17  18
ENDBRANCH   1  17
TORSDOF 10
ENDMDL
MODEL 9
REMARK VINA RESULT:    -5.639     16.976     18.686
REMARK INTER + INTRA:          -9.419
REMARK INTER:                  -8.738
REMARK INTRA:                  -0.681
REMARK UNBOUND:                -0.649
REMARK SMILES CCCCC/C=C/C(=O)CCc1ccc(O)c(OC)c1
REMARK SMILES IDX 6 1 7 2 8 3 9 4 10 5 11 6 12 7 17 8 20 9 15 10 14 11 13 12
REMARK SMILES IDX 18 13 19 14 16 15 5 17 4 18 3 19 2 20 1 21
REMARK H PARENT 16 16
REMARK Flexibility Score: inf
ROOT
ATOM      1  C   UNL     1      93.212  98.946  72.421  1.00  0.00    -0.023 C 
ATOM      2  C   UNL     1      94.542  98.808  72.491  1.00  0.00     0.043 C 
ENDROOT
BRANCH   2   3
ATOM      3  C   UNL     1      95.142  97.901  73.507  1.00  0.00     0.155 C 
ATOM      4  O   UNL     1      96.326  97.576  73.468  1.00  0.00    -0.295 OA
BRANCH   3   5
ATOM      5  C   UNL     1      94.202  97.355  74.565  1.00  0.00     0.085 C 
BRANCH   5   6
ATOM      6  C   UNL     1      93.790  95.916  74.252  1.00  0.00     0.044 C 
BRANCH   6   7
ATOM      7  C   UNL     1      92.948  95.296  75.342  1.00  0.00    -0.044 A 
ATOM      8  C   UNL     1      91.237  93.756  76.018  1.00  0.00     0.160 A 
ATOM      9  C   UNL     1      92.014  94.328  75.011  1.00  0.00     0.054 A 
ATOM     10  C   UNL     1      91.403  94.159  77.342  1.00  0.00     0.157 A 
ATOM     11  C   UNL     1      92.348  95.136  77.660  1.00  0.00     0.050 A 
ATOM     12  C   UNL     1      93.125  95.708  76.653  1.00  0.00     0.008 A 
BRANCH   8  13
ATOM     13  O   UNL     1      90.318  92.803  75.695  1.00  0.00    -0.493 OA
ATOM     14  C   UNL     1      90.003  92.649  74.312  1.00  0.00     0.278 C 
ENDBRANCH   8  13
BRANCH  10  15
ATOM     15  O   UNL     1      90.650  93.607  78.334  1.00  0.00    -0.504 OA
ATOM     16  H   UNL     1      90.814  94.105  79.154  1.00  0.00     0.293 HD
ENDBRANCH  10  15
ENDBRANCH   6   7
ENDBRANCH   5   6
ENDBRANCH   3   5
ENDBRANCH   2   3
BRANCH   1  17
ATOM     17  C   UNL     1      92.531  99.841  71.427  1.00  0.00     0.027 C 
BRANCH  17  18
ATOM     18  C   UNL     1      92.667 101.329  71.764  1.00  0.00     0.004 C 
BRANCH  18  19
ATOM     19  C   UNL     1      91.331 102.013  72.074  1.00  0.00     0.000 C 
BRANCH  19  20
ATOM     20  C   UNL     1      91.161 102.235  73.577  1.00  0.00    -0.003 C 
ATOM     21  C   UNL     1      89.713 102.057  74.006  1.00  0.00     0.004 C 
ENDBRANCH  19  20
ENDBRANCH  18  19
ENDBRANCH  17  18
ENDBRANCH   1  17
TORSDOF 10
ENDMDL
MODEL 10
REMARK VINA RESULT:    -5.547     19.313     23.054
REMARK INTER + INTRA:          -9.277
REMARK INTER:                  -8.721
REMARK INTRA:                  -0.555
REMARK UNBOUND:                -0.649
REMARK SMILES CCCCC/C=C/C(=O)CCc1ccc(O)c(OC)c1
REMARK SMILES IDX 6 1 7 2 8 3 9 4 10 5 11 6 12 7 17 8 20 9 15 10 14 11 13 12
REMARK SMILES IDX 18 13 19 14 16 15 5 17 4 18 3 19 2 20 1 21
REMARK H PARENT 16 16
REMARK Flexibility Score: inf
ROOT
ATOM      1  C   UNL     1      79.765  65.546  70.227  1.00  0.00    -0.023 C 
ATOM      2  C   UNL     1      80.419  65.023  71.272  1.00  0.00     0.043 C 
ENDROOT
BRANCH   2   3
ATOM      3  C   UNL     1      80.787  65.889  72.425  1.00  0.00     0.155 C 
ATOM      4  O   UNL     1      79.993  66.690  72.914  1.00  0.00    -0.295 OA
BRANCH   3   5
ATOM      5  C   UNL     1      82.211  65.769  72.932  1.00  0.00     0.085 C 
BRANCH   5   6
ATOM      6  C   UNL     1      82.403  66.547  74.235  1.00  0.00     0.044 C 
BRANCH   6   7
ATOM      7  C   UNL     1      83.703  67.314  74.275  1.00  0.00    -0.044 A 
ATOM      8  C   UNL     1      85.415  68.556  73.140  1.00  0.00     0.160 A 
ATOM      9  C   UNL     1      84.214  67.847  73.102  1.00  0.00     0.054 A 
ATOM     10  C   UNL     1      86.089  68.723  74.349  1.00  0.00     0.157 A 
ATOM     11  C   UNL     1      85.562  68.180  75.522  1.00  0.00     0.050 A 
ATOM     12  C   UNL     1      84.361  67.471  75.484  1.00  0.00     0.008 A 
BRANCH   8  13
ATOM     13  O   UNL     1      85.919  69.080  71.988  1.00  0.00    -0.493 OA
ATOM     14  C   UNL     1      86.881  68.296  71.285  1.00  0.00     0.278 C 
ENDBRANCH   8  13
BRANCH  10  15
ATOM     15  O   UNL     1      87.262  69.413  74.399  1.00  0.00    -0.504 OA
ATOM     16  H   UNL     1      87.452  69.757  73.509  1.00  0.00     0.293 HD
ENDBRANCH  10  15
ENDBRANCH   6   7
ENDBRANCH   5   6
ENDBRANCH   3   5
ENDBRANCH   2   3
BRANCH   1  17
ATOM     17  C   UNL     1      79.359  64.740  69.027  1.00  0.00     0.027 C 
BRANCH  17  18
ATOM     18  C   UNL     1      78.227  63.750  69.322  1.00  0.00     0.004 C 
BRANCH  18  19
ATOM     19  C   UNL     1      77.141  63.720  68.242  1.00  0.00     0.000 C 
BRANCH  19  20
ATOM     20  C   UNL     1      76.790  65.132  67.773  1.00  0.00    -0.003 C 
ATOM     21  C   UNL     1      75.622  65.706  68.559  1.00  0.00     0.004 C 
ENDBRANCH  19  20
ENDBRANCH  18  19
ENDBRANCH  17  18
ENDBRANCH   1  17
TORSDOF 10
ENDMDL
