MODEL 1
REMARK VINA RESULT:    -5.903      0.000      0.000
REMARK INTER + INTRA:          -9.855
REMARK INTER:                  -9.182
REMARK INTRA:                  -0.673
REMARK UNBOUND:                -0.673
REMARK SMILES CCCCC/C=C/C(=O)CCc1ccc(O)c(OC)c1
REMARK SMILES IDX 6 1 7 2 8 3 9 4 10 5 11 6 12 7 17 8 20 9 15 10 14 11 13 12
REMARK SMILES IDX 18 13 19 14 16 15 5 17 4 18 3 19 2 20 1 21
REMARK H PARENT 16 16
REMARK Flexibility Score: inf
ROOT
ATOM      1  C   UNL     1      96.999  82.185  81.763  1.00  0.00    -0.023 C 
ATOM      2  C   UNL     1      96.783  83.155  82.661  1.00  0.00     0.043 C 
ENDROOT
BRANCH   2   3
ATOM      3  C   UNL     1      95.658  83.034  83.627  1.00  0.00     0.155 C 
ATOM      4  O   UNL     1      95.223  84.006  84.242  1.00  0.00    -0.295 OA
BRANCH   3   5
ATOM      5  C   UNL     1      95.109  81.639  83.855  1.00  0.00     0.085 C 
BRANCH   5   6
ATOM      6  C   UNL     1      94.169  81.602  85.061  1.00  0.00     0.044 C 
BRANCH   6   7
ATOM      7  C   UNL     1      92.741  81.288  84.683  1.00  0.00    -0.044 A 
ATOM      8  C   UNL     1      91.046  79.679  84.137  1.00  0.00     0.160 A 
ATOM      9  C   UNL     1      92.366  79.969  84.485  1.00  0.00     0.054 A 
ATOM     10  C   UNL     1      90.120  80.711  83.991  1.00  0.00     0.157 A 
ATOM     11  C   UNL     1      90.514  82.035  84.193  1.00  0.00     0.050 A 
ATOM     12  C   UNL     1      91.833  82.325  84.542  1.00  0.00     0.008 A 
BRANCH   8  13
ATOM     13  O   UNL     1      90.675  78.383  83.942  1.00  0.00    -0.493 OA
ATOM     14  C   UNL     1      91.662  77.382  84.182  1.00  0.00     0.278 C 
ENDBRANCH   8  13
BRANCH  10  15
ATOM     15  O   UNL     1      88.829  80.441  83.651  1.00  0.00    -0.504 OA
ATOM     16  H   UNL     1      88.256  81.097  84.085  1.00  0.00     0.293 HD
ENDBRANCH  10  15
ENDBRANCH   6   7
ENDBRANCH   5   6
ENDBRANCH   3   5
ENDBRANCH   2   3
BRANCH   1  17
ATOM     17  C   UNL     1      98.110  82.232  80.755  1.00  0.00     0.027 C 
BRANCH  17  18
ATOM     18  C   UNL     1      97.937  83.349  79.720  1.00  0.00     0.004 C 
BRANCH  18  19
ATOM     19  C   UNL     1      96.525  83.424  79.130  1.00  0.00     0.000 C 
BRANCH  19  20
ATOM     20  C   UNL     1      96.564  83.845  77.660  1.00  0.00    -0.003 C 
ATOM     21  C   UNL     1      97.931  83.595  77.044  1.00  0.00     0.004 C 
ENDBRANCH  19  20
ENDBRANCH  18  19
ENDBRANCH  17  18
ENDBRANCH   1  17
TORSDOF 10
ENDMDL
MODEL 2
REMARK VINA RESULT:    -5.888      1.150      2.271
REMARK INTER + INTRA:          -9.830
REMARK INTER:                  -9.248
REMARK INTRA:                  -0.582
REMARK UNBOUND:                -0.673
REMARK SMILES CCCCC/C=C/C(=O)CCc1ccc(O)c(OC)c1
REMARK SMILES IDX 6 1 7 2 8 3 9 4 10 5 11 6 12 7 17 8 20 9 15 10 14 11 13 12
REMARK SMILES IDX 18 13 19 14 16 15 5 17 4 18 3 19 2 20 1 21
REMARK H PARENT 16 16
REMARK Flexibility Score: inf
ROOT
ATOM      1  C   UNL     1      97.441  82.580  80.655  1.00  0.00    -0.023 C 
ATOM      2  C   UNL     1      96.957  82.122  81.816  1.00  0.00     0.043 C 
ENDROOT
BRANCH   2   3
ATOM      3  C   UNL     1      96.184  83.030  82.707  1.00  0.00     0.155 C 
ATOM      4  O   UNL     1      96.017  84.218  82.436  1.00  0.00    -0.295 OA
BRANCH   3   5
ATOM      5  C   UNL     1      95.656  82.427  83.994  1.00  0.00     0.085 C 
BRANCH   5   6
ATOM      6  C   UNL     1      94.208  82.846  84.251  1.00  0.00     0.044 C 
BRANCH   6   7
ATOM      7  C   UNL     1      93.279  81.669  84.433  1.00  0.00    -0.044 A 
ATOM      8  C   UNL     1      91.054  80.771  84.486  1.00  0.00     0.160 A 
ATOM      9  C   UNL     1      91.912  81.859  84.318  1.00  0.00     0.054 A 
ATOM     10  C   UNL     1      91.576  79.508  84.766  1.00  0.00     0.157 A 
ATOM     11  C   UNL     1      92.955  79.333  84.879  1.00  0.00     0.050 A 
ATOM     12  C   UNL     1      93.813  80.421  84.711  1.00  0.00     0.008 A 
BRANCH   8  13
ATOM     13  O   UNL     1      89.709  80.955  84.373  1.00  0.00    -0.493 OA
ATOM     14  C   UNL     1      89.207  82.259  84.661  1.00  0.00     0.278 C 
ENDBRANCH   8  13
BRANCH  10  15
ATOM     15  O   UNL     1      90.749  78.439  84.931  1.00  0.00    -0.504 OA
ATOM     16  H   UNL     1      91.287  77.677  85.210  1.00  0.00     0.293 HD
ENDBRANCH  10  15
ENDBRANCH   6   7
ENDBRANCH   5   6
ENDBRANCH   3   5
ENDBRANCH   2   3
BRANCH   1  17
ATOM     17  C   UNL     1      98.230  81.729  79.703  1.00  0.00     0.027 C 
BRANCH  17  18
ATOM     18  C   UNL     1      98.403  82.372  78.322  1.00  0.00     0.004 C 
BRANCH  18  19
ATOM     19  C   UNL     1      97.206  83.224  77.889  1.00  0.00     0.000 C 
BRANCH  19  20
ATOM     20  C   UNL     1      97.491  83.947  76.571  1.00  0.00    -0.003 C 
ATOM     21  C   UNL     1      96.449  85.016  76.285  1.00  0.00     0.004 C 
ENDBRANCH  19  20
ENDBRANCH  18  19
ENDBRANCH  17  18
ENDBRANCH   1  17
TORSDOF 10
ENDMDL
MODEL 3
REMARK VINA RESULT:    -5.867      2.913      7.668
REMARK INTER + INTRA:          -9.797
REMARK INTER:                  -9.117
REMARK INTRA:                  -0.680
REMARK UNBOUND:                -0.673
REMARK SMILES CCCCC/C=C/C(=O)CCc1ccc(O)c(OC)c1
REMARK SMILES IDX 6 1 7 2 8 3 9 4 10 5 11 6 12 7 17 8 20 9 15 10 14 11 13 12
REMARK SMILES IDX 18 13 19 14 16 15 5 17 4 18 3 19 2 20 1 21
REMARK H PARENT 16 16
REMARK Flexibility Score: inf
ROOT
ATOM      1  C   UNL     1      90.845  79.898  84.270  1.00  0.00    -0.023 C 
ATOM      2  C   UNL     1      91.666  78.890  84.591  1.00  0.00     0.043 C 
ENDROOT
BRANCH   2   3
ATOM      3  C   UNL     1      93.129  79.134  84.708  1.00  0.00     0.155 C 
ATOM      4  O   UNL     1      93.939  78.210  84.756  1.00  0.00    -0.295 OA
BRANCH   3   5
ATOM      5  C   UNL     1      93.567  80.581  84.818  1.00  0.00     0.085 C 
BRANCH   5   6
ATOM      6  C   UNL     1      94.905  80.812  84.116  1.00  0.00     0.044 C 
BRANCH   6   7
ATOM      7  C   UNL     1      95.267  82.274  84.005  1.00  0.00    -0.044 A 
ATOM      8  C   UNL     1      95.266  84.487  84.933  1.00  0.00     0.160 A 
ATOM      9  C   UNL     1      94.931  83.137  85.036  1.00  0.00     0.054 A 
ATOM     10  C   UNL     1      95.930  84.957  83.801  1.00  0.00     0.157 A 
ATOM     11  C   UNL     1      96.261  84.076  82.770  1.00  0.00     0.050 A 
ATOM     12  C   UNL     1      95.926  82.726  82.873  1.00  0.00     0.008 A 
BRANCH   8  13
ATOM     13  O   UNL     1      94.937  85.337  85.946  1.00  0.00    -0.493 OA
ATOM     14  C   UNL     1      93.590  85.299  86.413  1.00  0.00     0.278 C 
ENDBRANCH   8  13
BRANCH  10  15
ATOM     15  O   UNL     1      96.262  86.273  83.689  1.00  0.00    -0.504 OA
ATOM     16  H   UNL     1      97.228  86.353  83.774  1.00  0.00     0.293 HD
ENDBRANCH  10  15
ENDBRANCH   6   7
ENDBRANCH   5   6
ENDBRANCH   3   5
ENDBRANCH   2   3
BRANCH   1  17
ATOM     17  C   UNL     1      89.359  79.734  84.132  1.00  0.00     0.027 C 
BRANCH  17  18
ATOM     18  C   UNL     1      88.628  81.059  83.888  1.00  0.00     0.004 C 
BRANCH  18  19
ATOM     19  C   UNL     1      88.425  81.890  85.159  1.00  0.00     0.000 C 
BRANCH  19  20
ATOM     20  C   UNL     1      87.725  83.214  84.846  1.00  0.00    -0.003 C 
ATOM     21  C   UNL     1      86.804  83.086  83.643  1.00  0.00     0.004 C 
ENDBRANCH  19  20
ENDBRANCH  18  19
ENDBRANCH  17  18
ENDBRANCH   1  17
TORSDOF 10
ENDMDL
MODEL 4
REMARK VINA RESULT:    -5.810     23.038     25.176
REMARK INTER + INTRA:          -9.710
REMARK INTER:                  -8.460
REMARK INTRA:                  -1.250
REMARK UNBOUND:                -0.673
REMARK SMILES CCCCC/C=C/C(=O)CCc1ccc(O)c(OC)c1
REMARK SMILES IDX 6 1 7 2 8 3 9 4 10 5 11 6 12 7 17 8 20 9 15 10 14 11 13 12
REMARK SMILES IDX 18 13 19 14 16 15 5 17 4 18 3 19 2 20 1 21
REMARK H PARENT 16 16
REMARK Flexibility Score: inf
ROOT
ATOM      1  C   UNL     1      76.067  84.305  66.211  1.00  0.00    -0.023 C 
ATOM      2  C   UNL     1      76.143  84.013  67.516  1.00  0.00     0.043 C 
ENDROOT
BRANCH   2   3
ATOM      3  C   UNL     1      75.331  84.785  68.496  1.00  0.00     0.155 C 
ATOM      4  O   UNL     1      74.134  85.002  68.320  1.00  0.00    -0.295 OA
BRANCH   3   5
ATOM      5  C   UNL     1      76.071  85.337  69.700  1.00  0.00     0.085 C 
BRANCH   5   6
ATOM      6  C   UNL     1      77.221  86.251  69.274  1.00  0.00     0.044 C 
BRANCH   6   7
ATOM      7  C   UNL     1      76.748  87.506  68.580  1.00  0.00    -0.044 A 
ATOM      8  C   UNL     1      75.321  89.435  68.528  1.00  0.00     0.160 A 
ATOM      9  C   UNL     1      75.757  88.275  69.169  1.00  0.00     0.054 A 
ATOM     10  C   UNL     1      75.881  89.811  67.308  1.00  0.00     0.157 A 
ATOM     11  C   UNL     1      76.878  89.026  66.727  1.00  0.00     0.050 A 
ATOM     12  C   UNL     1      77.314  87.866  67.368  1.00  0.00     0.008 A 
BRANCH   8  13
ATOM     13  O   UNL     1      74.347  90.193  69.105  1.00  0.00    -0.493 OA
ATOM     14  C   UNL     1      74.571  90.625  70.446  1.00  0.00     0.278 C 
ENDBRANCH   8  13
BRANCH  10  15
ATOM     15  O   UNL     1      75.464  90.941  66.673  1.00  0.00    -0.504 OA
ATOM     16  H   UNL     1      74.541  91.111  66.927  1.00  0.00     0.293 HD
ENDBRANCH  10  15
ENDBRANCH   6   7
ENDBRANCH   5   6
ENDBRANCH   3   5
ENDBRANCH   2   3
BRANCH   1  17
ATOM     17  C   UNL     1      76.852  83.575  65.161  1.00  0.00     0.027 C 
BRANCH  17  18
ATOM     18  C   UNL     1      76.051  83.320  63.880  1.00  0.00     0.004 C 
BRANCH  18  19
ATOM     19  C   UNL     1      74.636  83.906  63.914  1.00  0.00     0.000 C 
BRANCH  19  20
ATOM     20  C   UNL     1      73.587  82.831  63.624  1.00  0.00    -0.003 C 
ATOM     21  C   UNL     1      72.933  82.332  64.903  1.00  0.00     0.004 C 
ENDBRANCH  19  20
ENDBRANCH  18  19
ENDBRANCH  17  18
ENDBRANCH   1  17
TORSDOF 10
ENDMDL
MODEL 5
REMARK VINA RESULT:    -5.782      1.223      2.314
REMARK INTER + INTRA:          -9.665
REMARK INTER:                  -9.164
REMARK INTRA:                  -0.501
REMARK UNBOUND:                -0.673
REMARK SMILES CCCCC/C=C/C(=O)CCc1ccc(O)c(OC)c1
REMARK SMILES IDX 6 1 7 2 8 3 9 4 10 5 11 6 12 7 17 8 20 9 15 10 14 11 13 12
REMARK SMILES IDX 18 13 19 14 16 15 5 17 4 18 3 19 2 20 1 21
REMARK H PARENT 16 16
REMARK Flexibility Score: inf
ROOT
ATOM      1  C   UNL     1      96.323  82.092  82.947  1.00  0.00    -0.023 C 
ATOM      2  C   UNL     1      95.438  83.039  83.281  1.00  0.00     0.043 C 
ENDROOT
BRANCH   2   3
ATOM      3  C   UNL     1      94.862  83.066  84.653  1.00  0.00     0.155 C 
ATOM      4  O   UNL     1      95.464  83.567  85.600  1.00  0.00    -0.295 OA
BRANCH   3   5
ATOM      5  C   UNL     1      93.514  82.394  84.833  1.00  0.00     0.085 C 
BRANCH   5   6
ATOM      6  C   UNL     1      93.595  80.897  84.529  1.00  0.00     0.044 C 
BRANCH   6   7
ATOM      7  C   UNL     1      92.237  80.244  84.425  1.00  0.00    -0.044 A 
ATOM      8  C   UNL     1      89.865  80.430  84.109  1.00  0.00     0.160 A 
ATOM      9  C   UNL     1      91.119  81.034  84.205  1.00  0.00     0.054 A 
ATOM     10  C   UNL     1      89.745  79.047  84.234  1.00  0.00     0.157 A 
ATOM     11  C   UNL     1      90.880  78.265  84.456  1.00  0.00     0.050 A 
ATOM     12  C   UNL     1      92.134  78.869  84.552  1.00  0.00     0.008 A 
BRANCH   8  13
ATOM     13  O   UNL     1      88.765  81.204  83.893  1.00  0.00    -0.493 OA
ATOM     14  C   UNL     1      88.280  81.964  84.998  1.00  0.00     0.278 C 
ENDBRANCH   8  13
BRANCH  10  15
ATOM     15  O   UNL     1      88.526  78.446  84.142  1.00  0.00    -0.504 OA
ATOM     16  H   UNL     1      88.141  78.667  83.277  1.00  0.00     0.293 HD
ENDBRANCH  10  15
ENDBRANCH   6   7
ENDBRANCH   5   6
ENDBRANCH   3   5
ENDBRANCH   2   3
BRANCH   1  17
ATOM     17  C   UNL     1      96.949  81.997  81.586  1.00  0.00     0.027 C 
BRANCH  17  18
ATOM     18  C   UNL     1      96.894  83.315  80.805  1.00  0.00     0.004 C 
BRANCH  18  19
ATOM     19  C   UNL     1      97.785  83.327  79.559  1.00  0.00     0.000 C 
BRANCH  19  20
ATOM     20  C   UNL     1      96.947  83.281  78.280  1.00  0.00    -0.003 C 
ATOM     21  C   UNL     1      97.382  82.143  77.371  1.00  0.00     0.004 C 
ENDBRANCH  19  20
ENDBRANCH  18  19
ENDBRANCH  17  18
ENDBRANCH   1  17
TORSDOF 10
ENDMDL
MODEL 6
REMARK VINA RESULT:    -5.606      2.062      3.467
REMARK INTER + INTRA:          -9.392
REMARK INTER:                  -8.434
REMARK INTRA:                  -0.959
REMARK UNBOUND:                -0.673
REMARK SMILES CCCCC/C=C/C(=O)CCc1ccc(O)c(OC)c1
REMARK SMILES IDX 6 1 7 2 8 3 9 4 10 5 11 6 12 7 17 8 20 9 15 10 14 11 13 12
REMARK SMILES IDX 18 13 19 14 16 15 5 17 4 18 3 19 2 20 1 21
REMARK H PARENT 16 16
REMARK Flexibility Score: inf
ROOT
ATOM      1  C   UNL     1      97.556  82.464  80.644  1.00  0.00    -0.023 C 
ATOM      2  C   UNL     1      97.088  81.234  80.396  1.00  0.00     0.043 C 
ENDROOT
BRANCH   2   3
ATOM      3  C   UNL     1      97.118  80.200  81.465  1.00  0.00     0.155 C 
ATOM      4  O   UNL     1      97.100  78.998  81.206  1.00  0.00    -0.295 OA
BRANCH   3   5
ATOM      5  C   UNL     1      97.120  80.704  82.895  1.00  0.00     0.085 C 
BRANCH   5   6
ATOM      6  C   UNL     1      95.863  80.257  83.643  1.00  0.00     0.044 C 
BRANCH   6   7
ATOM      7  C   UNL     1      95.012  81.416  84.107  1.00  0.00    -0.044 A 
ATOM      8  C   UNL     1      92.903  82.263  84.876  1.00  0.00     0.160 A 
ATOM      9  C   UNL     1      93.688  81.193  84.448  1.00  0.00     0.054 A 
ATOM     10  C   UNL     1      93.452  83.542  84.958  1.00  0.00     0.157 A 
ATOM     11  C   UNL     1      94.787  83.752  84.611  1.00  0.00     0.050 A 
ATOM     12  C   UNL     1      95.572  82.681  84.182  1.00  0.00     0.008 A 
BRANCH   8  13
ATOM     13  O   UNL     1      91.600  82.046  85.212  1.00  0.00    -0.493 OA
ATOM     14  C   UNL     1      90.701  81.731  84.151  1.00  0.00     0.278 C 
ENDBRANCH   8  13
BRANCH  10  15
ATOM     15  O   UNL     1      92.695  84.596  85.376  1.00  0.00    -0.504 OA
ATOM     16  H   UNL     1      92.992  84.850  86.266  1.00  0.00     0.293 HD
ENDBRANCH  10  15
ENDBRANCH   6   7
ENDBRANCH   5   6
ENDBRANCH   3   5
ENDBRANCH   2   3
BRANCH   1  17
ATOM     17  C   UNL     1      97.561  83.562  79.620  1.00  0.00     0.027 C 
BRANCH  17  18
ATOM     18  C   UNL     1      96.488  83.383  78.541  1.00  0.00     0.004 C 
BRANCH  18  19
ATOM     19  C   UNL     1      96.880  83.971  77.182  1.00  0.00     0.000 C 
BRANCH  19  20
ATOM     20  C   UNL     1      98.167  83.335  76.656  1.00  0.00    -0.003 C 
ATOM     21  C   UNL     1      98.285  83.482  75.148  1.00  0.00     0.004 C 
ENDBRANCH  19  20
ENDBRANCH  18  19
ENDBRANCH  17  18
ENDBRANCH   1  17
TORSDOF 10
ENDMDL
MODEL 7
REMARK VINA RESULT:    -5.425     13.909     16.270
REMARK INTER + INTRA:          -9.110
REMARK INTER:                  -7.863
REMARK INTRA:                  -1.248
REMARK UNBOUND:                -0.673
REMARK SMILES CCCCC/C=C/C(=O)CCc1ccc(O)c(OC)c1
REMARK SMILES IDX 6 1 7 2 8 3 9 4 10 5 11 6 12 7 17 8 20 9 15 10 14 11 13 12
REMARK SMILES IDX 18 13 19 14 16 15 5 17 4 18 3 19 2 20 1 21
REMARK H PARENT 16 16
REMARK Flexibility Score: inf
ROOT
ATOM      1  C   UNL     1      88.883  73.233  66.921  1.00  0.00    -0.023 C 
ATOM      2  C   UNL     1      89.827  73.994  67.489  1.00  0.00     0.043 C 
ENDROOT
BRANCH   2   3
ATOM      3  C   UNL     1      90.839  74.677  66.639  1.00  0.00     0.155 C 
ATOM      4  O   UNL     1      90.856  74.546  65.417  1.00  0.00    -0.295 OA
BRANCH   3   5
ATOM      5  C   UNL     1      91.884  75.503  67.364  1.00  0.00     0.085 C 
BRANCH   5   6
ATOM      6  C   UNL     1      92.319  74.830  68.666  1.00  0.00     0.044 C 
BRANCH   6   7
ATOM      7  C   UNL     1      92.256  75.757  69.857  1.00  0.00    -0.044 A 
ATOM      8  C   UNL     1      92.724  76.200  72.169  1.00  0.00     0.160 A 
ATOM      9  C   UNL     1      92.782  75.342  71.070  1.00  0.00     0.054 A 
ATOM     10  C   UNL     1      92.141  77.460  72.041  1.00  0.00     0.157 A 
ATOM     11  C   UNL     1      91.614  77.863  70.813  1.00  0.00     0.050 A 
ATOM     12  C   UNL     1      91.673  77.006  69.714  1.00  0.00     0.008 A 
BRANCH   8  13
ATOM     13  O   UNL     1      93.241  75.794  73.362  1.00  0.00    -0.493 OA
ATOM     14  C   UNL     1      92.496  74.822  74.095  1.00  0.00     0.278 C 
ENDBRANCH   8  13
BRANCH  10  15
ATOM     15  O   UNL     1      92.078  78.306  73.106  1.00  0.00    -0.504 OA
ATOM     16  H   UNL     1      92.915  78.241  73.598  1.00  0.00     0.293 HD
ENDBRANCH  10  15
ENDBRANCH   6   7
ENDBRANCH   5   6
ENDBRANCH   3   5
ENDBRANCH   2   3
BRANCH   1  17
ATOM     17  C   UNL     1      87.827  72.512  67.708  1.00  0.00     0.027 C 
BRANCH  17  18
ATOM     18  C   UNL     1      88.352  71.251  68.403  1.00  0.00     0.004 C 
BRANCH  18  19
ATOM     19  C   UNL     1      88.816  71.492  69.843  1.00  0.00     0.000 C 
BRANCH  19  20
ATOM     20  C   UNL     1      90.238  70.974  70.059  1.00  0.00    -0.003 C 
ATOM     21  C   UNL     1      91.100  71.998  70.781  1.00  0.00     0.004 C 
ENDBRANCH  19  20
ENDBRANCH  18  19
ENDBRANCH  17  18
ENDBRANCH   1  17
TORSDOF 10
ENDMDL
MODEL 8
REMARK VINA RESULT:    -5.419      4.617      7.994
REMARK INTER + INTRA:          -9.101
REMARK INTER:                  -8.613
REMARK INTRA:                  -0.488
REMARK UNBOUND:                -0.673
REMARK SMILES CCCCC/C=C/C(=O)CCc1ccc(O)c(OC)c1
REMARK SMILES IDX 6 1 7 2 8 3 9 4 10 5 11 6 12 7 17 8 20 9 15 10 14 11 13 12
REMARK SMILES IDX 18 13 19 14 16 15 5 17 4 18 3 19 2 20 1 21
REMARK H PARENT 16 16
REMARK Flexibility Score: inf
ROOT
ATOM      1  C   UNL     1      97.755  83.567  73.758  1.00  0.00    -0.023 C 
ATOM      2  C   UNL     1      98.104  83.568  75.050  1.00  0.00     0.043 C 
ENDROOT
BRANCH   2   3
ATOM      3  C   UNL     1      97.079  83.838  76.095  1.00  0.00     0.155 C 
ATOM      4  O   UNL     1      96.316  84.798  76.022  1.00  0.00    -0.295 OA
BRANCH   3   5
ATOM      5  C   UNL     1      97.059  82.895  77.283  1.00  0.00     0.085 C 
BRANCH   5   6
ATOM      6  C   UNL     1      96.686  83.631  78.570  1.00  0.00     0.044 C 
BRANCH   6   7
ATOM      7  C   UNL     1      97.270  82.989  79.805  1.00  0.00    -0.044 A 
ATOM      8  C   UNL     1      97.245  82.660  82.182  1.00  0.00     0.160 A 
ATOM      9  C   UNL     1      96.704  83.254  81.042  1.00  0.00     0.054 A 
ATOM     10  C   UNL     1      98.344  81.809  82.072  1.00  0.00     0.157 A 
ATOM     11  C   UNL     1      98.903  81.552  80.819  1.00  0.00     0.050 A 
ATOM     12  C   UNL     1      98.363  82.146  79.679  1.00  0.00     0.008 A 
BRANCH   8  13
ATOM     13  O   UNL     1      96.690  82.919  83.399  1.00  0.00    -0.493 OA
ATOM     14  C   UNL     1      96.098  84.204  83.582  1.00  0.00     0.278 C 
ENDBRANCH   8  13
BRANCH  10  15
ATOM     15  O   UNL     1      98.880  81.223  83.178  1.00  0.00    -0.504 OA
ATOM     16  H   UNL     1      99.848  81.302  83.127  1.00  0.00     0.293 HD
ENDBRANCH  10  15
ENDBRANCH   6   7
ENDBRANCH   5   6
ENDBRANCH   3   5
ENDBRANCH   2   3
BRANCH   1  17
ATOM     17  C   UNL     1      98.728  83.304  72.645  1.00  0.00     0.027 C 
BRANCH  17  18
ATOM     18  C   UNL     1      98.917  81.813  72.351  1.00  0.00     0.004 C 
BRANCH  18  19
ATOM     19  C   UNL     1      98.010  81.288  71.233  1.00  0.00     0.000 C 
BRANCH  19  20
ATOM     20  C   UNL     1      98.807  81.023  69.955  1.00  0.00    -0.003 C 
ATOM     21  C   UNL     1      99.304  79.587  69.897  1.00  0.00     0.004 C 
ENDBRANCH  19  20
ENDBRANCH  18  19
ENDBRANCH  17  18
ENDBRANCH   1  17
TORSDOF 10
ENDMDL
MODEL 9
REMARK VINA RESULT:    -5.351     23.507     25.649
REMARK INTER + INTRA:          -8.995
REMARK INTER:                  -7.683
REMARK INTRA:                  -1.312
REMARK UNBOUND:                -0.673
REMARK SMILES CCCCC/C=C/C(=O)CCc1ccc(O)c(OC)c1
REMARK SMILES IDX 6 1 7 2 8 3 9 4 10 5 11 6 12 7 17 8 20 9 15 10 14 11 13 12
REMARK SMILES IDX 18 13 19 14 16 15 5 17 4 18 3 19 2 20 1 21
REMARK H PARENT 16 16
REMARK Flexibility Score: inf
ROOT
ATOM      1  C   UNL     1      76.899  84.976  68.390  1.00  0.00    -0.023 C 
ATOM      2  C   UNL     1      77.139  85.266  67.105  1.00  0.00     0.043 C 
ENDROOT
BRANCH   2   3
ATOM      3  C   UNL     1      77.244  84.170  66.105  1.00  0.00     0.155 C 
ATOM      4  O   UNL     1      78.269  83.504  65.977  1.00  0.00    -0.295 OA
BRANCH   3   5
ATOM      5  C   UNL     1      76.038  83.951  65.212  1.00  0.00     0.085 C 
BRANCH   5   6
ATOM      6  C   UNL     1      75.084  85.146  65.265  1.00  0.00     0.044 C 
BRANCH   6   7
ATOM      7  C   UNL     1      73.735  84.795  65.847  1.00  0.00    -0.044 A 
ATOM      8  C   UNL     1      72.062  85.107  67.539  1.00  0.00     0.160 A 
ATOM      9  C   UNL     1      73.308  85.431  67.002  1.00  0.00     0.054 A 
ATOM     10  C   UNL     1      71.260  84.152  66.915  1.00  0.00     0.157 A 
ATOM     11  C   UNL     1      71.705  83.520  65.753  1.00  0.00     0.050 A 
ATOM     12  C   UNL     1      72.951  83.844  65.216  1.00  0.00     0.008 A 
BRANCH   8  13
ATOM     13  O   UNL     1      71.640  85.731  68.674  1.00  0.00    -0.493 OA
ATOM     14  C   UNL     1      71.186  87.077  68.544  1.00  0.00     0.278 C 
ENDBRANCH   8  13
BRANCH  10  15
ATOM     15  O   UNL     1      70.042  83.828  67.430  1.00  0.00    -0.504 OA
ATOM     16  H   UNL     1      69.401  84.503  67.148  1.00  0.00     0.293 HD
ENDBRANCH  10  15
ENDBRANCH   6   7
ENDBRANCH   5   6
ENDBRANCH   3   5
ENDBRANCH   2   3
BRANCH   1  17
ATOM     17  C   UNL     1      76.780  86.023  69.459  1.00  0.00     0.027 C 
BRANCH  17  18
ATOM     18  C   UNL     1      76.568  87.434  68.899  1.00  0.00     0.004 C 
BRANCH  18  19
ATOM     19  C   UNL     1      75.123  87.930  69.016  1.00  0.00     0.000 C 
BRANCH  19  20
ATOM     20  C   UNL     1      75.034  89.434  68.755  1.00  0.00    -0.003 C 
ATOM     21  C   UNL     1      74.895  90.217  70.051  1.00  0.00     0.004 C 
ENDBRANCH  19  20
ENDBRANCH  18  19
ENDBRANCH  17  18
ENDBRANCH   1  17
TORSDOF 10
ENDMDL
MODEL 10
REMARK VINA RESULT:    -5.301      5.032      8.282
REMARK INTER + INTRA:          -8.918
REMARK INTER:                  -8.143
REMARK INTRA:                  -0.775
REMARK UNBOUND:                -0.673
REMARK SMILES CCCCC/C=C/C(=O)CCc1ccc(O)c(OC)c1
REMARK SMILES IDX 6 1 7 2 8 3 9 4 10 5 11 6 12 7 17 8 20 9 15 10 14 11 13 12
REMARK SMILES IDX 18 13 19 14 16 15 5 17 4 18 3 19 2 20 1 21
REMARK H PARENT 16 16
REMARK Flexibility Score: inf
ROOT
ATOM      1  C   UNL     1      93.613  80.939  86.358  1.00  0.00    -0.023 C 
ATOM      2  C   UNL     1      94.536  81.761  85.844  1.00  0.00     0.043 C 
ENDROOT
BRANCH   2   3
ATOM      3  C   UNL     1      94.697  83.134  86.397  1.00  0.00     0.155 C 
ATOM      4  O   UNL     1      95.797  83.676  86.477  1.00  0.00    -0.295 OA
BRANCH   3   5
ATOM      5  C   UNL     1      93.438  83.809  86.906  1.00  0.00     0.085 C 
BRANCH   5   6
ATOM      6  C   UNL     1      93.270  85.202  86.297  1.00  0.00     0.044 C 
BRANCH   6   7
ATOM      7  C   UNL     1      93.507  86.311  87.294  1.00  0.00    -0.044 A 
ATOM      8  C   UNL     1      94.373  88.490  87.805  1.00  0.00     0.160 A 
ATOM      9  C   UNL     1      94.155  87.466  86.884  1.00  0.00     0.054 A 
ATOM     10  C   UNL     1      93.941  88.347  89.124  1.00  0.00     0.157 A 
ATOM     11  C   UNL     1      93.291  87.178  89.521  1.00  0.00     0.050 A 
ATOM     12  C   UNL     1      93.073  86.154  88.600  1.00  0.00     0.008 A 
BRANCH   8  13
ATOM     13  O   UNL     1      95.009  89.626  87.405  1.00  0.00    -0.493 OA
ATOM     14  C   UNL     1      94.207  90.792  87.230  1.00  0.00     0.278 C 
ENDBRANCH   8  13
BRANCH  10  15
ATOM     15  O   UNL     1      94.148  89.341  90.032  1.00  0.00    -0.504 OA
ATOM     16  H   UNL     1      94.749  89.005  90.720  1.00  0.00     0.293 HD
ENDBRANCH  10  15
ENDBRANCH   6   7
ENDBRANCH   5   6
ENDBRANCH   3   5
ENDBRANCH   2   3
BRANCH   1  17
ATOM     17  C   UNL     1      93.389  79.542  85.856  1.00  0.00     0.027 C 
BRANCH  17  18
ATOM     18  C   UNL     1      92.778  79.497  84.452  1.00  0.00     0.004 C 
BRANCH  18  19
ATOM     19  C   UNL     1      91.247  79.454  84.450  1.00  0.00     0.000 C 
BRANCH  19  20
ATOM     20  C   UNL     1      90.665  80.566  83.576  1.00  0.00    -0.003 C 
ATOM     21  C   UNL     1      90.725  81.914  84.277  1.00  0.00     0.004 C 
ENDBRANCH  19  20
ENDBRANCH  18  19
ENDBRANCH  17  18
ENDBRANCH   1  17
TORSDOF 10
ENDMDL
