MODEL 1
REMARK VINA RESULT:    -6.137      0.000      0.000
REMARK INTER + INTRA:         -11.032
REMARK INTER:                 -10.084
REMARK INTRA:                  -0.948
REMARK UNBOUND:                -0.948
REMARK SMILES CCCCC[C@H](O)CC(=O)CCc1ccc(O)c(OC)c1
REMARK SMILES IDX 8 1 6 2 7 3 5 5 4 6 3 7 2 8 1 9 9 10 10 11 11 12 12 13 13 14
REMARK SMILES IDX 21 15 14 16 18 17 15 18 16 19 19 20 20 21 17 22
REMARK H PARENT 7 4 17 23
REMARK Flexibility Score: inf
ROOT
ATOM      1  C   UNL     1      91.728  95.191  76.937  1.00  0.00     0.107 C 
ENDROOT
BRANCH   1   2
ATOM      2  C   UNL     1      91.063  93.814  76.878  1.00  0.00     0.121 C 
BRANCH   2   3
ATOM      3  O   UNL     1      90.603  93.443  78.176  1.00  0.00    -0.393 OA
ATOM      4  H   UNL     1      89.761  92.967  78.069  1.00  0.00     0.210 HD
ENDBRANCH   2   3
BRANCH   2   5
ATOM      5  C   UNL     1      89.890  93.756  75.892  1.00  0.00     0.032 C 
BRANCH   5   6
ATOM      6  C   UNL     1      90.329  93.281  74.501  1.00  0.00     0.003 C 
BRANCH   6   7
ATOM      7  C   UNL     1      90.465  91.758  74.395  1.00  0.00    -0.000 C 
BRANCH   7   8
ATOM      8  C   UNL     1      89.603  90.995  75.399  1.00  0.00    -0.003 C 
ATOM      9  C   UNL     1      89.745  89.492  75.223  1.00  0.00     0.004 C 
ENDBRANCH   7   8
ENDBRANCH   6   7
ENDBRANCH   5   6
ENDBRANCH   2   5
ENDBRANCH   1   2
BRANCH   1  10
ATOM     10  C   UNL     1      93.151  95.143  77.468  1.00  0.00     0.135 C 
ATOM     11  O   UNL     1      93.374  95.087  78.677  1.00  0.00    -0.300 OA
BRANCH  10  12
ATOM     12  C   UNL     1      94.265  95.120  76.432  1.00  0.00     0.080 C 
BRANCH  12  13
ATOM     13  C   UNL     1      93.807  95.519  75.028  1.00  0.00     0.043 C 
BRANCH  13  14
ATOM     14  C   UNL     1      94.335  96.865  74.593  1.00  0.00    -0.044 A 
ATOM     15  C   UNL     1      94.854  97.030  73.309  1.00  0.00     0.054 A 
ATOM     16  C   UNL     1      94.303  97.944  75.477  1.00  0.00     0.008 A 
ATOM     17  C   UNL     1      95.340  98.274  72.908  1.00  0.00     0.160 A 
ATOM     18  C   UNL     1      94.790  99.189  75.076  1.00  0.00     0.050 A 
ATOM     19  C   UNL     1      95.308  99.354  73.792  1.00  0.00     0.157 A 
BRANCH  17  20
ATOM     20  O   UNL     1      95.845  98.423  71.651  1.00  0.00    -0.493 OA
ATOM     21  C   UNL     1      95.782  97.288  70.789  1.00  0.00     0.278 C 
ENDBRANCH  17  20
BRANCH  19  22
ATOM     22  O   UNL     1      95.780 100.573  73.412  1.00  0.00    -0.504 OA
ATOM     23  H   UNL     1      96.656 100.461  73.005  1.00  0.00     0.293 HD
ENDBRANCH  19  22
ENDBRANCH  13  14
ENDBRANCH  12  13
ENDBRANCH  10  12
ENDBRANCH   1  10
TORSDOF 12
ENDMDL
MODEL 2
REMARK VINA RESULT:    -6.056      1.660      2.586
REMARK INTER + INTRA:         -10.899
REMARK INTER:                  -9.884
REMARK INTRA:                  -1.015
REMARK UNBOUND:                -0.948
REMARK SMILES CCCCC[C@H](O)CC(=O)CCc1ccc(O)c(OC)c1
REMARK SMILES IDX 8 1 6 2 7 3 5 5 4 6 3 7 2 8 1 9 9 10 10 11 11 12 12 13 13 14
REMARK SMILES IDX 21 15 14 16 18 17 15 18 16 19 19 20 20 21 17 22
REMARK H PARENT 7 4 17 23
REMARK Flexibility Score: inf
ROOT
ATOM      1  C   UNL     1      93.130  96.370  77.366  1.00  0.00     0.107 C 
ENDROOT
BRANCH   1   2
ATOM      2  C   UNL     1      92.888  94.880  77.619  1.00  0.00     0.121 C 
BRANCH   2   3
ATOM      3  O   UNL     1      93.425  94.511  78.887  1.00  0.00    -0.393 OA
ATOM      4  H   UNL     1      93.690  95.327  79.346  1.00  0.00     0.210 HD
ENDBRANCH   2   3
BRANCH   2   5
ATOM      5  C   UNL     1      91.404  94.496  77.569  1.00  0.00     0.032 C 
BRANCH   5   6
ATOM      6  C   UNL     1      90.635  95.302  76.514  1.00  0.00     0.003 C 
BRANCH   6   7
ATOM      7  C   UNL     1      89.980  94.427  75.441  1.00  0.00    -0.000 C 
BRANCH   7   8
ATOM      8  C   UNL     1      90.849  93.252  74.994  1.00  0.00    -0.003 C 
ATOM      9  C   UNL     1      90.103  91.933  75.117  1.00  0.00     0.004 C 
ENDBRANCH   7   8
ENDBRANCH   6   7
ENDBRANCH   5   6
ENDBRANCH   2   5
ENDBRANCH   1   2
BRANCH   1  10
ATOM     10  C   UNL     1      94.557  96.677  76.940  1.00  0.00     0.135 C 
ATOM     11  O   UNL     1      95.514  96.303  77.618  1.00  0.00    -0.300 OA
BRANCH  10  12
ATOM     12  C   UNL     1      94.731  97.421  75.625  1.00  0.00     0.080 C 
BRANCH  12  13
ATOM     13  C   UNL     1      94.300  96.614  74.400  1.00  0.00     0.043 C 
BRANCH  13  14
ATOM     14  C   UNL     1      94.562  97.331  73.097  1.00  0.00    -0.044 A 
ATOM     15  C   UNL     1      95.596  96.906  72.262  1.00  0.00     0.054 A 
ATOM     16  C   UNL     1      93.769  98.418  72.728  1.00  0.00     0.008 A 
ATOM     17  C   UNL     1      95.836  97.569  71.058  1.00  0.00     0.160 A 
ATOM     18  C   UNL     1      94.010  99.080  71.524  1.00  0.00     0.050 A 
ATOM     19  C   UNL     1      95.044  98.656  70.689  1.00  0.00     0.157 A 
BRANCH  17  20
ATOM     20  O   UNL     1      96.849  97.145  70.251  1.00  0.00    -0.493 OA
ATOM     21  C   UNL     1      98.155  97.644  70.535  1.00  0.00     0.278 C 
ENDBRANCH  17  20
BRANCH  19  22
ATOM     22  O   UNL     1      95.269  99.310  69.516  1.00  0.00    -0.504 OA
ATOM     23  H   UNL     1      95.987  98.863  69.037  1.00  0.00     0.293 HD
ENDBRANCH  19  22
ENDBRANCH  13  14
ENDBRANCH  12  13
ENDBRANCH  10  12
ENDBRANCH   1  10
TORSDOF 12
ENDMDL
MODEL 3
REMARK VINA RESULT:    -5.921      1.869      2.719
REMARK INTER + INTRA:         -10.677
REMARK INTER:                  -9.600
REMARK INTRA:                  -1.077
REMARK UNBOUND:                -0.948
REMARK SMILES CCCCC[C@H](O)CC(=O)CCc1ccc(O)c(OC)c1
REMARK SMILES IDX 8 1 6 2 7 3 5 5 4 6 3 7 2 8 1 9 9 10 10 11 11 12 12 13 13 14
REMARK SMILES IDX 21 15 14 16 18 17 15 18 16 19 19 20 20 21 17 22
REMARK H PARENT 7 4 17 23
REMARK Flexibility Score: inf
ROOT
ATOM      1  C   UNL     1      93.004  94.588  76.927  1.00  0.00     0.107 C 
ENDROOT
BRANCH   1   2
ATOM      2  C   UNL     1      91.688  94.982  77.602  1.00  0.00     0.121 C 
BRANCH   2   3
ATOM      3  O   UNL     1      91.032  95.987  76.832  1.00  0.00    -0.393 OA
ATOM      4  H   UNL     1      91.629  96.754  76.773  1.00  0.00     0.210 HD
ENDBRANCH   2   3
BRANCH   2   5
ATOM      5  C   UNL     1      90.735  93.796  77.799  1.00  0.00     0.032 C 
BRANCH   5   6
ATOM      6  C   UNL     1      89.809  93.594  76.593  1.00  0.00     0.003 C 
BRANCH   6   7
ATOM      7  C   UNL     1      89.923  92.199  75.969  1.00  0.00    -0.000 C 
BRANCH   7   8
ATOM      8  C   UNL     1      90.557  92.201  74.579  1.00  0.00    -0.003 C 
ATOM      9  C   UNL     1      90.566  90.806  73.973  1.00  0.00     0.004 C 
ENDBRANCH   7   8
ENDBRANCH   6   7
ENDBRANCH   5   6
ENDBRANCH   2   5
ENDBRANCH   1   2
BRANCH   1  10
ATOM     10  C   UNL     1      93.213  95.270  75.585  1.00  0.00     0.135 C 
ATOM     11  O   UNL     1      92.408  95.118  74.665  1.00  0.00    -0.300 OA
BRANCH  10  12
ATOM     12  C   UNL     1      94.430  96.173  75.461  1.00  0.00     0.080 C 
BRANCH  12  13
ATOM     13  C   UNL     1      94.105  97.576  74.945  1.00  0.00     0.043 C 
BRANCH  13  14
ATOM     14  C   UNL     1      94.490  97.780  73.499  1.00  0.00    -0.044 A 
ATOM     15  C   UNL     1      93.818  98.725  72.724  1.00  0.00     0.054 A 
ATOM     16  C   UNL     1      95.519  97.022  72.939  1.00  0.00     0.008 A 
ATOM     17  C   UNL     1      94.175  98.912  71.389  1.00  0.00     0.160 A 
ATOM     18  C   UNL     1      95.876  97.209  71.604  1.00  0.00     0.050 A 
ATOM     19  C   UNL     1      95.204  98.154  70.829  1.00  0.00     0.157 A 
BRANCH  17  20
ATOM     20  O   UNL     1      93.511  99.838  70.642  1.00  0.00    -0.493 OA
ATOM     21  C   UNL     1      92.165 100.127  71.015  1.00  0.00     0.278 C 
ENDBRANCH  17  20
BRANCH  19  22
ATOM     22  O   UNL     1      95.562  98.329  69.526  1.00  0.00    -0.504 OA
ATOM     23  H   UNL     1      95.070  99.084  69.161  1.00  0.00     0.293 HD
ENDBRANCH  19  22
ENDBRANCH  13  14
ENDBRANCH  12  13
ENDBRANCH  10  12
ENDBRANCH   1  10
TORSDOF 12
ENDMDL
MODEL 4
REMARK VINA RESULT:    -5.894      3.671      5.701
REMARK INTER + INTRA:         -10.632
REMARK INTER:                  -9.388
REMARK INTRA:                  -1.245
REMARK UNBOUND:                -0.948
REMARK SMILES CCCCC[C@H](O)CC(=O)CCc1ccc(O)c(OC)c1
REMARK SMILES IDX 8 1 6 2 7 3 5 5 4 6 3 7 2 8 1 9 9 10 10 11 11 12 12 13 13 14
REMARK SMILES IDX 21 15 14 16 18 17 15 18 16 19 19 20 20 21 17 22
REMARK H PARENT 7 4 17 23
REMARK Flexibility Score: inf
ROOT
ATOM      1  C   UNL     1      93.234  94.868  76.564  1.00  0.00     0.107 C 
ENDROOT
BRANCH   1   2
ATOM      2  C   UNL     1      92.048  95.240  77.458  1.00  0.00     0.121 C 
BRANCH   2   3
ATOM      3  O   UNL     1      91.193  96.152  76.773  1.00  0.00    -0.393 OA
ATOM      4  H   UNL     1      91.388  96.084  75.821  1.00  0.00     0.210 HD
ENDBRANCH   2   3
BRANCH   2   5
ATOM      5  C   UNL     1      91.231  94.024  77.909  1.00  0.00     0.032 C 
BRANCH   5   6
ATOM      6  C   UNL     1      89.998  93.798  77.027  1.00  0.00     0.003 C 
BRANCH   6   7
ATOM      7  C   UNL     1      89.893  92.369  76.485  1.00  0.00    -0.000 C 
BRANCH   7   8
ATOM      8  C   UNL     1      90.248  92.249  75.004  1.00  0.00    -0.003 C 
ATOM      9  C   UNL     1      90.304  93.613  74.334  1.00  0.00     0.004 C 
ENDBRANCH   7   8
ENDBRANCH   6   7
ENDBRANCH   5   6
ENDBRANCH   2   5
ENDBRANCH   1   2
BRANCH   1  10
ATOM     10  C   UNL     1      93.811  96.058  75.814  1.00  0.00     0.135 C 
ATOM     11  O   UNL     1      93.337  96.417  74.736  1.00  0.00    -0.300 OA
BRANCH  10  12
ATOM     12  C   UNL     1      94.960  96.794  76.485  1.00  0.00     0.080 C 
BRANCH  12  13
ATOM     13  C   UNL     1      94.526  97.664  77.666  1.00  0.00     0.043 C 
BRANCH  13  14
ATOM     14  C   UNL     1      95.270  97.345  78.941  1.00  0.00    -0.044 A 
ATOM     15  C   UNL     1      95.576  98.362  79.844  1.00  0.00     0.054 A 
ATOM     16  C   UNL     1      95.649  96.030  79.216  1.00  0.00     0.008 A 
ATOM     17  C   UNL     1      96.262  98.065  81.022  1.00  0.00     0.160 A 
ATOM     18  C   UNL     1      96.335  95.733  80.394  1.00  0.00     0.050 A 
ATOM     19  C   UNL     1      96.642  96.751  81.297  1.00  0.00     0.157 A 
BRANCH  17  20
ATOM     20  O   UNL     1      96.557  99.068  81.897  1.00  0.00    -0.493 OA
ATOM     21  C   UNL     1      97.680  99.891  81.585  1.00  0.00     0.278 C 
ENDBRANCH  17  20
BRANCH  19  22
ATOM     22  O   UNL     1      97.312  96.449  82.443  1.00  0.00    -0.504 OA
ATOM     23  H   UNL     1      98.163  96.920  82.446  1.00  0.00     0.293 HD
ENDBRANCH  19  22
ENDBRANCH  13  14
ENDBRANCH  12  13
ENDBRANCH  10  12
ENDBRANCH   1  10
TORSDOF 12
ENDMDL
MODEL 5
REMARK VINA RESULT:    -5.863      3.786      5.508
REMARK INTER + INTRA:         -10.582
REMARK INTER:                  -9.672
REMARK INTRA:                  -0.910
REMARK UNBOUND:                -0.948
REMARK SMILES CCCCC[C@H](O)CC(=O)CCc1ccc(O)c(OC)c1
REMARK SMILES IDX 8 1 6 2 7 3 5 5 4 6 3 7 2 8 1 9 9 10 10 11 11 12 12 13 13 14
REMARK SMILES IDX 21 15 14 16 18 17 15 18 16 19 19 20 20 21 17 22
REMARK H PARENT 7 4 17 23
REMARK Flexibility Score: inf
ROOT
ATOM      1  C   UNL     1      91.586  94.776  77.291  1.00  0.00     0.107 C 
ENDROOT
BRANCH   1   2
ATOM      2  C   UNL     1      90.894  95.061  75.956  1.00  0.00     0.121 C 
BRANCH   2   3
ATOM      3  O   UNL     1      91.872  95.284  74.943  1.00  0.00    -0.393 OA
ATOM      4  H   UNL     1      91.449  95.122  74.081  1.00  0.00     0.210 HD
ENDBRANCH   2   3
BRANCH   2   5
ATOM      5  C   UNL     1      89.956  93.932  75.513  1.00  0.00     0.032 C 
BRANCH   5   6
ATOM      6  C   UNL     1      90.373  92.575  76.092  1.00  0.00     0.003 C 
BRANCH   6   7
ATOM      7  C   UNL     1      89.374  91.454  75.790  1.00  0.00    -0.000 C 
BRANCH   7   8
ATOM      8  C   UNL     1      90.011  90.222  75.148  1.00  0.00    -0.003 C 
ATOM      9  C   UNL     1      90.385  90.484  73.697  1.00  0.00     0.004 C 
ENDBRANCH   7   8
ENDBRANCH   6   7
ENDBRANCH   5   6
ENDBRANCH   2   5
ENDBRANCH   1   2
BRANCH   1  10
ATOM     10  C   UNL     1      92.905  95.515  77.449  1.00  0.00     0.135 C 
ATOM     11  O   UNL     1      92.944  96.745  77.454  1.00  0.00    -0.300 OA
BRANCH  10  12
ATOM     12  C   UNL     1      94.147  94.659  77.643  1.00  0.00     0.080 C 
BRANCH  12  13
ATOM     13  C   UNL     1      94.616  94.575  79.096  1.00  0.00     0.043 C 
BRANCH  13  14
ATOM     14  C   UNL     1      95.753  95.520  79.407  1.00  0.00    -0.044 A 
ATOM     15  C   UNL     1      96.203  95.661  80.720  1.00  0.00     0.054 A 
ATOM     16  C   UNL     1      96.352  96.251  78.381  1.00  0.00     0.008 A 
ATOM     17  C   UNL     1      97.254  96.533  81.006  1.00  0.00     0.160 A 
ATOM     18  C   UNL     1      97.403  97.122  78.667  1.00  0.00     0.050 A 
ATOM     19  C   UNL     1      97.853  97.264  79.979  1.00  0.00     0.157 A 
BRANCH  17  20
ATOM     20  O   UNL     1      97.685  96.664  82.292  1.00  0.00    -0.493 OA
ATOM     21  C   UNL     1      98.451  95.588  82.831  1.00  0.00     0.278 C 
ENDBRANCH  17  20
BRANCH  19  22
ATOM     22  O   UNL     1      98.880  98.118  80.246  1.00  0.00    -0.504 OA
ATOM     23  H   UNL     1      98.583  98.778  80.897  1.00  0.00     0.293 HD
ENDBRANCH  19  22
ENDBRANCH  13  14
ENDBRANCH  12  13
ENDBRANCH  10  12
ENDBRANCH   1  10
TORSDOF 12
ENDMDL
MODEL 6
REMARK VINA RESULT:    -5.670      2.853      7.470
REMARK INTER + INTRA:         -10.265
REMARK INTER:                  -9.404
REMARK INTRA:                  -0.861
REMARK UNBOUND:                -0.948
REMARK SMILES CCCCC[C@H](O)CC(=O)CCc1ccc(O)c(OC)c1
REMARK SMILES IDX 8 1 6 2 7 3 5 5 4 6 3 7 2 8 1 9 9 10 10 11 11 12 12 13 13 14
REMARK SMILES IDX 21 15 14 16 18 17 15 18 16 19 19 20 20 21 17 22
REMARK H PARENT 7 4 17 23
REMARK Flexibility Score: inf
ROOT
ATOM      1  C   UNL     1      94.396  99.863  73.998  1.00  0.00     0.107 C 
ENDROOT
BRANCH   1   2
ATOM      2  C   UNL     1      94.237 100.161  72.505  1.00  0.00     0.121 C 
BRANCH   2   3
ATOM      3  O   UNL     1      95.442  99.837  71.816  1.00  0.00    -0.393 OA
ATOM      4  H   UNL     1      96.187 100.046  72.406  1.00  0.00     0.210 HD
ENDBRANCH   2   3
BRANCH   2   5
ATOM      5  C   UNL     1      93.068  99.403  71.863  1.00  0.00     0.032 C 
BRANCH   5   6
ATOM      6  C   UNL     1      91.908 100.336  71.496  1.00  0.00     0.003 C 
BRANCH   6   7
ATOM      7  C   UNL     1      90.890  99.695  70.547  1.00  0.00    -0.000 C 
BRANCH   7   8
ATOM      8  C   UNL     1      89.581 100.473  70.436  1.00  0.00    -0.003 C 
ATOM      9  C   UNL     1      89.257 101.201  71.732  1.00  0.00     0.004 C 
ENDBRANCH   7   8
ENDBRANCH   6   7
ENDBRANCH   5   6
ENDBRANCH   2   5
ENDBRANCH   1   2
BRANCH   1  10
ATOM     10  C   UNL     1      94.901  98.456  74.273  1.00  0.00     0.135 C 
ATOM     11  O   UNL     1      95.948  98.049  73.770  1.00  0.00    -0.300 OA
BRANCH  10  12
ATOM     12  C   UNL     1      94.073  97.609  75.228  1.00  0.00     0.080 C 
BRANCH  12  13
ATOM     13  C   UNL     1      93.744  96.216  74.687  1.00  0.00     0.043 C 
BRANCH  13  14
ATOM     14  C   UNL     1      92.841  95.424  75.602  1.00  0.00    -0.044 A 
ATOM     15  C   UNL     1      91.850  94.602  75.064  1.00  0.00     0.054 A 
ATOM     16  C   UNL     1      92.999  95.513  76.985  1.00  0.00     0.008 A 
ATOM     17  C   UNL     1      91.017  93.870  75.911  1.00  0.00     0.160 A 
ATOM     18  C   UNL     1      92.166  94.781  77.832  1.00  0.00     0.050 A 
ATOM     19  C   UNL     1      91.175  93.960  77.294  1.00  0.00     0.157 A 
BRANCH  17  20
ATOM     20  O   UNL     1      90.052  93.072  75.374  1.00  0.00    -0.493 OA
ATOM     21  C   UNL     1      90.487  91.889  74.706  1.00  0.00     0.278 C 
ENDBRANCH  17  20
BRANCH  19  22
ATOM     22  O   UNL     1      90.368  93.250  78.130  1.00  0.00    -0.504 OA
ATOM     23  H   UNL     1      89.605  92.916  77.627  1.00  0.00     0.293 HD
ENDBRANCH  19  22
ENDBRANCH  13  14
ENDBRANCH  12  13
ENDBRANCH  10  12
ENDBRANCH   1  10
TORSDOF 12
ENDMDL
MODEL 7
REMARK VINA RESULT:    -5.391      5.455      7.325
REMARK INTER + INTRA:          -9.805
REMARK INTER:                  -9.012
REMARK INTRA:                  -0.793
REMARK UNBOUND:                -0.948
REMARK SMILES CCCCC[C@H](O)CC(=O)CCc1ccc(O)c(OC)c1
REMARK SMILES IDX 8 1 6 2 7 3 5 5 4 6 3 7 2 8 1 9 9 10 10 11 11 12 12 13 13 14
REMARK SMILES IDX 21 15 14 16 18 17 15 18 16 19 19 20 20 21 17 22
REMARK H PARENT 7 4 17 23
REMARK Flexibility Score: inf
ROOT
ATOM      1  C   UNL     1      94.034  96.678  77.824  1.00  0.00     0.107 C 
ENDROOT
BRANCH   1   2
ATOM      2  C   UNL     1      94.224  95.274  77.245  1.00  0.00     0.121 C 
BRANCH   2   3
ATOM      3  O   UNL     1      93.613  94.311  78.100  1.00  0.00    -0.393 OA
ATOM      4  H   UNL     1      93.739  93.434  77.698  1.00  0.00     0.210 HD
ENDBRANCH   2   3
BRANCH   2   5
ATOM      5  C   UNL     1      93.654  95.127  75.829  1.00  0.00     0.032 C 
BRANCH   5   6
ATOM      6  C   UNL     1      92.303  94.402  75.825  1.00  0.00     0.003 C 
BRANCH   6   7
ATOM      7  C   UNL     1      91.106  95.349  75.955  1.00  0.00    -0.000 C 
BRANCH   7   8
ATOM      8  C   UNL     1      89.856  94.682  76.528  1.00  0.00    -0.003 C 
ATOM      9  C   UNL     1      90.215  93.652  77.588  1.00  0.00     0.004 C 
ENDBRANCH   7   8
ENDBRANCH   6   7
ENDBRANCH   5   6
ENDBRANCH   2   5
ENDBRANCH   1   2
BRANCH   1  10
ATOM     10  C   UNL     1      95.141  97.082  78.784  1.00  0.00     0.135 C 
ATOM     11  O   UNL     1      94.997  98.032  79.553  1.00  0.00    -0.300 OA
BRANCH  10  12
ATOM     12  C   UNL     1      96.400  96.228  78.771  1.00  0.00     0.080 C 
BRANCH  12  13
ATOM     13  C   UNL     1      97.672  97.003  79.118  1.00  0.00     0.043 C 
BRANCH  13  14
ATOM     14  C   UNL     1      98.156  96.748  80.526  1.00  0.00    -0.044 A 
ATOM     15  C   UNL     1      99.185  97.522  81.061  1.00  0.00     0.054 A 
ATOM     16  C   UNL     1      97.572  95.737  81.290  1.00  0.00     0.008 A 
ATOM     17  C   UNL     1      99.630  97.285  82.362  1.00  0.00     0.160 A 
ATOM     18  C   UNL     1      98.017  95.500  82.591  1.00  0.00     0.050 A 
ATOM     19  C   UNL     1      99.046  96.274  83.126  1.00  0.00     0.157 A 
BRANCH  17  20
ATOM     20  O   UNL     1     100.636  98.047  82.875  1.00  0.00    -0.493 OA
ATOM     21  C   UNL     1     101.933  97.874  82.307  1.00  0.00     0.278 C 
ENDBRANCH  17  20
BRANCH  19  22
ATOM     22  O   UNL     1      99.472  96.033  84.398  1.00  0.00    -0.504 OA
ATOM     23  H   UNL     1      98.718  96.119  85.006  1.00  0.00     0.293 HD
ENDBRANCH  19  22
ENDBRANCH  13  14
ENDBRANCH  12  13
ENDBRANCH  10  12
ENDBRANCH   1  10
TORSDOF 12
ENDMDL
MODEL 8
REMARK VINA RESULT:    -5.369      1.891      3.282
REMARK INTER + INTRA:          -9.770
REMARK INTER:                  -9.333
REMARK INTRA:                  -0.437
REMARK UNBOUND:                -0.948
REMARK SMILES CCCCC[C@H](O)CC(=O)CCc1ccc(O)c(OC)c1
REMARK SMILES IDX 8 1 6 2 7 3 5 5 4 6 3 7 2 8 1 9 9 10 10 11 11 12 12 13 13 14
REMARK SMILES IDX 21 15 14 16 18 17 15 18 16 19 19 20 20 21 17 22
REMARK H PARENT 7 4 17 23
REMARK Flexibility Score: inf
ROOT
ATOM      1  C   UNL     1      94.934  95.981  77.594  1.00  0.00     0.107 C 
ENDROOT
BRANCH   1   2
ATOM      2  C   UNL     1      94.069  94.721  77.676  1.00  0.00     0.121 C 
BRANCH   2   3
ATOM      3  O   UNL     1      93.674  94.493  79.027  1.00  0.00    -0.393 OA
ATOM      4  H   UNL     1      93.861  95.303  79.532  1.00  0.00     0.210 HD
ENDBRANCH   2   3
BRANCH   2   5
ATOM      5  C   UNL     1      92.819  94.792  76.790  1.00  0.00     0.032 C 
BRANCH   5   6
ATOM      6  C   UNL     1      91.529  94.599  77.596  1.00  0.00     0.003 C 
BRANCH   6   7
ATOM      7  C   UNL     1      90.500  93.709  76.891  1.00  0.00    -0.000 C 
BRANCH   7   8
ATOM      8  C   UNL     1      89.971  94.302  75.586  1.00  0.00    -0.003 C 
ATOM      9  C   UNL     1      90.257  93.387  74.405  1.00  0.00     0.004 C 
ENDBRANCH   7   8
ENDBRANCH   6   7
ENDBRANCH   5   6
ENDBRANCH   2   5
ENDBRANCH   1   2
BRANCH   1  10
ATOM     10  C   UNL     1      94.283  97.099  76.796  1.00  0.00     0.135 C 
ATOM     11  O   UNL     1      93.287  97.684  77.222  1.00  0.00    -0.300 OA
BRANCH  10  12
ATOM     12  C   UNL     1      94.951  97.478  75.483  1.00  0.00     0.080 C 
BRANCH  12  13
ATOM     13  C   UNL     1      94.441  96.681  74.281  1.00  0.00     0.043 C 
BRANCH  13  14
ATOM     14  C   UNL     1      94.659  97.389  72.965  1.00  0.00    -0.044 A 
ATOM     15  C   UNL     1      93.758  98.364  72.540  1.00  0.00     0.054 A 
ATOM     16  C   UNL     1      95.764  97.067  72.175  1.00  0.00     0.008 A 
ATOM     17  C   UNL     1      93.962  99.019  71.324  1.00  0.00     0.160 A 
ATOM     18  C   UNL     1      95.967  97.721  70.960  1.00  0.00     0.050 A 
ATOM     19  C   UNL     1      95.066  98.696  70.535  1.00  0.00     0.157 A 
BRANCH  17  20
ATOM     20  O   UNL     1      93.074  99.969  70.919  1.00  0.00    -0.493 OA
ATOM     21  C   UNL     1      93.149 101.241  71.560  1.00  0.00     0.278 C 
ENDBRANCH  17  20
BRANCH  19  22
ATOM     22  O   UNL     1      95.275  99.328  69.346  1.00  0.00    -0.504 OA
ATOM     23  H   UNL     1      94.415  99.535  68.942  1.00  0.00     0.293 HD
ENDBRANCH  19  22
ENDBRANCH  13  14
ENDBRANCH  12  13
ENDBRANCH  10  12
ENDBRANCH   1  10
TORSDOF 12
ENDMDL
MODEL 9
REMARK VINA RESULT:    -5.300     13.051     15.886
REMARK INTER + INTRA:          -9.657
REMARK INTER:                  -9.052
REMARK INTRA:                  -0.605
REMARK UNBOUND:                -0.948
REMARK SMILES CCCCC[C@H](O)CC(=O)CCc1ccc(O)c(OC)c1
REMARK SMILES IDX 8 1 6 2 7 3 5 5 4 6 3 7 2 8 1 9 9 10 10 11 11 12 12 13 13 14
REMARK SMILES IDX 21 15 14 16 18 17 15 18 16 19 19 20 20 21 17 22
REMARK H PARENT 7 4 17 23
REMARK Flexibility Score: inf
ROOT
ATOM      1  C   UNL     1      95.073  83.670  85.655  1.00  0.00     0.107 C 
ENDROOT
BRANCH   1   2
ATOM      2  C   UNL     1      94.197  84.852  86.075  1.00  0.00     0.121 C 
BRANCH   2   3
ATOM      3  O   UNL     1      93.263  85.153  85.041  1.00  0.00    -0.393 OA
ATOM      4  H   UNL     1      92.544  85.678  85.433  1.00  0.00     0.210 HD
ENDBRANCH   2   3
BRANCH   2   5
ATOM      5  C   UNL     1      93.438  84.601  87.384  1.00  0.00     0.032 C 
BRANCH   5   6
ATOM      6  C   UNL     1      93.099  85.907  88.113  1.00  0.00     0.003 C 
BRANCH   6   7
ATOM      7  C   UNL     1      93.626  85.953  89.551  1.00  0.00    -0.000 C 
BRANCH   7   8
ATOM      8  C   UNL     1      93.016  87.074  90.391  1.00  0.00    -0.003 C 
ATOM      9  C   UNL     1      92.174  88.011  89.538  1.00  0.00     0.004 C 
ENDBRANCH   7   8
ENDBRANCH   6   7
ENDBRANCH   5   6
ENDBRANCH   2   5
ENDBRANCH   1   2
BRANCH   1  10
ATOM     10  C   UNL     1      94.671  83.077  84.315  1.00  0.00     0.135 C 
ATOM     11  O   UNL     1      93.650  82.397  84.204  1.00  0.00    -0.300 OA
BRANCH  10  12
ATOM     12  C   UNL     1      95.564  83.405  83.128  1.00  0.00     0.080 C 
BRANCH  12  13
ATOM     13  C   UNL     1      96.778  82.482  82.998  1.00  0.00     0.043 C 
BRANCH  13  14
ATOM     14  C   UNL     1      97.113  82.142  81.566  1.00  0.00    -0.044 A 
ATOM     15  C   UNL     1      97.159  83.150  80.602  1.00  0.00     0.054 A 
ATOM     16  C   UNL     1      97.375  80.820  81.206  1.00  0.00     0.008 A 
ATOM     17  C   UNL     1      97.469  82.834  79.279  1.00  0.00     0.160 A 
ATOM     18  C   UNL     1      97.685  80.505  79.883  1.00  0.00     0.050 A 
ATOM     19  C   UNL     1      97.732  81.512  78.919  1.00  0.00     0.157 A 
BRANCH  17  20
ATOM     20  O   UNL     1      97.511  83.827  78.346  1.00  0.00    -0.493 OA
ATOM     21  C   UNL     1      96.356  83.995  77.526  1.00  0.00     0.278 C 
ENDBRANCH  17  20
BRANCH  19  22
ATOM     22  O   UNL     1      98.036  81.192  77.631  1.00  0.00    -0.504 OA
ATOM     23  H   UNL     1      98.137  80.227  77.559  1.00  0.00     0.293 HD
ENDBRANCH  19  22
ENDBRANCH  13  14
ENDBRANCH  12  13
ENDBRANCH  10  12
ENDBRANCH   1  10
TORSDOF 12
ENDMDL
MODEL 10
REMARK VINA RESULT:    -5.180      2.847      7.692
REMARK INTER + INTRA:          -9.459
REMARK INTER:                  -8.553
REMARK INTRA:                  -0.906
REMARK UNBOUND:                -0.948
REMARK SMILES CCCCC[C@H](O)CC(=O)CCc1ccc(O)c(OC)c1
REMARK SMILES IDX 8 1 6 2 7 3 5 5 4 6 3 7 2 8 1 9 9 10 10 11 11 12 12 13 13 14
REMARK SMILES IDX 21 15 14 16 18 17 15 18 16 19 19 20 20 21 17 22
REMARK H PARENT 7 4 17 23
REMARK Flexibility Score: inf
ROOT
ATOM      1  C   UNL     1      94.054 100.151  73.576  1.00  0.00     0.107 C 
ENDROOT
BRANCH   1   2
ATOM      2  C   UNL     1      93.548 100.624  72.210  1.00  0.00     0.121 C 
BRANCH   2   3
ATOM      3  O   UNL     1      94.647 100.782  71.316  1.00  0.00    -0.393 OA
ATOM      4  H   UNL     1      94.329 100.587  70.417  1.00  0.00     0.210 HD
ENDBRANCH   2   3
BRANCH   2   5
ATOM      5  C   UNL     1      92.523  99.669  71.587  1.00  0.00     0.032 C 
BRANCH   5   6
ATOM      6  C   UNL     1      91.193 100.369  71.283  1.00  0.00     0.003 C 
BRANCH   6   7
ATOM      7  C   UNL     1      91.127 101.804  71.815  1.00  0.00    -0.000 C 
BRANCH   7   8
ATOM      8  C   UNL     1      89.747 102.202  72.336  1.00  0.00    -0.003 C 
ATOM      9  C   UNL     1      89.624 101.947  73.830  1.00  0.00     0.004 C 
ENDBRANCH   7   8
ENDBRANCH   6   7
ENDBRANCH   5   6
ENDBRANCH   2   5
ENDBRANCH   1   2
BRANCH   1  10
ATOM     10  C   UNL     1      94.756  98.804  73.517  1.00  0.00     0.135 C 
ATOM     11  O   UNL     1      95.519  98.528  72.592  1.00  0.00    -0.300 OA
BRANCH  10  12
ATOM     12  C   UNL     1      94.500  97.851  74.675  1.00  0.00     0.080 C 
BRANCH  12  13
ATOM     13  C   UNL     1      94.097  96.443  74.234  1.00  0.00     0.043 C 
BRANCH  13  14
ATOM     14  C   UNL     1      93.280  95.709  75.271  1.00  0.00    -0.044 A 
ATOM     15  C   UNL     1      93.717  95.659  76.595  1.00  0.00     0.054 A 
ATOM     16  C   UNL     1      92.090  95.081  74.904  1.00  0.00     0.008 A 
ATOM     17  C   UNL     1      92.961  94.982  77.553  1.00  0.00     0.160 A 
ATOM     18  C   UNL     1      91.334  94.404  75.862  1.00  0.00     0.050 A 
ATOM     19  C   UNL     1      91.770  94.354  77.186  1.00  0.00     0.157 A 
BRANCH  17  20
ATOM     20  O   UNL     1      93.397  94.939  78.843  1.00  0.00    -0.493 OA
ATOM     21  C   UNL     1      94.798  94.766  79.048  1.00  0.00     0.278 C 
ENDBRANCH  17  20
BRANCH  19  22
ATOM     22  O   UNL     1      91.024  93.690  78.112  1.00  0.00    -0.504 OA
ATOM     23  H   UNL     1      90.981  94.222  78.925  1.00  0.00     0.293 HD
ENDBRANCH  19  22
ENDBRANCH  13  14
ENDBRANCH  12  13
ENDBRANCH  10  12
ENDBRANCH   1  10
TORSDOF 12
ENDMDL
