MODEL 1
REMARK VINA RESULT:    -6.978      0.000      0.000
REMARK INTER + INTRA:         -12.764
REMARK INTER:                 -11.874
REMARK INTRA:                  -0.890
REMARK UNBOUND:                -0.890
REMARK SMILES C=C(C)[C@]12C[C@@H](C)[C@@]34O[C@](Cc5ccccc5)(O[C@@H]1[C@@H]3C=C(COC(=O)Cc1ccc(O)cc1)C[C@]1(O)C(=O)C(C)=C[C@@H]41)O2
REMARK SMILES IDX 23 1 22 2 21 3 20 4 9 5 8 6 10 7 6 8 18 10 44 11 19 12 5 13
REMARK SMILES IDX 7 14 4 15 11 16 12 17 13 18 17 19 14 20 16 21 15 22 2 23
REMARK SMILES IDX 3 24 1 25 35 26 36 27 43 28 38 29 42 30 39 32 40 33 41 34
REMARK SMILES IDX 37 35 24 37 25 38 26 39 27 40 28 41 29 42 34 43 30 44 33 45
REMARK SMILES IDX 31 46 32 47
REMARK H PARENT 37 36 32 48
REMARK Flexibility Score: 90.00
ROOT
ATOM      1  C   UNL     1      92.231  85.355  88.533  1.00  0.00     0.264 C 
ENDROOT
BRANCH   1   2
ATOM      2  C   UNL     1      92.546  84.274  87.523  1.00  0.00    -0.033 C 
ATOM      3  C   UNL     1      93.785  84.206  86.995  1.00  0.00    -0.015 C 
BRANCH   3   4
ATOM      4  C   UNL     1      94.327  83.276  85.921  1.00  0.00     0.078 C 
ATOM      5  O   UNL     1      95.360  81.355  87.086  1.00  0.00    -0.319 OA
ATOM      6  C   UNL     1      94.276  81.725  86.179  1.00  0.00     0.095 CG0
ATOM      7  C   UNL     1      96.628  81.984  86.819  1.00  0.00     0.289 C 
ATOM      8  C   UNL     1      94.488  81.001  84.786  1.00  0.00     0.023 C 
ATOM      9  G   UNL     1      92.979  81.334  86.945  1.00  0.00     0.000 G0
ATOM     10  O   UNL     1      96.518  83.404  86.848  1.00  0.00    -0.320 OA
ATOM     11  O   UNL     1      97.131  81.663  85.524  1.00  0.00    -0.313 OA
ATOM     12  C   UNL     1      95.805  83.626  85.620  1.00  0.00     0.170 C 
ATOM     13  C   UNL     1      95.439  81.815  83.857  1.00  0.00     0.049 C 
ATOM     14  C   UNL     1      94.977  79.544  84.866  1.00  0.00     0.011 C 
ATOM     15  C   UNL     1      96.470  82.610  84.659  1.00  0.00     0.122 C 
BRANCH   7  16
ATOM     16  C   UNL     1      97.617  81.525  87.872  1.00  0.00     0.135 C 
BRANCH  16  17
ATOM     17  C   UNL     1      99.016  81.403  87.320  1.00  0.00    -0.040 A 
ATOM     18  C   UNL     1      99.393  80.256  86.622  1.00  0.00     0.004 A 
ATOM     19  C   UNL     1      99.932  82.437  87.509  1.00  0.00     0.004 A 
ATOM     20  C   UNL     1     100.686  80.144  86.111  1.00  0.00     0.000 A 
ATOM     21  C   UNL     1     101.225  82.325  86.998  1.00  0.00     0.000 A 
ATOM     22  C   UNL     1     101.602  81.178  86.300  1.00  0.00     0.000 A 
ENDBRANCH  16  17
ENDBRANCH   7  16
BRANCH  15  23
ATOM     23  C   UNL     1      97.503  83.252  83.790  1.00  0.00    -0.046 C 
ATOM     24  C   UNL     1      98.732  82.439  83.512  1.00  0.00     0.042 C 
ATOM     25  C   UNL     1      97.340  84.485  83.288  1.00  0.00     0.010 C 
ENDBRANCH  15  23
ENDBRANCH   3   4
BRANCH   2  26
ATOM     26  C   UNL     1      91.365  83.366  87.236  1.00  0.00     0.078 C 
BRANCH  26  27
ATOM     27  C   UNL     1      91.647  82.076  86.468  1.00  0.00     0.140 C 
ATOM     28  C   UNL     1      92.936  81.379  86.952  1.00  0.00     0.086 CG0
ATOM     29  C   UNL     1      90.594  81.016  86.709  1.00  0.00     0.190 C 
ATOM     30  C   UNL     1      92.526  79.939  87.085  1.00  0.00    -0.010 C 
ATOM     31  G   UNL     1      94.239  81.734  86.179  1.00  0.00     0.000 G0
ATOM     32  O   UNL     1      89.386  81.189  86.641  1.00  0.00    -0.291 OA
ATOM     33  C   UNL     1      91.214  79.705  86.981  1.00  0.00    -0.008 C 
ATOM     34  C   UNL     1      90.457  78.446  87.138  1.00  0.00     0.048 C 
BRANCH  27  35
ATOM     35  O   UNL     1      91.602  82.286  85.067  1.00  0.00    -0.381 OA
ATOM     36  H   UNL     1      90.684  82.485  84.816  1.00  0.00     0.212 HD
ENDBRANCH  27  35
ENDBRANCH  26  27
ENDBRANCH   2  26
ENDBRANCH   1   2
BRANCH   1  37
ATOM     37  O   UNL     1      93.287  85.442  89.466  1.00  0.00    -0.461 OA
BRANCH  37  38
ATOM     38  C   UNL     1      93.651  86.711  89.854  1.00  0.00     0.310 C 
ATOM     39  O   UNL     1      93.726  87.096  91.013  1.00  0.00    -0.252 OA
BRANCH  38  40
ATOM     40  C   UNL     1      93.941  87.548  88.632  1.00  0.00     0.158 C 
BRANCH  40  41
ATOM     41  C   UNL     1      93.887  89.028  88.907  1.00  0.00    -0.037 A 
ATOM     42  C   UNL     1      95.068  89.746  89.096  1.00  0.00     0.008 A 
ATOM     43  C   UNL     1      92.657  89.682  88.974  1.00  0.00     0.008 A 
ATOM     44  C   UNL     1      95.018  91.117  89.352  1.00  0.00     0.046 A 
ATOM     45  C   UNL     1      92.606  91.052  89.229  1.00  0.00     0.046 A 
ATOM     46  C   UNL     1      93.787  91.770  89.419  1.00  0.00     0.115 A 
BRANCH  46  47
ATOM     47  O   UNL     1      93.738  93.107  89.668  1.00  0.00    -0.508 OA
ATOM     48  H   UNL     1      92.832  93.347  89.927  1.00  0.00     0.293 HD
ENDBRANCH  46  47
ENDBRANCH  40  41
ENDBRANCH  38  40
ENDBRANCH  37  38
ENDBRANCH   1  37
TORSDOF 10
ENDMDL
MODEL 2
REMARK VINA RESULT:    -6.775     26.369     28.644
REMARK INTER + INTRA:         -12.417
REMARK INTER:                 -11.012
REMARK INTRA:                  -1.405
REMARK UNBOUND:                -0.890
REMARK SMILES C=C(C)[C@]12C[C@@H](C)[C@@]34O[C@](Cc5ccccc5)(O[C@@H]1[C@@H]3C=C(COC(=O)Cc1ccc(O)cc1)C[C@]1(O)C(=O)C(C)=C[C@@H]41)O2
REMARK SMILES IDX 23 1 22 2 21 3 20 4 9 5 8 6 10 7 6 8 18 10 44 11 19 12 5 13
REMARK SMILES IDX 7 14 4 15 11 16 12 17 13 18 17 19 14 20 16 21 15 22 2 23
REMARK SMILES IDX 3 24 1 25 35 26 36 27 43 28 38 29 42 30 39 32 40 33 41 34
REMARK SMILES IDX 37 35 24 37 25 38 26 39 27 40 28 41 29 42 34 43 30 44 33 45
REMARK SMILES IDX 31 46 32 47
REMARK H PARENT 37 36 32 48
REMARK Flexibility Score: 90.00
ROOT
ATOM      1  C   UNL     1      76.101  94.135  64.872  1.00  0.00     0.264 C 
ENDROOT
BRANCH   1   2
ATOM      2  C   UNL     1      75.311  93.165  65.720  1.00  0.00    -0.033 C 
ATOM      3  C   UNL     1      75.293  91.858  65.384  1.00  0.00    -0.015 C 
BRANCH   3   4
ATOM      4  C   UNL     1      74.526  90.709  66.017  1.00  0.00     0.078 C 
ATOM      5  O   UNL     1      76.012  89.703  67.719  1.00  0.00    -0.319 OA
ATOM      6  C   UNL     1      74.747  90.415  67.547  1.00  0.00     0.095 CG0
ATOM      7  C   UNL     1      76.269  88.662  66.757  1.00  0.00     0.289 C 
ATOM      8  C   UNL     1      73.556  89.491  68.035  1.00  0.00     0.023 C 
ATOM      9  G   UNL     1      74.936  91.739  68.343  1.00  0.00     0.000 G0
ATOM     10  O   UNL     1      76.247  89.171  65.426  1.00  0.00    -0.320 OA
ATOM     11  O   UNL     1      75.281  87.635  66.793  1.00  0.00    -0.313 OA
ATOM     12  C   UNL     1      74.836  89.391  65.265  1.00  0.00     0.170 C 
ATOM     13  C   UNL     1      73.079  88.528  66.904  1.00  0.00     0.049 C 
ATOM     14  C   UNL     1      73.828  88.680  69.313  1.00  0.00     0.011 C 
ATOM     15  C   UNL     1      74.222  88.152  65.961  1.00  0.00     0.122 C 
BRANCH   7  16
ATOM     16  C   UNL     1      77.630  88.065  67.055  1.00  0.00     0.135 C 
BRANCH  16  17
ATOM     17  C   UNL     1      77.670  86.582  66.779  1.00  0.00    -0.040 A 
ATOM     18  C   UNL     1      78.211  86.110  65.584  1.00  0.00     0.004 A 
ATOM     19  C   UNL     1      77.166  85.685  67.720  1.00  0.00     0.004 A 
ATOM     20  C   UNL     1      78.249  84.738  65.329  1.00  0.00     0.000 A 
ATOM     21  C   UNL     1      77.204  84.313  67.465  1.00  0.00     0.000 A 
ATOM     22  C   UNL     1      77.745  83.841  66.270  1.00  0.00     0.000 A 
ENDBRANCH  16  17
ENDBRANCH   7  16
BRANCH  15  23
ATOM     23  C   UNL     1      73.833  87.093  64.982  1.00  0.00    -0.046 C 
ATOM     24  C   UNL     1      72.576  87.342  64.202  1.00  0.00     0.042 C 
ATOM     25  C   UNL     1      74.565  85.983  64.809  1.00  0.00     0.010 C 
ENDBRANCH  15  23
ENDBRANCH   3   4
BRANCH   2  26
ATOM     26  C   UNL     1      74.619  93.828  66.896  1.00  0.00     0.078 C 
BRANCH  26  27
ATOM     27  C   UNL     1      74.008  92.911  67.954  1.00  0.00     0.140 C 
ATOM     28  C   UNL     1      74.947  91.745  68.328  1.00  0.00     0.086 CG0
ATOM     29  C   UNL     1      73.811  93.610  69.283  1.00  0.00     0.190 C 
ATOM     30  C   UNL     1      74.896  91.724  69.831  1.00  0.00    -0.010 C 
ATOM     31  G   UNL     1      74.742  90.420  67.538  1.00  0.00     0.000 G0
ATOM     32  O   UNL     1      73.283  94.700  69.438  1.00  0.00    -0.291 OA
ATOM     33  C   UNL     1      74.290  92.771  70.398  1.00  0.00    -0.008 C 
ATOM     34  C   UNL     1      74.129  93.119  71.825  1.00  0.00     0.048 C 
BRANCH  27  35
ATOM     35  O   UNL     1      72.700  92.500  67.591  1.00  0.00    -0.381 OA
ATOM     36  H   UNL     1      72.504  92.849  66.705  1.00  0.00     0.212 HD
ENDBRANCH  27  35
ENDBRANCH  26  27
ENDBRANCH   2  26
ENDBRANCH   1   2
BRANCH   1  37
ATOM     37  O   UNL     1      77.410  94.245  65.387  1.00  0.00    -0.461 OA
BRANCH  37  38
ATOM     38  C   UNL     1      77.823  95.512  65.732  1.00  0.00     0.310 C 
ATOM     39  O   UNL     1      77.259  96.547  65.407  1.00  0.00    -0.252 OA
BRANCH  38  40
ATOM     40  C   UNL     1      79.075  95.422  66.572  1.00  0.00     0.158 C 
BRANCH  40  41
ATOM     41  C   UNL     1      78.795  95.475  68.052  1.00  0.00    -0.037 A 
ATOM     42  C   UNL     1      77.568  95.031  68.546  1.00  0.00     0.008 A 
ATOM     43  C   UNL     1      79.761  95.967  68.928  1.00  0.00     0.008 A 
ATOM     44  C   UNL     1      77.308  95.081  69.916  1.00  0.00     0.046 A 
ATOM     45  C   UNL     1      79.503  96.016  70.298  1.00  0.00     0.046 A 
ATOM     46  C   UNL     1      78.276  95.573  70.792  1.00  0.00     0.115 A 
BRANCH  46  47
ATOM     47  O   UNL     1      78.023  95.622  72.128  1.00  0.00    -0.508 OA
ATOM     48  H   UNL     1      78.730  96.128  72.565  1.00  0.00     0.293 HD
ENDBRANCH  46  47
ENDBRANCH  40  41
ENDBRANCH  38  40
ENDBRANCH  37  38
ENDBRANCH   1  37
TORSDOF 10
ENDMDL
MODEL 3
REMARK VINA RESULT:    -6.753     17.362     22.777
REMARK INTER + INTRA:         -12.380
REMARK INTER:                 -10.687
REMARK INTRA:                  -1.693
REMARK UNBOUND:                -0.890
REMARK SMILES C=C(C)[C@]12C[C@@H](C)[C@@]34O[C@](Cc5ccccc5)(O[C@@H]1[C@@H]3C=C(COC(=O)Cc1ccc(O)cc1)C[C@]1(O)C(=O)C(C)=C[C@@H]41)O2
REMARK SMILES IDX 23 1 22 2 21 3 20 4 9 5 8 6 10 7 6 8 18 10 44 11 19 12 5 13
REMARK SMILES IDX 7 14 4 15 11 16 12 17 13 18 17 19 14 20 16 21 15 22 2 23
REMARK SMILES IDX 3 24 1 25 35 26 36 27 43 28 38 29 42 30 39 32 40 33 41 34
REMARK SMILES IDX 37 35 24 37 25 38 26 39 27 40 28 41 29 42 34 43 30 44 33 45
REMARK SMILES IDX 31 46 32 47
REMARK H PARENT 37 36 32 48
REMARK Flexibility Score: 90.00
ROOT
ATOM      1  C   UNL     1      87.805  63.356  79.349  1.00  0.00     0.264 C 
ENDROOT
BRANCH   1   2
ATOM      2  C   UNL     1      87.715  64.561  78.440  1.00  0.00    -0.033 C 
ATOM      3  C   UNL     1      86.957  64.491  77.327  1.00  0.00    -0.015 C 
BRANCH   3   4
ATOM      4  C   UNL     1      86.763  65.522  76.225  1.00  0.00     0.078 C 
ATOM      5  O   UNL     1      84.763  66.848  76.823  1.00  0.00    -0.319 OA
ATOM      6  C   UNL     1      86.207  66.940  76.617  1.00  0.00     0.095 CG0
ATOM      7  C   UNL     1      84.053  66.055  75.853  1.00  0.00     0.289 C 
ATOM      8  C   UNL     1      86.502  67.921  75.408  1.00  0.00     0.023 C 
ATOM      9  G   UNL     1      86.768  67.393  77.996  1.00  0.00     0.000 G0
ATOM     10  O   UNL     1      84.559  64.724  75.801  1.00  0.00    -0.320 OA
ATOM     11  O   UNL     1      84.185  66.570  74.530  1.00  0.00    -0.313 OA
ATOM     12  C   UNL     1      85.813  64.959  75.140  1.00  0.00     0.170 C 
ATOM     13  C   UNL     1      86.432  67.178  74.038  1.00  0.00     0.049 C 
ATOM     14  C   UNL     1      85.622  69.181  75.349  1.00  0.00     0.011 C 
ATOM     15  C   UNL     1      85.437  66.017  74.074  1.00  0.00     0.122 C 
BRANCH   7  16
ATOM     16  C   UNL     1      82.587  66.031  76.241  1.00  0.00     0.135 C 
BRANCH  16  17
ATOM     17  C   UNL     1      81.688  65.845  75.045  1.00  0.00    -0.040 A 
ATOM     18  C   UNL     1      81.169  64.584  74.752  1.00  0.00     0.004 A 
ATOM     19  C   UNL     1      81.375  66.934  74.232  1.00  0.00     0.004 A 
ATOM     20  C   UNL     1      80.336  64.411  73.646  1.00  0.00     0.000 A 
ATOM     21  C   UNL     1      80.542  66.762  73.126  1.00  0.00     0.000 A 
ATOM     22  C   UNL     1      80.023  65.501  72.833  1.00  0.00     0.000 A 
ENDBRANCH  16  17
ENDBRANCH   7  16
BRANCH  15  23
ATOM     23  C   UNL     1      85.219  65.406  72.728  1.00  0.00    -0.046 C 
ATOM     24  C   UNL     1      86.177  64.323  72.331  1.00  0.00     0.042 C 
ATOM     25  C   UNL     1      84.224  65.804  71.922  1.00  0.00     0.010 C 
ENDBRANCH  15  23
ENDBRANCH   3   4
BRANCH   2  26
ATOM     26  C   UNL     1      88.525  65.743  78.937  1.00  0.00     0.078 C 
BRANCH  26  27
ATOM     27  C   UNL     1      88.287  67.089  78.255  1.00  0.00     0.140 C 
ATOM     28  C   UNL     1      86.788  67.363  78.013  1.00  0.00     0.086 CG0
ATOM     29  C   UNL     1      88.695  68.260  79.124  1.00  0.00     0.190 C 
ATOM     30  C   UNL     1      86.613  68.784  78.473  1.00  0.00    -0.010 C 
ATOM     31  G   UNL     1      86.228  66.935  76.626  1.00  0.00     0.000 G0
ATOM     32  O   UNL     1      89.760  68.366  79.714  1.00  0.00    -0.291 OA
ATOM     33  C   UNL     1      87.656  69.307  79.125  1.00  0.00    -0.008 C 
ATOM     34  C   UNL     1      87.807  70.623  79.778  1.00  0.00     0.048 C 
BRANCH  27  35
ATOM     35  O   UNL     1      89.089  67.232  77.095  1.00  0.00    -0.381 OA
ATOM     36  H   UNL     1      88.655  67.864  76.498  1.00  0.00     0.212 HD
ENDBRANCH  27  35
ENDBRANCH  26  27
ENDBRANCH   2  26
ENDBRANCH   1   2
BRANCH   1  37
ATOM     37  O   UNL     1      86.629  63.268  80.124  1.00  0.00    -0.461 OA
BRANCH  37  38
ATOM     38  C   UNL     1      86.746  63.624  81.448  1.00  0.00     0.310 C 
ATOM     39  O   UNL     1      87.610  63.216  82.211  1.00  0.00    -0.252 OA
BRANCH  38  40
ATOM     40  C   UNL     1      85.645  64.593  81.809  1.00  0.00     0.158 C 
BRANCH  40  41
ATOM     41  C   UNL     1      86.147  65.798  82.562  1.00  0.00    -0.037 A 
ATOM     42  C   UNL     1      85.790  65.983  83.898  1.00  0.00     0.008 A 
ATOM     43  C   UNL     1      86.967  66.728  81.925  1.00  0.00     0.008 A 
ATOM     44  C   UNL     1      86.253  67.099  84.596  1.00  0.00     0.046 A 
ATOM     45  C   UNL     1      87.431  67.844  82.622  1.00  0.00     0.046 A 
ATOM     46  C   UNL     1      87.074  68.029  83.957  1.00  0.00     0.115 A 
BRANCH  46  47
ATOM     47  O   UNL     1      87.525  69.118  84.638  1.00  0.00    -0.508 OA
ATOM     48  H   UNL     1      88.347  69.431  84.222  1.00  0.00     0.293 HD
ENDBRANCH  46  47
ENDBRANCH  40  41
ENDBRANCH  38  40
ENDBRANCH  37  38
ENDBRANCH   1  37
TORSDOF 10
ENDMDL
MODEL 4
REMARK VINA RESULT:    -6.672     32.080     36.363
REMARK INTER + INTRA:         -12.242
REMARK INTER:                 -10.376
REMARK INTRA:                  -1.866
REMARK UNBOUND:                -0.890
REMARK SMILES C=C(C)[C@]12C[C@@H](C)[C@@]34O[C@](Cc5ccccc5)(O[C@@H]1[C@@H]3C=C(COC(=O)Cc1ccc(O)cc1)C[C@]1(O)C(=O)C(C)=C[C@@H]41)O2
REMARK SMILES IDX 23 1 22 2 21 3 20 4 9 5 8 6 10 7 6 8 18 10 44 11 19 12 5 13
REMARK SMILES IDX 7 14 4 15 11 16 12 17 13 18 17 19 14 20 16 21 15 22 2 23
REMARK SMILES IDX 3 24 1 25 35 26 36 27 43 28 38 29 42 30 39 32 40 33 41 34
REMARK SMILES IDX 37 35 24 37 25 38 26 39 27 40 28 41 29 42 34 43 30 44 33 45
REMARK SMILES IDX 31 46 32 47
REMARK H PARENT 37 36 32 48
REMARK Flexibility Score: 90.00
ROOT
ATOM      1  C   UNL     1      65.196  87.656  68.519  1.00  0.00     0.264 C 
ENDROOT
BRANCH   1   2
ATOM      2  C   UNL     1      64.551  87.616  69.884  1.00  0.00    -0.033 C 
ATOM      3  C   UNL     1      63.253  87.264  69.990  1.00  0.00    -0.015 C 
BRANCH   3   4
ATOM      4  C   UNL     1      62.362  87.219  71.221  1.00  0.00     0.078 C 
ATOM      5  O   UNL     1      62.489  84.919  72.120  1.00  0.00    -0.319 OA
ATOM      6  C   UNL     1      62.800  86.313  72.430  1.00  0.00     0.095 CG0
ATOM      7  C   UNL     1      61.208  84.697  71.501  1.00  0.00     0.289 C 
ATOM      8  C   UNL     1      61.964  86.767  73.697  1.00  0.00     0.023 C 
ATOM      9  G   UNL     1      64.346  86.336  72.606  1.00  0.00     0.000 G0
ATOM     10  O   UNL     1      61.083  85.438  70.290  1.00  0.00    -0.320 OA
ATOM     11  O   UNL     1      60.126  85.122  72.326  1.00  0.00    -0.313 OA
ATOM     12  C   UNL     1      60.936  86.764  70.822  1.00  0.00     0.170 C 
ATOM     13  C   UNL     1      60.538  87.255  73.297  1.00  0.00     0.049 C 
ATOM     14  C   UNL     1      61.849  85.724  74.821  1.00  0.00     0.011 C 
ATOM     15  C   UNL     1      60.022  86.534  72.050  1.00  0.00     0.122 C 
BRANCH   7  16
ATOM     16  C   UNL     1      61.071  83.215  71.212  1.00  0.00     0.135 C 
BRANCH  16  17
ATOM     17  C   UNL     1      61.999  82.384  72.062  1.00  0.00    -0.040 A 
ATOM     18  C   UNL     1      63.050  81.685  71.469  1.00  0.00     0.004 A 
ATOM     19  C   UNL     1      61.805  82.315  73.441  1.00  0.00     0.004 A 
ATOM     20  C   UNL     1      63.909  80.917  72.256  1.00  0.00     0.000 A 
ATOM     21  C   UNL     1      62.664  81.547  74.228  1.00  0.00     0.000 A 
ATOM     22  C   UNL     1      63.715  80.848  73.635  1.00  0.00     0.000 A 
ENDBRANCH  16  17
ENDBRANCH   7  16
BRANCH  15  23
ATOM     23  C   UNL     1      58.592  86.851  71.754  1.00  0.00    -0.046 C 
ATOM     24  C   UNL     1      57.792  85.759  71.108  1.00  0.00     0.042 C 
ATOM     25  C   UNL     1      58.055  88.044  72.049  1.00  0.00     0.010 C 
ENDBRANCH  15  23
ENDBRANCH   3   4
BRANCH   2  26
ATOM     26  C   UNL     1      65.504  87.988  71.005  1.00  0.00     0.078 C 
BRANCH  26  27
ATOM     27  C   UNL     1      65.036  87.725  72.435  1.00  0.00     0.140 C 
ATOM     28  C   UNL     1      64.360  86.346  72.583  1.00  0.00     0.086 CG0
ATOM     29  C   UNL     1      66.188  87.629  73.413  1.00  0.00     0.190 C 
ATOM     30  C   UNL     1      64.983  85.783  73.830  1.00  0.00    -0.010 C 
ATOM     31  G   UNL     1      62.812  86.321  72.425  1.00  0.00     0.000 G0
ATOM     32  O   UNL     1      67.109  88.427  73.502  1.00  0.00    -0.291 OA
ATOM     33  C   UNL     1      66.030  86.465  74.305  1.00  0.00    -0.008 C 
ATOM     34  C   UNL     1      66.923  86.166  75.444  1.00  0.00     0.048 C 
BRANCH  27  35
ATOM     35  O   UNL     1      64.258  88.801  72.933  1.00  0.00    -0.381 OA
ATOM     36  H   UNL     1      64.528  89.613  72.471  1.00  0.00     0.212 HD
ENDBRANCH  27  35
ENDBRANCH  26  27
ENDBRANCH   2  26
ENDBRANCH   1   2
BRANCH   1  37
ATOM     37  O   UNL     1      66.117  86.592  68.406  1.00  0.00    -0.461 OA
BRANCH  37  38
ATOM     38  C   UNL     1      66.072  85.871  67.235  1.00  0.00     0.310 C 
ATOM     39  O   UNL     1      66.184  86.345  66.113  1.00  0.00    -0.252 OA
BRANCH  38  40
ATOM     40  C   UNL     1      65.863  84.409  67.552  1.00  0.00     0.158 C 
BRANCH  40  41
ATOM     41  C   UNL     1      64.416  83.995  67.487  1.00  0.00    -0.037 A 
ATOM     42  C   UNL     1      64.037  82.717  67.897  1.00  0.00     0.008 A 
ATOM     43  C   UNL     1      63.454  84.888  67.015  1.00  0.00     0.008 A 
ATOM     44  C   UNL     1      62.697  82.332  67.836  1.00  0.00     0.046 A 
ATOM     45  C   UNL     1      62.114  84.505  66.955  1.00  0.00     0.046 A 
ATOM     46  C   UNL     1      61.736  83.227  67.365  1.00  0.00     0.115 A 
BRANCH  46  47
ATOM     47  O   UNL     1      60.429  82.851  67.305  1.00  0.00    -0.508 OA
ATOM     48  H   UNL     1      59.871  83.648  67.330  1.00  0.00     0.293 HD
ENDBRANCH  46  47
ENDBRANCH  40  41
ENDBRANCH  38  40
ENDBRANCH  37  38
ENDBRANCH   1  37
TORSDOF 10
ENDMDL
MODEL 5
REMARK VINA RESULT:    -6.623      3.350      8.903
REMARK INTER + INTRA:         -12.160
REMARK INTER:                 -11.998
REMARK INTRA:                  -0.161
REMARK UNBOUND:                -0.890
REMARK SMILES C=C(C)[C@]12C[C@@H](C)[C@@]34O[C@](Cc5ccccc5)(O[C@@H]1[C@@H]3C=C(COC(=O)Cc1ccc(O)cc1)C[C@]1(O)C(=O)C(C)=C[C@@H]41)O2
REMARK SMILES IDX 23 1 22 2 21 3 20 4 9 5 8 6 10 7 6 8 18 10 44 11 19 12 5 13
REMARK SMILES IDX 7 14 4 15 11 16 12 17 13 18 17 19 14 20 16 21 15 22 2 23
REMARK SMILES IDX 3 24 1 25 35 26 36 27 43 28 38 29 42 30 39 32 40 33 41 34
REMARK SMILES IDX 37 35 24 37 25 38 26 39 27 40 28 41 29 42 34 43 30 44 33 45
REMARK SMILES IDX 31 46 32 47
REMARK H PARENT 37 36 32 48
REMARK Flexibility Score: 90.00
ROOT
ATOM      1  C   UNL     1      96.569  81.386  84.114  1.00  0.00     0.264 C 
ENDROOT
BRANCH   1   2
ATOM      2  C   UNL     1      95.296  81.868  84.769  1.00  0.00    -0.033 C 
ATOM      3  C   UNL     1      94.188  81.101  84.701  1.00  0.00    -0.015 C 
BRANCH   3   4
ATOM      4  C   UNL     1      92.782  81.390  85.204  1.00  0.00     0.078 C 
ATOM      5  O   UNL     1      92.631  80.461  87.491  1.00  0.00    -0.319 OA
ATOM      6  C   UNL     1      92.585  81.709  86.731  1.00  0.00     0.095 CG0
ATOM      7  C   UNL     1      91.917  79.356  86.903  1.00  0.00     0.289 C 
ATOM      8  C   UNL     1      91.156  82.373  86.901  1.00  0.00     0.023 C 
ATOM      9  G   UNL     1      93.779  82.542  87.281  1.00  0.00     0.000 G0
ATOM     10  O   UNL     1      92.393  79.072  85.591  1.00  0.00    -0.320 OA
ATOM     11  O   UNL     1      90.525  79.626  86.757  1.00  0.00    -0.313 OA
ATOM     12  C   UNL     1      91.852  80.195  84.878  1.00  0.00     0.170 C 
ATOM     13  C   UNL     1      90.133  81.800  85.874  1.00  0.00     0.049 C 
ATOM     14  C   UNL     1      90.555  82.296  88.316  1.00  0.00     0.011 C 
ATOM     15  C   UNL     1      90.447  80.348  85.511  1.00  0.00     0.122 C 
BRANCH   7  16
ATOM     16  C   UNL     1      92.106  78.143  87.791  1.00  0.00     0.135 C 
BRANCH  16  17
ATOM     17  C   UNL     1      91.497  76.900  87.190  1.00  0.00    -0.040 A 
ATOM     18  C   UNL     1      90.509  76.202  87.883  1.00  0.00     0.004 A 
ATOM     19  C   UNL     1      91.923  76.451  85.941  1.00  0.00     0.004 A 
ATOM     20  C   UNL     1      89.946  75.053  87.327  1.00  0.00     0.000 A 
ATOM     21  C   UNL     1      91.360  75.302  85.384  1.00  0.00     0.000 A 
ATOM     22  C   UNL     1      90.372  74.604  86.077  1.00  0.00     0.000 A 
ENDBRANCH  16  17
ENDBRANCH   7  16
BRANCH  15  23
ATOM     23  C   UNL     1      89.382  79.723  84.671  1.00  0.00    -0.046 C 
ATOM     24  C   UNL     1      88.094  80.485  84.560  1.00  0.00     0.042 C 
ATOM     25  C   UNL     1      89.565  78.547  84.052  1.00  0.00     0.010 C 
ENDBRANCH  15  23
ENDBRANCH   3   4
BRANCH   2  26
ATOM     26  C   UNL     1      95.451  83.213  85.454  1.00  0.00     0.078 C 
BRANCH  26  27
ATOM     27  C   UNL     1      94.310  83.670  86.360  1.00  0.00     0.140 C 
ATOM     28  C   UNL     1      93.792  82.534  87.266  1.00  0.00     0.086 CG0
ATOM     29  C   UNL     1      94.750  84.712  87.366  1.00  0.00     0.190 C 
ATOM     30  C   UNL     1      93.689  83.183  88.618  1.00  0.00    -0.010 C 
ATOM     31  G   UNL     1      92.587  81.715  86.718  1.00  0.00     0.000 G0
ATOM     32  O   UNL     1      95.398  85.716  87.109  1.00  0.00    -0.291 OA
ATOM     33  C   UNL     1      94.243  84.395  88.714  1.00  0.00    -0.008 C 
ATOM     34  C   UNL     1      94.399  85.279  89.888  1.00  0.00     0.048 C 
BRANCH  27  35
ATOM     35  O   UNL     1      93.291  84.323  85.621  1.00  0.00    -0.381 OA
ATOM     36  H   UNL     1      93.099  83.793  84.829  1.00  0.00     0.212 HD
ENDBRANCH  27  35
ENDBRANCH  26  27
ENDBRANCH   2  26
ENDBRANCH   1   2
BRANCH   1  37
ATOM     37  O   UNL     1      96.343  80.120  83.530  1.00  0.00    -0.461 OA
BRANCH  37  38
ATOM     38  C   UNL     1      97.119  79.807  82.438  1.00  0.00     0.310 C 
ATOM     39  O   UNL     1      97.254  78.685  81.971  1.00  0.00    -0.252 OA
BRANCH  38  40
ATOM     40  C   UNL     1      97.774  81.061  81.910  1.00  0.00     0.158 C 
BRANCH  40  41
ATOM     41  C   UNL     1      97.486  81.305  80.451  1.00  0.00    -0.037 A 
ATOM     42  C   UNL     1      96.683  82.380  80.069  1.00  0.00     0.008 A 
ATOM     43  C   UNL     1      98.020  80.455  79.483  1.00  0.00     0.008 A 
ATOM     44  C   UNL     1      96.415  82.606  78.719  1.00  0.00     0.046 A 
ATOM     45  C   UNL     1      97.752  80.681  78.132  1.00  0.00     0.046 A 
ATOM     46  C   UNL     1      96.950  81.755  77.750  1.00  0.00     0.115 A 
BRANCH  46  47
ATOM     47  O   UNL     1      96.688  81.975  76.433  1.00  0.00    -0.508 OA
ATOM     48  H   UNL     1      95.788  81.664  76.234  1.00  0.00     0.293 HD
ENDBRANCH  46  47
ENDBRANCH  40  41
ENDBRANCH  38  40
ENDBRANCH  37  38
ENDBRANCH   1  37
TORSDOF 10
ENDMDL
MODEL 6
REMARK VINA RESULT:    -6.515      2.273      4.646
REMARK INTER + INTRA:         -11.975
REMARK INTER:                 -11.166
REMARK INTRA:                  -0.809
REMARK UNBOUND:                -0.890
REMARK SMILES C=C(C)[C@]12C[C@@H](C)[C@@]34O[C@](Cc5ccccc5)(O[C@@H]1[C@@H]3C=C(COC(=O)Cc1ccc(O)cc1)C[C@]1(O)C(=O)C(C)=C[C@@H]41)O2
REMARK SMILES IDX 23 1 22 2 21 3 20 4 9 5 8 6 10 7 6 8 18 10 44 11 19 12 5 13
REMARK SMILES IDX 7 14 4 15 11 16 12 17 13 18 17 19 14 20 16 21 15 22 2 23
REMARK SMILES IDX 3 24 1 25 35 26 36 27 43 28 38 29 42 30 39 32 40 33 41 34
REMARK SMILES IDX 37 35 24 37 25 38 26 39 27 40 28 41 29 42 34 43 30 44 33 45
REMARK SMILES IDX 31 46 32 47
REMARK H PARENT 37 36 32 48
REMARK Flexibility Score: 90.00
ROOT
ATOM      1  C   UNL     1      94.798  86.333  86.713  1.00  0.00     0.264 C 
ENDROOT
BRANCH   1   2
ATOM      2  C   UNL     1      93.966  85.264  87.382  1.00  0.00    -0.033 C 
ATOM      3  C   UNL     1      93.392  84.305  86.626  1.00  0.00    -0.015 C 
BRANCH   3   4
ATOM      4  C   UNL     1      92.460  83.178  87.040  1.00  0.00     0.078 C 
ATOM      5  O   UNL     1      93.877  81.207  87.513  1.00  0.00    -0.319 OA
ATOM      6  C   UNL     1      92.955  82.159  88.131  1.00  0.00     0.095 CG0
ATOM      7  C   UNL     1      93.478  80.717  86.219  1.00  0.00     0.289 C 
ATOM      8  C   UNL     1      91.686  81.382  88.674  1.00  0.00     0.023 C 
ATOM      9  G   UNL     1      93.811  82.880  89.213  1.00  0.00     0.000 G0
ATOM     10  O   UNL     1      93.289  81.785  85.295  1.00  0.00    -0.320 OA
ATOM     11  O   UNL     1      92.234  80.022  86.262  1.00  0.00    -0.313 OA
ATOM     12  C   UNL     1      92.064  82.340  85.800  1.00  0.00     0.170 C 
ATOM     13  C   UNL     1      90.614  81.188  87.558  1.00  0.00     0.049 C 
ATOM     14  C   UNL     1      91.976  80.028  89.343  1.00  0.00     0.011 C 
ATOM     15  C   UNL     1      91.253  81.076  86.173  1.00  0.00     0.122 C 
BRANCH   7  16
ATOM     16  C   UNL     1      94.559  79.784  85.711  1.00  0.00     0.135 C 
BRANCH  16  17
ATOM     17  C   UNL     1      95.682  80.532  85.037  1.00  0.00    -0.040 A 
ATOM     18  C   UNL     1      95.871  80.417  83.661  1.00  0.00     0.004 A 
ATOM     19  C   UNL     1      96.532  81.340  85.793  1.00  0.00     0.004 A 
ATOM     20  C   UNL     1      96.909  81.110  83.038  1.00  0.00     0.000 A 
ATOM     21  C   UNL     1      97.570  82.033  85.170  1.00  0.00     0.000 A 
ATOM     22  C   UNL     1      97.759  81.918  83.793  1.00  0.00     0.000 A 
ENDBRANCH  16  17
ENDBRANCH   7  16
BRANCH  15  23
ATOM     23  C   UNL     1      90.265  80.709  85.113  1.00  0.00    -0.046 C 
ATOM     24  C   UNL     1      89.104  81.644  84.939  1.00  0.00     0.042 C 
ATOM     25  C   UNL     1      90.407  79.608  84.361  1.00  0.00     0.010 C 
ENDBRANCH  15  23
ENDBRANCH   3   4
BRANCH   2  26
ATOM     26  C   UNL     1      93.895  85.421  88.890  1.00  0.00     0.078 C 
BRANCH  26  27
ATOM     27  C   UNL     1      93.263  84.278  89.681  1.00  0.00     0.140 C 
ATOM     28  C   UNL     1      93.786  82.897  89.233  1.00  0.00     0.086 CG0
ATOM     29  C   UNL     1      93.641  84.308  91.147  1.00  0.00     0.190 C 
ATOM     30  C   UNL     1      94.081  82.197  90.530  1.00  0.00    -0.010 C 
ATOM     31  G   UNL     1      92.947  82.167  88.145  1.00  0.00     0.000 G0
ATOM     32  O   UNL     1      93.585  85.291  91.872  1.00  0.00    -0.291 OA
ATOM     33  C   UNL     1      94.036  82.969  91.621  1.00  0.00    -0.008 C 
ATOM     34  C   UNL     1      94.345  82.645  93.029  1.00  0.00     0.048 C 
BRANCH  27  35
ATOM     35  O   UNL     1      91.848  84.377  89.695  1.00  0.00    -0.381 OA
ATOM     36  H   UNL     1      91.561  84.769  88.853  1.00  0.00     0.212 HD
ENDBRANCH  27  35
ENDBRANCH  26  27
ENDBRANCH   2  26
ENDBRANCH   1   2
BRANCH   1  37
ATOM     37  O   UNL     1      95.302  87.214  87.694  1.00  0.00    -0.461 OA
BRANCH  37  38
ATOM     38  C   UNL     1      95.554  88.502  87.282  1.00  0.00     0.310 C 
ATOM     39  O   UNL     1      95.589  88.873  86.117  1.00  0.00    -0.252 OA
BRANCH  38  40
ATOM     40  C   UNL     1      95.780  89.382  88.488  1.00  0.00     0.158 C 
BRANCH  40  41
ATOM     41  C   UNL     1      94.522  89.630  89.278  1.00  0.00    -0.037 A 
ATOM     42  C   UNL     1      94.305  88.949  90.477  1.00  0.00     0.008 A 
ATOM     43  C   UNL     1      93.572  90.539  88.813  1.00  0.00     0.008 A 
ATOM     44  C   UNL     1      93.140  89.178  91.209  1.00  0.00     0.046 A 
ATOM     45  C   UNL     1      92.406  90.768  89.544  1.00  0.00     0.046 A 
ATOM     46  C   UNL     1      92.190  90.087  90.742  1.00  0.00     0.115 A 
BRANCH  46  47
ATOM     47  O   UNL     1      91.053  90.310  91.456  1.00  0.00    -0.508 OA
ATOM     48  H   UNL     1      91.148  91.143  91.949  1.00  0.00     0.293 HD
ENDBRANCH  46  47
ENDBRANCH  40  41
ENDBRANCH  38  40
ENDBRANCH  37  38
ENDBRANCH   1  37
TORSDOF 10
ENDMDL
MODEL 7
REMARK VINA RESULT:    -6.418     18.027     22.604
REMARK INTER + INTRA:         -11.811
REMARK INTER:                 -11.350
REMARK INTRA:                  -0.460
REMARK UNBOUND:                -0.890
REMARK SMILES C=C(C)[C@]12C[C@@H](C)[C@@]34O[C@](Cc5ccccc5)(O[C@@H]1[C@@H]3C=C(COC(=O)Cc1ccc(O)cc1)C[C@]1(O)C(=O)C(C)=C[C@@H]41)O2
REMARK SMILES IDX 23 1 22 2 21 3 20 4 9 5 8 6 10 7 6 8 18 10 44 11 19 12 5 13
REMARK SMILES IDX 7 14 4 15 11 16 12 17 13 18 17 19 14 20 16 21 15 22 2 23
REMARK SMILES IDX 3 24 1 25 35 26 36 27 43 28 38 29 42 30 39 32 40 33 41 34
REMARK SMILES IDX 37 35 24 37 25 38 26 39 27 40 28 41 29 42 34 43 30 44 33 45
REMARK SMILES IDX 31 46 32 47
REMARK H PARENT 37 36 32 48
REMARK Flexibility Score: 90.00
ROOT
ATOM      1  C   UNL     1      79.012  71.698  87.122  1.00  0.00     0.264 C 
ENDROOT
BRANCH   1   2
ATOM      2  C   UNL     1      79.665  70.344  87.270  1.00  0.00    -0.033 C 
ATOM      3  C   UNL     1      78.916  69.231  87.123  1.00  0.00    -0.015 C 
BRANCH   3   4
ATOM      4  C   UNL     1      79.311  67.773  87.295  1.00  0.00     0.078 C 
ATOM      5  O   UNL     1      79.995  66.944  85.067  1.00  0.00    -0.319 OA
ATOM      6  C   UNL     1      80.488  67.207  86.418  1.00  0.00     0.095 CG0
ATOM      7  C   UNL     1      78.699  66.318  84.997  1.00  0.00     0.289 C 
ATOM      8  C   UNL     1      80.965  65.847  87.076  1.00  0.00     0.023 C 
ATOM      9  G   UNL     1      81.598  68.281  86.223  1.00  0.00     0.000 G0
ATOM     10  O   UNL     1      77.711  67.098  85.664  1.00  0.00    -0.320 OA
ATOM     11  O   UNL     1      78.677  65.042  85.632  1.00  0.00    -0.313 OA
ATOM     12  C   UNL     1      78.086  66.862  87.031  1.00  0.00     0.170 C 
ATOM     13  C   UNL     1      79.778  65.086  87.741  1.00  0.00     0.049 C 
ATOM     14  C   UNL     1      81.723  64.890  86.140  1.00  0.00     0.011 C 
ATOM     15  C   UNL     1      78.456  65.359  87.022  1.00  0.00     0.122 C 
BRANCH   7  16
ATOM     16  C   UNL     1      78.327  66.161  83.536  1.00  0.00     0.135 C 
BRANCH  16  17
ATOM     17  C   UNL     1      76.848  66.345  83.304  1.00  0.00    -0.040 A 
ATOM     18  C   UNL     1      76.033  65.237  83.081  1.00  0.00     0.004 A 
ATOM     19  C   UNL     1      76.297  67.626  83.315  1.00  0.00     0.004 A 
ATOM     20  C   UNL     1      74.665  65.408  82.867  1.00  0.00     0.000 A 
ATOM     21  C   UNL     1      74.928  67.798  83.102  1.00  0.00     0.000 A 
ATOM     22  C   UNL     1      74.113  66.689  82.878  1.00  0.00     0.000 A 
ENDBRANCH  16  17
ENDBRANCH   7  16
BRANCH  15  23
ATOM     23  C   UNL     1      77.341  64.503  87.527  1.00  0.00    -0.046 C 
ATOM     24  C   UNL     1      77.655  63.638  88.712  1.00  0.00     0.042 C 
ATOM     25  C   UNL     1      76.128  64.508  86.955  1.00  0.00     0.010 C 
ENDBRANCH  15  23
ENDBRANCH   3   4
BRANCH   2  26
ATOM     26  C   UNL     1      81.150  70.428  87.571  1.00  0.00     0.078 C 
BRANCH  26  27
ATOM     27  C   UNL     1      81.950  69.128  87.509  1.00  0.00     0.140 C 
ATOM     28  C   UNL     1      81.609  68.293  86.257  1.00  0.00     0.086 CG0
ATOM     29  C   UNL     1      83.435  69.369  87.345  1.00  0.00     0.190 C 
ATOM     30  C   UNL     1      82.957  67.886  85.731  1.00  0.00    -0.010 C 
ATOM     31  G   UNL     1      80.501  67.214  86.433  1.00  0.00     0.000 G0
ATOM     32  O   UNL     1      84.105  70.144  88.011  1.00  0.00    -0.291 OA
ATOM     33  C   UNL     1      84.002  68.493  86.302  1.00  0.00    -0.008 C 
ATOM     34  C   UNL     1      85.443  68.403  85.988  1.00  0.00     0.048 C 
BRANCH  27  35
ATOM     35  O   UNL     1      81.856  68.404  88.724  1.00  0.00    -0.381 OA
ATOM     36  H   UNL     1      81.325  67.605  88.564  1.00  0.00     0.212 HD
ENDBRANCH  27  35
ENDBRANCH  26  27
ENDBRANCH   2  26
ENDBRANCH   1   2
BRANCH   1  37
ATOM     37  O   UNL     1      77.711  71.534  86.597  1.00  0.00    -0.461 OA
BRANCH  37  38
ATOM     38  C   UNL     1      76.770  72.449  87.008  1.00  0.00     0.310 C 
ATOM     39  O   UNL     1      76.452  72.655  88.171  1.00  0.00    -0.252 OA
BRANCH  38  40
ATOM     40  C   UNL     1      76.195  73.156  85.804  1.00  0.00     0.158 C 
BRANCH  40  41
ATOM     41  C   UNL     1      77.253  73.765  84.920  1.00  0.00    -0.037 A 
ATOM     42  C   UNL     1      77.954  74.893  85.345  1.00  0.00     0.008 A 
ATOM     43  C   UNL     1      77.531  73.200  83.675  1.00  0.00     0.008 A 
ATOM     44  C   UNL     1      78.932  75.457  84.526  1.00  0.00     0.046 A 
ATOM     45  C   UNL     1      78.509  73.763  82.855  1.00  0.00     0.046 A 
ATOM     46  C   UNL     1      79.210  74.892  83.281  1.00  0.00     0.115 A 
BRANCH  46  47
ATOM     47  O   UNL     1      80.164  75.442  82.481  1.00  0.00    -0.508 OA
ATOM     48  H   UNL     1      80.982  74.922  82.562  1.00  0.00     0.293 HD
ENDBRANCH  46  47
ENDBRANCH  40  41
ENDBRANCH  38  40
ENDBRANCH  37  38
ENDBRANCH   1  37
TORSDOF 10
ENDMDL
MODEL 8
REMARK VINA RESULT:    -6.263     35.223     39.131
REMARK INTER + INTRA:         -11.547
REMARK INTER:                 -11.158
REMARK INTRA:                  -0.390
REMARK UNBOUND:                -0.890
REMARK SMILES C=C(C)[C@]12C[C@@H](C)[C@@]34O[C@](Cc5ccccc5)(O[C@@H]1[C@@H]3C=C(COC(=O)Cc1ccc(O)cc1)C[C@]1(O)C(=O)C(C)=C[C@@H]41)O2
REMARK SMILES IDX 23 1 22 2 21 3 20 4 9 5 8 6 10 7 6 8 18 10 44 11 19 12 5 13
REMARK SMILES IDX 7 14 4 15 11 16 12 17 13 18 17 19 14 20 16 21 15 22 2 23
REMARK SMILES IDX 3 24 1 25 35 26 36 27 43 28 38 29 42 30 39 32 40 33 41 34
REMARK SMILES IDX 37 35 24 37 25 38 26 39 27 40 28 41 29 42 34 43 30 44 33 45
REMARK SMILES IDX 31 46 32 47
REMARK H PARENT 37 36 32 48
REMARK Flexibility Score: 90.00
ROOT
ATOM      1  C   UNL     1      57.555  88.508  70.171  1.00  0.00     0.264 C 
ENDROOT
BRANCH   1   2
ATOM      2  C   UNL     1      59.005  88.382  70.579  1.00  0.00    -0.033 C 
ATOM      3  C   UNL     1      59.336  87.549  71.588  1.00  0.00    -0.015 C 
BRANCH   3   4
ATOM      4  C   UNL     1      60.691  87.303  72.230  1.00  0.00     0.078 C 
ATOM      5  O   UNL     1      61.701  85.371  71.063  1.00  0.00    -0.319 OA
ATOM      6  C   UNL     1      61.871  86.800  71.320  1.00  0.00     0.095 CG0
ATOM      7  C   UNL     1      61.305  84.584  72.203  1.00  0.00     0.289 C 
ATOM      8  C   UNL     1      63.222  87.033  72.113  1.00  0.00     0.023 C 
ATOM      9  G   UNL     1      61.801  87.457  69.910  1.00  0.00     0.000 G0
ATOM     10  O   UNL     1      60.086  85.062  72.764  1.00  0.00    -0.320 OA
ATOM     11  O   UNL     1      62.262  84.639  73.259  1.00  0.00    -0.313 OA
ATOM     12  C   UNL     1      60.550  86.274  73.379  1.00  0.00     0.170 C 
ATOM     13  C   UNL     1      63.021  86.861  73.650  1.00  0.00     0.049 C 
ATOM     14  C   UNL     1      64.414  86.174  71.656  1.00  0.00     0.011 C 
ATOM     15  C   UNL     1      61.918  85.849  73.966  1.00  0.00     0.122 C 
BRANCH   7  16
ATOM     16  C   UNL     1      61.134  83.147  71.752  1.00  0.00     0.135 C 
BRANCH  16  17
ATOM     17  C   UNL     1      62.071  82.211  72.475  1.00  0.00    -0.040 A 
ATOM     18  C   UNL     1      63.195  81.707  71.822  1.00  0.00     0.004 A 
ATOM     19  C   UNL     1      61.812  81.851  73.797  1.00  0.00     0.004 A 
ATOM     20  C   UNL     1      64.062  80.842  72.491  1.00  0.00     0.000 A 
ATOM     21  C   UNL     1      62.679  80.986  74.466  1.00  0.00     0.000 A 
ATOM     22  C   UNL     1      63.803  80.482  73.813  1.00  0.00     0.000 A 
ENDBRANCH  16  17
ENDBRANCH   7  16
BRANCH  15  23
ATOM     23  C   UNL     1      61.830  85.533  75.424  1.00  0.00    -0.046 C 
ATOM     24  C   UNL     1      62.877  84.606  75.964  1.00  0.00     0.042 C 
ATOM     25  C   UNL     1      60.869  86.049  76.204  1.00  0.00     0.010 C 
ENDBRANCH  15  23
ENDBRANCH   3   4
BRANCH   2  26
ATOM     26  C   UNL     1      59.934  89.247  69.749  1.00  0.00     0.078 C 
BRANCH  26  27
ATOM     27  C   UNL     1      61.433  88.988  69.882  1.00  0.00     0.140 C 
ATOM     28  C   UNL     1      61.765  87.481  69.907  1.00  0.00     0.086 CG0
ATOM     29  C   UNL     1      62.214  89.472  68.678  1.00  0.00     0.190 C 
ATOM     30  C   UNL     1      62.922  87.361  68.955  1.00  0.00    -0.010 C 
ATOM     31  G   UNL     1      61.863  86.825  71.315  1.00  0.00     0.000 G0
ATOM     32  O   UNL     1      62.108  90.575  68.162  1.00  0.00    -0.291 OA
ATOM     33  C   UNL     1      63.182  88.453  68.230  1.00  0.00    -0.008 C 
ATOM     34  C   UNL     1      64.174  88.668  67.156  1.00  0.00     0.048 C 
BRANCH  27  35
ATOM     35  O   UNL     1      61.992  89.715  70.963  1.00  0.00    -0.381 OA
ATOM     36  H   UNL     1      62.604  89.131  71.441  1.00  0.00     0.212 HD
ENDBRANCH  27  35
ENDBRANCH  26  27
ENDBRANCH   2  26
ENDBRANCH   1   2
BRANCH   1  37
ATOM     37  O   UNL     1      57.456  88.423  68.766  1.00  0.00    -0.461 OA
BRANCH  37  38
ATOM     38  C   UNL     1      56.612  89.325  68.160  1.00  0.00     0.310 C 
ATOM     39  O   UNL     1      55.760  89.986  68.737  1.00  0.00    -0.252 OA
BRANCH  38  40
ATOM     40  C   UNL     1      56.901  89.369  66.679  1.00  0.00     0.158 C 
BRANCH  40  41
ATOM     41  C   UNL     1      55.704  89.014  65.835  1.00  0.00    -0.037 A 
ATOM     42  C   UNL     1      54.756  88.109  66.315  1.00  0.00     0.008 A 
ATOM     43  C   UNL     1      55.542  89.590  64.576  1.00  0.00     0.008 A 
ATOM     44  C   UNL     1      53.648  87.780  65.534  1.00  0.00     0.046 A 
ATOM     45  C   UNL     1      54.434  89.261  63.794  1.00  0.00     0.046 A 
ATOM     46  C   UNL     1      53.487  88.356  64.273  1.00  0.00     0.115 A 
BRANCH  46  47
ATOM     47  O   UNL     1      52.407  88.034  63.511  1.00  0.00    -0.508 OA
ATOM     48  H   UNL     1      52.179  88.795  62.948  1.00  0.00     0.293 HD
ENDBRANCH  46  47
ENDBRANCH  40  41
ENDBRANCH  38  40
ENDBRANCH  37  38
ENDBRANCH   1  37
TORSDOF 10
ENDMDL
MODEL 9
REMARK VINA RESULT:    -6.074     13.222     16.433
REMARK INTER + INTRA:         -11.225
REMARK INTER:                 -10.784
REMARK INTRA:                  -0.441
REMARK UNBOUND:                -0.890
REMARK SMILES C=C(C)[C@]12C[C@@H](C)[C@@]34O[C@](Cc5ccccc5)(O[C@@H]1[C@@H]3C=C(COC(=O)Cc1ccc(O)cc1)C[C@]1(O)C(=O)C(C)=C[C@@H]41)O2
REMARK SMILES IDX 23 1 22 2 21 3 20 4 9 5 8 6 10 7 6 8 18 10 44 11 19 12 5 13
REMARK SMILES IDX 7 14 4 15 11 16 12 17 13 18 17 19 14 20 16 21 15 22 2 23
REMARK SMILES IDX 3 24 1 25 35 26 36 27 43 28 38 29 42 30 39 32 40 33 41 34
REMARK SMILES IDX 37 35 24 37 25 38 26 39 27 40 28 41 29 42 34 43 30 44 33 45
REMARK SMILES IDX 31 46 32 47
REMARK H PARENT 37 36 32 48
REMARK Flexibility Score: 90.00
ROOT
ATOM      1  C   UNL     1      83.599  91.018  87.142  1.00  0.00     0.264 C 
ENDROOT
BRANCH   1   2
ATOM      2  C   UNL     1      83.414  90.536  88.562  1.00  0.00    -0.033 C 
ATOM      3  C   UNL     1      83.901  91.278  89.578  1.00  0.00    -0.015 C 
BRANCH   3   4
ATOM      4  C   UNL     1      83.914  90.983  91.070  1.00  0.00     0.078 C 
ATOM      5  O   UNL     1      81.888  92.028  92.028  1.00  0.00    -0.319 OA
ATOM      6  C   UNL     1      82.540  90.740  91.796  1.00  0.00     0.095 CG0
ATOM      7  C   UNL     1      82.754  93.082  92.491  1.00  0.00     0.289 C 
ATOM      8  C   UNL     1      82.849  90.052  93.189  1.00  0.00     0.023 C 
ATOM      9  G   UNL     1      81.555  89.967  90.872  1.00  0.00     0.000 G0
ATOM     10  O   UNL     1      83.826  93.308  91.580  1.00  0.00    -0.320 OA
ATOM     11  O   UNL     1      83.368  92.771  93.739  1.00  0.00    -0.313 OA
ATOM     12  C   UNL     1      84.618  92.135  91.828  1.00  0.00     0.170 C 
ATOM     13  C   UNL     1      84.205  90.544  93.782  1.00  0.00     0.049 C 
ATOM     14  C   UNL     1      81.747  90.189  94.254  1.00  0.00     0.011 C 
ATOM     15  C   UNL     1      84.516  91.982  93.365  1.00  0.00     0.122 C 
BRANCH   7  16
ATOM     16  C   UNL     1      81.928  94.345  92.635  1.00  0.00     0.135 C 
BRANCH  16  17
ATOM     17  C   UNL     1      82.043  95.238  91.425  1.00  0.00    -0.040 A 
ATOM     18  C   UNL     1      81.499  94.835  90.206  1.00  0.00     0.004 A 
ATOM     19  C   UNL     1      82.694  96.468  91.527  1.00  0.00     0.004 A 
ATOM     20  C   UNL     1      81.605  95.662  89.087  1.00  0.00     0.000 A 
ATOM     21  C   UNL     1      82.800  97.295  90.408  1.00  0.00     0.000 A 
ATOM     22  C   UNL     1      82.256  96.892  89.189  1.00  0.00     0.000 A 
ENDBRANCH  16  17
ENDBRANCH   7  16
BRANCH  15  23
ATOM     23  C   UNL     1      85.715  92.535  94.065  1.00  0.00    -0.046 C 
ATOM     24  C   UNL     1      86.719  91.533  94.551  1.00  0.00     0.042 C 
ATOM     25  C   UNL     1      85.883  93.853  94.249  1.00  0.00     0.010 C 
ENDBRANCH  15  23
ENDBRANCH   3   4
BRANCH   2  26
ATOM     26  C   UNL     1      82.661  89.222  88.653  1.00  0.00     0.078 C 
BRANCH  26  27
ATOM     27  C   UNL     1      82.187  88.783  90.037  1.00  0.00     0.140 C 
ATOM     28  C   UNL     1      81.577  89.950  90.842  1.00  0.00     0.086 CG0
ATOM     29  C   UNL     1      81.039  87.799  89.971  1.00  0.00     0.190 C 
ATOM     30  C   UNL     1      80.315  89.362  91.408  1.00  0.00    -0.010 C 
ATOM     31  G   UNL     1      82.552  90.717  91.783  1.00  0.00     0.000 G0
ATOM     32  O   UNL     1      81.003  86.798  89.271  1.00  0.00    -0.291 OA
ATOM     33  C   UNL     1      79.970  88.168  90.919  1.00  0.00    -0.008 C 
ATOM     34  C   UNL     1      78.772  87.343  91.178  1.00  0.00     0.048 C 
BRANCH  27  35
ATOM     35  O   UNL     1      83.200  88.076  90.732  1.00  0.00    -0.381 OA
ATOM     36  H   UNL     1      84.043  88.213  90.268  1.00  0.00     0.212 HD
ENDBRANCH  27  35
ENDBRANCH  26  27
ENDBRANCH   2  26
ENDBRANCH   1   2
BRANCH   1  37
ATOM     37  O   UNL     1      84.352  90.065  86.421  1.00  0.00    -0.461 OA
BRANCH  37  38
ATOM     38  C   UNL     1      84.363  90.210  85.053  1.00  0.00     0.310 C 
ATOM     39  O   UNL     1      85.368  90.211  84.355  1.00  0.00    -0.252 OA
BRANCH  38  40
ATOM     40  C   UNL     1      82.948  90.365  84.551  1.00  0.00     0.158 C 
BRANCH  40  41
ATOM     41  C   UNL     1      82.116  89.124  84.745  1.00  0.00    -0.037 A 
ATOM     42  C   UNL     1      80.788  89.100  84.316  1.00  0.00     0.008 A 
ATOM     43  C   UNL     1      82.672  87.999  85.352  1.00  0.00     0.008 A 
ATOM     44  C   UNL     1      80.017  87.951  84.497  1.00  0.00     0.046 A 
ATOM     45  C   UNL     1      81.902  86.849  85.533  1.00  0.00     0.046 A 
ATOM     46  C   UNL     1      80.575  86.826  85.105  1.00  0.00     0.115 A 
BRANCH  46  47
ATOM     47  O   UNL     1      79.823  85.705  85.282  1.00  0.00    -0.508 OA
ATOM     48  H   UNL     1      80.008  85.083  84.557  1.00  0.00     0.293 HD
ENDBRANCH  46  47
ENDBRANCH  40  41
ENDBRANCH  38  40
ENDBRANCH  37  38
ENDBRANCH   1  37
TORSDOF 10
ENDMDL
MODEL 10
REMARK VINA RESULT:    -6.028     19.569     26.133
REMARK INTER + INTRA:         -11.147
REMARK INTER:                 -10.267
REMARK INTRA:                  -0.880
REMARK UNBOUND:                -0.890
REMARK SMILES C=C(C)[C@]12C[C@@H](C)[C@@]34O[C@](Cc5ccccc5)(O[C@@H]1[C@@H]3C=C(COC(=O)Cc1ccc(O)cc1)C[C@]1(O)C(=O)C(C)=C[C@@H]41)O2
REMARK SMILES IDX 23 1 22 2 21 3 20 4 9 5 8 6 10 7 6 8 18 10 44 11 19 12 5 13
REMARK SMILES IDX 7 14 4 15 11 16 12 17 13 18 17 19 14 20 16 21 15 22 2 23
REMARK SMILES IDX 3 24 1 25 35 26 36 27 43 28 38 29 42 30 39 32 40 33 41 34
REMARK SMILES IDX 37 35 24 37 25 38 26 39 27 40 28 41 29 42 34 43 30 44 33 45
REMARK SMILES IDX 31 46 32 47
REMARK H PARENT 37 36 32 48
REMARK Flexibility Score: 90.00
ROOT
ATOM      1  C   UNL     1      76.101  70.869  88.457  1.00  0.00     0.264 C 
ENDROOT
BRANCH   1   2
ATOM      2  C   UNL     1      75.439  69.794  87.627  1.00  0.00    -0.033 C 
ATOM      3  C   UNL     1      74.105  69.614  87.724  1.00  0.00    -0.015 C 
BRANCH   3   4
ATOM      4  C   UNL     1      73.222  68.568  87.063  1.00  0.00     0.078 C 
ATOM      5  O   UNL     1      72.407  69.546  84.944  1.00  0.00    -0.319 OA
ATOM      6  C   UNL     1      73.225  68.468  85.494  1.00  0.00     0.095 CG0
ATOM      7  C   UNL     1      71.165  69.788  85.632  1.00  0.00     0.289 C 
ATOM      8  C   UNL     1      72.586  67.072  85.101  1.00  0.00     0.023 C 
ATOM      9  G   UNL     1      74.650  68.734  84.926  1.00  0.00     0.000 G0
ATOM     10  O   UNL     1      71.385  70.083  87.009  1.00  0.00    -0.320 OA
ATOM     11  O   UNL     1      70.304  68.652  85.614  1.00  0.00    -0.313 OA
ATOM     12  C   UNL     1      71.748  68.779  87.489  1.00  0.00     0.170 C 
ATOM     13  C   UNL     1      71.480  66.644  86.113  1.00  0.00     0.049 C 
ATOM     14  C   UNL     1      72.030  66.980  83.669  1.00  0.00     0.011 C 
ATOM     15  C   UNL     1      70.771  67.855  86.722  1.00  0.00     0.122 C 
BRANCH   7  16
ATOM     16  C   UNL     1      70.470  70.957  84.962  1.00  0.00     0.135 C 
BRANCH  16  17
ATOM     17  C   UNL     1      69.352  71.513  85.808  1.00  0.00    -0.040 A 
ATOM     18  C   UNL     1      68.115  70.871  85.839  1.00  0.00     0.004 A 
ATOM     19  C   UNL     1      69.557  72.669  86.561  1.00  0.00     0.004 A 
ATOM     20  C   UNL     1      67.081  71.384  86.622  1.00  0.00     0.000 A 
ATOM     21  C   UNL     1      68.522  73.183  87.344  1.00  0.00     0.000 A 
ATOM     22  C   UNL     1      67.285  72.541  87.374  1.00  0.00     0.000 A 
ENDBRANCH  16  17
ENDBRANCH   7  16
BRANCH  15  23
ATOM     23  C   UNL     1      69.591  67.470  87.554  1.00  0.00    -0.046 C 
ATOM     24  C   UNL     1      68.305  67.248  86.816  1.00  0.00     0.042 C 
ATOM     25  C   UNL     1      69.677  67.331  88.886  1.00  0.00     0.010 C 
ENDBRANCH  15  23
ENDBRANCH   3   4
BRANCH   2  26
ATOM     26  C   UNL     1      76.415  69.032  86.750  1.00  0.00     0.078 C 
BRANCH  26  27
ATOM     27  C   UNL     1      75.824  68.075  85.716  1.00  0.00     0.140 C 
ATOM     28  C   UNL     1      74.656  68.710  84.933  1.00  0.00     0.086 CG0
ATOM     29  C   UNL     1      76.806  67.733  84.615  1.00  0.00     0.190 C 
ATOM     30  C   UNL     1      74.957  68.353  83.505  1.00  0.00    -0.010 C 
ATOM     31  G   UNL     1      73.230  68.451  85.501  1.00  0.00     0.000 G0
ATOM     32  O   UNL     1      77.962  67.375  84.783  1.00  0.00    -0.291 OA
ATOM     33  C   UNL     1      76.168  67.829  83.289  1.00  0.00    -0.008 C 
ATOM     34  C   UNL     1      76.825  67.442  82.023  1.00  0.00     0.048 C 
BRANCH  27  35
ATOM     35  O   UNL     1      75.511  66.818  86.293  1.00  0.00    -0.381 OA
ATOM     36  H   UNL     1      74.544  66.728  86.325  1.00  0.00     0.212 HD
ENDBRANCH  27  35
ENDBRANCH  26  27
ENDBRANCH   2  26
ENDBRANCH   1   2
BRANCH   1  37
ATOM     37  O   UNL     1      76.823  71.735  87.608  1.00  0.00    -0.461 OA
BRANCH  37  38
ATOM     38  C   UNL     1      76.261  72.969  87.379  1.00  0.00     0.310 C 
ATOM     39  O   UNL     1      76.137  73.852  88.216  1.00  0.00    -0.252 OA
BRANCH  38  40
ATOM     40  C   UNL     1      75.822  73.062  85.937  1.00  0.00     0.158 C 
BRANCH  40  41
ATOM     41  C   UNL     1      76.883  73.640  85.036  1.00  0.00    -0.037 A 
ATOM     42  C   UNL     1      77.181  73.019  83.823  1.00  0.00     0.008 A 
ATOM     43  C   UNL     1      77.568  74.794  85.414  1.00  0.00     0.008 A 
ATOM     44  C   UNL     1      78.164  73.553  82.989  1.00  0.00     0.046 A 
ATOM     45  C   UNL     1      78.550  75.328  84.581  1.00  0.00     0.046 A 
ATOM     46  C   UNL     1      78.848  74.708  83.368  1.00  0.00     0.115 A 
BRANCH  46  47
ATOM     47  O   UNL     1      79.807  75.228  82.555  1.00  0.00    -0.508 OA
ATOM     48  H   UNL     1      80.364  74.503  82.219  1.00  0.00     0.293 HD
ENDBRANCH  46  47
ENDBRANCH  40  41
ENDBRANCH  38  40
ENDBRANCH  37  38
ENDBRANCH   1  37
TORSDOF 10
ENDMDL
