MODEL 1
REMARK VINA RESULT:    -7.659      0.000      0.000
REMARK INTER + INTRA:         -13.185
REMARK INTER:                 -13.031
REMARK INTRA:                  -0.154
REMARK UNBOUND:                -0.154
REMARK SMILES C=C(C)[C@]12C[C@@H](C)[C@@]34O[C@](Cc5ccccc5)(O[C@@H]1[C@@H]3C=C(COC(=O)Cc1ccc(O)cc1)C[C@]1(O)C(=O)C(C)=C[C@@H]41)O2
REMARK SMILES IDX 23 1 22 2 21 3 20 4 9 5 8 6 10 7 6 8 18 10 44 11 19 12 5 13
REMARK SMILES IDX 7 14 4 15 11 16 12 17 13 18 17 19 14 20 16 21 15 22 2 23
REMARK SMILES IDX 3 24 1 25 35 26 36 27 43 28 38 29 42 30 39 32 40 33 41 34
REMARK SMILES IDX 37 35 24 37 25 38 26 39 27 40 28 41 29 42 34 43 30 44 33 45
REMARK SMILES IDX 31 46 32 47
REMARK H PARENT 37 36 32 48
REMARK Flexibility Score: 90.00
ROOT
ATOM      1  C   UNL     1      97.136  81.468  80.837  1.00  0.00     0.264 C 
ENDROOT
BRANCH   1   2
ATOM      2  C   UNL     1      97.302  81.422  82.338  1.00  0.00    -0.033 C 
ATOM      3  C   UNL     1      96.297  81.856  83.127  1.00  0.00    -0.015 C 
BRANCH   3   4
ATOM      4  C   UNL     1      96.244  81.983  84.641  1.00  0.00     0.078 C 
ATOM      5  O   UNL     1      95.298  79.869  85.509  1.00  0.00    -0.319 OA
ATOM      6  C   UNL     1      96.503  80.697  85.510  1.00  0.00     0.095 CG0
ATOM      7  C   UNL     1      94.058  80.586  85.662  1.00  0.00     0.289 C 
ATOM      8  C   UNL     1      96.811  81.173  86.989  1.00  0.00     0.023 C 
ATOM      9  G   UNL     1      97.592  79.798  84.856  1.00  0.00     0.000 G0
ATOM     10  O   UNL     1      93.898  81.568  84.642  1.00  0.00    -0.320 OA
ATOM     11  O   UNL     1      93.993  81.298  86.896  1.00  0.00    -0.313 OA
ATOM     12  C   UNL     1      94.865  82.539  85.074  1.00  0.00     0.170 C 
ATOM     13  C   UNL     1      96.016  82.464  87.352  1.00  0.00     0.049 C 
ATOM     14  C   UNL     1      96.590  80.114  88.083  1.00  0.00     0.011 C 
ATOM     15  C   UNL     1      94.680  82.534  86.611  1.00  0.00     0.122 C 
BRANCH   7  16
ATOM     16  C   UNL     1      92.921  79.587  85.596  1.00  0.00     0.135 C 
BRANCH  16  17
ATOM     17  C   UNL     1      91.653  80.206  85.062  1.00  0.00    -0.040 A 
ATOM     18  C   UNL     1      90.918  79.551  84.074  1.00  0.00     0.004 A 
ATOM     19  C   UNL     1      91.216  81.434  85.558  1.00  0.00     0.004 A 
ATOM     20  C   UNL     1      89.745  80.125  83.582  1.00  0.00     0.000 A 
ATOM     21  C   UNL     1      90.043  82.007  85.065  1.00  0.00     0.000 A 
ATOM     22  C   UNL     1      89.309  81.353  84.078  1.00  0.00     0.000 A 
ENDBRANCH  16  17
ENDBRANCH   7  16
BRANCH  15  23
ATOM     23  C   UNL     1      93.824  83.667  87.077  1.00  0.00    -0.046 C 
ATOM     24  C   UNL     1      93.292  84.577  86.010  1.00  0.00     0.042 C 
ATOM     25  C   UNL     1      93.547  83.859  88.375  1.00  0.00     0.010 C 
ENDBRANCH  15  23
ENDBRANCH   3   4
BRANCH   2  26
ATOM     26  C   UNL     1      98.642  80.858  82.772  1.00  0.00     0.078 C 
BRANCH  26  27
ATOM     27  C   UNL     1      98.813  80.524  84.253  1.00  0.00     0.140 C 
ATOM     28  C   UNL     1      97.580  79.800  84.834  1.00  0.00     0.086 CG0
ATOM     29  C   UNL     1      99.922  79.523  84.498  1.00  0.00     0.190 C 
ATOM     30  C   UNL     1      98.177  78.664  85.617  1.00  0.00    -0.010 C 
ATOM     31  G   UNL     1      96.505  80.707  85.502  1.00  0.00     0.000 G0
ATOM     32  O   UNL     1     101.052  79.591  84.036  1.00  0.00    -0.291 OA
ATOM     33  C   UNL     1      99.485  78.465  85.428  1.00  0.00    -0.008 C 
ATOM     34  C   UNL     1     100.372  77.409  85.959  1.00  0.00     0.048 C 
BRANCH  27  35
ATOM     35  O   UNL     1      99.213  81.661  84.998  1.00  0.00    -0.381 OA
ATOM     36  H   UNL     1      99.124  81.455  85.944  1.00  0.00     0.212 HD
ENDBRANCH  27  35
ENDBRANCH  26  27
ENDBRANCH   2  26
ENDBRANCH   1   2
BRANCH   1  37
ATOM     37  O   UNL     1      97.935  80.465  80.248  1.00  0.00    -0.461 OA
BRANCH  37  38
ATOM     38  C   UNL     1      98.178  80.595  78.900  1.00  0.00     0.310 C 
ATOM     39  O   UNL     1      97.888  79.763  78.051  1.00  0.00    -0.252 OA
BRANCH  38  40
ATOM     40  C   UNL     1      98.853  81.919  78.635  1.00  0.00     0.158 C 
BRANCH  40  41
ATOM     41  C   UNL     1      98.125  82.757  77.617  1.00  0.00    -0.037 A 
ATOM     42  C   UNL     1      97.002  83.494  77.994  1.00  0.00     0.008 A 
ATOM     43  C   UNL     1      98.572  82.797  76.296  1.00  0.00     0.008 A 
ATOM     44  C   UNL     1      96.327  84.269  77.051  1.00  0.00     0.046 A 
ATOM     45  C   UNL     1      97.898  83.572  75.353  1.00  0.00     0.046 A 
ATOM     46  C   UNL     1      96.775  84.308  75.730  1.00  0.00     0.115 A 
BRANCH  46  47
ATOM     47  O   UNL     1      96.116  85.064  74.811  1.00  0.00    -0.508 OA
ATOM     48  H   UNL     1      95.489  85.648  75.273  1.00  0.00     0.293 HD
ENDBRANCH  46  47
ENDBRANCH  40  41
ENDBRANCH  38  40
ENDBRANCH  37  38
ENDBRANCH   1  37
TORSDOF 10
ENDMDL
MODEL 2
REMARK VINA RESULT:    -7.552     15.514     21.222
REMARK INTER + INTRA:         -13.004
REMARK INTER:                 -12.534
REMARK INTRA:                  -0.470
REMARK UNBOUND:                -0.154
REMARK SMILES C=C(C)[C@]12C[C@@H](C)[C@@]34O[C@](Cc5ccccc5)(O[C@@H]1[C@@H]3C=C(COC(=O)Cc1ccc(O)cc1)C[C@]1(O)C(=O)C(C)=C[C@@H]41)O2
REMARK SMILES IDX 23 1 22 2 21 3 20 4 9 5 8 6 10 7 6 8 18 10 44 11 19 12 5 13
REMARK SMILES IDX 7 14 4 15 11 16 12 17 13 18 17 19 14 20 16 21 15 22 2 23
REMARK SMILES IDX 3 24 1 25 35 26 36 27 43 28 38 29 42 30 39 32 40 33 41 34
REMARK SMILES IDX 37 35 24 37 25 38 26 39 27 40 28 41 29 42 34 43 30 44 33 45
REMARK SMILES IDX 31 46 32 47
REMARK H PARENT 37 36 32 48
REMARK Flexibility Score: 90.00
ROOT
ATOM      1  C   UNL     1      93.993  97.623  76.364  1.00  0.00     0.264 C 
ENDROOT
BRANCH   1   2
ATOM      2  C   UNL     1      95.068  98.153  75.443  1.00  0.00    -0.033 C 
ATOM      3  C   UNL     1      94.819  98.238  74.120  1.00  0.00    -0.015 C 
BRANCH   3   4
ATOM      4  C   UNL     1      95.745  98.659  72.989  1.00  0.00     0.078 C 
ATOM      5  O   UNL     1      95.378 101.077  72.620  1.00  0.00    -0.319 OA
ATOM      6  C   UNL     1      96.380 100.097  73.038  1.00  0.00     0.095 CG0
ATOM      7  C   UNL     1      94.582 100.695  71.482  1.00  0.00     0.289 C 
ATOM      8  C   UNL     1      97.592 100.121  72.018  1.00  0.00     0.023 C 
ATOM      9  G   UNL     1      96.729 100.499  74.500  1.00  0.00     0.000 G0
ATOM     10  O   UNL     1      93.901  99.466  71.716  1.00  0.00    -0.320 OA
ATOM     11  O   UNL     1      95.371 100.483  70.314  1.00  0.00    -0.313 OA
ATOM     12  C   UNL     1      95.003  98.549  71.634  1.00  0.00     0.170 C 
ATOM     13  C   UNL     1      97.321  99.203  70.786  1.00  0.00     0.049 C 
ATOM     14  C   UNL     1      98.019 101.516  71.530  1.00  0.00     0.011 C 
ATOM     15  C   UNL     1      95.830  99.122  70.458  1.00  0.00     0.122 C 
BRANCH   7  16
ATOM     16  C   UNL     1      93.575 101.797  71.217  1.00  0.00     0.135 C 
BRANCH  16  17
ATOM     17  C   UNL     1      92.207 101.249  70.897  1.00  0.00    -0.040 A 
ATOM     18  C   UNL     1      91.165 101.397  71.812  1.00  0.00     0.004 A 
ATOM     19  C   UNL     1      91.984 100.595  69.686  1.00  0.00     0.004 A 
ATOM     20  C   UNL     1      89.899 100.891  71.516  1.00  0.00     0.000 A 
ATOM     21  C   UNL     1      90.718 100.088  69.390  1.00  0.00     0.000 A 
ATOM     22  C   UNL     1      89.676 100.236  70.304  1.00  0.00     0.000 A 
ENDBRANCH  16  17
ENDBRANCH   7  16
BRANCH  15  23
ATOM     23  C   UNL     1      95.562  98.399  69.178  1.00  0.00    -0.046 C 
ATOM     24  C   UNL     1      95.225  99.254  67.992  1.00  0.00     0.042 C 
ATOM     25  C   UNL     1      95.620  97.062  69.094  1.00  0.00     0.010 C 
ENDBRANCH  15  23
ENDBRANCH   3   4
BRANCH   2  26
ATOM     26  C   UNL     1      96.339  98.542  76.174  1.00  0.00     0.078 C 
BRANCH  26  27
ATOM     27  C   UNL     1      97.366  99.366  75.399  1.00  0.00     0.140 C 
ATOM     28  C   UNL     1      96.705 100.465  74.541  1.00  0.00     0.086 CG0
ATOM     29  C   UNL     1      98.274 100.166  76.308  1.00  0.00     0.190 C 
ATOM     30  C   UNL     1      97.541 101.681  74.825  1.00  0.00    -0.010 C 
ATOM     31  G   UNL     1      96.387 100.084  73.065  1.00  0.00     0.000 G0
ATOM     32  O   UNL     1      98.864  99.727  77.284  1.00  0.00    -0.291 OA
ATOM     33  C   UNL     1      98.412 101.555  75.830  1.00  0.00    -0.008 C 
ATOM     34  C   UNL     1      99.323 102.551  76.431  1.00  0.00     0.048 C 
BRANCH  27  35
ATOM     35  O   UNL     1      98.258  98.535  74.676  1.00  0.00    -0.381 OA
ATOM     36  H   UNL     1      97.856  98.328  73.815  1.00  0.00     0.212 HD
ENDBRANCH  27  35
ENDBRANCH  26  27
ENDBRANCH   2  26
ENDBRANCH   1   2
BRANCH   1  37
ATOM     37  O   UNL     1      93.634  96.319  75.960  1.00  0.00    -0.461 OA
BRANCH  37  38
ATOM     38  C   UNL     1      93.306  95.440  76.966  1.00  0.00     0.310 C 
ATOM     39  O   UNL     1      94.105  94.753  77.587  1.00  0.00    -0.252 OA
BRANCH  38  40
ATOM     40  C   UNL     1      91.812  95.456  77.182  1.00  0.00     0.158 C 
BRANCH  40  41
ATOM     41  C   UNL     1      91.137  94.191  76.717  1.00  0.00    -0.037 A 
ATOM     42  C   UNL     1      90.349  93.456  77.602  1.00  0.00     0.008 A 
ATOM     43  C   UNL     1      91.301  93.755  75.403  1.00  0.00     0.008 A 
ATOM     44  C   UNL     1      89.725  92.284  77.173  1.00  0.00     0.046 A 
ATOM     45  C   UNL     1      90.677  92.584  74.973  1.00  0.00     0.046 A 
ATOM     46  C   UNL     1      89.889  91.848  75.858  1.00  0.00     0.115 A 
BRANCH  46  47
ATOM     47  O   UNL     1      89.281  90.705  75.439  1.00  0.00    -0.508 OA
ATOM     48  H   UNL     1      88.844  90.284  76.199  1.00  0.00     0.293 HD
ENDBRANCH  46  47
ENDBRANCH  40  41
ENDBRANCH  38  40
ENDBRANCH  37  38
ENDBRANCH   1  37
TORSDOF 10
ENDMDL
MODEL 3
REMARK VINA RESULT:    -7.545      2.077      5.543
REMARK INTER + INTRA:         -12.992
REMARK INTER:                 -12.914
REMARK INTRA:                  -0.078
REMARK UNBOUND:                -0.154
REMARK SMILES C=C(C)[C@]12C[C@@H](C)[C@@]34O[C@](Cc5ccccc5)(O[C@@H]1[C@@H]3C=C(COC(=O)Cc1ccc(O)cc1)C[C@]1(O)C(=O)C(C)=C[C@@H]41)O2
REMARK SMILES IDX 23 1 22 2 21 3 20 4 9 5 8 6 10 7 6 8 18 10 44 11 19 12 5 13
REMARK SMILES IDX 7 14 4 15 11 16 12 17 13 18 17 19 14 20 16 21 15 22 2 23
REMARK SMILES IDX 3 24 1 25 35 26 36 27 43 28 38 29 42 30 39 32 40 33 41 34
REMARK SMILES IDX 37 35 24 37 25 38 26 39 27 40 28 41 29 42 34 43 30 44 33 45
REMARK SMILES IDX 31 46 32 47
REMARK H PARENT 37 36 32 48
REMARK Flexibility Score: 90.00
ROOT
ATOM      1  C   UNL     1      97.358  82.826  82.204  1.00  0.00     0.264 C 
ENDROOT
BRANCH   1   2
ATOM      2  C   UNL     1      96.212  82.433  83.107  1.00  0.00    -0.033 C 
ATOM      3  C   UNL     1      95.951  81.125  83.309  1.00  0.00    -0.015 C 
BRANCH   3   4
ATOM      4  C   UNL     1      94.825  80.476  84.099  1.00  0.00     0.078 C 
ATOM      5  O   UNL     1      95.672  80.116  86.395  1.00  0.00    -0.319 OA
ATOM      6  C   UNL     1      94.670  80.846  85.620  1.00  0.00     0.095 CG0
ATOM      7  C   UNL     1      95.856  78.738  86.019  1.00  0.00     0.289 C 
ATOM      8  C   UNL     1      93.222  80.393  86.078  1.00  0.00     0.023 C 
ATOM      9  G   UNL     1      95.008  82.346  85.863  1.00  0.00     0.000 G0
ATOM     10  O   UNL     1      96.213  78.619  84.645  1.00  0.00    -0.320 OA
ATOM     11  O   UNL     1      94.665  77.969  86.175  1.00  0.00    -0.313 OA
ATOM     12  C   UNL     1      94.954  78.935  84.029  1.00  0.00     0.170 C 
ATOM     13  C   UNL     1      92.759  79.110  85.322  1.00  0.00     0.049 C 
ATOM     14  C   UNL     1      93.041  80.186  87.591  1.00  0.00     0.011 C 
ATOM     15  C   UNL     1      93.941  78.213  84.951  1.00  0.00     0.122 C 
BRANCH   7  16
ATOM     16  C   UNL     1      96.952  78.152  86.886  1.00  0.00     0.135 C 
BRANCH  16  17
ATOM     17  C   UNL     1      98.060  79.142  87.144  1.00  0.00    -0.040 A 
ATOM     18  C   UNL     1      98.583  79.285  88.429  1.00  0.00     0.004 A 
ATOM     19  C   UNL     1      98.562  79.914  86.097  1.00  0.00     0.004 A 
ATOM     20  C   UNL     1      99.609  80.200  88.667  1.00  0.00     0.000 A 
ATOM     21  C   UNL     1      99.588  80.829  86.335  1.00  0.00     0.000 A 
ATOM     22  C   UNL     1     100.111  80.972  87.620  1.00  0.00     0.000 A 
ENDBRANCH  16  17
ENDBRANCH   7  16
BRANCH  15  23
ATOM     23  C   UNL     1      93.510  76.897  84.390  1.00  0.00    -0.046 C 
ATOM     24  C   UNL     1      92.343  76.930  83.448  1.00  0.00     0.042 C 
ATOM     25  C   UNL     1      94.130  75.752  84.710  1.00  0.00     0.010 C 
ENDBRANCH  15  23
ENDBRANCH   3   4
BRANCH   2  26
ATOM     26  C   UNL     1      95.484  83.625  83.698  1.00  0.00     0.078 C 
BRANCH  26  27
ATOM     27  C   UNL     1      94.446  83.342  84.782  1.00  0.00     0.140 C 
ATOM     28  C   UNL     1      94.978  82.374  85.860  1.00  0.00     0.086 CG0
ATOM     29  C   UNL     1      94.103  84.574  85.593  1.00  0.00     0.190 C 
ATOM     30  C   UNL     1      94.567  83.027  87.150  1.00  0.00    -0.010 C 
ATOM     31  G   UNL     1      94.671  80.865  85.637  1.00  0.00     0.000 G0
ATOM     32  O   UNL     1      93.816  85.668  85.130  1.00  0.00    -0.291 OA
ATOM     33  C   UNL     1      94.099  84.274  87.037  1.00  0.00    -0.008 C 
ATOM     34  C   UNL     1      93.685  85.234  88.082  1.00  0.00     0.048 C 
BRANCH  27  35
ATOM     35  O   UNL     1      93.204  82.949  84.222  1.00  0.00    -0.381 OA
ATOM     36  H   UNL     1      92.508  83.517  84.593  1.00  0.00     0.212 HD
ENDBRANCH  27  35
ENDBRANCH  26  27
ENDBRANCH   2  26
ENDBRANCH   1   2
BRANCH   1  37
ATOM     37  O   UNL     1      97.491  81.868  81.175  1.00  0.00    -0.461 OA
BRANCH  37  38
ATOM     38  C   UNL     1      98.634  81.949  80.413  1.00  0.00     0.310 C 
ATOM     39  O   UNL     1      99.688  82.451  80.778  1.00  0.00    -0.252 OA
BRANCH  38  40
ATOM     40  C   UNL     1      98.383  81.325  79.061  1.00  0.00     0.158 C 
BRANCH  40  41
ATOM     41  C   UNL     1      97.846  82.306  78.051  1.00  0.00    -0.037 A 
ATOM     42  C   UNL     1      98.423  82.389  76.784  1.00  0.00     0.008 A 
ATOM     43  C   UNL     1      96.772  83.132  78.383  1.00  0.00     0.008 A 
ATOM     44  C   UNL     1      97.927  83.298  75.849  1.00  0.00     0.046 A 
ATOM     45  C   UNL     1      96.275  84.040  77.448  1.00  0.00     0.046 A 
ATOM     46  C   UNL     1      96.852  84.124  76.182  1.00  0.00     0.115 A 
BRANCH  46  47
ATOM     47  O   UNL     1      96.369  85.010  75.270  1.00  0.00    -0.508 OA
ATOM     48  H   UNL     1      96.172  85.850  75.720  1.00  0.00     0.293 HD
ENDBRANCH  46  47
ENDBRANCH  40  41
ENDBRANCH  38  40
ENDBRANCH  37  38
ENDBRANCH   1  37
TORSDOF 10
ENDMDL
MODEL 4
REMARK VINA RESULT:    -7.518      1.500      2.078
REMARK INTER + INTRA:         -12.945
REMARK INTER:                 -13.869
REMARK INTRA:                   0.924
REMARK UNBOUND:                -0.154
REMARK SMILES C=C(C)[C@]12C[C@@H](C)[C@@]34O[C@](Cc5ccccc5)(O[C@@H]1[C@@H]3C=C(COC(=O)Cc1ccc(O)cc1)C[C@]1(O)C(=O)C(C)=C[C@@H]41)O2
REMARK SMILES IDX 23 1 22 2 21 3 20 4 9 5 8 6 10 7 6 8 18 10 44 11 19 12 5 13
REMARK SMILES IDX 7 14 4 15 11 16 12 17 13 18 17 19 14 20 16 21 15 22 2 23
REMARK SMILES IDX 3 24 1 25 35 26 36 27 43 28 38 29 42 30 39 32 40 33 41 34
REMARK SMILES IDX 37 35 24 37 25 38 26 39 27 40 28 41 29 42 34 43 30 44 33 45
REMARK SMILES IDX 31 46 32 47
REMARK H PARENT 37 36 32 48
REMARK Flexibility Score: 90.00
ROOT
ATOM      1  C   UNL     1      97.325  82.364  81.265  1.00  0.00     0.264 C 
ENDROOT
BRANCH   1   2
ATOM      2  C   UNL     1      96.935  81.854  82.633  1.00  0.00    -0.033 C 
ATOM      3  C   UNL     1      96.074  82.572  83.383  1.00  0.00    -0.015 C 
BRANCH   3   4
ATOM      4  C   UNL     1      95.588  82.320  84.802  1.00  0.00     0.078 C 
ATOM      5  O   UNL     1      93.499  81.008  84.626  1.00  0.00    -0.319 OA
ATOM      6  C   UNL     1      94.875  80.954  85.117  1.00  0.00     0.095 CG0
ATOM      7  C   UNL     1      92.802  82.243  84.881  1.00  0.00     0.289 C 
ATOM      8  C   UNL     1      94.862  80.772  86.691  1.00  0.00     0.023 C 
ATOM      9  G   UNL     1      95.528  79.791  84.316  1.00  0.00     0.000 G0
ATOM     10  O   UNL     1      93.496  83.354  84.321  1.00  0.00    -0.320 OA
ATOM     11  O   UNL     1      92.687  82.523  86.274  1.00  0.00    -0.313 OA
ATOM     12  C   UNL     1      94.606  83.440  85.228  1.00  0.00     0.170 C 
ATOM     13  C   UNL     1      94.735  82.143  87.424  1.00  0.00     0.049 C 
ATOM     14  C   UNL     1      93.799  79.803  87.236  1.00  0.00     0.011 C 
ATOM     15  C   UNL     1      93.942  83.156  86.597  1.00  0.00     0.122 C 
BRANCH   7  16
ATOM     16  C   UNL     1      91.419  82.141  84.270  1.00  0.00     0.135 C 
BRANCH  16  17
ATOM     17  C   UNL     1      90.870  80.738  84.340  1.00  0.00    -0.040 A 
ATOM     18  C   UNL     1      89.497  80.520  84.240  1.00  0.00     0.004 A 
ATOM     19  C   UNL     1      91.738  79.659  84.504  1.00  0.00     0.004 A 
ATOM     20  C   UNL     1      88.990  79.221  84.304  1.00  0.00     0.000 A 
ATOM     21  C   UNL     1      91.231  78.360  84.568  1.00  0.00     0.000 A 
ATOM     22  C   UNL     1      89.858  78.142  84.468  1.00  0.00     0.000 A 
ENDBRANCH  16  17
ENDBRANCH   7  16
BRANCH  15  23
ATOM     23  C   UNL     1      93.653  84.413  87.353  1.00  0.00    -0.046 C 
ATOM     24  C   UNL     1      93.684  85.684  86.558  1.00  0.00     0.042 C 
ATOM     25  C   UNL     1      93.382  84.404  88.666  1.00  0.00     0.010 C 
ENDBRANCH  15  23
ENDBRANCH   3   4
BRANCH   2  26
ATOM     26  C   UNL     1      97.594  80.534  82.987  1.00  0.00     0.078 C 
BRANCH  26  27
ATOM     27  C   UNL     1      97.084  79.811  84.231  1.00  0.00     0.140 C 
ATOM     28  C   UNL     1      95.543  79.808  84.314  1.00  0.00     0.086 CG0
ATOM     29  C   UNL     1      97.411  78.332  84.218  1.00  0.00     0.190 C 
ATOM     30  C   UNL     1      95.214  78.385  84.670  1.00  0.00    -0.010 C 
ATOM     31  G   UNL     1      94.898  80.967  85.129  1.00  0.00     0.000 G0
ATOM     32  O   UNL     1      98.509  77.853  83.977  1.00  0.00    -0.291 OA
ATOM     33  C   UNL     1      96.236  77.526  84.598  1.00  0.00    -0.008 C 
ATOM     34  C   UNL     1      96.264  76.062  84.794  1.00  0.00     0.048 C 
BRANCH  27  35
ATOM     35  O   UNL     1      97.719  80.287  85.405  1.00  0.00    -0.381 OA
ATOM     36  H   UNL     1      97.038  80.645  85.999  1.00  0.00     0.212 HD
ENDBRANCH  27  35
ENDBRANCH  26  27
ENDBRANCH   2  26
ENDBRANCH   1   2
BRANCH   1  37
ATOM     37  O   UNL     1      97.447  81.273  80.377  1.00  0.00    -0.461 OA
BRANCH  37  38
ATOM     38  C   UNL     1      98.436  81.372  79.426  1.00  0.00     0.310 C 
ATOM     39  O   UNL     1      98.976  80.424  78.874  1.00  0.00    -0.252 OA
BRANCH  38  40
ATOM     40  C   UNL     1      98.747  82.827  79.172  1.00  0.00     0.158 C 
BRANCH  40  41
ATOM     41  C   UNL     1      98.156  83.339  77.884  1.00  0.00    -0.037 A 
ATOM     42  C   UNL     1      98.906  83.297  76.708  1.00  0.00     0.008 A 
ATOM     43  C   UNL     1      96.861  83.854  77.866  1.00  0.00     0.008 A 
ATOM     44  C   UNL     1      98.359  83.771  75.515  1.00  0.00     0.046 A 
ATOM     45  C   UNL     1      96.313  84.328  76.673  1.00  0.00     0.046 A 
ATOM     46  C   UNL     1      97.062  84.287  75.498  1.00  0.00     0.115 A 
BRANCH  46  47
ATOM     47  O   UNL     1      96.530  84.750  74.335  1.00  0.00    -0.508 OA
ATOM     48  H   UNL     1      96.114  84.008  73.861  1.00  0.00     0.293 HD
ENDBRANCH  46  47
ENDBRANCH  40  41
ENDBRANCH  38  40
ENDBRANCH  37  38
ENDBRANCH   1  37
TORSDOF 10
ENDMDL
MODEL 5
REMARK VINA RESULT:    -7.306     16.265     21.835
REMARK INTER + INTRA:         -12.586
REMARK INTER:                 -11.949
REMARK INTRA:                  -0.637
REMARK UNBOUND:                -0.154
REMARK SMILES C=C(C)[C@]12C[C@@H](C)[C@@]34O[C@](Cc5ccccc5)(O[C@@H]1[C@@H]3C=C(COC(=O)Cc1ccc(O)cc1)C[C@]1(O)C(=O)C(C)=C[C@@H]41)O2
REMARK SMILES IDX 23 1 22 2 21 3 20 4 9 5 8 6 10 7 6 8 18 10 44 11 19 12 5 13
REMARK SMILES IDX 7 14 4 15 11 16 12 17 13 18 17 19 14 20 16 21 15 22 2 23
REMARK SMILES IDX 3 24 1 25 35 26 36 27 43 28 38 29 42 30 39 32 40 33 41 34
REMARK SMILES IDX 37 35 24 37 25 38 26 39 27 40 28 41 29 42 34 43 30 44 33 45
REMARK SMILES IDX 31 46 32 47
REMARK H PARENT 37 36 32 48
REMARK Flexibility Score: 90.00
ROOT
ATOM      1  C   UNL     1      94.625  97.760  76.802  1.00  0.00     0.264 C 
ENDROOT
BRANCH   1   2
ATOM      2  C   UNL     1      95.141  98.705  75.742  1.00  0.00    -0.033 C 
ATOM      3  C   UNL     1      94.959  98.399  74.440  1.00  0.00    -0.015 C 
BRANCH   3   4
ATOM      4  C   UNL     1      95.442  99.133  73.200  1.00  0.00     0.078 C 
ATOM      5  O   UNL     1      93.628 100.670  72.519  1.00  0.00    -0.319 OA
ATOM      6  C   UNL     1      95.007 100.632  73.000  1.00  0.00     0.095 CG0
ATOM      7  C   UNL     1      93.303  99.699  71.505  1.00  0.00     0.289 C 
ATOM      8  C   UNL     1      95.961 101.266  71.905  1.00  0.00     0.023 C 
ATOM      9  G   UNL     1      94.964 101.382  74.363  1.00  0.00     0.000 G0
ATOM     10  O   UNL     1      93.558  98.373  71.957  1.00  0.00    -0.320 OA
ATOM     11  O   UNL     1      94.089  99.863  70.326  1.00  0.00    -0.313 OA
ATOM     12  C   UNL     1      94.994  98.370  71.929  1.00  0.00     0.170 C 
ATOM     13  C   UNL     1      96.386 100.212  70.837  1.00  0.00     0.049 C 
ATOM     14  C   UNL     1      95.414 102.517  71.196  1.00  0.00     0.011 C 
ATOM     15  C   UNL     1      95.306  99.150  70.628  1.00  0.00     0.122 C 
BRANCH   7  16
ATOM     16  C   UNL     1      91.835  99.850  71.157  1.00  0.00     0.135 C 
BRANCH  16  17
ATOM     17  C   UNL     1      91.329 101.245  71.425  1.00  0.00    -0.040 A 
ATOM     18  C   UNL     1      90.514 101.492  72.529  1.00  0.00     0.004 A 
ATOM     19  C   UNL     1      91.678 102.288  70.568  1.00  0.00     0.004 A 
ATOM     20  C   UNL     1      90.047 102.783  72.777  1.00  0.00     0.000 A 
ATOM     21  C   UNL     1      91.211 103.580  70.816  1.00  0.00     0.000 A 
ATOM     22  C   UNL     1      90.396 103.827  71.919  1.00  0.00     0.000 A 
ENDBRANCH  16  17
ENDBRANCH   7  16
BRANCH  15  23
ATOM     23  C   UNL     1      95.611  98.237  69.486  1.00  0.00    -0.046 C 
ATOM     24  C   UNL     1      96.424  97.019  69.811  1.00  0.00     0.042 C 
ATOM     25  C   UNL     1      95.184  98.492  68.240  1.00  0.00     0.010 C 
ENDBRANCH  15  23
ENDBRANCH   3   4
BRANCH   2  26
ATOM     26  C   UNL     1      95.820  99.933  76.319  1.00  0.00     0.078 C 
BRANCH  26  27
ATOM     27  C   UNL     1      96.154 101.066  75.350  1.00  0.00     0.140 C 
ATOM     28  C   UNL     1      94.991 101.369  74.382  1.00  0.00     0.086 CG0
ATOM     29  C   UNL     1      96.345 102.393  76.053  1.00  0.00     0.190 C 
ATOM     30  C   UNL     1      94.894 102.869  74.409  1.00  0.00    -0.010 C 
ATOM     31  G   UNL     1      95.030 100.630  73.012  1.00  0.00     0.000 G0
ATOM     32  O   UNL     1      97.043 102.578  77.039  1.00  0.00    -0.291 OA
ATOM     33  C   UNL     1      95.621 103.472  75.355  1.00  0.00    -0.008 C 
ATOM     34  C   UNL     1      95.706 104.900  75.723  1.00  0.00     0.048 C 
BRANCH  27  35
ATOM     35  O   UNL     1      97.395 100.845  74.702  1.00  0.00    -0.381 OA
ATOM     36  H   UNL     1      97.219 100.575  73.785  1.00  0.00     0.212 HD
ENDBRANCH  27  35
ENDBRANCH  26  27
ENDBRANCH   2  26
ENDBRANCH   1   2
BRANCH   1  37
ATOM     37  O   UNL     1      95.677  96.924  77.233  1.00  0.00    -0.461 OA
BRANCH  37  38
ATOM     38  C   UNL     1      95.363  96.007  78.210  1.00  0.00     0.310 C 
ATOM     39  O   UNL     1      95.412  96.219  79.414  1.00  0.00    -0.252 OA
BRANCH  38  40
ATOM     40  C   UNL     1      94.951  94.705  77.566  1.00  0.00     0.158 C 
BRANCH  40  41
ATOM     41  C   UNL     1      93.533  94.724  77.057  1.00  0.00    -0.037 A 
ATOM     42  C   UNL     1      92.469  94.662  77.956  1.00  0.00     0.008 A 
ATOM     43  C   UNL     1      93.285  94.804  75.688  1.00  0.00     0.008 A 
ATOM     44  C   UNL     1      91.155  94.678  77.485  1.00  0.00     0.046 A 
ATOM     45  C   UNL     1      91.972  94.821  75.216  1.00  0.00     0.046 A 
ATOM     46  C   UNL     1      90.907  94.758  76.114  1.00  0.00     0.115 A 
BRANCH  46  47
ATOM     47  O   UNL     1      89.627  94.774  75.655  1.00  0.00    -0.508 OA
ATOM     48  H   UNL     1      89.540  94.120  74.939  1.00  0.00     0.293 HD
ENDBRANCH  46  47
ENDBRANCH  40  41
ENDBRANCH  38  40
ENDBRANCH  37  38
ENDBRANCH   1  37
TORSDOF 10
ENDMDL
MODEL 6
REMARK VINA RESULT:    -7.278      2.350      5.518
REMARK INTER + INTRA:         -12.538
REMARK INTER:                 -12.442
REMARK INTRA:                  -0.096
REMARK UNBOUND:                -0.154
REMARK SMILES C=C(C)[C@]12C[C@@H](C)[C@@]34O[C@](Cc5ccccc5)(O[C@@H]1[C@@H]3C=C(COC(=O)Cc1ccc(O)cc1)C[C@]1(O)C(=O)C(C)=C[C@@H]41)O2
REMARK SMILES IDX 23 1 22 2 21 3 20 4 9 5 8 6 10 7 6 8 18 10 44 11 19 12 5 13
REMARK SMILES IDX 7 14 4 15 11 16 12 17 13 18 17 19 14 20 16 21 15 22 2 23
REMARK SMILES IDX 3 24 1 25 35 26 36 27 43 28 38 29 42 30 39 32 40 33 41 34
REMARK SMILES IDX 37 35 24 37 25 38 26 39 27 40 28 41 29 42 34 43 30 44 33 45
REMARK SMILES IDX 31 46 32 47
REMARK H PARENT 37 36 32 48
REMARK Flexibility Score: 90.00
ROOT
ATOM      1  C   UNL     1      96.750  83.525  82.591  1.00  0.00     0.264 C 
ENDROOT
BRANCH   1   2
ATOM      2  C   UNL     1      95.638  83.054  83.500  1.00  0.00    -0.033 C 
ATOM      3  C   UNL     1      95.359  81.736  83.572  1.00  0.00    -0.015 C 
BRANCH   3   4
ATOM      4  C   UNL     1      94.257  81.024  84.341  1.00  0.00     0.078 C 
ATOM      5  O   UNL     1      95.184  80.444  86.559  1.00  0.00    -0.319 OA
ATOM      6  C   UNL     1      94.162  81.250  85.894  1.00  0.00     0.095 CG0
ATOM      7  C   UNL     1      95.341  79.106  86.049  1.00  0.00     0.289 C 
ATOM      8  C   UNL     1      92.728  80.765  86.362  1.00  0.00     0.023 C 
ATOM      9  G   UNL     1      94.524  82.718  86.263  1.00  0.00     0.000 G0
ATOM     10  O   UNL     1      95.646  79.115  84.657  1.00  0.00    -0.320 OA
ATOM     11  O   UNL     1      94.149  78.334  86.177  1.00  0.00    -0.313 OA
ATOM     12  C   UNL     1      94.368  79.495  84.122  1.00  0.00     0.170 C 
ATOM     13  C   UNL     1      92.224  79.561  85.508  1.00  0.00     0.049 C 
ATOM     14  C   UNL     1      92.601  80.418  87.855  1.00  0.00     0.011 C 
ATOM     15  C   UNL     1      93.383  78.696  85.010  1.00  0.00     0.122 C 
BRANCH   7  16
ATOM     16  C   UNL     1      96.463  78.434  86.816  1.00  0.00     0.135 C 
BRANCH  16  17
ATOM     17  C   UNL     1      96.502  76.946  86.573  1.00  0.00    -0.040 A 
ATOM     18  C   UNL     1      96.026  76.067  87.546  1.00  0.00     0.004 A 
ATOM     19  C   UNL     1      97.015  76.449  85.375  1.00  0.00     0.004 A 
ATOM     20  C   UNL     1      96.063  74.691  87.321  1.00  0.00     0.000 A 
ATOM     21  C   UNL     1      97.051  75.072  85.150  1.00  0.00     0.000 A 
ATOM     22  C   UNL     1      96.575  74.194  86.123  1.00  0.00     0.000 A 
ENDBRANCH  16  17
ENDBRANCH   7  16
BRANCH  15  23
ATOM     23  C   UNL     1      92.918  77.442  84.345  1.00  0.00    -0.046 C 
ATOM     24  C   UNL     1      93.948  76.366  84.167  1.00  0.00     0.042 C 
ATOM     25  C   UNL     1      91.652  77.286  83.930  1.00  0.00     0.010 C 
ENDBRANCH  15  23
ENDBRANCH   3   4
BRANCH   2  26
ATOM     26  C   UNL     1      94.960  84.187  84.248  1.00  0.00     0.078 C 
BRANCH  26  27
ATOM     27  C   UNL     1      93.955  83.805  85.332  1.00  0.00     0.140 C 
ATOM     28  C   UNL     1      94.500  82.710  86.273  1.00  0.00     0.086 CG0
ATOM     29  C   UNL     1      93.672  84.944  86.289  1.00  0.00     0.190 C 
ATOM     30  C   UNL     1      94.153  83.222  87.644  1.00  0.00    -0.010 C 
ATOM     31  G   UNL     1      94.148  81.242  85.894  1.00  0.00     0.000 G0
ATOM     32  O   UNL     1      93.396  86.089  85.963  1.00  0.00    -0.291 OA
ATOM     33  C   UNL     1      93.712  84.483  87.689  1.00  0.00    -0.008 C 
ATOM     34  C   UNL     1      93.360  85.326  88.850  1.00  0.00     0.048 C 
BRANCH  27  35
ATOM     35  O   UNL     1      92.685  83.504  84.779  1.00  0.00    -0.381 OA
ATOM     36  H   UNL     1      92.164  84.324  84.745  1.00  0.00     0.212 HD
ENDBRANCH  27  35
ENDBRANCH  26  27
ENDBRANCH   2  26
ENDBRANCH   1   2
BRANCH   1  37
ATOM     37  O   UNL     1      96.418  83.222  81.253  1.00  0.00    -0.461 OA
BRANCH  37  38
ATOM     38  C   UNL     1      97.273  82.370  80.593  1.00  0.00     0.310 C 
ATOM     39  O   UNL     1      97.206  81.149  80.618  1.00  0.00    -0.252 OA
BRANCH  38  40
ATOM     40  C   UNL     1      98.302  83.175  79.836  1.00  0.00     0.158 C 
BRANCH  40  41
ATOM     41  C   UNL     1      98.053  83.198  78.350  1.00  0.00    -0.037 A 
ATOM     42  C   UNL     1      98.936  82.552  77.485  1.00  0.00     0.008 A 
ATOM     43  C   UNL     1      96.941  83.866  77.839  1.00  0.00     0.008 A 
ATOM     44  C   UNL     1      98.707  82.574  76.109  1.00  0.00     0.046 A 
ATOM     45  C   UNL     1      96.711  83.888  76.463  1.00  0.00     0.046 A 
ATOM     46  C   UNL     1      97.593  83.243  75.598  1.00  0.00     0.115 A 
BRANCH  46  47
ATOM     47  O   UNL     1      97.370  83.264  74.256  1.00  0.00    -0.508 OA
ATOM     48  H   UNL     1      97.085  84.159  73.998  1.00  0.00     0.293 HD
ENDBRANCH  46  47
ENDBRANCH  40  41
ENDBRANCH  38  40
ENDBRANCH  37  38
ENDBRANCH   1  37
TORSDOF 10
ENDMDL
MODEL 7
REMARK VINA RESULT:    -7.097     14.587     20.126
REMARK INTER + INTRA:         -12.229
REMARK INTER:                 -12.385
REMARK INTRA:                   0.156
REMARK UNBOUND:                -0.154
REMARK SMILES C=C(C)[C@]12C[C@@H](C)[C@@]34O[C@](Cc5ccccc5)(O[C@@H]1[C@@H]3C=C(COC(=O)Cc1ccc(O)cc1)C[C@]1(O)C(=O)C(C)=C[C@@H]41)O2
REMARK SMILES IDX 23 1 22 2 21 3 20 4 9 5 8 6 10 7 6 8 18 10 44 11 19 12 5 13
REMARK SMILES IDX 7 14 4 15 11 16 12 17 13 18 17 19 14 20 16 21 15 22 2 23
REMARK SMILES IDX 3 24 1 25 35 26 36 27 43 28 38 29 42 30 39 32 40 33 41 34
REMARK SMILES IDX 37 35 24 37 25 38 26 39 27 40 28 41 29 42 34 43 30 44 33 45
REMARK SMILES IDX 31 46 32 47
REMARK H PARENT 37 36 32 48
REMARK Flexibility Score: 90.00
ROOT
ATOM      1  C   UNL     1      92.381  96.334  76.835  1.00  0.00     0.264 C 
ENDROOT
BRANCH   1   2
ATOM      2  C   UNL     1      93.674  96.952  76.355  1.00  0.00    -0.033 C 
ATOM      3  C   UNL     1      93.845  97.183  75.037  1.00  0.00    -0.015 C 
BRANCH   3   4
ATOM      4  C   UNL     1      95.063  97.717  74.300  1.00  0.00     0.078 C 
ATOM      5  O   UNL     1      94.791 100.170  74.140  1.00  0.00    -0.319 OA
ATOM      6  C   UNL     1      95.632  99.123  74.716  1.00  0.00     0.095 CG0
ATOM      7  C   UNL     1      94.382  99.950  72.776  1.00  0.00     0.289 C 
ATOM      8  C   UNL     1      97.096  99.242  74.122  1.00  0.00     0.023 C 
ATOM      9  G   UNL     1      95.516  99.334  76.254  1.00  0.00     0.000 G0
ATOM     10  O   UNL     1      93.680  98.717  72.638  1.00  0.00    -0.320 OA
ATOM     11  O   UNL     1      95.491  99.863  71.885  1.00  0.00    -0.313 OA
ATOM     12  C   UNL     1      94.769  97.791  72.781  1.00  0.00     0.170 C 
ATOM     13  C   UNL     1      97.225  98.489  72.762  1.00  0.00     0.049 C 
ATOM     14  C   UNL     1      97.631 100.676  73.963  1.00  0.00     0.011 C 
ATOM     15  C   UNL     1      95.905  98.484  71.991  1.00  0.00     0.122 C 
BRANCH   7  16
ATOM     16  C   UNL     1      93.487 101.099  72.357  1.00  0.00     0.135 C 
BRANCH  16  17
ATOM     17  C   UNL     1      92.722 100.790  71.094  1.00  0.00    -0.040 A 
ATOM     18  C   UNL     1      93.358 100.868  69.856  1.00  0.00     0.004 A 
ATOM     19  C   UNL     1      91.378 100.426  71.167  1.00  0.00     0.004 A 
ATOM     20  C   UNL     1      92.650 100.582  68.688  1.00  0.00     0.000 A 
ATOM     21  C   UNL     1      90.670 100.140  69.999  1.00  0.00     0.000 A 
ATOM     22  C   UNL     1      91.306 100.218  68.761  1.00  0.00     0.000 A 
ENDBRANCH  16  17
ENDBRANCH   7  16
BRANCH  15  23
ATOM     23  C   UNL     1      96.048  97.929  70.611  1.00  0.00    -0.046 C 
ATOM     24  C   UNL     1      96.117  98.933  69.498  1.00  0.00     0.042 C 
ATOM     25  C   UNL     1      96.112  96.610  70.380  1.00  0.00     0.010 C 
ENDBRANCH  15  23
ENDBRANCH   3   4
BRANCH   2  26
ATOM     26  C   UNL     1      94.647  97.249  77.481  1.00  0.00     0.078 C 
BRANCH  26  27
ATOM     27  C   UNL     1      95.871  98.096  77.140  1.00  0.00     0.140 C 
ATOM     28  C   UNL     1      95.512  99.316  76.267  1.00  0.00     0.086 CG0
ATOM     29  C   UNL     1      96.488  98.741  78.363  1.00  0.00     0.190 C 
ATOM     30  C   UNL     1      96.252 100.447  76.925  1.00  0.00    -0.010 C 
ATOM     31  G   UNL     1      95.634  99.117  74.728  1.00  0.00     0.000 G0
ATOM     32  O   UNL     1      96.757  98.167  79.408  1.00  0.00    -0.291 OA
ATOM     33  C   UNL     1      96.787 100.165  78.117  1.00  0.00    -0.008 C 
ATOM     34  C   UNL     1      97.501 101.039  79.071  1.00  0.00     0.048 C 
BRANCH  27  35
ATOM     35  O   UNL     1      96.920  97.302  76.611  1.00  0.00    -0.381 OA
ATOM     36  H   UNL     1      97.408  97.833  75.959  1.00  0.00     0.212 HD
ENDBRANCH  27  35
ENDBRANCH  26  27
ENDBRANCH   2  26
ENDBRANCH   1   2
BRANCH   1  37
ATOM     37  O   UNL     1      91.705  95.757  75.738  1.00  0.00    -0.461 OA
BRANCH  37  38
ATOM     38  C   UNL     1      90.976  94.621  76.004  1.00  0.00     0.310 C 
ATOM     39  O   UNL     1      90.765  94.166  77.119  1.00  0.00    -0.252 OA
BRANCH  38  40
ATOM     40  C   UNL     1      90.481  94.026  74.707  1.00  0.00     0.158 C 
BRANCH  40  41
ATOM     41  C   UNL     1      90.273  92.536  74.785  1.00  0.00    -0.037 A 
ATOM     42  C   UNL     1      89.521  91.990  75.826  1.00  0.00     0.008 A 
ATOM     43  C   UNL     1      90.833  91.701  73.819  1.00  0.00     0.008 A 
ATOM     44  C   UNL     1      89.330  90.610  75.899  1.00  0.00     0.046 A 
ATOM     45  C   UNL     1      90.642  90.321  73.891  1.00  0.00     0.046 A 
ATOM     46  C   UNL     1      89.891  89.776  74.931  1.00  0.00     0.115 A 
BRANCH  46  47
ATOM     47  O   UNL     1      89.705  88.430  75.003  1.00  0.00    -0.508 OA
ATOM     48  H   UNL     1      90.558  88.003  75.195  1.00  0.00     0.293 HD
ENDBRANCH  46  47
ENDBRANCH  40  41
ENDBRANCH  38  40
ENDBRANCH  37  38
ENDBRANCH   1  37
TORSDOF 10
ENDMDL
MODEL 8
REMARK VINA RESULT:    -7.088     17.020     22.810
REMARK INTER + INTRA:         -12.215
REMARK INTER:                 -12.346
REMARK INTRA:                   0.132
REMARK UNBOUND:                -0.154
REMARK SMILES C=C(C)[C@]12C[C@@H](C)[C@@]34O[C@](Cc5ccccc5)(O[C@@H]1[C@@H]3C=C(COC(=O)Cc1ccc(O)cc1)C[C@]1(O)C(=O)C(C)=C[C@@H]41)O2
REMARK SMILES IDX 23 1 22 2 21 3 20 4 9 5 8 6 10 7 6 8 18 10 44 11 19 12 5 13
REMARK SMILES IDX 7 14 4 15 11 16 12 17 13 18 17 19 14 20 16 21 15 22 2 23
REMARK SMILES IDX 3 24 1 25 35 26 36 27 43 28 38 29 42 30 39 32 40 33 41 34
REMARK SMILES IDX 37 35 24 37 25 38 26 39 27 40 28 41 29 42 34 43 30 44 33 45
REMARK SMILES IDX 31 46 32 47
REMARK H PARENT 37 36 32 48
REMARK Flexibility Score: 90.00
ROOT
ATOM      1  C   UNL     1      94.928  96.958  73.210  1.00  0.00     0.264 C 
ENDROOT
BRANCH   1   2
ATOM      2  C   UNL     1      94.744  97.859  72.011  1.00  0.00    -0.033 C 
ATOM      3  C   UNL     1      93.618  98.595  71.906  1.00  0.00    -0.015 C 
BRANCH   3   4
ATOM      4  C   UNL     1      93.162  99.507  70.779  1.00  0.00     0.078 C 
ATOM      5  O   UNL     1      93.928 101.790  71.346  1.00  0.00    -0.319 OA
ATOM      6  C   UNL     1      94.088 100.712  70.371  1.00  0.00     0.095 CG0
ATOM      7  C   UNL     1      92.572 102.050  71.758  1.00  0.00     0.289 C 
ATOM      8  C   UNL     1      93.615 101.220  68.947  1.00  0.00     0.023 C 
ATOM      9  G   UNL     1      95.590 100.316  70.475  1.00  0.00     0.000 G0
ATOM     10  O   UNL     1      91.967 100.884  72.311  1.00  0.00    -0.320 OA
ATOM     11  O   UNL     1      91.738 102.437  70.669  1.00  0.00    -0.313 OA
ATOM     12  C   UNL     1      91.776 100.109  71.117  1.00  0.00     0.170 C 
ATOM     13  C   UNL     1      92.075 101.053  68.762  1.00  0.00     0.049 C 
ATOM     14  C   UNL     1      94.017 102.662  68.591  1.00  0.00     0.011 C 
ATOM     15  C   UNL     1      91.329 101.180  70.091  1.00  0.00     0.122 C 
BRANCH   7  16
ATOM     16  C   UNL     1      92.595 103.156  72.794  1.00  0.00     0.135 C 
BRANCH  16  17
ATOM     17  C   UNL     1      91.244 103.361  73.434  1.00  0.00    -0.040 A 
ATOM     18  C   UNL     1      90.660 104.627  73.440  1.00  0.00     0.004 A 
ATOM     19  C   UNL     1      90.581 102.284  74.019  1.00  0.00     0.004 A 
ATOM     20  C   UNL     1      89.411 104.817  74.031  1.00  0.00     0.000 A 
ATOM     21  C   UNL     1      89.331 102.473  74.611  1.00  0.00     0.000 A 
ATOM     22  C   UNL     1      88.747 103.739  74.617  1.00  0.00     0.000 A 
ENDBRANCH  16  17
ENDBRANCH   7  16
BRANCH  15  23
ATOM     23  C   UNL     1      89.845 101.204  69.916  1.00  0.00    -0.046 C 
ATOM     24  C   UNL     1      89.053 100.354  70.865  1.00  0.00     0.042 C 
ATOM     25  C   UNL     1      89.255 101.943  68.965  1.00  0.00     0.010 C 
ENDBRANCH  15  23
ENDBRANCH   3   4
BRANCH   2  26
ATOM     26  C   UNL     1      95.914  97.814  71.046  1.00  0.00     0.078 C 
BRANCH  26  27
ATOM     27  C   UNL     1      95.948  98.867  69.941  1.00  0.00     0.140 C 
ATOM     28  C   UNL     1      95.601 100.276  70.466  1.00  0.00     0.086 CG0
ATOM     29  C   UNL     1      97.337  99.066  69.371  1.00  0.00     0.190 C 
ATOM     30  C   UNL     1      96.656 101.150  69.847  1.00  0.00    -0.010 C 
ATOM     31  G   UNL     1      94.106 100.696  70.364  1.00  0.00     0.000 G0
ATOM     32  O   UNL     1      98.087  98.172  69.007  1.00  0.00    -0.291 OA
ATOM     33  C   UNL     1      97.660 100.500  69.250  1.00  0.00    -0.008 C 
ATOM     34  C   UNL     1      98.889 101.022  68.619  1.00  0.00     0.048 C 
BRANCH  27  35
ATOM     35  O   UNL     1      95.177  98.468  68.820  1.00  0.00    -0.381 OA
ATOM     36  H   UNL     1      94.599  99.207  68.566  1.00  0.00     0.212 HD
ENDBRANCH  27  35
ENDBRANCH  26  27
ENDBRANCH   2  26
ENDBRANCH   1   2
BRANCH   1  37
ATOM     37  O   UNL     1      94.059  97.372  74.243  1.00  0.00    -0.461 OA
BRANCH  37  38
ATOM     38  C   UNL     1      94.448  97.062  75.525  1.00  0.00     0.310 C 
ATOM     39  O   UNL     1      95.596  96.823  75.873  1.00  0.00    -0.252 OA
BRANCH  38  40
ATOM     40  C   UNL     1      93.241  97.063  76.432  1.00  0.00     0.158 C 
BRANCH  40  41
ATOM     41  C   UNL     1      92.434  95.794  76.338  1.00  0.00    -0.037 A 
ATOM     42  C   UNL     1      92.148  95.240  75.090  1.00  0.00     0.008 A 
ATOM     43  C   UNL     1      91.974  95.172  77.499  1.00  0.00     0.008 A 
ATOM     44  C   UNL     1      91.400  94.065  75.003  1.00  0.00     0.046 A 
ATOM     45  C   UNL     1      91.226  93.997  77.412  1.00  0.00     0.046 A 
ATOM     46  C   UNL     1      90.939  93.444  76.165  1.00  0.00     0.115 A 
BRANCH  46  47
ATOM     47  O   UNL     1      90.210  92.298  76.080  1.00  0.00    -0.508 OA
ATOM     48  H   UNL     1      89.358  92.498  75.654  1.00  0.00     0.293 HD
ENDBRANCH  46  47
ENDBRANCH  40  41
ENDBRANCH  38  40
ENDBRANCH  37  38
ENDBRANCH   1  37
TORSDOF 10
ENDMDL
MODEL 9
REMARK VINA RESULT:    -6.345     15.846     19.065
REMARK INTER + INTRA:         -10.950
REMARK INTER:                 -11.221
REMARK INTRA:                   0.271
REMARK UNBOUND:                -0.154
REMARK SMILES C=C(C)[C@]12C[C@@H](C)[C@@]34O[C@](Cc5ccccc5)(O[C@@H]1[C@@H]3C=C(COC(=O)Cc1ccc(O)cc1)C[C@]1(O)C(=O)C(C)=C[C@@H]41)O2
REMARK SMILES IDX 23 1 22 2 21 3 20 4 9 5 8 6 10 7 6 8 18 10 44 11 19 12 5 13
REMARK SMILES IDX 7 14 4 15 11 16 12 17 13 18 17 19 14 20 16 21 15 22 2 23
REMARK SMILES IDX 3 24 1 25 35 26 36 27 43 28 38 29 42 30 39 32 40 33 41 34
REMARK SMILES IDX 37 35 24 37 25 38 26 39 27 40 28 41 29 42 34 43 30 44 33 45
REMARK SMILES IDX 31 46 32 47
REMARK H PARENT 37 36 32 48
REMARK Flexibility Score: 90.00
ROOT
ATOM      1  C   UNL     1      96.151  96.834  79.770  1.00  0.00     0.264 C 
ENDROOT
BRANCH   1   2
ATOM      2  C   UNL     1      96.388  98.323  79.876  1.00  0.00    -0.033 C 
ATOM      3  C   UNL     1      95.932  98.987  80.958  1.00  0.00    -0.015 C 
BRANCH   3   4
ATOM      4  C   UNL     1      95.973 100.476  81.265  1.00  0.00     0.078 C 
ATOM      5  O   UNL     1      98.026 100.884  82.582  1.00  0.00    -0.319 OA
ATOM      6  C   UNL     1      97.372 101.192  81.311  1.00  0.00     0.095 CG0
ATOM      7  C   UNL     1      97.171 100.930  83.741  1.00  0.00     0.289 C 
ATOM      8  C   UNL     1      97.115 102.753  81.220  1.00  0.00     0.023 C 
ATOM      9  G   UNL     1      98.329 100.608  80.231  1.00  0.00     0.000 G0
ATOM     10  O   UNL     1      96.067 100.040  83.605  1.00  0.00    -0.320 OA
ATOM     11  O   UNL     1      96.602 102.221  83.944  1.00  0.00    -0.313 OA
ATOM     12  C   UNL     1      95.290 100.750  82.628  1.00  0.00     0.170 C 
ATOM     13  C   UNL     1      95.779 103.154  81.916  1.00  0.00     0.049 C 
ATOM     14  C   UNL     1      98.253 103.643  81.750  1.00  0.00     0.011 C 
ATOM     15  C   UNL     1      95.445 102.222  83.082  1.00  0.00     0.122 C 
BRANCH   7  16
ATOM     16  C   UNL     1      97.994 100.545  84.954  1.00  0.00     0.135 C 
BRANCH  16  17
ATOM     17  C   UNL     1      98.644  99.193  84.791  1.00  0.00    -0.040 A 
ATOM     18  C   UNL     1      99.504  98.709  85.776  1.00  0.00     0.004 A 
ATOM     19  C   UNL     1      98.384  98.428  83.655  1.00  0.00     0.004 A 
ATOM     20  C   UNL     1     100.105  97.459  85.626  1.00  0.00     0.000 A 
ATOM     21  C   UNL     1      98.985  97.177  83.504  1.00  0.00     0.000 A 
ATOM     22  C   UNL     1      99.845  96.694  84.489  1.00  0.00     0.000 A 
ENDBRANCH  16  17
ENDBRANCH   7  16
BRANCH  15  23
ATOM     23  C   UNL     1      94.269 102.693  83.874  1.00  0.00    -0.046 C 
ATOM     24  C   UNL     1      94.332 102.458  85.355  1.00  0.00     0.042 C 
ATOM     25  C   UNL     1      93.217 103.290  83.296  1.00  0.00     0.010 C 
ENDBRANCH  15  23
ENDBRANCH   3   4
BRANCH   2  26
ATOM     26  C   UNL     1      97.152  98.891  78.694  1.00  0.00     0.078 C 
BRANCH  26  27
ATOM     27  C   UNL     1      97.676 100.319  78.824  1.00  0.00     0.140 C 
ATOM     28  C   UNL     1      98.312 100.585  80.204  1.00  0.00     0.086 CG0
ATOM     29  C   UNL     1      98.822 100.604  77.877  1.00  0.00     0.190 C 
ATOM     30  C   UNL     1      99.595 101.293  79.867  1.00  0.00    -0.010 C 
ATOM     31  G   UNL     1      97.371 101.185  81.289  1.00  0.00     0.000 G0
ATOM     32  O   UNL     1      98.834 100.349  76.682  1.00  0.00    -0.291 OA
ATOM     33  C   UNL     1      99.924 101.297  78.572  1.00  0.00    -0.008 C 
ATOM     34  C   UNL     1     101.132 101.817  77.898  1.00  0.00     0.048 C 
BRANCH  27  35
ATOM     35  O   UNL     1      96.689 101.269  78.456  1.00  0.00    -0.381 OA
ATOM     36  H   UNL     1      96.518 101.845  79.220  1.00  0.00     0.212 HD
ENDBRANCH  27  35
ENDBRANCH  26  27
ENDBRANCH   2  26
ENDBRANCH   1   2
BRANCH   1  37
ATOM     37  O   UNL     1      96.375  96.420  78.439  1.00  0.00    -0.461 OA
BRANCH  37  38
ATOM     38  C   UNL     1      95.456  95.542  77.913  1.00  0.00     0.310 C 
ATOM     39  O   UNL     1      95.545  94.323  77.956  1.00  0.00    -0.252 OA
BRANCH  38  40
ATOM     40  C   UNL     1      94.326  96.315  77.278  1.00  0.00     0.158 C 
BRANCH  40  41
ATOM     41  C   UNL     1      93.147  95.447  76.920  1.00  0.00    -0.037 A 
ATOM     42  C   UNL     1      92.873  95.160  75.583  1.00  0.00     0.008 A 
ATOM     43  C   UNL     1      92.330  94.931  77.925  1.00  0.00     0.008 A 
ATOM     44  C   UNL     1      91.782  94.357  75.251  1.00  0.00     0.046 A 
ATOM     45  C   UNL     1      91.238  94.128  77.594  1.00  0.00     0.046 A 
ATOM     46  C   UNL     1      90.964  93.841  76.257  1.00  0.00     0.115 A 
BRANCH  46  47
ATOM     47  O   UNL     1      89.899  93.058  75.934  1.00  0.00    -0.508 OA
ATOM     48  H   UNL     1      89.875  92.941  74.968  1.00  0.00     0.293 HD
ENDBRANCH  46  47
ENDBRANCH  40  41
ENDBRANCH  38  40
ENDBRANCH  37  38
ENDBRANCH   1  37
TORSDOF 10
ENDMDL
MODEL 10
REMARK VINA RESULT:    -6.047     15.292     18.416
REMARK INTER + INTRA:         -10.444
REMARK INTER:                  -9.808
REMARK INTRA:                  -0.635
REMARK UNBOUND:                -0.154
REMARK SMILES C=C(C)[C@]12C[C@@H](C)[C@@]34O[C@](Cc5ccccc5)(O[C@@H]1[C@@H]3C=C(COC(=O)Cc1ccc(O)cc1)C[C@]1(O)C(=O)C(C)=C[C@@H]41)O2
REMARK SMILES IDX 23 1 22 2 21 3 20 4 9 5 8 6 10 7 6 8 18 10 44 11 19 12 5 13
REMARK SMILES IDX 7 14 4 15 11 16 12 17 13 18 17 19 14 20 16 21 15 22 2 23
REMARK SMILES IDX 3 24 1 25 35 26 36 27 43 28 38 29 42 30 39 32 40 33 41 34
REMARK SMILES IDX 37 35 24 37 25 38 26 39 27 40 28 41 29 42 34 43 30 44 33 45
REMARK SMILES IDX 31 46 32 47
REMARK H PARENT 37 36 32 48
REMARK Flexibility Score: 90.00
ROOT
ATOM      1  C   UNL     1      96.293  97.120  77.650  1.00  0.00     0.264 C 
ENDROOT
BRANCH   1   2
ATOM      2  C   UNL     1      97.042  98.219  78.367  1.00  0.00    -0.033 C 
ATOM      3  C   UNL     1      96.692  98.540  79.630  1.00  0.00    -0.015 C 
BRANCH   3   4
ATOM      4  C   UNL     1      97.229  99.641  80.531  1.00  0.00     0.078 C 
ATOM      5  O   UNL     1      99.071  98.655  81.854  1.00  0.00    -0.319 OA
ATOM      6  C   UNL     1      98.771  99.667  80.843  1.00  0.00     0.095 CG0
ATOM      7  C   UNL     1      98.132  98.576  82.943  1.00  0.00     0.289 C 
ATOM      8  C   UNL     1      99.119 101.102  81.418  1.00  0.00     0.023 C 
ATOM      9  G   UNL     1      99.595  99.228  79.598  1.00  0.00     0.000 G0
ATOM     10  O   UNL     1      96.812  98.324  82.471  1.00  0.00    -0.320 OA
ATOM     11  O   UNL     1      98.052  99.794  83.680  1.00  0.00    -0.313 OA
ATOM     12  C   UNL     1      96.502  99.604  81.897  1.00  0.00     0.170 C 
ATOM     13  C   UNL     1      97.935 101.689  82.246  1.00  0.00     0.049 C 
ATOM     14  C   UNL     1     100.412 101.186  82.248  1.00  0.00     0.011 C 
ATOM     15  C   UNL     1      97.117 100.588  82.922  1.00  0.00     0.122 C 
BRANCH   7  16
ATOM     16  C   UNL     1      98.569  97.456  83.866  1.00  0.00     0.135 C 
BRANCH  16  17
ATOM     17  C   UNL     1      99.791  97.827  84.669  1.00  0.00    -0.040 A 
ATOM     18  C   UNL     1      99.688  98.026  86.045  1.00  0.00     0.004 A 
ATOM     19  C   UNL     1     101.024  97.972  84.034  1.00  0.00     0.004 A 
ATOM     20  C   UNL     1     100.818  98.370  86.788  1.00  0.00     0.000 A 
ATOM     21  C   UNL     1     102.155  98.315  84.776  1.00  0.00     0.000 A 
ATOM     22  C   UNL     1     102.051  98.514  86.152  1.00  0.00     0.000 A 
ENDBRANCH  16  17
ENDBRANCH   7  16
BRANCH  15  23
ATOM     23  C   UNL     1      96.091 101.132  83.863  1.00  0.00    -0.046 C 
ATOM     24  C   UNL     1      96.572 101.469  85.243  1.00  0.00     0.042 C 
ATOM     25  C   UNL     1      94.814 101.308  83.496  1.00  0.00     0.010 C 
ENDBRANCH  15  23
ENDBRANCH   3   4
BRANCH   2  26
ATOM     26  C   UNL     1      98.145  98.836  77.527  1.00  0.00     0.078 C 
BRANCH  26  27
ATOM     27  C   UNL     1      99.112  99.784  78.231  1.00  0.00     0.140 C 
ATOM     28  C   UNL     1      99.593  99.226  79.587  1.00  0.00     0.086 CG0
ATOM     29  C   UNL     1     100.411  99.957  77.473  1.00  0.00     0.190 C 
ATOM     30  C   UNL     1     101.077  99.463  79.558  1.00  0.00    -0.010 C 
ATOM     31  G   UNL     1      98.774  99.664  80.837  1.00  0.00     0.000 G0
ATOM     32  O   UNL     1     100.507 100.204  76.280  1.00  0.00    -0.291 OA
ATOM     33  C   UNL     1     101.572  99.847  78.377  1.00  0.00    -0.008 C 
ATOM     34  C   UNL     1     102.970 100.087  77.964  1.00  0.00     0.048 C 
BRANCH  27  35
ATOM     35  O   UNL     1      98.587 101.099  78.307  1.00  0.00    -0.381 OA
ATOM     36  H   UNL     1      97.795 101.145  77.745  1.00  0.00     0.212 HD
ENDBRANCH  27  35
ENDBRANCH  26  27
ENDBRANCH   2  26
ENDBRANCH   1   2
BRANCH   1  37
ATOM     37  O   UNL     1      96.471  95.904  78.344  1.00  0.00    -0.461 OA
BRANCH  37  38
ATOM     38  C   UNL     1      95.341  95.145  78.541  1.00  0.00     0.310 C 
ATOM     39  O   UNL     1      95.334  93.962  78.850  1.00  0.00    -0.252 OA
BRANCH  38  40
ATOM     40  C   UNL     1      94.116  95.999  78.316  1.00  0.00     0.158 C 
BRANCH  40  41
ATOM     41  C   UNL     1      93.103  95.347  77.411  1.00  0.00    -0.037 A 
ATOM     42  C   UNL     1      93.363  95.224  76.046  1.00  0.00     0.008 A 
ATOM     43  C   UNL     1      91.904  94.866  77.938  1.00  0.00     0.008 A 
ATOM     44  C   UNL     1      92.425  94.620  75.208  1.00  0.00     0.046 A 
ATOM     45  C   UNL     1      90.966  94.262  77.100  1.00  0.00     0.046 A 
ATOM     46  C   UNL     1      91.226  94.140  75.736  1.00  0.00     0.115 A 
BRANCH  46  47
ATOM     47  O   UNL     1      90.311  93.552  74.918  1.00  0.00    -0.508 OA
ATOM     48  H   UNL     1      90.277  92.599  75.116  1.00  0.00     0.293 HD
ENDBRANCH  46  47
ENDBRANCH  40  41
ENDBRANCH  38  40
ENDBRANCH  37  38
ENDBRANCH   1  37
TORSDOF 10
ENDMDL
