MODEL 1
REMARK VINA RESULT:    -6.152      0.000      0.000
REMARK INTER + INTRA:         -10.206
REMARK INTER:                  -9.569
REMARK INTRA:                  -0.637
REMARK UNBOUND:                -0.637
REMARK SMILES COc1cc(CNC(=O)CCCCCC(C)C)ccc1O
REMARK SMILES IDX 10 1 8 2 7 3 9 5 6 6 5 7 3 8 20 9 4 10 19 11 18 12 2 13 1 14
REMARK SMILES IDX 21 15 11 17 12 18 13 19 14 20 15 21 16 22 17 23
REMARK H PARENT 7 4 21 16
REMARK Flexibility Score: inf
ROOT
ATOM      1  C   UNL     1      92.462 100.350  74.315  1.00  0.00     0.100 C 
ENDROOT
BRANCH   1   2
ATOM      2  C   UNL     1      93.385  99.494  75.088  1.00  0.00     0.220 C 
ATOM      3  N   UNL     1      93.283  98.139  74.990  1.00  0.00    -0.352 N 
ATOM      4  H   UNL     1      92.475  97.809  74.481  1.00  0.00     0.163 HD
ATOM      5  O   UNL     1      94.275 100.036  75.789  1.00  0.00    -0.275 OA
BRANCH   3   6
ATOM      6  C   UNL     1      94.210  97.202  75.539  1.00  0.00     0.151 C 
BRANCH   6   7
ATOM      7  C   UNL     1      93.586  96.262  76.509  1.00  0.00    -0.025 A 
ATOM      8  C   UNL     1      91.583  95.335  77.592  1.00  0.00     0.160 A 
ATOM      9  C   UNL     1      92.393  94.426  78.307  1.00  0.00     0.157 A 
ATOM     10  C   UNL     1      92.186  96.259  76.713  1.00  0.00     0.056 A 
ATOM     11  C   UNL     1      93.789  94.439  78.132  1.00  0.00     0.050 A 
ATOM     12  C   UNL     1      94.381  95.345  77.236  1.00  0.00     0.009 A 
BRANCH   8  13
ATOM     13  O   UNL     1      90.224  95.352  77.763  1.00  0.00    -0.493 OA
ATOM     14  C   UNL     1      89.501  94.621  76.754  1.00  0.00     0.278 C 
ENDBRANCH   8  13
BRANCH   9  15
ATOM     15  O   UNL     1      91.823  93.535  79.156  1.00  0.00    -0.504 OA
ATOM     16  H   UNL     1      90.929  93.342  78.866  1.00  0.00     0.293 HD
ENDBRANCH   9  15
ENDBRANCH   6   7
ENDBRANCH   3   6
ENDBRANCH   1   2
BRANCH   1  17
ATOM     17  C   UNL     1      92.484 100.094  72.784  1.00  0.00     0.010 C 
BRANCH  17  18
ATOM     18  C   UNL     1      91.175 100.578  72.103  1.00  0.00     0.001 C 
BRANCH  18  19
ATOM     19  C   UNL     1      90.752  99.706  70.891  1.00  0.00     0.000 C 
BRANCH  19  20
ATOM     20  C   UNL     1      89.316  99.129  71.054  1.00  0.00     0.003 C 
BRANCH  20  21
ATOM     21  C   UNL     1      88.947  97.985  70.054  1.00  0.00    -0.017 C 
ATOM     22  C   UNL     1      89.831  96.727  70.299  1.00  0.00     0.007 C 
ATOM     23  C   UNL     1      89.048  98.427  68.566  1.00  0.00     0.007 C 
ENDBRANCH  20  21
ENDBRANCH  19  20
ENDBRANCH  18  19
ENDBRANCH  17  18
ENDBRANCH   1  17
TORSDOF 10
ENDMDL
MODEL 2
REMARK VINA RESULT:    -5.946     31.581     33.900
REMARK INTER + INTRA:          -9.885
REMARK INTER:                  -8.946
REMARK INTRA:                  -0.940
REMARK UNBOUND:                -0.637
REMARK SMILES COc1cc(CNC(=O)CCCCCC(C)C)ccc1O
REMARK SMILES IDX 10 1 8 2 7 3 9 5 6 6 5 7 3 8 20 9 4 10 19 11 18 12 2 13 1 14
REMARK SMILES IDX 21 15 11 17 12 18 13 19 14 20 15 21 16 22 17 23
REMARK H PARENT 7 4 21 16
REMARK Flexibility Score: inf
ROOT
ATOM      1  C   UNL     1      62.203  81.378  73.736  1.00  0.00     0.100 C 
ENDROOT
BRANCH   1   2
ATOM      2  C   UNL     1      61.776  82.677  74.297  1.00  0.00     0.220 C 
ATOM      3  N   UNL     1      61.288  83.638  73.463  1.00  0.00    -0.352 N 
ATOM      4  H   UNL     1      61.378  83.433  72.479  1.00  0.00     0.163 HD
ATOM      5  O   UNL     1      61.834  82.853  75.539  1.00  0.00    -0.275 OA
BRANCH   3   6
ATOM      6  C   UNL     1      60.684  84.862  73.884  1.00  0.00     0.151 C 
BRANCH   6   7
ATOM      7  C   UNL     1      59.908  85.532  72.806  1.00  0.00    -0.025 A 
ATOM      8  C   UNL     1      59.028  87.581  71.770  1.00  0.00     0.160 A 
ATOM      9  C   UNL     1      58.487  86.814  70.717  1.00  0.00     0.157 A 
ATOM     10  C   UNL     1      59.719  86.934  72.817  1.00  0.00     0.056 A 
ATOM     11  C   UNL     1      58.646  85.416  70.710  1.00  0.00     0.050 A 
ATOM     12  C   UNL     1      59.356  84.780  71.743  1.00  0.00     0.009 A 
BRANCH   8  13
ATOM     13  O   UNL     1      58.867  88.941  71.806  1.00  0.00    -0.493 OA
ATOM     14  C   UNL     1      60.018  89.650  72.306  1.00  0.00     0.278 C 
ENDBRANCH   8  13
BRANCH   9  15
ATOM     15  O   UNL     1      57.819  87.426  69.707  1.00  0.00    -0.504 OA
ATOM     16  H   UNL     1      58.020  88.364  69.713  1.00  0.00     0.293 HD
ENDBRANCH   9  15
ENDBRANCH   6   7
ENDBRANCH   3   6
ENDBRANCH   1   2
BRANCH   1  17
ATOM     17  C   UNL     1      63.736  81.243  73.533  1.00  0.00     0.010 C 
BRANCH  17  18
ATOM     18  C   UNL     1      64.123  81.317  72.030  1.00  0.00     0.001 C 
BRANCH  18  19
ATOM     19  C   UNL     1      64.894  82.611  71.655  1.00  0.00     0.000 C 
BRANCH  19  20
ATOM     20  C   UNL     1      64.419  83.206  70.298  1.00  0.00     0.003 C 
BRANCH  20  21
ATOM     21  C   UNL     1      63.350  82.354  69.541  1.00  0.00    -0.017 C 
ATOM     22  C   UNL     1      63.994  81.585  68.350  1.00  0.00     0.007 C 
ATOM     23  C   UNL     1      62.145  83.202  69.039  1.00  0.00     0.007 C 
ENDBRANCH  20  21
ENDBRANCH  19  20
ENDBRANCH  18  19
ENDBRANCH  17  18
ENDBRANCH   1  17
TORSDOF 10
ENDMDL
MODEL 3
REMARK VINA RESULT:    -5.754     15.987     18.977
REMARK INTER + INTRA:          -9.586
REMARK INTER:                  -8.774
REMARK INTRA:                  -0.812
REMARK UNBOUND:                -0.637
REMARK SMILES COc1cc(CNC(=O)CCCCCC(C)C)ccc1O
REMARK SMILES IDX 10 1 8 2 7 3 9 5 6 6 5 7 3 8 20 9 4 10 19 11 18 12 2 13 1 14
REMARK SMILES IDX 21 15 11 17 12 18 13 19 14 20 15 21 16 22 17 23
REMARK H PARENT 7 4 21 16
REMARK Flexibility Score: inf
ROOT
ATOM      1  C   UNL     1      98.011  80.411  84.306  1.00  0.00     0.100 C 
ENDROOT
BRANCH   1   2
ATOM      2  C   UNL     1      98.758  80.720  83.069  1.00  0.00     0.220 C 
ATOM      3  N   UNL     1      99.067  82.016  82.780  1.00  0.00    -0.352 N 
ATOM      4  H   UNL     1      98.636  82.700  83.384  1.00  0.00     0.163 HD
ATOM      5  O   UNL     1      99.130  79.776  82.330  1.00  0.00    -0.275 OA
BRANCH   3   6
ATOM      6  C   UNL     1      99.925  82.439  81.720  1.00  0.00     0.151 C 
BRANCH   6   7
ATOM      7  C   UNL     1      99.184  82.843  80.494  1.00  0.00    -0.025 A 
ATOM      8  C   UNL     1      99.116  83.189  78.060  1.00  0.00     0.160 A 
ATOM      9  C   UNL     1      97.754  83.547  78.152  1.00  0.00     0.157 A 
ATOM     10  C   UNL     1      99.827  82.857  79.234  1.00  0.00     0.056 A 
ATOM     11  C   UNL     1      97.112  83.562  79.403  1.00  0.00     0.050 A 
ATOM     12  C   UNL     1      97.819  83.207  80.565  1.00  0.00     0.009 A 
BRANCH   8  13
ATOM     13  O   UNL     1      99.765  83.187  76.854  1.00  0.00    -0.493 OA
ATOM     14  C   UNL     1     101.152  83.566  76.939  1.00  0.00     0.278 C 
ENDBRANCH   8  13
BRANCH   9  15
ATOM     15  O   UNL     1      97.062  83.870  77.030  1.00  0.00    -0.504 OA
ATOM     16  H   UNL     1      97.480  83.462  76.268  1.00  0.00     0.293 HD
ENDBRANCH   9  15
ENDBRANCH   6   7
ENDBRANCH   3   6
ENDBRANCH   1   2
BRANCH   1  17
ATOM     17  C   UNL     1      97.526  81.661  85.088  1.00  0.00     0.010 C 
BRANCH  17  18
ATOM     18  C   UNL     1      96.420  81.298  86.118  1.00  0.00     0.001 C 
BRANCH  18  19
ATOM     19  C   UNL     1      95.637  82.532  86.641  1.00  0.00     0.000 C 
BRANCH  19  20
ATOM     20  C   UNL     1      95.937  83.814  85.812  1.00  0.00     0.003 C 
BRANCH  20  21
ATOM     21  C   UNL     1      96.611  84.975  86.614  1.00  0.00    -0.017 C 
ATOM     22  C   UNL     1      97.163  84.462  87.977  1.00  0.00     0.007 C 
ATOM     23  C   UNL     1      95.658  86.183  86.845  1.00  0.00     0.007 C 
ENDBRANCH  20  21
ENDBRANCH  19  20
ENDBRANCH  18  19
ENDBRANCH  17  18
ENDBRANCH   1  17
TORSDOF 10
ENDMDL
MODEL 4
REMARK VINA RESULT:    -5.673     15.891     19.235
REMARK INTER + INTRA:          -9.461
REMARK INTER:                  -8.755
REMARK INTRA:                  -0.706
REMARK UNBOUND:                -0.637
REMARK SMILES COc1cc(CNC(=O)CCCCCC(C)C)ccc1O
REMARK SMILES IDX 10 1 8 2 7 3 9 5 6 6 5 7 3 8 20 9 4 10 19 11 18 12 2 13 1 14
REMARK SMILES IDX 21 15 11 17 12 18 13 19 14 20 15 21 16 22 17 23
REMARK H PARENT 7 4 21 16
REMARK Flexibility Score: inf
ROOT
ATOM      1  C   UNL     1      97.898  80.777  84.399  1.00  0.00     0.100 C 
ENDROOT
BRANCH   1   2
ATOM      2  C   UNL     1      98.645  80.970  83.138  1.00  0.00     0.220 C 
ATOM      3  N   UNL     1      98.976  82.231  82.742  1.00  0.00    -0.352 N 
ATOM      4  H   UNL     1      98.560  82.971  83.289  1.00  0.00     0.163 HD
ATOM      5  O   UNL     1      98.997  79.961  82.479  1.00  0.00    -0.275 OA
BRANCH   3   6
ATOM      6  C   UNL     1      99.836  82.550  81.648  1.00  0.00     0.151 C 
BRANCH   6   7
ATOM      7  C   UNL     1      99.097  82.933  80.415  1.00  0.00    -0.025 A 
ATOM      8  C   UNL     1      99.044  83.274  77.980  1.00  0.00     0.160 A 
ATOM      9  C   UNL     1      97.672  83.596  78.058  1.00  0.00     0.157 A 
ATOM     10  C   UNL     1      99.752  82.963  79.161  1.00  0.00     0.056 A 
ATOM     11  C   UNL     1      97.017  83.595  79.303  1.00  0.00     0.050 A 
ATOM     12  C   UNL     1      97.722  83.261  80.472  1.00  0.00     0.009 A 
BRANCH   8  13
ATOM     13  O   UNL     1      99.704  83.289  76.780  1.00  0.00    -0.493 OA
ATOM     14  C   UNL     1      99.794  81.997  76.149  1.00  0.00     0.278 C 
ENDBRANCH   8  13
BRANCH   9  15
ATOM     15  O   UNL     1      96.983  83.899  76.930  1.00  0.00    -0.504 OA
ATOM     16  H   UNL     1      97.254  84.763  76.610  1.00  0.00     0.293 HD
ENDBRANCH   9  15
ENDBRANCH   6   7
ENDBRANCH   3   6
ENDBRANCH   1   2
BRANCH   1  17
ATOM     17  C   UNL     1      97.125  82.034  84.881  1.00  0.00     0.010 C 
BRANCH  17  18
ATOM     18  C   UNL     1      96.812  81.965  86.401  1.00  0.00     0.001 C 
BRANCH  18  19
ATOM     19  C   UNL     1      95.865  80.797  86.784  1.00  0.00     0.000 C 
BRANCH  19  20
ATOM     20  C   UNL     1      94.608  81.289  87.558  1.00  0.00     0.003 C 
BRANCH  20  21
ATOM     21  C   UNL     1      93.571  82.082  86.698  1.00  0.00    -0.017 C 
ATOM     22  C   UNL     1      93.095  83.364  87.443  1.00  0.00     0.007 C 
ATOM     23  C   UNL     1      92.344  81.219  86.283  1.00  0.00     0.007 C 
ENDBRANCH  20  21
ENDBRANCH  19  20
ENDBRANCH  18  19
ENDBRANCH  17  18
ENDBRANCH   1  17
TORSDOF 10
ENDMDL
MODEL 5
REMARK VINA RESULT:    -5.592      1.443      2.276
REMARK INTER + INTRA:          -9.334
REMARK INTER:                  -8.844
REMARK INTRA:                  -0.490
REMARK UNBOUND:                -0.637
REMARK SMILES COc1cc(CNC(=O)CCCCCC(C)C)ccc1O
REMARK SMILES IDX 10 1 8 2 7 3 9 5 6 6 5 7 3 8 20 9 4 10 19 11 18 12 2 13 1 14
REMARK SMILES IDX 21 15 11 17 12 18 13 19 14 20 15 21 16 22 17 23
REMARK H PARENT 7 4 21 16
REMARK Flexibility Score: inf
ROOT
ATOM      1  C   UNL     1      92.575 100.067  74.478  1.00  0.00     0.100 C 
ENDROOT
BRANCH   1   2
ATOM      2  C   UNL     1      93.622  99.327  75.215  1.00  0.00     0.220 C 
ATOM      3  N   UNL     1      93.572  97.966  75.260  1.00  0.00    -0.352 N 
ATOM      4  H   UNL     1      92.727  97.559  74.886  1.00  0.00     0.163 HD
ATOM      5  O   UNL     1      94.560  99.968  75.748  1.00  0.00    -0.275 OA
BRANCH   3   6
ATOM      6  C   UNL     1      94.600  97.124  75.782  1.00  0.00     0.151 C 
BRANCH   6   7
ATOM      7  C   UNL     1      94.117  96.204  76.847  1.00  0.00    -0.025 A 
ATOM      8  C   UNL     1      94.026  95.543  79.214  1.00  0.00     0.160 A 
ATOM      9  C   UNL     1      93.143  94.493  78.885  1.00  0.00     0.157 A 
ATOM     10  C   UNL     1      94.521  96.380  78.192  1.00  0.00     0.056 A 
ATOM     11  C   UNL     1      92.755  94.292  77.547  1.00  0.00     0.050 A 
ATOM     12  C   UNL     1      93.233  95.144  76.537  1.00  0.00     0.009 A 
BRANCH   8  13
ATOM     13  O   UNL     1      94.431  95.743  80.508  1.00  0.00    -0.493 OA
ATOM     14  C   UNL     1      95.141  96.980  80.710  1.00  0.00     0.278 C 
ENDBRANCH   8  13
BRANCH   9  15
ATOM     15  O   UNL     1      92.662  93.681  79.860  1.00  0.00    -0.504 OA
ATOM     16  H   UNL     1      92.640  94.159  80.692  1.00  0.00     0.293 HD
ENDBRANCH   9  15
ENDBRANCH   6   7
ENDBRANCH   3   6
ENDBRANCH   1   2
BRANCH   1  17
ATOM     17  C   UNL     1      92.635  99.893  72.937  1.00  0.00     0.010 C 
BRANCH  17  18
ATOM     18  C   UNL     1      91.241 100.098  72.283  1.00  0.00     0.001 C 
BRANCH  18  19
ATOM     19  C   UNL     1      91.099  99.402  70.904  1.00  0.00     0.000 C 
BRANCH  19  20
ATOM     20  C   UNL     1      89.938  98.365  70.884  1.00  0.00     0.003 C 
BRANCH  20  21
ATOM     21  C   UNL     1      88.871  98.590  69.764  1.00  0.00    -0.017 C 
ATOM     22  C   UNL     1      88.678  97.299  68.914  1.00  0.00     0.007 C 
ATOM     23  C   UNL     1      89.211  99.793  68.838  1.00  0.00     0.007 C 
ENDBRANCH  20  21
ENDBRANCH  19  20
ENDBRANCH  18  19
ENDBRANCH  17  18
ENDBRANCH   1  17
TORSDOF 10
ENDMDL
MODEL 6
REMARK VINA RESULT:    -5.560     30.094     31.754
REMARK INTER + INTRA:          -9.285
REMARK INTER:                  -8.622
REMARK INTRA:                  -0.663
REMARK UNBOUND:                -0.637
REMARK SMILES COc1cc(CNC(=O)CCCCCC(C)C)ccc1O
REMARK SMILES IDX 10 1 8 2 7 3 9 5 6 6 5 7 3 8 20 9 4 10 19 11 18 12 2 13 1 14
REMARK SMILES IDX 21 15 11 17 12 18 13 19 14 20 15 21 16 22 17 23
REMARK H PARENT 7 4 21 16
REMARK Flexibility Score: inf
ROOT
ATOM      1  C   UNL     1      63.678  81.117  73.368  1.00  0.00     0.100 C 
ENDROOT
BRANCH   1   2
ATOM      2  C   UNL     1      62.877  81.964  74.277  1.00  0.00     0.220 C 
ATOM      3  N   UNL     1      63.512  82.805  75.141  1.00  0.00    -0.352 N 
ATOM      4  H   UNL     1      64.514  82.689  75.188  1.00  0.00     0.163 HD
ATOM      5  O   UNL     1      61.625  81.921  74.203  1.00  0.00    -0.275 OA
BRANCH   3   6
ATOM      6  C   UNL     1      62.870  83.795  75.945  1.00  0.00     0.151 C 
BRANCH   6   7
ATOM      7  C   UNL     1      63.531  83.996  77.263  1.00  0.00    -0.025 A 
ATOM      8  C   UNL     1      63.383  84.462  79.673  1.00  0.00     0.160 A 
ATOM      9  C   UNL     1      64.782  84.312  79.785  1.00  0.00     0.157 A 
ATOM     10  C   UNL     1      62.769  84.322  78.410  1.00  0.00     0.056 A 
ATOM     11  C   UNL     1      65.552  84.013  78.646  1.00  0.00     0.050 A 
ATOM     12  C   UNL     1      64.931  83.851  77.396  1.00  0.00     0.009 A 
BRANCH   8  13
ATOM     13  O   UNL     1      62.618  84.772  80.766  1.00  0.00    -0.493 OA
ATOM     14  C   UNL     1      62.241  86.161  80.838  1.00  0.00     0.278 C 
ENDBRANCH   8  13
BRANCH   9  15
ATOM     15  O   UNL     1      65.382  84.447  80.994  1.00  0.00    -0.504 OA
ATOM     16  H   UNL     1      66.335  84.466  80.878  1.00  0.00     0.293 HD
ENDBRANCH   9  15
ENDBRANCH   6   7
ENDBRANCH   3   6
ENDBRANCH   1   2
BRANCH   1  17
ATOM     17  C   UNL     1      63.661  81.578  71.885  1.00  0.00     0.010 C 
BRANCH  17  18
ATOM     18  C   UNL     1      65.016  82.213  71.468  1.00  0.00     0.001 C 
BRANCH  18  19
ATOM     19  C   UNL     1      65.003  82.805  70.033  1.00  0.00     0.000 C 
BRANCH  19  20
ATOM     20  C   UNL     1      64.180  81.930  69.043  1.00  0.00     0.003 C 
BRANCH  20  21
ATOM     21  C   UNL     1      63.044  82.687  68.281  1.00  0.00    -0.017 C 
ATOM     22  C   UNL     1      63.638  83.628  67.192  1.00  0.00     0.007 C 
ATOM     23  C   UNL     1      62.111  83.493  69.231  1.00  0.00     0.007 C 
ENDBRANCH  20  21
ENDBRANCH  19  20
ENDBRANCH  18  19
ENDBRANCH  17  18
ENDBRANCH   1  17
TORSDOF 10
ENDMDL
MODEL 7
REMARK VINA RESULT:    -5.536      4.349      7.225
REMARK INTER + INTRA:          -9.248
REMARK INTER:                  -7.950
REMARK INTRA:                  -1.297
REMARK UNBOUND:                -0.637
REMARK SMILES COc1cc(CNC(=O)CCCCCC(C)C)ccc1O
REMARK SMILES IDX 10 1 8 2 7 3 9 5 6 6 5 7 3 8 20 9 4 10 19 11 18 12 2 13 1 14
REMARK SMILES IDX 21 15 11 17 12 18 13 19 14 20 15 21 16 22 17 23
REMARK H PARENT 7 4 21 16
REMARK Flexibility Score: inf
ROOT
ATOM      1  C   UNL     1      96.028  99.197  77.804  1.00  0.00     0.100 C 
ENDROOT
BRANCH   1   2
ATOM      2  C   UNL     1      95.214  98.414  76.851  1.00  0.00     0.220 C 
ATOM      3  N   UNL     1      95.389  97.065  76.772  1.00  0.00    -0.352 N 
ATOM      4  H   UNL     1      96.177  96.707  77.293  1.00  0.00     0.163 HD
ATOM      5  O   UNL     1      94.346  99.005  76.163  1.00  0.00    -0.275 OA
BRANCH   3   6
ATOM      6  C   UNL     1      94.560  96.171  76.029  1.00  0.00     0.151 C 
BRANCH   6   7
ATOM      7  C   UNL     1      93.569  95.453  76.876  1.00  0.00    -0.025 A 
ATOM      8  C   UNL     1      91.280  94.636  77.252  1.00  0.00     0.160 A 
ATOM      9  C   UNL     1      91.697  94.029  78.456  1.00  0.00     0.157 A 
ATOM     10  C   UNL     1      92.214  95.359  76.479  1.00  0.00     0.056 A 
ATOM     11  C   UNL     1      93.037  94.138  78.873  1.00  0.00     0.050 A 
ATOM     12  C   UNL     1      93.967  94.840  78.087  1.00  0.00     0.009 A 
BRANCH   8  13
ATOM     13  O   UNL     1      89.976  94.558  76.838  1.00  0.00    -0.493 OA
ATOM     14  C   UNL     1      89.718  93.469  75.931  1.00  0.00     0.278 C 
ENDBRANCH   8  13
BRANCH   9  15
ATOM     15  O   UNL     1      90.808  93.333  79.207  1.00  0.00    -0.504 OA
ATOM     16  H   UNL     1      91.017  92.397  79.165  1.00  0.00     0.293 HD
ENDBRANCH   9  15
ENDBRANCH   6   7
ENDBRANCH   3   6
ENDBRANCH   1   2
BRANCH   1  17
ATOM     17  C   UNL     1      97.119  98.373  78.539  1.00  0.00     0.010 C 
BRANCH  17  18
ATOM     18  C   UNL     1      97.166  98.710  80.055  1.00  0.00     0.001 C 
BRANCH  18  19
ATOM     19  C   UNL     1      97.353  97.462  80.958  1.00  0.00     0.000 C 
BRANCH  19  20
ATOM     20  C   UNL     1      96.610  96.214  80.398  1.00  0.00     0.003 C 
BRANCH  20  21
ATOM     21  C   UNL     1      95.391  95.734  81.251  1.00  0.00    -0.017 C 
ATOM     22  C   UNL     1      94.968  96.825  82.279  1.00  0.00     0.007 C 
ATOM     23  C   UNL     1      95.658  94.387  81.982  1.00  0.00     0.007 C 
ENDBRANCH  20  21
ENDBRANCH  19  20
ENDBRANCH  18  19
ENDBRANCH  17  18
ENDBRANCH   1  17
TORSDOF 10
ENDMDL
MODEL 8
REMARK VINA RESULT:    -5.487     15.947     17.553
REMARK INTER + INTRA:          -9.171
REMARK INTER:                  -8.524
REMARK INTRA:                  -0.647
REMARK UNBOUND:                -0.637
REMARK SMILES COc1cc(CNC(=O)CCCCCC(C)C)ccc1O
REMARK SMILES IDX 10 1 8 2 7 3 9 5 6 6 5 7 3 8 20 9 4 10 19 11 18 12 2 13 1 14
REMARK SMILES IDX 21 15 11 17 12 18 13 19 14 20 15 21 16 22 17 23
REMARK H PARENT 7 4 21 16
REMARK Flexibility Score: inf
ROOT
ATOM      1  C   UNL     1      97.427  83.463  79.660  1.00  0.00     0.100 C 
ENDROOT
BRANCH   1   2
ATOM      2  C   UNL     1      98.332  83.105  80.772  1.00  0.00     0.220 C 
ATOM      3  N   UNL     1      97.860  83.116  82.050  1.00  0.00    -0.352 N 
ATOM      4  H   UNL     1      96.935  83.507  82.158  1.00  0.00     0.163 HD
ATOM      5  O   UNL     1      99.509  82.755  80.510  1.00  0.00    -0.275 OA
BRANCH   3   6
ATOM      6  C   UNL     1      98.567  82.630  83.192  1.00  0.00     0.151 C 
BRANCH   6   7
ATOM      7  C   UNL     1      98.189  83.324  84.452  1.00  0.00    -0.025 A 
ATOM      8  C   UNL     1      98.620  83.831  86.820  1.00  0.00     0.160 A 
ATOM      9  C   UNL     1      97.507  84.698  86.835  1.00  0.00     0.157 A 
ATOM     10  C   UNL     1      98.943  83.136  85.635  1.00  0.00     0.056 A 
ATOM     11  C   UNL     1      96.734  84.873  85.672  1.00  0.00     0.050 A 
ATOM     12  C   UNL     1      97.075  84.196  84.489  1.00  0.00     0.009 A 
BRANCH   8  13
ATOM     13  O   UNL     1      99.374  83.632  87.946  1.00  0.00    -0.493 OA
ATOM     14  C   UNL     1     100.694  84.204  87.872  1.00  0.00     0.278 C 
ENDBRANCH   8  13
BRANCH   9  15
ATOM     15  O   UNL     1      97.187  85.370  87.969  1.00  0.00    -0.504 OA
ATOM     16  H   UNL     1      97.904  85.289  88.602  1.00  0.00     0.293 HD
ENDBRANCH   9  15
ENDBRANCH   6   7
ENDBRANCH   3   6
ENDBRANCH   1   2
BRANCH   1  17
ATOM     17  C   UNL     1      98.151  83.984  78.390  1.00  0.00     0.010 C 
BRANCH  17  18
ATOM     18  C   UNL     1      97.444  83.505  77.091  1.00  0.00     0.001 C 
BRANCH  18  19
ATOM     19  C   UNL     1      98.430  83.173  75.940  1.00  0.00     0.000 C 
BRANCH  19  20
ATOM     20  C   UNL     1      99.435  82.050  76.331  1.00  0.00     0.003 C 
BRANCH  20  21
ATOM     21  C   UNL     1     100.941  82.409  76.118  1.00  0.00    -0.017 C 
ATOM     22  C   UNL     1     101.354  83.622  77.003  1.00  0.00     0.007 C 
ATOM     23  C   UNL     1     101.290  82.692  74.628  1.00  0.00     0.007 C 
ENDBRANCH  20  21
ENDBRANCH  19  20
ENDBRANCH  18  19
ENDBRANCH  17  18
ENDBRANCH   1  17
TORSDOF 10
ENDMDL
MODEL 9
REMARK VINA RESULT:    -5.388     15.372     18.251
REMARK INTER + INTRA:          -9.017
REMARK INTER:                  -8.562
REMARK INTRA:                  -0.454
REMARK UNBOUND:                -0.637
REMARK SMILES COc1cc(CNC(=O)CCCCCC(C)C)ccc1O
REMARK SMILES IDX 10 1 8 2 7 3 9 5 6 6 5 7 3 8 20 9 4 10 19 11 18 12 2 13 1 14
REMARK SMILES IDX 21 15 11 17 12 18 13 19 14 20 15 21 16 22 17 23
REMARK H PARENT 7 4 21 16
REMARK Flexibility Score: inf
ROOT
ATOM      1  C   UNL     1      99.299  82.953  80.278  1.00  0.00     0.100 C 
ENDROOT
BRANCH   1   2
ATOM      2  C   UNL     1      98.625  83.173  78.982  1.00  0.00     0.220 C 
ATOM      3  N   UNL     1      99.292  83.817  77.982  1.00  0.00    -0.352 N 
ATOM      4  H   UNL     1     100.176  84.223  78.253  1.00  0.00     0.163 HD
ATOM      5  O   UNL     1      97.465  82.724  78.814  1.00  0.00    -0.275 OA
BRANCH   3   6
ATOM      6  C   UNL     1      98.831  83.943  76.636  1.00  0.00     0.151 C 
BRANCH   6   7
ATOM      7  C   UNL     1      99.938  84.083  75.651  1.00  0.00    -0.025 A 
ATOM      8  C   UNL     1     101.708  83.074  74.274  1.00  0.00     0.160 A 
ATOM      9  C   UNL     1     102.000  84.340  73.725  1.00  0.00     0.157 A 
ATOM     10  C   UNL     1     100.692  82.956  75.247  1.00  0.00     0.056 A 
ATOM     11  C   UNL     1     101.274  85.472  74.140  1.00  0.00     0.050 A 
ATOM     12  C   UNL     1     100.248  85.344  75.091  1.00  0.00     0.009 A 
BRANCH   8  13
ATOM     13  O   UNL     1     102.416  81.962  73.899  1.00  0.00    -0.493 OA
ATOM     14  C   UNL     1     101.712  81.108  72.976  1.00  0.00     0.278 C 
ENDBRANCH   8  13
BRANCH   9  15
ATOM     15  O   UNL     1     102.976  84.465  72.791  1.00  0.00    -0.504 OA
ATOM     16  H   UNL     1     102.811  85.245  72.258  1.00  0.00     0.293 HD
ENDBRANCH   9  15
ENDBRANCH   6   7
ENDBRANCH   3   6
ENDBRANCH   1   2
BRANCH   1  17
ATOM     17  C   UNL     1      98.409  83.243  81.517  1.00  0.00     0.010 C 
BRANCH  17  18
ATOM     18  C   UNL     1      98.612  82.178  82.630  1.00  0.00     0.001 C 
BRANCH  18  19
ATOM     19  C   UNL     1      98.475  82.752  84.065  1.00  0.00     0.000 C 
BRANCH  19  20
ATOM     20  C   UNL     1      97.245  83.694  84.207  1.00  0.00     0.003 C 
BRANCH  20  21
ATOM     21  C   UNL     1      96.833  84.026  85.678  1.00  0.00    -0.017 C 
ATOM     22  C   UNL     1      95.635  83.141  86.132  1.00  0.00     0.007 C 
ATOM     23  C   UNL     1      96.495  85.531  85.887  1.00  0.00     0.007 C 
ENDBRANCH  20  21
ENDBRANCH  19  20
ENDBRANCH  18  19
ENDBRANCH  17  18
ENDBRANCH   1  17
TORSDOF 10
ENDMDL
MODEL 10
REMARK VINA RESULT:    -5.373     15.781     19.614
REMARK INTER + INTRA:          -8.994
REMARK INTER:                  -8.075
REMARK INTRA:                  -0.919
REMARK UNBOUND:                -0.637
REMARK SMILES COc1cc(CNC(=O)CCCCCC(C)C)ccc1O
REMARK SMILES IDX 10 1 8 2 7 3 9 5 6 6 5 7 3 8 20 9 4 10 19 11 18 12 2 13 1 14
REMARK SMILES IDX 21 15 11 17 12 18 13 19 14 20 15 21 16 22 17 23
REMARK H PARENT 7 4 21 16
REMARK Flexibility Score: inf
ROOT
ATOM      1  C   UNL     1      97.845  81.256  84.446  1.00  0.00     0.100 C 
ENDROOT
BRANCH   1   2
ATOM      2  C   UNL     1      98.585  81.333  83.169  1.00  0.00     0.220 C 
ATOM      3  N   UNL     1      98.945  82.552  82.677  1.00  0.00    -0.352 N 
ATOM      4  H   UNL     1      98.554  83.342  83.170  1.00  0.00     0.163 HD
ATOM      5  O   UNL     1      98.904  80.270  82.584  1.00  0.00    -0.275 OA
BRANCH   3   6
ATOM      6  C   UNL     1      99.803  82.765  81.556  1.00  0.00     0.151 C 
BRANCH   6   7
ATOM      7  C   UNL     1      99.064  83.097  80.308  1.00  0.00    -0.025 A 
ATOM      8  C   UNL     1      99.021  83.378  77.865  1.00  0.00     0.160 A 
ATOM      9  C   UNL     1      97.640  83.664  77.925  1.00  0.00     0.157 A 
ATOM     10  C   UNL     1      99.728  83.115  79.058  1.00  0.00     0.056 A 
ATOM     11  C   UNL     1      96.976  83.675  79.165  1.00  0.00     0.050 A 
ATOM     12  C   UNL     1      97.680  83.388  80.347  1.00  0.00     0.009 A 
BRANCH   8  13
ATOM     13  O   UNL     1      99.691  83.381  76.670  1.00  0.00    -0.493 OA
ATOM     14  C   UNL     1      99.926  82.066  76.131  1.00  0.00     0.278 C 
ENDBRANCH   8  13
BRANCH   9  15
ATOM     15  O   UNL     1      96.952  83.920  76.784  1.00  0.00    -0.504 OA
ATOM     16  H   UNL     1      97.203  84.782  76.446  1.00  0.00     0.293 HD
ENDBRANCH   9  15
ENDBRANCH   6   7
ENDBRANCH   3   6
ENDBRANCH   1   2
BRANCH   1  17
ATOM     17  C   UNL     1      97.043  82.537  84.798  1.00  0.00     0.010 C 
BRANCH  17  18
ATOM     18  C   UNL     1      97.473  83.122  86.171  1.00  0.00     0.001 C 
BRANCH  18  19
ATOM     19  C   UNL     1      98.991  83.434  86.261  1.00  0.00     0.000 C 
BRANCH  19  20
ATOM     20  C   UNL     1      99.713  82.543  87.312  1.00  0.00     0.003 C 
BRANCH  20  21
ATOM     21  C   UNL     1     100.809  81.591  86.730  1.00  0.00    -0.017 C 
ATOM     22  C   UNL     1     100.600  80.132  87.231  1.00  0.00     0.007 C 
ATOM     23  C   UNL     1     102.255  82.065  87.054  1.00  0.00     0.007 C 
ENDBRANCH  20  21
ENDBRANCH  19  20
ENDBRANCH  18  19
ENDBRANCH  17  18
ENDBRANCH   1  17
TORSDOF 10
ENDMDL
