MODEL 1
REMARK VINA RESULT:    -7.862      0.000      0.000
REMARK INTER + INTRA:         -14.249
REMARK INTER:                 -13.378
REMARK INTRA:                  -0.871
REMARK UNBOUND:                -0.871
REMARK SMILES C=C(C)[C@]12C[C@@H](C)[C@@]34O[C@](Cc5ccccc5)(O[C@@H]1[C@@H]3C=C(COC(=O)Cc1ccc(O)cc1)C[C@]1(O)C(=O)C(C)=C[C@@H]41)O2
REMARK SMILES IDX 23 1 22 2 21 3 20 4 9 5 8 6 10 7 6 8 18 10 44 11 19 12 5 13
REMARK SMILES IDX 7 14 4 15 11 16 12 17 13 18 17 19 14 20 16 21 15 22 2 23
REMARK SMILES IDX 3 24 1 25 35 26 36 27 43 28 38 29 42 30 39 32 40 33 41 34
REMARK SMILES IDX 37 35 24 37 25 38 26 39 27 40 28 41 29 42 34 43 30 44 33 45
REMARK SMILES IDX 31 46 32 47
REMARK H PARENT 37 36 32 48
REMARK Flexibility Score: 90.00
ROOT
ATOM      1  C   UNL     1      94.628  98.466  74.997  1.00  0.00     0.264 C 
ENDROOT
BRANCH   1   2
ATOM      2  C   UNL     1      94.118  99.816  74.548  1.00  0.00    -0.033 C 
ATOM      3  C   UNL     1      93.609  99.949  73.306  1.00  0.00    -0.015 C 
BRANCH   3   4
ATOM      4  C   UNL     1      93.108 101.196  72.596  1.00  0.00     0.078 C 
ATOM      5  O   UNL     1      90.669 101.317  72.985  1.00  0.00    -0.319 OA
ATOM      6  C   UNL     1      91.930 102.007  73.250  1.00  0.00     0.095 CG0
ATOM      7  C   UNL     1      90.517 100.806  71.647  1.00  0.00     0.289 C 
ATOM      8  C   UNL     1      91.896 103.438  72.570  1.00  0.00     0.023 C 
ATOM      9  G   UNL     1      92.053 102.008  74.802  1.00  0.00     0.000 G0
ATOM     10  O   UNL     1      91.571  99.908  71.312  1.00  0.00    -0.320 OA
ATOM     11  O   UNL     1      90.563 101.838  70.664  1.00  0.00    -0.313 OA
ATOM     12  C   UNL     1      92.654 100.838  71.160  1.00  0.00     0.170 C 
ATOM     13  C   UNL     1      92.337 103.371  71.075  1.00  0.00     0.049 C 
ATOM     14  C   UNL     1      90.557 104.188  72.673  1.00  0.00     0.011 C 
ATOM     15  C   UNL     1      91.976 102.028  70.438  1.00  0.00     0.122 C 
BRANCH   7  16
ATOM     16  C   UNL     1      89.184 100.088  71.561  1.00  0.00     0.135 C 
BRANCH  16  17
ATOM     17  C   UNL     1      89.188  99.012  70.505  1.00  0.00    -0.040 A 
ATOM     18  C   UNL     1      88.826  99.320  69.194  1.00  0.00     0.004 A 
ATOM     19  C   UNL     1      89.553  97.708  70.840  1.00  0.00     0.004 A 
ATOM     20  C   UNL     1      88.830  98.324  68.216  1.00  0.00     0.000 A 
ATOM     21  C   UNL     1      89.556  96.712  69.863  1.00  0.00     0.000 A 
ATOM     22  C   UNL     1      89.195  97.020  68.552  1.00  0.00     0.000 A 
ENDBRANCH  16  17
ENDBRANCH   7  16
BRANCH  15  23
ATOM     23  C   UNL     1      92.223 102.007  68.965  1.00  0.00    -0.046 C 
ATOM     24  C   UNL     1      93.660 102.036  68.535  1.00  0.00     0.042 C 
ATOM     25  C   UNL     1      91.218 101.965  68.078  1.00  0.00     0.010 C 
ENDBRANCH  15  23
ENDBRANCH   3   4
BRANCH   2  26
ATOM     26  C   UNL     1      94.251 100.887  75.614  1.00  0.00     0.078 C 
BRANCH  26  27
ATOM     27  C   UNL     1      93.502 102.198  75.383  1.00  0.00     0.140 C 
ATOM     28  C   UNL     1      92.087 101.970  74.812  1.00  0.00     0.086 CG0
ATOM     29  C   UNL     1      93.216 102.938  76.673  1.00  0.00     0.190 C 
ATOM     30  C   UNL     1      91.223 102.874  75.646  1.00  0.00    -0.010 C 
ATOM     31  G   UNL     1      91.959 102.008  73.261  1.00  0.00     0.000 G0
ATOM     32  O   UNL     1      94.032 103.168  77.553  1.00  0.00    -0.291 OA
ATOM     33  C   UNL     1      91.820 103.411  76.714  1.00  0.00    -0.008 C 
ATOM     34  C   UNL     1      91.266 104.267  77.783  1.00  0.00     0.048 C 
BRANCH  27  35
ATOM     35  O   UNL     1      94.281 103.115  74.633  1.00  0.00    -0.381 OA
ATOM     36  H   UNL     1      94.845 102.610  74.023  1.00  0.00     0.212 HD
ENDBRANCH  27  35
ENDBRANCH  26  27
ENDBRANCH   2  26
ENDBRANCH   1   2
BRANCH   1  37
ATOM     37  O   UNL     1      94.403  98.320  76.383  1.00  0.00    -0.461 OA
BRANCH  37  38
ATOM     38  C   UNL     1      94.436  97.034  76.872  1.00  0.00     0.310 C 
ATOM     39  O   UNL     1      94.983  96.691  77.910  1.00  0.00    -0.252 OA
BRANCH  38  40
ATOM     40  C   UNL     1      93.692  96.118  75.929  1.00  0.00     0.158 C 
BRANCH  40  41
ATOM     41  C   UNL     1      92.501  95.456  76.571  1.00  0.00    -0.037 A 
ATOM     42  C   UNL     1      91.413  96.225  76.983  1.00  0.00     0.008 A 
ATOM     43  C   UNL     1      92.486  94.073  76.753  1.00  0.00     0.008 A 
ATOM     44  C   UNL     1      90.310  95.612  77.579  1.00  0.00     0.046 A 
ATOM     45  C   UNL     1      91.383  93.459  77.348  1.00  0.00     0.046 A 
ATOM     46  C   UNL     1      90.296  94.228  77.761  1.00  0.00     0.115 A 
BRANCH  46  47
ATOM     47  O   UNL     1      89.220  93.630  78.342  1.00  0.00    -0.508 OA
ATOM     48  H   UNL     1      88.412  93.917  77.881  1.00  0.00     0.293 HD
ENDBRANCH  46  47
ENDBRANCH  40  41
ENDBRANCH  38  40
ENDBRANCH  37  38
ENDBRANCH   1  37
TORSDOF 10
ENDMDL
MODEL 2
REMARK VINA RESULT:    -6.957     21.403     25.411
REMARK INTER + INTRA:         -12.708
REMARK INTER:                  -9.960
REMARK INTRA:                  -2.748
REMARK UNBOUND:                -0.871
REMARK SMILES C=C(C)[C@]12C[C@@H](C)[C@@]34O[C@](Cc5ccccc5)(O[C@@H]1[C@@H]3C=C(COC(=O)Cc1ccc(O)cc1)C[C@]1(O)C(=O)C(C)=C[C@@H]41)O2
REMARK SMILES IDX 23 1 22 2 21 3 20 4 9 5 8 6 10 7 6 8 18 10 44 11 19 12 5 13
REMARK SMILES IDX 7 14 4 15 11 16 12 17 13 18 17 19 14 20 16 21 15 22 2 23
REMARK SMILES IDX 3 24 1 25 35 26 36 27 43 28 38 29 42 30 39 32 40 33 41 34
REMARK SMILES IDX 37 35 24 37 25 38 26 39 27 40 28 41 29 42 34 43 30 44 33 45
REMARK SMILES IDX 31 46 32 47
REMARK H PARENT 37 36 32 48
REMARK Flexibility Score: 90.00
ROOT
ATOM      1  C   UNL     1      75.921  85.230  70.562  1.00  0.00     0.264 C 
ENDROOT
BRANCH   1   2
ATOM      2  C   UNL     1      74.753  85.869  69.848  1.00  0.00    -0.033 C 
ATOM      3  C   UNL     1      73.651  85.131  69.597  1.00  0.00    -0.015 C 
BRANCH   3   4
ATOM      4  C   UNL     1      72.389  85.509  68.838  1.00  0.00     0.078 C 
ATOM      5  O   UNL     1      70.750  86.300  70.513  1.00  0.00    -0.319 OA
ATOM      6  C   UNL     1      71.539  86.726  69.359  1.00  0.00     0.095 CG0
ATOM      7  C   UNL     1      70.129  85.007  70.390  1.00  0.00     0.289 C 
ATOM      8  C   UNL     1      70.562  87.163  68.190  1.00  0.00     0.023 C 
ATOM      9  G   UNL     1      72.463  87.850  69.913  1.00  0.00     0.000 G0
ATOM     10  O   UNL     1      71.094  83.990  70.138  1.00  0.00    -0.320 OA
ATOM     11  O   UNL     1      69.212  84.947  69.300  1.00  0.00    -0.313 OA
ATOM     12  C   UNL     1      71.430  84.295  68.775  1.00  0.00     0.170 C 
ATOM     13  C   UNL     1      70.112  85.941  67.334  1.00  0.00     0.049 C 
ATOM     14  C   UNL     1      69.323  87.963  68.628  1.00  0.00     0.011 C 
ATOM     15  C   UNL     1      70.054  84.658  68.164  1.00  0.00     0.122 C 
BRANCH   7  16
ATOM     16  C   UNL     1      69.395  84.708  71.683  1.00  0.00     0.135 C 
BRANCH  16  17
ATOM     17  C   UNL     1      67.992  84.211  71.436  1.00  0.00    -0.040 A 
ATOM     18  C   UNL     1      66.899  84.981  71.830  1.00  0.00     0.004 A 
ATOM     19  C   UNL     1      67.790  82.979  70.813  1.00  0.00     0.004 A 
ATOM     20  C   UNL     1      65.602  84.521  71.601  1.00  0.00     0.000 A 
ATOM     21  C   UNL     1      66.493  82.519  70.584  1.00  0.00     0.000 A 
ATOM     22  C   UNL     1      65.400  83.290  70.978  1.00  0.00     0.000 A 
ENDBRANCH  16  17
ENDBRANCH   7  16
BRANCH  15  23
ATOM     23  C   UNL     1      69.454  83.514  67.413  1.00  0.00    -0.046 C 
ATOM     24  C   UNL     1      67.999  83.640  67.068  1.00  0.00     0.042 C 
ATOM     25  C   UNL     1      70.174  82.437  67.067  1.00  0.00     0.010 C 
ENDBRANCH  15  23
ENDBRANCH   3   4
BRANCH   2  26
ATOM     26  C   UNL     1      74.991  87.326  69.501  1.00  0.00     0.078 C 
BRANCH  26  27
ATOM     27  C   UNL     1      73.778  88.148  69.069  1.00  0.00     0.140 C 
ATOM     28  C   UNL     1      72.525  87.826  69.910  1.00  0.00     0.086 CG0
ATOM     29  C   UNL     1      73.963  89.630  69.318  1.00  0.00     0.190 C 
ATOM     30  C   UNL     1      71.971  89.182  70.248  1.00  0.00    -0.010 C 
ATOM     31  G   UNL     1      71.575  86.735  69.335  1.00  0.00     0.000 G0
ATOM     32  O   UNL     1      74.944  90.285  68.997  1.00  0.00    -0.291 OA
ATOM     33  C   UNL     1      72.767  90.214  69.954  1.00  0.00    -0.008 C 
ATOM     34  C   UNL     1      72.589  91.658  70.215  1.00  0.00     0.048 C 
BRANCH  27  35
ATOM     35  O   UNL     1      73.565  88.063  67.670  1.00  0.00    -0.381 OA
ATOM     36  H   UNL     1      74.097  88.753  67.237  1.00  0.00     0.212 HD
ENDBRANCH  27  35
ENDBRANCH  26  27
ENDBRANCH   2  26
ENDBRANCH   1   2
BRANCH   1  37
ATOM     37  O   UNL     1      76.430  84.175  69.774  1.00  0.00    -0.461 OA
BRANCH  37  38
ATOM     38  C   UNL     1      77.372  84.519  68.833  1.00  0.00     0.310 C 
ATOM     39  O   UNL     1      78.200  85.410  68.961  1.00  0.00    -0.252 OA
BRANCH  38  40
ATOM     40  C   UNL     1      77.225  83.628  67.623  1.00  0.00     0.158 C 
BRANCH  40  41
ATOM     41  C   UNL     1      75.908  83.813  66.914  1.00  0.00    -0.037 A 
ATOM     42  C   UNL     1      75.571  85.058  66.382  1.00  0.00     0.008 A 
ATOM     43  C   UNL     1      75.026  82.740  66.790  1.00  0.00     0.008 A 
ATOM     44  C   UNL     1      74.352  85.229  65.726  1.00  0.00     0.046 A 
ATOM     45  C   UNL     1      73.807  82.911  66.133  1.00  0.00     0.046 A 
ATOM     46  C   UNL     1      73.470  84.155  65.602  1.00  0.00     0.115 A 
BRANCH  46  47
ATOM     47  O   UNL     1      72.280  84.323  64.963  1.00  0.00    -0.508 OA
ATOM     48  H   UNL     1      72.419  84.219  64.005  1.00  0.00     0.293 HD
ENDBRANCH  46  47
ENDBRANCH  40  41
ENDBRANCH  38  40
ENDBRANCH  37  38
ENDBRANCH   1  37
TORSDOF 10
ENDMDL
MODEL 3
REMARK VINA RESULT:    -6.916      3.234      8.101
REMARK INTER + INTRA:         -12.638
REMARK INTER:                 -12.282
REMARK INTRA:                  -0.356
REMARK UNBOUND:                -0.871
REMARK SMILES C=C(C)[C@]12C[C@@H](C)[C@@]34O[C@](Cc5ccccc5)(O[C@@H]1[C@@H]3C=C(COC(=O)Cc1ccc(O)cc1)C[C@]1(O)C(=O)C(C)=C[C@@H]41)O2
REMARK SMILES IDX 23 1 22 2 21 3 20 4 9 5 8 6 10 7 6 8 18 10 44 11 19 12 5 13
REMARK SMILES IDX 7 14 4 15 11 16 12 17 13 18 17 19 14 20 16 21 15 22 2 23
REMARK SMILES IDX 3 24 1 25 35 26 36 27 43 28 38 29 42 30 39 32 40 33 41 34
REMARK SMILES IDX 37 35 24 37 25 38 26 39 27 40 28 41 29 42 34 43 30 44 33 45
REMARK SMILES IDX 31 46 32 47
REMARK H PARENT 37 36 32 48
REMARK Flexibility Score: 90.00
ROOT
ATOM      1  C   UNL     1      93.344 101.363  70.725  1.00  0.00     0.264 C 
ENDROOT
BRANCH   1   2
ATOM      2  C   UNL     1      94.620 101.139  71.503  1.00  0.00    -0.033 C 
ATOM      3  C   UNL     1      94.546 100.705  72.779  1.00  0.00    -0.015 C 
BRANCH   3   4
ATOM      4  C   UNL     1      95.661 100.477  73.787  1.00  0.00     0.078 C 
ATOM      5  O   UNL     1      96.320  98.100  73.609  1.00  0.00    -0.319 OA
ATOM      6  C   UNL     1      96.807  99.465  73.419  1.00  0.00     0.095 CG0
ATOM      7  C   UNL     1      95.544  97.884  74.804  1.00  0.00     0.289 C 
ATOM      8  C   UNL     1      98.017  99.730  74.407  1.00  0.00     0.023 C 
ATOM      9  G   UNL     1      97.152  99.546  71.903  1.00  0.00     0.000 G0
ATOM     10  O   UNL     1      94.413  98.749  74.850  1.00  0.00    -0.320 OA
ATOM     11  O   UNL     1      96.288  98.158  75.989  1.00  0.00    -0.313 OA
ATOM     12  C   UNL     1      95.064  99.998  75.133  1.00  0.00     0.170 C 
ATOM     13  C   UNL     1      97.519 100.187  75.812  1.00  0.00     0.049 C 
ATOM     14  C   UNL     1      99.005  98.563  74.571  1.00  0.00     0.011 C 
ATOM     15  C   UNL     1      96.154  99.585  76.152  1.00  0.00     0.122 C 
BRANCH   7  16
ATOM     16  C   UNL     1      95.086  96.439  74.818  1.00  0.00     0.135 C 
BRANCH  16  17
ATOM     17  C   UNL     1      94.132  96.159  75.952  1.00  0.00    -0.040 A 
ATOM     18  C   UNL     1      92.937  96.871  76.050  1.00  0.00     0.004 A 
ATOM     19  C   UNL     1      94.446  95.188  76.902  1.00  0.00     0.004 A 
ATOM     20  C   UNL     1      92.054  96.611  77.098  1.00  0.00     0.000 A 
ATOM     21  C   UNL     1      93.562  94.928  77.950  1.00  0.00     0.000 A 
ATOM     22  C   UNL     1      92.367  95.639  78.048  1.00  0.00     0.000 A 
ENDBRANCH  16  17
ENDBRANCH   7  16
BRANCH  15  23
ATOM     23  C   UNL     1      95.740  99.861  77.560  1.00  0.00    -0.046 C 
ATOM     24  C   UNL     1      95.164 101.220  77.827  1.00  0.00     0.042 C 
ATOM     25  C   UNL     1      95.875  98.946  78.531  1.00  0.00     0.010 C 
ENDBRANCH  15  23
ENDBRANCH   3   4
BRANCH   2  26
ATOM     26  C   UNL     1      95.870 101.441  70.698  1.00  0.00     0.078 C 
BRANCH  26  27
ATOM     27  C   UNL     1      97.204 100.984  71.284  1.00  0.00     0.140 C 
ATOM     28  C   UNL     1      97.122  99.567  71.888  1.00  0.00     0.086 CG0
ATOM     29  C   UNL     1      98.277 100.825  70.227  1.00  0.00     0.190 C 
ATOM     30  C   UNL     1      98.352  98.887  71.355  1.00  0.00    -0.010 C 
ATOM     31  G   UNL     1      96.805  99.488  73.410  1.00  0.00     0.000 G0
ATOM     32  O   UNL     1      98.552 101.649  69.368  1.00  0.00    -0.291 OA
ATOM     33  C   UNL     1      99.007  99.555  70.400  1.00  0.00    -0.008 C 
ATOM     34  C   UNL     1     100.189  99.163  69.604  1.00  0.00     0.048 C 
BRANCH  27  35
ATOM     35  O   UNL     1      97.741 101.953  72.168  1.00  0.00    -0.381 OA
ATOM     36  H   UNL     1      97.307 101.854  73.032  1.00  0.00     0.212 HD
ENDBRANCH  27  35
ENDBRANCH  26  27
ENDBRANCH   2  26
ENDBRANCH   1   2
BRANCH   1  37
ATOM     37  O   UNL     1      92.310 100.584  71.289  1.00  0.00    -0.461 OA
BRANCH  37  38
ATOM     38  C   UNL     1      91.075 101.184  71.373  1.00  0.00     0.310 C 
ATOM     39  O   UNL     1      90.861 102.378  71.217  1.00  0.00    -0.252 OA
BRANCH  38  40
ATOM     40  C   UNL     1      90.029 100.140  71.686  1.00  0.00     0.158 C 
BRANCH  40  41
ATOM     41  C   UNL     1      89.532  99.420  70.460  1.00  0.00    -0.037 A 
ATOM     42  C   UNL     1      89.339 100.121  69.269  1.00  0.00     0.008 A 
ATOM     43  C   UNL     1      89.264  98.053  70.514  1.00  0.00     0.008 A 
ATOM     44  C   UNL     1      88.877  99.454  68.133  1.00  0.00     0.046 A 
ATOM     45  C   UNL     1      88.804  97.385  69.379  1.00  0.00     0.046 A 
ATOM     46  C   UNL     1      88.610  98.086  68.189  1.00  0.00     0.115 A 
BRANCH  46  47
ATOM     47  O   UNL     1      88.160  97.436  67.081  1.00  0.00    -0.508 OA
ATOM     48  H   UNL     1      87.673  98.065  66.522  1.00  0.00     0.293 HD
ENDBRANCH  46  47
ENDBRANCH  40  41
ENDBRANCH  38  40
ENDBRANCH  37  38
ENDBRANCH   1  37
TORSDOF 10
ENDMDL
MODEL 4
REMARK VINA RESULT:    -6.838      2.653      8.565
REMARK INTER + INTRA:         -12.506
REMARK INTER:                 -12.093
REMARK INTRA:                  -0.413
REMARK UNBOUND:                -0.871
REMARK SMILES C=C(C)[C@]12C[C@@H](C)[C@@]34O[C@](Cc5ccccc5)(O[C@@H]1[C@@H]3C=C(COC(=O)Cc1ccc(O)cc1)C[C@]1(O)C(=O)C(C)=C[C@@H]41)O2
REMARK SMILES IDX 23 1 22 2 21 3 20 4 9 5 8 6 10 7 6 8 18 10 44 11 19 12 5 13
REMARK SMILES IDX 7 14 4 15 11 16 12 17 13 18 17 19 14 20 16 21 15 22 2 23
REMARK SMILES IDX 3 24 1 25 35 26 36 27 43 28 38 29 42 30 39 32 40 33 41 34
REMARK SMILES IDX 37 35 24 37 25 38 26 39 27 40 28 41 29 42 34 43 30 44 33 45
REMARK SMILES IDX 31 46 32 47
REMARK H PARENT 37 36 32 48
REMARK Flexibility Score: 90.00
ROOT
ATOM      1  C   UNL     1      90.521  99.650  70.949  1.00  0.00     0.264 C 
ENDROOT
BRANCH   1   2
ATOM      2  C   UNL     1      91.893 100.198  71.268  1.00  0.00    -0.033 C 
ATOM      3  C   UNL     1      92.355 100.122  72.533  1.00  0.00    -0.015 C 
BRANCH   3   4
ATOM      4  C   UNL     1      93.651 100.659  73.121  1.00  0.00     0.078 C 
ATOM      5  O   UNL     1      95.326  98.848  72.949  1.00  0.00    -0.319 OA
ATOM      6  C   UNL     1      95.011 100.197  72.481  1.00  0.00     0.095 CG0
ATOM      7  C   UNL     1      95.089  98.612  74.350  1.00  0.00     0.289 C 
ATOM      8  C   UNL     1      96.137 101.198  72.974  1.00  0.00     0.023 C 
ATOM      9  G   UNL     1      94.876 100.051  70.938  1.00  0.00     0.000 G0
ATOM     10  O   UNL     1      93.732  98.875  74.697  1.00  0.00    -0.320 OA
ATOM     11  O   UNL     1      95.872  99.462  75.184  1.00  0.00    -0.313 OA
ATOM     12  C   UNL     1      93.729 100.309  74.628  1.00  0.00     0.170 C 
ATOM     13  C   UNL     1      95.851 101.715  74.417  1.00  0.00     0.049 C 
ATOM     14  C   UNL     1      97.577 100.661  72.900  1.00  0.00     0.011 C 
ATOM     15  C   UNL     1      95.097 100.678  75.251  1.00  0.00     0.122 C 
BRANCH   7  16
ATOM     16  C   UNL     1      95.423  97.164  74.650  1.00  0.00     0.135 C 
BRANCH  16  17
ATOM     17  C   UNL     1      94.773  96.685  75.924  1.00  0.00    -0.040 A 
ATOM     18  C   UNL     1      93.687  95.812  75.867  1.00  0.00     0.004 A 
ATOM     19  C   UNL     1      95.260  97.115  77.158  1.00  0.00     0.004 A 
ATOM     20  C   UNL     1      93.086  95.368  77.046  1.00  0.00     0.000 A 
ATOM     21  C   UNL     1      94.659  96.671  78.337  1.00  0.00     0.000 A 
ATOM     22  C   UNL     1      93.572  95.798  78.280  1.00  0.00     0.000 A 
ENDBRANCH  16  17
ENDBRANCH   7  16
BRANCH  15  23
ATOM     23  C   UNL     1      94.972 101.076  76.685  1.00  0.00    -0.046 C 
ATOM     24  C   UNL     1      93.994 102.174  76.984  1.00  0.00     0.042 C 
ATOM     25  C   UNL     1      95.693 100.487  77.651  1.00  0.00     0.010 C 
ENDBRANCH  15  23
ENDBRANCH   3   4
BRANCH   2  26
ATOM     26  C   UNL     1      92.598 100.780  70.057  1.00  0.00     0.078 C 
BRANCH  26  27
ATOM     27  C   UNL     1      94.066 101.167  70.223  1.00  0.00     0.140 C 
ATOM     28  C   UNL     1      94.884 100.064  70.928  1.00  0.00     0.086 CG0
ATOM     29  C   UNL     1      94.783 101.305  68.897  1.00  0.00     0.190 C 
ATOM     30  C   UNL     1      96.124  99.956  70.086  1.00  0.00    -0.010 C 
ATOM     31  G   UNL     1      95.018 100.193  72.474  1.00  0.00     0.000 G0
ATOM     32  O   UNL     1      94.375 101.938  67.934  1.00  0.00    -0.291 OA
ATOM     33  C   UNL     1      96.088 100.618  68.926  1.00  0.00    -0.008 C 
ATOM     34  C   UNL     1      97.077 100.670  67.829  1.00  0.00     0.048 C 
BRANCH  27  35
ATOM     35  O   UNL     1      94.201 102.447  70.816  1.00  0.00    -0.381 OA
ATOM     36  H   UNL     1      94.177 102.342  71.782  1.00  0.00     0.212 HD
ENDBRANCH  27  35
ENDBRANCH  26  27
ENDBRANCH   2  26
ENDBRANCH   1   2
BRANCH   1  37
ATOM     37  O   UNL     1      90.389  99.506  69.551  1.00  0.00    -0.461 OA
BRANCH  37  38
ATOM     38  C   UNL     1      89.209  98.956  69.105  1.00  0.00     0.310 C 
ATOM     39  O   UNL     1      88.902  97.777  69.204  1.00  0.00    -0.252 OA
BRANCH  38  40
ATOM     40  C   UNL     1      88.357 100.033  68.478  1.00  0.00     0.158 C 
BRANCH  40  41
ATOM     41  C   UNL     1      89.169 101.166  67.906  1.00  0.00    -0.037 A 
ATOM     42  C   UNL     1      88.780 102.487  68.131  1.00  0.00     0.008 A 
ATOM     43  C   UNL     1      90.310 100.896  67.150  1.00  0.00     0.008 A 
ATOM     44  C   UNL     1      89.531 103.536  67.601  1.00  0.00     0.046 A 
ATOM     45  C   UNL     1      91.062 101.945  66.620  1.00  0.00     0.046 A 
ATOM     46  C   UNL     1      90.672 103.264  66.845  1.00  0.00     0.115 A 
BRANCH  46  47
ATOM     47  O   UNL     1      91.405 104.288  66.327  1.00  0.00    -0.508 OA
ATOM     48  H   UNL     1      92.302 104.256  66.703  1.00  0.00     0.293 HD
ENDBRANCH  46  47
ENDBRANCH  40  41
ENDBRANCH  38  40
ENDBRANCH  37  38
ENDBRANCH   1  37
TORSDOF 10
ENDMDL
MODEL 5
REMARK VINA RESULT:    -6.653     20.294     24.727
REMARK INTER + INTRA:         -12.192
REMARK INTER:                 -10.618
REMARK INTRA:                  -1.574
REMARK UNBOUND:                -0.871
REMARK SMILES C=C(C)[C@]12C[C@@H](C)[C@@]34O[C@](Cc5ccccc5)(O[C@@H]1[C@@H]3C=C(COC(=O)Cc1ccc(O)cc1)C[C@]1(O)C(=O)C(C)=C[C@@H]41)O2
REMARK SMILES IDX 23 1 22 2 21 3 20 4 9 5 8 6 10 7 6 8 18 10 44 11 19 12 5 13
REMARK SMILES IDX 7 14 4 15 11 16 12 17 13 18 17 19 14 20 16 21 15 22 2 23
REMARK SMILES IDX 3 24 1 25 35 26 36 27 43 28 38 29 42 30 39 32 40 33 41 34
REMARK SMILES IDX 37 35 24 37 25 38 26 39 27 40 28 41 29 42 34 43 30 44 33 45
REMARK SMILES IDX 31 46 32 47
REMARK H PARENT 37 36 32 48
REMARK Flexibility Score: 90.00
ROOT
ATOM      1  C   UNL     1      70.295  83.682  68.528  1.00  0.00     0.264 C 
ENDROOT
BRANCH   1   2
ATOM      2  C   UNL     1      71.469  84.238  67.755  1.00  0.00    -0.033 C 
ATOM      3  C   UNL     1      71.803  85.537  67.907  1.00  0.00    -0.015 C 
BRANCH   3   4
ATOM      4  C   UNL     1      72.877  86.346  67.198  1.00  0.00     0.078 C 
ATOM      5  O   UNL     1      74.919  86.205  68.585  1.00  0.00    -0.319 OA
ATOM      6  C   UNL     1      74.366  85.848  67.280  1.00  0.00     0.095 CG0
ATOM      7  C   UNL     1      74.591  87.529  69.051  1.00  0.00     0.289 C 
ATOM      8  C   UNL     1      75.184  86.591  66.144  1.00  0.00     0.023 C 
ATOM      9  G   UNL     1      74.433  84.293  67.244  1.00  0.00     0.000 G0
ATOM     10  O   UNL     1      73.181  87.718  69.122  1.00  0.00    -0.320 OA
ATOM     11  O   UNL     1      75.073  88.546  68.177  1.00  0.00    -0.313 OA
ATOM     12  C   UNL     1      72.869  87.803  67.722  1.00  0.00     0.170 C 
ATOM     13  C   UNL     1      74.638  88.030  65.895  1.00  0.00     0.049 C 
ATOM     14  C   UNL     1      76.706  86.653  66.358  1.00  0.00     0.011 C 
ATOM     15  C   UNL     1      74.047  88.640  67.167  1.00  0.00     0.122 C 
BRANCH   7  16
ATOM     16  C   UNL     1      75.203  87.713  70.426  1.00  0.00     0.135 C 
BRANCH  16  17
ATOM     17  C   UNL     1      74.714  88.971  71.099  1.00  0.00    -0.040 A 
ATOM     18  C   UNL     1      75.375  90.180  70.882  1.00  0.00     0.004 A 
ATOM     19  C   UNL     1      73.601  88.925  71.938  1.00  0.00     0.004 A 
ATOM     20  C   UNL     1      74.922  91.344  71.505  1.00  0.00     0.000 A 
ATOM     21  C   UNL     1      73.149  90.089  72.560  1.00  0.00     0.000 A 
ATOM     22  C   UNL     1      73.809  91.297  72.344  1.00  0.00     0.000 A 
ENDBRANCH  16  17
ENDBRANCH   7  16
BRANCH  15  23
ATOM     23  C   UNL     1      73.684  90.079  66.998  1.00  0.00    -0.046 C 
ATOM     24  C   UNL     1      74.708  90.946  66.327  1.00  0.00     0.042 C 
ATOM     25  C   UNL     1      72.510  90.569  67.422  1.00  0.00     0.010 C 
ENDBRANCH  15  23
ENDBRANCH   3   4
BRANCH   2  26
ATOM     26  C   UNL     1      72.148  83.204  66.877  1.00  0.00     0.078 C 
BRANCH  26  27
ATOM     27  C   UNL     1      73.465  83.605  66.217  1.00  0.00     0.140 C 
ATOM     28  C   UNL     1      74.430  84.289  67.208  1.00  0.00     0.086 CG0
ATOM     29  C   UNL     1      74.269  82.409  65.753  1.00  0.00     0.190 C 
ATOM     30  C   UNL     1      75.746  83.613  66.938  1.00  0.00    -0.010 C 
ATOM     31  G   UNL     1      74.368  85.843  67.264  1.00  0.00     0.000 G0
ATOM     32  O   UNL     1      73.834  81.476  65.095  1.00  0.00    -0.291 OA
ATOM     33  C   UNL     1      75.685  82.537  66.148  1.00  0.00    -0.008 C 
ATOM     34  C   UNL     1      76.747  81.594  65.741  1.00  0.00     0.048 C 
BRANCH  27  35
ATOM     35  O   UNL     1      73.245  84.346  65.028  1.00  0.00    -0.381 OA
ATOM     36  H   UNL     1      73.002  83.726  64.321  1.00  0.00     0.212 HD
ENDBRANCH  27  35
ENDBRANCH  26  27
ENDBRANCH   2  26
ENDBRANCH   1   2
BRANCH   1  37
ATOM     37  O   UNL     1      69.198  84.562  68.405  1.00  0.00    -0.461 OA
BRANCH  37  38
ATOM     38  C   UNL     1      68.432  84.738  69.535  1.00  0.00     0.310 C 
ATOM     39  O   UNL     1      67.210  84.704  69.567  1.00  0.00    -0.252 OA
BRANCH  38  40
ATOM     40  C   UNL     1      69.333  84.980  70.722  1.00  0.00     0.158 C 
BRANCH  40  41
ATOM     41  C   UNL     1      69.277  86.399  71.223  1.00  0.00    -0.037 A 
ATOM     42  C   UNL     1      68.372  86.750  72.225  1.00  0.00     0.008 A 
ATOM     43  C   UNL     1      70.129  87.363  70.686  1.00  0.00     0.008 A 
ATOM     44  C   UNL     1      68.319  88.065  72.689  1.00  0.00     0.046 A 
ATOM     45  C   UNL     1      70.078  88.678  71.149  1.00  0.00     0.046 A 
ATOM     46  C   UNL     1      69.173  89.029  72.150  1.00  0.00     0.115 A 
BRANCH  46  47
ATOM     47  O   UNL     1      69.121  90.312  72.602  1.00  0.00    -0.508 OA
ATOM     48  H   UNL     1      69.401  90.330  73.534  1.00  0.00     0.293 HD
ENDBRANCH  46  47
ENDBRANCH  40  41
ENDBRANCH  38  40
ENDBRANCH  37  38
ENDBRANCH   1  37
TORSDOF 10
ENDMDL
MODEL 6
REMARK VINA RESULT:    -6.628     22.303     26.614
REMARK INTER + INTRA:         -12.149
REMARK INTER:                 -11.716
REMARK INTRA:                  -0.433
REMARK UNBOUND:                -0.871
REMARK SMILES C=C(C)[C@]12C[C@@H](C)[C@@]34O[C@](Cc5ccccc5)(O[C@@H]1[C@@H]3C=C(COC(=O)Cc1ccc(O)cc1)C[C@]1(O)C(=O)C(C)=C[C@@H]41)O2
REMARK SMILES IDX 23 1 22 2 21 3 20 4 9 5 8 6 10 7 6 8 18 10 44 11 19 12 5 13
REMARK SMILES IDX 7 14 4 15 11 16 12 17 13 18 17 19 14 20 16 21 15 22 2 23
REMARK SMILES IDX 3 24 1 25 35 26 36 27 43 28 38 29 42 30 39 32 40 33 41 34
REMARK SMILES IDX 37 35 24 37 25 38 26 39 27 40 28 41 29 42 34 43 30 44 33 45
REMARK SMILES IDX 31 46 32 47
REMARK H PARENT 37 36 32 48
REMARK Flexibility Score: 90.00
ROOT
ATOM      1  C   UNL     1      69.412  83.031  68.263  1.00  0.00     0.264 C 
ENDROOT
BRANCH   1   2
ATOM      2  C   UNL     1      70.501  83.649  67.417  1.00  0.00    -0.033 C 
ATOM      3  C   UNL     1      70.770  84.965  67.546  1.00  0.00    -0.015 C 
BRANCH   3   4
ATOM      4  C   UNL     1      71.748  85.831  66.770  1.00  0.00     0.078 C 
ATOM      5  O   UNL     1      73.869  85.840  68.042  1.00  0.00    -0.319 OA
ATOM      6  C   UNL     1      73.269  85.430  66.773  1.00  0.00     0.095 CG0
ATOM      7  C   UNL     1      73.484  87.146  68.511  1.00  0.00     0.289 C 
ATOM      8  C   UNL     1      73.973  86.207  65.586  1.00  0.00     0.023 C 
ATOM      9  G   UNL     1      73.433  83.882  66.749  1.00  0.00     0.000 G0
ATOM     10  O   UNL     1      72.070  87.246  68.659  1.00  0.00    -0.320 OA
ATOM     11  O   UNL     1      73.850  88.180  67.600  1.00  0.00    -0.313 OA
ATOM     12  C   UNL     1      71.676  87.292  67.278  1.00  0.00     0.170 C 
ATOM     13  C   UNL     1      73.323  87.605  65.352  1.00  0.00     0.049 C 
ATOM     14  C   UNL     1      75.498  86.368  65.713  1.00  0.00     0.011 C 
ATOM     15  C   UNL     1      72.766  88.194  66.649  1.00  0.00     0.122 C 
BRANCH   7  16
ATOM     16  C   UNL     1      74.158  87.388  69.847  1.00  0.00     0.135 C 
BRANCH  16  17
ATOM     17  C   UNL     1      75.307  86.440  70.082  1.00  0.00    -0.040 A 
ATOM     18  C   UNL     1      75.086  85.219  70.719  1.00  0.00     0.004 A 
ATOM     19  C   UNL     1      76.591  86.784  69.661  1.00  0.00     0.004 A 
ATOM     20  C   UNL     1      76.149  84.342  70.935  1.00  0.00     0.000 A 
ATOM     21  C   UNL     1      77.654  85.907  69.877  1.00  0.00     0.000 A 
ATOM     22  C   UNL     1      77.433  84.687  70.514  1.00  0.00     0.000 A 
ENDBRANCH  16  17
ENDBRANCH   7  16
BRANCH  15  23
ATOM     23  C   UNL     1      72.302  89.605  66.486  1.00  0.00    -0.046 C 
ATOM     24  C   UNL     1      70.936  89.788  65.894  1.00  0.00     0.042 C 
ATOM     25  C   UNL     1      73.064  90.648  66.847  1.00  0.00     0.010 C 
ENDBRANCH  15  23
ENDBRANCH   3   4
BRANCH   2  26
ATOM     26  C   UNL     1      71.180  82.651  66.498  1.00  0.00     0.078 C 
BRANCH  26  27
ATOM     27  C   UNL     1      72.465  83.102  65.806  1.00  0.00     0.140 C 
ATOM     28  C   UNL     1      73.401  83.874  66.758  1.00  0.00     0.086 CG0
ATOM     29  C   UNL     1      73.330  81.937  65.373  1.00  0.00     0.190 C 
ATOM     30  C   UNL     1      74.750  83.263  66.494  1.00  0.00    -0.010 C 
ATOM     31  G   UNL     1      73.252  85.423  66.761  1.00  0.00     0.000 G0
ATOM     32  O   UNL     1      72.940  80.957  64.755  1.00  0.00    -0.291 OA
ATOM     33  C   UNL     1      74.740  82.158  65.743  1.00  0.00    -0.008 C 
ATOM     34  C   UNL     1      75.849  81.262  65.355  1.00  0.00     0.048 C 
BRANCH  27  35
ATOM     35  O   UNL     1      72.189  83.786  64.595  1.00  0.00    -0.381 OA
ATOM     36  H   UNL     1      72.265  83.153  63.861  1.00  0.00     0.212 HD
ENDBRANCH  27  35
ENDBRANCH  26  27
ENDBRANCH   2  26
ENDBRANCH   1   2
BRANCH   1  37
ATOM     37  O   UNL     1      68.169  83.600  67.913  1.00  0.00    -0.461 OA
BRANCH  37  38
ATOM     38  C   UNL     1      67.503  84.270  68.913  1.00  0.00     0.310 C 
ATOM     39  O   UNL     1      66.890  85.319  68.770  1.00  0.00    -0.252 OA
BRANCH  38  40
ATOM     40  C   UNL     1      67.648  83.511  70.210  1.00  0.00     0.158 C 
BRANCH  40  41
ATOM     41  C   UNL     1      66.326  83.219  70.871  1.00  0.00    -0.037 A 
ATOM     42  C   UNL     1      65.754  81.952  70.756  1.00  0.00     0.008 A 
ATOM     43  C   UNL     1      65.674  84.214  71.598  1.00  0.00     0.008 A 
ATOM     44  C   UNL     1      64.529  81.681  71.367  1.00  0.00     0.046 A 
ATOM     45  C   UNL     1      64.449  83.944  72.209  1.00  0.00     0.046 A 
ATOM     46  C   UNL     1      63.877  82.678  72.094  1.00  0.00     0.115 A 
BRANCH  46  47
ATOM     47  O   UNL     1      62.682  82.414  72.690  1.00  0.00    -0.508 OA
ATOM     48  H   UNL     1      62.050  83.114  72.453  1.00  0.00     0.293 HD
ENDBRANCH  46  47
ENDBRANCH  40  41
ENDBRANCH  38  40
ENDBRANCH  37  38
ENDBRANCH   1  37
TORSDOF 10
ENDMDL
MODEL 7
REMARK VINA RESULT:    -6.540     18.179     23.245
REMARK INTER + INTRA:         -11.998
REMARK INTER:                 -11.127
REMARK INTRA:                  -0.871
REMARK UNBOUND:                -0.871
REMARK SMILES C=C(C)[C@]12C[C@@H](C)[C@@]34O[C@](Cc5ccccc5)(O[C@@H]1[C@@H]3C=C(COC(=O)Cc1ccc(O)cc1)C[C@]1(O)C(=O)C(C)=C[C@@H]41)O2
REMARK SMILES IDX 23 1 22 2 21 3 20 4 9 5 8 6 10 7 6 8 18 10 44 11 19 12 5 13
REMARK SMILES IDX 7 14 4 15 11 16 12 17 13 18 17 19 14 20 16 21 15 22 2 23
REMARK SMILES IDX 3 24 1 25 35 26 36 27 43 28 38 29 42 30 39 32 40 33 41 34
REMARK SMILES IDX 37 35 24 37 25 38 26 39 27 40 28 41 29 42 34 43 30 44 33 45
REMARK SMILES IDX 31 46 32 47
REMARK H PARENT 37 36 32 48
REMARK Flexibility Score: 90.00
ROOT
ATOM      1  C   UNL     1     100.091  80.535  83.554  1.00  0.00     0.264 C 
ENDROOT
BRANCH   1   2
ATOM      2  C   UNL     1      99.845  81.194  84.892  1.00  0.00    -0.033 C 
ATOM      3  C   UNL     1      98.667  81.812  85.115  1.00  0.00    -0.015 C 
BRANCH   3   4
ATOM      4  C   UNL     1      98.208  82.603  86.330  1.00  0.00     0.078 C 
ATOM      5  O   UNL     1      97.010  81.023  87.808  1.00  0.00    -0.319 OA
ATOM      6  C   UNL     1      98.189  81.884  87.728  1.00  0.00     0.095 CG0
ATOM      7  C   UNL     1      95.793  81.598  87.294  1.00  0.00     0.289 C 
ATOM      8  C   UNL     1      98.094  83.006  88.843  1.00  0.00     0.023 C 
ATOM      9  G   UNL     1      99.392  80.906  87.864  1.00  0.00     0.000 G0
ATOM     10  O   UNL     1      95.941  81.990  85.932  1.00  0.00    -0.320 OA
ATOM     11  O   UNL     1      95.412  82.779  87.995  1.00  0.00    -0.313 OA
ATOM     12  C   UNL     1      96.777  83.146  86.092  1.00  0.00     0.170 C 
ATOM     13  C   UNL     1      97.263  84.231  88.353  1.00  0.00     0.049 C 
ATOM     14  C   UNL     1      97.558  82.539  90.207  1.00  0.00     0.011 C 
ATOM     15  C   UNL     1      96.182  83.818  87.354  1.00  0.00     0.122 C 
BRANCH   7  16
ATOM     16  C   UNL     1      94.692  80.563  87.413  1.00  0.00     0.135 C 
BRANCH  16  17
ATOM     17  C   UNL     1      93.335  81.198  87.589  1.00  0.00    -0.040 A 
ATOM     18  C   UNL     1      92.595  81.584  86.472  1.00  0.00     0.004 A 
ATOM     19  C   UNL     1      92.821  81.398  88.870  1.00  0.00     0.004 A 
ATOM     20  C   UNL     1      91.339  82.171  86.635  1.00  0.00     0.000 A 
ATOM     21  C   UNL     1      91.565  81.985  89.033  1.00  0.00     0.000 A 
ATOM     22  C   UNL     1      90.825  82.371  87.916  1.00  0.00     0.000 A 
ENDBRANCH  16  17
ENDBRANCH   7  16
BRANCH  15  23
ATOM     23  C   UNL     1      95.259  84.942  87.010  1.00  0.00    -0.046 C 
ATOM     24  C   UNL     1      93.910  84.915  87.664  1.00  0.00     0.042 C 
ATOM     25  C   UNL     1      95.617  85.919  86.164  1.00  0.00     0.010 C 
ENDBRANCH  15  23
ENDBRANCH   3   4
BRANCH   2  26
ATOM     26  C   UNL     1     101.015  81.054  85.848  1.00  0.00     0.078 C 
BRANCH  26  27
ATOM     27  C   UNL     1     100.775  81.447  87.305  1.00  0.00     0.140 C 
ATOM     28  C   UNL     1      99.424  80.924  87.836  1.00  0.00     0.086 CG0
ATOM     29  C   UNL     1     101.767  80.802  88.250  1.00  0.00     0.190 C 
ATOM     30  C   UNL     1      99.777  80.342  89.177  1.00  0.00    -0.010 C 
ATOM     31  G   UNL     1      98.218  81.901  87.721  1.00  0.00     0.000 G0
ATOM     32  O   UNL     1     102.980  80.786  88.101  1.00  0.00    -0.291 OA
ATOM     33  C   UNL     1     101.085  80.234  89.428  1.00  0.00    -0.008 C 
ATOM     34  C   UNL     1     101.785  79.644  90.587  1.00  0.00     0.048 C 
BRANCH  27  35
ATOM     35  O   UNL     1     100.971  82.836  87.506  1.00  0.00    -0.381 OA
ATOM     36  H   UNL     1     101.319  82.970  88.404  1.00  0.00     0.212 HD
ENDBRANCH  27  35
ENDBRANCH  26  27
ENDBRANCH   2  26
ENDBRANCH   1   2
BRANCH   1  37
ATOM     37  O   UNL     1      99.363  81.219  82.556  1.00  0.00    -0.461 OA
BRANCH  37  38
ATOM     38  C   UNL     1     100.108  81.877  81.604  1.00  0.00     0.310 C 
ATOM     39  O   UNL     1     100.859  82.816  81.826  1.00  0.00    -0.252 OA
BRANCH  38  40
ATOM     40  C   UNL     1      99.853  81.260  80.250  1.00  0.00     0.158 C 
BRANCH  40  41
ATOM     41  C   UNL     1      99.110  82.179  79.316  1.00  0.00    -0.037 A 
ATOM     42  C   UNL     1      98.052  82.952  79.793  1.00  0.00     0.008 A 
ATOM     43  C   UNL     1      99.481  82.258  77.974  1.00  0.00     0.008 A 
ATOM     44  C   UNL     1      97.363  83.803  78.927  1.00  0.00     0.046 A 
ATOM     45  C   UNL     1      98.793  83.109  77.108  1.00  0.00     0.046 A 
ATOM     46  C   UNL     1      97.735  83.881  77.585  1.00  0.00     0.115 A 
BRANCH  46  47
ATOM     47  O   UNL     1      97.063  84.711  76.741  1.00  0.00    -0.508 OA
ATOM     48  H   UNL     1      96.703  85.457  77.251  1.00  0.00     0.293 HD
ENDBRANCH  46  47
ENDBRANCH  40  41
ENDBRANCH  38  40
ENDBRANCH  37  38
ENDBRANCH   1  37
TORSDOF 10
ENDMDL
MODEL 8
REMARK VINA RESULT:    -6.513     21.078     25.440
REMARK INTER + INTRA:         -11.953
REMARK INTER:                 -11.618
REMARK INTRA:                  -0.335
REMARK UNBOUND:                -0.871
REMARK SMILES C=C(C)[C@]12C[C@@H](C)[C@@]34O[C@](Cc5ccccc5)(O[C@@H]1[C@@H]3C=C(COC(=O)Cc1ccc(O)cc1)C[C@]1(O)C(=O)C(C)=C[C@@H]41)O2
REMARK SMILES IDX 23 1 22 2 21 3 20 4 9 5 8 6 10 7 6 8 18 10 44 11 19 12 5 13
REMARK SMILES IDX 7 14 4 15 11 16 12 17 13 18 17 19 14 20 16 21 15 22 2 23
REMARK SMILES IDX 3 24 1 25 35 26 36 27 43 28 38 29 42 30 39 32 40 33 41 34
REMARK SMILES IDX 37 35 24 37 25 38 26 39 27 40 28 41 29 42 34 43 30 44 33 45
REMARK SMILES IDX 31 46 32 47
REMARK H PARENT 37 36 32 48
REMARK Flexibility Score: 90.00
ROOT
ATOM      1  C   UNL     1      70.375  84.384  68.246  1.00  0.00     0.264 C 
ENDROOT
BRANCH   1   2
ATOM      2  C   UNL     1      71.572  84.711  67.384  1.00  0.00    -0.033 C 
ATOM      3  C   UNL     1      72.093  85.955  67.423  1.00  0.00    -0.015 C 
BRANCH   3   4
ATOM      4  C   UNL     1      73.231  86.551  66.610  1.00  0.00     0.078 C 
ATOM      5  O   UNL     1      75.302  86.225  67.921  1.00  0.00    -0.319 OA
ATOM      6  C   UNL     1      74.640  85.855  66.671  1.00  0.00     0.095 CG0
ATOM      7  C   UNL     1      75.184  87.611  68.293  1.00  0.00     0.289 C 
ATOM      8  C   UNL     1      75.493  86.390  65.448  1.00  0.00     0.023 C 
ATOM      9  G   UNL     1      74.489  84.308  66.755  1.00  0.00     0.000 G0
ATOM     10  O   UNL     1      73.818  88.003  68.405  1.00  0.00    -0.320 OA
ATOM     11  O   UNL     1      75.756  88.484  67.322  1.00  0.00    -0.313 OA
ATOM     12  C   UNL     1      73.450  88.029  67.017  1.00  0.00     0.170 C 
ATOM     13  C   UNL     1      75.139  87.870  65.108  1.00  0.00     0.049 C 
ATOM     14  C   UNL     1      77.018  86.252  65.595  1.00  0.00     0.011 C 
ATOM     15  C   UNL     1      74.703  88.648  66.350  1.00  0.00     0.122 C 
BRANCH   7  16
ATOM     16  C   UNL     1      75.884  87.807  69.623  1.00  0.00     0.135 C 
BRANCH  16  17
ATOM     17  C   UNL     1      75.110  88.719  70.542  1.00  0.00    -0.040 A 
ATOM     18  C   UNL     1      75.492  90.052  70.688  1.00  0.00     0.004 A 
ATOM     19  C   UNL     1      74.011  88.227  71.246  1.00  0.00     0.004 A 
ATOM     20  C   UNL     1      74.776  90.895  71.538  1.00  0.00     0.000 A 
ATOM     21  C   UNL     1      73.294  89.070  72.096  1.00  0.00     0.000 A 
ATOM     22  C   UNL     1      73.676  90.403  72.241  1.00  0.00     0.000 A 
ENDBRANCH  16  17
ENDBRANCH   7  16
BRANCH  15  23
ATOM     23  C   UNL     1      74.533  90.108  66.082  1.00  0.00    -0.046 C 
ATOM     24  C   UNL     1      74.985  91.037  67.170  1.00  0.00     0.042 C 
ATOM     25  C   UNL     1      74.007  90.563  64.935  1.00  0.00     0.010 C 
ENDBRANCH  15  23
ENDBRANCH   3   4
BRANCH   2  26
ATOM     26  C   UNL     1      72.052  83.532  66.558  1.00  0.00     0.078 C 
BRANCH  26  27
ATOM     27  C   UNL     1      73.394  83.679  65.845  1.00  0.00     0.140 C 
ATOM     28  C   UNL     1      74.472  84.305  66.754  1.00  0.00     0.086 CG0
ATOM     29  C   UNL     1      74.009  82.343  65.486  1.00  0.00     0.190 C 
ATOM     30  C   UNL     1      75.672  83.427  66.532  1.00  0.00    -0.010 C 
ATOM     31  G   UNL     1      74.631  85.851  66.664  1.00  0.00     0.000 G0
ATOM     32  O   UNL     1      73.430  81.424  64.925  1.00  0.00    -0.291 OA
ATOM     33  C   UNL     1      75.439  82.303  65.848  1.00  0.00    -0.008 C 
ATOM     34  C   UNL     1      76.346  81.184  65.518  1.00  0.00     0.048 C 
BRANCH  27  35
ATOM     35  O   UNL     1      73.249  84.332  64.595  1.00  0.00    -0.381 OA
ATOM     36  H   UNL     1      73.207  83.654  63.899  1.00  0.00     0.212 HD
ENDBRANCH  27  35
ENDBRANCH  26  27
ENDBRANCH   2  26
ENDBRANCH   1   2
BRANCH   1  37
ATOM     37  O   UNL     1      70.202  85.402  69.210  1.00  0.00    -0.461 OA
BRANCH  37  38
ATOM     38  C   UNL     1      69.275  85.154  70.195  1.00  0.00     0.310 C 
ATOM     39  O   UNL     1      68.796  85.999  70.938  1.00  0.00    -0.252 OA
BRANCH  38  40
ATOM     40  C   UNL     1      68.942  83.681  70.215  1.00  0.00     0.158 C 
BRANCH  40  41
ATOM     41  C   UNL     1      67.494  83.402  69.905  1.00  0.00    -0.037 A 
ATOM     42  C   UNL     1      66.766  82.524  70.708  1.00  0.00     0.008 A 
ATOM     43  C   UNL     1      66.882  84.019  68.815  1.00  0.00     0.008 A 
ATOM     44  C   UNL     1      65.425  82.264  70.421  1.00  0.00     0.046 A 
ATOM     45  C   UNL     1      65.541  83.760  68.528  1.00  0.00     0.046 A 
ATOM     46  C   UNL     1      64.813  82.883  69.330  1.00  0.00     0.115 A 
BRANCH  46  47
ATOM     47  O   UNL     1      63.506  82.629  69.050  1.00  0.00    -0.508 OA
ATOM     48  H   UNL     1      63.319  81.693  69.239  1.00  0.00     0.293 HD
ENDBRANCH  46  47
ENDBRANCH  40  41
ENDBRANCH  38  40
ENDBRANCH  37  38
ENDBRANCH   1  37
TORSDOF 10
ENDMDL
MODEL 9
REMARK VINA RESULT:    -6.455     27.756     31.390
REMARK INTER + INTRA:         -11.854
REMARK INTER:                 -11.013
REMARK INTRA:                  -0.841
REMARK UNBOUND:                -0.871
REMARK SMILES C=C(C)[C@]12C[C@@H](C)[C@@]34O[C@](Cc5ccccc5)(O[C@@H]1[C@@H]3C=C(COC(=O)Cc1ccc(O)cc1)C[C@]1(O)C(=O)C(C)=C[C@@H]41)O2
REMARK SMILES IDX 23 1 22 2 21 3 20 4 9 5 8 6 10 7 6 8 18 10 44 11 19 12 5 13
REMARK SMILES IDX 7 14 4 15 11 16 12 17 13 18 17 19 14 20 16 21 15 22 2 23
REMARK SMILES IDX 3 24 1 25 35 26 36 27 43 28 38 29 42 30 39 32 40 33 41 34
REMARK SMILES IDX 37 35 24 37 25 38 26 39 27 40 28 41 29 42 34 43 30 44 33 45
REMARK SMILES IDX 31 46 32 47
REMARK H PARENT 37 36 32 48
REMARK Flexibility Score: 90.00
ROOT
ATOM      1  C   UNL     1      62.888  85.344  77.293  1.00  0.00     0.264 C 
ENDROOT
BRANCH   1   2
ATOM      2  C   UNL     1      63.952  85.364  76.220  1.00  0.00    -0.033 C 
ATOM      3  C   UNL     1      63.709  84.755  75.041  1.00  0.00    -0.015 C 
BRANCH   3   4
ATOM      4  C   UNL     1      64.628  84.570  73.843  1.00  0.00     0.078 C 
ATOM      5  O   UNL     1      64.204  86.462  72.309  1.00  0.00    -0.319 OA
ATOM      6  C   UNL     1      65.227  85.850  73.154  1.00  0.00     0.095 CG0
ATOM      7  C   UNL     1      63.421  85.541  71.526  1.00  0.00     0.289 C 
ATOM      8  C   UNL     1      66.442  85.384  72.251  1.00  0.00     0.023 C 
ATOM      9  G   UNL     1      65.561  86.942  74.212  1.00  0.00     0.000 G0
ATOM     10  O   UNL     1      62.769  84.582  72.354  1.00  0.00    -0.320 OA
ATOM     11  O   UNL     1      64.219  84.786  70.617  1.00  0.00    -0.313 OA
ATOM     12  C   UNL     1      63.894  83.774  72.736  1.00  0.00     0.170 C 
ATOM     13  C   UNL     1      66.199  83.965  71.652  1.00  0.00     0.049 C 
ATOM     14  C   UNL     1      66.837  86.352  71.122  1.00  0.00     0.011 C 
ATOM     15  C   UNL     1      64.711  83.695  71.423  1.00  0.00     0.122 C 
BRANCH   7  16
ATOM     16  C   UNL     1      62.388  86.335  70.751  1.00  0.00     0.135 C 
BRANCH  16  17
ATOM     17  C   UNL     1      61.003  85.758  70.897  1.00  0.00    -0.040 A 
ATOM     18  C   UNL     1      60.514  84.866  69.943  1.00  0.00     0.004 A 
ATOM     19  C   UNL     1      60.211  86.116  71.988  1.00  0.00     0.004 A 
ATOM     20  C   UNL     1      59.232  84.332  70.079  1.00  0.00     0.000 A 
ATOM     21  C   UNL     1      58.929  85.582  72.124  1.00  0.00     0.000 A 
ATOM     22  C   UNL     1      58.440  84.690  71.169  1.00  0.00     0.000 A 
ENDBRANCH  16  17
ENDBRANCH   7  16
BRANCH  15  23
ATOM     23  C   UNL     1      64.466  82.419  70.685  1.00  0.00    -0.046 C 
ATOM     24  C   UNL     1      63.370  82.446  69.661  1.00  0.00     0.042 C 
ATOM     25  C   UNL     1      65.184  81.312  70.925  1.00  0.00     0.010 C 
ENDBRANCH  15  23
ENDBRANCH   3   4
BRANCH   2  26
ATOM     26  C   UNL     1      65.205  86.111  76.636  1.00  0.00     0.078 C 
BRANCH  26  27
ATOM     27  C   UNL     1      66.230  86.417  75.546  1.00  0.00     0.140 C 
ATOM     28  C   UNL     1      65.568  86.926  74.249  1.00  0.00     0.086 CG0
ATOM     29  C   UNL     1      67.146  87.564  75.917  1.00  0.00     0.190 C 
ATOM     30  C   UNL     1      66.411  88.112  73.869  1.00  0.00    -0.010 C 
ATOM     31  G   UNL     1      65.241  85.847  73.176  1.00  0.00     0.000 G0
ATOM     32  O   UNL     1      67.739  87.682  76.978  1.00  0.00    -0.291 OA
ATOM     33  C   UNL     1      67.287  88.513  74.796  1.00  0.00    -0.008 C 
ATOM     34  C   UNL     1      68.204  89.671  74.800  1.00  0.00     0.048 C 
BRANCH  27  35
ATOM     35  O   UNL     1      67.116  85.328  75.347  1.00  0.00    -0.381 OA
ATOM     36  H   UNL     1      67.397  84.998  76.218  1.00  0.00     0.212 HD
ENDBRANCH  27  35
ENDBRANCH  26  27
ENDBRANCH   2  26
ENDBRANCH   1   2
BRANCH   1  37
ATOM     37  O   UNL     1      63.113  86.410  78.192  1.00  0.00    -0.461 OA
BRANCH  37  38
ATOM     38  C   UNL     1      62.993  86.112  79.530  1.00  0.00     0.310 C 
ATOM     39  O   UNL     1      61.994  85.642  80.058  1.00  0.00    -0.252 OA
BRANCH  38  40
ATOM     40  C   UNL     1      64.281  86.453  80.240  1.00  0.00     0.158 C 
BRANCH  40  41
ATOM     41  C   UNL     1      65.006  85.239  80.758  1.00  0.00    -0.037 A 
ATOM     42  C   UNL     1      64.768  84.784  82.055  1.00  0.00     0.008 A 
ATOM     43  C   UNL     1      65.916  84.568  79.941  1.00  0.00     0.008 A 
ATOM     44  C   UNL     1      65.441  83.660  82.535  1.00  0.00     0.046 A 
ATOM     45  C   UNL     1      66.589  83.444  80.420  1.00  0.00     0.046 A 
ATOM     46  C   UNL     1      66.351  82.990  81.717  1.00  0.00     0.115 A 
BRANCH  46  47
ATOM     47  O   UNL     1      67.007  81.894  82.186  1.00  0.00    -0.508 OA
ATOM     48  H   UNL     1      66.465  81.471  82.874  1.00  0.00     0.293 HD
ENDBRANCH  46  47
ENDBRANCH  40  41
ENDBRANCH  38  40
ENDBRANCH  37  38
ENDBRANCH   1  37
TORSDOF 10
ENDMDL
MODEL 10
REMARK VINA RESULT:    -6.449     20.494     24.515
REMARK INTER + INTRA:         -11.844
REMARK INTER:                 -10.136
REMARK INTRA:                  -1.708
REMARK UNBOUND:                -0.871
REMARK SMILES C=C(C)[C@]12C[C@@H](C)[C@@]34O[C@](Cc5ccccc5)(O[C@@H]1[C@@H]3C=C(COC(=O)Cc1ccc(O)cc1)C[C@]1(O)C(=O)C(C)=C[C@@H]41)O2
REMARK SMILES IDX 23 1 22 2 21 3 20 4 9 5 8 6 10 7 6 8 18 10 44 11 19 12 5 13
REMARK SMILES IDX 7 14 4 15 11 16 12 17 13 18 17 19 14 20 16 21 15 22 2 23
REMARK SMILES IDX 3 24 1 25 35 26 36 27 43 28 38 29 42 30 39 32 40 33 41 34
REMARK SMILES IDX 37 35 24 37 25 38 26 39 27 40 28 41 29 42 34 43 30 44 33 45
REMARK SMILES IDX 31 46 32 47
REMARK H PARENT 37 36 32 48
REMARK Flexibility Score: 90.00
ROOT
ATOM      1  C   UNL     1      70.392  84.784  68.235  1.00  0.00     0.264 C 
ENDROOT
BRANCH   1   2
ATOM      2  C   UNL     1      71.493  85.134  67.261  1.00  0.00    -0.033 C 
ATOM      3  C   UNL     1      72.046  86.363  67.305  1.00  0.00    -0.015 C 
BRANCH   3   4
ATOM      4  C   UNL     1      73.100  86.980  66.399  1.00  0.00     0.078 C 
ATOM      5  O   UNL     1      75.296  86.548  67.450  1.00  0.00    -0.319 OA
ATOM      6  C   UNL     1      74.490  86.256  66.267  1.00  0.00     0.095 CG0
ATOM      7  C   UNL     1      75.253  87.915  67.902  1.00  0.00     0.289 C 
ATOM      8  C   UNL     1      75.214  86.839  64.984  1.00  0.00     0.023 C 
ATOM      9  G   UNL     1      74.312  84.710  66.290  1.00  0.00     0.000 G0
ATOM     10  O   UNL     1      73.919  88.325  68.187  1.00  0.00    -0.320 OA
ATOM     11  O   UNL     1      75.735  88.827  66.918  1.00  0.00    -0.313 OA
ATOM     12  C   UNL     1      73.399  88.431  66.852  1.00  0.00     0.170 C 
ATOM     13  C   UNL     1      74.860  88.341  64.759  1.00  0.00     0.049 C 
ATOM     14  C   UNL     1      76.742  86.665  64.950  1.00  0.00     0.011 C 
ATOM     15  C   UNL     1      74.584  89.061  66.080  1.00  0.00     0.122 C 
BRANCH   7  16
ATOM     16  C   UNL     1      76.102  88.028  69.153  1.00  0.00     0.135 C 
BRANCH  16  17
ATOM     17  C   UNL     1      76.405  86.679  69.756  1.00  0.00    -0.040 A 
ATOM     18  C   UNL     1      77.682  86.132  69.636  1.00  0.00     0.004 A 
ATOM     19  C   UNL     1      75.407  85.980  70.434  1.00  0.00     0.004 A 
ATOM     20  C   UNL     1      77.961  84.884  70.195  1.00  0.00     0.000 A 
ATOM     21  C   UNL     1      75.686  84.732  70.993  1.00  0.00     0.000 A 
ATOM     22  C   UNL     1      76.963  84.185  70.873  1.00  0.00     0.000 A 
ENDBRANCH  16  17
ENDBRANCH   7  16
BRANCH  15  23
ATOM     23  C   UNL     1      74.421  90.535  65.906  1.00  0.00    -0.046 C 
ATOM     24  C   UNL     1      75.185  91.403  66.862  1.00  0.00     0.042 C 
ATOM     25  C   UNL     1      73.636  91.055  64.951  1.00  0.00     0.010 C 
ENDBRANCH  15  23
ENDBRANCH   3   4
BRANCH   2  26
ATOM     26  C   UNL     1      71.846  83.992  66.326  1.00  0.00     0.078 C 
BRANCH  26  27
ATOM     27  C   UNL     1      73.103  84.151  65.473  1.00  0.00     0.140 C 
ATOM     28  C   UNL     1      74.293  84.702  66.286  1.00  0.00     0.086 CG0
ATOM     29  C   UNL     1      73.636  82.825  64.973  1.00  0.00     0.190 C 
ATOM     30  C   UNL     1      75.435  83.812  65.880  1.00  0.00    -0.010 C 
ATOM     31  G   UNL     1      74.483  86.246  66.263  1.00  0.00     0.000 G0
ATOM     32  O   UNL     1      72.971  81.953  64.433  1.00  0.00    -0.291 OA
ATOM     33  C   UNL     1      75.095  82.734  65.166  1.00  0.00    -0.008 C 
ATOM     34  C   UNL     1      75.929  81.618  64.673  1.00  0.00     0.048 C 
BRANCH  27  35
ATOM     35  O   UNL     1      72.835  84.878  64.286  1.00  0.00    -0.381 OA
ATOM     36  H   UNL     1      72.052  84.490  63.859  1.00  0.00     0.212 HD
ENDBRANCH  27  35
ENDBRANCH  26  27
ENDBRANCH   2  26
ENDBRANCH   1   2
BRANCH   1  37
ATOM     37  O   UNL     1      69.300  85.657  68.038  1.00  0.00    -0.461 OA
BRANCH  37  38
ATOM     38  C   UNL     1      68.364  85.697  69.046  1.00  0.00     0.310 C 
ATOM     39  O   UNL     1      67.787  84.723  69.508  1.00  0.00    -0.252 OA
BRANCH  38  40
ATOM     40  C   UNL     1      68.164  87.126  69.490  1.00  0.00     0.158 C 
BRANCH  40  41
ATOM     41  C   UNL     1      69.453  87.813  69.858  1.00  0.00    -0.037 A 
ATOM     42  C   UNL     1      70.232  87.321  70.906  1.00  0.00     0.008 A 
ATOM     43  C   UNL     1      69.869  88.942  69.153  1.00  0.00     0.008 A 
ATOM     44  C   UNL     1      71.425  87.958  71.248  1.00  0.00     0.046 A 
ATOM     45  C   UNL     1      71.062  89.579  69.493  1.00  0.00     0.046 A 
ATOM     46  C   UNL     1      71.840  89.087  70.541  1.00  0.00     0.115 A 
BRANCH  46  47
ATOM     47  O   UNL     1      73.004  89.709  70.874  1.00  0.00    -0.508 OA
ATOM     48  H   UNL     1      73.715  89.377  70.299  1.00  0.00     0.293 HD
ENDBRANCH  46  47
ENDBRANCH  40  41
ENDBRANCH  38  40
ENDBRANCH  37  38
ENDBRANCH   1  37
TORSDOF 10
ENDMDL
