MODEL 1
REMARK VINA RESULT:    -6.914      0.000      0.000
REMARK INTER + INTRA:         -12.626
REMARK INTER:                 -11.765
REMARK INTRA:                  -0.861
REMARK UNBOUND:                -0.861
REMARK SMILES C=C(C)[C@]12C[C@@H](C)[C@@]34O[C@](Cc5ccccc5)(O[C@@H]1[C@@H]3C=C(COC(=O)Cc1ccc(O)cc1)C[C@]1(O)C(=O)C(C)=C[C@@H]41)O2
REMARK SMILES IDX 23 1 22 2 21 3 20 4 9 5 8 6 10 7 6 8 18 10 44 11 19 12 5 13
REMARK SMILES IDX 7 14 4 15 11 16 12 17 13 18 17 19 14 20 16 21 15 22 2 23
REMARK SMILES IDX 3 24 1 25 35 26 36 27 43 28 38 29 42 30 39 32 40 33 41 34
REMARK SMILES IDX 37 35 24 37 25 38 26 39 27 40 28 41 29 42 34 43 30 44 33 45
REMARK SMILES IDX 31 46 32 47
REMARK H PARENT 37 36 32 48
REMARK Flexibility Score: 90.00
ROOT
ATOM      1  C   UNL     1      67.699  85.983  70.570  1.00  0.00     0.264 C 
ENDROOT
BRANCH   1   2
ATOM      2  C   UNL     1      66.656  85.016  71.080  1.00  0.00    -0.033 C 
ATOM      3  C   UNL     1      66.229  85.119  72.356  1.00  0.00    -0.015 C 
BRANCH   3   4
ATOM      4  C   UNL     1      65.259  84.235  73.124  1.00  0.00     0.078 C 
ATOM      5  O   UNL     1      63.013  85.237  72.865  1.00  0.00    -0.319 OA
ATOM      6  C   UNL     1      63.805  84.049  72.553  1.00  0.00     0.095 CG0
ATOM      7  C   UNL     1      63.187  85.761  74.195  1.00  0.00     0.289 C 
ATOM      8  C   UNL     1      63.165  82.790  73.272  1.00  0.00     0.023 C 
ATOM      9  G   UNL     1      63.824  83.992  70.998  1.00  0.00     0.000 G0
ATOM     10  O   UNL     1      64.551  86.082  74.451  1.00  0.00    -0.320 OA
ATOM     11  O   UNL     1      62.817  84.821  75.201  1.00  0.00    -0.313 OA
ATOM     12  C   UNL     1      65.101  84.761  74.572  1.00  0.00     0.170 C 
ATOM     13  C   UNL     1      63.674  82.650  74.740  1.00  0.00     0.049 C 
ATOM     14  C   UNL     1      61.628  82.731  73.258  1.00  0.00     0.011 C 
ATOM     15  C   UNL     1      64.000  84.010  75.359  1.00  0.00     0.122 C 
BRANCH   7  16
ATOM     16  C   UNL     1      62.333  87.006  74.331  1.00  0.00     0.135 C 
BRANCH  16  17
ATOM     17  C   UNL     1      61.139  86.978  73.408  1.00  0.00    -0.040 A 
ATOM     18  C   UNL     1      61.085  87.836  72.311  1.00  0.00     0.004 A 
ATOM     19  C   UNL     1      60.091  86.092  73.654  1.00  0.00     0.004 A 
ATOM     20  C   UNL     1      59.981  87.809  71.458  1.00  0.00     0.000 A 
ATOM     21  C   UNL     1      58.987  86.065  72.801  1.00  0.00     0.000 A 
ATOM     22  C   UNL     1      58.933  86.923  71.704  1.00  0.00     0.000 A 
ENDBRANCH  16  17
ENDBRANCH   7  16
BRANCH  15  23
ATOM     23  C   UNL     1      64.315  83.916  76.816  1.00  0.00    -0.046 C 
ATOM     24  C   UNL     1      65.758  83.705  77.169  1.00  0.00     0.042 C 
ATOM     25  C   UNL     1      63.363  84.015  77.756  1.00  0.00     0.010 C 
ENDBRANCH  15  23
ENDBRANCH   3   4
BRANCH   2  26
ATOM     26  C   UNL     1      66.205  84.017  70.031  1.00  0.00     0.078 C 
BRANCH  26  27
ATOM     27  C   UNL     1      64.969  83.178  70.350  1.00  0.00     0.140 C 
ATOM     28  C   UNL     1      63.850  84.014  71.005  1.00  0.00     0.086 CG0
ATOM     29  C   UNL     1      64.291  82.647  69.105  1.00  0.00     0.190 C 
ATOM     30  C   UNL     1      62.615  83.593  70.258  1.00  0.00    -0.010 C 
ATOM     31  G   UNL     1      63.831  84.035  72.562  1.00  0.00     0.000 G0
ATOM     32  O   UNL     1      64.854  82.078  68.181  1.00  0.00    -0.291 OA
ATOM     33  C   UNL     1      62.831  82.848  69.170  1.00  0.00    -0.008 C 
ATOM     34  C   UNL     1      61.879  82.331  68.166  1.00  0.00     0.048 C 
BRANCH  27  35
ATOM     35  O   UNL     1      65.310  82.009  71.076  1.00  0.00    -0.381 OA
ATOM     36  H   UNL     1      64.855  81.252  70.669  1.00  0.00     0.212 HD
ENDBRANCH  27  35
ENDBRANCH  26  27
ENDBRANCH   2  26
ENDBRANCH   1   2
BRANCH   1  37
ATOM     37  O   UNL     1      68.815  85.963  71.434  1.00  0.00    -0.461 OA
BRANCH  37  38
ATOM     38  C   UNL     1      69.853  85.137  71.067  1.00  0.00     0.310 C 
ATOM     39  O   UNL     1      70.147  84.089  71.623  1.00  0.00    -0.252 OA
BRANCH  38  40
ATOM     40  C   UNL     1      70.567  85.727  69.874  1.00  0.00     0.158 C 
BRANCH  40  41
ATOM     41  C   UNL     1      70.800  84.724  68.774  1.00  0.00    -0.037 A 
ATOM     42  C   UNL     1      69.828  83.765  68.488  1.00  0.00     0.008 A 
ATOM     43  C   UNL     1      71.986  84.754  68.042  1.00  0.00     0.008 A 
ATOM     44  C   UNL     1      70.043  82.836  67.469  1.00  0.00     0.046 A 
ATOM     45  C   UNL     1      72.201  83.825  67.023  1.00  0.00     0.046 A 
ATOM     46  C   UNL     1      71.230  82.866  66.737  1.00  0.00     0.115 A 
BRANCH  46  47
ATOM     47  O   UNL     1      71.440  81.960  65.744  1.00  0.00    -0.508 OA
ATOM     48  H   UNL     1      70.719  81.306  65.756  1.00  0.00     0.293 HD
ENDBRANCH  46  47
ENDBRANCH  40  41
ENDBRANCH  38  40
ENDBRANCH  37  38
ENDBRANCH   1  37
TORSDOF 10
ENDMDL
MODEL 2
REMARK VINA RESULT:    -6.711      2.566      4.376
REMARK INTER + INTRA:         -12.279
REMARK INTER:                 -11.282
REMARK INTRA:                  -0.997
REMARK UNBOUND:                -0.861
REMARK SMILES C=C(C)[C@]12C[C@@H](C)[C@@]34O[C@](Cc5ccccc5)(O[C@@H]1[C@@H]3C=C(COC(=O)Cc1ccc(O)cc1)C[C@]1(O)C(=O)C(C)=C[C@@H]41)O2
REMARK SMILES IDX 23 1 22 2 21 3 20 4 9 5 8 6 10 7 6 8 18 10 44 11 19 12 5 13
REMARK SMILES IDX 7 14 4 15 11 16 12 17 13 18 17 19 14 20 16 21 15 22 2 23
REMARK SMILES IDX 3 24 1 25 35 26 36 27 43 28 38 29 42 30 39 32 40 33 41 34
REMARK SMILES IDX 37 35 24 37 25 38 26 39 27 40 28 41 29 42 34 43 30 44 33 45
REMARK SMILES IDX 31 46 32 47
REMARK H PARENT 37 36 32 48
REMARK Flexibility Score: 90.00
ROOT
ATOM      1  C   UNL     1      68.066  87.778  71.973  1.00  0.00     0.264 C 
ENDROOT
BRANCH   1   2
ATOM      2  C   UNL     1      67.627  86.403  71.525  1.00  0.00    -0.033 C 
ATOM      3  C   UNL     1      66.408  85.950  71.885  1.00  0.00    -0.015 C 
BRANCH   3   4
ATOM      4  C   UNL     1      65.768  84.595  71.632  1.00  0.00     0.078 C 
ATOM      5  O   UNL     1      64.466  84.793  69.539  1.00  0.00    -0.319 OA
ATOM      6  C   UNL     1      65.607  84.109  70.144  1.00  0.00     0.095 CG0
ATOM      7  C   UNL     1      63.298  84.900  70.376  1.00  0.00     0.289 C 
ATOM      8  C   UNL     1      65.327  82.550  70.176  1.00  0.00     0.023 C 
ATOM      9  G   UNL     1      66.826  84.552  69.283  1.00  0.00     0.000 G0
ATOM     10  O   UNL     1      63.596  85.572  71.596  1.00  0.00    -0.320 OA
ATOM     11  O   UNL     1      62.783  83.626  70.754  1.00  0.00    -0.313 OA
ATOM     12  C   UNL     1      64.356  84.553  72.265  1.00  0.00     0.170 C 
ATOM     13  C   UNL     1      64.511  82.141  71.440  1.00  0.00     0.049 C 
ATOM     14  C   UNL     1      64.647  81.975  68.922  1.00  0.00     0.011 C 
ATOM     15  C   UNL     1      63.580  83.264  71.900  1.00  0.00     0.122 C 
BRANCH   7  16
ATOM     16  C   UNL     1      62.237  85.668  69.613  1.00  0.00     0.135 C 
BRANCH  16  17
ATOM     17  C   UNL     1      60.905  85.647  70.321  1.00  0.00    -0.040 A 
ATOM     18  C   UNL     1      60.538  86.708  71.149  1.00  0.00     0.004 A 
ATOM     19  C   UNL     1      60.041  84.567  70.147  1.00  0.00     0.004 A 
ATOM     20  C   UNL     1      59.306  86.688  71.803  1.00  0.00     0.000 A 
ATOM     21  C   UNL     1      58.808  84.548  70.801  1.00  0.00     0.000 A 
ATOM     22  C   UNL     1      58.441  85.608  71.629  1.00  0.00     0.000 A 
ENDBRANCH  16  17
ENDBRANCH   7  16
BRANCH  15  23
ATOM     23  C   UNL     1      62.660  82.833  72.996  1.00  0.00    -0.046 C 
ATOM     24  C   UNL     1      62.854  81.439  73.513  1.00  0.00     0.042 C 
ATOM     25  C   UNL     1      61.714  83.646  73.488  1.00  0.00     0.010 C 
ENDBRANCH  15  23
ENDBRANCH   3   4
BRANCH   2  26
ATOM     26  C   UNL     1      68.667  85.690  70.681  1.00  0.00     0.078 C 
BRANCH  26  27
ATOM     27  C   UNL     1      68.234  84.408  69.974  1.00  0.00     0.140 C 
ATOM     28  C   UNL     1      66.861  84.556  69.286  1.00  0.00     0.086 CG0
ATOM     29  C   UNL     1      69.140  84.050  68.815  1.00  0.00     0.190 C 
ATOM     30  C   UNL     1      67.082  83.952  67.928  1.00  0.00    -0.010 C 
ATOM     31  G   UNL     1      65.624  84.120  70.124  1.00  0.00     0.000 G0
ATOM     32  O   UNL     1      70.361  84.015  68.856  1.00  0.00    -0.291 OA
ATOM     33  C   UNL     1      68.355  83.682  67.622  1.00  0.00    -0.008 C 
ATOM     34  C   UNL     1      68.944  83.169  66.368  1.00  0.00     0.048 C 
BRANCH  27  35
ATOM     35  O   UNL     1      68.325  83.285  70.835  1.00  0.00    -0.381 OA
ATOM     36  H   UNL     1      69.021  83.457  71.491  1.00  0.00     0.212 HD
ENDBRANCH  27  35
ENDBRANCH  26  27
ENDBRANCH   2  26
ENDBRANCH   1   2
BRANCH   1  37
ATOM     37  O   UNL     1      68.357  88.567  70.840  1.00  0.00    -0.461 OA
BRANCH  37  38
ATOM     38  C   UNL     1      69.495  89.337  70.911  1.00  0.00     0.310 C 
ATOM     39  O   UNL     1      69.737  90.301  70.198  1.00  0.00    -0.252 OA
BRANCH  38  40
ATOM     40  C   UNL     1      70.394  88.807  72.002  1.00  0.00     0.158 C 
BRANCH  40  41
ATOM     41  C   UNL     1      71.770  88.445  71.506  1.00  0.00    -0.037 A 
ATOM     42  C   UNL     1      71.933  87.391  70.608  1.00  0.00     0.008 A 
ATOM     43  C   UNL     1      72.881  89.164  71.946  1.00  0.00     0.008 A 
ATOM     44  C   UNL     1      73.207  87.055  70.149  1.00  0.00     0.046 A 
ATOM     45  C   UNL     1      74.156  88.829  71.487  1.00  0.00     0.046 A 
ATOM     46  C   UNL     1      74.319  87.775  70.589  1.00  0.00     0.115 A 
BRANCH  46  47
ATOM     47  O   UNL     1      75.561  87.447  70.142  1.00  0.00    -0.508 OA
ATOM     48  H   UNL     1      75.844  86.621  70.572  1.00  0.00     0.293 HD
ENDBRANCH  46  47
ENDBRANCH  40  41
ENDBRANCH  38  40
ENDBRANCH  37  38
ENDBRANCH   1  37
TORSDOF 10
ENDMDL
MODEL 3
REMARK VINA RESULT:    -6.707      2.637      6.820
REMARK INTER + INTRA:         -12.273
REMARK INTER:                 -10.007
REMARK INTRA:                  -2.266
REMARK UNBOUND:                -0.861
REMARK SMILES C=C(C)[C@]12C[C@@H](C)[C@@]34O[C@](Cc5ccccc5)(O[C@@H]1[C@@H]3C=C(COC(=O)Cc1ccc(O)cc1)C[C@]1(O)C(=O)C(C)=C[C@@H]41)O2
REMARK SMILES IDX 23 1 22 2 21 3 20 4 9 5 8 6 10 7 6 8 18 10 44 11 19 12 5 13
REMARK SMILES IDX 7 14 4 15 11 16 12 17 13 18 17 19 14 20 16 21 15 22 2 23
REMARK SMILES IDX 3 24 1 25 35 26 36 27 43 28 38 29 42 30 39 32 40 33 41 34
REMARK SMILES IDX 37 35 24 37 25 38 26 39 27 40 28 41 29 42 34 43 30 44 33 45
REMARK SMILES IDX 31 46 32 47
REMARK H PARENT 37 36 32 48
REMARK Flexibility Score: 90.00
ROOT
ATOM      1  C   UNL     1      66.605  85.420  74.927  1.00  0.00     0.264 C 
ENDROOT
BRANCH   1   2
ATOM      2  C   UNL     1      66.696  85.354  73.420  1.00  0.00    -0.033 C 
ATOM      3  C   UNL     1      65.677  84.812  72.722  1.00  0.00    -0.015 C 
BRANCH   3   4
ATOM      4  C   UNL     1      65.557  84.562  71.227  1.00  0.00     0.078 C 
ATOM      5  O   UNL     1      64.482  86.562  70.246  1.00  0.00    -0.319 OA
ATOM      6  C   UNL     1      65.719  85.783  70.248  1.00  0.00     0.095 CG0
ATOM      7  C   UNL     1      63.267  85.787  70.213  1.00  0.00     0.289 C 
ATOM      8  C   UNL     1      65.975  85.203  68.797  1.00  0.00     0.023 C 
ATOM      9  G   UNL     1      66.799  86.773  70.773  1.00  0.00     0.000 G0
ATOM     10  O   UNL     1      63.198  84.885  71.313  1.00  0.00    -0.320 OA
ATOM     11  O   UNL     1      63.173  84.976  69.044  1.00  0.00    -0.313 OA
ATOM     12  C   UNL     1      64.183  83.921  70.910  1.00  0.00     0.170 C 
ATOM     13  C   UNL     1      65.220  83.856  68.577  1.00  0.00     0.049 C 
ATOM     14  C   UNL     1      65.657  86.161  67.636  1.00  0.00     0.011 C 
ATOM     15  C   UNL     1      63.925  83.795  69.389  1.00  0.00     0.122 C 
BRANCH   7  16
ATOM     16  C   UNL     1      62.093  86.744  70.259  1.00  0.00     0.135 C 
BRANCH  16  17
ATOM     17  C   UNL     1      60.835  86.074  70.755  1.00  0.00    -0.040 A 
ATOM     18  C   UNL     1      60.238  86.502  71.940  1.00  0.00     0.004 A 
ATOM     19  C   UNL     1      60.271  85.027  70.027  1.00  0.00     0.004 A 
ATOM     20  C   UNL     1      59.075  85.882  72.398  1.00  0.00     0.000 A 
ATOM     21  C   UNL     1      59.108  84.408  70.485  1.00  0.00     0.000 A 
ATOM     22  C   UNL     1      58.510  84.835  71.670  1.00  0.00     0.000 A 
ENDBRANCH  16  17
ENDBRANCH   7  16
BRANCH  15  23
ATOM     23  C   UNL     1      63.096  82.597  69.057  1.00  0.00    -0.046 C 
ATOM     24  C   UNL     1      62.417  82.611  67.719  1.00  0.00     0.042 C 
ATOM     25  C   UNL     1      62.966  81.567  69.906  1.00  0.00     0.010 C 
ENDBRANCH  15  23
ENDBRANCH   3   4
BRANCH   2  26
ATOM     26  C   UNL     1      67.983  85.944  72.875  1.00  0.00     0.078 C 
BRANCH  26  27
ATOM     27  C   UNL     1      68.083  86.120  71.361  1.00  0.00     0.140 C 
ATOM     28  C   UNL     1      66.815  86.765  70.763  1.00  0.00     0.086 CG0
ATOM     29  C   UNL     1      69.165  87.101  70.961  1.00  0.00     0.190 C 
ATOM     30  C   UNL     1      67.359  87.818  69.839  1.00  0.00    -0.010 C 
ATOM     31  G   UNL     1      65.725  85.782  70.244  1.00  0.00     0.000 G0
ATOM     32  O   UNL     1      70.314  87.094  71.376  1.00  0.00    -0.291 OA
ATOM     33  C   UNL     1      68.671  88.050  69.946  1.00  0.00    -0.008 C 
ATOM     34  C   UNL     1      69.518  89.052  69.266  1.00  0.00     0.048 C 
BRANCH  27  35
ATOM     35  O   UNL     1      68.467  84.914  70.722  1.00  0.00    -0.381 OA
ATOM     36  H   UNL     1      68.413  84.193  71.372  1.00  0.00     0.212 HD
ENDBRANCH  27  35
ENDBRANCH  26  27
ENDBRANCH   2  26
ENDBRANCH   1   2
BRANCH   1  37
ATOM     37  O   UNL     1      65.538  86.268  75.294  1.00  0.00    -0.461 OA
BRANCH  37  38
ATOM     38  C   UNL     1      64.779  85.860  76.367  1.00  0.00     0.310 C 
ATOM     39  O   UNL     1      65.220  85.574  77.471  1.00  0.00    -0.252 OA
BRANCH  38  40
ATOM     40  C   UNL     1      63.323  85.821  75.968  1.00  0.00     0.158 C 
BRANCH  40  41
ATOM     41  C   UNL     1      62.926  84.521  75.318  1.00  0.00    -0.037 A 
ATOM     42  C   UNL     1      63.701  83.377  75.515  1.00  0.00     0.008 A 
ATOM     43  C   UNL     1      61.785  84.460  74.518  1.00  0.00     0.008 A 
ATOM     44  C   UNL     1      63.334  82.174  74.912  1.00  0.00     0.046 A 
ATOM     45  C   UNL     1      61.418  83.256  73.916  1.00  0.00     0.046 A 
ATOM     46  C   UNL     1      62.192  82.114  74.112  1.00  0.00     0.115 A 
BRANCH  46  47
ATOM     47  O   UNL     1      61.835  80.939  73.524  1.00  0.00    -0.508 OA
ATOM     48  H   UNL     1      62.616  80.360  73.477  1.00  0.00     0.293 HD
ENDBRANCH  46  47
ENDBRANCH  40  41
ENDBRANCH  38  40
ENDBRANCH  37  38
ENDBRANCH   1  37
TORSDOF 10
ENDMDL
MODEL 4
REMARK VINA RESULT:    -6.623      1.876      5.425
REMARK INTER + INTRA:         -12.130
REMARK INTER:                 -10.913
REMARK INTRA:                  -1.218
REMARK UNBOUND:                -0.861
REMARK SMILES C=C(C)[C@]12C[C@@H](C)[C@@]34O[C@](Cc5ccccc5)(O[C@@H]1[C@@H]3C=C(COC(=O)Cc1ccc(O)cc1)C[C@]1(O)C(=O)C(C)=C[C@@H]41)O2
REMARK SMILES IDX 23 1 22 2 21 3 20 4 9 5 8 6 10 7 6 8 18 10 44 11 19 12 5 13
REMARK SMILES IDX 7 14 4 15 11 16 12 17 13 18 17 19 14 20 16 21 15 22 2 23
REMARK SMILES IDX 3 24 1 25 35 26 36 27 43 28 38 29 42 30 39 32 40 33 41 34
REMARK SMILES IDX 37 35 24 37 25 38 26 39 27 40 28 41 29 42 34 43 30 44 33 45
REMARK SMILES IDX 31 46 32 47
REMARK H PARENT 37 36 32 48
REMARK Flexibility Score: 90.00
ROOT
ATOM      1  C   UNL     1      67.962  86.738  72.680  1.00  0.00     0.264 C 
ENDROOT
BRANCH   1   2
ATOM      2  C   UNL     1      66.753  86.457  73.542  1.00  0.00    -0.033 C 
ATOM      3  C   UNL     1      65.588  86.117  72.952  1.00  0.00    -0.015 C 
BRANCH   3   4
ATOM      4  C   UNL     1      64.227  85.862  73.580  1.00  0.00     0.078 C 
ATOM      5  O   UNL     1      64.079  83.433  74.018  1.00  0.00    -0.319 OA
ATOM      6  C   UNL     1      64.106  84.739  74.674  1.00  0.00     0.095 CG0
ATOM      7  C   UNL     1      63.261  83.356  72.835  1.00  0.00     0.289 C 
ATOM      8  C   UNL     1      62.740  84.966  75.446  1.00  0.00     0.023 C 
ATOM      9  G   UNL     1      65.379  84.697  75.568  1.00  0.00     0.000 G0
ATOM     10  O   UNL     1      63.669  84.311  71.860  1.00  0.00    -0.320 OA
ATOM     11  O   UNL     1      61.890  83.641  73.103  1.00  0.00    -0.313 OA
ATOM     12  C   UNL     1      63.195  85.518  72.478  1.00  0.00     0.170 C 
ATOM     13  C   UNL     1      61.642  85.548  74.505  1.00  0.00     0.049 C 
ATOM     14  C   UNL     1      62.183  83.734  76.179  1.00  0.00     0.011 C 
ATOM     15  C   UNL     1      61.828  85.082  73.060  1.00  0.00     0.122 C 
BRANCH   7  16
ATOM     16  C   UNL     1      63.383  81.957  72.264  1.00  0.00     0.135 C 
BRANCH  16  17
ATOM     17  C   UNL     1      63.614  81.971  70.773  1.00  0.00    -0.040 A 
ATOM     18  C   UNL     1      64.878  81.685  70.261  1.00  0.00     0.004 A 
ATOM     19  C   UNL     1      62.561  82.271  69.909  1.00  0.00     0.004 A 
ATOM     20  C   UNL     1      65.091  81.697  68.882  1.00  0.00     0.000 A 
ATOM     21  C   UNL     1      62.775  82.284  68.530  1.00  0.00     0.000 A 
ATOM     22  C   UNL     1      64.039  81.998  68.017  1.00  0.00     0.000 A 
ENDBRANCH  16  17
ENDBRANCH   7  16
BRANCH  15  23
ATOM     23  C   UNL     1      60.690  85.477  72.178  1.00  0.00    -0.046 C 
ATOM     24  C   UNL     1      61.054  86.165  70.895  1.00  0.00     0.042 C 
ATOM     25  C   UNL     1      59.414  85.232  72.512  1.00  0.00     0.010 C 
ENDBRANCH  15  23
ENDBRANCH   3   4
BRANCH   2  26
ATOM     26  C   UNL     1      67.034  86.596  75.026  1.00  0.00     0.078 C 
BRANCH  26  27
ATOM     27  C   UNL     1      65.956  86.104  75.990  1.00  0.00     0.140 C 
ATOM     28  C   UNL     1      65.394  84.726  75.583  1.00  0.00     0.086 CG0
ATOM     29  C   UNL     1      66.497  85.837  77.378  1.00  0.00     0.190 C 
ATOM     30  C   UNL     1      65.378  83.958  76.876  1.00  0.00    -0.010 C 
ATOM     31  G   UNL     1      64.120  84.741  74.689  1.00  0.00     0.000 G0
ATOM     32  O   UNL     1      67.201  86.600  78.023  1.00  0.00    -0.291 OA
ATOM     33  C   UNL     1      66.014  84.543  77.896  1.00  0.00    -0.008 C 
ATOM     34  C   UNL     1      66.267  84.052  79.266  1.00  0.00     0.048 C 
BRANCH  27  35
ATOM     35  O   UNL     1      64.959  87.089  76.199  1.00  0.00    -0.381 OA
ATOM     36  H   UNL     1      64.218  86.909  75.595  1.00  0.00     0.212 HD
ENDBRANCH  27  35
ENDBRANCH  26  27
ENDBRANCH   2  26
ENDBRANCH   1   2
BRANCH   1  37
ATOM     37  O   UNL     1      68.331  85.559  71.996  1.00  0.00    -0.461 OA
BRANCH  37  38
ATOM     38  C   UNL     1      68.107  85.550  70.638  1.00  0.00     0.310 C 
ATOM     39  O   UNL     1      68.223  86.518  69.900  1.00  0.00    -0.252 OA
BRANCH  38  40
ATOM     40  C   UNL     1      67.699  84.162  70.205  1.00  0.00     0.158 C 
BRANCH  40  41
ATOM     41  C   UNL     1      68.208  83.801  68.833  1.00  0.00    -0.037 A 
ATOM     42  C   UNL     1      69.509  83.325  68.675  1.00  0.00     0.008 A 
ATOM     43  C   UNL     1      67.378  83.944  67.721  1.00  0.00     0.008 A 
ATOM     44  C   UNL     1      69.981  82.992  67.405  1.00  0.00     0.046 A 
ATOM     45  C   UNL     1      67.849  83.610  66.451  1.00  0.00     0.046 A 
ATOM     46  C   UNL     1      69.150  83.134  66.293  1.00  0.00     0.115 A 
BRANCH  46  47
ATOM     47  O   UNL     1      69.610  82.810  65.054  1.00  0.00    -0.508 OA
ATOM     48  H   UNL     1      69.037  82.120  64.675  1.00  0.00     0.293 HD
ENDBRANCH  46  47
ENDBRANCH  40  41
ENDBRANCH  38  40
ENDBRANCH  37  38
ENDBRANCH   1  37
TORSDOF 10
ENDMDL
MODEL 5
REMARK VINA RESULT:    -6.544      2.250      8.206
REMARK INTER + INTRA:         -11.996
REMARK INTER:                 -10.462
REMARK INTRA:                  -1.534
REMARK UNBOUND:                -0.861
REMARK SMILES C=C(C)[C@]12C[C@@H](C)[C@@]34O[C@](Cc5ccccc5)(O[C@@H]1[C@@H]3C=C(COC(=O)Cc1ccc(O)cc1)C[C@]1(O)C(=O)C(C)=C[C@@H]41)O2
REMARK SMILES IDX 23 1 22 2 21 3 20 4 9 5 8 6 10 7 6 8 18 10 44 11 19 12 5 13
REMARK SMILES IDX 7 14 4 15 11 16 12 17 13 18 17 19 14 20 16 21 15 22 2 23
REMARK SMILES IDX 3 24 1 25 35 26 36 27 43 28 38 29 42 30 39 32 40 33 41 34
REMARK SMILES IDX 37 35 24 37 25 38 26 39 27 40 28 41 29 42 34 43 30 44 33 45
REMARK SMILES IDX 31 46 32 47
REMARK H PARENT 37 36 32 48
REMARK Flexibility Score: 90.00
ROOT
ATOM      1  C   UNL     1      66.212  87.338  74.094  1.00  0.00     0.264 C 
ENDROOT
BRANCH   1   2
ATOM      2  C   UNL     1      65.545  86.433  73.084  1.00  0.00    -0.033 C 
ATOM      3  C   UNL     1      66.099  86.285  71.863  1.00  0.00    -0.015 C 
BRANCH   3   4
ATOM      4  C   UNL     1      65.592  85.506  70.661  1.00  0.00     0.078 C 
ATOM      5  O   UNL     1      66.578  83.242  70.802  1.00  0.00    -0.319 OA
ATOM      6  C   UNL     1      65.310  83.968  70.831  1.00  0.00     0.095 CG0
ATOM      7  C   UNL     1      67.515  83.680  69.799  1.00  0.00     0.289 C 
ATOM      8  C   UNL     1      64.414  83.506  69.608  1.00  0.00     0.023 C 
ATOM      9  G   UNL     1      64.723  83.666  72.241  1.00  0.00     0.000 G0
ATOM     10  O   UNL     1      67.821  85.064  69.946  1.00  0.00    -0.320 OA
ATOM     11  O   UNL     1      67.000  83.538  68.477  1.00  0.00    -0.313 OA
ATOM     12  C   UNL     1      66.590  85.644  69.485  1.00  0.00     0.170 C 
ATOM     13  C   UNL     1      64.754  84.309  68.315  1.00  0.00     0.049 C 
ATOM     14  C   UNL     1      64.446  82.000  69.296  1.00  0.00     0.011 C 
ATOM     15  C   UNL     1      66.222  84.738  68.285  1.00  0.00     0.122 C 
BRANCH   7  16
ATOM     16  C   UNL     1      68.780  82.857  69.939  1.00  0.00     0.135 C 
BRANCH  16  17
ATOM     17  C   UNL     1      69.933  83.455  69.172  1.00  0.00    -0.040 A 
ATOM     18  C   UNL     1      70.176  83.060  67.857  1.00  0.00     0.004 A 
ATOM     19  C   UNL     1      70.755  84.404  69.779  1.00  0.00     0.004 A 
ATOM     20  C   UNL     1      71.242  83.614  67.147  1.00  0.00     0.000 A 
ATOM     21  C   UNL     1      71.821  84.958  69.069  1.00  0.00     0.000 A 
ATOM     22  C   UNL     1      72.064  84.563  67.754  1.00  0.00     0.000 A 
ENDBRANCH  16  17
ENDBRANCH   7  16
BRANCH  15  23
ATOM     23  C   UNL     1      66.614  85.348  66.979  1.00  0.00    -0.046 C 
ATOM     24  C   UNL     1      68.010  85.891  66.895  1.00  0.00     0.042 C 
ATOM     25  C   UNL     1      65.767  85.408  65.941  1.00  0.00     0.010 C 
ENDBRANCH  15  23
ENDBRANCH   3   4
BRANCH   2  26
ATOM     26  C   UNL     1      64.283  85.778  73.614  1.00  0.00     0.078 C 
BRANCH  26  27
ATOM     27  C   UNL     1      63.663  84.670  72.766  1.00  0.00     0.140 C 
ATOM     28  C   UNL     1      64.719  83.668  72.252  1.00  0.00     0.086 CG0
ATOM     29  C   UNL     1      62.733  83.780  73.563  1.00  0.00     0.190 C 
ATOM     30  C   UNL     1      64.093  82.329  72.526  1.00  0.00    -0.010 C 
ATOM     31  G   UNL     1      65.312  83.960  70.843  1.00  0.00     0.000 G0
ATOM     32  O   UNL     1      61.845  84.171  74.307  1.00  0.00    -0.291 OA
ATOM     33  C   UNL     1      62.992  82.356  73.283  1.00  0.00    -0.008 C 
ATOM     34  C   UNL     1      62.174  81.245  73.812  1.00  0.00     0.048 C 
BRANCH  27  35
ATOM     35  O   UNL     1      62.833  85.200  71.746  1.00  0.00    -0.381 OA
ATOM     36  H   UNL     1      63.172  86.077  71.499  1.00  0.00     0.212 HD
ENDBRANCH  27  35
ENDBRANCH  26  27
ENDBRANCH   2  26
ENDBRANCH   1   2
BRANCH   1  37
ATOM     37  O   UNL     1      67.064  86.570  74.917  1.00  0.00    -0.461 OA
BRANCH  37  38
ATOM     38  C   UNL     1      67.404  87.128  76.128  1.00  0.00     0.310 C 
ATOM     39  O   UNL     1      67.751  88.289  76.294  1.00  0.00    -0.252 OA
BRANCH  38  40
ATOM     40  C   UNL     1      67.280  86.087  77.215  1.00  0.00     0.158 C 
BRANCH  40  41
ATOM     41  C   UNL     1      65.928  85.424  77.243  1.00  0.00    -0.037 A 
ATOM     42  C   UNL     1      64.851  86.062  77.860  1.00  0.00     0.008 A 
ATOM     43  C   UNL     1      65.751  84.173  76.654  1.00  0.00     0.008 A 
ATOM     44  C   UNL     1      63.598  85.448  77.887  1.00  0.00     0.046 A 
ATOM     45  C   UNL     1      64.499  83.558  76.680  1.00  0.00     0.046 A 
ATOM     46  C   UNL     1      63.423  84.196  77.297  1.00  0.00     0.115 A 
BRANCH  46  47
ATOM     47  O   UNL     1      62.201  83.597  77.324  1.00  0.00    -0.508 OA
ATOM     48  H   UNL     1      61.571  84.186  77.774  1.00  0.00     0.293 HD
ENDBRANCH  46  47
ENDBRANCH  40  41
ENDBRANCH  38  40
ENDBRANCH  37  38
ENDBRANCH   1  37
TORSDOF 10
ENDMDL
MODEL 6
REMARK VINA RESULT:    -6.506      4.447     11.852
REMARK INTER + INTRA:         -11.931
REMARK INTER:                 -11.668
REMARK INTRA:                  -0.262
REMARK UNBOUND:                -0.861
REMARK SMILES C=C(C)[C@]12C[C@@H](C)[C@@]34O[C@](Cc5ccccc5)(O[C@@H]1[C@@H]3C=C(COC(=O)Cc1ccc(O)cc1)C[C@]1(O)C(=O)C(C)=C[C@@H]41)O2
REMARK SMILES IDX 23 1 22 2 21 3 20 4 9 5 8 6 10 7 6 8 18 10 44 11 19 12 5 13
REMARK SMILES IDX 7 14 4 15 11 16 12 17 13 18 17 19 14 20 16 21 15 22 2 23
REMARK SMILES IDX 3 24 1 25 35 26 36 27 43 28 38 29 42 30 39 32 40 33 41 34
REMARK SMILES IDX 37 35 24 37 25 38 26 39 27 40 28 41 29 42 34 43 30 44 33 45
REMARK SMILES IDX 31 46 32 47
REMARK H PARENT 37 36 32 48
REMARK Flexibility Score: 90.00
ROOT
ATOM      1  C   UNL     1      70.263  84.186  69.119  1.00  0.00     0.264 C 
ENDROOT
BRANCH   1   2
ATOM      2  C   UNL     1      71.227  84.540  68.011  1.00  0.00    -0.033 C 
ATOM      3  C   UNL     1      71.664  85.812  67.898  1.00  0.00    -0.015 C 
BRANCH   3   4
ATOM      4  C   UNL     1      72.563  86.434  66.842  1.00  0.00     0.078 C 
ATOM      5  O   UNL     1      74.885  86.247  67.671  1.00  0.00    -0.319 OA
ATOM      6  C   UNL     1      73.986  85.806  66.606  1.00  0.00     0.095 CG0
ATOM      7  C   UNL     1      74.778  87.638  68.030  1.00  0.00     0.289 C 
ATOM      8  C   UNL     1      74.521  86.340  65.214  1.00  0.00     0.023 C 
ATOM      9  G   UNL     1      73.939  84.258  66.755  1.00  0.00     0.000 G0
ATOM     10  O   UNL     1      73.451  87.969  68.431  1.00  0.00    -0.320 OA
ATOM     11  O   UNL     1      75.077  88.505  66.938  1.00  0.00    -0.313 OA
ATOM     12  C   UNL     1      72.787  87.933  67.158  1.00  0.00     0.170 C 
ATOM     13  C   UNL     1      74.023  87.790  64.928  1.00  0.00     0.049 C 
ATOM     14  C   UNL     1      76.046  86.279  65.024  1.00  0.00     0.011 C 
ATOM     15  C   UNL     1      73.829  88.587  66.218  1.00  0.00     0.122 C 
BRANCH   7  16
ATOM     16  C   UNL     1      75.741  87.910  69.168  1.00  0.00     0.135 C 
BRANCH  16  17
ATOM     17  C   UNL     1      76.197  86.639  69.840  1.00  0.00    -0.040 A 
ATOM     18  C   UNL     1      75.281  85.851  70.536  1.00  0.00     0.004 A 
ATOM     19  C   UNL     1      77.535  86.253  69.765  1.00  0.00     0.004 A 
ATOM     20  C   UNL     1      75.703  84.675  71.158  1.00  0.00     0.000 A 
ATOM     21  C   UNL     1      77.956  85.077  70.387  1.00  0.00     0.000 A 
ATOM     22  C   UNL     1      77.040  84.289  71.083  1.00  0.00     0.000 A 
ENDBRANCH  16  17
ENDBRANCH   7  16
BRANCH  15  23
ATOM     23  C   UNL     1      73.528  90.028  65.963  1.00  0.00    -0.046 C 
ATOM     24  C   UNL     1      74.396  91.022  66.677  1.00  0.00     0.042 C 
ATOM     25  C   UNL     1      72.539  90.412  65.143  1.00  0.00     0.010 C 
ENDBRANCH  15  23
ENDBRANCH   3   4
BRANCH   2  26
ATOM     26  C   UNL     1      71.593  83.354  67.138  1.00  0.00     0.078 C 
BRANCH  26  27
ATOM     27  C   UNL     1      72.725  83.551  66.132  1.00  0.00     0.140 C 
ATOM     28  C   UNL     1      73.945  84.258  66.758  1.00  0.00     0.086 CG0
ATOM     29  C   UNL     1      73.316  82.240  65.660  1.00  0.00     0.190 C 
ATOM     30  C   UNL     1      75.110  83.438  66.277  1.00  0.00    -0.010 C 
ATOM     31  G   UNL     1      73.990  85.807  66.610  1.00  0.00     0.000 G0
ATOM     32  O   UNL     1      72.677  81.277  65.262  1.00  0.00    -0.291 OA
ATOM     33  C   UNL     1      74.791  82.285  65.682  1.00  0.00    -0.008 C 
ATOM     34  C   UNL     1      75.660  81.207  65.168  1.00  0.00     0.048 C 
BRANCH  27  35
ATOM     35  O   UNL     1      72.259  84.161  64.940  1.00  0.00    -0.381 OA
ATOM     36  H   UNL     1      72.920  84.812  64.650  1.00  0.00     0.212 HD
ENDBRANCH  27  35
ENDBRANCH  26  27
ENDBRANCH   2  26
ENDBRANCH   1   2
BRANCH   1  37
ATOM     37  O   UNL     1      69.397  85.277  69.351  1.00  0.00    -0.461 OA
BRANCH  37  38
ATOM     38  C   UNL     1      68.556  85.166  70.435  1.00  0.00     0.310 C 
ATOM     39  O   UNL     1      68.920  85.067  71.598  1.00  0.00    -0.252 OA
BRANCH  38  40
ATOM     40  C   UNL     1      67.122  85.186  69.963  1.00  0.00     0.158 C 
BRANCH  40  41
ATOM     41  C   UNL     1      66.264  84.155  70.649  1.00  0.00    -0.037 A 
ATOM     42  C   UNL     1      65.337  84.549  71.615  1.00  0.00     0.008 A 
ATOM     43  C   UNL     1      66.396  82.806  70.320  1.00  0.00     0.008 A 
ATOM     44  C   UNL     1      64.543  83.594  72.251  1.00  0.00     0.046 A 
ATOM     45  C   UNL     1      65.602  81.851  70.956  1.00  0.00     0.046 A 
ATOM     46  C   UNL     1      64.676  82.245  71.921  1.00  0.00     0.115 A 
BRANCH  46  47
ATOM     47  O   UNL     1      63.901  81.314  72.542  1.00  0.00    -0.508 OA
ATOM     48  H   UNL     1      64.113  80.435  72.180  1.00  0.00     0.293 HD
ENDBRANCH  46  47
ENDBRANCH  40  41
ENDBRANCH  38  40
ENDBRANCH  37  38
ENDBRANCH   1  37
TORSDOF 10
ENDMDL
MODEL 7
REMARK VINA RESULT:    -6.441     18.560     21.234
REMARK INTER + INTRA:         -11.821
REMARK INTER:                 -10.383
REMARK INTRA:                  -1.438
REMARK UNBOUND:                -0.861
REMARK SMILES C=C(C)[C@]12C[C@@H](C)[C@@]34O[C@](Cc5ccccc5)(O[C@@H]1[C@@H]3C=C(COC(=O)Cc1ccc(O)cc1)C[C@]1(O)C(=O)C(C)=C[C@@H]41)O2
REMARK SMILES IDX 23 1 22 2 21 3 20 4 9 5 8 6 10 7 6 8 18 10 44 11 19 12 5 13
REMARK SMILES IDX 7 14 4 15 11 16 12 17 13 18 17 19 14 20 16 21 15 22 2 23
REMARK SMILES IDX 3 24 1 25 35 26 36 27 43 28 38 29 42 30 39 32 40 33 41 34
REMARK SMILES IDX 37 35 24 37 25 38 26 39 27 40 28 41 29 42 34 43 30 44 33 45
REMARK SMILES IDX 31 46 32 47
REMARK H PARENT 37 36 32 48
REMARK Flexibility Score: 90.00
ROOT
ATOM      1  C   UNL     1      69.493  66.264  81.382  1.00  0.00     0.264 C 
ENDROOT
BRANCH   1   2
ATOM      2  C   UNL     1      68.036  65.900  81.216  1.00  0.00    -0.033 C 
ATOM      3  C   UNL     1      67.108  66.537  81.960  1.00  0.00    -0.015 C 
BRANCH   3   4
ATOM      4  C   UNL     1      65.607  66.307  82.036  1.00  0.00     0.078 C 
ATOM      5  O   UNL     1      64.558  67.855  80.418  1.00  0.00    -0.319 OA
ATOM      6  C   UNL     1      64.762  66.438  80.716  1.00  0.00     0.095 CG0
ATOM      7  C   UNL     1      64.229  68.681  81.551  1.00  0.00     0.289 C 
ATOM      8  C   UNL     1      63.359  65.750  80.974  1.00  0.00     0.023 C 
ATOM      9  G   UNL     1      65.558  65.896  79.493  1.00  0.00     0.000 G0
ATOM     10  O   UNL     1      65.233  68.600  82.559  1.00  0.00    -0.320 OA
ATOM     11  O   UNL     1      63.016  68.277  82.182  1.00  0.00    -0.313 OA
ATOM     12  C   UNL     1      64.977  67.279  83.063  1.00  0.00     0.170 C 
ATOM     13  C   UNL     1      62.904  65.916  82.456  1.00  0.00     0.049 C 
ATOM     14  C   UNL     1      62.221  66.196  80.039  1.00  0.00     0.011 C 
ATOM     15  C   UNL     1      63.430  67.216  83.067  1.00  0.00     0.122 C 
BRANCH   7  16
ATOM     16  C   UNL     1      64.096  70.113  81.072  1.00  0.00     0.135 C 
BRANCH  16  17
ATOM     17  C   UNL     1      63.047  70.874  81.845  1.00  0.00    -0.040 A 
ATOM     18  C   UNL     1      63.406  71.598  82.981  1.00  0.00     0.004 A 
ATOM     19  C   UNL     1      61.719  70.852  81.421  1.00  0.00     0.004 A 
ATOM     20  C   UNL     1      62.435  72.302  83.695  1.00  0.00     0.000 A 
ATOM     21  C   UNL     1      60.749  71.556  82.135  1.00  0.00     0.000 A 
ATOM     22  C   UNL     1      61.107  72.280  83.271  1.00  0.00     0.000 A 
ENDBRANCH  16  17
ENDBRANCH   7  16
BRANCH  15  23
ATOM     23  C   UNL     1      62.861  67.485  84.422  1.00  0.00    -0.046 C 
ATOM     24  C   UNL     1      61.656  68.377  84.469  1.00  0.00     0.042 C 
ATOM     25  C   UNL     1      63.397  66.959  85.534  1.00  0.00     0.010 C 
ENDBRANCH  15  23
ENDBRANCH   3   4
BRANCH   2  26
ATOM     26  C   UNL     1      67.807  64.817  80.178  1.00  0.00     0.078 C 
BRANCH  26  27
ATOM     27  C   UNL     1      66.369  64.577  79.726  1.00  0.00     0.140 C 
ATOM     28  C   UNL     1      65.597  65.895  79.506  1.00  0.00     0.086 CG0
ATOM     29  C   UNL     1      66.291  63.923  78.362  1.00  0.00     0.190 C 
ATOM     30  C   UNL     1      64.907  65.681  78.188  1.00  0.00    -0.010 C 
ATOM     31  G   UNL     1      64.778  66.420  80.721  1.00  0.00     0.000 G0
ATOM     32  O   UNL     1      66.922  62.938  78.012  1.00  0.00    -0.291 OA
ATOM     33  C   UNL     1      65.295  64.598  77.508  1.00  0.00    -0.008 C 
ATOM     34  C   UNL     1      64.900  64.126  76.165  1.00  0.00     0.048 C 
BRANCH  27  35
ATOM     35  O   UNL     1      65.704  63.660  80.579  1.00  0.00    -0.381 OA
ATOM     36  H   UNL     1      66.355  63.291  81.200  1.00  0.00     0.212 HD
ENDBRANCH  27  35
ENDBRANCH  26  27
ENDBRANCH   2  26
ENDBRANCH   1   2
BRANCH   1  37
ATOM     37  O   UNL     1      70.293  65.147  81.059  1.00  0.00    -0.461 OA
BRANCH  37  38
ATOM     38  C   UNL     1      70.695  64.362  82.115  1.00  0.00     0.310 C 
ATOM     39  O   UNL     1      70.881  63.154  82.062  1.00  0.00    -0.252 OA
BRANCH  38  40
ATOM     40  C   UNL     1      70.869  65.221  83.345  1.00  0.00     0.158 C 
BRANCH  40  41
ATOM     41  C   UNL     1      70.244  64.618  84.576  1.00  0.00    -0.037 A 
ATOM     42  C   UNL     1      68.858  64.487  84.662  1.00  0.00     0.008 A 
ATOM     43  C   UNL     1      71.050  64.192  85.631  1.00  0.00     0.008 A 
ATOM     44  C   UNL     1      68.278  63.930  85.802  1.00  0.00     0.046 A 
ATOM     45  C   UNL     1      70.472  63.635  86.772  1.00  0.00     0.046 A 
ATOM     46  C   UNL     1      69.086  63.504  86.857  1.00  0.00     0.115 A 
BRANCH  46  47
ATOM     47  O   UNL     1      68.521  62.961  87.970  1.00  0.00    -0.508 OA
ATOM     48  H   UNL     1      67.841  63.570  88.308  1.00  0.00     0.293 HD
ENDBRANCH  46  47
ENDBRANCH  40  41
ENDBRANCH  38  40
ENDBRANCH  37  38
ENDBRANCH   1  37
TORSDOF 10
ENDMDL
MODEL 8
REMARK VINA RESULT:    -6.317     17.903     20.384
REMARK INTER + INTRA:         -11.609
REMARK INTER:                 -11.321
REMARK INTRA:                  -0.287
REMARK UNBOUND:                -0.861
REMARK SMILES C=C(C)[C@]12C[C@@H](C)[C@@]34O[C@](Cc5ccccc5)(O[C@@H]1[C@@H]3C=C(COC(=O)Cc1ccc(O)cc1)C[C@]1(O)C(=O)C(C)=C[C@@H]41)O2
REMARK SMILES IDX 23 1 22 2 21 3 20 4 9 5 8 6 10 7 6 8 18 10 44 11 19 12 5 13
REMARK SMILES IDX 7 14 4 15 11 16 12 17 13 18 17 19 14 20 16 21 15 22 2 23
REMARK SMILES IDX 3 24 1 25 35 26 36 27 43 28 38 29 42 30 39 32 40 33 41 34
REMARK SMILES IDX 37 35 24 37 25 38 26 39 27 40 28 41 29 42 34 43 30 44 33 45
REMARK SMILES IDX 31 46 32 47
REMARK H PARENT 37 36 32 48
REMARK Flexibility Score: 90.00
ROOT
ATOM      1  C   UNL     1      69.099  66.691  81.413  1.00  0.00     0.264 C 
ENDROOT
BRANCH   1   2
ATOM      2  C   UNL     1      67.685  66.201  81.202  1.00  0.00    -0.033 C 
ATOM      3  C   UNL     1      66.676  66.787  81.880  1.00  0.00    -0.015 C 
BRANCH   3   4
ATOM      4  C   UNL     1      65.197  66.436  81.903  1.00  0.00     0.078 C 
ATOM      5  O   UNL     1      64.102  67.813  80.165  1.00  0.00    -0.319 OA
ATOM      6  C   UNL     1      64.407  66.434  80.543  1.00  0.00     0.095 CG0
ATOM      7  C   UNL     1      63.655  68.661  81.240  1.00  0.00     0.289 C 
ATOM      8  C   UNL     1      63.053  65.644  80.776  1.00  0.00     0.023 C 
ATOM      9  G   UNL     1      65.300  65.903  79.384  1.00  0.00     0.000 G0
ATOM     10  O   UNL     1      64.613  68.712  82.293  1.00  0.00    -0.320 OA
ATOM     11  O   UNL     1      62.450  68.188  81.838  1.00  0.00    -0.313 OA
ATOM     12  C   UNL     1      64.443  67.400  82.851  1.00  0.00     0.170 C 
ATOM     13  C   UNL     1      62.518  65.841  82.227  1.00  0.00     0.049 C 
ATOM     14  C   UNL     1      61.929  65.949  79.771  1.00  0.00     0.011 C 
ATOM     15  C   UNL     1      62.907  67.208  82.793  1.00  0.00     0.122 C 
BRANCH   7  16
ATOM     16  C   UNL     1      63.429  70.053  80.684  1.00  0.00     0.135 C 
BRANCH  16  17
ATOM     17  C   UNL     1      62.726  70.950  81.672  1.00  0.00    -0.040 A 
ATOM     18  C   UNL     1      61.335  71.044  81.662  1.00  0.00     0.004 A 
ATOM     19  C   UNL     1      63.469  71.686  82.595  1.00  0.00     0.004 A 
ATOM     20  C   UNL     1      60.685  71.874  82.577  1.00  0.00     0.000 A 
ATOM     21  C   UNL     1      62.819  72.516  83.509  1.00  0.00     0.000 A 
ATOM     22  C   UNL     1      61.428  72.610  83.500  1.00  0.00     0.000 A 
ENDBRANCH  16  17
ENDBRANCH   7  16
BRANCH  15  23
ATOM     23  C   UNL     1      62.256  67.491  84.107  1.00  0.00    -0.046 C 
ATOM     24  C   UNL     1      61.845  68.914  84.348  1.00  0.00     0.042 C 
ATOM     25  C   UNL     1      62.050  66.530  85.019  1.00  0.00     0.010 C 
ENDBRANCH  15  23
ENDBRANCH   3   4
BRANCH   2  26
ATOM     26  C   UNL     1      67.591  65.065  80.200  1.00  0.00     0.078 C 
BRANCH  26  27
ATOM     27  C   UNL     1      66.195  64.660  79.733  1.00  0.00     0.140 C 
ATOM     28  C   UNL     1      65.313  65.881  79.398  1.00  0.00     0.086 CG0
ATOM     29  C   UNL     1      66.218  63.905  78.421  1.00  0.00     0.190 C 
ATOM     30  C   UNL     1      64.686  65.509  78.083  1.00  0.00    -0.010 C 
ATOM     31  G   UNL     1      64.413  66.414  80.550  1.00  0.00     0.000 G0
ATOM     32  O   UNL     1      66.947  62.960  78.161  1.00  0.00    -0.291 OA
ATOM     33  C   UNL     1      65.191  64.420  77.495  1.00  0.00    -0.008 C 
ATOM     34  C   UNL     1      64.882  63.817  76.183  1.00  0.00     0.048 C 
BRANCH  27  35
ATOM     35  O   UNL     1      65.591  63.749  80.637  1.00  0.00    -0.381 OA
ATOM     36  H   UNL     1      66.275  63.421  81.244  1.00  0.00     0.212 HD
ENDBRANCH  27  35
ENDBRANCH  26  27
ENDBRANCH   2  26
ENDBRANCH   1   2
BRANCH   1  37
ATOM     37  O   UNL     1      69.567  66.237  82.666  1.00  0.00    -0.461 OA
BRANCH  37  38
ATOM     38  C   UNL     1      70.894  65.877  82.724  1.00  0.00     0.310 C 
ATOM     39  O   UNL     1      71.562  65.500  81.771  1.00  0.00    -0.252 OA
BRANCH  38  40
ATOM     40  C   UNL     1      71.392  66.018  84.142  1.00  0.00     0.158 C 
BRANCH  40  41
ATOM     41  C   UNL     1      72.631  66.869  84.247  1.00  0.00    -0.037 A 
ATOM     42  C   UNL     1      72.586  68.216  83.885  1.00  0.00     0.008 A 
ATOM     43  C   UNL     1      73.824  66.311  84.705  1.00  0.00     0.008 A 
ATOM     44  C   UNL     1      73.733  69.003  83.981  1.00  0.00     0.046 A 
ATOM     45  C   UNL     1      74.972  67.098  84.802  1.00  0.00     0.046 A 
ATOM     46  C   UNL     1      74.927  68.444  84.440  1.00  0.00     0.115 A 
BRANCH  46  47
ATOM     47  O   UNL     1      76.046  69.212  84.534  1.00  0.00    -0.508 OA
ATOM     48  H   UNL     1      76.811  68.636  84.705  1.00  0.00     0.293 HD
ENDBRANCH  46  47
ENDBRANCH  40  41
ENDBRANCH  38  40
ENDBRANCH  37  38
ENDBRANCH   1  37
TORSDOF 10
ENDMDL
MODEL 9
REMARK VINA RESULT:    -5.990     10.591     13.345
REMARK INTER + INTRA:         -11.053
REMARK INTER:                 -10.381
REMARK INTRA:                  -0.673
REMARK UNBOUND:                -0.861
REMARK SMILES C=C(C)[C@]12C[C@@H](C)[C@@]34O[C@](Cc5ccccc5)(O[C@@H]1[C@@H]3C=C(COC(=O)Cc1ccc(O)cc1)C[C@]1(O)C(=O)C(C)=C[C@@H]41)O2
REMARK SMILES IDX 23 1 22 2 21 3 20 4 9 5 8 6 10 7 6 8 18 10 44 11 19 12 5 13
REMARK SMILES IDX 7 14 4 15 11 16 12 17 13 18 17 19 14 20 16 21 15 22 2 23
REMARK SMILES IDX 3 24 1 25 35 26 36 27 43 28 38 29 42 30 39 32 40 33 41 34
REMARK SMILES IDX 37 35 24 37 25 38 26 39 27 40 28 41 29 42 34 43 30 44 33 45
REMARK SMILES IDX 31 46 32 47
REMARK H PARENT 37 36 32 48
REMARK Flexibility Score: 90.00
ROOT
ATOM      1  C   UNL     1      73.982  90.196  70.513  1.00  0.00     0.264 C 
ENDROOT
BRANCH   1   2
ATOM      2  C   UNL     1      74.062  91.504  71.265  1.00  0.00    -0.033 C 
ATOM      3  C   UNL     1      73.408  91.631  72.438  1.00  0.00    -0.015 C 
BRANCH   3   4
ATOM      4  C   UNL     1      73.268  92.849  73.338  1.00  0.00     0.078 C 
ATOM      5  O   UNL     1      75.107  92.740  74.988  1.00  0.00    -0.319 OA
ATOM      6  C   UNL     1      74.577  93.533  73.881  1.00  0.00     0.095 CG0
ATOM      7  C   UNL     1      74.124  92.255  75.924  1.00  0.00     0.289 C 
ATOM      8  C   UNL     1      74.181  94.973  74.410  1.00  0.00     0.023 C 
ATOM      9  G   UNL     1      75.703  93.501  72.807  1.00  0.00     0.000 G0
ATOM     10  O   UNL     1      73.135  91.464  75.272  1.00  0.00    -0.320 OA
ATOM     11  O   UNL     1      73.413  93.314  76.560  1.00  0.00    -0.313 OA
ATOM     12  C   UNL     1      72.410  92.491  74.577  1.00  0.00     0.170 C 
ATOM     13  C   UNL     1      72.741  94.987  75.007  1.00  0.00     0.049 C 
ATOM     14  C   UNL     1      75.158  95.597  75.421  1.00  0.00     0.011 C 
ATOM     15  C   UNL     1      72.368  93.635  75.619  1.00  0.00     0.122 C 
BRANCH   7  16
ATOM     16  C   UNL     1      74.836  91.424  76.972  1.00  0.00     0.135 C 
BRANCH  16  17
ATOM     17  C   UNL     1      74.391  91.774  78.371  1.00  0.00    -0.040 A 
ATOM     18  C   UNL     1      73.173  91.299  78.854  1.00  0.00     0.004 A 
ATOM     19  C   UNL     1      75.200  92.572  79.179  1.00  0.00     0.004 A 
ATOM     20  C   UNL     1      72.762  91.622  80.148  1.00  0.00     0.000 A 
ATOM     21  C   UNL     1      74.789  92.896  80.473  1.00  0.00     0.000 A 
ATOM     22  C   UNL     1      73.570  92.421  80.956  1.00  0.00     0.000 A 
ENDBRANCH  16  17
ENDBRANCH   7  16
BRANCH  15  23
ATOM     23  C   UNL     1      71.069  93.677  76.355  1.00  0.00    -0.046 C 
ATOM     24  C   UNL     1      71.096  94.320  77.710  1.00  0.00     0.042 C 
ATOM     25  C   UNL     1      69.942  93.169  75.834  1.00  0.00     0.010 C 
ENDBRANCH  15  23
ENDBRANCH   3   4
BRANCH   2  26
ATOM     26  C   UNL     1      74.916  92.544  70.563  1.00  0.00     0.078 C 
BRANCH  26  27
ATOM     27  C   UNL     1      75.258  93.810  71.345  1.00  0.00     0.140 C 
ATOM     28  C   UNL     1      75.706  93.501  72.789  1.00  0.00     0.086 CG0
ATOM     29  C   UNL     1      76.461  94.534  70.779  1.00  0.00     0.190 C 
ATOM     30  C   UNL     1      76.930  94.357  72.966  1.00  0.00    -0.010 C 
ATOM     31  G   UNL     1      74.591  93.530  73.874  1.00  0.00     0.000 G0
ATOM     32  O   UNL     1      76.631  94.811  69.601  1.00  0.00    -0.291 OA
ATOM     33  C   UNL     1      77.395  94.928  71.851  1.00  0.00    -0.008 C 
ATOM     34  C   UNL     1      78.602  95.753  71.637  1.00  0.00     0.048 C 
BRANCH  27  35
ATOM     35  O   UNL     1      74.216  94.768  71.262  1.00  0.00    -0.381 OA
ATOM     36  H   UNL     1      74.000  94.906  70.324  1.00  0.00     0.212 HD
ENDBRANCH  27  35
ENDBRANCH  26  27
ENDBRANCH   2  26
ENDBRANCH   1   2
BRANCH   1  37
ATOM     37  O   UNL     1      74.291  89.134  71.391  1.00  0.00    -0.461 OA
BRANCH  37  38
ATOM     38  C   UNL     1      74.920  88.046  70.832  1.00  0.00     0.310 C 
ATOM     39  O   UNL     1      74.467  86.911  70.803  1.00  0.00    -0.252 OA
BRANCH  38  40
ATOM     40  C   UNL     1      76.252  88.473  70.261  1.00  0.00     0.158 C 
BRANCH  40  41
ATOM     41  C   UNL     1      76.795  87.501  69.247  1.00  0.00    -0.037 A 
ATOM     42  C   UNL     1      76.524  87.683  67.891  1.00  0.00     0.008 A 
ATOM     43  C   UNL     1      77.570  86.418  69.663  1.00  0.00     0.008 A 
ATOM     44  C   UNL     1      77.027  86.782  66.951  1.00  0.00     0.046 A 
ATOM     45  C   UNL     1      78.073  85.518  68.724  1.00  0.00     0.046 A 
ATOM     46  C   UNL     1      77.802  85.699  67.369  1.00  0.00     0.115 A 
BRANCH  46  47
ATOM     47  O   UNL     1      78.291  84.820  66.452  1.00  0.00    -0.508 OA
ATOM     48  H   UNL     1      78.621  84.031  66.917  1.00  0.00     0.293 HD
ENDBRANCH  46  47
ENDBRANCH  40  41
ENDBRANCH  38  40
ENDBRANCH  37  38
ENDBRANCH   1  37
TORSDOF 10
ENDMDL
MODEL 10
REMARK VINA RESULT:    -5.957      3.897      9.768
REMARK INTER + INTRA:         -10.997
REMARK INTER:                 -10.601
REMARK INTRA:                  -0.396
REMARK UNBOUND:                -0.861
REMARK SMILES C=C(C)[C@]12C[C@@H](C)[C@@]34O[C@](Cc5ccccc5)(O[C@@H]1[C@@H]3C=C(COC(=O)Cc1ccc(O)cc1)C[C@]1(O)C(=O)C(C)=C[C@@H]41)O2
REMARK SMILES IDX 23 1 22 2 21 3 20 4 9 5 8 6 10 7 6 8 18 10 44 11 19 12 5 13
REMARK SMILES IDX 7 14 4 15 11 16 12 17 13 18 17 19 14 20 16 21 15 22 2 23
REMARK SMILES IDX 3 24 1 25 35 26 36 27 43 28 38 29 42 30 39 32 40 33 41 34
REMARK SMILES IDX 37 35 24 37 25 38 26 39 27 40 28 41 29 42 34 43 30 44 33 45
REMARK SMILES IDX 31 46 32 47
REMARK H PARENT 37 36 32 48
REMARK Flexibility Score: 90.00
ROOT
ATOM      1  C   UNL     1      66.949  86.877  75.209  1.00  0.00     0.264 C 
ENDROOT
BRANCH   1   2
ATOM      2  C   UNL     1      67.433  87.049  73.788  1.00  0.00    -0.033 C 
ATOM      3  C   UNL     1      68.022  88.208  73.427  1.00  0.00    -0.015 C 
BRANCH   3   4
ATOM      4  C   UNL     1      68.519  88.654  72.062  1.00  0.00     0.078 C 
ATOM      5  O   UNL     1      70.905  88.019  71.921  1.00  0.00    -0.319 OA
ATOM      6  C   UNL     1      69.592  87.767  71.330  1.00  0.00     0.095 CG0
ATOM      7  C   UNL     1      71.201  89.402  72.195  1.00  0.00     0.289 C 
ATOM      8  C   UNL     1      69.613  88.200  69.806  1.00  0.00     0.023 C 
ATOM      9  G   UNL     1      69.332  86.255  71.592  1.00  0.00     0.000 G0
ATOM     10  O   UNL     1      70.228  89.977  73.063  1.00  0.00    -0.320 OA
ATOM     11  O   UNL     1      71.189  90.203  71.017  1.00  0.00    -0.313 OA
ATOM     12  C   UNL     1      69.116  90.079  72.159  1.00  0.00     0.170 C 
ATOM     13  C   UNL     1      69.310  89.720  69.638  1.00  0.00     0.049 C 
ATOM     14  C   UNL     1      70.897  87.848  69.035  1.00  0.00     0.011 C 
ATOM     15  C   UNL     1      69.794  90.529  70.842  1.00  0.00     0.122 C 
BRANCH   7  16
ATOM     16  C   UNL     1      72.571  89.474  72.841  1.00  0.00     0.135 C 
BRANCH  16  17
ATOM     17  C   UNL     1      73.681  89.323  71.831  1.00  0.00    -0.040 A 
ATOM     18  C   UNL     1      74.048  88.055  71.382  1.00  0.00     0.004 A 
ATOM     19  C   UNL     1      74.341  90.452  71.347  1.00  0.00     0.004 A 
ATOM     20  C   UNL     1      75.075  87.915  70.448  1.00  0.00     0.000 A 
ATOM     21  C   UNL     1      75.368  90.313  70.413  1.00  0.00     0.000 A 
ATOM     22  C   UNL     1      75.735  89.045  69.964  1.00  0.00     0.000 A 
ENDBRANCH  16  17
ENDBRANCH   7  16
BRANCH  15  23
ATOM     23  C   UNL     1      69.680  92.003  70.627  1.00  0.00    -0.046 C 
ATOM     24  C   UNL     1      68.287  92.557  70.564  1.00  0.00     0.042 C 
ATOM     25  C   UNL     1      70.760  92.787  70.496  1.00  0.00     0.010 C 
ENDBRANCH  15  23
ENDBRANCH   3   4
BRANCH   2  26
ATOM     26  C   UNL     1      67.182  85.829  72.922  1.00  0.00     0.078 C 
BRANCH  26  27
ATOM     27  C   UNL     1      67.838  85.805  71.543  1.00  0.00     0.140 C 
ATOM     28  C   UNL     1      69.316  86.244  71.592  1.00  0.00     0.086 CG0
ATOM     29  C   UNL     1      67.934  84.406  70.970  1.00  0.00     0.190 C 
ATOM     30  C   UNL     1      70.017  85.211  70.754  1.00  0.00    -0.010 C 
ATOM     31  G   UNL     1      69.592  87.753  71.332  1.00  0.00     0.000 G0
ATOM     32  O   UNL     1      67.019  83.597  70.921  1.00  0.00    -0.291 OA
ATOM     33  C   UNL     1      69.276  84.153  70.412  1.00  0.00    -0.008 C 
ATOM     34  C   UNL     1      69.649  82.927  69.676  1.00  0.00     0.048 C 
BRANCH  27  35
ATOM     35  O   UNL     1      67.063  86.509  70.587  1.00  0.00    -0.381 OA
ATOM     36  H   UNL     1      66.167  86.132  70.580  1.00  0.00     0.212 HD
ENDBRANCH  27  35
ENDBRANCH  26  27
ENDBRANCH   2  26
ENDBRANCH   1   2
BRANCH   1  37
ATOM     37  O   UNL     1      66.621  85.522  75.430  1.00  0.00    -0.461 OA
BRANCH  37  38
ATOM     38  C   UNL     1      67.222  84.919  76.511  1.00  0.00     0.310 C 
ATOM     39  O   UNL     1      68.428  84.791  76.662  1.00  0.00    -0.252 OA
BRANCH  38  40
ATOM     40  C   UNL     1      66.162  84.444  77.476  1.00  0.00     0.158 C 
BRANCH  40  41
ATOM     41  C   UNL     1      64.785  84.409  76.866  1.00  0.00    -0.037 A 
ATOM     42  C   UNL     1      63.971  85.541  76.913  1.00  0.00     0.008 A 
ATOM     43  C   UNL     1      64.322  83.244  76.254  1.00  0.00     0.008 A 
ATOM     44  C   UNL     1      62.696  85.508  76.349  1.00  0.00     0.046 A 
ATOM     45  C   UNL     1      63.047  83.211  75.689  1.00  0.00     0.046 A 
ATOM     46  C   UNL     1      62.234  84.343  75.737  1.00  0.00     0.115 A 
BRANCH  46  47
ATOM     47  O   UNL     1      60.989  84.311  75.187  1.00  0.00    -0.508 OA
ATOM     48  H   UNL     1      60.986  84.856  74.381  1.00  0.00     0.293 HD
ENDBRANCH  46  47
ENDBRANCH  40  41
ENDBRANCH  38  40
ENDBRANCH  37  38
ENDBRANCH   1  37
TORSDOF 10
ENDMDL
