MODEL 1
REMARK VINA RESULT:    -6.887      0.000      0.000
REMARK INTER + INTRA:         -11.163
REMARK INTER:                 -10.712
REMARK INTRA:                  -0.451
REMARK UNBOUND:                -0.451
REMARK SMILES COc1cc(CNC(=O)CCCCCC(C)C)ccc1O
REMARK SMILES IDX 10 1 8 2 7 3 9 5 6 6 5 7 3 8 20 9 4 10 19 11 18 12 2 13 1 14
REMARK SMILES IDX 21 15 11 17 12 18 13 19 14 20 15 21 16 22 17 23
REMARK H PARENT 7 4 21 16
REMARK Flexibility Score: inf
ROOT
ATOM      1  C   UNL     1      95.477  82.148  83.472  1.00  0.00     0.100 C 
ENDROOT
BRANCH   1   2
ATOM      2  C   UNL     1      94.319  82.729  84.183  1.00  0.00     0.220 C 
ATOM      3  N   UNL     1      93.156  82.022  84.258  1.00  0.00    -0.352 N 
ATOM      4  H   UNL     1      93.130  81.184  83.694  1.00  0.00     0.163 HD
ATOM      5  O   UNL     1      94.444  83.846  84.741  1.00  0.00    -0.275 OA
BRANCH   3   6
ATOM      6  C   UNL     1      92.025  82.381  85.052  1.00  0.00     0.151 C 
BRANCH   6   7
ATOM      7  C   UNL     1      90.791  81.637  84.683  1.00  0.00    -0.025 A 
ATOM      8  C   UNL     1      88.346  81.552  84.435  1.00  0.00     0.160 A 
ATOM      9  C   UNL     1      88.446  80.243  83.916  1.00  0.00     0.157 A 
ATOM     10  C   UNL     1      89.516  82.233  84.832  1.00  0.00     0.056 A 
ATOM     11  C   UNL     1      89.707  79.631  83.788  1.00  0.00     0.050 A 
ATOM     12  C   UNL     1      90.870  80.324  84.162  1.00  0.00     0.009 A 
BRANCH   8  13
ATOM     13  O   UNL     1      87.126  82.158  84.587  1.00  0.00    -0.493 OA
ATOM     14  C   UNL     1      86.781  83.048  83.508  1.00  0.00     0.278 C 
ENDBRANCH   8  13
BRANCH   9  15
ATOM     15  O   UNL     1      87.327  79.579  83.533  1.00  0.00    -0.504 OA
ATOM     16  H   UNL     1      87.473  79.173  82.676  1.00  0.00     0.293 HD
ENDBRANCH   9  15
ENDBRANCH   6   7
ENDBRANCH   3   6
ENDBRANCH   1   2
BRANCH   1  17
ATOM     17  C   UNL     1      96.314  83.178  82.667  1.00  0.00     0.010 C 
BRANCH  17  18
ATOM     18  C   UNL     1      96.979  82.528  81.423  1.00  0.00     0.001 C 
BRANCH  18  19
ATOM     19  C   UNL     1      96.795  83.354  80.123  1.00  0.00     0.000 C 
BRANCH  19  20
ATOM     20  C   UNL     1      98.061  83.319  79.219  1.00  0.00     0.003 C 
BRANCH  20  21
ATOM     21  C   UNL     1      97.792  82.971  77.719  1.00  0.00    -0.017 C 
ATOM     22  C   UNL     1      96.667  83.874  77.132  1.00  0.00     0.007 C 
ATOM     23  C   UNL     1      97.440  81.471  77.500  1.00  0.00     0.007 C 
ENDBRANCH  20  21
ENDBRANCH  19  20
ENDBRANCH  18  19
ENDBRANCH  17  18
ENDBRANCH   1  17
TORSDOF 10
ENDMDL
MODEL 2
REMARK VINA RESULT:    -6.799     13.696     17.190
REMARK INTER + INTRA:         -11.027
REMARK INTER:                 -10.281
REMARK INTRA:                  -0.745
REMARK UNBOUND:                -0.451
REMARK SMILES COc1cc(CNC(=O)CCCCCC(C)C)ccc1O
REMARK SMILES IDX 10 1 8 2 7 3 9 5 6 6 5 7 3 8 20 9 4 10 19 11 18 12 2 13 1 14
REMARK SMILES IDX 21 15 11 17 12 18 13 19 14 20 15 21 16 22 17 23
REMARK H PARENT 7 4 21 16
REMARK Flexibility Score: inf
ROOT
ATOM      1  C   UNL     1      91.343  94.340  77.578  1.00  0.00     0.100 C 
ENDROOT
BRANCH   1   2
ATOM      2  C   UNL     1      92.488  95.272  77.635  1.00  0.00     0.220 C 
ATOM      3  N   UNL     1      92.475  96.397  76.865  1.00  0.00    -0.352 N 
ATOM      4  H   UNL     1      91.720  96.445  76.196  1.00  0.00     0.163 HD
ATOM      5  O   UNL     1      93.433  95.029  78.426  1.00  0.00    -0.275 OA
BRANCH   3   6
ATOM      6  C   UNL     1      93.424  97.461  76.949  1.00  0.00     0.151 C 
BRANCH   6   7
ATOM      7  C   UNL     1      94.242  97.612  75.716  1.00  0.00    -0.025 A 
ATOM      8  C   UNL     1      96.087  98.692  74.500  1.00  0.00     0.160 A 
ATOM      9  C   UNL     1      95.845  97.853  73.392  1.00  0.00     0.157 A 
ATOM     10  C   UNL     1      95.273  98.579  75.647  1.00  0.00     0.056 A 
ATOM     11  C   UNL     1      94.805  96.905  73.439  1.00  0.00     0.050 A 
ATOM     12  C   UNL     1      94.014  96.782  74.593  1.00  0.00     0.009 A 
BRANCH   8  13
ATOM     13  O   UNL     1      97.081  99.634  74.467  1.00  0.00    -0.493 OA
ATOM     14  C   UNL     1      97.516 100.068  75.770  1.00  0.00     0.278 C 
ENDBRANCH   8  13
BRANCH   9  15
ATOM     15  O   UNL     1      96.620  97.954  72.283  1.00  0.00    -0.504 OA
ATOM     16  H   UNL     1      96.462  97.199  71.712  1.00  0.00     0.293 HD
ENDBRANCH   9  15
ENDBRANCH   6   7
ENDBRANCH   3   6
ENDBRANCH   1   2
BRANCH   1  17
ATOM     17  C   UNL     1      90.120  94.879  76.789  1.00  0.00     0.010 C 
BRANCH  17  18
ATOM     18  C   UNL     1      89.935  94.132  75.439  1.00  0.00     0.001 C 
BRANCH  18  19
ATOM     19  C   UNL     1      90.631  92.746  75.402  1.00  0.00     0.000 C 
BRANCH  19  20
ATOM     20  C   UNL     1      89.671  91.593  75.816  1.00  0.00     0.003 C 
BRANCH  20  21
ATOM     21  C   UNL     1      89.492  90.467  74.746  1.00  0.00    -0.017 C 
ATOM     22  C   UNL     1      89.885  89.078  75.331  1.00  0.00     0.007 C 
ATOM     23  C   UNL     1      90.291  90.741  73.440  1.00  0.00     0.007 C 
ENDBRANCH  20  21
ENDBRANCH  19  20
ENDBRANCH  18  19
ENDBRANCH  17  18
ENDBRANCH   1  17
TORSDOF 10
ENDMDL
MODEL 3
REMARK VINA RESULT:    -6.670     13.066     15.960
REMARK INTER + INTRA:         -10.826
REMARK INTER:                 -10.127
REMARK INTRA:                  -0.699
REMARK UNBOUND:                -0.451
REMARK SMILES COc1cc(CNC(=O)CCCCCC(C)C)ccc1O
REMARK SMILES IDX 10 1 8 2 7 3 9 5 6 6 5 7 3 8 20 9 4 10 19 11 18 12 2 13 1 14
REMARK SMILES IDX 21 15 11 17 12 18 13 19 14 20 15 21 16 22 17 23
REMARK H PARENT 7 4 21 16
REMARK Flexibility Score: inf
ROOT
ATOM      1  C   UNL     1      91.834  94.813  77.682  1.00  0.00     0.100 C 
ENDROOT
BRANCH   1   2
ATOM      2  C   UNL     1      92.980  95.745  77.647  1.00  0.00     0.220 C 
ATOM      3  N   UNL     1      94.200  95.323  78.084  1.00  0.00    -0.352 N 
ATOM      4  H   UNL     1      94.201  94.419  78.533  1.00  0.00     0.163 HD
ATOM      5  O   UNL     1      92.815  96.897  77.176  1.00  0.00    -0.275 OA
BRANCH   3   6
ATOM      6  C   UNL     1      95.420  96.053  77.947  1.00  0.00     0.151 C 
BRANCH   6   7
ATOM      7  C   UNL     1      95.824  96.755  79.196  1.00  0.00    -0.025 A 
ATOM      8  C   UNL     1      97.144  96.828  81.269  1.00  0.00     0.160 A 
ATOM      9  C   UNL     1      96.644  98.120  81.539  1.00  0.00     0.157 A 
ATOM     10  C   UNL     1      96.717  96.147  80.110  1.00  0.00     0.056 A 
ATOM     11  C   UNL     1      95.735  98.723  80.651  1.00  0.00     0.050 A 
ATOM     12  C   UNL     1      95.332  98.049  79.486  1.00  0.00     0.009 A 
BRANCH   8  13
ATOM     13  O   UNL     1      98.015  96.215  82.131  1.00  0.00    -0.493 OA
ATOM     14  C   UNL     1      97.443  95.097  82.838  1.00  0.00     0.278 C 
ENDBRANCH   8  13
BRANCH   9  15
ATOM     15  O   UNL     1      97.047  98.783  82.652  1.00  0.00    -0.504 OA
ATOM     16  H   UNL     1      97.337  99.665  82.412  1.00  0.00     0.293 HD
ENDBRANCH   9  15
ENDBRANCH   6   7
ENDBRANCH   3   6
ENDBRANCH   1   2
BRANCH   1  17
ATOM     17  C   UNL     1      90.768  95.071  76.584  1.00  0.00     0.010 C 
BRANCH  17  18
ATOM     18  C   UNL     1      91.184  94.445  75.224  1.00  0.00     0.001 C 
BRANCH  18  19
ATOM     19  C   UNL     1      90.012  93.754  74.479  1.00  0.00     0.000 C 
BRANCH  19  20
ATOM     20  C   UNL     1      90.381  92.319  74.004  1.00  0.00     0.003 C 
BRANCH  20  21
ATOM     21  C   UNL     1      89.650  91.164  74.763  1.00  0.00    -0.017 C 
ATOM     22  C   UNL     1      89.618  91.438  76.295  1.00  0.00     0.007 C 
ATOM     23  C   UNL     1      90.275  89.766  74.483  1.00  0.00     0.007 C 
ENDBRANCH  20  21
ENDBRANCH  19  20
ENDBRANCH  18  19
ENDBRANCH  17  18
ENDBRANCH   1  17
TORSDOF 10
ENDMDL
MODEL 4
REMARK VINA RESULT:    -6.252     13.843     16.000
REMARK INTER + INTRA:         -10.175
REMARK INTER:                  -9.021
REMARK INTRA:                  -1.154
REMARK UNBOUND:                -0.451
REMARK SMILES COc1cc(CNC(=O)CCCCCC(C)C)ccc1O
REMARK SMILES IDX 10 1 8 2 7 3 9 5 6 6 5 7 3 8 20 9 4 10 19 11 18 12 2 13 1 14
REMARK SMILES IDX 21 15 11 17 12 18 13 19 14 20 15 21 16 22 17 23
REMARK H PARENT 7 4 21 16
REMARK Flexibility Score: inf
ROOT
ATOM      1  C   UNL     1      96.319  99.047  75.654  1.00  0.00     0.100 C 
ENDROOT
BRANCH   1   2
ATOM      2  C   UNL     1      95.588  98.084  74.804  1.00  0.00     0.220 C 
ATOM      3  N   UNL     1      94.685  97.238  75.375  1.00  0.00    -0.352 N 
ATOM      4  H   UNL     1      94.677  97.243  76.385  1.00  0.00     0.163 HD
ATOM      5  O   UNL     1      95.784  98.095  73.564  1.00  0.00    -0.275 OA
BRANCH   3   6
ATOM      6  C   UNL     1      93.792  96.385  74.659  1.00  0.00     0.151 C 
BRANCH   6   7
ATOM      7  C   UNL     1      92.894  95.600  75.549  1.00  0.00    -0.025 A 
ATOM      8  C   UNL     1      91.169  93.874  75.852  1.00  0.00     0.160 A 
ATOM      9  C   UNL     1      91.233  94.058  77.249  1.00  0.00     0.157 A 
ATOM     10  C   UNL     1      91.986  94.658  75.010  1.00  0.00     0.056 A 
ATOM     11  C   UNL     1      92.113  95.011  77.795  1.00  0.00     0.050 A 
ATOM     12  C   UNL     1      92.941  95.772  76.952  1.00  0.00     0.009 A 
BRANCH   8  13
ATOM     13  O   UNL     1      90.305  92.965  75.300  1.00  0.00    -0.493 OA
ATOM     14  C   UNL     1      89.860  93.315  73.975  1.00  0.00     0.278 C 
ENDBRANCH   8  13
BRANCH   9  15
ATOM     15  O   UNL     1      90.450  93.311  78.068  1.00  0.00    -0.504 OA
ATOM     16  H   UNL     1      90.127  92.544  77.589  1.00  0.00     0.293 HD
ENDBRANCH   9  15
ENDBRANCH   6   7
ENDBRANCH   3   6
ENDBRANCH   1   2
BRANCH   1  17
ATOM     17  C   UNL     1      97.617  98.481  76.290  1.00  0.00     0.010 C 
BRANCH  17  18
ATOM     18  C   UNL     1      97.422  98.157  77.797  1.00  0.00     0.001 C 
BRANCH  18  19
ATOM     19  C   UNL     1      96.022  98.553  78.336  1.00  0.00     0.000 C 
BRANCH  19  20
ATOM     20  C   UNL     1      95.489  97.538  79.389  1.00  0.00     0.003 C 
BRANCH  20  21
ATOM     21  C   UNL     1      96.354  96.247  79.559  1.00  0.00    -0.017 C 
ATOM     22  C   UNL     1      95.491  94.968  79.352  1.00  0.00     0.007 C 
ATOM     23  C   UNL     1      97.081  96.183  80.933  1.00  0.00     0.007 C 
ENDBRANCH  20  21
ENDBRANCH  19  20
ENDBRANCH  18  19
ENDBRANCH  17  18
ENDBRANCH   1  17
TORSDOF 10
ENDMDL
MODEL 5
REMARK VINA RESULT:    -6.225     14.054     16.560
REMARK INTER + INTRA:         -10.134
REMARK INTER:                  -9.320
REMARK INTRA:                  -0.814
REMARK UNBOUND:                -0.451
REMARK SMILES COc1cc(CNC(=O)CCCCCC(C)C)ccc1O
REMARK SMILES IDX 10 1 8 2 7 3 9 5 6 6 5 7 3 8 20 9 4 10 19 11 18 12 2 13 1 14
REMARK SMILES IDX 21 15 11 17 12 18 13 19 14 20 15 21 16 22 17 23
REMARK H PARENT 7 4 21 16
REMARK Flexibility Score: inf
ROOT
ATOM      1  C   UNL     1      95.129  94.692  78.528  1.00  0.00     0.100 C 
ENDROOT
BRANCH   1   2
ATOM      2  C   UNL     1      95.825  95.956  78.847  1.00  0.00     0.220 C 
ATOM      3  N   UNL     1      95.762  96.455  80.114  1.00  0.00    -0.352 N 
ATOM      4  H   UNL     1      95.117  95.977  80.727  1.00  0.00     0.163 HD
ATOM      5  O   UNL     1      96.497  96.524  77.951  1.00  0.00    -0.275 OA
BRANCH   3   6
ATOM      6  C   UNL     1      96.520  97.562  80.600  1.00  0.00     0.151 C 
BRANCH   6   7
ATOM      7  C   UNL     1      97.423  97.202  81.727  1.00  0.00    -0.025 A 
ATOM      8  C   UNL     1      98.970  97.872  83.517  1.00  0.00     0.160 A 
ATOM      9  C   UNL     1      99.088  96.524  83.916  1.00  0.00     0.157 A 
ATOM     10  C   UNL     1      98.153  98.201  82.414  1.00  0.00     0.056 A 
ATOM     11  C   UNL     1      98.387  95.520  83.224  1.00  0.00     0.050 A 
ATOM     12  C   UNL     1      97.556  95.856  82.141  1.00  0.00     0.009 A 
BRANCH   8  13
ATOM     13  O   UNL     1      99.660  98.862  84.166  1.00  0.00    -0.493 OA
ATOM     14  C   UNL     1     100.820  99.329  83.450  1.00  0.00     0.278 C 
ENDBRANCH   8  13
BRANCH   9  15
ATOM     15  O   UNL     1      99.873  96.197  84.974  1.00  0.00    -0.504 OA
ATOM     16  H   UNL     1      99.740  96.834  85.680  1.00  0.00     0.293 HD
ENDBRANCH   9  15
ENDBRANCH   6   7
ENDBRANCH   3   6
ENDBRANCH   1   2
BRANCH   1  17
ATOM     17  C   UNL     1      93.686  94.877  77.986  1.00  0.00     0.010 C 
BRANCH  17  18
ATOM     18  C   UNL     1      93.656  94.885  76.432  1.00  0.00     0.001 C 
BRANCH  18  19
ATOM     19  C   UNL     1      92.484  95.714  75.843  1.00  0.00     0.000 C 
BRANCH  19  20
ATOM     20  C   UNL     1      91.289  95.831  76.834  1.00  0.00     0.003 C 
BRANCH  20  21
ATOM     21  C   UNL     1      90.105  94.848  76.559  1.00  0.00    -0.017 C 
ATOM     22  C   UNL     1      90.098  93.684  77.594  1.00  0.00     0.007 C 
ATOM     23  C   UNL     1      90.118  94.275  75.112  1.00  0.00     0.007 C 
ENDBRANCH  20  21
ENDBRANCH  19  20
ENDBRANCH  18  19
ENDBRANCH  17  18
ENDBRANCH   1  17
TORSDOF 10
ENDMDL
MODEL 6
REMARK VINA RESULT:    -6.183     14.264     17.897
REMARK INTER + INTRA:         -10.068
REMARK INTER:                  -9.417
REMARK INTRA:                  -0.651
REMARK UNBOUND:                -0.451
REMARK SMILES COc1cc(CNC(=O)CCCCCC(C)C)ccc1O
REMARK SMILES IDX 10 1 8 2 7 3 9 5 6 6 5 7 3 8 20 9 4 10 19 11 18 12 2 13 1 14
REMARK SMILES IDX 21 15 11 17 12 18 13 19 14 20 15 21 16 22 17 23
REMARK H PARENT 7 4 21 16
REMARK Flexibility Score: inf
ROOT
ATOM      1  C   UNL     1      92.312  94.920  77.414  1.00  0.00     0.100 C 
ENDROOT
BRANCH   1   2
ATOM      2  C   UNL     1      93.620  95.539  77.117  1.00  0.00     0.220 C 
ATOM      3  N   UNL     1      93.762  96.297  75.993  1.00  0.00    -0.352 N 
ATOM      4  H   UNL     1      92.975  96.270  75.360  1.00  0.00     0.163 HD
ATOM      5  O   UNL     1      94.564  95.389  77.931  1.00  0.00    -0.275 OA
BRANCH   3   6
ATOM      6  C   UNL     1      94.907  97.088  75.674  1.00  0.00     0.151 C 
BRANCH   6   7
ATOM      7  C   UNL     1      94.795  97.774  74.359  1.00  0.00    -0.025 A 
ATOM      8  C   UNL     1      95.134  97.784  71.923  1.00  0.00     0.160 A 
ATOM      9  C   UNL     1      94.522  99.053  71.845  1.00  0.00     0.157 A 
ATOM     10  C   UNL     1      95.284  97.161  73.181  1.00  0.00     0.056 A 
ATOM     11  C   UNL     1      94.057  99.683  73.014  1.00  0.00     0.050 A 
ATOM     12  C   UNL     1      94.187  99.047  74.260  1.00  0.00     0.009 A 
BRANCH   8  13
ATOM     13  O   UNL     1      95.612  97.161  70.800  1.00  0.00    -0.493 OA
ATOM     14  C   UNL     1      97.031  97.318  70.606  1.00  0.00     0.278 C 
ENDBRANCH   8  13
BRANCH   9  15
ATOM     15  O   UNL     1      94.375  99.661  70.641  1.00  0.00    -0.504 OA
ATOM     16  H   UNL     1      93.466  99.949  70.537  1.00  0.00     0.293 HD
ENDBRANCH   9  15
ENDBRANCH   6   7
ENDBRANCH   3   6
ENDBRANCH   1   2
BRANCH   1  17
ATOM     17  C   UNL     1      91.099  95.657  76.785  1.00  0.00     0.010 C 
BRANCH  17  18
ATOM     18  C   UNL     1      90.163  94.675  76.027  1.00  0.00     0.001 C 
BRANCH  18  19
ATOM     19  C   UNL     1      90.929  93.599  75.213  1.00  0.00     0.000 C 
BRANCH  19  20
ATOM     20  C   UNL     1      90.035  92.939  74.123  1.00  0.00     0.003 C 
BRANCH  20  21
ATOM     21  C   UNL     1      89.668  91.442  74.388  1.00  0.00    -0.017 C 
ATOM     22  C   UNL     1      89.518  91.169  75.914  1.00  0.00     0.007 C 
ATOM     23  C   UNL     1      90.692  90.450  73.766  1.00  0.00     0.007 C 
ENDBRANCH  20  21
ENDBRANCH  19  20
ENDBRANCH  18  19
ENDBRANCH  17  18
ENDBRANCH   1  17
TORSDOF 10
ENDMDL
MODEL 7
REMARK VINA RESULT:    -6.163      5.198      9.530
REMARK INTER + INTRA:         -10.036
REMARK INTER:                  -9.263
REMARK INTRA:                  -0.773
REMARK UNBOUND:                -0.451
REMARK SMILES COc1cc(CNC(=O)CCCCCC(C)C)ccc1O
REMARK SMILES IDX 10 1 8 2 7 3 9 5 6 6 5 7 3 8 20 9 4 10 19 11 18 12 2 13 1 14
REMARK SMILES IDX 21 15 11 17 12 18 13 19 14 20 15 21 16 22 17 23
REMARK H PARENT 7 4 21 16
REMARK Flexibility Score: inf
ROOT
ATOM      1  C   UNL     1      97.568  82.082  83.188  1.00  0.00     0.100 C 
ENDROOT
BRANCH   1   2
ATOM      2  C   UNL     1      98.238  81.712  81.924  1.00  0.00     0.220 C 
ATOM      3  N   UNL     1      98.064  82.492  80.821  1.00  0.00    -0.352 N 
ATOM      4  H   UNL     1      97.366  83.216  80.917  1.00  0.00     0.163 HD
ATOM      5  O   UNL     1      98.988  80.706  81.905  1.00  0.00    -0.275 OA
BRANCH   3   6
ATOM      6  C   UNL     1      98.781  82.352  79.594  1.00  0.00     0.151 C 
BRANCH   6   7
ATOM      7  C   UNL     1      98.100  83.003  78.442  1.00  0.00    -0.025 A 
ATOM      8  C   UNL     1      98.061  83.628  76.064  1.00  0.00     0.160 A 
ATOM      9  C   UNL     1      96.775  84.183  76.233  1.00  0.00     0.157 A 
ATOM     10  C   UNL     1      98.723  83.058  77.172  1.00  0.00     0.056 A 
ATOM     11  C   UNL     1      96.157  84.156  77.497  1.00  0.00     0.050 A 
ATOM     12  C   UNL     1      96.811  83.566  78.591  1.00  0.00     0.009 A 
BRANCH   8  13
ATOM     13  O   UNL     1      98.688  83.661  74.846  1.00  0.00    -0.493 OA
ATOM     14  C   UNL     1      99.963  84.331  74.866  1.00  0.00     0.278 C 
ENDBRANCH   8  13
BRANCH   9  15
ATOM     15  O   UNL     1      96.131  84.734  75.174  1.00  0.00    -0.504 OA
ATOM     16  H   UNL     1      95.208  84.876  75.399  1.00  0.00     0.293 HD
ENDBRANCH   9  15
ENDBRANCH   6   7
ENDBRANCH   3   6
ENDBRANCH   1   2
BRANCH   1  17
ATOM     17  C   UNL     1      96.087  82.518  83.022  1.00  0.00     0.010 C 
BRANCH  17  18
ATOM     18  C   UNL     1      95.937  84.064  83.070  1.00  0.00     0.001 C 
BRANCH  18  19
ATOM     19  C   UNL     1      96.256  84.672  84.461  1.00  0.00     0.000 C 
BRANCH  19  20
ATOM     20  C   UNL     1      95.506  83.938  85.610  1.00  0.00     0.003 C 
BRANCH  20  21
ATOM     21  C   UNL     1      94.195  84.638  86.096  1.00  0.00    -0.017 C 
ATOM     22  C   UNL     1      92.948  83.762  85.779  1.00  0.00     0.007 C 
ATOM     23  C   UNL     1      94.014  86.063  85.496  1.00  0.00     0.007 C 
ENDBRANCH  20  21
ENDBRANCH  19  20
ENDBRANCH  18  19
ENDBRANCH  17  18
ENDBRANCH   1  17
TORSDOF 10
ENDMDL
MODEL 8
REMARK VINA RESULT:    -5.992     14.774     17.932
REMARK INTER + INTRA:          -9.771
REMARK INTER:                  -8.700
REMARK INTRA:                  -1.071
REMARK UNBOUND:                -0.451
REMARK SMILES COc1cc(CNC(=O)CCCCCC(C)C)ccc1O
REMARK SMILES IDX 10 1 8 2 7 3 9 5 6 6 5 7 3 8 20 9 4 10 19 11 18 12 2 13 1 14
REMARK SMILES IDX 21 15 11 17 12 18 13 19 14 20 15 21 16 22 17 23
REMARK H PARENT 7 4 21 16
REMARK Flexibility Score: inf
ROOT
ATOM      1  C   UNL     1      94.885  96.133  79.011  1.00  0.00     0.100 C 
ENDROOT
BRANCH   1   2
ATOM      2  C   UNL     1      95.622  96.924  78.004  1.00  0.00     0.220 C 
ATOM      3  N   UNL     1      94.946  97.817  77.228  1.00  0.00    -0.352 N 
ATOM      4  H   UNL     1      93.940  97.777  77.312  1.00  0.00     0.163 HD
ATOM      5  O   UNL     1      96.867  96.787  77.914  1.00  0.00    -0.275 OA
BRANCH   3   6
ATOM      6  C   UNL     1      95.551  98.762  76.345  1.00  0.00     0.151 C 
BRANCH   6   7
ATOM      7  C   UNL     1      95.630  98.281  74.939  1.00  0.00    -0.025 A 
ATOM      8  C   UNL     1      96.950  97.798  72.922  1.00  0.00     0.160 A 
ATOM      9  C   UNL     1      95.792  97.304  72.285  1.00  0.00     0.157 A 
ATOM     10  C   UNL     1      96.858  98.301  74.237  1.00  0.00     0.056 A 
ATOM     11  C   UNL     1      94.560  97.304  72.965  1.00  0.00     0.050 A 
ATOM     12  C   UNL     1      94.480  97.783  74.283  1.00  0.00     0.009 A 
BRANCH   8  13
ATOM     13  O   UNL     1      98.155  97.825  72.270  1.00  0.00    -0.493 OA
ATOM     14  C   UNL     1      99.282  98.051  73.140  1.00  0.00     0.278 C 
ENDBRANCH   8  13
BRANCH   9  15
ATOM     15  O   UNL     1      95.869  96.820  71.020  1.00  0.00    -0.504 OA
ATOM     16  H   UNL     1      96.318  97.457  70.460  1.00  0.00     0.293 HD
ENDBRANCH   9  15
ENDBRANCH   6   7
ENDBRANCH   3   6
ENDBRANCH   1   2
BRANCH   1  17
ATOM     17  C   UNL     1      94.014  94.994  78.415  1.00  0.00     0.010 C 
BRANCH  17  18
ATOM     18  C   UNL     1      94.430  94.659  76.957  1.00  0.00     0.001 C 
BRANCH  18  19
ATOM     19  C   UNL     1      93.297  94.893  75.923  1.00  0.00     0.000 C 
BRANCH  19  20
ATOM     20  C   UNL     1      91.953  95.286  76.603  1.00  0.00     0.003 C 
BRANCH  20  21
ATOM     21  C   UNL     1      90.668  94.844  75.829  1.00  0.00    -0.017 C 
ATOM     22  C   UNL     1      89.531  94.452  76.818  1.00  0.00     0.007 C 
ATOM     23  C   UNL     1      90.934  93.678  74.832  1.00  0.00     0.007 C 
ENDBRANCH  20  21
ENDBRANCH  19  20
ENDBRANCH  18  19
ENDBRANCH  17  18
ENDBRANCH   1  17
TORSDOF 10
ENDMDL
MODEL 9
REMARK VINA RESULT:    -5.944      3.910      8.113
REMARK INTER + INTRA:          -9.696
REMARK INTER:                  -9.098
REMARK INTRA:                  -0.598
REMARK UNBOUND:                -0.451
REMARK SMILES COc1cc(CNC(=O)CCCCCC(C)C)ccc1O
REMARK SMILES IDX 10 1 8 2 7 3 9 5 6 6 5 7 3 8 20 9 4 10 19 11 18 12 2 13 1 14
REMARK SMILES IDX 21 15 11 17 12 18 13 19 14 20 15 21 16 22 17 23
REMARK H PARENT 7 4 21 16
REMARK Flexibility Score: inf
ROOT
ATOM      1  C   UNL     1      91.545  79.169  84.756  1.00  0.00     0.100 C 
ENDROOT
BRANCH   1   2
ATOM      2  C   UNL     1      92.897  79.732  84.948  1.00  0.00     0.220 C 
ATOM      3  N   UNL     1      93.080  80.744  85.843  1.00  0.00    -0.352 N 
ATOM      4  H   UNL     1      92.230  81.132  86.225  1.00  0.00     0.163 HD
ATOM      5  O   UNL     1      93.859  79.237  84.312  1.00  0.00    -0.275 OA
BRANCH   3   6
ATOM      6  C   UNL     1      94.347  81.260  86.253  1.00  0.00     0.151 C 
BRANCH   6   7
ATOM      7  C   UNL     1      94.654  82.591  85.663  1.00  0.00    -0.025 A 
ATOM      8  C   UNL     1      94.516  85.045  85.749  1.00  0.00     0.160 A 
ATOM      9  C   UNL     1      95.296  85.127  84.576  1.00  0.00     0.157 A 
ATOM     10  C   UNL     1      94.185  83.777  86.274  1.00  0.00     0.056 A 
ATOM     11  C   UNL     1      95.745  83.953  83.944  1.00  0.00     0.050 A 
ATOM     12  C   UNL     1      95.432  82.695  84.486  1.00  0.00     0.009 A 
BRANCH   8  13
ATOM     13  O   UNL     1      94.052  86.175  86.368  1.00  0.00    -0.493 OA
ATOM     14  C   UNL     1      93.405  85.924  87.630  1.00  0.00     0.278 C 
ENDBRANCH   8  13
BRANCH   9  15
ATOM     15  O   UNL     1      95.618  86.340  84.061  1.00  0.00    -0.504 OA
ATOM     16  H   UNL     1      95.061  86.524  83.301  1.00  0.00     0.293 HD
ENDBRANCH   9  15
ENDBRANCH   6   7
ENDBRANCH   3   6
ENDBRANCH   1   2
BRANCH   1  17
ATOM     17  C   UNL     1      90.692  79.906  83.689  1.00  0.00     0.010 C 
BRANCH  17  18
ATOM     18  C   UNL     1      90.271  81.322  84.171  1.00  0.00     0.001 C 
BRANCH  18  19
ATOM     19  C   UNL     1      88.738  81.482  84.350  1.00  0.00     0.000 C 
BRANCH  19  20
ATOM     20  C   UNL     1      88.374  82.705  85.241  1.00  0.00     0.003 C 
BRANCH  20  21
ATOM     21  C   UNL     1      87.277  83.649  84.650  1.00  0.00    -0.017 C 
ATOM     22  C   UNL     1      86.209  84.003  85.727  1.00  0.00     0.007 C 
ATOM     23  C   UNL     1      86.586  83.057  83.387  1.00  0.00     0.007 C 
ENDBRANCH  20  21
ENDBRANCH  19  20
ENDBRANCH  18  19
ENDBRANCH  17  18
ENDBRANCH   1  17
TORSDOF 10
ENDMDL
MODEL 10
REMARK VINA RESULT:    -5.911      1.419      2.208
REMARK INTER + INTRA:          -9.645
REMARK INTER:                  -8.926
REMARK INTRA:                  -0.719
REMARK UNBOUND:                -0.451
REMARK SMILES COc1cc(CNC(=O)CCCCCC(C)C)ccc1O
REMARK SMILES IDX 10 1 8 2 7 3 9 5 6 6 5 7 3 8 20 9 4 10 19 11 18 12 2 13 1 14
REMARK SMILES IDX 21 15 11 17 12 18 13 19 14 20 15 21 16 22 17 23
REMARK H PARENT 7 4 21 16
REMARK Flexibility Score: inf
ROOT
ATOM      1  C   UNL     1      95.482  81.462  85.716  1.00  0.00     0.100 C 
ENDROOT
BRANCH   1   2
ATOM      2  C   UNL     1      94.198  82.169  85.526  1.00  0.00     0.220 C 
ATOM      3  N   UNL     1      93.369  81.790  84.513  1.00  0.00    -0.352 N 
ATOM      4  H   UNL     1      93.763  81.119  83.869  1.00  0.00     0.163 HD
ATOM      5  O   UNL     1      93.879  83.079  86.330  1.00  0.00    -0.275 OA
BRANCH   3   6
ATOM      6  C   UNL     1      92.036  82.264  84.322  1.00  0.00     0.151 C 
BRANCH   6   7
ATOM      7  C   UNL     1      91.021  81.176  84.332  1.00  0.00    -0.025 A 
ATOM      8  C   UNL     1      88.672  80.451  84.290  1.00  0.00     0.160 A 
ATOM      9  C   UNL     1      89.090  79.103  84.283  1.00  0.00     0.157 A 
ATOM     10  C   UNL     1      89.639  81.478  84.333  1.00  0.00     0.056 A 
ATOM     11  C   UNL     1      90.462  78.791  84.309  1.00  0.00     0.050 A 
ATOM     12  C   UNL     1      91.420  79.819  84.328  1.00  0.00     0.009 A 
BRANCH   8  13
ATOM     13  O   UNL     1      87.341  80.775  84.285  1.00  0.00    -0.493 OA
ATOM     14  C   UNL     1      87.058  82.065  83.707  1.00  0.00     0.278 C 
ENDBRANCH   8  13
BRANCH   9  15
ATOM     15  O   UNL     1      88.169  78.108  84.244  1.00  0.00    -0.504 OA
ATOM     16  H   UNL     1      88.418  77.467  83.574  1.00  0.00     0.293 HD
ENDBRANCH   9  15
ENDBRANCH   6   7
ENDBRANCH   3   6
ENDBRANCH   1   2
BRANCH   1  17
ATOM     17  C   UNL     1      96.736  82.366  85.575  1.00  0.00     0.010 C 
BRANCH  17  18
ATOM     18  C   UNL     1      97.539  82.034  84.287  1.00  0.00     0.001 C 
BRANCH  18  19
ATOM     19  C   UNL     1      97.032  82.792  83.032  1.00  0.00     0.000 C 
BRANCH  19  20
ATOM     20  C   UNL     1      96.663  81.826  81.869  1.00  0.00     0.003 C 
BRANCH  20  21
ATOM     21  C   UNL     1      97.474  82.041  80.550  1.00  0.00    -0.017 C 
ATOM     22  C   UNL     1      98.995  82.189  80.850  1.00  0.00     0.007 C 
ATOM     23  C   UNL     1      96.971  83.262  79.725  1.00  0.00     0.007 C 
ENDBRANCH  20  21
ENDBRANCH  19  20
ENDBRANCH  18  19
ENDBRANCH  17  18
ENDBRANCH   1  17
TORSDOF 10
ENDMDL
