MODEL 1
REMARK VINA RESULT:    -6.146      0.000      0.000
REMARK INTER + INTRA:         -11.528
REMARK INTER:                 -10.098
REMARK INTRA:                  -1.431
REMARK UNBOUND:                -1.431
REMARK SMILES CCCCC[C@H](O)CC(=O)CCc1ccc(O)c(OC)c1
REMARK SMILES IDX 8 1 6 2 7 3 5 5 4 6 3 7 2 8 1 9 9 10 10 11 11 12 12 13 13 14
REMARK SMILES IDX 21 15 14 16 18 17 15 18 16 19 19 20 20 21 17 22
REMARK H PARENT 7 4 17 23
REMARK Flexibility Score: inf
ROOT
ATOM      1  C   UNL     1      93.200  97.135  76.083  1.00  0.00     0.107 C 
ENDROOT
BRANCH   1   2
ATOM      2  C   UNL     1      92.803  95.746  76.589  1.00  0.00     0.121 C 
BRANCH   2   3
ATOM      3  O   UNL     1      93.925  94.869  76.523  1.00  0.00    -0.393 OA
ATOM      4  H   UNL     1      94.707  95.403  76.297  1.00  0.00     0.210 HD
ENDBRANCH   2   3
BRANCH   2   5
ATOM      5  C   UNL     1      92.258  95.763  78.022  1.00  0.00     0.032 C 
BRANCH   5   6
ATOM      6  C   UNL     1      91.393  94.533  78.324  1.00  0.00     0.003 C 
BRANCH   6   7
ATOM      7  C   UNL     1      90.049  94.542  77.589  1.00  0.00    -0.000 C 
BRANCH   7   8
ATOM      8  C   UNL     1      89.971  93.534  76.444  1.00  0.00    -0.003 C 
ATOM      9  C   UNL     1      91.123  92.542  76.500  1.00  0.00     0.004 C 
ENDBRANCH   7   8
ENDBRANCH   6   7
ENDBRANCH   5   6
ENDBRANCH   2   5
ENDBRANCH   1   2
BRANCH   1  10
ATOM     10  C   UNL     1      94.691  97.409  76.200  1.00  0.00     0.135 C 
ATOM     11  O   UNL     1      95.475  97.024  75.333  1.00  0.00    -0.300 OA
BRANCH  10  12
ATOM     12  C   UNL     1      95.143  98.213  77.409  1.00  0.00     0.080 C 
BRANCH  12  13
ATOM     13  C   UNL     1      96.262  97.544  78.209  1.00  0.00     0.043 C 
BRANCH  13  14
ATOM     14  C   UNL     1      95.835  97.141  79.601  1.00  0.00    -0.044 A 
ATOM     15  C   UNL     1      95.399  95.839  79.847  1.00  0.00     0.054 A 
ATOM     16  C   UNL     1      95.878  98.071  80.640  1.00  0.00     0.008 A 
ATOM     17  C   UNL     1      95.006  95.468  81.133  1.00  0.00     0.160 A 
ATOM     18  C   UNL     1      95.485  97.699  81.926  1.00  0.00     0.050 A 
ATOM     19  C   UNL     1      95.049  96.398  82.172  1.00  0.00     0.157 A 
BRANCH  17  20
ATOM     20  O   UNL     1      94.581  94.193  81.362  1.00  0.00    -0.493 OA
ATOM     21  C   UNL     1      95.225  93.154  80.628  1.00  0.00     0.278 C 
ENDBRANCH  17  20
BRANCH  19  22
ATOM     22  O   UNL     1      94.667  96.047  83.432  1.00  0.00    -0.504 OA
ATOM     23  H   UNL     1      95.449  95.748  83.928  1.00  0.00     0.293 HD
ENDBRANCH  19  22
ENDBRANCH  13  14
ENDBRANCH  12  13
ENDBRANCH  10  12
ENDBRANCH   1  10
TORSDOF 12
ENDMDL
MODEL 2
REMARK VINA RESULT:    -5.825     21.377     26.202
REMARK INTER + INTRA:         -11.001
REMARK INTER:                  -9.890
REMARK INTRA:                  -1.111
REMARK UNBOUND:                -1.431
REMARK SMILES CCCCC[C@H](O)CC(=O)CCc1ccc(O)c(OC)c1
REMARK SMILES IDX 8 1 6 2 7 3 5 5 4 6 3 7 2 8 1 9 9 10 10 11 11 12 12 13 13 14
REMARK SMILES IDX 21 15 14 16 18 17 15 18 16 19 19 20 20 21 17 22
REMARK H PARENT 7 4 17 23
REMARK Flexibility Score: inf
ROOT
ATOM      1  C   UNL     1      76.959  84.326  67.916  1.00  0.00     0.107 C 
ENDROOT
BRANCH   1   2
ATOM      2  C   UNL     1      77.668  84.444  69.267  1.00  0.00     0.121 C 
BRANCH   2   3
ATOM      3  O   UNL     1      78.548  85.565  69.255  1.00  0.00    -0.393 OA
ATOM      4  H   UNL     1      79.145  85.483  70.019  1.00  0.00     0.210 HD
ENDBRANCH   2   3
BRANCH   2   5
ATOM      5  C   UNL     1      76.696  84.578  70.446  1.00  0.00     0.032 C 
BRANCH   5   6
ATOM      6  C   UNL     1      75.297  85.014  69.992  1.00  0.00     0.003 C 
BRANCH   6   7
ATOM      7  C   UNL     1      74.921  86.425  70.456  1.00  0.00    -0.000 C 
BRANCH   7   8
ATOM      8  C   UNL     1      75.307  87.519  69.463  1.00  0.00    -0.003 C 
ATOM      9  C   UNL     1      76.299  88.497  70.073  1.00  0.00     0.004 C 
ENDBRANCH   7   8
ENDBRANCH   6   7
ENDBRANCH   5   6
ENDBRANCH   2   5
ENDBRANCH   1   2
BRANCH   1  10
ATOM     10  C   UNL     1      77.830  83.702  66.838  1.00  0.00     0.135 C 
ATOM     11  O   UNL     1      79.042  83.566  67.005  1.00  0.00    -0.300 OA
BRANCH  10  12
ATOM     12  C   UNL     1      77.121  83.223  65.581  1.00  0.00     0.080 C 
BRANCH  12  13
ATOM     13  C   UNL     1      76.887  81.712  65.545  1.00  0.00     0.043 C 
BRANCH  13  14
ATOM     14  C   UNL     1      75.564  81.332  64.923  1.00  0.00    -0.044 A 
ATOM     15  C   UNL     1      74.400  81.356  65.691  1.00  0.00     0.054 A 
ATOM     16  C   UNL     1      75.507  80.957  63.581  1.00  0.00     0.008 A 
ATOM     17  C   UNL     1      73.178  81.006  65.116  1.00  0.00     0.160 A 
ATOM     18  C   UNL     1      74.286  80.607  63.005  1.00  0.00     0.050 A 
ATOM     19  C   UNL     1      73.121  80.631  63.773  1.00  0.00     0.157 A 
BRANCH  17  20
ATOM     20  O   UNL     1      72.048  81.033  65.875  1.00  0.00    -0.493 OA
ATOM     21  C   UNL     1      71.567  82.314  66.277  1.00  0.00     0.278 C 
ENDBRANCH  17  20
BRANCH  19  22
ATOM     22  O   UNL     1      71.935  80.288  63.200  1.00  0.00    -0.504 OA
ATOM     23  H   UNL     1      71.270  80.164  63.899  1.00  0.00     0.293 HD
ENDBRANCH  19  22
ENDBRANCH  13  14
ENDBRANCH  12  13
ENDBRANCH  10  12
ENDBRANCH   1  10
TORSDOF 12
ENDMDL
MODEL 3
REMARK VINA RESULT:    -5.760      1.321      2.427
REMARK INTER + INTRA:         -10.895
REMARK INTER:                  -9.613
REMARK INTRA:                  -1.282
REMARK UNBOUND:                -1.431
REMARK SMILES CCCCC[C@H](O)CC(=O)CCc1ccc(O)c(OC)c1
REMARK SMILES IDX 8 1 6 2 7 3 5 5 4 6 3 7 2 8 1 9 9 10 10 11 11 12 12 13 13 14
REMARK SMILES IDX 21 15 14 16 18 17 15 18 16 19 19 20 20 21 17 22
REMARK H PARENT 7 4 17 23
REMARK Flexibility Score: inf
ROOT
ATOM      1  C   UNL     1      93.068  96.651  77.273  1.00  0.00     0.107 C 
ENDROOT
BRANCH   1   2
ATOM      2  C   UNL     1      92.876  95.451  76.343  1.00  0.00     0.121 C 
BRANCH   2   3
ATOM      3  O   UNL     1      94.071  95.219  75.600  1.00  0.00    -0.393 OA
ATOM      4  H   UNL     1      93.818  94.842  74.739  1.00  0.00     0.210 HD
ENDBRANCH   2   3
BRANCH   2   5
ATOM      5  C   UNL     1      92.488  94.168  77.089  1.00  0.00     0.032 C 
BRANCH   5   6
ATOM      6  C   UNL     1      91.765  94.465  78.408  1.00  0.00     0.003 C 
BRANCH   6   7
ATOM      7  C   UNL     1      90.653  93.461  78.730  1.00  0.00    -0.000 C 
BRANCH   7   8
ATOM      8  C   UNL     1      89.342  93.745  78.000  1.00  0.00    -0.003 C 
ATOM      9  C   UNL     1      89.324  95.151  77.420  1.00  0.00     0.004 C 
ENDBRANCH   7   8
ENDBRANCH   6   7
ENDBRANCH   5   6
ENDBRANCH   2   5
ENDBRANCH   1   2
BRANCH   1  10
ATOM     10  C   UNL     1      94.400  97.354  77.072  1.00  0.00     0.135 C 
ATOM     11  O   UNL     1      94.562  98.150  76.147  1.00  0.00    -0.300 OA
BRANCH  10  12
ATOM     12  C   UNL     1      95.490  97.056  78.090  1.00  0.00     0.080 C 
BRANCH  12  13
ATOM     13  C   UNL     1      95.824  95.568  78.216  1.00  0.00     0.043 C 
BRANCH  13  14
ATOM     14  C   UNL     1      95.608  95.029  79.610  1.00  0.00    -0.044 A 
ATOM     15  C   UNL     1      95.406  95.908  80.675  1.00  0.00     0.054 A 
ATOM     16  C   UNL     1      95.610  93.652  79.833  1.00  0.00     0.008 A 
ATOM     17  C   UNL     1      95.206  95.408  81.962  1.00  0.00     0.160 A 
ATOM     18  C   UNL     1      95.410  93.152  81.120  1.00  0.00     0.050 A 
ATOM     19  C   UNL     1      95.208  94.031  82.184  1.00  0.00     0.157 A 
BRANCH  17  20
ATOM     20  O   UNL     1      95.011  96.276  82.994  1.00  0.00    -0.493 OA
ATOM     21  C   UNL     1      95.993  97.293  83.180  1.00  0.00     0.278 C 
ENDBRANCH  17  20
BRANCH  19  22
ATOM     22  O   UNL     1      95.014  93.532  83.437  1.00  0.00    -0.504 OA
ATOM     23  H   UNL     1      94.233  93.958  83.830  1.00  0.00     0.293 HD
ENDBRANCH  19  22
ENDBRANCH  13  14
ENDBRANCH  12  13
ENDBRANCH  10  12
ENDBRANCH   1  10
TORSDOF 12
ENDMDL
MODEL 4
REMARK VINA RESULT:    -5.539     12.373     14.220
REMARK INTER + INTRA:         -10.532
REMARK INTER:                  -9.681
REMARK INTRA:                  -0.851
REMARK UNBOUND:                -1.431
REMARK SMILES CCCCC[C@H](O)CC(=O)CCc1ccc(O)c(OC)c1
REMARK SMILES IDX 8 1 6 2 7 3 5 5 4 6 3 7 2 8 1 9 9 10 10 11 11 12 12 13 13 14
REMARK SMILES IDX 21 15 14 16 18 17 15 18 16 19 19 20 20 21 17 22
REMARK H PARENT 7 4 17 23
REMARK Flexibility Score: inf
ROOT
ATOM      1  C   UNL     1      98.869  83.128  78.367  1.00  0.00     0.107 C 
ENDROOT
BRANCH   1   2
ATOM      2  C   UNL     1      98.047  83.672  77.196  1.00  0.00     0.121 C 
BRANCH   2   3
ATOM      3  O   UNL     1      97.759  85.053  77.407  1.00  0.00    -0.393 OA
ATOM      4  H   UNL     1      97.925  85.523  76.571  1.00  0.00     0.210 HD
ENDBRANCH   2   3
BRANCH   2   5
ATOM      5  C   UNL     1      98.747  83.505  75.842  1.00  0.00     0.032 C 
BRANCH   5   6
ATOM      6  C   UNL     1     100.176  84.062  75.858  1.00  0.00     0.003 C 
BRANCH   6   7
ATOM      7  C   UNL     1     100.310  85.408  75.138  1.00  0.00    -0.000 C 
BRANCH   7   8
ATOM      8  C   UNL     1     101.254  85.368  73.937  1.00  0.00    -0.003 C 
ATOM      9  C   UNL     1     101.963  84.027  73.834  1.00  0.00     0.004 C 
ENDBRANCH   7   8
ENDBRANCH   6   7
ENDBRANCH   5   6
ENDBRANCH   2   5
ENDBRANCH   1   2
BRANCH   1  10
ATOM     10  C   UNL     1      98.194  83.330  79.713  1.00  0.00     0.135 C 
ATOM     11  O   UNL     1      96.984  83.542  79.789  1.00  0.00    -0.300 OA
BRANCH  10  12
ATOM     12  C   UNL     1      99.079  83.212  80.945  1.00  0.00     0.080 C 
BRANCH  12  13
ATOM     13  C   UNL     1      98.940  81.876  81.677  1.00  0.00     0.043 C 
BRANCH  13  14
ATOM     14  C   UNL     1      98.238  82.001  83.008  1.00  0.00    -0.044 A 
ATOM     15  C   UNL     1      97.678  83.220  83.390  1.00  0.00     0.054 A 
ATOM     16  C   UNL     1      98.149  80.896  83.855  1.00  0.00     0.008 A 
ATOM     17  C   UNL     1      97.029  83.334  84.620  1.00  0.00     0.160 A 
ATOM     18  C   UNL     1      97.500  81.010  85.085  1.00  0.00     0.050 A 
ATOM     19  C   UNL     1      96.940  82.230  85.467  1.00  0.00     0.157 A 
BRANCH  17  20
ATOM     20  O   UNL     1      96.487  84.531  84.982  1.00  0.00    -0.493 OA
ATOM     21  C   UNL     1      97.395  85.584  85.301  1.00  0.00     0.278 C 
ENDBRANCH  17  20
BRANCH  19  22
ATOM     22  O   UNL     1      96.309  82.329  86.670  1.00  0.00    -0.504 OA
ATOM     23  H   UNL     1      96.690  83.073  87.167  1.00  0.00     0.293 HD
ENDBRANCH  19  22
ENDBRANCH  13  14
ENDBRANCH  12  13
ENDBRANCH  10  12
ENDBRANCH   1  10
TORSDOF 12
ENDMDL
MODEL 5
REMARK VINA RESULT:    -5.468     21.980     26.811
REMARK INTER + INTRA:         -10.415
REMARK INTER:                  -9.262
REMARK INTRA:                  -1.153
REMARK UNBOUND:                -1.431
REMARK SMILES CCCCC[C@H](O)CC(=O)CCc1ccc(O)c(OC)c1
REMARK SMILES IDX 8 1 6 2 7 3 5 5 4 6 3 7 2 8 1 9 9 10 10 11 11 12 12 13 13 14
REMARK SMILES IDX 21 15 14 16 18 17 15 18 16 19 19 20 20 21 17 22
REMARK H PARENT 7 4 17 23
REMARK Flexibility Score: inf
ROOT
ATOM      1  C   UNL     1      76.644  83.688  66.635  1.00  0.00     0.107 C 
ENDROOT
BRANCH   1   2
ATOM      2  C   UNL     1      77.903  83.603  67.502  1.00  0.00     0.121 C 
BRANCH   2   3
ATOM      3  O   UNL     1      79.061  83.788  66.692  1.00  0.00    -0.393 OA
ATOM      4  H   UNL     1      79.775  83.240  67.063  1.00  0.00     0.210 HD
ENDBRANCH   2   3
BRANCH   2   5
ATOM      5  C   UNL     1      77.916  84.628  68.643  1.00  0.00     0.032 C 
BRANCH   5   6
ATOM      6  C   UNL     1      76.809  84.360  69.670  1.00  0.00     0.003 C 
BRANCH   6   7
ATOM      7  C   UNL     1      76.204  85.640  70.257  1.00  0.00    -0.000 C 
BRANCH   7   8
ATOM      8  C   UNL     1      76.903  86.916  69.792  1.00  0.00    -0.003 C 
ATOM      9  C   UNL     1      76.045  88.145  70.054  1.00  0.00     0.004 C 
ENDBRANCH   7   8
ENDBRANCH   6   7
ENDBRANCH   5   6
ENDBRANCH   2   5
ENDBRANCH   1   2
BRANCH   1  10
ATOM     10  C   UNL     1      76.829  83.075  65.256  1.00  0.00     0.135 C 
ATOM     11  O   UNL     1      77.250  83.748  64.315  1.00  0.00    -0.300 OA
BRANCH  10  12
ATOM     12  C   UNL     1      76.511  81.593  65.120  1.00  0.00     0.080 C 
BRANCH  12  13
ATOM     13  C   UNL     1      75.352  81.129  66.005  1.00  0.00     0.043 C 
BRANCH  13  14
ATOM     14  C   UNL     1      73.998  81.367  65.380  1.00  0.00    -0.044 A 
ATOM     15  C   UNL     1      73.056  82.159  66.036  1.00  0.00     0.054 A 
ATOM     16  C   UNL     1      73.691  80.795  64.145  1.00  0.00     0.008 A 
ATOM     17  C   UNL     1      71.806  82.378  65.457  1.00  0.00     0.160 A 
ATOM     18  C   UNL     1      72.441  81.014  63.566  1.00  0.00     0.050 A 
ATOM     19  C   UNL     1      71.498  81.806  64.222  1.00  0.00     0.157 A 
BRANCH  17  20
ATOM     20  O   UNL     1      70.893  83.153  66.107  1.00  0.00    -0.493 OA
ATOM     21  C   UNL     1      70.231  82.571  67.229  1.00  0.00     0.278 C 
ENDBRANCH  17  20
BRANCH  19  22
ATOM     22  O   UNL     1      70.281  82.013  63.647  1.00  0.00    -0.504 OA
ATOM     23  H   UNL     1      70.385  82.022  62.680  1.00  0.00     0.293 HD
ENDBRANCH  19  22
ENDBRANCH  13  14
ENDBRANCH  12  13
ENDBRANCH  10  12
ENDBRANCH   1  10
TORSDOF 12
ENDMDL
MODEL 6
REMARK VINA RESULT:    -5.319     31.508     34.036
REMARK INTER + INTRA:         -10.171
REMARK INTER:                  -8.253
REMARK INTRA:                  -1.918
REMARK UNBOUND:                -1.431
REMARK SMILES CCCCC[C@H](O)CC(=O)CCc1ccc(O)c(OC)c1
REMARK SMILES IDX 8 1 6 2 7 3 5 5 4 6 3 7 2 8 1 9 9 10 10 11 11 12 12 13 13 14
REMARK SMILES IDX 21 15 14 16 18 17 15 18 16 19 19 20 20 21 17 22
REMARK H PARENT 7 4 17 23
REMARK Flexibility Score: inf
ROOT
ATOM      1  C   UNL     1      64.951  83.056  68.742  1.00  0.00     0.107 C 
ENDROOT
BRANCH   1   2
ATOM      2  C   UNL     1      63.630  83.710  68.331  1.00  0.00     0.121 C 
BRANCH   2   3
ATOM      3  O   UNL     1      63.495  83.677  66.912  1.00  0.00    -0.393 OA
ATOM      4  H   UNL     1      62.618  84.034  66.689  1.00  0.00     0.210 HD
ENDBRANCH   2   3
BRANCH   2   5
ATOM      5  C   UNL     1      62.406  83.042  68.970  1.00  0.00     0.032 C 
BRANCH   5   6
ATOM      6  C   UNL     1      61.422  84.070  69.543  1.00  0.00     0.003 C 
BRANCH   6   7
ATOM      7  C   UNL     1      61.741  84.477  70.985  1.00  0.00    -0.000 C 
BRANCH   7   8
ATOM      8  C   UNL     1      60.508  84.571  71.881  1.00  0.00    -0.003 C 
ATOM      9  C   UNL     1      59.238  84.743  71.062  1.00  0.00     0.004 C 
ENDBRANCH   7   8
ENDBRANCH   6   7
ENDBRANCH   5   6
ENDBRANCH   2   5
ENDBRANCH   1   2
BRANCH   1  10
ATOM     10  C   UNL     1      65.532  83.638  70.020  1.00  0.00     0.135 C 
ATOM     11  O   UNL     1      65.641  84.855  70.169  1.00  0.00    -0.300 OA
BRANCH  10  12
ATOM     12  C   UNL     1      65.922  82.647  71.106  1.00  0.00     0.080 C 
BRANCH  12  13
ATOM     13  C   UNL     1      64.832  81.622  71.423  1.00  0.00     0.043 C 
BRANCH  13  14
ATOM     14  C   UNL     1      63.949  82.034  72.577  1.00  0.00    -0.044 A 
ATOM     15  C   UNL     1      64.307  83.120  73.376  1.00  0.00     0.054 A 
ATOM     16  C   UNL     1      62.775  81.329  72.843  1.00  0.00     0.008 A 
ATOM     17  C   UNL     1      63.489  83.501  74.440  1.00  0.00     0.160 A 
ATOM     18  C   UNL     1      61.957  81.710  73.907  1.00  0.00     0.050 A 
ATOM     19  C   UNL     1      62.315  82.796  74.706  1.00  0.00     0.157 A 
BRANCH  17  20
ATOM     20  O   UNL     1      63.850  84.563  75.214  1.00  0.00    -0.493 OA
ATOM     21  C   UNL     1      64.775  85.491  74.651  1.00  0.00     0.278 C 
ENDBRANCH  17  20
BRANCH  19  22
ATOM     22  O   UNL     1      61.510  83.158  75.743  1.00  0.00    -0.504 OA
ATOM     23  H   UNL     1      61.499  82.442  76.401  1.00  0.00     0.293 HD
ENDBRANCH  19  22
ENDBRANCH  13  14
ENDBRANCH  12  13
ENDBRANCH  10  12
ENDBRANCH   1  10
TORSDOF 12
ENDMDL
MODEL 7
REMARK VINA RESULT:    -5.312     21.249     23.143
REMARK INTER + INTRA:         -10.158
REMARK INTER:                  -7.730
REMARK INTRA:                  -2.428
REMARK UNBOUND:                -1.431
REMARK SMILES CCCCC[C@H](O)CC(=O)CCc1ccc(O)c(OC)c1
REMARK SMILES IDX 8 1 6 2 7 3 5 5 4 6 3 7 2 8 1 9 9 10 10 11 11 12 12 13 13 14
REMARK SMILES IDX 21 15 14 16 18 17 15 18 16 19 19 20 20 21 17 22
REMARK H PARENT 7 4 17 23
REMARK Flexibility Score: inf
ROOT
ATOM      1  C   UNL     1      76.805  84.688  69.759  1.00  0.00     0.107 C 
ENDROOT
BRANCH   1   2
ATOM      2  C   UNL     1      78.116  85.323  69.290  1.00  0.00     0.121 C 
BRANCH   2   3
ATOM      3  O   UNL     1      78.600  84.637  68.138  1.00  0.00    -0.393 OA
ATOM      4  H   UNL     1      79.356  85.140  67.788  1.00  0.00     0.210 HD
ENDBRANCH   2   3
BRANCH   2   5
ATOM      5  C   UNL     1      77.978  86.816  68.968  1.00  0.00     0.032 C 
BRANCH   5   6
ATOM      6  C   UNL     1      78.071  87.092  67.462  1.00  0.00     0.003 C 
BRANCH   6   7
ATOM      7  C   UNL     1      76.866  87.859  66.910  1.00  0.00    -0.000 C 
BRANCH   7   8
ATOM      8  C   UNL     1      76.428  87.396  65.522  1.00  0.00    -0.003 C 
ATOM      9  C   UNL     1      76.765  85.930  65.295  1.00  0.00     0.004 C 
ENDBRANCH   7   8
ENDBRANCH   6   7
ENDBRANCH   5   6
ENDBRANCH   2   5
ENDBRANCH   1   2
BRANCH   1  10
ATOM     10  C   UNL     1      75.829  84.428  68.623  1.00  0.00     0.135 C 
ATOM     11  O   UNL     1      76.015  83.507  67.828  1.00  0.00    -0.300 OA
BRANCH  10  12
ATOM     12  C   UNL     1      74.605  85.328  68.555  1.00  0.00     0.080 C 
BRANCH  12  13
ATOM     13  C   UNL     1      74.302  86.054  69.867  1.00  0.00     0.043 C 
BRANCH  13  14
ATOM     14  C   UNL     1      74.467  87.552  69.767  1.00  0.00    -0.044 A 
ATOM     15  C   UNL     1      73.835  88.257  68.743  1.00  0.00     0.054 A 
ATOM     16  C   UNL     1      75.252  88.230  70.700  1.00  0.00     0.008 A 
ATOM     17  C   UNL     1      73.987  89.640  68.652  1.00  0.00     0.160 A 
ATOM     18  C   UNL     1      75.404  89.614  70.609  1.00  0.00     0.050 A 
ATOM     19  C   UNL     1      74.772  90.319  69.585  1.00  0.00     0.157 A 
BRANCH  17  20
ATOM     20  O   UNL     1      73.365  90.318  67.647  1.00  0.00    -0.493 OA
ATOM     21  C   UNL     1      73.703  89.949  66.311  1.00  0.00     0.278 C 
ENDBRANCH  17  20
BRANCH  19  22
ATOM     22  O   UNL     1      74.928  91.670  69.507  1.00  0.00    -0.504 OA
ATOM     23  H   UNL     1      75.451  91.883  68.714  1.00  0.00     0.293 HD
ENDBRANCH  19  22
ENDBRANCH  13  14
ENDBRANCH  12  13
ENDBRANCH  10  12
ENDBRANCH   1  10
TORSDOF 12
ENDMDL
MODEL 8
REMARK VINA RESULT:    -5.142      3.876      5.399
REMARK INTER + INTRA:          -9.879
REMARK INTER:                  -9.077
REMARK INTRA:                  -0.802
REMARK UNBOUND:                -1.431
REMARK SMILES CCCCC[C@H](O)CC(=O)CCc1ccc(O)c(OC)c1
REMARK SMILES IDX 8 1 6 2 7 3 5 5 4 6 3 7 2 8 1 9 9 10 10 11 11 12 12 13 13 14
REMARK SMILES IDX 21 15 14 16 18 17 15 18 16 19 19 20 20 21 17 22
REMARK H PARENT 7 4 17 23
REMARK Flexibility Score: inf
ROOT
ATOM      1  C   UNL     1      93.554  99.625  73.496  1.00  0.00     0.107 C 
ENDROOT
BRANCH   1   2
ATOM      2  C   UNL     1      92.143 100.123  73.173  1.00  0.00     0.121 C 
BRANCH   2   3
ATOM      3  O   UNL     1      92.022 101.497  73.531  1.00  0.00    -0.393 OA
ATOM      4  H   UNL     1      92.919 101.871  73.587  1.00  0.00     0.210 HD
ENDBRANCH   2   3
BRANCH   2   5
ATOM      5  C   UNL     1      91.770  99.951  71.695  1.00  0.00     0.032 C 
BRANCH   5   6
ATOM      6  C   UNL     1      90.342 100.425  71.402  1.00  0.00     0.003 C 
BRANCH   6   7
ATOM      7  C   UNL     1      89.323  99.283  71.348  1.00  0.00    -0.000 C 
BRANCH   7   8
ATOM      8  C   UNL     1      89.514  98.348  70.155  1.00  0.00    -0.003 C 
ATOM      9  C   UNL     1      89.668  96.903  70.603  1.00  0.00     0.004 C 
ENDBRANCH   7   8
ENDBRANCH   6   7
ENDBRANCH   5   6
ENDBRANCH   2   5
ENDBRANCH   1   2
BRANCH   1  10
ATOM     10  C   UNL     1      93.774  99.382  74.980  1.00  0.00     0.135 C 
ATOM     11  O   UNL     1      93.778 100.317  75.781  1.00  0.00    -0.300 OA
BRANCH  10  12
ATOM     12  C   UNL     1      93.941  97.935  75.417  1.00  0.00     0.080 C 
BRANCH  12  13
ATOM     13  C   UNL     1      92.644  97.287  75.906  1.00  0.00     0.043 C 
BRANCH  13  14
ATOM     14  C   UNL     1      92.861  96.308  77.036  1.00  0.00    -0.044 A 
ATOM     15  C   UNL     1      94.145  96.092  77.536  1.00  0.00     0.054 A 
ATOM     16  C   UNL     1      91.775  95.620  77.579  1.00  0.00     0.008 A 
ATOM     17  C   UNL     1      94.343  95.188  78.580  1.00  0.00     0.160 A 
ATOM     18  C   UNL     1      91.974  94.716  78.623  1.00  0.00     0.050 A 
ATOM     19  C   UNL     1      93.258  94.500  79.123  1.00  0.00     0.157 A 
BRANCH  17  20
ATOM     20  O   UNL     1      95.602  94.985  79.059  1.00  0.00    -0.493 OA
ATOM     21  C   UNL     1      96.111  95.955  79.974  1.00  0.00     0.278 C 
ENDBRANCH  17  20
BRANCH  19  22
ATOM     22  O   UNL     1      93.440  93.615  80.142  1.00  0.00    -0.504 OA
ATOM     23  H   UNL     1      94.389  93.559  80.348  1.00  0.00     0.293 HD
ENDBRANCH  19  22
ENDBRANCH  13  14
ENDBRANCH  12  13
ENDBRANCH  10  12
ENDBRANCH   1  10
TORSDOF 12
ENDMDL
MODEL 9
REMARK VINA RESULT:    -5.106     20.542     22.359
REMARK INTER + INTRA:          -9.820
REMARK INTER:                  -8.002
REMARK INTRA:                  -1.819
REMARK UNBOUND:                -1.431
REMARK SMILES CCCCC[C@H](O)CC(=O)CCc1ccc(O)c(OC)c1
REMARK SMILES IDX 8 1 6 2 7 3 5 5 4 6 3 7 2 8 1 9 9 10 10 11 11 12 12 13 13 14
REMARK SMILES IDX 21 15 14 16 18 17 15 18 16 19 19 20 20 21 17 22
REMARK H PARENT 7 4 17 23
REMARK Flexibility Score: inf
ROOT
ATOM      1  C   UNL     1      75.602  84.922  70.777  1.00  0.00     0.107 C 
ENDROOT
BRANCH   1   2
ATOM      2  C   UNL     1      76.850  84.374  70.081  1.00  0.00     0.121 C 
BRANCH   2   3
ATOM      3  O   UNL     1      76.487  83.768  68.843  1.00  0.00    -0.393 OA
ATOM      4  H   UNL     1      76.669  82.814  68.914  1.00  0.00     0.210 HD
ENDBRANCH   2   3
BRANCH   2   5
ATOM      5  C   UNL     1      77.914  85.448  69.824  1.00  0.00     0.032 C 
BRANCH   5   6
ATOM      6  C   UNL     1      78.225  85.606  68.331  1.00  0.00     0.003 C 
BRANCH   6   7
ATOM      7  C   UNL     1      78.036  87.039  67.821  1.00  0.00    -0.000 C 
BRANCH   7   8
ATOM      8  C   UNL     1      76.787  87.223  66.961  1.00  0.00    -0.003 C 
ATOM      9  C   UNL     1      76.614  86.072  65.981  1.00  0.00     0.004 C 
ENDBRANCH   7   8
ENDBRANCH   6   7
ENDBRANCH   5   6
ENDBRANCH   2   5
ENDBRANCH   1   2
BRANCH   1  10
ATOM     10  C   UNL     1      74.774  85.832  69.884  1.00  0.00     0.135 C 
ATOM     11  O   UNL     1      74.338  85.433  68.804  1.00  0.00    -0.300 OA
BRANCH  10  12
ATOM     12  C   UNL     1      74.481  87.227  70.416  1.00  0.00     0.080 C 
BRANCH  12  13
ATOM     13  C   UNL     1      75.704  88.145  70.441  1.00  0.00     0.043 C 
BRANCH  13  14
ATOM     14  C   UNL     1      75.381  89.572  70.067  1.00  0.00    -0.044 A 
ATOM     15  C   UNL     1      75.560  90.595  70.997  1.00  0.00     0.054 A 
ATOM     16  C   UNL     1      74.902  89.866  68.790  1.00  0.00     0.008 A 
ATOM     17  C   UNL     1      75.262  91.913  70.650  1.00  0.00     0.160 A 
ATOM     18  C   UNL     1      74.604  91.184  68.442  1.00  0.00     0.050 A 
ATOM     19  C   UNL     1      74.784  92.207  69.373  1.00  0.00     0.157 A 
BRANCH  17  20
ATOM     20  O   UNL     1      75.441  92.904  71.568  1.00  0.00    -0.493 OA
ATOM     21  C   UNL     1      74.799  92.742  72.831  1.00  0.00     0.278 C 
ENDBRANCH  17  20
BRANCH  19  22
ATOM     22  O   UNL     1      74.489  93.490  69.023  1.00  0.00    -0.504 OA
ATOM     23  H   UNL     1      73.587  93.520  68.659  1.00  0.00     0.293 HD
ENDBRANCH  19  22
ENDBRANCH  13  14
ENDBRANCH  12  13
ENDBRANCH  10  12
ENDBRANCH   1  10
TORSDOF 12
ENDMDL
MODEL 10
REMARK VINA RESULT:    -5.102      2.032      6.704
REMARK INTER + INTRA:          -9.813
REMARK INTER:                  -8.166
REMARK INTRA:                  -1.647
REMARK UNBOUND:                -1.431
REMARK SMILES CCCCC[C@H](O)CC(=O)CCc1ccc(O)c(OC)c1
REMARK SMILES IDX 8 1 6 2 7 3 5 5 4 6 3 7 2 8 1 9 9 10 10 11 11 12 12 13 13 14
REMARK SMILES IDX 21 15 14 16 18 17 15 18 16 19 19 20 20 21 17 22
REMARK H PARENT 7 4 17 23
REMARK Flexibility Score: inf
ROOT
ATOM      1  C   UNL     1      94.114  94.199  78.675  1.00  0.00     0.107 C 
ENDROOT
BRANCH   1   2
ATOM      2  C   UNL     1      94.369  94.587  80.134  1.00  0.00     0.121 C 
BRANCH   2   3
ATOM      3  O   UNL     1      95.392  93.759  80.682  1.00  0.00    -0.393 OA
ATOM      4  H   UNL     1      95.036  93.338  81.485  1.00  0.00     0.210 HD
ENDBRANCH   2   3
BRANCH   2   5
ATOM      5  C   UNL     1      94.767  96.058  80.302  1.00  0.00     0.032 C 
BRANCH   5   6
ATOM      6  C   UNL     1      96.221  96.314  79.885  1.00  0.00     0.003 C 
BRANCH   6   7
ATOM      7  C   UNL     1      96.522  97.791  79.610  1.00  0.00    -0.000 C 
BRANCH   7   8
ATOM      8  C   UNL     1      95.931  98.302  78.297  1.00  0.00    -0.003 C 
ATOM      9  C   UNL     1      96.974  99.033  77.467  1.00  0.00     0.004 C 
ENDBRANCH   7   8
ENDBRANCH   6   7
ENDBRANCH   5   6
ENDBRANCH   2   5
ENDBRANCH   1   2
BRANCH   1  10
ATOM     10  C   UNL     1      92.657  94.344  78.267  1.00  0.00     0.135 C 
ATOM     11  O   UNL     1      91.749  94.069  79.052  1.00  0.00    -0.300 OA
BRANCH  10  12
ATOM     12  C   UNL     1      92.391  94.884  76.870  1.00  0.00     0.080 C 
BRANCH  12  13
ATOM     13  C   UNL     1      92.267  96.408  76.814  1.00  0.00     0.043 C 
BRANCH  13  14
ATOM     14  C   UNL     1      93.312  97.055  75.936  1.00  0.00    -0.044 A 
ATOM     15  C   UNL     1      93.109  98.344  75.444  1.00  0.00     0.054 A 
ATOM     16  C   UNL     1      94.480  96.362  75.618  1.00  0.00     0.008 A 
ATOM     17  C   UNL     1      94.076  98.940  74.634  1.00  0.00     0.160 A 
ATOM     18  C   UNL     1      95.447  96.958  74.808  1.00  0.00     0.050 A 
ATOM     19  C   UNL     1      95.244  98.247  74.316  1.00  0.00     0.157 A 
BRANCH  17  20
ATOM     20  O   UNL     1      93.867 100.200  74.159  1.00  0.00    -0.493 OA
ATOM     21  C   UNL     1      92.851 100.359  73.170  1.00  0.00     0.278 C 
ENDBRANCH  17  20
BRANCH  19  22
ATOM     22  O   UNL     1      96.195  98.820  73.526  1.00  0.00    -0.504 OA
ATOM     23  H   UNL     1      97.023  98.316  73.612  1.00  0.00     0.293 HD
ENDBRANCH  19  22
ENDBRANCH  13  14
ENDBRANCH  12  13
ENDBRANCH  10  12
ENDBRANCH   1  10
TORSDOF 12
ENDMDL
