MODEL 1
REMARK VINA RESULT:    -6.808      0.000      0.000
REMARK INTER + INTRA:         -13.110
REMARK INTER:                 -11.385
REMARK INTRA:                  -1.725
REMARK UNBOUND:                -1.725
REMARK SMILES COc1cc(CNC(=O)CCCCCCCC(C)C)ccc1O
REMARK SMILES IDX 11 1 10 2 8 3 9 4 7 5 6 7 5 8 4 9 20 10 3 11 21 12 22 13
REMARK SMILES IDX 2 14 1 15 23 16 12 18 13 19 14 20 15 21 16 22 17 23 18 24
REMARK SMILES IDX 19 25
REMARK H PARENT 7 6 23 17
REMARK Flexibility Score: inf
ROOT
ATOM      1  C   UNL     1      89.810  92.209  72.212  1.00  0.00     0.010 C 
ENDROOT
BRANCH   1   2
ATOM      2  C   UNL     1      88.460  91.509  72.062  1.00  0.00     0.100 C 
BRANCH   2   3
ATOM      3  C   UNL     1      88.375  90.234  72.885  1.00  0.00     0.220 C 
ATOM      4  O   UNL     1      87.327  89.624  73.075  1.00  0.00    -0.275 OA
ATOM      5  N   UNL     1      89.615  89.868  73.387  1.00  0.00    -0.352 N 
ATOM      6  H   UNL     1      90.428  90.444  73.185  1.00  0.00     0.163 HD
BRANCH   5   7
ATOM      7  C   UNL     1      89.812  88.697  74.210  1.00  0.00     0.151 C 
BRANCH   7   8
ATOM      8  C   UNL     1      89.912  89.046  75.667  1.00  0.00    -0.025 A 
ATOM      9  C   UNL     1      90.114  90.367  76.045  1.00  0.00     0.056 A 
ATOM     10  C   UNL     1      89.801  88.043  76.622  1.00  0.00     0.009 A 
ATOM     11  C   UNL     1      90.207  90.691  77.399  1.00  0.00     0.160 A 
ATOM     12  C   UNL     1      89.895  88.366  77.976  1.00  0.00     0.050 A 
ATOM     13  C   UNL     1      90.098  89.690  78.365  1.00  0.00     0.157 A 
BRANCH  11  14
ATOM     14  O   UNL     1      90.406  91.988  77.766  1.00  0.00    -0.493 OA
ATOM     15  C   UNL     1      89.547  92.965  77.183  1.00  0.00     0.278 C 
ENDBRANCH  11  14
BRANCH  13  16
ATOM     16  O   UNL     1      90.187  89.993  79.690  1.00  0.00    -0.504 OA
ATOM     17  H   UNL     1      90.705  90.810  79.793  1.00  0.00     0.293 HD
ENDBRANCH  13  16
ENDBRANCH   7   8
ENDBRANCH   5   7
ENDBRANCH   2   3
ENDBRANCH   1   2
BRANCH   1  18
ATOM     18  C   UNL     1      89.721  93.559  72.928  1.00  0.00     0.001 C 
BRANCH  18  19
ATOM     19  C   UNL     1      90.800  93.824  73.983  1.00  0.00     0.000 C 
BRANCH  19  20
ATOM     20  C   UNL     1      91.841  92.705  74.078  1.00  0.00     0.000 C 
BRANCH  20  21
ATOM     21  C   UNL     1      92.872  92.924  75.190  1.00  0.00     0.000 C 
BRANCH  21  22
ATOM     22  C   UNL     1      92.852  94.344  75.765  1.00  0.00     0.003 C 
BRANCH  22  23
ATOM     23  C   UNL     1      94.208  95.069  75.661  1.00  0.00    -0.017 C 
ATOM     24  C   UNL     1      94.119  96.187  74.621  1.00  0.00     0.007 C 
ATOM     25  C   UNL     1      95.353  94.121  75.300  1.00  0.00     0.007 C 
ENDBRANCH  22  23
ENDBRANCH  21  22
ENDBRANCH  20  21
ENDBRANCH  19  20
ENDBRANCH  18  19
ENDBRANCH   1  18
TORSDOF 12
ENDMDL
MODEL 2
REMARK VINA RESULT:    -6.145      3.925      7.481
REMARK INTER + INTRA:         -12.001
REMARK INTER:                 -10.922
REMARK INTRA:                  -1.079
REMARK UNBOUND:                -1.725
REMARK SMILES COc1cc(CNC(=O)CCCCCCCC(C)C)ccc1O
REMARK SMILES IDX 11 1 10 2 8 3 9 4 7 5 6 7 5 8 4 9 20 10 3 11 21 12 22 13
REMARK SMILES IDX 2 14 1 15 23 16 12 18 13 19 14 20 15 21 16 22 17 23 18 24
REMARK SMILES IDX 19 25
REMARK H PARENT 7 6 23 17
REMARK Flexibility Score: inf
ROOT
ATOM      1  C   UNL     1      91.555  94.054  76.698  1.00  0.00     0.010 C 
ENDROOT
BRANCH   1   2
ATOM      2  C   UNL     1      92.190  94.280  75.328  1.00  0.00     0.100 C 
BRANCH   2   3
ATOM      3  C   UNL     1      93.633  94.746  75.428  1.00  0.00     0.220 C 
ATOM      4  O   UNL     1      94.046  95.779  74.908  1.00  0.00    -0.275 OA
ATOM      5  N   UNL     1      94.404  93.861  76.166  1.00  0.00    -0.352 N 
ATOM      6  H   UNL     1      93.977  93.023  76.551  1.00  0.00     0.163 HD
BRANCH   5   7
ATOM      7  C   UNL     1      95.815  94.063  76.408  1.00  0.00     0.151 C 
BRANCH   7   8
ATOM      8  C   UNL     1      96.063  94.835  77.670  1.00  0.00    -0.025 A 
ATOM      9  C   UNL     1      95.447  94.439  78.851  1.00  0.00     0.056 A 
ATOM     10  C   UNL     1      96.906  95.940  77.645  1.00  0.00     0.009 A 
ATOM     11  C   UNL     1      95.678  95.157  80.025  1.00  0.00     0.160 A 
ATOM     12  C   UNL     1      97.136  96.659  78.819  1.00  0.00     0.050 A 
ATOM     13  C   UNL     1      96.522  96.268  80.009  1.00  0.00     0.157 A 
BRANCH  11  14
ATOM     14  O   UNL     1      95.072  94.766  81.181  1.00  0.00    -0.493 OA
ATOM     15  C   UNL     1      95.644  93.654  81.868  1.00  0.00     0.278 C 
ENDBRANCH  11  14
BRANCH  13  16
ATOM     16  O   UNL     1      96.756  96.977  81.148  1.00  0.00    -0.504 OA
ATOM     17  H   UNL     1      97.711  96.976  81.331  1.00  0.00     0.293 HD
ENDBRANCH  13  16
ENDBRANCH   7   8
ENDBRANCH   5   7
ENDBRANCH   2   3
ENDBRANCH   1   2
BRANCH   1  18
ATOM     18  C   UNL     1      90.072  93.679  76.629  1.00  0.00     0.001 C 
BRANCH  18  19
ATOM     19  C   UNL     1      89.650  92.478  77.482  1.00  0.00     0.000 C 
BRANCH  19  20
ATOM     20  C   UNL     1      89.353  91.224  76.656  1.00  0.00     0.000 C 
BRANCH  20  21
ATOM     21  C   UNL     1      90.594  90.366  76.380  1.00  0.00     0.000 C 
BRANCH  21  22
ATOM     22  C   UNL     1      90.970  90.303  74.896  1.00  0.00     0.003 C 
BRANCH  22  23
ATOM     23  C   UNL     1      90.268  89.162  74.133  1.00  0.00    -0.017 C 
ATOM     24  C   UNL     1      88.872  89.614  73.698  1.00  0.00     0.007 C 
ATOM     25  C   UNL     1      90.159  87.882  74.963  1.00  0.00     0.007 C 
ENDBRANCH  22  23
ENDBRANCH  21  22
ENDBRANCH  20  21
ENDBRANCH  19  20
ENDBRANCH  18  19
ENDBRANCH   1  18
TORSDOF 12
ENDMDL
MODEL 3
REMARK VINA RESULT:    -5.939      4.823      7.907
REMARK INTER + INTRA:         -11.656
REMARK INTER:                 -10.700
REMARK INTRA:                  -0.957
REMARK UNBOUND:                -1.725
REMARK SMILES COc1cc(CNC(=O)CCCCCCCC(C)C)ccc1O
REMARK SMILES IDX 11 1 10 2 8 3 9 4 7 5 6 7 5 8 4 9 20 10 3 11 21 12 22 13
REMARK SMILES IDX 2 14 1 15 23 16 12 18 13 19 14 20 15 21 16 22 17 23 18 24
REMARK SMILES IDX 19 25
REMARK H PARENT 7 6 23 17
REMARK Flexibility Score: inf
ROOT
ATOM      1  C   UNL     1      92.522  93.519  76.916  1.00  0.00     0.010 C 
ENDROOT
BRANCH   1   2
ATOM      2  C   UNL     1      93.330  93.633  75.626  1.00  0.00     0.100 C 
BRANCH   2   3
ATOM      3  C   UNL     1      94.767  94.060  75.879  1.00  0.00     0.220 C 
ATOM      4  O   UNL     1      95.633  94.058  75.009  1.00  0.00    -0.275 OA
ATOM      5  N   UNL     1      94.962  94.435  77.200  1.00  0.00    -0.352 N 
ATOM      6  H   UNL     1      94.184  94.394  77.853  1.00  0.00     0.163 HD
BRANCH   5   7
ATOM      7  C   UNL     1      96.240  94.876  77.708  1.00  0.00     0.151 C 
BRANCH   7   8
ATOM      8  C   UNL     1      96.166  95.260  79.157  1.00  0.00    -0.025 A 
ATOM      9  C   UNL     1      97.010  96.247  79.652  1.00  0.00     0.056 A 
ATOM     10  C   UNL     1      95.254  94.623  79.990  1.00  0.00     0.009 A 
ATOM     11  C   UNL     1      96.940  96.603  80.999  1.00  0.00     0.160 A 
ATOM     12  C   UNL     1      95.185  94.979  81.338  1.00  0.00     0.050 A 
ATOM     13  C   UNL     1      96.028  95.969  81.842  1.00  0.00     0.157 A 
BRANCH  11  14
ATOM     14  O   UNL     1      97.770  97.571  81.479  1.00  0.00    -0.493 OA
ATOM     15  C   UNL     1      97.640  98.875  80.914  1.00  0.00     0.278 C 
ENDBRANCH  11  14
BRANCH  13  16
ATOM     16  O   UNL     1      95.951  96.308  83.159  1.00  0.00    -0.504 OA
ATOM     17  H   UNL     1      95.088  96.723  83.329  1.00  0.00     0.293 HD
ENDBRANCH  13  16
ENDBRANCH   7   8
ENDBRANCH   5   7
ENDBRANCH   2   3
ENDBRANCH   1   2
BRANCH   1  18
ATOM     18  C   UNL     1      91.011  93.655  76.704  1.00  0.00     0.001 C 
BRANCH  18  19
ATOM     19  C   UNL     1      90.152  92.539  77.308  1.00  0.00     0.000 C 
BRANCH  19  20
ATOM     20  C   UNL     1      89.626  91.549  76.265  1.00  0.00     0.000 C 
BRANCH  20  21
ATOM     21  C   UNL     1      89.891  91.987  74.820  1.00  0.00     0.000 C 
BRANCH  21  22
ATOM     22  C   UNL     1      89.068  91.208  73.790  1.00  0.00     0.003 C 
BRANCH  22  23
ATOM     23  C   UNL     1      89.069  91.852  72.389  1.00  0.00    -0.017 C 
ATOM     24  C   UNL     1      89.948  91.030  71.443  1.00  0.00     0.007 C 
ATOM     25  C   UNL     1      89.553  93.302  72.411  1.00  0.00     0.007 C 
ENDBRANCH  22  23
ENDBRANCH  21  22
ENDBRANCH  20  21
ENDBRANCH  19  20
ENDBRANCH  18  19
ENDBRANCH   1  18
TORSDOF 12
ENDMDL
MODEL 4
REMARK VINA RESULT:    -5.773      4.484      6.808
REMARK INTER + INTRA:         -11.380
REMARK INTER:                  -9.968
REMARK INTRA:                  -1.412
REMARK UNBOUND:                -1.725
REMARK SMILES COc1cc(CNC(=O)CCCCCCCC(C)C)ccc1O
REMARK SMILES IDX 11 1 10 2 8 3 9 4 7 5 6 7 5 8 4 9 20 10 3 11 21 12 22 13
REMARK SMILES IDX 2 14 1 15 23 16 12 18 13 19 14 20 15 21 16 22 17 23 18 24
REMARK SMILES IDX 19 25
REMARK H PARENT 7 6 23 17
REMARK Flexibility Score: inf
ROOT
ATOM      1  C   UNL     1      95.238  94.927  78.637  1.00  0.00     0.010 C 
ENDROOT
BRANCH   1   2
ATOM      2  C   UNL     1      96.101  94.814  77.382  1.00  0.00     0.100 C 
BRANCH   2   3
ATOM      3  C   UNL     1      95.354  94.178  76.221  1.00  0.00     0.220 C 
ATOM      4  O   UNL     1      95.917  93.647  75.268  1.00  0.00    -0.275 OA
ATOM      5  N   UNL     1      93.981  94.285  76.379  1.00  0.00    -0.352 N 
ATOM      6  H   UNL     1      93.605  94.753  77.199  1.00  0.00     0.163 HD
BRANCH   5   7
ATOM      7  C   UNL     1      93.039  93.768  75.413  1.00  0.00     0.151 C 
BRANCH   7   8
ATOM      8  C   UNL     1      92.127  92.737  76.013  1.00  0.00    -0.025 A 
ATOM      9  C   UNL     1      91.775  91.616  75.271  1.00  0.00     0.056 A 
ATOM     10  C   UNL     1      91.645  92.915  77.304  1.00  0.00     0.009 A 
ATOM     11  C   UNL     1      90.928  90.658  75.829  1.00  0.00     0.160 A 
ATOM     12  C   UNL     1      90.797  91.957  77.861  1.00  0.00     0.050 A 
ATOM     13  C   UNL     1      90.438  90.829  77.124  1.00  0.00     0.157 A 
BRANCH  11  14
ATOM     14  O   UNL     1      90.584  89.561  75.098  1.00  0.00    -0.493 OA
ATOM     15  C   UNL     1      89.991  89.792  73.821  1.00  0.00     0.278 C 
ENDBRANCH  11  14
BRANCH  13  16
ATOM     16  O   UNL     1      89.611  89.900  77.679  1.00  0.00    -0.504 OA
ATOM     17  H   UNL     1      89.729  89.908  78.645  1.00  0.00     0.293 HD
ENDBRANCH  13  16
ENDBRANCH   7   8
ENDBRANCH   5   7
ENDBRANCH   2   3
ENDBRANCH   1   2
BRANCH   1  18
ATOM     18  C   UNL     1      95.642  93.951  79.745  1.00  0.00     0.001 C 
BRANCH  18  19
ATOM     19  C   UNL     1      95.702  94.539  81.159  1.00  0.00     0.000 C 
BRANCH  19  20
ATOM     20  C   UNL     1      97.117  94.933  81.590  1.00  0.00     0.000 C 
BRANCH  20  21
ATOM     21  C   UNL     1      97.218  96.370  82.114  1.00  0.00     0.000 C 
BRANCH  21  22
ATOM     22  C   UNL     1      96.160  97.307  81.520  1.00  0.00     0.003 C 
BRANCH  22  23
ATOM     23  C   UNL     1      96.758  98.471  80.706  1.00  0.00    -0.017 C 
ATOM     24  C   UNL     1      97.155  97.978  79.313  1.00  0.00     0.007 C 
ATOM     25  C   UNL     1      97.970  99.104  81.392  1.00  0.00     0.007 C 
ENDBRANCH  22  23
ENDBRANCH  21  22
ENDBRANCH  20  21
ENDBRANCH  19  20
ENDBRANCH  18  19
ENDBRANCH   1  18
TORSDOF 12
ENDMDL
MODEL 5
REMARK VINA RESULT:    -5.308     24.846     27.263
REMARK INTER + INTRA:         -10.600
REMARK INTER:                  -9.488
REMARK INTRA:                  -1.112
REMARK UNBOUND:                -1.725
REMARK SMILES COc1cc(CNC(=O)CCCCCCCC(C)C)ccc1O
REMARK SMILES IDX 11 1 10 2 8 3 9 4 7 5 6 7 5 8 4 9 20 10 3 11 21 12 22 13
REMARK SMILES IDX 2 14 1 15 23 16 12 18 13 19 14 20 15 21 16 22 17 23 18 24
REMARK SMILES IDX 19 25
REMARK H PARENT 7 6 23 17
REMARK Flexibility Score: inf
ROOT
ATOM      1  C   UNL     1      82.290  65.779  75.125  1.00  0.00     0.010 C 
ENDROOT
BRANCH   1   2
ATOM      2  C   UNL     1      82.363  64.849  76.335  1.00  0.00     0.100 C 
BRANCH   2   3
ATOM      3  C   UNL     1      83.794  64.556  76.754  1.00  0.00     0.220 C 
ATOM      4  O   UNL     1      84.773  65.019  76.178  1.00  0.00    -0.275 OA
ATOM      5  N   UNL     1      83.840  63.704  77.848  1.00  0.00    -0.352 N 
ATOM      6  H   UNL     1      82.973  63.361  78.254  1.00  0.00     0.163 HD
BRANCH   5   7
ATOM      7  C   UNL     1      85.079  63.260  78.443  1.00  0.00     0.151 C 
BRANCH   7   8
ATOM      8  C   UNL     1      85.464  64.095  79.629  1.00  0.00    -0.025 A 
ATOM      9  C   UNL     1      86.210  65.252  79.442  1.00  0.00     0.056 A 
ATOM     10  C   UNL     1      85.071  63.702  80.903  1.00  0.00     0.009 A 
ATOM     11  C   UNL     1      86.568  66.028  80.545  1.00  0.00     0.160 A 
ATOM     12  C   UNL     1      85.430  64.478  82.006  1.00  0.00     0.050 A 
ATOM     13  C   UNL     1      86.178  65.641  81.827  1.00  0.00     0.157 A 
BRANCH  11  14
ATOM     14  O   UNL     1      87.300  67.162  80.357  1.00  0.00    -0.493 OA
ATOM     15  C   UNL     1      88.551  67.022  79.684  1.00  0.00     0.278 C 
ENDBRANCH  11  14
BRANCH  13  16
ATOM     16  O   UNL     1      86.521  66.391  82.911  1.00  0.00    -0.504 OA
ATOM     17  H   UNL     1      85.992  67.207  82.912  1.00  0.00     0.293 HD
ENDBRANCH  13  16
ENDBRANCH   7   8
ENDBRANCH   5   7
ENDBRANCH   2   3
ENDBRANCH   1   2
BRANCH   1  18
ATOM     18  C   UNL     1      80.878  66.297  74.838  1.00  0.00     0.001 C 
BRANCH  18  19
ATOM     19  C   UNL     1      80.028  65.428  73.905  1.00  0.00     0.000 C 
BRANCH  19  20
ATOM     20  C   UNL     1      80.667  65.212  72.530  1.00  0.00     0.000 C 
BRANCH  20  21
ATOM     21  C   UNL     1      80.146  66.175  71.458  1.00  0.00     0.000 C 
BRANCH  21  22
ATOM     22  C   UNL     1      80.914  67.500  71.408  1.00  0.00     0.003 C 
BRANCH  22  23
ATOM     23  C   UNL     1      82.431  67.340  71.630  1.00  0.00    -0.017 C 
ATOM     24  C   UNL     1      83.056  68.702  71.939  1.00  0.00     0.007 C 
ATOM     25  C   UNL     1      83.136  66.711  70.428  1.00  0.00     0.007 C 
ENDBRANCH  22  23
ENDBRANCH  21  22
ENDBRANCH  20  21
ENDBRANCH  19  20
ENDBRANCH  18  19
ENDBRANCH   1  18
TORSDOF 12
ENDMDL
MODEL 6
REMARK VINA RESULT:    -5.153     24.562     27.558
REMARK INTER + INTRA:         -10.342
REMARK INTER:                  -8.046
REMARK INTRA:                  -2.296
REMARK UNBOUND:                -1.725
REMARK SMILES COc1cc(CNC(=O)CCCCCCCC(C)C)ccc1O
REMARK SMILES IDX 11 1 10 2 8 3 9 4 7 5 6 7 5 8 4 9 20 10 3 11 21 12 22 13
REMARK SMILES IDX 2 14 1 15 23 16 12 18 13 19 14 20 15 21 16 22 17 23 18 24
REMARK SMILES IDX 19 25
REMARK H PARENT 7 6 23 17
REMARK Flexibility Score: inf
ROOT
ATOM      1  C   UNL     1      85.462  65.048  76.589  1.00  0.00     0.010 C 
ENDROOT
BRANCH   1   2
ATOM      2  C   UNL     1      85.415  66.408  77.283  1.00  0.00     0.100 C 
BRANCH   2   3
ATOM      3  C   UNL     1      84.836  67.493  76.390  1.00  0.00     0.220 C 
ATOM      4  O   UNL     1      84.281  68.498  76.826  1.00  0.00    -0.275 OA
ATOM      5  N   UNL     1      85.009  67.195  75.047  1.00  0.00    -0.352 N 
ATOM      6  H   UNL     1      85.473  66.330  74.780  1.00  0.00     0.163 HD
BRANCH   5   7
ATOM      7  C   UNL     1      84.542  68.058  73.986  1.00  0.00     0.151 C 
BRANCH   7   8
ATOM      8  C   UNL     1      84.179  67.284  72.752  1.00  0.00    -0.025 A 
ATOM      9  C   UNL     1      84.667  65.994  72.581  1.00  0.00     0.056 A 
ATOM     10  C   UNL     1      83.359  67.866  71.793  1.00  0.00     0.009 A 
ATOM     11  C   UNL     1      84.330  65.276  71.434  1.00  0.00     0.160 A 
ATOM     12  C   UNL     1      83.022  67.147  70.646  1.00  0.00     0.050 A 
ATOM     13  C   UNL     1      83.508  65.852  70.465  1.00  0.00     0.157 A 
BRANCH  11  14
ATOM     14  O   UNL     1      84.811  64.011  71.269  1.00  0.00    -0.493 OA
ATOM     15  C   UNL     1      86.156  63.885  70.810  1.00  0.00     0.278 C 
ENDBRANCH  11  14
BRANCH  13  16
ATOM     16  O   UNL     1      83.171  65.161  69.342  1.00  0.00    -0.504 OA
ATOM     17  H   UNL     1      83.558  64.270  69.390  1.00  0.00     0.293 HD
ENDBRANCH  13  16
ENDBRANCH   7   8
ENDBRANCH   5   7
ENDBRANCH   2   3
ENDBRANCH   1   2
BRANCH   1  18
ATOM     18  C   UNL     1      84.315  64.117  76.994  1.00  0.00     0.001 C 
BRANCH  18  19
ATOM     19  C   UNL     1      83.064  64.181  76.111  1.00  0.00     0.000 C 
BRANCH  19  20
ATOM     20  C   UNL     1      81.938  65.023  76.717  1.00  0.00     0.000 C 
BRANCH  20  21
ATOM     21  C   UNL     1      81.386  66.083  75.758  1.00  0.00     0.000 C 
BRANCH  21  22
ATOM     22  C   UNL     1      81.501  65.686  74.282  1.00  0.00     0.003 C 
BRANCH  22  23
ATOM     23  C   UNL     1      80.157  65.272  73.651  1.00  0.00    -0.017 C 
ATOM     24  C   UNL     1      79.918  63.778  73.876  1.00  0.00     0.007 C 
ATOM     25  C   UNL     1      80.092  65.584  72.155  1.00  0.00     0.007 C 
ENDBRANCH  22  23
ENDBRANCH  21  22
ENDBRANCH  20  21
ENDBRANCH  19  20
ENDBRANCH  18  19
ENDBRANCH   1  18
TORSDOF 12
ENDMDL
MODEL 7
REMARK VINA RESULT:    -5.097     22.949     25.877
REMARK INTER + INTRA:         -10.248
REMARK INTER:                  -8.328
REMARK INTRA:                  -1.920
REMARK UNBOUND:                -1.725
REMARK SMILES COc1cc(CNC(=O)CCCCCCCC(C)C)ccc1O
REMARK SMILES IDX 11 1 10 2 8 3 9 4 7 5 6 7 5 8 4 9 20 10 3 11 21 12 22 13
REMARK SMILES IDX 2 14 1 15 23 16 12 18 13 19 14 20 15 21 16 22 17 23 18 24
REMARK SMILES IDX 19 25
REMARK H PARENT 7 6 23 17
REMARK Flexibility Score: inf
ROOT
ATOM      1  C   UNL     1      81.073  66.035  75.346  1.00  0.00     0.010 C 
ENDROOT
BRANCH   1   2
ATOM      2  C   UNL     1      81.738  64.661  75.285  1.00  0.00     0.100 C 
BRANCH   2   3
ATOM      3  C   UNL     1      83.245  64.739  75.464  1.00  0.00     0.220 C 
ATOM      4  O   UNL     1      84.044  64.304  74.639  1.00  0.00    -0.275 OA
ATOM      5  N   UNL     1      83.585  65.347  76.663  1.00  0.00    -0.352 N 
ATOM      6  H   UNL     1      82.852  65.667  77.290  1.00  0.00     0.163 HD
BRANCH   5   7
ATOM      7  C   UNL     1      84.955  65.540  77.082  1.00  0.00     0.151 C 
BRANCH   7   8
ATOM      8  C   UNL     1      85.490  66.875  76.655  1.00  0.00    -0.025 A 
ATOM      9  C   UNL     1      86.624  66.937  75.854  1.00  0.00     0.056 A 
ATOM     10  C   UNL     1      84.846  68.036  77.065  1.00  0.00     0.009 A 
ATOM     11  C   UNL     1      87.122  68.178  75.457  1.00  0.00     0.160 A 
ATOM     12  C   UNL     1      85.345  69.278  76.668  1.00  0.00     0.050 A 
ATOM     13  C   UNL     1      86.482  69.349  75.864  1.00  0.00     0.157 A 
BRANCH  11  14
ATOM     14  O   UNL     1      88.234  68.235  74.672  1.00  0.00    -0.493 OA
ATOM     15  C   UNL     1      88.566  67.060  73.933  1.00  0.00     0.278 C 
ENDBRANCH  11  14
BRANCH  13  16
ATOM     16  O   UNL     1      86.958  70.567  75.483  1.00  0.00    -0.504 OA
ATOM     17  H   UNL     1      87.910  70.610  75.678  1.00  0.00     0.293 HD
ENDBRANCH  13  16
ENDBRANCH   7   8
ENDBRANCH   5   7
ENDBRANCH   2   3
ENDBRANCH   1   2
BRANCH   1  18
ATOM     18  C   UNL     1      80.124  66.306  74.175  1.00  0.00     0.001 C 
BRANCH  18  19
ATOM     19  C   UNL     1      80.152  65.273  73.044  1.00  0.00     0.000 C 
BRANCH  19  20
ATOM     20  C   UNL     1      80.206  65.903  71.650  1.00  0.00     0.000 C 
BRANCH  20  21
ATOM     21  C   UNL     1      80.516  67.404  71.670  1.00  0.00     0.000 C 
BRANCH  21  22
ATOM     22  C   UNL     1      81.956  67.731  71.259  1.00  0.00     0.003 C 
BRANCH  22  23
ATOM     23  C   UNL     1      82.702  68.611  72.281  1.00  0.00    -0.017 C 
ATOM     24  C   UNL     1      83.573  69.632  71.546  1.00  0.00     0.007 C 
ATOM     25  C   UNL     1      83.568  67.791  73.239  1.00  0.00     0.007 C 
ENDBRANCH  22  23
ENDBRANCH  21  22
ENDBRANCH  20  21
ENDBRANCH  19  20
ENDBRANCH  18  19
ENDBRANCH   1  18
TORSDOF 12
ENDMDL
MODEL 8
REMARK VINA RESULT:    -5.090     11.806     14.856
REMARK INTER + INTRA:         -10.237
REMARK INTER:                  -8.540
REMARK INTRA:                  -1.697
REMARK UNBOUND:                -1.725
REMARK SMILES COc1cc(CNC(=O)CCCCCCCC(C)C)ccc1O
REMARK SMILES IDX 11 1 10 2 8 3 9 4 7 5 6 7 5 8 4 9 20 10 3 11 21 12 22 13
REMARK SMILES IDX 2 14 1 15 23 16 12 18 13 19 14 20 15 21 16 22 17 23 18 24
REMARK SMILES IDX 19 25
REMARK H PARENT 7 6 23 17
REMARK Flexibility Score: inf
ROOT
ATOM      1  C   UNL     1      97.648  79.255  82.264  1.00  0.00     0.010 C 
ENDROOT
BRANCH   1   2
ATOM      2  C   UNL     1      99.127  79.389  82.621  1.00  0.00     0.100 C 
BRANCH   2   3
ATOM      3  C   UNL     1      99.748  80.652  82.048  1.00  0.00     0.220 C 
ATOM      4  O   UNL     1     100.844  81.082  82.396  1.00  0.00    -0.275 OA
ATOM      5  N   UNL     1      98.921  81.244  81.104  1.00  0.00    -0.352 N 
ATOM      6  H   UNL     1      98.023  80.820  80.888  1.00  0.00     0.163 HD
BRANCH   5   7
ATOM      7  C   UNL     1      99.270  82.462  80.411  1.00  0.00     0.151 C 
BRANCH   7   8
ATOM      8  C   UNL     1      98.562  82.581  79.093  1.00  0.00    -0.025 A 
ATOM      9  C   UNL     1      99.300  82.761  77.929  1.00  0.00     0.056 A 
ATOM     10  C   UNL     1      97.175  82.509  79.050  1.00  0.00     0.009 A 
ATOM     11  C   UNL     1      98.641  82.871  76.705  1.00  0.00     0.160 A 
ATOM     12  C   UNL     1      96.516  82.620  77.824  1.00  0.00     0.050 A 
ATOM     13  C   UNL     1      97.249  82.801  76.652  1.00  0.00     0.157 A 
BRANCH  11  14
ATOM     14  O   UNL     1      99.368  83.049  75.566  1.00  0.00    -0.493 OA
ATOM     15  C   UNL     1     100.783  82.897  75.671  1.00  0.00     0.278 C 
ENDBRANCH  11  14
BRANCH  13  16
ATOM     16  O   UNL     1      96.595  82.907  75.462  1.00  0.00    -0.504 OA
ATOM     17  H   UNL     1      96.941  82.235  74.850  1.00  0.00     0.293 HD
ENDBRANCH  13  16
ENDBRANCH   7   8
ENDBRANCH   5   7
ENDBRANCH   2   3
ENDBRANCH   1   2
BRANCH   1  18
ATOM     18  C   UNL     1      96.746  79.023  83.479  1.00  0.00     0.001 C 
BRANCH  18  19
ATOM     19  C   UNL     1      95.934  80.237  83.944  1.00  0.00     0.000 C 
BRANCH  19  20
ATOM     20  C   UNL     1      96.206  81.498  83.121  1.00  0.00     0.000 C 
BRANCH  20  21
ATOM     21  C   UNL     1      96.401  82.755  83.976  1.00  0.00     0.000 C 
BRANCH  21  22
ATOM     22  C   UNL     1      97.833  83.300  83.935  1.00  0.00     0.003 C 
BRANCH  22  23
ATOM     23  C   UNL     1      98.561  83.218  85.291  1.00  0.00    -0.017 C 
ATOM     24  C   UNL     1      99.142  81.815  85.481  1.00  0.00     0.007 C 
ATOM     25  C   UNL     1      97.647  83.559  86.468  1.00  0.00     0.007 C 
ENDBRANCH  22  23
ENDBRANCH  21  22
ENDBRANCH  20  21
ENDBRANCH  19  20
ENDBRANCH  18  19
ENDBRANCH   1  18
TORSDOF 12
ENDMDL
MODEL 9
REMARK VINA RESULT:    -5.078     21.874     25.626
REMARK INTER + INTRA:         -10.216
REMARK INTER:                  -8.734
REMARK INTRA:                  -1.482
REMARK UNBOUND:                -1.725
REMARK SMILES COc1cc(CNC(=O)CCCCCCCC(C)C)ccc1O
REMARK SMILES IDX 11 1 10 2 8 3 9 4 7 5 6 7 5 8 4 9 20 10 3 11 21 12 22 13
REMARK SMILES IDX 2 14 1 15 23 16 12 18 13 19 14 20 15 21 16 22 17 23 18 24
REMARK SMILES IDX 19 25
REMARK H PARENT 7 6 23 17
REMARK Flexibility Score: inf
ROOT
ATOM      1  C   UNL     1      82.348  65.571  70.814  1.00  0.00     0.010 C 
ENDROOT
BRANCH   1   2
ATOM      2  C   UNL     1      83.085  66.800  70.285  1.00  0.00     0.100 C 
BRANCH   2   3
ATOM      3  C   UNL     1      84.150  67.295  71.248  1.00  0.00     0.220 C 
ATOM      4  O   UNL     1      84.796  66.550  71.981  1.00  0.00    -0.275 OA
ATOM      5  N   UNL     1      84.285  68.675  71.194  1.00  0.00    -0.352 N 
ATOM      6  H   UNL     1      83.697  69.212  70.562  1.00  0.00     0.163 HD
BRANCH   5   7
ATOM      7  C   UNL     1      85.224  69.403  72.016  1.00  0.00     0.151 C 
BRANCH   7   8
ATOM      8  C   UNL     1      86.405  69.885  71.225  1.00  0.00    -0.025 A 
ATOM      9  C   UNL     1      86.270  70.123  69.862  1.00  0.00     0.056 A 
ATOM     10  C   UNL     1      87.622  70.089  71.864  1.00  0.00     0.009 A 
ATOM     11  C   UNL     1      87.368  70.571  69.128  1.00  0.00     0.160 A 
ATOM     12  C   UNL     1      88.721  70.536  71.128  1.00  0.00     0.050 A 
ATOM     13  C   UNL     1      88.594  70.777  69.761  1.00  0.00     0.157 A 
BRANCH  11  14
ATOM     14  O   UNL     1      87.231  70.803  67.792  1.00  0.00    -0.493 OA
ATOM     15  C   UNL     1      86.599  72.023  67.408  1.00  0.00     0.278 C 
ENDBRANCH  11  14
BRANCH  13  16
ATOM     16  O   UNL     1      89.673  71.215  69.054  1.00  0.00    -0.504 OA
ATOM     17  H   UNL     1      90.479  70.823  69.432  1.00  0.00     0.293 HD
ENDBRANCH  13  16
ENDBRANCH   7   8
ENDBRANCH   5   7
ENDBRANCH   2   3
ENDBRANCH   1   2
BRANCH   1  18
ATOM     18  C   UNL     1      80.869  65.828  71.113  1.00  0.00     0.001 C 
BRANCH  18  19
ATOM     19  C   UNL     1      80.519  67.251  71.562  1.00  0.00     0.000 C 
BRANCH  19  20
ATOM     20  C   UNL     1      80.824  67.511  73.040  1.00  0.00     0.000 C 
BRANCH  20  21
ATOM     21  C   UNL     1      80.147  66.514  73.987  1.00  0.00     0.000 C 
BRANCH  21  22
ATOM     22  C   UNL     1      81.113  65.885  74.996  1.00  0.00     0.003 C 
BRANCH  22  23
ATOM     23  C   UNL     1      81.268  64.361  74.830  1.00  0.00    -0.017 C 
ATOM     24  C   UNL     1      82.621  64.045  74.186  1.00  0.00     0.007 C 
ATOM     25  C   UNL     1      80.145  63.745  73.994  1.00  0.00     0.007 C 
ENDBRANCH  22  23
ENDBRANCH  21  22
ENDBRANCH  20  21
ENDBRANCH  19  20
ENDBRANCH  18  19
ENDBRANCH   1  18
TORSDOF 12
ENDMDL
MODEL 10
REMARK VINA RESULT:    -5.072     25.301     27.222
REMARK INTER + INTRA:         -10.206
REMARK INTER:                  -7.708
REMARK INTRA:                  -2.498
REMARK UNBOUND:                -1.725
REMARK SMILES COc1cc(CNC(=O)CCCCCCCC(C)C)ccc1O
REMARK SMILES IDX 11 1 10 2 8 3 9 4 7 5 6 7 5 8 4 9 20 10 3 11 21 12 22 13
REMARK SMILES IDX 2 14 1 15 23 16 12 18 13 19 14 20 15 21 16 22 17 23 18 24
REMARK SMILES IDX 19 25
REMARK H PARENT 7 6 23 17
REMARK Flexibility Score: inf
ROOT
ATOM      1  C   UNL     1      81.675  67.867  71.481  1.00  0.00     0.010 C 
ENDROOT
BRANCH   1   2
ATOM      2  C   UNL     1      82.949  67.030  71.384  1.00  0.00     0.100 C 
BRANCH   2   3
ATOM      3  C   UNL     1      83.974  67.413  72.438  1.00  0.00     0.220 C 
ATOM      4  O   UNL     1      84.045  68.534  72.933  1.00  0.00    -0.275 OA
ATOM      5  N   UNL     1      84.805  66.347  72.750  1.00  0.00    -0.352 N 
ATOM      6  H   UNL     1      84.678  65.456  72.279  1.00  0.00     0.163 HD
BRANCH   5   7
ATOM      7  C   UNL     1      85.874  66.445  73.719  1.00  0.00     0.151 C 
BRANCH   7   8
ATOM      8  C   UNL     1      85.655  65.531  74.889  1.00  0.00    -0.025 A 
ATOM      9  C   UNL     1      85.685  66.048  76.179  1.00  0.00     0.056 A 
ATOM     10  C   UNL     1      85.426  64.178  74.671  1.00  0.00     0.009 A 
ATOM     11  C   UNL     1      85.482  65.198  77.267  1.00  0.00     0.160 A 
ATOM     12  C   UNL     1      85.224  63.329  75.760  1.00  0.00     0.050 A 
ATOM     13  C   UNL     1      85.252  63.838  77.058  1.00  0.00     0.157 A 
BRANCH  11  14
ATOM     14  O   UNL     1      85.513  65.708  78.530  1.00  0.00    -0.493 OA
ATOM     15  C   UNL     1      86.507  66.693  78.807  1.00  0.00     0.278 C 
ENDBRANCH  11  14
BRANCH  13  16
ATOM     16  O   UNL     1      85.052  62.999  78.111  1.00  0.00    -0.504 OA
ATOM     17  H   UNL     1      85.893  62.881  78.586  1.00  0.00     0.293 HD
ENDBRANCH  13  16
ENDBRANCH   7   8
ENDBRANCH   5   7
ENDBRANCH   2   3
ENDBRANCH   1   2
BRANCH   1  18
ATOM     18  C   UNL     1      80.457  67.070  71.957  1.00  0.00     0.001 C 
BRANCH  18  19
ATOM     19  C   UNL     1      80.597  65.545  71.901  1.00  0.00     0.000 C 
BRANCH  19  20
ATOM     20  C   UNL     1      79.827  64.826  73.011  1.00  0.00     0.000 C 
BRANCH  20  21
ATOM     21  C   UNL     1      80.698  63.876  73.841  1.00  0.00     0.000 C 
BRANCH  21  22
ATOM     22  C   UNL     1      81.893  64.572  74.503  1.00  0.00     0.003 C 
BRANCH  22  23
ATOM     23  C   UNL     1      81.495  65.503  75.665  1.00  0.00    -0.017 C 
ATOM     24  C   UNL     1      82.216  66.845  75.522  1.00  0.00     0.007 C 
ATOM     25  C   UNL     1      81.805  64.896  77.034  1.00  0.00     0.007 C 
ENDBRANCH  22  23
ENDBRANCH  21  22
ENDBRANCH  20  21
ENDBRANCH  19  20
ENDBRANCH  18  19
ENDBRANCH   1  18
TORSDOF 12
ENDMDL
