MODEL 1
REMARK VINA RESULT:    -6.300      0.000      0.000
REMARK INTER + INTRA:         -10.794
REMARK INTER:                 -10.168
REMARK INTRA:                  -0.626
REMARK UNBOUND:                -0.626
REMARK SMILES CCCCCCCCC(=O)NCc1ccc(O)c(OC)c1
REMARK SMILES IDX 7 1 6 2 5 3 4 4 3 5 2 6 1 7 8 8 9 9 10 10 11 11 12 13 13 14
REMARK SMILES IDX 21 15 14 16 18 17 15 18 16 19 19 20 20 21 17 22
REMARK H PARENT 11 12 17 23
REMARK Flexibility Score: inf
ROOT
ATOM      1  C   UNL     1      96.137  81.296  82.900  1.00  0.00     0.010 C 
ENDROOT
BRANCH   1   2
ATOM      2  C   UNL     1      96.934  80.985  81.600  1.00  0.00     0.001 C 
BRANCH   2   3
ATOM      3  C   UNL     1      97.500  82.273  80.934  1.00  0.00     0.000 C 
BRANCH   3   4
ATOM      4  C   UNL     1      98.541  81.994  79.813  1.00  0.00    -0.000 C 
BRANCH   4   5
ATOM      5  C   UNL     1      98.157  82.655  78.459  1.00  0.00    -0.000 C 
BRANCH   5   6
ATOM      6  C   UNL     1      96.837  83.467  78.545  1.00  0.00    -0.003 C 
ATOM      7  C   UNL     1      96.403  84.054  77.184  1.00  0.00     0.004 C 
ENDBRANCH   5   6
ENDBRANCH   4   5
ENDBRANCH   3   4
ENDBRANCH   2   3
ENDBRANCH   1   2
BRANCH   1   8
ATOM      8  C   UNL     1      95.938  82.814  83.168  1.00  0.00     0.100 C 
BRANCH   8   9
ATOM      9  C   UNL     1      94.865  83.050  84.163  1.00  0.00     0.220 C 
ATOM     10  O   UNL     1      95.080  83.871  85.087  1.00  0.00    -0.275 OA
ATOM     11  N   UNL     1      93.664  82.409  84.054  1.00  0.00    -0.352 N 
ATOM     12  H   UNL     1      93.629  81.709  83.328  1.00  0.00     0.163 HD
BRANCH  11  13
ATOM     13  C   UNL     1      92.509  82.655  84.862  1.00  0.00     0.151 C 
BRANCH  13  14
ATOM     14  C   UNL     1      91.398  81.694  84.632  1.00  0.00    -0.025 A 
ATOM     15  C   UNL     1      90.054  82.138  84.661  1.00  0.00     0.056 A 
ATOM     16  C   UNL     1      91.660  80.326  84.385  1.00  0.00     0.009 A 
ATOM     17  C   UNL     1      88.988  81.238  84.426  1.00  0.00     0.160 A 
ATOM     18  C   UNL     1      90.604  79.427  84.150  1.00  0.00     0.050 A 
ATOM     19  C   UNL     1      89.270  79.876  84.177  1.00  0.00     0.157 A 
BRANCH  17  20
ATOM     20  O   UNL     1      87.685  81.662  84.497  1.00  0.00    -0.493 OA
ATOM     21  C   UNL     1      87.518  83.082  84.335  1.00  0.00     0.278 C 
ENDBRANCH  17  20
BRANCH  19  22
ATOM     22  O   UNL     1      88.257  78.995  83.976  1.00  0.00    -0.504 OA
ATOM     23  H   UNL     1      87.720  79.288  83.236  1.00  0.00     0.293 HD
ENDBRANCH  19  22
ENDBRANCH  13  14
ENDBRANCH  11  13
ENDBRANCH   8   9
ENDBRANCH   1   8
TORSDOF 11
ENDMDL
MODEL 2
REMARK VINA RESULT:    -6.248     13.483     17.524
REMARK INTER + INTRA:         -10.709
REMARK INTER:                  -9.897
REMARK INTRA:                  -0.812
REMARK UNBOUND:                -0.626
REMARK SMILES CCCCCCCCC(=O)NCc1ccc(O)c(OC)c1
REMARK SMILES IDX 7 1 6 2 5 3 4 4 3 5 2 6 1 7 8 8 9 9 10 10 11 11 12 13 13 14
REMARK SMILES IDX 21 15 14 16 18 17 15 18 16 19 19 20 20 21 17 22
REMARK H PARENT 11 12 17 23
REMARK Flexibility Score: inf
ROOT
ATOM      1  C   UNL     1      91.225  95.311  76.453  1.00  0.00     0.010 C 
ENDROOT
BRANCH   1   2
ATOM      2  C   UNL     1      91.703  94.498  75.216  1.00  0.00     0.001 C 
BRANCH   2   3
ATOM      3  C   UNL     1      90.905  93.172  75.038  1.00  0.00     0.000 C 
BRANCH   3   4
ATOM      4  C   UNL     1      90.030  92.798  76.267  1.00  0.00    -0.000 C 
BRANCH   4   5
ATOM      5  C   UNL     1      89.583  91.308  76.254  1.00  0.00    -0.000 C 
BRANCH   5   6
ATOM      6  C   UNL     1      89.789  90.636  74.870  1.00  0.00    -0.003 C 
ATOM      7  C   UNL     1      90.028  89.114  74.971  1.00  0.00     0.004 C 
ENDBRANCH   5   6
ENDBRANCH   4   5
ENDBRANCH   3   4
ENDBRANCH   2   3
ENDBRANCH   1   2
BRANCH   1   8
ATOM      8  C   UNL     1      92.134  95.149  77.703  1.00  0.00     0.100 C 
BRANCH   8   9
ATOM      9  C   UNL     1      93.432  95.841  77.519  1.00  0.00     0.220 C 
ATOM     10  O   UNL     1      94.486  95.203  77.755  1.00  0.00    -0.275 OA
ATOM     11  N   UNL     1      93.474  97.132  77.076  1.00  0.00    -0.352 N 
ATOM     12  H   UNL     1      92.570  97.577  77.002  1.00  0.00     0.163 HD
BRANCH  11  13
ATOM     13  C   UNL     1      94.656  97.859  76.727  1.00  0.00     0.151 C 
BRANCH  13  14
ATOM     14  C   UNL     1      95.105  97.639  75.326  1.00  0.00    -0.025 A 
ATOM     15  C   UNL     1      96.333  98.182  74.878  1.00  0.00     0.056 A 
ATOM     16  C   UNL     1      94.318  96.891  74.420  1.00  0.00     0.009 A 
ATOM     17  C   UNL     1      96.780  97.966  73.554  1.00  0.00     0.160 A 
ATOM     18  C   UNL     1      94.758  96.672  73.102  1.00  0.00     0.050 A 
ATOM     19  C   UNL     1      95.982  97.213  72.664  1.00  0.00     0.157 A 
BRANCH  17  20
ATOM     20  O   UNL     1      97.950  98.529  73.109  1.00  0.00    -0.493 OA
ATOM     21  C   UNL     1      99.104  98.191  73.899  1.00  0.00     0.278 C 
ENDBRANCH  17  20
BRANCH  19  22
ATOM     22  O   UNL     1      96.386  97.020  71.382  1.00  0.00    -0.504 OA
ATOM     23  H   UNL     1      95.631  96.770  70.843  1.00  0.00     0.293 HD
ENDBRANCH  19  22
ENDBRANCH  13  14
ENDBRANCH  11  13
ENDBRANCH   8   9
ENDBRANCH   1   8
TORSDOF 11
ENDMDL
MODEL 3
REMARK VINA RESULT:    -6.244     12.882     16.168
REMARK INTER + INTRA:         -10.703
REMARK INTER:                 -10.066
REMARK INTRA:                  -0.636
REMARK UNBOUND:                -0.626
REMARK SMILES CCCCCCCCC(=O)NCc1ccc(O)c(OC)c1
REMARK SMILES IDX 7 1 6 2 5 3 4 4 3 5 2 6 1 7 8 8 9 9 10 10 11 11 12 13 13 14
REMARK SMILES IDX 21 15 14 16 18 17 15 18 16 19 19 20 20 21 17 22
REMARK H PARENT 11 12 17 23
REMARK Flexibility Score: inf
ROOT
ATOM      1  C   UNL     1      92.202  94.743  76.466  1.00  0.00     0.010 C 
ENDROOT
BRANCH   1   2
ATOM      2  C   UNL     1      90.800  95.302  76.090  1.00  0.00     0.001 C 
BRANCH   2   3
ATOM      3  C   UNL     1      89.830  94.184  75.606  1.00  0.00     0.000 C 
BRANCH   3   4
ATOM      4  C   UNL     1      90.531  92.824  75.328  1.00  0.00    -0.000 C 
BRANCH   4   5
ATOM      5  C   UNL     1      89.767  91.619  75.947  1.00  0.00    -0.000 C 
BRANCH   5   6
ATOM      6  C   UNL     1      89.292  90.601  74.876  1.00  0.00    -0.003 C 
ATOM      7  C   UNL     1      89.835  89.175  75.119  1.00  0.00     0.004 C 
ENDBRANCH   5   6
ENDBRANCH   4   5
ENDBRANCH   3   4
ENDBRANCH   2   3
ENDBRANCH   1   2
BRANCH   1   8
ATOM      8  C   UNL     1      92.522  94.816  77.986  1.00  0.00     0.100 C 
BRANCH   8   9
ATOM      9  C   UNL     1      93.899  95.311  78.225  1.00  0.00     0.220 C 
ATOM     10  O   UNL     1      94.818  94.470  78.368  1.00  0.00    -0.275 OA
ATOM     11  N   UNL     1      94.158  96.652  78.257  1.00  0.00    -0.352 N 
ATOM     12  H   UNL     1      93.337  97.237  78.218  1.00  0.00     0.163 HD
BRANCH  11  13
ATOM     13  C   UNL     1      95.455  97.250  78.337  1.00  0.00     0.151 C 
BRANCH  13  14
ATOM     14  C   UNL     1      95.867  97.609  79.721  1.00  0.00    -0.025 A 
ATOM     15  C   UNL     1      96.629  96.701  80.495  1.00  0.00     0.056 A 
ATOM     16  C   UNL     1      95.506  98.853  80.288  1.00  0.00     0.009 A 
ATOM     17  C   UNL     1      97.043  97.035  81.805  1.00  0.00     0.160 A 
ATOM     18  C   UNL     1      95.915  99.191  81.590  1.00  0.00     0.050 A 
ATOM     19  C   UNL     1      96.675  98.284  82.353  1.00  0.00     0.157 A 
BRANCH  17  20
ATOM     20  O   UNL     1      97.745  96.137  82.569  1.00  0.00    -0.493 OA
ATOM     21  C   UNL     1      99.094  95.912  82.122  1.00  0.00     0.278 C 
ENDBRANCH  17  20
BRANCH  19  22
ATOM     22  O   UNL     1      97.042  98.609  83.619  1.00  0.00    -0.504 OA
ATOM     23  H   UNL     1      97.319  97.817  84.086  1.00  0.00     0.293 HD
ENDBRANCH  19  22
ENDBRANCH  13  14
ENDBRANCH  11  13
ENDBRANCH   8   9
ENDBRANCH   1   8
TORSDOF 11
ENDMDL
MODEL 4
REMARK VINA RESULT:    -5.931      2.930      7.695
REMARK INTER + INTRA:         -10.198
REMARK INTER:                  -9.287
REMARK INTRA:                  -0.911
REMARK UNBOUND:                -0.626
REMARK SMILES CCCCCCCCC(=O)NCc1ccc(O)c(OC)c1
REMARK SMILES IDX 7 1 6 2 5 3 4 4 3 5 2 6 1 7 8 8 9 9 10 10 11 11 12 13 13 14
REMARK SMILES IDX 21 15 14 16 18 17 15 18 16 19 19 20 20 21 17 22
REMARK H PARENT 11 12 17 23
REMARK Flexibility Score: inf
ROOT
ATOM      1  C   UNL     1      92.804  82.582  86.038  1.00  0.00     0.010 C 
ENDROOT
BRANCH   1   2
ATOM      2  C   UNL     1      92.637  81.763  84.726  1.00  0.00     0.001 C 
BRANCH   2   3
ATOM      3  C   UNL     1      91.488  80.717  84.827  1.00  0.00     0.000 C 
BRANCH   3   4
ATOM      4  C   UNL     1      90.587  80.651  83.561  1.00  0.00    -0.000 C 
BRANCH   4   5
ATOM      5  C   UNL     1      89.072  80.579  83.906  1.00  0.00    -0.000 C 
BRANCH   5   6
ATOM      6  C   UNL     1      88.672  81.562  85.039  1.00  0.00    -0.003 C 
ATOM      7  C   UNL     1      88.040  82.867  84.506  1.00  0.00     0.004 C 
ENDBRANCH   5   6
ENDBRANCH   4   5
ENDBRANCH   3   4
ENDBRANCH   2   3
ENDBRANCH   1   2
BRANCH   1   8
ATOM      8  C   UNL     1      93.160  84.077  85.806  1.00  0.00     0.100 C 
BRANCH   8   9
ATOM      9  C   UNL     1      94.548  84.230  85.308  1.00  0.00     0.220 C 
ATOM     10  O   UNL     1      95.485  84.211  86.141  1.00  0.00    -0.275 OA
ATOM     11  N   UNL     1      94.794  84.360  83.971  1.00  0.00    -0.352 N 
ATOM     12  H   UNL     1      93.967  84.451  83.400  1.00  0.00     0.163 HD
BRANCH  11  13
ATOM     13  C   UNL     1      96.087  84.373  83.357  1.00  0.00     0.151 C 
BRANCH  13  14
ATOM     14  C   UNL     1      96.414  83.126  82.617  1.00  0.00    -0.025 A 
ATOM     15  C   UNL     1      96.905  83.192  81.291  1.00  0.00     0.056 A 
ATOM     16  C   UNL     1      96.238  81.857  83.217  1.00  0.00     0.009 A 
ATOM     17  C   UNL     1      97.237  82.015  80.581  1.00  0.00     0.160 A 
ATOM     18  C   UNL     1      96.567  80.683  82.516  1.00  0.00     0.050 A 
ATOM     19  C   UNL     1      97.058  80.756  81.198  1.00  0.00     0.157 A 
BRANCH  17  20
ATOM     20  O   UNL     1      97.673  82.079  79.282  1.00  0.00    -0.493 OA
ATOM     21  C   UNL     1      97.417  83.339  78.636  1.00  0.00     0.278 C 
ENDBRANCH  17  20
BRANCH  19  22
ATOM     22  O   UNL     1      97.346  79.616  80.521  1.00  0.00    -0.504 OA
ATOM     23  H   UNL     1      96.860  79.604  79.693  1.00  0.00     0.293 HD
ENDBRANCH  19  22
ENDBRANCH  13  14
ENDBRANCH  11  13
ENDBRANCH   8   9
ENDBRANCH   1   8
TORSDOF 11
ENDMDL
MODEL 5
REMARK VINA RESULT:    -5.929      0.767      2.117
REMARK INTER + INTRA:         -10.195
REMARK INTER:                  -9.584
REMARK INTRA:                  -0.611
REMARK UNBOUND:                -0.626
REMARK SMILES CCCCCCCCC(=O)NCc1ccc(O)c(OC)c1
REMARK SMILES IDX 7 1 6 2 5 3 4 4 3 5 2 6 1 7 8 8 9 9 10 10 11 11 12 13 13 14
REMARK SMILES IDX 21 15 14 16 18 17 15 18 16 19 19 20 20 21 17 22
REMARK H PARENT 11 12 17 23
REMARK Flexibility Score: inf
ROOT
ATOM      1  C   UNL     1      96.207  81.429  82.892  1.00  0.00     0.010 C 
ENDROOT
BRANCH   1   2
ATOM      2  C   UNL     1      97.032  81.198  81.592  1.00  0.00     0.001 C 
BRANCH   2   3
ATOM      3  C   UNL     1      97.905  82.432  81.221  1.00  0.00     0.000 C 
BRANCH   3   4
ATOM      4  C   UNL     1      98.858  82.186  80.017  1.00  0.00    -0.000 C 
BRANCH   4   5
ATOM      5  C   UNL     1      98.309  82.777  78.687  1.00  0.00    -0.000 C 
BRANCH   5   6
ATOM      6  C   UNL     1      96.920  83.448  78.861  1.00  0.00    -0.003 C 
ATOM      7  C   UNL     1      96.312  83.926  77.524  1.00  0.00     0.004 C 
ENDBRANCH   5   6
ENDBRANCH   4   5
ENDBRANCH   3   4
ENDBRANCH   2   3
ENDBRANCH   1   2
BRANCH   1   8
ATOM      8  C   UNL     1      95.844  82.919  83.149  1.00  0.00     0.100 C 
BRANCH   8   9
ATOM      9  C   UNL     1      94.820  83.048  84.214  1.00  0.00     0.220 C 
ATOM     10  O   UNL     1      95.127  83.662  85.263  1.00  0.00    -0.275 OA
ATOM     11  N   UNL     1      93.567  82.534  84.038  1.00  0.00    -0.352 N 
ATOM     12  H   UNL     1      93.455  81.987  83.197  1.00  0.00     0.163 HD
BRANCH  11  13
ATOM     13  C   UNL     1      92.458  82.715  84.923  1.00  0.00     0.151 C 
BRANCH  13  14
ATOM     14  C   UNL     1      91.309  81.814  84.639  1.00  0.00    -0.025 A 
ATOM     15  C   UNL     1      91.529  80.444  84.364  1.00  0.00     0.056 A 
ATOM     16  C   UNL     1      89.983  82.306  84.636  1.00  0.00     0.009 A 
ATOM     17  C   UNL     1      90.446  79.572  84.109  1.00  0.00     0.160 A 
ATOM     18  C   UNL     1      88.901  81.444  84.384  1.00  0.00     0.050 A 
ATOM     19  C   UNL     1      89.128  80.081  84.113  1.00  0.00     0.157 A 
BRANCH  17  20
ATOM     20  O   UNL     1      90.665  78.253  83.800  1.00  0.00    -0.493 OA
ATOM     21  C   UNL     1      91.918  77.736  84.281  1.00  0.00     0.278 C 
ENDBRANCH  17  20
BRANCH  19  22
ATOM     22  O   UNL     1      88.078  79.262  83.845  1.00  0.00    -0.504 OA
ATOM     23  H   UNL     1      88.075  78.531  84.467  1.00  0.00     0.293 HD
ENDBRANCH  19  22
ENDBRANCH  13  14
ENDBRANCH  11  13
ENDBRANCH   8   9
ENDBRANCH   1   8
TORSDOF 11
ENDMDL
MODEL 6
REMARK VINA RESULT:    -5.893     21.523     24.586
REMARK INTER + INTRA:         -10.137
REMARK INTER:                  -9.541
REMARK INTRA:                  -0.596
REMARK UNBOUND:                -0.626
REMARK SMILES CCCCCCCCC(=O)NCc1ccc(O)c(OC)c1
REMARK SMILES IDX 7 1 6 2 5 3 4 4 3 5 2 6 1 7 8 8 9 9 10 10 11 11 12 13 13 14
REMARK SMILES IDX 21 15 14 16 18 17 15 18 16 19 19 20 20 21 17 22
REMARK H PARENT 11 12 17 23
REMARK Flexibility Score: inf
ROOT
ATOM      1  C   UNL     1      79.037  64.580  68.903  1.00  0.00     0.010 C 
ENDROOT
BRANCH   1   2
ATOM      2  C   UNL     1      78.050  63.380  68.811  1.00  0.00     0.001 C 
BRANCH   2   3
ATOM      3  C   UNL     1      77.378  63.277  67.410  1.00  0.00     0.000 C 
BRANCH   3   4
ATOM      4  C   UNL     1      75.827  63.372  67.450  1.00  0.00    -0.000 C 
BRANCH   4   5
ATOM      5  C   UNL     1      75.317  64.456  68.442  1.00  0.00    -0.000 C 
BRANCH   5   6
ATOM      6  C   UNL     1      75.710  65.893  68.006  1.00  0.00    -0.003 C 
ATOM      7  C   UNL     1      75.788  66.056  66.472  1.00  0.00     0.004 C 
ENDBRANCH   5   6
ENDBRANCH   4   5
ENDBRANCH   3   4
ENDBRANCH   2   3
ENDBRANCH   1   2
BRANCH   1   8
ATOM      8  C   UNL     1      79.539  64.872  70.345  1.00  0.00     0.100 C 
BRANCH   8   9
ATOM      9  C   UNL     1      80.969  65.263  70.350  1.00  0.00     0.220 C 
ATOM     10  O   UNL     1      81.311  66.275  69.692  1.00  0.00    -0.275 OA
ATOM     11  N   UNL     1      81.880  64.552  71.077  1.00  0.00    -0.352 N 
ATOM     12  H   UNL     1      81.514  63.710  71.497  1.00  0.00     0.163 HD
BRANCH  11  13
ATOM     13  C   UNL     1      83.252  64.908  71.275  1.00  0.00     0.151 C 
BRANCH  13  14
ATOM     14  C   UNL     1      83.503  65.660  72.534  1.00  0.00    -0.025 A 
ATOM     15  C   UNL     1      84.059  66.960  72.489  1.00  0.00     0.056 A 
ATOM     16  C   UNL     1      83.196  65.092  73.793  1.00  0.00     0.009 A 
ATOM     17  C   UNL     1      84.287  67.693  73.677  1.00  0.00     0.160 A 
ATOM     18  C   UNL     1      83.419  65.817  74.977  1.00  0.00     0.050 A 
ATOM     19  C   UNL     1      83.970  67.111  74.925  1.00  0.00     0.157 A 
BRANCH  17  20
ATOM     20  O   UNL     1      84.865  68.937  73.633  1.00  0.00    -0.493 OA
ATOM     21  C   UNL     1      85.405  69.291  72.347  1.00  0.00     0.278 C 
ENDBRANCH  17  20
BRANCH  19  22
ATOM     22  O   UNL     1      84.207  67.791  76.075  1.00  0.00    -0.504 OA
ATOM     23  H   UNL     1      83.756  67.357  76.803  1.00  0.00     0.293 HD
ENDBRANCH  19  22
ENDBRANCH  13  14
ENDBRANCH  11  13
ENDBRANCH   8   9
ENDBRANCH   1   8
TORSDOF 11
ENDMDL
MODEL 7
REMARK VINA RESULT:    -5.863     19.797     22.869
REMARK INTER + INTRA:         -10.088
REMARK INTER:                  -9.580
REMARK INTRA:                  -0.508
REMARK UNBOUND:                -0.626
REMARK SMILES CCCCCCCCC(=O)NCc1ccc(O)c(OC)c1
REMARK SMILES IDX 7 1 6 2 5 3 4 4 3 5 2 6 1 7 8 8 9 9 10 10 11 11 12 13 13 14
REMARK SMILES IDX 21 15 14 16 18 17 15 18 16 19 19 20 20 21 17 22
REMARK H PARENT 11 12 17 23
REMARK Flexibility Score: inf
ROOT
ATOM      1  C   UNL     1      79.730  65.599  71.668  1.00  0.00     0.010 C 
ENDROOT
BRANCH   1   2
ATOM      2  C   UNL     1      79.227  65.542  70.197  1.00  0.00     0.001 C 
BRANCH   2   3
ATOM      3  C   UNL     1      79.630  64.216  69.487  1.00  0.00     0.000 C 
BRANCH   3   4
ATOM      4  C   UNL     1      78.429  63.275  69.188  1.00  0.00    -0.000 C 
BRANCH   4   5
ATOM      5  C   UNL     1      77.285  63.988  68.412  1.00  0.00    -0.000 C 
BRANCH   5   6
ATOM      6  C   UNL     1      76.939  63.279  67.075  1.00  0.00    -0.003 C 
ATOM      7  C   UNL     1      75.438  62.938  66.948  1.00  0.00     0.004 C 
ENDBRANCH   5   6
ENDBRANCH   4   5
ENDBRANCH   3   4
ENDBRANCH   2   3
ENDBRANCH   1   2
BRANCH   1   8
ATOM      8  C   UNL     1      81.276  65.521  71.807  1.00  0.00     0.100 C 
BRANCH   8   9
ATOM      9  C   UNL     1      81.745  66.222  73.027  1.00  0.00     0.220 C 
ATOM     10  O   UNL     1      80.967  67.036  73.581  1.00  0.00    -0.275 OA
ATOM     11  N   UNL     1      82.981  65.961  73.545  1.00  0.00    -0.352 N 
ATOM     12  H   UNL     1      83.555  65.358  72.974  1.00  0.00     0.163 HD
BRANCH  11  13
ATOM     13  C   UNL     1      83.489  66.462  74.786  1.00  0.00     0.151 C 
BRANCH  13  14
ATOM     14  C   UNL     1      84.471  67.568  74.630  1.00  0.00    -0.025 A 
ATOM     15  C   UNL     1      84.499  68.334  73.440  1.00  0.00     0.056 A 
ATOM     16  C   UNL     1      85.392  67.872  75.659  1.00  0.00     0.009 A 
ATOM     17  C   UNL     1      85.416  69.399  73.285  1.00  0.00     0.160 A 
ATOM     18  C   UNL     1      86.306  68.931  75.511  1.00  0.00     0.050 A 
ATOM     19  C   UNL     1      86.326  69.691  74.326  1.00  0.00     0.157 A 
BRANCH  17  20
ATOM     20  O   UNL     1      85.470  70.113  72.114  1.00  0.00    -0.493 OA
ATOM     21  C   UNL     1      84.306  70.920  71.862  1.00  0.00     0.278 C 
ENDBRANCH  17  20
BRANCH  19  22
ATOM     22  O   UNL     1      87.230  70.694  74.181  1.00  0.00    -0.504 OA
ATOM     23  H   UNL     1      87.323  70.909  73.250  1.00  0.00     0.293 HD
ENDBRANCH  19  22
ENDBRANCH  13  14
ENDBRANCH  11  13
ENDBRANCH   8   9
ENDBRANCH   1   8
TORSDOF 11
ENDMDL
MODEL 8
REMARK VINA RESULT:    -5.827     13.830     17.667
REMARK INTER + INTRA:         -10.031
REMARK INTER:                  -9.339
REMARK INTRA:                  -0.691
REMARK UNBOUND:                -0.626
REMARK SMILES CCCCCCCCC(=O)NCc1ccc(O)c(OC)c1
REMARK SMILES IDX 7 1 6 2 5 3 4 4 3 5 2 6 1 7 8 8 9 9 10 10 11 11 12 13 13 14
REMARK SMILES IDX 21 15 14 16 18 17 15 18 16 19 19 20 20 21 17 22
REMARK H PARENT 11 12 17 23
REMARK Flexibility Score: inf
ROOT
ATOM      1  C   UNL     1      92.303  94.940  76.808  1.00  0.00     0.010 C 
ENDROOT
BRANCH   1   2
ATOM      2  C   UNL     1      90.828  95.433  76.795  1.00  0.00     0.001 C 
BRANCH   2   3
ATOM      3  C   UNL     1      89.826  94.285  76.473  1.00  0.00     0.000 C 
BRANCH   3   4
ATOM      4  C   UNL     1      90.509  92.913  76.208  1.00  0.00    -0.000 C 
BRANCH   4   5
ATOM      5  C   UNL     1      89.571  91.709  76.507  1.00  0.00    -0.000 C 
BRANCH   5   6
ATOM      6  C   UNL     1      89.321  90.824  75.257  1.00  0.00    -0.003 C 
ATOM      7  C   UNL     1      89.909  89.403  75.400  1.00  0.00     0.004 C 
ENDBRANCH   5   6
ENDBRANCH   4   5
ENDBRANCH   3   4
ENDBRANCH   2   3
ENDBRANCH   1   2
BRANCH   1   8
ATOM      8  C   UNL     1      92.962  94.964  78.215  1.00  0.00     0.100 C 
BRANCH   8   9
ATOM      9  C   UNL     1      94.090  95.926  78.268  1.00  0.00     0.220 C 
ATOM     10  O   UNL     1      94.821  95.930  79.286  1.00  0.00    -0.275 OA
ATOM     11  N   UNL     1      94.337  96.762  77.217  1.00  0.00    -0.352 N 
ATOM     12  H   UNL     1      93.638  96.736  76.489  1.00  0.00     0.163 HD
BRANCH  11  13
ATOM     13  C   UNL     1      95.468  97.630  77.088  1.00  0.00     0.151 C 
BRANCH  13  14
ATOM     14  C   UNL     1      95.845  97.919  75.679  1.00  0.00    -0.025 A 
ATOM     15  C   UNL     1      94.901  97.748  74.639  1.00  0.00     0.056 A 
ATOM     16  C   UNL     1      97.147  98.365  75.352  1.00  0.00     0.009 A 
ATOM     17  C   UNL     1      95.240  98.036  73.296  1.00  0.00     0.160 A 
ATOM     18  C   UNL     1      97.490  98.654  74.019  1.00  0.00     0.050 A 
ATOM     19  C   UNL     1      96.544  98.484  72.990  1.00  0.00     0.157 A 
BRANCH  17  20
ATOM     20  O   UNL     1      94.336  97.828  72.285  1.00  0.00    -0.493 OA
ATOM     21  C   UNL     1      93.462  98.944  72.039  1.00  0.00     0.278 C 
ENDBRANCH  17  20
BRANCH  19  22
ATOM     22  O   UNL     1      96.894  98.739  71.703  1.00  0.00    -0.504 OA
ATOM     23  H   UNL     1      96.250  98.342  71.112  1.00  0.00     0.293 HD
ENDBRANCH  19  22
ENDBRANCH  13  14
ENDBRANCH  11  13
ENDBRANCH   8   9
ENDBRANCH   1   8
TORSDOF 11
ENDMDL
MODEL 9
REMARK VINA RESULT:    -5.745     19.328     22.456
REMARK INTER + INTRA:          -9.898
REMARK INTER:                  -9.352
REMARK INTRA:                  -0.546
REMARK UNBOUND:                -0.626
REMARK SMILES CCCCCCCCC(=O)NCc1ccc(O)c(OC)c1
REMARK SMILES IDX 7 1 6 2 5 3 4 4 3 5 2 6 1 7 8 8 9 9 10 10 11 11 12 13 13 14
REMARK SMILES IDX 21 15 14 16 18 17 15 18 16 19 19 20 20 21 17 22
REMARK H PARENT 11 12 17 23
REMARK Flexibility Score: inf
ROOT
ATOM      1  C   UNL     1      79.819  65.516  71.880  1.00  0.00     0.010 C 
ENDROOT
BRANCH   1   2
ATOM      2  C   UNL     1      79.250  65.622  70.436  1.00  0.00     0.001 C 
BRANCH   2   3
ATOM      3  C   UNL     1      79.263  64.252  69.696  1.00  0.00     0.000 C 
BRANCH   3   4
ATOM      4  C   UNL     1      78.339  64.206  68.446  1.00  0.00    -0.000 C 
BRANCH   4   5
ATOM      5  C   UNL     1      77.046  65.051  68.624  1.00  0.00    -0.000 C 
BRANCH   5   6
ATOM      6  C   UNL     1      75.982  64.750  67.535  1.00  0.00    -0.003 C 
ATOM      7  C   UNL     1      76.571  64.023  66.306  1.00  0.00     0.004 C 
ENDBRANCH   5   6
ENDBRANCH   4   5
ENDBRANCH   3   4
ENDBRANCH   2   3
ENDBRANCH   1   2
BRANCH   1   8
ATOM      8  C   UNL     1      81.371  65.563  71.951  1.00  0.00     0.100 C 
BRANCH   8   9
ATOM      9  C   UNL     1      81.835  66.313  73.143  1.00  0.00     0.220 C 
ATOM     10  O   UNL     1      81.030  67.094  73.705  1.00  0.00    -0.275 OA
ATOM     11  N   UNL     1      83.098  66.132  73.628  1.00  0.00    -0.352 N 
ATOM     12  H   UNL     1      83.687  65.549  73.051  1.00  0.00     0.163 HD
BRANCH  11  13
ATOM     13  C   UNL     1      83.614  66.685  74.843  1.00  0.00     0.151 C 
BRANCH  13  14
ATOM     14  C   UNL     1      84.576  67.799  74.635  1.00  0.00    -0.025 A 
ATOM     15  C   UNL     1      85.296  68.332  75.731  1.00  0.00     0.056 A 
ATOM     16  C   UNL     1      84.787  68.348  73.349  1.00  0.00     0.009 A 
ATOM     17  C   UNL     1      86.227  69.381  75.546  1.00  0.00     0.160 A 
ATOM     18  C   UNL     1      85.712  69.389  73.158  1.00  0.00     0.050 A 
ATOM     19  C   UNL     1      86.427  69.913  74.252  1.00  0.00     0.157 A 
BRANCH  17  20
ATOM     20  O   UNL     1      86.893  69.924  76.616  1.00  0.00    -0.493 OA
ATOM     21  C   UNL     1      88.031  69.160  77.051  1.00  0.00     0.278 C 
ENDBRANCH  17  20
BRANCH  19  22
ATOM     22  O   UNL     1      87.298  70.937  74.062  1.00  0.00    -0.504 OA
ATOM     23  H   UNL     1      87.016  71.461  73.308  1.00  0.00     0.293 HD
ENDBRANCH  19  22
ENDBRANCH  13  14
ENDBRANCH  11  13
ENDBRANCH   8   9
ENDBRANCH   1   8
TORSDOF 11
ENDMDL
MODEL 10
REMARK VINA RESULT:    -5.665      2.876      8.499
REMARK INTER + INTRA:          -9.768
REMARK INTER:                  -9.182
REMARK INTRA:                  -0.586
REMARK UNBOUND:                -0.626
REMARK SMILES CCCCCCCCC(=O)NCc1ccc(O)c(OC)c1
REMARK SMILES IDX 7 1 6 2 5 3 4 4 3 5 2 6 1 7 8 8 9 9 10 10 11 11 12 13 13 14
REMARK SMILES IDX 21 15 14 16 18 17 15 18 16 19 19 20 20 21 17 22
REMARK H PARENT 11 12 17 23
REMARK Flexibility Score: inf
ROOT
ATOM      1  C   UNL     1      92.930  81.004  84.666  1.00  0.00     0.010 C 
ENDROOT
BRANCH   1   2
ATOM      2  C   UNL     1      91.448  80.817  84.232  1.00  0.00     0.001 C 
BRANCH   2   3
ATOM      3  C   UNL     1      90.482  81.755  85.015  1.00  0.00     0.000 C 
BRANCH   3   4
ATOM      4  C   UNL     1      89.115  81.979  84.308  1.00  0.00    -0.000 C 
BRANCH   4   5
ATOM      5  C   UNL     1      88.056  80.908  84.697  1.00  0.00    -0.000 C 
BRANCH   5   6
ATOM      6  C   UNL     1      87.666  79.995  83.504  1.00  0.00    -0.003 C 
ATOM      7  C   UNL     1      87.016  80.774  82.340  1.00  0.00     0.004 C 
ENDBRANCH   5   6
ENDBRANCH   4   5
ENDBRANCH   3   4
ENDBRANCH   2   3
ENDBRANCH   1   2
BRANCH   1   8
ATOM      8  C   UNL     1      93.558  82.347  84.198  1.00  0.00     0.100 C 
BRANCH   8   9
ATOM      9  C   UNL     1      95.027  82.228  84.036  1.00  0.00     0.220 C 
ATOM     10  O   UNL     1      95.644  81.421  84.772  1.00  0.00    -0.275 OA
ATOM     11  N   UNL     1      95.683  82.961  83.088  1.00  0.00    -0.352 N 
ATOM     12  H   UNL     1      95.106  83.639  82.613  1.00  0.00     0.163 HD
BRANCH  11  13
ATOM     13  C   UNL     1      97.065  82.833  82.741  1.00  0.00     0.151 C 
BRANCH  13  14
ATOM     14  C   UNL     1      97.294  82.282  81.379  1.00  0.00    -0.025 A 
ATOM     15  C   UNL     1      97.408  83.153  80.268  1.00  0.00     0.056 A 
ATOM     16  C   UNL     1      97.399  80.888  81.166  1.00  0.00     0.009 A 
ATOM     17  C   UNL     1      97.643  82.645  78.970  1.00  0.00     0.160 A 
ATOM     18  C   UNL     1      97.634  80.377  79.878  1.00  0.00     0.050 A 
ATOM     19  C   UNL     1      97.749  81.249  78.778  1.00  0.00     0.157 A 
BRANCH  17  20
ATOM     20  O   UNL     1      97.710  83.487  77.889  1.00  0.00    -0.493 OA
ATOM     21  C   UNL     1      96.429  83.918  77.397  1.00  0.00     0.278 C 
ENDBRANCH  17  20
BRANCH  19  22
ATOM     22  O   UNL     1      97.948  80.744  77.533  1.00  0.00    -0.504 OA
ATOM     23  H   UNL     1      97.238  80.135  77.318  1.00  0.00     0.293 HD
ENDBRANCH  19  22
ENDBRANCH  13  14
ENDBRANCH  11  13
ENDBRANCH   8   9
ENDBRANCH   1   8
TORSDOF 11
ENDMDL
