MODEL 1
REMARK VINA RESULT:    -8.155      0.000      0.000
REMARK INTER + INTRA:          -9.967
REMARK INTER:                  -9.585
REMARK INTRA:                  -0.381
REMARK UNBOUND:                -0.381
REMARK SMILES O=C(/C=C/C=C/c1ccc2c(c1)OCO2)N1CCCCC1
REMARK SMILES IDX 3 1 4 2 2 3 1 4 16 5 17 6 21 7 18 8 20 9 19 10 5 11 6 12
REMARK SMILES IDX 7 13 12 14 8 15 11 16 9 17 13 18 10 19 14 20 15 21
REMARK H PARENT
REMARK Flexibility Score: inf
ROOT
ATOM      1  C   UNL     1      90.949  91.775  75.959  1.00  0.00     0.071 C 
ATOM      2  C   UNL     1      90.914  92.596  77.007  1.00  0.00     0.006 C 
ENDROOT
BRANCH   1   3
ATOM      3  C   UNL     1      89.683  91.152  75.522  1.00  0.00     0.246 C 
ATOM      4  O   UNL     1      88.756  91.121  76.332  1.00  0.00    -0.270 OA
ATOM      5  N   UNL     1      89.625  90.638  74.228  1.00  0.00    -0.339 N 
ATOM      6  C   UNL     1      88.384  90.009  73.768  1.00  0.00     0.120 C 
ATOM      7  C   UNL     1      90.724  90.616  73.251  1.00  0.00     0.120 C 
ATOM      8  C   UNL     1      87.909  90.611  72.450  1.00  0.00     0.022 C 
ATOM      9  C   UNL     1      90.286  91.210  71.912  1.00  0.00     0.022 C 
ATOM     10  C   UNL     1      89.009  90.553  71.395  1.00  0.00     0.004 C 
ENDBRANCH   1   3
BRANCH   2  11
ATOM     11  C   UNL     1      92.102  93.253  77.509  1.00  0.00     0.001 C 
ATOM     12  C   UNL     1      93.161  93.533  76.732  1.00  0.00     0.008 C 
BRANCH  12  13
ATOM     13  C   UNL     1      94.396  94.191  77.193  1.00  0.00    -0.022 A 
ATOM     14  C   UNL     1      94.600  94.366  78.554  1.00  0.00     0.058 A 
ATOM     15  C   UNL     1      95.328  94.621  76.245  1.00  0.00     0.012 A 
ATOM     16  C   UNL     1      95.772  94.987  78.936  1.00  0.00     0.166 A 
ATOM     17  C   UNL     1      96.505  95.247  76.660  1.00  0.00     0.051 A 
ATOM     18  O   UNL     1      96.155  95.252  80.216  1.00  0.00    -0.454 OA
ATOM     19  C   UNL     1      96.699  95.416  78.015  1.00  0.00     0.165 A 
ATOM     20  C   UNL     1      97.426  95.894  79.996  1.00  0.00     0.468 C 
ATOM     21  O   UNL     1      97.779  96.002  78.601  1.00  0.00    -0.454 OA
ENDBRANCH  12  13
ENDBRANCH   2  11
TORSDOF 3
ENDMDL
MODEL 2
REMARK VINA RESULT:    -7.776      2.781      9.241
REMARK INTER + INTRA:          -9.522
REMARK INTER:                  -9.156
REMARK INTRA:                  -0.365
REMARK UNBOUND:                -0.381
REMARK SMILES O=C(/C=C/C=C/c1ccc2c(c1)OCO2)N1CCCCC1
REMARK SMILES IDX 3 1 4 2 2 3 1 4 16 5 17 6 21 7 18 8 20 9 19 10 5 11 6 12
REMARK SMILES IDX 7 13 12 14 8 15 11 16 9 17 13 18 10 19 14 20 15 21
REMARK H PARENT
REMARK Flexibility Score: inf
ROOT
ATOM      1  C   UNL     1      95.040  94.077  77.249  1.00  0.00     0.071 C 
ATOM      2  C   UNL     1      93.899  94.515  76.720  1.00  0.00     0.006 C 
ENDROOT
BRANCH   1   3
ATOM      3  C   UNL     1      96.036  95.078  77.681  1.00  0.00     0.246 C 
ATOM      4  O   UNL     1      96.576  95.757  76.807  1.00  0.00    -0.270 OA
ATOM      5  N   UNL     1      96.300  95.185  79.046  1.00  0.00    -0.339 N 
ATOM      6  C   UNL     1      97.287  96.166  79.505  1.00  0.00     0.120 C 
ATOM      7  C   UNL     1      95.708  94.363  80.112  1.00  0.00     0.120 C 
ATOM      8  C   UNL     1      96.711  97.071  80.589  1.00  0.00     0.022 C 
ATOM      9  C   UNL     1      95.122  95.235  81.222  1.00  0.00     0.022 C 
ATOM     10  C   UNL     1      96.139  96.249  81.739  1.00  0.00     0.004 C 
ENDBRANCH   1   3
BRANCH   2  11
ATOM     11  C   UNL     1      92.864  93.611  76.267  1.00  0.00     0.001 C 
ATOM     12  C   UNL     1      92.481  93.530  74.983  1.00  0.00     0.008 C 
BRANCH  12  13
ATOM     13  C   UNL     1      91.429  92.635  74.470  1.00  0.00    -0.022 A 
ATOM     14  C   UNL     1      90.477  93.143  73.597  1.00  0.00     0.058 A 
ATOM     15  C   UNL     1      91.419  91.299  74.877  1.00  0.00     0.012 A 
ATOM     16  C   UNL     1      89.513  92.266  73.143  1.00  0.00     0.166 A 
ATOM     17  C   UNL     1      90.431  90.433  74.402  1.00  0.00     0.051 A 
ATOM     18  O   UNL     1      88.498  92.569  72.288  1.00  0.00    -0.454 OA
ATOM     19  C   UNL     1      89.490  90.948  73.535  1.00  0.00     0.165 A 
ATOM     20  C   UNL     1      87.834  91.293  72.186  1.00  0.00     0.468 C 
ATOM     21  O   UNL     1      88.458  90.259  72.975  1.00  0.00    -0.454 OA
ENDBRANCH  12  13
ENDBRANCH   2  11
TORSDOF 3
ENDMDL
MODEL 3
REMARK VINA RESULT:    -6.980      4.319      8.400
REMARK INTER + INTRA:          -8.585
REMARK INTER:                  -8.255
REMARK INTRA:                  -0.331
REMARK UNBOUND:                -0.381
REMARK SMILES O=C(/C=C/C=C/c1ccc2c(c1)OCO2)N1CCCCC1
REMARK SMILES IDX 3 1 4 2 2 3 1 4 16 5 17 6 21 7 18 8 20 9 19 10 5 11 6 12
REMARK SMILES IDX 7 13 12 14 8 15 11 16 9 17 13 18 10 19 14 20 15 21
REMARK H PARENT
REMARK Flexibility Score: inf
ROOT
ATOM      1  C   UNL     1      94.404  97.051  74.141  1.00  0.00     0.071 C 
ATOM      2  C   UNL     1      94.537  96.012  74.962  1.00  0.00     0.006 C 
ENDROOT
BRANCH   1   3
ATOM      3  C   UNL     1      95.614  97.828  73.803  1.00  0.00     0.246 C 
ATOM      4  O   UNL     1      96.441  98.010  74.696  1.00  0.00    -0.270 OA
ATOM      5  N   UNL     1      95.735  98.306  72.499  1.00  0.00    -0.339 N 
ATOM      6  C   UNL     1      96.923  99.086  72.135  1.00  0.00     0.120 C 
ATOM      7  C   UNL     1      94.749  98.148  71.420  1.00  0.00     0.120 C 
ATOM      8  C   UNL     1      97.605  98.515  70.897  1.00  0.00     0.022 C 
ATOM      9  C   UNL     1      95.397  97.581  70.157  1.00  0.00     0.022 C 
ATOM     10  C   UNL     1      96.621  98.390  69.738  1.00  0.00     0.004 C 
ENDBRANCH   1   3
BRANCH   2  11
ATOM     11  C   UNL     1      93.410  95.191  75.352  1.00  0.00     0.001 C 
ATOM     12  C   UNL     1      93.500  93.860  75.509  1.00  0.00     0.008 C 
BRANCH  12  13
ATOM     13  C   UNL     1      92.386  92.978  75.896  1.00  0.00    -0.022 A 
ATOM     14  C   UNL     1      91.808  92.160  74.935  1.00  0.00     0.058 A 
ATOM     15  C   UNL     1      91.942  92.988  77.220  1.00  0.00     0.012 A 
ATOM     16  C   UNL     1      90.768  91.351  75.345  1.00  0.00     0.166 A 
ATOM     17  C   UNL     1      90.887  92.159  77.608  1.00  0.00     0.051 A 
ATOM     18  O   UNL     1      90.073  90.484  74.558  1.00  0.00    -0.454 OA
ATOM     19  C   UNL     1      90.320  91.351  76.646  1.00  0.00     0.165 A 
ATOM     20  C   UNL     1      89.138  89.938  75.510  1.00  0.00     0.468 C 
ATOM     21  O   UNL     1      89.288  90.483  76.837  1.00  0.00    -0.454 OA
ENDBRANCH  12  13
ENDBRANCH   2  11
TORSDOF 3
ENDMDL
MODEL 4
REMARK VINA RESULT:    -6.930      2.962      8.941
REMARK INTER + INTRA:          -8.527
REMARK INTER:                  -8.143
REMARK INTRA:                  -0.384
REMARK UNBOUND:                -0.381
REMARK SMILES O=C(/C=C/C=C/c1ccc2c(c1)OCO2)N1CCCCC1
REMARK SMILES IDX 3 1 4 2 2 3 1 4 16 5 17 6 21 7 18 8 20 9 19 10 5 11 6 12
REMARK SMILES IDX 7 13 12 14 8 15 11 16 9 17 13 18 10 19 14 20 15 21
REMARK H PARENT
REMARK Flexibility Score: inf
ROOT
ATOM      1  C   UNL     1      95.241  94.246  76.820  1.00  0.00     0.071 C 
ATOM      2  C   UNL     1      93.936  94.307  77.075  1.00  0.00     0.006 C 
ENDROOT
BRANCH   1   3
ATOM      3  C   UNL     1      96.129  95.204  77.508  1.00  0.00     0.246 C 
ATOM      4  O   UNL     1      96.316  95.042  78.714  1.00  0.00    -0.270 OA
ATOM      5  N   UNL     1      96.691  96.230  76.748  1.00  0.00    -0.339 N 
ATOM      6  C   UNL     1      97.573  97.200  77.405  1.00  0.00     0.120 C 
ATOM      7  C   UNL     1      96.456  96.481  75.319  1.00  0.00     0.120 C 
ATOM      8  C   UNL     1      98.908  97.319  76.679  1.00  0.00     0.022 C 
ATOM      9  C   UNL     1      97.774  96.611  74.556  1.00  0.00     0.022 C 
ATOM     10  C   UNL     1      98.701  97.637  75.201  1.00  0.00     0.004 C 
ENDBRANCH   1   3
BRANCH   2  11
ATOM     11  C   UNL     1      92.987  93.410  76.450  1.00  0.00     0.001 C 
ATOM     12  C   UNL     1      92.620  93.523  75.163  1.00  0.00     0.008 C 
BRANCH  12  13
ATOM     13  C   UNL     1      91.655  92.645  74.481  1.00  0.00    -0.022 A 
ATOM     14  C   UNL     1      90.613  93.216  73.762  1.00  0.00     0.058 A 
ATOM     15  C   UNL     1      91.813  91.260  74.575  1.00  0.00     0.012 A 
ATOM     16  C   UNL     1      89.735  92.353  73.139  1.00  0.00     0.166 A 
ATOM     17  C   UNL     1      90.909  90.410  73.935  1.00  0.00     0.051 A 
ATOM     18  O   UNL     1      88.656  92.714  72.393  1.00  0.00    -0.454 OA
ATOM     19  C   UNL     1      89.879  90.987  73.224  1.00  0.00     0.165 A 
ATOM     20  C   UNL     1      88.137  91.422  72.017  1.00  0.00     0.468 C 
ATOM     21  O   UNL     1      88.908  90.322  72.541  1.00  0.00    -0.454 OA
ENDBRANCH  12  13
ENDBRANCH   2  11
TORSDOF 3
ENDMDL
MODEL 5
REMARK VINA RESULT:    -6.820     21.951     25.600
REMARK INTER + INTRA:          -8.397
REMARK INTER:                  -8.068
REMARK INTRA:                  -0.329
REMARK UNBOUND:                -0.381
REMARK SMILES O=C(/C=C/C=C/c1ccc2c(c1)OCO2)N1CCCCC1
REMARK SMILES IDX 3 1 4 2 2 3 1 4 16 5 17 6 21 7 18 8 20 9 19 10 5 11 6 12
REMARK SMILES IDX 7 13 12 14 8 15 11 16 9 17 13 18 10 19 14 20 15 21
REMARK H PARENT
REMARK Flexibility Score: inf
ROOT
ATOM      1  C   UNL     1      83.826  68.786  72.106  1.00  0.00     0.071 C 
ATOM      2  C   UNL     1      85.108  68.932  71.777  1.00  0.00     0.006 C 
ENDROOT
BRANCH   1   3
ATOM      3  C   UNL     1      83.481  67.775  73.125  1.00  0.00     0.246 C 
ATOM      4  O   UNL     1      84.013  67.878  74.231  1.00  0.00    -0.270 OA
ATOM      5  N   UNL     1      82.582  66.772  72.767  1.00  0.00    -0.339 N 
ATOM      6  C   UNL     1      82.224  65.751  73.756  1.00  0.00     0.120 C 
ATOM      7  C   UNL     1      81.962  66.592  71.445  1.00  0.00     0.120 C 
ATOM      8  C   UNL     1      80.712  65.632  73.911  1.00  0.00     0.022 C 
ATOM      9  C   UNL     1      80.443  66.464  71.559  1.00  0.00     0.022 C 
ATOM     10  C   UNL     1      80.042  65.387  72.563  1.00  0.00     0.004 C 
ENDBRANCH   1   3
BRANCH   2  11
ATOM     11  C   UNL     1      85.545  69.896  70.789  1.00  0.00     0.001 C 
ATOM     12  C   UNL     1      86.820  69.988  70.377  1.00  0.00     0.008 C 
BRANCH  12  13
ATOM     13  C   UNL     1      87.318  70.953  69.383  1.00  0.00    -0.022 A 
ATOM     14  C   UNL     1      88.523  71.602  69.617  1.00  0.00     0.058 A 
ATOM     15  C   UNL     1      86.564  71.189  68.230  1.00  0.00     0.012 A 
ATOM     16  C   UNL     1      88.949  72.497  68.656  1.00  0.00     0.166 A 
ATOM     17  C   UNL     1      87.019  72.100  67.275  1.00  0.00     0.051 A 
ATOM     18  O   UNL     1      90.095  73.230  68.701  1.00  0.00    -0.454 OA
ATOM     19  C   UNL     1      88.217  72.739  67.516  1.00  0.00     0.165 A 
ATOM     20  C   UNL     1      90.002  73.960  67.461  1.00  0.00     0.468 C 
ATOM     21  O   UNL     1      88.813  73.654  66.704  1.00  0.00    -0.454 OA
ENDBRANCH  12  13
ENDBRANCH   2  11
TORSDOF 3
ENDMDL
MODEL 6
REMARK VINA RESULT:    -6.742     12.322     13.125
REMARK INTER + INTRA:          -8.306
REMARK INTER:                  -7.881
REMARK INTRA:                  -0.425
REMARK UNBOUND:                -0.381
REMARK SMILES O=C(/C=C/C=C/c1ccc2c(c1)OCO2)N1CCCCC1
REMARK SMILES IDX 3 1 4 2 2 3 1 4 16 5 17 6 21 7 18 8 20 9 19 10 5 11 6 12
REMARK SMILES IDX 7 13 12 14 8 15 11 16 9 17 13 18 10 19 14 20 15 21
REMARK H PARENT
REMARK Flexibility Score: inf
ROOT
ATOM      1  C   UNL     1      98.602  82.543  79.868  1.00  0.00     0.071 C 
ATOM      2  C   UNL     1      98.007  81.584  80.573  1.00  0.00     0.006 C 
ENDROOT
BRANCH   1   3
ATOM      3  C   UNL     1      99.446  82.143  78.724  1.00  0.00     0.246 C 
ATOM      4  O   UNL     1     100.455  81.479  78.967  1.00  0.00    -0.270 OA
ATOM      5  N   UNL     1      99.048  82.546  77.451  1.00  0.00    -0.339 N 
ATOM      6  C   UNL     1      99.869  82.168  76.296  1.00  0.00     0.120 C 
ATOM      7  C   UNL     1      97.877  83.374  77.128  1.00  0.00     0.120 C 
ATOM      8  C   UNL     1      99.035  81.479  75.221  1.00  0.00     0.022 C 
ATOM      9  C   UNL     1      97.016  82.718  76.049  1.00  0.00     0.022 C 
ATOM     10  C   UNL     1      97.841  82.340  74.822  1.00  0.00     0.004 C 
ENDBRANCH   1   3
BRANCH   2  11
ATOM     11  C   UNL     1      97.161  81.877  81.711  1.00  0.00     0.001 C 
ATOM     12  C   UNL     1      97.169  83.066  82.334  1.00  0.00     0.008 C 
BRANCH  12  13
ATOM     13  C   UNL     1      96.337  83.415  83.498  1.00  0.00    -0.022 A 
ATOM     14  C   UNL     1      96.207  84.749  83.861  1.00  0.00     0.058 A 
ATOM     15  C   UNL     1      95.701  82.392  84.207  1.00  0.00     0.012 A 
ATOM     16  C   UNL     1      95.417  85.025  84.958  1.00  0.00     0.166 A 
ATOM     17  C   UNL     1      94.907  82.701  85.314  1.00  0.00     0.051 A 
ATOM     18  O   UNL     1      95.167  86.262  85.470  1.00  0.00    -0.454 OA
ATOM     19  C   UNL     1      94.784  84.029  85.665  1.00  0.00     0.165 A 
ATOM     20  C   UNL     1      94.306  85.931  86.578  1.00  0.00     0.468 C 
ATOM     21  O   UNL     1      94.059  84.516  86.708  1.00  0.00    -0.454 OA
ENDBRANCH  12  13
ENDBRANCH   2  11
TORSDOF 3
ENDMDL
MODEL 7
REMARK VINA RESULT:    -6.670      3.371      8.657
REMARK INTER + INTRA:          -8.221
REMARK INTER:                  -7.852
REMARK INTRA:                  -0.369
REMARK UNBOUND:                -0.381
REMARK SMILES O=C(/C=C/C=C/c1ccc2c(c1)OCO2)N1CCCCC1
REMARK SMILES IDX 3 1 4 2 2 3 1 4 16 5 17 6 21 7 18 8 20 9 19 10 5 11 6 12
REMARK SMILES IDX 7 13 12 14 8 15 11 16 9 17 13 18 10 19 14 20 15 21
REMARK H PARENT
REMARK Flexibility Score: inf
ROOT
ATOM      1  C   UNL     1      96.702  95.019  76.417  1.00  0.00     0.071 C 
ATOM      2  C   UNL     1      95.798  95.153  77.386  1.00  0.00     0.006 C 
ENDROOT
BRANCH   1   3
ATOM      3  C   UNL     1      97.926  95.841  76.490  1.00  0.00     0.246 C 
ATOM      4  O   UNL     1      98.586  95.788  77.528  1.00  0.00    -0.270 OA
ATOM      5  N   UNL     1      98.248  96.625  75.383  1.00  0.00    -0.339 N 
ATOM      6  C   UNL     1      99.455  97.457  75.428  1.00  0.00     0.120 C 
ATOM      7  C   UNL     1      97.462  96.749  74.147  1.00  0.00     0.120 C 
ATOM      8  C   UNL     1     100.352  97.201  74.222  1.00  0.00     0.022 C 
ATOM      9  C   UNL     1      98.329  96.503  72.913  1.00  0.00     0.022 C 
ATOM     10  C   UNL     1      99.580  97.377  72.919  1.00  0.00     0.004 C 
ENDBRANCH   1   3
BRANCH   2  11
ATOM     11  C   UNL     1      94.567  94.391  77.402  1.00  0.00     0.001 C 
ATOM     12  C   UNL     1      93.546  94.643  76.567  1.00  0.00     0.008 C 
BRANCH  12  13
ATOM     13  C   UNL     1      92.272  93.906  76.546  1.00  0.00    -0.022 A 
ATOM     14  C   UNL     1      92.294  92.518  76.565  1.00  0.00     0.058 A 
ATOM     15  C   UNL     1      91.074  94.624  76.506  1.00  0.00     0.012 A 
ATOM     16  C   UNL     1      91.074  91.872  76.544  1.00  0.00     0.166 A 
ATOM     17  C   UNL     1      89.854  93.945  76.485  1.00  0.00     0.051 A 
ATOM     18  O   UNL     1      90.885  90.524  76.557  1.00  0.00    -0.454 OA
ATOM     19  C   UNL     1      89.887  92.566  76.506  1.00  0.00     0.165 A 
ATOM     20  C   UNL     1      89.445  90.449  76.522  1.00  0.00     0.468 C 
ATOM     21  O   UNL     1      88.805  91.741  76.489  1.00  0.00    -0.454 OA
ENDBRANCH  12  13
ENDBRANCH   2  11
TORSDOF 3
ENDMDL
MODEL 8
REMARK VINA RESULT:    -6.658     13.472     16.552
REMARK INTER + INTRA:          -8.207
REMARK INTER:                  -7.873
REMARK INTRA:                  -0.333
REMARK UNBOUND:                -0.381
REMARK SMILES O=C(/C=C/C=C/c1ccc2c(c1)OCO2)N1CCCCC1
REMARK SMILES IDX 3 1 4 2 2 3 1 4 16 5 17 6 21 7 18 8 20 9 19 10 5 11 6 12
REMARK SMILES IDX 7 13 12 14 8 15 11 16 9 17 13 18 10 19 14 20 15 21
REMARK H PARENT
REMARK Flexibility Score: inf
ROOT
ATOM      1  C   UNL     1      93.342  85.843  88.143  1.00  0.00     0.071 C 
ATOM      2  C   UNL     1      93.254  85.034  87.089  1.00  0.00     0.006 C 
ENDROOT
BRANCH   1   3
ATOM      3  C   UNL     1      94.448  86.820  88.179  1.00  0.00     0.246 C 
ATOM      4  O   UNL     1      95.500  86.510  87.618  1.00  0.00    -0.270 OA
ATOM      5  N   UNL     1      94.231  88.023  88.848  1.00  0.00    -0.339 N 
ATOM      6  C   UNL     1      95.313  89.011  88.905  1.00  0.00     0.120 C 
ATOM      7  C   UNL     1      93.008  88.410  89.566  1.00  0.00     0.120 C 
ATOM      8  C   UNL     1      94.845  90.379  88.420  1.00  0.00     0.022 C 
ATOM      9  C   UNL     1      92.508  89.780  89.110  1.00  0.00     0.022 C 
ATOM     10  C   UNL     1      93.607  90.836  89.186  1.00  0.00     0.004 C 
ENDBRANCH   1   3
BRANCH   2  11
ATOM     11  C   UNL     1      92.205  84.044  86.964  1.00  0.00     0.001 C 
ATOM     12  C   UNL     1      92.297  82.989  86.138  1.00  0.00     0.008 C 
BRANCH  12  13
ATOM     13  C   UNL     1      91.259  81.959  85.967  1.00  0.00    -0.022 A 
ATOM     14  C   UNL     1      91.485  80.913  85.082  1.00  0.00     0.058 A 
ATOM     15  C   UNL     1      90.074  82.063  86.699  1.00  0.00     0.012 A 
ATOM     16  C   UNL     1      90.483  79.973  84.956  1.00  0.00     0.166 A 
ATOM     17  C   UNL     1      89.076  81.096  86.552  1.00  0.00     0.051 A 
ATOM     18  O   UNL     1      90.512  78.879  84.145  1.00  0.00    -0.454 OA
ATOM     19  C   UNL     1      89.311  80.061  85.671  1.00  0.00     0.165 A 
ATOM     20  C   UNL     1      89.227  78.291  84.430  1.00  0.00     0.468 C 
ATOM     21  O   UNL     1      88.459  79.036  85.398  1.00  0.00    -0.454 OA
ENDBRANCH  12  13
ENDBRANCH   2  11
TORSDOF 3
ENDMDL
MODEL 9
REMARK VINA RESULT:    -6.651     17.087     20.105
REMARK INTER + INTRA:          -8.199
REMARK INTER:                  -7.821
REMARK INTRA:                  -0.378
REMARK UNBOUND:                -0.381
REMARK SMILES O=C(/C=C/C=C/c1ccc2c(c1)OCO2)N1CCCCC1
REMARK SMILES IDX 3 1 4 2 2 3 1 4 16 5 17 6 21 7 18 8 20 9 19 10 5 11 6 12
REMARK SMILES IDX 7 13 12 14 8 15 11 16 9 17 13 18 10 19 14 20 15 21
REMARK H PARENT
REMARK Flexibility Score: inf
ROOT
ATOM      1  C   UNL     1      77.809  93.380  64.707  1.00  0.00     0.071 C 
ATOM      2  C   UNL     1      77.348  92.676  63.675  1.00  0.00     0.006 C 
ENDROOT
BRANCH   1   3
ATOM      3  C   UNL     1      77.559  94.835  64.722  1.00  0.00     0.246 C 
ATOM      4  O   UNL     1      76.586  95.252  64.093  1.00  0.00    -0.270 OA
ATOM      5  N   UNL     1      78.443  95.638  65.441  1.00  0.00    -0.339 N 
ATOM      6  C   UNL     1      78.224  97.088  65.469  1.00  0.00     0.120 C 
ATOM      7  C   UNL     1      79.639  95.183  66.164  1.00  0.00     0.120 C 
ATOM      8  C   UNL     1      78.191  97.618  66.899  1.00  0.00     0.022 C 
ATOM      9  C   UNL     1      79.645  95.698  67.604  1.00  0.00     0.022 C 
ATOM     10  C   UNL     1      79.447  97.210  67.662  1.00  0.00     0.004 C 
ENDBRANCH   1   3
BRANCH   2  11
ATOM     11  C   UNL     1      77.544  91.245  63.571  1.00  0.00     0.001 C 
ATOM     12  C   UNL     1      77.216  90.394  64.557  1.00  0.00     0.008 C 
BRANCH  12  13
ATOM     13  C   UNL     1      77.401  88.934  64.507  1.00  0.00    -0.022 A 
ATOM     14  C   UNL     1      77.910  88.279  65.620  1.00  0.00     0.058 A 
ATOM     15  C   UNL     1      77.057  88.247  63.339  1.00  0.00     0.012 A 
ATOM     16  C   UNL     1      78.065  86.911  65.525  1.00  0.00     0.166 A 
ATOM     17  C   UNL     1      77.224  86.862  63.271  1.00  0.00     0.051 A 
ATOM     18  O   UNL     1      78.547  86.093  66.501  1.00  0.00    -0.454 OA
ATOM     19  C   UNL     1      77.731  86.221  64.382  1.00  0.00     0.165 A 
ATOM     20  C   UNL     1      78.478  84.811  65.843  1.00  0.00     0.468 C 
ATOM     21  O   UNL     1      77.961  84.885  64.499  1.00  0.00    -0.454 OA
ENDBRANCH  12  13
ENDBRANCH   2  11
TORSDOF 3
ENDMDL
MODEL 10
REMARK VINA RESULT:    -6.639     15.053     17.277
REMARK INTER + INTRA:          -8.185
REMARK INTER:                  -7.832
REMARK INTRA:                  -0.353
REMARK UNBOUND:                -0.381
REMARK SMILES O=C(/C=C/C=C/c1ccc2c(c1)OCO2)N1CCCCC1
REMARK SMILES IDX 3 1 4 2 2 3 1 4 16 5 17 6 21 7 18 8 20 9 19 10 5 11 6 12
REMARK SMILES IDX 7 13 12 14 8 15 11 16 9 17 13 18 10 19 14 20 15 21
REMARK H PARENT
REMARK Flexibility Score: inf
ROOT
ATOM      1  C   UNL     1      83.511  94.228  87.782  1.00  0.00     0.071 C 
ATOM      2  C   UNL     1      83.167  93.042  88.280  1.00  0.00     0.006 C 
ENDROOT
BRANCH   1   3
ATOM      3  C   UNL     1      83.589  95.374  88.709  1.00  0.00     0.246 C 
ATOM      4  O   UNL     1      84.521  95.392  89.515  1.00  0.00    -0.270 OA
ATOM      5  N   UNL     1      82.603  96.355  88.615  1.00  0.00    -0.339 N 
ATOM      6  C   UNL     1      82.651  97.502  89.526  1.00  0.00     0.120 C 
ATOM      7  C   UNL     1      81.453  96.345  87.698  1.00  0.00     0.120 C 
ATOM      8  C   UNL     1      82.593  98.822  88.764  1.00  0.00     0.022 C 
ATOM      9  C   UNL     1      81.358  97.655  86.917  1.00  0.00     0.022 C 
ATOM     10  C   UNL     1      81.377  98.868  87.843  1.00  0.00     0.004 C 
ENDBRANCH   1   3
BRANCH   2  11
ATOM     11  C   UNL     1      83.063  91.860  87.450  1.00  0.00     0.001 C 
ATOM     12  C   UNL     1      81.988  91.056  87.462  1.00  0.00     0.008 C 
BRANCH  12  13
ATOM     13  C   UNL     1      81.834  89.840  86.647  1.00  0.00    -0.022 A 
ATOM     14  C   UNL     1      80.690  89.684  85.875  1.00  0.00     0.058 A 
ATOM     15  C   UNL     1      82.844  88.875  86.671  1.00  0.00     0.012 A 
ATOM     16  C   UNL     1      80.592  88.528  85.128  1.00  0.00     0.166 A 
ATOM     17  C   UNL     1      82.718  87.714  85.905  1.00  0.00     0.051 A 
ATOM     18  O   UNL     1      79.554  88.190  84.314  1.00  0.00    -0.454 OA
ATOM     19  C   UNL     1      81.578  87.569  85.143  1.00  0.00     0.165 A 
ATOM     20  C   UNL     1      80.000  86.911  83.817  1.00  0.00     0.468 C 
ATOM     21  O   UNL     1      81.283  86.511  84.339  1.00  0.00    -0.454 OA
ENDBRANCH  12  13
ENDBRANCH   2  11
TORSDOF 3
ENDMDL
