MODEL 1
REMARK VINA RESULT:    -6.117      0.000      0.000
REMARK INTER + INTRA:         -10.525
REMARK INTER:                  -9.872
REMARK INTRA:                  -0.653
REMARK UNBOUND:                -0.653
REMARK SMILES COc1cc(CNC(=O)CCCCC/C=C/C(C)C)ccc1O
REMARK SMILES IDX 11 1 10 2 8 3 7 4 9 6 6 7 5 8 3 9 22 10 4 11 21 12 20 13
REMARK SMILES IDX 2 14 1 15 23 16 12 18 13 19 14 20 15 21 16 22 17 23 18 24
REMARK SMILES IDX 19 25
REMARK H PARENT 7 5 23 17
REMARK Flexibility Score: inf
ROOT
ATOM      1  C   UNL     1      92.703  99.796  74.182  1.00  0.00     0.010 C 
ENDROOT
BRANCH   1   2
ATOM      2  C   UNL     1      94.185  99.630  73.756  1.00  0.00     0.100 C 
BRANCH   2   3
ATOM      3  C   UNL     1      94.994  98.829  74.695  1.00  0.00     0.220 C 
ATOM      4  N   UNL     1      94.494  97.667  75.199  1.00  0.00    -0.352 N 
ATOM      5  H   UNL     1      93.538  97.470  74.937  1.00  0.00     0.163 HD
ATOM      6  O   UNL     1      96.150  99.227  74.973  1.00  0.00    -0.275 OA
BRANCH   4   7
ATOM      7  C   UNL     1      95.203  96.754  76.035  1.00  0.00     0.151 C 
BRANCH   7   8
ATOM      8  C   UNL     1      94.300  95.956  76.905  1.00  0.00    -0.025 A 
ATOM      9  C   UNL     1      93.779  94.944  79.085  1.00  0.00     0.160 A 
ATOM     10  C   UNL     1      92.599  94.388  78.544  1.00  0.00     0.157 A 
ATOM     11  C   UNL     1      94.623  95.715  78.261  1.00  0.00     0.056 A 
ATOM     12  C   UNL     1      92.259  94.635  77.202  1.00  0.00     0.050 A 
ATOM     13  C   UNL     1      93.097  95.422  76.391  1.00  0.00     0.009 A 
BRANCH   9  14
ATOM     14  O   UNL     1      94.075  94.782  80.413  1.00  0.00    -0.493 OA
ATOM     15  C   UNL     1      94.907  93.645  80.695  1.00  0.00     0.278 C 
ENDBRANCH   9  14
BRANCH  10  16
ATOM     16  O   UNL     1      91.774  93.617  79.296  1.00  0.00    -0.504 OA
ATOM     17  H   UNL     1      90.945  94.080  79.438  1.00  0.00     0.293 HD
ENDBRANCH  10  16
ENDBRANCH   7   8
ENDBRANCH   4   7
ENDBRANCH   2   3
ENDBRANCH   1   2
BRANCH   1  18
ATOM     18  C   UNL     1      91.930 100.692  73.181  1.00  0.00     0.001 C 
BRANCH  18  19
ATOM     19  C   UNL     1      91.206  99.898  72.065  1.00  0.00     0.004 C 
BRANCH  19  20
ATOM     20  C   UNL     1      91.583 100.430  70.654  1.00  0.00     0.027 C 
BRANCH  20  21
ATOM     21  C   UNL     1      90.519 100.295  69.675  1.00  0.00    -0.031 C 
ATOM     22  C   UNL     1      89.569  99.348  69.771  1.00  0.00    -0.028 C 
BRANCH  22  23
ATOM     23  C   UNL     1      88.483  99.190  68.807  1.00  0.00     0.005 C 
ATOM     24  C   UNL     1      88.402 100.431  67.879  1.00  0.00     0.012 C 
ATOM     25  C   UNL     1      88.661  97.869  68.010  1.00  0.00     0.012 C 
ENDBRANCH  22  23
ENDBRANCH  20  21
ENDBRANCH  19  20
ENDBRANCH  18  19
ENDBRANCH   1  18
TORSDOF 11
ENDMDL
MODEL 2
REMARK VINA RESULT:    -6.006     16.059     19.617
REMARK INTER + INTRA:         -10.346
REMARK INTER:                  -9.657
REMARK INTRA:                  -0.689
REMARK UNBOUND:                -0.653
REMARK SMILES COc1cc(CNC(=O)CCCCC/C=C/C(C)C)ccc1O
REMARK SMILES IDX 11 1 10 2 8 3 7 4 9 6 6 7 5 8 3 9 22 10 4 11 21 12 20 13
REMARK SMILES IDX 2 14 1 15 23 16 12 18 13 19 14 20 15 21 16 22 17 23 18 24
REMARK SMILES IDX 19 25
REMARK H PARENT 7 5 23 17
REMARK Flexibility Score: inf
ROOT
ATOM      1  C   UNL     1      96.490  82.850  85.237  1.00  0.00     0.010 C 
ENDROOT
BRANCH   1   2
ATOM      2  C   UNL     1      97.922  83.380  84.971  1.00  0.00     0.100 C 
BRANCH   2   3
ATOM      3  C   UNL     1      98.654  82.636  83.930  1.00  0.00     0.220 C 
ATOM      4  N   UNL     1      98.797  83.172  82.686  1.00  0.00    -0.352 N 
ATOM      5  H   UNL     1      98.308  84.046  82.546  1.00  0.00     0.163 HD
ATOM      6  O   UNL     1      99.166  81.532  84.235  1.00  0.00    -0.275 OA
BRANCH   4   7
ATOM      7  C   UNL     1      99.559  82.607  81.621  1.00  0.00     0.151 C 
BRANCH   7   8
ATOM      8  C   UNL     1      98.996  82.925  80.283  1.00  0.00    -0.025 A 
ATOM      9  C   UNL     1      99.252  83.096  77.843  1.00  0.00     0.160 A 
ATOM     10  C   UNL     1      97.932  83.586  77.740  1.00  0.00     0.157 A 
ATOM     11  C   UNL     1      99.776  82.779  79.113  1.00  0.00     0.056 A 
ATOM     12  C   UNL     1      97.140  83.719  78.895  1.00  0.00     0.050 A 
ATOM     13  C   UNL     1      97.665  83.381  80.157  1.00  0.00     0.009 A 
BRANCH   9  14
ATOM     14  O   UNL     1     100.000  82.879  76.717  1.00  0.00    -0.493 OA
ATOM     15  C   UNL     1     101.020  83.867  76.490  1.00  0.00     0.278 C 
ENDBRANCH   9  14
BRANCH  10  16
ATOM     16  O   UNL     1      97.399  83.929  76.540  1.00  0.00    -0.504 OA
ATOM     17  H   UNL     1      97.973  84.566  76.107  1.00  0.00     0.293 HD
ENDBRANCH  10  16
ENDBRANCH   7   8
ENDBRANCH   4   7
ENDBRANCH   2   3
ENDBRANCH   1   2
BRANCH   1  18
ATOM     18  C   UNL     1      96.507  81.665  86.236  1.00  0.00     0.001 C 
BRANCH  18  19
ATOM     19  C   UNL     1      95.242  81.581  87.126  1.00  0.00     0.004 C 
BRANCH  19  20
ATOM     20  C   UNL     1      94.067  82.397  86.519  1.00  0.00     0.027 C 
BRANCH  20  21
ATOM     21  C   UNL     1      92.780  81.728  86.612  1.00  0.00    -0.031 C 
ATOM     22  C   UNL     1      92.627  80.423  86.326  1.00  0.00    -0.028 C 
BRANCH  22  23
ATOM     23  C   UNL     1      91.350  79.719  86.415  1.00  0.00     0.005 C 
ATOM     24  C   UNL     1      90.966  79.125  85.034  1.00  0.00     0.012 C 
ATOM     25  C   UNL     1      91.410  78.636  87.527  1.00  0.00     0.012 C 
ENDBRANCH  22  23
ENDBRANCH  20  21
ENDBRANCH  19  20
ENDBRANCH  18  19
ENDBRANCH   1  18
TORSDOF 11
ENDMDL
MODEL 3
REMARK VINA RESULT:    -5.979     19.990     21.853
REMARK INTER + INTRA:         -10.302
REMARK INTER:                  -8.413
REMARK INTRA:                  -1.889
REMARK UNBOUND:                -0.653
REMARK SMILES COc1cc(CNC(=O)CCCCC/C=C/C(C)C)ccc1O
REMARK SMILES IDX 11 1 10 2 8 3 7 4 9 6 6 7 5 8 3 9 22 10 4 11 21 12 20 13
REMARK SMILES IDX 2 14 1 15 23 16 12 18 13 19 14 20 15 21 16 22 17 23 18 24
REMARK SMILES IDX 19 25
REMARK H PARENT 7 5 23 17
REMARK Flexibility Score: inf
ROOT
ATOM      1  C   UNL     1      74.293  90.509  66.298  1.00  0.00     0.010 C 
ENDROOT
BRANCH   1   2
ATOM      2  C   UNL     1      73.361  89.417  65.713  1.00  0.00     0.100 C 
BRANCH   2   3
ATOM      3  C   UNL     1      74.062  88.184  65.309  1.00  0.00     0.220 C 
ATOM      4  N   UNL     1      75.308  88.260  64.765  1.00  0.00    -0.352 N 
ATOM      5  H   UNL     1      75.643  89.200  64.607  1.00  0.00     0.163 HD
ATOM      6  O   UNL     1      73.500  87.083  65.517  1.00  0.00    -0.275 OA
BRANCH   4   7
ATOM      7  C   UNL     1      76.133  87.147  64.421  1.00  0.00     0.151 C 
BRANCH   7   8
ATOM      8  C   UNL     1      76.885  86.611  65.585  1.00  0.00    -0.025 A 
ATOM      9  C   UNL     1      77.822  84.709  66.831  1.00  0.00     0.160 A 
ATOM     10  C   UNL     1      78.274  85.591  67.836  1.00  0.00     0.157 A 
ATOM     11  C   UNL     1      77.124  85.224  65.719  1.00  0.00     0.056 A 
ATOM     12  C   UNL     1      78.057  86.975  67.705  1.00  0.00     0.050 A 
ATOM     13  C   UNL     1      77.377  87.483  66.582  1.00  0.00     0.009 A 
BRANCH   9  14
ATOM     14  O   UNL     1      78.105  83.371  66.905  1.00  0.00    -0.493 OA
ATOM     15  C   UNL     1      77.256  82.545  66.091  1.00  0.00     0.278 C 
ENDBRANCH   9  14
BRANCH  10  16
ATOM     16  O   UNL     1      78.924  85.133  68.935  1.00  0.00    -0.504 OA
ATOM     17  H   UNL     1      78.769  85.731  69.671  1.00  0.00     0.293 HD
ENDBRANCH  10  16
ENDBRANCH   7   8
ENDBRANCH   4   7
ENDBRANCH   2   3
ENDBRANCH   1   2
BRANCH   1  18
ATOM     18  C   UNL     1      75.088  89.974  67.516  1.00  0.00     0.001 C 
BRANCH  18  19
ATOM     19  C   UNL     1      74.620  90.560  68.872  1.00  0.00     0.004 C 
BRANCH  19  20
ATOM     20  C   UNL     1      75.184  89.743  70.068  1.00  0.00     0.027 C 
BRANCH  20  21
ATOM     21  C   UNL     1      74.670  88.387  70.143  1.00  0.00    -0.031 C 
ATOM     22  C   UNL     1      75.459  87.309  69.988  1.00  0.00    -0.028 C 
BRANCH  22  23
ATOM     23  C   UNL     1      74.975  85.933  70.063  1.00  0.00     0.005 C 
ATOM     24  C   UNL     1      74.652  85.398  68.642  1.00  0.00     0.012 C 
ATOM     25  C   UNL     1      76.004  85.041  70.809  1.00  0.00     0.012 C 
ENDBRANCH  22  23
ENDBRANCH  20  21
ENDBRANCH  19  20
ENDBRANCH  18  19
ENDBRANCH   1  18
TORSDOF 11
ENDMDL
MODEL 4
REMARK VINA RESULT:    -5.911      1.181      2.090
REMARK INTER + INTRA:         -10.192
REMARK INTER:                  -9.481
REMARK INTRA:                  -0.711
REMARK UNBOUND:                -0.653
REMARK SMILES COc1cc(CNC(=O)CCCCC/C=C/C(C)C)ccc1O
REMARK SMILES IDX 11 1 10 2 8 3 7 4 9 6 6 7 5 8 3 9 22 10 4 11 21 12 20 13
REMARK SMILES IDX 2 14 1 15 23 16 12 18 13 19 14 20 15 21 16 22 17 23 18 24
REMARK SMILES IDX 19 25
REMARK H PARENT 7 5 23 17
REMARK Flexibility Score: inf
ROOT
ATOM      1  C   UNL     1      93.447 101.034  73.532  1.00  0.00     0.010 C 
ENDROOT
BRANCH   1   2
ATOM      2  C   UNL     1      93.033  99.990  74.601  1.00  0.00     0.100 C 
BRANCH   2   3
ATOM      3  C   UNL     1      94.127  99.093  75.018  1.00  0.00     0.220 C 
ATOM      4  N   UNL     1      94.346  98.860  76.342  1.00  0.00    -0.352 N 
ATOM      5  H   UNL     1      93.762  99.400  76.967  1.00  0.00     0.163 HD
ATOM      6  O   UNL     1      94.807  98.530  74.129  1.00  0.00    -0.275 OA
BRANCH   4   7
ATOM      7  C   UNL     1      95.300  97.945  76.877  1.00  0.00     0.151 C 
BRANCH   7   8
ATOM      8  C   UNL     1      94.664  96.794  77.568  1.00  0.00    -0.025 A 
ATOM      9  C   UNL     1      93.138  94.866  77.544  1.00  0.00     0.160 A 
ATOM     10  C   UNL     1      93.414  94.631  78.908  1.00  0.00     0.157 A 
ATOM     11  C   UNL     1      93.757  95.949  76.887  1.00  0.00     0.056 A 
ATOM     12  C   UNL     1      94.328  95.455  79.591  1.00  0.00     0.050 A 
ATOM     13  C   UNL     1      94.957  96.522  78.923  1.00  0.00     0.009 A 
BRANCH   9  14
ATOM     14  O   UNL     1      92.318  94.018  76.847  1.00  0.00    -0.493 OA
ATOM     15  C   UNL     1      90.968  94.491  76.704  1.00  0.00     0.278 C 
ENDBRANCH   9  14
BRANCH  10  16
ATOM     16  O   UNL     1      92.817  93.617  79.584  1.00  0.00    -0.504 OA
ATOM     17  H   UNL     1      93.027  93.689  80.519  1.00  0.00     0.293 HD
ENDBRANCH  10  16
ENDBRANCH   7   8
ENDBRANCH   4   7
ENDBRANCH   2   3
ENDBRANCH   1   2
BRANCH   1  18
ATOM     18  C   UNL     1      92.809 100.710  72.157  1.00  0.00     0.001 C 
BRANCH  18  19
ATOM     19  C   UNL     1      91.314 101.106  72.055  1.00  0.00     0.004 C 
BRANCH  19  20
ATOM     20  C   UNL     1      90.425  99.880  71.706  1.00  0.00     0.027 C 
BRANCH  20  21
ATOM     21  C   UNL     1      89.842  99.940  70.376  1.00  0.00    -0.031 C 
ATOM     22  C   UNL     1      88.888  99.084  69.970  1.00  0.00    -0.028 C 
BRANCH  22  23
ATOM     23  C   UNL     1      88.278  99.121  68.644  1.00  0.00     0.005 C 
ATOM     24  C   UNL     1      88.470 100.522  68.003  1.00  0.00     0.012 C 
ATOM     25  C   UNL     1      88.851  97.983  67.757  1.00  0.00     0.012 C 
ENDBRANCH  22  23
ENDBRANCH  20  21
ENDBRANCH  19  20
ENDBRANCH  18  19
ENDBRANCH   1  18
TORSDOF 11
ENDMDL
MODEL 5
REMARK VINA RESULT:    -5.889      5.096      7.649
REMARK INTER + INTRA:         -10.158
REMARK INTER:                  -8.458
REMARK INTRA:                  -1.699
REMARK UNBOUND:                -0.653
REMARK SMILES COc1cc(CNC(=O)CCCCC/C=C/C(C)C)ccc1O
REMARK SMILES IDX 11 1 10 2 8 3 7 4 9 6 6 7 5 8 3 9 22 10 4 11 21 12 20 13
REMARK SMILES IDX 2 14 1 15 23 16 12 18 13 19 14 20 15 21 16 22 17 23 18 24
REMARK SMILES IDX 19 25
REMARK H PARENT 7 5 23 17
REMARK Flexibility Score: inf
ROOT
ATOM      1  C   UNL     1      92.977  94.525  77.513  1.00  0.00     0.010 C 
ENDROOT
BRANCH   1   2
ATOM      2  C   UNL     1      92.736  94.069  78.975  1.00  0.00     0.100 C 
BRANCH   2   3
ATOM      3  C   UNL     1      93.936  94.134  79.829  1.00  0.00     0.220 C 
ATOM      4  N   UNL     1      94.986  94.921  79.466  1.00  0.00    -0.352 N 
ATOM      5  H   UNL     1      94.887  95.365  78.563  1.00  0.00     0.163 HD
ATOM      6  O   UNL     1      93.940  93.483  80.901  1.00  0.00    -0.275 OA
BRANCH   4   7
ATOM      7  C   UNL     1      96.160  95.150  80.243  1.00  0.00     0.151 C 
BRANCH   7   8
ATOM      8  C   UNL     1      96.002  96.273  81.203  1.00  0.00    -0.025 A 
ATOM      9  C   UNL     1      95.900  98.686  81.669  1.00  0.00     0.160 A 
ATOM     10  C   UNL     1      95.752  98.412  83.047  1.00  0.00     0.157 A 
ATOM     11  C   UNL     1      96.033  97.616  80.760  1.00  0.00     0.056 A 
ATOM     12  C   UNL     1      95.703  97.080  83.496  1.00  0.00     0.050 A 
ATOM     13  C   UNL     1      95.816  96.018  82.580  1.00  0.00     0.009 A 
BRANCH   9  14
ATOM     14  O   UNL     1      95.862  99.976  81.211  1.00  0.00    -0.493 OA
ATOM     15  C   UNL     1      97.156 100.559  80.988  1.00  0.00     0.278 C 
ENDBRANCH   9  14
BRANCH  10  16
ATOM     16  O   UNL     1      95.650  99.413  83.957  1.00  0.00    -0.504 OA
ATOM     17  H   UNL     1      95.212  99.083  84.746  1.00  0.00     0.293 HD
ENDBRANCH  10  16
ENDBRANCH   7   8
ENDBRANCH   4   7
ENDBRANCH   2   3
ENDBRANCH   1   2
BRANCH   1  18
ATOM     18  C   UNL     1      92.147  95.791  77.177  1.00  0.00     0.001 C 
BRANCH  18  19
ATOM     19  C   UNL     1      92.806  96.704  76.113  1.00  0.00     0.004 C 
BRANCH  19  20
ATOM     20  C   UNL     1      94.229  96.204  75.739  1.00  0.00     0.027 C 
BRANCH  20  21
ATOM     21  C   UNL     1      95.279  97.172  76.008  1.00  0.00    -0.031 C 
ATOM     22  C   UNL     1      95.247  97.987  77.078  1.00  0.00    -0.028 C 
BRANCH  22  23
ATOM     23  C   UNL     1      96.288  98.966  77.379  1.00  0.00     0.005 C 
ATOM     24  C   UNL     1      97.360  98.975  76.257  1.00  0.00     0.012 C 
ATOM     25  C   UNL     1      95.658 100.368  77.604  1.00  0.00     0.012 C 
ENDBRANCH  22  23
ENDBRANCH  20  21
ENDBRANCH  19  20
ENDBRANCH  18  19
ENDBRANCH   1  18
TORSDOF 11
ENDMDL
MODEL 6
REMARK VINA RESULT:    -5.850     22.915     26.267
REMARK INTER + INTRA:         -10.094
REMARK INTER:                  -9.398
REMARK INTRA:                  -0.696
REMARK UNBOUND:                -0.653
REMARK SMILES COc1cc(CNC(=O)CCCCC/C=C/C(C)C)ccc1O
REMARK SMILES IDX 11 1 10 2 8 3 7 4 9 6 6 7 5 8 3 9 22 10 4 11 21 12 20 13
REMARK SMILES IDX 2 14 1 15 23 16 12 18 13 19 14 20 15 21 16 22 17 23 18 24
REMARK SMILES IDX 19 25
REMARK H PARENT 7 5 23 17
REMARK Flexibility Score: inf
ROOT
ATOM      1  C   UNL     1      71.295  83.107  67.129  1.00  0.00     0.010 C 
ENDROOT
BRANCH   1   2
ATOM      2  C   UNL     1      71.417  82.078  65.975  1.00  0.00     0.100 C 
BRANCH   2   3
ATOM      3  C   UNL     1      72.799  81.634  65.712  1.00  0.00     0.220 C 
ATOM      4  N   UNL     1      73.840  82.255  66.331  1.00  0.00    -0.352 N 
ATOM      5  H   UNL     1      73.581  83.053  66.894  1.00  0.00     0.163 HD
ATOM      6  O   UNL     1      72.974  80.658  64.944  1.00  0.00    -0.275 OA
BRANCH   4   7
ATOM      7  C   UNL     1      75.210  81.865  66.242  1.00  0.00     0.151 C 
BRANCH   7   8
ATOM      8  C   UNL     1      76.123  82.827  66.911  1.00  0.00    -0.025 A 
ATOM      9  C   UNL     1      76.517  84.593  68.577  1.00  0.00     0.160 A 
ATOM     10  C   UNL     1      77.858  84.698  68.147  1.00  0.00     0.157 A 
ATOM     11  C   UNL     1      75.659  83.666  67.951  1.00  0.00     0.056 A 
ATOM     12  C   UNL     1      78.335  83.857  67.125  1.00  0.00     0.050 A 
ATOM     13  C   UNL     1      77.477  82.921  66.519  1.00  0.00     0.009 A 
BRANCH   9  14
ATOM     14  O   UNL     1      76.067  85.345  69.630  1.00  0.00    -0.493 OA
ATOM     15  C   UNL     1      75.839  84.594  70.834  1.00  0.00     0.278 C 
ENDBRANCH   9  14
BRANCH  10  16
ATOM     16  O   UNL     1      78.709  85.597  68.704  1.00  0.00    -0.504 OA
ATOM     17  H   UNL     1      78.971  85.291  69.576  1.00  0.00     0.293 HD
ENDBRANCH  10  16
ENDBRANCH   7   8
ENDBRANCH   4   7
ENDBRANCH   2   3
ENDBRANCH   1   2
BRANCH   1  18
ATOM     18  C   UNL     1      70.065  82.801  68.023  1.00  0.00     0.001 C 
BRANCH  18  19
ATOM     19  C   UNL     1      69.627  83.994  68.910  1.00  0.00     0.004 C 
BRANCH  19  20
ATOM     20  C   UNL     1      69.160  83.515  70.313  1.00  0.00     0.027 C 
BRANCH  20  21
ATOM     21  C   UNL     1      67.793  83.025  70.338  1.00  0.00    -0.031 C 
ATOM     22  C   UNL     1      66.839  83.594  71.095  1.00  0.00    -0.028 C 
BRANCH  22  23
ATOM     23  C   UNL     1      65.455  83.128  71.138  1.00  0.00     0.005 C 
ATOM     24  C   UNL     1      65.389  81.607  70.838  1.00  0.00     0.012 C 
ATOM     25  C   UNL     1      64.810  83.488  72.505  1.00  0.00     0.012 C 
ENDBRANCH  22  23
ENDBRANCH  20  21
ENDBRANCH  19  20
ENDBRANCH  18  19
ENDBRANCH   1  18
TORSDOF 11
ENDMDL
MODEL 7
REMARK VINA RESULT:    -5.793     16.113     18.836
REMARK INTER + INTRA:         -10.001
REMARK INTER:                  -8.305
REMARK INTRA:                  -1.696
REMARK UNBOUND:                -0.653
REMARK SMILES COc1cc(CNC(=O)CCCCC/C=C/C(C)C)ccc1O
REMARK SMILES IDX 11 1 10 2 8 3 7 4 9 6 6 7 5 8 3 9 22 10 4 11 21 12 20 13
REMARK SMILES IDX 2 14 1 15 23 16 12 18 13 19 14 20 15 21 16 22 17 23 18 24
REMARK SMILES IDX 19 25
REMARK H PARENT 7 5 23 17
REMARK Flexibility Score: inf
ROOT
ATOM      1  C   UNL     1     102.029  80.682  82.087  1.00  0.00     0.010 C 
ENDROOT
BRANCH   1   2
ATOM      2  C   UNL     1     101.157  81.446  83.116  1.00  0.00     0.100 C 
BRANCH   2   3
ATOM      3  C   UNL     1      99.790  81.736  82.646  1.00  0.00     0.220 C 
ATOM      4  N   UNL     1      99.528  82.907  82.001  1.00  0.00    -0.352 N 
ATOM      5  H   UNL     1     100.310  83.546  81.955  1.00  0.00     0.163 HD
ATOM      6  O   UNL     1      98.903  80.867  82.820  1.00  0.00    -0.275 OA
BRANCH   4   7
ATOM      7  C   UNL     1      98.280  83.269  81.413  1.00  0.00     0.151 C 
BRANCH   7   8
ATOM      8  C   UNL     1      98.248  83.030  79.947  1.00  0.00    -0.025 A 
ATOM      9  C   UNL     1      98.938  81.725  77.979  1.00  0.00     0.160 A 
ATOM     10  C   UNL     1      98.225  82.611  77.143  1.00  0.00     0.157 A 
ATOM     11  C   UNL     1      98.952  81.946  79.372  1.00  0.00     0.056 A 
ATOM     12  C   UNL     1      97.507  83.682  77.705  1.00  0.00     0.050 A 
ATOM     13  C   UNL     1      97.510  83.884  79.098  1.00  0.00     0.009 A 
BRANCH   9  14
ATOM     14  O   UNL     1      99.567  80.629  77.451  1.00  0.00    -0.493 OA
ATOM     15  C   UNL     1      98.807  79.413  77.545  1.00  0.00     0.278 C 
ENDBRANCH   9  14
BRANCH  10  16
ATOM     16  O   UNL     1      98.210  82.450  75.796  1.00  0.00    -0.504 OA
ATOM     17  H   UNL     1      97.346  82.694  75.454  1.00  0.00     0.293 HD
ENDBRANCH  10  16
ENDBRANCH   7   8
ENDBRANCH   4   7
ENDBRANCH   2   3
ENDBRANCH   1   2
BRANCH   1  18
ATOM     18  C   UNL     1     102.640  81.651  81.042  1.00  0.00     0.001 C 
BRANCH  18  19
ATOM     19  C   UNL     1     102.543  81.137  79.584  1.00  0.00     0.004 C 
BRANCH  19  20
ATOM     20  C   UNL     1     103.808  81.515  78.764  1.00  0.00     0.027 C 
BRANCH  20  21
ATOM     21  C   UNL     1     103.515  81.990  77.422  1.00  0.00    -0.031 C 
ATOM     22  C   UNL     1     102.443  82.754  77.148  1.00  0.00    -0.028 C 
BRANCH  22  23
ATOM     23  C   UNL     1     102.124  83.251  75.812  1.00  0.00     0.005 C 
ATOM     24  C   UNL     1     101.557  82.105  74.933  1.00  0.00     0.012 C 
ATOM     25  C   UNL     1     101.151  84.458  75.907  1.00  0.00     0.012 C 
ENDBRANCH  22  23
ENDBRANCH  20  21
ENDBRANCH  19  20
ENDBRANCH  18  19
ENDBRANCH   1  18
TORSDOF 11
ENDMDL
MODEL 8
REMARK VINA RESULT:    -5.737     30.297     33.463
REMARK INTER + INTRA:          -9.912
REMARK INTER:                  -8.844
REMARK INTRA:                  -1.068
REMARK UNBOUND:                -0.653
REMARK SMILES COc1cc(CNC(=O)CCCCC/C=C/C(C)C)ccc1O
REMARK SMILES IDX 11 1 10 2 8 3 7 4 9 6 6 7 5 8 3 9 22 10 4 11 21 12 20 13
REMARK SMILES IDX 2 14 1 15 23 16 12 18 13 19 14 20 15 21 16 22 17 23 18 24
REMARK SMILES IDX 19 25
REMARK H PARENT 7 5 23 17
REMARK Flexibility Score: inf
ROOT
ATOM      1  C   UNL     1      63.821  81.308  72.742  1.00  0.00     0.010 C 
ENDROOT
BRANCH   1   2
ATOM      2  C   UNL     1      64.733  81.872  71.622  1.00  0.00     0.100 C 
BRANCH   2   3
ATOM      3  C   UNL     1      64.137  82.992  70.869  1.00  0.00     0.220 C 
ATOM      4  N   UNL     1      62.887  82.866  70.344  1.00  0.00    -0.352 N 
ATOM      5  H   UNL     1      62.474  81.950  70.453  1.00  0.00     0.163 HD
ATOM      6  O   UNL     1      64.791  84.057  70.768  1.00  0.00    -0.275 OA
BRANCH   4   7
ATOM      7  C   UNL     1      62.157  83.897  69.681  1.00  0.00     0.151 C 
BRANCH   7   8
ATOM      8  C   UNL     1      61.166  84.559  70.569  1.00  0.00    -0.025 A 
ATOM      9  C   UNL     1      60.606  85.669  72.691  1.00  0.00     0.160 A 
ATOM     10  C   UNL     1      59.259  85.771  72.281  1.00  0.00     0.157 A 
ATOM     11  C   UNL     1      61.546  85.056  71.838  1.00  0.00     0.056 A 
ATOM     12  C   UNL     1      58.873  85.295  71.014  1.00  0.00     0.050 A 
ATOM     13  C   UNL     1      59.822  84.702  70.160  1.00  0.00     0.009 A 
BRANCH   9  14
ATOM     14  O   UNL     1      61.009  86.207  73.884  1.00  0.00    -0.493 OA
ATOM     15  C   UNL     1      61.049  85.266  74.970  1.00  0.00     0.278 C 
ENDBRANCH   9  14
BRANCH  10  16
ATOM     16  O   UNL     1      58.317  86.327  73.084  1.00  0.00    -0.504 OA
ATOM     17  H   UNL     1      58.615  87.193  73.372  1.00  0.00     0.293 HD
ENDBRANCH  10  16
ENDBRANCH   7   8
ENDBRANCH   4   7
ENDBRANCH   2   3
ENDBRANCH   1   2
BRANCH   1  18
ATOM     18  C   UNL     1      63.267  82.444  73.638  1.00  0.00     0.001 C 
BRANCH  18  19
ATOM     19  C   UNL     1      64.355  83.167  74.471  1.00  0.00     0.004 C 
BRANCH  19  20
ATOM     20  C   UNL     1      64.037  83.110  75.992  1.00  0.00     0.027 C 
BRANCH  20  21
ATOM     21  C   UNL     1      65.168  83.449  76.838  1.00  0.00    -0.031 C 
ATOM     22  C   UNL     1      66.084  84.366  76.481  1.00  0.00    -0.028 C 
BRANCH  22  23
ATOM     23  C   UNL     1      67.229  84.733  77.312  1.00  0.00     0.005 C 
ATOM     24  C   UNL     1      67.732  86.152  76.937  1.00  0.00     0.012 C 
ATOM     25  C   UNL     1      66.860  84.616  78.816  1.00  0.00     0.012 C 
ENDBRANCH  22  23
ENDBRANCH  20  21
ENDBRANCH  19  20
ENDBRANCH  18  19
ENDBRANCH   1  18
TORSDOF 11
ENDMDL
MODEL 9
REMARK VINA RESULT:    -5.733      4.102      6.914
REMARK INTER + INTRA:          -9.906
REMARK INTER:                  -8.583
REMARK INTRA:                  -1.323
REMARK UNBOUND:                -0.653
REMARK SMILES COc1cc(CNC(=O)CCCCC/C=C/C(C)C)ccc1O
REMARK SMILES IDX 11 1 10 2 8 3 7 4 9 6 6 7 5 8 3 9 22 10 4 11 21 12 20 13
REMARK SMILES IDX 2 14 1 15 23 16 12 18 13 19 14 20 15 21 16 22 17 23 18 24
REMARK SMILES IDX 19 25
REMARK H PARENT 7 5 23 17
REMARK Flexibility Score: inf
ROOT
ATOM      1  C   UNL     1      92.716  94.555  77.463  1.00  0.00     0.010 C 
ENDROOT
BRANCH   1   2
ATOM      2  C   UNL     1      92.563  94.326  78.989  1.00  0.00     0.100 C 
BRANCH   2   3
ATOM      3  C   UNL     1      93.841  94.136  79.699  1.00  0.00     0.220 C 
ATOM      4  N   UNL     1      94.980  94.698  79.206  1.00  0.00    -0.352 N 
ATOM      5  H   UNL     1      94.870  95.162  78.315  1.00  0.00     0.163 HD
ATOM      6  O   UNL     1      93.837  93.488  80.772  1.00  0.00    -0.275 OA
BRANCH   4   7
ATOM      7  C   UNL     1      96.258  94.675  79.840  1.00  0.00     0.151 C 
BRANCH   7   8
ATOM      8  C   UNL     1      96.807  96.036  80.069  1.00  0.00    -0.025 A 
ATOM      9  C   UNL     1      96.715  98.467  79.704  1.00  0.00     0.160 A 
ATOM     10  C   UNL     1      97.893  98.625  80.467  1.00  0.00     0.157 A 
ATOM     11  C   UNL     1      96.187  97.175  79.503  1.00  0.00     0.056 A 
ATOM     12  C   UNL     1      98.508  97.502  81.048  1.00  0.00     0.050 A 
ATOM     13  C   UNL     1      97.964  96.218  80.860  1.00  0.00     0.009 A 
BRANCH   9  14
ATOM     14  O   UNL     1      96.060  99.562  79.206  1.00  0.00    -0.493 OA
ATOM     15  C   UNL     1      95.864  99.533  77.783  1.00  0.00     0.278 C 
ENDBRANCH   9  14
BRANCH  10  16
ATOM     16  O   UNL     1      98.449  99.848  80.659  1.00  0.00    -0.504 OA
ATOM     17  H   UNL     1      98.879 100.134  79.850  1.00  0.00     0.293 HD
ENDBRANCH  10  16
ENDBRANCH   7   8
ENDBRANCH   4   7
ENDBRANCH   2   3
ENDBRANCH   1   2
BRANCH   1  18
ATOM     18  C   UNL     1      92.063  95.893  77.030  1.00  0.00     0.001 C 
BRANCH  18  19
ATOM     19  C   UNL     1      92.966  96.760  76.117  1.00  0.00     0.004 C 
BRANCH  19  20
ATOM     20  C   UNL     1      94.422  96.217  76.079  1.00  0.00     0.027 C 
BRANCH  20  21
ATOM     21  C   UNL     1      95.204  96.719  74.962  1.00  0.00    -0.031 C 
ATOM     22  C   UNL     1      95.160  98.006  74.574  1.00  0.00    -0.028 C 
BRANCH  22  23
ATOM     23  C   UNL     1      95.937  98.543  73.460  1.00  0.00     0.005 C 
ATOM     24  C   UNL     1      96.363  97.399  72.501  1.00  0.00     0.012 C 
ATOM     25  C   UNL     1      95.134  99.654  72.731  1.00  0.00     0.012 C 
ENDBRANCH  22  23
ENDBRANCH  20  21
ENDBRANCH  19  20
ENDBRANCH  18  19
ENDBRANCH   1  18
TORSDOF 11
ENDMDL
MODEL 10
REMARK VINA RESULT:    -5.560     30.285     33.538
REMARK INTER + INTRA:          -9.626
REMARK INTER:                  -8.478
REMARK INTRA:                  -1.148
REMARK UNBOUND:                -0.653
REMARK SMILES COc1cc(CNC(=O)CCCCC/C=C/C(C)C)ccc1O
REMARK SMILES IDX 11 1 10 2 8 3 7 4 9 6 6 7 5 8 3 9 22 10 4 11 21 12 20 13
REMARK SMILES IDX 2 14 1 15 23 16 12 18 13 19 14 20 15 21 16 22 17 23 18 24
REMARK SMILES IDX 19 25
REMARK H PARENT 7 5 23 17
REMARK Flexibility Score: inf
ROOT
ATOM      1  C   UNL     1      63.454  81.286  72.719  1.00  0.00     0.010 C 
ENDROOT
BRANCH   1   2
ATOM      2  C   UNL     1      63.700  81.890  74.126  1.00  0.00     0.100 C 
BRANCH   2   3
ATOM      3  C   UNL     1      63.148  83.246  74.302  1.00  0.00     0.220 C 
ATOM      4  N   UNL     1      61.805  83.416  74.454  1.00  0.00    -0.352 N 
ATOM      5  H   UNL     1      61.259  82.571  74.359  1.00  0.00     0.163 HD
ATOM      6  O   UNL     1      63.944  84.213  74.347  1.00  0.00    -0.275 OA
BRANCH   4   7
ATOM      7  C   UNL     1      61.151  84.655  74.727  1.00  0.00     0.151 C 
BRANCH   7   8
ATOM      8  C   UNL     1      60.385  85.167  73.561  1.00  0.00    -0.025 A 
ATOM      9  C   UNL     1      59.923  85.175  71.146  1.00  0.00     0.160 A 
ATOM     10  C   UNL     1      58.957  86.188  71.335  1.00  0.00     0.157 A 
ATOM     11  C   UNL     1      60.635  84.680  72.257  1.00  0.00     0.056 A 
ATOM     12  C   UNL     1      58.689  86.668  72.630  1.00  0.00     0.050 A 
ATOM     13  C   UNL     1      59.390  86.154  73.736  1.00  0.00     0.009 A 
BRANCH   9  14
ATOM     14  O   UNL     1      60.130  84.640  69.902  1.00  0.00    -0.493 OA
ATOM     15  C   UNL     1      61.497  84.688  69.462  1.00  0.00     0.278 C 
ENDBRANCH   9  14
BRANCH  10  16
ATOM     16  O   UNL     1      58.271  86.712  70.289  1.00  0.00    -0.504 OA
ATOM     17  H   UNL     1      57.717  86.031  69.897  1.00  0.00     0.293 HD
ENDBRANCH  10  16
ENDBRANCH   7   8
ENDBRANCH   4   7
ENDBRANCH   2   3
ENDBRANCH   1   2
BRANCH   1  18
ATOM     18  C   UNL     1      63.297  82.399  71.652  1.00  0.00     0.001 C 
BRANCH  18  19
ATOM     19  C   UNL     1      64.214  82.211  70.417  1.00  0.00     0.004 C 
BRANCH  19  20
ATOM     20  C   UNL     1      65.623  81.701  70.829  1.00  0.00     0.027 C 
BRANCH  20  21
ATOM     21  C   UNL     1      66.640  82.739  70.839  1.00  0.00    -0.031 C 
ATOM     22  C   UNL     1      66.554  83.823  71.630  1.00  0.00    -0.028 C 
BRANCH  22  23
ATOM     23  C   UNL     1      67.561  84.880  71.668  1.00  0.00     0.005 C 
ATOM     24  C   UNL     1      67.313  85.816  72.880  1.00  0.00     0.012 C 
ATOM     25  C   UNL     1      68.986  84.264  71.680  1.00  0.00     0.012 C 
ENDBRANCH  22  23
ENDBRANCH  20  21
ENDBRANCH  19  20
ENDBRANCH  18  19
ENDBRANCH   1  18
TORSDOF 11
ENDMDL
