MODEL 1
REMARK VINA RESULT:    -6.446      0.000      0.000
REMARK INTER + INTRA:         -11.878
REMARK INTER:                 -10.780
REMARK INTRA:                  -1.098
REMARK UNBOUND:                -1.098
REMARK SMILES COc1cc(CNC(=O)CCCCCCCC(C)C)ccc1O
REMARK SMILES IDX 11 1 10 2 8 3 9 4 7 5 6 7 5 8 4 9 20 10 3 11 21 12 22 13
REMARK SMILES IDX 2 14 1 15 23 16 12 18 13 19 14 20 15 21 16 22 17 23 18 24
REMARK SMILES IDX 19 25
REMARK H PARENT 7 6 23 17
REMARK Flexibility Score: inf
ROOT
ATOM      1  C   UNL     1      94.332  98.254  75.198  1.00  0.00     0.010 C 
ENDROOT
BRANCH   1   2
ATOM      2  C   UNL     1      93.082  99.114  75.023  1.00  0.00     0.100 C 
BRANCH   2   3
ATOM      3  C   UNL     1      93.093  99.893  73.718  1.00  0.00     0.220 C 
ATOM      4  O   UNL     1      94.089 100.462  73.281  1.00  0.00    -0.275 OA
ATOM      5  N   UNL     1      91.849  99.879  73.105  1.00  0.00    -0.352 N 
ATOM      6  H   UNL     1      91.076  99.388  73.549  1.00  0.00     0.163 HD
BRANCH   5   7
ATOM      7  C   UNL     1      91.583 100.551  71.854  1.00  0.00     0.151 C 
BRANCH   7   8
ATOM      8  C   UNL     1      90.609  99.790  71.003  1.00  0.00    -0.025 A 
ATOM      9  C   UNL     1      90.170 100.337  69.804  1.00  0.00     0.056 A 
ATOM     10  C   UNL     1      90.156  98.545  71.424  1.00  0.00     0.009 A 
ATOM     11  C   UNL     1      89.264  99.630  69.014  1.00  0.00     0.160 A 
ATOM     12  C   UNL     1      89.250  97.838  70.633  1.00  0.00     0.050 A 
ATOM     13  C   UNL     1      88.803  98.380  69.428  1.00  0.00     0.157 A 
BRANCH  11  14
ATOM     14  O   UNL     1      88.835 100.170  67.838  1.00  0.00    -0.493 OA
ATOM     15  C   UNL     1      89.782 100.934  67.093  1.00  0.00     0.278 C 
ENDBRANCH  11  14
BRANCH  13  16
ATOM     16  O   UNL     1      87.920  97.679  68.665  1.00  0.00    -0.504 OA
ATOM     17  H   UNL     1      87.153  98.244  68.469  1.00  0.00     0.293 HD
ENDBRANCH  13  16
ENDBRANCH   7   8
ENDBRANCH   5   7
ENDBRANCH   2   3
ENDBRANCH   1   2
BRANCH   1  18
ATOM     18  C   UNL     1      94.815  98.168  76.648  1.00  0.00     0.001 C 
BRANCH  18  19
ATOM     19  C   UNL     1      94.621  96.812  77.333  1.00  0.00     0.000 C 
BRANCH  19  20
ATOM     20  C   UNL     1      94.401  95.661  76.347  1.00  0.00     0.000 C 
BRANCH  20  21
ATOM     21  C   UNL     1      93.023  95.003  76.476  1.00  0.00     0.000 C 
BRANCH  21  22
ATOM     22  C   UNL     1      91.912  95.990  76.848  1.00  0.00     0.003 C 
BRANCH  22  23
ATOM     23  C   UNL     1      90.967  95.464  77.946  1.00  0.00    -0.017 C 
ATOM     24  C   UNL     1      91.615  94.276  78.662  1.00  0.00     0.007 C 
ATOM     25  C   UNL     1      89.601  95.050  77.396  1.00  0.00     0.007 C 
ENDBRANCH  22  23
ENDBRANCH  21  22
ENDBRANCH  20  21
ENDBRANCH  19  20
ENDBRANCH  18  19
ENDBRANCH   1  18
TORSDOF 12
ENDMDL
MODEL 2
REMARK VINA RESULT:    -6.397      5.738     10.085
REMARK INTER + INTRA:         -11.795
REMARK INTER:                 -10.749
REMARK INTRA:                  -1.046
REMARK UNBOUND:                -1.098
REMARK SMILES COc1cc(CNC(=O)CCCCCCCC(C)C)ccc1O
REMARK SMILES IDX 11 1 10 2 8 3 9 4 7 5 6 7 5 8 4 9 20 10 3 11 21 12 22 13
REMARK SMILES IDX 2 14 1 15 23 16 12 18 13 19 14 20 15 21 16 22 17 23 18 24
REMARK SMILES IDX 19 25
REMARK H PARENT 7 6 23 17
REMARK Flexibility Score: inf
ROOT
ATOM      1  C   UNL     1      91.199  96.071  77.602  1.00  0.00     0.010 C 
ENDROOT
BRANCH   1   2
ATOM      2  C   UNL     1      92.168  96.448  76.483  1.00  0.00     0.100 C 
BRANCH   2   3
ATOM      3  C   UNL     1      93.595  96.024  76.786  1.00  0.00     0.220 C 
ATOM      4  O   UNL     1      94.177  95.131  76.175  1.00  0.00    -0.275 OA
ATOM      5  N   UNL     1      94.136  96.760  77.829  1.00  0.00    -0.352 N 
ATOM      6  H   UNL     1      93.573  97.474  78.284  1.00  0.00     0.163 HD
BRANCH   5   7
ATOM      7  C   UNL     1      95.478  96.551  78.323  1.00  0.00     0.151 C 
BRANCH   7   8
ATOM      8  C   UNL     1      95.487  95.799  79.622  1.00  0.00    -0.025 A 
ATOM      9  C   UNL     1      95.666  96.489  80.815  1.00  0.00     0.056 A 
ATOM     10  C   UNL     1      95.316  94.420  79.619  1.00  0.00     0.009 A 
ATOM     11  C   UNL     1      95.675  95.790  82.022  1.00  0.00     0.160 A 
ATOM     12  C   UNL     1      95.325  93.721  80.826  1.00  0.00     0.050 A 
ATOM     13  C   UNL     1      95.505  94.405  82.028  1.00  0.00     0.157 A 
BRANCH  11  14
ATOM     14  O   UNL     1      95.852  96.470  83.189  1.00  0.00    -0.493 OA
ATOM     15  C   UNL     1      97.196  96.753  83.577  1.00  0.00     0.278 C 
ENDBRANCH  11  14
BRANCH  13  16
ATOM     16  O   UNL     1      95.511  93.712  83.200  1.00  0.00    -0.504 OA
ATOM     17  H   UNL     1      94.967  92.912  83.097  1.00  0.00     0.293 HD
ENDBRANCH  13  16
ENDBRANCH   7   8
ENDBRANCH   5   7
ENDBRANCH   2   3
ENDBRANCH   1   2
BRANCH   1  18
ATOM     18  C   UNL     1      91.545  94.747  78.288  1.00  0.00     0.001 C 
BRANCH  18  19
ATOM     19  C   UNL     1      90.610  93.574  77.979  1.00  0.00     0.000 C 
BRANCH  19  20
ATOM     20  C   UNL     1      91.059  92.744  76.773  1.00  0.00     0.000 C 
BRANCH  20  21
ATOM     21  C   UNL     1      90.254  93.032  75.500  1.00  0.00     0.000 C 
BRANCH  21  22
ATOM     22  C   UNL     1      89.932  91.772  74.689  1.00  0.00     0.003 C 
BRANCH  22  23
ATOM     23  C   UNL     1      88.949  92.024  73.529  1.00  0.00    -0.017 C 
ATOM     24  C   UNL     1      88.510  93.490  73.533  1.00  0.00     0.007 C 
ATOM     25  C   UNL     1      87.718  91.119  73.598  1.00  0.00     0.007 C 
ENDBRANCH  22  23
ENDBRANCH  21  22
ENDBRANCH  20  21
ENDBRANCH  19  20
ENDBRANCH  18  19
ENDBRANCH   1  18
TORSDOF 12
ENDMDL
MODEL 3
REMARK VINA RESULT:    -6.179     20.790     23.507
REMARK INTER + INTRA:         -11.430
REMARK INTER:                 -10.038
REMARK INTRA:                  -1.393
REMARK UNBOUND:                -1.098
REMARK SMILES COc1cc(CNC(=O)CCCCCCCC(C)C)ccc1O
REMARK SMILES IDX 11 1 10 2 8 3 9 4 7 5 6 7 5 8 4 9 20 10 3 11 21 12 22 13
REMARK SMILES IDX 2 14 1 15 23 16 12 18 13 19 14 20 15 21 16 22 17 23 18 24
REMARK SMILES IDX 19 25
REMARK H PARENT 7 6 23 17
REMARK Flexibility Score: inf
ROOT
ATOM      1  C   UNL     1      76.525  85.288  66.115  1.00  0.00     0.010 C 
ENDROOT
BRANCH   1   2
ATOM      2  C   UNL     1      77.507  84.223  65.631  1.00  0.00     0.100 C 
BRANCH   2   3
ATOM      3  C   UNL     1      76.803  83.012  65.042  1.00  0.00     0.220 C 
ATOM      4  O   UNL     1      76.759  82.779  63.837  1.00  0.00    -0.275 OA
ATOM      5  N   UNL     1      76.224  82.229  66.029  1.00  0.00    -0.352 N 
ATOM      6  H   UNL     1      76.303  82.509  67.003  1.00  0.00     0.163 HD
BRANCH   5   7
ATOM      7  C   UNL     1      75.486  81.021  65.738  1.00  0.00     0.151 C 
BRANCH   7   8
ATOM      8  C   UNL     1      74.120  81.317  65.188  1.00  0.00    -0.025 A 
ATOM      9  C   UNL     1      73.240  82.105  65.920  1.00  0.00     0.056 A 
ATOM     10  C   UNL     1      73.751  80.798  63.953  1.00  0.00     0.009 A 
ATOM     11  C   UNL     1      71.971  82.379  65.409  1.00  0.00     0.160 A 
ATOM     12  C   UNL     1      72.481  81.072  63.442  1.00  0.00     0.050 A 
ATOM     13  C   UNL     1      71.591  81.862  64.170  1.00  0.00     0.157 A 
BRANCH  11  14
ATOM     14  O   UNL     1      71.111  83.151  66.129  1.00  0.00    -0.493 OA
ATOM     15  C   UNL     1      70.390  82.510  67.181  1.00  0.00     0.278 C 
ENDBRANCH  11  14
BRANCH  13  16
ATOM     16  O   UNL     1      70.356  82.123  63.660  1.00  0.00    -0.504 OA
ATOM     17  H   UNL     1      70.442  82.764  62.933  1.00  0.00     0.293 HD
ENDBRANCH  13  16
ENDBRANCH   7   8
ENDBRANCH   5   7
ENDBRANCH   2   3
ENDBRANCH   1   2
BRANCH   1  18
ATOM     18  C   UNL     1      76.983  86.719  65.822  1.00  0.00     0.001 C 
BRANCH  18  19
ATOM     19  C   UNL     1      77.259  87.593  67.050  1.00  0.00     0.000 C 
BRANCH  19  20
ATOM     20  C   UNL     1      78.180  86.923  68.074  1.00  0.00     0.000 C 
BRANCH  20  21
ATOM     21  C   UNL     1      77.569  86.833  69.477  1.00  0.00     0.000 C 
BRANCH  21  22
ATOM     22  C   UNL     1      77.629  85.424  70.075  1.00  0.00     0.003 C 
BRANCH  22  23
ATOM     23  C   UNL     1      76.258  84.721  70.128  1.00  0.00    -0.017 C 
ATOM     24  C   UNL     1      75.149  85.726  69.811  1.00  0.00     0.007 C 
ATOM     25  C   UNL     1      75.987  84.067  71.484  1.00  0.00     0.007 C 
ENDBRANCH  22  23
ENDBRANCH  21  22
ENDBRANCH  20  21
ENDBRANCH  19  20
ENDBRANCH  18  19
ENDBRANCH   1  18
TORSDOF 12
ENDMDL
MODEL 4
REMARK VINA RESULT:    -5.856     19.761     22.369
REMARK INTER + INTRA:         -10.890
REMARK INTER:                  -9.985
REMARK INTRA:                  -0.905
REMARK UNBOUND:                -1.098
REMARK SMILES COc1cc(CNC(=O)CCCCCCCC(C)C)ccc1O
REMARK SMILES IDX 11 1 10 2 8 3 9 4 7 5 6 7 5 8 4 9 20 10 3 11 21 12 22 13
REMARK SMILES IDX 2 14 1 15 23 16 12 18 13 19 14 20 15 21 16 22 17 23 18 24
REMARK SMILES IDX 19 25
REMARK H PARENT 7 6 23 17
REMARK Flexibility Score: inf
ROOT
ATOM      1  C   UNL     1      77.915  86.878  67.442  1.00  0.00     0.010 C 
ENDROOT
BRANCH   1   2
ATOM      2  C   UNL     1      78.227  85.527  68.083  1.00  0.00     0.100 C 
BRANCH   2   3
ATOM      3  C   UNL     1      78.215  84.391  67.074  1.00  0.00     0.220 C 
ATOM      4  O   UNL     1      78.828  83.339  67.236  1.00  0.00    -0.275 OA
ATOM      5  N   UNL     1      77.442  84.702  65.966  1.00  0.00    -0.352 N 
ATOM      6  H   UNL     1      76.979  85.606  65.914  1.00  0.00     0.163 HD
BRANCH   5   7
ATOM      7  C   UNL     1      77.269  83.797  64.853  1.00  0.00     0.151 C 
BRANCH   7   8
ATOM      8  C   UNL     1      76.053  82.932  65.016  1.00  0.00    -0.025 A 
ATOM      9  C   UNL     1      74.987  83.382  65.786  1.00  0.00     0.056 A 
ATOM     10  C   UNL     1      76.007  81.689  64.397  1.00  0.00     0.009 A 
ATOM     11  C   UNL     1      73.858  82.578  65.938  1.00  0.00     0.160 A 
ATOM     12  C   UNL     1      74.877  80.884  64.550  1.00  0.00     0.050 A 
ATOM     13  C   UNL     1      73.802  81.328  65.320  1.00  0.00     0.157 A 
BRANCH  11  14
ATOM     14  O   UNL     1      72.814  83.023  66.693  1.00  0.00    -0.493 OA
ATOM     15  C   UNL     1      71.895  83.915  66.066  1.00  0.00     0.278 C 
ENDBRANCH  11  14
BRANCH  13  16
ATOM     16  O   UNL     1      72.705  80.534  65.461  1.00  0.00    -0.504 OA
ATOM     17  H   UNL     1      72.430  80.215  64.584  1.00  0.00     0.293 HD
ENDBRANCH  13  16
ENDBRANCH   7   8
ENDBRANCH   5   7
ENDBRANCH   2   3
ENDBRANCH   1   2
BRANCH   1  18
ATOM     18  C   UNL     1      76.803  87.650  68.157  1.00  0.00     0.001 C 
BRANCH  18  19
ATOM     19  C   UNL     1      76.843  87.607  69.689  1.00  0.00     0.000 C 
BRANCH  19  20
ATOM     20  C   UNL     1      75.561  87.047  70.312  1.00  0.00     0.000 C 
BRANCH  20  21
ATOM     21  C   UNL     1      74.606  88.133  70.820  1.00  0.00     0.000 C 
BRANCH  21  22
ATOM     22  C   UNL     1      73.128  87.752  70.682  1.00  0.00     0.003 C 
BRANCH  22  23
ATOM     23  C   UNL     1      72.171  88.753  71.359  1.00  0.00    -0.017 C 
ATOM     24  C   UNL     1      72.743  89.182  72.712  1.00  0.00     0.007 C 
ATOM     25  C   UNL     1      70.766  88.180  71.553  1.00  0.00     0.007 C 
ENDBRANCH  22  23
ENDBRANCH  21  22
ENDBRANCH  20  21
ENDBRANCH  19  20
ENDBRANCH  18  19
ENDBRANCH   1  18
TORSDOF 12
ENDMDL
MODEL 5
REMARK VINA RESULT:    -5.783      7.106      9.887
REMARK INTER + INTRA:         -10.768
REMARK INTER:                  -9.510
REMARK INTRA:                  -1.258
REMARK UNBOUND:                -1.098
REMARK SMILES COc1cc(CNC(=O)CCCCCCCC(C)C)ccc1O
REMARK SMILES IDX 11 1 10 2 8 3 9 4 7 5 6 7 5 8 4 9 20 10 3 11 21 12 22 13
REMARK SMILES IDX 2 14 1 15 23 16 12 18 13 19 14 20 15 21 16 22 17 23 18 24
REMARK SMILES IDX 19 25
REMARK H PARENT 7 6 23 17
REMARK Flexibility Score: inf
ROOT
ATOM      1  C   UNL     1      94.353  94.489  79.922  1.00  0.00     0.010 C 
ENDROOT
BRANCH   1   2
ATOM      2  C   UNL     1      95.222  93.871  81.016  1.00  0.00     0.100 C 
BRANCH   2   3
ATOM      3  C   UNL     1      95.784  94.915  81.967  1.00  0.00     0.220 C 
ATOM      4  O   UNL     1      96.901  94.837  82.470  1.00  0.00    -0.275 OA
ATOM      5  N   UNL     1      94.878  95.941  82.190  1.00  0.00    -0.352 N 
ATOM      6  H   UNL     1      93.969  95.916  81.736  1.00  0.00     0.163 HD
BRANCH   5   7
ATOM      7  C   UNL     1      95.159  97.059  83.062  1.00  0.00     0.151 C 
BRANCH   7   8
ATOM      8  C   UNL     1      95.411  98.322  82.292  1.00  0.00    -0.025 A 
ATOM      9  C   UNL     1      95.825  98.250  80.967  1.00  0.00     0.056 A 
ATOM     10  C   UNL     1      95.227  99.552  82.912  1.00  0.00     0.009 A 
ATOM     11  C   UNL     1      96.059  99.424  80.252  1.00  0.00     0.160 A 
ATOM     12  C   UNL     1      95.462 100.727  82.196  1.00  0.00     0.050 A 
ATOM     13  C   UNL     1      95.878 100.663  80.867  1.00  0.00     0.157 A 
BRANCH  11  14
ATOM     14  O   UNL     1      96.466  99.349  78.954  1.00  0.00    -0.493 OA
ATOM     15  C   UNL     1      97.819  98.961  78.721  1.00  0.00     0.278 C 
ENDBRANCH  11  14
BRANCH  13  16
ATOM     16  O   UNL     1      96.102 101.817  80.179  1.00  0.00    -0.504 OA
ATOM     17  H   UNL     1      96.764 102.347  80.656  1.00  0.00     0.293 HD
ENDBRANCH  13  16
ENDBRANCH   7   8
ENDBRANCH   5   7
ENDBRANCH   2   3
ENDBRANCH   1   2
BRANCH   1  18
ATOM     18  C   UNL     1      95.042  94.549  78.556  1.00  0.00     0.001 C 
BRANCH  18  19
ATOM     19  C   UNL     1      94.124  94.822  77.360  1.00  0.00     0.000 C 
BRANCH  19  20
ATOM     20  C   UNL     1      93.380  96.157  77.461  1.00  0.00     0.000 C 
BRANCH  20  21
ATOM     21  C   UNL     1      91.860  96.020  77.318  1.00  0.00     0.000 C 
BRANCH  21  22
ATOM     22  C   UNL     1      91.274  94.872  78.146  1.00  0.00     0.003 C 
BRANCH  22  23
ATOM     23  C   UNL     1      90.376  93.922  77.330  1.00  0.00    -0.017 C 
ATOM     24  C   UNL     1      89.246  93.390  78.215  1.00  0.00     0.007 C 
ATOM     25  C   UNL     1      91.155  92.750  76.731  1.00  0.00     0.007 C 
ENDBRANCH  22  23
ENDBRANCH  21  22
ENDBRANCH  20  21
ENDBRANCH  19  20
ENDBRANCH  18  19
ENDBRANCH   1  18
TORSDOF 12
ENDMDL
MODEL 6
REMARK VINA RESULT:    -5.775      6.006      9.718
REMARK INTER + INTRA:         -10.755
REMARK INTER:                  -9.724
REMARK INTRA:                  -1.031
REMARK UNBOUND:                -1.098
REMARK SMILES COc1cc(CNC(=O)CCCCCCCC(C)C)ccc1O
REMARK SMILES IDX 11 1 10 2 8 3 9 4 7 5 6 7 5 8 4 9 20 10 3 11 21 12 22 13
REMARK SMILES IDX 2 14 1 15 23 16 12 18 13 19 14 20 15 21 16 22 17 23 18 24
REMARK SMILES IDX 19 25
REMARK H PARENT 7 6 23 17
REMARK Flexibility Score: inf
ROOT
ATOM      1  C   UNL     1      91.421  96.195  77.417  1.00  0.00     0.010 C 
ENDROOT
BRANCH   1   2
ATOM      2  C   UNL     1      92.467  96.289  76.308  1.00  0.00     0.100 C 
BRANCH   2   3
ATOM      3  C   UNL     1      93.880  96.080  76.826  1.00  0.00     0.220 C 
ATOM      4  O   UNL     1      94.439  94.987  76.837  1.00  0.00    -0.275 OA
ATOM      5  N   UNL     1      94.437  97.266  77.281  1.00  0.00    -0.352 N 
ATOM      6  H   UNL     1      93.892  98.124  77.243  1.00  0.00     0.163 HD
BRANCH   5   7
ATOM      7  C   UNL     1      95.770  97.345  77.833  1.00  0.00     0.151 C 
BRANCH   7   8
ATOM      8  C   UNL     1      95.752  97.454  79.330  1.00  0.00    -0.025 A 
ATOM      9  C   UNL     1      95.314  96.378  80.093  1.00  0.00     0.056 A 
ATOM     10  C   UNL     1      96.173  98.631  79.938  1.00  0.00     0.009 A 
ATOM     11  C   UNL     1      95.297  96.480  81.484  1.00  0.00     0.160 A 
ATOM     12  C   UNL     1      96.156  98.733  81.329  1.00  0.00     0.050 A 
ATOM     13  C   UNL     1      95.718  97.658  82.103  1.00  0.00     0.157 A 
BRANCH  11  14
ATOM     14  O   UNL     1      94.867  95.424  82.229  1.00  0.00    -0.493 OA
ATOM     15  C   UNL     1      95.795  94.361  82.443  1.00  0.00     0.278 C 
ENDBRANCH  11  14
BRANCH  13  16
ATOM     16  O   UNL     1      95.707  97.770  83.460  1.00  0.00    -0.504 OA
ATOM     17  H   UNL     1      95.846  96.890  83.851  1.00  0.00     0.293 HD
ENDBRANCH  13  16
ENDBRANCH   7   8
ENDBRANCH   5   7
ENDBRANCH   2   3
ENDBRANCH   1   2
BRANCH   1  18
ATOM     18  C   UNL     1      91.594  94.968  78.316  1.00  0.00     0.001 C 
BRANCH  18  19
ATOM     19  C   UNL     1      90.525  93.880  78.169  1.00  0.00     0.000 C 
BRANCH  19  20
ATOM     20  C   UNL     1      91.014  92.650  77.399  1.00  0.00     0.000 C 
BRANCH  20  21
ATOM     21  C   UNL     1      91.221  92.910  75.903  1.00  0.00     0.000 C 
BRANCH  21  22
ATOM     22  C   UNL     1      90.923  91.687  75.029  1.00  0.00     0.003 C 
BRANCH  22  23
ATOM     23  C   UNL     1      89.568  91.769  74.298  1.00  0.00    -0.017 C 
ATOM     24  C   UNL     1      89.735  91.315  72.846  1.00  0.00     0.007 C 
ATOM     25  C   UNL     1      88.969  93.176  74.331  1.00  0.00     0.007 C 
ENDBRANCH  22  23
ENDBRANCH  21  22
ENDBRANCH  20  21
ENDBRANCH  19  20
ENDBRANCH  18  19
ENDBRANCH   1  18
TORSDOF 12
ENDMDL
MODEL 7
REMARK VINA RESULT:    -5.764     20.023     22.883
REMARK INTER + INTRA:         -10.738
REMARK INTER:                  -8.821
REMARK INTRA:                  -1.917
REMARK UNBOUND:                -1.098
REMARK SMILES COc1cc(CNC(=O)CCCCCCCC(C)C)ccc1O
REMARK SMILES IDX 11 1 10 2 8 3 9 4 7 5 6 7 5 8 4 9 20 10 3 11 21 12 22 13
REMARK SMILES IDX 2 14 1 15 23 16 12 18 13 19 14 20 15 21 16 22 17 23 18 24
REMARK SMILES IDX 19 25
REMARK H PARENT 7 6 23 17
REMARK Flexibility Score: inf
ROOT
ATOM      1  C   UNL     1      76.393  84.390  69.327  1.00  0.00     0.010 C 
ENDROOT
BRANCH   1   2
ATOM      2  C   UNL     1      77.714  84.696  68.623  1.00  0.00     0.100 C 
BRANCH   2   3
ATOM      3  C   UNL     1      77.973  83.767  67.449  1.00  0.00     0.220 C 
ATOM      4  O   UNL     1      79.078  83.625  66.933  1.00  0.00    -0.275 OA
ATOM      5  N   UNL     1      76.814  83.120  67.045  1.00  0.00    -0.352 N 
ATOM      6  H   UNL     1      75.940  83.309  67.527  1.00  0.00     0.163 HD
BRANCH   5   7
ATOM      7  C   UNL     1      76.782  82.186  65.943  1.00  0.00     0.151 C 
BRANCH   7   8
ATOM      8  C   UNL     1      75.391  81.989  65.415  1.00  0.00    -0.025 A 
ATOM      9  C   UNL     1      74.351  82.769  65.908  1.00  0.00     0.056 A 
ATOM     10  C   UNL     1      75.156  81.029  64.439  1.00  0.00     0.009 A 
ATOM     11  C   UNL     1      73.059  82.586  65.417  1.00  0.00     0.160 A 
ATOM     12  C   UNL     1      73.863  80.845  63.949  1.00  0.00     0.050 A 
ATOM     13  C   UNL     1      72.814  81.623  64.437  1.00  0.00     0.157 A 
BRANCH  11  14
ATOM     14  O   UNL     1      72.042  83.352  65.903  1.00  0.00    -0.493 OA
ATOM     15  C   UNL     1      71.294  82.819  66.994  1.00  0.00     0.278 C 
ENDBRANCH  11  14
BRANCH  13  16
ATOM     16  O   UNL     1      71.556  81.435  63.950  1.00  0.00    -0.504 OA
ATOM     17  H   UNL     1      70.936  81.990  64.453  1.00  0.00     0.293 HD
ENDBRANCH  13  16
ENDBRANCH   7   8
ENDBRANCH   5   7
ENDBRANCH   2   3
ENDBRANCH   1   2
BRANCH   1  18
ATOM     18  C   UNL     1      75.589  85.642  69.688  1.00  0.00     0.001 C 
BRANCH  18  19
ATOM     19  C   UNL     1      76.414  86.856  70.130  1.00  0.00     0.000 C 
BRANCH  19  20
ATOM     20  C   UNL     1      75.788  88.193  69.722  1.00  0.00     0.000 C 
BRANCH  20  21
ATOM     21  C   UNL     1      74.911  88.099  68.469  1.00  0.00     0.000 C 
BRANCH  21  22
ATOM     22  C   UNL     1      75.523  88.793  67.248  1.00  0.00     0.003 C 
BRANCH  22  23
ATOM     23  C   UNL     1      76.126  87.813  66.222  1.00  0.00    -0.017 C 
ATOM     24  C   UNL     1      75.306  86.521  66.197  1.00  0.00     0.007 C 
ATOM     25  C   UNL     1      77.591  87.486  66.515  1.00  0.00     0.007 C 
ENDBRANCH  22  23
ENDBRANCH  21  22
ENDBRANCH  20  21
ENDBRANCH  19  20
ENDBRANCH  18  19
ENDBRANCH   1  18
TORSDOF 12
ENDMDL
MODEL 8
REMARK VINA RESULT:    -5.742      7.220     10.183
REMARK INTER + INTRA:         -10.700
REMARK INTER:                  -9.648
REMARK INTRA:                  -1.052
REMARK UNBOUND:                -1.098
REMARK SMILES COc1cc(CNC(=O)CCCCCCCC(C)C)ccc1O
REMARK SMILES IDX 11 1 10 2 8 3 9 4 7 5 6 7 5 8 4 9 20 10 3 11 21 12 22 13
REMARK SMILES IDX 2 14 1 15 23 16 12 18 13 19 14 20 15 21 16 22 17 23 18 24
REMARK SMILES IDX 19 25
REMARK H PARENT 7 6 23 17
REMARK Flexibility Score: inf
ROOT
ATOM      1  C   UNL     1      94.065  95.149  78.972  1.00  0.00     0.010 C 
ENDROOT
BRANCH   1   2
ATOM      2  C   UNL     1      94.933  94.267  79.866  1.00  0.00     0.100 C 
BRANCH   2   3
ATOM      3  C   UNL     1      95.584  95.050  80.994  1.00  0.00     0.220 C 
ATOM      4  O   UNL     1      96.740  94.863  81.365  1.00  0.00    -0.275 OA
ATOM      5  N   UNL     1      94.710  95.978  81.541  1.00  0.00    -0.352 N 
ATOM      6  H   UNL     1      93.765  96.054  81.175  1.00  0.00     0.163 HD
BRANCH   5   7
ATOM      7  C   UNL     1      95.075  96.848  82.635  1.00  0.00     0.151 C 
BRANCH   7   8
ATOM      8  C   UNL     1      95.346  98.249  82.171  1.00  0.00    -0.025 A 
ATOM      9  C   UNL     1      95.085  99.318  83.021  1.00  0.00     0.056 A 
ATOM     10  C   UNL     1      95.856  98.465  80.897  1.00  0.00     0.009 A 
ATOM     11  C   UNL     1      95.337 100.620  82.590  1.00  0.00     0.160 A 
ATOM     12  C   UNL     1      96.107  99.768  80.465  1.00  0.00     0.050 A 
ATOM     13  C   UNL     1      95.848 100.845  81.311  1.00  0.00     0.157 A 
BRANCH  11  14
ATOM     14  O   UNL     1      95.079 101.665  83.425  1.00  0.00    -0.493 OA
ATOM     15  C   UNL     1      93.721 102.090  83.531  1.00  0.00     0.278 C 
ENDBRANCH  11  14
BRANCH  13  16
ATOM     16  O   UNL     1      96.098 102.112  80.879  1.00  0.00    -0.504 OA
ATOM     17  H   UNL     1      95.421 102.710  81.241  1.00  0.00     0.293 HD
ENDBRANCH  13  16
ENDBRANCH   7   8
ENDBRANCH   5   7
ENDBRANCH   2   3
ENDBRANCH   1   2
BRANCH   1  18
ATOM     18  C   UNL     1      94.485  95.127  77.500  1.00  0.00     0.001 C 
BRANCH  18  19
ATOM     19  C   UNL     1      93.358  95.337  76.483  1.00  0.00     0.000 C 
BRANCH  19  20
ATOM     20  C   UNL     1      92.458  96.530  76.816  1.00  0.00     0.000 C 
BRANCH  20  21
ATOM     21  C   UNL     1      91.163  96.136  77.535  1.00  0.00     0.000 C 
BRANCH  21  22
ATOM     22  C   UNL     1      90.492  94.895  76.939  1.00  0.00     0.003 C 
BRANCH  22  23
ATOM     23  C   UNL     1      90.638  93.636  77.816  1.00  0.00    -0.017 C 
ATOM     24  C   UNL     1      91.200  92.485  76.979  1.00  0.00     0.007 C 
ATOM     25  C   UNL     1      89.315  93.210  78.455  1.00  0.00     0.007 C 
ENDBRANCH  22  23
ENDBRANCH  21  22
ENDBRANCH  20  21
ENDBRANCH  19  20
ENDBRANCH  18  19
ENDBRANCH   1  18
TORSDOF 12
ENDMDL
MODEL 9
REMARK VINA RESULT:    -5.732     29.834     32.763
REMARK INTER + INTRA:         -10.683
REMARK INTER:                  -9.054
REMARK INTRA:                  -1.629
REMARK UNBOUND:                -1.098
REMARK SMILES COc1cc(CNC(=O)CCCCCCCC(C)C)ccc1O
REMARK SMILES IDX 11 1 10 2 8 3 9 4 7 5 6 7 5 8 4 9 20 10 3 11 21 12 22 13
REMARK SMILES IDX 2 14 1 15 23 16 12 18 13 19 14 20 15 21 16 22 17 23 18 24
REMARK SMILES IDX 19 25
REMARK H PARENT 7 6 23 17
REMARK Flexibility Score: inf
ROOT
ATOM      1  C   UNL     1      83.847  64.406  75.312  1.00  0.00     0.010 C 
ENDROOT
BRANCH   1   2
ATOM      2  C   UNL     1      85.286  63.900  75.222  1.00  0.00     0.100 C 
BRANCH   2   3
ATOM      3  C   UNL     1      85.933  64.230  73.887  1.00  0.00     0.220 C 
ATOM      4  O   UNL     1      85.801  63.534  72.884  1.00  0.00    -0.275 OA
ATOM      5  N   UNL     1      86.682  65.395  73.958  1.00  0.00    -0.352 N 
ATOM      6  H   UNL     1      86.742  65.900  74.838  1.00  0.00     0.163 HD
BRANCH   5   7
ATOM      7  C   UNL     1      87.409  65.929  72.829  1.00  0.00     0.151 C 
BRANCH   7   8
ATOM      8  C   UNL     1      86.787  67.192  72.308  1.00  0.00    -0.025 A 
ATOM      9  C   UNL     1      87.170  68.417  72.840  1.00  0.00     0.056 A 
ATOM     10  C   UNL     1      85.834  67.122  71.299  1.00  0.00     0.009 A 
ATOM     11  C   UNL     1      86.592  69.591  72.355  1.00  0.00     0.160 A 
ATOM     12  C   UNL     1      85.255  68.296  70.815  1.00  0.00     0.050 A 
ATOM     13  C   UNL     1      85.634  69.530  71.343  1.00  0.00     0.157 A 
BRANCH  11  14
ATOM     14  O   UNL     1      86.970  70.790  72.879  1.00  0.00    -0.493 OA
ATOM     15  C   UNL     1      88.010  70.771  73.856  1.00  0.00     0.278 C 
ENDBRANCH  11  14
BRANCH  13  16
ATOM     16  O   UNL     1      85.063  70.669  70.861  1.00  0.00    -0.504 OA
ATOM     17  H   UNL     1      85.021  71.329  71.575  1.00  0.00     0.293 HD
ENDBRANCH  13  16
ENDBRANCH   7   8
ENDBRANCH   5   7
ENDBRANCH   2   3
ENDBRANCH   1   2
BRANCH   1  18
ATOM     18  C   UNL     1      83.741  65.931  75.397  1.00  0.00     0.001 C 
BRANCH  18  19
ATOM     19  C   UNL     1      82.762  66.584  74.416  1.00  0.00     0.000 C 
BRANCH  19  20
ATOM     20  C   UNL     1      81.666  65.632  73.930  1.00  0.00     0.000 C 
BRANCH  20  21
ATOM     21  C   UNL     1      81.528  65.587  72.404  1.00  0.00     0.000 C 
BRANCH  21  22
ATOM     22  C   UNL     1      82.842  65.262  71.686  1.00  0.00     0.003 C 
BRANCH  22  23
ATOM     23  C   UNL     1      82.652  64.852  70.213  1.00  0.00    -0.017 C 
ATOM     24  C   UNL     1      81.174  64.965  69.831  1.00  0.00     0.007 C 
ATOM     25  C   UNL     1      83.149  63.434  69.930  1.00  0.00     0.007 C 
ENDBRANCH  22  23
ENDBRANCH  21  22
ENDBRANCH  20  21
ENDBRANCH  19  20
ENDBRANCH  18  19
ENDBRANCH   1  18
TORSDOF 12
ENDMDL
MODEL 10
REMARK VINA RESULT:    -5.425     20.584     23.557
REMARK INTER + INTRA:         -10.170
REMARK INTER:                  -8.853
REMARK INTRA:                  -1.317
REMARK UNBOUND:                -1.098
REMARK SMILES COc1cc(CNC(=O)CCCCCCCC(C)C)ccc1O
REMARK SMILES IDX 11 1 10 2 8 3 9 4 7 5 6 7 5 8 4 9 20 10 3 11 21 12 22 13
REMARK SMILES IDX 2 14 1 15 23 16 12 18 13 19 14 20 15 21 16 22 17 23 18 24
REMARK SMILES IDX 19 25
REMARK H PARENT 7 6 23 17
REMARK Flexibility Score: inf
ROOT
ATOM      1  C   UNL     1      76.290  84.017  66.051  1.00  0.00     0.010 C 
ENDROOT
BRANCH   1   2
ATOM      2  C   UNL     1      77.625  83.757  66.745  1.00  0.00     0.100 C 
BRANCH   2   3
ATOM      3  C   UNL     1      77.762  84.532  68.045  1.00  0.00     0.220 C 
ATOM      4  O   UNL     1      78.811  85.055  68.410  1.00  0.00    -0.275 OA
ATOM      5  N   UNL     1      76.568  84.559  68.750  1.00  0.00    -0.352 N 
ATOM      6  H   UNL     1      75.751  84.086  68.373  1.00  0.00     0.163 HD
BRANCH   5   7
ATOM      7  C   UNL     1      76.426  85.224  70.025  1.00  0.00     0.151 C 
BRANCH   7   8
ATOM      8  C   UNL     1      75.155  86.017  70.106  1.00  0.00    -0.025 A 
ATOM      9  C   UNL     1      73.966  85.459  69.651  1.00  0.00     0.056 A 
ATOM     10  C   UNL     1      75.179  87.302  70.635  1.00  0.00     0.009 A 
ATOM     11  C   UNL     1      72.784  86.197  69.726  1.00  0.00     0.160 A 
ATOM     12  C   UNL     1      73.997  88.040  70.710  1.00  0.00     0.050 A 
ATOM     13  C   UNL     1      72.800  87.488  70.255  1.00  0.00     0.157 A 
BRANCH  11  14
ATOM     14  O   UNL     1      71.621  85.647  69.279  1.00  0.00    -0.493 OA
ATOM     15  C   UNL     1      71.030  84.633  70.090  1.00  0.00     0.278 C 
ENDBRANCH  11  14
BRANCH  13  16
ATOM     16  O   UNL     1      71.653  88.217  70.335  1.00  0.00    -0.504 OA
ATOM     17  H   UNL     1      71.880  89.163  70.354  1.00  0.00     0.293 HD
ENDBRANCH  13  16
ENDBRANCH   7   8
ENDBRANCH   5   7
ENDBRANCH   2   3
ENDBRANCH   1   2
BRANCH   1  18
ATOM     18  C   UNL     1      75.402  82.773  65.950  1.00  0.00     0.001 C 
BRANCH  18  19
ATOM     19  C   UNL     1      76.104  81.491  65.490  1.00  0.00     0.000 C 
BRANCH  19  20
ATOM     20  C   UNL     1      76.359  81.450  63.980  1.00  0.00     0.000 C 
BRANCH  20  21
ATOM     21  C   UNL     1      75.102  81.713  63.143  1.00  0.00     0.000 C 
BRANCH  21  22
ATOM     22  C   UNL     1      74.201  80.483  62.999  1.00  0.00     0.003 C 
BRANCH  22  23
ATOM     23  C   UNL     1      72.718  80.768  63.308  1.00  0.00    -0.017 C 
ATOM     24  C   UNL     1      72.404  82.239  63.023  1.00  0.00     0.007 C 
ATOM     25  C   UNL     1      72.346  80.434  64.753  1.00  0.00     0.007 C 
ENDBRANCH  22  23
ENDBRANCH  21  22
ENDBRANCH  20  21
ENDBRANCH  19  20
ENDBRANCH  18  19
ENDBRANCH   1  18
TORSDOF 12
ENDMDL
