MODEL 1
REMARK VINA RESULT:    -5.777      0.000      0.000
REMARK INTER + INTRA:         -10.222
REMARK INTER:                  -8.985
REMARK INTRA:                  -1.237
REMARK UNBOUND:                -1.237
REMARK SMILES COc1cc(CNC(=O)CCCCCC(C)C)ccc1O
REMARK SMILES IDX 10 1 8 2 7 3 9 5 6 6 5 7 3 8 20 9 4 10 19 11 18 12 2 13 1 14
REMARK SMILES IDX 21 15 11 17 12 18 13 19 14 20 15 21 16 22 17 23
REMARK H PARENT 7 4 21 16
REMARK Flexibility Score: inf
ROOT
ATOM      1  C   UNL     1      95.472  97.451  80.799  1.00  0.00     0.100 C 
ENDROOT
BRANCH   1   2
ATOM      2  C   UNL     1      94.750  96.163  80.738  1.00  0.00     0.220 C 
ATOM      3  N   UNL     1      94.056  95.837  79.611  1.00  0.00    -0.352 N 
ATOM      4  H   UNL     1      93.978  96.580  78.931  1.00  0.00     0.163 HD
ATOM      5  O   UNL     1      94.826  95.376  81.713  1.00  0.00    -0.275 OA
BRANCH   3   6
ATOM      6  C   UNL     1      93.463  94.565  79.350  1.00  0.00     0.151 C 
BRANCH   6   7
ATOM      7  C   UNL     1      92.284  94.644  78.446  1.00  0.00    -0.025 A 
ATOM      8  C   UNL     1      90.685  93.557  76.927  1.00  0.00     0.160 A 
ATOM      9  C   UNL     1      89.999  94.781  76.776  1.00  0.00     0.157 A 
ATOM     10  C   UNL     1      91.833  93.501  77.745  1.00  0.00     0.056 A 
ATOM     11  C   UNL     1      90.454  95.931  77.447  1.00  0.00     0.050 A 
ATOM     12  C   UNL     1      91.584  95.862  78.280  1.00  0.00     0.009 A 
BRANCH   8  13
ATOM     13  O   UNL     1      90.270  92.431  76.266  1.00  0.00    -0.493 OA
ATOM     14  C   UNL     1      91.255  91.887  75.366  1.00  0.00     0.278 C 
ENDBRANCH   8  13
BRANCH   9  15
ATOM     15  O   UNL     1      88.896  94.847  75.990  1.00  0.00    -0.504 OA
ATOM     16  H   UNL     1      88.724  93.984  75.606  1.00  0.00     0.293 HD
ENDBRANCH   9  15
ENDBRANCH   6   7
ENDBRANCH   3   6
ENDBRANCH   1   2
BRANCH   1  17
ATOM     17  C   UNL     1      96.580  97.613  79.724  1.00  0.00     0.010 C 
BRANCH  17  18
ATOM     18  C   UNL     1      96.405  98.929  78.916  1.00  0.00     0.001 C 
BRANCH  18  19
ATOM     19  C   UNL     1      95.636  98.736  77.582  1.00  0.00     0.000 C 
BRANCH  19  20
ATOM     20  C   UNL     1      95.736  97.276  77.051  1.00  0.00     0.003 C 
BRANCH  20  21
ATOM     21  C   UNL     1      94.734  96.921  75.905  1.00  0.00    -0.017 C 
ATOM     22  C   UNL     1      95.470  96.816  74.537  1.00  0.00     0.007 C 
ATOM     23  C   UNL     1      93.553  97.929  75.800  1.00  0.00     0.007 C 
ENDBRANCH  20  21
ENDBRANCH  19  20
ENDBRANCH  18  19
ENDBRANCH  17  18
ENDBRANCH   1  17
TORSDOF 10
ENDMDL
MODEL 2
REMARK VINA RESULT:    -5.584     21.128     24.619
REMARK INTER + INTRA:          -9.923
REMARK INTER:                  -8.895
REMARK INTRA:                  -1.027
REMARK UNBOUND:                -1.237
REMARK SMILES COc1cc(CNC(=O)CCCCCC(C)C)ccc1O
REMARK SMILES IDX 10 1 8 2 7 3 9 5 6 6 5 7 3 8 20 9 4 10 19 11 18 12 2 13 1 14
REMARK SMILES IDX 21 15 11 17 12 18 13 19 14 20 15 21 16 22 17 23
REMARK H PARENT 7 4 21 16
REMARK Flexibility Score: inf
ROOT
ATOM      1  C   UNL     1      76.394  86.491  66.050  1.00  0.00     0.100 C 
ENDROOT
BRANCH   1   2
ATOM      2  C   UNL     1      76.803  85.267  65.330  1.00  0.00     0.220 C 
ATOM      3  N   UNL     1      76.824  84.076  65.993  1.00  0.00    -0.352 N 
ATOM      4  H   UNL     1      76.680  84.142  66.990  1.00  0.00     0.163 HD
ATOM      5  O   UNL     1      77.082  85.343  64.109  1.00  0.00    -0.275 OA
BRANCH   3   6
ATOM      6  C   UNL     1      77.029  82.801  65.385  1.00  0.00     0.151 C 
BRANCH   6   7
ATOM      7  C   UNL     1      75.759  82.104  65.046  1.00  0.00    -0.025 A 
ATOM      8  C   UNL     1      73.395  81.627  65.527  1.00  0.00     0.160 A 
ATOM      9  C   UNL     1      73.322  80.830  64.365  1.00  0.00     0.157 A 
ATOM     10  C   UNL     1      74.617  82.244  65.870  1.00  0.00     0.056 A 
ATOM     11  C   UNL     1      74.458  80.663  63.552  1.00  0.00     0.050 A 
ATOM     12  C   UNL     1      75.666  81.299  63.887  1.00  0.00     0.009 A 
BRANCH   8  13
ATOM     13  O   UNL     1      72.305  81.787  66.342  1.00  0.00    -0.493 OA
ATOM     14  C   UNL     1      71.697  83.090  66.251  1.00  0.00     0.278 C 
ENDBRANCH   8  13
BRANCH   9  15
ATOM     15  O   UNL     1      72.152  80.232  64.027  1.00  0.00    -0.504 OA
ATOM     16  H   UNL     1      71.853  79.680  64.753  1.00  0.00     0.293 HD
ENDBRANCH   9  15
ENDBRANCH   6   7
ENDBRANCH   3   6
ENDBRANCH   1   2
BRANCH   1  17
ATOM     17  C   UNL     1      77.463  87.042  67.031  1.00  0.00     0.010 C 
BRANCH  17  18
ATOM     18  C   UNL     1      76.811  87.719  68.268  1.00  0.00     0.001 C 
BRANCH  18  19
ATOM     19  C   UNL     1      77.115  86.988  69.602  1.00  0.00     0.000 C 
BRANCH  19  20
ATOM     20  C   UNL     1      75.864  86.259  70.172  1.00  0.00     0.003 C 
BRANCH  20  21
ATOM     21  C   UNL     1      75.939  84.697  70.141  1.00  0.00    -0.017 C 
ATOM     22  C   UNL     1      75.831  84.108  71.579  1.00  0.00     0.007 C 
ATOM     23  C   UNL     1      77.226  84.168  69.443  1.00  0.00     0.007 C 
ENDBRANCH  20  21
ENDBRANCH  19  20
ENDBRANCH  18  19
ENDBRANCH  17  18
ENDBRANCH   1  17
TORSDOF 10
ENDMDL
MODEL 3
REMARK VINA RESULT:    -5.332      3.265      7.542
REMARK INTER + INTRA:          -9.530
REMARK INTER:                  -8.724
REMARK INTRA:                  -0.806
REMARK UNBOUND:                -1.237
REMARK SMILES COc1cc(CNC(=O)CCCCCC(C)C)ccc1O
REMARK SMILES IDX 10 1 8 2 7 3 9 5 6 6 5 7 3 8 20 9 4 10 19 11 18 12 2 13 1 14
REMARK SMILES IDX 21 15 11 17 12 18 13 19 14 20 15 21 16 22 17 23
REMARK H PARENT 7 4 21 16
REMARK Flexibility Score: inf
ROOT
ATOM      1  C   UNL     1      95.515  93.933  79.443  1.00  0.00     0.100 C 
ENDROOT
BRANCH   1   2
ATOM      2  C   UNL     1      95.453  94.062  80.914  1.00  0.00     0.220 C 
ATOM      3  N   UNL     1      95.981  95.167  81.511  1.00  0.00    -0.352 N 
ATOM      4  H   UNL     1      96.507  95.772  80.897  1.00  0.00     0.163 HD
ATOM      5  O   UNL     1      94.876  93.168  81.580  1.00  0.00    -0.275 OA
BRANCH   3   6
ATOM      6  C   UNL     1      95.839  95.501  82.892  1.00  0.00     0.151 C 
BRANCH   6   7
ATOM      7  C   UNL     1      95.806  96.968  83.138  1.00  0.00    -0.025 A 
ATOM      8  C   UNL     1      96.418  98.915  84.510  1.00  0.00     0.160 A 
ATOM      9  C   UNL     1      95.800  99.768  83.571  1.00  0.00     0.157 A 
ATOM     10  C   UNL     1      96.401  97.520  84.297  1.00  0.00     0.056 A 
ATOM     11  C   UNL     1      95.182  99.228  82.428  1.00  0.00     0.050 A 
ATOM     12  C   UNL     1      95.189  97.840  82.210  1.00  0.00     0.009 A 
BRANCH   8  13
ATOM     13  O   UNL     1      97.008  99.419  85.639  1.00  0.00    -0.493 OA
ATOM     14  C   UNL     1      96.286  99.130  86.852  1.00  0.00     0.278 C 
ENDBRANCH   8  13
BRANCH   9  15
ATOM     15  O   UNL     1      95.809 101.111  83.767  1.00  0.00    -0.504 OA
ATOM     16  H   UNL     1      96.709 101.438  83.700  1.00  0.00     0.293 HD
ENDBRANCH   9  15
ENDBRANCH   6   7
ENDBRANCH   3   6
ENDBRANCH   1   2
BRANCH   1  17
ATOM     17  C   UNL     1      94.199  94.315  78.713  1.00  0.00     0.010 C 
BRANCH  17  18
ATOM     18  C   UNL     1      94.479  95.098  77.400  1.00  0.00     0.001 C 
BRANCH  18  19
ATOM     19  C   UNL     1      93.263  95.144  76.439  1.00  0.00     0.000 C 
BRANCH  19  20
ATOM     20  C   UNL     1      92.233  94.016  76.738  1.00  0.00     0.003 C 
BRANCH  20  21
ATOM     21  C   UNL     1      90.841  94.511  77.250  1.00  0.00    -0.017 C 
ATOM     22  C   UNL     1      90.892  96.022  77.621  1.00  0.00     0.007 C 
ATOM     23  C   UNL     1      90.312  93.683  78.457  1.00  0.00     0.007 C 
ENDBRANCH  20  21
ENDBRANCH  19  20
ENDBRANCH  18  19
ENDBRANCH  17  18
ENDBRANCH   1  17
TORSDOF 10
ENDMDL
MODEL 4
REMARK VINA RESULT:    -5.307     13.185     15.187
REMARK INTER + INTRA:          -9.491
REMARK INTER:                  -8.726
REMARK INTRA:                  -0.765
REMARK UNBOUND:                -1.237
REMARK SMILES COc1cc(CNC(=O)CCCCCC(C)C)ccc1O
REMARK SMILES IDX 10 1 8 2 7 3 9 5 6 6 5 7 3 8 20 9 4 10 19 11 18 12 2 13 1 14
REMARK SMILES IDX 21 15 11 17 12 18 13 19 14 20 15 21 16 22 17 23
REMARK H PARENT 7 4 21 16
REMARK Flexibility Score: inf
ROOT
ATOM      1  C   UNL     1      99.129  81.793  79.639  1.00  0.00     0.100 C 
ENDROOT
BRANCH   1   2
ATOM      2  C   UNL     1      99.468  81.460  81.038  1.00  0.00     0.220 C 
ATOM      3  N   UNL     1      98.867  82.142  82.053  1.00  0.00    -0.352 N 
ATOM      4  H   UNL     1      98.314  82.936  81.763  1.00  0.00     0.163 HD
ATOM      5  O   UNL     1     100.274  80.524  81.263  1.00  0.00    -0.275 OA
BRANCH   3   6
ATOM      6  C   UNL     1      98.968  81.811  83.439  1.00  0.00     0.151 C 
BRANCH   6   7
ATOM      7  C   UNL     1      98.401  82.858  84.332  1.00  0.00    -0.025 A 
ATOM      8  C   UNL     1      98.419  84.076  86.467  1.00  0.00     0.160 A 
ATOM      9  C   UNL     1      97.365  84.894  86.007  1.00  0.00     0.157 A 
ATOM     10  C   UNL     1      98.917  83.052  85.635  1.00  0.00     0.056 A 
ATOM     11  C   UNL     1      96.826  84.692  84.723  1.00  0.00     0.050 A 
ATOM     12  C   UNL     1      97.343  83.686  83.890  1.00  0.00     0.009 A 
BRANCH   8  13
ATOM     13  O   UNL     1      98.944  84.244  87.722  1.00  0.00    -0.493 OA
ATOM     14  C   UNL     1      99.053  83.020  88.475  1.00  0.00     0.278 C 
ENDBRANCH   8  13
BRANCH   9  15
ATOM     15  O   UNL     1      96.877  85.881  86.800  1.00  0.00    -0.504 OA
ATOM     16  H   UNL     1      97.592  86.258  87.318  1.00  0.00     0.293 HD
ENDBRANCH   9  15
ENDBRANCH   6   7
ENDBRANCH   3   6
ENDBRANCH   1   2
BRANCH   1  17
ATOM     17  C   UNL     1      98.619  83.245  79.434  1.00  0.00     0.010 C 
BRANCH  17  18
ATOM     18  C   UNL     1      97.417  83.296  78.451  1.00  0.00     0.001 C 
BRANCH  18  19
ATOM     19  C   UNL     1      97.829  83.136  76.964  1.00  0.00     0.000 C 
BRANCH  19  20
ATOM     20  C   UNL     1      98.512  84.416  76.401  1.00  0.00     0.003 C 
BRANCH  20  21
ATOM     21  C   UNL     1      99.893  84.178  75.710  1.00  0.00    -0.017 C 
ATOM     22  C   UNL     1     100.941  83.645  76.731  1.00  0.00     0.007 C 
ATOM     23  C   UNL     1     100.440  85.449  74.998  1.00  0.00     0.007 C 
ENDBRANCH  20  21
ENDBRANCH  19  20
ENDBRANCH  18  19
ENDBRANCH  17  18
ENDBRANCH   1  17
TORSDOF 10
ENDMDL
MODEL 5
REMARK VINA RESULT:    -5.271      4.720      7.192
REMARK INTER + INTRA:          -9.436
REMARK INTER:                  -8.645
REMARK INTRA:                  -0.791
REMARK UNBOUND:                -1.237
REMARK SMILES COc1cc(CNC(=O)CCCCCC(C)C)ccc1O
REMARK SMILES IDX 10 1 8 2 7 3 9 5 6 6 5 7 3 8 20 9 4 10 19 11 18 12 2 13 1 14
REMARK SMILES IDX 21 15 11 17 12 18 13 19 14 20 15 21 16 22 17 23
REMARK H PARENT 7 4 21 16
REMARK Flexibility Score: inf
ROOT
ATOM      1  C   UNL     1      93.045  97.053  75.999  1.00  0.00     0.100 C 
ENDROOT
BRANCH   1   2
ATOM      2  C   UNL     1      93.437  98.198  75.151  1.00  0.00     0.220 C 
ATOM      3  N   UNL     1      92.570  99.235  74.984  1.00  0.00    -0.352 N 
ATOM      4  H   UNL     1      91.644  99.080  75.358  1.00  0.00     0.163 HD
ATOM      5  O   UNL     1      94.582  98.209  74.636  1.00  0.00    -0.275 OA
BRANCH   3   6
ATOM      6  C   UNL     1      92.881 100.471  74.341  1.00  0.00     0.151 C 
BRANCH   6   7
ATOM      7  C   UNL     1      91.999 100.764  73.179  1.00  0.00    -0.025 A 
ATOM      8  C   UNL     1      90.765 100.002  71.193  1.00  0.00     0.160 A 
ATOM      9  C   UNL     1      90.265 101.308  71.005  1.00  0.00     0.157 A 
ATOM     10  C   UNL     1      91.644  99.742  72.266  1.00  0.00     0.056 A 
ATOM     11  C   UNL     1      90.633 102.337  71.891  1.00  0.00     0.050 A 
ATOM     12  C   UNL     1      91.488 102.067  72.973  1.00  0.00     0.009 A 
BRANCH   8  13
ATOM     13  O   UNL     1      90.435  98.990  70.330  1.00  0.00    -0.493 OA
ATOM     14  C   UNL     1      89.478  98.057  70.867  1.00  0.00     0.278 C 
ENDBRANCH   8  13
BRANCH   9  15
ATOM     15  O   UNL     1      89.421 101.568  69.975  1.00  0.00    -0.504 OA
ATOM     16  H   UNL     1      88.514 101.535  70.287  1.00  0.00     0.293 HD
ENDBRANCH   9  15
ENDBRANCH   6   7
ENDBRANCH   3   6
ENDBRANCH   1   2
BRANCH   1  17
ATOM     17  C   UNL     1      94.100  95.916  76.066  1.00  0.00     0.010 C 
BRANCH  17  18
ATOM     18  C   UNL     1      93.988  95.107  77.387  1.00  0.00     0.001 C 
BRANCH  18  19
ATOM     19  C   UNL     1      92.828  94.075  77.381  1.00  0.00     0.000 C 
BRANCH  19  20
ATOM     20  C   UNL     1      91.897  94.230  78.618  1.00  0.00     0.003 C 
BRANCH  20  21
ATOM     21  C   UNL     1      90.372  94.331  78.288  1.00  0.00    -0.017 C 
ATOM     22  C   UNL     1      89.636  93.009  78.656  1.00  0.00     0.007 C 
ATOM     23  C   UNL     1      90.099  94.698  76.800  1.00  0.00     0.007 C 
ENDBRANCH  20  21
ENDBRANCH  19  20
ENDBRANCH  18  19
ENDBRANCH  17  18
ENDBRANCH   1  17
TORSDOF 10
ENDMDL
MODEL 6
REMARK VINA RESULT:    -5.247     13.117     15.126
REMARK INTER + INTRA:          -9.399
REMARK INTER:                  -8.653
REMARK INTRA:                  -0.746
REMARK UNBOUND:                -1.237
REMARK SMILES COc1cc(CNC(=O)CCCCCC(C)C)ccc1O
REMARK SMILES IDX 10 1 8 2 7 3 9 5 6 6 5 7 3 8 20 9 4 10 19 11 18 12 2 13 1 14
REMARK SMILES IDX 21 15 11 17 12 18 13 19 14 20 15 21 16 22 17 23
REMARK H PARENT 7 4 21 16
REMARK Flexibility Score: inf
ROOT
ATOM      1  C   UNL     1      98.550  80.724  83.633  1.00  0.00     0.100 C 
ENDROOT
BRANCH   1   2
ATOM      2  C   UNL     1      99.599  81.172  82.693  1.00  0.00     0.220 C 
ATOM      3  N   UNL     1      99.332  81.200  81.357  1.00  0.00    -0.352 N 
ATOM      4  H   UNL     1      98.455  80.777  81.089  1.00  0.00     0.163 HD
ATOM      5  O   UNL     1     100.702  81.557  83.151  1.00  0.00    -0.275 OA
BRANCH   3   6
ATOM      6  C   UNL     1     100.184  81.768  80.361  1.00  0.00     0.151 C 
BRANCH   6   7
ATOM      7  C   UNL     1      99.444  82.561  79.342  1.00  0.00    -0.025 A 
ATOM      8  C   UNL     1      99.298  83.528  77.086  1.00  0.00     0.160 A 
ATOM      9  C   UNL     1      98.006  84.013  77.380  1.00  0.00     0.157 A 
ATOM     10  C   UNL     1     100.016  82.822  78.075  1.00  0.00     0.056 A 
ATOM     11  C   UNL     1      97.438  83.782  78.646  1.00  0.00     0.050 A 
ATOM     12  C   UNL     1      98.148  83.057  79.618  1.00  0.00     0.009 A 
BRANCH   8  13
ATOM     13  O   UNL     1      99.877  83.759  75.866  1.00  0.00    -0.493 OA
ATOM     14  C   UNL     1     100.586  82.623  75.334  1.00  0.00     0.278 C 
ENDBRANCH   8  13
BRANCH   9  15
ATOM     15  O   UNL     1      97.308  84.695  76.437  1.00  0.00    -0.504 OA
ATOM     16  H   UNL     1      96.579  84.155  76.125  1.00  0.00     0.293 HD
ENDBRANCH   9  15
ENDBRANCH   6   7
ENDBRANCH   3   6
ENDBRANCH   1   2
BRANCH   1  17
ATOM     17  C   UNL     1      97.980  81.850  84.537  1.00  0.00     0.010 C 
BRANCH  17  18
ATOM     18  C   UNL     1      97.820  83.184  83.758  1.00  0.00     0.001 C 
BRANCH  18  19
ATOM     19  C   UNL     1      96.687  84.089  84.311  1.00  0.00     0.000 C 
BRANCH  19  20
ATOM     20  C   UNL     1      97.117  84.849  85.598  1.00  0.00     0.003 C 
BRANCH  20  21
ATOM     21  C   UNL     1      96.185  84.634  86.835  1.00  0.00    -0.017 C 
ATOM     22  C   UNL     1      95.403  83.293  86.714  1.00  0.00     0.007 C 
ATOM     23  C   UNL     1      95.192  85.812  87.056  1.00  0.00     0.007 C 
ENDBRANCH  20  21
ENDBRANCH  19  20
ENDBRANCH  18  19
ENDBRANCH  17  18
ENDBRANCH   1  17
TORSDOF 10
ENDMDL
MODEL 7
REMARK VINA RESULT:    -5.153     12.922     14.826
REMARK INTER + INTRA:          -9.252
REMARK INTER:                  -8.559
REMARK INTRA:                  -0.693
REMARK UNBOUND:                -1.237
REMARK SMILES COc1cc(CNC(=O)CCCCCC(C)C)ccc1O
REMARK SMILES IDX 10 1 8 2 7 3 9 5 6 6 5 7 3 8 20 9 4 10 19 11 18 12 2 13 1 14
REMARK SMILES IDX 21 15 11 17 12 18 13 19 14 20 15 21 16 22 17 23
REMARK H PARENT 7 4 21 16
REMARK Flexibility Score: inf
ROOT
ATOM      1  C   UNL     1      98.967  82.034  80.206  1.00  0.00     0.100 C 
ENDROOT
BRANCH   1   2
ATOM      2  C   UNL     1      99.346  81.949  81.632  1.00  0.00     0.220 C 
ATOM      3  N   UNL     1      98.710  82.739  82.542  1.00  0.00    -0.352 N 
ATOM      4  H   UNL     1      98.100  83.439  82.145  1.00  0.00     0.163 HD
ATOM      5  O   UNL     1     100.218  81.117  81.981  1.00  0.00    -0.275 OA
BRANCH   3   6
ATOM      6  C   UNL     1      98.852  82.638  83.960  1.00  0.00     0.151 C 
BRANCH   6   7
ATOM      7  C   UNL     1      97.717  83.246  84.705  1.00  0.00    -0.025 A 
ATOM      8  C   UNL     1      95.753  83.007  86.166  1.00  0.00     0.160 A 
ATOM      9  C   UNL     1      95.595  84.409  86.179  1.00  0.00     0.157 A 
ATOM     10  C   UNL     1      96.801  82.434  85.415  1.00  0.00     0.056 A 
ATOM     11  C   UNL     1      96.484  85.225  85.455  1.00  0.00     0.050 A 
ATOM     12  C   UNL     1      97.540  84.649  84.728  1.00  0.00     0.009 A 
BRANCH   8  13
ATOM     13  O   UNL     1      94.887  82.194  86.848  1.00  0.00    -0.493 OA
ATOM     14  C   UNL     1      95.226  80.795  86.781  1.00  0.00     0.278 C 
ENDBRANCH   8  13
BRANCH   9  15
ATOM     15  O   UNL     1      94.590  84.971  86.896  1.00  0.00    -0.504 OA
ATOM     16  H   UNL     1      94.704  85.923  86.916  1.00  0.00     0.293 HD
ENDBRANCH   9  15
ENDBRANCH   6   7
ENDBRANCH   3   6
ENDBRANCH   1   2
BRANCH   1  17
ATOM     17  C   UNL     1      98.113  83.279  79.847  1.00  0.00     0.010 C 
BRANCH  17  18
ATOM     18  C   UNL     1      97.418  83.118  78.466  1.00  0.00     0.001 C 
BRANCH  18  19
ATOM     19  C   UNL     1      97.460  84.405  77.601  1.00  0.00     0.000 C 
BRANCH  19  20
ATOM     20  C   UNL     1      98.079  84.149  76.196  1.00  0.00     0.003 C 
BRANCH  20  21
ATOM     21  C   UNL     1      99.624  83.910  76.189  1.00  0.00    -0.017 C 
ATOM     22  C   UNL     1     100.337  84.911  75.232  1.00  0.00     0.007 C 
ATOM     23  C   UNL     1     100.008  82.449  75.814  1.00  0.00     0.007 C 
ENDBRANCH  20  21
ENDBRANCH  19  20
ENDBRANCH  18  19
ENDBRANCH  17  18
ENDBRANCH   1  17
TORSDOF 10
ENDMDL
MODEL 8
REMARK VINA RESULT:    -5.132     31.570     33.934
REMARK INTER + INTRA:          -9.219
REMARK INTER:                  -7.824
REMARK INTRA:                  -1.394
REMARK UNBOUND:                -1.237
REMARK SMILES COc1cc(CNC(=O)CCCCCC(C)C)ccc1O
REMARK SMILES IDX 10 1 8 2 7 3 9 5 6 6 5 7 3 8 20 9 4 10 19 11 18 12 2 13 1 14
REMARK SMILES IDX 21 15 11 17 12 18 13 19 14 20 15 21 16 22 17 23
REMARK H PARENT 7 4 21 16
REMARK Flexibility Score: inf
ROOT
ATOM      1  C   UNL     1      63.792  83.900  68.453  1.00  0.00     0.100 C 
ENDROOT
BRANCH   1   2
ATOM      2  C   UNL     1      63.955  82.772  69.394  1.00  0.00     0.220 C 
ATOM      3  N   UNL     1      64.891  82.853  70.382  1.00  0.00    -0.352 N 
ATOM      4  H   UNL     1      65.511  83.647  70.315  1.00  0.00     0.163 HD
ATOM      5  O   UNL     1      63.196  81.777  69.289  1.00  0.00    -0.275 OA
BRANCH   3   6
ATOM      6  C   UNL     1      65.036  81.922  71.454  1.00  0.00     0.151 C 
BRANCH   6   7
ATOM      7  C   UNL     1      64.133  82.207  72.602  1.00  0.00    -0.025 A 
ATOM      8  C   UNL     1      63.340  83.726  74.366  1.00  0.00     0.160 A 
ATOM      9  C   UNL     1      62.368  82.776  74.744  1.00  0.00     0.157 A 
ATOM     10  C   UNL     1      64.228  83.428  73.310  1.00  0.00     0.056 A 
ATOM     11  C   UNL     1      62.281  81.548  74.064  1.00  0.00     0.050 A 
ATOM     12  C   UNL     1      63.153  81.267  72.998  1.00  0.00     0.009 A 
BRANCH   8  13
ATOM     13  O   UNL     1      63.454  84.920  75.028  1.00  0.00    -0.493 OA
ATOM     14  C   UNL     1      63.766  86.035  74.169  1.00  0.00     0.278 C 
ENDBRANCH   8  13
BRANCH   9  15
ATOM     15  O   UNL     1      61.511  83.052  75.759  1.00  0.00    -0.504 OA
ATOM     16  H   UNL     1      61.314  83.992  75.766  1.00  0.00     0.293 HD
ENDBRANCH   9  15
ENDBRANCH   6   7
ENDBRANCH   3   6
ENDBRANCH   1   2
BRANCH   1  17
ATOM     17  C   UNL     1      62.524  84.760  68.702  1.00  0.00     0.010 C 
BRANCH  17  18
ATOM     18  C   UNL     1      62.400  85.179  70.193  1.00  0.00     0.001 C 
BRANCH  18  19
ATOM     19  C   UNL     1      61.515  84.219  71.031  1.00  0.00     0.000 C 
BRANCH  19  20
ATOM     20  C   UNL     1      60.610  84.983  72.040  1.00  0.00     0.003 C 
BRANCH  20  21
ATOM     21  C   UNL     1      59.463  85.825  71.391  1.00  0.00    -0.017 C 
ATOM     22  C   UNL     1      58.783  86.745  72.448  1.00  0.00     0.007 C 
ATOM     23  C   UNL     1      58.393  84.944  70.683  1.00  0.00     0.007 C 
ENDBRANCH  20  21
ENDBRANCH  19  20
ENDBRANCH  18  19
ENDBRANCH  17  18
ENDBRANCH   1  17
TORSDOF 10
ENDMDL
MODEL 9
REMARK VINA RESULT:    -5.060     16.150     20.022
REMARK INTER + INTRA:          -9.107
REMARK INTER:                  -8.354
REMARK INTRA:                  -0.752
REMARK UNBOUND:                -1.237
REMARK SMILES COc1cc(CNC(=O)CCCCCC(C)C)ccc1O
REMARK SMILES IDX 10 1 8 2 7 3 9 5 6 6 5 7 3 8 20 9 4 10 19 11 18 12 2 13 1 14
REMARK SMILES IDX 21 15 11 17 12 18 13 19 14 20 15 21 16 22 17 23
REMARK H PARENT 7 4 21 16
REMARK Flexibility Score: inf
ROOT
ATOM      1  C   UNL     1      74.853  88.503  69.883  1.00  0.00     0.100 C 
ENDROOT
BRANCH   1   2
ATOM      2  C   UNL     1      74.702  89.499  70.964  1.00  0.00     0.220 C 
ATOM      3  N   UNL     1      75.397  90.669  70.898  1.00  0.00    -0.352 N 
ATOM      4  H   UNL     1      76.083  90.715  70.159  1.00  0.00     0.163 HD
ATOM      5  O   UNL     1      73.903  89.262  71.903  1.00  0.00    -0.275 OA
BRANCH   3   6
ATOM      6  C   UNL     1      75.218  91.782  71.775  1.00  0.00     0.151 C 
BRANCH   6   7
ATOM      7  C   UNL     1      76.423  92.649  71.873  1.00  0.00    -0.025 A 
ATOM      8  C   UNL     1      77.527  94.816  71.508  1.00  0.00     0.160 A 
ATOM      9  C   UNL     1      78.697  94.321  72.121  1.00  0.00     0.157 A 
ATOM     10  C   UNL     1      76.404  93.972  71.371  1.00  0.00     0.056 A 
ATOM     11  C   UNL     1      78.736  92.998  72.599  1.00  0.00     0.050 A 
ATOM     12  C   UNL     1      77.607  92.170  72.482  1.00  0.00     0.009 A 
BRANCH   8  13
ATOM     13  O   UNL     1      77.474  96.094  71.017  1.00  0.00    -0.493 OA
ATOM     14  C   UNL     1      77.608  96.174  69.585  1.00  0.00     0.278 C 
ENDBRANCH   8  13
BRANCH   9  15
ATOM     15  O   UNL     1      79.782  95.123  72.255  1.00  0.00    -0.504 OA
ATOM     16  H   UNL     1      79.509  95.977  72.598  1.00  0.00     0.293 HD
ENDBRANCH   9  15
ENDBRANCH   6   7
ENDBRANCH   3   6
ENDBRANCH   1   2
BRANCH   1  17
ATOM     17  C   UNL     1      75.704  87.264  70.270  1.00  0.00     0.010 C 
BRANCH  17  18
ATOM     18  C   UNL     1      77.071  87.255  69.532  1.00  0.00     0.001 C 
BRANCH  18  19
ATOM     19  C   UNL     1      77.915  85.984  69.814  1.00  0.00     0.000 C 
BRANCH  19  20
ATOM     20  C   UNL     1      77.036  84.703  69.909  1.00  0.00     0.003 C 
BRANCH  20  21
ATOM     21  C   UNL     1      76.882  83.908  68.572  1.00  0.00    -0.017 C 
ATOM     22  C   UNL     1      78.154  84.058  67.686  1.00  0.00     0.007 C 
ATOM     23  C   UNL     1      75.618  84.322  67.764  1.00  0.00     0.007 C 
ENDBRANCH  20  21
ENDBRANCH  19  20
ENDBRANCH  18  19
ENDBRANCH  17  18
ENDBRANCH   1  17
TORSDOF 10
ENDMDL
MODEL 10
REMARK VINA RESULT:    -4.896     14.391     17.009
REMARK INTER + INTRA:          -8.852
REMARK INTER:                  -6.816
REMARK INTRA:                  -2.036
REMARK UNBOUND:                -1.237
REMARK SMILES COc1cc(CNC(=O)CCCCCC(C)C)ccc1O
REMARK SMILES IDX 10 1 8 2 7 3 9 5 6 6 5 7 3 8 20 9 4 10 19 11 18 12 2 13 1 14
REMARK SMILES IDX 21 15 11 17 12 18 13 19 14 20 15 21 16 22 17 23
REMARK H PARENT 7 4 21 16
REMARK Flexibility Score: inf
ROOT
ATOM      1  C   UNL     1      90.686  82.097  89.026  1.00  0.00     0.100 C 
ENDROOT
BRANCH   1   2
ATOM      2  C   UNL     1      91.297  83.393  89.388  1.00  0.00     0.220 C 
ATOM      3  N   UNL     1      92.598  83.431  89.791  1.00  0.00    -0.352 N 
ATOM      4  H   UNL     1      93.023  82.527  89.941  1.00  0.00     0.163 HD
ATOM      5  O   UNL     1      90.614  84.441  89.277  1.00  0.00    -0.275 OA
BRANCH   3   6
ATOM      6  C   UNL     1      93.359  84.621  90.002  1.00  0.00     0.151 C 
BRANCH   6   7
ATOM      7  C   UNL     1      94.407  84.836  88.967  1.00  0.00    -0.025 A 
ATOM      8  C   UNL     1      96.741  84.630  88.221  1.00  0.00     0.160 A 
ATOM      9  C   UNL     1      96.388  85.184  86.972  1.00  0.00     0.157 A 
ATOM     10  C   UNL     1      95.753  84.477  89.217  1.00  0.00     0.056 A 
ATOM     11  C   UNL     1      95.058  85.569  86.723  1.00  0.00     0.050 A 
ATOM     12  C   UNL     1      94.074  85.392  87.710  1.00  0.00     0.009 A 
BRANCH   8  13
ATOM     13  O   UNL     1      98.034  84.267  88.491  1.00  0.00    -0.493 OA
ATOM     14  C   UNL     1      98.152  83.017  89.197  1.00  0.00     0.278 C 
ENDBRANCH   8  13
BRANCH   9  15
ATOM     15  O   UNL     1      97.331  85.337  86.009  1.00  0.00    -0.504 OA
ATOM     16  H   UNL     1      97.436  84.513  85.529  1.00  0.00     0.293 HD
ENDBRANCH   9  15
ENDBRANCH   6   7
ENDBRANCH   3   6
ENDBRANCH   1   2
BRANCH   1  17
ATOM     17  C   UNL     1      90.121  82.040  87.581  1.00  0.00     0.010 C 
BRANCH  17  18
ATOM     18  C   UNL     1      91.212  82.372  86.526  1.00  0.00     0.001 C 
BRANCH  18  19
ATOM     19  C   UNL     1      92.362  81.332  86.481  1.00  0.00     0.000 C 
BRANCH  19  20
ATOM     20  C   UNL     1      93.765  82.002  86.556  1.00  0.00     0.003 C 
BRANCH  20  21
ATOM     21  C   UNL     1      94.932  81.046  86.968  1.00  0.00    -0.017 C 
ATOM     22  C   UNL     1      95.056  80.956  88.518  1.00  0.00     0.007 C 
ATOM     23  C   UNL     1      96.298  81.458  86.346  1.00  0.00     0.007 C 
ENDBRANCH  20  21
ENDBRANCH  19  20
ENDBRANCH  18  19
ENDBRANCH  17  18
ENDBRANCH   1  17
TORSDOF 10
ENDMDL
