MODEL 1
REMARK VINA RESULT:    -6.056      0.000      0.000
REMARK INTER + INTRA:         -11.698
REMARK INTER:                 -10.128
REMARK INTRA:                  -1.570
REMARK UNBOUND:                -1.570
REMARK SMILES COc1cc(CNC(=O)CCCCCCCC(C)C)ccc1O
REMARK SMILES IDX 11 1 10 2 8 3 9 4 7 5 6 7 5 8 4 9 20 10 3 11 21 12 22 13
REMARK SMILES IDX 2 14 1 15 23 16 12 18 13 19 14 20 15 21 16 22 17 23 18 24
REMARK SMILES IDX 19 25
REMARK H PARENT 7 6 23 17
REMARK Flexibility Score: inf
ROOT
ATOM      1  C   UNL     1      76.420  85.206  68.925  1.00  0.00     0.010 C 
ENDROOT
BRANCH   1   2
ATOM      2  C   UNL     1      77.205  85.634  67.688  1.00  0.00     0.100 C 
BRANCH   2   3
ATOM      3  C   UNL     1      77.246  84.550  66.624  1.00  0.00     0.220 C 
ATOM      4  O   UNL     1      77.986  83.573  66.686  1.00  0.00    -0.275 OA
ATOM      5  N   UNL     1      76.357  84.815  65.592  1.00  0.00    -0.352 N 
ATOM      6  H   UNL     1      75.791  85.659  65.622  1.00  0.00     0.163 HD
BRANCH   5   7
ATOM      7  C   UNL     1      76.203  83.946  64.448  1.00  0.00     0.151 C 
BRANCH   7   8
ATOM      8  C   UNL     1      75.012  83.043  64.586  1.00  0.00    -0.025 A 
ATOM      9  C   UNL     1      73.875  83.284  63.825  1.00  0.00     0.056 A 
ATOM     10  C   UNL     1      75.060  81.975  65.473  1.00  0.00     0.009 A 
ATOM     11  C   UNL     1      72.768  82.445  63.953  1.00  0.00     0.160 A 
ATOM     12  C   UNL     1      73.952  81.136  65.602  1.00  0.00     0.050 A 
ATOM     13  C   UNL     1      72.806  81.370  64.842  1.00  0.00     0.157 A 
BRANCH  11  14
ATOM     14  O   UNL     1      71.654  82.685  63.206  1.00  0.00    -0.493 OA
ATOM     15  C   UNL     1      71.324  84.050  62.955  1.00  0.00     0.278 C 
ENDBRANCH  11  14
BRANCH  13  16
ATOM     16  O   UNL     1      71.732  80.543  64.976  1.00  0.00    -0.504 OA
ATOM     17  H   UNL     1      71.116  80.705  64.241  1.00  0.00     0.293 HD
ENDBRANCH  13  16
ENDBRANCH   7   8
ENDBRANCH   5   7
ENDBRANCH   2   3
ENDBRANCH   1   2
BRANCH   1  18
ATOM     18  C   UNL     1      74.908  85.407  68.789  1.00  0.00     0.001 C 
BRANCH  18  19
ATOM     19  C   UNL     1      74.471  86.688  68.069  1.00  0.00     0.000 C 
BRANCH  19  20
ATOM     20  C   UNL     1      74.059  87.809  69.026  1.00  0.00     0.000 C 
BRANCH  20  21
ATOM     21  C   UNL     1      74.617  89.182  68.634  1.00  0.00     0.000 C 
BRANCH  21  22
ATOM     22  C   UNL     1      76.121  89.164  68.341  1.00  0.00     0.003 C 
BRANCH  22  23
ATOM     23  C   UNL     1      76.490  89.790  66.982  1.00  0.00    -0.017 C 
ATOM     24  C   UNL     1      75.498  90.905  66.641  1.00  0.00     0.007 C 
ATOM     25  C   UNL     1      76.517  88.762  65.850  1.00  0.00     0.007 C 
ENDBRANCH  22  23
ENDBRANCH  21  22
ENDBRANCH  20  21
ENDBRANCH  19  20
ENDBRANCH  18  19
ENDBRANCH   1  18
TORSDOF 12
ENDMDL
MODEL 2
REMARK VINA RESULT:    -5.498     23.532     25.549
REMARK INTER + INTRA:         -10.764
REMARK INTER:                  -8.936
REMARK INTRA:                  -1.829
REMARK UNBOUND:                -1.570
REMARK SMILES COc1cc(CNC(=O)CCCCCCCC(C)C)ccc1O
REMARK SMILES IDX 11 1 10 2 8 3 9 4 7 5 6 7 5 8 4 9 20 10 3 11 21 12 22 13
REMARK SMILES IDX 2 14 1 15 23 16 12 18 13 19 14 20 15 21 16 22 17 23 18 24
REMARK SMILES IDX 19 25
REMARK H PARENT 7 6 23 17
REMARK Flexibility Score: inf
ROOT
ATOM      1  C   UNL     1      97.043  81.988  78.131  1.00  0.00     0.010 C 
ENDROOT
BRANCH   1   2
ATOM      2  C   UNL     1      95.887  82.739  77.473  1.00  0.00     0.100 C 
BRANCH   2   3
ATOM      3  C   UNL     1      96.255  83.279  76.101  1.00  0.00     0.220 C 
ATOM      4  O   UNL     1      95.596  84.133  75.514  1.00  0.00    -0.275 OA
ATOM      5  N   UNL     1      97.407  82.683  75.610  1.00  0.00    -0.352 N 
ATOM      6  H   UNL     1      97.880  81.974  76.164  1.00  0.00     0.163 HD
BRANCH   5   7
ATOM      7  C   UNL     1      97.970  83.011  74.321  1.00  0.00     0.151 C 
BRANCH   7   8
ATOM      8  C   UNL     1      97.945  81.839  73.382  1.00  0.00    -0.025 A 
ATOM      9  C   UNL     1      99.104  81.471  72.710  1.00  0.00     0.056 A 
ATOM     10  C   UNL     1      96.762  81.135  73.196  1.00  0.00     0.009 A 
ATOM     11  C   UNL     1      99.080  80.382  71.838  1.00  0.00     0.160 A 
ATOM     12  C   UNL     1      96.738  80.046  72.323  1.00  0.00     0.050 A 
ATOM     13  C   UNL     1      97.896  79.670  71.644  1.00  0.00     0.157 A 
BRANCH  11  14
ATOM     14  O   UNL     1     100.218  80.025  71.180  1.00  0.00    -0.493 OA
ATOM     15  C   UNL     1     101.024  81.081  70.660  1.00  0.00     0.278 C 
ENDBRANCH  11  14
BRANCH  13  16
ATOM     16  O   UNL     1      97.860  78.605  70.796  1.00  0.00    -0.504 OA
ATOM     17  H   UNL     1      97.312  78.832  70.025  1.00  0.00     0.293 HD
ENDBRANCH  13  16
ENDBRANCH   7   8
ENDBRANCH   5   7
ENDBRANCH   2   3
ENDBRANCH   1   2
BRANCH   1  18
ATOM     18  C   UNL     1      97.010  82.037  79.661  1.00  0.00     0.001 C 
BRANCH  18  19
ATOM     19  C   UNL     1      97.967  81.078  80.377  1.00  0.00     0.000 C 
BRANCH  19  20
ATOM     20  C   UNL     1      97.510  79.617  80.326  1.00  0.00     0.000 C 
BRANCH  20  21
ATOM     21  C   UNL     1      98.383  78.737  79.424  1.00  0.00     0.000 C 
BRANCH  21  22
ATOM     22  C   UNL     1      97.579  77.952  78.383  1.00  0.00     0.003 C 
BRANCH  22  23
ATOM     23  C   UNL     1      97.876  78.376  76.931  1.00  0.00    -0.017 C 
ATOM     24  C   UNL     1      99.038  79.371  76.910  1.00  0.00     0.007 C 
ATOM     25  C   UNL     1      96.659  78.992  76.240  1.00  0.00     0.007 C 
ENDBRANCH  22  23
ENDBRANCH  21  22
ENDBRANCH  20  21
ENDBRANCH  19  20
ENDBRANCH  18  19
ENDBRANCH   1  18
TORSDOF 12
ENDMDL
MODEL 3
REMARK VINA RESULT:    -5.459      1.681      2.129
REMARK INTER + INTRA:         -10.700
REMARK INTER:                  -8.959
REMARK INTRA:                  -1.742
REMARK UNBOUND:                -1.570
REMARK SMILES COc1cc(CNC(=O)CCCCCCCC(C)C)ccc1O
REMARK SMILES IDX 11 1 10 2 8 3 9 4 7 5 6 7 5 8 4 9 20 10 3 11 21 12 22 13
REMARK SMILES IDX 2 14 1 15 23 16 12 18 13 19 14 20 15 21 16 22 17 23 18 24
REMARK SMILES IDX 19 25
REMARK H PARENT 7 6 23 17
REMARK Flexibility Score: inf
ROOT
ATOM      1  C   UNL     1      77.188  84.361  67.450  1.00  0.00     0.010 C 
ENDROOT
BRANCH   1   2
ATOM      2  C   UNL     1      77.398  84.374  65.937  1.00  0.00     0.100 C 
BRANCH   2   3
ATOM      3  C   UNL     1      76.584  83.303  65.230  1.00  0.00     0.220 C 
ATOM      4  O   UNL     1      76.648  82.110  65.516  1.00  0.00    -0.275 OA
ATOM      5  N   UNL     1      75.783  83.844  64.235  1.00  0.00    -0.352 N 
ATOM      6  H   UNL     1      75.805  84.845  64.063  1.00  0.00     0.163 HD
BRANCH   5   7
ATOM      7  C   UNL     1      74.915  83.041  63.405  1.00  0.00     0.151 C 
BRANCH   7   8
ATOM      8  C   UNL     1      73.612  82.736  64.085  1.00  0.00    -0.025 A 
ATOM      9  C   UNL     1      72.920  83.753  64.731  1.00  0.00     0.056 A 
ATOM     10  C   UNL     1      73.112  81.440  64.063  1.00  0.00     0.009 A 
ATOM     11  C   UNL     1      71.709  83.470  65.364  1.00  0.00     0.160 A 
ATOM     12  C   UNL     1      71.901  81.157  64.696  1.00  0.00     0.050 A 
ATOM     13  C   UNL     1      71.199  82.171  65.346  1.00  0.00     0.157 A 
BRANCH  11  14
ATOM     14  O   UNL     1      71.033  84.470  65.996  1.00  0.00    -0.493 OA
ATOM     15  C   UNL     1      70.717  85.627  65.224  1.00  0.00     0.278 C 
ENDBRANCH  11  14
BRANCH  13  16
ATOM     16  O   UNL     1      70.018  81.883  65.959  1.00  0.00    -0.504 OA
ATOM     17  H   UNL     1      69.303  81.918  65.301  1.00  0.00     0.293 HD
ENDBRANCH  13  16
ENDBRANCH   7   8
ENDBRANCH   5   7
ENDBRANCH   2   3
ENDBRANCH   1   2
BRANCH   1  18
ATOM     18  C   UNL     1      75.714  84.360  67.862  1.00  0.00     0.001 C 
BRANCH  18  19
ATOM     19  C   UNL     1      75.384  85.120  69.151  1.00  0.00     0.000 C 
BRANCH  19  20
ATOM     20  C   UNL     1      74.341  86.224  68.953  1.00  0.00     0.000 C 
BRANCH  20  21
ATOM     21  C   UNL     1      74.954  87.587  68.614  1.00  0.00     0.000 C 
BRANCH  21  22
ATOM     22  C   UNL     1      74.882  87.930  67.122  1.00  0.00     0.003 C 
BRANCH  22  23
ATOM     23  C   UNL     1      76.253  87.899  66.418  1.00  0.00    -0.017 C 
ATOM     24  C   UNL     1      77.352  88.290  67.409  1.00  0.00     0.007 C 
ATOM     25  C   UNL     1      76.307  88.822  65.200  1.00  0.00     0.007 C 
ENDBRANCH  22  23
ENDBRANCH  21  22
ENDBRANCH  20  21
ENDBRANCH  19  20
ENDBRANCH  18  19
ENDBRANCH   1  18
TORSDOF 12
ENDMDL
MODEL 4
REMARK VINA RESULT:    -5.305     25.242     29.052
REMARK INTER + INTRA:         -10.443
REMARK INTER:                  -9.438
REMARK INTRA:                  -1.005
REMARK UNBOUND:                -1.570
REMARK SMILES COc1cc(CNC(=O)CCCCCCCC(C)C)ccc1O
REMARK SMILES IDX 11 1 10 2 8 3 9 4 7 5 6 7 5 8 4 9 20 10 3 11 21 12 22 13
REMARK SMILES IDX 2 14 1 15 23 16 12 18 13 19 14 20 15 21 16 22 17 23 18 24
REMARK SMILES IDX 19 25
REMARK H PARENT 7 6 23 17
REMARK Flexibility Score: inf
ROOT
ATOM      1  C   UNL     1      97.219  94.578  79.036  1.00  0.00     0.010 C 
ENDROOT
BRANCH   1   2
ATOM      2  C   UNL     1      96.523  95.870  79.460  1.00  0.00     0.100 C 
BRANCH   2   3
ATOM      3  C   UNL     1      96.407  95.996  80.970  1.00  0.00     0.220 C 
ATOM      4  O   UNL     1      95.686  95.274  81.653  1.00  0.00    -0.275 OA
ATOM      5  N   UNL     1      97.203  97.021  81.458  1.00  0.00    -0.352 N 
ATOM      6  H   UNL     1      97.760  97.575  80.813  1.00  0.00     0.163 HD
BRANCH   5   7
ATOM      7  C   UNL     1      97.272  97.359  82.861  1.00  0.00     0.151 C 
BRANCH   7   8
ATOM      8  C   UNL     1      96.599  98.668  83.157  1.00  0.00    -0.025 A 
ATOM      9  C   UNL     1      96.621  99.176  84.450  1.00  0.00     0.056 A 
ATOM     10  C   UNL     1      95.960  99.358  82.134  1.00  0.00     0.009 A 
ATOM     11  C   UNL     1      95.996 100.392  84.724  1.00  0.00     0.160 A 
ATOM     12  C   UNL     1      95.333 100.574  82.409  1.00  0.00     0.050 A 
ATOM     13  C   UNL     1      95.351 101.092  83.704  1.00  0.00     0.157 A 
BRANCH  11  14
ATOM     14  O   UNL     1      96.019 100.887  85.994  1.00  0.00    -0.493 OA
ATOM     15  C   UNL     1      97.235 101.494  86.430  1.00  0.00     0.278 C 
ENDBRANCH  11  14
BRANCH  13  16
ATOM     16  O   UNL     1      94.737 102.280  83.959  1.00  0.00    -0.504 OA
ATOM     17  H   UNL     1      94.120 102.480  83.234  1.00  0.00     0.293 HD
ENDBRANCH  13  16
ENDBRANCH   7   8
ENDBRANCH   5   7
ENDBRANCH   2   3
ENDBRANCH   1   2
BRANCH   1  18
ATOM     18  C   UNL     1      96.315  93.630  78.244  1.00  0.00     0.001 C 
BRANCH  18  19
ATOM     19  C   UNL     1      95.489  92.646  79.080  1.00  0.00     0.000 C 
BRANCH  19  20
ATOM     20  C   UNL     1      94.061  93.129  79.345  1.00  0.00     0.000 C 
BRANCH  20  21
ATOM     21  C   UNL     1      93.266  93.414  78.066  1.00  0.00     0.000 C 
BRANCH  21  22
ATOM     22  C   UNL     1      93.096  94.909  77.778  1.00  0.00     0.003 C 
BRANCH  22  23
ATOM     23  C   UNL     1      91.897  95.226  76.863  1.00  0.00    -0.017 C 
ATOM     24  C   UNL     1      91.436  96.667  77.093  1.00  0.00     0.007 C 
ATOM     25  C   UNL     1      90.724  94.270  77.082  1.00  0.00     0.007 C 
ENDBRANCH  22  23
ENDBRANCH  21  22
ENDBRANCH  20  21
ENDBRANCH  19  20
ENDBRANCH  18  19
ENDBRANCH   1  18
TORSDOF 12
ENDMDL
MODEL 5
REMARK VINA RESULT:    -5.303     19.454     22.414
REMARK INTER + INTRA:         -10.438
REMARK INTER:                  -9.719
REMARK INTRA:                  -0.720
REMARK UNBOUND:                -1.570
REMARK SMILES COc1cc(CNC(=O)CCCCCCCC(C)C)ccc1O
REMARK SMILES IDX 11 1 10 2 8 3 9 4 7 5 6 7 5 8 4 9 20 10 3 11 21 12 22 13
REMARK SMILES IDX 2 14 1 15 23 16 12 18 13 19 14 20 15 21 16 22 17 23 18 24
REMARK SMILES IDX 19 25
REMARK H PARENT 7 6 23 17
REMARK Flexibility Score: inf
ROOT
ATOM      1  C   UNL     1      95.687  97.031  73.951  1.00  0.00     0.010 C 
ENDROOT
BRANCH   1   2
ATOM      2  C   UNL     1      94.395  96.220  73.897  1.00  0.00     0.100 C 
BRANCH   2   3
ATOM      3  C   UNL     1      93.925  95.786  75.276  1.00  0.00     0.220 C 
ATOM      4  O   UNL     1      93.198  96.474  75.986  1.00  0.00    -0.275 OA
ATOM      5  N   UNL     1      94.426  94.539  75.616  1.00  0.00    -0.352 N 
ATOM      6  H   UNL     1      95.032  94.047  74.965  1.00  0.00     0.163 HD
BRANCH   5   7
ATOM      7  C   UNL     1      94.139  93.897  76.878  1.00  0.00     0.151 C 
BRANCH   7   8
ATOM      8  C   UNL     1      92.764  93.294  76.901  1.00  0.00    -0.025 A 
ATOM      9  C   UNL     1      92.288  92.625  75.780  1.00  0.00     0.056 A 
ATOM     10  C   UNL     1      91.982  93.412  78.044  1.00  0.00     0.009 A 
ATOM     11  C   UNL     1      91.010  92.065  75.802  1.00  0.00     0.160 A 
ATOM     12  C   UNL     1      90.704  92.852  78.065  1.00  0.00     0.050 A 
ATOM     13  C   UNL     1      90.218  92.179  76.944  1.00  0.00     0.157 A 
BRANCH  11  14
ATOM     14  O   UNL     1      90.546  91.411  74.701  1.00  0.00    -0.493 OA
ATOM     15  C   UNL     1      90.996  90.071  74.507  1.00  0.00     0.278 C 
ENDBRANCH  11  14
BRANCH  13  16
ATOM     16  O   UNL     1      88.969  91.636  76.978  1.00  0.00    -0.504 OA
ATOM     17  H   UNL     1      88.678  91.569  77.904  1.00  0.00     0.293 HD
ENDBRANCH  13  16
ENDBRANCH   7   8
ENDBRANCH   5   7
ENDBRANCH   2   3
ENDBRANCH   1   2
BRANCH   1  18
ATOM     18  C   UNL     1      95.634  98.320  73.126  1.00  0.00     0.001 C 
BRANCH  18  19
ATOM     19  C   UNL     1      94.375  98.511  72.274  1.00  0.00     0.000 C 
BRANCH  19  20
ATOM     20  C   UNL     1      93.324  99.403  72.940  1.00  0.00     0.000 C 
BRANCH  20  21
ATOM     21  C   UNL     1      92.506 100.232  71.943  1.00  0.00     0.000 C 
BRANCH  21  22
ATOM     22  C   UNL     1      91.917  99.397  70.801  1.00  0.00     0.003 C 
BRANCH  22  23
ATOM     23  C   UNL     1      90.407  99.129  70.951  1.00  0.00    -0.017 C 
ATOM     24  C   UNL     1      89.923  98.236  69.806  1.00  0.00     0.007 C 
ATOM     25  C   UNL     1      89.583 100.417  70.982  1.00  0.00     0.007 C 
ENDBRANCH  22  23
ENDBRANCH  21  22
ENDBRANCH  20  21
ENDBRANCH  19  20
ENDBRANCH  18  19
ENDBRANCH   1  18
TORSDOF 12
ENDMDL
MODEL 6
REMARK VINA RESULT:    -5.245     24.031     26.797
REMARK INTER + INTRA:         -10.341
REMARK INTER:                  -9.634
REMARK INTRA:                  -0.708
REMARK UNBOUND:                -1.570
REMARK SMILES COc1cc(CNC(=O)CCCCCCCC(C)C)ccc1O
REMARK SMILES IDX 11 1 10 2 8 3 9 4 7 5 6 7 5 8 4 9 20 10 3 11 21 12 22 13
REMARK SMILES IDX 2 14 1 15 23 16 12 18 13 19 14 20 15 21 16 22 17 23 18 24
REMARK SMILES IDX 19 25
REMARK H PARENT 7 6 23 17
REMARK Flexibility Score: inf
ROOT
ATOM      1  C   UNL     1      97.786  81.844  77.926  1.00  0.00     0.010 C 
ENDROOT
BRANCH   1   2
ATOM      2  C   UNL     1      96.388  82.364  77.598  1.00  0.00     0.100 C 
BRANCH   2   3
ATOM      3  C   UNL     1      96.341  83.092  76.265  1.00  0.00     0.220 C 
ATOM      4  O   UNL     1      95.476  83.916  75.978  1.00  0.00    -0.275 OA
ATOM      5  N   UNL     1      97.380  82.702  75.433  1.00  0.00    -0.352 N 
ATOM      6  H   UNL     1      98.044  82.003  75.754  1.00  0.00     0.163 HD
BRANCH   5   7
ATOM      7  C   UNL     1      97.562  83.237  74.103  1.00  0.00     0.151 C 
BRANCH   7   8
ATOM      8  C   UNL     1      99.009  83.275  73.707  1.00  0.00    -0.025 A 
ATOM      9  C   UNL     1      99.868  82.273  74.141  1.00  0.00     0.056 A 
ATOM     10  C   UNL     1      99.475  84.313  72.910  1.00  0.00     0.009 A 
ATOM     11  C   UNL     1     101.212  82.309  73.773  1.00  0.00     0.160 A 
ATOM     12  C   UNL     1     100.821  84.349  72.542  1.00  0.00     0.050 A 
ATOM     13  C   UNL     1     101.690  83.348  72.973  1.00  0.00     0.157 A 
BRANCH  11  14
ATOM     14  O   UNL     1     102.052  81.324  74.201  1.00  0.00    -0.493 OA
ATOM     15  C   UNL     1     102.021  80.090  73.486  1.00  0.00     0.278 C 
ENDBRANCH  11  14
BRANCH  13  16
ATOM     16  O   UNL     1     103.000  83.393  72.607  1.00  0.00    -0.504 OA
ATOM     17  H   UNL     1     103.196  84.273  72.240  1.00  0.00     0.293 HD
ENDBRANCH  13  16
ENDBRANCH   7   8
ENDBRANCH   5   7
ENDBRANCH   2   3
ENDBRANCH   1   2
BRANCH   1  18
ATOM     18  C   UNL     1      97.891  81.213  79.318  1.00  0.00     0.001 C 
BRANCH  18  19
ATOM     19  C   UNL     1      97.085  81.904  80.423  1.00  0.00     0.000 C 
BRANCH  19  20
ATOM     20  C   UNL     1      96.707  80.966  81.572  1.00  0.00     0.000 C 
BRANCH  20  21
ATOM     21  C   UNL     1      96.048  81.685  82.755  1.00  0.00     0.000 C 
BRANCH  21  22
ATOM     22  C   UNL     1      95.613  80.736  83.876  1.00  0.00     0.003 C 
BRANCH  22  23
ATOM     23  C   UNL     1      94.843  81.438  85.011  1.00  0.00    -0.017 C 
ATOM     24  C   UNL     1      93.338  81.349  84.748  1.00  0.00     0.007 C 
ATOM     25  C   UNL     1      95.250  82.903  85.177  1.00  0.00     0.007 C 
ENDBRANCH  22  23
ENDBRANCH  21  22
ENDBRANCH  20  21
ENDBRANCH  19  20
ENDBRANCH  18  19
ENDBRANCH   1  18
TORSDOF 12
ENDMDL
MODEL 7
REMARK VINA RESULT:    -5.089     23.859     25.871
REMARK INTER + INTRA:         -10.081
REMARK INTER:                  -9.420
REMARK INTRA:                  -0.661
REMARK UNBOUND:                -1.570
REMARK SMILES COc1cc(CNC(=O)CCCCCCCC(C)C)ccc1O
REMARK SMILES IDX 11 1 10 2 8 3 9 4 7 5 6 7 5 8 4 9 20 10 3 11 21 12 22 13
REMARK SMILES IDX 2 14 1 15 23 16 12 18 13 19 14 20 15 21 16 22 17 23 18 24
REMARK SMILES IDX 19 25
REMARK H PARENT 7 6 23 17
REMARK Flexibility Score: inf
ROOT
ATOM      1  C   UNL     1      97.832  81.771  77.930  1.00  0.00     0.010 C 
ENDROOT
BRANCH   1   2
ATOM      2  C   UNL     1      96.426  82.250  77.576  1.00  0.00     0.100 C 
BRANCH   2   3
ATOM      3  C   UNL     1      96.405  83.106  76.321  1.00  0.00     0.220 C 
ATOM      4  O   UNL     1      95.509  83.906  76.066  1.00  0.00    -0.275 OA
ATOM      5  N   UNL     1      97.508  82.860  75.517  1.00  0.00    -0.352 N 
ATOM      6  H   UNL     1      98.195  82.169  75.806  1.00  0.00     0.163 HD
BRANCH   5   7
ATOM      7  C   UNL     1      97.727  83.535  74.259  1.00  0.00     0.151 C 
BRANCH   7   8
ATOM      8  C   UNL     1      98.514  82.692  73.298  1.00  0.00    -0.025 A 
ATOM      9  C   UNL     1      98.155  81.365  73.095  1.00  0.00     0.056 A 
ATOM     10  C   UNL     1      99.594  83.247  72.623  1.00  0.00     0.009 A 
ATOM     11  C   UNL     1      98.886  80.581  72.203  1.00  0.00     0.160 A 
ATOM     12  C   UNL     1     100.326  82.462  71.730  1.00  0.00     0.050 A 
ATOM     13  C   UNL     1      99.972  81.130  71.520  1.00  0.00     0.157 A 
BRANCH  11  14
ATOM     14  O   UNL     1      98.532  79.280  72.006  1.00  0.00    -0.493 OA
ATOM     15  C   UNL     1      97.481  79.029  71.074  1.00  0.00     0.278 C 
ENDBRANCH  11  14
BRANCH  13  16
ATOM     16  O   UNL     1     100.694  80.375  70.646  1.00  0.00    -0.504 OA
ATOM     17  H   UNL     1     101.519  80.842  70.430  1.00  0.00     0.293 HD
ENDBRANCH  13  16
ENDBRANCH   7   8
ENDBRANCH   5   7
ENDBRANCH   2   3
ENDBRANCH   1   2
BRANCH   1  18
ATOM     18  C   UNL     1      97.932  81.149  79.325  1.00  0.00     0.001 C 
BRANCH  18  19
ATOM     19  C   UNL     1      97.135  81.857  80.426  1.00  0.00     0.000 C 
BRANCH  19  20
ATOM     20  C   UNL     1      96.768  80.936  81.594  1.00  0.00     0.000 C 
BRANCH  20  21
ATOM     21  C   UNL     1      96.090  81.668  82.758  1.00  0.00     0.000 C 
BRANCH  21  22
ATOM     22  C   UNL     1      95.677  80.736  83.902  1.00  0.00     0.003 C 
BRANCH  22  23
ATOM     23  C   UNL     1      94.831  81.432  84.986  1.00  0.00    -0.017 C 
ATOM     24  C   UNL     1      93.351  81.374  84.603  1.00  0.00     0.007 C 
ATOM     25  C   UNL     1      95.248  82.887  85.210  1.00  0.00     0.007 C 
ENDBRANCH  22  23
ENDBRANCH  21  22
ENDBRANCH  20  21
ENDBRANCH  19  20
ENDBRANCH  18  19
ENDBRANCH   1  18
TORSDOF 12
ENDMDL
MODEL 8
REMARK VINA RESULT:    -4.970      4.185      6.918
REMARK INTER + INTRA:          -9.882
REMARK INTER:                  -9.117
REMARK INTRA:                  -0.766
REMARK UNBOUND:                -1.570
REMARK SMILES COc1cc(CNC(=O)CCCCCCCC(C)C)ccc1O
REMARK SMILES IDX 11 1 10 2 8 3 9 4 7 5 6 7 5 8 4 9 20 10 3 11 21 12 22 13
REMARK SMILES IDX 2 14 1 15 23 16 12 18 13 19 14 20 15 21 16 22 17 23 18 24
REMARK SMILES IDX 19 25
REMARK H PARENT 7 6 23 17
REMARK Flexibility Score: inf
ROOT
ATOM      1  C   UNL     1      70.834  83.608  66.276  1.00  0.00     0.010 C 
ENDROOT
BRANCH   1   2
ATOM      2  C   UNL     1      70.726  82.297  65.500  1.00  0.00     0.100 C 
BRANCH   2   3
ATOM      3  C   UNL     1      72.086  81.746  65.104  1.00  0.00     0.220 C 
ATOM      4  O   UNL     1      72.233  80.700  64.478  1.00  0.00    -0.275 OA
ATOM      5  N   UNL     1      73.115  82.564  65.544  1.00  0.00    -0.352 N 
ATOM      6  H   UNL     1      72.897  83.408  66.067  1.00  0.00     0.163 HD
BRANCH   5   7
ATOM      7  C   UNL     1      74.509  82.266  65.307  1.00  0.00     0.151 C 
BRANCH   7   8
ATOM      8  C   UNL     1      75.418  83.212  66.037  1.00  0.00    -0.025 A 
ATOM      9  C   UNL     1      74.961  83.861  67.179  1.00  0.00     0.056 A 
ATOM     10  C   UNL     1      76.705  83.430  65.563  1.00  0.00     0.009 A 
ATOM     11  C   UNL     1      75.806  84.740  67.856  1.00  0.00     0.160 A 
ATOM     12  C   UNL     1      77.550  84.311  66.241  1.00  0.00     0.050 A 
ATOM     13  C   UNL     1      77.100  84.966  67.388  1.00  0.00     0.157 A 
BRANCH  11  14
ATOM     14  O   UNL     1      75.355  85.374  68.975  1.00  0.00    -0.493 OA
ATOM     15  C   UNL     1      74.044  85.934  68.918  1.00  0.00     0.278 C 
ENDBRANCH  11  14
BRANCH  13  16
ATOM     16  O   UNL     1      77.934  85.822  68.041  1.00  0.00    -0.504 OA
ATOM     17  H   UNL     1      78.661  85.313  68.439  1.00  0.00     0.293 HD
ENDBRANCH  13  16
ENDBRANCH   7   8
ENDBRANCH   5   7
ENDBRANCH   2   3
ENDBRANCH   1   2
BRANCH   1  18
ATOM     18  C   UNL     1      69.476  84.199  66.665  1.00  0.00     0.001 C 
BRANCH  18  19
ATOM     19  C   UNL     1      69.035  83.955  68.112  1.00  0.00     0.000 C 
BRANCH  19  20
ATOM     20  C   UNL     1      68.431  85.194  68.778  1.00  0.00     0.000 C 
BRANCH  20  21
ATOM     21  C   UNL     1      69.190  85.643  70.033  1.00  0.00     0.000 C 
BRANCH  21  22
ATOM     22  C   UNL     1      68.550  85.152  71.336  1.00  0.00     0.003 C 
BRANCH  22  23
ATOM     23  C   UNL     1      67.329  85.986  71.773  1.00  0.00    -0.017 C 
ATOM     24  C   UNL     1      67.546  87.454  71.400  1.00  0.00     0.007 C 
ATOM     25  C   UNL     1      67.048  85.872  73.271  1.00  0.00     0.007 C 
ENDBRANCH  22  23
ENDBRANCH  21  22
ENDBRANCH  20  21
ENDBRANCH  19  20
ENDBRANCH  18  19
ENDBRANCH   1  18
TORSDOF 12
ENDMDL
MODEL 9
REMARK VINA RESULT:    -4.968     23.996     26.237
REMARK INTER + INTRA:          -9.878
REMARK INTER:                  -9.237
REMARK INTRA:                  -0.641
REMARK UNBOUND:                -1.570
REMARK SMILES COc1cc(CNC(=O)CCCCCCCC(C)C)ccc1O
REMARK SMILES IDX 11 1 10 2 8 3 9 4 7 5 6 7 5 8 4 9 20 10 3 11 21 12 22 13
REMARK SMILES IDX 2 14 1 15 23 16 12 18 13 19 14 20 15 21 16 22 17 23 18 24
REMARK SMILES IDX 19 25
REMARK H PARENT 7 6 23 17
REMARK Flexibility Score: inf
ROOT
ATOM      1  C   UNL     1      97.656  81.722  77.850  1.00  0.00     0.010 C 
ENDROOT
BRANCH   1   2
ATOM      2  C   UNL     1      96.277  82.240  77.445  1.00  0.00     0.100 C 
BRANCH   2   3
ATOM      3  C   UNL     1      96.329  83.113  76.202  1.00  0.00     0.220 C 
ATOM      4  O   UNL     1      95.448  83.915  75.905  1.00  0.00    -0.275 OA
ATOM      5  N   UNL     1      97.479  82.880  75.462  1.00  0.00    -0.352 N 
ATOM      6  H   UNL     1      98.149  82.186  75.783  1.00  0.00     0.163 HD
BRANCH   5   7
ATOM      7  C   UNL     1      97.771  83.573  74.229  1.00  0.00     0.151 C 
BRANCH   7   8
ATOM      8  C   UNL     1      98.562  82.720  73.280  1.00  0.00    -0.025 A 
ATOM      9  C   UNL     1      99.620  83.279  72.572  1.00  0.00     0.056 A 
ATOM     10  C   UNL     1      98.229  81.381  73.119  1.00  0.00     0.009 A 
ATOM     11  C   UNL     1     100.354  82.486  71.690  1.00  0.00     0.160 A 
ATOM     12  C   UNL     1      98.964  80.588  72.236  1.00  0.00     0.050 A 
ATOM     13  C   UNL     1     100.026  81.141  71.521  1.00  0.00     0.157 A 
BRANCH  11  14
ATOM     14  O   UNL     1     101.390  83.038  70.996  1.00  0.00    -0.493 OA
ATOM     15  C   UNL     1     101.642  84.426  71.205  1.00  0.00     0.278 C 
ENDBRANCH  11  14
BRANCH  13  16
ATOM     16  O   UNL     1     100.737  80.357  70.664  1.00  0.00    -0.504 OA
ATOM     17  H   UNL     1     100.250  79.528  70.516  1.00  0.00     0.293 HD
ENDBRANCH  13  16
ENDBRANCH   7   8
ENDBRANCH   5   7
ENDBRANCH   2   3
ENDBRANCH   1   2
BRANCH   1  18
ATOM     18  C   UNL     1      97.721  81.227  79.297  1.00  0.00     0.001 C 
BRANCH  18  19
ATOM     19  C   UNL     1      97.018  82.111  80.334  1.00  0.00     0.000 C 
BRANCH  19  20
ATOM     20  C   UNL     1      96.703  81.377  81.640  1.00  0.00     0.000 C 
BRANCH  20  21
ATOM     21  C   UNL     1      96.220  82.305  82.760  1.00  0.00     0.000 C 
BRANCH  21  22
ATOM     22  C   UNL     1      96.452  81.734  84.163  1.00  0.00     0.003 C 
BRANCH  22  23
ATOM     23  C   UNL     1      95.258  81.941  85.115  1.00  0.00    -0.017 C 
ATOM     24  C   UNL     1      95.582  81.349  86.488  1.00  0.00     0.007 C 
ATOM     25  C   UNL     1      93.967  81.320  84.580  1.00  0.00     0.007 C 
ENDBRANCH  22  23
ENDBRANCH  21  22
ENDBRANCH  20  21
ENDBRANCH  19  20
ENDBRANCH  18  19
ENDBRANCH   1  18
TORSDOF 12
ENDMDL
MODEL 10
REMARK VINA RESULT:    -4.946     23.906     27.111
REMARK INTER + INTRA:          -9.842
REMARK INTER:                  -8.295
REMARK INTRA:                  -1.546
REMARK UNBOUND:                -1.570
REMARK SMILES COc1cc(CNC(=O)CCCCCCCC(C)C)ccc1O
REMARK SMILES IDX 11 1 10 2 8 3 9 4 7 5 6 7 5 8 4 9 20 10 3 11 21 12 22 13
REMARK SMILES IDX 2 14 1 15 23 16 12 18 13 19 14 20 15 21 16 22 17 23 18 24
REMARK SMILES IDX 19 25
REMARK H PARENT 7 6 23 17
REMARK Flexibility Score: inf
ROOT
ATOM      1  C   UNL     1      92.167  78.087  85.199  1.00  0.00     0.010 C 
ENDROOT
BRANCH   1   2
ATOM      2  C   UNL     1      93.369  77.169  85.411  1.00  0.00     0.100 C 
BRANCH   2   3
ATOM      3  C   UNL     1      94.428  77.344  84.334  1.00  0.00     0.220 C 
ATOM      4  O   UNL     1      94.805  76.430  83.606  1.00  0.00    -0.275 OA
ATOM      5  N   UNL     1      94.904  78.646  84.294  1.00  0.00    -0.352 N 
ATOM      6  H   UNL     1      94.538  79.334  84.947  1.00  0.00     0.163 HD
BRANCH   5   7
ATOM      7  C   UNL     1      95.923  79.079  83.366  1.00  0.00     0.151 C 
BRANCH   7   8
ATOM      8  C   UNL     1      96.067  80.573  83.347  1.00  0.00    -0.025 A 
ATOM      9  C   UNL     1      95.861  81.298  84.515  1.00  0.00     0.056 A 
ATOM     10  C   UNL     1      96.404  81.215  82.162  1.00  0.00     0.009 A 
ATOM     11  C   UNL     1      95.995  82.687  84.497  1.00  0.00     0.160 A 
ATOM     12  C   UNL     1      96.537  82.604  82.145  1.00  0.00     0.050 A 
ATOM     13  C   UNL     1      96.332  83.340  83.311  1.00  0.00     0.157 A 
BRANCH  11  14
ATOM     14  O   UNL     1      95.792  83.394  85.643  1.00  0.00    -0.493 OA
ATOM     15  C   UNL     1      94.509  83.280  86.256  1.00  0.00     0.278 C 
ENDBRANCH  11  14
BRANCH  13  16
ATOM     16  O   UNL     1      96.466  84.695  83.281  1.00  0.00    -0.504 OA
ATOM     17  H   UNL     1      96.946  84.948  82.474  1.00  0.00     0.293 HD
ENDBRANCH  13  16
ENDBRANCH   7   8
ENDBRANCH   5   7
ENDBRANCH   2   3
ENDBRANCH   1   2
BRANCH   1  18
ATOM     18  C   UNL     1      91.687  78.771  86.482  1.00  0.00     0.001 C 
BRANCH  18  19
ATOM     19  C   UNL     1      91.662  80.303  86.449  1.00  0.00     0.000 C 
BRANCH  19  20
ATOM     20  C   UNL     1      91.869  80.881  85.046  1.00  0.00     0.000 C 
BRANCH  20  21
ATOM     21  C   UNL     1      90.564  81.309  84.365  1.00  0.00     0.000 C 
BRANCH  21  22
ATOM     22  C   UNL     1      89.391  81.455  85.339  1.00  0.00     0.003 C 
BRANCH  22  23
ATOM     23  C   UNL     1      88.183  80.566  84.984  1.00  0.00    -0.017 C 
ATOM     24  C   UNL     1      88.621  79.460  84.020  1.00  0.00     0.007 C 
ATOM     25  C   UNL     1      87.032  81.360  84.366  1.00  0.00     0.007 C 
ENDBRANCH  22  23
ENDBRANCH  21  22
ENDBRANCH  20  21
ENDBRANCH  19  20
ENDBRANCH  18  19
ENDBRANCH   1  18
TORSDOF 12
ENDMDL
