MODEL 1
REMARK VINA RESULT:    -5.636      0.000      0.000
REMARK INTER + INTRA:         -10.187
REMARK INTER:                  -9.095
REMARK INTRA:                  -1.092
REMARK UNBOUND:                -1.092
REMARK SMILES COc1cc(CNC(=O)CCCCCCC(C)C)ccc1O
REMARK SMILES IDX 11 1 10 2 8 3 7 4 9 6 6 7 5 8 3 9 21 10 4 11 20 12 19 13
REMARK SMILES IDX 2 14 1 15 22 16 12 18 13 19 14 20 15 21 16 22 17 23 18 24
REMARK H PARENT 7 5 22 17
REMARK Flexibility Score: inf
ROOT
ATOM      1  C   UNL     1      81.304  64.586  74.920  1.00  0.00     0.010 C 
ENDROOT
BRANCH   1   2
ATOM      2  C   UNL     1      81.754  65.278  76.237  1.00  0.00     0.100 C 
BRANCH   2   3
ATOM      3  C   UNL     1      83.175  65.035  76.570  1.00  0.00     0.220 C 
ATOM      4  N   UNL     1      83.530  63.962  77.334  1.00  0.00    -0.352 N 
ATOM      5  H   UNL     1      82.755  63.408  77.668  1.00  0.00     0.163 HD
ATOM      6  O   UNL     1      84.042  65.821  76.115  1.00  0.00    -0.275 OA
BRANCH   4   7
ATOM      7  C   UNL     1      84.872  63.595  77.670  1.00  0.00     0.151 C 
BRANCH   7   8
ATOM      8  C   UNL     1      85.339  64.190  78.953  1.00  0.00    -0.025 A 
ATOM      9  C   UNL     1      86.556  65.949  80.166  1.00  0.00     0.160 A 
ATOM     10  C   UNL     1      86.195  65.354  81.395  1.00  0.00     0.157 A 
ATOM     11  C   UNL     1      86.142  65.353  78.956  1.00  0.00     0.056 A 
ATOM     12  C   UNL     1      85.430  64.174  81.403  1.00  0.00     0.050 A 
ATOM     13  C   UNL     1      84.995  63.601  80.192  1.00  0.00     0.009 A 
BRANCH   9  14
ATOM     14  O   UNL     1      87.334  67.075  80.146  1.00  0.00    -0.493 OA
ATOM     15  C   UNL     1      86.896  68.065  79.197  1.00  0.00     0.278 C 
ENDBRANCH   9  14
BRANCH  10  16
ATOM     16  O   UNL     1      86.582  65.905  82.576  1.00  0.00    -0.504 OA
ATOM     17  H   UNL     1      86.450  66.856  82.542  1.00  0.00     0.293 HD
ENDBRANCH  10  16
ENDBRANCH   7   8
ENDBRANCH   4   7
ENDBRANCH   2   3
ENDBRANCH   1   2
BRANCH   1  18
ATOM     18  C   UNL     1      80.227  65.411  74.161  1.00  0.00     0.001 C 
BRANCH  18  19
ATOM     19  C   UNL     1      80.152  65.095  72.641  1.00  0.00     0.000 C 
BRANCH  19  20
ATOM     20  C   UNL     1      80.305  66.381  71.781  1.00  0.00     0.000 C 
BRANCH  20  21
ATOM     21  C   UNL     1      80.661  67.654  72.597  1.00  0.00     0.003 C 
BRANCH  21  22
ATOM     22  C   UNL     1      82.118  68.180  72.379  1.00  0.00    -0.017 C 
ATOM     23  C   UNL     1      82.404  68.376  70.863  1.00  0.00     0.007 C 
ATOM     24  C   UNL     1      83.211  67.282  73.029  1.00  0.00     0.007 C 
ENDBRANCH  21  22
ENDBRANCH  20  21
ENDBRANCH  19  20
ENDBRANCH  18  19
ENDBRANCH   1  18
TORSDOF 11
ENDMDL
MODEL 2
REMARK VINA RESULT:    -5.631      3.171      5.535
REMARK INTER + INTRA:         -10.180
REMARK INTER:                  -8.676
REMARK INTRA:                  -1.504
REMARK UNBOUND:                -1.092
REMARK SMILES COc1cc(CNC(=O)CCCCCCC(C)C)ccc1O
REMARK SMILES IDX 11 1 10 2 8 3 7 4 9 6 6 7 5 8 3 9 21 10 4 11 20 12 19 13
REMARK SMILES IDX 2 14 1 15 22 16 12 18 13 19 14 20 15 21 16 22 17 23 18 24
REMARK H PARENT 7 5 22 17
REMARK Flexibility Score: inf
ROOT
ATOM      1  C   UNL     1      82.660  66.634  70.839  1.00  0.00     0.010 C 
ENDROOT
BRANCH   1   2
ATOM      2  C   UNL     1      82.363  68.131  71.130  1.00  0.00     0.100 C 
BRANCH   2   3
ATOM      3  C   UNL     1      83.553  68.887  71.579  1.00  0.00     0.220 C 
ATOM      4  N   UNL     1      84.642  68.229  72.072  1.00  0.00    -0.352 N 
ATOM      5  H   UNL     1      84.536  67.227  72.136  1.00  0.00     0.163 HD
ATOM      6  O   UNL     1      83.547  70.138  71.474  1.00  0.00    -0.275 OA
BRANCH   4   7
ATOM      7  C   UNL     1      85.867  68.848  72.480  1.00  0.00     0.151 C 
BRANCH   7   8
ATOM      8  C   UNL     1      85.923  69.129  73.941  1.00  0.00    -0.025 A 
ATOM      9  C   UNL     1      85.349  68.513  76.252  1.00  0.00     0.160 A 
ATOM     10  C   UNL     1      86.063  69.634  76.730  1.00  0.00     0.157 A 
ATOM     11  C   UNL     1      85.269  68.280  74.863  1.00  0.00     0.056 A 
ATOM     12  C   UNL     1      86.685  70.508  75.821  1.00  0.00     0.050 A 
ATOM     13  C   UNL     1      86.626  70.252  74.437  1.00  0.00     0.009 A 
BRANCH   9  14
ATOM     14  O   UNL     1      84.706  67.679  77.126  1.00  0.00    -0.493 OA
ATOM     15  C   UNL     1      85.208  66.330  77.116  1.00  0.00     0.278 C 
ENDBRANCH   9  14
BRANCH  10  16
ATOM     16  O   UNL     1      86.155  69.884  78.063  1.00  0.00    -0.504 OA
ATOM     17  H   UNL     1      85.409  69.483  78.515  1.00  0.00     0.293 HD
ENDBRANCH  10  16
ENDBRANCH   7   8
ENDBRANCH   4   7
ENDBRANCH   2   3
ENDBRANCH   1   2
BRANCH   1  18
ATOM     18  C   UNL     1      81.360  65.808  70.623  1.00  0.00     0.001 C 
BRANCH  18  19
ATOM     19  C   UNL     1      80.195  66.215  71.570  1.00  0.00     0.000 C 
BRANCH  19  20
ATOM     20  C   UNL     1      80.129  65.295  72.822  1.00  0.00     0.000 C 
BRANCH  20  21
ATOM     21  C   UNL     1      80.280  66.047  74.174  1.00  0.00     0.003 C 
BRANCH  21  22
ATOM     22  C   UNL     1      81.439  65.524  75.083  1.00  0.00    -0.017 C 
ATOM     23  C   UNL     1      81.606  66.437  76.331  1.00  0.00     0.007 C 
ATOM     24  C   UNL     1      82.797  65.367  74.337  1.00  0.00     0.007 C 
ENDBRANCH  21  22
ENDBRANCH  20  21
ENDBRANCH  19  20
ENDBRANCH  18  19
ENDBRANCH   1  18
TORSDOF 11
ENDMDL
MODEL 3
REMARK VINA RESULT:    -5.420     24.132     27.006
REMARK INTER + INTRA:          -9.839
REMARK INTER:                  -7.835
REMARK INTRA:                  -2.003
REMARK UNBOUND:                -1.092
REMARK SMILES COc1cc(CNC(=O)CCCCCCC(C)C)ccc1O
REMARK SMILES IDX 11 1 10 2 8 3 7 4 9 6 6 7 5 8 3 9 21 10 4 11 20 12 19 13
REMARK SMILES IDX 2 14 1 15 22 16 12 18 13 19 14 20 15 21 16 22 17 23 18 24
REMARK H PARENT 7 5 22 17
REMARK Flexibility Score: inf
ROOT
ATOM      1  C   UNL     1      83.073  92.939  89.774  1.00  0.00     0.010 C 
ENDROOT
BRANCH   1   2
ATOM      2  C   UNL     1      82.807  93.347  88.298  1.00  0.00     0.100 C 
BRANCH   2   3
ATOM      3  C   UNL     1      83.451  92.446  87.317  1.00  0.00     0.220 C 
ATOM      4  N   UNL     1      83.100  91.129  87.257  1.00  0.00    -0.352 N 
ATOM      5  H   UNL     1      82.423  90.841  87.948  1.00  0.00     0.163 HD
ATOM      6  O   UNL     1      84.304  92.925  86.530  1.00  0.00    -0.275 OA
BRANCH   4   7
ATOM      7  C   UNL     1      83.611  90.180  86.315  1.00  0.00     0.151 C 
BRANCH   7   8
ATOM      8  C   UNL     1      82.549  89.350  85.682  1.00  0.00    -0.025 A 
ATOM      9  C   UNL     1      81.660  87.145  85.055  1.00  0.00     0.160 A 
ATOM     10  C   UNL     1      80.508  87.759  84.519  1.00  0.00     0.157 A 
ATOM     11  C   UNL     1      82.679  87.945  85.614  1.00  0.00     0.056 A 
ATOM     12  C   UNL     1      80.384  89.160  84.545  1.00  0.00     0.050 A 
ATOM     13  C   UNL     1      81.392  89.950  85.132  1.00  0.00     0.009 A 
BRANCH   9  14
ATOM     14  O   UNL     1      81.808  85.785  84.998  1.00  0.00    -0.493 OA
ATOM     15  C   UNL     1      82.600  85.243  86.071  1.00  0.00     0.278 C 
ENDBRANCH   9  14
BRANCH  10  16
ATOM     16  O   UNL     1      79.512  87.013  83.972  1.00  0.00    -0.504 OA
ATOM     17  H   UNL     1      78.681  87.490  84.041  1.00  0.00     0.293 HD
ENDBRANCH  10  16
ENDBRANCH   7   8
ENDBRANCH   4   7
ENDBRANCH   2   3
ENDBRANCH   1   2
BRANCH   1  18
ATOM     18  C   UNL     1      81.764  92.561  90.523  1.00  0.00     0.001 C 
BRANCH  18  19
ATOM     19  C   UNL     1      80.539  92.366  89.586  1.00  0.00     0.000 C 
BRANCH  19  20
ATOM     20  C   UNL     1      79.853  90.990  89.819  1.00  0.00     0.000 C 
BRANCH  20  21
ATOM     21  C   UNL     1      80.027  89.985  88.647  1.00  0.00     0.003 C 
BRANCH  21  22
ATOM     22  C   UNL     1      80.362  88.523  89.089  1.00  0.00    -0.017 C 
ATOM     23  C   UNL     1      81.897  88.344  89.260  1.00  0.00     0.007 C 
ATOM     24  C   UNL     1      79.790  87.434  88.134  1.00  0.00     0.007 C 
ENDBRANCH  21  22
ENDBRANCH  20  21
ENDBRANCH  19  20
ENDBRANCH  18  19
ENDBRANCH   1  18
TORSDOF 11
ENDMDL
MODEL 4
REMARK VINA RESULT:    -5.379      3.746      5.417
REMARK INTER + INTRA:          -9.773
REMARK INTER:                  -8.101
REMARK INTRA:                  -1.673
REMARK UNBOUND:                -1.092
REMARK SMILES COc1cc(CNC(=O)CCCCCCC(C)C)ccc1O
REMARK SMILES IDX 11 1 10 2 8 3 7 4 9 6 6 7 5 8 3 9 21 10 4 11 20 12 19 13
REMARK SMILES IDX 2 14 1 15 22 16 12 18 13 19 14 20 15 21 16 22 17 23 18 24
REMARK H PARENT 7 5 22 17
REMARK Flexibility Score: inf
ROOT
ATOM      1  C   UNL     1      82.999  64.202  75.027  1.00  0.00     0.010 C 
ENDROOT
BRANCH   1   2
ATOM      2  C   UNL     1      82.254  64.780  76.262  1.00  0.00     0.100 C 
BRANCH   2   3
ATOM      3  C   UNL     1      82.546  66.210  76.506  1.00  0.00     0.220 C 
ATOM      4  N   UNL     1      83.836  66.637  76.634  1.00  0.00    -0.352 N 
ATOM      5  H   UNL     1      84.529  65.904  76.592  1.00  0.00     0.163 HD
ATOM      6  O   UNL     1      81.588  67.018  76.568  1.00  0.00    -0.275 OA
BRANCH   4   7
ATOM      7  C   UNL     1      84.241  67.998  76.813  1.00  0.00     0.151 C 
BRANCH   7   8
ATOM      8  C   UNL     1      85.047  68.525  75.677  1.00  0.00    -0.025 A 
ATOM      9  C   UNL     1      85.631  68.500  73.288  1.00  0.00     0.160 A 
ATOM     10  C   UNL     1      86.549  69.552  73.499  1.00  0.00     0.157 A 
ATOM     11  C   UNL     1      84.902  67.983  74.380  1.00  0.00     0.056 A 
ATOM     12  C   UNL     1      86.731  70.074  74.793  1.00  0.00     0.050 A 
ATOM     13  C   UNL     1      85.978  69.572  75.873  1.00  0.00     0.009 A 
BRANCH   9  14
ATOM     14  O   UNL     1      85.475  67.959  72.041  1.00  0.00    -0.493 OA
ATOM     15  C   UNL     1      86.038  66.642  71.906  1.00  0.00     0.278 C 
ENDBRANCH   9  14
BRANCH  10  16
ATOM     16  O   UNL     1      87.265  70.069  72.467  1.00  0.00    -0.504 OA
ATOM     17  H   UNL     1      88.015  70.560  72.812  1.00  0.00     0.293 HD
ENDBRANCH  10  16
ENDBRANCH   7   8
ENDBRANCH   4   7
ENDBRANCH   2   3
ENDBRANCH   1   2
BRANCH   1  18
ATOM     18  C   UNL     1      82.309  64.595  73.689  1.00  0.00     0.001 C 
BRANCH  18  19
ATOM     19  C   UNL     1      80.760  64.474  73.724  1.00  0.00     0.000 C 
BRANCH  19  20
ATOM     20  C   UNL     1      80.073  65.846  73.472  1.00  0.00     0.000 C 
BRANCH  20  21
ATOM     21  C   UNL     1      81.047  66.975  73.035  1.00  0.00     0.003 C 
BRANCH  21  22
ATOM     22  C   UNL     1      81.048  67.276  71.501  1.00  0.00    -0.017 C 
ATOM     23  C   UNL     1      79.902  66.499  70.794  1.00  0.00     0.007 C 
ATOM     24  C   UNL     1      82.412  66.985  70.807  1.00  0.00     0.007 C 
ENDBRANCH  21  22
ENDBRANCH  20  21
ENDBRANCH  19  20
ENDBRANCH  18  19
ENDBRANCH   1  18
TORSDOF 11
ENDMDL
MODEL 5
REMARK VINA RESULT:    -5.331     26.234     28.731
REMARK INTER + INTRA:          -9.695
REMARK INTER:                  -8.420
REMARK INTRA:                  -1.275
REMARK UNBOUND:                -1.092
REMARK SMILES COc1cc(CNC(=O)CCCCCCC(C)C)ccc1O
REMARK SMILES IDX 11 1 10 2 8 3 7 4 9 6 6 7 5 8 3 9 21 10 4 11 20 12 19 13
REMARK SMILES IDX 2 14 1 15 22 16 12 18 13 19 14 20 15 21 16 22 17 23 18 24
REMARK H PARENT 7 5 22 17
REMARK Flexibility Score: inf
ROOT
ATOM      1  C   UNL     1      83.097  90.247  85.113  1.00  0.00     0.010 C 
ENDROOT
BRANCH   1   2
ATOM      2  C   UNL     1      83.470  89.648  86.498  1.00  0.00     0.100 C 
BRANCH   2   3
ATOM      3  C   UNL     1      82.909  90.410  87.636  1.00  0.00     0.220 C 
ATOM      4  N   UNL     1      83.485  91.581  88.032  1.00  0.00    -0.352 N 
ATOM      5  H   UNL     1      84.318  91.834  87.521  1.00  0.00     0.163 HD
ATOM      6  O   UNL     1      81.882  89.968  88.208  1.00  0.00    -0.275 OA
BRANCH   4   7
ATOM      7  C   UNL     1      82.998  92.430  89.077  1.00  0.00     0.151 C 
BRANCH   7   8
ATOM      8  C   UNL     1      82.887  93.857  88.670  1.00  0.00    -0.025 A 
ATOM      9  C   UNL     1      81.933  96.099  89.004  1.00  0.00     0.160 A 
ATOM     10  C   UNL     1      82.704  96.590  87.928  1.00  0.00     0.157 A 
ATOM     11  C   UNL     1      82.016  94.735  89.354  1.00  0.00     0.056 A 
ATOM     12  C   UNL     1      83.546  95.718  87.215  1.00  0.00     0.050 A 
ATOM     13  C   UNL     1      83.646  94.364  87.588  1.00  0.00     0.009 A 
BRANCH   9  14
ATOM     14  O   UNL     1      81.081  96.930  89.680  1.00  0.00    -0.493 OA
ATOM     15  C   UNL     1      79.705  96.801  89.279  1.00  0.00     0.278 C 
ENDBRANCH   9  14
BRANCH  10  16
ATOM     16  O   UNL     1      82.643  97.899  87.568  1.00  0.00    -0.504 OA
ATOM     17  H   UNL     1      83.504  98.185  87.253  1.00  0.00     0.293 HD
ENDBRANCH  10  16
ENDBRANCH   7   8
ENDBRANCH   4   7
ENDBRANCH   2   3
ENDBRANCH   1   2
BRANCH   1  18
ATOM     18  C   UNL     1      82.082  89.356  84.342  1.00  0.00     0.001 C 
BRANCH  18  19
ATOM     19  C   UNL     1      80.598  89.624  84.721  1.00  0.00     0.000 C 
BRANCH  19  20
ATOM     20  C   UNL     1      79.795  88.301  84.858  1.00  0.00     0.000 C 
BRANCH  20  21
ATOM     21  C   UNL     1      80.645  87.015  84.656  1.00  0.00     0.003 C 
BRANCH  21  22
ATOM     22  C   UNL     1      80.859  86.167  85.951  1.00  0.00    -0.017 C 
ATOM     23  C   UNL     1      80.205  86.867  87.175  1.00  0.00     0.007 C 
ATOM     24  C   UNL     1      82.353  85.841  86.245  1.00  0.00     0.007 C 
ENDBRANCH  21  22
ENDBRANCH  20  21
ENDBRANCH  19  20
ENDBRANCH  18  19
ENDBRANCH   1  18
TORSDOF 11
ENDMDL
MODEL 6
REMARK VINA RESULT:    -5.276      1.823      2.952
REMARK INTER + INTRA:          -9.607
REMARK INTER:                  -8.690
REMARK INTRA:                  -0.917
REMARK UNBOUND:                -1.092
REMARK SMILES COc1cc(CNC(=O)CCCCCCC(C)C)ccc1O
REMARK SMILES IDX 11 1 10 2 8 3 7 4 9 6 6 7 5 8 3 9 21 10 4 11 20 12 19 13
REMARK SMILES IDX 2 14 1 15 22 16 12 18 13 19 14 20 15 21 16 22 17 23 18 24
REMARK H PARENT 7 5 22 17
REMARK Flexibility Score: inf
ROOT
ATOM      1  C   UNL     1      81.445  66.306  75.928  1.00  0.00     0.010 C 
ENDROOT
BRANCH   1   2
ATOM      2  C   UNL     1      81.905  64.836  76.130  1.00  0.00     0.100 C 
BRANCH   2   3
ATOM      3  C   UNL     1      83.362  64.705  76.357  1.00  0.00     0.220 C 
ATOM      4  N   UNL     1      84.049  65.688  77.007  1.00  0.00    -0.352 N 
ATOM      5  H   UNL     1      83.495  66.492  77.262  1.00  0.00     0.163 HD
ATOM      6  O   UNL     1      83.940  63.664  75.961  1.00  0.00    -0.275 OA
BRANCH   4   7
ATOM      7  C   UNL     1      85.442  65.644  77.333  1.00  0.00     0.151 C 
BRANCH   7   8
ATOM      8  C   UNL     1      85.946  66.914  77.925  1.00  0.00    -0.025 A 
ATOM      9  C   UNL     1      87.124  68.103  79.728  1.00  0.00     0.160 A 
ATOM     10  C   UNL     1      86.948  69.323  79.040  1.00  0.00     0.157 A 
ATOM     11  C   UNL     1      86.606  66.912  79.175  1.00  0.00     0.056 A 
ATOM     12  C   UNL     1      86.259  69.344  77.814  1.00  0.00     0.050 A 
ATOM     13  C   UNL     1      85.771  68.147  77.254  1.00  0.00     0.009 A 
BRANCH   9  14
ATOM     14  O   UNL     1      87.758  68.078  80.940  1.00  0.00    -0.493 OA
ATOM     15  C   UNL     1      87.428  66.930  81.744  1.00  0.00     0.278 C 
ENDBRANCH   9  14
BRANCH  10  16
ATOM     16  O   UNL     1      87.435  70.486  79.550  1.00  0.00    -0.504 OA
ATOM     17  H   UNL     1      87.787  71.024  78.837  1.00  0.00     0.293 HD
ENDBRANCH  10  16
ENDBRANCH   7   8
ENDBRANCH   4   7
ENDBRANCH   2   3
ENDBRANCH   1   2
BRANCH   1  18
ATOM     18  C   UNL     1      80.866  66.550  74.505  1.00  0.00     0.001 C 
BRANCH  18  19
ATOM     19  C   UNL     1      80.022  65.363  73.960  1.00  0.00     0.000 C 
BRANCH  19  20
ATOM     20  C   UNL     1      80.185  65.204  72.422  1.00  0.00     0.000 C 
BRANCH  20  21
ATOM     21  C   UNL     1      80.175  66.545  71.638  1.00  0.00     0.003 C 
BRANCH  21  22
ATOM     22  C   UNL     1      81.483  66.837  70.831  1.00  0.00    -0.017 C 
ATOM     23  C   UNL     1      82.492  65.666  70.991  1.00  0.00     0.007 C 
ATOM     24  C   UNL     1      82.156  68.191  71.201  1.00  0.00     0.007 C 
ENDBRANCH  21  22
ENDBRANCH  20  21
ENDBRANCH  19  20
ENDBRANCH  18  19
ENDBRANCH   1  18
TORSDOF 11
ENDMDL
MODEL 7
REMARK VINA RESULT:    -5.267      3.721      6.811
REMARK INTER + INTRA:          -9.592
REMARK INTER:                  -8.167
REMARK INTRA:                  -1.425
REMARK UNBOUND:                -1.092
REMARK SMILES COc1cc(CNC(=O)CCCCCCC(C)C)ccc1O
REMARK SMILES IDX 11 1 10 2 8 3 7 4 9 6 6 7 5 8 3 9 21 10 4 11 20 12 19 13
REMARK SMILES IDX 2 14 1 15 22 16 12 18 13 19 14 20 15 21 16 22 17 23 18 24
REMARK H PARENT 7 5 22 17
REMARK Flexibility Score: inf
ROOT
ATOM      1  C   UNL     1      82.011  64.815  76.203  1.00  0.00     0.010 C 
ENDROOT
BRANCH   1   2
ATOM      2  C   UNL     1      81.906  66.353  76.400  1.00  0.00     0.100 C 
BRANCH   2   3
ATOM      3  C   UNL     1      83.165  67.069  76.095  1.00  0.00     0.220 C 
ATOM      4  N   UNL     1      83.456  67.437  74.814  1.00  0.00    -0.352 N 
ATOM      5  H   UNL     1      82.777  67.144  74.127  1.00  0.00     0.163 HD
ATOM      6  O   UNL     1      83.942  67.348  77.040  1.00  0.00    -0.275 OA
BRANCH   4   7
ATOM      7  C   UNL     1      84.610  68.181  74.410  1.00  0.00     0.151 C 
BRANCH   7   8
ATOM      8  C   UNL     1      85.024  67.905  73.006  1.00  0.00    -0.025 A 
ATOM      9  C   UNL     1      85.100  66.396  71.066  1.00  0.00     0.160 A 
ATOM     10  C   UNL     1      85.771  67.388  70.318  1.00  0.00     0.157 A 
ATOM     11  C   UNL     1      84.749  66.655  72.408  1.00  0.00     0.056 A 
ATOM     12  C   UNL     1      86.085  68.622  70.915  1.00  0.00     0.050 A 
ATOM     13  C   UNL     1      85.705  68.884  72.246  1.00  0.00     0.009 A 
BRANCH   9  14
ATOM     14  O   UNL     1      84.824  65.177  70.508  1.00  0.00    -0.493 OA
ATOM     15  C   UNL     1      83.535  65.109  69.872  1.00  0.00     0.278 C 
ENDBRANCH   9  14
BRANCH  10  16
ATOM     16  O   UNL     1      86.122  67.165  69.024  1.00  0.00    -0.504 OA
ATOM     17  H   UNL     1      85.341  66.935  68.516  1.00  0.00     0.293 HD
ENDBRANCH  10  16
ENDBRANCH   7   8
ENDBRANCH   4   7
ENDBRANCH   2   3
ENDBRANCH   1   2
BRANCH   1  18
ATOM     18  C   UNL     1      81.927  64.409  74.704  1.00  0.00     0.001 C 
BRANCH  18  19
ATOM     19  C   UNL     1      80.479  64.131  74.210  1.00  0.00     0.000 C 
BRANCH  19  20
ATOM     20  C   UNL     1      80.148  64.941  72.925  1.00  0.00     0.000 C 
BRANCH  20  21
ATOM     21  C   UNL     1      80.555  66.439  72.993  1.00  0.00     0.003 C 
BRANCH  21  22
ATOM     22  C   UNL     1      80.367  67.225  71.655  1.00  0.00    -0.017 C 
ATOM     23  C   UNL     1      79.856  66.277  70.534  1.00  0.00     0.007 C 
ATOM     24  C   UNL     1      81.647  67.980  71.188  1.00  0.00     0.007 C 
ENDBRANCH  21  22
ENDBRANCH  20  21
ENDBRANCH  19  20
ENDBRANCH  18  19
ENDBRANCH   1  18
TORSDOF 11
ENDMDL
MODEL 8
REMARK VINA RESULT:    -5.229      4.735      7.626
REMARK INTER + INTRA:          -9.531
REMARK INTER:                  -7.245
REMARK INTRA:                  -2.286
REMARK UNBOUND:                -1.092
REMARK SMILES COc1cc(CNC(=O)CCCCCCC(C)C)ccc1O
REMARK SMILES IDX 11 1 10 2 8 3 7 4 9 6 6 7 5 8 3 9 21 10 4 11 20 12 19 13
REMARK SMILES IDX 2 14 1 15 22 16 12 18 13 19 14 20 15 21 16 22 17 23 18 24
REMARK H PARENT 7 5 22 17
REMARK Flexibility Score: inf
ROOT
ATOM      1  C   UNL     1      81.061  64.701  74.911  1.00  0.00     0.010 C 
ENDROOT
BRANCH   1   2
ATOM      2  C   UNL     1      80.239  65.843  74.253  1.00  0.00     0.100 C 
BRANCH   2   3
ATOM      3  C   UNL     1      80.660  66.142  72.865  1.00  0.00     0.220 C 
ATOM      4  N   UNL     1      80.820  67.433  72.457  1.00  0.00    -0.352 N 
ATOM      5  H   UNL     1      80.589  68.127  73.153  1.00  0.00     0.163 HD
ATOM      6  O   UNL     1      80.887  65.184  72.086  1.00  0.00    -0.275 OA
BRANCH   4   7
ATOM      7  C   UNL     1      81.277  67.840  71.163  1.00  0.00     0.151 C 
BRANCH   7   8
ATOM      8  C   UNL     1      82.740  68.111  71.115  1.00  0.00    -0.025 A 
ATOM      9  C   UNL     1      85.006  67.455  70.420  1.00  0.00     0.160 A 
ATOM     10  C   UNL     1      85.525  68.641  70.982  1.00  0.00     0.157 A 
ATOM     11  C   UNL     1      83.623  67.190  70.507  1.00  0.00     0.056 A 
ATOM     12  C   UNL     1      84.661  69.547  71.624  1.00  0.00     0.050 A 
ATOM     13  C   UNL     1      83.278  69.291  71.682  1.00  0.00     0.009 A 
BRANCH   9  14
ATOM     14  O   UNL     1      85.842  66.548  69.827  1.00  0.00    -0.493 OA
ATOM     15  C   UNL     1      85.282  65.917  68.662  1.00  0.00     0.278 C 
ENDBRANCH   9  14
BRANCH  10  16
ATOM     16  O   UNL     1      86.853  68.922  70.914  1.00  0.00    -0.504 OA
ATOM     17  H   UNL     1      86.977  69.786  70.515  1.00  0.00     0.293 HD
ENDBRANCH  10  16
ENDBRANCH   7   8
ENDBRANCH   4   7
ENDBRANCH   2   3
ENDBRANCH   1   2
BRANCH   1  18
ATOM     18  C   UNL     1      81.700  65.139  76.260  1.00  0.00     0.001 C 
BRANCH  18  19
ATOM     19  C   UNL     1      81.828  66.680  76.421  1.00  0.00     0.000 C 
BRANCH  19  20
ATOM     20  C   UNL     1      83.297  67.154  76.238  1.00  0.00     0.000 C 
BRANCH  20  21
ATOM     21  C   UNL     1      83.739  67.302  74.755  1.00  0.00     0.003 C 
BRANCH  21  22
ATOM     22  C   UNL     1      84.879  66.326  74.316  1.00  0.00    -0.017 C 
ATOM     23  C   UNL     1      84.316  65.218  73.382  1.00  0.00     0.007 C 
ATOM     24  C   UNL     1      85.653  65.692  75.509  1.00  0.00     0.007 C 
ENDBRANCH  21  22
ENDBRANCH  20  21
ENDBRANCH  19  20
ENDBRANCH  18  19
ENDBRANCH   1  18
TORSDOF 11
ENDMDL
MODEL 9
REMARK VINA RESULT:    -5.202     20.098     21.908
REMARK INTER + INTRA:          -9.487
REMARK INTER:                  -8.547
REMARK INTRA:                  -0.940
REMARK UNBOUND:                -1.092
REMARK SMILES COc1cc(CNC(=O)CCCCCCC(C)C)ccc1O
REMARK SMILES IDX 11 1 10 2 8 3 7 4 9 6 6 7 5 8 3 9 21 10 4 11 20 12 19 13
REMARK SMILES IDX 2 14 1 15 22 16 12 18 13 19 14 20 15 21 16 22 17 23 18 24
REMARK H PARENT 7 5 22 17
REMARK Flexibility Score: inf
ROOT
ATOM      1  C   UNL     1      97.478  83.837  76.822  1.00  0.00     0.010 C 
ENDROOT
BRANCH   1   2
ATOM      2  C   UNL     1      96.793  82.896  77.851  1.00  0.00     0.100 C 
BRANCH   2   3
ATOM      3  C   UNL     1      97.642  82.598  79.027  1.00  0.00     0.220 C 
ATOM      4  N   UNL     1      97.105  82.593  80.281  1.00  0.00    -0.352 N 
ATOM      5  H   UNL     1      96.128  82.846  80.322  1.00  0.00     0.163 HD
ATOM      6  O   UNL     1      98.854  82.328  78.841  1.00  0.00    -0.275 OA
BRANCH   4   7
ATOM      7  C   UNL     1      97.812  82.264  81.481  1.00  0.00     0.151 C 
BRANCH   7   8
ATOM      8  C   UNL     1      96.977  81.530  82.471  1.00  0.00    -0.025 A 
ATOM      9  C   UNL     1      95.279  81.541  84.250  1.00  0.00     0.160 A 
ATOM     10  C   UNL     1      95.350  80.134  84.331  1.00  0.00     0.157 A 
ATOM     11  C   UNL     1      96.104  82.229  83.336  1.00  0.00     0.056 A 
ATOM     12  C   UNL     1      96.244  79.429  83.503  1.00  0.00     0.050 A 
ATOM     13  C   UNL     1      97.044  80.120  82.572  1.00  0.00     0.009 A 
BRANCH   9  14
ATOM     14  O   UNL     1      94.442  82.239  85.078  1.00  0.00    -0.493 OA
ATOM     15  C   UNL     1      95.120  83.183  85.926  1.00  0.00     0.278 C 
ENDBRANCH   9  14
BRANCH  10  16
ATOM     16  O   UNL     1      94.568  79.445  85.203  1.00  0.00    -0.504 OA
ATOM     17  H   UNL     1      94.852  79.630  86.101  1.00  0.00     0.293 HD
ENDBRANCH  10  16
ENDBRANCH   7   8
ENDBRANCH   4   7
ENDBRANCH   2   3
ENDBRANCH   1   2
BRANCH   1  18
ATOM     18  C   UNL     1      97.302  83.336  75.360  1.00  0.00     0.001 C 
BRANCH  18  19
ATOM     19  C   UNL     1      97.314  81.787  75.223  1.00  0.00     0.000 C 
BRANCH  19  20
ATOM     20  C   UNL     1      98.744  81.207  75.417  1.00  0.00     0.000 C 
BRANCH  20  21
ATOM     21  C   UNL     1      99.875  82.087  74.817  1.00  0.00     0.003 C 
BRANCH  21  22
ATOM     22  C   UNL     1     100.880  82.661  75.869  1.00  0.00    -0.017 C 
ATOM     23  C   UNL     1     101.809  83.720  75.211  1.00  0.00     0.007 C 
ATOM     24  C   UNL     1     101.724  81.568  76.589  1.00  0.00     0.007 C 
ENDBRANCH  21  22
ENDBRANCH  20  21
ENDBRANCH  19  20
ENDBRANCH  18  19
ENDBRANCH   1  18
TORSDOF 11
ENDMDL
MODEL 10
REMARK VINA RESULT:    -4.988      5.439      9.442
REMARK INTER + INTRA:          -9.143
REMARK INTER:                  -7.980
REMARK INTRA:                  -1.162
REMARK UNBOUND:                -1.092
REMARK SMILES COc1cc(CNC(=O)CCCCCCC(C)C)ccc1O
REMARK SMILES IDX 11 1 10 2 8 3 7 4 9 6 6 7 5 8 3 9 21 10 4 11 20 12 19 13
REMARK SMILES IDX 2 14 1 15 22 16 12 18 13 19 14 20 15 21 16 22 17 23 18 24
REMARK H PARENT 7 5 22 17
REMARK Flexibility Score: inf
ROOT
ATOM      1  C   UNL     1      83.102  66.789  71.007  1.00  0.00     0.010 C 
ENDROOT
BRANCH   1   2
ATOM      2  C   UNL     1      82.744  68.142  71.681  1.00  0.00     0.100 C 
BRANCH   2   3
ATOM      3  C   UNL     1      83.829  69.145  71.593  1.00  0.00     0.220 C 
ATOM      4  N   UNL     1      85.133  68.747  71.541  1.00  0.00    -0.352 N 
ATOM      5  H   UNL     1      85.272  67.750  71.613  1.00  0.00     0.163 HD
ATOM      6  O   UNL     1      83.522  70.361  71.541  1.00  0.00    -0.275 OA
BRANCH   4   7
ATOM      7  C   UNL     1      86.259  69.620  71.397  1.00  0.00     0.151 C 
BRANCH   7   8
ATOM      8  C   UNL     1      86.820  69.631  70.018  1.00  0.00    -0.025 A 
ATOM      9  C   UNL     1      87.872  70.845  68.156  1.00  0.00     0.160 A 
ATOM     10  C   UNL     1      87.932  69.650  67.407  1.00  0.00     0.157 A 
ATOM     11  C   UNL     1      87.300  70.830  69.446  1.00  0.00     0.056 A 
ATOM     12  C   UNL     1      87.421  68.457  67.950  1.00  0.00     0.050 A 
ATOM     13  C   UNL     1      86.879  68.444  69.250  1.00  0.00     0.009 A 
BRANCH   9  14
ATOM     14  O   UNL     1      88.330  72.019  67.622  1.00  0.00    -0.493 OA
ATOM     15  C   UNL     1      87.284  72.885  67.143  1.00  0.00     0.278 C 
ENDBRANCH   9  14
BRANCH  10  16
ATOM     16  O   UNL     1      88.475  69.635  66.161  1.00  0.00    -0.504 OA
ATOM     17  H   UNL     1      89.394  69.363  66.217  1.00  0.00     0.293 HD
ENDBRANCH  10  16
ENDBRANCH   7   8
ENDBRANCH   4   7
ENDBRANCH   2   3
ENDBRANCH   1   2
BRANCH   1  18
ATOM     18  C   UNL     1      81.845  65.911  70.749  1.00  0.00     0.001 C 
BRANCH  18  19
ATOM     19  C   UNL     1      80.574  66.401  71.500  1.00  0.00     0.000 C 
BRANCH  19  20
ATOM     20  C   UNL     1      80.207  65.456  72.678  1.00  0.00     0.000 C 
BRANCH  20  21
ATOM     21  C   UNL     1      80.251  66.133  74.076  1.00  0.00     0.003 C 
BRANCH  21  22
ATOM     22  C   UNL     1      81.264  65.490  75.079  1.00  0.00    -0.017 C 
ATOM     23  C   UNL     1      81.765  66.550  76.100  1.00  0.00     0.007 C 
ATOM     24  C   UNL     1      82.470  64.789  74.386  1.00  0.00     0.007 C 
ENDBRANCH  21  22
ENDBRANCH  20  21
ENDBRANCH  19  20
ENDBRANCH  18  19
ENDBRANCH   1  18
TORSDOF 11
ENDMDL
