MODEL 1
REMARK VINA RESULT:    -5.870      0.000      0.000
REMARK INTER + INTRA:          -9.882
REMARK INTER:                  -9.130
REMARK INTRA:                  -0.752
REMARK UNBOUND:                -0.752
REMARK SMILES COc1cc(CNC(=O)CCCCCC(C)C)ccc1O
REMARK SMILES IDX 10 1 8 2 7 3 9 5 6 6 5 7 3 8 20 9 4 10 19 11 18 12 2 13 1 14
REMARK SMILES IDX 21 15 11 17 12 18 13 19 14 20 15 21 16 22 17 23
REMARK H PARENT 7 4 21 16
REMARK Flexibility Score: inf
ROOT
ATOM      1  C   UNL     1      93.564  97.855  74.137  1.00  0.00     0.100 C 
ENDROOT
BRANCH   1   2
ATOM      2  C   UNL     1      93.632  98.840  73.038  1.00  0.00     0.220 C 
ATOM      3  N   UNL     1      92.550  99.016  72.228  1.00  0.00    -0.352 N 
ATOM      4  H   UNL     1      91.805  98.347  72.363  1.00  0.00     0.163 HD
ATOM      5  O   UNL     1      94.674  99.526  72.899  1.00  0.00    -0.275 OA
BRANCH   3   6
ATOM      6  C   UNL     1      92.416 100.044  71.247  1.00  0.00     0.151 C 
BRANCH   6   7
ATOM      7  C   UNL     1      91.314  99.789  70.280  1.00  0.00    -0.025 A 
ATOM      8  C   UNL     1      90.172 100.306  68.164  1.00  0.00     0.160 A 
ATOM      9  C   UNL     1      89.256  99.260  68.406  1.00  0.00     0.157 A 
ATOM     10  C   UNL     1      91.183 100.576  69.111  1.00  0.00     0.056 A 
ATOM     11  C   UNL     1      89.361  98.489  69.578  1.00  0.00     0.050 A 
ATOM     12  C   UNL     1      90.385  98.747  70.505  1.00  0.00     0.009 A 
BRANCH   8  13
ATOM     13  O   UNL     1      90.075 101.082  67.039  1.00  0.00    -0.493 OA
ATOM     14  C   UNL     1      90.918 100.644  65.956  1.00  0.00     0.278 C 
ENDBRANCH   8  13
BRANCH   9  15
ATOM     15  O   UNL     1      88.279  98.993  67.503  1.00  0.00    -0.504 OA
ATOM     16  H   UNL     1      87.551  98.547  67.942  1.00  0.00     0.293 HD
ENDBRANCH   9  15
ENDBRANCH   6   7
ENDBRANCH   3   6
ENDBRANCH   1   2
BRANCH   1  17
ATOM     17  C   UNL     1      94.939  97.268  74.555  1.00  0.00     0.010 C 
BRANCH  17  18
ATOM     18  C   UNL     1      95.068  95.773  74.156  1.00  0.00     0.001 C 
BRANCH  18  19
ATOM     19  C   UNL     1      94.191  94.827  75.017  1.00  0.00     0.000 C 
BRANCH  19  20
ATOM     20  C   UNL     1      94.124  95.279  76.505  1.00  0.00     0.003 C 
BRANCH  20  21
ATOM     21  C   UNL     1      92.735  95.078  77.194  1.00  0.00    -0.017 C 
ATOM     22  C   UNL     1      92.026  93.801  76.652  1.00  0.00     0.007 C 
ATOM     23  C   UNL     1      91.800  96.313  77.041  1.00  0.00     0.007 C 
ENDBRANCH  20  21
ENDBRANCH  19  20
ENDBRANCH  18  19
ENDBRANCH  17  18
ENDBRANCH   1  17
TORSDOF 10
ENDMDL
MODEL 2
REMARK VINA RESULT:    -5.855      2.589      8.361
REMARK INTER + INTRA:          -9.860
REMARK INTER:                  -9.023
REMARK INTRA:                  -0.837
REMARK UNBOUND:                -0.752
REMARK SMILES COc1cc(CNC(=O)CCCCCC(C)C)ccc1O
REMARK SMILES IDX 10 1 8 2 7 3 9 5 6 6 5 7 3 8 20 9 4 10 19 11 18 12 2 13 1 14
REMARK SMILES IDX 21 15 11 17 12 18 13 19 14 20 15 21 16 22 17 23
REMARK H PARENT 7 4 21 16
REMARK Flexibility Score: inf
ROOT
ATOM      1  C   UNL     1      89.713  98.655  69.687  1.00  0.00     0.100 C 
ENDROOT
BRANCH   1   2
ATOM      2  C   UNL     1      90.843  99.531  70.061  1.00  0.00     0.220 C 
ATOM      3  N   UNL     1      91.348  99.470  71.326  1.00  0.00    -0.352 N 
ATOM      4  H   UNL     1      90.812  98.907  71.970  1.00  0.00     0.163 HD
ATOM      5  O   UNL     1      91.343 100.285  69.191  1.00  0.00    -0.275 OA
BRANCH   3   6
ATOM      6  C   UNL     1      92.536 100.126  71.769  1.00  0.00     0.151 C 
BRANCH   6   7
ATOM      7  C   UNL     1      93.552  99.187  72.316  1.00  0.00    -0.025 A 
ATOM      8  C   UNL     1      95.650  97.929  72.061  1.00  0.00     0.160 A 
ATOM      9  C   UNL     1      95.522  97.452  73.383  1.00  0.00     0.157 A 
ATOM     10  C   UNL     1      94.655  98.778  71.530  1.00  0.00     0.056 A 
ATOM     11  C   UNL     1      94.416  97.832  74.165  1.00  0.00     0.050 A 
ATOM     12  C   UNL     1      93.441  98.697  73.638  1.00  0.00     0.009 A 
BRANCH   8  13
ATOM     13  O   UNL     1      96.709  97.556  71.276  1.00  0.00    -0.493 OA
ATOM     14  C   UNL     1      96.366  96.607  70.248  1.00  0.00     0.278 C 
ENDBRANCH   8  13
BRANCH   9  15
ATOM     15  O   UNL     1      96.471  96.634  73.902  1.00  0.00    -0.504 OA
ATOM     16  H   UNL     1      97.182  96.525  73.267  1.00  0.00     0.293 HD
ENDBRANCH   9  15
ENDBRANCH   6   7
ENDBRANCH   3   6
ENDBRANCH   1   2
BRANCH   1  17
ATOM     17  C   UNL     1      90.086  97.521  68.695  1.00  0.00     0.010 C 
BRANCH  17  18
ATOM     18  C   UNL     1      89.169  97.534  67.441  1.00  0.00     0.001 C 
BRANCH  18  19
ATOM     19  C   UNL     1      89.263  98.848  66.621  1.00  0.00     0.000 C 
BRANCH  19  20
ATOM     20  C   UNL     1      87.932  99.654  66.647  1.00  0.00     0.003 C 
BRANCH  20  21
ATOM     21  C   UNL     1      88.094 101.188  66.900  1.00  0.00    -0.017 C 
ATOM     22  C   UNL     1      86.962 101.990  66.192  1.00  0.00     0.007 C 
ATOM     23  C   UNL     1      89.486 101.729  66.462  1.00  0.00     0.007 C 
ENDBRANCH  20  21
ENDBRANCH  19  20
ENDBRANCH  18  19
ENDBRANCH  17  18
ENDBRANCH   1  17
TORSDOF 10
ENDMDL
MODEL 3
REMARK VINA RESULT:    -5.752      4.999      7.002
REMARK INTER + INTRA:          -9.699
REMARK INTER:                  -8.266
REMARK INTRA:                  -1.433
REMARK UNBOUND:                -0.752
REMARK SMILES COc1cc(CNC(=O)CCCCCC(C)C)ccc1O
REMARK SMILES IDX 10 1 8 2 7 3 9 5 6 6 5 7 3 8 20 9 4 10 19 11 18 12 2 13 1 14
REMARK SMILES IDX 21 15 11 17 12 18 13 19 14 20 15 21 16 22 17 23
REMARK H PARENT 7 4 21 16
REMARK Flexibility Score: inf
ROOT
ATOM      1  C   UNL     1      90.308  98.219  68.244  1.00  0.00     0.100 C 
ENDROOT
BRANCH   1   2
ATOM      2  C   UNL     1      89.482  98.719  67.125  1.00  0.00     0.220 C 
ATOM      3  N   UNL     1      88.202  99.121  67.366  1.00  0.00    -0.352 N 
ATOM      4  H   UNL     1      87.861  98.919  68.295  1.00  0.00     0.163 HD
ATOM      5  O   UNL     1      89.992  98.803  65.982  1.00  0.00    -0.275 OA
BRANCH   3   6
ATOM      6  C   UNL     1      87.357  99.781  66.423  1.00  0.00     0.151 C 
BRANCH   6   7
ATOM      7  C   UNL     1      87.383 101.263  66.553  1.00  0.00    -0.025 A 
ATOM      8  C   UNL     1      88.535 103.323  67.240  1.00  0.00     0.160 A 
ATOM      9  C   UNL     1      87.461 104.089  66.738  1.00  0.00     0.157 A 
ATOM     10  C   UNL     1      88.481 101.915  67.162  1.00  0.00     0.056 A 
ATOM     11  C   UNL     1      86.352 103.449  66.155  1.00  0.00     0.050 A 
ATOM     12  C   UNL     1      86.315 102.048  66.058  1.00  0.00     0.009 A 
BRANCH   8  13
ATOM     13  O   UNL     1      89.615 103.926  67.830  1.00  0.00    -0.493 OA
ATOM     14  C   UNL     1      89.524 104.009  69.265  1.00  0.00     0.278 C 
ENDBRANCH   8  13
BRANCH   9  15
ATOM     15  O   UNL     1      87.503 105.443  66.811  1.00  0.00    -0.504 OA
ATOM     16  H   UNL     1      87.588 105.809  65.928  1.00  0.00     0.293 HD
ENDBRANCH   9  15
ENDBRANCH   6   7
ENDBRANCH   3   6
ENDBRANCH   1   2
BRANCH   1  17
ATOM     17  C   UNL     1      89.508  97.898  69.535  1.00  0.00     0.010 C 
BRANCH  17  18
ATOM     18  C   UNL     1      89.959  98.790  70.724  1.00  0.00     0.001 C 
BRANCH  18  19
ATOM     19  C   UNL     1      89.923 100.308  70.404  1.00  0.00     0.000 C 
BRANCH  19  20
ATOM     20  C   UNL     1      91.148 101.063  70.997  1.00  0.00     0.003 C 
BRANCH  20  21
ATOM     21  C   UNL     1      92.402 101.122  70.065  1.00  0.00    -0.017 C 
ATOM     22  C   UNL     1      91.981 101.333  68.581  1.00  0.00     0.007 C 
ATOM     23  C   UNL     1      93.307  99.862  70.190  1.00  0.00     0.007 C 
ENDBRANCH  20  21
ENDBRANCH  19  20
ENDBRANCH  18  19
ENDBRANCH  17  18
ENDBRANCH   1  17
TORSDOF 10
ENDMDL
MODEL 4
REMARK VINA RESULT:    -5.688     18.835     21.562
REMARK INTER + INTRA:          -9.600
REMARK INTER:                  -9.119
REMARK INTRA:                  -0.481
REMARK UNBOUND:                -0.752
REMARK SMILES COc1cc(CNC(=O)CCCCCC(C)C)ccc1O
REMARK SMILES IDX 10 1 8 2 7 3 9 5 6 6 5 7 3 8 20 9 4 10 19 11 18 12 2 13 1 14
REMARK SMILES IDX 21 15 11 17 12 18 13 19 14 20 15 21 16 22 17 23
REMARK H PARENT 7 4 21 16
REMARK Flexibility Score: inf
ROOT
ATOM      1  C   UNL     1      95.235  81.488  83.851  1.00  0.00     0.100 C 
ENDROOT
BRANCH   1   2
ATOM      2  C   UNL     1      94.522  82.222  84.916  1.00  0.00     0.220 C 
ATOM      3  N   UNL     1      93.159  82.215  84.937  1.00  0.00    -0.352 N 
ATOM      4  H   UNL     1      92.724  81.803  84.124  1.00  0.00     0.163 HD
ATOM      5  O   UNL     1      95.189  82.805  85.806  1.00  0.00    -0.275 OA
BRANCH   3   6
ATOM      6  C   UNL     1      92.351  82.731  85.994  1.00  0.00     0.151 C 
BRANCH   6   7
ATOM      7  C   UNL     1      91.028  82.059  86.101  1.00  0.00    -0.025 A 
ATOM      8  C   UNL     1      89.201  80.772  85.074  1.00  0.00     0.160 A 
ATOM      9  C   UNL     1      88.540  80.720  86.319  1.00  0.00     0.157 A 
ATOM     10  C   UNL     1      90.431  81.456  84.968  1.00  0.00     0.056 A 
ATOM     11  C   UNL     1      89.112  81.339  87.446  1.00  0.00     0.050 A 
ATOM     12  C   UNL     1      90.348  81.998  87.340  1.00  0.00     0.009 A 
BRANCH   8  13
ATOM     13  O   UNL     1      88.652  80.193  83.960  1.00  0.00    -0.493 OA
ATOM     14  C   UNL     1      89.291  78.962  83.569  1.00  0.00     0.278 C 
ENDBRANCH   8  13
BRANCH   9  15
ATOM     15  O   UNL     1      87.357  80.067  86.431  1.00  0.00    -0.504 OA
ATOM     16  H   UNL     1      87.335  79.334  85.811  1.00  0.00     0.293 HD
ENDBRANCH   9  15
ENDBRANCH   6   7
ENDBRANCH   3   6
ENDBRANCH   1   2
BRANCH   1  17
ATOM     17  C   UNL     1      95.981  82.397  82.837  1.00  0.00     0.010 C 
BRANCH  17  18
ATOM     18  C   UNL     1      97.318  81.758  82.371  1.00  0.00     0.001 C 
BRANCH  18  19
ATOM     19  C   UNL     1      97.212  81.037  81.001  1.00  0.00     0.000 C 
BRANCH  19  20
ATOM     20  C   UNL     1      96.987  82.035  79.828  1.00  0.00     0.003 C 
BRANCH  20  21
ATOM     21  C   UNL     1      97.638  81.615  78.470  1.00  0.00    -0.017 C 
ATOM     22  C   UNL     1      96.888  82.264  77.270  1.00  0.00     0.007 C 
ATOM     23  C   UNL     1      97.707  80.071  78.285  1.00  0.00     0.007 C 
ENDBRANCH  20  21
ENDBRANCH  19  20
ENDBRANCH  18  19
ENDBRANCH  17  18
ENDBRANCH   1  17
TORSDOF 10
ENDMDL
MODEL 5
REMARK VINA RESULT:    -5.660      6.445      8.644
REMARK INTER + INTRA:          -9.555
REMARK INTER:                  -8.950
REMARK INTRA:                  -0.605
REMARK UNBOUND:                -0.752
REMARK SMILES COc1cc(CNC(=O)CCCCCC(C)C)ccc1O
REMARK SMILES IDX 10 1 8 2 7 3 9 5 6 6 5 7 3 8 20 9 4 10 19 11 18 12 2 13 1 14
REMARK SMILES IDX 21 15 11 17 12 18 13 19 14 20 15 21 16 22 17 23
REMARK H PARENT 7 4 21 16
REMARK Flexibility Score: inf
ROOT
ATOM      1  C   UNL     1      93.229  93.228  78.697  1.00  0.00     0.100 C 
ENDROOT
BRANCH   1   2
ATOM      2  C   UNL     1      94.543  93.856  78.945  1.00  0.00     0.220 C 
ATOM      3  N   UNL     1      95.182  94.498  77.927  1.00  0.00    -0.352 N 
ATOM      4  H   UNL     1      94.757  94.381  77.018  1.00  0.00     0.163 HD
ATOM      5  O   UNL     1      95.026  93.820  80.104  1.00  0.00    -0.275 OA
BRANCH   3   6
ATOM      6  C   UNL     1      96.363  95.289  78.066  1.00  0.00     0.151 C 
BRANCH   6   7
ATOM      7  C   UNL     1      96.496  96.331  77.013  1.00  0.00    -0.025 A 
ATOM      8  C   UNL     1      97.672  98.276  76.073  1.00  0.00     0.160 A 
ATOM      9  C   UNL     1      96.789  98.275  74.972  1.00  0.00     0.157 A 
ATOM     10  C   UNL     1      97.508  97.316  77.095  1.00  0.00     0.056 A 
ATOM     11  C   UNL     1      95.762  97.316  74.893  1.00  0.00     0.050 A 
ATOM     12  C   UNL     1      95.620  96.348  75.902  1.00  0.00     0.009 A 
BRANCH   8  13
ATOM     13  O   UNL     1      98.666  99.213  76.179  1.00  0.00    -0.493 OA
ATOM     14  C   UNL     1      99.262  99.284  77.489  1.00  0.00     0.278 C 
ENDBRANCH   8  13
BRANCH   9  15
ATOM     15  O   UNL     1      96.937  99.194  73.986  1.00  0.00    -0.504 OA
ATOM     16  H   UNL     1      97.766  99.041  73.527  1.00  0.00     0.293 HD
ENDBRANCH   9  15
ENDBRANCH   6   7
ENDBRANCH   3   6
ENDBRANCH   1   2
BRANCH   1  17
ATOM     17  C   UNL     1      92.375  93.943  77.615  1.00  0.00     0.010 C 
BRANCH  17  18
ATOM     18  C   UNL     1      90.926  93.385  77.569  1.00  0.00     0.001 C 
BRANCH  18  19
ATOM     19  C   UNL     1      90.422  93.094  76.131  1.00  0.00     0.000 C 
BRANCH  19  20
ATOM     20  C   UNL     1      91.104  91.839  75.512  1.00  0.00     0.003 C 
BRANCH  20  21
ATOM     21  C   UNL     1      90.119  90.758  74.959  1.00  0.00    -0.017 C 
ATOM     22  C   UNL     1      90.887  89.469  74.541  1.00  0.00     0.007 C 
ATOM     23  C   UNL     1      89.259  91.276  73.770  1.00  0.00     0.007 C 
ENDBRANCH  20  21
ENDBRANCH  19  20
ENDBRANCH  18  19
ENDBRANCH  17  18
ENDBRANCH   1  17
TORSDOF 10
ENDMDL
MODEL 6
REMARK VINA RESULT:    -5.593     21.715     24.133
REMARK INTER + INTRA:          -9.450
REMARK INTER:                  -8.118
REMARK INTRA:                  -1.333
REMARK UNBOUND:                -0.752
REMARK SMILES COc1cc(CNC(=O)CCCCCC(C)C)ccc1O
REMARK SMILES IDX 10 1 8 2 7 3 9 5 6 6 5 7 3 8 20 9 4 10 19 11 18 12 2 13 1 14
REMARK SMILES IDX 21 15 11 17 12 18 13 19 14 20 15 21 16 22 17 23
REMARK H PARENT 7 4 21 16
REMARK Flexibility Score: inf
ROOT
ATOM      1  C   UNL     1      77.205  85.462  66.085  1.00  0.00     0.100 C 
ENDROOT
BRANCH   1   2
ATOM      2  C   UNL     1      76.979  84.002  66.102  1.00  0.00     0.220 C 
ATOM      3  N   UNL     1      75.815  83.499  65.602  1.00  0.00    -0.352 N 
ATOM      4  H   UNL     1      75.118  84.192  65.369  1.00  0.00     0.163 HD
ATOM      5  O   UNL     1      77.884  83.251  66.540  1.00  0.00    -0.275 OA
BRANCH   3   6
ATOM      6  C   UNL     1      75.539  82.113  65.399  1.00  0.00     0.151 C 
BRANCH   6   7
ATOM      7  C   UNL     1      74.188  81.864  64.826  1.00  0.00    -0.025 A 
ATOM      8  C   UNL     1      71.739  81.924  65.036  1.00  0.00     0.160 A 
ATOM      9  C   UNL     1      71.616  81.454  63.711  1.00  0.00     0.157 A 
ATOM     10  C   UNL     1      73.023  82.109  65.591  1.00  0.00     0.056 A 
ATOM     11  C   UNL     1      72.768  81.182  62.951  1.00  0.00     0.050 A 
ATOM     12  C   UNL     1      74.044  81.391  63.501  1.00  0.00     0.009 A 
BRANCH   8  13
ATOM     13  O   UNL     1      70.630  82.176  65.800  1.00  0.00    -0.493 OA
ATOM     14  C   UNL     1      70.543  83.535  66.270  1.00  0.00     0.278 C 
ENDBRANCH   8  13
BRANCH   9  15
ATOM     15  O   UNL     1      70.386  81.271  63.169  1.00  0.00    -0.504 OA
ATOM     16  H   UNL     1      70.216  80.331  63.071  1.00  0.00     0.293 HD
ENDBRANCH   9  15
ENDBRANCH   6   7
ENDBRANCH   3   6
ENDBRANCH   1   2
BRANCH   1  17
ATOM     17  C   UNL     1      76.056  86.279  65.435  1.00  0.00     0.010 C 
BRANCH  17  18
ATOM     18  C   UNL     1      75.841  87.639  66.155  1.00  0.00     0.001 C 
BRANCH  18  19
ATOM     19  C   UNL     1      76.138  87.583  67.677  1.00  0.00     0.000 C 
BRANCH  19  20
ATOM     20  C   UNL     1      74.837  87.590  68.531  1.00  0.00     0.003 C 
BRANCH  20  21
ATOM     21  C   UNL     1      74.346  86.181  68.997  1.00  0.00    -0.017 C 
ATOM     22  C   UNL     1      75.552  85.264  69.358  1.00  0.00     0.007 C 
ATOM     23  C   UNL     1      73.437  85.479  67.947  1.00  0.00     0.007 C 
ENDBRANCH  20  21
ENDBRANCH  19  20
ENDBRANCH  18  19
ENDBRANCH  17  18
ENDBRANCH   1  17
TORSDOF 10
ENDMDL
MODEL 7
REMARK VINA RESULT:    -5.561      6.467     10.065
REMARK INTER + INTRA:          -9.402
REMARK INTER:                  -8.225
REMARK INTRA:                  -1.177
REMARK UNBOUND:                -0.752
REMARK SMILES COc1cc(CNC(=O)CCCCCC(C)C)ccc1O
REMARK SMILES IDX 10 1 8 2 7 3 9 5 6 6 5 7 3 8 20 9 4 10 19 11 18 12 2 13 1 14
REMARK SMILES IDX 21 15 11 17 12 18 13 19 14 20 15 21 16 22 17 23
REMARK H PARENT 7 4 21 16
REMARK Flexibility Score: inf
ROOT
ATOM      1  C   UNL     1      92.806  93.179  78.300  1.00  0.00     0.100 C 
ENDROOT
BRANCH   1   2
ATOM      2  C   UNL     1      94.069  93.332  79.052  1.00  0.00     0.220 C 
ATOM      3  N   UNL     1      94.997  94.235  78.626  1.00  0.00    -0.352 N 
ATOM      4  H   UNL     1      94.803  94.651  77.727  1.00  0.00     0.163 HD
ATOM      5  O   UNL     1      94.242  92.655  80.095  1.00  0.00    -0.275 OA
BRANCH   3   6
ATOM      6  C   UNL     1      96.172  94.607  79.346  1.00  0.00     0.151 C 
BRANCH   6   7
ATOM      7  C   UNL     1      96.721  95.925  78.928  1.00  0.00    -0.025 A 
ATOM      8  C   UNL     1      97.675  98.117  79.504  1.00  0.00     0.160 A 
ATOM      9  C   UNL     1      97.828  98.409  78.131  1.00  0.00     0.157 A 
ATOM     10  C   UNL     1      97.106  96.886  79.893  1.00  0.00     0.056 A 
ATOM     11  C   UNL     1      97.424  97.471  77.163  1.00  0.00     0.050 A 
ATOM     12  C   UNL     1      96.880  96.237  77.558  1.00  0.00     0.009 A 
BRANCH   8  13
ATOM     13  O   UNL     1      98.043  99.025  80.462  1.00  0.00    -0.493 OA
ATOM     14  C   UNL     1      98.003  98.502  81.804  1.00  0.00     0.278 C 
ENDBRANCH   8  13
BRANCH   9  15
ATOM     15  O   UNL     1      98.372  99.590  77.747  1.00  0.00    -0.504 OA
ATOM     16  H   UNL     1      99.291  99.624  78.021  1.00  0.00     0.293 HD
ENDBRANCH   9  15
ENDBRANCH   6   7
ENDBRANCH   3   6
ENDBRANCH   1   2
BRANCH   1  17
ATOM     17  C   UNL     1      92.326  94.473  77.589  1.00  0.00     0.010 C 
BRANCH  17  18
ATOM     18  C   UNL     1      92.336  94.314  76.044  1.00  0.00     0.001 C 
BRANCH  18  19
ATOM     19  C   UNL     1      92.940  95.537  75.303  1.00  0.00     0.000 C 
BRANCH  19  20
ATOM     20  C   UNL     1      94.438  95.324  74.941  1.00  0.00     0.003 C 
BRANCH  20  21
ATOM     21  C   UNL     1      95.136  96.552  74.271  1.00  0.00    -0.017 C 
ATOM     22  C   UNL     1      94.165  97.767  74.190  1.00  0.00     0.007 C 
ATOM     23  C   UNL     1      95.705  96.228  72.859  1.00  0.00     0.007 C 
ENDBRANCH  20  21
ENDBRANCH  19  20
ENDBRANCH  18  19
ENDBRANCH  17  18
ENDBRANCH   1  17
TORSDOF 10
ENDMDL
MODEL 8
REMARK VINA RESULT:    -5.553      7.194     11.853
REMARK INTER + INTRA:          -9.389
REMARK INTER:                  -8.751
REMARK INTRA:                  -0.639
REMARK UNBOUND:                -0.752
REMARK SMILES COc1cc(CNC(=O)CCCCCC(C)C)ccc1O
REMARK SMILES IDX 10 1 8 2 7 3 9 5 6 6 5 7 3 8 20 9 4 10 19 11 18 12 2 13 1 14
REMARK SMILES IDX 21 15 11 17 12 18 13 19 14 20 15 21 16 22 17 23
REMARK H PARENT 7 4 21 16
REMARK Flexibility Score: inf
ROOT
ATOM      1  C   UNL     1      93.390  93.301  78.684  1.00  0.00     0.100 C 
ENDROOT
BRANCH   1   2
ATOM      2  C   UNL     1      94.641  93.165  79.459  1.00  0.00     0.220 C 
ATOM      3  N   UNL     1      95.756  93.836  79.054  1.00  0.00    -0.352 N 
ATOM      4  H   UNL     1      95.677  94.286  78.153  1.00  0.00     0.163 HD
ATOM      5  O   UNL     1      94.639  92.466  80.502  1.00  0.00    -0.275 OA
BRANCH   3   6
ATOM      6  C   UNL     1      96.972  93.934  79.796  1.00  0.00     0.151 C 
BRANCH   6   7
ATOM      7  C   UNL     1      96.967  95.050  80.780  1.00  0.00    -0.025 A 
ATOM      8  C   UNL     1      98.016  96.240  82.659  1.00  0.00     0.160 A 
ATOM      9  C   UNL     1      96.995  97.212  82.611  1.00  0.00     0.157 A 
ATOM     10  C   UNL     1      97.986  95.155  81.757  1.00  0.00     0.056 A 
ATOM     11  C   UNL     1      95.962  97.102  81.661  1.00  0.00     0.050 A 
ATOM     12  C   UNL     1      95.951  96.033  80.749  1.00  0.00     0.009 A 
BRANCH   8  13
ATOM     13  O   UNL     1      99.020  96.317  83.589  1.00  0.00    -0.493 OA
ATOM     14  C   UNL     1     100.121  95.424  83.333  1.00  0.00     0.278 C 
ENDBRANCH   8  13
BRANCH   9  15
ATOM     15  O   UNL     1      97.013  98.257  83.475  1.00  0.00    -0.504 OA
ATOM     16  H   UNL     1      97.773  98.813  83.289  1.00  0.00     0.293 HD
ENDBRANCH   9  15
ENDBRANCH   6   7
ENDBRANCH   3   6
ENDBRANCH   1   2
BRANCH   1  17
ATOM     17  C   UNL     1      93.454  94.357  77.549  1.00  0.00     0.010 C 
BRANCH  17  18
ATOM     18  C   UNL     1      93.354  93.697  76.146  1.00  0.00     0.001 C 
BRANCH  18  19
ATOM     19  C   UNL     1      94.113  94.480  75.041  1.00  0.00     0.000 C 
BRANCH  19  20
ATOM     20  C   UNL     1      93.723  95.986  75.014  1.00  0.00     0.003 C 
BRANCH  20  21
ATOM     21  C   UNL     1      94.359  96.811  73.848  1.00  0.00    -0.017 C 
ATOM     22  C   UNL     1      95.831  96.371  73.594  1.00  0.00     0.007 C 
ATOM     23  C   UNL     1      94.295  98.347  74.091  1.00  0.00     0.007 C 
ENDBRANCH  20  21
ENDBRANCH  19  20
ENDBRANCH  18  19
ENDBRANCH  17  18
ENDBRANCH   1  17
TORSDOF 10
ENDMDL
MODEL 9
REMARK VINA RESULT:    -5.505      6.041      7.610
REMARK INTER + INTRA:          -9.314
REMARK INTER:                  -8.420
REMARK INTRA:                  -0.894
REMARK UNBOUND:                -0.752
REMARK SMILES COc1cc(CNC(=O)CCCCCC(C)C)ccc1O
REMARK SMILES IDX 10 1 8 2 7 3 9 5 6 6 5 7 3 8 20 9 4 10 19 11 18 12 2 13 1 14
REMARK SMILES IDX 21 15 11 17 12 18 13 19 14 20 15 21 16 22 17 23
REMARK H PARENT 7 4 21 16
REMARK Flexibility Score: inf
ROOT
ATOM      1  C   UNL     1      96.064  94.696  80.115  1.00  0.00     0.100 C 
ENDROOT
BRANCH   1   2
ATOM      2  C   UNL     1      96.998  95.321  79.155  1.00  0.00     0.220 C 
ATOM      3  N   UNL     1      96.620  96.451  78.493  1.00  0.00    -0.352 N 
ATOM      4  H   UNL     1      95.651  96.711  78.614  1.00  0.00     0.163 HD
ATOM      5  O   UNL     1      98.139  94.821  79.001  1.00  0.00    -0.275 OA
BRANCH   3   6
ATOM      6  C   UNL     1      97.476  97.250  77.676  1.00  0.00     0.151 C 
BRANCH   6   7
ATOM      7  C   UNL     1      97.163  97.145  76.225  1.00  0.00    -0.025 A 
ATOM      8  C   UNL     1      95.581  96.623  74.417  1.00  0.00     0.160 A 
ATOM      9  C   UNL     1      96.546  97.010  73.463  1.00  0.00     0.157 A 
ATOM     10  C   UNL     1      95.902  96.675  75.790  1.00  0.00     0.056 A 
ATOM     11  C   UNL     1      97.813  97.454  73.884  1.00  0.00     0.050 A 
ATOM     12  C   UNL     1      98.118  97.527  75.254  1.00  0.00     0.009 A 
BRANCH   8  13
ATOM     13  O   UNL     1      94.348  96.169  74.028  1.00  0.00    -0.493 OA
ATOM     14  C   UNL     1      93.594  95.551  75.088  1.00  0.00     0.278 C 
ENDBRANCH   8  13
BRANCH   9  15
ATOM     15  O   UNL     1      96.248  96.962  72.141  1.00  0.00    -0.504 OA
ATOM     16  H   UNL     1      96.863  96.374  71.695  1.00  0.00     0.293 HD
ENDBRANCH   9  15
ENDBRANCH   6   7
ENDBRANCH   3   6
ENDBRANCH   1   2
BRANCH   1  17
ATOM     17  C   UNL     1      95.166  93.588  79.503  1.00  0.00     0.010 C 
BRANCH  17  18
ATOM     18  C   UNL     1      94.207  94.160  78.423  1.00  0.00     0.001 C 
BRANCH  18  19
ATOM     19  C   UNL     1      93.269  93.090  77.804  1.00  0.00     0.000 C 
BRANCH  19  20
ATOM     20  C   UNL     1      91.796  93.252  78.280  1.00  0.00     0.003 C 
BRANCH  20  21
ATOM     21  C   UNL     1      90.735  93.317  77.134  1.00  0.00    -0.017 C 
ATOM     22  C   UNL     1      91.246  92.580  75.861  1.00  0.00     0.007 C 
ATOM     23  C   UNL     1      90.320  94.774  76.776  1.00  0.00     0.007 C 
ENDBRANCH  20  21
ENDBRANCH  19  20
ENDBRANCH  18  19
ENDBRANCH  17  18
ENDBRANCH   1  17
TORSDOF 10
ENDMDL
MODEL 10
REMARK VINA RESULT:    -5.485     21.849     24.615
REMARK INTER + INTRA:          -9.284
REMARK INTER:                  -7.979
REMARK INTRA:                  -1.305
REMARK UNBOUND:                -0.752
REMARK SMILES COc1cc(CNC(=O)CCCCCC(C)C)ccc1O
REMARK SMILES IDX 10 1 8 2 7 3 9 5 6 6 5 7 3 8 20 9 4 10 19 11 18 12 2 13 1 14
REMARK SMILES IDX 21 15 11 17 12 18 13 19 14 20 15 21 16 22 17 23
REMARK H PARENT 7 4 21 16
REMARK Flexibility Score: inf
ROOT
ATOM      1  C   UNL     1      70.448  83.509  64.635  1.00  0.00     0.100 C 
ENDROOT
BRANCH   1   2
ATOM      2  C   UNL     1      70.911  84.116  65.900  1.00  0.00     0.220 C 
ATOM      3  N   UNL     1      72.005  84.929  65.891  1.00  0.00    -0.352 N 
ATOM      4  H   UNL     1      72.510  84.952  65.017  1.00  0.00     0.163 HD
ATOM      5  O   UNL     1      70.259  83.904  66.951  1.00  0.00    -0.275 OA
BRANCH   3   6
ATOM      6  C   UNL     1      72.456  85.712  66.997  1.00  0.00     0.151 C 
BRANCH   6   7
ATOM      7  C   UNL     1      73.927  85.636  67.205  1.00  0.00    -0.025 A 
ATOM      8  C   UNL     1      76.043  86.695  67.876  1.00  0.00     0.160 A 
ATOM      9  C   UNL     1      76.718  85.474  67.667  1.00  0.00     0.157 A 
ATOM     10  C   UNL     1      74.656  86.774  67.626  1.00  0.00     0.056 A 
ATOM     11  C   UNL     1      76.007  84.343  67.223  1.00  0.00     0.050 A 
ATOM     12  C   UNL     1      74.622  84.422  66.999  1.00  0.00     0.009 A 
BRANCH   8  13
ATOM     13  O   UNL     1      76.719  87.813  68.288  1.00  0.00    -0.493 OA
ATOM     14  C   UNL     1      77.301  88.572  67.211  1.00  0.00     0.278 C 
ENDBRANCH   8  13
BRANCH   9  15
ATOM     15  O   UNL     1      78.051  85.388  67.902  1.00  0.00    -0.504 OA
ATOM     16  H   UNL     1      78.514  86.027  67.355  1.00  0.00     0.293 HD
ENDBRANCH   9  15
ENDBRANCH   6   7
ENDBRANCH   3   6
ENDBRANCH   1   2
BRANCH   1  17
ATOM     17  C   UNL     1      70.323  81.962  64.677  1.00  0.00     0.010 C 
BRANCH  17  18
ATOM     18  C   UNL     1      70.768  81.315  63.336  1.00  0.00     0.001 C 
BRANCH  18  19
ATOM     19  C   UNL     1      72.125  80.569  63.432  1.00  0.00     0.000 C 
BRANCH  19  20
ATOM     20  C   UNL     1      73.333  81.503  63.133  1.00  0.00     0.003 C 
BRANCH  20  21
ATOM     21  C   UNL     1      74.132  81.974  64.392  1.00  0.00    -0.017 C 
ATOM     22  C   UNL     1      75.666  81.847  64.155  1.00  0.00     0.007 C 
ATOM     23  C   UNL     1      73.726  81.209  65.685  1.00  0.00     0.007 C 
ENDBRANCH  20  21
ENDBRANCH  19  20
ENDBRANCH  18  19
ENDBRANCH  17  18
ENDBRANCH   1  17
TORSDOF 10
ENDMDL
