MODEL 1
REMARK VINA RESULT:    -5.909      0.000      0.000
REMARK INTER + INTRA:         -12.381
REMARK INTER:                 -10.400
REMARK INTRA:                  -1.981
REMARK UNBOUND:                -1.981
REMARK SMILES C=C(C)[C@]12C[C@@H](C)[C@@]34O[C@](Cc5ccccc5)(O[C@@H]1[C@@H]3C=C(COC(=O)Cc1ccc(O)c(OC)c1)C[C@]1(O)C(=O)C(C)=C[C@@H]41)O2
REMARK SMILES IDX 23 1 22 2 21 3 20 4 9 5 8 6 10 7 6 8 18 9 46 10 19 11 5 12
REMARK SMILES IDX 7 13 4 14 45 15 38 16 44 17 40 18 42 20 41 21 43 22 39 23
REMARK SMILES IDX 11 25 12 26 13 27 17 28 14 29 16 30 15 31 2 32 3 33 1 34
REMARK SMILES IDX 37 35 24 37 25 38 26 39 27 40 28 41 36 42 29 43 33 44 30 45
REMARK SMILES IDX 31 46 34 47 35 48 32 49
REMARK H PARENT 39 24 32 50
REMARK Flexibility Score: 90.00
ROOT
ATOM      1  C   UNL     1      94.357  99.168  74.132  1.00  0.00     0.264 C 
ENDROOT
BRANCH   1   2
ATOM      2  C   UNL     1      94.550  98.037  75.115  1.00  0.00    -0.033 C 
ATOM      3  C   UNL     1      95.442  98.178  76.116  1.00  0.00    -0.015 C 
BRANCH   3   4
ATOM      4  C   UNL     1      95.872  97.175  77.174  1.00  0.00     0.078 C 
ATOM      5  O   UNL     1      94.422  97.540  79.144  1.00  0.00    -0.319 OA
ATOM      6  C   UNL     1      94.770  96.562  78.116  1.00  0.00     0.095 C 
ATOM      7  C   UNL     1      95.534  98.244  79.728  1.00  0.00     0.289 C 
ATOM      8  C   UNL     1      95.389  95.277  78.805  1.00  0.00     0.023 C 
ATOM      9  O   UNL     1      96.293  98.927  78.733  1.00  0.00    -0.320 OA
ATOM     10  O   UNL     1      96.450  97.366  80.376  1.00  0.00    -0.313 OA
ATOM     11  C   UNL     1      96.939  97.811  78.099  1.00  0.00     0.170 C 
ATOM     12  C   UNL     1      96.919  95.443  79.055  1.00  0.00     0.049 C 
ATOM     13  C   UNL     1      94.703  94.831  80.107  1.00  0.00     0.011 C 
ATOM     14  C   UNL     1      97.297  96.904  79.303  1.00  0.00     0.122 C 
BRANCH   6  15
ATOM     15  C   UNL     1      93.444  96.330  77.336  1.00  0.00     0.086 C 
ATOM     16  C   UNL     1      93.584  95.740  75.917  1.00  0.00     0.140 CG0
ATOM     17  C   UNL     1      92.361  95.493  77.957  1.00  0.00    -0.010 C 
ATOM     18  C   UNL     1      92.346  94.877  75.798  1.00  0.00     0.190 C 
ATOM     19  G   UNL     1      93.645  96.827  74.844  1.00  0.00     0.000 G0
ATOM     20  C   UNL     1      91.707  94.686  77.114  1.00  0.00    -0.008 C 
ATOM     21  O   UNL     1      91.942  94.356  74.770  1.00  0.00    -0.291 OA
ATOM     22  C   UNL     1      90.550  93.799  77.352  1.00  0.00     0.048 C 
BRANCH  16  23
ATOM     23  O   UNL     1      94.653  94.819  75.782  1.00  0.00    -0.381 OA
ATOM     24  H   UNL     1      94.397  93.986  76.210  1.00  0.00     0.212 HD
ENDBRANCH  16  23
ENDBRANCH   6  15
BRANCH   7  25
ATOM     25  C   UNL     1      94.992  99.241  80.732  1.00  0.00     0.135 C 
BRANCH  25  26
ATOM     26  C   UNL     1      96.089  99.855  81.567  1.00  0.00    -0.040 A 
ATOM     27  C   UNL     1      96.953 100.794  81.001  1.00  0.00     0.004 A 
ATOM     28  C   UNL     1      96.238  99.487  82.903  1.00  0.00     0.004 A 
ATOM     29  C   UNL     1      97.967 101.362  81.773  1.00  0.00     0.000 A 
ATOM     30  C   UNL     1      97.252 100.056  83.675  1.00  0.00     0.000 A 
ATOM     31  C   UNL     1      98.116 100.993  83.109  1.00  0.00     0.000 A 
ENDBRANCH  25  26
ENDBRANCH   7  25
BRANCH  14  32
ATOM     32  C   UNL     1      98.721  97.066  79.724  1.00  0.00    -0.046 C 
ATOM     33  C   UNL     1      98.964  97.207  81.197  1.00  0.00     0.042 C 
ATOM     34  C   UNL     1      99.725  97.085  78.835  1.00  0.00     0.010 C 
ENDBRANCH  14  32
ENDBRANCH   3   4
BRANCH   2  35
ATOM     35  C   UNL     1      93.661  96.842  74.829  1.00  0.00     0.078 CG0
ATOM     36  G   UNL     1      93.600  95.745  75.891  1.00  0.00     0.000 G0
ENDBRANCH   2  35
ENDBRANCH   1   2
BRANCH   1  37
ATOM     37  O   UNL     1      94.567  98.688  72.822  1.00  0.00    -0.461 OA
BRANCH  37  38
ATOM     38  C   UNL     1      95.827  98.213  72.542  1.00  0.00     0.310 C 
ATOM     39  O   UNL     1      96.100  97.045  72.303  1.00  0.00    -0.252 OA
BRANCH  38  40
ATOM     40  C   UNL     1      96.816  99.355  72.577  1.00  0.00     0.158 C 
BRANCH  40  41
ATOM     41  C   UNL     1      98.086  99.010  73.311  1.00  0.00    -0.033 A 
ATOM     42  C   UNL     1      98.365  99.607  74.541  1.00  0.00     0.054 A 
ATOM     43  C   UNL     1      98.982  98.093  72.762  1.00  0.00     0.008 A 
ATOM     44  C   UNL     1      99.541  99.288  75.221  1.00  0.00     0.160 A 
ATOM     45  C   UNL     1     100.158  97.774  73.441  1.00  0.00     0.050 A 
ATOM     46  C   UNL     1     100.438  98.371  74.670  1.00  0.00     0.157 A 
BRANCH  44  47
ATOM     47  O   UNL     1      99.803  99.877  76.420  1.00  0.00    -0.493 OA
ATOM     48  C   UNL     1      98.927 100.926  76.832  1.00  0.00     0.278 C 
ENDBRANCH  44  47
BRANCH  46  49
ATOM     49  O   UNL     1     101.588  98.051  75.325  1.00  0.00    -0.504 OA
ATOM     50  H   UNL     1     101.946  98.850  75.745  1.00  0.00     0.293 HD
ENDBRANCH  46  49
ENDBRANCH  40  41
ENDBRANCH  38  40
ENDBRANCH  37  38
ENDBRANCH   1  37
TORSDOF 11
ENDMDL
MODEL 2
REMARK VINA RESULT:    -5.443     31.854     35.977
REMARK INTER + INTRA:         -11.560
REMARK INTER:                  -9.511
REMARK INTRA:                  -2.049
REMARK UNBOUND:                -1.981
REMARK SMILES C=C(C)[C@]12C[C@@H](C)[C@@]34O[C@](Cc5ccccc5)(O[C@@H]1[C@@H]3C=C(COC(=O)Cc1ccc(O)c(OC)c1)C[C@]1(O)C(=O)C(C)=C[C@@H]41)O2
REMARK SMILES IDX 23 1 22 2 21 3 20 4 9 5 8 6 10 7 6 8 18 9 46 10 19 11 5 12
REMARK SMILES IDX 7 13 4 14 45 15 38 16 44 17 40 18 42 20 41 21 43 22 39 23
REMARK SMILES IDX 11 25 12 26 13 27 17 28 14 29 16 30 15 31 2 32 3 33 1 34
REMARK SMILES IDX 37 35 24 37 25 38 26 39 27 40 28 41 36 42 29 43 33 44 30 45
REMARK SMILES IDX 31 46 34 47 35 48 32 49
REMARK H PARENT 39 24 32 50
REMARK Flexibility Score: 90.00
ROOT
ATOM      1  C   UNL     1      61.369  91.231  73.387  1.00  0.00     0.264 C 
ENDROOT
BRANCH   1   2
ATOM      2  C   UNL     1      61.943  89.940  73.922  1.00  0.00    -0.033 C 
ATOM      3  C   UNL     1      62.197  88.928  73.068  1.00  0.00    -0.015 C 
BRANCH   3   4
ATOM      4  C   UNL     1      62.695  87.521  73.360  1.00  0.00     0.078 C 
ATOM      5  O   UNL     1      65.162  87.580  73.186  1.00  0.00    -0.319 OA
ATOM      6  C   UNL     1      64.062  87.354  74.121  1.00  0.00     0.095 C 
ATOM      7  C   UNL     1      65.001  86.976  71.888  1.00  0.00     0.289 C 
ATOM      8  C   UNL     1      64.132  85.866  74.662  1.00  0.00     0.023 C 
ATOM      9  O   UNL     1      63.805  87.425  71.254  1.00  0.00    -0.320 OA
ATOM     10  O   UNL     1      64.888  85.558  71.961  1.00  0.00    -0.313 OA
ATOM     11  C   UNL     1      62.826  86.725  72.038  1.00  0.00     0.170 C 
ATOM     12  C   UNL     1      63.412  84.874  73.697  1.00  0.00     0.049 C 
ATOM     13  C   UNL     1      65.543  85.342  74.973  1.00  0.00     0.011 C 
ATOM     14  C   UNL     1      63.490  85.341  72.243  1.00  0.00     0.122 C 
BRANCH   6  15
ATOM     15  C   UNL     1      64.234  88.465  75.198  1.00  0.00     0.086 C 
ATOM     16  C   UNL     1      62.982  88.800  76.035  1.00  0.00     0.140 CG0
ATOM     17  C   UNL     1      65.318  88.329  76.230  1.00  0.00    -0.010 C 
ATOM     18  C   UNL     1      63.575  89.141  77.386  1.00  0.00     0.190 C 
ATOM     19  G   UNL     1      62.181  89.956  75.438  1.00  0.00     0.000 G0
ATOM     20  C   UNL     1      64.988  88.726  77.463  1.00  0.00    -0.008 C 
ATOM     21  O   UNL     1      62.968  89.646  78.318  1.00  0.00    -0.291 OA
ATOM     22  C   UNL     1      65.811  88.813  78.687  1.00  0.00     0.048 C 
BRANCH  16  23
ATOM     23  O   UNL     1      62.154  87.680  76.302  1.00  0.00    -0.381 OA
ATOM     24  H   UNL     1      61.250  87.998  76.461  1.00  0.00     0.212 HD
ENDBRANCH  16  23
ENDBRANCH   6  15
BRANCH   7  25
ATOM     25  C   UNL     1      66.200  87.346  71.039  1.00  0.00     0.135 C 
BRANCH  25  26
ATOM     26  C   UNL     1      66.782  86.148  70.331  1.00  0.00    -0.040 A 
ATOM     27  C   UNL     1      68.019  85.638  70.725  1.00  0.00     0.004 A 
ATOM     28  C   UNL     1      66.083  85.550  69.282  1.00  0.00     0.004 A 
ATOM     29  C   UNL     1      68.557  84.530  70.070  1.00  0.00     0.000 A 
ATOM     30  C   UNL     1      66.622  84.442  68.627  1.00  0.00     0.000 A 
ATOM     31  C   UNL     1      67.859  83.933  69.022  1.00  0.00     0.000 A 
ENDBRANCH  25  26
ENDBRANCH   7  25
BRANCH  14  32
ATOM     32  C   UNL     1      62.969  84.321  71.284  1.00  0.00    -0.046 C 
ATOM     33  C   UNL     1      61.634  84.614  70.666  1.00  0.00     0.042 C 
ATOM     34  C   UNL     1      63.656  83.206  70.991  1.00  0.00     0.010 C 
ENDBRANCH  14  32
ENDBRANCH   3   4
BRANCH   2  35
ATOM     35  C   UNL     1      62.171  89.966  75.422  1.00  0.00     0.078 CG0
ATOM     36  G   UNL     1      62.976  88.817  76.026  1.00  0.00     0.000 G0
ENDBRANCH   2  35
ENDBRANCH   1   2
BRANCH   1  37
ATOM     37  O   UNL     1      60.433  90.941  72.371  1.00  0.00    -0.461 OA
BRANCH  37  38
ATOM     38  C   UNL     1      59.154  91.404  72.571  1.00  0.00     0.310 C 
ATOM     39  O   UNL     1      58.806  92.573  72.468  1.00  0.00    -0.252 OA
BRANCH  38  40
ATOM     40  C   UNL     1      58.250  90.251  72.937  1.00  0.00     0.158 C 
BRANCH  40  41
ATOM     41  C   UNL     1      58.269  89.142  71.917  1.00  0.00    -0.033 A 
ATOM     42  C   UNL     1      57.824  89.384  70.616  1.00  0.00     0.054 A 
ATOM     43  C   UNL     1      58.732  87.875  72.271  1.00  0.00     0.008 A 
ATOM     44  C   UNL     1      57.841  88.358  69.671  1.00  0.00     0.160 A 
ATOM     45  C   UNL     1      58.749  86.849  71.326  1.00  0.00     0.050 A 
ATOM     46  C   UNL     1      58.304  87.090  70.027  1.00  0.00     0.157 A 
BRANCH  44  47
ATOM     47  O   UNL     1      57.404  88.606  68.405  1.00  0.00    -0.493 OA
ATOM     48  C   UNL     1      57.878  89.796  67.777  1.00  0.00     0.278 C 
ENDBRANCH  44  47
BRANCH  46  49
ATOM     49  O   UNL     1      58.326  86.081  69.112  1.00  0.00    -0.504 OA
ATOM     50  H   UNL     1      58.330  85.229  69.580  1.00  0.00     0.293 HD
ENDBRANCH  46  49
ENDBRANCH  40  41
ENDBRANCH  38  40
ENDBRANCH  37  38
ENDBRANCH   1  37
TORSDOF 11
ENDMDL
MODEL 3
REMARK VINA RESULT:    -5.415      2.998      5.167
REMARK INTER + INTRA:         -11.512
REMARK INTER:                 -10.468
REMARK INTRA:                  -1.044
REMARK UNBOUND:                -1.981
REMARK SMILES C=C(C)[C@]12C[C@@H](C)[C@@]34O[C@](Cc5ccccc5)(O[C@@H]1[C@@H]3C=C(COC(=O)Cc1ccc(O)c(OC)c1)C[C@]1(O)C(=O)C(C)=C[C@@H]41)O2
REMARK SMILES IDX 23 1 22 2 21 3 20 4 9 5 8 6 10 7 6 8 18 9 46 10 19 11 5 12
REMARK SMILES IDX 7 13 4 14 45 15 38 16 44 17 40 18 42 20 41 21 43 22 39 23
REMARK SMILES IDX 11 25 12 26 13 27 17 28 14 29 16 30 15 31 2 32 3 33 1 34
REMARK SMILES IDX 37 35 24 37 25 38 26 39 27 40 28 41 36 42 29 43 33 44 30 45
REMARK SMILES IDX 31 46 34 47 35 48 32 49
REMARK H PARENT 39 24 32 50
REMARK Flexibility Score: 90.00
ROOT
ATOM      1  C   UNL     1      94.765 100.209  74.595  1.00  0.00     0.264 C 
ENDROOT
BRANCH   1   2
ATOM      2  C   UNL     1      94.983  98.965  75.424  1.00  0.00    -0.033 C 
ATOM      3  C   UNL     1      95.891  98.986  76.420  1.00  0.00    -0.015 C 
BRANCH   3   4
ATOM      4  C   UNL     1      96.346  97.862  77.335  1.00  0.00     0.078 C 
ATOM      5  O   UNL     1      94.915  97.951  79.352  1.00  0.00    -0.319 OA
ATOM      6  C   UNL     1      95.263  97.118  78.203  1.00  0.00     0.095 C 
ATOM      7  C   UNL     1      96.027  98.589  80.009  1.00  0.00     0.289 C 
ATOM      8  C   UNL     1      95.906  95.763  78.714  1.00  0.00     0.023 C 
ATOM      9  O   UNL     1      96.765  99.404  79.102  1.00  0.00    -0.320 OA
ATOM     10  O   UNL     1      96.961  97.647  80.529  1.00  0.00    -0.313 OA
ATOM     11  C   UNL     1      97.416  98.388  78.323  1.00  0.00     0.170 C 
ATOM     12  C   UNL     1      97.437  95.917  78.967  1.00  0.00     0.049 C 
ATOM     13  C   UNL     1      95.242  95.145  79.955  1.00  0.00     0.011 C 
ATOM     14  C   UNL     1      97.800  97.339  79.396  1.00  0.00     0.122 C 
BRANCH   6  15
ATOM     15  C   UNL     1      93.930  96.970  77.413  1.00  0.00     0.086 C 
ATOM     16  C   UNL     1      94.060  96.572  75.928  1.00  0.00     0.140 CG0
ATOM     17  C   UNL     1      92.866  96.044  77.931  1.00  0.00    -0.010 C 
ATOM     18  C   UNL     1      92.832  95.713  75.712  1.00  0.00     0.190 C 
ATOM     19  G   UNL     1      94.094  97.789  75.005  1.00  0.00     0.000 G0
ATOM     20  C   UNL     1      92.212  95.344  76.998  1.00  0.00    -0.008 C 
ATOM     21  O   UNL     1      92.421  95.325  74.629  1.00  0.00    -0.291 OA
ATOM     22  C   UNL     1      91.069  94.417  77.131  1.00  0.00     0.048 C 
BRANCH  16  23
ATOM     23  O   UNL     1      95.139  95.691  75.663  1.00  0.00    -0.381 OA
ATOM     24  H   UNL     1      95.710  96.099  74.991  1.00  0.00     0.212 HD
ENDBRANCH  16  23
ENDBRANCH   6  15
BRANCH   7  25
ATOM     25  C   UNL     1      95.485  99.442  81.139  1.00  0.00     0.135 C 
BRANCH  25  26
ATOM     26  C   UNL     1      96.546  99.766  82.161  1.00  0.00    -0.040 A 
ATOM     27  C   UNL     1      96.695  98.961  83.291  1.00  0.00     0.004 A 
ATOM     28  C   UNL     1      97.380 100.869  81.976  1.00  0.00     0.004 A 
ATOM     29  C   UNL     1      97.676  99.260  84.236  1.00  0.00     0.000 A 
ATOM     30  C   UNL     1      98.361 101.168  82.921  1.00  0.00     0.000 A 
ATOM     31  C   UNL     1      98.509 100.363  84.051  1.00  0.00     0.000 A 
ENDBRANCH  25  26
ENDBRANCH   7  25
BRANCH  14  32
ATOM     32  C   UNL     1      99.227  97.464  79.819  1.00  0.00    -0.046 C 
ATOM     33  C   UNL     1     100.257  97.115  78.787  1.00  0.00     0.042 C 
ATOM     34  C   UNL     1      99.568  97.867  81.053  1.00  0.00     0.010 C 
ENDBRANCH  14  32
ENDBRANCH   3   4
BRANCH   2  35
ATOM     35  C   UNL     1      94.097  97.807  75.002  1.00  0.00     0.078 CG0
ATOM     36  G   UNL     1      94.052  96.590  75.925  1.00  0.00     0.000 G0
ENDBRANCH   2  35
ENDBRANCH   1   2
BRANCH   1  37
ATOM     37  O   UNL     1      93.896  99.910  73.523  1.00  0.00    -0.461 OA
BRANCH  37  38
ATOM     38  C   UNL     1      93.722 100.902  72.586  1.00  0.00     0.310 C 
ATOM     39  O   UNL     1      93.894 102.097  72.788  1.00  0.00    -0.252 OA
BRANCH  38  40
ATOM     40  C   UNL     1      93.288 100.288  71.276  1.00  0.00     0.158 C 
BRANCH  40  41
ATOM     41  C   UNL     1      91.896 100.698  70.868  1.00  0.00    -0.033 A 
ATOM     42  C   UNL     1      91.601 100.920  69.522  1.00  0.00     0.054 A 
ATOM     43  C   UNL     1      90.903 100.853  71.834  1.00  0.00     0.008 A 
ATOM     44  C   UNL     1      90.313 101.299  69.144  1.00  0.00     0.160 A 
ATOM     45  C   UNL     1      89.615 101.232  71.456  1.00  0.00     0.050 A 
ATOM     46  C   UNL     1      89.319 101.455  70.112  1.00  0.00     0.157 A 
BRANCH  44  47
ATOM     47  O   UNL     1      90.037 101.513  67.828  1.00  0.00    -0.493 OA
ATOM     48  C   UNL     1      91.115 101.360  66.906  1.00  0.00     0.278 C 
ENDBRANCH  44  47
BRANCH  46  49
ATOM     49  O   UNL     1      88.058 101.824  69.754  1.00  0.00    -0.504 OA
ATOM     50  H   UNL     1      87.419 101.320  70.286  1.00  0.00     0.293 HD
ENDBRANCH  46  49
ENDBRANCH  40  41
ENDBRANCH  38  40
ENDBRANCH  37  38
ENDBRANCH   1  37
TORSDOF 11
ENDMDL
MODEL 4
REMARK VINA RESULT:    -5.351     15.432     20.055
REMARK INTER + INTRA:         -11.399
REMARK INTER:                 -10.374
REMARK INTRA:                  -1.025
REMARK UNBOUND:                -1.981
REMARK SMILES C=C(C)[C@]12C[C@@H](C)[C@@]34O[C@](Cc5ccccc5)(O[C@@H]1[C@@H]3C=C(COC(=O)Cc1ccc(O)c(OC)c1)C[C@]1(O)C(=O)C(C)=C[C@@H]41)O2
REMARK SMILES IDX 23 1 22 2 21 3 20 4 9 5 8 6 10 7 6 8 18 9 46 10 19 11 5 12
REMARK SMILES IDX 7 13 4 14 45 15 38 16 44 17 40 18 42 20 41 21 43 22 39 23
REMARK SMILES IDX 11 25 12 26 13 27 17 28 14 29 16 30 15 31 2 32 3 33 1 34
REMARK SMILES IDX 37 35 24 37 25 38 26 39 27 40 28 41 36 42 29 43 33 44 30 45
REMARK SMILES IDX 31 46 34 47 35 48 32 49
REMARK H PARENT 39 24 32 50
REMARK Flexibility Score: 90.00
ROOT
ATOM      1  C   UNL     1      78.505  98.371  73.589  1.00  0.00     0.264 C 
ENDROOT
BRANCH   1   2
ATOM      2  C   UNL     1      78.208  98.872  72.195  1.00  0.00    -0.033 C 
ATOM      3  C   UNL     1      78.986  99.836  71.662  1.00  0.00    -0.015 C 
BRANCH   3   4
ATOM      4  C   UNL     1      78.854 100.555  70.329  1.00  0.00     0.078 C 
ATOM      5  O   UNL     1      80.246  99.317  68.702  1.00  0.00    -0.319 OA
ATOM      6  C   UNL     1      78.869  99.696  69.010  1.00  0.00     0.095 C 
ATOM      7  C   UNL     1      81.225 100.359  68.874  1.00  0.00     0.289 C 
ATOM      8  C   UNL     1      78.301 100.602  67.841  1.00  0.00     0.023 C 
ATOM      9  O   UNL     1      81.213 100.865  70.207  1.00  0.00    -0.320 OA
ATOM     10  O   UNL     1      80.974 101.483  68.034  1.00  0.00    -0.313 OA
ATOM     11  C   UNL     1      79.982 101.605  70.184  1.00  0.00     0.170 C 
ATOM     12  C   UNL     1      78.676 102.102  68.046  1.00  0.00     0.049 C 
ATOM     13  C   UNL     1      78.691 100.166  66.419  1.00  0.00     0.011 C 
ATOM     14  C   UNL     1      80.010 102.256  68.778  1.00  0.00     0.122 C 
BRANCH   6  15
ATOM     15  C   UNL     1      78.133  98.342  69.225  1.00  0.00     0.086 C 
ATOM     16  C   UNL     1      76.808  98.406  70.013  1.00  0.00     0.140 CG0
ATOM     17  C   UNL     1      77.790  97.492  68.033  1.00  0.00    -0.010 C 
ATOM     18  C   UNL     1      75.984  97.320  69.353  1.00  0.00     0.190 C 
ATOM     19  G   UNL     1      77.012  98.159  71.507  1.00  0.00     0.000 G0
ATOM     20  C   UNL     1      76.602  96.883  68.087  1.00  0.00    -0.008 C 
ATOM     21  O   UNL     1      74.921  96.886  69.770  1.00  0.00    -0.291 OA
ATOM     22  C   UNL     1      75.981  95.923  67.151  1.00  0.00     0.048 C 
BRANCH  16  23
ATOM     23  O   UNL     1      76.059  99.587  69.781  1.00  0.00    -0.381 OA
ATOM     24  H   UNL     1      75.351  99.637  70.444  1.00  0.00     0.212 HD
ENDBRANCH  16  23
ENDBRANCH   6  15
BRANCH   7  25
ATOM     25  C   UNL     1      82.591  99.786  68.557  1.00  0.00     0.135 C 
BRANCH  25  26
ATOM     26  C   UNL     1      83.660 100.850  68.533  1.00  0.00    -0.040 A 
ATOM     27  C   UNL     1      84.038 101.431  67.322  1.00  0.00     0.004 A 
ATOM     28  C   UNL     1      84.268 101.256  69.720  1.00  0.00     0.004 A 
ATOM     29  C   UNL     1      85.026 102.416  67.299  1.00  0.00     0.000 A 
ATOM     30  C   UNL     1      85.256 102.241  69.698  1.00  0.00     0.000 A 
ATOM     31  C   UNL     1      85.635 102.820  68.486  1.00  0.00     0.000 A 
ENDBRANCH  25  26
ENDBRANCH   7  25
BRANCH  14  32
ATOM     32  C   UNL     1      80.479 103.673  68.825  1.00  0.00    -0.046 C 
ATOM     33  C   UNL     1      81.924 103.882  69.165  1.00  0.00     0.042 C 
ATOM     34  C   UNL     1      79.654 104.702  68.577  1.00  0.00     0.010 C 
ENDBRANCH  14  32
ENDBRANCH   3   4
BRANCH   2  35
ATOM     35  C   UNL     1      77.021  98.179  71.554  1.00  0.00     0.078 CG0
ATOM     36  G   UNL     1      76.813  98.393  70.055  1.00  0.00     0.000 G0
ENDBRANCH   2  35
ENDBRANCH   1   2
BRANCH   1  37
ATOM     37  O   UNL     1      77.830  97.149  73.799  1.00  0.00    -0.461 OA
BRANCH  37  38
ATOM     38  C   UNL     1      78.605  96.013  73.768  1.00  0.00     0.310 C 
ATOM     39  O   UNL     1      79.132  95.550  72.766  1.00  0.00    -0.252 OA
BRANCH  38  40
ATOM     40  C   UNL     1      78.702  95.430  75.158  1.00  0.00     0.158 C 
BRANCH  40  41
ATOM     41  C   UNL     1      77.394  94.869  75.653  1.00  0.00    -0.033 A 
ATOM     42  C   UNL     1      76.562  94.166  74.780  1.00  0.00     0.054 A 
ATOM     43  C   UNL     1      77.015  95.051  76.982  1.00  0.00     0.008 A 
ATOM     44  C   UNL     1      75.352  93.646  75.238  1.00  0.00     0.160 A 
ATOM     45  C   UNL     1      75.804  94.531  77.441  1.00  0.00     0.050 A 
ATOM     46  C   UNL     1      74.972  93.829  76.569  1.00  0.00     0.157 A 
BRANCH  44  47
ATOM     47  O   UNL     1      74.548  92.962  74.377  1.00  0.00    -0.493 OA
ATOM     48  C   UNL     1      74.278  93.574  73.117  1.00  0.00     0.278 C 
ENDBRANCH  44  47
BRANCH  46  49
ATOM     49  O   UNL     1      73.793  93.325  77.028  1.00  0.00    -0.504 OA
ATOM     50  H   UNL     1      73.310  94.026  77.497  1.00  0.00     0.293 HD
ENDBRANCH  46  49
ENDBRANCH  40  41
ENDBRANCH  38  40
ENDBRANCH  37  38
ENDBRANCH   1  37
TORSDOF 11
ENDMDL
MODEL 5
REMARK VINA RESULT:    -5.127     37.163     41.962
REMARK INTER + INTRA:         -11.005
REMARK INTER:                  -8.885
REMARK INTRA:                  -2.120
REMARK UNBOUND:                -1.981
REMARK SMILES C=C(C)[C@]12C[C@@H](C)[C@@]34O[C@](Cc5ccccc5)(O[C@@H]1[C@@H]3C=C(COC(=O)Cc1ccc(O)c(OC)c1)C[C@]1(O)C(=O)C(C)=C[C@@H]41)O2
REMARK SMILES IDX 23 1 22 2 21 3 20 4 9 5 8 6 10 7 6 8 18 9 46 10 19 11 5 12
REMARK SMILES IDX 7 13 4 14 45 15 38 16 44 17 40 18 42 20 41 21 43 22 39 23
REMARK SMILES IDX 11 25 12 26 13 27 17 28 14 29 16 30 15 31 2 32 3 33 1 34
REMARK SMILES IDX 37 35 24 37 25 38 26 39 27 40 28 41 36 42 29 43 33 44 30 45
REMARK SMILES IDX 31 46 34 47 35 48 32 49
REMARK H PARENT 39 24 32 50
REMARK Flexibility Score: 90.00
ROOT
ATOM      1  C   UNL     1      61.198  83.923  87.500  1.00  0.00     0.264 C 
ENDROOT
BRANCH   1   2
ATOM      2  C   UNL     1      59.826  83.331  87.279  1.00  0.00    -0.033 C 
ATOM      3  C   UNL     1      59.698  82.234  86.505  1.00  0.00    -0.015 C 
BRANCH   3   4
ATOM      4  C   UNL     1      58.439  81.502  86.071  1.00  0.00     0.078 C 
ATOM      5  O   UNL     1      58.035  79.716  87.734  1.00  0.00    -0.319 OA
ATOM      6  C   UNL     1      57.474  80.948  87.184  1.00  0.00     0.095 C 
ATOM      7  C   UNL     1      58.590  78.805  86.766  1.00  0.00     0.289 C 
ATOM      8  C   UNL     1      56.083  80.627  86.496  1.00  0.00     0.023 C 
ATOM      9  O   UNL     1      59.613  79.430  85.995  1.00  0.00    -0.320 OA
ATOM     10  O   UNL     1      57.618  78.357  85.825  1.00  0.00    -0.313 OA
ATOM     11  C   UNL     1      58.815  80.297  85.174  1.00  0.00     0.170 C 
ATOM     12  C   UNL     1      56.270  80.147  85.024  1.00  0.00     0.049 C 
ATOM     13  C   UNL     1      55.188  79.630  87.249  1.00  0.00     0.011 C 
ATOM     14  C   UNL     1      57.594  79.406  84.835  1.00  0.00     0.122 C 
BRANCH   6  15
ATOM     15  C   UNL     1      57.412  81.922  88.395  1.00  0.00     0.086 C 
ATOM     16  C   UNL     1      57.319  83.424  88.056  1.00  0.00     0.140 CG0
ATOM     17  C   UNL     1      56.346  81.733  89.439  1.00  0.00    -0.010 C 
ATOM     18  C   UNL     1      56.456  83.960  89.179  1.00  0.00     0.190 C 
ATOM     19  G   UNL     1      58.694  84.090  88.007  1.00  0.00     0.000 G0
ATOM     20  C   UNL     1      55.809  82.860  89.919  1.00  0.00    -0.008 C 
ATOM     21  O   UNL     1      56.265  85.141  89.423  1.00  0.00    -0.291 OA
ATOM     22  C   UNL     1      54.814  83.057  90.992  1.00  0.00     0.048 C 
BRANCH  16  23
ATOM     23  O   UNL     1      56.567  83.703  86.887  1.00  0.00    -0.381 OA
ATOM     24  H   UNL     1      55.940  82.975  86.745  1.00  0.00     0.212 HD
ENDBRANCH  16  23
ENDBRANCH   6  15
BRANCH   7  25
ATOM     25  C   UNL     1      59.162  77.614  87.508  1.00  0.00     0.135 C 
BRANCH  25  26
ATOM     26  C   UNL     1      59.553  76.499  86.570  1.00  0.00    -0.040 A 
ATOM     27  C   UNL     1      60.693  76.625  85.775  1.00  0.00     0.004 A 
ATOM     28  C   UNL     1      58.778  75.342  86.500  1.00  0.00     0.004 A 
ATOM     29  C   UNL     1      61.055  75.594  84.907  1.00  0.00     0.000 A 
ATOM     30  C   UNL     1      59.140  74.311  85.632  1.00  0.00     0.000 A 
ATOM     31  C   UNL     1      60.279  74.438  84.836  1.00  0.00     0.000 A 
ENDBRANCH  25  26
ENDBRANCH   7  25
BRANCH  14  32
ATOM     32  C   UNL     1      57.714  78.779  83.484  1.00  0.00    -0.046 C 
ATOM     33  C   UNL     1      57.055  79.512  82.353  1.00  0.00     0.042 C 
ATOM     34  C   UNL     1      58.373  77.627  83.292  1.00  0.00     0.010 C 
ENDBRANCH  14  32
ENDBRANCH   3   4
BRANCH   2  35
ATOM     35  C   UNL     1      58.728  84.087  88.003  1.00  0.00     0.078 CG0
ATOM     36  G   UNL     1      57.351  83.428  88.067  1.00  0.00     0.000 G0
ENDBRANCH   2  35
ENDBRANCH   1   2
BRANCH   1  37
ATOM     37  O   UNL     1      62.047  83.546  86.437  1.00  0.00    -0.461 OA
BRANCH  37  38
ATOM     38  C   UNL     1      63.386  83.446  86.734  1.00  0.00     0.310 C 
ATOM     39  O   UNL     1      64.280  84.054  86.161  1.00  0.00    -0.252 OA
BRANCH  38  40
ATOM     40  C   UNL     1      63.579  82.473  87.873  1.00  0.00     0.158 C 
BRANCH  40  41
ATOM     41  C   UNL     1      63.791  81.056  87.405  1.00  0.00    -0.033 A 
ATOM     42  C   UNL     1      63.359  80.668  86.137  1.00  0.00     0.054 A 
ATOM     43  C   UNL     1      64.420  80.132  88.240  1.00  0.00     0.008 A 
ATOM     44  C   UNL     1      63.555  79.356  85.704  1.00  0.00     0.160 A 
ATOM     45  C   UNL     1      64.616  78.821  87.808  1.00  0.00     0.050 A 
ATOM     46  C   UNL     1      64.184  78.432  86.540  1.00  0.00     0.157 A 
BRANCH  44  47
ATOM     47  O   UNL     1      63.128  78.989  84.464  1.00  0.00    -0.493 OA
ATOM     48  C   UNL     1      63.579  79.777  83.363  1.00  0.00     0.278 C 
ENDBRANCH  44  47
BRANCH  46  49
ATOM     49  O   UNL     1      64.381  77.149  86.128  1.00  0.00    -0.504 OA
ATOM     50  H   UNL     1      64.559  77.148  85.173  1.00  0.00     0.293 HD
ENDBRANCH  46  49
ENDBRANCH  40  41
ENDBRANCH  38  40
ENDBRANCH  37  38
ENDBRANCH   1  37
TORSDOF 11
ENDMDL
MODEL 6
REMARK VINA RESULT:    -5.094     27.969     32.803
REMARK INTER + INTRA:         -10.947
REMARK INTER:                 -10.243
REMARK INTRA:                  -0.704
REMARK UNBOUND:                -1.981
REMARK SMILES C=C(C)[C@]12C[C@@H](C)[C@@]34O[C@](Cc5ccccc5)(O[C@@H]1[C@@H]3C=C(COC(=O)Cc1ccc(O)c(OC)c1)C[C@]1(O)C(=O)C(C)=C[C@@H]41)O2
REMARK SMILES IDX 23 1 22 2 21 3 20 4 9 5 8 6 10 7 6 8 18 9 46 10 19 11 5 12
REMARK SMILES IDX 7 13 4 14 45 15 38 16 44 17 40 18 42 20 41 21 43 22 39 23
REMARK SMILES IDX 11 25 12 26 13 27 17 28 14 29 16 30 15 31 2 32 3 33 1 34
REMARK SMILES IDX 37 35 24 37 25 38 26 39 27 40 28 41 36 42 29 43 33 44 30 45
REMARK SMILES IDX 31 46 34 47 35 48 32 49
REMARK H PARENT 39 24 32 50
REMARK Flexibility Score: 90.00
ROOT
ATOM      1  C   UNL     1      88.649  70.023  70.945  1.00  0.00     0.264 C 
ENDROOT
BRANCH   1   2
ATOM      2  C   UNL     1      88.283  68.567  71.115  1.00  0.00    -0.033 C 
ATOM      3  C   UNL     1      87.162  68.244  71.791  1.00  0.00    -0.015 C 
BRANCH   3   4
ATOM      4  C   UNL     1      86.621  66.873  72.162  1.00  0.00     0.078 C 
ATOM      5  O   UNL     1      85.080  66.192  70.351  1.00  0.00    -0.319 OA
ATOM      6  C   UNL     1      86.338  65.842  71.006  1.00  0.00     0.095 C 
ATOM      7  C   UNL     1      84.008  66.571  71.235  1.00  0.00     0.289 C 
ATOM      8  C   UNL     1      86.203  64.407  71.666  1.00  0.00     0.023 C 
ATOM      9  O   UNL     1      84.380  67.675  72.056  1.00  0.00    -0.320 OA
ATOM     10  O   UNL     1      83.654  65.524  72.135  1.00  0.00    -0.313 OA
ATOM     11  C   UNL     1      85.297  67.025  72.951  1.00  0.00     0.170 C 
ATOM     12  C   UNL     1      85.573  64.490  73.090  1.00  0.00     0.049 C 
ATOM     13  C   UNL     1      85.441  63.366  70.830  1.00  0.00     0.011 C 
ATOM     14  C   UNL     1      84.603  65.666  73.213  1.00  0.00     0.122 C 
BRANCH   6  15
ATOM     15  C   UNL     1      87.409  65.964  69.884  1.00  0.00     0.086 C 
ATOM     16  C   UNL     1      88.870  66.122  70.352  1.00  0.00     0.140 CG0
ATOM     17  C   UNL     1      87.493  64.897  68.828  1.00  0.00    -0.010 C 
ATOM     18  C   UNL     1      89.638  65.378  69.280  1.00  0.00     0.190 C 
ATOM     19  G   UNL     1      89.286  67.588  70.459  1.00  0.00     0.000 G0
ATOM     20  C   UNL     1      88.731  64.565  68.448  1.00  0.00    -0.008 C 
ATOM     21  O   UNL     1      90.852  65.393  69.139  1.00  0.00    -0.291 OA
ATOM     22  C   UNL     1      89.186  63.634  67.395  1.00  0.00     0.048 C 
BRANCH  16  23
ATOM     23  O   UNL     1      89.172  65.410  71.541  1.00  0.00    -0.381 OA
ATOM     24  H   UNL     1      89.758  65.960  72.087  1.00  0.00     0.212 HD
ENDBRANCH  16  23
ENDBRANCH   6  15
BRANCH   7  25
ATOM     25  C   UNL     1      82.805  66.942  70.392  1.00  0.00     0.135 C 
BRANCH  25  26
ATOM     26  C   UNL     1      81.914  65.755  70.125  1.00  0.00    -0.040 A 
ATOM     27  C   UNL     1      80.556  65.817  70.440  1.00  0.00     0.004 A 
ATOM     28  C   UNL     1      82.446  64.595  69.563  1.00  0.00     0.004 A 
ATOM     29  C   UNL     1      79.731  64.719  70.193  1.00  0.00     0.000 A 
ATOM     30  C   UNL     1      81.621  63.497  69.316  1.00  0.00     0.000 A 
ATOM     31  C   UNL     1      80.264  63.560  69.631  1.00  0.00     0.000 A 
ENDBRANCH  25  26
ENDBRANCH   7  25
BRANCH  14  32
ATOM     32  C   UNL     1      83.852  65.659  74.504  1.00  0.00    -0.046 C 
ATOM     33  C   UNL     1      83.177  64.370  74.871  1.00  0.00     0.042 C 
ATOM     34  C   UNL     1      83.784  66.743  75.291  1.00  0.00     0.010 C 
ENDBRANCH  14  32
ENDBRANCH   3   4
BRANCH   2  35
ATOM     35  C   UNL     1      89.275  67.624  70.461  1.00  0.00     0.078 CG0
ATOM     36  G   UNL     1      88.870  66.156  70.343  1.00  0.00     0.000 G0
ENDBRANCH   2  35
ENDBRANCH   1   2
BRANCH   1  37
ATOM     37  O   UNL     1      87.853  70.589  69.926  1.00  0.00    -0.461 OA
BRANCH  37  38
ATOM     38  C   UNL     1      88.523  71.058  68.820  1.00  0.00     0.310 C 
ATOM     39  O   UNL     1      89.494  70.519  68.306  1.00  0.00    -0.252 OA
BRANCH  38  40
ATOM     40  C   UNL     1      87.875  72.336  68.341  1.00  0.00     0.158 C 
BRANCH  40  41
ATOM     41  C   UNL     1      88.420  72.812  67.020  1.00  0.00    -0.033 A 
ATOM     42  C   UNL     1      89.563  73.614  66.985  1.00  0.00     0.054 A 
ATOM     43  C   UNL     1      87.785  72.453  65.832  1.00  0.00     0.008 A 
ATOM     44  C   UNL     1      90.068  74.055  65.762  1.00  0.00     0.160 A 
ATOM     45  C   UNL     1      88.290  72.894  64.609  1.00  0.00     0.050 A 
ATOM     46  C   UNL     1      89.431  73.695  64.573  1.00  0.00     0.157 A 
BRANCH  44  47
ATOM     47  O   UNL     1      91.183  74.837  65.741  1.00  0.00    -0.493 OA
ATOM     48  C   UNL     1      91.636  75.354  66.991  1.00  0.00     0.278 C 
ENDBRANCH  44  47
BRANCH  46  49
ATOM     49  O   UNL     1      89.915  74.119  63.373  1.00  0.00    -0.504 OA
ATOM     50  H   UNL     1      90.751  74.594  63.519  1.00  0.00     0.293 HD
ENDBRANCH  46  49
ENDBRANCH  40  41
ENDBRANCH  38  40
ENDBRANCH  37  38
ENDBRANCH   1  37
TORSDOF 11
ENDMDL
MODEL 7
REMARK VINA RESULT:    -4.956     16.035     19.092
REMARK INTER + INTRA:         -10.704
REMARK INTER:                 -10.016
REMARK INTRA:                  -0.687
REMARK UNBOUND:                -1.981
REMARK SMILES C=C(C)[C@]12C[C@@H](C)[C@@]34O[C@](Cc5ccccc5)(O[C@@H]1[C@@H]3C=C(COC(=O)Cc1ccc(O)c(OC)c1)C[C@]1(O)C(=O)C(C)=C[C@@H]41)O2
REMARK SMILES IDX 23 1 22 2 21 3 20 4 9 5 8 6 10 7 6 8 18 9 46 10 19 11 5 12
REMARK SMILES IDX 7 13 4 14 45 15 38 16 44 17 40 18 42 20 41 21 43 22 39 23
REMARK SMILES IDX 11 25 12 26 13 27 17 28 14 29 16 30 15 31 2 32 3 33 1 34
REMARK SMILES IDX 37 35 24 37 25 38 26 39 27 40 28 41 36 42 29 43 33 44 30 45
REMARK SMILES IDX 31 46 34 47 35 48 32 49
REMARK H PARENT 39 24 32 50
REMARK Flexibility Score: 90.00
ROOT
ATOM      1  C   UNL     1     101.508  78.866  82.480  1.00  0.00     0.264 C 
ENDROOT
BRANCH   1   2
ATOM      2  C   UNL     1     100.963  79.755  83.573  1.00  0.00    -0.033 C 
ATOM      3  C   UNL     1      99.831  80.453  83.352  1.00  0.00    -0.015 C 
BRANCH   3   4
ATOM      4  C   UNL     1      99.129  81.462  84.246  1.00  0.00     0.078 C 
ATOM      5  O   UNL     1      97.455  80.209  85.569  1.00  0.00    -0.319 OA
ATOM      6  C   UNL     1      98.677  81.002  85.682  1.00  0.00     0.095 C 
ATOM      7  C   UNL     1      96.470  80.723  84.652  1.00  0.00     0.289 C 
ATOM      8  C   UNL     1      98.378  82.305  86.532  1.00  0.00     0.023 C 
ATOM      9  O   UNL     1      97.009  80.864  83.340  1.00  0.00    -0.320 OA
ATOM     10  O   UNL     1      96.013  82.022  85.021  1.00  0.00    -0.313 OA
ATOM     11  C   UNL     1      97.862  82.001  83.538  1.00  0.00     0.170 C 
ATOM     12  C   UNL     1      97.811  83.452  85.639  1.00  0.00     0.049 C 
ATOM     13  C   UNL     1      97.462  82.104  87.750  1.00  0.00     0.011 C 
ATOM     14  C   UNL     1      97.006  82.905  84.460  1.00  0.00     0.122 C 
BRANCH   6  15
ATOM     15  C   UNL     1      99.718  80.024  86.301  1.00  0.00     0.086 C 
ATOM     16  C   UNL     1     101.202  80.395  86.101  1.00  0.00     0.140 CG0
ATOM     17  C   UNL     1      99.636  79.690  87.765  1.00  0.00    -0.010 C 
ATOM     18  C   UNL     1     101.837  79.904  87.385  1.00  0.00     0.190 C 
ATOM     19  G   UNL     1     101.800  79.731  84.861  1.00  0.00     0.000 G0
ATOM     20  C   UNL     1     100.810  79.588  88.396  1.00  0.00    -0.008 C 
ATOM     21  O   UNL     1     103.038  79.821  87.595  1.00  0.00    -0.291 OA
ATOM     22  C   UNL     1     101.111  79.200  89.789  1.00  0.00     0.048 C 
BRANCH  16  23
ATOM     23  O   UNL     1     101.452  81.790  86.112  1.00  0.00    -0.381 OA
ATOM     24  H   UNL     1     100.626  82.248  86.340  1.00  0.00     0.212 HD
ENDBRANCH  16  23
ENDBRANCH   6  15
BRANCH   7  25
ATOM     25  C   UNL     1      95.299  79.763  84.625  1.00  0.00     0.135 C 
BRANCH  25  26
ATOM     26  C   UNL     1      94.005  80.438  85.007  1.00  0.00    -0.040 A 
ATOM     27  C   UNL     1      93.515  81.493  84.236  1.00  0.00     0.004 A 
ATOM     28  C   UNL     1      93.298  80.008  86.129  1.00  0.00     0.004 A 
ATOM     29  C   UNL     1      92.318  82.118  84.588  1.00  0.00     0.000 A 
ATOM     30  C   UNL     1      92.101  80.633  86.482  1.00  0.00     0.000 A 
ATOM     31  C   UNL     1      91.612  81.688  85.711  1.00  0.00     0.000 A 
ENDBRANCH  25  26
ENDBRANCH   7  25
BRANCH  14  32
ATOM     32  C   UNL     1      96.303  83.980  83.697  1.00  0.00    -0.046 C 
ATOM     33  C   UNL     1      96.243  83.805  82.209  1.00  0.00     0.042 C 
ATOM     34  C   UNL     1      95.756  85.041  84.308  1.00  0.00     0.010 C 
ENDBRANCH  14  32
ENDBRANCH   3   4
BRANCH   2  35
ATOM     35  C   UNL     1     101.804  79.730  84.835  1.00  0.00     0.078 CG0
ATOM     36  G   UNL     1     101.214  80.388  86.082  1.00  0.00     0.000 G0
ENDBRANCH   2  35
ENDBRANCH   1   2
BRANCH   1  37
ATOM     37  O   UNL     1     102.831  79.255  82.178  1.00  0.00    -0.461 OA
BRANCH  37  38
ATOM     38  C   UNL     1     103.225  79.107  80.868  1.00  0.00     0.310 C 
ATOM     39  O   UNL     1     103.159  78.066  80.229  1.00  0.00    -0.252 OA
BRANCH  38  40
ATOM     40  C   UNL     1     103.749  80.424  80.347  1.00  0.00     0.158 C 
BRANCH  40  41
ATOM     41  C   UNL     1     103.081  80.858  79.067  1.00  0.00    -0.033 A 
ATOM     42  C   UNL     1     101.692  80.804  78.954  1.00  0.00     0.054 A 
ATOM     43  C   UNL     1     103.852  81.313  77.998  1.00  0.00     0.008 A 
ATOM     44  C   UNL     1     101.073  81.205  77.769  1.00  0.00     0.160 A 
ATOM     45  C   UNL     1     103.233  81.714  76.814  1.00  0.00     0.050 A 
ATOM     46  C   UNL     1     101.845  81.661  76.699  1.00  0.00     0.157 A 
BRANCH  44  47
ATOM     47  O   UNL     1      99.716  81.148  77.670  1.00  0.00    -0.493 OA
ATOM     48  C   UNL     1      98.992  80.819  78.854  1.00  0.00     0.278 C 
ENDBRANCH  44  47
BRANCH  46  49
ATOM     49  O   UNL     1     101.252  82.056  75.538  1.00  0.00    -0.504 OA
ATOM     50  H   UNL     1     101.335  83.021  75.453  1.00  0.00     0.293 HD
ENDBRANCH  46  49
ENDBRANCH  40  41
ENDBRANCH  38  40
ENDBRANCH  37  38
ENDBRANCH   1  37
TORSDOF 11
ENDMDL
MODEL 8
REMARK VINA RESULT:    -4.905     18.560     22.427
REMARK INTER + INTRA:         -10.615
REMARK INTER:                 -10.473
REMARK INTRA:                  -0.141
REMARK UNBOUND:                -1.981
REMARK SMILES C=C(C)[C@]12C[C@@H](C)[C@@]34O[C@](Cc5ccccc5)(O[C@@H]1[C@@H]3C=C(COC(=O)Cc1ccc(O)c(OC)c1)C[C@]1(O)C(=O)C(C)=C[C@@H]41)O2
REMARK SMILES IDX 23 1 22 2 21 3 20 4 9 5 8 6 10 7 6 8 18 9 46 10 19 11 5 12
REMARK SMILES IDX 7 13 4 14 45 15 38 16 44 17 40 18 42 20 41 21 43 22 39 23
REMARK SMILES IDX 11 25 12 26 13 27 17 28 14 29 16 30 15 31 2 32 3 33 1 34
REMARK SMILES IDX 37 35 24 37 25 38 26 39 27 40 28 41 36 42 29 43 33 44 30 45
REMARK SMILES IDX 31 46 34 47 35 48 32 49
REMARK H PARENT 39 24 32 50
REMARK Flexibility Score: 90.00
ROOT
ATOM      1  C   UNL     1      72.805  94.705  71.983  1.00  0.00     0.264 C 
ENDROOT
BRANCH   1   2
ATOM      2  C   UNL     1      73.877  95.730  72.272  1.00  0.00    -0.033 C 
ATOM      3  C   UNL     1      74.039  96.177  73.534  1.00  0.00    -0.015 C 
BRANCH   3   4
ATOM      4  C   UNL     1      74.979  97.247  74.065  1.00  0.00     0.078 C 
ATOM      5  O   UNL     1      77.051  96.097  74.776  1.00  0.00    -0.319 OA
ATOM      6  C   UNL     1      76.525  97.073  73.824  1.00  0.00     0.095 C 
ATOM      7  C   UNL     1      76.559  96.225  76.124  1.00  0.00     0.289 C 
ATOM      8  C   UNL     1      77.212  98.477  74.079  1.00  0.00     0.023 C 
ATOM      9  O   UNL     1      75.137  96.135  76.166  1.00  0.00    -0.320 OA
ATOM     10  O   UNL     1      76.882  97.487  76.700  1.00  0.00    -0.313 OA
ATOM     11  C   UNL     1      74.787  97.405  75.593  1.00  0.00     0.170 C 
ATOM     12  C   UNL     1      76.472  99.281  75.192  1.00  0.00     0.049 C 
ATOM     13  C   UNL     1      78.715  98.428  74.398  1.00  0.00     0.011 C 
ATOM     14  C   UNL     1      75.832  98.356  76.228  1.00  0.00     0.122 C 
BRANCH   6  15
ATOM     15  C   UNL     1      76.798  96.439  72.429  1.00  0.00     0.086 C 
ATOM     16  C   UNL     1      75.941  96.972  71.261  1.00  0.00     0.140 CG0
ATOM     17  C   UNL     1      78.194  96.454  71.873  1.00  0.00    -0.010 C 
ATOM     18  C   UNL     1      76.903  96.902  70.093  1.00  0.00     0.190 C 
ATOM     19  G   UNL     1      74.685  96.131  71.036  1.00  0.00     0.000 G0
ATOM     20  C   UNL     1      78.285  96.684  70.559  1.00  0.00    -0.008 C 
ATOM     21  O   UNL     1      76.603  97.054  68.919  1.00  0.00    -0.291 OA
ATOM     22  C   UNL     1      79.468  96.688  69.674  1.00  0.00     0.048 C 
BRANCH  16  23
ATOM     23  O   UNL     1      75.630  98.351  71.360  1.00  0.00    -0.381 OA
ATOM     24  H   UNL     1      74.665  98.453  71.308  1.00  0.00     0.212 HD
ENDBRANCH  16  23
ENDBRANCH   6  15
BRANCH   7  25
ATOM     25  C   UNL     1      77.167  95.116  76.959  1.00  0.00     0.135 C 
BRANCH  25  26
ATOM     26  C   UNL     1      76.145  94.079  77.351  1.00  0.00    -0.040 A 
ATOM     27  C   UNL     1      75.881  93.835  78.700  1.00  0.00     0.004 A 
ATOM     28  C   UNL     1      75.463  93.364  76.368  1.00  0.00     0.004 A 
ATOM     29  C   UNL     1      74.936  92.875  79.063  1.00  0.00     0.000 A 
ATOM     30  C   UNL     1      74.517  92.404  76.731  1.00  0.00     0.000 A 
ATOM     31  C   UNL     1      74.254  92.160  78.079  1.00  0.00     0.000 A 
ENDBRANCH  25  26
ENDBRANCH   7  25
BRANCH  14  32
ATOM     32  C   UNL     1      75.275  99.101  77.397  1.00  0.00    -0.046 C 
ATOM     33  C   UNL     1      76.220  99.348  78.536  1.00  0.00     0.042 C 
ATOM     34  C   UNL     1      74.003  99.526  77.428  1.00  0.00     0.010 C 
ENDBRANCH  14  32
ENDBRANCH   3   4
BRANCH   2  35
ATOM     35  C   UNL     1      74.667  96.128  71.040  1.00  0.00     0.078 CG0
ATOM     36  G   UNL     1      75.932  96.958  71.258  1.00  0.00     0.000 G0
ENDBRANCH   2  35
ENDBRANCH   1   2
BRANCH   1  37
ATOM     37  O   UNL     1      73.335  93.411  72.169  1.00  0.00    -0.461 OA
BRANCH  37  38
ATOM     38  C   UNL     1      73.307  92.578  71.074  1.00  0.00     0.310 C 
ATOM     39  O   UNL     1      72.596  92.735  70.091  1.00  0.00    -0.252 OA
BRANCH  38  40
ATOM     40  C   UNL     1      74.287  91.446  71.276  1.00  0.00     0.158 C 
BRANCH  40  41
ATOM     41  C   UNL     1      74.244  90.427  70.166  1.00  0.00    -0.033 A 
ATOM     42  C   UNL     1      73.016  90.013  69.647  1.00  0.00     0.054 A 
ATOM     43  C   UNL     1      75.430  89.899  69.658  1.00  0.00     0.008 A 
ATOM     44  C   UNL     1      72.976  89.070  68.620  1.00  0.00     0.160 A 
ATOM     45  C   UNL     1      75.390  88.955  68.631  1.00  0.00     0.050 A 
ATOM     46  C   UNL     1      74.164  88.541  68.112  1.00  0.00     0.157 A 
BRANCH  44  47
ATOM     47  O   UNL     1      71.773  88.673  68.122  1.00  0.00    -0.493 OA
ATOM     48  C   UNL     1      71.321  89.314  66.930  1.00  0.00     0.278 C 
ENDBRANCH  44  47
BRANCH  46  49
ATOM     49  O   UNL     1      74.137  87.620  67.109  1.00  0.00    -0.504 OA
ATOM     50  H   UNL     1      74.354  88.060  66.270  1.00  0.00     0.293 HD
ENDBRANCH  46  49
ENDBRANCH  40  41
ENDBRANCH  38  40
ENDBRANCH  37  38
ENDBRANCH   1  37
TORSDOF 11
ENDMDL
MODEL 9
REMARK VINA RESULT:    -4.874     12.750     17.046
REMARK INTER + INTRA:         -10.559
REMARK INTER:                 -10.054
REMARK INTRA:                  -0.505
REMARK UNBOUND:                -1.981
REMARK SMILES C=C(C)[C@]12C[C@@H](C)[C@@]34O[C@](Cc5ccccc5)(O[C@@H]1[C@@H]3C=C(COC(=O)Cc1ccc(O)c(OC)c1)C[C@]1(O)C(=O)C(C)=C[C@@H]41)O2
REMARK SMILES IDX 23 1 22 2 21 3 20 4 9 5 8 6 10 7 6 8 18 9 46 10 19 11 5 12
REMARK SMILES IDX 7 13 4 14 45 15 38 16 44 17 40 18 42 20 41 21 43 22 39 23
REMARK SMILES IDX 11 25 12 26 13 27 17 28 14 29 16 30 15 31 2 32 3 33 1 34
REMARK SMILES IDX 37 35 24 37 25 38 26 39 27 40 28 41 36 42 29 43 33 44 30 45
REMARK SMILES IDX 31 46 34 47 35 48 32 49
REMARK H PARENT 39 24 32 50
REMARK Flexibility Score: 90.00
ROOT
ATOM      1  C   UNL     1      89.365  97.386  93.657  1.00  0.00     0.264 C 
ENDROOT
BRANCH   1   2
ATOM      2  C   UNL     1      90.744  97.009  93.167  1.00  0.00    -0.033 C 
ATOM      3  C   UNL     1      91.198  95.756  93.375  1.00  0.00    -0.015 C 
BRANCH   3   4
ATOM      4  C   UNL     1      92.557  95.157  93.055  1.00  0.00     0.078 C 
ATOM      5  O   UNL     1      92.389  94.156  90.799  1.00  0.00    -0.319 OA
ATOM      6  C   UNL     1      93.063  95.202  91.565  1.00  0.00     0.095 C 
ATOM      7  C   UNL     1      92.272  92.884  91.464  1.00  0.00     0.289 C 
ATOM      8  C   UNL     1      94.622  94.920  91.578  1.00  0.00     0.023 C 
ATOM      9  O   UNL     1      91.584  93.011  92.706  1.00  0.00    -0.320 OA
ATOM     10  O   UNL     1      93.542  92.322  91.785  1.00  0.00    -0.313 OA
ATOM     11  C   UNL     1      92.592  93.670  93.487  1.00  0.00     0.170 C 
ATOM     12  C   UNL     1      95.015  93.937  92.724  1.00  0.00     0.049 C 
ATOM     13  C   UNL     1      95.214  94.419  90.250  1.00  0.00     0.011 C 
ATOM     14  C   UNL     1      93.888  92.951  93.035  1.00  0.00     0.122 C 
BRANCH   6  15
ATOM     15  C   UNL     1      92.630  96.528  90.875  1.00  0.00     0.086 C 
ATOM     16  C   UNL     1      92.773  97.812  91.718  1.00  0.00     0.140 CG0
ATOM     17  C   UNL     1      93.242  96.906  89.555  1.00  0.00    -0.010 C 
ATOM     18  C   UNL     1      93.137  98.848  90.675  1.00  0.00     0.190 C 
ATOM     19  G   UNL     1      91.486  98.159  92.464  1.00  0.00     0.000 G0
ATOM     20  C   UNL     1      93.513  98.206  89.401  1.00  0.00    -0.008 C 
ATOM     21  O   UNL     1      93.171 100.055  90.858  1.00  0.00    -0.291 OA
ATOM     22  C   UNL     1      94.032  98.938  88.227  1.00  0.00     0.048 C 
BRANCH  16  23
ATOM     23  O   UNL     1      93.891  97.803  92.591  1.00  0.00    -0.381 OA
ATOM     24  H   UNL     1      94.447  97.038  92.369  1.00  0.00     0.212 HD
ENDBRANCH  16  23
ENDBRANCH   6  15
BRANCH   7  25
ATOM     25  C   UNL     1      91.515  91.938  90.554  1.00  0.00     0.135 C 
BRANCH  25  26
ATOM     26  C   UNL     1      92.441  91.013  89.804  1.00  0.00    -0.040 A 
ATOM     27  C   UNL     1      92.379  89.637  90.024  1.00  0.00     0.004 A 
ATOM     28  C   UNL     1      93.358  91.533  88.891  1.00  0.00     0.004 A 
ATOM     29  C   UNL     1      93.235  88.780  89.330  1.00  0.00     0.000 A 
ATOM     30  C   UNL     1      94.214  90.676  88.197  1.00  0.00     0.000 A 
ATOM     31  C   UNL     1      94.152  89.300  88.418  1.00  0.00     0.000 A 
ENDBRANCH  25  26
ENDBRANCH   7  25
BRANCH  14  32
ATOM     32  C   UNL     1      94.305  91.888  93.998  1.00  0.00    -0.046 C 
ATOM     33  C   UNL     1      95.159  92.333  95.148  1.00  0.00     0.042 C 
ATOM     34  C   UNL     1      93.936  90.608  93.845  1.00  0.00     0.010 C 
ENDBRANCH  14  32
ENDBRANCH   3   4
BRANCH   2  35
ATOM     35  C   UNL     1      91.460  98.149  92.468  1.00  0.00     0.078 CG0
ATOM     36  G   UNL     1      92.754  97.813  91.729  1.00  0.00     0.000 G0
ENDBRANCH   2  35
ENDBRANCH   1   2
BRANCH   1  37
ATOM     37  O   UNL     1      88.789  98.311  92.760  1.00  0.00    -0.461 OA
BRANCH  37  38
ATOM     38  C   UNL     1      87.694  97.872  92.053  1.00  0.00     0.310 C 
ATOM     39  O   UNL     1      87.711  96.980  91.216  1.00  0.00    -0.252 OA
BRANCH  38  40
ATOM     40  C   UNL     1      86.475  98.660  92.469  1.00  0.00     0.158 C 
BRANCH  40  41
ATOM     41  C   UNL     1      85.680  99.177  91.297  1.00  0.00    -0.033 A 
ATOM     42  C   UNL     1      84.346  99.549  91.469  1.00  0.00     0.054 A 
ATOM     43  C   UNL     1      86.278  99.284  90.042  1.00  0.00     0.008 A 
ATOM     44  C   UNL     1      83.611 100.028  90.385  1.00  0.00     0.160 A 
ATOM     45  C   UNL     1      85.543  99.763  88.957  1.00  0.00     0.050 A 
ATOM     46  C   UNL     1      84.210 100.134  89.128  1.00  0.00     0.157 A 
BRANCH  44  47
ATOM     47  O   UNL     1      82.310 100.388  90.564  1.00  0.00    -0.493 OA
ATOM     48  C   UNL     1      81.315  99.466  90.121  1.00  0.00     0.278 C 
ENDBRANCH  44  47
BRANCH  46  49
ATOM     49  O   UNL     1      83.502 100.601  88.063  1.00  0.00    -0.504 OA
ATOM     50  H   UNL     1      82.588 100.780  88.343  1.00  0.00     0.293 HD
ENDBRANCH  46  49
ENDBRANCH  40  41
ENDBRANCH  38  40
ENDBRANCH  37  38
ENDBRANCH   1  37
TORSDOF 11
ENDMDL
MODEL 10
REMARK VINA RESULT:    -4.466     23.904     28.758
REMARK INTER + INTRA:          -9.842
REMARK INTER:                  -9.182
REMARK INTRA:                  -0.660
REMARK UNBOUND:                -1.981
REMARK SMILES C=C(C)[C@]12C[C@@H](C)[C@@]34O[C@](Cc5ccccc5)(O[C@@H]1[C@@H]3C=C(COC(=O)Cc1ccc(O)c(OC)c1)C[C@]1(O)C(=O)C(C)=C[C@@H]41)O2
REMARK SMILES IDX 23 1 22 2 21 3 20 4 9 5 8 6 10 7 6 8 18 9 46 10 19 11 5 12
REMARK SMILES IDX 7 13 4 14 45 15 38 16 44 17 40 18 42 20 41 21 43 22 39 23
REMARK SMILES IDX 11 25 12 26 13 27 17 28 14 29 16 30 15 31 2 32 3 33 1 34
REMARK SMILES IDX 37 35 24 37 25 38 26 39 27 40 28 41 36 42 29 43 33 44 30 45
REMARK SMILES IDX 31 46 34 47 35 48 32 49
REMARK H PARENT 39 24 32 50
REMARK Flexibility Score: 90.00
ROOT
ATOM      1  C   UNL     1      91.470  72.634  77.297  1.00  0.00     0.264 C 
ENDROOT
BRANCH   1   2
ATOM      2  C   UNL     1      90.374  71.609  77.123  1.00  0.00    -0.033 C 
ATOM      3  C   UNL     1      89.868  71.386  75.893  1.00  0.00    -0.015 C 
BRANCH   3   4
ATOM      4  C   UNL     1      88.725  70.479  75.469  1.00  0.00     0.078 C 
ATOM      5  O   UNL     1      89.723  68.296  74.870  1.00  0.00    -0.319 OA
ATOM      6  C   UNL     1      88.819  68.946  75.815  1.00  0.00     0.095 C 
ATOM      7  C   UNL     1      89.571  68.699  73.495  1.00  0.00     0.289 C 
ATOM      8  C   UNL     1      87.367  68.329  75.660  1.00  0.00     0.023 C 
ATOM      9  O   UNL     1      89.743  70.106  73.347  1.00  0.00    -0.320 OA
ATOM     10  O   UNL     1      88.270  68.414  72.988  1.00  0.00    -0.313 OA
ATOM     11  C   UNL     1      88.519  70.572  73.937  1.00  0.00     0.170 C 
ATOM     12  C   UNL     1      86.564  69.037  74.525  1.00  0.00     0.049 C 
ATOM     13  C   UNL     1      87.315  66.807  75.449  1.00  0.00     0.011 C 
ATOM     14  C   UNL     1      87.484  69.546  73.414  1.00  0.00     0.122 C 
BRANCH   6  15
ATOM     15  C   UNL     1      89.490  68.733  77.203  1.00  0.00     0.086 C 
ATOM     16  C   UNL     1      89.062  69.706  78.321  1.00  0.00     0.140 CG0
ATOM     17  C   UNL     1      89.408  67.385  77.863  1.00  0.00    -0.010 C 
ATOM     18  C   UNL     1      89.117  68.830  79.555  1.00  0.00     0.190 C 
ATOM     19  G   UNL     1      89.990  70.916  78.421  1.00  0.00     0.000 G0
ATOM     20  C   UNL     1      89.227  67.406  79.187  1.00  0.00    -0.008 C 
ATOM     21  O   UNL     1      89.033  69.225  80.708  1.00  0.00    -0.291 OA
ATOM     22  C   UNL     1      89.183  66.294  80.159  1.00  0.00     0.048 C 
BRANCH  16  23
ATOM     23  O   UNL     1      87.702  70.102  78.248  1.00  0.00    -0.381 OA
ATOM     24  H   UNL     1      87.624  70.814  77.591  1.00  0.00     0.212 HD
ENDBRANCH  16  23
ENDBRANCH   6  15
BRANCH   7  25
ATOM     25  C   UNL     1      90.609  67.967  72.668  1.00  0.00     0.135 C 
BRANCH  25  26
ATOM     26  C   UNL     1      90.562  68.373  71.216  1.00  0.00    -0.040 A 
ATOM     27  C   UNL     1      89.937  67.547  70.281  1.00  0.00     0.004 A 
ATOM     28  C   UNL     1      91.142  69.574  70.808  1.00  0.00     0.004 A 
ATOM     29  C   UNL     1      89.894  67.922  68.937  1.00  0.00     0.000 A 
ATOM     30  C   UNL     1      91.099  69.949  69.465  1.00  0.00     0.000 A 
ATOM     31  C   UNL     1      90.475  69.122  68.530  1.00  0.00     0.000 A 
ENDBRANCH  25  26
ENDBRANCH   7  25
BRANCH  14  32
ATOM     32  C   UNL     1      86.727  70.063  72.234  1.00  0.00    -0.046 C 
ATOM     33  C   UNL     1      87.502  70.199  70.958  1.00  0.00     0.042 C 
ATOM     34  C   UNL     1      85.427  70.388  72.312  1.00  0.00     0.010 C 
ENDBRANCH  14  32
ENDBRANCH   3   4
BRANCH   2  35
ATOM     35  C   UNL     1      89.979  70.934  78.423  1.00  0.00     0.078 CG0
ATOM     36  G   UNL     1      89.061  69.716  78.327  1.00  0.00     0.000 G0
ENDBRANCH   2  35
ENDBRANCH   1   2
BRANCH   1  37
ATOM     37  O   UNL     1      91.606  72.944  78.667  1.00  0.00    -0.461 OA
BRANCH  37  38
ATOM     38  C   UNL     1      92.504  73.938  78.979  1.00  0.00     0.310 C 
ATOM     39  O   UNL     1      92.835  74.847  78.230  1.00  0.00    -0.252 OA
BRANCH  38  40
ATOM     40  C   UNL     1      93.016  73.732  80.386  1.00  0.00     0.158 C 
BRANCH  40  41
ATOM     41  C   UNL     1      92.067  74.245  81.438  1.00  0.00    -0.033 A 
ATOM     42  C   UNL     1      92.423  75.343  82.222  1.00  0.00     0.054 A 
ATOM     43  C   UNL     1      90.833  73.624  81.627  1.00  0.00     0.008 A 
ATOM     44  C   UNL     1      91.544  75.818  83.196  1.00  0.00     0.160 A 
ATOM     45  C   UNL     1      89.954  74.099  82.601  1.00  0.00     0.050 A 
ATOM     46  C   UNL     1      90.310  75.195  83.385  1.00  0.00     0.157 A 
BRANCH  44  47
ATOM     47  O   UNL     1      91.903  76.890  83.956  1.00  0.00    -0.493 OA
ATOM     48  C   UNL     1      93.291  77.216  84.003  1.00  0.00     0.278 C 
ENDBRANCH  44  47
BRANCH  46  49
ATOM     49  O   UNL     1      89.444  75.651  84.332  1.00  0.00    -0.504 OA
ATOM     50  H   UNL     1      88.871  76.330  83.937  1.00  0.00     0.293 HD
ENDBRANCH  46  49
ENDBRANCH  40  41
ENDBRANCH  38  40
ENDBRANCH  37  38
ENDBRANCH   1  37
TORSDOF 11
ENDMDL
