MODEL 1
REMARK VINA RESULT:    -7.576      0.000      0.000
REMARK INTER + INTRA:         -13.089
REMARK INTER:                 -12.891
REMARK INTRA:                  -0.198
REMARK UNBOUND:                -0.198
REMARK SMILES C=C(C)[C@]12C[C@@H](C)[C@@]34O[C@](Cc5ccccc5)(O[C@@H]1[C@@H]3C=C(COC(=O)Cc1ccc(O)cc1)C[C@]1(O)C(=O)C(C)=C[C@@H]41)O2
REMARK SMILES IDX 23 1 22 2 21 3 20 4 9 5 8 6 10 7 6 8 18 10 44 11 19 12 5 13
REMARK SMILES IDX 7 14 4 15 11 16 12 17 13 18 17 19 14 20 16 21 15 22 2 23
REMARK SMILES IDX 3 24 1 25 35 26 36 27 43 28 38 29 42 30 39 32 40 33 41 34
REMARK SMILES IDX 37 35 24 37 25 38 26 39 27 40 28 41 29 42 34 43 30 44 33 45
REMARK SMILES IDX 31 46 32 47
REMARK H PARENT 37 36 32 48
REMARK Flexibility Score: 90.00
ROOT
ATOM      1  C   UNL     1      91.344 100.977  72.609  1.00  0.00     0.264 C 
ENDROOT
BRANCH   1   2
ATOM      2  C   UNL     1      92.832 100.822  72.820  1.00  0.00    -0.033 C 
ATOM      3  C   UNL     1      93.283 100.314  73.986  1.00  0.00    -0.015 C 
BRANCH   3   4
ATOM      4  C   UNL     1      94.713 100.130  74.470  1.00  0.00     0.078 C 
ATOM      5  O   UNL     1      95.385  97.827  73.870  1.00  0.00    -0.319 OA
ATOM      6  C   UNL     1      95.683  99.235  73.614  1.00  0.00     0.095 CG0
ATOM      7  C   UNL     1      95.147  97.489  75.250  1.00  0.00     0.289 C 
ATOM      8  C   UNL     1      97.163  99.550  74.081  1.00  0.00     0.023 C 
ATOM      9  G   UNL     1      95.408  99.419  72.093  1.00  0.00     0.000 G0
ATOM     10  O   UNL     1      94.074  98.255  75.793  1.00  0.00    -0.320 OA
ATOM     11  O   UNL     1      96.274  97.764  76.078  1.00  0.00    -0.313 OA
ATOM     12  C   UNL     1      94.711  99.538  75.901  1.00  0.00     0.170 C 
ATOM     13  C   UNL     1      97.223  99.894  75.601  1.00  0.00     0.049 C 
ATOM     14  C   UNL     1      98.203  98.461  73.765  1.00  0.00     0.011 C 
ATOM     15  C   UNL     1      96.133  99.166  76.389  1.00  0.00     0.122 C 
BRANCH   7  16
ATOM     16  C   UNL     1      94.813  96.013  75.327  1.00  0.00     0.135 C 
BRANCH  16  17
ATOM     17  C   UNL     1      93.920  95.694  76.500  1.00  0.00    -0.040 A 
ATOM     18  C   UNL     1      94.416  94.957  77.575  1.00  0.00     0.004 A 
ATOM     19  C   UNL     1      92.598  96.137  76.509  1.00  0.00     0.004 A 
ATOM     20  C   UNL     1      93.590  94.663  78.660  1.00  0.00     0.000 A 
ATOM     21  C   UNL     1      91.772  95.843  77.595  1.00  0.00     0.000 A 
ATOM     22  C   UNL     1      92.268  95.106  78.669  1.00  0.00     0.000 A 
ENDBRANCH  16  17
ENDBRANCH   7  16
BRANCH  15  23
ATOM     23  C   UNL     1      96.281  99.337  77.866  1.00  0.00    -0.046 C 
ATOM     24  C   UNL     1      96.802 100.665  78.330  1.00  0.00     0.042 C 
ATOM     25  C   UNL     1      95.967  98.359  78.728  1.00  0.00     0.010 C 
ENDBRANCH  15  23
ENDBRANCH   3   4
BRANCH   2  26
ATOM     26  C   UNL     1      93.654 101.276  71.628  1.00  0.00     0.078 C 
BRANCH  26  27
ATOM     27  C   UNL     1      95.136 100.906  71.620  1.00  0.00     0.140 C 
ATOM     28  C   UNL     1      95.378  99.454  72.083  1.00  0.00     0.086 CG0
ATOM     29  C   UNL     1      95.726 100.906  70.226  1.00  0.00     0.190 C 
ATOM     30  C   UNL     1      96.346  98.920  71.064  1.00  0.00    -0.010 C 
ATOM     31  G   UNL     1      95.677  99.258  73.598  1.00  0.00     0.000 G0
ATOM     32  O   UNL     1      95.598 101.800  69.403  1.00  0.00    -0.291 OA
ATOM     33  C   UNL     1      96.541  99.698  69.996  1.00  0.00    -0.008 C 
ATOM     34  C   UNL     1      97.346  99.460  68.780  1.00  0.00     0.048 C 
BRANCH  27  35
ATOM     35  O   UNL     1      95.913 101.866  72.316  1.00  0.00    -0.381 OA
ATOM     36  H   UNL     1      95.730 102.742  71.937  1.00  0.00     0.212 HD
ENDBRANCH  27  35
ENDBRANCH  26  27
ENDBRANCH   2  26
ENDBRANCH   1   2
BRANCH   1  37
ATOM     37  O   UNL     1      91.112 101.975  71.638  1.00  0.00    -0.461 OA
BRANCH  37  38
ATOM     38  C   UNL     1      89.815 102.105  71.197  1.00  0.00     0.310 C 
ATOM     39  O   UNL     1      88.856 102.374  71.907  1.00  0.00    -0.252 OA
BRANCH  38  40
ATOM     40  C   UNL     1      89.762 101.863  69.708  1.00  0.00     0.158 C 
BRANCH  40  41
ATOM     41  C   UNL     1      89.313 100.468  69.355  1.00  0.00    -0.037 A 
ATOM     42  C   UNL     1      88.694 100.225  68.128  1.00  0.00     0.008 A 
ATOM     43  C   UNL     1      89.515  99.421  70.253  1.00  0.00     0.008 A 
ATOM     44  C   UNL     1      88.277  98.934  67.801  1.00  0.00     0.046 A 
ATOM     45  C   UNL     1      89.099  98.130  69.927  1.00  0.00     0.046 A 
ATOM     46  C   UNL     1      88.480  97.887  68.701  1.00  0.00     0.115 A 
BRANCH  46  47
ATOM     47  O   UNL     1      88.073  96.628  68.382  1.00  0.00    -0.508 OA
ATOM     48  H   UNL     1      87.158  96.505  68.689  1.00  0.00     0.293 HD
ENDBRANCH  46  47
ENDBRANCH  40  41
ENDBRANCH  38  40
ENDBRANCH  37  38
ENDBRANCH   1  37
TORSDOF 10
ENDMDL
MODEL 2
REMARK VINA RESULT:    -7.381     19.510     23.336
REMARK INTER + INTRA:         -12.756
REMARK INTER:                 -11.579
REMARK INTRA:                  -1.177
REMARK UNBOUND:                -0.198
REMARK SMILES C=C(C)[C@]12C[C@@H](C)[C@@]34O[C@](Cc5ccccc5)(O[C@@H]1[C@@H]3C=C(COC(=O)Cc1ccc(O)cc1)C[C@]1(O)C(=O)C(C)=C[C@@H]41)O2
REMARK SMILES IDX 23 1 22 2 21 3 20 4 9 5 8 6 10 7 6 8 18 10 44 11 19 12 5 13
REMARK SMILES IDX 7 14 4 15 11 16 12 17 13 18 17 19 14 20 16 21 15 22 2 23
REMARK SMILES IDX 3 24 1 25 35 26 36 27 43 28 38 29 42 30 39 32 40 33 41 34
REMARK SMILES IDX 37 35 24 37 25 38 26 39 27 40 28 41 29 42 34 43 30 44 33 45
REMARK SMILES IDX 31 46 32 47
REMARK H PARENT 37 36 32 48
REMARK Flexibility Score: 90.00
ROOT
ATOM      1  C   UNL     1      95.411  86.125  87.112  1.00  0.00     0.264 C 
ENDROOT
BRANCH   1   2
ATOM      2  C   UNL     1      94.339  85.444  87.932  1.00  0.00    -0.033 C 
ATOM      3  C   UNL     1      93.607  84.460  87.372  1.00  0.00    -0.015 C 
BRANCH   3   4
ATOM      4  C   UNL     1      92.436  83.680  87.950  1.00  0.00     0.078 C 
ATOM      5  O   UNL     1      93.378  81.672  89.044  1.00  0.00    -0.319 OA
ATOM      6  C   UNL     1      92.646  82.910  89.305  1.00  0.00     0.095 CG0
ATOM      7  C   UNL     1      92.955  80.942  87.876  1.00  0.00     0.289 C 
ATOM      8  C   UNL     1      91.213  82.559  89.884  1.00  0.00     0.023 C 
ATOM      9  G   UNL     1      93.574  83.715  90.261  1.00  0.00     0.000 G0
ATOM     10  O   UNL     1      93.047  81.745  86.703  1.00  0.00    -0.320 OA
ATOM     11  O   UNL     1      91.592  80.532  87.957  1.00  0.00    -0.313 OA
ATOM     12  C   UNL     1      91.941  82.635  86.920  1.00  0.00     0.170 C 
ATOM     13  C   UNL     1      90.187  82.284  88.742  1.00  0.00     0.049 C 
ATOM     14  C   UNL     1      91.174  81.400  90.894  1.00  0.00     0.011 C 
ATOM     15  C   UNL     1      90.862  81.691  87.505  1.00  0.00     0.122 C 
BRANCH   7  16
ATOM     16  C   UNL     1      93.842  79.721  87.734  1.00  0.00     0.135 C 
BRANCH  16  17
ATOM     17  C   UNL     1      93.058  78.496  87.330  1.00  0.00    -0.040 A 
ATOM     18  C   UNL     1      92.230  77.862  88.255  1.00  0.00     0.004 A 
ATOM     19  C   UNL     1      93.163  78.000  86.031  1.00  0.00     0.004 A 
ATOM     20  C   UNL     1      91.505  76.730  87.882  1.00  0.00     0.000 A 
ATOM     21  C   UNL     1      92.438  76.867  85.658  1.00  0.00     0.000 A 
ATOM     22  C   UNL     1      91.610  76.233  86.583  1.00  0.00     0.000 A 
ENDBRANCH  16  17
ENDBRANCH   7  16
BRANCH  15  23
ATOM     23  C   UNL     1      89.878  81.253  86.469  1.00  0.00    -0.046 C 
ATOM     24  C   UNL     1      90.359  80.217  85.497  1.00  0.00     0.042 C 
ATOM     25  C   UNL     1      88.637  81.757  86.412  1.00  0.00     0.010 C 
ENDBRANCH  15  23
ENDBRANCH   3   4
BRANCH   2  26
ATOM     26  C   UNL     1      94.237  85.986  89.346  1.00  0.00     0.078 C 
BRANCH  26  27
ATOM     27  C   UNL     1      93.311  85.248  90.311  1.00  0.00     0.140 C 
ATOM     28  C   UNL     1      93.540  83.722  90.287  1.00  0.00     0.086 CG0
ATOM     29  C   UNL     1      93.586  85.595  91.758  1.00  0.00     0.190 C 
ATOM     30  C   UNL     1      93.581  83.352  91.743  1.00  0.00    -0.010 C 
ATOM     31  G   UNL     1      92.634  82.909  89.317  1.00  0.00     0.000 G0
ATOM     32  O   UNL     1      93.704  86.727  92.205  1.00  0.00    -0.291 OA
ATOM     33  C   UNL     1      93.637  84.381  92.594  1.00  0.00    -0.008 C 
ATOM     34  C   UNL     1      93.768  84.392  94.066  1.00  0.00     0.048 C 
BRANCH  27  35
ATOM     35  O   UNL     1      91.958  85.627  90.123  1.00  0.00    -0.381 OA
ATOM     36  H   UNL     1      91.936  86.560  89.848  1.00  0.00     0.212 HD
ENDBRANCH  27  35
ENDBRANCH  26  27
ENDBRANCH   2  26
ENDBRANCH   1   2
BRANCH   1  37
ATOM     37  O   UNL     1      96.443  85.202  86.835  1.00  0.00    -0.461 OA
BRANCH  37  38
ATOM     38  C   UNL     1      96.927  85.202  85.547  1.00  0.00     0.310 C 
ATOM     39  O   UNL     1      97.693  86.035  85.084  1.00  0.00    -0.252 OA
BRANCH  38  40
ATOM     40  C   UNL     1      96.366  84.016  84.798  1.00  0.00     0.158 C 
BRANCH  40  41
ATOM     41  C   UNL     1      97.107  82.736  85.085  1.00  0.00    -0.037 A 
ATOM     42  C   UNL     1      98.412  82.567  84.622  1.00  0.00     0.008 A 
ATOM     43  C   UNL     1      96.489  81.719  85.812  1.00  0.00     0.008 A 
ATOM     44  C   UNL     1      99.098  81.382  84.886  1.00  0.00     0.046 A 
ATOM     45  C   UNL     1      97.175  80.534  86.077  1.00  0.00     0.046 A 
ATOM     46  C   UNL     1      98.479  80.365  85.614  1.00  0.00     0.115 A 
BRANCH  46  47
ATOM     47  O   UNL     1      99.148  79.208  85.871  1.00  0.00    -0.508 OA
ATOM     48  H   UNL     1      98.567  78.613  86.376  1.00  0.00     0.293 HD
ENDBRANCH  46  47
ENDBRANCH  40  41
ENDBRANCH  38  40
ENDBRANCH  37  38
ENDBRANCH   1  37
TORSDOF 10
ENDMDL
MODEL 3
REMARK VINA RESULT:    -7.357     17.189     22.001
REMARK INTER + INTRA:         -12.716
REMARK INTER:                 -12.206
REMARK INTRA:                  -0.510
REMARK UNBOUND:                -0.198
REMARK SMILES C=C(C)[C@]12C[C@@H](C)[C@@]34O[C@](Cc5ccccc5)(O[C@@H]1[C@@H]3C=C(COC(=O)Cc1ccc(O)cc1)C[C@]1(O)C(=O)C(C)=C[C@@H]41)O2
REMARK SMILES IDX 23 1 22 2 21 3 20 4 9 5 8 6 10 7 6 8 18 10 44 11 19 12 5 13
REMARK SMILES IDX 7 14 4 15 11 16 12 17 13 18 17 19 14 20 16 21 15 22 2 23
REMARK SMILES IDX 3 24 1 25 35 26 36 27 43 28 38 29 42 30 39 32 40 33 41 34
REMARK SMILES IDX 37 35 24 37 25 38 26 39 27 40 28 41 29 42 34 43 30 44 33 45
REMARK SMILES IDX 31 46 32 47
REMARK H PARENT 37 36 32 48
REMARK Flexibility Score: 90.00
ROOT
ATOM      1  C   UNL     1      98.211  82.648  83.147  1.00  0.00     0.264 C 
ENDROOT
BRANCH   1   2
ATOM      2  C   UNL     1      98.092  82.571  84.652  1.00  0.00    -0.033 C 
ATOM      3  C   UNL     1      96.916  82.880  85.236  1.00  0.00    -0.015 C 
BRANCH   3   4
ATOM      4  C   UNL     1      96.562  82.955  86.713  1.00  0.00     0.078 C 
ATOM      5  O   UNL     1      95.729  80.720  87.368  1.00  0.00    -0.319 OA
ATOM      6  C   UNL     1      96.804  81.682  87.605  1.00  0.00     0.095 CG0
ATOM      7  C   UNL     1      94.406  81.283  87.286  1.00  0.00     0.289 C 
ATOM      8  C   UNL     1      96.767  82.145  89.120  1.00  0.00     0.023 C 
ATOM      9  G   UNL     1      98.097  80.936  87.166  1.00  0.00     0.000 G0
ATOM     10  O   UNL     1      94.326  82.270  86.261  1.00  0.00    -0.320 OA
ATOM     11  O   UNL     1      94.023  81.945  88.489  1.00  0.00    -0.313 OA
ATOM     12  C   UNL     1      95.069  83.333  86.878  1.00  0.00     0.170 C 
ATOM     13  C   UNL     1      95.769  83.324  89.334  1.00  0.00     0.049 C 
ATOM     14  C   UNL     1      96.471  81.036  90.144  1.00  0.00     0.011 C 
ATOM     15  C   UNL     1      94.599  83.261  88.351  1.00  0.00     0.122 C 
BRANCH   7  16
ATOM     16  C   UNL     1      93.430  80.161  86.995  1.00  0.00     0.135 C 
BRANCH  16  17
ATOM     17  C   UNL     1      91.996  80.605  87.143  1.00  0.00    -0.040 A 
ATOM     18  C   UNL     1      91.382  81.332  86.124  1.00  0.00     0.004 A 
ATOM     19  C   UNL     1      91.284  80.287  88.299  1.00  0.00     0.004 A 
ATOM     20  C   UNL     1      90.055  81.742  86.260  1.00  0.00     0.000 A 
ATOM     21  C   UNL     1      89.957  80.697  88.436  1.00  0.00     0.000 A 
ATOM     22  C   UNL     1      89.344  81.425  87.417  1.00  0.00     0.000 A 
ENDBRANCH  16  17
ENDBRANCH   7  16
BRANCH  15  23
ATOM     23  C   UNL     1      93.540  84.271  88.652  1.00  0.00    -0.046 C 
ATOM     24  C   UNL     1      93.958  85.710  88.575  1.00  0.00     0.042 C 
ATOM     25  C   UNL     1      92.289  83.913  88.974  1.00  0.00     0.010 C 
ENDBRANCH  15  23
ENDBRANCH   3   4
BRANCH   2  26
ATOM     26  C   UNL     1      99.374  82.127  85.329  1.00  0.00     0.078 C 
BRANCH  26  27
ATOM     27  C   UNL     1      99.313  81.857  86.831  1.00  0.00     0.140 C 
ATOM     28  C   UNL     1      98.124  80.950  87.213  1.00  0.00     0.086 CG0
ATOM     29  C   UNL     1     100.502  81.060  87.326  1.00  0.00     0.190 C 
ATOM     30  C   UNL     1      98.737  79.947  88.150  1.00  0.00    -0.010 C 
ATOM     31  G   UNL     1      96.812  81.678  87.626  1.00  0.00     0.000 G0
ATOM     32  O   UNL     1     101.672  81.306  87.077  1.00  0.00    -0.291 OA
ATOM     33  C   UNL     1     100.072  79.964  88.214  1.00  0.00    -0.008 C 
ATOM     34  C   UNL     1     101.000  79.083  88.952  1.00  0.00     0.048 C 
BRANCH  27  35
ATOM     35  O   UNL     1      99.378  83.061  87.578  1.00  0.00    -0.381 OA
ATOM     36  H   UNL     1      99.210  83.805  86.974  1.00  0.00     0.212 HD
ENDBRANCH  27  35
ENDBRANCH  26  27
ENDBRANCH   2  26
ENDBRANCH   1   2
BRANCH   1  37
ATOM     37  O   UNL     1      99.019  81.585  82.688  1.00  0.00    -0.461 OA
BRANCH  37  38
ATOM     38  C   UNL     1      99.807  81.850  81.592  1.00  0.00     0.310 C 
ATOM     39  O   UNL     1     100.793  82.574  81.595  1.00  0.00    -0.252 OA
BRANCH  38  40
ATOM     40  C   UNL     1      99.267  81.110  80.392  1.00  0.00     0.158 C 
BRANCH  40  41
ATOM     41  C   UNL     1      98.704  82.030  79.340  1.00  0.00    -0.037 A 
ATOM     42  C   UNL     1      98.966  81.788  77.991  1.00  0.00     0.008 A 
ATOM     43  C   UNL     1      97.922  83.122  79.713  1.00  0.00     0.008 A 
ATOM     44  C   UNL     1      98.446  82.640  77.016  1.00  0.00     0.046 A 
ATOM     45  C   UNL     1      97.401  83.974  78.738  1.00  0.00     0.046 A 
ATOM     46  C   UNL     1      97.663  83.733  77.390  1.00  0.00     0.115 A 
BRANCH  46  47
ATOM     47  O   UNL     1      97.157  84.564  76.439  1.00  0.00    -0.508 OA
ATOM     48  H   UNL     1      97.797  84.638  75.710  1.00  0.00     0.293 HD
ENDBRANCH  46  47
ENDBRANCH  40  41
ENDBRANCH  38  40
ENDBRANCH  37  38
ENDBRANCH   1  37
TORSDOF 10
ENDMDL
MODEL 4
REMARK VINA RESULT:    -7.127     30.012     32.833
REMARK INTER + INTRA:         -12.324
REMARK INTER:                  -9.809
REMARK INTRA:                  -2.515
REMARK UNBOUND:                -0.198
REMARK SMILES C=C(C)[C@]12C[C@@H](C)[C@@]34O[C@](Cc5ccccc5)(O[C@@H]1[C@@H]3C=C(COC(=O)Cc1ccc(O)cc1)C[C@]1(O)C(=O)C(C)=C[C@@H]41)O2
REMARK SMILES IDX 23 1 22 2 21 3 20 4 9 5 8 6 10 7 6 8 18 10 44 11 19 12 5 13
REMARK SMILES IDX 7 14 4 15 11 16 12 17 13 18 17 19 14 20 16 21 15 22 2 23
REMARK SMILES IDX 3 24 1 25 35 26 36 27 43 28 38 29 42 30 39 32 40 33 41 34
REMARK SMILES IDX 37 35 24 37 25 38 26 39 27 40 28 41 29 42 34 43 30 44 33 45
REMARK SMILES IDX 31 46 32 47
REMARK H PARENT 37 36 32 48
REMARK Flexibility Score: 90.00
ROOT
ATOM      1  C   UNL     1      61.436  89.279  73.703  1.00  0.00     0.264 C 
ENDROOT
BRANCH   1   2
ATOM      2  C   UNL     1      62.793  88.728  74.078  1.00  0.00    -0.033 C 
ATOM      3  C   UNL     1      62.975  88.206  75.309  1.00  0.00    -0.015 C 
BRANCH   3   4
ATOM      4  C   UNL     1      64.243  87.664  75.949  1.00  0.00     0.078 C 
ATOM      5  O   UNL     1      64.288  85.231  75.512  1.00  0.00    -0.319 OA
ATOM      6  C   UNL     1      64.994  86.480  75.237  1.00  0.00     0.095 CG0
ATOM      7  C   UNL     1      63.837  85.065  76.871  1.00  0.00     0.289 C 
ATOM      8  C   UNL     1      66.454  86.402  75.848  1.00  0.00     0.023 C 
ATOM      9  G   UNL     1      64.925  86.632  73.690  1.00  0.00     0.000 G0
ATOM     10  O   UNL     1      62.980  86.132  77.266  1.00  0.00    -0.320 OA
ATOM     11  O   UNL     1      64.915  85.070  77.804  1.00  0.00    -0.313 OA
ATOM     12  C   UNL     1      63.942  87.192  77.393  1.00  0.00     0.170 C 
ATOM     13  C   UNL     1      66.467  86.816  77.352  1.00  0.00     0.049 C 
ATOM     14  C   UNL     1      67.167  85.049  75.686  1.00  0.00     0.011 C 
ATOM     15  C   UNL     1      65.148  86.474  78.045  1.00  0.00     0.122 C 
BRANCH   7  16
ATOM     16  C   UNL     1      63.094  83.747  76.967  1.00  0.00     0.135 C 
BRANCH  16  17
ATOM     17  C   UNL     1      62.881  83.117  75.613  1.00  0.00    -0.040 A 
ATOM     18  C   UNL     1      61.656  83.256  74.963  1.00  0.00     0.004 A 
ATOM     19  C   UNL     1      63.912  82.394  75.013  1.00  0.00     0.004 A 
ATOM     20  C   UNL     1      61.460  82.673  73.710  1.00  0.00     0.000 A 
ATOM     21  C   UNL     1      63.716  81.811  73.760  1.00  0.00     0.000 A 
ATOM     22  C   UNL     1      62.490  81.951  73.110  1.00  0.00     0.000 A 
ENDBRANCH  16  17
ENDBRANCH   7  16
BRANCH  15  23
ATOM     23  C   UNL     1      65.202  86.694  79.522  1.00  0.00    -0.046 C 
ATOM     24  C   UNL     1      66.323  87.557  80.022  1.00  0.00     0.042 C 
ATOM     25  C   UNL     1      64.300  86.152  80.353  1.00  0.00     0.010 C 
ENDBRANCH  15  23
ENDBRANCH   3   4
BRANCH   2  26
ATOM     26  C   UNL     1      63.810  88.838  72.958  1.00  0.00     0.078 C 
BRANCH  26  27
ATOM     27  C   UNL     1      65.128  88.085  73.136  1.00  0.00     0.140 C 
ATOM     28  C   UNL     1      64.916  86.661  73.690  1.00  0.00     0.086 CG0
ATOM     29  C   UNL     1      65.828  87.822  71.820  1.00  0.00     0.190 C 
ATOM     30  C   UNL     1      65.794  85.811  72.814  1.00  0.00    -0.010 C 
ATOM     31  G   UNL     1      65.001  86.506  75.236  1.00  0.00     0.000 G0
ATOM     32  O   UNL     1      66.031  88.653  70.947  1.00  0.00    -0.291 OA
ATOM     33  C   UNL     1      66.298  86.426  71.740  1.00  0.00    -0.008 C 
ATOM     34  C   UNL     1      67.121  85.891  70.636  1.00  0.00     0.048 C 
BRANCH  27  35
ATOM     35  O   UNL     1      66.067  88.851  73.872  1.00  0.00    -0.381 OA
ATOM     36  H   UNL     1      66.186  88.436  74.743  1.00  0.00     0.212 HD
ENDBRANCH  27  35
ENDBRANCH  26  27
ENDBRANCH   2  26
ENDBRANCH   1   2
BRANCH   1  37
ATOM     37  O   UNL     1      61.062  88.776  72.438  1.00  0.00    -0.461 OA
BRANCH  37  38
ATOM     38  C   UNL     1      59.888  88.058  72.394  1.00  0.00     0.310 C 
ATOM     39  O   UNL     1      58.810  88.499  72.022  1.00  0.00    -0.252 OA
BRANCH  38  40
ATOM     40  C   UNL     1      60.141  86.649  72.872  1.00  0.00     0.158 C 
BRANCH  40  41
ATOM     41  C   UNL     1      60.771  85.774  71.820  1.00  0.00    -0.037 A 
ATOM     42  C   UNL     1      62.151  85.574  71.814  1.00  0.00     0.008 A 
ATOM     43  C   UNL     1      59.974  85.166  70.850  1.00  0.00     0.008 A 
ATOM     44  C   UNL     1      62.735  84.765  70.839  1.00  0.00     0.046 A 
ATOM     45  C   UNL     1      60.557  84.356  69.875  1.00  0.00     0.046 A 
ATOM     46  C   UNL     1      61.937  84.156  69.869  1.00  0.00     0.115 A 
BRANCH  46  47
ATOM     47  O   UNL     1      62.507  83.367  68.917  1.00  0.00    -0.508 OA
ATOM     48  H   UNL     1      62.887  82.580  69.346  1.00  0.00     0.293 HD
ENDBRANCH  46  47
ENDBRANCH  40  41
ENDBRANCH  38  40
ENDBRANCH  37  38
ENDBRANCH   1  37
TORSDOF 10
ENDMDL
MODEL 5
REMARK VINA RESULT:    -6.992     29.217     33.599
REMARK INTER + INTRA:         -12.095
REMARK INTER:                 -11.325
REMARK INTRA:                  -0.770
REMARK UNBOUND:                -0.198
REMARK SMILES C=C(C)[C@]12C[C@@H](C)[C@@]34O[C@](Cc5ccccc5)(O[C@@H]1[C@@H]3C=C(COC(=O)Cc1ccc(O)cc1)C[C@]1(O)C(=O)C(C)=C[C@@H]41)O2
REMARK SMILES IDX 23 1 22 2 21 3 20 4 9 5 8 6 10 7 6 8 18 10 44 11 19 12 5 13
REMARK SMILES IDX 7 14 4 15 11 16 12 17 13 18 17 19 14 20 16 21 15 22 2 23
REMARK SMILES IDX 3 24 1 25 35 26 36 27 43 28 38 29 42 30 39 32 40 33 41 34
REMARK SMILES IDX 37 35 24 37 25 38 26 39 27 40 28 41 29 42 34 43 30 44 33 45
REMARK SMILES IDX 31 46 32 47
REMARK H PARENT 37 36 32 48
REMARK Flexibility Score: 90.00
ROOT
ATOM      1  C   UNL     1      61.431  89.243  73.682  1.00  0.00     0.264 C 
ENDROOT
BRANCH   1   2
ATOM      2  C   UNL     1      62.594  88.551  74.353  1.00  0.00    -0.033 C 
ATOM      3  C   UNL     1      62.353  87.658  75.335  1.00  0.00    -0.015 C 
BRANCH   3   4
ATOM      4  C   UNL     1      63.336  86.894  76.208  1.00  0.00     0.078 C 
ATOM      5  O   UNL     1      63.746  84.722  75.099  1.00  0.00    -0.319 OA
ATOM      6  C   UNL     1      64.395  85.967  75.507  1.00  0.00     0.095 CG0
ATOM      7  C   UNL     1      62.842  84.154  76.066  1.00  0.00     0.289 C 
ATOM      8  C   UNL     1      65.527  85.644  76.568  1.00  0.00     0.023 C 
ATOM      9  G   UNL     1      64.890  86.601  74.174  1.00  0.00     0.000 G0
ATOM     10  O   UNL     1      61.812  85.075  76.415  1.00  0.00    -0.320 OA
ATOM     11  O   UNL     1      63.494  83.824  77.290  1.00  0.00    -0.313 OA
ATOM     12  C   UNL     1      62.564  86.003  77.213  1.00  0.00     0.170 C 
ATOM     13  C   UNL     1      64.949  85.563  78.014  1.00  0.00     0.049 C 
ATOM     14  C   UNL     1      66.362  84.385  76.281  1.00  0.00     0.011 C 
ATOM     15  C   UNL     1      63.501  85.070  78.018  1.00  0.00     0.122 C 
BRANCH   7  16
ATOM     16  C   UNL     1      62.231  82.903  75.467  1.00  0.00     0.135 C 
BRANCH  16  17
ATOM     17  C   UNL     1      62.740  82.636  74.073  1.00  0.00    -0.040 A 
ATOM     18  C   UNL     1      62.359  83.467  73.020  1.00  0.00     0.004 A 
ATOM     19  C   UNL     1      63.591  81.557  73.837  1.00  0.00     0.004 A 
ATOM     20  C   UNL     1      62.831  83.220  71.730  1.00  0.00     0.000 A 
ATOM     21  C   UNL     1      64.063  81.310  72.547  1.00  0.00     0.000 A 
ATOM     22  C   UNL     1      63.682  82.141  71.495  1.00  0.00     0.000 A 
ENDBRANCH  16  17
ENDBRANCH   7  16
BRANCH  15  23
ATOM     23  C   UNL     1      62.987  84.812  79.397  1.00  0.00    -0.046 C 
ATOM     24  C   UNL     1      62.862  86.009  80.292  1.00  0.00     0.042 C 
ATOM     25  C   UNL     1      62.655  83.580  79.811  1.00  0.00     0.010 C 
ENDBRANCH  15  23
ENDBRANCH   3   4
BRANCH   2  26
ATOM     26  C   UNL     1      63.941  88.973  73.795  1.00  0.00     0.078 C 
BRANCH  26  27
ATOM     27  C   UNL     1      65.160  88.158  74.223  1.00  0.00     0.140 C 
ATOM     28  C   UNL     1      64.891  86.640  74.179  1.00  0.00     0.086 CG0
ATOM     29  C   UNL     1      66.324  88.310  73.266  1.00  0.00     0.190 C 
ATOM     30  C   UNL     1      66.110  86.088  73.492  1.00  0.00    -0.010 C 
ATOM     31  G   UNL     1      64.405  85.991  75.508  1.00  0.00     0.000 G0
ATOM     32  O   UNL     1      66.759  89.371  72.844  1.00  0.00    -0.291 OA
ATOM     33  C   UNL     1      66.919  87.000  72.944  1.00  0.00    -0.008 C 
ATOM     34  C   UNL     1      68.142  86.822  72.134  1.00  0.00     0.048 C 
BRANCH  27  35
ATOM     35  O   UNL     1      65.679  88.613  75.462  1.00  0.00    -0.381 OA
ATOM     36  H   UNL     1      66.599  88.894  75.324  1.00  0.00     0.212 HD
ENDBRANCH  27  35
ENDBRANCH  26  27
ENDBRANCH   2  26
ENDBRANCH   1   2
BRANCH   1  37
ATOM     37  O   UNL     1      61.486  89.005  72.291  1.00  0.00    -0.461 OA
BRANCH  37  38
ATOM     38  C   UNL     1      60.965  87.807  71.859  1.00  0.00     0.310 C 
ATOM     39  O   UNL     1      61.570  86.976  71.197  1.00  0.00    -0.252 OA
BRANCH  38  40
ATOM     40  C   UNL     1      59.535  87.680  72.329  1.00  0.00     0.158 C 
BRANCH  40  41
ATOM     41  C   UNL     1      58.554  88.369  71.416  1.00  0.00    -0.037 A 
ATOM     42  C   UNL     1      57.969  89.575  71.804  1.00  0.00     0.008 A 
ATOM     43  C   UNL     1      58.229  87.802  70.185  1.00  0.00     0.008 A 
ATOM     44  C   UNL     1      57.059  90.212  70.960  1.00  0.00     0.046 A 
ATOM     45  C   UNL     1      57.320  88.439  69.340  1.00  0.00     0.046 A 
ATOM     46  C   UNL     1      56.735  89.644  69.727  1.00  0.00     0.115 A 
BRANCH  46  47
ATOM     47  O   UNL     1      55.847  90.266  68.904  1.00  0.00    -0.508 OA
ATOM     48  H   UNL     1      54.955  89.924  69.087  1.00  0.00     0.293 HD
ENDBRANCH  46  47
ENDBRANCH  40  41
ENDBRANCH  38  40
ENDBRANCH  37  38
ENDBRANCH   1  37
TORSDOF 10
ENDMDL
MODEL 6
REMARK VINA RESULT:    -6.697     16.440     21.520
REMARK INTER + INTRA:         -11.594
REMARK INTER:                  -9.773
REMARK INTRA:                  -1.820
REMARK UNBOUND:                -0.198
REMARK SMILES C=C(C)[C@]12C[C@@H](C)[C@@]34O[C@](Cc5ccccc5)(O[C@@H]1[C@@H]3C=C(COC(=O)Cc1ccc(O)cc1)C[C@]1(O)C(=O)C(C)=C[C@@H]41)O2
REMARK SMILES IDX 23 1 22 2 21 3 20 4 9 5 8 6 10 7 6 8 18 10 44 11 19 12 5 13
REMARK SMILES IDX 7 14 4 15 11 16 12 17 13 18 17 19 14 20 16 21 15 22 2 23
REMARK SMILES IDX 3 24 1 25 35 26 36 27 43 28 38 29 42 30 39 32 40 33 41 34
REMARK SMILES IDX 37 35 24 37 25 38 26 39 27 40 28 41 29 42 34 43 30 44 33 45
REMARK SMILES IDX 31 46 32 47
REMARK H PARENT 37 36 32 48
REMARK Flexibility Score: 90.00
ROOT
ATOM      1  C   UNL     1      76.143  94.785  69.590  1.00  0.00     0.264 C 
ENDROOT
BRANCH   1   2
ATOM      2  C   UNL     1      75.130  93.785  70.096  1.00  0.00    -0.033 C 
ATOM      3  C   UNL     1      74.950  92.630  69.421  1.00  0.00    -0.015 C 
BRANCH   3   4
ATOM      4  C   UNL     1      73.955  91.509  69.675  1.00  0.00     0.078 C 
ATOM      5  O   UNL     1      75.099  89.837  71.093  1.00  0.00    -0.319 OA
ATOM      6  C   UNL     1      73.985  90.783  71.070  1.00  0.00     0.095 CG0
ATOM      7  C   UNL     1      75.274  89.063  69.891  1.00  0.00     0.289 C 
ATOM      8  C   UNL     1      72.622  89.991  71.227  1.00  0.00     0.023 C 
ATOM      9  G   UNL     1      74.308  91.791  72.211  1.00  0.00     0.000 G0
ATOM     10  O   UNL     1      75.455  89.904  68.755  1.00  0.00    -0.320 OA
ATOM     11  O   UNL     1      74.136  88.256  69.595  1.00  0.00    -0.313 OA
ATOM     12  C   UNL     1      74.119  90.407  68.599  1.00  0.00     0.170 C 
ATOM     13  C   UNL     1      72.103  89.466  69.853  1.00  0.00     0.049 C 
ATOM     14  C   UNL     1      72.643  88.833  72.240  1.00  0.00     0.011 C 
ATOM     15  C   UNL     1      73.254  89.157  68.894  1.00  0.00     0.122 C 
BRANCH   7  16
ATOM     16  C   UNL     1      76.489  88.174  70.071  1.00  0.00     0.135 C 
BRANCH  16  17
ATOM     17  C   UNL     1      76.555  87.087  69.027  1.00  0.00    -0.040 A 
ATOM     18  C   UNL     1      77.225  87.314  67.826  1.00  0.00     0.004 A 
ATOM     19  C   UNL     1      75.947  85.856  69.265  1.00  0.00     0.004 A 
ATOM     20  C   UNL     1      77.287  86.308  66.860  1.00  0.00     0.000 A 
ATOM     21  C   UNL     1      76.009  84.850  68.300  1.00  0.00     0.000 A 
ATOM     22  C   UNL     1      76.678  85.076  67.099  1.00  0.00     0.000 A 
ENDBRANCH  16  17
ENDBRANCH   7  16
BRANCH  15  23
ATOM     23  C   UNL     1      72.793  88.485  67.642  1.00  0.00    -0.046 C 
ATOM     24  C   UNL     1      71.865  89.277  66.769  1.00  0.00     0.042 C 
ATOM     25  C   UNL     1      73.186  87.245  67.317  1.00  0.00     0.010 C 
ENDBRANCH  15  23
ENDBRANCH   3   4
BRANCH   2  26
ATOM     26  C   UNL     1      74.426  94.238  71.361  1.00  0.00     0.078 C 
BRANCH  26  27
ATOM     27  C   UNL     1      73.605  93.193  72.115  1.00  0.00     0.140 C 
ATOM     28  C   UNL     1      74.320  91.827  72.183  1.00  0.00     0.086 CG0
ATOM     29  C   UNL     1      73.429  93.540  73.578  1.00  0.00     0.190 C 
ATOM     30  C   UNL     1      74.161  91.420  73.621  1.00  0.00    -0.010 C 
ATOM     31  G   UNL     1      73.965  90.811  71.058  1.00  0.00     0.000 G0
ATOM     32  O   UNL     1      73.069  94.626  74.010  1.00  0.00    -0.291 OA
ATOM     33  C   UNL     1      73.690  92.369  74.436  1.00  0.00    -0.008 C 
ATOM     34  C   UNL     1      73.485  92.351  75.899  1.00  0.00     0.048 C 
BRANCH  27  35
ATOM     35  O   UNL     1      72.278  93.121  71.622  1.00  0.00    -0.381 OA
ATOM     36  H   UNL     1      71.693  92.858  72.352  1.00  0.00     0.212 HD
ENDBRANCH  27  35
ENDBRANCH  26  27
ENDBRANCH   2  26
ENDBRANCH   1   2
BRANCH   1  37
ATOM     37  O   UNL     1      76.617  95.558  70.672  1.00  0.00    -0.461 OA
BRANCH  37  38
ATOM     38  C   UNL     1      77.802  96.226  70.469  1.00  0.00     0.310 C 
ATOM     39  O   UNL     1      77.934  97.229  69.782  1.00  0.00    -0.252 OA
BRANCH  38  40
ATOM     40  C   UNL     1      78.909  95.529  71.224  1.00  0.00     0.158 C 
BRANCH  40  41
ATOM     41  C   UNL     1      78.408  94.737  72.403  1.00  0.00    -0.037 A 
ATOM     42  C   UNL     1      78.053  95.391  73.583  1.00  0.00     0.008 A 
ATOM     43  C   UNL     1      78.298  93.350  72.316  1.00  0.00     0.008 A 
ATOM     44  C   UNL     1      77.590  94.657  74.676  1.00  0.00     0.046 A 
ATOM     45  C   UNL     1      77.834  92.615  73.408  1.00  0.00     0.046 A 
ATOM     46  C   UNL     1      77.480  93.269  74.588  1.00  0.00     0.115 A 
BRANCH  46  47
ATOM     47  O   UNL     1      77.029  92.554  75.653  1.00  0.00    -0.508 OA
ATOM     48  H   UNL     1      76.205  92.100  75.403  1.00  0.00     0.293 HD
ENDBRANCH  46  47
ENDBRANCH  40  41
ENDBRANCH  38  40
ENDBRANCH  37  38
ENDBRANCH   1  37
TORSDOF 10
ENDMDL
MODEL 7
REMARK VINA RESULT:    -6.653     16.622     20.949
REMARK INTER + INTRA:         -11.518
REMARK INTER:                  -9.311
REMARK INTRA:                  -2.207
REMARK UNBOUND:                -0.198
REMARK SMILES C=C(C)[C@]12C[C@@H](C)[C@@]34O[C@](Cc5ccccc5)(O[C@@H]1[C@@H]3C=C(COC(=O)Cc1ccc(O)cc1)C[C@]1(O)C(=O)C(C)=C[C@@H]41)O2
REMARK SMILES IDX 23 1 22 2 21 3 20 4 9 5 8 6 10 7 6 8 18 10 44 11 19 12 5 13
REMARK SMILES IDX 7 14 4 15 11 16 12 17 13 18 17 19 14 20 16 21 15 22 2 23
REMARK SMILES IDX 3 24 1 25 35 26 36 27 43 28 38 29 42 30 39 32 40 33 41 34
REMARK SMILES IDX 37 35 24 37 25 38 26 39 27 40 28 41 29 42 34 43 30 44 33 45
REMARK SMILES IDX 31 46 32 47
REMARK H PARENT 37 36 32 48
REMARK Flexibility Score: 90.00
ROOT
ATOM      1  C   UNL     1      98.402  82.526  79.134  1.00  0.00     0.264 C 
ENDROOT
BRANCH   1   2
ATOM      2  C   UNL     1      99.369  81.419  78.784  1.00  0.00    -0.033 C 
ATOM      3  C   UNL     1      99.044  80.544  77.809  1.00  0.00    -0.015 C 
BRANCH   3   4
ATOM      4  C   UNL     1      99.797  79.315  77.326  1.00  0.00     0.078 C 
ATOM      5  O   UNL     1     101.226  80.040  75.442  1.00  0.00    -0.319 OA
ATOM      6  C   UNL     1     101.267  79.498  76.798  1.00  0.00     0.095 CG0
ATOM      7  C   UNL     1     100.233  79.456  74.576  1.00  0.00     0.289 C 
ATOM      8  C   UNL     1     101.947  78.067  76.769  1.00  0.00     0.023 C 
ATOM      9  G   UNL     1     102.022  80.579  77.626  1.00  0.00     0.000 G0
ATOM     10  O   UNL     1      98.925  79.587  75.126  1.00  0.00    -0.320 OA
ATOM     11  O   UNL     1     100.434  78.058  74.387  1.00  0.00    -0.313 OA
ATOM     12  C   UNL     1      99.002  78.625  76.189  1.00  0.00     0.170 C 
ATOM     13  C   UNL     1     100.912  76.948  76.437  1.00  0.00     0.049 C 
ATOM     14  C   UNL     1     103.162  77.931  75.835  1.00  0.00     0.011 C 
ATOM     15  C   UNL     1      99.791  77.465  75.535  1.00  0.00     0.122 C 
BRANCH   7  16
ATOM     16  C   UNL     1     100.300  80.161  73.235  1.00  0.00     0.135 C 
BRANCH  16  17
ATOM     17  C   UNL     1     101.677  80.705  72.949  1.00  0.00    -0.040 A 
ATOM     18  C   UNL     1     101.937  82.065  73.112  1.00  0.00     0.004 A 
ATOM     19  C   UNL     1     102.690  79.847  72.522  1.00  0.00     0.004 A 
ATOM     20  C   UNL     1     103.212  82.568  72.847  1.00  0.00     0.000 A 
ATOM     21  C   UNL     1     103.964  80.350  72.258  1.00  0.00     0.000 A 
ATOM     22  C   UNL     1     104.224  81.710  72.420  1.00  0.00     0.000 A 
ENDBRANCH  16  17
ENDBRANCH   7  16
BRANCH  15  23
ATOM     23  C   UNL     1      98.890  76.373  75.057  1.00  0.00    -0.046 C 
ATOM     24  C   UNL     1      99.562  75.110  74.606  1.00  0.00     0.042 C 
ATOM     25  C   UNL     1      97.556  76.513  75.032  1.00  0.00     0.010 C 
ENDBRANCH  15  23
ENDBRANCH   3   4
BRANCH   2  26
ATOM     26  C   UNL     1     100.638  81.452  79.614  1.00  0.00     0.078 C 
BRANCH  26  27
ATOM     27  C   UNL     1     101.788  80.553  79.166  1.00  0.00     0.140 C 
ATOM     28  C   UNL     1     101.995  80.587  77.637  1.00  0.00     0.086 CG0
ATOM     29  C   UNL     1     103.130  81.025  79.685  1.00  0.00     0.190 C 
ATOM     30  C   UNL     1     103.483  80.741  77.488  1.00  0.00    -0.010 C 
ATOM     31  G   UNL     1     101.255  79.487  76.821  1.00  0.00     0.000 G0
ATOM     32  O   UNL     1     103.373  81.330  80.843  1.00  0.00    -0.291 OA
ATOM     33  C   UNL     1     104.145  81.016  78.615  1.00  0.00    -0.008 C 
ATOM     34  C   UNL     1     105.578  81.308  78.830  1.00  0.00     0.048 C 
BRANCH  27  35
ATOM     35  O   UNL     1     101.662  79.244  79.697  1.00  0.00    -0.381 OA
ATOM     36  H   UNL     1     102.441  79.060  80.248  1.00  0.00     0.212 HD
ENDBRANCH  27  35
ENDBRANCH  26  27
ENDBRANCH   2  26
ENDBRANCH   1   2
BRANCH   1  37
ATOM     37  O   UNL     1      98.747  83.692  78.417  1.00  0.00    -0.461 OA
BRANCH  37  38
ATOM     38  C   UNL     1      97.977  83.977  77.313  1.00  0.00     0.310 C 
ATOM     39  O   UNL     1      96.904  84.563  77.338  1.00  0.00    -0.252 OA
BRANCH  38  40
ATOM     40  C   UNL     1      98.662  83.455  76.073  1.00  0.00     0.158 C 
BRANCH  40  41
ATOM     41  C   UNL     1     100.016  84.075  75.844  1.00  0.00    -0.037 A 
ATOM     42  C   UNL     1     100.130  85.239  75.084  1.00  0.00     0.008 A 
ATOM     43  C   UNL     1     101.155  83.485  76.391  1.00  0.00     0.008 A 
ATOM     44  C   UNL     1     101.384  85.813  74.871  1.00  0.00     0.046 A 
ATOM     45  C   UNL     1     102.409  84.058  76.179  1.00  0.00     0.046 A 
ATOM     46  C   UNL     1     102.524  85.222  75.419  1.00  0.00     0.115 A 
BRANCH  46  47
ATOM     47  O   UNL     1     103.746  85.781  75.211  1.00  0.00    -0.508 OA
ATOM     48  H   UNL     1     103.744  86.686  75.569  1.00  0.00     0.293 HD
ENDBRANCH  46  47
ENDBRANCH  40  41
ENDBRANCH  38  40
ENDBRANCH  37  38
ENDBRANCH   1  37
TORSDOF 10
ENDMDL
MODEL 8
REMARK VINA RESULT:    -6.576     17.444     21.474
REMARK INTER + INTRA:         -11.388
REMARK INTER:                 -10.134
REMARK INTRA:                  -1.253
REMARK UNBOUND:                -0.198
REMARK SMILES C=C(C)[C@]12C[C@@H](C)[C@@]34O[C@](Cc5ccccc5)(O[C@@H]1[C@@H]3C=C(COC(=O)Cc1ccc(O)cc1)C[C@]1(O)C(=O)C(C)=C[C@@H]41)O2
REMARK SMILES IDX 23 1 22 2 21 3 20 4 9 5 8 6 10 7 6 8 18 10 44 11 19 12 5 13
REMARK SMILES IDX 7 14 4 15 11 16 12 17 13 18 17 19 14 20 16 21 15 22 2 23
REMARK SMILES IDX 3 24 1 25 35 26 36 27 43 28 38 29 42 30 39 32 40 33 41 34
REMARK SMILES IDX 37 35 24 37 25 38 26 39 27 40 28 41 29 42 34 43 30 44 33 45
REMARK SMILES IDX 31 46 32 47
REMARK H PARENT 37 36 32 48
REMARK Flexibility Score: 90.00
ROOT
ATOM      1  C   UNL     1     103.574  81.706  77.762  1.00  0.00     0.264 C 
ENDROOT
BRANCH   1   2
ATOM      2  C   UNL     1     103.074  80.714  78.787  1.00  0.00    -0.033 C 
ATOM      3  C   UNL     1     102.852  81.128  80.051  1.00  0.00    -0.015 C 
BRANCH   3   4
ATOM      4  C   UNL     1     102.428  80.324  81.270  1.00  0.00     0.078 C 
ATOM      5  O   UNL     1      99.960  80.430  81.380  1.00  0.00    -0.319 OA
ATOM      6  C   UNL     1     101.083  79.512  81.199  1.00  0.00     0.095 CG0
ATOM      7  C   UNL     1     100.133  81.419  82.412  1.00  0.00     0.289 C 
ATOM      8  C   UNL     1     101.095  78.460  82.385  1.00  0.00     0.023 C 
ATOM      9  G   UNL     1     100.871  78.914  79.778  1.00  0.00     0.000 G0
ATOM     10  O   UNL     1     101.295  82.211  82.181  1.00  0.00    -0.320 OA
ATOM     11  O   UNL     1     100.316  80.833  83.699  1.00  0.00    -0.313 OA
ATOM     12  C   UNL     1     102.318  81.255  82.502  1.00  0.00     0.170 C 
ATOM     13  C   UNL     1     101.848  79.014  83.633  1.00  0.00     0.049 C 
ATOM     14  C   UNL     1      99.715  77.933  82.815  1.00  0.00     0.011 C 
ATOM     15  C   UNL     1     101.727  80.535  83.739  1.00  0.00     0.122 C 
BRANCH   7  16
ATOM     16  C   UNL     1      98.904  82.306  82.432  1.00  0.00     0.135 C 
BRANCH  16  17
ATOM     17  C   UNL     1      98.247  82.333  83.790  1.00  0.00    -0.040 A 
ATOM     18  C   UNL     1      98.209  83.518  84.523  1.00  0.00     0.004 A 
ATOM     19  C   UNL     1      97.677  81.172  84.311  1.00  0.00     0.004 A 
ATOM     20  C   UNL     1      97.601  83.543  85.779  1.00  0.00     0.000 A 
ATOM     21  C   UNL     1      97.069  81.197  85.566  1.00  0.00     0.000 A 
ATOM     22  C   UNL     1      97.031  82.382  86.299  1.00  0.00     0.000 A 
ENDBRANCH  16  17
ENDBRANCH   7  16
BRANCH  15  23
ATOM     23  C   UNL     1     102.285  81.067  85.019  1.00  0.00    -0.046 C 
ATOM     24  C   UNL     1     103.758  80.878  85.228  1.00  0.00     0.042 C 
ATOM     25  C   UNL     1     101.513  81.678  85.929  1.00  0.00     0.010 C 
ENDBRANCH  15  23
ENDBRANCH   3   4
BRANCH   2  26
ATOM     26  C   UNL     1     102.875  79.321  78.219  1.00  0.00     0.078 C 
BRANCH  26  27
ATOM     27  C   UNL     1     102.142  78.308  79.097  1.00  0.00     0.140 C 
ATOM     28  C   UNL     1     100.894  78.915  79.771  1.00  0.00     0.086 CG0
ATOM     29  C   UNL     1     101.557  77.164  78.298  1.00  0.00     0.190 C 
ATOM     30  C   UNL     1      99.835  77.870  79.551  1.00  0.00    -0.010 C 
ATOM     31  G   UNL     1     101.101  79.503  81.197  1.00  0.00     0.000 G0
ATOM     32  O   UNL     1     102.155  76.509  77.457  1.00  0.00    -0.291 OA
ATOM     33  C   UNL     1     100.167  76.888  78.707  1.00  0.00    -0.008 C 
ATOM     34  C   UNL     1      99.362  75.757  78.200  1.00  0.00     0.048 C 
BRANCH  27  35
ATOM     35  O   UNL     1     103.028  77.670  80.002  1.00  0.00    -0.381 OA
ATOM     36  H   UNL     1     102.784  77.933  80.906  1.00  0.00     0.212 HD
ENDBRANCH  27  35
ENDBRANCH  26  27
ENDBRANCH   2  26
ENDBRANCH   1   2
BRANCH   1  37
ATOM     37  O   UNL     1     102.673  82.790  77.684  1.00  0.00    -0.461 OA
BRANCH  37  38
ATOM     38  C   UNL     1     102.139  83.048  76.442  1.00  0.00     0.310 C 
ATOM     39  O   UNL     1     102.605  83.832  75.627  1.00  0.00    -0.252 OA
BRANCH  38  40
ATOM     40  C   UNL     1     100.895  82.216  76.245  1.00  0.00     0.158 C 
BRANCH  40  41
ATOM     41  C   UNL     1      99.736  82.684  77.086  1.00  0.00    -0.037 A 
ATOM     42  C   UNL     1      99.811  82.615  78.478  1.00  0.00     0.008 A 
ATOM     43  C   UNL     1      98.587  83.185  76.475  1.00  0.00     0.008 A 
ATOM     44  C   UNL     1      98.737  83.048  79.257  1.00  0.00     0.046 A 
ATOM     45  C   UNL     1      97.513  83.618  77.253  1.00  0.00     0.046 A 
ATOM     46  C   UNL     1      97.588  83.549  78.643  1.00  0.00     0.115 A 
BRANCH  46  47
ATOM     47  O   UNL     1      96.541  83.971  79.403  1.00  0.00    -0.508 OA
ATOM     48  H   UNL     1      96.838  84.703  79.972  1.00  0.00     0.293 HD
ENDBRANCH  46  47
ENDBRANCH  40  41
ENDBRANCH  38  40
ENDBRANCH  37  38
ENDBRANCH   1  37
TORSDOF 10
ENDMDL
MODEL 9
REMARK VINA RESULT:    -6.541     17.242     22.194
REMARK INTER + INTRA:         -11.328
REMARK INTER:                 -10.066
REMARK INTRA:                  -1.262
REMARK UNBOUND:                -0.198
REMARK SMILES C=C(C)[C@]12C[C@@H](C)[C@@]34O[C@](Cc5ccccc5)(O[C@@H]1[C@@H]3C=C(COC(=O)Cc1ccc(O)cc1)C[C@]1(O)C(=O)C(C)=C[C@@H]41)O2
REMARK SMILES IDX 23 1 22 2 21 3 20 4 9 5 8 6 10 7 6 8 18 10 44 11 19 12 5 13
REMARK SMILES IDX 7 14 4 15 11 16 12 17 13 18 17 19 14 20 16 21 15 22 2 23
REMARK SMILES IDX 3 24 1 25 35 26 36 27 43 28 38 29 42 30 39 32 40 33 41 34
REMARK SMILES IDX 37 35 24 37 25 38 26 39 27 40 28 41 29 42 34 43 30 44 33 45
REMARK SMILES IDX 31 46 32 47
REMARK H PARENT 37 36 32 48
REMARK Flexibility Score: 90.00
ROOT
ATOM      1  C   UNL     1     102.608  80.881  83.376  1.00  0.00     0.264 C 
ENDROOT
BRANCH   1   2
ATOM      2  C   UNL     1     101.693  80.326  82.309  1.00  0.00    -0.033 C 
ATOM      3  C   UNL     1     101.209  81.154  81.360  1.00  0.00    -0.015 C 
BRANCH   3   4
ATOM      4  C   UNL     1     100.225  80.865  80.237  1.00  0.00     0.078 C 
ATOM      5  O   UNL     1     101.559  80.235  78.253  1.00  0.00    -0.319 OA
ATOM      6  C   UNL     1     100.576  79.729  79.208  1.00  0.00     0.095 CG0
ATOM      7  C   UNL     1     101.319  81.572  77.773  1.00  0.00     0.289 C 
ATOM      8  C   UNL     1      99.244  79.352  78.438  1.00  0.00     0.023 C 
ATOM      9  G   UNL     1     101.296  78.545  79.916  1.00  0.00     0.000 G0
ATOM     10  O   UNL     1     101.253  82.504  78.848  1.00  0.00    -0.320 OA
ATOM     11  O   UNL     1     100.075  81.686  77.087  1.00  0.00    -0.313 OA
ATOM     12  C   UNL     1      99.979  82.151  79.409  1.00  0.00     0.170 C 
ATOM     13  C   UNL     1      98.316  80.592  78.258  1.00  0.00     0.049 C 
ATOM     14  C   UNL     1      99.440  78.661  77.077  1.00  0.00     0.011 C 
ATOM     15  C   UNL     1      99.119  81.889  78.149  1.00  0.00     0.122 C 
BRANCH   7  16
ATOM     16  C   UNL     1     102.449  81.949  76.835  1.00  0.00     0.135 C 
BRANCH  16  17
ATOM     17  C   UNL     1     102.074  83.097  75.931  1.00  0.00    -0.040 A 
ATOM     18  C   UNL     1     101.950  84.384  76.452  1.00  0.00     0.004 A 
ATOM     19  C   UNL     1     101.853  82.870  74.573  1.00  0.00     0.004 A 
ATOM     20  C   UNL     1     101.604  85.446  75.615  1.00  0.00     0.000 A 
ATOM     21  C   UNL     1     101.507  83.932  73.736  1.00  0.00     0.000 A 
ATOM     22  C   UNL     1     101.382  85.219  74.257  1.00  0.00     0.000 A 
ENDBRANCH  16  17
ENDBRANCH   7  16
BRANCH  15  23
ATOM     23  C   UNL     1      98.267  83.064  77.797  1.00  0.00    -0.046 C 
ATOM     24  C   UNL     1      98.369  83.556  76.383  1.00  0.00     0.042 C 
ATOM     25  C   UNL     1      97.456  83.647  78.692  1.00  0.00     0.010 C 
ENDBRANCH  15  23
ENDBRANCH   3   4
BRANCH   2  26
ATOM     26  C   UNL     1     101.438  78.838  82.457  1.00  0.00     0.078 C 
BRANCH  26  27
ATOM     27  C   UNL     1     100.713  78.136  81.310  1.00  0.00     0.140 C 
ATOM     28  C   UNL     1     101.274  78.540  79.931  1.00  0.00     0.086 CG0
ATOM     29  C   UNL     1     100.925  76.637  81.321  1.00  0.00     0.190 C 
ATOM     30  C   UNL     1     101.417  77.226  79.213  1.00  0.00    -0.010 C 
ATOM     31  G   UNL     1     100.558  79.724  79.219  1.00  0.00     0.000 G0
ATOM     32  O   UNL     1     100.795  75.911  82.296  1.00  0.00    -0.291 OA
ATOM     33  C   UNL     1     101.255  76.139  79.973  1.00  0.00    -0.008 C 
ATOM     34  C   UNL     1     101.401  74.709  79.631  1.00  0.00     0.048 C 
BRANCH  27  35
ATOM     35  O   UNL     1      99.307  78.280  81.421  1.00  0.00    -0.381 OA
ATOM     36  H   UNL     1      98.957  78.546  80.553  1.00  0.00     0.212 HD
ENDBRANCH  27  35
ENDBRANCH  26  27
ENDBRANCH   2  26
ENDBRANCH   1   2
BRANCH   1  37
ATOM     37  O   UNL     1     101.838  81.280  84.490  1.00  0.00    -0.461 OA
BRANCH  37  38
ATOM     38  C   UNL     1     101.732  80.367  85.513  1.00  0.00     0.310 C 
ATOM     39  O   UNL     1     102.666  79.745  85.999  1.00  0.00    -0.252 OA
BRANCH  38  40
ATOM     40  C   UNL     1     100.288  80.254  85.941  1.00  0.00     0.158 C 
BRANCH  40  41
ATOM     41  C   UNL     1      99.460  81.445  85.532  1.00  0.00    -0.037 A 
ATOM     42  C   UNL     1      98.655  81.377  84.394  1.00  0.00     0.008 A 
ATOM     43  C   UNL     1      99.497  82.614  86.290  1.00  0.00     0.008 A 
ATOM     44  C   UNL     1      97.889  82.480  84.015  1.00  0.00     0.046 A 
ATOM     45  C   UNL     1      98.731  83.717  85.912  1.00  0.00     0.046 A 
ATOM     46  C   UNL     1      97.927  83.650  84.774  1.00  0.00     0.115 A 
BRANCH  46  47
ATOM     47  O   UNL     1      97.180  84.725  84.404  1.00  0.00    -0.508 OA
ATOM     48  H   UNL     1      97.732  85.525  84.453  1.00  0.00     0.293 HD
ENDBRANCH  46  47
ENDBRANCH  40  41
ENDBRANCH  38  40
ENDBRANCH  37  38
ENDBRANCH   1  37
TORSDOF 10
ENDMDL
MODEL 10
REMARK VINA RESULT:    -6.495     16.738     21.676
REMARK INTER + INTRA:         -11.249
REMARK INTER:                  -9.395
REMARK INTRA:                  -1.854
REMARK UNBOUND:                -0.198
REMARK SMILES C=C(C)[C@]12C[C@@H](C)[C@@]34O[C@](Cc5ccccc5)(O[C@@H]1[C@@H]3C=C(COC(=O)Cc1ccc(O)cc1)C[C@]1(O)C(=O)C(C)=C[C@@H]41)O2
REMARK SMILES IDX 23 1 22 2 21 3 20 4 9 5 8 6 10 7 6 8 18 10 44 11 19 12 5 13
REMARK SMILES IDX 7 14 4 15 11 16 12 17 13 18 17 19 14 20 16 21 15 22 2 23
REMARK SMILES IDX 3 24 1 25 35 26 36 27 43 28 38 29 42 30 39 32 40 33 41 34
REMARK SMILES IDX 37 35 24 37 25 38 26 39 27 40 28 41 29 42 34 43 30 44 33 45
REMARK SMILES IDX 31 46 32 47
REMARK H PARENT 37 36 32 48
REMARK Flexibility Score: 90.00
ROOT
ATOM      1  C   UNL     1     105.016  81.298  79.475  1.00  0.00     0.264 C 
ENDROOT
BRANCH   1   2
ATOM      2  C   UNL     1     103.688  80.801  78.955  1.00  0.00    -0.033 C 
ATOM      3  C   UNL     1     102.681  81.679  78.771  1.00  0.00    -0.015 C 
BRANCH   3   4
ATOM      4  C   UNL     1     101.246  81.426  78.337  1.00  0.00     0.078 C 
ATOM      5  O   UNL     1     101.187  81.653  75.875  1.00  0.00    -0.319 OA
ATOM      6  C   UNL     1     100.996  80.698  76.965  1.00  0.00     0.095 CG0
ATOM      7  C   UNL     1     100.619  82.958  76.094  1.00  0.00     0.289 C 
ATOM      8  C   UNL     1      99.496  80.189  76.958  1.00  0.00     0.023 C 
ATOM      9  G   UNL     1     102.075  79.604  76.715  1.00  0.00     0.000 G0
ATOM     10  O   UNL     1     101.139  83.557  77.278  1.00  0.00    -0.320 OA
ATOM     11  O   UNL     1      99.206  82.911  76.275  1.00  0.00    -0.313 OA
ATOM     12  C   UNL     1     100.471  82.765  78.273  1.00  0.00     0.170 C 
ATOM     13  C   UNL     1      98.560  81.156  77.746  1.00  0.00     0.049 C 
ATOM     14  C   UNL     1      98.896  79.918  75.568  1.00  0.00     0.011 C 
ATOM     15  C   UNL     1      99.053  82.602  77.675  1.00  0.00     0.122 C 
BRANCH   7  16
ATOM     16  C   UNL     1     100.946  83.826  74.895  1.00  0.00     0.135 C 
BRANCH  16  17
ATOM     17  C   UNL     1     102.412  84.173  74.830  1.00  0.00    -0.040 A 
ATOM     18  C   UNL     1     102.831  85.480  75.078  1.00  0.00     0.004 A 
ATOM     19  C   UNL     1     103.349  83.187  74.522  1.00  0.00     0.004 A 
ATOM     20  C   UNL     1     104.187  85.802  75.018  1.00  0.00     0.000 A 
ATOM     21  C   UNL     1     104.705  83.508  74.462  1.00  0.00     0.000 A 
ATOM     22  C   UNL     1     105.124  84.815  74.710  1.00  0.00     0.000 A 
ENDBRANCH  16  17
ENDBRANCH   7  16
BRANCH  15  23
ATOM     23  C   UNL     1      98.079  83.569  78.267  1.00  0.00    -0.046 C 
ATOM     24  C   UNL     1      97.596  84.660  77.358  1.00  0.00     0.042 C 
ATOM     25  C   UNL     1      97.661  83.467  79.537  1.00  0.00     0.010 C 
ENDBRANCH  15  23
ENDBRANCH   3   4
BRANCH   2  26
ATOM     26  C   UNL     1     103.673  79.307  78.691  1.00  0.00     0.078 C 
BRANCH  26  27
ATOM     27  C   UNL     1     102.475  78.744  77.929  1.00  0.00     0.140 C 
ATOM     28  C   UNL     1     102.093  79.616  76.715  1.00  0.00     0.086 CG0
ATOM     29  C   UNL     1     102.772  77.405  77.287  1.00  0.00     0.190 C 
ATOM     30  C   UNL     1     101.896  78.613  75.612  1.00  0.00    -0.010 C 
ATOM     31  G   UNL     1     101.005  80.700  76.964  1.00  0.00     0.000 G0
ATOM     32  O   UNL     1     103.292  76.452  77.847  1.00  0.00    -0.291 OA
ATOM     33  C   UNL     1     102.294  77.368  75.893  1.00  0.00    -0.008 C 
ATOM     34  C   UNL     1     102.327  76.165  75.037  1.00  0.00     0.048 C 
BRANCH  27  35
ATOM     35  O   UNL     1     101.390  78.469  78.800  1.00  0.00    -0.381 OA
ATOM     36  H   UNL     1     101.540  78.942  79.636  1.00  0.00     0.212 HD
ENDBRANCH  27  35
ENDBRANCH  26  27
ENDBRANCH   2  26
ENDBRANCH   1   2
BRANCH   1  37
ATOM     37  O   UNL     1     104.936  81.466  80.875  1.00  0.00    -0.461 OA
BRANCH  37  38
ATOM     38  C   UNL     1     105.202  80.352  81.637  1.00  0.00     0.310 C 
ATOM     39  O   UNL     1     106.041  79.503  81.371  1.00  0.00    -0.252 OA
BRANCH  38  40
ATOM     40  C   UNL     1     104.299  80.342  82.847  1.00  0.00     0.158 C 
BRANCH  40  41
ATOM     41  C   UNL     1     102.849  80.560  82.500  1.00  0.00    -0.037 A 
ATOM     42  C   UNL     1     102.335  81.855  82.433  1.00  0.00     0.008 A 
ATOM     43  C   UNL     1     102.020  79.468  82.246  1.00  0.00     0.008 A 
ATOM     44  C   UNL     1     100.992  82.058  82.113  1.00  0.00     0.046 A 
ATOM     45  C   UNL     1     100.677  79.670  81.925  1.00  0.00     0.046 A 
ATOM     46  C   UNL     1     100.163  80.964  81.859  1.00  0.00     0.115 A 
BRANCH  46  47
ATOM     47  O   UNL     1      98.854  81.162  81.547  1.00  0.00    -0.508 OA
ATOM     48  H   UNL     1      98.698  80.862  80.635  1.00  0.00     0.293 HD
ENDBRANCH  46  47
ENDBRANCH  40  41
ENDBRANCH  38  40
ENDBRANCH  37  38
ENDBRANCH   1  37
TORSDOF 10
ENDMDL
