MODEL 1
REMARK VINA RESULT:    -7.186      0.000      0.000
REMARK INTER + INTRA:          -8.865
REMARK INTER:                  -8.446
REMARK INTRA:                  -0.419
REMARK UNBOUND:                -0.419
REMARK SMILES O=C(/C=C/C=C/c1ccc2c(c1)OCO2)N1CCCCC1
REMARK SMILES IDX 3 1 4 2 2 3 1 4 16 5 17 6 21 7 18 8 20 9 19 10 5 11 6 12
REMARK SMILES IDX 7 13 12 14 8 15 11 16 9 17 13 18 10 19 14 20 15 21
REMARK H PARENT
REMARK Flexibility Score: inf
ROOT
ATOM      1  C   UNL     1      99.297  82.846  81.026  1.00  0.00     0.071 C 
ATOM      2  C   UNL     1      98.974  81.887  81.892  1.00  0.00     0.006 C 
ENDROOT
BRANCH   1   3
ATOM      3  C   UNL     1     100.021  82.460  79.799  1.00  0.00     0.246 C 
ATOM      4  O   UNL     1     101.013  81.742  79.926  1.00  0.00    -0.270 OA
ATOM      5  N   UNL     1      99.536  82.936  78.582  1.00  0.00    -0.339 N 
ATOM      6  C   UNL     1     100.238  82.573  77.346  1.00  0.00     0.120 C 
ATOM      7  C   UNL     1      98.384  83.829  78.395  1.00  0.00     0.120 C 
ATOM      8  C   UNL     1      99.284  81.971  76.321  1.00  0.00     0.022 C 
ATOM      9  C   UNL     1      97.404  83.261  77.369  1.00  0.00     0.022 C 
ATOM     10  C   UNL     1      98.103  82.901  76.061  1.00  0.00     0.004 C 
ENDBRANCH   1   3
BRANCH   2  11
ATOM     11  C   UNL     1      98.265  82.168  83.122  1.00  0.00     0.001 C 
ATOM     12  C   UNL     1      97.798  83.388  83.430  1.00  0.00     0.008 C 
BRANCH  12  13
ATOM     13  C   UNL     1      97.079  83.730  84.669  1.00  0.00    -0.022 A 
ATOM     14  C   UNL     1      96.936  85.065  85.020  1.00  0.00     0.058 A 
ATOM     15  C   UNL     1      96.559  82.700  85.456  1.00  0.00     0.012 A 
ATOM     16  C   UNL     1      96.254  85.335  86.189  1.00  0.00     0.166 A 
ATOM     17  C   UNL     1      95.873  83.002  86.635  1.00  0.00     0.051 A 
ATOM     18  O   UNL     1      96.012  86.572  86.704  1.00  0.00    -0.454 OA
ATOM     19  C   UNL     1      95.737  84.332  86.975  1.00  0.00     0.165 A 
ATOM     20  C   UNL     1      95.283  86.233  87.902  1.00  0.00     0.468 C 
ATOM     21  O   UNL     1      95.105  84.813  88.080  1.00  0.00    -0.454 OA
ENDBRANCH  12  13
ENDBRANCH   2  11
TORSDOF 3
ENDMDL
MODEL 2
REMARK VINA RESULT:    -7.131     23.982     26.161
REMARK INTER + INTRA:          -8.801
REMARK INTER:                  -8.383
REMARK INTRA:                  -0.418
REMARK UNBOUND:                -0.419
REMARK SMILES O=C(/C=C/C=C/c1ccc2c(c1)OCO2)N1CCCCC1
REMARK SMILES IDX 3 1 4 2 2 3 1 4 16 5 17 6 21 7 18 8 20 9 19 10 5 11 6 12
REMARK SMILES IDX 7 13 12 14 8 15 11 16 9 17 13 18 10 19 14 20 15 21
REMARK H PARENT
REMARK Flexibility Score: inf
ROOT
ATOM      1  C   UNL     1      75.999  91.753  71.398  1.00  0.00     0.071 C 
ATOM      2  C   UNL     1      74.933  90.955  71.386  1.00  0.00     0.006 C 
ENDROOT
BRANCH   1   3
ATOM      3  C   UNL     1      75.812  93.156  71.821  1.00  0.00     0.246 C 
ATOM      4  O   UNL     1      74.925  93.804  71.264  1.00  0.00    -0.270 OA
ATOM      5  N   UNL     1      76.653  93.652  72.815  1.00  0.00    -0.339 N 
ATOM      6  C   UNL     1      76.495  95.043  73.252  1.00  0.00     0.120 C 
ATOM      7  C   UNL     1      77.750  92.923  73.470  1.00  0.00     0.120 C 
ATOM      8  C   UNL     1      76.342  95.137  74.766  1.00  0.00     0.022 C 
ATOM      9  C   UNL     1      77.633  92.997  74.992  1.00  0.00     0.022 C 
ATOM     10  C   UNL     1      77.496  94.438  75.477  1.00  0.00     0.004 C 
ENDBRANCH   1   3
BRANCH   2  11
ATOM     11  C   UNL     1      75.016  89.566  70.987  1.00  0.00     0.001 C 
ATOM     12  C   UNL     1      76.102  89.044  70.396  1.00  0.00     0.008 C 
BRANCH  12  13
ATOM     13  C   UNL     1      76.237  87.643  69.963  1.00  0.00    -0.022 A 
ATOM     14  C   UNL     1      77.381  87.253  69.281  1.00  0.00     0.058 A 
ATOM     15  C   UNL     1      75.207  86.743  70.252  1.00  0.00     0.012 A 
ATOM     16  C   UNL     1      77.461  85.931  68.897  1.00  0.00     0.166 A 
ATOM     17  C   UNL     1      75.315  85.410  69.851  1.00  0.00     0.051 A 
ATOM     18  O   UNL     1      78.495  85.357  68.221  1.00  0.00    -0.454 OA
ATOM     19  C   UNL     1      76.456  85.033  69.174  1.00  0.00     0.165 A 
ATOM     20  C   UNL     1      78.027  83.998  68.105  1.00  0.00     0.468 C 
ATOM     21  O   UNL     1      76.733  83.785  68.707  1.00  0.00    -0.454 OA
ENDBRANCH  12  13
ENDBRANCH   2  11
TORSDOF 3
ENDMDL
MODEL 3
REMARK VINA RESULT:    -6.936      2.800      8.617
REMARK INTER + INTRA:          -8.571
REMARK INTER:                  -8.177
REMARK INTRA:                  -0.394
REMARK UNBOUND:                -0.419
REMARK SMILES O=C(/C=C/C=C/c1ccc2c(c1)OCO2)N1CCCCC1
REMARK SMILES IDX 3 1 4 2 2 3 1 4 16 5 17 6 21 7 18 8 20 9 19 10 5 11 6 12
REMARK SMILES IDX 7 13 12 14 8 15 11 16 9 17 13 18 10 19 14 20 15 21
REMARK H PARENT
REMARK Flexibility Score: inf
ROOT
ATOM      1  C   UNL     1      97.417  82.128  84.787  1.00  0.00     0.071 C 
ATOM      2  C   UNL     1      98.550  82.669  84.343  1.00  0.00     0.006 C 
ENDROOT
BRANCH   1   3
ATOM      3  C   UNL     1      97.121  82.224  86.231  1.00  0.00     0.246 C 
ATOM      4  O   UNL     1      97.573  81.343  86.964  1.00  0.00    -0.270 OA
ATOM      5  N   UNL     1      96.347  83.298  86.665  1.00  0.00    -0.339 N 
ATOM      6  C   UNL     1      96.032  83.417  88.092  1.00  0.00     0.120 C 
ATOM      7  C   UNL     1      95.754  84.342  85.816  1.00  0.00     0.120 C 
ATOM      8  C   UNL     1      96.407  84.793  88.633  1.00  0.00     0.022 C 
ATOM      9  C   UNL     1      96.104  85.738  86.329  1.00  0.00     0.022 C 
ATOM     10  C   UNL     1      95.760  85.900  87.807  1.00  0.00     0.004 C 
ENDBRANCH   1   3
BRANCH   2  11
ATOM     11  C   UNL     1      98.927  82.626  82.946  1.00  0.00     0.001 C 
ATOM     12  C   UNL     1      98.161  83.140  81.971  1.00  0.00     0.008 C 
BRANCH  12  13
ATOM     13  C   UNL     1      98.492  83.116  80.536  1.00  0.00    -0.022 A 
ATOM     14  C   UNL     1      97.528  83.501  79.614  1.00  0.00     0.058 A 
ATOM     15  C   UNL     1      99.768  82.706  80.142  1.00  0.00     0.012 A 
ATOM     16  C   UNL     1      97.886  83.462  78.281  1.00  0.00     0.166 A 
ATOM     17  C   UNL     1     100.103  82.677  78.786  1.00  0.00     0.051 A 
ATOM     18  O   UNL     1      97.088  83.798  77.231  1.00  0.00    -0.454 OA
ATOM     19  C   UNL     1      99.139  83.061  77.878  1.00  0.00     0.165 A 
ATOM     20  C   UNL     1      97.979  83.563  76.122  1.00  0.00     0.468 C 
ATOM     21  O   UNL     1      99.283  83.095  76.526  1.00  0.00    -0.454 OA
ENDBRANCH  12  13
ENDBRANCH   2  11
TORSDOF 3
ENDMDL
MODEL 4
REMARK VINA RESULT:    -6.774     25.103     26.380
REMARK INTER + INTRA:          -8.381
REMARK INTER:                  -7.993
REMARK INTRA:                  -0.388
REMARK UNBOUND:                -0.419
REMARK SMILES O=C(/C=C/C=C/c1ccc2c(c1)OCO2)N1CCCCC1
REMARK SMILES IDX 3 1 4 2 2 3 1 4 16 5 17 6 21 7 18 8 20 9 19 10 5 11 6 12
REMARK SMILES IDX 7 13 12 14 8 15 11 16 9 17 13 18 10 19 14 20 15 21
REMARK H PARENT
REMARK Flexibility Score: inf
ROOT
ATOM      1  C   UNL     1      77.089  85.834  67.788  1.00  0.00     0.071 C 
ATOM      2  C   UNL     1      77.166  86.034  69.102  1.00  0.00     0.006 C 
ENDROOT
BRANCH   1   3
ATOM      3  C   UNL     1      77.561  84.541  67.253  1.00  0.00     0.246 C 
ATOM      4  O   UNL     1      78.674  84.152  67.606  1.00  0.00    -0.270 OA
ATOM      5  N   UNL     1      76.718  83.852  66.383  1.00  0.00    -0.339 N 
ATOM      6  C   UNL     1      77.161  82.568  65.831  1.00  0.00     0.120 C 
ATOM      7  C   UNL     1      75.403  84.305  65.905  1.00  0.00     0.120 C 
ATOM      8  C   UNL     1      76.125  81.473  66.065  1.00  0.00     0.022 C 
ATOM      9  C   UNL     1      74.336  83.232  66.119  1.00  0.00     0.022 C 
ATOM     10  C   UNL     1      74.760  81.890  65.529  1.00  0.00     0.004 C 
ENDBRANCH   1   3
BRANCH   2  11
ATOM     11  C   UNL     1      76.729  87.268  69.720  1.00  0.00     0.001 C 
ATOM     12  C   UNL     1      75.494  87.433  70.218  1.00  0.00     0.008 C 
BRANCH  12  13
ATOM     13  C   UNL     1      74.995  88.668  70.848  1.00  0.00    -0.022 A 
ATOM     14  C   UNL     1      73.830  88.619  71.601  1.00  0.00     0.058 A 
ATOM     15  C   UNL     1      75.710  89.855  70.671  1.00  0.00     0.012 A 
ATOM     16  C   UNL     1      73.404  89.801  72.172  1.00  0.00     0.166 A 
ATOM     17  C   UNL     1      75.255  91.037  71.259  1.00  0.00     0.051 A 
ATOM     18  O   UNL     1      72.291  89.960  72.940  1.00  0.00    -0.454 OA
ATOM     19  C   UNL     1      74.097  90.978  72.006  1.00  0.00     0.165 A 
ATOM     20  C   UNL     1      72.362  91.369  73.238  1.00  0.00     0.468 C 
ATOM     21  O   UNL     1      73.505  92.021  72.649  1.00  0.00    -0.454 OA
ENDBRANCH  12  13
ENDBRANCH   2  11
TORSDOF 3
ENDMDL
MODEL 5
REMARK VINA RESULT:    -6.664      2.016      3.147
REMARK INTER + INTRA:          -8.252
REMARK INTER:                  -7.967
REMARK INTRA:                  -0.285
REMARK UNBOUND:                -0.419
REMARK SMILES O=C(/C=C/C=C/c1ccc2c(c1)OCO2)N1CCCCC1
REMARK SMILES IDX 3 1 4 2 2 3 1 4 16 5 17 6 21 7 18 8 20 9 19 10 5 11 6 12
REMARK SMILES IDX 7 13 12 14 8 15 11 16 9 17 13 18 10 19 14 20 15 21
REMARK H PARENT
REMARK Flexibility Score: inf
ROOT
ATOM      1  C   UNL     1      98.064  82.788  78.213  1.00  0.00     0.071 C 
ATOM      2  C   UNL     1      98.350  83.497  79.303  1.00  0.00     0.006 C 
ENDROOT
BRANCH   1   3
ATOM      3  C   UNL     1      98.703  83.182  76.941  1.00  0.00     0.246 C 
ATOM      4  O   UNL     1      98.064  83.920  76.188  1.00  0.00    -0.270 OA
ATOM      5  N   UNL     1      99.980  82.691  76.675  1.00  0.00    -0.339 N 
ATOM      6  C   UNL     1     100.637  83.060  75.418  1.00  0.00     0.120 C 
ATOM      7  C   UNL     1     100.753  81.774  77.526  1.00  0.00     0.120 C 
ATOM      8  C   UNL     1     102.026  83.639  75.664  1.00  0.00     0.022 C 
ATOM      9  C   UNL     1     102.156  82.319  77.794  1.00  0.00     0.022 C 
ATOM     10  C   UNL     1     102.875  82.686  76.499  1.00  0.00     0.004 C 
ENDBRANCH   1   3
BRANCH   2  11
ATOM     11  C   UNL     1      97.775  83.188  80.595  1.00  0.00     0.001 C 
ATOM     12  C   UNL     1      98.502  83.143  81.723  1.00  0.00     0.008 C 
BRANCH  12  13
ATOM     13  C   UNL     1      97.969  82.827  83.059  1.00  0.00    -0.022 A 
ATOM     14  C   UNL     1      97.308  83.815  83.774  1.00  0.00     0.058 A 
ATOM     15  C   UNL     1      98.145  81.538  83.570  1.00  0.00     0.012 A 
ATOM     16  C   UNL     1      96.826  83.471  85.020  1.00  0.00     0.166 A 
ATOM     17  C   UNL     1      97.648  81.217  84.835  1.00  0.00     0.051 A 
ATOM     18  O   UNL     1      96.155  84.294  85.872  1.00  0.00    -0.454 OA
ATOM     19  C   UNL     1      96.992  82.206  85.537  1.00  0.00     0.165 A 
ATOM     20  C   UNL     1      95.917  83.405  86.982  1.00  0.00     0.468 C 
ATOM     21  O   UNL     1      96.445  82.078  86.777  1.00  0.00    -0.454 OA
ENDBRANCH  12  13
ENDBRANCH   2  11
TORSDOF 3
ENDMDL
MODEL 6
REMARK VINA RESULT:    -6.648      2.126      2.731
REMARK INTER + INTRA:          -8.234
REMARK INTER:                  -7.907
REMARK INTRA:                  -0.327
REMARK UNBOUND:                -0.419
REMARK SMILES O=C(/C=C/C=C/c1ccc2c(c1)OCO2)N1CCCCC1
REMARK SMILES IDX 3 1 4 2 2 3 1 4 16 5 17 6 21 7 18 8 20 9 19 10 5 11 6 12
REMARK SMILES IDX 7 13 12 14 8 15 11 16 9 17 13 18 10 19 14 20 15 21
REMARK H PARENT
REMARK Flexibility Score: inf
ROOT
ATOM      1  C   UNL     1      98.666  83.152  80.133  1.00  0.00     0.071 C 
ATOM      2  C   UNL     1      97.792  83.325  81.122  1.00  0.00     0.006 C 
ENDROOT
BRANCH   1   3
ATOM      3  C   UNL     1      98.218  83.428  78.754  1.00  0.00     0.246 C 
ATOM      4  O   UNL     1      97.061  83.820  78.599  1.00  0.00    -0.270 OA
ATOM      5  N   UNL     1      99.132  83.223  77.721  1.00  0.00    -0.339 N 
ATOM      6  C   UNL     1      98.714  83.484  76.340  1.00  0.00     0.120 C 
ATOM      7  C   UNL     1     100.504  82.715  77.862  1.00  0.00     0.120 C 
ATOM      8  C   UNL     1      99.684  84.423  75.632  1.00  0.00     0.022 C 
ATOM      9  C   UNL     1     101.508  83.630  77.162  1.00  0.00     0.022 C 
ATOM     10  C   UNL     1     101.113  83.895  75.712  1.00  0.00     0.004 C 
ENDBRANCH   1   3
BRANCH   2  11
ATOM     11  C   UNL     1      98.137  83.080  82.507  1.00  0.00     0.001 C 
ATOM     12  C   UNL     1      97.431  83.583  83.532  1.00  0.00     0.008 C 
BRANCH  12  13
ATOM     13  C   UNL     1      97.742  83.372  84.956  1.00  0.00    -0.022 A 
ATOM     14  C   UNL     1      96.770  83.647  85.908  1.00  0.00     0.058 A 
ATOM     15  C   UNL     1      99.009  82.900  85.310  1.00  0.00     0.012 A 
ATOM     16  C   UNL     1      97.109  83.434  87.228  1.00  0.00     0.166 A 
ATOM     17  C   UNL     1      99.325  82.693  86.654  1.00  0.00     0.051 A 
ATOM     18  O   UNL     1      96.300  83.644  88.303  1.00  0.00    -0.454 OA
ATOM     19  C   UNL     1      98.352  82.969  87.592  1.00  0.00     0.165 A 
ATOM     20  C   UNL     1      97.174  83.260  89.384  1.00  0.00     0.468 C 
ATOM     21  O   UNL     1      98.478  82.830  88.940  1.00  0.00    -0.454 OA
ENDBRANCH  12  13
ENDBRANCH   2  11
TORSDOF 3
ENDMDL
MODEL 7
REMARK VINA RESULT:    -6.572     24.319     25.626
REMARK INTER + INTRA:          -8.144
REMARK INTER:                  -7.743
REMARK INTRA:                  -0.401
REMARK UNBOUND:                -0.419
REMARK SMILES O=C(/C=C/C=C/c1ccc2c(c1)OCO2)N1CCCCC1
REMARK SMILES IDX 3 1 4 2 2 3 1 4 16 5 17 6 21 7 18 8 20 9 19 10 5 11 6 12
REMARK SMILES IDX 7 13 12 14 8 15 11 16 9 17 13 18 10 19 14 20 15 21
REMARK H PARENT
REMARK Flexibility Score: inf
ROOT
ATOM      1  C   UNL     1      75.680  87.883  70.364  1.00  0.00     0.071 C 
ATOM      2  C   UNL     1      74.634  88.634  70.705  1.00  0.00     0.006 C 
ENDROOT
BRANCH   1   3
ATOM      3  C   UNL     1      75.454  86.445  70.122  1.00  0.00     0.246 C 
ATOM      4  O   UNL     1      74.336  85.994  70.378  1.00  0.00    -0.270 OA
ATOM      5  N   UNL     1      76.518  85.693  69.627  1.00  0.00    -0.339 N 
ATOM      6  C   UNL     1      76.325  84.261  69.382  1.00  0.00     0.120 C 
ATOM      7  C   UNL     1      77.876  86.186  69.353  1.00  0.00     0.120 C 
ATOM      8  C   UNL     1      76.732  83.878  67.964  1.00  0.00     0.022 C 
ATOM      9  C   UNL     1      78.323  85.818  67.938  1.00  0.00     0.022 C 
ATOM     10  C   UNL     1      78.159  84.326  67.665  1.00  0.00     0.004 C 
ENDBRANCH   1   3
BRANCH   2  11
ATOM     11  C   UNL     1      74.757  90.053  70.962  1.00  0.00     0.001 C 
ATOM     12  C   UNL     1      75.941  90.657  71.155  1.00  0.00     0.008 C 
BRANCH  12  13
ATOM     13  C   UNL     1      76.122  92.093  71.428  1.00  0.00    -0.022 A 
ATOM     14  C   UNL     1      77.268  92.516  72.086  1.00  0.00     0.058 A 
ATOM     15  C   UNL     1      75.133  92.990  71.016  1.00  0.00     0.012 A 
ATOM     16  C   UNL     1      77.393  93.870  72.319  1.00  0.00     0.166 A 
ATOM     17  C   UNL     1      75.285  94.356  71.265  1.00  0.00     0.051 A 
ATOM     18  O   UNL     1      78.436  94.480  72.947  1.00  0.00    -0.454 OA
ATOM     19  C   UNL     1      76.428  94.766  71.919  1.00  0.00     0.165 A 
ATOM     20  C   UNL     1      78.018  95.859  72.897  1.00  0.00     0.468 C 
ATOM     21  O   UNL     1      76.745  96.049  72.246  1.00  0.00    -0.454 OA
ENDBRANCH  12  13
ENDBRANCH   2  11
TORSDOF 3
ENDMDL
MODEL 8
REMARK VINA RESULT:    -6.464      2.978      9.088
REMARK INTER + INTRA:          -8.016
REMARK INTER:                  -7.620
REMARK INTRA:                  -0.396
REMARK UNBOUND:                -0.419
REMARK SMILES O=C(/C=C/C=C/c1ccc2c(c1)OCO2)N1CCCCC1
REMARK SMILES IDX 3 1 4 2 2 3 1 4 16 5 17 6 21 7 18 8 20 9 19 10 5 11 6 12
REMARK SMILES IDX 7 13 12 14 8 15 11 16 9 17 13 18 10 19 14 20 15 21
REMARK H PARENT
REMARK Flexibility Score: inf
ROOT
ATOM      1  C   UNL     1      95.790  83.537  86.326  1.00  0.00     0.071 C 
ATOM      2  C   UNL     1      96.414  82.372  86.162  1.00  0.00     0.006 C 
ENDROOT
BRANCH   1   3
ATOM      3  C   UNL     1      94.909  83.695  87.500  1.00  0.00     0.246 C 
ATOM      4  O   UNL     1      94.417  82.674  87.983  1.00  0.00    -0.270 OA
ATOM      5  N   UNL     1      94.690  84.985  87.979  1.00  0.00    -0.339 N 
ATOM      6  C   UNL     1      93.816  85.174  89.140  1.00  0.00     0.120 C 
ATOM      7  C   UNL     1      95.223  86.229  87.402  1.00  0.00     0.120 C 
ATOM      8  C   UNL     1      94.504  85.990  90.229  1.00  0.00     0.022 C 
ATOM      9  C   UNL     1      95.919  87.078  88.466  1.00  0.00     0.022 C 
ATOM     10  C   UNL     1      95.020  87.314  89.676  1.00  0.00     0.004 C 
ENDBRANCH   1   3
BRANCH   2  11
ATOM     11  C   UNL     1      97.297  82.122  85.042  1.00  0.00     0.001 C 
ATOM     12  C   UNL     1      97.438  82.984  84.022  1.00  0.00     0.008 C 
BRANCH  12  13
ATOM     13  C   UNL     1      98.314  82.776  82.857  1.00  0.00    -0.022 A 
ATOM     14  C   UNL     1      97.965  83.345  81.640  1.00  0.00     0.058 A 
ATOM     15  C   UNL     1      99.473  82.011  83.009  1.00  0.00     0.012 A 
ATOM     16  C   UNL     1      98.818  83.123  80.578  1.00  0.00     0.166 A 
ATOM     17  C   UNL     1     100.318  81.802  81.916  1.00  0.00     0.051 A 
ATOM     18  O   UNL     1      98.652  83.592  79.310  1.00  0.00    -0.454 OA
ATOM     19  C   UNL     1      99.963  82.372  80.712  1.00  0.00     0.165 A 
ATOM     20  C   UNL     1      99.822  83.051  78.662  1.00  0.00     0.468 C 
ATOM     21  O   UNL     1     100.658  82.276  79.546  1.00  0.00    -0.454 OA
ENDBRANCH  12  13
ENDBRANCH   2  11
TORSDOF 3
ENDMDL
MODEL 9
REMARK VINA RESULT:    -6.264      2.046      3.349
REMARK INTER + INTRA:          -7.782
REMARK INTER:                  -7.399
REMARK INTRA:                  -0.383
REMARK UNBOUND:                -0.419
REMARK SMILES O=C(/C=C/C=C/c1ccc2c(c1)OCO2)N1CCCCC1
REMARK SMILES IDX 3 1 4 2 2 3 1 4 16 5 17 6 21 7 18 8 20 9 19 10 5 11 6 12
REMARK SMILES IDX 7 13 12 14 8 15 11 16 9 17 13 18 10 19 14 20 15 21
REMARK H PARENT
REMARK Flexibility Score: inf
ROOT
ATOM      1  C   UNL     1      99.592  82.941  80.748  1.00  0.00     0.071 C 
ATOM      2  C   UNL     1      98.285  83.191  80.774  1.00  0.00     0.006 C 
ENDROOT
BRANCH   1   3
ATOM      3  C   UNL     1     100.212  82.621  79.446  1.00  0.00     0.246 C 
ATOM      4  O   UNL     1      99.709  83.119  78.439  1.00  0.00    -0.270 OA
ATOM      5  N   UNL     1     101.320  81.774  79.445  1.00  0.00    -0.339 N 
ATOM      6  C   UNL     1     101.953  81.434  78.167  1.00  0.00     0.120 C 
ATOM      7  C   UNL     1     101.919  81.126  80.620  1.00  0.00     0.120 C 
ATOM      8  C   UNL     1     103.452  81.713  78.197  1.00  0.00     0.022 C 
ATOM      9  C   UNL     1     103.425  81.380  80.684  1.00  0.00     0.022 C 
ATOM     10  C   UNL     1     104.116  81.007  79.375  1.00  0.00     0.004 C 
ENDBRANCH   1   3
BRANCH   2  11
ATOM     11  C   UNL     1      97.588  83.513  82.001  1.00  0.00     0.001 C 
ATOM     12  C   UNL     1      97.920  82.979  83.187  1.00  0.00     0.008 C 
BRANCH  12  13
ATOM     13  C   UNL     1      97.240  83.265  84.462  1.00  0.00    -0.022 A 
ATOM     14  C   UNL     1      96.911  82.211  85.304  1.00  0.00     0.058 A 
ATOM     15  C   UNL     1      96.946  84.591  84.790  1.00  0.00     0.012 A 
ATOM     16  C   UNL     1      96.277  82.529  86.487  1.00  0.00     0.166 A 
ATOM     17  C   UNL     1      96.302  84.884  85.994  1.00  0.00     0.051 A 
ATOM     18  O   UNL     1      95.873  81.644  87.439  1.00  0.00    -0.454 OA
ATOM     19  C   UNL     1      95.980  83.830  86.823  1.00  0.00     0.165 A 
ATOM     20  C   UNL     1      95.290  82.534  88.413  1.00  0.00     0.468 C 
ATOM     21  O   UNL     1      95.354  83.923  88.028  1.00  0.00    -0.454 OA
ENDBRANCH  12  13
ENDBRANCH   2  11
TORSDOF 3
ENDMDL
MODEL 10
REMARK VINA RESULT:    -6.082     17.993     20.599
REMARK INTER + INTRA:          -7.568
REMARK INTER:                  -7.243
REMARK INTRA:                  -0.325
REMARK UNBOUND:                -0.419
REMARK SMILES O=C(/C=C/C=C/c1ccc2c(c1)OCO2)N1CCCCC1
REMARK SMILES IDX 3 1 4 2 2 3 1 4 16 5 17 6 21 7 18 8 20 9 19 10 5 11 6 12
REMARK SMILES IDX 7 13 12 14 8 15 11 16 9 17 13 18 10 19 14 20 15 21
REMARK H PARENT
REMARK Flexibility Score: inf
ROOT
ATOM      1  C   UNL     1      88.752  70.042  71.456  1.00  0.00     0.071 C 
ATOM      2  C   UNL     1      88.613  70.582  70.247  1.00  0.00     0.006 C 
ENDROOT
BRANCH   1   3
ATOM      3  C   UNL     1      87.709  69.107  71.923  1.00  0.00     0.246 C 
ATOM      4  O   UNL     1      87.296  68.269  71.121  1.00  0.00    -0.270 OA
ATOM      5  N   UNL     1      87.260  69.238  73.236  1.00  0.00    -0.339 N 
ATOM      6  C   UNL     1      86.221  68.326  73.727  1.00  0.00     0.120 C 
ATOM      7  C   UNL     1      87.696  70.252  74.207  1.00  0.00     0.120 C 
ATOM      8  C   UNL     1      86.644  67.646  75.024  1.00  0.00     0.022 C 
ATOM      9  C   UNL     1      88.126  69.608  75.525  1.00  0.00     0.022 C 
ATOM     10  C   UNL     1      87.050  68.675  76.074  1.00  0.00     0.004 C 
ENDBRANCH   1   3
BRANCH   2  11
ATOM     11  C   UNL     1      89.581  71.510  69.703  1.00  0.00     0.001 C 
ATOM     12  C   UNL     1      89.239  72.528  68.898  1.00  0.00     0.008 C 
BRANCH  12  13
ATOM     13  C   UNL     1      90.183  73.495  68.311  1.00  0.00    -0.022 A 
ATOM     14  C   UNL     1      90.098  73.785  66.956  1.00  0.00     0.058 A 
ATOM     15  C   UNL     1      91.140  74.093  69.134  1.00  0.00     0.012 A 
ATOM     16  C   UNL     1      91.003  74.696  66.453  1.00  0.00     0.166 A 
ATOM     17  C   UNL     1      92.044  75.012  68.598  1.00  0.00     0.051 A 
ATOM     18  O   UNL     1      91.083  75.111  65.158  1.00  0.00    -0.454 OA
ATOM     19  C   UNL     1      91.951  75.294  67.251  1.00  0.00     0.165 A 
ATOM     20  C   UNL     1      92.186  76.036  65.233  1.00  0.00     0.468 C 
ATOM     21  O   UNL     1      92.742  76.157  66.558  1.00  0.00    -0.454 OA
ENDBRANCH  12  13
ENDBRANCH   2  11
TORSDOF 3
ENDMDL
