MODEL 1
REMARK VINA RESULT:    -6.217      0.000      0.000
REMARK INTER + INTRA:         -11.839
REMARK INTER:                 -10.397
REMARK INTRA:                  -1.442
REMARK UNBOUND:                -1.442
REMARK SMILES COc1cc(CNC(=O)CCCCCCCC(C)C)ccc1O
REMARK SMILES IDX 11 1 10 2 8 3 9 4 7 5 6 7 5 8 4 9 20 10 3 11 21 12 22 13
REMARK SMILES IDX 2 14 1 15 23 16 12 18 13 19 14 20 15 21 16 22 17 23 18 24
REMARK SMILES IDX 19 25
REMARK H PARENT 7 6 23 17
REMARK Flexibility Score: inf
ROOT
ATOM      1  C   UNL     1      94.232  98.084  75.997  1.00  0.00     0.010 C 
ENDROOT
BRANCH   1   2
ATOM      2  C   UNL     1      95.724  97.926  75.712  1.00  0.00     0.100 C 
BRANCH   2   3
ATOM      3  C   UNL     1      96.589  98.482  76.831  1.00  0.00     0.220 C 
ATOM      4  O   UNL     1      97.696  98.979  76.643  1.00  0.00    -0.275 OA
ATOM      5  N   UNL     1      95.974  98.346  78.066  1.00  0.00    -0.352 N 
ATOM      6  H   UNL     1      95.058  97.910  78.126  1.00  0.00     0.163 HD
BRANCH   5   7
ATOM      7  C   UNL     1      96.586  98.787  79.299  1.00  0.00     0.151 C 
BRANCH   7   8
ATOM      8  C   UNL     1      96.073  98.023  80.485  1.00  0.00    -0.025 A 
ATOM      9  C   UNL     1      95.486  96.777  80.298  1.00  0.00     0.056 A 
ATOM     10  C   UNL     1      96.190  98.569  81.757  1.00  0.00     0.009 A 
ATOM     11  C   UNL     1      95.010  96.067  81.400  1.00  0.00     0.160 A 
ATOM     12  C   UNL     1      95.712  97.859  82.859  1.00  0.00     0.050 A 
ATOM     13  C   UNL     1      95.122  96.608  82.681  1.00  0.00     0.157 A 
BRANCH  11  14
ATOM     14  O   UNL     1      94.435  94.846  81.214  1.00  0.00    -0.493 OA
ATOM     15  C   UNL     1      95.312  93.725  81.112  1.00  0.00     0.278 C 
ENDBRANCH  11  14
BRANCH  13  16
ATOM     16  O   UNL     1      94.661  95.924  83.765  1.00  0.00    -0.504 OA
ATOM     17  H   UNL     1      94.328  96.559  84.422  1.00  0.00     0.293 HD
ENDBRANCH  13  16
ENDBRANCH   7   8
ENDBRANCH   5   7
ENDBRANCH   2   3
ENDBRANCH   1   2
BRANCH   1  18
ATOM     18  C   UNL     1      93.413  96.831  75.675  1.00  0.00     0.001 C 
BRANCH  18  19
ATOM     19  C   UNL     1      93.692  95.610  76.557  1.00  0.00     0.000 C 
BRANCH  19  20
ATOM     20  C   UNL     1      93.250  95.799  78.010  1.00  0.00     0.000 C 
BRANCH  20  21
ATOM     21  C   UNL     1      92.097  94.878  78.422  1.00  0.00     0.000 C 
BRANCH  21  22
ATOM     22  C   UNL     1      90.754  95.272  77.800  1.00  0.00     0.003 C 
BRANCH  22  23
ATOM     23  C   UNL     1      89.982  94.081  77.199  1.00  0.00    -0.017 C 
ATOM     24  C   UNL     1      89.139  93.409  78.285  1.00  0.00     0.007 C 
ATOM     25  C   UNL     1      90.908  93.048  76.554  1.00  0.00     0.007 C 
ENDBRANCH  22  23
ENDBRANCH  21  22
ENDBRANCH  20  21
ENDBRANCH  19  20
ENDBRANCH  18  19
ENDBRANCH   1  18
TORSDOF 12
ENDMDL
MODEL 2
REMARK VINA RESULT:    -5.944     22.485     26.692
REMARK INTER + INTRA:         -11.382
REMARK INTER:                  -9.741
REMARK INTRA:                  -1.641
REMARK UNBOUND:                -1.442
REMARK SMILES COc1cc(CNC(=O)CCCCCCCC(C)C)ccc1O
REMARK SMILES IDX 11 1 10 2 8 3 9 4 7 5 6 7 5 8 4 9 20 10 3 11 21 12 22 13
REMARK SMILES IDX 2 14 1 15 23 16 12 18 13 19 14 20 15 21 16 22 17 23 18 24
REMARK SMILES IDX 19 25
REMARK H PARENT 7 6 23 17
REMARK Flexibility Score: inf
ROOT
ATOM      1  C   UNL     1      76.917  85.971  66.323  1.00  0.00     0.010 C 
ENDROOT
BRANCH   1   2
ATOM      2  C   UNL     1      77.768  84.715  66.496  1.00  0.00     0.100 C 
BRANCH   2   3
ATOM      3  C   UNL     1      77.516  83.690  65.403  1.00  0.00     0.220 C 
ATOM      4  O   UNL     1      77.628  83.939  64.206  1.00  0.00    -0.275 OA
ATOM      5  N   UNL     1      77.142  82.463  65.931  1.00  0.00    -0.352 N 
ATOM      6  H   UNL     1      77.065  82.353  66.939  1.00  0.00     0.163 HD
BRANCH   5   7
ATOM      7  C   UNL     1      76.836  81.316  65.108  1.00  0.00     0.151 C 
BRANCH   7   8
ATOM      8  C   UNL     1      75.388  81.280  64.712  1.00  0.00    -0.025 A 
ATOM      9  C   UNL     1      74.407  81.493  65.673  1.00  0.00     0.056 A 
ATOM     10  C   UNL     1      75.044  81.033  63.389  1.00  0.00     0.009 A 
ATOM     11  C   UNL     1      73.062  81.459  65.305  1.00  0.00     0.160 A 
ATOM     12  C   UNL     1      73.698  80.998  63.021  1.00  0.00     0.050 A 
ATOM     13  C   UNL     1      72.707  81.211  63.978  1.00  0.00     0.157 A 
BRANCH  11  14
ATOM     14  O   UNL     1      72.103  81.668  66.250  1.00  0.00    -0.493 OA
ATOM     15  C   UNL     1      71.796  83.024  66.572  1.00  0.00     0.278 C 
ENDBRANCH  11  14
BRANCH  13  16
ATOM     16  O   UNL     1      71.397  81.176  63.607  1.00  0.00    -0.504 OA
ATOM     17  H   UNL     1      70.860  81.590  64.303  1.00  0.00     0.293 HD
ENDBRANCH  13  16
ENDBRANCH   7   8
ENDBRANCH   5   7
ENDBRANCH   2   3
ENDBRANCH   1   2
BRANCH   1  18
ATOM     18  C   UNL     1      77.438  87.175  67.112  1.00  0.00     0.001 C 
BRANCH  18  19
ATOM     19  C   UNL     1      78.367  86.848  68.286  1.00  0.00     0.000 C 
BRANCH  19  20
ATOM     20  C   UNL     1      77.654  86.851  69.641  1.00  0.00     0.000 C 
BRANCH  20  21
ATOM     21  C   UNL     1      77.285  85.450  70.139  1.00  0.00     0.000 C 
BRANCH  21  22
ATOM     22  C   UNL     1      75.790  85.283  70.428  1.00  0.00     0.003 C 
BRANCH  22  23
ATOM     23  C   UNL     1      74.894  86.210  69.583  1.00  0.00    -0.017 C 
ATOM     24  C   UNL     1      74.171  87.203  70.496  1.00  0.00     0.007 C 
ATOM     25  C   UNL     1      73.870  85.437  68.751  1.00  0.00     0.007 C 
ENDBRANCH  22  23
ENDBRANCH  21  22
ENDBRANCH  20  21
ENDBRANCH  19  20
ENDBRANCH  18  19
ENDBRANCH   1  18
TORSDOF 12
ENDMDL
MODEL 3
REMARK VINA RESULT:    -5.582     32.491     35.143
REMARK INTER + INTRA:         -10.777
REMARK INTER:                  -8.786
REMARK INTRA:                  -1.990
REMARK UNBOUND:                -1.442
REMARK SMILES COc1cc(CNC(=O)CCCCCCCC(C)C)ccc1O
REMARK SMILES IDX 11 1 10 2 8 3 9 4 7 5 6 7 5 8 4 9 20 10 3 11 21 12 22 13
REMARK SMILES IDX 2 14 1 15 23 16 12 18 13 19 14 20 15 21 16 22 17 23 18 24
REMARK SMILES IDX 19 25
REMARK H PARENT 7 6 23 17
REMARK Flexibility Score: inf
ROOT
ATOM      1  C   UNL     1      63.242  84.774  68.344  1.00  0.00     0.010 C 
ENDROOT
BRANCH   1   2
ATOM      2  C   UNL     1      64.374  83.750  68.278  1.00  0.00     0.100 C 
BRANCH   2   3
ATOM      3  C   UNL     1      64.162  82.592  69.238  1.00  0.00     0.220 C 
ATOM      4  O   UNL     1      63.357  81.687  69.036  1.00  0.00    -0.275 OA
ATOM      5  N   UNL     1      64.979  82.699  70.354  1.00  0.00    -0.352 N 
ATOM      6  H   UNL     1      65.609  83.492  70.441  1.00  0.00     0.163 HD
BRANCH   5   7
ATOM      7  C   UNL     1      64.971  81.731  71.427  1.00  0.00     0.151 C 
BRANCH   7   8
ATOM      8  C   UNL     1      64.022  82.118  72.524  1.00  0.00    -0.025 A 
ATOM      9  C   UNL     1      64.122  83.374  73.109  1.00  0.00     0.056 A 
ATOM     10  C   UNL     1      63.052  81.215  72.943  1.00  0.00     0.009 A 
ATOM     11  C   UNL     1      63.240  83.733  74.128  1.00  0.00     0.160 A 
ATOM     12  C   UNL     1      62.170  81.574  73.963  1.00  0.00     0.050 A 
ATOM     13  C   UNL     1      62.264  82.833  74.556  1.00  0.00     0.157 A 
BRANCH  11  14
ATOM     14  O   UNL     1      63.342  84.966  74.700  1.00  0.00    -0.493 OA
ATOM     15  C   UNL     1      64.461  85.192  75.556  1.00  0.00     0.278 C 
ENDBRANCH  11  14
BRANCH  13  16
ATOM     16  O   UNL     1      61.397  83.172  75.550  1.00  0.00    -0.504 OA
ATOM     17  H   UNL     1      60.884  83.950  75.270  1.00  0.00     0.293 HD
ENDBRANCH  13  16
ENDBRANCH   7   8
ENDBRANCH   5   7
ENDBRANCH   2   3
ENDBRANCH   1   2
BRANCH   1  18
ATOM     18  C   UNL     1      63.280  85.646  69.602  1.00  0.00     0.001 C 
BRANCH  18  19
ATOM     19  C   UNL     1      62.192  85.359  70.642  1.00  0.00     0.000 C 
BRANCH  19  20
ATOM     20  C   UNL     1      61.113  84.396  70.139  1.00  0.00     0.000 C 
BRANCH  20  21
ATOM     21  C   UNL     1      59.708  85.007  70.126  1.00  0.00     0.000 C 
BRANCH  21  22
ATOM     22  C   UNL     1      58.876  84.641  71.360  1.00  0.00     0.003 C 
BRANCH  22  23
ATOM     23  C   UNL     1      58.790  85.774  72.401  1.00  0.00    -0.017 C 
ATOM     24  C   UNL     1      58.944  87.129  71.705  1.00  0.00     0.007 C 
ATOM     25  C   UNL     1      59.841  85.639  73.503  1.00  0.00     0.007 C 
ENDBRANCH  22  23
ENDBRANCH  21  22
ENDBRANCH  20  21
ENDBRANCH  19  20
ENDBRANCH  18  19
ENDBRANCH   1  18
TORSDOF 12
ENDMDL
MODEL 4
REMARK VINA RESULT:    -5.461     23.895     27.573
REMARK INTER + INTRA:         -10.575
REMARK INTER:                  -9.242
REMARK INTRA:                  -1.333
REMARK UNBOUND:                -1.442
REMARK SMILES COc1cc(CNC(=O)CCCCCCCC(C)C)ccc1O
REMARK SMILES IDX 11 1 10 2 8 3 9 4 7 5 6 7 5 8 4 9 20 10 3 11 21 12 22 13
REMARK SMILES IDX 2 14 1 15 23 16 12 18 13 19 14 20 15 21 16 22 17 23 18 24
REMARK SMILES IDX 19 25
REMARK H PARENT 7 6 23 17
REMARK Flexibility Score: inf
ROOT
ATOM      1  C   UNL     1      75.330  81.724  65.899  1.00  0.00     0.010 C 
ENDROOT
BRANCH   1   2
ATOM      2  C   UNL     1      74.510  81.046  64.803  1.00  0.00     0.100 C 
BRANCH   2   3
ATOM      3  C   UNL     1      73.015  81.117  65.072  1.00  0.00     0.220 C 
ATOM      4  O   UNL     1      72.298  80.124  65.150  1.00  0.00    -0.275 OA
ATOM      5  N   UNL     1      72.583  82.428  65.205  1.00  0.00    -0.352 N 
ATOM      6  H   UNL     1      73.251  83.189  65.112  1.00  0.00     0.163 HD
BRANCH   5   7
ATOM      7  C   UNL     1      71.203  82.776  65.457  1.00  0.00     0.151 C 
BRANCH   7   8
ATOM      8  C   UNL     1      70.975  83.164  66.888  1.00  0.00    -0.025 A 
ATOM      9  C   UNL     1      71.802  84.107  67.486  1.00  0.00     0.056 A 
ATOM     10  C   UNL     1      69.938  82.575  67.602  1.00  0.00     0.009 A 
ATOM     11  C   UNL     1      71.590  84.468  68.816  1.00  0.00     0.160 A 
ATOM     12  C   UNL     1      69.727  82.935  68.934  1.00  0.00     0.050 A 
ATOM     13  C   UNL     1      70.552  83.881  69.541  1.00  0.00     0.157 A 
BRANCH  11  14
ATOM     14  O   UNL     1      72.403  85.393  69.399  1.00  0.00    -0.493 OA
ATOM     15  C   UNL     1      72.453  86.684  68.793  1.00  0.00     0.278 C 
ENDBRANCH  11  14
BRANCH  13  16
ATOM     16  O   UNL     1      70.334  84.225  70.841  1.00  0.00    -0.504 OA
ATOM     17  H   UNL     1      70.990  84.893  71.105  1.00  0.00     0.293 HD
ENDBRANCH  13  16
ENDBRANCH   7   8
ENDBRANCH   5   7
ENDBRANCH   2   3
ENDBRANCH   1   2
BRANCH   1  18
ATOM     18  C   UNL     1      76.830  81.776  65.594  1.00  0.00     0.001 C 
BRANCH  18  19
ATOM     19  C   UNL     1      77.612  82.889  66.299  1.00  0.00     0.000 C 
BRANCH  19  20
ATOM     20  C   UNL     1      76.752  84.106  66.647  1.00  0.00     0.000 C 
BRANCH  20  21
ATOM     21  C   UNL     1      77.232  84.855  67.895  1.00  0.00     0.000 C 
BRANCH  21  22
ATOM     22  C   UNL     1      76.978  84.089  69.198  1.00  0.00     0.003 C 
BRANCH  22  23
ATOM     23  C   UNL     1      75.866  84.707  70.067  1.00  0.00    -0.017 C 
ATOM     24  C   UNL     1      76.003  86.231  70.076  1.00  0.00     0.007 C 
ATOM     25  C   UNL     1      75.884  84.181  71.503  1.00  0.00     0.007 C 
ENDBRANCH  22  23
ENDBRANCH  21  22
ENDBRANCH  20  21
ENDBRANCH  19  20
ENDBRANCH  18  19
ENDBRANCH   1  18
TORSDOF 12
ENDMDL
MODEL 5
REMARK VINA RESULT:    -5.320     12.805     14.953
REMARK INTER + INTRA:         -10.338
REMARK INTER:                  -9.492
REMARK INTRA:                  -0.847
REMARK UNBOUND:                -1.442
REMARK SMILES COc1cc(CNC(=O)CCCCCCCC(C)C)ccc1O
REMARK SMILES IDX 11 1 10 2 8 3 9 4 7 5 6 7 5 8 4 9 20 10 3 11 21 12 22 13
REMARK SMILES IDX 2 14 1 15 23 16 12 18 13 19 14 20 15 21 16 22 17 23 18 24
REMARK SMILES IDX 19 25
REMARK H PARENT 7 6 23 17
REMARK Flexibility Score: inf
ROOT
ATOM      1  C   UNL     1      96.392  83.794  85.429  1.00  0.00     0.010 C 
ENDROOT
BRANCH   1   2
ATOM      2  C   UNL     1      95.952  82.458  86.025  1.00  0.00     0.100 C 
BRANCH   2   3
ATOM      3  C   UNL     1      94.774  82.608  86.973  1.00  0.00     0.220 C 
ATOM      4  O   UNL     1      94.350  81.691  87.671  1.00  0.00    -0.275 OA
ATOM      5  N   UNL     1      94.249  83.891  86.935  1.00  0.00    -0.352 N 
ATOM      6  H   UNL     1      94.660  84.583  86.315  1.00  0.00     0.163 HD
BRANCH   5   7
ATOM      7  C   UNL     1      93.117  84.298  87.735  1.00  0.00     0.151 C 
BRANCH   7   8
ATOM      8  C   UNL     1      93.508  85.273  88.807  1.00  0.00    -0.025 A 
ATOM      9  C   UNL     1      94.693  85.989  88.686  1.00  0.00     0.056 A 
ATOM     10  C   UNL     1      92.682  85.449  89.910  1.00  0.00     0.009 A 
ATOM     11  C   UNL     1      95.057  86.895  89.682  1.00  0.00     0.160 A 
ATOM     12  C   UNL     1      93.047  86.355  90.907  1.00  0.00     0.050 A 
ATOM     13  C   UNL     1      94.234  87.078  90.794  1.00  0.00     0.157 A 
BRANCH  11  14
ATOM     14  O   UNL     1      96.220  87.595  89.560  1.00  0.00    -0.493 OA
ATOM     15  C   UNL     1      96.260  88.614  88.562  1.00  0.00     0.278 C 
ENDBRANCH  11  14
BRANCH  13  16
ATOM     16  O   UNL     1      94.578  87.959  91.773  1.00  0.00    -0.504 OA
ATOM     17  H   UNL     1      95.314  88.512  91.457  1.00  0.00     0.293 HD
ENDBRANCH  13  16
ENDBRANCH   7   8
ENDBRANCH   5   7
ENDBRANCH   2   3
ENDBRANCH   1   2
BRANCH   1  18
ATOM     18  C   UNL     1      97.663  83.694  84.580  1.00  0.00     0.001 C 
BRANCH  18  19
ATOM     19  C   UNL     1      97.443  83.582  83.068  1.00  0.00     0.000 C 
BRANCH  19  20
ATOM     20  C   UNL     1      98.496  82.719  82.366  1.00  0.00     0.000 C 
BRANCH  20  21
ATOM     21  C   UNL     1      98.766  83.144  80.919  1.00  0.00     0.000 C 
BRANCH  21  22
ATOM     22  C   UNL     1      97.499  83.550  80.159  1.00  0.00     0.003 C 
BRANCH  22  23
ATOM     23  C   UNL     1      97.410  82.943  78.745  1.00  0.00    -0.017 C 
ATOM     24  C   UNL     1      98.355  81.744  78.636  1.00  0.00     0.007 C 
ATOM     25  C   UNL     1      97.740  83.958  77.650  1.00  0.00     0.007 C 
ENDBRANCH  22  23
ENDBRANCH  21  22
ENDBRANCH  20  21
ENDBRANCH  19  20
ENDBRANCH  18  19
ENDBRANCH   1  18
TORSDOF 12
ENDMDL
MODEL 6
REMARK VINA RESULT:    -5.221     13.698     16.318
REMARK INTER + INTRA:         -10.173
REMARK INTER:                  -8.396
REMARK INTRA:                  -1.777
REMARK UNBOUND:                -1.442
REMARK SMILES COc1cc(CNC(=O)CCCCCCCC(C)C)ccc1O
REMARK SMILES IDX 11 1 10 2 8 3 9 4 7 5 6 7 5 8 4 9 20 10 3 11 21 12 22 13
REMARK SMILES IDX 2 14 1 15 23 16 12 18 13 19 14 20 15 21 16 22 17 23 18 24
REMARK SMILES IDX 19 25
REMARK H PARENT 7 6 23 17
REMARK Flexibility Score: inf
ROOT
ATOM      1  C   UNL     1     103.365  80.434  78.955  1.00  0.00     0.010 C 
ENDROOT
BRANCH   1   2
ATOM      2  C   UNL     1     103.362  80.350  80.480  1.00  0.00     0.100 C 
BRANCH   2   3
ATOM      3  C   UNL     1     102.255  81.183  81.103  1.00  0.00     0.220 C 
ATOM      4  O   UNL     1     102.459  82.050  81.948  1.00  0.00    -0.275 OA
ATOM      5  N   UNL     1     101.009  80.832  80.604  1.00  0.00    -0.352 N 
ATOM      6  H   UNL     1     100.937  80.091  79.912  1.00  0.00     0.163 HD
BRANCH   5   7
ATOM      7  C   UNL     1      99.785  81.466  81.036  1.00  0.00     0.151 C 
BRANCH   7   8
ATOM      8  C   UNL     1      99.029  82.069  79.888  1.00  0.00    -0.025 A 
ATOM      9  C   UNL     1      99.185  81.544  78.610  1.00  0.00     0.056 A 
ATOM     10  C   UNL     1      98.181  83.146  80.114  1.00  0.00     0.009 A 
ATOM     11  C   UNL     1      98.483  82.104  77.543  1.00  0.00     0.160 A 
ATOM     12  C   UNL     1      97.479  83.707  79.046  1.00  0.00     0.050 A 
ATOM     13  C   UNL     1      97.630  83.186  77.761  1.00  0.00     0.157 A 
BRANCH  11  14
ATOM     14  O   UNL     1      98.639  81.587  76.293  1.00  0.00    -0.493 OA
ATOM     15  C   UNL     1      99.020  80.215  76.202  1.00  0.00     0.278 C 
ENDBRANCH  11  14
BRANCH  13  16
ATOM     16  O   UNL     1      96.938  83.741  76.727  1.00  0.00    -0.504 OA
ATOM     17  H   UNL     1      96.241  83.125  76.446  1.00  0.00     0.293 HD
ENDBRANCH  13  16
ENDBRANCH   7   8
ENDBRANCH   5   7
ENDBRANCH   2   3
ENDBRANCH   1   2
BRANCH   1  18
ATOM     18  C   UNL     1     103.696  81.831  78.422  1.00  0.00     0.001 C 
BRANCH  18  19
ATOM     19  C   UNL     1     103.649  81.990  76.899  1.00  0.00     0.000 C 
BRANCH  19  20
ATOM     20  C   UNL     1     102.249  82.309  76.367  1.00  0.00     0.000 C 
BRANCH  20  21
ATOM     21  C   UNL     1     101.704  83.656  76.853  1.00  0.00     0.000 C 
BRANCH  21  22
ATOM     22  C   UNL     1     102.287  84.854  76.096  1.00  0.00     0.003 C 
BRANCH  22  23
ATOM     23  C   UNL     1     101.314  85.465  75.069  1.00  0.00    -0.017 C 
ATOM     24  C   UNL     1      99.885  85.013  75.378  1.00  0.00     0.007 C 
ATOM     25  C   UNL     1     101.671  85.091  73.629  1.00  0.00     0.007 C 
ENDBRANCH  22  23
ENDBRANCH  21  22
ENDBRANCH  20  21
ENDBRANCH  19  20
ENDBRANCH  18  19
ENDBRANCH   1  18
TORSDOF 12
ENDMDL
MODEL 7
REMARK VINA RESULT:    -5.211     23.504     27.931
REMARK INTER + INTRA:         -10.157
REMARK INTER:                  -9.105
REMARK INTRA:                  -1.052
REMARK UNBOUND:                -1.442
REMARK SMILES COc1cc(CNC(=O)CCCCCCCC(C)C)ccc1O
REMARK SMILES IDX 11 1 10 2 8 3 9 4 7 5 6 7 5 8 4 9 20 10 3 11 21 12 22 13
REMARK SMILES IDX 2 14 1 15 23 16 12 18 13 19 14 20 15 21 16 22 17 23 18 24
REMARK SMILES IDX 19 25
REMARK H PARENT 7 6 23 17
REMARK Flexibility Score: inf
ROOT
ATOM      1  C   UNL     1      75.191  81.735  65.697  1.00  0.00     0.010 C 
ENDROOT
BRANCH   1   2
ATOM      2  C   UNL     1      74.239  81.394  64.552  1.00  0.00     0.100 C 
BRANCH   2   3
ATOM      3  C   UNL     1      72.802  81.237  65.022  1.00  0.00     0.220 C 
ATOM      4  O   UNL     1      72.255  80.147  65.163  1.00  0.00    -0.275 OA
ATOM      5  N   UNL     1      72.205  82.466  65.256  1.00  0.00    -0.352 N 
ATOM      6  H   UNL     1      72.736  83.320  65.100  1.00  0.00     0.163 HD
BRANCH   5   7
ATOM      7  C   UNL     1      70.838  82.601  65.703  1.00  0.00     0.151 C 
BRANCH   7   8
ATOM      8  C   UNL     1      70.755  83.145  67.099  1.00  0.00    -0.025 A 
ATOM      9  C   UNL     1      69.732  82.724  67.941  1.00  0.00     0.056 A 
ATOM     10  C   UNL     1      71.701  84.065  67.535  1.00  0.00     0.009 A 
ATOM     11  C   UNL     1      69.655  83.230  69.239  1.00  0.00     0.160 A 
ATOM     12  C   UNL     1      71.623  84.571  68.833  1.00  0.00     0.050 A 
ATOM     13  C   UNL     1      70.600  84.154  69.685  1.00  0.00     0.157 A 
BRANCH  11  14
ATOM     14  O   UNL     1      68.651  82.816  70.061  1.00  0.00    -0.493 OA
ATOM     15  C   UNL     1      67.369  83.414  69.871  1.00  0.00     0.278 C 
ENDBRANCH  11  14
BRANCH  13  16
ATOM     16  O   UNL     1      70.536  84.655  70.950  1.00  0.00    -0.504 OA
ATOM     17  H   UNL     1      69.627  84.558  71.283  1.00  0.00     0.293 HD
ENDBRANCH  13  16
ENDBRANCH   7   8
ENDBRANCH   5   7
ENDBRANCH   2   3
ENDBRANCH   1   2
BRANCH   1  18
ATOM     18  C   UNL     1      76.659  81.809  65.268  1.00  0.00     0.001 C 
BRANCH  18  19
ATOM     19  C   UNL     1      77.509  82.861  65.989  1.00  0.00     0.000 C 
BRANCH  19  20
ATOM     20  C   UNL     1      76.676  83.963  66.650  1.00  0.00     0.000 C 
BRANCH  20  21
ATOM     21  C   UNL     1      77.402  84.669  67.800  1.00  0.00     0.000 C 
BRANCH  21  22
ATOM     22  C   UNL     1      77.191  83.992  69.158  1.00  0.00     0.003 C 
BRANCH  22  23
ATOM     23  C   UNL     1      77.061  84.987  70.328  1.00  0.00    -0.017 C 
ATOM     24  C   UNL     1      75.811  84.660  71.148  1.00  0.00     0.007 C 
ATOM     25  C   UNL     1      77.000  86.441  69.856  1.00  0.00     0.007 C 
ENDBRANCH  22  23
ENDBRANCH  21  22
ENDBRANCH  20  21
ENDBRANCH  19  20
ENDBRANCH  18  19
ENDBRANCH   1  18
TORSDOF 12
ENDMDL
MODEL 8
REMARK VINA RESULT:    -5.151     22.558     25.930
REMARK INTER + INTRA:         -10.056
REMARK INTER:                  -8.975
REMARK INTRA:                  -1.081
REMARK UNBOUND:                -1.442
REMARK SMILES COc1cc(CNC(=O)CCCCCCCC(C)C)ccc1O
REMARK SMILES IDX 11 1 10 2 8 3 9 4 7 5 6 7 5 8 4 9 20 10 3 11 21 12 22 13
REMARK SMILES IDX 2 14 1 15 23 16 12 18 13 19 14 20 15 21 16 22 17 23 18 24
REMARK SMILES IDX 19 25
REMARK H PARENT 7 6 23 17
REMARK Flexibility Score: inf
ROOT
ATOM      1  C   UNL     1      76.647  82.892  66.321  1.00  0.00     0.010 C 
ENDROOT
BRANCH   1   2
ATOM      2  C   UNL     1      77.963  83.612  66.606  1.00  0.00     0.100 C 
BRANCH   2   3
ATOM      3  C   UNL     1      77.936  84.366  67.925  1.00  0.00     0.220 C 
ATOM      4  O   UNL     1      78.718  85.272  68.199  1.00  0.00    -0.275 OA
ATOM      5  N   UNL     1      76.934  83.895  68.761  1.00  0.00    -0.352 N 
ATOM      6  H   UNL     1      76.340  83.131  68.451  1.00  0.00     0.163 HD
BRANCH   5   7
ATOM      7  C   UNL     1      76.697  84.434  70.080  1.00  0.00     0.151 C 
BRANCH   7   8
ATOM      8  C   UNL     1      75.764  85.610  70.046  1.00  0.00    -0.025 A 
ATOM      9  C   UNL     1      74.396  85.399  69.921  1.00  0.00     0.056 A 
ATOM     10  C   UNL     1      76.278  86.897  70.141  1.00  0.00     0.009 A 
ATOM     11  C   UNL     1      73.530  86.492  69.890  1.00  0.00     0.160 A 
ATOM     12  C   UNL     1      75.411  87.990  70.109  1.00  0.00     0.050 A 
ATOM     13  C   UNL     1      74.037  87.788  69.983  1.00  0.00     0.157 A 
BRANCH  11  14
ATOM     14  O   UNL     1      72.189  86.281  69.766  1.00  0.00    -0.493 OA
ATOM     15  C   UNL     1      71.775  84.994  69.310  1.00  0.00     0.278 C 
ENDBRANCH  11  14
BRANCH  13  16
ATOM     16  O   UNL     1      73.201  88.863  69.954  1.00  0.00    -0.504 OA
ATOM     17  H   UNL     1      73.538  89.542  70.563  1.00  0.00     0.293 HD
ENDBRANCH  13  16
ENDBRANCH   7   8
ENDBRANCH   5   7
ENDBRANCH   2   3
ENDBRANCH   1   2
BRANCH   1  18
ATOM     18  C   UNL     1      76.822  81.586  65.540  1.00  0.00     0.001 C 
BRANCH  18  19
ATOM     19  C   UNL     1      75.534  80.961  64.994  1.00  0.00     0.000 C 
BRANCH  19  20
ATOM     20  C   UNL     1      75.376  81.127  63.480  1.00  0.00     0.000 C 
BRANCH  20  21
ATOM     21  C   UNL     1      74.185  82.006  63.084  1.00  0.00     0.000 C 
BRANCH  21  22
ATOM     22  C   UNL     1      72.875  81.224  62.938  1.00  0.00     0.003 C 
BRANCH  22  23
ATOM     23  C   UNL     1      71.747  81.739  63.853  1.00  0.00    -0.017 C 
ATOM     24  C   UNL     1      71.582  83.250  63.671  1.00  0.00     0.007 C 
ATOM     25  C   UNL     1      71.999  81.423  65.328  1.00  0.00     0.007 C 
ENDBRANCH  22  23
ENDBRANCH  21  22
ENDBRANCH  20  21
ENDBRANCH  19  20
ENDBRANCH  18  19
ENDBRANCH   1  18
TORSDOF 12
ENDMDL
MODEL 9
REMARK VINA RESULT:    -5.083     30.023     33.335
REMARK INTER + INTRA:          -9.942
REMARK INTER:                  -8.237
REMARK INTRA:                  -1.706
REMARK UNBOUND:                -1.442
REMARK SMILES COc1cc(CNC(=O)CCCCCCCC(C)C)ccc1O
REMARK SMILES IDX 11 1 10 2 8 3 9 4 7 5 6 7 5 8 4 9 20 10 3 11 21 12 22 13
REMARK SMILES IDX 2 14 1 15 23 16 12 18 13 19 14 20 15 21 16 22 17 23 18 24
REMARK SMILES IDX 19 25
REMARK H PARENT 7 6 23 17
REMARK Flexibility Score: inf
ROOT
ATOM      1  C   UNL     1      61.374  85.322  71.909  1.00  0.00     0.010 C 
ENDROOT
BRANCH   1   2
ATOM      2  C   UNL     1      61.537  84.132  72.853  1.00  0.00     0.100 C 
BRANCH   2   3
ATOM      3  C   UNL     1      61.660  84.559  74.306  1.00  0.00     0.220 C 
ATOM      4  O   UNL     1      61.054  85.515  74.781  1.00  0.00    -0.275 OA
ATOM      5  N   UNL     1      62.538  83.742  75.004  1.00  0.00    -0.352 N 
ATOM      6  H   UNL     1      63.004  82.978  74.522  1.00  0.00     0.163 HD
BRANCH   5   7
ATOM      7  C   UNL     1      62.842  83.935  76.403  1.00  0.00     0.151 C 
BRANCH   7   8
ATOM      8  C   UNL     1      64.301  84.212  76.627  1.00  0.00    -0.025 A 
ATOM      9  C   UNL     1      64.836  84.085  77.903  1.00  0.00     0.056 A 
ATOM     10  C   UNL     1      65.100  84.594  75.557  1.00  0.00     0.009 A 
ATOM     11  C   UNL     1      66.191  84.343  78.111  1.00  0.00     0.160 A 
ATOM     12  C   UNL     1      66.455  84.853  75.765  1.00  0.00     0.050 A 
ATOM     13  C   UNL     1      67.001  84.727  77.042  1.00  0.00     0.157 A 
BRANCH  11  14
ATOM     14  O   UNL     1      66.713  84.218  79.364  1.00  0.00    -0.493 OA
ATOM     15  C   UNL     1      65.787  84.139  80.446  1.00  0.00     0.278 C 
ENDBRANCH  11  14
BRANCH  13  16
ATOM     16  O   UNL     1      68.325  84.981  77.233  1.00  0.00    -0.504 OA
ATOM     17  H   UNL     1      68.750  84.188  77.601  1.00  0.00     0.293 HD
ENDBRANCH  13  16
ENDBRANCH   7   8
ENDBRANCH   5   7
ENDBRANCH   2   3
ENDBRANCH   1   2
BRANCH   1  18
ATOM     18  C   UNL     1      60.836  84.936  70.529  1.00  0.00     0.001 C 
BRANCH  18  19
ATOM     19  C   UNL     1      61.870  84.901  69.399  1.00  0.00     0.000 C 
BRANCH  19  20
ATOM     20  C   UNL     1      62.287  83.481  69.005  1.00  0.00     0.000 C 
BRANCH  20  21
ATOM     21  C   UNL     1      63.612  83.037  69.636  1.00  0.00     0.000 C 
BRANCH  21  22
ATOM     22  C   UNL     1      63.458  81.857  70.601  1.00  0.00     0.003 C 
BRANCH  22  23
ATOM     23  C   UNL     1      64.509  81.845  71.728  1.00  0.00    -0.017 C 
ATOM     24  C   UNL     1      63.901  81.241  72.996  1.00  0.00     0.007 C 
ATOM     25  C   UNL     1      65.055  83.240  72.035  1.00  0.00     0.007 C 
ENDBRANCH  22  23
ENDBRANCH  21  22
ENDBRANCH  20  21
ENDBRANCH  19  20
ENDBRANCH  18  19
ENDBRANCH   1  18
TORSDOF 12
ENDMDL
MODEL 10
REMARK VINA RESULT:    -5.077     22.664     27.078
REMARK INTER + INTRA:          -9.933
REMARK INTER:                  -9.157
REMARK INTRA:                  -0.776
REMARK UNBOUND:                -1.442
REMARK SMILES COc1cc(CNC(=O)CCCCCCCC(C)C)ccc1O
REMARK SMILES IDX 11 1 10 2 8 3 9 4 7 5 6 7 5 8 4 9 20 10 3 11 21 12 22 13
REMARK SMILES IDX 2 14 1 15 23 16 12 18 13 19 14 20 15 21 16 22 17 23 18 24
REMARK SMILES IDX 19 25
REMARK H PARENT 7 6 23 17
REMARK Flexibility Score: inf
ROOT
ATOM      1  C   UNL     1      71.618  84.875  69.707  1.00  0.00     0.010 C 
ENDROOT
BRANCH   1   2
ATOM      2  C   UNL     1      71.523  86.335  70.144  1.00  0.00     0.100 C 
BRANCH   2   3
ATOM      3  C   UNL     1      72.748  87.140  69.740  1.00  0.00     0.220 C 
ATOM      4  O   UNL     1      72.689  88.158  69.056  1.00  0.00    -0.275 OA
ATOM      5  N   UNL     1      73.914  86.576  70.234  1.00  0.00    -0.352 N 
ATOM      6  H   UNL     1      73.865  85.722  70.784  1.00  0.00     0.163 HD
BRANCH   5   7
ATOM      7  C   UNL     1      75.222  87.139  69.989  1.00  0.00     0.151 C 
BRANCH   7   8
ATOM      8  C   UNL     1      76.145  86.152  69.335  1.00  0.00    -0.025 A 
ATOM      9  C   UNL     1      75.620  85.022  68.721  1.00  0.00     0.056 A 
ATOM     10  C   UNL     1      77.516  86.379  69.352  1.00  0.00     0.009 A 
ATOM     11  C   UNL     1      76.478  84.105  68.114  1.00  0.00     0.160 A 
ATOM     12  C   UNL     1      78.374  85.461  68.745  1.00  0.00     0.050 A 
ATOM     13  C   UNL     1      77.855  84.324  68.126  1.00  0.00     0.157 A 
BRANCH  11  14
ATOM     14  O   UNL     1      75.959  82.997  67.513  1.00  0.00    -0.493 OA
ATOM     15  C   UNL     1      75.487  83.147  66.175  1.00  0.00     0.278 C 
ENDBRANCH  11  14
BRANCH  13  16
ATOM     16  O   UNL     1      78.703  83.436  67.537  1.00  0.00    -0.504 OA
ATOM     17  H   UNL     1      78.182  82.720  67.134  1.00  0.00     0.293 HD
ENDBRANCH  13  16
ENDBRANCH   7   8
ENDBRANCH   5   7
ENDBRANCH   2   3
ENDBRANCH   1   2
BRANCH   1  18
ATOM     18  C   UNL     1      70.526  83.986  70.308  1.00  0.00     0.001 C 
BRANCH  18  19
ATOM     19  C   UNL     1      69.660  83.224  69.299  1.00  0.00     0.000 C 
BRANCH  19  20
ATOM     20  C   UNL     1      68.167  83.546  69.419  1.00  0.00     0.000 C 
BRANCH  20  21
ATOM     21  C   UNL     1      67.540  83.053  70.728  1.00  0.00     0.000 C 
BRANCH  21  22
ATOM     22  C   UNL     1      66.016  83.205  70.765  1.00  0.00     0.003 C 
BRANCH  22  23
ATOM     23  C   UNL     1      65.262  81.864  70.672  1.00  0.00    -0.017 C 
ATOM     24  C   UNL     1      64.328  81.879  69.459  1.00  0.00     0.007 C 
ATOM     25  C   UNL     1      64.458  81.555  71.936  1.00  0.00     0.007 C 
ENDBRANCH  22  23
ENDBRANCH  21  22
ENDBRANCH  20  21
ENDBRANCH  19  20
ENDBRANCH  18  19
ENDBRANCH   1  18
TORSDOF 12
ENDMDL
