MODEL 1
REMARK VINA RESULT:    -6.459      0.000      0.000
REMARK INTER + INTRA:         -12.593
REMARK INTER:                 -11.367
REMARK INTRA:                  -1.226
REMARK UNBOUND:                -1.226
REMARK SMILES C=C(C)[C@]12C[C@@H](C)[C@@]34O[C@](Cc5ccccc5)(O[C@@H]1[C@@H]3C=C(COC(=O)Cc1ccc(O)c(OC)c1)C[C@]1(O)C(=O)C(C)=C[C@@H]41)O2
REMARK SMILES IDX 23 1 22 2 21 3 20 4 9 5 8 6 10 7 6 8 18 9 46 10 19 11 5 12
REMARK SMILES IDX 7 13 4 14 45 15 38 16 44 17 40 18 42 20 41 21 43 22 39 23
REMARK SMILES IDX 11 25 12 26 13 27 17 28 14 29 16 30 15 31 2 32 3 33 1 34
REMARK SMILES IDX 37 35 24 37 25 38 26 39 27 40 28 41 36 42 29 43 33 44 30 45
REMARK SMILES IDX 31 46 34 47 35 48 32 49
REMARK H PARENT 39 24 32 50
REMARK Flexibility Score: 90.00
ROOT
ATOM      1  C   UNL     1      84.720  70.100  71.742  1.00  0.00     0.264 C 
ENDROOT
BRANCH   1   2
ATOM      2  C   UNL     1      85.998  69.891  70.964  1.00  0.00    -0.033 C 
ATOM      3  C   UNL     1      86.013  70.145  69.640  1.00  0.00    -0.015 C 
BRANCH   3   4
ATOM      4  C   UNL     1      87.133  69.944  68.632  1.00  0.00     0.078 C 
ATOM      5  O   UNL     1      88.384  72.075  68.512  1.00  0.00    -0.319 OA
ATOM      6  C   UNL     1      88.508  70.668  68.887  1.00  0.00     0.095 C 
ATOM      7  C   UNL     1      87.673  72.326  67.285  1.00  0.00     0.289 C 
ATOM      8  C   UNL     1      89.594  69.974  67.964  1.00  0.00     0.023 C 
ATOM      9  O   UNL     1      86.357  71.781  67.330  1.00  0.00    -0.320 OA
ATOM     10  O   UNL     1      88.303  71.718  66.160  1.00  0.00    -0.313 OA
ATOM     11  C   UNL     1      86.659  70.381  67.225  1.00  0.00     0.170 C 
ATOM     12  C   UNL     1      88.971  69.481  66.621  1.00  0.00     0.049 C 
ATOM     13  C   UNL     1      90.845  70.817  67.669  1.00  0.00     0.011 C 
ATOM     14  C   UNL     1      87.803  70.364  66.181  1.00  0.00     0.122 C 
BRANCH   6  15
ATOM     15  C   UNL     1      88.843  70.698  70.406  1.00  0.00     0.086 C 
ATOM     16  C   UNL     1      88.549  69.404  71.193  1.00  0.00     0.140 CG0
ATOM     17  C   UNL     1      90.231  71.068  70.847  1.00  0.00    -0.010 C 
ATOM     18  C   UNL     1      89.659  69.390  72.222  1.00  0.00     0.190 C 
ATOM     19  G   UNL     1      87.160  69.419  71.831  1.00  0.00     0.000 G0
ATOM     20  C   UNL     1      90.708  70.370  71.883  1.00  0.00    -0.008 C 
ATOM     21  O   UNL     1      89.724  68.639  73.184  1.00  0.00    -0.291 OA
ATOM     22  C   UNL     1      91.978  70.514  72.624  1.00  0.00     0.048 C 
BRANCH  16  23
ATOM     23  O   UNL     1      88.763  68.218  70.447  1.00  0.00    -0.381 OA
ATOM     24  H   UNL     1      87.899  67.851  70.199  1.00  0.00     0.212 HD
ENDBRANCH  16  23
ENDBRANCH   6  15
BRANCH   7  25
ATOM     25  C   UNL     1      87.601  73.825  67.075  1.00  0.00     0.135 C 
BRANCH  25  26
ATOM     26  C   UNL     1      88.837  74.361  66.398  1.00  0.00    -0.040 A 
ATOM     27  C   UNL     1      88.815  74.649  65.033  1.00  0.00     0.004 A 
ATOM     28  C   UNL     1      90.002  74.571  67.137  1.00  0.00     0.004 A 
ATOM     29  C   UNL     1      89.959  75.146  64.407  1.00  0.00     0.000 A 
ATOM     30  C   UNL     1      91.145  75.067  66.510  1.00  0.00     0.000 A 
ATOM     31  C   UNL     1      91.123  75.354  65.145  1.00  0.00     0.000 A 
ENDBRANCH  25  26
ENDBRANCH   7  25
BRANCH  14  32
ATOM     32  C   UNL     1      87.310  70.024  64.813  1.00  0.00    -0.046 C 
ATOM     33  C   UNL     1      88.158  70.492  63.667  1.00  0.00     0.042 C 
ATOM     34  C   UNL     1      86.173  69.339  64.618  1.00  0.00     0.010 C 
ENDBRANCH  14  32
ENDBRANCH   3   4
BRANCH   2  35
ATOM     35  C   UNL     1      87.147  69.406  71.828  1.00  0.00     0.078 CG0
ATOM     36  G   UNL     1      88.538  69.386  71.194  1.00  0.00     0.000 G0
ENDBRANCH   2  35
ENDBRANCH   1   2
BRANCH   1  37
ATOM     37  O   UNL     1      83.629  69.622  70.985  1.00  0.00    -0.461 OA
BRANCH  37  38
ATOM     38  C   UNL     1      83.264  68.314  71.202  1.00  0.00     0.310 C 
ATOM     39  O   UNL     1      83.581  67.368  70.494  1.00  0.00    -0.252 OA
BRANCH  38  40
ATOM     40  C   UNL     1      82.414  68.228  72.448  1.00  0.00     0.158 C 
BRANCH  40  41
ATOM     41  C   UNL     1      82.843  67.123  73.378  1.00  0.00    -0.033 A 
ATOM     42  C   UNL     1      83.634  67.416  74.490  1.00  0.00     0.054 A 
ATOM     43  C   UNL     1      82.451  65.808  73.128  1.00  0.00     0.008 A 
ATOM     44  C   UNL     1      84.032  66.393  75.351  1.00  0.00     0.160 A 
ATOM     45  C   UNL     1      82.849  64.785  73.990  1.00  0.00     0.050 A 
ATOM     46  C   UNL     1      83.639  65.077  75.101  1.00  0.00     0.157 A 
BRANCH  44  47
ATOM     47  O   UNL     1      84.804  66.691  76.433  1.00  0.00    -0.493 OA
ATOM     48  C   UNL     1      84.939  68.070  76.773  1.00  0.00     0.278 C 
ENDBRANCH  44  47
BRANCH  46  49
ATOM     49  O   UNL     1      84.021  64.071  75.935  1.00  0.00    -0.504 OA
ATOM     50  H   UNL     1      83.369  63.352  75.883  1.00  0.00     0.293 HD
ENDBRANCH  46  49
ENDBRANCH  40  41
ENDBRANCH  38  40
ENDBRANCH  37  38
ENDBRANCH   1  37
TORSDOF 11
ENDMDL
MODEL 2
REMARK VINA RESULT:    -6.018     26.662     31.030
REMARK INTER + INTRA:         -11.818
REMARK INTER:                 -12.342
REMARK INTRA:                   0.524
REMARK UNBOUND:                -1.226
REMARK SMILES C=C(C)[C@]12C[C@@H](C)[C@@]34O[C@](Cc5ccccc5)(O[C@@H]1[C@@H]3C=C(COC(=O)Cc1ccc(O)c(OC)c1)C[C@]1(O)C(=O)C(C)=C[C@@H]41)O2
REMARK SMILES IDX 23 1 22 2 21 3 20 4 9 5 8 6 10 7 6 8 18 9 46 10 19 11 5 12
REMARK SMILES IDX 7 13 4 14 45 15 38 16 44 17 40 18 42 20 41 21 43 22 39 23
REMARK SMILES IDX 11 25 12 26 13 27 17 28 14 29 16 30 15 31 2 32 3 33 1 34
REMARK SMILES IDX 37 35 24 37 25 38 26 39 27 40 28 41 36 42 29 43 33 44 30 45
REMARK SMILES IDX 31 46 34 47 35 48 32 49
REMARK H PARENT 39 24 32 50
REMARK Flexibility Score: 90.00
ROOT
ATOM      1  C   UNL     1      94.476  98.456  72.106  1.00  0.00     0.264 C 
ENDROOT
BRANCH   1   2
ATOM      2  C   UNL     1      94.071  99.870  71.763  1.00  0.00    -0.033 C 
ATOM      3  C   UNL     1      94.286 100.334  70.515  1.00  0.00    -0.015 C 
BRANCH   3   4
ATOM      4  C   UNL     1      94.044 101.722  69.947  1.00  0.00     0.078 C 
ATOM      5  O   UNL     1      91.762 101.722  68.991  1.00  0.00    -0.319 OA
ATOM      6  C   UNL     1      92.592 102.324  70.032  1.00  0.00     0.095 C 
ATOM      7  C   UNL     1      92.392 101.585  67.703  1.00  0.00     0.289 C 
ATOM      8  C   UNL     1      92.702 103.884  69.777  1.00  0.00     0.023 C 
ATOM      9  O   UNL     1      93.588 100.814  67.792  1.00  0.00    -0.320 OA
ATOM     10  O   UNL     1      92.784 102.841  67.156  1.00  0.00    -0.313 OA
ATOM     11  C   UNL     1      94.447 101.756  68.452  1.00  0.00     0.170 C 
ATOM     12  C   UNL     1      93.851 104.218  68.776  1.00  0.00     0.049 C 
ATOM     13  C   UNL     1      91.407 104.570  69.315  1.00  0.00     0.011 C 
ATOM     14  C   UNL     1      94.067 103.092  67.765  1.00  0.00     0.122 C 
BRANCH   6  15
ATOM     15  C   UNL     1      91.902 101.912  71.365  1.00  0.00     0.086 C 
ATOM     16  C   UNL     1      92.780 101.974  72.633  1.00  0.00     0.140 CG0
ATOM     17  C   UNL     1      90.635 102.604  71.783  1.00  0.00    -0.010 C 
ATOM     18  C   UNL     1      91.786 102.387  73.698  1.00  0.00     0.190 C 
ATOM     19  G   UNL     1      93.444 100.633  72.940  1.00  0.00     0.000 G0
ATOM     20  C   UNL     1      90.527 102.860  73.091  1.00  0.00    -0.008 C 
ATOM     21  O   UNL     1      91.996 102.385  74.901  1.00  0.00    -0.291 OA
ATOM     22  C   UNL     1      89.406 103.442  73.858  1.00  0.00     0.048 C 
BRANCH  16  23
ATOM     23  O   UNL     1      93.725 103.031  72.624  1.00  0.00    -0.381 OA
ATOM     24  H   UNL     1      93.353 103.780  73.119  1.00  0.00     0.212 HD
ENDBRANCH  16  23
ENDBRANCH   6  15
BRANCH   7  25
ATOM     25  C   UNL     1      91.414 100.907  66.765  1.00  0.00     0.135 C 
BRANCH  25  26
ATOM     26  C   UNL     1      90.953  99.573  67.297  1.00  0.00    -0.040 A 
ATOM     27  C   UNL     1      90.791  99.388  68.670  1.00  0.00     0.004 A 
ATOM     28  C   UNL     1      90.686  98.525  66.416  1.00  0.00     0.004 A 
ATOM     29  C   UNL     1      90.364  98.154  69.162  1.00  0.00     0.000 A 
ATOM     30  C   UNL     1      90.259  97.291  66.908  1.00  0.00     0.000 A 
ATOM     31  C   UNL     1      90.098  97.106  68.282  1.00  0.00     0.000 A 
ENDBRANCH  25  26
ENDBRANCH   7  25
BRANCH  14  32
ATOM     32  C   UNL     1      95.034 103.464  66.689  1.00  0.00    -0.046 C 
ATOM     33  C   UNL     1      96.485 103.454  67.068  1.00  0.00     0.042 C 
ATOM     34  C   UNL     1      94.628 103.790  65.452  1.00  0.00     0.010 C 
ENDBRANCH  14  32
ENDBRANCH   3   4
BRANCH   2  35
ATOM     35  C   UNL     1      93.438 100.607  72.928  1.00  0.00     0.078 CG0
ATOM     36  G   UNL     1      92.790 101.959  72.632  1.00  0.00     0.000 G0
ENDBRANCH   2  35
ENDBRANCH   1   2
BRANCH   1  37
ATOM     37  O   UNL     1      95.536  98.487  73.038  1.00  0.00    -0.461 OA
BRANCH  37  38
ATOM     38  C   UNL     1      95.452  97.600  74.085  1.00  0.00     0.310 C 
ATOM     39  O   UNL     1      96.161  97.620  75.082  1.00  0.00    -0.252 OA
BRANCH  38  40
ATOM     40  C   UNL     1      94.351  96.601  73.813  1.00  0.00     0.158 C 
BRANCH  40  41
ATOM     41  C   UNL     1      94.055  95.716  74.996  1.00  0.00    -0.033 A 
ATOM     42  C   UNL     1      95.044  95.470  75.949  1.00  0.00     0.054 A 
ATOM     43  C   UNL     1      92.791  95.143  75.139  1.00  0.00     0.008 A 
ATOM     44  C   UNL     1      94.770  94.651  77.044  1.00  0.00     0.160 A 
ATOM     45  C   UNL     1      92.516  94.324  76.235  1.00  0.00     0.050 A 
ATOM     46  C   UNL     1      93.505  94.078  77.187  1.00  0.00     0.157 A 
BRANCH  44  47
ATOM     47  O   UNL     1      95.744  94.418  77.967  1.00  0.00    -0.493 OA
ATOM     48  C   UNL     1      95.790  95.291  79.095  1.00  0.00     0.278 C 
ENDBRANCH  44  47
BRANCH  46  49
ATOM     49  O   UNL     1      93.225  93.278  78.252  1.00  0.00    -0.504 OA
ATOM     50  H   UNL     1      93.947  93.348  78.900  1.00  0.00     0.293 HD
ENDBRANCH  46  49
ENDBRANCH  40  41
ENDBRANCH  38  40
ENDBRANCH  37  38
ENDBRANCH   1  37
TORSDOF 11
ENDMDL
MODEL 3
REMARK VINA RESULT:    -5.890     20.695     23.637
REMARK INTER + INTRA:         -11.592
REMARK INTER:                  -9.430
REMARK INTRA:                  -2.161
REMARK UNBOUND:                -1.226
REMARK SMILES C=C(C)[C@]12C[C@@H](C)[C@@]34O[C@](Cc5ccccc5)(O[C@@H]1[C@@H]3C=C(COC(=O)Cc1ccc(O)c(OC)c1)C[C@]1(O)C(=O)C(C)=C[C@@H]41)O2
REMARK SMILES IDX 23 1 22 2 21 3 20 4 9 5 8 6 10 7 6 8 18 9 46 10 19 11 5 12
REMARK SMILES IDX 7 13 4 14 45 15 38 16 44 17 40 18 42 20 41 21 43 22 39 23
REMARK SMILES IDX 11 25 12 26 13 27 17 28 14 29 16 30 15 31 2 32 3 33 1 34
REMARK SMILES IDX 37 35 24 37 25 38 26 39 27 40 28 41 36 42 29 43 33 44 30 45
REMARK SMILES IDX 31 46 34 47 35 48 32 49
REMARK H PARENT 39 24 32 50
REMARK Flexibility Score: 90.00
ROOT
ATOM      1  C   UNL     1      71.101  89.923  65.224  1.00  0.00     0.264 C 
ENDROOT
BRANCH   1   2
ATOM      2  C   UNL     1      72.534  89.704  65.650  1.00  0.00    -0.033 C 
ATOM      3  C   UNL     1      72.951  88.457  65.948  1.00  0.00    -0.015 C 
BRANCH   3   4
ATOM      4  C   UNL     1      74.300  87.989  66.467  1.00  0.00     0.078 C 
ATOM      5  O   UNL     1      75.662  87.385  64.493  1.00  0.00    -0.319 OA
ATOM      6  C   UNL     1      75.584  88.315  65.617  1.00  0.00     0.095 C 
ATOM      7  C   UNL     1      75.355  86.013  64.805  1.00  0.00     0.289 C 
ATOM      8  C   UNL     1      76.845  88.110  66.554  1.00  0.00     0.023 C 
ATOM      9  O   UNL     1      74.051  85.891  65.367  1.00  0.00    -0.320 OA
ATOM     10  O   UNL     1      76.245  85.466  65.774  1.00  0.00    -0.313 OA
ATOM     11  C   UNL     1      74.283  86.453  66.667  1.00  0.00     0.170 C 
ATOM     12  C   UNL     1      76.610  86.964  67.586  1.00  0.00     0.049 C 
ATOM     13  C   UNL     1      78.178  87.876  65.825  1.00  0.00     0.011 C 
ATOM     14  C   UNL     1      75.678  85.886  67.032  1.00  0.00     0.122 C 
BRANCH   6  15
ATOM     15  C   UNL     1      75.465  89.718  64.953  1.00  0.00     0.086 C 
ATOM     16  C   UNL     1      74.898  90.844  65.842  1.00  0.00     0.140 CG0
ATOM     17  C   UNL     1      76.680  90.343  64.329  1.00  0.00    -0.010 C 
ATOM     18  C   UNL     1      75.660  92.058  65.355  1.00  0.00     0.190 C 
ATOM     19  G   UNL     1      73.386  90.999  65.683  1.00  0.00     0.000 G0
ATOM     20  C   UNL     1      76.805  91.661  64.513  1.00  0.00    -0.008 C 
ATOM     21  O   UNL     1      75.409  93.217  65.650  1.00  0.00    -0.291 OA
ATOM     22  C   UNL     1      77.810  92.606  63.984  1.00  0.00     0.048 C 
BRANCH  16  23
ATOM     23  O   UNL     1      75.267  90.738  67.208  1.00  0.00    -0.381 OA
ATOM     24  H   UNL     1      74.565  91.138  67.747  1.00  0.00     0.212 HD
ENDBRANCH  16  23
ENDBRANCH   6  15
BRANCH   7  25
ATOM     25  C   UNL     1      75.440  85.204  63.526  1.00  0.00     0.135 C 
BRANCH  25  26
ATOM     26  C   UNL     1      75.370  83.721  63.790  1.00  0.00    -0.040 A 
ATOM     27  C   UNL     1      76.510  82.931  63.641  1.00  0.00     0.004 A 
ATOM     28  C   UNL     1      74.166  83.138  64.186  1.00  0.00     0.004 A 
ATOM     29  C   UNL     1      76.446  81.559  63.885  1.00  0.00     0.000 A 
ATOM     30  C   UNL     1      74.101  81.766  64.430  1.00  0.00     0.000 A 
ATOM     31  C   UNL     1      75.242  80.977  64.280  1.00  0.00     0.000 A 
ENDBRANCH  25  26
ENDBRANCH   7  25
BRANCH  14  32
ATOM     32  C   UNL     1      75.583  84.694  67.927  1.00  0.00    -0.046 C 
ATOM     33  C   UNL     1      76.249  83.443  67.437  1.00  0.00     0.042 C 
ATOM     34  C   UNL     1      74.938  84.739  69.103  1.00  0.00     0.010 C 
ENDBRANCH  14  32
ENDBRANCH   3   4
BRANCH   2  35
ATOM     35  C   UNL     1      73.349  90.984  65.676  1.00  0.00     0.078 CG0
ATOM     36  G   UNL     1      74.863  90.845  65.826  1.00  0.00     0.000 G0
ENDBRANCH   2  35
ENDBRANCH   1   2
BRANCH   1  37
ATOM     37  O   UNL     1      70.237  89.471  66.245  1.00  0.00    -0.461 OA
BRANCH  37  38
ATOM     38  C   UNL     1      69.965  90.367  67.253  1.00  0.00     0.310 C 
ATOM     39  O   UNL     1      69.772  91.565  67.095  1.00  0.00    -0.252 OA
BRANCH  38  40
ATOM     40  C   UNL     1      69.943  89.644  68.579  1.00  0.00     0.158 C 
BRANCH  40  41
ATOM     41  C   UNL     1      70.953  90.182  69.559  1.00  0.00    -0.033 A 
ATOM     42  C   UNL     1      70.547  90.569  70.837  1.00  0.00     0.054 A 
ATOM     43  C   UNL     1      72.293  90.294  69.190  1.00  0.00     0.008 A 
ATOM     44  C   UNL     1      71.482  91.068  71.744  1.00  0.00     0.160 A 
ATOM     45  C   UNL     1      73.228  90.792  70.097  1.00  0.00     0.050 A 
ATOM     46  C   UNL     1      72.823  91.179  71.374  1.00  0.00     0.157 A 
BRANCH  44  47
ATOM     47  O   UNL     1      71.073  91.442  72.989  1.00  0.00    -0.493 OA
ATOM     48  C   UNL     1      69.778  92.031  73.096  1.00  0.00     0.278 C 
ENDBRANCH  44  47
BRANCH  46  49
ATOM     49  O   UNL     1      73.744  91.664  72.252  1.00  0.00    -0.504 OA
ATOM     50  H   UNL     1      73.627  91.222  73.110  1.00  0.00     0.293 HD
ENDBRANCH  46  49
ENDBRANCH  40  41
ENDBRANCH  38  40
ENDBRANCH  37  38
ENDBRANCH   1  37
TORSDOF 11
ENDMDL
MODEL 4
REMARK VINA RESULT:    -5.793     17.339     20.357
REMARK INTER + INTRA:         -11.422
REMARK INTER:                 -10.315
REMARK INTRA:                  -1.106
REMARK UNBOUND:                -1.226
REMARK SMILES C=C(C)[C@]12C[C@@H](C)[C@@]34O[C@](Cc5ccccc5)(O[C@@H]1[C@@H]3C=C(COC(=O)Cc1ccc(O)c(OC)c1)C[C@]1(O)C(=O)C(C)=C[C@@H]41)O2
REMARK SMILES IDX 23 1 22 2 21 3 20 4 9 5 8 6 10 7 6 8 18 9 46 10 19 11 5 12
REMARK SMILES IDX 7 13 4 14 45 15 38 16 44 17 40 18 42 20 41 21 43 22 39 23
REMARK SMILES IDX 11 25 12 26 13 27 17 28 14 29 16 30 15 31 2 32 3 33 1 34
REMARK SMILES IDX 37 35 24 37 25 38 26 39 27 40 28 41 36 42 29 43 33 44 30 45
REMARK SMILES IDX 31 46 34 47 35 48 32 49
REMARK H PARENT 39 24 32 50
REMARK Flexibility Score: 90.00
ROOT
ATOM      1  C   UNL     1      98.762  78.171  82.936  1.00  0.00     0.264 C 
ENDROOT
BRANCH   1   2
ATOM      2  C   UNL     1     100.055  78.253  82.158  1.00  0.00    -0.033 C 
ATOM      3  C   UNL     1     100.011  78.340  80.814  1.00  0.00    -0.015 C 
BRANCH   3   4
ATOM      4  C   UNL     1     101.153  78.356  79.810  1.00  0.00     0.078 C 
ATOM      5  O   UNL     1     101.731  80.729  79.415  1.00  0.00    -0.319 OA
ATOM      6  C   UNL     1     102.254  79.473  79.947  1.00  0.00     0.095 C 
ATOM      7  C   UNL     1     100.992  80.616  78.184  1.00  0.00     0.289 C 
ATOM      8  C   UNL     1     103.506  79.021  79.087  1.00  0.00     0.023 C 
ATOM      9  O   UNL     1      99.891  79.722  78.322  1.00  0.00    -0.320 OA
ATOM     10  O   UNL     1     101.785  80.089  77.123  1.00  0.00    -0.313 OA
ATOM     11  C   UNL     1     100.589  78.468  78.373  1.00  0.00     0.170 C 
ATOM     12  C   UNL     1     103.070  78.214  77.825  1.00  0.00     0.049 C 
ATOM     13  C   UNL     1     104.461  80.150  78.667  1.00  0.00     0.011 C 
ATOM     14  C   UNL     1     101.701  78.662  77.312  1.00  0.00     0.122 C 
BRANCH   6  15
ATOM     15  C   UNL     1     102.547  79.778  81.445  1.00  0.00     0.086 C 
ATOM     16  C   UNL     1     102.637  78.557  82.383  1.00  0.00     0.140 CG0
ATOM     17  C   UNL     1     103.761  80.587  81.808  1.00  0.00    -0.010 C 
ATOM     18  C   UNL     1     103.691  78.989  83.381  1.00  0.00     0.190 C 
ATOM     19  G   UNL     1     101.298  78.239  83.046  1.00  0.00     0.000 G0
ATOM     20  C   UNL     1     104.409  80.186  82.906  1.00  0.00    -0.008 C 
ATOM     21  O   UNL     1     103.961  78.408  84.421  1.00  0.00    -0.291 OA
ATOM     22  C   UNL     1     105.572  80.782  83.596  1.00  0.00     0.048 C 
BRANCH  16  23
ATOM     23  O   UNL     1     103.199  77.406  81.774  1.00  0.00    -0.381 OA
ATOM     24  H   UNL     1     104.138  77.581  81.595  1.00  0.00     0.212 HD
ENDBRANCH  16  23
ENDBRANCH   6  15
BRANCH   7  25
ATOM     25  C   UNL     1     100.489  81.994  77.803  1.00  0.00     0.135 C 
BRANCH  25  26
ATOM     26  C   UNL     1      99.000  82.128  78.007  1.00  0.00    -0.040 A 
ATOM     27  C   UNL     1      98.501  82.562  79.235  1.00  0.00     0.004 A 
ATOM     28  C   UNL     1      98.123  81.819  76.967  1.00  0.00     0.004 A 
ATOM     29  C   UNL     1      97.124  82.687  79.423  1.00  0.00     0.000 A 
ATOM     30  C   UNL     1      96.746  81.943  77.156  1.00  0.00     0.000 A 
ATOM     31  C   UNL     1      96.247  82.377  78.384  1.00  0.00     0.000 A 
ENDBRANCH  25  26
ENDBRANCH   7  25
BRANCH  14  32
ATOM     32  C   UNL     1     101.345  78.034  76.004  1.00  0.00    -0.046 C 
ATOM     33  C   UNL     1      99.881  77.931  75.696  1.00  0.00     0.042 C 
ATOM     34  C   UNL     1     102.281  77.587  75.153  1.00  0.00     0.010 C 
ENDBRANCH  14  32
ENDBRANCH   3   4
BRANCH   2  35
ATOM     35  C   UNL     1     101.285  78.232  83.046  1.00  0.00     0.078 CG0
ATOM     36  G   UNL     1     102.623  78.575  82.394  1.00  0.00     0.000 G0
ENDBRANCH   2  35
ENDBRANCH   1   2
BRANCH   1  37
ATOM     37  O   UNL     1      98.384  79.466  83.350  1.00  0.00    -0.461 OA
BRANCH  37  38
ATOM     38  C   UNL     1      97.061  79.799  83.175  1.00  0.00     0.310 C 
ATOM     39  O   UNL     1      96.112  79.159  83.605  1.00  0.00    -0.252 OA
BRANCH  38  40
ATOM     40  C   UNL     1      96.964  81.074  82.370  1.00  0.00     0.158 C 
BRANCH  40  41
ATOM     41  C   UNL     1      96.675  82.285  83.219  1.00  0.00    -0.033 A 
ATOM     42  C   UNL     1      95.881  82.163  84.360  1.00  0.00     0.054 A 
ATOM     43  C   UNL     1      97.201  83.527  82.865  1.00  0.00     0.008 A 
ATOM     44  C   UNL     1      95.613  83.284  85.146  1.00  0.00     0.160 A 
ATOM     45  C   UNL     1      96.933  84.648  83.651  1.00  0.00     0.050 A 
ATOM     46  C   UNL     1      96.139  84.527  84.791  1.00  0.00     0.157 A 
BRANCH  44  47
ATOM     47  O   UNL     1      94.836  83.152  86.257  1.00  0.00    -0.493 OA
ATOM     48  C   UNL     1      93.442  82.927  86.051  1.00  0.00     0.278 C 
ENDBRANCH  44  47
BRANCH  46  49
ATOM     49  O   UNL     1      95.885  85.628  85.552  1.00  0.00    -0.504 OA
ATOM     50  H   UNL     1      96.504  86.335  85.302  1.00  0.00     0.293 HD
ENDBRANCH  46  49
ENDBRANCH  40  41
ENDBRANCH  38  40
ENDBRANCH  37  38
ENDBRANCH   1  37
TORSDOF 11
ENDMDL
MODEL 5
REMARK VINA RESULT:    -5.471     26.422     31.033
REMARK INTER + INTRA:         -10.854
REMARK INTER:                  -9.977
REMARK INTRA:                  -0.878
REMARK UNBOUND:                -1.226
REMARK SMILES C=C(C)[C@]12C[C@@H](C)[C@@]34O[C@](Cc5ccccc5)(O[C@@H]1[C@@H]3C=C(COC(=O)Cc1ccc(O)c(OC)c1)C[C@]1(O)C(=O)C(C)=C[C@@H]41)O2
REMARK SMILES IDX 23 1 22 2 21 3 20 4 9 5 8 6 10 7 6 8 18 9 46 10 19 11 5 12
REMARK SMILES IDX 7 13 4 14 45 15 38 16 44 17 40 18 42 20 41 21 43 22 39 23
REMARK SMILES IDX 11 25 12 26 13 27 17 28 14 29 16 30 15 31 2 32 3 33 1 34
REMARK SMILES IDX 37 35 24 37 25 38 26 39 27 40 28 41 36 42 29 43 33 44 30 45
REMARK SMILES IDX 31 46 34 47 35 48 32 49
REMARK H PARENT 39 24 32 50
REMARK Flexibility Score: 90.00
ROOT
ATOM      1  C   UNL     1      94.679  98.253  71.375  1.00  0.00     0.264 C 
ENDROOT
BRANCH   1   2
ATOM      2  C   UNL     1      93.674  99.162  70.708  1.00  0.00    -0.033 C 
ATOM      3  C   UNL     1      93.954 100.475  70.582  1.00  0.00    -0.015 C 
BRANCH   3   4
ATOM      4  C   UNL     1      93.091 101.596  70.027  1.00  0.00     0.078 C 
ATOM      5  O   UNL     1      93.635 101.802  67.623  1.00  0.00    -0.319 OA
ATOM      6  C   UNL     1      92.557 101.470  68.552  1.00  0.00     0.095 C 
ATOM      7  C   UNL     1      94.433 102.944  67.987  1.00  0.00     0.289 C 
ATOM      8  C   UNL     1      91.376 102.513  68.378  1.00  0.00     0.023 C 
ATOM      9  O   UNL     1      95.020 102.775  69.275  1.00  0.00    -0.320 OA
ATOM     10  O   UNL     1      93.661 104.139  68.070  1.00  0.00    -0.313 OA
ATOM     11  C   UNL     1      93.859 102.938  70.105  1.00  0.00     0.170 C 
ATOM     12  C   UNL     1      91.616 103.794  69.235  1.00  0.00     0.049 C 
ATOM     13  C   UNL     1      91.062 102.919  66.929  1.00  0.00     0.011 C 
ATOM     14  C   UNL     1      93.106 104.095  69.401  1.00  0.00     0.122 C 
BRANCH   6  15
ATOM     15  C   UNL     1      92.198  99.993  68.219  1.00  0.00     0.086 C 
ATOM     16  C   UNL     1      91.467  99.205  69.325  1.00  0.00     0.140 CG0
ATOM     17  C   UNL     1      91.395  99.690  66.985  1.00  0.00    -0.010 C 
ATOM     18  C   UNL     1      90.554  98.296  68.530  1.00  0.00     0.190 C 
ATOM     19  G   UNL     1      92.435  98.428  70.216  1.00  0.00     0.000 G0
ATOM     20  C   UNL     1      90.482  98.723  67.119  1.00  0.00    -0.008 C 
ATOM     21  O   UNL     1      89.914  97.360  68.985  1.00  0.00    -0.291 OA
ATOM     22  C   UNL     1      89.586  98.114  66.115  1.00  0.00     0.048 C 
BRANCH  16  23
ATOM     23  O   UNL     1      90.573  99.992  70.095  1.00  0.00    -0.381 OA
ATOM     24  H   UNL     1      90.298  99.474  70.870  1.00  0.00     0.212 HD
ENDBRANCH  16  23
ENDBRANCH   6  15
BRANCH   7  25
ATOM     25  C   UNL     1      95.521 103.115  66.947  1.00  0.00     0.135 C 
BRANCH  25  26
ATOM     26  C   UNL     1      96.664 102.155  67.161  1.00  0.00    -0.040 A 
ATOM     27  C   UNL     1      96.563 100.838  66.710  1.00  0.00     0.004 A 
ATOM     28  C   UNL     1      97.823 102.582  67.809  1.00  0.00     0.004 A 
ATOM     29  C   UNL     1      97.620  99.949  66.908  1.00  0.00     0.000 A 
ATOM     30  C   UNL     1      98.880 101.693  68.007  1.00  0.00     0.000 A 
ATOM     31  C   UNL     1      98.778 100.377  67.556  1.00  0.00     0.000 A 
ENDBRANCH  25  26
ENDBRANCH   7  25
BRANCH  14  32
ATOM     32  C   UNL     1      93.356 105.411  70.060  1.00  0.00    -0.046 C 
ATOM     33  C   UNL     1      92.369 105.825  71.110  1.00  0.00     0.042 C 
ATOM     34  C   UNL     1      94.405 106.181  69.732  1.00  0.00     0.010 C 
ENDBRANCH  14  32
ENDBRANCH   3   4
BRANCH   2  35
ATOM     35  C   UNL     1      92.428  98.431  70.243  1.00  0.00     0.078 CG0
ATOM     36  G   UNL     1      91.476  99.191  69.321  1.00  0.00     0.000 G0
ENDBRANCH   2  35
ENDBRANCH   1   2
BRANCH   1  37
ATOM     37  O   UNL     1      95.318  98.952  72.422  1.00  0.00    -0.461 OA
BRANCH  37  38
ATOM     38  C   UNL     1      95.242  98.380  73.671  1.00  0.00     0.310 C 
ATOM     39  O   UNL     1      94.791  98.927  74.667  1.00  0.00    -0.252 OA
BRANCH  38  40
ATOM     40  C   UNL     1      95.802  96.977  73.618  1.00  0.00     0.158 C 
BRANCH  40  41
ATOM     41  C   UNL     1      95.305  96.104  74.742  1.00  0.00    -0.033 A 
ATOM     42  C   UNL     1      93.977  95.677  74.758  1.00  0.00     0.054 A 
ATOM     43  C   UNL     1      96.173  95.723  75.765  1.00  0.00     0.008 A 
ATOM     44  C   UNL     1      93.517  94.868  75.798  1.00  0.00     0.160 A 
ATOM     45  C   UNL     1      95.713  94.914  76.805  1.00  0.00     0.050 A 
ATOM     46  C   UNL     1      94.386  94.487  76.822  1.00  0.00     0.157 A 
BRANCH  44  47
ATOM     47  O   UNL     1      92.219  94.458  75.803  1.00  0.00    -0.493 OA
ATOM     48  C   UNL     1      91.905  93.291  75.045  1.00  0.00     0.278 C 
ENDBRANCH  44  47
BRANCH  46  49
ATOM     49  O   UNL     1      93.949  93.698  77.841  1.00  0.00    -0.504 OA
ATOM     50  H   UNL     1      93.053  93.976  78.096  1.00  0.00     0.293 HD
ENDBRANCH  46  49
ENDBRANCH  40  41
ENDBRANCH  38  40
ENDBRANCH  37  38
ENDBRANCH   1  37
TORSDOF 11
ENDMDL
MODEL 6
REMARK VINA RESULT:    -5.437     28.776     32.839
REMARK INTER + INTRA:         -10.795
REMARK INTER:                  -8.483
REMARK INTRA:                  -2.313
REMARK UNBOUND:                -1.226
REMARK SMILES C=C(C)[C@]12C[C@@H](C)[C@@]34O[C@](Cc5ccccc5)(O[C@@H]1[C@@H]3C=C(COC(=O)Cc1ccc(O)c(OC)c1)C[C@]1(O)C(=O)C(C)=C[C@@H]41)O2
REMARK SMILES IDX 23 1 22 2 21 3 20 4 9 5 8 6 10 7 6 8 18 9 46 10 19 11 5 12
REMARK SMILES IDX 7 13 4 14 45 15 38 16 44 17 40 18 42 20 41 21 43 22 39 23
REMARK SMILES IDX 11 25 12 26 13 27 17 28 14 29 16 30 15 31 2 32 3 33 1 34
REMARK SMILES IDX 37 35 24 37 25 38 26 39 27 40 28 41 36 42 29 43 33 44 30 45
REMARK SMILES IDX 31 46 34 47 35 48 32 49
REMARK H PARENT 39 24 32 50
REMARK Flexibility Score: 90.00
ROOT
ATOM      1  C   UNL     1      95.175  98.321  70.234  1.00  0.00     0.264 C 
ENDROOT
BRANCH   1   2
ATOM      2  C   UNL     1      93.999  99.202  69.884  1.00  0.00    -0.033 C 
ATOM      3  C   UNL     1      94.165 100.540  69.852  1.00  0.00    -0.015 C 
BRANCH   3   4
ATOM      4  C   UNL     1      93.138 101.634  69.608  1.00  0.00     0.078 C 
ATOM      5  O   UNL     1      93.148 102.102  67.179  1.00  0.00    -0.319 OA
ATOM      6  C   UNL     1      92.313 101.600  68.267  1.00  0.00     0.095 C 
ATOM      7  C   UNL     1      93.935 103.267  67.492  1.00  0.00     0.289 C 
ATOM      8  C   UNL     1      91.061 102.555  68.450  1.00  0.00     0.023 C 
ATOM      9  O   UNL     1      94.789 103.029  68.607  1.00  0.00    -0.320 OA
ATOM     10  O   UNL     1      93.127 104.383  67.857  1.00  0.00    -0.313 OA
ATOM     11  C   UNL     1      93.822 103.021  69.669  1.00  0.00     0.170 C 
ATOM     12  C   UNL     1      91.398 103.768  69.371  1.00  0.00     0.049 C 
ATOM     13  C   UNL     1      90.424 103.064  67.147  1.00  0.00     0.011 C 
ATOM     14  C   UNL     1      92.868 104.172  69.260  1.00  0.00     0.122 C 
BRANCH   6  15
ATOM     15  C   UNL     1      91.982 100.135  67.859  1.00  0.00     0.086 C 
ATOM     16  C   UNL     1      91.538  99.195  69.000  1.00  0.00     0.140 CG0
ATOM     17  C   UNL     1      90.965  99.882  66.782  1.00  0.00    -0.010 C 
ATOM     18  C   UNL     1      90.539  98.293  68.308  1.00  0.00     0.190 C 
ATOM     19  G   UNL     1      92.711  98.420  69.598  1.00  0.00     0.000 G0
ATOM     20  C   UNL     1      90.157  98.837  66.992  1.00  0.00    -0.008 C 
ATOM     21  O   UNL     1      90.060  97.272  68.781  1.00  0.00    -0.291 OA
ATOM     22  C   UNL     1      89.113  98.253  66.125  1.00  0.00     0.048 C 
BRANCH  16  23
ATOM     23  O   UNL     1      90.774  99.837  70.007  1.00  0.00    -0.381 OA
ATOM     24  H   UNL     1      90.158  99.188  70.385  1.00  0.00     0.212 HD
ENDBRANCH  16  23
ENDBRANCH   6  15
BRANCH   7  25
ATOM     25  C   UNL     1      94.766 103.620  66.276  1.00  0.00     0.135 C 
BRANCH  25  26
ATOM     26  C   UNL     1      93.981 104.422  65.267  1.00  0.00    -0.040 A 
ATOM     27  C   UNL     1      94.268 105.773  65.075  1.00  0.00     0.004 A 
ATOM     28  C   UNL     1      92.969 103.812  64.526  1.00  0.00     0.004 A 
ATOM     29  C   UNL     1      93.542 106.515  64.142  1.00  0.00     0.000 A 
ATOM     30  C   UNL     1      92.243 104.553  63.594  1.00  0.00     0.000 A 
ATOM     31  C   UNL     1      92.530 105.905  63.402  1.00  0.00     0.000 A 
ENDBRANCH  25  26
ENDBRANCH   7  25
BRANCH  14  32
ATOM     32  C   UNL     1      93.172 105.439  69.991  1.00  0.00    -0.046 C 
ATOM     33  C   UNL     1      94.430 106.150  69.588  1.00  0.00     0.042 C 
ATOM     34  C   UNL     1      92.366 105.914  70.952  1.00  0.00     0.010 C 
ENDBRANCH  14  32
ENDBRANCH   3   4
BRANCH   2  35
ATOM     35  C   UNL     1      92.733  98.418  69.595  1.00  0.00     0.078 CG0
ATOM     36  G   UNL     1      91.552  99.190  69.009  1.00  0.00     0.000 G0
ENDBRANCH   2  35
ENDBRANCH   1   2
BRANCH   1  37
ATOM     37  O   UNL     1      95.184  98.085  71.625  1.00  0.00    -0.461 OA
BRANCH  37  38
ATOM     38  C   UNL     1      96.161  98.732  72.346  1.00  0.00     0.310 C 
ATOM     39  O   UNL     1      97.275  99.013  71.925  1.00  0.00    -0.252 OA
BRANCH  38  40
ATOM     40  C   UNL     1      95.645  99.041  73.731  1.00  0.00     0.158 C 
BRANCH  40  41
ATOM     41  C   UNL     1      94.678 100.196  73.755  1.00  0.00    -0.033 A 
ATOM     42  C   UNL     1      95.075 101.448  73.282  1.00  0.00     0.054 A 
ATOM     43  C   UNL     1      93.386 100.015  74.249  1.00  0.00     0.008 A 
ATOM     44  C   UNL     1      94.180 102.517  73.304  1.00  0.00     0.160 A 
ATOM     45  C   UNL     1      92.491 101.085  74.271  1.00  0.00     0.050 A 
ATOM     46  C   UNL     1      92.888 102.336  73.799  1.00  0.00     0.157 A 
BRANCH  44  47
ATOM     47  O   UNL     1      94.579 103.734  72.840  1.00  0.00    -0.493 OA
ATOM     48  C   UNL     1      95.835 104.225  73.305  1.00  0.00     0.278 C 
ENDBRANCH  44  47
BRANCH  46  49
ATOM     49  O   UNL     1      92.005 103.373  73.825  1.00  0.00    -0.504 OA
ATOM     50  H   UNL     1      92.261 103.990  74.531  1.00  0.00     0.293 HD
ENDBRANCH  46  49
ENDBRANCH  40  41
ENDBRANCH  38  40
ENDBRANCH  37  38
ENDBRANCH   1  37
TORSDOF 11
ENDMDL
MODEL 7
REMARK VINA RESULT:    -5.391     19.898     24.418
REMARK INTER + INTRA:         -10.714
REMARK INTER:                  -9.649
REMARK INTRA:                  -1.065
REMARK UNBOUND:                -1.226
REMARK SMILES C=C(C)[C@]12C[C@@H](C)[C@@]34O[C@](Cc5ccccc5)(O[C@@H]1[C@@H]3C=C(COC(=O)Cc1ccc(O)c(OC)c1)C[C@]1(O)C(=O)C(C)=C[C@@H]41)O2
REMARK SMILES IDX 23 1 22 2 21 3 20 4 9 5 8 6 10 7 6 8 18 9 46 10 19 11 5 12
REMARK SMILES IDX 7 13 4 14 45 15 38 16 44 17 40 18 42 20 41 21 43 22 39 23
REMARK SMILES IDX 11 25 12 26 13 27 17 28 14 29 16 30 15 31 2 32 3 33 1 34
REMARK SMILES IDX 37 35 24 37 25 38 26 39 27 40 28 41 36 42 29 43 33 44 30 45
REMARK SMILES IDX 31 46 34 47 35 48 32 49
REMARK H PARENT 39 24 32 50
REMARK Flexibility Score: 90.00
ROOT
ATOM      1  C   UNL     1     100.816  82.920  87.008  1.00  0.00     0.264 C 
ENDROOT
BRANCH   1   2
ATOM      2  C   UNL     1      99.509  82.252  86.650  1.00  0.00    -0.033 C 
ATOM      3  C   UNL     1      98.377  82.643  87.269  1.00  0.00    -0.015 C 
BRANCH   3   4
ATOM      4  C   UNL     1      96.968  82.085  87.146  1.00  0.00     0.078 C 
ATOM      5  O   UNL     1      95.825  83.396  85.387  1.00  0.00    -0.319 OA
ATOM      6  C   UNL     1      96.296  82.055  85.722  1.00  0.00     0.095 C 
ATOM      7  C   UNL     1      95.174  84.107  86.457  1.00  0.00     0.289 C 
ATOM      8  C   UNL     1      95.058  81.069  85.797  1.00  0.00     0.023 C 
ATOM      9  O   UNL     1      96.028  84.229  87.591  1.00  0.00    -0.320 OA
ATOM     10  O   UNL     1      94.008  83.433  86.923  1.00  0.00    -0.313 OA
ATOM     11  C   UNL     1      96.007  82.875  88.069  1.00  0.00     0.170 C 
ATOM     12  C   UNL     1      94.387  81.101  87.205  1.00  0.00     0.049 C 
ATOM     13  C   UNL     1      93.986  81.272  84.714  1.00  0.00     0.011 C 
ATOM     14  C   UNL     1      94.525  82.472  87.867  1.00  0.00     0.122 C 
BRANCH   6  15
ATOM     15  C   UNL     1      97.348  81.726  84.623  1.00  0.00     0.086 C 
ATOM     16  C   UNL     1      98.366  80.619  84.966  1.00  0.00     0.140 CG0
ATOM     17  C   UNL     1      96.880  81.355  83.244  1.00  0.00    -0.010 C 
ATOM     18  C   UNL     1      98.596  79.960  83.622  1.00  0.00     0.190 C 
ATOM     19  G   UNL     1      99.652  81.184  85.568  1.00  0.00     0.000 G0
ATOM     20  C   UNL     1      97.578  80.385  82.644  1.00  0.00    -0.008 C 
ATOM     21  O   UNL     1      99.470  79.143  83.375  1.00  0.00    -0.291 OA
ATOM     22  C   UNL     1      97.457  79.831  81.280  1.00  0.00     0.048 C 
BRANCH  16  23
ATOM     23  O   UNL     1      97.834  79.577  85.767  1.00  0.00    -0.381 OA
ATOM     24  H   UNL     1      97.724  78.788  85.212  1.00  0.00     0.212 HD
ENDBRANCH  16  23
ENDBRANCH   6  15
BRANCH   7  25
ATOM     25  C   UNL     1      94.794  85.484  85.952  1.00  0.00     0.135 C 
BRANCH  25  26
ATOM     26  C   UNL     1      94.627  86.473  87.078  1.00  0.00    -0.040 A 
ATOM     27  C   UNL     1      93.787  86.173  88.151  1.00  0.00     0.004 A 
ATOM     28  C   UNL     1      95.312  87.687  87.049  1.00  0.00     0.004 A 
ATOM     29  C   UNL     1      93.632  87.087  89.193  1.00  0.00     0.000 A 
ATOM     30  C   UNL     1      95.157  88.602  88.091  1.00  0.00     0.000 A 
ATOM     31  C   UNL     1      94.317  88.301  89.163  1.00  0.00     0.000 A 
ENDBRANCH  25  26
ENDBRANCH   7  25
BRANCH  14  32
ATOM     32  C   UNL     1      93.736  82.582  89.131  1.00  0.00    -0.046 C 
ATOM     33  C   UNL     1      92.264  82.822  88.974  1.00  0.00     0.042 C 
ATOM     34  C   UNL     1      94.311  82.472  90.338  1.00  0.00     0.010 C 
ENDBRANCH  14  32
ENDBRANCH   3   4
BRANCH   2  35
ATOM     35  C   UNL     1      99.660  81.183  85.584  1.00  0.00     0.078 CG0
ATOM     36  G   UNL     1      98.379  80.640  84.952  1.00  0.00     0.000 G0
ENDBRANCH   2  35
ENDBRANCH   1   2
BRANCH   1  37
ATOM     37  O   UNL     1     101.817  81.937  87.161  1.00  0.00    -0.461 OA
BRANCH  37  38
ATOM     38  C   UNL     1     103.117  82.386  87.150  1.00  0.00     0.310 C 
ATOM     39  O   UNL     1     103.463  83.542  87.347  1.00  0.00    -0.252 OA
BRANCH  38  40
ATOM     40  C   UNL     1     104.046  81.232  86.857  1.00  0.00     0.158 C 
BRANCH  40  41
ATOM     41  C   UNL     1     103.992  80.783  85.420  1.00  0.00    -0.033 A 
ATOM     42  C   UNL     1     103.609  79.477  85.111  1.00  0.00     0.054 A 
ATOM     43  C   UNL     1     104.322  81.672  84.398  1.00  0.00     0.008 A 
ATOM     44  C   UNL     1     103.559  79.061  83.780  1.00  0.00     0.160 A 
ATOM     45  C   UNL     1     104.272  81.257  83.067  1.00  0.00     0.050 A 
ATOM     46  C   UNL     1     103.891  79.952  82.758  1.00  0.00     0.157 A 
BRANCH  44  47
ATOM     47  O   UNL     1     103.185  77.784  83.491  1.00  0.00    -0.493 OA
ATOM     48  C   UNL     1     103.898  76.735  84.146  1.00  0.00     0.278 C 
ENDBRANCH  44  47
BRANCH  46  49
ATOM     49  O   UNL     1     103.844  79.557  81.455  1.00  0.00    -0.504 OA
ATOM     50  H   UNL     1     104.734  79.628  81.071  1.00  0.00     0.293 HD
ENDBRANCH  46  49
ENDBRANCH  40  41
ENDBRANCH  38  40
ENDBRANCH  37  38
ENDBRANCH   1  37
TORSDOF 11
ENDMDL
MODEL 8
REMARK VINA RESULT:    -5.382     17.758     22.560
REMARK INTER + INTRA:         -10.699
REMARK INTER:                  -9.558
REMARK INTRA:                  -1.140
REMARK UNBOUND:                -1.226
REMARK SMILES C=C(C)[C@]12C[C@@H](C)[C@@]34O[C@](Cc5ccccc5)(O[C@@H]1[C@@H]3C=C(COC(=O)Cc1ccc(O)c(OC)c1)C[C@]1(O)C(=O)C(C)=C[C@@H]41)O2
REMARK SMILES IDX 23 1 22 2 21 3 20 4 9 5 8 6 10 7 6 8 18 9 46 10 19 11 5 12
REMARK SMILES IDX 7 13 4 14 45 15 38 16 44 17 40 18 42 20 41 21 43 22 39 23
REMARK SMILES IDX 11 25 12 26 13 27 17 28 14 29 16 30 15 31 2 32 3 33 1 34
REMARK SMILES IDX 37 35 24 37 25 38 26 39 27 40 28 41 36 42 29 43 33 44 30 45
REMARK SMILES IDX 31 46 34 47 35 48 32 49
REMARK H PARENT 39 24 32 50
REMARK Flexibility Score: 90.00
ROOT
ATOM      1  C   UNL     1      94.786  82.522  88.092  1.00  0.00     0.264 C 
ENDROOT
BRANCH   1   2
ATOM      2  C   UNL     1      93.294  82.296  88.023  1.00  0.00    -0.033 C 
ATOM      3  C   UNL     1      92.818  81.246  87.324  1.00  0.00    -0.015 C 
BRANCH   3   4
ATOM      4  C   UNL     1      91.378  80.849  87.040  1.00  0.00     0.078 C 
ATOM      5  O   UNL     1      90.701  79.272  88.822  1.00  0.00    -0.319 OA
ATOM      6  C   UNL     1      90.418  80.591  88.260  1.00  0.00     0.095 C 
ATOM      7  C   UNL     1      90.910  78.224  87.857  1.00  0.00     0.289 C 
ATOM      8  C   UNL     1      88.930  80.619  87.714  1.00  0.00     0.023 C 
ATOM      9  O   UNL     1      91.977  78.544  86.968  1.00  0.00    -0.320 OA
ATOM     10  O   UNL     1      89.769  78.014  87.029  1.00  0.00    -0.313 OA
ATOM     11  C   UNL     1      91.348  79.563  86.176  1.00  0.00     0.170 C 
ATOM     12  C   UNL     1      88.846  80.067  86.258  1.00  0.00     0.049 C 
ATOM     13  C   UNL     1      87.891  79.905  88.594  1.00  0.00     0.011 C 
ATOM     14  C   UNL     1      89.914  79.006  85.992  1.00  0.00     0.122 C 
BRANCH   6  15
ATOM     15  C   UNL     1      90.723  81.582  89.421  1.00  0.00     0.086 C 
ATOM     16  C   UNL     1      90.987  83.046  89.014  1.00  0.00     0.140 CG0
ATOM     17  C   UNL     1      89.749  81.706  90.559  1.00  0.00    -0.010 C 
ATOM     18  C   UNL     1      90.400  83.819  90.176  1.00  0.00     0.190 C 
ATOM     19  G   UNL     1      92.476  83.330  88.814  1.00  0.00     0.000 G0
ATOM     20  C   UNL     1      89.566  82.946  91.024  1.00  0.00    -0.008 C 
ATOM     21  O   UNL     1      90.543  85.016  90.375  1.00  0.00    -0.291 OA
ATOM     22  C   UNL     1      88.761  83.425  92.166  1.00  0.00     0.048 C 
BRANCH  16  23
ATOM     23  O   UNL     1      90.224  83.478  87.900  1.00  0.00    -0.381 OA
ATOM     24  H   UNL     1      90.141  84.445  87.941  1.00  0.00     0.212 HD
ENDBRANCH  16  23
ENDBRANCH   6  15
BRANCH   7  25
ATOM     25  C   UNL     1      91.233  76.946  88.606  1.00  0.00     0.135 C 
BRANCH  25  26
ATOM     26  C   UNL     1      90.040  76.029  88.700  1.00  0.00    -0.040 A 
ATOM     27  C   UNL     1      89.939  74.927  87.851  1.00  0.00     0.004 A 
ATOM     28  C   UNL     1      89.038  76.282  89.637  1.00  0.00     0.004 A 
ATOM     29  C   UNL     1      88.835  74.078  87.939  1.00  0.00     0.000 A 
ATOM     30  C   UNL     1      87.934  75.433  89.724  1.00  0.00     0.000 A 
ATOM     31  C   UNL     1      87.833  74.331  88.875  1.00  0.00     0.000 A 
ENDBRANCH  25  26
ENDBRANCH   7  25
BRANCH  14  32
ATOM     32  C   UNL     1      89.739  78.334  84.670  1.00  0.00    -0.046 C 
ATOM     33  C   UNL     1      88.948  79.087  83.643  1.00  0.00     0.042 C 
ATOM     34  C   UNL     1      90.260  77.124  84.415  1.00  0.00     0.010 C 
ENDBRANCH  14  32
ENDBRANCH   3   4
BRANCH   2  35
ATOM     35  C   UNL     1      92.499  83.331  88.795  1.00  0.00     0.078 CG0
ATOM     36  G   UNL     1      91.011  83.055  89.007  1.00  0.00     0.000 G0
ENDBRANCH   2  35
ENDBRANCH   1   2
BRANCH   1  37
ATOM     37  O   UNL     1      95.274  82.820  86.801  1.00  0.00    -0.461 OA
BRANCH  37  38
ATOM     38  C   UNL     1      96.168  81.921  86.267  1.00  0.00     0.310 C 
ATOM     39  O   UNL     1      97.250  81.630  86.758  1.00  0.00    -0.252 OA
BRANCH  38  40
ATOM     40  C   UNL     1      95.607  81.354  84.984  1.00  0.00     0.158 C 
BRANCH  40  41
ATOM     41  C   UNL     1      96.367  81.800  83.762  1.00  0.00    -0.033 A 
ATOM     42  C   UNL     1      96.778  80.861  82.815  1.00  0.00     0.054 A 
ATOM     43  C   UNL     1      96.659  83.151  83.577  1.00  0.00     0.008 A 
ATOM     44  C   UNL     1      97.482  81.274  81.683  1.00  0.00     0.160 A 
ATOM     45  C   UNL     1      97.362  83.564  82.445  1.00  0.00     0.050 A 
ATOM     46  C   UNL     1      97.774  82.626  81.499  1.00  0.00     0.157 A 
BRANCH  44  47
ATOM     47  O   UNL     1      97.878  80.348  80.766  1.00  0.00    -0.493 OA
ATOM     48  C   UNL     1      98.853  79.395  81.187  1.00  0.00     0.278 C 
ENDBRANCH  44  47
BRANCH  46  49
ATOM     49  O   UNL     1      98.459  83.041  80.397  1.00  0.00    -0.504 OA
ATOM     50  H   UNL     1      99.190  82.423  80.227  1.00  0.00     0.293 HD
ENDBRANCH  46  49
ENDBRANCH  40  41
ENDBRANCH  38  40
ENDBRANCH  37  38
ENDBRANCH   1  37
TORSDOF 11
ENDMDL
MODEL 9
REMARK VINA RESULT:    -5.289     20.599     23.482
REMARK INTER + INTRA:         -10.534
REMARK INTER:                  -9.881
REMARK INTRA:                  -0.653
REMARK UNBOUND:                -1.226
REMARK SMILES C=C(C)[C@]12C[C@@H](C)[C@@]34O[C@](Cc5ccccc5)(O[C@@H]1[C@@H]3C=C(COC(=O)Cc1ccc(O)c(OC)c1)C[C@]1(O)C(=O)C(C)=C[C@@H]41)O2
REMARK SMILES IDX 23 1 22 2 21 3 20 4 9 5 8 6 10 7 6 8 18 9 46 10 19 11 5 12
REMARK SMILES IDX 7 13 4 14 45 15 38 16 44 17 40 18 42 20 41 21 43 22 39 23
REMARK SMILES IDX 11 25 12 26 13 27 17 28 14 29 16 30 15 31 2 32 3 33 1 34
REMARK SMILES IDX 37 35 24 37 25 38 26 39 27 40 28 41 36 42 29 43 33 44 30 45
REMARK SMILES IDX 31 46 34 47 35 48 32 49
REMARK H PARENT 39 24 32 50
REMARK Flexibility Score: 90.00
ROOT
ATOM      1  C   UNL     1      71.073  90.591  65.529  1.00  0.00     0.264 C 
ENDROOT
BRANCH   1   2
ATOM      2  C   UNL     1      72.509  90.321  65.914  1.00  0.00    -0.033 C 
ATOM      3  C   UNL     1      72.887  89.060  66.205  1.00  0.00    -0.015 C 
BRANCH   3   4
ATOM      4  C   UNL     1      74.233  88.544  66.688  1.00  0.00     0.078 C 
ATOM      5  O   UNL     1      75.516  87.888  64.678  1.00  0.00    -0.319 OA
ATOM      6  C   UNL     1      75.503  88.822  65.801  1.00  0.00     0.095 C 
ATOM      7  C   UNL     1      75.168  86.529  65.002  1.00  0.00     0.289 C 
ATOM      8  C   UNL     1      76.782  88.573  66.703  1.00  0.00     0.023 C 
ATOM      9  O   UNL     1      73.877  86.455  65.601  1.00  0.00    -0.320 OA
ATOM     10  O   UNL     1      76.064  85.952  65.948  1.00  0.00    -0.313 OA
ATOM     11  C   UNL     1      74.166  87.011  66.893  1.00  0.00     0.170 C 
ATOM     12  C   UNL     1      76.535  87.439  67.744  1.00  0.00     0.049 C 
ATOM     13  C   UNL     1      78.085  88.290  65.938  1.00  0.00     0.011 C 
ATOM     14  C   UNL     1      75.549  86.394  67.220  1.00  0.00     0.122 C 
BRANCH   6  15
ATOM     15  C   UNL     1      75.416  90.227  65.137  1.00  0.00     0.086 C 
ATOM     16  C   UNL     1      74.914  91.374  66.038  1.00  0.00     0.140 CG0
ATOM     17  C   UNL     1      76.637  90.808  64.479  1.00  0.00    -0.010 C 
ATOM     18  C   UNL     1      75.706  92.560  65.527  1.00  0.00     0.190 C 
ATOM     19  G   UNL     1      73.405  91.583  65.918  1.00  0.00     0.000 G0
ATOM     20  C   UNL     1      76.812  92.121  64.657  1.00  0.00    -0.008 C 
ATOM     21  O   UNL     1      75.504  93.727  65.825  1.00  0.00    -0.291 OA
ATOM     22  C   UNL     1      77.837  93.028  64.099  1.00  0.00     0.048 C 
BRANCH  16  23
ATOM     23  O   UNL     1      75.315  91.258  67.393  1.00  0.00    -0.381 OA
ATOM     24  H   UNL     1      75.379  90.314  67.614  1.00  0.00     0.212 HD
ENDBRANCH  16  23
ENDBRANCH   6  15
BRANCH   7  25
ATOM     25  C   UNL     1      75.187  85.715  63.724  1.00  0.00     0.135 C 
BRANCH  25  26
ATOM     26  C   UNL     1      75.248  84.233  63.999  1.00  0.00    -0.040 A 
ATOM     27  C   UNL     1      76.381  83.503  63.640  1.00  0.00     0.004 A 
ATOM     28  C   UNL     1      74.172  83.592  64.613  1.00  0.00     0.004 A 
ATOM     29  C   UNL     1      76.437  82.132  63.894  1.00  0.00     0.000 A 
ATOM     30  C   UNL     1      74.228  82.221  64.867  1.00  0.00     0.000 A 
ATOM     31  C   UNL     1      75.361  81.492  64.507  1.00  0.00     0.000 A 
ENDBRANCH  25  26
ENDBRANCH   7  25
BRANCH  14  32
ATOM     32  C   UNL     1      75.436  85.208  68.121  1.00  0.00    -0.046 C 
ATOM     33  C   UNL     1      76.600  84.263  68.121  1.00  0.00     0.042 C 
ATOM     34  C   UNL     1      74.354  84.999  68.887  1.00  0.00     0.010 C 
ENDBRANCH  14  32
ENDBRANCH   3   4
BRANCH   2  35
ATOM     35  C   UNL     1      73.370  91.570  65.912  1.00  0.00     0.078 CG0
ATOM     36  G   UNL     1      74.882  91.376  66.022  1.00  0.00     0.000 G0
ENDBRANCH   2  35
ENDBRANCH   1   2
BRANCH   1  37
ATOM     37  O   UNL     1      70.220  89.783  66.311  1.00  0.00    -0.461 OA
BRANCH  37  38
ATOM     38  C   UNL     1      69.207  90.434  66.976  1.00  0.00     0.310 C 
ATOM     39  O   UNL     1      68.516  91.327  66.504  1.00  0.00    -0.252 OA
BRANCH  38  40
ATOM     40  C   UNL     1      69.081  89.876  68.374  1.00  0.00     0.158 C 
BRANCH  40  41
ATOM     41  C   UNL     1      69.354  88.396  68.443  1.00  0.00    -0.033 A 
ATOM     42  C   UNL     1      69.892  87.733  67.339  1.00  0.00     0.054 A 
ATOM     43  C   UNL     1      69.069  87.688  69.610  1.00  0.00     0.008 A 
ATOM     44  C   UNL     1      70.145  86.363  67.403  1.00  0.00     0.160 A 
ATOM     45  C   UNL     1      69.322  86.317  69.674  1.00  0.00     0.050 A 
ATOM     46  C   UNL     1      69.859  85.655  68.571  1.00  0.00     0.157 A 
BRANCH  44  47
ATOM     47  O   UNL     1      70.669  85.727  66.318  1.00  0.00    -0.493 OA
ATOM     48  C   UNL     1      69.876  85.706  65.132  1.00  0.00     0.278 C 
ENDBRANCH  44  47
BRANCH  46  49
ATOM     49  O   UNL     1      70.102  84.317  68.645  1.00  0.00    -0.504 OA
ATOM     50  H   UNL     1      69.255  83.840  68.634  1.00  0.00     0.293 HD
ENDBRANCH  46  49
ENDBRANCH  40  41
ENDBRANCH  38  40
ENDBRANCH  37  38
ENDBRANCH   1  37
TORSDOF 11
ENDMDL
MODEL 10
REMARK VINA RESULT:    -5.063     27.352     30.501
REMARK INTER + INTRA:         -10.136
REMARK INTER:                  -8.745
REMARK INTRA:                  -1.391
REMARK UNBOUND:                -1.226
REMARK SMILES C=C(C)[C@]12C[C@@H](C)[C@@]34O[C@](Cc5ccccc5)(O[C@@H]1[C@@H]3C=C(COC(=O)Cc1ccc(O)c(OC)c1)C[C@]1(O)C(=O)C(C)=C[C@@H]41)O2
REMARK SMILES IDX 23 1 22 2 21 3 20 4 9 5 8 6 10 7 6 8 18 9 46 10 19 11 5 12
REMARK SMILES IDX 7 13 4 14 45 15 38 16 44 17 40 18 42 20 41 21 43 22 39 23
REMARK SMILES IDX 11 25 12 26 13 27 17 28 14 29 16 30 15 31 2 32 3 33 1 34
REMARK SMILES IDX 37 35 24 37 25 38 26 39 27 40 28 41 36 42 29 43 33 44 30 45
REMARK SMILES IDX 31 46 34 47 35 48 32 49
REMARK H PARENT 39 24 32 50
REMARK Flexibility Score: 90.00
ROOT
ATOM      1  C   UNL     1      75.246  99.901  71.343  1.00  0.00     0.264 C 
ENDROOT
BRANCH   1   2
ATOM      2  C   UNL     1      75.886 100.100  69.989  1.00  0.00    -0.033 C 
ATOM      3  C   UNL     1      77.213  99.910  69.853  1.00  0.00    -0.015 C 
BRANCH   3   4
ATOM      4  C   UNL     1      78.098 100.118  68.634  1.00  0.00     0.078 C 
ATOM      5  O   UNL     1      78.191  97.956  67.434  1.00  0.00    -0.319 OA
ATOM      6  C   UNL     1      77.743  99.342  67.311  1.00  0.00     0.095 C 
ATOM      7  C   UNL     1      79.491  97.779  68.028  1.00  0.00     0.289 C 
ATOM      8  C   UNL     1      78.524 100.040  66.121  1.00  0.00     0.023 C 
ATOM      9  O   UNL     1      79.550  98.361  69.327  1.00  0.00    -0.320 OA
ATOM     10  O   UNL     1      80.521  98.414  67.274  1.00  0.00    -0.313 OA
ATOM     11  C   UNL     1      79.563  99.754  68.979  1.00  0.00     0.170 C 
ATOM     12  C   UNL     1      79.898 100.607  66.595  1.00  0.00     0.049 C 
ATOM     13  C   UNL     1      78.734  99.172  64.870  1.00  0.00     0.011 C 
ATOM     14  C   UNL     1      80.489  99.780  67.737  1.00  0.00     0.122 C 
BRANCH   6  15
ATOM     15  C   UNL     1      76.202  99.237  67.128  1.00  0.00     0.086 C 
ATOM     16  C   UNL     1      75.390 100.508  67.458  1.00  0.00     0.140 CG0
ATOM     17  C   UNL     1      75.645  98.802  65.802  1.00  0.00    -0.010 C 
ATOM     18  C   UNL     1      74.258 100.442  66.455  1.00  0.00     0.190 C 
ATOM     19  G   UNL     1      74.892 100.515  68.903  1.00  0.00     0.000 G0
ATOM     20  C   UNL     1      74.538  99.440  65.408  1.00  0.00    -0.008 C 
ATOM     21  O   UNL     1      73.263 101.149  66.463  1.00  0.00    -0.291 OA
ATOM     22  C   UNL     1      73.684  99.222  64.222  1.00  0.00     0.048 C 
BRANCH  16  23
ATOM     23  O   UNL     1      76.059 101.716  67.135  1.00  0.00    -0.381 OA
ATOM     24  H   UNL     1      75.674 102.070  66.317  1.00  0.00     0.212 HD
ENDBRANCH  16  23
ENDBRANCH   6  15
BRANCH   7  25
ATOM     25  C   UNL     1      79.773  96.293  68.119  1.00  0.00     0.135 C 
BRANCH  25  26
ATOM     26  C   UNL     1      79.011  95.508  67.081  1.00  0.00    -0.040 A 
ATOM     27  C   UNL     1      79.544  95.341  65.802  1.00  0.00     0.004 A 
ATOM     28  C   UNL     1      77.774  94.947  67.399  1.00  0.00     0.004 A 
ATOM     29  C   UNL     1      78.839  94.615  64.842  1.00  0.00     0.000 A 
ATOM     30  C   UNL     1      77.069  94.221  66.438  1.00  0.00     0.000 A 
ATOM     31  C   UNL     1      77.602  94.055  65.160  1.00  0.00     0.000 A 
ENDBRANCH  25  26
ENDBRANCH   7  25
BRANCH  14  32
ATOM     32  C   UNL     1      81.882 100.192  68.084  1.00  0.00    -0.046 C 
ATOM     33  C   UNL     1      82.817 100.404  66.930  1.00  0.00     0.042 C 
ATOM     34  C   UNL     1      82.275 100.363  69.355  1.00  0.00     0.010 C 
ENDBRANCH  14  32
ENDBRANCH   3   4
BRANCH   2  35
ATOM     35  C   UNL     1      74.892 100.501  68.915  1.00  0.00     0.078 CG0
ATOM     36  G   UNL     1      75.388 100.503  67.470  1.00  0.00     0.000 G0
ENDBRANCH   2  35
ENDBRANCH   1   2
BRANCH   1  37
ATOM     37  O   UNL     1      76.058 100.490  72.335  1.00  0.00    -0.461 OA
BRANCH  37  38
ATOM     38  C   UNL     1      76.533  99.648  73.313  1.00  0.00     0.310 C 
ATOM     39  O   UNL     1      77.674  99.655  73.754  1.00  0.00    -0.252 OA
BRANCH  38  40
ATOM     40  C   UNL     1      75.429  98.716  73.755  1.00  0.00     0.158 C 
BRANCH  40  41
ATOM     41  C   UNL     1      75.889  97.289  73.904  1.00  0.00    -0.033 A 
ATOM     42  C   UNL     1      76.024  96.728  75.175  1.00  0.00     0.054 A 
ATOM     43  C   UNL     1      76.180  96.528  72.772  1.00  0.00     0.008 A 
ATOM     44  C   UNL     1      76.450  95.407  75.313  1.00  0.00     0.160 A 
ATOM     45  C   UNL     1      76.606  95.206  72.910  1.00  0.00     0.050 A 
ATOM     46  C   UNL     1      76.741  94.646  74.180  1.00  0.00     0.157 A 
BRANCH  44  47
ATOM     47  O   UNL     1      76.578  94.871  76.559  1.00  0.00    -0.493 OA
ATOM     48  C   UNL     1      76.984  95.753  77.605  1.00  0.00     0.278 C 
ENDBRANCH  44  47
BRANCH  46  49
ATOM     49  O   UNL     1      77.156  93.355  74.303  1.00  0.00    -0.504 OA
ATOM     50  H   UNL     1      77.136  92.931  73.428  1.00  0.00     0.293 HD
ENDBRANCH  46  49
ENDBRANCH  40  41
ENDBRANCH  38  40
ENDBRANCH  37  38
ENDBRANCH   1  37
TORSDOF 11
ENDMDL
