MODEL 1
REMARK VINA RESULT:    -5.897      0.000      0.000
REMARK INTER + INTRA:         -12.479
REMARK INTER:                 -10.378
REMARK INTRA:                  -2.101
REMARK UNBOUND:                -2.101
REMARK SMILES C=C(C)[C@]12C[C@@H](C)[C@@]34O[C@](Cc5ccccc5)(O[C@@H]1[C@@H]3C=C(COC(=O)Cc1ccc(O)c(OC)c1)C[C@]1(O)C(=O)C(C)=C[C@@H]41)O2
REMARK SMILES IDX 23 1 22 2 21 3 20 4 9 5 8 6 10 7 6 8 18 9 46 10 19 11 5 12
REMARK SMILES IDX 7 13 4 14 45 15 38 16 44 17 40 18 42 20 41 21 43 22 39 23
REMARK SMILES IDX 11 25 12 26 13 27 17 28 14 29 16 30 15 31 2 32 3 33 1 34
REMARK SMILES IDX 37 35 24 37 25 38 26 39 27 40 28 41 36 42 29 43 33 44 30 45
REMARK SMILES IDX 31 46 34 47 35 48 32 49
REMARK H PARENT 39 24 32 50
REMARK Flexibility Score: 90.00
ROOT
ATOM      1  C   UNL     1      64.029  87.488  72.537  1.00  0.00     0.264 C 
ENDROOT
BRANCH   1   2
ATOM      2  C   UNL     1      62.758  86.705  72.306  1.00  0.00    -0.033 C 
ATOM      3  C   UNL     1      61.577  87.239  72.678  1.00  0.00    -0.015 C 
BRANCH   3   4
ATOM      4  C   UNL     1      60.185  86.632  72.626  1.00  0.00     0.078 C 
ATOM      5  O   UNL     1      59.203  87.268  70.446  1.00  0.00    -0.319 OA
ATOM      6  C   UNL     1      59.641  86.122  71.239  1.00  0.00     0.095 C 
ATOM      7  C   UNL     1      58.460  88.269  71.167  1.00  0.00     0.289 C 
ATOM      8  C   UNL     1      58.401  85.179  71.527  1.00  0.00     0.023 C 
ATOM      9  O   UNL     1      59.211  88.777  72.268  1.00  0.00    -0.320 OA
ATOM     10  O   UNL     1      57.257  87.751  71.729  1.00  0.00    -0.313 OA
ATOM     11  C   UNL     1      59.147  87.652  73.157  1.00  0.00     0.170 C 
ATOM     12  C   UNL     1      57.607  85.648  72.786  1.00  0.00     0.049 C 
ATOM     13  C   UNL     1      57.429  84.990  70.352  1.00  0.00     0.011 C 
ATOM     14  C   UNL     1      57.688  87.163  72.974  1.00  0.00     0.122 C 
BRANCH   6  15
ATOM     15  C   UNL     1      60.786  85.484  70.399  1.00  0.00     0.086 C 
ATOM     16  C   UNL     1      61.770  84.578  71.169  1.00  0.00     0.140 CG0
ATOM     17  C   UNL     1      60.441  84.671  69.183  1.00  0.00    -0.010 C 
ATOM     18  C   UNL     1      62.117  83.525  70.138  1.00  0.00     0.190 C 
ATOM     19  G   UNL     1      62.997  85.345  71.658  1.00  0.00     0.000 G0
ATOM     20  C   UNL     1      61.189  83.579  68.993  1.00  0.00    -0.008 C 
ATOM     21  O   UNL     1      63.009  82.697  70.245  1.00  0.00    -0.291 OA
ATOM     22  C   UNL     1      61.189  82.608  67.880  1.00  0.00     0.048 C 
BRANCH  16  23
ATOM     23  O   UNL     1      61.168  83.839  72.219  1.00  0.00    -0.381 OA
ATOM     24  H   UNL     1      61.853  83.295  72.643  1.00  0.00     0.212 HD
ENDBRANCH  16  23
ENDBRANCH   6  15
BRANCH   7  25
ATOM     25  C   UNL     1      58.127  89.396  70.211  1.00  0.00     0.135 C 
BRANCH  25  26
ATOM     26  C   UNL     1      56.655  89.446  69.887  1.00  0.00    -0.040 A 
ATOM     27  C   UNL     1      56.142  88.662  68.853  1.00  0.00     0.004 A 
ATOM     28  C   UNL     1      55.807  90.275  70.621  1.00  0.00     0.004 A 
ATOM     29  C   UNL     1      54.780  88.708  68.553  1.00  0.00     0.000 A 
ATOM     30  C   UNL     1      54.445  90.321  70.321  1.00  0.00     0.000 A 
ATOM     31  C   UNL     1      53.932  89.537  69.287  1.00  0.00     0.000 A 
ENDBRANCH  25  26
ENDBRANCH   7  25
BRANCH  14  32
ATOM     32  C   UNL     1      56.791  87.655  74.062  1.00  0.00    -0.046 C 
ATOM     33  C   UNL     1      56.286  86.621  75.023  1.00  0.00     0.042 C 
ATOM     34  C   UNL     1      56.454  88.949  74.173  1.00  0.00     0.010 C 
ENDBRANCH  14  32
ENDBRANCH   3   4
BRANCH   2  35
ATOM     35  C   UNL     1      62.999  85.360  71.647  1.00  0.00     0.078 CG0
ATOM     36  G   UNL     1      61.772  84.582  71.175  1.00  0.00     0.000 G0
ENDBRANCH   2  35
ENDBRANCH   1   2
BRANCH   1  37
ATOM     37  O   UNL     1      64.058  87.947  73.871  1.00  0.00    -0.461 OA
BRANCH  37  38
ATOM     38  C   UNL     1      65.083  87.472  74.656  1.00  0.00     0.310 C 
ATOM     39  O   UNL     1      66.197  87.169  74.250  1.00  0.00    -0.252 OA
BRANCH  38  40
ATOM     40  C   UNL     1      64.620  87.383  76.091  1.00  0.00     0.158 C 
BRANCH  40  41
ATOM     41  C   UNL     1      63.169  86.996  76.218  1.00  0.00    -0.033 A 
ATOM     42  C   UNL     1      62.264  87.871  76.820  1.00  0.00     0.054 A 
ATOM     43  C   UNL     1      62.730  85.764  75.733  1.00  0.00     0.008 A 
ATOM     44  C   UNL     1      60.920  87.512  76.937  1.00  0.00     0.160 A 
ATOM     45  C   UNL     1      61.387  85.406  75.850  1.00  0.00     0.050 A 
ATOM     46  C   UNL     1      60.482  86.279  76.452  1.00  0.00     0.157 A 
BRANCH  44  47
ATOM     47  O   UNL     1      60.046  88.374  77.528  1.00  0.00    -0.493 OA
ATOM     48  C   UNL     1      60.147  88.532  78.942  1.00  0.00     0.278 C 
ENDBRANCH  44  47
BRANCH  46  49
ATOM     49  O   UNL     1      59.173  85.920  76.560  1.00  0.00    -0.504 OA
ATOM     50  H   UNL     1      59.024  85.109  76.045  1.00  0.00     0.293 HD
ENDBRANCH  46  49
ENDBRANCH  40  41
ENDBRANCH  38  40
ENDBRANCH  37  38
ENDBRANCH   1  37
TORSDOF 11
ENDMDL
MODEL 2
REMARK VINA RESULT:    -5.852     29.594     32.867
REMARK INTER + INTRA:         -12.400
REMARK INTER:                 -10.644
REMARK INTRA:                  -1.756
REMARK UNBOUND:                -2.101
REMARK SMILES C=C(C)[C@]12C[C@@H](C)[C@@]34O[C@](Cc5ccccc5)(O[C@@H]1[C@@H]3C=C(COC(=O)Cc1ccc(O)c(OC)c1)C[C@]1(O)C(=O)C(C)=C[C@@H]41)O2
REMARK SMILES IDX 23 1 22 2 21 3 20 4 9 5 8 6 10 7 6 8 18 9 46 10 19 11 5 12
REMARK SMILES IDX 7 13 4 14 45 15 38 16 44 17 40 18 42 20 41 21 43 22 39 23
REMARK SMILES IDX 11 25 12 26 13 27 17 28 14 29 16 30 15 31 2 32 3 33 1 34
REMARK SMILES IDX 37 35 24 37 25 38 26 39 27 40 28 41 36 42 29 43 33 44 30 45
REMARK SMILES IDX 31 46 34 47 35 48 32 49
REMARK H PARENT 39 24 32 50
REMARK Flexibility Score: 90.00
ROOT
ATOM      1  C   UNL     1      82.440  66.784  76.301  1.00  0.00     0.264 C 
ENDROOT
BRANCH   1   2
ATOM      2  C   UNL     1      83.943  66.759  76.148  1.00  0.00    -0.033 C 
ATOM      3  C   UNL     1      84.486  66.997  74.937  1.00  0.00    -0.015 C 
BRANCH   3   4
ATOM      4  C   UNL     1      85.944  66.954  74.508  1.00  0.00     0.078 C 
ATOM      5  O   UNL     1      86.830  69.253  74.738  1.00  0.00    -0.319 OA
ATOM      6  C   UNL     1      86.970  67.891  75.249  1.00  0.00     0.095 C 
ATOM      7  C   UNL     1      86.680  69.363  73.310  1.00  0.00     0.289 C 
ATOM      8  C   UNL     1      88.427  67.358  74.926  1.00  0.00     0.023 C 
ATOM      9  O   UNL     1      85.555  68.619  72.849  1.00  0.00    -0.320 OA
ATOM     10  O   UNL     1      87.803  68.838  72.607  1.00  0.00    -0.313 OA
ATOM     11  C   UNL     1      86.058  67.282  72.999  1.00  0.00     0.170 C 
ATOM     12  C   UNL     1      88.506  66.745  73.493  1.00  0.00     0.049 C 
ATOM     13  C   UNL     1      89.559  68.381  75.108  1.00  0.00     0.011 C 
ATOM     14  C   UNL     1      87.529  67.424  72.533  1.00  0.00     0.122 C 
BRANCH   6  15
ATOM     15  C   UNL     1      86.620  68.005  76.761  1.00  0.00     0.086 C 
ATOM     16  C   UNL     1      86.206  66.696  77.464  1.00  0.00     0.140 CG0
ATOM     17  C   UNL     1      87.623  68.608  77.706  1.00  0.00    -0.010 C 
ATOM     18  C   UNL     1      86.765  66.884  78.859  1.00  0.00     0.190 C 
ATOM     19  G   UNL     1      84.692  66.494  77.463  1.00  0.00     0.000 G0
ATOM     20  C   UNL     1      87.708  68.018  78.902  1.00  0.00    -0.008 C 
ATOM     21  O   UNL     1      86.520  66.173  79.822  1.00  0.00    -0.291 OA
ATOM     22  C   UNL     1      88.509  68.383  80.088  1.00  0.00     0.048 C 
BRANCH  16  23
ATOM     23  O   UNL     1      86.882  65.547  76.982  1.00  0.00    -0.381 OA
ATOM     24  H   UNL     1      86.479  65.286  76.137  1.00  0.00     0.212 HD
ENDBRANCH  16  23
ENDBRANCH   6  15
BRANCH   7  25
ATOM     25  C   UNL     1      86.504  70.827  72.962  1.00  0.00     0.135 C 
BRANCH  25  26
ATOM     26  C   UNL     1      87.266  71.208  71.717  1.00  0.00    -0.040 A 
ATOM     27  C   UNL     1      86.649  71.124  70.469  1.00  0.00     0.004 A 
ATOM     28  C   UNL     1      88.587  71.646  71.815  1.00  0.00     0.004 A 
ATOM     29  C   UNL     1      87.354  71.477  69.317  1.00  0.00     0.000 A 
ATOM     30  C   UNL     1      89.292  71.998  70.663  1.00  0.00     0.000 A 
ATOM     31  C   UNL     1      88.675  71.913  69.415  1.00  0.00     0.000 A 
ENDBRANCH  25  26
ENDBRANCH   7  25
BRANCH  14  32
ATOM     32  C   UNL     1      87.714  66.982  71.118  1.00  0.00    -0.046 C 
ATOM     33  C   UNL     1      86.907  65.794  70.684  1.00  0.00     0.042 C 
ATOM     34  C   UNL     1      88.554  67.611  70.282  1.00  0.00     0.010 C 
ENDBRANCH  14  32
ENDBRANCH   3   4
BRANCH   2  35
ATOM     35  C   UNL     1      84.668  66.461  77.446  1.00  0.00     0.078 CG0
ATOM     36  G   UNL     1      86.178  66.694  77.473  1.00  0.00     0.000 G0
ENDBRANCH   2  35
ENDBRANCH   1   2
BRANCH   1  37
ATOM     37  O   UNL     1      81.856  65.961  75.314  1.00  0.00    -0.461 OA
BRANCH  37  38
ATOM     38  C   UNL     1      81.241  66.608  74.267  1.00  0.00     0.310 C 
ATOM     39  O   UNL     1      81.179  67.822  74.132  1.00  0.00    -0.252 OA
BRANCH  38  40
ATOM     40  C   UNL     1      80.658  65.589  73.317  1.00  0.00     0.158 C 
BRANCH  40  41
ATOM     41  C   UNL     1      81.541  65.325  72.124  1.00  0.00    -0.033 A 
ATOM     42  C   UNL     1      81.058  65.555  70.835  1.00  0.00     0.054 A 
ATOM     43  C   UNL     1      82.839  64.851  72.309  1.00  0.00     0.008 A 
ATOM     44  C   UNL     1      81.875  65.311  69.731  1.00  0.00     0.160 A 
ATOM     45  C   UNL     1      83.656  64.606  71.205  1.00  0.00     0.050 A 
ATOM     46  C   UNL     1      83.175  64.835  69.916  1.00  0.00     0.157 A 
BRANCH  44  47
ATOM     47  O   UNL     1      81.394  65.539  68.478  1.00  0.00    -0.493 OA
ATOM     48  C   UNL     1      81.840  66.722  67.817  1.00  0.00     0.278 C 
ENDBRANCH  44  47
BRANCH  46  49
ATOM     49  O   UNL     1      83.982  64.594  68.846  1.00  0.00    -0.504 OA
ATOM     50  H   UNL     1      84.035  65.398  68.302  1.00  0.00     0.293 HD
ENDBRANCH  46  49
ENDBRANCH  40  41
ENDBRANCH  38  40
ENDBRANCH  37  38
ENDBRANCH   1  37
TORSDOF 11
ENDMDL
MODEL 3
REMARK VINA RESULT:    -5.507     29.000     32.870
REMARK INTER + INTRA:         -11.793
REMARK INTER:                  -9.930
REMARK INTRA:                  -1.863
REMARK UNBOUND:                -2.101
REMARK SMILES C=C(C)[C@]12C[C@@H](C)[C@@]34O[C@](Cc5ccccc5)(O[C@@H]1[C@@H]3C=C(COC(=O)Cc1ccc(O)c(OC)c1)C[C@]1(O)C(=O)C(C)=C[C@@H]41)O2
REMARK SMILES IDX 23 1 22 2 21 3 20 4 9 5 8 6 10 7 6 8 18 9 46 10 19 11 5 12
REMARK SMILES IDX 7 13 4 14 45 15 38 16 44 17 40 18 42 20 41 21 43 22 39 23
REMARK SMILES IDX 11 25 12 26 13 27 17 28 14 29 16 30 15 31 2 32 3 33 1 34
REMARK SMILES IDX 37 35 24 37 25 38 26 39 27 40 28 41 36 42 29 43 33 44 30 45
REMARK SMILES IDX 31 46 34 47 35 48 32 49
REMARK H PARENT 39 24 32 50
REMARK Flexibility Score: 90.00
ROOT
ATOM      1  C   UNL     1      82.800  67.466  74.861  1.00  0.00     0.264 C 
ENDROOT
BRANCH   1   2
ATOM      2  C   UNL     1      84.311  67.471  74.838  1.00  0.00    -0.033 C 
ATOM      3  C   UNL     1      84.952  67.586  73.658  1.00  0.00    -0.015 C 
BRANCH   3   4
ATOM      4  C   UNL     1      86.442  67.540  73.361  1.00  0.00     0.078 C 
ATOM      5  O   UNL     1      87.261  69.873  73.426  1.00  0.00    -0.319 OA
ATOM      6  C   UNL     1      87.382  68.575  74.085  1.00  0.00     0.095 C 
ATOM      7  C   UNL     1      87.235  69.833  71.986  1.00  0.00     0.289 C 
ATOM      8  C   UNL     1      88.871  68.052  73.943  1.00  0.00     0.023 C 
ATOM      9  O   UNL     1      86.169  69.015  71.511  1.00  0.00    -0.320 OA
ATOM     10  O   UNL     1      88.424  69.271  71.439  1.00  0.00    -0.313 OA
ATOM     11  C   UNL     1      86.681  67.715  71.841  1.00  0.00     0.170 C 
ATOM     12  C   UNL     1      89.086  67.299  72.594  1.00  0.00     0.049 C 
ATOM     13  C   UNL     1      89.964  69.119  74.114  1.00  0.00     0.011 C 
ATOM     14  C   UNL     1      88.184  67.850  71.489  1.00  0.00     0.122 C 
BRANCH   6  15
ATOM     15  C   UNL     1      86.899  68.833  75.542  1.00  0.00     0.086 C 
ATOM     16  C   UNL     1      86.448  67.591  76.339  1.00  0.00     0.140 CG0
ATOM     17  C   UNL     1      87.805  69.554  76.501  1.00  0.00    -0.010 C 
ATOM     18  C   UNL     1      86.880  67.935  77.749  1.00  0.00     0.190 C 
ATOM     19  G   UNL     1      84.944  67.351  76.229  1.00  0.00     0.000 G0
ATOM     20  C   UNL     1      87.796  69.091  77.755  1.00  0.00    -0.008 C 
ATOM     21  O   UNL     1      86.564  67.319  78.756  1.00  0.00    -0.291 OA
ATOM     22  C   UNL     1      88.484  69.596  78.961  1.00  0.00     0.048 C 
BRANCH  16  23
ATOM     23  O   UNL     1      87.184  66.417  76.037  1.00  0.00    -0.381 OA
ATOM     24  H   UNL     1      88.128  66.604  76.167  1.00  0.00     0.212 HD
ENDBRANCH  16  23
ENDBRANCH   6  15
BRANCH   7  25
ATOM     25  C   UNL     1      87.062  71.249  71.474  1.00  0.00     0.135 C 
BRANCH  25  26
ATOM     26  C   UNL     1      87.773  71.466  70.162  1.00  0.00    -0.040 A 
ATOM     27  C   UNL     1      89.014  72.103  70.139  1.00  0.00     0.004 A 
ATOM     28  C   UNL     1      87.191  71.030  68.972  1.00  0.00     0.004 A 
ATOM     29  C   UNL     1      89.673  72.304  68.925  1.00  0.00     0.000 A 
ATOM     30  C   UNL     1      87.849  71.231  67.758  1.00  0.00     0.000 A 
ATOM     31  C   UNL     1      89.090  71.868  67.736  1.00  0.00     0.000 A 
ENDBRANCH  25  26
ENDBRANCH   7  25
BRANCH  14  32
ATOM     32  C   UNL     1      88.500  67.271  70.149  1.00  0.00    -0.046 C 
ATOM     33  C   UNL     1      89.439  68.065  69.289  1.00  0.00     0.042 C 
ATOM     34  C   UNL     1      87.974  66.108  69.736  1.00  0.00     0.010 C 
ENDBRANCH  14  32
ENDBRANCH   3   4
BRANCH   2  35
ATOM     35  C   UNL     1      84.926  67.348  76.219  1.00  0.00     0.078 CG0
ATOM     36  G   UNL     1      86.426  67.613  76.342  1.00  0.00     0.000 G0
ENDBRANCH   2  35
ENDBRANCH   1   2
BRANCH   1  37
ATOM     37  O   UNL     1      82.313  67.402  73.537  1.00  0.00    -0.461 OA
BRANCH  37  38
ATOM     38  C   UNL     1      80.978  67.103  73.394  1.00  0.00     0.310 C 
ATOM     39  O   UNL     1      80.055  67.816  73.763  1.00  0.00    -0.252 OA
BRANCH  38  40
ATOM     40  C   UNL     1      80.831  65.763  72.712  1.00  0.00     0.158 C 
BRANCH  40  41
ATOM     41  C   UNL     1      81.462  65.728  71.344  1.00  0.00    -0.033 A 
ATOM     42  C   UNL     1      82.766  65.256  71.189  1.00  0.00     0.054 A 
ATOM     43  C   UNL     1      80.742  66.165  70.232  1.00  0.00     0.008 A 
ATOM     44  C   UNL     1      83.350  65.223  69.923  1.00  0.00     0.160 A 
ATOM     45  C   UNL     1      81.326  66.132  68.966  1.00  0.00     0.050 A 
ATOM     46  C   UNL     1      82.630  65.661  68.811  1.00  0.00     0.157 A 
BRANCH  44  47
ATOM     47  O   UNL     1      84.624  64.761  69.784  1.00  0.00    -0.493 OA
ATOM     48  C   UNL     1      85.015  63.676  70.625  1.00  0.00     0.278 C 
ENDBRANCH  44  47
BRANCH  46  49
ATOM     49  O   UNL     1      83.189  65.632  67.569  1.00  0.00    -0.504 OA
ATOM     50  H   UNL     1      82.679  65.026  67.006  1.00  0.00     0.293 HD
ENDBRANCH  46  49
ENDBRANCH  40  41
ENDBRANCH  38  40
ENDBRANCH  37  38
ENDBRANCH   1  37
TORSDOF 11
ENDMDL
MODEL 4
REMARK VINA RESULT:    -5.413     31.997     37.530
REMARK INTER + INTRA:         -11.627
REMARK INTER:                  -9.590
REMARK INTRA:                  -2.037
REMARK UNBOUND:                -2.101
REMARK SMILES C=C(C)[C@]12C[C@@H](C)[C@@]34O[C@](Cc5ccccc5)(O[C@@H]1[C@@H]3C=C(COC(=O)Cc1ccc(O)c(OC)c1)C[C@]1(O)C(=O)C(C)=C[C@@H]41)O2
REMARK SMILES IDX 23 1 22 2 21 3 20 4 9 5 8 6 10 7 6 8 18 9 46 10 19 11 5 12
REMARK SMILES IDX 7 13 4 14 45 15 38 16 44 17 40 18 42 20 41 21 43 22 39 23
REMARK SMILES IDX 11 25 12 26 13 27 17 28 14 29 16 30 15 31 2 32 3 33 1 34
REMARK SMILES IDX 37 35 24 37 25 38 26 39 27 40 28 41 36 42 29 43 33 44 30 45
REMARK SMILES IDX 31 46 34 47 35 48 32 49
REMARK H PARENT 39 24 32 50
REMARK Flexibility Score: 90.00
ROOT
ATOM      1  C   UNL     1      93.664  81.702  87.913  1.00  0.00     0.264 C 
ENDROOT
BRANCH   1   2
ATOM      2  C   UNL     1      94.651  80.911  87.087  1.00  0.00    -0.033 C 
ATOM      3  C   UNL     1      94.742  79.578  87.267  1.00  0.00    -0.015 C 
BRANCH   3   4
ATOM      4  C   UNL     1      95.695  78.581  86.627  1.00  0.00     0.078 C 
ATOM      5  O   UNL     1      94.564  77.693  84.615  1.00  0.00    -0.319 OA
ATOM      6  C   UNL     1      95.719  78.470  85.057  1.00  0.00     0.095 C 
ATOM      7  C   UNL     1      94.272  76.521  85.399  1.00  0.00     0.289 C 
ATOM      8  C   UNL     1      97.049  77.709  84.651  1.00  0.00     0.023 C 
ATOM      9  O   UNL     1      94.060  76.854  86.768  1.00  0.00    -0.320 OA
ATOM     10  O   UNL     1      95.347  75.585  85.393  1.00  0.00    -0.313 OA
ATOM     11  C   UNL     1      95.406  77.158  87.165  1.00  0.00     0.170 C 
ATOM     12  C   UNL     1      97.450  76.649  85.721  1.00  0.00     0.049 C 
ATOM     13  C   UNL     1      97.034  77.053  83.261  1.00  0.00     0.011 C 
ATOM     14  C   UNL     1      96.226  76.068  86.430  1.00  0.00     0.122 C 
BRANCH   6  15
ATOM     15  C   UNL     1      95.521  79.868  84.402  1.00  0.00     0.086 C 
ATOM     16  C   UNL     1      96.288  81.038  85.052  1.00  0.00     0.140 CG0
ATOM     17  C   UNL     1      95.800  80.039  82.935  1.00  0.00    -0.010 C 
ATOM     18  C   UNL     1      96.621  81.911  83.861  1.00  0.00     0.190 C 
ATOM     19  G   UNL     1      95.447  81.769  86.097  1.00  0.00     0.000 G0
ATOM     20  C   UNL     1      96.392  81.189  82.595  1.00  0.00    -0.008 C 
ATOM     21  O   UNL     1      97.070  83.046  83.918  1.00  0.00    -0.291 OA
ATOM     22  C   UNL     1      96.735  81.725  81.262  1.00  0.00     0.048 C 
BRANCH  16  23
ATOM     23  O   UNL     1      97.557  80.675  85.571  1.00  0.00    -0.381 OA
ATOM     24  H   UNL     1      98.141  80.454  84.827  1.00  0.00     0.212 HD
ENDBRANCH  16  23
ENDBRANCH   6  15
BRANCH   7  25
ATOM     25  C   UNL     1      93.029  75.866  84.833  1.00  0.00     0.135 C 
BRANCH  25  26
ATOM     26  C   UNL     1      92.179  75.239  85.910  1.00  0.00    -0.040 A 
ATOM     27  C   UNL     1      91.060  75.915  86.397  1.00  0.00     0.004 A 
ATOM     28  C   UNL     1      92.511  73.984  86.418  1.00  0.00     0.004 A 
ATOM     29  C   UNL     1      90.274  75.335  87.393  1.00  0.00     0.000 A 
ATOM     30  C   UNL     1      91.725  73.404  87.415  1.00  0.00     0.000 A 
ATOM     31  C   UNL     1      90.607  74.080  87.902  1.00  0.00     0.000 A 
ENDBRANCH  25  26
ENDBRANCH   7  25
BRANCH  14  32
ATOM     32  C   UNL     1      96.570  74.924  87.327  1.00  0.00    -0.046 C 
ATOM     33  C   UNL     1      97.536  75.219  88.435  1.00  0.00     0.042 C 
ATOM     34  C   UNL     1      96.045  73.702  87.151  1.00  0.00     0.010 C 
ENDBRANCH  14  32
ENDBRANCH   3   4
BRANCH   2  35
ATOM     35  C   UNL     1      95.438  81.771  86.116  1.00  0.00     0.078 CG0
ATOM     36  G   UNL     1      96.266  81.047  85.054  1.00  0.00     0.000 G0
ENDBRANCH   2  35
ENDBRANCH   1   2
BRANCH   1  37
ATOM     37  O   UNL     1      92.351  81.325  87.558  1.00  0.00    -0.461 OA
BRANCH  37  38
ATOM     38  C   UNL     1      91.709  82.135  86.650  1.00  0.00     0.310 C 
ATOM     39  O   UNL     1      91.051  83.126  86.934  1.00  0.00    -0.252 OA
BRANCH  38  40
ATOM     40  C   UNL     1      91.943  81.610  85.253  1.00  0.00     0.158 C 
BRANCH  40  41
ATOM     41  C   UNL     1      90.925  80.581  84.833  1.00  0.00    -0.033 A 
ATOM     42  C   UNL     1      89.585  80.944  84.687  1.00  0.00     0.054 A 
ATOM     43  C   UNL     1      91.321  79.266  84.591  1.00  0.00     0.008 A 
ATOM     44  C   UNL     1      88.643  79.992  84.298  1.00  0.00     0.160 A 
ATOM     45  C   UNL     1      90.379  78.313  84.202  1.00  0.00     0.050 A 
ATOM     46  C   UNL     1      89.040  78.676  84.056  1.00  0.00     0.157 A 
BRANCH  44  47
ATOM     47  O   UNL     1      87.339  80.358  84.159  1.00  0.00    -0.493 OA
ATOM     48  C   UNL     1      86.910  81.515  84.876  1.00  0.00     0.278 C 
ENDBRANCH  44  47
BRANCH  46  49
ATOM     49  O   UNL     1      88.129  77.738  83.676  1.00  0.00    -0.504 OA
ATOM     50  H   UNL     1      88.359  77.416  82.788  1.00  0.00     0.293 HD
ENDBRANCH  46  49
ENDBRANCH  40  41
ENDBRANCH  38  40
ENDBRANCH  37  38
ENDBRANCH   1  37
TORSDOF 11
ENDMDL
MODEL 5
REMARK VINA RESULT:    -5.214     33.081     37.709
REMARK INTER + INTRA:         -11.277
REMARK INTER:                 -10.198
REMARK INTRA:                  -1.080
REMARK UNBOUND:                -2.101
REMARK SMILES C=C(C)[C@]12C[C@@H](C)[C@@]34O[C@](Cc5ccccc5)(O[C@@H]1[C@@H]3C=C(COC(=O)Cc1ccc(O)c(OC)c1)C[C@]1(O)C(=O)C(C)=C[C@@H]41)O2
REMARK SMILES IDX 23 1 22 2 21 3 20 4 9 5 8 6 10 7 6 8 18 9 46 10 19 11 5 12
REMARK SMILES IDX 7 13 4 14 45 15 38 16 44 17 40 18 42 20 41 21 43 22 39 23
REMARK SMILES IDX 11 25 12 26 13 27 17 28 14 29 16 30 15 31 2 32 3 33 1 34
REMARK SMILES IDX 37 35 24 37 25 38 26 39 27 40 28 41 36 42 29 43 33 44 30 45
REMARK SMILES IDX 31 46 34 47 35 48 32 49
REMARK H PARENT 39 24 32 50
REMARK Flexibility Score: 90.00
ROOT
ATOM      1  C   UNL     1      96.077  78.682  85.840  1.00  0.00     0.264 C 
ENDROOT
BRANCH   1   2
ATOM      2  C   UNL     1      94.684  78.932  86.367  1.00  0.00    -0.033 C 
ATOM      3  C   UNL     1      94.499  79.861  87.328  1.00  0.00    -0.015 C 
BRANCH   3   4
ATOM      4  C   UNL     1      93.228  80.242  88.070  1.00  0.00     0.078 C 
ATOM      5  O   UNL     1      92.200  82.114  86.822  1.00  0.00    -0.319 OA
ATOM      6  C   UNL     1      91.988  80.727  87.230  1.00  0.00     0.095 C 
ATOM      7  C   UNL     1      92.745  82.979  87.837  1.00  0.00     0.289 C 
ATOM      8  C   UNL     1      90.713  80.646  88.167  1.00  0.00     0.023 C 
ATOM      9  O   UNL     1      93.991  82.484  88.323  1.00  0.00    -0.320 OA
ATOM     10  O   UNL     1      91.898  83.075  88.979  1.00  0.00    -0.313 OA
ATOM     11  C   UNL     1      93.533  81.363  89.094  1.00  0.00     0.170 C 
ATOM     12  C   UNL     1      91.077  80.946  89.654  1.00  0.00     0.049 C 
ATOM     13  C   UNL     1      89.526  81.526  87.744  1.00  0.00     0.011 C 
ATOM     14  C   UNL     1      92.252  81.918  89.764  1.00  0.00     0.122 C 
BRANCH   6  15
ATOM     15  C   UNL     1      91.886  79.940  85.892  1.00  0.00     0.086 C 
ATOM     16  C   UNL     1      92.135  78.420  85.976  1.00  0.00     0.140 CG0
ATOM     17  C   UNL     1      90.631  80.043  85.071  1.00  0.00    -0.010 C 
ATOM     18  C   UNL     1      91.194  77.876  84.922  1.00  0.00     0.190 C 
ATOM     19  G   UNL     1      93.594  78.058  85.700  1.00  0.00     0.000 G0
ATOM     20  C   UNL     1      90.231  78.907  84.490  1.00  0.00    -0.008 C 
ATOM     21  O   UNL     1      91.182  76.727  84.508  1.00  0.00    -0.291 OA
ATOM     22  C   UNL     1      89.110  78.656  83.562  1.00  0.00     0.048 C 
BRANCH  16  23
ATOM     23  O   UNL     1      91.674  77.829  87.179  1.00  0.00    -0.381 OA
ATOM     24  H   UNL     1      90.757  77.535  87.046  1.00  0.00     0.212 HD
ENDBRANCH  16  23
ENDBRANCH   6  15
BRANCH   7  25
ATOM     25  C   UNL     1      92.941  84.355  87.234  1.00  0.00     0.135 C 
BRANCH  25  26
ATOM     26  C   UNL     1      94.003  85.144  87.959  1.00  0.00    -0.040 A 
ATOM     27  C   UNL     1      93.715  85.738  89.188  1.00  0.00     0.004 A 
ATOM     28  C   UNL     1      95.274  85.278  87.401  1.00  0.00     0.004 A 
ATOM     29  C   UNL     1      94.697  86.467  89.858  1.00  0.00     0.000 A 
ATOM     30  C   UNL     1      96.257  86.007  88.071  1.00  0.00     0.000 A 
ATOM     31  C   UNL     1      95.968  86.602  89.300  1.00  0.00     0.000 A 
ENDBRANCH  25  26
ENDBRANCH   7  25
BRANCH  14  32
ATOM     32  C   UNL     1      92.501  82.361  91.169  1.00  0.00    -0.046 C 
ATOM     33  C   UNL     1      91.793  83.610  91.605  1.00  0.00     0.042 C 
ATOM     34  C   UNL     1      93.311  81.682  91.994  1.00  0.00     0.010 C 
ENDBRANCH  14  32
ENDBRANCH   3   4
BRANCH   2  35
ATOM     35  C   UNL     1      93.632  78.065  85.703  1.00  0.00     0.078 CG0
ATOM     36  G   UNL     1      92.168  78.401  85.986  1.00  0.00     0.000 G0
ENDBRANCH   2  35
ENDBRANCH   1   2
BRANCH   1  37
ATOM     37  O   UNL     1      96.256  79.394  84.635  1.00  0.00    -0.461 OA
BRANCH  37  38
ATOM     38  C   UNL     1      97.218  80.377  84.646  1.00  0.00     0.310 C 
ATOM     39  O   UNL     1      98.030  80.555  85.543  1.00  0.00    -0.252 OA
BRANCH  38  40
ATOM     40  C   UNL     1      97.117  81.197  83.381  1.00  0.00     0.158 C 
BRANCH  40  41
ATOM     41  C   UNL     1      97.850  80.579  82.219  1.00  0.00    -0.033 A 
ATOM     42  C   UNL     1      97.511  80.934  80.912  1.00  0.00     0.054 A 
ATOM     43  C   UNL     1      98.867  79.653  82.448  1.00  0.00     0.008 A 
ATOM     44  C   UNL     1      98.190  80.362  79.836  1.00  0.00     0.160 A 
ATOM     45  C   UNL     1      99.546  79.081  81.372  1.00  0.00     0.050 A 
ATOM     46  C   UNL     1      99.207  79.434  80.066  1.00  0.00     0.157 A 
BRANCH  44  47
ATOM     47  O   UNL     1      97.850  80.715  78.565  1.00  0.00    -0.493 OA
ATOM     48  C   UNL     1      97.435  82.065  78.357  1.00  0.00     0.278 C 
ENDBRANCH  44  47
BRANCH  46  49
ATOM     49  O   UNL     1      99.877  78.870  79.024  1.00  0.00    -0.504 OA
ATOM     50  H   UNL     1     100.438  78.151  79.360  1.00  0.00     0.293 HD
ENDBRANCH  46  49
ENDBRANCH  40  41
ENDBRANCH  38  40
ENDBRANCH  37  38
ENDBRANCH   1  37
TORSDOF 11
ENDMDL
MODEL 6
REMARK VINA RESULT:    -4.976     29.318     33.350
REMARK INTER + INTRA:         -10.860
REMARK INTER:                  -8.825
REMARK INTRA:                  -2.034
REMARK UNBOUND:                -2.101
REMARK SMILES C=C(C)[C@]12C[C@@H](C)[C@@]34O[C@](Cc5ccccc5)(O[C@@H]1[C@@H]3C=C(COC(=O)Cc1ccc(O)c(OC)c1)C[C@]1(O)C(=O)C(C)=C[C@@H]41)O2
REMARK SMILES IDX 23 1 22 2 21 3 20 4 9 5 8 6 10 7 6 8 18 9 46 10 19 11 5 12
REMARK SMILES IDX 7 13 4 14 45 15 38 16 44 17 40 18 42 20 41 21 43 22 39 23
REMARK SMILES IDX 11 25 12 26 13 27 17 28 14 29 16 30 15 31 2 32 3 33 1 34
REMARK SMILES IDX 37 35 24 37 25 38 26 39 27 40 28 41 36 42 29 43 33 44 30 45
REMARK SMILES IDX 31 46 34 47 35 48 32 49
REMARK H PARENT 39 24 32 50
REMARK Flexibility Score: 90.00
ROOT
ATOM      1  C   UNL     1      86.872  65.512  71.306  1.00  0.00     0.264 C 
ENDROOT
BRANCH   1   2
ATOM      2  C   UNL     1      87.588  66.521  72.173  1.00  0.00    -0.033 C 
ATOM      3  C   UNL     1      86.926  67.618  72.592  1.00  0.00    -0.015 C 
BRANCH   3   4
ATOM      4  C   UNL     1      87.434  68.803  73.396  1.00  0.00     0.078 C 
ATOM      5  O   UNL     1      87.015  68.290  75.780  1.00  0.00    -0.319 OA
ATOM      6  C   UNL     1      88.078  68.530  74.807  1.00  0.00     0.095 C 
ATOM      7  C   UNL     1      85.880  69.171  75.683  1.00  0.00     0.289 C 
ATOM      8  C   UNL     1      88.887  69.827  75.224  1.00  0.00     0.023 C 
ATOM      9  O   UNL     1      85.290  69.114  74.386  1.00  0.00    -0.320 OA
ATOM     10  O   UNL     1      86.237  70.537  75.883  1.00  0.00    -0.313 OA
ATOM     11  C   UNL     1      86.285  69.816  73.625  1.00  0.00     0.170 C 
ATOM     12  C   UNL     1      88.206  71.123  74.684  1.00  0.00     0.049 C 
ATOM     13  C   UNL     1      89.156  69.981  76.730  1.00  0.00     0.011 C 
ATOM     14  C   UNL     1      86.689  70.965  74.582  1.00  0.00     0.122 C 
BRANCH   6  15
ATOM     15  C   UNL     1      88.898  67.207  74.792  1.00  0.00     0.086 C 
ATOM     16  C   UNL     1      89.770  66.962  73.544  1.00  0.00     0.140 CG0
ATOM     17  C   UNL     1      89.827  66.904  75.934  1.00  0.00    -0.010 C 
ATOM     18  C   UNL     1      90.966  66.233  74.120  1.00  0.00     0.190 C 
ATOM     19  G   UNL     1      89.040  66.140  72.482  1.00  0.00     0.000 G0
ATOM     20  C   UNL     1      90.986  66.332  75.592  1.00  0.00    -0.008 C 
ATOM     21  O   UNL     1      91.837  65.676  73.469  1.00  0.00    -0.291 OA
ATOM     22  C   UNL     1      92.086  65.828  76.440  1.00  0.00     0.048 C 
BRANCH  16  23
ATOM     23  O   UNL     1      90.327  68.143  72.992  1.00  0.00    -0.381 OA
ATOM     24  H   UNL     1      91.125  68.371  73.496  1.00  0.00     0.212 HD
ENDBRANCH  16  23
ENDBRANCH   6  15
BRANCH   7  25
ATOM     25  C   UNL     1      84.864  68.755  76.727  1.00  0.00     0.135 C 
BRANCH  25  26
ATOM     26  C   UNL     1      85.508  68.043  77.890  1.00  0.00    -0.040 A 
ATOM     27  C   UNL     1      86.005  68.777  78.968  1.00  0.00     0.004 A 
ATOM     28  C   UNL     1      85.606  66.652  77.890  1.00  0.00     0.004 A 
ATOM     29  C   UNL     1      86.600  68.119  80.045  1.00  0.00     0.000 A 
ATOM     30  C   UNL     1      86.202  65.994  78.966  1.00  0.00     0.000 A 
ATOM     31  C   UNL     1      86.699  66.728  80.043  1.00  0.00     0.000 A 
ENDBRANCH  25  26
ENDBRANCH   7  25
BRANCH  14  32
ATOM     32  C   UNL     1      86.000  72.246  74.243  1.00  0.00    -0.046 C 
ATOM     33  C   UNL     1      85.056  72.202  73.078  1.00  0.00     0.042 C 
ATOM     34  C   UNL     1      86.213  73.373  74.940  1.00  0.00     0.010 C 
ENDBRANCH  14  32
ENDBRANCH   3   4
BRANCH   2  35
ATOM     35  C   UNL     1      89.024  66.135  72.472  1.00  0.00     0.078 CG0
ATOM     36  G   UNL     1      89.761  66.952  73.533  1.00  0.00     0.000 G0
ENDBRANCH   2  35
ENDBRANCH   1   2
BRANCH   1  37
ATOM     37  O   UNL     1      86.526  64.388  72.085  1.00  0.00    -0.461 OA
BRANCH  37  38
ATOM     38  C   UNL     1      85.181  64.140  72.233  1.00  0.00     0.310 C 
ATOM     39  O   UNL     1      84.436  63.754  71.343  1.00  0.00    -0.252 OA
BRANCH  38  40
ATOM     40  C   UNL     1      84.771  64.417  73.660  1.00  0.00     0.158 C 
BRANCH  40  41
ATOM     41  C   UNL     1      83.556  65.304  73.760  1.00  0.00    -0.033 A 
ATOM     42  C   UNL     1      82.376  64.809  74.317  1.00  0.00     0.054 A 
ATOM     43  C   UNL     1      83.612  66.618  73.298  1.00  0.00     0.008 A 
ATOM     44  C   UNL     1      81.252  65.630  74.410  1.00  0.00     0.160 A 
ATOM     45  C   UNL     1      82.488  67.439  73.391  1.00  0.00     0.050 A 
ATOM     46  C   UNL     1      81.308  66.945  73.947  1.00  0.00     0.157 A 
BRANCH  44  47
ATOM     47  O   UNL     1      80.105  65.136  74.954  1.00  0.00    -0.493 OA
ATOM     48  C   UNL     1      79.868  65.417  76.332  1.00  0.00     0.278 C 
ENDBRANCH  44  47
BRANCH  46  49
ATOM     49  O   UNL     1      80.217  67.756  74.033  1.00  0.00    -0.504 OA
ATOM     50  H   UNL     1      79.563  67.345  74.623  1.00  0.00     0.293 HD
ENDBRANCH  46  49
ENDBRANCH  40  41
ENDBRANCH  38  40
ENDBRANCH  37  38
ENDBRANCH   1  37
TORSDOF 11
ENDMDL
MODEL 7
REMARK VINA RESULT:    -4.835     32.643     37.080
REMARK INTER + INTRA:         -10.611
REMARK INTER:                  -7.486
REMARK INTRA:                  -3.125
REMARK UNBOUND:                -2.101
REMARK SMILES C=C(C)[C@]12C[C@@H](C)[C@@]34O[C@](Cc5ccccc5)(O[C@@H]1[C@@H]3C=C(COC(=O)Cc1ccc(O)c(OC)c1)C[C@]1(O)C(=O)C(C)=C[C@@H]41)O2
REMARK SMILES IDX 23 1 22 2 21 3 20 4 9 5 8 6 10 7 6 8 18 9 46 10 19 11 5 12
REMARK SMILES IDX 7 13 4 14 45 15 38 16 44 17 40 18 42 20 41 21 43 22 39 23
REMARK SMILES IDX 11 25 12 26 13 27 17 28 14 29 16 30 15 31 2 32 3 33 1 34
REMARK SMILES IDX 37 35 24 37 25 38 26 39 27 40 28 41 36 42 29 43 33 44 30 45
REMARK SMILES IDX 31 46 34 47 35 48 32 49
REMARK H PARENT 39 24 32 50
REMARK Flexibility Score: 90.00
ROOT
ATOM      1  C   UNL     1      94.405  77.901  90.739  1.00  0.00     0.264 C 
ENDROOT
BRANCH   1   2
ATOM      2  C   UNL     1      94.292  79.236  90.042  1.00  0.00    -0.033 C 
ATOM      3  C   UNL     1      94.605  79.325  88.733  1.00  0.00    -0.015 C 
BRANCH   3   4
ATOM      4  C   UNL     1      94.649  80.549  87.833  1.00  0.00     0.078 C 
ATOM      5  O   UNL     1      92.431  80.728  86.753  1.00  0.00    -0.319 OA
ATOM      6  C   UNL     1      93.340  81.408  87.673  1.00  0.00     0.095 C 
ATOM      7  C   UNL     1      93.048  80.162  85.582  1.00  0.00     0.289 C 
ATOM      8  C   UNL     1      93.757  82.808  87.058  1.00  0.00     0.023 C 
ATOM      9  O   UNL     1      94.069  79.232  85.934  1.00  0.00    -0.320 OA
ATOM     10  O   UNL     1      93.688  81.149  84.777  1.00  0.00    -0.313 OA
ATOM     11  C   UNL     1      95.082  80.135  86.404  1.00  0.00     0.170 C 
ATOM     12  C   UNL     1      94.969  82.667  86.087  1.00  0.00     0.049 C 
ATOM     13  C   UNL     1      92.629  83.584  86.359  1.00  0.00     0.011 C 
ATOM     14  C   UNL     1      94.983  81.304  85.393  1.00  0.00     0.122 C 
BRANCH   6  15
ATOM     15  C   UNL     1      92.556  81.474  89.016  1.00  0.00     0.086 C 
ATOM     16  C   UNL     1      93.403  81.691  90.287  1.00  0.00     0.140 CG0
ATOM     17  C   UNL     1      91.438  82.467  89.168  1.00  0.00    -0.010 C 
ATOM     18  C   UNL     1      92.485  82.529  91.152  1.00  0.00     0.190 C 
ATOM     19  G   UNL     1      93.790  80.371  90.954  1.00  0.00     0.000 G0
ATOM     20  C   UNL     1      91.354  83.056  90.365  1.00  0.00    -0.008 C 
ATOM     21  O   UNL     1      92.666  82.790  92.331  1.00  0.00    -0.291 OA
ATOM     22  C   UNL     1      90.351  84.005  90.891  1.00  0.00     0.048 C 
BRANCH  16  23
ATOM     23  O   UNL     1      94.534  82.522  90.089  1.00  0.00    -0.381 OA
ATOM     24  H   UNL     1      94.264  83.446  90.221  1.00  0.00     0.212 HD
ENDBRANCH  16  23
ENDBRANCH   6  15
BRANCH   7  25
ATOM     25  C   UNL     1      91.977  79.464  84.770  1.00  0.00     0.135 C 
BRANCH  25  26
ATOM     26  C   UNL     1      90.600  80.005  85.066  1.00  0.00    -0.040 A 
ATOM     27  C   UNL     1      89.731  79.287  85.888  1.00  0.00     0.004 A 
ATOM     28  C   UNL     1      90.196  81.223  84.519  1.00  0.00     0.004 A 
ATOM     29  C   UNL     1      88.458  79.787  86.162  1.00  0.00     0.000 A 
ATOM     30  C   UNL     1      88.923  81.723  84.794  1.00  0.00     0.000 A 
ATOM     31  C   UNL     1      88.054  81.005  85.615  1.00  0.00     0.000 A 
ENDBRANCH  25  26
ENDBRANCH   7  25
BRANCH  14  32
ATOM     32  C   UNL     1      96.025  81.214  84.327  1.00  0.00    -0.046 C 
ATOM     33  C   UNL     1      95.761  81.996  83.074  1.00  0.00     0.042 C 
ATOM     34  C   UNL     1      97.134  80.475  84.480  1.00  0.00     0.010 C 
ENDBRANCH  14  32
ENDBRANCH   3   4
BRANCH   2  35
ATOM     35  C   UNL     1      93.811  80.347  90.956  1.00  0.00     0.078 CG0
ATOM     36  G   UNL     1      93.392  81.661  90.299  1.00  0.00     0.000 G0
ENDBRANCH   2  35
ENDBRANCH   1   2
BRANCH   1  37
ATOM     37  O   UNL     1      93.202  77.630  91.426  1.00  0.00    -0.461 OA
BRANCH  37  38
ATOM     38  C   UNL     1      92.374  76.691  90.856  1.00  0.00     0.310 C 
ATOM     39  O   UNL     1      92.534  75.480  90.924  1.00  0.00    -0.252 OA
BRANCH  38  40
ATOM     40  C   UNL     1      91.244  77.387  90.135  1.00  0.00     0.158 C 
BRANCH  40  41
ATOM     41  C   UNL     1      90.995  76.831  88.756  1.00  0.00    -0.033 A 
ATOM     42  C   UNL     1      92.039  76.764  87.833  1.00  0.00     0.054 A 
ATOM     43  C   UNL     1      89.722  76.384  88.404  1.00  0.00     0.008 A 
ATOM     44  C   UNL     1      91.809  76.250  86.557  1.00  0.00     0.160 A 
ATOM     45  C   UNL     1      89.492  75.870  87.127  1.00  0.00     0.050 A 
ATOM     46  C   UNL     1      90.535  75.803  86.204  1.00  0.00     0.157 A 
BRANCH  44  47
ATOM     47  O   UNL     1      92.836  76.189  85.664  1.00  0.00    -0.493 OA
ATOM     48  C   UNL     1      94.055  75.603  86.117  1.00  0.00     0.278 C 
ENDBRANCH  44  47
BRANCH  46  49
ATOM     49  O   UNL     1      90.298  75.298  84.961  1.00  0.00    -0.504 OA
ATOM     50  H   UNL     1      89.350  75.376  84.763  1.00  0.00     0.293 HD
ENDBRANCH  46  49
ENDBRANCH  40  41
ENDBRANCH  38  40
ENDBRANCH  37  38
ENDBRANCH   1  37
TORSDOF 11
ENDMDL
MODEL 8
REMARK VINA RESULT:    -4.792     36.100     40.651
REMARK INTER + INTRA:         -10.535
REMARK INTER:                 -10.064
REMARK INTRA:                  -0.471
REMARK UNBOUND:                -2.101
REMARK SMILES C=C(C)[C@]12C[C@@H](C)[C@@]34O[C@](Cc5ccccc5)(O[C@@H]1[C@@H]3C=C(COC(=O)Cc1ccc(O)c(OC)c1)C[C@]1(O)C(=O)C(C)=C[C@@H]41)O2
REMARK SMILES IDX 23 1 22 2 21 3 20 4 9 5 8 6 10 7 6 8 18 9 46 10 19 11 5 12
REMARK SMILES IDX 7 13 4 14 45 15 38 16 44 17 40 18 42 20 41 21 43 22 39 23
REMARK SMILES IDX 11 25 12 26 13 27 17 28 14 29 16 30 15 31 2 32 3 33 1 34
REMARK SMILES IDX 37 35 24 37 25 38 26 39 27 40 28 41 36 42 29 43 33 44 30 45
REMARK SMILES IDX 31 46 34 47 35 48 32 49
REMARK H PARENT 39 24 32 50
REMARK Flexibility Score: 90.00
ROOT
ATOM      1  C   UNL     1      99.902  77.731  83.186  1.00  0.00     0.264 C 
ENDROOT
BRANCH   1   2
ATOM      2  C   UNL     1     100.425  77.713  81.769  1.00  0.00    -0.033 C 
ATOM      3  C   UNL     1      99.565  77.892  80.746  1.00  0.00    -0.015 C 
BRANCH   3   4
ATOM      4  C   UNL     1      99.822  77.841  79.249  1.00  0.00     0.078 C 
ATOM      5  O   UNL     1     100.344  80.150  78.529  1.00  0.00    -0.319 OA
ATOM      6  C   UNL     1     100.908  78.807  78.642  1.00  0.00     0.095 C 
ATOM      7  C   UNL     1      98.993  80.211  78.034  1.00  0.00     0.289 C 
ATOM      8  C   UNL     1     101.275  78.269  77.198  1.00  0.00     0.023 C 
ATOM      9  O   UNL     1      98.108  79.447  78.851  1.00  0.00    -0.320 OA
ATOM     10  O   UNL     1      98.871  79.667  76.722  1.00  0.00    -0.313 OA
ATOM     11  C   UNL     1      98.507  78.118  78.480  1.00  0.00     0.170 C 
ATOM     12  C   UNL     1     100.044  77.609  76.504  1.00  0.00     0.049 C 
ATOM     13  C   UNL     1     101.903  79.302  76.249  1.00  0.00     0.011 C 
ATOM     14  C   UNL     1      98.730  78.251  76.952  1.00  0.00     0.122 C 
BRANCH   6  15
ATOM     15  C   UNL     1     102.108  78.971  79.619  1.00  0.00     0.086 C 
ATOM     16  C   UNL     1     102.598  77.685  80.317  1.00  0.00     0.140 CG0
ATOM     17  C   UNL     1     103.378  79.606  79.126  1.00  0.00    -0.010 C 
ATOM     18  C   UNL     1     104.089  77.921  80.426  1.00  0.00     0.190 C 
ATOM     19  G   UNL     1     101.937  77.480  81.679  1.00  0.00     0.000 G0
ATOM     20  C   UNL     1     104.508  79.057  79.583  1.00  0.00    -0.008 C 
ATOM     21  O   UNL     1     104.868  77.242  81.078  1.00  0.00    -0.291 OA
ATOM     22  C   UNL     1     105.914  79.464  79.380  1.00  0.00     0.048 C 
BRANCH  16  23
ATOM     23  O   UNL     1     102.497  76.522  79.513  1.00  0.00    -0.381 OA
ATOM     24  H   UNL     1     103.395  76.219  79.296  1.00  0.00     0.212 HD
ENDBRANCH  16  23
ENDBRANCH   6  15
BRANCH   7  25
ATOM     25  C   UNL     1      98.555  81.662  78.024  1.00  0.00     0.135 C 
BRANCH  25  26
ATOM     26  C   UNL     1      97.970  82.066  76.693  1.00  0.00    -0.040 A 
ATOM     27  C   UNL     1      96.618  82.399  76.599  1.00  0.00     0.004 A 
ATOM     28  C   UNL     1      98.780  82.109  75.559  1.00  0.00     0.004 A 
ATOM     29  C   UNL     1      96.077  82.773  75.368  1.00  0.00     0.000 A 
ATOM     30  C   UNL     1      98.238  82.483  74.329  1.00  0.00     0.000 A 
ATOM     31  C   UNL     1      96.886  82.814  74.234  1.00  0.00     0.000 A 
ENDBRANCH  25  26
ENDBRANCH   7  25
BRANCH  14  32
ATOM     32  C   UNL     1      97.556  77.761  76.169  1.00  0.00    -0.046 C 
ATOM     33  C   UNL     1      96.218  77.883  76.837  1.00  0.00     0.042 C 
ATOM     34  C   UNL     1      97.689  77.243  74.939  1.00  0.00     0.010 C 
ENDBRANCH  14  32
ENDBRANCH   3   4
BRANCH   2  35
ATOM     35  C   UNL     1     101.924  77.491  81.691  1.00  0.00     0.078 CG0
ATOM     36  G   UNL     1     102.592  77.704  80.333  1.00  0.00     0.000 G0
ENDBRANCH   2  35
ENDBRANCH   1   2
BRANCH   1  37
ATOM     37  O   UNL     1      99.356  79.002  83.466  1.00  0.00    -0.461 OA
BRANCH  37  38
ATOM     38  C   UNL     1      98.051  79.021  83.900  1.00  0.00     0.310 C 
ATOM     39  O   UNL     1      97.654  78.540  84.952  1.00  0.00    -0.252 OA
BRANCH  38  40
ATOM     40  C   UNL     1      97.189  79.726  82.879  1.00  0.00     0.158 C 
BRANCH  40  41
ATOM     41  C   UNL     1      96.411  80.878  83.462  1.00  0.00    -0.033 A 
ATOM     42  C   UNL     1      95.402  80.636  84.396  1.00  0.00     0.054 A 
ATOM     43  C   UNL     1      96.698  82.184  83.068  1.00  0.00     0.008 A 
ATOM     44  C   UNL     1      94.681  81.702  84.935  1.00  0.00     0.160 A 
ATOM     45  C   UNL     1      95.977  83.250  83.607  1.00  0.00     0.050 A 
ATOM     46  C   UNL     1      94.969  83.009  84.540  1.00  0.00     0.157 A 
BRANCH  44  47
ATOM     47  O   UNL     1      93.699  81.453  85.846  1.00  0.00    -0.493 OA
ATOM     48  C   UNL     1      92.401  81.158  85.334  1.00  0.00     0.278 C 
ENDBRANCH  44  47
BRANCH  46  49
ATOM     49  O   UNL     1      94.272  84.057  85.060  1.00  0.00    -0.504 OA
ATOM     50  H   UNL     1      93.464  83.722  85.483  1.00  0.00     0.293 HD
ENDBRANCH  46  49
ENDBRANCH  40  41
ENDBRANCH  38  40
ENDBRANCH  37  38
ENDBRANCH   1  37
TORSDOF 11
ENDMDL
MODEL 9
REMARK VINA RESULT:    -4.485     30.125     33.249
REMARK INTER + INTRA:          -9.995
REMARK INTER:                  -7.970
REMARK INTRA:                  -2.024
REMARK UNBOUND:                -2.101
REMARK SMILES C=C(C)[C@]12C[C@@H](C)[C@@]34O[C@](Cc5ccccc5)(O[C@@H]1[C@@H]3C=C(COC(=O)Cc1ccc(O)c(OC)c1)C[C@]1(O)C(=O)C(C)=C[C@@H]41)O2
REMARK SMILES IDX 23 1 22 2 21 3 20 4 9 5 8 6 10 7 6 8 18 9 46 10 19 11 5 12
REMARK SMILES IDX 7 13 4 14 45 15 38 16 44 17 40 18 42 20 41 21 43 22 39 23
REMARK SMILES IDX 11 25 12 26 13 27 17 28 14 29 16 30 15 31 2 32 3 33 1 34
REMARK SMILES IDX 37 35 24 37 25 38 26 39 27 40 28 41 36 42 29 43 33 44 30 45
REMARK SMILES IDX 31 46 34 47 35 48 32 49
REMARK H PARENT 39 24 32 50
REMARK Flexibility Score: 90.00
ROOT
ATOM      1  C   UNL     1      86.375  69.977  71.751  1.00  0.00     0.264 C 
ENDROOT
BRANCH   1   2
ATOM      2  C   UNL     1      85.948  68.601  72.208  1.00  0.00    -0.033 C 
ATOM      3  C   UNL     1      86.472  68.090  73.340  1.00  0.00    -0.015 C 
BRANCH   3   4
ATOM      4  C   UNL     1      86.268  66.719  73.964  1.00  0.00     0.078 C 
ATOM      5  O   UNL     1      84.379  66.922  75.548  1.00  0.00    -0.319 OA
ATOM      6  C   UNL     1      84.802  66.266  74.313  1.00  0.00     0.095 C 
ATOM      7  C   UNL     1      85.370  66.967  76.593  1.00  0.00     0.289 C 
ATOM      8  C   UNL     1      84.825  64.697  74.536  1.00  0.00     0.023 C 
ATOM      9  O   UNL     1      86.558  67.618  76.151  1.00  0.00    -0.320 OA
ATOM     10  O   UNL     1      85.776  65.666  77.009  1.00  0.00    -0.313 OA
ATOM     11  C   UNL     1      87.087  66.611  75.274  1.00  0.00     0.170 C 
ATOM     12  C   UNL     1      86.177  64.228  75.156  1.00  0.00     0.049 C 
ATOM     13  C   UNL     1      83.659  64.131  75.363  1.00  0.00     0.011 C 
ATOM     14  C   UNL     1      86.792  65.304  76.052  1.00  0.00     0.122 C 
BRANCH   6  15
ATOM     15  C   UNL     1      83.797  66.774  73.240  1.00  0.00     0.086 C 
ATOM     16  C   UNL     1      84.253  66.655  71.771  1.00  0.00     0.140 CG0
ATOM     17  C   UNL     1      82.399  66.220  73.218  1.00  0.00    -0.010 C 
ATOM     18  C   UNL     1      82.953  66.367  71.048  1.00  0.00     0.190 C 
ATOM     19  G   UNL     1      84.930  67.930  71.271  1.00  0.00     0.000 G0
ATOM     20  C   UNL     1      81.887  66.006  72.002  1.00  0.00    -0.008 C 
ATOM     21  O   UNL     1      82.800  66.375  69.836  1.00  0.00    -0.291 OA
ATOM     22  C   UNL     1      80.538  65.556  71.603  1.00  0.00     0.048 C 
BRANCH  16  23
ATOM     23  O   UNL     1      85.047  65.510  71.508  1.00  0.00    -0.381 OA
ATOM     24  H   UNL     1      85.023  64.933  72.289  1.00  0.00     0.212 HD
ENDBRANCH  16  23
ENDBRANCH   6  15
BRANCH   7  25
ATOM     25  C   UNL     1      84.784  67.716  77.773  1.00  0.00     0.135 C 
BRANCH  25  26
ATOM     26  C   UNL     1      85.799  67.931  78.867  1.00  0.00    -0.040 A 
ATOM     27  C   UNL     1      86.187  69.225  79.213  1.00  0.00     0.004 A 
ATOM     28  C   UNL     1      86.349  66.836  79.533  1.00  0.00     0.004 A 
ATOM     29  C   UNL     1      87.127  69.425  80.226  1.00  0.00     0.000 A 
ATOM     30  C   UNL     1      87.289  67.035  80.546  1.00  0.00     0.000 A 
ATOM     31  C   UNL     1      87.677  68.330  80.891  1.00  0.00     0.000 A 
ENDBRANCH  25  26
ENDBRANCH   7  25
BRANCH  14  32
ATOM     32  C   UNL     1      87.990  64.814  76.799  1.00  0.00    -0.046 C 
ATOM     33  C   UNL     1      87.736  63.767  77.842  1.00  0.00     0.042 C 
ATOM     34  C   UNL     1      89.222  65.283  76.550  1.00  0.00     0.010 C 
ENDBRANCH  14  32
ENDBRANCH   3   4
BRANCH   2  35
ATOM     35  C   UNL     1      84.930  67.957  71.285  1.00  0.00     0.078 CG0
ATOM     36  G   UNL     1      84.265  66.670  71.768  1.00  0.00     0.000 G0
ENDBRANCH   2  35
ENDBRANCH   1   2
BRANCH   1  37
ATOM     37  O   UNL     1      87.723  70.190  72.109  1.00  0.00    -0.461 OA
BRANCH  37  38
ATOM     38  C   UNL     1      88.316  71.322  71.601  1.00  0.00     0.310 C 
ATOM     39  O   UNL     1      88.161  71.747  70.465  1.00  0.00    -0.252 OA
BRANCH  38  40
ATOM     40  C   UNL     1      89.184  71.956  72.663  1.00  0.00     0.158 C 
BRANCH  40  41
ATOM     41  C   UNL     1      89.237  71.153  73.937  1.00  0.00    -0.033 A 
ATOM     42  C   UNL     1      90.354  70.365  74.218  1.00  0.00     0.054 A 
ATOM     43  C   UNL     1      88.170  71.198  74.834  1.00  0.00     0.008 A 
ATOM     44  C   UNL     1      90.402  69.621  75.398  1.00  0.00     0.160 A 
ATOM     45  C   UNL     1      88.219  70.454  76.013  1.00  0.00     0.050 A 
ATOM     46  C   UNL     1      89.334  69.666  76.295  1.00  0.00     0.157 A 
BRANCH  44  47
ATOM     47  O   UNL     1      91.497  68.855  75.662  1.00  0.00    -0.493 OA
ATOM     48  C   UNL     1      91.657  67.665  74.891  1.00  0.00     0.278 C 
ENDBRANCH  44  47
BRANCH  46  49
ATOM     49  O   UNL     1      89.371  68.945  77.450  1.00  0.00    -0.504 OA
ATOM     50  H   UNL     1      89.995  69.366  78.066  1.00  0.00     0.293 HD
ENDBRANCH  46  49
ENDBRANCH  40  41
ENDBRANCH  38  40
ENDBRANCH  37  38
ENDBRANCH   1  37
TORSDOF 11
ENDMDL
MODEL 10
REMARK VINA RESULT:    -4.477      3.848      9.592
REMARK INTER + INTRA:          -9.981
REMARK INTER:                  -8.586
REMARK INTRA:                  -1.395
REMARK UNBOUND:                -2.101
REMARK SMILES C=C(C)[C@]12C[C@@H](C)[C@@]34O[C@](Cc5ccccc5)(O[C@@H]1[C@@H]3C=C(COC(=O)Cc1ccc(O)c(OC)c1)C[C@]1(O)C(=O)C(C)=C[C@@H]41)O2
REMARK SMILES IDX 23 1 22 2 21 3 20 4 9 5 8 6 10 7 6 8 18 9 46 10 19 11 5 12
REMARK SMILES IDX 7 13 4 14 45 15 38 16 44 17 40 18 42 20 41 21 43 22 39 23
REMARK SMILES IDX 11 25 12 26 13 27 17 28 14 29 16 30 15 31 2 32 3 33 1 34
REMARK SMILES IDX 37 35 24 37 25 38 26 39 27 40 28 41 36 42 29 43 33 44 30 45
REMARK SMILES IDX 31 46 34 47 35 48 32 49
REMARK H PARENT 39 24 32 50
REMARK Flexibility Score: 90.00
ROOT
ATOM      1  C   UNL     1      54.892  92.957  73.252  1.00  0.00     0.264 C 
ENDROOT
BRANCH   1   2
ATOM      2  C   UNL     1      55.047  91.629  73.956  1.00  0.00    -0.033 C 
ATOM      3  C   UNL     1      55.835  90.681  73.409  1.00  0.00    -0.015 C 
BRANCH   3   4
ATOM      4  C   UNL     1      56.092  89.256  73.871  1.00  0.00     0.078 C 
ATOM      5  O   UNL     1      58.091  89.321  75.327  1.00  0.00    -0.319 OA
ATOM      6  C   UNL     1      56.659  89.030  75.322  1.00  0.00     0.095 C 
ATOM      7  C   UNL     1      58.827  88.815  74.197  1.00  0.00     0.289 C 
ATOM      8  C   UNL     1      56.433  87.506  75.694  1.00  0.00     0.023 C 
ATOM      9  O   UNL     1      58.297  89.311  72.970  1.00  0.00    -0.320 OA
ATOM     10  O   UNL     1      58.758  87.394  74.099  1.00  0.00    -0.313 OA
ATOM     11  C   UNL     1      57.076  88.558  72.900  1.00  0.00     0.170 C 
ATOM     12  C   UNL     1      56.544  86.589  74.437  1.00  0.00     0.049 C 
ATOM     13  C   UNL     1      57.338  86.958  76.809  1.00  0.00     0.011 C 
ATOM     14  C   UNL     1      57.516  87.161  73.403  1.00  0.00     0.122 C 
BRANCH   6  15
ATOM     15  C   UNL     1      56.050  90.059  76.318  1.00  0.00     0.086 C 
ATOM     16  C   UNL     1      54.540  90.336  76.171  1.00  0.00     0.140 CG0
ATOM     17  C   UNL     1      56.225  89.845  77.796  1.00  0.00    -0.010 C 
ATOM     18  C   UNL     1      54.112  90.577  77.604  1.00  0.00     0.190 C 
ATOM     19  G   UNL     1      54.258  91.535  75.267  1.00  0.00     0.000 G0
ATOM     20  C   UNL     1      55.163  90.153  78.548  1.00  0.00    -0.008 C 
ATOM     21  O   UNL     1      53.026  91.014  77.954  1.00  0.00    -0.291 OA
ATOM     22  C   UNL     1      55.004  90.148  80.017  1.00  0.00     0.048 C 
BRANCH  16  23
ATOM     23  O   UNL     1      53.784  89.202  75.778  1.00  0.00    -0.381 OA
ATOM     24  H   UNL     1      53.360  89.397  74.926  1.00  0.00     0.212 HD
ENDBRANCH  16  23
ENDBRANCH   6  15
BRANCH   7  25
ATOM     25  C   UNL     1      60.273  89.242  74.341  1.00  0.00     0.135 C 
BRANCH  25  26
ATOM     26  C   UNL     1      61.189  88.068  74.583  1.00  0.00    -0.040 A 
ATOM     27  C   UNL     1      61.642  87.304  73.508  1.00  0.00     0.004 A 
ATOM     28  C   UNL     1      61.583  87.747  75.882  1.00  0.00     0.004 A 
ATOM     29  C   UNL     1      62.489  86.218  73.732  1.00  0.00     0.000 A 
ATOM     30  C   UNL     1      62.430  86.661  76.106  1.00  0.00     0.000 A 
ATOM     31  C   UNL     1      62.882  85.897  75.030  1.00  0.00     0.000 A 
ENDBRANCH  25  26
ENDBRANCH   7  25
BRANCH  14  32
ATOM     32  C   UNL     1      57.778  86.215  72.277  1.00  0.00    -0.046 C 
ATOM     33  C   UNL     1      58.886  85.227  72.486  1.00  0.00     0.042 C 
ATOM     34  C   UNL     1      57.063  86.247  71.143  1.00  0.00     0.010 C 
ENDBRANCH  14  32
ENDBRANCH   3   4
BRANCH   2  35
ATOM     35  C   UNL     1      54.260  91.545  75.250  1.00  0.00     0.078 CG0
ATOM     36  G   UNL     1      54.550  90.360  76.169  1.00  0.00     0.000 G0
ENDBRANCH   2  35
ENDBRANCH   1   2
BRANCH   1  37
ATOM     37  O   UNL     1      56.095  93.276  72.587  1.00  0.00    -0.461 OA
BRANCH  37  38
ATOM     38  C   UNL     1      56.003  93.483  71.230  1.00  0.00     0.310 C 
ATOM     39  O   UNL     1      56.944  93.750  70.495  1.00  0.00    -0.252 OA
BRANCH  38  40
ATOM     40  C   UNL     1      54.565  93.332  70.793  1.00  0.00     0.158 C 
BRANCH  40  41
ATOM     41  C   UNL     1      54.421  92.573  69.499  1.00  0.00    -0.033 A 
ATOM     42  C   UNL     1      54.514  91.180  69.494  1.00  0.00     0.054 A 
ATOM     43  C   UNL     1      54.195  93.261  68.307  1.00  0.00     0.008 A 
ATOM     44  C   UNL     1      54.381  90.477  68.296  1.00  0.00     0.160 A 
ATOM     45  C   UNL     1      54.062  92.558  67.110  1.00  0.00     0.050 A 
ATOM     46  C   UNL     1      54.155  91.167  67.104  1.00  0.00     0.157 A 
BRANCH  44  47
ATOM     47  O   UNL     1      54.473  89.118  68.303  1.00  0.00    -0.493 OA
ATOM     48  C   UNL     1      55.339  88.533  69.275  1.00  0.00     0.278 C 
ENDBRANCH  44  47
BRANCH  46  49
ATOM     49  O   UNL     1      54.022  90.491  65.929  1.00  0.00    -0.504 OA
ATOM     50  H   UNL     1      54.301  89.569  66.061  1.00  0.00     0.293 HD
ENDBRANCH  46  49
ENDBRANCH  40  41
ENDBRANCH  38  40
ENDBRANCH  37  38
ENDBRANCH   1  37
TORSDOF 11
ENDMDL
