MODEL 1
REMARK VINA RESULT:    -6.249      0.000      0.000
REMARK INTER + INTRA:         -10.732
REMARK INTER:                  -9.719
REMARK INTRA:                  -1.013
REMARK UNBOUND:                -1.013
REMARK SMILES COc1cc(CNC(=O)CCCC/C=C/C(C)C)ccc1O
REMARK SMILES IDX 10 1 8 2 7 3 9 5 6 6 5 7 3 8 21 9 4 10 20 11 19 12 2 13 1 14
REMARK SMILES IDX 22 15 11 17 12 18 13 19 14 20 15 21 16 22 17 23 18 24
REMARK H PARENT 7 4 22 16
REMARK Flexibility Score: inf
ROOT
ATOM      1  C   UNL     1      96.101  97.906  75.613  1.00  0.00     0.100 C 
ENDROOT
BRANCH   1   2
ATOM      2  C   UNL     1      96.661  98.483  76.850  1.00  0.00     0.220 C 
ATOM      3  N   UNL     1      95.947  98.460  78.010  1.00  0.00    -0.352 N 
ATOM      4  H   UNL     1      95.027  98.049  77.936  1.00  0.00     0.163 HD
ATOM      5  O   UNL     1      97.817  98.971  76.805  1.00  0.00    -0.275 OA
BRANCH   3   6
ATOM      6  C   UNL     1      96.411  98.962  79.264  1.00  0.00     0.151 C 
BRANCH   6   7
ATOM      7  C   UNL     1      95.985  98.091  80.393  1.00  0.00    -0.025 A 
ATOM      8  C   UNL     1      95.588  95.842  81.314  1.00  0.00     0.160 A 
ATOM      9  C   UNL     1      95.195  96.414  82.542  1.00  0.00     0.157 A 
ATOM     10  C   UNL     1      95.977  96.685  80.252  1.00  0.00     0.056 A 
ATOM     11  C   UNL     1      95.179  97.815  82.691  1.00  0.00     0.050 A 
ATOM     12  C   UNL     1      95.580  98.648  81.628  1.00  0.00     0.009 A 
BRANCH   8  13
ATOM     13  O   UNL     1      95.542  94.482  81.142  1.00  0.00    -0.493 OA
ATOM     14  C   UNL     1      94.465  94.033  80.300  1.00  0.00     0.278 C 
ENDBRANCH   8  13
BRANCH   9  15
ATOM     15  O   UNL     1      94.827  95.631  83.588  1.00  0.00    -0.504 OA
ATOM     16  H   UNL     1      94.556  96.185  84.324  1.00  0.00     0.293 HD
ENDBRANCH   9  15
ENDBRANCH   6   7
ENDBRANCH   3   6
ENDBRANCH   1   2
BRANCH   1  17
ATOM     17  C   UNL     1      94.620  97.479  75.801  1.00  0.00     0.010 C 
BRANCH  17  18
ATOM     18  C   UNL     1      94.407  95.947  75.647  1.00  0.00     0.005 C 
BRANCH  18  19
ATOM     19  C   UNL     1      93.830  95.299  76.935  1.00  0.00     0.027 C 
BRANCH  19  20
ATOM     20  C   UNL     1      92.440  94.899  76.770  1.00  0.00    -0.031 C 
ATOM     21  C   UNL     1      91.744  94.194  77.680  1.00  0.00    -0.028 C 
BRANCH  21  22
ATOM     22  C   UNL     1      90.341  93.821  77.502  1.00  0.00     0.005 C 
ATOM     23  C   UNL     1      89.798  92.984  78.694  1.00  0.00     0.012 C 
ATOM     24  C   UNL     1      89.474  95.086  77.275  1.00  0.00     0.012 C 
ENDBRANCH  21  22
ENDBRANCH  19  20
ENDBRANCH  18  19
ENDBRANCH  17  18
ENDBRANCH   1  17
TORSDOF 10
ENDMDL
MODEL 2
REMARK VINA RESULT:    -6.186     22.739     26.653
REMARK INTER + INTRA:         -10.635
REMARK INTER:                  -9.876
REMARK INTRA:                  -0.759
REMARK UNBOUND:                -1.013
REMARK SMILES COc1cc(CNC(=O)CCCC/C=C/C(C)C)ccc1O
REMARK SMILES IDX 10 1 8 2 7 3 9 5 6 6 5 7 3 8 21 9 4 10 20 11 19 12 2 13 1 14
REMARK SMILES IDX 22 15 11 17 12 18 13 19 14 20 15 21 16 22 17 23 18 24
REMARK H PARENT 7 4 22 16
REMARK Flexibility Score: inf
ROOT
ATOM      1  C   UNL     1      77.659  84.678  68.229  1.00  0.00     0.100 C 
ENDROOT
BRANCH   1   2
ATOM      2  C   UNL     1      77.906  83.667  67.182  1.00  0.00     0.220 C 
ATOM      3  N   UNL     1      76.897  82.861  66.748  1.00  0.00    -0.352 N 
ATOM      4  H   UNL     1      76.009  83.002  67.211  1.00  0.00     0.163 HD
ATOM      5  O   UNL     1      79.059  83.591  66.693  1.00  0.00    -0.275 OA
BRANCH   3   6
ATOM      6  C   UNL     1      77.024  81.877  65.721  1.00  0.00     0.151 C 
BRANCH   6   7
ATOM      7  C   UNL     1      75.705  81.546  65.115  1.00  0.00    -0.025 A 
ATOM      8  C   UNL     1      73.261  81.330  65.323  1.00  0.00     0.160 A 
ATOM      9  C   UNL     1      73.181  80.938  63.970  1.00  0.00     0.157 A 
ATOM     10  C   UNL     1      74.521  81.628  65.882  1.00  0.00     0.056 A 
ATOM     11  C   UNL     1      74.354  80.833  63.198  1.00  0.00     0.050 A 
ATOM     12  C   UNL     1      75.607  81.144  63.763  1.00  0.00     0.009 A 
BRANCH   8  13
ATOM     13  O   UNL     1      72.129  81.370  66.096  1.00  0.00    -0.493 OA
ATOM     14  C   UNL     1      71.644  82.700  66.357  1.00  0.00     0.278 C 
ENDBRANCH   8  13
BRANCH   9  15
ATOM     15  O   UNL     1      71.982  80.657  63.397  1.00  0.00    -0.504 OA
ATOM     16  H   UNL     1      71.350  81.344  63.621  1.00  0.00     0.293 HD
ENDBRANCH   9  15
ENDBRANCH   6   7
ENDBRANCH   3   6
ENDBRANCH   1   2
BRANCH   1  17
ATOM     17  C   UNL     1      76.448  84.294  69.122  1.00  0.00     0.010 C 
BRANCH  17  18
ATOM     18  C   UNL     1      76.034  85.429  70.101  1.00  0.00     0.005 C 
BRANCH  18  19
ATOM     19  C   UNL     1      76.817  86.745  69.844  1.00  0.00     0.027 C 
BRANCH  19  20
ATOM     20  C   UNL     1      75.994  87.923  70.068  1.00  0.00    -0.031 C 
ATOM     21  C   UNL     1      74.862  87.928  70.796  1.00  0.00    -0.028 C 
BRANCH  21  22
ATOM     22  C   UNL     1      74.060  89.130  71.025  1.00  0.00     0.005 C 
ATOM     23  C   UNL     1      73.350  89.619  69.733  1.00  0.00     0.012 C 
ATOM     24  C   UNL     1      73.033  88.881  72.160  1.00  0.00     0.012 C 
ENDBRANCH  21  22
ENDBRANCH  19  20
ENDBRANCH  18  19
ENDBRANCH  17  18
ENDBRANCH   1  17
TORSDOF 10
ENDMDL
MODEL 3
REMARK VINA RESULT:    -5.910     22.452     26.149
REMARK INTER + INTRA:         -10.206
REMARK INTER:                  -9.299
REMARK INTRA:                  -0.907
REMARK UNBOUND:                -1.013
REMARK SMILES COc1cc(CNC(=O)CCCC/C=C/C(C)C)ccc1O
REMARK SMILES IDX 10 1 8 2 7 3 9 5 6 6 5 7 3 8 21 9 4 10 20 11 19 12 2 13 1 14
REMARK SMILES IDX 22 15 11 17 12 18 13 19 14 20 15 21 16 22 17 23 18 24
REMARK H PARENT 7 4 22 16
REMARK Flexibility Score: inf
ROOT
ATOM      1  C   UNL     1      75.654  81.601  64.604  1.00  0.00     0.100 C 
ENDROOT
BRANCH   1   2
ATOM      2  C   UNL     1      76.630  82.705  64.672  1.00  0.00     0.220 C 
ATOM      3  N   UNL     1      77.363  82.911  65.803  1.00  0.00    -0.352 N 
ATOM      4  H   UNL     1      77.161  82.277  66.563  1.00  0.00     0.163 HD
ATOM      5  O   UNL     1      76.781  83.427  63.657  1.00  0.00    -0.275 OA
BRANCH   3   6
ATOM      6  C   UNL     1      78.353  83.928  65.959  1.00  0.00     0.151 C 
BRANCH   6   7
ATOM      7  C   UNL     1      77.972  84.904  67.016  1.00  0.00    -0.025 A 
ATOM      8  C   UNL     1      77.586  85.428  69.391  1.00  0.00     0.160 A 
ATOM      9  C   UNL     1      77.266  86.757  69.047  1.00  0.00     0.157 A 
ATOM     10  C   UNL     1      77.933  84.514  68.374  1.00  0.00     0.056 A 
ATOM     11  C   UNL     1      77.282  87.156  67.696  1.00  0.00     0.050 A 
ATOM     12  C   UNL     1      77.641  86.240  66.688  1.00  0.00     0.009 A 
BRANCH   8  13
ATOM     13  O   UNL     1      77.508  85.018  70.698  1.00  0.00    -0.493 OA
ATOM     14  C   UNL     1      76.311  84.283  71.012  1.00  0.00     0.278 C 
ENDBRANCH   8  13
BRANCH   9  15
ATOM     15  O   UNL     1      76.941  87.665  70.003  1.00  0.00    -0.504 OA
ATOM     16  H   UNL     1      76.202  88.199  69.701  1.00  0.00     0.293 HD
ENDBRANCH   9  15
ENDBRANCH   6   7
ENDBRANCH   3   6
ENDBRANCH   1   2
BRANCH   1  17
ATOM     17  C   UNL     1      74.578  81.856  63.514  1.00  0.00     0.010 C 
BRANCH  17  18
ATOM     18  C   UNL     1      73.831  80.560  63.087  1.00  0.00     0.005 C 
BRANCH  18  19
ATOM     19  C   UNL     1      72.666  80.206  64.050  1.00  0.00     0.027 C 
BRANCH  19  20
ATOM     20  C   UNL     1      72.099  81.389  64.681  1.00  0.00    -0.031 C 
ATOM     21  C   UNL     1      72.077  81.599  66.010  1.00  0.00    -0.028 C 
BRANCH  21  22
ATOM     22  C   UNL     1      71.520  82.804  66.623  1.00  0.00     0.005 C 
ATOM     23  C   UNL     1      71.606  84.037  65.681  1.00  0.00     0.012 C 
ATOM     24  C   UNL     1      70.057  82.551  67.070  1.00  0.00     0.012 C 
ENDBRANCH  21  22
ENDBRANCH  19  20
ENDBRANCH  18  19
ENDBRANCH  17  18
ENDBRANCH   1  17
TORSDOF 10
ENDMDL
MODEL 4
REMARK VINA RESULT:    -5.721     24.458     28.193
REMARK INTER + INTRA:          -9.911
REMARK INTER:                  -9.014
REMARK INTRA:                  -0.897
REMARK UNBOUND:                -1.013
REMARK SMILES COc1cc(CNC(=O)CCCC/C=C/C(C)C)ccc1O
REMARK SMILES IDX 10 1 8 2 7 3 9 5 6 6 5 7 3 8 21 9 4 10 20 11 19 12 2 13 1 14
REMARK SMILES IDX 22 15 11 17 12 18 13 19 14 20 15 21 16 22 17 23 18 24
REMARK H PARENT 7 4 22 16
REMARK Flexibility Score: inf
ROOT
ATOM      1  C   UNL     1      76.788  82.029  65.564  1.00  0.00     0.100 C 
ENDROOT
BRANCH   1   2
ATOM      2  C   UNL     1      75.677  81.379  64.842  1.00  0.00     0.220 C 
ATOM      3  N   UNL     1      74.471  81.198  65.450  1.00  0.00    -0.352 N 
ATOM      4  H   UNL     1      74.423  81.516  66.408  1.00  0.00     0.163 HD
ATOM      5  O   UNL     1      75.869  81.023  63.655  1.00  0.00    -0.275 OA
BRANCH   3   6
ATOM      6  C   UNL     1      73.326  80.611  64.830  1.00  0.00     0.151 C 
BRANCH   6   7
ATOM      7  C   UNL     1      72.109  81.443  65.030  1.00  0.00    -0.025 A 
ATOM      8  C   UNL     1      70.540  82.591  66.541  1.00  0.00     0.160 A 
ATOM      9  C   UNL     1      69.801  83.046  65.430  1.00  0.00     0.157 A 
ATOM     10  C   UNL     1      71.684  81.793  66.332  1.00  0.00     0.056 A 
ATOM     11  C   UNL     1      70.201  82.690  64.127  1.00  0.00     0.050 A 
ATOM     12  C   UNL     1      71.352  81.902  63.927  1.00  0.00     0.009 A 
BRANCH   8  13
ATOM     13  O   UNL     1      70.117  82.881  67.814  1.00  0.00    -0.493 OA
ATOM     14  C   UNL     1      70.848  83.947  68.447  1.00  0.00     0.278 C 
ENDBRANCH   8  13
BRANCH   9  15
ATOM     15  O   UNL     1      68.702  83.827  65.596  1.00  0.00    -0.504 OA
ATOM     16  H   UNL     1      68.387  83.748  66.499  1.00  0.00     0.293 HD
ENDBRANCH   9  15
ENDBRANCH   6   7
ENDBRANCH   3   6
ENDBRANCH   1   2
BRANCH   1  17
ATOM     17  C   UNL     1      76.798  83.565  65.336  1.00  0.00     0.010 C 
BRANCH  17  18
ATOM     18  C   UNL     1      77.939  84.283  66.109  1.00  0.00     0.005 C 
BRANCH  18  19
ATOM     19  C   UNL     1      78.320  83.546  67.421  1.00  0.00     0.027 C 
BRANCH  19  20
ATOM     20  C   UNL     1      77.864  84.261  68.604  1.00  0.00    -0.031 C 
ATOM     21  C   UNL     1      76.577  84.341  68.990  1.00  0.00    -0.028 C 
BRANCH  21  22
ATOM     22  C   UNL     1      76.143  85.049  70.193  1.00  0.00     0.005 C 
ATOM     23  C   UNL     1      74.763  85.739  70.006  1.00  0.00     0.012 C 
ATOM     24  C   UNL     1      76.119  84.082  71.405  1.00  0.00     0.012 C 
ENDBRANCH  21  22
ENDBRANCH  19  20
ENDBRANCH  18  19
ENDBRANCH  17  18
ENDBRANCH   1  17
TORSDOF 10
ENDMDL
MODEL 5
REMARK VINA RESULT:    -5.626      1.510      2.270
REMARK INTER + INTRA:          -9.763
REMARK INTER:                  -8.646
REMARK INTRA:                  -1.117
REMARK UNBOUND:                -1.013
REMARK SMILES COc1cc(CNC(=O)CCCC/C=C/C(C)C)ccc1O
REMARK SMILES IDX 10 1 8 2 7 3 9 5 6 6 5 7 3 8 21 9 4 10 20 11 19 12 2 13 1 14
REMARK SMILES IDX 22 15 11 17 12 18 13 19 14 20 15 21 16 22 17 23 18 24
REMARK H PARENT 7 4 22 16
REMARK Flexibility Score: inf
ROOT
ATOM      1  C   UNL     1      96.519  98.732  76.577  1.00  0.00     0.100 C 
ENDROOT
BRANCH   1   2
ATOM      2  C   UNL     1      96.888  98.810  78.003  1.00  0.00     0.220 C 
ATOM      3  N   UNL     1      95.926  98.939  78.960  1.00  0.00    -0.352 N 
ATOM      4  H   UNL     1      94.980  98.999  78.609  1.00  0.00     0.163 HD
ATOM      5  O   UNL     1      98.103  98.731  78.306  1.00  0.00    -0.275 OA
BRANCH   3   6
ATOM      6  C   UNL     1      96.176  98.992  80.365  1.00  0.00     0.151 C 
BRANCH   6   7
ATOM      7  C   UNL     1      96.010  97.656  81.000  1.00  0.00    -0.025 A 
ATOM      8  C   UNL     1      96.677  96.014  82.709  1.00  0.00     0.160 A 
ATOM      9  C   UNL     1      95.695  95.120  82.234  1.00  0.00     0.157 A 
ATOM     10  C   UNL     1      96.827  97.271  82.086  1.00  0.00     0.056 A 
ATOM     11  C   UNL     1      94.887  95.482  81.139  1.00  0.00     0.050 A 
ATOM     12  C   UNL     1      95.036  96.744  80.531  1.00  0.00     0.009 A 
BRANCH   8  13
ATOM     13  O   UNL     1      97.511  95.640  83.732  1.00  0.00    -0.493 OA
ATOM     14  C   UNL     1      98.136  96.743  84.413  1.00  0.00     0.278 C 
ENDBRANCH   8  13
BRANCH   9  15
ATOM     15  O   UNL     1      95.516  93.907  82.819  1.00  0.00    -0.504 OA
ATOM     16  H   UNL     1      96.317  93.654  83.284  1.00  0.00     0.293 HD
ENDBRANCH   9  15
ENDBRANCH   6   7
ENDBRANCH   3   6
ENDBRANCH   1   2
BRANCH   1  17
ATOM     17  C   UNL     1      94.980  98.652  76.387  1.00  0.00     0.010 C 
BRANCH  17  18
ATOM     18  C   UNL     1      94.502  97.254  75.902  1.00  0.00     0.005 C 
BRANCH  18  19
ATOM     19  C   UNL     1      92.955  97.124  75.908  1.00  0.00     0.027 C 
BRANCH  19  20
ATOM     20  C   UNL     1      92.501  96.025  76.746  1.00  0.00    -0.031 C 
ATOM     21  C   UNL     1      91.333  96.016  77.414  1.00  0.00    -0.028 C 
BRANCH  21  22
ATOM     22  C   UNL     1      90.888  94.891  78.236  1.00  0.00     0.005 C 
ATOM     23  C   UNL     1      89.998  93.896  77.441  1.00  0.00     0.012 C 
ATOM     24  C   UNL     1      92.109  94.165  78.858  1.00  0.00     0.012 C 
ENDBRANCH  21  22
ENDBRANCH  19  20
ENDBRANCH  18  19
ENDBRANCH  17  18
ENDBRANCH   1  17
TORSDOF 10
ENDMDL
MODEL 6
REMARK VINA RESULT:    -5.604     13.323     15.528
REMARK INTER + INTRA:          -9.729
REMARK INTER:                  -8.650
REMARK INTRA:                  -1.079
REMARK UNBOUND:                -1.013
REMARK SMILES COc1cc(CNC(=O)CCCC/C=C/C(C)C)ccc1O
REMARK SMILES IDX 10 1 8 2 7 3 9 5 6 6 5 7 3 8 21 9 4 10 20 11 19 12 2 13 1 14
REMARK SMILES IDX 22 15 11 17 12 18 13 19 14 20 15 21 16 22 17 23 18 24
REMARK H PARENT 7 4 22 16
REMARK Flexibility Score: inf
ROOT
ATOM      1  C   UNL     1     102.648  81.664  81.663  1.00  0.00     0.100 C 
ENDROOT
BRANCH   1   2
ATOM      2  C   UNL     1     101.755  81.376  82.803  1.00  0.00     0.220 C 
ATOM      3  N   UNL     1     100.408  81.283  82.620  1.00  0.00    -0.352 N 
ATOM      4  H   UNL     1     100.094  81.448  81.674  1.00  0.00     0.163 HD
ATOM      5  O   UNL     1     102.275  81.197  83.931  1.00  0.00    -0.275 OA
BRANCH   3   6
ATOM      6  C   UNL     1      99.465  80.978  83.647  1.00  0.00     0.151 C 
BRANCH   6   7
ATOM      7  C   UNL     1      98.882  82.213  84.239  1.00  0.00    -0.025 A 
ATOM      8  C   UNL     1      98.737  83.819  86.100  1.00  0.00     0.160 A 
ATOM      9  C   UNL     1      97.795  84.576  85.373  1.00  0.00     0.157 A 
ATOM     10  C   UNL     1      99.269  82.644  85.527  1.00  0.00     0.056 A 
ATOM     11  C   UNL     1      97.385  84.148  84.095  1.00  0.00     0.050 A 
ATOM     12  C   UNL     1      97.931  82.980  83.527  1.00  0.00     0.009 A 
BRANCH   8  13
ATOM     13  O   UNL     1      99.090  84.196  87.370  1.00  0.00    -0.493 OA
ATOM     14  C   UNL     1     100.510  84.289  87.581  1.00  0.00     0.278 C 
ENDBRANCH   8  13
BRANCH   9  15
ATOM     15  O   UNL     1      97.273  85.719  85.890  1.00  0.00    -0.504 OA
ATOM     16  H   UNL     1      97.902  86.113  86.498  1.00  0.00     0.293 HD
ENDBRANCH   9  15
ENDBRANCH   6   7
ENDBRANCH   3   6
ENDBRANCH   1   2
BRANCH   1  17
ATOM     17  C   UNL     1     102.032  81.188  80.320  1.00  0.00     0.010 C 
BRANCH  17  18
ATOM     18  C   UNL     1     102.849  81.655  79.081  1.00  0.00     0.005 C 
BRANCH  18  19
ATOM     19  C   UNL     1     101.954  82.321  78.001  1.00  0.00     0.027 C 
BRANCH  19  20
ATOM     20  C   UNL     1     100.555  82.359  78.397  1.00  0.00    -0.031 C 
ATOM     21  C   UNL     1      99.653  83.227  77.903  1.00  0.00    -0.028 C 
BRANCH  21  22
ATOM     22  C   UNL     1      98.245  83.235  78.301  1.00  0.00     0.005 C 
ATOM     23  C   UNL     1      98.070  83.278  79.844  1.00  0.00     0.012 C 
ATOM     24  C   UNL     1      97.504  84.418  77.627  1.00  0.00     0.012 C 
ENDBRANCH  21  22
ENDBRANCH  19  20
ENDBRANCH  18  19
ENDBRANCH  17  18
ENDBRANCH   1  17
TORSDOF 10
ENDMDL
MODEL 7
REMARK VINA RESULT:    -5.561     23.718     27.828
REMARK INTER + INTRA:          -9.663
REMARK INTER:                  -8.762
REMARK INTRA:                  -0.900
REMARK UNBOUND:                -1.013
REMARK SMILES COc1cc(CNC(=O)CCCC/C=C/C(C)C)ccc1O
REMARK SMILES IDX 10 1 8 2 7 3 9 5 6 6 5 7 3 8 21 9 4 10 20 11 19 12 2 13 1 14
REMARK SMILES IDX 22 15 11 17 12 18 13 19 14 20 15 21 16 22 17 23 18 24
REMARK H PARENT 7 4 22 16
REMARK Flexibility Score: inf
ROOT
ATOM      1  C   UNL     1      75.887  81.124  64.482  1.00  0.00     0.100 C 
ENDROOT
BRANCH   1   2
ATOM      2  C   UNL     1      74.415  81.200  64.411  1.00  0.00     0.220 C 
ATOM      3  N   UNL     1      73.666  81.186  65.549  1.00  0.00    -0.352 N 
ATOM      4  H   UNL     1      74.195  81.098  66.406  1.00  0.00     0.163 HD
ATOM      5  O   UNL     1      73.882  81.301  63.280  1.00  0.00    -0.275 OA
BRANCH   3   6
ATOM      6  C   UNL     1      72.243  81.288  65.590  1.00  0.00     0.151 C 
BRANCH   6   7
ATOM      7  C   UNL     1      71.798  82.377  66.501  1.00  0.00    -0.025 A 
ATOM      8  C   UNL     1      70.086  83.348  67.981  1.00  0.00     0.160 A 
ATOM      9  C   UNL     1      70.941  84.435  68.257  1.00  0.00     0.157 A 
ATOM     10  C   UNL     1      70.521  82.332  67.105  1.00  0.00     0.056 A 
ATOM     11  C   UNL     1      72.209  84.504  67.647  1.00  0.00     0.050 A 
ATOM     12  C   UNL     1      72.639  83.478  66.783  1.00  0.00     0.009 A 
BRANCH   8  13
ATOM     13  O   UNL     1      68.825  83.310  68.520  1.00  0.00    -0.493 OA
ATOM     14  C   UNL     1      67.792  83.767  67.629  1.00  0.00     0.278 C 
ENDBRANCH   8  13
BRANCH   9  15
ATOM     15  O   UNL     1      70.558  85.424  69.106  1.00  0.00    -0.504 OA
ATOM     16  H   UNL     1      70.891  86.266  68.788  1.00  0.00     0.293 HD
ENDBRANCH   9  15
ENDBRANCH   6   7
ENDBRANCH   3   6
ENDBRANCH   1   2
BRANCH   1  17
ATOM     17  C   UNL     1      76.522  82.519  64.729  1.00  0.00     0.010 C 
BRANCH  17  18
ATOM     18  C   UNL     1      77.072  82.686  66.174  1.00  0.00     0.005 C 
BRANCH  18  19
ATOM     19  C   UNL     1      78.174  83.775  66.264  1.00  0.00     0.027 C 
BRANCH  19  20
ATOM     20  C   UNL     1      78.322  84.294  67.615  1.00  0.00    -0.031 C 
ATOM     21  C   UNL     1      77.297  84.709  68.382  1.00  0.00    -0.028 C 
BRANCH  21  22
ATOM     22  C   UNL     1      77.467  85.209  69.746  1.00  0.00     0.005 C 
ATOM     23  C   UNL     1      77.042  86.697  69.886  1.00  0.00     0.012 C 
ATOM     24  C   UNL     1      76.687  84.315  70.746  1.00  0.00     0.012 C 
ENDBRANCH  21  22
ENDBRANCH  19  20
ENDBRANCH  18  19
ENDBRANCH  17  18
ENDBRANCH   1  17
TORSDOF 10
ENDMDL
MODEL 8
REMARK VINA RESULT:    -5.428     13.883     16.556
REMARK INTER + INTRA:          -9.455
REMARK INTER:                  -8.074
REMARK INTRA:                  -1.381
REMARK UNBOUND:                -1.013
REMARK SMILES COc1cc(CNC(=O)CCCC/C=C/C(C)C)ccc1O
REMARK SMILES IDX 10 1 8 2 7 3 9 5 6 6 5 7 3 8 21 9 4 10 20 11 19 12 2 13 1 14
REMARK SMILES IDX 22 15 11 17 12 18 13 19 14 20 15 21 16 22 17 23 18 24
REMARK H PARENT 7 4 22 16
REMARK Flexibility Score: inf
ROOT
ATOM      1  C   UNL     1     100.839  81.601  83.388  1.00  0.00     0.100 C 
ENDROOT
BRANCH   1   2
ATOM      2  C   UNL     1      99.506  81.957  82.863  1.00  0.00     0.220 C 
ATOM      3  N   UNL     1      99.374  82.918  81.906  1.00  0.00    -0.352 N 
ATOM      4  H   UNL     1     100.238  83.359  81.623  1.00  0.00     0.163 HD
ATOM      5  O   UNL     1      98.510  81.335  83.306  1.00  0.00    -0.275 OA
BRANCH   3   6
ATOM      6  C   UNL     1      98.137  83.312  81.312  1.00  0.00     0.151 C 
BRANCH   6   7
ATOM      7  C   UNL     1      98.139  83.081  79.842  1.00  0.00    -0.025 A 
ATOM      8  C   UNL     1      98.824  81.732  77.900  1.00  0.00     0.160 A 
ATOM      9  C   UNL     1      98.136  82.615  77.042  1.00  0.00     0.157 A 
ATOM     10  C   UNL     1      98.821  81.974  79.290  1.00  0.00     0.056 A 
ATOM     11  C   UNL     1      97.468  83.734  77.577  1.00  0.00     0.050 A 
ATOM     12  C   UNL     1      97.460  83.961  78.967  1.00  0.00     0.009 A 
BRANCH   8  13
ATOM     13  O   UNL     1      99.531  80.678  77.379  1.00  0.00    -0.493 OA
ATOM     14  C   UNL     1      98.800  79.439  77.348  1.00  0.00     0.278 C 
ENDBRANCH   8  13
BRANCH   9  15
ATOM     15  O   UNL     1      98.108  82.403  75.701  1.00  0.00    -0.504 OA
ATOM     16  H   UNL     1      97.975  81.468  75.527  1.00  0.00     0.293 HD
ENDBRANCH   9  15
ENDBRANCH   6   7
ENDBRANCH   3   6
ENDBRANCH   1   2
BRANCH   1  17
ATOM     17  C   UNL     1     101.678  80.824  82.338  1.00  0.00     0.010 C 
BRANCH  17  18
ATOM     18  C   UNL     1     102.688  81.731  81.580  1.00  0.00     0.005 C 
BRANCH  18  19
ATOM     19  C   UNL     1     103.219  81.066  80.281  1.00  0.00     0.027 C 
BRANCH  19  20
ATOM     20  C   UNL     1     102.643  81.665  79.086  1.00  0.00    -0.031 C 
ATOM     21  C   UNL     1     103.319  81.866  77.940  1.00  0.00    -0.028 C 
BRANCH  21  22
ATOM     22  C   UNL     1     102.715  82.452  76.744  1.00  0.00     0.005 C 
ATOM     23  C   UNL     1     101.698  83.576  77.088  1.00  0.00     0.012 C 
ATOM     24  C   UNL     1     103.817  82.978  75.789  1.00  0.00     0.012 C 
ENDBRANCH  21  22
ENDBRANCH  19  20
ENDBRANCH  18  19
ENDBRANCH  17  18
ENDBRANCH   1  17
TORSDOF 10
ENDMDL
MODEL 9
REMARK VINA RESULT:    -5.411      1.562      2.371
REMARK INTER + INTRA:          -9.429
REMARK INTER:                  -8.047
REMARK INTRA:                  -1.382
REMARK UNBOUND:                -1.013
REMARK SMILES COc1cc(CNC(=O)CCCC/C=C/C(C)C)ccc1O
REMARK SMILES IDX 10 1 8 2 7 3 9 5 6 6 5 7 3 8 21 9 4 10 20 11 19 12 2 13 1 14
REMARK SMILES IDX 22 15 11 17 12 18 13 19 14 20 15 21 16 22 17 23 18 24
REMARK H PARENT 7 4 22 16
REMARK Flexibility Score: inf
ROOT
ATOM      1  C   UNL     1      96.003 100.659  76.965  1.00  0.00     0.100 C 
ENDROOT
BRANCH   1   2
ATOM      2  C   UNL     1      96.894  99.887  77.852  1.00  0.00     0.220 C 
ATOM      3  N   UNL     1      96.570  98.617  78.223  1.00  0.00    -0.352 N 
ATOM      4  H   UNL     1      95.686  98.281  77.867  1.00  0.00     0.163 HD
ATOM      5  O   UNL     1      97.963 100.425  78.231  1.00  0.00    -0.275 OA
BRANCH   3   6
ATOM      6  C   UNL     1      97.378  97.778  79.050  1.00  0.00     0.151 C 
BRANCH   6   7
ATOM      7  C   UNL     1      96.628  97.303  80.245  1.00  0.00    -0.025 A 
ATOM      8  C   UNL     1      95.926  95.466  81.726  1.00  0.00     0.160 A 
ATOM      9  C   UNL     1      95.220  96.384  82.531  1.00  0.00     0.157 A 
ATOM     10  C   UNL     1      96.621  95.933  80.591  1.00  0.00     0.056 A 
ATOM     11  C   UNL     1      95.202  97.750  82.188  1.00  0.00     0.050 A 
ATOM     12  C   UNL     1      95.909  98.209  81.059  1.00  0.00     0.009 A 
BRANCH   8  13
ATOM     13  O   UNL     1      95.893  94.126  82.019  1.00  0.00    -0.493 OA
ATOM     14  C   UNL     1      95.017  93.362  81.169  1.00  0.00     0.278 C 
ENDBRANCH   8  13
BRANCH   9  15
ATOM     15  O   UNL     1      94.552  95.969  83.638  1.00  0.00    -0.504 OA
ATOM     16  H   UNL     1      94.660  95.021  83.741  1.00  0.00     0.293 HD
ENDBRANCH   9  15
ENDBRANCH   6   7
ENDBRANCH   3   6
ENDBRANCH   1   2
BRANCH   1  17
ATOM     17  C   UNL     1      95.459  99.787  75.801  1.00  0.00     0.010 C 
BRANCH  17  18
ATOM     18  C   UNL     1      93.909  99.673  75.804  1.00  0.00     0.005 C 
BRANCH  18  19
ATOM     19  C   UNL     1      93.408  98.406  75.059  1.00  0.00     0.027 C 
BRANCH  19  20
ATOM     20  C   UNL     1      93.146  97.303  75.972  1.00  0.00    -0.031 C 
ATOM     21  C   UNL     1      94.041  96.347  76.280  1.00  0.00    -0.028 C 
BRANCH  21  22
ATOM     22  C   UNL     1      93.762  95.259  77.216  1.00  0.00     0.005 C 
ATOM     23  C   UNL     1      93.512  95.773  78.661  1.00  0.00     0.012 C 
ATOM     24  C   UNL     1      92.562  94.414  76.714  1.00  0.00     0.012 C 
ENDBRANCH  21  22
ENDBRANCH  19  20
ENDBRANCH  18  19
ENDBRANCH  17  18
ENDBRANCH   1  17
TORSDOF 10
ENDMDL
MODEL 10
REMARK VINA RESULT:    -5.309     23.262     27.421
REMARK INTER + INTRA:          -9.270
REMARK INTER:                  -8.287
REMARK INTRA:                  -0.983
REMARK UNBOUND:                -1.013
REMARK SMILES COc1cc(CNC(=O)CCCC/C=C/C(C)C)ccc1O
REMARK SMILES IDX 10 1 8 2 7 3 9 5 6 6 5 7 3 8 21 9 4 10 20 11 19 12 2 13 1 14
REMARK SMILES IDX 22 15 11 17 12 18 13 19 14 20 15 21 16 22 17 23 18 24
REMARK H PARENT 7 4 22 16
REMARK Flexibility Score: inf
ROOT
ATOM      1  C   UNL     1      74.625  82.250  64.336  1.00  0.00     0.100 C 
ENDROOT
BRANCH   1   2
ATOM      2  C   UNL     1      73.204  82.300  64.730  1.00  0.00     0.220 C 
ATOM      3  N   UNL     1      72.583  83.497  64.925  1.00  0.00    -0.352 N 
ATOM      4  H   UNL     1      73.173  84.309  64.804  1.00  0.00     0.163 HD
ATOM      5  O   UNL     1      72.585  81.216  64.855  1.00  0.00    -0.275 OA
BRANCH   3   6
ATOM      6  C   UNL     1      71.207  83.655  65.276  1.00  0.00     0.151 C 
BRANCH   6   7
ATOM      7  C   UNL     1      71.018  83.680  66.752  1.00  0.00    -0.025 A 
ATOM      8  C   UNL     1      71.596  84.614  68.956  1.00  0.00     0.160 A 
ATOM      9  C   UNL     1      70.657  83.756  69.566  1.00  0.00     0.157 A 
ATOM     10  C   UNL     1      71.770  84.566  67.557  1.00  0.00     0.056 A 
ATOM     11  C   UNL     1      69.915  82.854  68.778  1.00  0.00     0.050 A 
ATOM     12  C   UNL     1      70.086  82.822  67.381  1.00  0.00     0.009 A 
BRANCH   8  13
ATOM     13  O   UNL     1      72.368  85.447  69.725  1.00  0.00    -0.493 OA
ATOM     14  C   UNL     1      73.763  85.451  69.368  1.00  0.00     0.278 C 
ENDBRANCH   8  13
BRANCH   9  15
ATOM     15  O   UNL     1      70.457  83.786  70.909  1.00  0.00    -0.504 OA
ATOM     16  H   UNL     1      71.057  83.171  71.336  1.00  0.00     0.293 HD
ENDBRANCH   9  15
ENDBRANCH   6   7
ENDBRANCH   3   6
ENDBRANCH   1   2
BRANCH   1  17
ATOM     17  C   UNL     1      75.509  81.644  65.459  1.00  0.00     0.010 C 
BRANCH  17  18
ATOM     18  C   UNL     1      76.036  82.713  66.457  1.00  0.00     0.005 C 
BRANCH  18  19
ATOM     19  C   UNL     1      77.568  82.932  66.334  1.00  0.00     0.027 C 
BRANCH  19  20
ATOM     20  C   UNL     1      77.962  84.279  66.719  1.00  0.00    -0.031 C 
ATOM     21  C   UNL     1      77.720  84.821  67.926  1.00  0.00    -0.028 C 
BRANCH  21  22
ATOM     22  C   UNL     1      78.143  86.171  68.298  1.00  0.00     0.005 C 
ATOM     23  C   UNL     1      77.778  87.222  67.213  1.00  0.00     0.012 C 
ATOM     24  C   UNL     1      77.540  86.562  69.672  1.00  0.00     0.012 C 
ENDBRANCH  21  22
ENDBRANCH  19  20
ENDBRANCH  18  19
ENDBRANCH  17  18
ENDBRANCH   1  17
TORSDOF 10
ENDMDL
