MODEL 1
REMARK VINA RESULT:    -7.656      0.000      0.000
REMARK INTER + INTRA:         -13.487
REMARK INTER:                 -13.027
REMARK INTRA:                  -0.459
REMARK UNBOUND:                -0.459
REMARK SMILES C=C(C)[C@]12C[C@@H](C)[C@@]34O[C@](Cc5ccccc5)(O[C@@H]1[C@@H]3C=C(COC(=O)Cc1ccc(O)cc1)C[C@]1(O)C(=O)C(C)=C[C@@H]41)O2
REMARK SMILES IDX 23 1 22 2 21 3 20 4 9 5 8 6 10 7 6 8 18 10 44 11 19 12 5 13
REMARK SMILES IDX 7 14 4 15 11 16 12 17 13 18 17 19 14 20 16 21 15 22 2 23
REMARK SMILES IDX 3 24 1 25 35 26 36 27 43 28 38 29 42 30 39 32 40 33 41 34
REMARK SMILES IDX 37 35 24 37 25 38 26 39 27 40 28 41 29 42 34 43 30 44 33 45
REMARK SMILES IDX 31 46 32 47
REMARK H PARENT 37 36 32 48
REMARK Flexibility Score: 90.00
ROOT
ATOM      1  C   UNL     1      92.271 102.093  73.079  1.00  0.00     0.264 C 
ENDROOT
BRANCH   1   2
ATOM      2  C   UNL     1      93.693 101.713  73.421  1.00  0.00    -0.033 C 
ATOM      3  C   UNL     1      93.933 100.992  74.536  1.00  0.00    -0.015 C 
BRANCH   3   4
ATOM      4  C   UNL     1      95.260 100.554  75.134  1.00  0.00     0.078 C 
ATOM      5  O   UNL     1      95.744  98.299  74.240  1.00  0.00    -0.319 OA
ATOM      6  C   UNL     1      96.226  99.679  74.253  1.00  0.00     0.095 CG0
ATOM      7  C   UNL     1      95.296  97.792  75.511  1.00  0.00     0.289 C 
ATOM      8  C   UNL     1      97.661  99.726  74.923  1.00  0.00     0.023 C 
ATOM      9  G   UNL     1      96.170 100.124  72.762  1.00  0.00     0.000 G0
ATOM     10  O   UNL     1      94.255  98.600  76.054  1.00  0.00    -0.320 OA
ATOM     11  O   UNL     1      96.332  97.791  76.490  1.00  0.00    -0.313 OA
ATOM     12  C   UNL     1      95.011  99.759  76.439  1.00  0.00     0.170 C 
ATOM     13  C   UNL     1      97.564  99.827  76.476  1.00  0.00     0.049 C 
ATOM     14  C   UNL     1      98.605  98.572  74.545  1.00  0.00     0.011 C 
ATOM     15  C   UNL     1      96.309  99.137  77.011  1.00  0.00     0.122 C 
BRANCH   7  16
ATOM     16  C   UNL     1      94.794  96.377  75.308  1.00  0.00     0.135 C 
BRANCH  16  17
ATOM     17  C   UNL     1      93.879  95.934  76.422  1.00  0.00    -0.040 A 
ATOM     18  C   UNL     1      92.538  96.319  76.419  1.00  0.00     0.004 A 
ATOM     19  C   UNL     1      94.374  95.140  77.456  1.00  0.00     0.004 A 
ATOM     20  C   UNL     1      91.692  95.909  77.450  1.00  0.00     0.000 A 
ATOM     21  C   UNL     1      93.528  94.730  78.487  1.00  0.00     0.000 A 
ATOM     22  C   UNL     1      92.188  95.115  78.484  1.00  0.00     0.000 A 
ENDBRANCH  16  17
ENDBRANCH   7  16
BRANCH  15  23
ATOM     23  C   UNL     1      96.286  99.063  78.503  1.00  0.00    -0.046 C 
ATOM     24  C   UNL     1      95.993  97.716  79.095  1.00  0.00     0.042 C 
ATOM     25  C   UNL     1      96.515 100.139  79.270  1.00  0.00     0.010 C 
ENDBRANCH  15  23
ENDBRANCH   3   4
BRANCH   2  26
ATOM     26  C   UNL     1      94.703 102.214  72.406  1.00  0.00     0.078 C 
BRANCH  26  27
ATOM     27  C   UNL     1      96.132 101.688  72.525  1.00  0.00     0.140 C 
ATOM     28  C   UNL     1      96.176 100.163  72.754  1.00  0.00     0.086 CG0
ATOM     29  C   UNL     1      96.918 101.846  71.241  1.00  0.00     0.190 C 
ATOM     30  C   UNL     1      97.232  99.694  71.792  1.00  0.00    -0.010 C 
ATOM     31  G   UNL     1      96.231  99.693  74.237  1.00  0.00     0.000 G0
ATOM     32  O   UNL     1      96.991 102.870  70.577  1.00  0.00    -0.291 OA
ATOM     33  C   UNL     1      97.649 100.608  70.910  1.00  0.00    -0.008 C 
ATOM     34  C   UNL     1      98.599 100.481  69.786  1.00  0.00     0.048 C 
BRANCH  27  35
ATOM     35  O   UNL     1      96.881 102.430  73.473  1.00  0.00    -0.381 OA
ATOM     36  H   UNL     1      97.812 102.160  73.408  1.00  0.00     0.212 HD
ENDBRANCH  27  35
ENDBRANCH  26  27
ENDBRANCH   2  26
ENDBRANCH   1   2
BRANCH   1  37
ATOM     37  O   UNL     1      91.497 100.921  72.934  1.00  0.00    -0.461 OA
BRANCH  37  38
ATOM     38  C   UNL     1      91.273 100.497  71.644  1.00  0.00     0.310 C 
ATOM     39  O   UNL     1      92.146 100.246  70.826  1.00  0.00    -0.252 OA
BRANCH  38  40
ATOM     40  C   UNL     1      89.787 100.389  71.400  1.00  0.00     0.158 C 
BRANCH  40  41
ATOM     41  C   UNL     1      89.427  99.281  70.445  1.00  0.00    -0.037 A 
ATOM     42  C   UNL     1      88.814  99.580  69.228  1.00  0.00     0.008 A 
ATOM     43  C   UNL     1      89.706  97.955  70.777  1.00  0.00     0.008 A 
ATOM     44  C   UNL     1      88.479  98.554  68.344  1.00  0.00     0.046 A 
ATOM     45  C   UNL     1      89.372  96.929  69.893  1.00  0.00     0.046 A 
ATOM     46  C   UNL     1      88.759  97.228  68.677  1.00  0.00     0.115 A 
BRANCH  46  47
ATOM     47  O   UNL     1      88.432  96.228  67.815  1.00  0.00    -0.508 OA
ATOM     48  H   UNL     1      87.671  96.509  67.278  1.00  0.00     0.293 HD
ENDBRANCH  46  47
ENDBRANCH  40  41
ENDBRANCH  38  40
ENDBRANCH  37  38
ENDBRANCH   1  37
TORSDOF 10
ENDMDL
MODEL 2
REMARK VINA RESULT:    -7.402     23.011     28.082
REMARK INTER + INTRA:         -13.054
REMARK INTER:                 -11.723
REMARK INTRA:                  -1.331
REMARK UNBOUND:                -0.459
REMARK SMILES C=C(C)[C@]12C[C@@H](C)[C@@]34O[C@](Cc5ccccc5)(O[C@@H]1[C@@H]3C=C(COC(=O)Cc1ccc(O)cc1)C[C@]1(O)C(=O)C(C)=C[C@@H]41)O2
REMARK SMILES IDX 23 1 22 2 21 3 20 4 9 5 8 6 10 7 6 8 18 10 44 11 19 12 5 13
REMARK SMILES IDX 7 14 4 15 11 16 12 17 13 18 17 19 14 20 16 21 15 22 2 23
REMARK SMILES IDX 3 24 1 25 35 26 36 27 43 28 38 29 42 30 39 32 40 33 41 34
REMARK SMILES IDX 37 35 24 37 25 38 26 39 27 40 28 41 29 42 34 43 30 44 33 45
REMARK SMILES IDX 31 46 32 47
REMARK H PARENT 37 36 32 48
REMARK Flexibility Score: 90.00
ROOT
ATOM      1  C   UNL     1      72.332  81.869  65.891  1.00  0.00     0.264 C 
ENDROOT
BRANCH   1   2
ATOM      2  C   UNL     1      72.328  83.254  66.498  1.00  0.00    -0.033 C 
ATOM      3  C   UNL     1      71.173  83.760  66.977  1.00  0.00    -0.015 C 
BRANCH   3   4
ATOM      4  C   UNL     1      70.891  85.136  67.558  1.00  0.00     0.078 C 
ATOM      5  O   UNL     1      71.172  84.955  70.009  1.00  0.00    -0.319 OA
ATOM      6  C   UNL     1      71.714  85.601  68.815  1.00  0.00     0.095 CG0
ATOM      7  C   UNL     1      69.734  84.910  70.085  1.00  0.00     0.289 C 
ATOM      8  C   UNL     1      71.543  87.171  68.946  1.00  0.00     0.023 C 
ATOM      9  G   UNL     1      73.183  85.094  68.733  1.00  0.00     0.000 G0
ATOM     10  O   UNL     1      69.176  84.248  68.953  1.00  0.00    -0.320 OA
ATOM     11  O   UNL     1      69.151  86.211  70.096  1.00  0.00    -0.313 OA
ATOM     12  C   UNL     1      69.395  85.247  67.945  1.00  0.00     0.170 C 
ATOM     13  C   UNL     1      70.135  87.635  68.463  1.00  0.00     0.049 C 
ATOM     14  C   UNL     1      71.820  87.752  70.344  1.00  0.00     0.011 C 
ATOM     15  C   UNL     1      69.073  86.560  68.698  1.00  0.00     0.122 C 
BRANCH   7  16
ATOM     16  C   UNL     1      69.348  84.173  71.352  1.00  0.00     0.135 C 
BRANCH  16  17
ATOM     17  C   UNL     1      67.863  83.921  71.431  1.00  0.00    -0.040 A 
ATOM     18  C   UNL     1      67.053  84.762  72.193  1.00  0.00     0.004 A 
ATOM     19  C   UNL     1      67.302  82.847  70.742  1.00  0.00     0.004 A 
ATOM     20  C   UNL     1      65.679  84.529  72.265  1.00  0.00     0.000 A 
ATOM     21  C   UNL     1      65.928  82.614  70.814  1.00  0.00     0.000 A 
ATOM     22  C   UNL     1      65.117  83.454  71.576  1.00  0.00     0.000 A 
ENDBRANCH  16  17
ENDBRANCH   7  16
BRANCH  15  23
ATOM     23  C   UNL     1      67.690  87.047  68.412  1.00  0.00    -0.046 C 
ATOM     24  C   UNL     1      66.575  86.089  68.710  1.00  0.00     0.042 C 
ATOM     25  C   UNL     1      67.458  88.272  67.916  1.00  0.00     0.010 C 
ENDBRANCH  15  23
ENDBRANCH   3   4
BRANCH   2  26
ATOM     26  C   UNL     1      73.696  83.911  66.490  1.00  0.00     0.078 C 
BRANCH  26  27
ATOM     27  C   UNL     1      73.866  85.177  67.327  1.00  0.00     0.140 C 
ATOM     28  C   UNL     1      73.185  85.060  68.707  1.00  0.00     0.086 CG0
ATOM     29  C   UNL     1      75.311  85.436  67.699  1.00  0.00     0.190 C 
ATOM     30  C   UNL     1      74.225  85.588  69.656  1.00  0.00    -0.010 C 
ATOM     31  G   UNL     1      71.726  85.594  68.799  1.00  0.00     0.000 G0
ATOM     32  O   UNL     1      76.256  85.416  66.924  1.00  0.00    -0.291 OA
ATOM     33  C   UNL     1      75.437  85.782  69.127  1.00  0.00    -0.008 C 
ATOM     34  C   UNL     1      76.698  86.207  69.769  1.00  0.00     0.048 C 
BRANCH  27  35
ATOM     35  O   UNL     1      73.491  86.335  66.600  1.00  0.00    -0.381 OA
ATOM     36  H   UNL     1      72.633  86.165  66.174  1.00  0.00     0.212 HD
ENDBRANCH  27  35
ENDBRANCH  26  27
ENDBRANCH   2  26
ENDBRANCH   1   2
BRANCH   1  37
ATOM     37  O   UNL     1      72.510  81.973  64.494  1.00  0.00    -0.461 OA
BRANCH  37  38
ATOM     38  C   UNL     1      72.874  80.818  63.841  1.00  0.00     0.310 C 
ATOM     39  O   UNL     1      72.298  79.744  63.940  1.00  0.00    -0.252 OA
BRANCH  38  40
ATOM     40  C   UNL     1      74.090  81.084  62.988  1.00  0.00     0.158 C 
BRANCH  40  41
ATOM     41  C   UNL     1      75.209  81.746  63.749  1.00  0.00    -0.037 A 
ATOM     42  C   UNL     1      75.698  82.985  63.334  1.00  0.00     0.008 A 
ATOM     43  C   UNL     1      75.756  81.121  64.869  1.00  0.00     0.008 A 
ATOM     44  C   UNL     1      76.735  83.598  64.039  1.00  0.00     0.046 A 
ATOM     45  C   UNL     1      76.793  81.734  65.575  1.00  0.00     0.046 A 
ATOM     46  C   UNL     1      77.282  82.971  65.160  1.00  0.00     0.115 A 
BRANCH  46  47
ATOM     47  O   UNL     1      78.293  83.569  65.846  1.00  0.00    -0.508 OA
ATOM     48  H   UNL     1      78.542  83.003  66.598  1.00  0.00     0.293 HD
ENDBRANCH  46  47
ENDBRANCH  40  41
ENDBRANCH  38  40
ENDBRANCH  37  38
ENDBRANCH   1  37
TORSDOF 10
ENDMDL
MODEL 3
REMARK VINA RESULT:    -7.119     16.356     20.774
REMARK INTER + INTRA:         -12.572
REMARK INTER:                 -10.455
REMARK INTRA:                  -2.117
REMARK UNBOUND:                -0.459
REMARK SMILES C=C(C)[C@]12C[C@@H](C)[C@@]34O[C@](Cc5ccccc5)(O[C@@H]1[C@@H]3C=C(COC(=O)Cc1ccc(O)cc1)C[C@]1(O)C(=O)C(C)=C[C@@H]41)O2
REMARK SMILES IDX 23 1 22 2 21 3 20 4 9 5 8 6 10 7 6 8 18 10 44 11 19 12 5 13
REMARK SMILES IDX 7 14 4 15 11 16 12 17 13 18 17 19 14 20 16 21 15 22 2 23
REMARK SMILES IDX 3 24 1 25 35 26 36 27 43 28 38 29 42 30 39 32 40 33 41 34
REMARK SMILES IDX 37 35 24 37 25 38 26 39 27 40 28 41 29 42 34 43 30 44 33 45
REMARK SMILES IDX 31 46 32 47
REMARK H PARENT 37 36 32 48
REMARK Flexibility Score: 90.00
ROOT
ATOM      1  C   UNL     1     105.279  81.436  77.307  1.00  0.00     0.264 C 
ENDROOT
BRANCH   1   2
ATOM      2  C   UNL     1     103.851  81.016  77.046  1.00  0.00    -0.033 C 
ATOM      3  C   UNL     1     102.843  81.784  77.511  1.00  0.00    -0.015 C 
BRANCH   3   4
ATOM      4  C   UNL     1     101.342  81.547  77.449  1.00  0.00     0.078 C 
ATOM      5  O   UNL     1     100.518  82.675  75.409  1.00  0.00    -0.319 OA
ATOM      6  C   UNL     1     100.670  81.365  76.039  1.00  0.00     0.095 CG0
ATOM      7  C   UNL     1     100.057  83.726  76.280  1.00  0.00     0.289 C 
ATOM      8  C   UNL     1      99.240  80.725  76.268  1.00  0.00     0.023 C 
ATOM      9  G   UNL     1     101.608  80.579  75.076  1.00  0.00     0.000 G0
ATOM     10  O   UNL     1     100.926  83.891  77.397  1.00  0.00    -0.320 OA
ATOM     11  O   UNL     1      98.771  83.450  76.830  1.00  0.00    -0.313 OA
ATOM     12  C   UNL     1     100.598  82.711  78.147  1.00  0.00     0.170 C 
ATOM     13  C   UNL     1      98.605  81.208  77.608  1.00  0.00     0.049 C 
ATOM     14  C   UNL     1      98.232  80.929  75.124  1.00  0.00     0.011 C 
ATOM     15  C   UNL     1      99.062  82.621  77.974  1.00  0.00     0.122 C 
BRANCH   7  16
ATOM     16  C   UNL     1      99.998  85.013  75.481  1.00  0.00     0.135 C 
BRANCH  16  17
ATOM     17  C   UNL     1     101.299  85.300  74.773  1.00  0.00    -0.040 A 
ATOM     18  C   UNL     1     102.502  85.252  75.477  1.00  0.00     0.004 A 
ATOM     19  C   UNL     1     101.298  85.613  73.414  1.00  0.00     0.004 A 
ATOM     20  C   UNL     1     103.705  85.517  74.822  1.00  0.00     0.000 A 
ATOM     21  C   UNL     1     102.501  85.879  72.759  1.00  0.00     0.000 A 
ATOM     22  C   UNL     1     103.704  85.830  73.463  1.00  0.00     0.000 A 
ENDBRANCH  16  17
ENDBRANCH   7  16
BRANCH  15  23
ATOM     23  C   UNL     1      98.330  83.173  79.153  1.00  0.00    -0.046 C 
ATOM     24  C   UNL     1      99.082  83.188  80.451  1.00  0.00     0.042 C 
ATOM     25  C   UNL     1      97.072  83.630  79.057  1.00  0.00     0.010 C 
ENDBRANCH  15  23
ENDBRANCH   3   4
BRANCH   2  26
ATOM     26  C   UNL     1     103.744  79.728  76.252  1.00  0.00     0.078 C 
BRANCH  26  27
ATOM     27  C   UNL     1     102.369  79.362  75.697  1.00  0.00     0.140 C 
ATOM     28  C   UNL     1     101.640  80.581  75.093  1.00  0.00     0.086 CG0
ATOM     29  C   UNL     1     102.452  78.416  74.518  1.00  0.00     0.190 C 
ATOM     30  C   UNL     1     101.114  80.060  73.784  1.00  0.00    -0.010 C 
ATOM     31  G   UNL     1     100.683  81.350  76.049  1.00  0.00     0.000 G0
ATOM     32  O   UNL     1     103.114  77.389  74.479  1.00  0.00    -0.291 OA
ATOM     33  C   UNL     1     101.573  78.859  73.419  1.00  0.00    -0.008 C 
ATOM     34  C   UNL     1     101.340  78.088  72.181  1.00  0.00     0.048 C 
BRANCH  27  35
ATOM     35  O   UNL     1     101.598  78.649  76.650  1.00  0.00    -0.381 OA
ATOM     36  H   UNL     1     102.105  78.598  77.478  1.00  0.00     0.212 HD
ENDBRANCH  27  35
ENDBRANCH  26  27
ENDBRANCH   2  26
ENDBRANCH   1   2
BRANCH   1  37
ATOM     37  O   UNL     1     105.459  81.643  78.692  1.00  0.00    -0.461 OA
BRANCH  37  38
ATOM     38  C   UNL     1     105.966  80.582  79.405  1.00  0.00     0.310 C 
ATOM     39  O   UNL     1     106.755  79.756  78.968  1.00  0.00    -0.252 OA
BRANCH  38  40
ATOM     40  C   UNL     1     105.399  80.597  80.804  1.00  0.00     0.158 C 
BRANCH  40  41
ATOM     41  C   UNL     1     103.905  80.404  80.834  1.00  0.00    -0.037 A 
ATOM     42  C   UNL     1     103.075  81.445  81.252  1.00  0.00     0.008 A 
ATOM     43  C   UNL     1     103.350  79.185  80.445  1.00  0.00     0.008 A 
ATOM     44  C   UNL     1     101.692  81.267  81.281  1.00  0.00     0.046 A 
ATOM     45  C   UNL     1     101.967  79.006  80.474  1.00  0.00     0.046 A 
ATOM     46  C   UNL     1     101.138  80.047  80.892  1.00  0.00     0.115 A 
BRANCH  46  47
ATOM     47  O   UNL     1      99.789  79.873  80.921  1.00  0.00    -0.508 OA
ATOM     48  H   UNL     1      99.521  79.632  81.825  1.00  0.00     0.293 HD
ENDBRANCH  46  47
ENDBRANCH  40  41
ENDBRANCH  38  40
ENDBRANCH  37  38
ENDBRANCH   1  37
TORSDOF 10
ENDMDL
MODEL 4
REMARK VINA RESULT:    -6.994     18.866     22.172
REMARK INTER + INTRA:         -12.361
REMARK INTER:                 -12.204
REMARK INTRA:                  -0.157
REMARK UNBOUND:                -0.459
REMARK SMILES C=C(C)[C@]12C[C@@H](C)[C@@]34O[C@](Cc5ccccc5)(O[C@@H]1[C@@H]3C=C(COC(=O)Cc1ccc(O)cc1)C[C@]1(O)C(=O)C(C)=C[C@@H]41)O2
REMARK SMILES IDX 23 1 22 2 21 3 20 4 9 5 8 6 10 7 6 8 18 10 44 11 19 12 5 13
REMARK SMILES IDX 7 14 4 15 11 16 12 17 13 18 17 19 14 20 16 21 15 22 2 23
REMARK SMILES IDX 3 24 1 25 35 26 36 27 43 28 38 29 42 30 39 32 40 33 41 34
REMARK SMILES IDX 37 35 24 37 25 38 26 39 27 40 28 41 29 42 34 43 30 44 33 45
REMARK SMILES IDX 31 46 32 47
REMARK H PARENT 37 36 32 48
REMARK Flexibility Score: 90.00
ROOT
ATOM      1  C   UNL     1      95.296  87.165  89.933  1.00  0.00     0.264 C 
ENDROOT
BRANCH   1   2
ATOM      2  C   UNL     1      95.044  85.908  89.132  1.00  0.00    -0.033 C 
ATOM      3  C   UNL     1      96.081  85.293  88.527  1.00  0.00    -0.015 C 
BRANCH   3   4
ATOM      4  C   UNL     1      96.083  84.077  87.614  1.00  0.00     0.078 C 
ATOM      5  O   UNL     1      96.434  82.097  89.053  1.00  0.00    -0.319 OA
ATOM      6  C   UNL     1      95.471  82.734  88.157  1.00  0.00     0.095 CG0
ATOM      7  C   UNL     1      97.802  82.118  88.602  1.00  0.00     0.289 C 
ATOM      8  C   UNL     1      95.211  81.788  86.912  1.00  0.00     0.023 C 
ATOM      9  G   UNL     1      94.231  83.013  89.055  1.00  0.00     0.000 G0
ATOM     10  O   UNL     1      98.252  83.451  88.373  1.00  0.00    -0.320 OA
ATOM     11  O   UNL     1      97.975  81.436  87.362  1.00  0.00    -0.313 OA
ATOM     12  C   UNL     1      97.531  83.756  87.169  1.00  0.00     0.170 C 
ATOM     13  C   UNL     1      96.277  82.006  85.795  1.00  0.00     0.049 C 
ATOM     14  C   UNL     1      95.107  80.287  87.232  1.00  0.00     0.011 C 
ATOM     15  C   UNL     1      97.627  82.430  86.376  1.00  0.00     0.122 C 
BRANCH   7  16
ATOM     16  C   UNL     1      98.663  81.461  89.663  1.00  0.00     0.135 C 
BRANCH  16  17
ATOM     17  C   UNL     1     100.135  81.652  89.397  1.00  0.00    -0.040 A 
ATOM     18  C   UNL     1     100.963  80.544  89.226  1.00  0.00     0.004 A 
ATOM     19  C   UNL     1     100.667  82.939  89.322  1.00  0.00     0.004 A 
ATOM     20  C   UNL     1     102.325  80.721  88.979  1.00  0.00     0.000 A 
ATOM     21  C   UNL     1     102.029  83.116  89.075  1.00  0.00     0.000 A 
ATOM     22  C   UNL     1     102.857  82.008  88.904  1.00  0.00     0.000 A 
ENDBRANCH  16  17
ENDBRANCH   7  16
BRANCH  15  23
ATOM     23  C   UNL     1      98.708  82.468  85.346  1.00  0.00    -0.046 C 
ATOM     24  C   UNL     1     100.061  81.995  85.788  1.00  0.00     0.042 C 
ATOM     25  C   UNL     1      98.482  82.902  84.097  1.00  0.00     0.010 C 
ENDBRANCH  15  23
ENDBRANCH   3   4
BRANCH   2  26
ATOM     26  C   UNL     1      93.586  85.487  89.127  1.00  0.00     0.078 C 
BRANCH  26  27
ATOM     27  C   UNL     1      93.255  84.127  88.517  1.00  0.00     0.140 C 
ATOM     28  C   UNL     1      94.195  83.014  89.027  1.00  0.00     0.086 CG0
ATOM     29  C   UNL     1      91.892  83.619  88.939  1.00  0.00     0.190 C 
ATOM     30  C   UNL     1      93.256  81.888  89.360  1.00  0.00    -0.010 C 
ATOM     31  G   UNL     1      95.453  82.728  88.156  1.00  0.00     0.000 G0
ATOM     32  O   UNL     1      90.855  84.264  88.905  1.00  0.00    -0.291 OA
ATOM     33  C   UNL     1      91.958  82.203  89.347  1.00  0.00    -0.008 C 
ATOM     34  C   UNL     1      90.777  81.386  89.697  1.00  0.00     0.048 C 
BRANCH  27  35
ATOM     35  O   UNL     1      93.167  84.199  87.104  1.00  0.00    -0.381 OA
ATOM     36  H   UNL     1      94.043  84.003  86.732  1.00  0.00     0.212 HD
ENDBRANCH  27  35
ENDBRANCH  26  27
ENDBRANCH   2  26
ENDBRANCH   1   2
BRANCH   1  37
ATOM     37  O   UNL     1      96.376  87.873  89.363  1.00  0.00    -0.461 OA
BRANCH  37  38
ATOM     38  C   UNL     1      96.447  89.215  89.659  1.00  0.00     0.310 C 
ATOM     39  O   UNL     1      97.322  89.740  90.333  1.00  0.00    -0.252 OA
BRANCH  38  40
ATOM     40  C   UNL     1      95.280  89.933  89.024  1.00  0.00     0.158 C 
BRANCH  40  41
ATOM     41  C   UNL     1      94.380  90.598  90.033  1.00  0.00    -0.037 A 
ATOM     42  C   UNL     1      93.396  89.856  90.687  1.00  0.00     0.008 A 
ATOM     43  C   UNL     1      94.530  91.956  90.313  1.00  0.00     0.008 A 
ATOM     44  C   UNL     1      92.562  90.472  91.620  1.00  0.00     0.046 A 
ATOM     45  C   UNL     1      93.696  92.573  91.247  1.00  0.00     0.046 A 
ATOM     46  C   UNL     1      92.713  91.831  91.900  1.00  0.00     0.115 A 
BRANCH  46  47
ATOM     47  O   UNL     1      91.899  92.432  92.810  1.00  0.00    -0.508 OA
ATOM     48  H   UNL     1      91.491  93.215  92.401  1.00  0.00     0.293 HD
ENDBRANCH  46  47
ENDBRANCH  40  41
ENDBRANCH  38  40
ENDBRANCH  37  38
ENDBRANCH   1  37
TORSDOF 10
ENDMDL
MODEL 5
REMARK VINA RESULT:    -6.797     19.002     23.368
REMARK INTER + INTRA:         -12.024
REMARK INTER:                 -10.818
REMARK INTRA:                  -1.206
REMARK UNBOUND:                -0.459
REMARK SMILES C=C(C)[C@]12C[C@@H](C)[C@@]34O[C@](Cc5ccccc5)(O[C@@H]1[C@@H]3C=C(COC(=O)Cc1ccc(O)cc1)C[C@]1(O)C(=O)C(C)=C[C@@H]41)O2
REMARK SMILES IDX 23 1 22 2 21 3 20 4 9 5 8 6 10 7 6 8 18 10 44 11 19 12 5 13
REMARK SMILES IDX 7 14 4 15 11 16 12 17 13 18 17 19 14 20 16 21 15 22 2 23
REMARK SMILES IDX 3 24 1 25 35 26 36 27 43 28 38 29 42 30 39 32 40 33 41 34
REMARK SMILES IDX 37 35 24 37 25 38 26 39 27 40 28 41 29 42 34 43 30 44 33 45
REMARK SMILES IDX 31 46 32 47
REMARK H PARENT 37 36 32 48
REMARK Flexibility Score: 90.00
ROOT
ATOM      1  C   UNL     1      95.236  85.189  87.722  1.00  0.00     0.264 C 
ENDROOT
BRANCH   1   2
ATOM      2  C   UNL     1      93.992  84.386  88.028  1.00  0.00    -0.033 C 
ATOM      3  C   UNL     1      93.842  83.166  87.472  1.00  0.00    -0.015 C 
BRANCH   3   4
ATOM      4  C   UNL     1      92.667  82.205  87.559  1.00  0.00     0.078 C 
ATOM      5  O   UNL     1      93.111  80.694  89.466  1.00  0.00    -0.319 OA
ATOM      6  C   UNL     1      92.195  81.725  88.980  1.00  0.00     0.095 CG0
ATOM      7  C   UNL     1      93.509  79.715  88.487  1.00  0.00     0.289 C 
ATOM      8  C   UNL     1      90.746  81.105  88.821  1.00  0.00     0.023 C 
ATOM      9  G   UNL     1      92.319  82.875  90.022  1.00  0.00     0.000 G0
ATOM     10  O   UNL     1      94.124  80.331  87.359  1.00  0.00    -0.320 OA
ATOM     11  O   UNL     1      92.400  78.983  87.970  1.00  0.00    -0.313 OA
ATOM     12  C   UNL     1      92.973  80.926  86.740  1.00  0.00     0.170 C 
ATOM     13  C   UNL     1      90.571  80.408  87.437  1.00  0.00     0.049 C 
ATOM     14  C   UNL     1      90.314  80.138  89.937  1.00  0.00     0.011 C 
ATOM     15  C   UNL     1      91.891  79.833  86.922  1.00  0.00     0.122 C 
BRANCH   7  16
ATOM     16  C   UNL     1      94.484  78.757  89.143  1.00  0.00     0.135 C 
BRANCH  16  17
ATOM     17  C   UNL     1      95.763  78.623  88.355  1.00  0.00    -0.040 A 
ATOM     18  C   UNL     1      95.745  78.034  87.092  1.00  0.00     0.004 A 
ATOM     19  C   UNL     1      96.963  79.088  88.892  1.00  0.00     0.004 A 
ATOM     20  C   UNL     1      96.929  77.910  86.363  1.00  0.00     0.000 A 
ATOM     21  C   UNL     1      98.147  78.964  88.163  1.00  0.00     0.000 A 
ATOM     22  C   UNL     1      98.129  78.375  86.899  1.00  0.00     0.000 A 
ENDBRANCH  16  17
ENDBRANCH   7  16
BRANCH  15  23
ATOM     23  C   UNL     1      91.715  79.007  85.690  1.00  0.00    -0.046 C 
ATOM     24  C   UNL     1      90.631  79.443  84.749  1.00  0.00     0.042 C 
ATOM     25  C   UNL     1      92.482  77.936  85.439  1.00  0.00     0.010 C 
ENDBRANCH  15  23
ENDBRANCH   3   4
BRANCH   2  26
ATOM     26  C   UNL     1      93.042  85.098  88.973  1.00  0.00     0.078 C 
BRANCH  26  27
ATOM     27  C   UNL     1      91.861  84.293  89.512  1.00  0.00     0.140 C 
ATOM     28  C   UNL     1      92.286  82.897  90.012  1.00  0.00     0.086 CG0
ATOM     29  C   UNL     1      91.255  84.912  90.753  1.00  0.00     0.190 C 
ATOM     30  C   UNL     1      91.587  82.772  91.337  1.00  0.00    -0.010 C 
ATOM     31  G   UNL     1      92.178  81.737  88.979  1.00  0.00     0.000 G0
ATOM     32  O   UNL     1      90.946  86.088  90.879  1.00  0.00    -0.291 OA
ATOM     33  C   UNL     1      91.023  83.893  91.794  1.00  0.00    -0.008 C 
ATOM     34  C   UNL     1      90.334  84.159  93.074  1.00  0.00     0.048 C 
BRANCH  27  35
ATOM     35  O   UNL     1      90.786  84.267  88.588  1.00  0.00    -0.381 OA
ATOM     36  H   UNL     1      90.437  85.171  88.498  1.00  0.00     0.212 HD
ENDBRANCH  27  35
ENDBRANCH  26  27
ENDBRANCH   2  26
ENDBRANCH   1   2
BRANCH   1  37
ATOM     37  O   UNL     1      95.170  85.662  86.393  1.00  0.00    -0.461 OA
BRANCH  37  38
ATOM     38  C   UNL     1      96.280  85.437  85.612  1.00  0.00     0.310 C 
ATOM     39  O   UNL     1      97.202  86.225  85.459  1.00  0.00    -0.252 OA
BRANCH  38  40
ATOM     40  C   UNL     1      96.180  84.071  84.977  1.00  0.00     0.158 C 
BRANCH  40  41
ATOM     41  C   UNL     1      97.390  83.212  85.237  1.00  0.00    -0.037 A 
ATOM     42  C   UNL     1      97.746  82.215  84.329  1.00  0.00     0.008 A 
ATOM     43  C   UNL     1      98.155  83.413  86.386  1.00  0.00     0.008 A 
ATOM     44  C   UNL     1      98.866  81.418  84.570  1.00  0.00     0.046 A 
ATOM     45  C   UNL     1      99.275  82.617  86.627  1.00  0.00     0.046 A 
ATOM     46  C   UNL     1      99.631  81.620  85.720  1.00  0.00     0.115 A 
BRANCH  46  47
ATOM     47  O   UNL     1     100.723  80.843  85.955  1.00  0.00    -0.508 OA
ATOM     48  H   UNL     1     101.435  81.400  86.315  1.00  0.00     0.293 HD
ENDBRANCH  46  47
ENDBRANCH  40  41
ENDBRANCH  38  40
ENDBRANCH  37  38
ENDBRANCH   1  37
TORSDOF 10
ENDMDL
MODEL 6
REMARK VINA RESULT:    -6.626     19.200     22.838
REMARK INTER + INTRA:         -11.734
REMARK INTER:                 -11.309
REMARK INTRA:                  -0.424
REMARK UNBOUND:                -0.459
REMARK SMILES C=C(C)[C@]12C[C@@H](C)[C@@]34O[C@](Cc5ccccc5)(O[C@@H]1[C@@H]3C=C(COC(=O)Cc1ccc(O)cc1)C[C@]1(O)C(=O)C(C)=C[C@@H]41)O2
REMARK SMILES IDX 23 1 22 2 21 3 20 4 9 5 8 6 10 7 6 8 18 10 44 11 19 12 5 13
REMARK SMILES IDX 7 14 4 15 11 16 12 17 13 18 17 19 14 20 16 21 15 22 2 23
REMARK SMILES IDX 3 24 1 25 35 26 36 27 43 28 38 29 42 30 39 32 40 33 41 34
REMARK SMILES IDX 37 35 24 37 25 38 26 39 27 40 28 41 29 42 34 43 30 44 33 45
REMARK SMILES IDX 31 46 32 47
REMARK H PARENT 37 36 32 48
REMARK Flexibility Score: 90.00
ROOT
ATOM      1  C   UNL     1      96.857  83.966  86.875  1.00  0.00     0.264 C 
ENDROOT
BRANCH   1   2
ATOM      2  C   UNL     1      95.547  84.029  87.625  1.00  0.00    -0.033 C 
ATOM      3  C   UNL     1      94.520  83.251  87.224  1.00  0.00    -0.015 C 
BRANCH   3   4
ATOM      4  C   UNL     1      93.096  83.184  87.753  1.00  0.00     0.078 C 
ATOM      5  O   UNL     1      93.056  81.427  89.493  1.00  0.00    -0.319 OA
ATOM      6  C   UNL     1      92.878  82.861  89.277  1.00  0.00     0.095 CG0
ATOM      7  C   UNL     1      92.453  80.576  88.498  1.00  0.00     0.289 C 
ATOM      8  C   UNL     1      91.392  83.266  89.645  1.00  0.00     0.023 C 
ATOM      9  G   UNL     1      93.986  83.524  90.147  1.00  0.00     0.000 G0
ATOM     10  O   UNL     1      92.946  80.873  87.195  1.00  0.00    -0.320 OA
ATOM     11  O   UNL     1      91.039  80.747  88.424  1.00  0.00    -0.313 OA
ATOM     12  C   UNL     1      92.289  82.128  86.958  1.00  0.00     0.170 C 
ATOM     13  C   UNL     1      90.424  83.045  88.443  1.00  0.00     0.049 C 
ATOM     14  C   UNL     1      90.812  82.587  90.898  1.00  0.00     0.011 C 
ATOM     15  C   UNL     1      90.881  81.887  87.554  1.00  0.00     0.122 C 
BRANCH   7  16
ATOM     16  C   UNL     1      92.769  79.136  88.851  1.00  0.00     0.135 C 
BRANCH  16  17
ATOM     17  C   UNL     1      92.803  78.249  87.631  1.00  0.00    -0.040 A 
ATOM     18  C   UNL     1      91.618  77.718  87.122  1.00  0.00     0.004 A 
ATOM     19  C   UNL     1      94.019  77.960  87.013  1.00  0.00     0.004 A 
ATOM     20  C   UNL     1      91.649  76.897  85.994  1.00  0.00     0.000 A 
ATOM     21  C   UNL     1      94.050  77.140  85.885  1.00  0.00     0.000 A 
ATOM     22  C   UNL     1      92.866  76.609  85.376  1.00  0.00     0.000 A 
ENDBRANCH  16  17
ENDBRANCH   7  16
BRANCH  15  23
ATOM     23  C   UNL     1      89.877  81.540  86.503  1.00  0.00    -0.046 C 
ATOM     24  C   UNL     1      89.999  80.173  85.897  1.00  0.00     0.042 C 
ATOM     25  C   UNL     1      88.923  82.401  86.122  1.00  0.00     0.010 C 
ENDBRANCH  15  23
ENDBRANCH   3   4
BRANCH   2  26
ATOM     26  C   UNL     1      95.572  85.003  88.788  1.00  0.00     0.078 C 
BRANCH  26  27
ATOM     27  C   UNL     1      94.381  84.980  89.744  1.00  0.00     0.140 C 
ATOM     28  C   UNL     1      93.984  83.544  90.147  1.00  0.00     0.086 CG0
ATOM     29  C   UNL     1      94.698  85.617  91.080  1.00  0.00     0.190 C 
ATOM     30  C   UNL     1      93.801  83.638  91.636  1.00  0.00    -0.010 C 
ATOM     31  G   UNL     1      92.880  82.870  89.282  1.00  0.00     0.000 G0
ATOM     32  O   UNL     1      95.233  86.704  91.237  1.00  0.00    -0.291 OA
ATOM     33  C   UNL     1      94.218  84.778  92.194  1.00  0.00    -0.008 C 
ATOM     34  C   UNL     1      94.268  85.179  93.615  1.00  0.00     0.048 C 
BRANCH  27  35
ATOM     35  O   UNL     1      93.302  85.754  89.247  1.00  0.00    -0.381 OA
ATOM     36  H   UNL     1      93.547  86.693  89.304  1.00  0.00     0.212 HD
ENDBRANCH  27  35
ENDBRANCH  26  27
ENDBRANCH   2  26
ENDBRANCH   1   2
BRANCH   1  37
ATOM     37  O   UNL     1      97.547  82.790  87.240  1.00  0.00    -0.461 OA
BRANCH  37  38
ATOM     38  C   UNL     1      98.441  82.298  86.316  1.00  0.00     0.310 C 
ATOM     39  O   UNL     1      99.647  82.496  86.331  1.00  0.00    -0.252 OA
BRANCH  38  40
ATOM     40  C   UNL     1      97.700  81.477  85.287  1.00  0.00     0.158 C 
BRANCH  40  41
ATOM     41  C   UNL     1      98.154  81.755  83.878  1.00  0.00    -0.037 A 
ATOM     42  C   UNL     1      98.910  80.807  83.188  1.00  0.00     0.008 A 
ATOM     43  C   UNL     1      97.819  82.960  83.261  1.00  0.00     0.008 A 
ATOM     44  C   UNL     1      99.331  81.064  81.883  1.00  0.00     0.046 A 
ATOM     45  C   UNL     1      98.239  83.218  81.956  1.00  0.00     0.046 A 
ATOM     46  C   UNL     1      98.995  82.270  81.267  1.00  0.00     0.115 A 
BRANCH  46  47
ATOM     47  O   UNL     1      99.406  82.521  79.994  1.00  0.00    -0.508 OA
ATOM     48  H   UNL     1      98.834  82.034  79.376  1.00  0.00     0.293 HD
ENDBRANCH  46  47
ENDBRANCH  40  41
ENDBRANCH  38  40
ENDBRANCH  37  38
ENDBRANCH   1  37
TORSDOF 10
ENDMDL
MODEL 7
REMARK VINA RESULT:    -6.622     27.557     32.996
REMARK INTER + INTRA:         -11.727
REMARK INTER:                  -9.714
REMARK INTRA:                  -2.013
REMARK UNBOUND:                -0.459
REMARK SMILES C=C(C)[C@]12C[C@@H](C)[C@@]34O[C@](Cc5ccccc5)(O[C@@H]1[C@@H]3C=C(COC(=O)Cc1ccc(O)cc1)C[C@]1(O)C(=O)C(C)=C[C@@H]41)O2
REMARK SMILES IDX 23 1 22 2 21 3 20 4 9 5 8 6 10 7 6 8 18 10 44 11 19 12 5 13
REMARK SMILES IDX 7 14 4 15 11 16 12 17 13 18 17 19 14 20 16 21 15 22 2 23
REMARK SMILES IDX 3 24 1 25 35 26 36 27 43 28 38 29 42 30 39 32 40 33 41 34
REMARK SMILES IDX 37 35 24 37 25 38 26 39 27 40 28 41 29 42 34 43 30 44 33 45
REMARK SMILES IDX 31 46 32 47
REMARK H PARENT 37 36 32 48
REMARK Flexibility Score: 90.00
ROOT
ATOM      1  C   UNL     1      66.787  86.837  74.804  1.00  0.00     0.264 C 
ENDROOT
BRANCH   1   2
ATOM      2  C   UNL     1      66.919  86.275  73.407  1.00  0.00    -0.033 C 
ATOM      3  C   UNL     1      65.908  85.545  72.892  1.00  0.00    -0.015 C 
BRANCH   3   4
ATOM      4  C   UNL     1      65.825  84.815  71.561  1.00  0.00     0.078 C 
ATOM      5  O   UNL     1      64.801  86.381  69.944  1.00  0.00    -0.319 OA
ATOM      6  C   UNL     1      66.028  85.644  70.240  1.00  0.00     0.095 CG0
ATOM      7  C   UNL     1      63.579  85.642  70.133  1.00  0.00     0.289 C 
ATOM      8  C   UNL     1      66.316  84.616  69.069  1.00  0.00     0.023 C 
ATOM      9  G   UNL     1      67.106  86.749  70.439  1.00  0.00     0.000 G0
ATOM     10  O   UNL     1      63.469  85.154  71.467  1.00  0.00    -0.320 OA
ATOM     11  O   UNL     1      63.506  84.491  69.295  1.00  0.00    -0.313 OA
ATOM     12  C   UNL     1      64.453  84.108  71.434  1.00  0.00     0.170 C 
ATOM     13  C   UNL     1      65.551  83.274  69.284  1.00  0.00     0.049 C 
ATOM     14  C   UNL     1      66.041  85.137  67.648  1.00  0.00     0.011 C 
ATOM     15  C   UNL     1      64.234  83.487  70.032  1.00  0.00     0.122 C 
BRANCH   7  16
ATOM     16  C   UNL     1      62.415  86.563  69.826  1.00  0.00     0.135 C 
BRANCH  16  17
ATOM     17  C   UNL     1      61.113  86.033  70.374  1.00  0.00    -0.040 A 
ATOM     18  C   UNL     1      60.512  84.919  69.789  1.00  0.00     0.004 A 
ATOM     19  C   UNL     1      60.511  86.658  71.465  1.00  0.00     0.004 A 
ATOM     20  C   UNL     1      59.308  84.428  70.297  1.00  0.00     0.000 A 
ATOM     21  C   UNL     1      59.307  86.168  71.973  1.00  0.00     0.000 A 
ATOM     22  C   UNL     1      58.707  85.054  71.388  1.00  0.00     0.000 A 
ENDBRANCH  16  17
ENDBRANCH   7  16
BRANCH  15  23
ATOM     23  C   UNL     1      63.401  82.249  70.091  1.00  0.00    -0.046 C 
ATOM     24  C   UNL     1      63.183  81.661  71.454  1.00  0.00     0.042 C 
ATOM     25  C   UNL     1      62.877  81.694  68.988  1.00  0.00     0.010 C 
ENDBRANCH  15  23
ENDBRANCH   3   4
BRANCH   2  26
ATOM     26  C   UNL     1      68.235  86.633  72.743  1.00  0.00     0.078 C 
BRANCH  26  27
ATOM     27  C   UNL     1      68.374  86.317  71.255  1.00  0.00     0.140 C 
ATOM     28  C   UNL     1      67.126  86.735  70.450  1.00  0.00     0.086 CG0
ATOM     29  C   UNL     1      69.473  87.120  70.592  1.00  0.00     0.190 C 
ATOM     30  C   UNL     1      67.702  87.437  69.252  1.00  0.00    -0.010 C 
ATOM     31  G   UNL     1      66.044  85.635  70.243  1.00  0.00     0.000 G0
ATOM     32  O   UNL     1      70.612  87.248  71.016  1.00  0.00    -0.291 OA
ATOM     33  C   UNL     1      69.012  87.694  69.313  1.00  0.00    -0.008 C 
ATOM     34  C   UNL     1      69.883  88.427  68.372  1.00  0.00     0.048 C 
BRANCH  27  35
ATOM     35  O   UNL     1      68.766  84.971  71.046  1.00  0.00    -0.381 OA
ATOM     36  H   UNL     1      68.110  84.547  70.467  1.00  0.00     0.212 HD
ENDBRANCH  27  35
ENDBRANCH  26  27
ENDBRANCH   2  26
ENDBRANCH   1   2
BRANCH   1  37
ATOM     37  O   UNL     1      67.130  85.840  75.743  1.00  0.00    -0.461 OA
BRANCH  37  38
ATOM     38  C   UNL     1      66.604  85.988  77.005  1.00  0.00     0.310 C 
ATOM     39  O   UNL     1      66.755  86.970  77.719  1.00  0.00    -0.252 OA
BRANCH  38  40
ATOM     40  C   UNL     1      65.814  84.754  77.370  1.00  0.00     0.158 C 
BRANCH  40  41
ATOM     41  C   UNL     1      64.651  84.506  76.445  1.00  0.00    -0.037 A 
ATOM     42  C   UNL     1      63.727  85.522  76.197  1.00  0.00     0.008 A 
ATOM     43  C   UNL     1      64.496  83.261  75.836  1.00  0.00     0.008 A 
ATOM     44  C   UNL     1      62.650  85.293  75.342  1.00  0.00     0.046 A 
ATOM     45  C   UNL     1      63.418  83.031  74.980  1.00  0.00     0.046 A 
ATOM     46  C   UNL     1      62.495  84.047  74.733  1.00  0.00     0.115 A 
BRANCH  46  47
ATOM     47  O   UNL     1      61.444  83.823  73.899  1.00  0.00    -0.508 OA
ATOM     48  H   UNL     1      61.612  83.012  73.389  1.00  0.00     0.293 HD
ENDBRANCH  46  47
ENDBRANCH  40  41
ENDBRANCH  38  40
ENDBRANCH  37  38
ENDBRANCH   1  37
TORSDOF 10
ENDMDL
MODEL 8
REMARK VINA RESULT:    -6.552     17.531     22.408
REMARK INTER + INTRA:         -11.608
REMARK INTER:                 -10.561
REMARK INTRA:                  -1.047
REMARK UNBOUND:                -0.459
REMARK SMILES C=C(C)[C@]12C[C@@H](C)[C@@]34O[C@](Cc5ccccc5)(O[C@@H]1[C@@H]3C=C(COC(=O)Cc1ccc(O)cc1)C[C@]1(O)C(=O)C(C)=C[C@@H]41)O2
REMARK SMILES IDX 23 1 22 2 21 3 20 4 9 5 8 6 10 7 6 8 18 10 44 11 19 12 5 13
REMARK SMILES IDX 7 14 4 15 11 16 12 17 13 18 17 19 14 20 16 21 15 22 2 23
REMARK SMILES IDX 3 24 1 25 35 26 36 27 43 28 38 29 42 30 39 32 40 33 41 34
REMARK SMILES IDX 37 35 24 37 25 38 26 39 27 40 28 41 29 42 34 43 30 44 33 45
REMARK SMILES IDX 31 46 32 47
REMARK H PARENT 37 36 32 48
REMARK Flexibility Score: 90.00
ROOT
ATOM      1  C   UNL     1      97.831  78.385  85.339  1.00  0.00     0.264 C 
ENDROOT
BRANCH   1   2
ATOM      2  C   UNL     1      99.121  78.573  84.576  1.00  0.00    -0.033 C 
ATOM      3  C   UNL     1      99.073  78.840  83.254  1.00  0.00    -0.015 C 
BRANCH   3   4
ATOM      4  C   UNL     1     100.212  78.994  82.258  1.00  0.00     0.078 C 
ATOM      5  O   UNL     1     100.778  81.400  82.179  1.00  0.00    -0.319 OA
ATOM      6  C   UNL     1     101.308  80.087  82.539  1.00  0.00     0.095 CG0
ATOM      7  C   UNL     1     100.035  81.447  80.945  1.00  0.00     0.289 C 
ATOM      8  C   UNL     1     102.558  79.758  81.623  1.00  0.00     0.023 C 
ATOM      9  G   UNL     1     101.606  80.193  84.063  1.00  0.00     0.000 G0
ATOM     10  O   UNL     1      98.938  80.538  80.967  1.00  0.00    -0.320 OA
ATOM     11  O   UNL     1     100.826  81.069  79.821  1.00  0.00    -0.313 OA
ATOM     12  C   UNL     1      99.642  79.292  80.850  1.00  0.00     0.170 C 
ATOM     13  C   UNL     1     102.122  79.124  80.266  1.00  0.00     0.049 C 
ATOM     14  C   UNL     1     103.509  80.937  81.352  1.00  0.00     0.011 C 
ATOM     15  C   UNL     1     100.749  79.628  79.821  1.00  0.00     0.122 C 
BRANCH   7  16
ATOM     16  C   UNL     1      99.526  82.862  80.751  1.00  0.00     0.135 C 
BRANCH  16  17
ATOM     17  C   UNL     1      99.097  83.119  79.328  1.00  0.00    -0.040 A 
ATOM     18  C   UNL     1     100.054  83.254  78.324  1.00  0.00     0.004 A 
ATOM     19  C   UNL     1      97.741  83.220  79.018  1.00  0.00     0.004 A 
ATOM     20  C   UNL     1      99.657  83.491  77.008  1.00  0.00     0.000 A 
ATOM     21  C   UNL     1      97.343  83.458  77.701  1.00  0.00     0.000 A 
ATOM     22  C   UNL     1      98.301  83.593  76.697  1.00  0.00     0.000 A 
ENDBRANCH  16  17
ENDBRANCH   7  16
BRANCH  15  23
ATOM     23  C   UNL     1     100.391  79.177  78.443  1.00  0.00    -0.046 C 
ATOM     24  C   UNL     1      99.047  79.608  77.933  1.00  0.00     0.042 C 
ATOM     25  C   UNL     1     101.223  78.429  77.703  1.00  0.00     0.010 C 
ENDBRANCH  15  23
ENDBRANCH   3   4
BRANCH   2  26
ATOM     26  C   UNL     1     100.355  78.436  85.449  1.00  0.00     0.078 C 
BRANCH  26  27
ATOM     27  C   UNL     1     101.694  78.838  84.833  1.00  0.00     0.140 C 
ATOM     28  C   UNL     1     101.604  80.170  84.060  1.00  0.00     0.086 CG0
ATOM     29  C   UNL     1     102.746  79.140  85.880  1.00  0.00     0.190 C 
ATOM     30  C   UNL     1     102.816  80.927  84.526  1.00  0.00    -0.010 C 
ATOM     31  G   UNL     1     101.313  80.059  82.535  1.00  0.00     0.000 G0
ATOM     32  O   UNL     1     103.015  78.430  86.837  1.00  0.00    -0.291 OA
ATOM     33  C   UNL     1     103.463  80.390  85.565  1.00  0.00    -0.008 C 
ATOM     34  C   UNL     1     104.625  80.893  86.326  1.00  0.00     0.048 C 
BRANCH  27  35
ATOM     35  O   UNL     1     102.258  77.776  84.082  1.00  0.00    -0.381 OA
ATOM     36  H   UNL     1     103.132  78.058  83.762  1.00  0.00     0.212 HD
ENDBRANCH  27  35
ENDBRANCH  26  27
ENDBRANCH   2  26
ENDBRANCH   1   2
BRANCH   1  37
ATOM     37  O   UNL     1      98.025  78.763  86.685  1.00  0.00    -0.461 OA
BRANCH  37  38
ATOM     38  C   UNL     1      97.876  80.102  86.967  1.00  0.00     0.310 C 
ATOM     39  O   UNL     1      98.542  80.726  87.781  1.00  0.00    -0.252 OA
BRANCH  38  40
ATOM     40  C   UNL     1      96.767  80.676  86.118  1.00  0.00     0.158 C 
BRANCH  40  41
ATOM     41  C   UNL     1      96.938  82.148  85.845  1.00  0.00    -0.037 A 
ATOM     42  C   UNL     1      96.376  83.087  86.710  1.00  0.00     0.008 A 
ATOM     43  C   UNL     1      97.657  82.572  84.728  1.00  0.00     0.008 A 
ATOM     44  C   UNL     1      96.533  84.450  86.457  1.00  0.00     0.046 A 
ATOM     45  C   UNL     1      97.814  83.935  84.475  1.00  0.00     0.046 A 
ATOM     46  C   UNL     1      97.252  84.874  85.339  1.00  0.00     0.115 A 
BRANCH  46  47
ATOM     47  O   UNL     1      97.405  86.203  85.092  1.00  0.00    -0.508 OA
ATOM     48  H   UNL     1      97.194  86.701  85.902  1.00  0.00     0.293 HD
ENDBRANCH  46  47
ENDBRANCH  40  41
ENDBRANCH  38  40
ENDBRANCH  37  38
ENDBRANCH   1  37
TORSDOF 10
ENDMDL
MODEL 9
REMARK VINA RESULT:    -6.538     19.072     23.061
REMARK INTER + INTRA:         -11.584
REMARK INTER:                 -11.256
REMARK INTRA:                  -0.328
REMARK UNBOUND:                -0.459
REMARK SMILES C=C(C)[C@]12C[C@@H](C)[C@@]34O[C@](Cc5ccccc5)(O[C@@H]1[C@@H]3C=C(COC(=O)Cc1ccc(O)cc1)C[C@]1(O)C(=O)C(C)=C[C@@H]41)O2
REMARK SMILES IDX 23 1 22 2 21 3 20 4 9 5 8 6 10 7 6 8 18 10 44 11 19 12 5 13
REMARK SMILES IDX 7 14 4 15 11 16 12 17 13 18 17 19 14 20 16 21 15 22 2 23
REMARK SMILES IDX 3 24 1 25 35 26 36 27 43 28 38 29 42 30 39 32 40 33 41 34
REMARK SMILES IDX 37 35 24 37 25 38 26 39 27 40 28 41 29 42 34 43 30 44 33 45
REMARK SMILES IDX 31 46 32 47
REMARK H PARENT 37 36 32 48
REMARK Flexibility Score: 90.00
ROOT
ATOM      1  C   UNL     1      97.791  82.721  88.058  1.00  0.00     0.264 C 
ENDROOT
BRANCH   1   2
ATOM      2  C   UNL     1      96.300  82.948  87.961  1.00  0.00    -0.033 C 
ATOM      3  C   UNL     1      95.499  81.922  87.609  1.00  0.00    -0.015 C 
BRANCH   3   4
ATOM      4  C   UNL     1      93.997  81.908  87.369  1.00  0.00     0.078 C 
ATOM      5  O   UNL     1      92.931  81.286  89.512  1.00  0.00    -0.319 OA
ATOM      6  C   UNL     1      93.049  82.368  88.536  1.00  0.00     0.095 CG0
ATOM      7  C   UNL     1      92.774  79.968  88.953  1.00  0.00     0.289 C 
ATOM      8  C   UNL     1      91.625  82.663  87.908  1.00  0.00     0.023 C 
ATOM      9  G   UNL     1      93.684  83.543  89.335  1.00  0.00     0.000 G0
ATOM     10  O   UNL     1      93.855  79.640  88.085  1.00  0.00    -0.320 OA
ATOM     11  O   UNL     1      91.595  79.853  88.159  1.00  0.00    -0.313 OA
ATOM     12  C   UNL     1      93.543  80.484  86.965  1.00  0.00     0.170 C 
ATOM     13  C   UNL     1      91.322  81.717  86.706  1.00  0.00     0.049 C 
ATOM     14  C   UNL     1      90.446  82.626  88.896  1.00  0.00     0.011 C 
ATOM     15  C   UNL     1      92.003  80.358  86.871  1.00  0.00     0.122 C 
BRANCH   7  16
ATOM     16  C   UNL     1      92.712  78.972  90.094  1.00  0.00     0.135 C 
BRANCH  16  17
ATOM     17  C   UNL     1      92.042  77.684  89.687  1.00  0.00    -0.040 A 
ATOM     18  C   UNL     1      92.707  76.784  88.856  1.00  0.00     0.004 A 
ATOM     19  C   UNL     1      90.756  77.394  90.143  1.00  0.00     0.004 A 
ATOM     20  C   UNL     1      92.087  75.592  88.479  1.00  0.00     0.000 A 
ATOM     21  C   UNL     1      90.136  76.202  89.766  1.00  0.00     0.000 A 
ATOM     22  C   UNL     1      90.801  75.302  88.935  1.00  0.00     0.000 A 
ENDBRANCH  16  17
ENDBRANCH   7  16
BRANCH  15  23
ATOM     23  C   UNL     1      91.582  79.375  85.826  1.00  0.00    -0.046 C 
ATOM     24  C   UNL     1      90.378  79.748  85.014  1.00  0.00     0.042 C 
ATOM     25  C   UNL     1      92.244  78.226  85.627  1.00  0.00     0.010 C 
ENDBRANCH  15  23
ENDBRANCH   3   4
BRANCH   2  26
ATOM     26  C   UNL     1      95.891  84.370  88.297  1.00  0.00     0.078 C 
BRANCH  26  27
ATOM     27  C   UNL     1      94.398  84.645  88.465  1.00  0.00     0.140 C 
ATOM     28  C   UNL     1      93.698  83.567  89.318  1.00  0.00     0.086 CG0
ATOM     29  C   UNL     1      94.127  85.909  89.254  1.00  0.00     0.190 C 
ATOM     30  C   UNL     1      92.855  84.367  90.271  1.00  0.00    -0.010 C 
ATOM     31  G   UNL     1      93.055  82.385  88.536  1.00  0.00     0.000 G0
ATOM     32  O   UNL     1      94.648  86.996  89.051  1.00  0.00    -0.291 OA
ATOM     33  C   UNL     1      93.092  85.682  90.279  1.00  0.00    -0.008 C 
ATOM     34  C   UNL     1      92.520  86.746  91.130  1.00  0.00     0.048 C 
BRANCH  27  35
ATOM     35  O   UNL     1      93.770  84.884  87.217  1.00  0.00    -0.381 OA
ATOM     36  H   UNL     1      92.851  85.155  87.382  1.00  0.00     0.212 HD
ENDBRANCH  27  35
ENDBRANCH  26  27
ENDBRANCH   2  26
ENDBRANCH   1   2
BRANCH   1  37
ATOM     37  O   UNL     1      98.413  83.193  86.882  1.00  0.00    -0.461 OA
BRANCH  37  38
ATOM     38  C   UNL     1      98.815  82.233  85.981  1.00  0.00     0.310 C 
ATOM     39  O   UNL     1      99.902  81.672  85.992  1.00  0.00    -0.252 OA
BRANCH  38  40
ATOM     40  C   UNL     1      97.710  81.984  84.983  1.00  0.00     0.158 C 
BRANCH  40  41
ATOM     41  C   UNL     1      98.187  82.036  83.554  1.00  0.00    -0.037 A 
ATOM     42  C   UNL     1      98.924  80.977  83.026  1.00  0.00     0.008 A 
ATOM     43  C   UNL     1      97.890  83.143  82.760  1.00  0.00     0.008 A 
ATOM     44  C   UNL     1      99.366  81.025  81.703  1.00  0.00     0.046 A 
ATOM     45  C   UNL     1      98.331  83.192  81.437  1.00  0.00     0.046 A 
ATOM     46  C   UNL     1      99.069  82.134  80.909  1.00  0.00     0.115 A 
BRANCH  46  47
ATOM     47  O   UNL     1      99.501  82.181  79.619  1.00  0.00    -0.508 OA
ATOM     48  H   UNL     1     100.345  82.663  79.586  1.00  0.00     0.293 HD
ENDBRANCH  46  47
ENDBRANCH  40  41
ENDBRANCH  38  40
ENDBRANCH  37  38
ENDBRANCH   1  37
TORSDOF 10
ENDMDL
MODEL 10
REMARK VINA RESULT:    -6.271     30.439     34.534
REMARK INTER + INTRA:         -11.130
REMARK INTER:                 -10.058
REMARK INTRA:                  -1.072
REMARK UNBOUND:                -0.459
REMARK SMILES C=C(C)[C@]12C[C@@H](C)[C@@]34O[C@](Cc5ccccc5)(O[C@@H]1[C@@H]3C=C(COC(=O)Cc1ccc(O)cc1)C[C@]1(O)C(=O)C(C)=C[C@@H]41)O2
REMARK SMILES IDX 23 1 22 2 21 3 20 4 9 5 8 6 10 7 6 8 18 10 44 11 19 12 5 13
REMARK SMILES IDX 7 14 4 15 11 16 12 17 13 18 17 19 14 20 16 21 15 22 2 23
REMARK SMILES IDX 3 24 1 25 35 26 36 27 43 28 38 29 42 30 39 32 40 33 41 34
REMARK SMILES IDX 37 35 24 37 25 38 26 39 27 40 28 41 29 42 34 43 30 44 33 45
REMARK SMILES IDX 31 46 32 47
REMARK H PARENT 37 36 32 48
REMARK Flexibility Score: 90.00
ROOT
ATOM      1  C   UNL     1      59.369  84.921  71.606  1.00  0.00     0.264 C 
ENDROOT
BRANCH   1   2
ATOM      2  C   UNL     1      60.845  84.813  71.300  1.00  0.00    -0.033 C 
ATOM      3  C   UNL     1      61.740  85.244  72.213  1.00  0.00    -0.015 C 
BRANCH   3   4
ATOM      4  C   UNL     1      63.256  85.315  72.120  1.00  0.00     0.078 C 
ATOM      5  O   UNL     1      64.136  83.201  73.053  1.00  0.00    -0.319 OA
ATOM      6  C   UNL     1      64.051  83.990  71.826  1.00  0.00     0.095 CG0
ATOM      7  C   UNL     1      64.431  83.950  74.247  1.00  0.00     0.289 C 
ATOM      8  C   UNL     1      65.510  84.399  71.364  1.00  0.00     0.023 C 
ATOM      9  G   UNL     1      63.266  83.083  70.834  1.00  0.00     0.000 G0
ATOM     10  O   UNL     1      63.465  84.974  74.468  1.00  0.00    -0.320 OA
ATOM     11  O   UNL     1      65.689  84.617  74.172  1.00  0.00    -0.313 OA
ATOM     12  C   UNL     1      63.837  85.897  73.432  1.00  0.00     0.170 C 
ATOM     13  C   UNL     1      65.992  85.701  72.076  1.00  0.00     0.049 C 
ATOM     14  C   UNL     1      66.583  83.307  71.518  1.00  0.00     0.011 C 
ATOM     15  C   UNL     1      65.384  85.840  73.472  1.00  0.00     0.122 C 
BRANCH   7  16
ATOM     16  C   UNL     1      64.438  82.990  75.420  1.00  0.00     0.135 C 
BRANCH  16  17
ATOM     17  C   UNL     1      64.281  83.705  76.739  1.00  0.00    -0.040 A 
ATOM     18  C   UNL     1      65.351  84.421  77.275  1.00  0.00     0.004 A 
ATOM     19  C   UNL     1      63.066  83.650  77.421  1.00  0.00     0.004 A 
ATOM     20  C   UNL     1      65.206  85.083  78.495  1.00  0.00     0.000 A 
ATOM     21  C   UNL     1      62.921  84.313  78.640  1.00  0.00     0.000 A 
ATOM     22  C   UNL     1      63.990  85.028  79.177  1.00  0.00     0.000 A 
ENDBRANCH  16  17
ENDBRANCH   7  16
BRANCH  15  23
ATOM     23  C   UNL     1      65.968  86.980  74.241  1.00  0.00    -0.046 C 
ATOM     24  C   UNL     1      65.049  87.667  75.208  1.00  0.00     0.042 C 
ATOM     25  C   UNL     1      67.241  87.368  74.077  1.00  0.00     0.010 C 
ENDBRANCH  15  23
ENDBRANCH   3   4
BRANCH   2  26
ATOM     26  C   UNL     1      61.129  84.197  69.943  1.00  0.00     0.078 C 
BRANCH  26  27
ATOM     27  C   UNL     1      62.579  83.826  69.635  1.00  0.00     0.140 C 
ATOM     28  C   UNL     1      63.258  83.099  70.814  1.00  0.00     0.086 CG0
ATOM     29  C   UNL     1      62.692  82.810  68.518  1.00  0.00     0.190 C 
ATOM     30  C   UNL     1      63.953  81.939  70.157  1.00  0.00    -0.010 C 
ATOM     31  G   UNL     1      64.048  83.998  71.810  1.00  0.00     0.000 G0
ATOM     32  O   UNL     1      62.126  82.880  67.438  1.00  0.00    -0.291 OA
ATOM     33  C   UNL     1      63.635  81.733  68.875  1.00  0.00    -0.008 C 
ATOM     34  C   UNL     1      64.053  80.658  67.952  1.00  0.00     0.048 C 
BRANCH  27  35
ATOM     35  O   UNL     1      63.308  84.942  69.153  1.00  0.00    -0.381 OA
ATOM     36  H   UNL     1      62.787  85.745  69.321  1.00  0.00     0.212 HD
ENDBRANCH  27  35
ENDBRANCH  26  27
ENDBRANCH   2  26
ENDBRANCH   1   2
BRANCH   1  37
ATOM     37  O   UNL     1      59.151  86.008  72.480  1.00  0.00    -0.461 OA
BRANCH  37  38
ATOM     38  C   UNL     1      58.725  87.180  71.898  1.00  0.00     0.310 C 
ATOM     39  O   UNL     1      58.544  88.233  72.492  1.00  0.00    -0.252 OA
BRANCH  38  40
ATOM     40  C   UNL     1      58.516  86.961  70.419  1.00  0.00     0.158 C 
BRANCH  40  41
ATOM     41  C   UNL     1      59.269  87.949  69.566  1.00  0.00    -0.037 A 
ATOM     42  C   UNL     1      60.623  87.749  69.297  1.00  0.00     0.008 A 
ATOM     43  C   UNL     1      58.612  89.064  69.046  1.00  0.00     0.008 A 
ATOM     44  C   UNL     1      61.320  88.665  68.509  1.00  0.00     0.046 A 
ATOM     45  C   UNL     1      59.309  89.979  68.257  1.00  0.00     0.046 A 
ATOM     46  C   UNL     1      60.663  89.780  67.988  1.00  0.00     0.115 A 
BRANCH  46  47
ATOM     47  O   UNL     1      61.343  90.673  67.220  1.00  0.00    -0.508 OA
ATOM     48  H   UNL     1      61.012  91.568  67.408  1.00  0.00     0.293 HD
ENDBRANCH  46  47
ENDBRANCH  40  41
ENDBRANCH  38  40
ENDBRANCH  37  38
ENDBRANCH   1  37
TORSDOF 10
ENDMDL
