MODEL 1
REMARK VINA RESULT:    -5.098      0.000      0.000
REMARK INTER + INTRA:          -9.645
REMARK INTER:                  -7.929
REMARK INTRA:                  -1.717
REMARK UNBOUND:                -1.717
REMARK SMILES CCCCC/C=C/C(=O)CCc1ccc(O)c(OC)c1
REMARK SMILES IDX 6 1 7 2 8 3 9 4 10 5 11 6 12 7 17 8 20 9 15 10 14 11 13 12
REMARK SMILES IDX 18 13 19 14 16 15 5 17 4 18 3 19 2 20 1 21
REMARK H PARENT 16 16
REMARK Flexibility Score: inf
ROOT
ATOM      1  C   UNL     1      89.853  99.011  70.116  1.00  0.00    -0.023 C 
ATOM      2  C   UNL     1      90.431  98.642  68.966  1.00  0.00     0.043 C 
ENDROOT
BRANCH   2   3
ATOM      3  C   UNL     1      89.702  97.754  68.021  1.00  0.00     0.155 C 
ATOM      4  O   UNL     1      89.544  96.555  68.246  1.00  0.00    -0.295 OA
BRANCH   3   5
ATOM      5  C   UNL     1      89.208  98.392  66.737  1.00  0.00     0.085 C 
BRANCH   5   6
ATOM      6  C   UNL     1      89.837  99.770  66.524  1.00  0.00     0.044 C 
BRANCH   6   7
ATOM      7  C   UNL     1      88.813 100.877  66.436  1.00  0.00    -0.044 A 
ATOM      8  C   UNL     1      88.291 103.217  66.360  1.00  0.00     0.160 A 
ATOM      9  C   UNL     1      89.237 102.196  66.443  1.00  0.00     0.054 A 
ATOM     10  C   UNL     1      86.934 102.907  66.272  1.00  0.00     0.157 A 
ATOM     11  C   UNL     1      86.523 101.573  66.267  1.00  0.00     0.050 A 
ATOM     12  C   UNL     1      87.469 100.552  66.349  1.00  0.00     0.008 A 
BRANCH   8  13
ATOM     13  O   UNL     1      88.705 104.516  66.367  1.00  0.00    -0.493 OA
ATOM     14  C   UNL     1      89.294 105.002  67.571  1.00  0.00     0.278 C 
ENDBRANCH   8  13
BRANCH  10  15
ATOM     15  O   UNL     1      86.001 103.896  66.191  1.00  0.00    -0.504 OA
ATOM     16  H   UNL     1      85.329 103.738  66.877  1.00  0.00     0.293 HD
ENDBRANCH  10  15
ENDBRANCH   6   7
ENDBRANCH   5   6
ENDBRANCH   3   5
ENDBRANCH   2   3
BRANCH   1  17
ATOM     17  C   UNL     1      90.522  99.903  71.121  1.00  0.00     0.027 C 
BRANCH  17  18
ATOM     18  C   UNL     1      89.983 101.337  71.106  1.00  0.00     0.004 C 
BRANCH  18  19
ATOM     19  C   UNL     1      90.663 102.237  70.070  1.00  0.00     0.000 C 
BRANCH  19  20
ATOM     20  C   UNL     1      92.120 101.826  69.854  1.00  0.00    -0.003 C 
ATOM     21  C   UNL     1      92.447 101.688  68.376  1.00  0.00     0.004 C 
ENDBRANCH  19  20
ENDBRANCH  18  19
ENDBRANCH  17  18
ENDBRANCH   1  17
TORSDOF 10
ENDMDL
MODEL 2
REMARK VINA RESULT:    -4.920     35.036     37.646
REMARK INTER + INTRA:          -9.370
REMARK INTER:                  -8.364
REMARK INTRA:                  -1.006
REMARK UNBOUND:                -1.717
REMARK SMILES CCCCC/C=C/C(=O)CCc1ccc(O)c(OC)c1
REMARK SMILES IDX 6 1 7 2 8 3 9 4 10 5 11 6 12 7 17 8 20 9 15 10 14 11 13 12
REMARK SMILES IDX 18 13 19 14 16 15 5 17 4 18 3 19 2 20 1 21
REMARK H PARENT 16 16
REMARK Flexibility Score: inf
ROOT
ATOM      1  C   UNL     1      80.681  66.166  73.657  1.00  0.00    -0.023 C 
ATOM      2  C   UNL     1      80.185  65.059  74.224  1.00  0.00     0.043 C 
ENDROOT
BRANCH   2   3
ATOM      3  C   UNL     1      79.858  65.053  75.676  1.00  0.00     0.155 C 
ATOM      4  O   UNL     1      79.212  65.958  76.200  1.00  0.00    -0.295 OA
BRANCH   3   5
ATOM      5  C   UNL     1      80.409  63.897  76.488  1.00  0.00     0.085 C 
BRANCH   5   6
ATOM      6  C   UNL     1      81.734  63.395  75.912  1.00  0.00     0.044 C 
BRANCH   6   7
ATOM      7  C   UNL     1      82.937  63.942  76.645  1.00  0.00    -0.044 A 
ATOM      8  C   UNL     1      84.475  65.737  77.057  1.00  0.00     0.160 A 
ATOM      9  C   UNL     1      83.365  65.233  76.379  1.00  0.00     0.054 A 
ATOM     10  C   UNL     1      85.143  64.944  77.989  1.00  0.00     0.157 A 
ATOM     11  C   UNL     1      84.701  63.645  78.245  1.00  0.00     0.050 A 
ATOM     12  C   UNL     1      83.590  63.141  77.568  1.00  0.00     0.008 A 
BRANCH   8  13
ATOM     13  O   UNL     1      84.898  67.006  76.798  1.00  0.00    -0.493 OA
ATOM     14  C   UNL     1      84.267  68.060  77.522  1.00  0.00     0.278 C 
ENDBRANCH   8  13
BRANCH  10  15
ATOM     15  O   UNL     1      86.229  65.425  78.657  1.00  0.00    -0.504 OA
ATOM     16  H   UNL     1      86.587  64.711  79.212  1.00  0.00     0.293 HD
ENDBRANCH  10  15
ENDBRANCH   6   7
ENDBRANCH   5   6
ENDBRANCH   3   5
ENDBRANCH   2   3
BRANCH   1  17
ATOM     17  C   UNL     1      81.037  66.253  72.201  1.00  0.00     0.027 C 
BRANCH  17  18
ATOM     18  C   UNL     1      81.995  65.146  71.748  1.00  0.00     0.004 C 
BRANCH  18  19
ATOM     19  C   UNL     1      82.081  64.993  70.227  1.00  0.00     0.000 C 
BRANCH  19  20
ATOM     20  C   UNL     1      80.903  65.682  69.536  1.00  0.00    -0.003 C 
ATOM     21  C   UNL     1      81.376  66.671  68.482  1.00  0.00     0.004 C 
ENDBRANCH  19  20
ENDBRANCH  18  19
ENDBRANCH  17  18
ENDBRANCH   1  17
TORSDOF 10
ENDMDL
MODEL 3
REMARK VINA RESULT:    -4.749     22.210     25.387
REMARK INTER + INTRA:          -9.104
REMARK INTER:                  -8.296
REMARK INTRA:                  -0.808
REMARK UNBOUND:                -1.717
REMARK SMILES CCCCC/C=C/C(=O)CCc1ccc(O)c(OC)c1
REMARK SMILES IDX 6 1 7 2 8 3 9 4 10 5 11 6 12 7 17 8 20 9 15 10 14 11 13 12
REMARK SMILES IDX 18 13 19 14 16 15 5 17 4 18 3 19 2 20 1 21
REMARK H PARENT 16 16
REMARK Flexibility Score: inf
ROOT
ATOM      1  C   UNL     1      97.503  80.971  80.689  1.00  0.00    -0.023 C 
ATOM      2  C   UNL     1      96.993  82.172  80.994  1.00  0.00     0.043 C 
ENDROOT
BRANCH   2   3
ATOM      3  C   UNL     1      96.234  82.355  82.260  1.00  0.00     0.155 C 
ATOM      4  O   UNL     1      95.934  83.471  82.681  1.00  0.00    -0.295 OA
BRANCH   3   5
ATOM      5  C   UNL     1      95.893  81.096  83.033  1.00  0.00     0.085 C 
BRANCH   5   6
ATOM      6  C   UNL     1      95.874  81.358  84.540  1.00  0.00     0.044 C 
BRANCH   6   7
ATOM      7  C   UNL     1      94.512  81.764  85.049  1.00  0.00    -0.044 A 
ATOM      8  C   UNL     1      93.155  83.131  86.480  1.00  0.00     0.160 A 
ATOM      9  C   UNL     1      94.414  82.756  86.011  1.00  0.00     0.054 A 
ATOM     10  C   UNL     1      92.010  82.509  85.982  1.00  0.00     0.157 A 
ATOM     11  C   UNL     1      92.125  81.512  85.013  1.00  0.00     0.050 A 
ATOM     12  C   UNL     1      93.384  81.137  84.544  1.00  0.00     0.008 A 
BRANCH   8  13
ATOM     13  O   UNL     1      93.056  84.106  87.427  1.00  0.00    -0.493 OA
ATOM     14  C   UNL     1      94.167  84.989  87.567  1.00  0.00     0.278 C 
ENDBRANCH   8  13
BRANCH  10  15
ATOM     15  O   UNL     1      90.776  82.867  86.431  1.00  0.00    -0.504 OA
ATOM     16  H   UNL     1      90.526  83.705  86.005  1.00  0.00     0.293 HD
ENDBRANCH  10  15
ENDBRANCH   6   7
ENDBRANCH   5   6
ENDBRANCH   3   5
ENDBRANCH   2   3
BRANCH   1  17
ATOM     17  C   UNL     1      98.280  80.704  79.433  1.00  0.00     0.027 C 
BRANCH  17  18
ATOM     18  C   UNL     1      97.433  80.837  78.162  1.00  0.00     0.004 C 
BRANCH  18  19
ATOM     19  C   UNL     1      97.955  81.896  77.185  1.00  0.00     0.000 C 
BRANCH  19  20
ATOM     20  C   UNL     1      96.802  82.629  76.499  1.00  0.00    -0.003 C 
ATOM     21  C   UNL     1      95.640  82.855  77.452  1.00  0.00     0.004 C 
ENDBRANCH  19  20
ENDBRANCH  18  19
ENDBRANCH  17  18
ENDBRANCH   1  17
TORSDOF 10
ENDMDL
MODEL 4
REMARK VINA RESULT:    -4.593     32.477     34.853
REMARK INTER + INTRA:          -8.860
REMARK INTER:                  -8.274
REMARK INTRA:                  -0.586
REMARK UNBOUND:                -1.717
REMARK SMILES CCCCC/C=C/C(=O)CCc1ccc(O)c(OC)c1
REMARK SMILES IDX 6 1 7 2 8 3 9 4 10 5 11 6 12 7 17 8 20 9 15 10 14 11 13 12
REMARK SMILES IDX 18 13 19 14 16 15 5 17 4 18 3 19 2 20 1 21
REMARK H PARENT 16 16
REMARK Flexibility Score: inf
ROOT
ATOM      1  C   UNL     1      56.801  87.080  70.995  1.00  0.00    -0.023 C 
ATOM      2  C   UNL     1      57.601  86.023  70.811  1.00  0.00     0.043 C 
ENDROOT
BRANCH   2   3
ATOM      3  C   UNL     1      57.629  84.928  71.819  1.00  0.00     0.155 C 
ATOM      4  O   UNL     1      56.612  84.317  72.141  1.00  0.00    -0.295 OA
BRANCH   3   5
ATOM      5  C   UNL     1      58.968  84.641  72.468  1.00  0.00     0.085 C 
BRANCH   5   6
ATOM      6  C   UNL     1      60.126  85.087  71.574  1.00  0.00     0.044 C 
BRANCH   6   7
ATOM      7  C   UNL     1      61.244  84.073  71.510  1.00  0.00    -0.044 A 
ATOM      8  C   UNL     1      62.891  82.879  70.238  1.00  0.00     0.160 A 
ATOM      9  C   UNL     1      61.859  83.815  70.296  1.00  0.00     0.054 A 
ATOM     10  C   UNL     1      63.294  82.212  71.394  1.00  0.00     0.157 A 
ATOM     11  C   UNL     1      62.665  82.482  72.610  1.00  0.00     0.050 A 
ATOM     12  C   UNL     1      61.632  83.419  72.668  1.00  0.00     0.008 A 
BRANCH   8  13
ATOM     13  O   UNL     1      63.497  82.624  69.045  1.00  0.00    -0.493 OA
ATOM     14  C   UNL     1      62.923  81.603  68.230  1.00  0.00     0.278 C 
ENDBRANCH   8  13
BRANCH  10  15
ATOM     15  O   UNL     1      64.301  81.296  71.351  1.00  0.00    -0.504 OA
ATOM     16  H   UNL     1      64.228  80.724  72.134  1.00  0.00     0.293 HD
ENDBRANCH  10  15
ENDBRANCH   6   7
ENDBRANCH   5   6
ENDBRANCH   3   5
ENDBRANCH   2   3
BRANCH   1  17
ATOM     17  C   UNL     1      56.716  88.224  70.027  1.00  0.00     0.027 C 
BRANCH  17  18
ATOM     18  C   UNL     1      55.410  88.237  69.225  1.00  0.00     0.004 C 
BRANCH  18  19
ATOM     19  C   UNL     1      54.692  89.590  69.244  1.00  0.00     0.000 C 
BRANCH  19  20
ATOM     20  C   UNL     1      53.244  89.452  68.771  1.00  0.00    -0.003 C 
ATOM     21  C   UNL     1      53.113  88.408  67.673  1.00  0.00     0.004 C 
ENDBRANCH  19  20
ENDBRANCH  18  19
ENDBRANCH  17  18
ENDBRANCH   1  17
TORSDOF 10
ENDMDL
MODEL 5
REMARK VINA RESULT:    -4.563      1.725      2.060
REMARK INTER + INTRA:          -8.814
REMARK INTER:                  -7.762
REMARK INTRA:                  -1.052
REMARK UNBOUND:                -1.717
REMARK SMILES CCCCC/C=C/C(=O)CCc1ccc(O)c(OC)c1
REMARK SMILES IDX 6 1 7 2 8 3 9 4 10 5 11 6 12 7 17 8 20 9 15 10 14 11 13 12
REMARK SMILES IDX 18 13 19 14 16 15 5 17 4 18 3 19 2 20 1 21
REMARK H PARENT 16 16
REMARK Flexibility Score: inf
ROOT
ATOM      1  C   UNL     1      89.561  99.262  69.852  1.00  0.00    -0.023 C 
ATOM      2  C   UNL     1      90.287  98.874  68.796  1.00  0.00     0.043 C 
ENDROOT
BRANCH   2   3
ATOM      3  C   UNL     1      89.632  98.153  67.671  1.00  0.00     0.155 C 
ATOM      4  O   UNL     1      89.214  97.003  67.793  1.00  0.00    -0.295 OA
BRANCH   3   5
ATOM      5  C   UNL     1      89.556  98.890  66.348  1.00  0.00     0.085 C 
BRANCH   5   6
ATOM      6  C   UNL     1      90.242 100.254  66.432  1.00  0.00     0.044 C 
BRANCH   6   7
ATOM      7  C   UNL     1      89.278 101.380  66.720  1.00  0.00    -0.044 A 
ATOM      8  C   UNL     1      88.808 103.496  67.750  1.00  0.00     0.160 A 
ATOM      9  C   UNL     1      89.699 102.456  67.485  1.00  0.00     0.054 A 
ATOM     10  C   UNL     1      87.507 103.446  67.249  1.00  0.00     0.157 A 
ATOM     11  C   UNL     1      87.098 102.355  66.481  1.00  0.00     0.050 A 
ATOM     12  C   UNL     1      87.989 101.315  66.216  1.00  0.00     0.008 A 
BRANCH   8  13
ATOM     13  O   UNL     1      89.220 104.556  68.501  1.00  0.00    -0.493 OA
ATOM     14  C   UNL     1      89.512 104.303  69.874  1.00  0.00     0.278 C 
ENDBRANCH   8  13
BRANCH  10  15
ATOM     15  O   UNL     1      86.628 104.455  67.501  1.00  0.00    -0.504 OA
ATOM     16  H   UNL     1      86.054 104.562  66.723  1.00  0.00     0.293 HD
ENDBRANCH  10  15
ENDBRANCH   6   7
ENDBRANCH   5   6
ENDBRANCH   3   5
ENDBRANCH   2   3
BRANCH   1  17
ATOM     17  C   UNL     1      90.146  99.993  71.026  1.00  0.00     0.027 C 
BRANCH  17  18
ATOM     18  C   UNL     1      91.648 100.261  70.880  1.00  0.00     0.004 C 
BRANCH  18  19
ATOM     19  C   UNL     1      92.505  99.533  71.921  1.00  0.00     0.000 C 
BRANCH  19  20
ATOM     20  C   UNL     1      93.143 100.522  72.898  1.00  0.00    -0.003 C 
ATOM     21  C   UNL     1      94.509 100.042  73.363  1.00  0.00     0.004 C 
ENDBRANCH  19  20
ENDBRANCH  18  19
ENDBRANCH  17  18
ENDBRANCH   1  17
TORSDOF 10
ENDMDL
MODEL 6
REMARK VINA RESULT:    -4.472     32.980     35.443
REMARK INTER + INTRA:          -8.672
REMARK INTER:                  -7.830
REMARK INTRA:                  -0.842
REMARK UNBOUND:                -1.717
REMARK SMILES CCCCC/C=C/C(=O)CCc1ccc(O)c(OC)c1
REMARK SMILES IDX 6 1 7 2 8 3 9 4 10 5 11 6 12 7 17 8 20 9 15 10 14 11 13 12
REMARK SMILES IDX 18 13 19 14 16 15 5 17 4 18 3 19 2 20 1 21
REMARK H PARENT 16 16
REMARK Flexibility Score: inf
ROOT
ATOM      1  C   UNL     1      55.807  89.042  70.082  1.00  0.00    -0.023 C 
ATOM      2  C   UNL     1      56.326  87.839  70.355  1.00  0.00     0.043 C 
ENDROOT
BRANCH   2   3
ATOM      3  C   UNL     1      56.920  87.574  71.694  1.00  0.00     0.155 C 
ATOM      4  O   UNL     1      57.463  88.460  72.350  1.00  0.00    -0.295 OA
BRANCH   3   5
ATOM      5  C   UNL     1      56.868  86.140  72.185  1.00  0.00     0.085 C 
BRANCH   5   6
ATOM      6  C   UNL     1      57.249  85.159  71.076  1.00  0.00     0.044 C 
BRANCH   6   7
ATOM      7  C   UNL     1      58.742  84.967  70.949  1.00  0.00    -0.044 A 
ATOM      8  C   UNL     1      60.865  84.491  71.961  1.00  0.00     0.160 A 
ATOM      9  C   UNL     1      59.487  84.668  72.079  1.00  0.00     0.054 A 
ATOM     10  C   UNL     1      61.481  84.615  70.716  1.00  0.00     0.157 A 
ATOM     11  C   UNL     1      60.718  84.917  69.588  1.00  0.00     0.050 A 
ATOM     12  C   UNL     1      59.339  85.094  69.706  1.00  0.00     0.008 A 
BRANCH   8  13
ATOM     13  O   UNL     1      61.600  84.196  73.071  1.00  0.00    -0.493 OA
ATOM     14  C   UNL     1      61.574  82.845  73.526  1.00  0.00     0.278 C 
ENDBRANCH   8  13
BRANCH  10  15
ATOM     15  O   UNL     1      62.827  84.444  70.589  1.00  0.00    -0.504 OA
ATOM     16  H   UNL     1      63.253  84.752  71.407  1.00  0.00     0.293 HD
ENDBRANCH  10  15
ENDBRANCH   6   7
ENDBRANCH   5   6
ENDBRANCH   3   5
ENDBRANCH   2   3
BRANCH   1  17
ATOM     17  C   UNL     1      55.191  89.388  68.758  1.00  0.00     0.027 C 
BRANCH  17  18
ATOM     18  C   UNL     1      54.537  88.187  68.066  1.00  0.00     0.004 C 
BRANCH  18  19
ATOM     19  C   UNL     1      53.058  88.402  67.730  1.00  0.00     0.000 C 
BRANCH  19  20
ATOM     20  C   UNL     1      52.827  89.783  67.115  1.00  0.00    -0.003 C 
ATOM     21  C   UNL     1      53.164  89.797  65.633  1.00  0.00     0.004 C 
ENDBRANCH  19  20
ENDBRANCH  18  19
ENDBRANCH  17  18
ENDBRANCH   1  17
TORSDOF 10
ENDMDL
MODEL 7
REMARK VINA RESULT:    -4.445     22.418     25.833
REMARK INTER + INTRA:          -8.630
REMARK INTER:                  -7.993
REMARK INTRA:                  -0.637
REMARK UNBOUND:                -1.717
REMARK SMILES CCCCC/C=C/C(=O)CCc1ccc(O)c(OC)c1
REMARK SMILES IDX 6 1 7 2 8 3 9 4 10 5 11 6 12 7 17 8 20 9 15 10 14 11 13 12
REMARK SMILES IDX 18 13 19 14 16 15 5 17 4 18 3 19 2 20 1 21
REMARK H PARENT 16 16
REMARK Flexibility Score: inf
ROOT
ATOM      1  C   UNL     1      97.119  81.472  80.331  1.00  0.00    -0.023 C 
ATOM      2  C   UNL     1      96.830  82.476  81.167  1.00  0.00     0.043 C 
ENDROOT
BRANCH   2   3
ATOM      3  C   UNL     1      96.265  82.183  82.512  1.00  0.00     0.155 C 
ATOM      4  O   UNL     1      96.049  83.072  83.333  1.00  0.00    -0.295 OA
BRANCH   3   5
ATOM      5  C   UNL     1      96.018  80.723  82.838  1.00  0.00     0.085 C 
BRANCH   5   6
ATOM      6  C   UNL     1      95.820  80.515  84.340  1.00  0.00     0.044 C 
BRANCH   6   7
ATOM      7  C   UNL     1      94.390  80.194  84.705  1.00  0.00    -0.044 A 
ATOM      8  C   UNL     1      92.162  80.932  85.207  1.00  0.00     0.160 A 
ATOM      9  C   UNL     1      93.483  81.229  84.871  1.00  0.00     0.054 A 
ATOM     10  C   UNL     1      91.766  79.605  85.375  1.00  0.00     0.157 A 
ATOM     11  C   UNL     1      92.692  78.574  85.205  1.00  0.00     0.050 A 
ATOM     12  C   UNL     1      94.012  78.872  84.869  1.00  0.00     0.008 A 
BRANCH   8  13
ATOM     13  O   UNL     1      91.268  81.947  85.370  1.00  0.00    -0.493 OA
ATOM     14  C   UNL     1      91.280  82.626  86.624  1.00  0.00     0.278 C 
ENDBRANCH   8  13
BRANCH  10  15
ATOM     15  O   UNL     1      90.480  79.302  85.703  1.00  0.00    -0.504 OA
ATOM     16  H   UNL     1      89.903  80.009  85.364  1.00  0.00     0.293 HD
ENDBRANCH  10  15
ENDBRANCH   6   7
ENDBRANCH   5   6
ENDBRANCH   3   5
ENDBRANCH   2   3
BRANCH   1  17
ATOM     17  C   UNL     1      97.690  81.684  78.959  1.00  0.00     0.027 C 
BRANCH  17  18
ATOM     18  C   UNL     1      96.633  82.076  77.921  1.00  0.00     0.004 C 
BRANCH  18  19
ATOM     19  C   UNL     1      96.946  81.577  76.507  1.00  0.00     0.000 C 
BRANCH  19  20
ATOM     20  C   UNL     1      97.029  82.740  75.517  1.00  0.00    -0.003 C 
ATOM     21  C   UNL     1      95.941  83.770  75.774  1.00  0.00     0.004 C 
ENDBRANCH  19  20
ENDBRANCH  18  19
ENDBRANCH  17  18
ENDBRANCH   1  17
TORSDOF 10
ENDMDL
MODEL 8
REMARK VINA RESULT:    -4.167     24.940     26.549
REMARK INTER + INTRA:          -8.198
REMARK INTER:                  -6.917
REMARK INTRA:                  -1.281
REMARK UNBOUND:                -1.717
REMARK SMILES CCCCC/C=C/C(=O)CCc1ccc(O)c(OC)c1
REMARK SMILES IDX 6 1 7 2 8 3 9 4 10 5 11 6 12 7 17 8 20 9 15 10 14 11 13 12
REMARK SMILES IDX 18 13 19 14 16 15 5 17 4 18 3 19 2 20 1 21
REMARK H PARENT 16 16
REMARK Flexibility Score: inf
ROOT
ATOM      1  C   UNL     1      91.001  83.384  87.361  1.00  0.00    -0.023 C 
ATOM      2  C   UNL     1      90.826  82.079  87.115  1.00  0.00     0.043 C 
ENDROOT
BRANCH   2   3
ATOM      3  C   UNL     1      90.295  81.637  85.797  1.00  0.00     0.155 C 
ATOM      4  O   UNL     1      89.088  81.552  85.579  1.00  0.00    -0.295 OA
BRANCH   3   5
ATOM      5  C   UNL     1      91.321  81.247  84.751  1.00  0.00     0.085 C 
BRANCH   5   6
ATOM      6  C   UNL     1      92.535  80.571  85.390  1.00  0.00     0.044 C 
BRANCH   6   7
ATOM      7  C   UNL     1      93.839  81.241  85.027  1.00  0.00    -0.044 A 
ATOM      8  C   UNL     1      95.444  82.988  85.387  1.00  0.00     0.160 A 
ATOM      9  C   UNL     1      94.239  82.370  85.723  1.00  0.00     0.054 A 
ATOM     10  C   UNL     1      96.232  82.470  84.360  1.00  0.00     0.157 A 
ATOM     11  C   UNL     1      95.816  81.332  83.668  1.00  0.00     0.050 A 
ATOM     12  C   UNL     1      94.611  80.714  84.004  1.00  0.00     0.008 A 
BRANCH   8  13
ATOM     13  O   UNL     1      95.839  84.099  86.070  1.00  0.00    -0.493 OA
ATOM     14  C   UNL     1      95.177  85.323  85.758  1.00  0.00     0.278 C 
ENDBRANCH   8  13
BRANCH  10  15
ATOM     15  O   UNL     1      97.411  83.064  84.024  1.00  0.00    -0.504 OA
ATOM     16  H   UNL     1      98.129  82.606  84.493  1.00  0.00     0.293 HD
ENDBRANCH  10  15
ENDBRANCH   6   7
ENDBRANCH   5   6
ENDBRANCH   3   5
ENDBRANCH   2   3
BRANCH   1  17
ATOM     17  C   UNL     1      91.530  83.910  88.663  1.00  0.00     0.027 C 
BRANCH  17  18
ATOM     18  C   UNL     1      92.870  84.639  88.517  1.00  0.00     0.004 C 
BRANCH  18  19
ATOM     19  C   UNL     1      93.103  85.714  89.584  1.00  0.00     0.000 C 
BRANCH  19  20
ATOM     20  C   UNL     1      94.541  85.673  90.103  1.00  0.00    -0.003 C 
ATOM     21  C   UNL     1      95.279  84.440  89.605  1.00  0.00     0.004 C 
ENDBRANCH  19  20
ENDBRANCH  18  19
ENDBRANCH  17  18
ENDBRANCH   1  17
TORSDOF 10
ENDMDL
MODEL 9
REMARK VINA RESULT:    -4.155     30.356     32.362
REMARK INTER + INTRA:          -8.180
REMARK INTER:                  -6.817
REMARK INTRA:                  -1.363
REMARK UNBOUND:                -1.717
REMARK SMILES CCCCC/C=C/C(=O)CCc1ccc(O)c(OC)c1
REMARK SMILES IDX 6 1 7 2 8 3 9 4 10 5 11 6 12 7 17 8 20 9 15 10 14 11 13 12
REMARK SMILES IDX 18 13 19 14 16 15 5 17 4 18 3 19 2 20 1 21
REMARK H PARENT 16 16
REMARK Flexibility Score: inf
ROOT
ATOM      1  C   UNL     1      60.770  84.199  72.773  1.00  0.00    -0.023 C 
ATOM      2  C   UNL     1      61.973  84.117  73.354  1.00  0.00     0.043 C 
ENDROOT
BRANCH   2   3
ATOM      3  C   UNL     1      62.249  83.035  74.338  1.00  0.00     0.155 C 
ATOM      4  O   UNL     1      61.806  83.071  75.484  1.00  0.00    -0.295 OA
BRANCH   3   5
ATOM      5  C   UNL     1      63.151  81.909  73.870  1.00  0.00     0.085 C 
BRANCH   5   6
ATOM      6  C   UNL     1      62.537  81.163  72.684  1.00  0.00     0.044 C 
BRANCH   6   7
ATOM      7  C   UNL     1      63.019  81.683  71.350  1.00  0.00    -0.044 A 
ATOM      8  C   UNL     1      64.765  82.621  69.997  1.00  0.00     0.160 A 
ATOM      9  C   UNL     1      64.321  82.141  71.230  1.00  0.00     0.054 A 
ATOM     10  C   UNL     1      63.901  82.637  68.902  1.00  0.00     0.157 A 
ATOM     11  C   UNL     1      62.593  82.172  69.039  1.00  0.00     0.050 A 
ATOM     12  C   UNL     1      62.149  81.693  70.272  1.00  0.00     0.008 A 
BRANCH   8  13
ATOM     13  O   UNL     1      66.045  83.072  69.876  1.00  0.00    -0.493 OA
ATOM     14  C   UNL     1      66.301  84.414  70.283  1.00  0.00     0.278 C 
ENDBRANCH   8  13
BRANCH  10  15
ATOM     15  O   UNL     1      64.323  83.102  67.694  1.00  0.00    -0.504 OA
ATOM     16  H   UNL     1      64.775  83.952  67.835  1.00  0.00     0.293 HD
ENDBRANCH  10  15
ENDBRANCH   6   7
ENDBRANCH   5   6
ENDBRANCH   3   5
ENDBRANCH   2   3
BRANCH   1  17
ATOM     17  C   UNL     1      60.413  85.259  71.772  1.00  0.00     0.027 C 
BRANCH  17  18
ATOM     18  C   UNL     1      61.415  85.359  70.617  1.00  0.00     0.004 C 
BRANCH  18  19
ATOM     19  C   UNL     1      60.779  85.770  69.286  1.00  0.00     0.000 C 
BRANCH  19  20
ATOM     20  C   UNL     1      59.933  87.035  69.446  1.00  0.00    -0.003 C 
ATOM     21  C   UNL     1      60.367  88.122  68.476  1.00  0.00     0.004 C 
ENDBRANCH  19  20
ENDBRANCH  18  19
ENDBRANCH  17  18
ENDBRANCH   1  17
TORSDOF 10
ENDMDL
MODEL 10
REMARK VINA RESULT:    -4.079     24.469     26.209
REMARK INTER + INTRA:          -8.060
REMARK INTER:                  -6.912
REMARK INTRA:                  -1.149
REMARK UNBOUND:                -1.717
REMARK SMILES CCCCC/C=C/C(=O)CCc1ccc(O)c(OC)c1
REMARK SMILES IDX 6 1 7 2 8 3 9 4 10 5 11 6 12 7 17 8 20 9 15 10 14 11 13 12
REMARK SMILES IDX 18 13 19 14 16 15 5 17 4 18 3 19 2 20 1 21
REMARK H PARENT 16 16
REMARK Flexibility Score: inf
ROOT
ATOM      1  C   UNL     1      94.007  88.647  89.946  1.00  0.00    -0.023 C 
ATOM      2  C   UNL     1      95.225  88.834  90.471  1.00  0.00     0.043 C 
ENDROOT
BRANCH   2   3
ATOM      3  C   UNL     1      96.326  87.888  90.144  1.00  0.00     0.155 C 
ATOM      4  O   UNL     1      97.069  87.433  91.011  1.00  0.00    -0.295 OA
BRANCH   3   5
ATOM      5  C   UNL     1      96.519  87.556  88.677  1.00  0.00     0.085 C 
BRANCH   5   6
ATOM      6  C   UNL     1      96.685  86.050  88.466  1.00  0.00     0.044 C 
BRANCH   6   7
ATOM      7  C   UNL     1      95.503  85.422  87.766  1.00  0.00    -0.044 A 
ATOM      8  C   UNL     1      93.248  84.604  87.831  1.00  0.00     0.160 A 
ATOM      9  C   UNL     1      94.339  85.184  88.478  1.00  0.00     0.054 A 
ATOM     10  C   UNL     1      93.335  84.270  86.480  1.00  0.00     0.157 A 
ATOM     11  C   UNL     1      94.515  84.515  85.775  1.00  0.00     0.050 A 
ATOM     12  C   UNL     1      95.606  85.095  86.423  1.00  0.00     0.008 A 
BRANCH   8  13
ATOM     13  O   UNL     1      92.102  84.369  88.529  1.00  0.00    -0.493 OA
ATOM     14  C   UNL     1      92.069  83.199  89.345  1.00  0.00     0.278 C 
ENDBRANCH   8  13
BRANCH  10  15
ATOM     15  O   UNL     1      92.277  83.703  85.836  1.00  0.00    -0.504 OA
ATOM     16  H   UNL     1      91.822  83.110  86.459  1.00  0.00     0.293 HD
ENDBRANCH  10  15
ENDBRANCH   6   7
ENDBRANCH   5   6
ENDBRANCH   3   5
ENDBRANCH   2   3
BRANCH   1  17
ATOM     17  C   UNL     1      92.845  89.554  90.226  1.00  0.00     0.027 C 
BRANCH  17  18
ATOM     18  C   UNL     1      93.039  90.410  91.483  1.00  0.00     0.004 C 
BRANCH  18  19
ATOM     19  C   UNL     1      92.812  91.907  91.247  1.00  0.00     0.000 C 
BRANCH  19  20
ATOM     20  C   UNL     1      94.140  92.665  91.204  1.00  0.00    -0.003 C 
ATOM     21  C   UNL     1      94.738  92.663  89.807  1.00  0.00     0.004 C 
ENDBRANCH  19  20
ENDBRANCH  18  19
ENDBRANCH  17  18
ENDBRANCH   1  17
TORSDOF 10
ENDMDL
