MODEL 1
REMARK VINA RESULT:    -5.983      0.000      0.000
REMARK INTER + INTRA:         -10.390
REMARK INTER:                  -9.655
REMARK INTRA:                  -0.735
REMARK UNBOUND:                -0.735
REMARK SMILES COc1cc(CNC(=O)CCCCCCC(C)C)ccc1O
REMARK SMILES IDX 11 1 10 2 8 3 7 4 9 6 6 7 5 8 3 9 21 10 4 11 20 12 19 13
REMARK SMILES IDX 2 14 1 15 22 16 12 18 13 19 14 20 15 21 16 22 17 23 18 24
REMARK H PARENT 7 5 22 17
REMARK Flexibility Score: inf
ROOT
ATOM      1  C   UNL     1      92.924 100.241  72.105  1.00  0.00     0.010 C 
ENDROOT
BRANCH   1   2
ATOM      2  C   UNL     1      92.525 100.091  73.599  1.00  0.00     0.100 C 
BRANCH   2   3
ATOM      3  C   UNL     1      93.579  99.460  74.425  1.00  0.00     0.220 C 
ATOM      4  N   UNL     1      93.289  98.376  75.203  1.00  0.00    -0.352 N 
ATOM      5  H   UNL     1      92.319  98.096  75.189  1.00  0.00     0.163 HD
ATOM      6  O   UNL     1      94.743  99.926  74.375  1.00  0.00    -0.275 OA
BRANCH   4   7
ATOM      7  C   UNL     1      94.235  97.651  75.995  1.00  0.00     0.151 C 
BRANCH   7   8
ATOM      8  C   UNL     1      93.605  96.616  76.860  1.00  0.00    -0.025 A 
ATOM      9  C   UNL     1      91.861  94.921  77.228  1.00  0.00     0.160 A 
ATOM     10  C   UNL     1      92.423  94.613  78.486  1.00  0.00     0.157 A 
ATOM     11  C   UNL     1      92.444  95.932  76.434  1.00  0.00     0.056 A 
ATOM     12  C   UNL     1      93.555  95.314  78.938  1.00  0.00     0.050 A 
ATOM     13  C   UNL     1      94.149  96.302  78.128  1.00  0.00     0.009 A 
BRANCH   9  14
ATOM     14  O   UNL     1      90.737  94.272  76.795  1.00  0.00    -0.493 OA
ATOM     15  C   UNL     1      89.512  94.950  77.129  1.00  0.00     0.278 C 
ENDBRANCH   9  14
BRANCH  10  16
ATOM     16  O   UNL     1      91.882  93.645  79.272  1.00  0.00    -0.504 OA
ATOM     17  H   UNL     1      91.906  92.805  78.806  1.00  0.00     0.293 HD
ENDBRANCH  10  16
ENDBRANCH   7   8
ENDBRANCH   4   7
ENDBRANCH   2   3
ENDBRANCH   1   2
BRANCH   1  18
ATOM     18  C   UNL     1      91.719 100.007  71.150  1.00  0.00     0.001 C 
BRANCH  18  19
ATOM     19  C   UNL     1      90.471  99.403  71.852  1.00  0.00     0.000 C 
BRANCH  19  20
ATOM     20  C   UNL     1      89.272  99.269  70.871  1.00  0.00     0.000 C 
BRANCH  20  21
ATOM     21  C   UNL     1      89.657  99.402  69.372  1.00  0.00     0.003 C 
BRANCH  21  22
ATOM     22  C   UNL     1      89.529  98.079  68.548  1.00  0.00    -0.017 C 
ATOM     23  C   UNL     1      88.201  98.067  67.741  1.00  0.00     0.007 C 
ATOM     24  C   UNL     1      89.653  96.790  69.412  1.00  0.00     0.007 C 
ENDBRANCH  21  22
ENDBRANCH  20  21
ENDBRANCH  19  20
ENDBRANCH  18  19
ENDBRANCH   1  18
TORSDOF 11
ENDMDL
MODEL 2
REMARK VINA RESULT:    -5.931     15.946     17.867
REMARK INTER + INTRA:         -10.307
REMARK INTER:                  -9.272
REMARK INTRA:                  -1.034
REMARK UNBOUND:                -0.735
REMARK SMILES COc1cc(CNC(=O)CCCCCCC(C)C)ccc1O
REMARK SMILES IDX 11 1 10 2 8 3 7 4 9 6 6 7 5 8 3 9 21 10 4 11 20 12 19 13
REMARK SMILES IDX 2 14 1 15 22 16 12 18 13 19 14 20 15 21 16 22 17 23 18 24
REMARK H PARENT 7 5 22 17
REMARK Flexibility Score: inf
ROOT
ATOM      1  C   UNL     1      98.340  82.637  79.256  1.00  0.00     0.010 C 
ENDROOT
BRANCH   1   2
ATOM      2  C   UNL     1      99.214  83.197  80.412  1.00  0.00     0.100 C 
BRANCH   2   3
ATOM      3  C   UNL     1      99.038  82.464  81.686  1.00  0.00     0.220 C 
ATOM      4  N   UNL     1      98.863  83.145  82.855  1.00  0.00    -0.352 N 
ATOM      5  H   UNL     1      98.910  84.150  82.767  1.00  0.00     0.163 HD
ATOM      6  O   UNL     1      99.029  81.209  81.661  1.00  0.00    -0.275 OA
BRANCH   4   7
ATOM      7  C   UNL     1      98.626  82.546  84.133  1.00  0.00     0.151 C 
BRANCH   7   8
ATOM      8  C   UNL     1      98.019  83.484  85.117  1.00  0.00    -0.025 A 
ATOM      9  C   UNL     1      97.711  84.226  87.442  1.00  0.00     0.160 A 
ATOM     10  C   UNL     1      96.902  85.294  86.996  1.00  0.00     0.157 A 
ATOM     11  C   UNL     1      98.247  83.320  86.502  1.00  0.00     0.056 A 
ATOM     12  C   UNL     1      96.637  85.446  85.623  1.00  0.00     0.050 A 
ATOM     13  C   UNL     1      97.199  84.554  84.688  1.00  0.00     0.009 A 
BRANCH   9  14
ATOM     14  O   UNL     1      97.943  84.046  88.778  1.00  0.00    -0.493 OA
ATOM     15  C   UNL     1      97.156  82.996  89.368  1.00  0.00     0.278 C 
ENDBRANCH   9  14
BRANCH  10  16
ATOM     16  O   UNL     1      96.372  86.181  87.878  1.00  0.00    -0.504 OA
ATOM     17  H   UNL     1      95.528  86.496  87.546  1.00  0.00     0.293 HD
ENDBRANCH  10  16
ENDBRANCH   7   8
ENDBRANCH   4   7
ENDBRANCH   2   3
ENDBRANCH   1   2
BRANCH   1  18
ATOM     18  C   UNL     1      97.412  83.724  78.643  1.00  0.00     0.001 C 
BRANCH  18  19
ATOM     19  C   UNL     1      97.816  84.154  77.204  1.00  0.00     0.000 C 
BRANCH  19  20
ATOM     20  C   UNL     1      98.415  82.966  76.399  1.00  0.00     0.000 C 
BRANCH  20  21
ATOM     21  C   UNL     1      99.797  83.265  75.756  1.00  0.00     0.003 C 
BRANCH  21  22
ATOM     22  C   UNL     1     100.886  83.770  76.759  1.00  0.00    -0.017 C 
ATOM     23  C   UNL     1     101.891  84.714  76.041  1.00  0.00     0.007 C 
ATOM     24  C   UNL     1     101.643  82.623  77.491  1.00  0.00     0.007 C 
ENDBRANCH  21  22
ENDBRANCH  20  21
ENDBRANCH  19  20
ENDBRANCH  18  19
ENDBRANCH   1  18
TORSDOF 11
ENDMDL
MODEL 3
REMARK VINA RESULT:    -5.796      6.099      8.930
REMARK INTER + INTRA:         -10.089
REMARK INTER:                  -9.275
REMARK INTRA:                  -0.814
REMARK UNBOUND:                -0.735
REMARK SMILES COc1cc(CNC(=O)CCCCCCC(C)C)ccc1O
REMARK SMILES IDX 11 1 10 2 8 3 7 4 9 6 6 7 5 8 3 9 21 10 4 11 20 12 19 13
REMARK SMILES IDX 2 14 1 15 22 16 12 18 13 19 14 20 15 21 16 22 17 23 18 24
REMARK H PARENT 7 5 22 17
REMARK Flexibility Score: inf
ROOT
ATOM      1  C   UNL     1      93.895  94.058  79.818  1.00  0.00     0.010 C 
ENDROOT
BRANCH   1   2
ATOM      2  C   UNL     1      95.099  93.342  80.491  1.00  0.00     0.100 C 
BRANCH   2   3
ATOM      3  C   UNL     1      95.581  94.028  81.711  1.00  0.00     0.220 C 
ATOM      4  N   UNL     1      96.456  95.071  81.614  1.00  0.00    -0.352 N 
ATOM      5  H   UNL     1      96.758  95.282  80.674  1.00  0.00     0.163 HD
ATOM      6  O   UNL     1      95.150  93.647  82.826  1.00  0.00    -0.275 OA
BRANCH   4   7
ATOM      7  C   UNL     1      96.944  95.845  82.715  1.00  0.00     0.151 C 
BRANCH   7   8
ATOM      8  C   UNL     1      96.496  97.264  82.678  1.00  0.00    -0.025 A 
ATOM      9  C   UNL     1      95.904  99.342  83.854  1.00  0.00     0.160 A 
ATOM     10  C   UNL     1      95.687  99.984  82.615  1.00  0.00     0.157 A 
ATOM     11  C   UNL     1      96.288  97.985  83.876  1.00  0.00     0.056 A 
ATOM     12  C   UNL     1      95.852  99.266  81.417  1.00  0.00     0.050 A 
ATOM     13  C   UNL     1      96.265  97.920  81.446  1.00  0.00     0.009 A 
BRANCH   9  14
ATOM     14  O   UNL     1      95.708 100.019  85.027  1.00  0.00    -0.493 OA
ATOM     15  C   UNL     1      96.182  99.315  86.189  1.00  0.00     0.278 C 
ENDBRANCH   9  14
BRANCH  10  16
ATOM     16  O   UNL     1      95.315 101.290  82.563  1.00  0.00    -0.504 OA
ATOM     17  H   UNL     1      95.873 101.756  81.936  1.00  0.00     0.293 HD
ENDBRANCH  10  16
ENDBRANCH   7   8
ENDBRANCH   4   7
ENDBRANCH   2   3
ENDBRANCH   1   2
BRANCH   1  18
ATOM     18  C   UNL     1      94.309  94.803  78.518  1.00  0.00     0.001 C 
BRANCH  18  19
ATOM     19  C   UNL     1      93.143  95.579  77.842  1.00  0.00     0.000 C 
BRANCH  19  20
ATOM     20  C   UNL     1      91.759  95.091  78.355  1.00  0.00     0.000 C 
BRANCH  20  21
ATOM     21  C   UNL     1      90.577  95.405  77.396  1.00  0.00     0.003 C 
BRANCH  21  22
ATOM     22  C   UNL     1      89.560  94.232  77.210  1.00  0.00    -0.017 C 
ATOM     23  C   UNL     1      89.554  93.314  78.465  1.00  0.00     0.007 C 
ATOM     24  C   UNL     1      89.803  93.392  75.922  1.00  0.00     0.007 C 
ENDBRANCH  21  22
ENDBRANCH  20  21
ENDBRANCH  19  20
ENDBRANCH  18  19
ENDBRANCH   1  18
TORSDOF 11
ENDMDL
MODEL 4
REMARK VINA RESULT:    -5.750     15.887     17.848
REMARK INTER + INTRA:         -10.014
REMARK INTER:                  -9.061
REMARK INTRA:                  -0.953
REMARK UNBOUND:                -0.735
REMARK SMILES COc1cc(CNC(=O)CCCCCCC(C)C)ccc1O
REMARK SMILES IDX 11 1 10 2 8 3 7 4 9 6 6 7 5 8 3 9 21 10 4 11 20 12 19 13
REMARK SMILES IDX 2 14 1 15 22 16 12 18 13 19 14 20 15 21 16 22 17 23 18 24
REMARK H PARENT 7 5 22 17
REMARK Flexibility Score: inf
ROOT
ATOM      1  C   UNL     1      98.866  83.203  80.808  1.00  0.00     0.010 C 
ENDROOT
BRANCH   1   2
ATOM      2  C   UNL     1     100.075  82.454  81.432  1.00  0.00     0.100 C 
BRANCH   2   3
ATOM      3  C   UNL     1      99.882  82.120  82.861  1.00  0.00     0.220 C 
ATOM      4  N   UNL     1      99.056  82.876  83.640  1.00  0.00    -0.352 N 
ATOM      5  H   UNL     1      98.649  83.673  83.172  1.00  0.00     0.163 HD
ATOM      6  O   UNL     1     100.474  81.117  83.330  1.00  0.00    -0.275 OA
BRANCH   4   7
ATOM      7  C   UNL     1      98.748  82.616  85.014  1.00  0.00     0.151 C 
BRANCH   7   8
ATOM      8  C   UNL     1      97.579  83.392  85.510  1.00  0.00    -0.025 A 
ATOM      9  C   UNL     1      95.440  83.479  86.721  1.00  0.00     0.160 A 
ATOM     10  C   UNL     1      95.368  84.871  86.498  1.00  0.00     0.157 A 
ATOM     11  C   UNL     1      96.533  82.748  86.210  1.00  0.00     0.056 A 
ATOM     12  C   UNL     1      96.383  85.517  85.769  1.00  0.00     0.050 A 
ATOM     13  C   UNL     1      97.486  84.786  85.287  1.00  0.00     0.009 A 
BRANCH   9  14
ATOM     14  O   UNL     1      94.439  82.835  87.395  1.00  0.00    -0.493 OA
ATOM     15  C   UNL     1      93.632  81.984  86.561  1.00  0.00     0.278 C 
ENDBRANCH   9  14
BRANCH  10  16
ATOM     16  O   UNL     1      94.326  85.600  86.977  1.00  0.00    -0.504 OA
ATOM     17  H   UNL     1      94.234  85.446  87.920  1.00  0.00     0.293 HD
ENDBRANCH  10  16
ENDBRANCH   7   8
ENDBRANCH   4   7
ENDBRANCH   2   3
ENDBRANCH   1   2
BRANCH   1  18
ATOM     18  C   UNL     1      98.269  82.442  79.590  1.00  0.00     0.001 C 
BRANCH  18  19
ATOM     19  C   UNL     1      97.150  83.226  78.848  1.00  0.00     0.000 C 
BRANCH  19  20
ATOM     20  C   UNL     1      97.742  84.244  77.833  1.00  0.00     0.000 C 
BRANCH  20  21
ATOM     21  C   UNL     1      97.835  83.711  76.376  1.00  0.00     0.003 C 
BRANCH  21  22
ATOM     22  C   UNL     1      99.220  83.090  75.999  1.00  0.00    -0.017 C 
ATOM     23  C   UNL     1      99.150  81.538  76.043  1.00  0.00     0.007 C 
ATOM     24  C   UNL     1     100.397  83.608  76.876  1.00  0.00     0.007 C 
ENDBRANCH  21  22
ENDBRANCH  20  21
ENDBRANCH  19  20
ENDBRANCH  18  19
ENDBRANCH   1  18
TORSDOF 11
ENDMDL
MODEL 5
REMARK VINA RESULT:    -5.698     15.307     18.518
REMARK INTER + INTRA:          -9.930
REMARK INTER:                  -9.140
REMARK INTRA:                  -0.791
REMARK UNBOUND:                -0.735
REMARK SMILES COc1cc(CNC(=O)CCCCCCC(C)C)ccc1O
REMARK SMILES IDX 11 1 10 2 8 3 7 4 9 6 6 7 5 8 3 9 21 10 4 11 20 12 19 13
REMARK SMILES IDX 2 14 1 15 22 16 12 18 13 19 14 20 15 21 16 22 17 23 18 24
REMARK H PARENT 7 5 22 17
REMARK Flexibility Score: inf
ROOT
ATOM      1  C   UNL     1      99.205  82.185  81.054  1.00  0.00     0.010 C 
ENDROOT
BRANCH   1   2
ATOM      2  C   UNL     1      98.238  83.281  80.527  1.00  0.00     0.100 C 
BRANCH   2   3
ATOM      3  C   UNL     1      97.912  83.132  79.091  1.00  0.00     0.220 C 
ATOM      4  N   UNL     1      98.086  84.179  78.233  1.00  0.00    -0.352 N 
ATOM      5  H   UNL     1      98.399  85.033  78.669  1.00  0.00     0.163 HD
ATOM      6  O   UNL     1      97.499  82.021  78.680  1.00  0.00    -0.275 OA
BRANCH   4   7
ATOM      7  C   UNL     1      97.860  84.135  76.820  1.00  0.00     0.151 C 
BRANCH   7   8
ATOM      8  C   UNL     1      99.079  83.780  76.042  1.00  0.00    -0.025 A 
ATOM      9  C   UNL     1     101.093  84.465  74.809  1.00  0.00     0.160 A 
ATOM     10  C   UNL     1     101.427  83.110  74.597  1.00  0.00     0.157 A 
ATOM     11  C   UNL     1      99.914  84.789  75.513  1.00  0.00     0.056 A 
ATOM     12  C   UNL     1     100.583  82.096  75.085  1.00  0.00     0.050 A 
ATOM     13  C   UNL     1      99.423  82.427  75.812  1.00  0.00     0.009 A 
BRANCH   9  14
ATOM     14  O   UNL     1     101.886  85.459  74.304  1.00  0.00    -0.493 OA
ATOM     15  C   UNL     1     101.390  86.032  73.080  1.00  0.00     0.278 C 
ENDBRANCH   9  14
BRANCH  10  16
ATOM     16  O   UNL     1     102.556  82.768  73.921  1.00  0.00    -0.504 OA
ATOM     17  H   UNL     1     103.218  83.453  74.039  1.00  0.00     0.293 HD
ENDBRANCH  10  16
ENDBRANCH   7   8
ENDBRANCH   4   7
ENDBRANCH   2   3
ENDBRANCH   1   2
BRANCH   1  18
ATOM     18  C   UNL     1      99.418  82.279  82.592  1.00  0.00     0.001 C 
BRANCH  18  19
ATOM     19  C   UNL     1      98.559  81.271  83.406  1.00  0.00     0.000 C 
BRANCH  19  20
ATOM     20  C   UNL     1      97.625  81.998  84.414  1.00  0.00     0.000 C 
BRANCH  20  21
ATOM     21  C   UNL     1      97.501  83.529  84.177  1.00  0.00     0.003 C 
BRANCH  21  22
ATOM     22  C   UNL     1      96.373  84.225  85.006  1.00  0.00    -0.017 C 
ATOM     23  C   UNL     1      96.894  85.553  85.624  1.00  0.00     0.007 C 
ATOM     24  C   UNL     1      95.755  83.316  86.109  1.00  0.00     0.007 C 
ENDBRANCH  21  22
ENDBRANCH  20  21
ENDBRANCH  19  20
ENDBRANCH  18  19
ENDBRANCH   1  18
TORSDOF 11
ENDMDL
MODEL 6
REMARK VINA RESULT:    -5.689      1.108      2.328
REMARK INTER + INTRA:          -9.916
REMARK INTER:                  -9.072
REMARK INTRA:                  -0.844
REMARK UNBOUND:                -0.735
REMARK SMILES COc1cc(CNC(=O)CCCCCCC(C)C)ccc1O
REMARK SMILES IDX 11 1 10 2 8 3 7 4 9 6 6 7 5 8 3 9 21 10 4 11 20 12 19 13
REMARK SMILES IDX 2 14 1 15 22 16 12 18 13 19 14 20 15 21 16 22 17 23 18 24
REMARK H PARENT 7 5 22 17
REMARK Flexibility Score: inf
ROOT
ATOM      1  C   UNL     1      91.526  99.781  72.429  1.00  0.00     0.010 C 
ENDROOT
BRANCH   1   2
ATOM      2  C   UNL     1      92.204 100.507  73.624  1.00  0.00     0.100 C 
BRANCH   2   3
ATOM      3  C   UNL     1      93.342  99.754  74.197  1.00  0.00     0.220 C 
ATOM      4  N   UNL     1      93.122  98.757  75.103  1.00  0.00    -0.352 N 
ATOM      5  H   UNL     1      92.154  98.627  75.360  1.00  0.00     0.163 HD
ATOM      6  O   UNL     1      94.504 100.036  73.815  1.00  0.00    -0.275 OA
BRANCH   4   7
ATOM      7  C   UNL     1      94.135  97.925  75.678  1.00  0.00     0.151 C 
BRANCH   7   8
ATOM      8  C   UNL     1      93.591  96.886  76.595  1.00  0.00    -0.025 A 
ATOM      9  C   UNL     1      93.835  95.465  78.587  1.00  0.00     0.160 A 
ATOM     10  C   UNL     1      92.542  94.938  78.372  1.00  0.00     0.157 A 
ATOM     11  C   UNL     1      94.355  96.419  77.688  1.00  0.00     0.056 A 
ATOM     12  C   UNL     1      91.787  95.367  77.266  1.00  0.00     0.050 A 
ATOM     13  C   UNL     1      92.301  96.341  76.389  1.00  0.00     0.009 A 
BRANCH   9  14
ATOM     14  O   UNL     1      94.594  95.026  79.638  1.00  0.00    -0.493 OA
ATOM     15  C   UNL     1      95.603  94.071  79.265  1.00  0.00     0.278 C 
ENDBRANCH   9  14
BRANCH  10  16
ATOM     16  O   UNL     1      92.016  94.017  79.221  1.00  0.00    -0.504 OA
ATOM     17  H   UNL     1      91.253  94.393  79.668  1.00  0.00     0.293 HD
ENDBRANCH  10  16
ENDBRANCH   7   8
ENDBRANCH   4   7
ENDBRANCH   2   3
ENDBRANCH   1   2
BRANCH   1  18
ATOM     18  C   UNL     1      91.932 100.397  71.061  1.00  0.00     0.001 C 
BRANCH  18  19
ATOM     19  C   UNL     1      90.775 101.148  70.343  1.00  0.00     0.000 C 
BRANCH  19  20
ATOM     20  C   UNL     1      90.072 100.244  69.292  1.00  0.00     0.000 C 
BRANCH  20  21
ATOM     21  C   UNL     1      88.811  99.509  69.825  1.00  0.00     0.003 C 
BRANCH  21  22
ATOM     22  C   UNL     1      88.752  97.985  69.480  1.00  0.00    -0.017 C 
ATOM     23  C   UNL     1      89.928  97.228  70.157  1.00  0.00     0.007 C 
ATOM     24  C   UNL     1      88.723  97.691  67.951  1.00  0.00     0.007 C 
ENDBRANCH  21  22
ENDBRANCH  20  21
ENDBRANCH  19  20
ENDBRANCH  18  19
ENDBRANCH   1  18
TORSDOF 11
ENDMDL
MODEL 7
REMARK VINA RESULT:    -5.586     15.207     17.925
REMARK INTER + INTRA:          -9.749
REMARK INTER:                  -9.227
REMARK INTRA:                  -0.522
REMARK UNBOUND:                -0.735
REMARK SMILES COc1cc(CNC(=O)CCCCCCC(C)C)ccc1O
REMARK SMILES IDX 11 1 10 2 8 3 7 4 9 6 6 7 5 8 3 9 21 10 4 11 20 12 19 13
REMARK SMILES IDX 2 14 1 15 22 16 12 18 13 19 14 20 15 21 16 22 17 23 18 24
REMARK H PARENT 7 5 22 17
REMARK Flexibility Score: inf
ROOT
ATOM      1  C   UNL     1      98.299  83.225  83.794  1.00  0.00     0.010 C 
ENDROOT
BRANCH   1   2
ATOM      2  C   UNL     1      96.856  83.690  84.132  1.00  0.00     0.100 C 
BRANCH   2   3
ATOM      3  C   UNL     1      96.810  84.750  85.165  1.00  0.00     0.220 C 
ATOM      4  N   UNL     1      95.704  84.899  85.950  1.00  0.00    -0.352 N 
ATOM      5  H   UNL     1      94.944  84.273  85.731  1.00  0.00     0.163 HD
ATOM      6  O   UNL     1      97.815  85.486  85.316  1.00  0.00    -0.275 OA
BRANCH   4   7
ATOM      7  C   UNL     1      95.569  85.847  87.015  1.00  0.00     0.151 C 
BRANCH   7   8
ATOM      8  C   UNL     1      94.473  85.509  87.965  1.00  0.00    -0.025 A 
ATOM      9  C   UNL     1      92.510  84.151  88.555  1.00  0.00     0.160 A 
ATOM     10  C   UNL     1      92.409  84.829  89.789  1.00  0.00     0.157 A 
ATOM     11  C   UNL     1      93.528  84.508  87.646  1.00  0.00     0.056 A 
ATOM     12  C   UNL     1      93.320  85.854  90.102  1.00  0.00     0.050 A 
ATOM     13  C   UNL     1      94.352  86.185  89.202  1.00  0.00     0.009 A 
BRANCH   9  14
ATOM     14  O   UNL     1      91.604  83.180  88.225  1.00  0.00    -0.493 OA
ATOM     15  C   UNL     1      91.823  82.601  86.925  1.00  0.00     0.278 C 
ENDBRANCH   9  14
BRANCH  10  16
ATOM     16  O   UNL     1      91.437  84.507  90.684  1.00  0.00    -0.504 OA
ATOM     17  H   UNL     1      91.526  85.059  91.464  1.00  0.00     0.293 HD
ENDBRANCH  10  16
ENDBRANCH   7   8
ENDBRANCH   4   7
ENDBRANCH   2   3
ENDBRANCH   1   2
BRANCH   1  18
ATOM     18  C   UNL     1      98.348  82.355  82.506  1.00  0.00     0.001 C 
BRANCH  18  19
ATOM     19  C   UNL     1      98.871  83.116  81.255  1.00  0.00     0.000 C 
BRANCH  19  20
ATOM     20  C   UNL     1      98.375  82.459  79.937  1.00  0.00     0.000 C 
BRANCH  20  21
ATOM     21  C   UNL     1      97.492  83.387  79.056  1.00  0.00     0.003 C 
BRANCH  21  22
ATOM     22  C   UNL     1      97.955  83.502  77.566  1.00  0.00    -0.017 C 
ATOM     23  C   UNL     1      99.486  83.257  77.452  1.00  0.00     0.007 C 
ATOM     24  C   UNL     1      97.566  84.851  76.893  1.00  0.00     0.007 C 
ENDBRANCH  21  22
ENDBRANCH  20  21
ENDBRANCH  19  20
ENDBRANCH  18  19
ENDBRANCH   1  18
TORSDOF 11
ENDMDL
MODEL 8
REMARK VINA RESULT:    -5.562     15.978     19.125
REMARK INTER + INTRA:          -9.712
REMARK INTER:                  -8.672
REMARK INTRA:                  -1.039
REMARK UNBOUND:                -0.735
REMARK SMILES COc1cc(CNC(=O)CCCCCCC(C)C)ccc1O
REMARK SMILES IDX 11 1 10 2 8 3 7 4 9 6 6 7 5 8 3 9 21 10 4 11 20 12 19 13
REMARK SMILES IDX 2 14 1 15 22 16 12 18 13 19 14 20 15 21 16 22 17 23 18 24
REMARK H PARENT 7 5 22 17
REMARK Flexibility Score: inf
ROOT
ATOM      1  C   UNL     1      98.566  80.781  83.208  1.00  0.00     0.010 C 
ENDROOT
BRANCH   1   2
ATOM      2  C   UNL     1     100.115  80.891  83.266  1.00  0.00     0.100 C 
BRANCH   2   3
ATOM      3  C   UNL     1     100.706  81.468  82.037  1.00  0.00     0.220 C 
ATOM      4  N   UNL     1     100.379  80.964  80.813  1.00  0.00    -0.352 N 
ATOM      5  H   UNL     1      99.758  80.168  80.837  1.00  0.00     0.163 HD
ATOM      6  O   UNL     1     101.491  82.441  82.148  1.00  0.00    -0.275 OA
BRANCH   4   7
ATOM      7  C   UNL     1     100.841  81.476  79.558  1.00  0.00     0.151 C 
BRANCH   7   8
ATOM      8  C   UNL     1      99.819  82.292  78.845  1.00  0.00    -0.025 A 
ATOM      9  C   UNL     1      99.131  83.598  76.879  1.00  0.00     0.160 A 
ATOM     10  C   UNL     1      97.863  83.811  77.461  1.00  0.00     0.157 A 
ATOM     11  C   UNL     1     100.105  82.858  77.582  1.00  0.00     0.056 A 
ATOM     12  C   UNL     1      97.580  83.286  78.735  1.00  0.00     0.050 A 
ATOM     13  C   UNL     1      98.547  82.523  79.419  1.00  0.00     0.009 A 
BRANCH   9  14
ATOM     14  O   UNL     1      99.430  84.138  75.657  1.00  0.00    -0.493 OA
ATOM     15  C   UNL     1     100.796  84.573  75.534  1.00  0.00     0.278 C 
ENDBRANCH   9  14
BRANCH  10  16
ATOM     16  O   UNL     1      96.907  84.522  76.807  1.00  0.00    -0.504 OA
ATOM     17  H   UNL     1      97.080  84.497  75.863  1.00  0.00     0.293 HD
ENDBRANCH  10  16
ENDBRANCH   7   8
ENDBRANCH   4   7
ENDBRANCH   2   3
ENDBRANCH   1   2
BRANCH   1  18
ATOM     18  C   UNL     1      97.868  81.862  84.083  1.00  0.00     0.001 C 
BRANCH  18  19
ATOM     19  C   UNL     1      97.704  83.234  83.370  1.00  0.00     0.000 C 
BRANCH  19  20
ATOM     20  C   UNL     1      97.016  84.279  84.293  1.00  0.00     0.000 C 
BRANCH  20  21
ATOM     21  C   UNL     1      97.715  84.475  85.666  1.00  0.00     0.003 C 
BRANCH  21  22
ATOM     22  C   UNL     1      96.878  83.994  86.897  1.00  0.00    -0.017 C 
ATOM     23  C   UNL     1      95.506  83.427  86.433  1.00  0.00     0.007 C 
ATOM     24  C   UNL     1      96.675  85.092  87.982  1.00  0.00     0.007 C 
ENDBRANCH  21  22
ENDBRANCH  20  21
ENDBRANCH  19  20
ENDBRANCH  18  19
ENDBRANCH   1  18
TORSDOF 11
ENDMDL
MODEL 9
REMARK VINA RESULT:    -5.537     20.183     23.449
REMARK INTER + INTRA:          -9.671
REMARK INTER:                  -8.237
REMARK INTRA:                  -1.434
REMARK UNBOUND:                -0.735
REMARK SMILES COc1cc(CNC(=O)CCCCCCC(C)C)ccc1O
REMARK SMILES IDX 11 1 10 2 8 3 7 4 9 6 6 7 5 8 3 9 21 10 4 11 20 12 19 13
REMARK SMILES IDX 2 14 1 15 22 16 12 18 13 19 14 20 15 21 16 22 17 23 18 24
REMARK H PARENT 7 5 22 17
REMARK Flexibility Score: inf
ROOT
ATOM      1  C   UNL     1      74.540  88.692  70.191  1.00  0.00     0.010 C 
ENDROOT
BRANCH   1   2
ATOM      2  C   UNL     1      73.838  87.331  70.453  1.00  0.00     0.100 C 
BRANCH   2   3
ATOM      3  C   UNL     1      72.759  87.034  69.485  1.00  0.00     0.220 C 
ATOM      4  N   UNL     1      72.533  85.753  69.076  1.00  0.00    -0.352 N 
ATOM      5  H   UNL     1      73.178  85.072  69.449  1.00  0.00     0.163 HD
ATOM      6  O   UNL     1      72.045  87.980  69.071  1.00  0.00    -0.275 OA
BRANCH   4   7
ATOM      7  C   UNL     1      71.486  85.340  68.192  1.00  0.00     0.151 C 
BRANCH   7   8
ATOM      8  C   UNL     1      71.817  84.107  67.425  1.00  0.00    -0.025 A 
ATOM      9  C   UNL     1      73.467  82.696  66.270  1.00  0.00     0.160 A 
ATOM     10  C   UNL     1      72.465  81.739  66.001  1.00  0.00     0.157 A 
ATOM     11  C   UNL     1      73.133  83.879  66.962  1.00  0.00     0.056 A 
ATOM     12  C   UNL     1      71.143  81.973  66.423  1.00  0.00     0.050 A 
ATOM     13  C   UNL     1      70.822  83.142  67.139  1.00  0.00     0.009 A 
BRANCH   9  14
ATOM     14  O   UNL     1      74.748  82.498  65.830  1.00  0.00    -0.493 OA
ATOM     15  C   UNL     1      75.106  83.314  64.700  1.00  0.00     0.278 C 
ENDBRANCH   9  14
BRANCH  10  16
ATOM     16  O   UNL     1      72.758  80.592  65.336  1.00  0.00    -0.504 OA
ATOM     17  H   UNL     1      72.270  80.568  64.509  1.00  0.00     0.293 HD
ENDBRANCH  10  16
ENDBRANCH   7   8
ENDBRANCH   4   7
ENDBRANCH   2   3
ENDBRANCH   1   2
BRANCH   1  18
ATOM     18  C   UNL     1      76.088  88.551  70.125  1.00  0.00     0.001 C 
BRANCH  18  19
ATOM     19  C   UNL     1      76.583  87.616  68.986  1.00  0.00     0.000 C 
BRANCH  19  20
ATOM     20  C   UNL     1      77.959  86.978  69.328  1.00  0.00     0.000 C 
BRANCH  20  21
ATOM     21  C   UNL     1      77.866  85.563  69.962  1.00  0.00     0.003 C 
BRANCH  21  22
ATOM     22  C   UNL     1      76.459  84.889  69.844  1.00  0.00    -0.017 C 
ATOM     23  C   UNL     1      76.042  84.260  71.203  1.00  0.00     0.007 C 
ATOM     24  C   UNL     1      76.365  83.834  68.703  1.00  0.00     0.007 C 
ENDBRANCH  21  22
ENDBRANCH  20  21
ENDBRANCH  19  20
ENDBRANCH  18  19
ENDBRANCH   1  18
TORSDOF 11
ENDMDL
MODEL 10
REMARK VINA RESULT:    -5.420     15.522     18.817
REMARK INTER + INTRA:          -9.481
REMARK INTER:                  -8.544
REMARK INTRA:                  -0.938
REMARK UNBOUND:                -0.735
REMARK SMILES COc1cc(CNC(=O)CCCCCCC(C)C)ccc1O
REMARK SMILES IDX 11 1 10 2 8 3 7 4 9 6 6 7 5 8 3 9 21 10 4 11 20 12 19 13
REMARK SMILES IDX 2 14 1 15 22 16 12 18 13 19 14 20 15 21 16 22 17 23 18 24
REMARK H PARENT 7 5 22 17
REMARK Flexibility Score: inf
ROOT
ATOM      1  C   UNL     1      99.789  82.487  80.593  1.00  0.00     0.010 C 
ENDROOT
BRANCH   1   2
ATOM      2  C   UNL     1      98.480  83.196  80.150  1.00  0.00     0.100 C 
BRANCH   2   3
ATOM      3  C   UNL     1      98.226  83.102  78.695  1.00  0.00     0.220 C 
ATOM      4  N   UNL     1      98.415  84.188  77.891  1.00  0.00    -0.352 N 
ATOM      5  H   UNL     1      98.686  85.030  78.377  1.00  0.00     0.163 HD
ATOM      6  O   UNL     1      97.860  82.000  78.219  1.00  0.00    -0.275 OA
BRANCH   4   7
ATOM      7  C   UNL     1      98.257  84.199  76.468  1.00  0.00     0.151 C 
BRANCH   7   8
ATOM      8  C   UNL     1      99.552  84.157  75.735  1.00  0.00    -0.025 A 
ATOM      9  C   UNL     1     101.496  82.892  74.915  1.00  0.00     0.160 A 
ATOM     10  C   UNL     1     101.999  84.059  74.301  1.00  0.00     0.157 A 
ATOM     11  C   UNL     1     100.288  82.954  75.642  1.00  0.00     0.056 A 
ATOM     12  C   UNL     1     101.296  85.272  74.419  1.00  0.00     0.050 A 
ATOM     13  C   UNL     1     100.076  85.320  75.121  1.00  0.00     0.009 A 
BRANCH   9  14
ATOM     14  O   UNL     1     102.192  81.716  74.840  1.00  0.00    -0.493 OA
ATOM     15  C   UNL     1     101.384  80.548  75.075  1.00  0.00     0.278 C 
ENDBRANCH   9  14
BRANCH  10  16
ATOM     16  O   UNL     1     103.161  84.029  73.596  1.00  0.00    -0.504 OA
ATOM     17  H   UNL     1     103.565  84.900  73.610  1.00  0.00     0.293 HD
ENDBRANCH  10  16
ENDBRANCH   7   8
ENDBRANCH   4   7
ENDBRANCH   2   3
ENDBRANCH   1   2
BRANCH   1  18
ATOM     18  C   UNL     1      99.927  82.420  82.140  1.00  0.00     0.001 C 
BRANCH  18  19
ATOM     19  C   UNL     1      99.290  81.150  82.772  1.00  0.00     0.000 C 
BRANCH  19  20
ATOM     20  C   UNL     1      98.072  81.508  83.669  1.00  0.00     0.000 C 
BRANCH  20  21
ATOM     21  C   UNL     1      97.756  83.027  83.740  1.00  0.00     0.003 C 
BRANCH  21  22
ATOM     22  C   UNL     1      97.747  83.623  85.186  1.00  0.00    -0.017 C 
ATOM     23  C   UNL     1      97.446  85.148  85.144  1.00  0.00     0.007 C 
ATOM     24  C   UNL     1      99.055  83.348  85.984  1.00  0.00     0.007 C 
ENDBRANCH  21  22
ENDBRANCH  20  21
ENDBRANCH  19  20
ENDBRANCH  18  19
ENDBRANCH   1  18
TORSDOF 11
ENDMDL
