MODEL 1
REMARK VINA RESULT:    -5.662      0.000      0.000
REMARK INTER + INTRA:         -10.655
REMARK INTER:                  -9.302
REMARK INTRA:                  -1.353
REMARK UNBOUND:                -1.353
REMARK SMILES CCCCC[C@H](O)CC(=O)CCc1ccc(O)c(OC)c1
REMARK SMILES IDX 8 1 6 2 7 3 5 5 4 6 3 7 2 8 1 9 9 10 10 11 11 12 12 13 13 14
REMARK SMILES IDX 21 15 14 16 18 17 15 18 16 19 19 20 20 21 17 22
REMARK H PARENT 7 4 17 23
REMARK Flexibility Score: inf
ROOT
ATOM      1  C   UNL     1      61.711  84.050  73.398  1.00  0.00     0.107 C 
ENDROOT
BRANCH   1   2
ATOM      2  C   UNL     1      60.501  84.823  73.927  1.00  0.00     0.121 C 
BRANCH   2   3
ATOM      3  O   UNL     1      60.682  85.117  75.310  1.00  0.00    -0.393 OA
ATOM      4  H   UNL     1      61.539  84.746  75.584  1.00  0.00     0.210 HD
ENDBRANCH   2   3
BRANCH   2   5
ATOM      5  C   UNL     1      60.242  86.128  73.164  1.00  0.00     0.032 C 
BRANCH   5   6
ATOM      6  C   UNL     1      58.808  86.207  72.627  1.00  0.00     0.003 C 
BRANCH   6   7
ATOM      7  C   UNL     1      58.730  86.174  71.097  1.00  0.00    -0.000 C 
BRANCH   7   8
ATOM      8  C   UNL     1      58.742  84.763  70.514  1.00  0.00    -0.003 C 
ATOM      9  C   UNL     1      60.091  84.431  69.894  1.00  0.00     0.004 C 
ENDBRANCH   7   8
ENDBRANCH   6   7
ENDBRANCH   5   6
ENDBRANCH   2   5
ENDBRANCH   1   2
BRANCH   1  10
ATOM     10  C   UNL     1      61.948  82.740  74.133  1.00  0.00     0.135 C 
ATOM     11  O   UNL     1      61.821  82.668  75.355  1.00  0.00    -0.300 OA
BRANCH  10  12
ATOM     12  C   UNL     1      62.302  81.533  73.277  1.00  0.00     0.080 C 
BRANCH  12  13
ATOM     13  C   UNL     1      63.797  81.409  72.976  1.00  0.00     0.043 C 
BRANCH  13  14
ATOM     14  C   UNL     1      64.165  81.902  71.597  1.00  0.00    -0.044 A 
ATOM     15  C   UNL     1      65.466  82.331  71.334  1.00  0.00     0.054 A 
ATOM     16  C   UNL     1      63.204  81.929  70.586  1.00  0.00     0.008 A 
ATOM     17  C   UNL     1      65.806  82.786  70.060  1.00  0.00     0.160 A 
ATOM     18  C   UNL     1      63.544  82.383  69.312  1.00  0.00     0.050 A 
ATOM     19  C   UNL     1      64.845  82.812  69.049  1.00  0.00     0.157 A 
BRANCH  17  20
ATOM     20  O   UNL     1      67.080  83.203  69.815  1.00  0.00    -0.493 OA
ATOM     21  C   UNL     1      67.806  83.747  70.915  1.00  0.00     0.278 C 
ENDBRANCH  17  20
BRANCH  19  22
ATOM     22  O   UNL     1      65.164  83.253  67.801  1.00  0.00    -0.504 OA
ATOM     23  H   UNL     1      64.345  83.460  67.318  1.00  0.00     0.293 HD
ENDBRANCH  19  22
ENDBRANCH  13  14
ENDBRANCH  12  13
ENDBRANCH  10  12
ENDBRANCH   1  10
TORSDOF 12
ENDMDL
MODEL 2
REMARK VINA RESULT:    -5.576     30.421     34.680
REMARK INTER + INTRA:         -10.514
REMARK INTER:                  -8.989
REMARK INTRA:                  -1.525
REMARK UNBOUND:                -1.353
REMARK SMILES CCCCC[C@H](O)CC(=O)CCc1ccc(O)c(OC)c1
REMARK SMILES IDX 8 1 6 2 7 3 5 5 4 6 3 7 2 8 1 9 9 10 10 11 11 12 12 13 13 14
REMARK SMILES IDX 21 15 14 16 18 17 15 18 16 19 19 20 20 21 17 22
REMARK H PARENT 7 4 17 23
REMARK Flexibility Score: inf
ROOT
ATOM      1  C   UNL     1      95.214  94.745  79.633  1.00  0.00     0.107 C 
ENDROOT
BRANCH   1   2
ATOM      2  C   UNL     1      93.853  94.092  79.380  1.00  0.00     0.121 C 
BRANCH   2   3
ATOM      3  O   UNL     1      93.440  93.370  80.538  1.00  0.00    -0.393 OA
ATOM      4  H   UNL     1      94.056  92.627  80.661  1.00  0.00     0.210 HD
ENDBRANCH   2   3
BRANCH   2   5
ATOM      5  C   UNL     1      92.763  95.103  79.001  1.00  0.00     0.032 C 
BRANCH   5   6
ATOM      6  C   UNL     1      92.114  94.771  77.652  1.00  0.00     0.003 C 
BRANCH   6   7
ATOM      7  C   UNL     1      90.731  95.405  77.472  1.00  0.00    -0.000 C 
BRANCH   7   8
ATOM      8  C   UNL     1      89.646  94.405  77.076  1.00  0.00    -0.003 C 
ATOM      9  C   UNL     1      89.271  93.503  78.241  1.00  0.00     0.004 C 
ENDBRANCH   7   8
ENDBRANCH   6   7
ENDBRANCH   5   6
ENDBRANCH   2   5
ENDBRANCH   1   2
BRANCH   1  10
ATOM     10  C   UNL     1      95.141  95.920  80.595  1.00  0.00     0.135 C 
ATOM     11  O   UNL     1      94.803  95.759  81.767  1.00  0.00    -0.300 OA
BRANCH  10  12
ATOM     12  C   UNL     1      95.547  97.278  80.043  1.00  0.00     0.080 C 
BRANCH  12  13
ATOM     13  C   UNL     1      96.333  97.200  78.733  1.00  0.00     0.043 C 
BRANCH  13  14
ATOM     14  C   UNL     1      95.564  97.736  77.549  1.00  0.00    -0.044 A 
ATOM     15  C   UNL     1      95.457  99.112  77.351  1.00  0.00     0.054 A 
ATOM     16  C   UNL     1      94.961  96.853  76.652  1.00  0.00     0.008 A 
ATOM     17  C   UNL     1      94.747  99.606  76.256  1.00  0.00     0.160 A 
ATOM     18  C   UNL     1      94.251  97.347  75.558  1.00  0.00     0.050 A 
ATOM     19  C   UNL     1      94.144  98.723  75.360  1.00  0.00     0.157 A 
BRANCH  17  20
ATOM     20  O   UNL     1      94.649 100.952  76.074  1.00  0.00    -0.493 OA
ATOM     21  C   UNL     1      95.738 101.598  75.417  1.00  0.00     0.278 C 
ENDBRANCH  17  20
BRANCH  19  22
ATOM     22  O   UNL     1      93.448  99.193  74.288  1.00  0.00    -0.504 OA
ATOM     23  H   UNL     1      92.498  99.181  74.496  1.00  0.00     0.293 HD
ENDBRANCH  19  22
ENDBRANCH  13  14
ENDBRANCH  12  13
ENDBRANCH  10  12
ENDBRANCH   1  10
TORSDOF 12
ENDMDL
MODEL 3
REMARK VINA RESULT:    -5.512     31.054     35.508
REMARK INTER + INTRA:         -10.410
REMARK INTER:                  -9.259
REMARK INTRA:                  -1.152
REMARK UNBOUND:                -1.353
REMARK SMILES CCCCC[C@H](O)CC(=O)CCc1ccc(O)c(OC)c1
REMARK SMILES IDX 8 1 6 2 7 3 5 5 4 6 3 7 2 8 1 9 9 10 10 11 11 12 12 13 13 14
REMARK SMILES IDX 21 15 14 16 18 17 15 18 16 19 19 20 20 21 17 22
REMARK H PARENT 7 4 17 23
REMARK Flexibility Score: inf
ROOT
ATOM      1  C   UNL     1      94.235  98.499  76.035  1.00  0.00     0.107 C 
ENDROOT
BRANCH   1   2
ATOM      2  C   UNL     1      93.749  97.061  75.833  1.00  0.00     0.121 C 
BRANCH   2   3
ATOM      3  O   UNL     1      94.797  96.271  75.276  1.00  0.00    -0.393 OA
ATOM      4  H   UNL     1      95.391  96.866  74.788  1.00  0.00     0.210 HD
ENDBRANCH   2   3
BRANCH   2   5
ATOM      5  C   UNL     1      93.256  96.406  77.129  1.00  0.00     0.032 C 
BRANCH   5   6
ATOM      6  C   UNL     1      92.214  95.314  76.863  1.00  0.00     0.003 C 
BRANCH   6   7
ATOM      7  C   UNL     1      91.115  95.251  77.929  1.00  0.00    -0.000 C 
BRANCH   7   8
ATOM      8  C   UNL     1      90.949  93.868  78.556  1.00  0.00    -0.003 C 
ATOM      9  C   UNL     1      89.551  93.316  78.318  1.00  0.00     0.004 C 
ENDBRANCH   7   8
ENDBRANCH   6   7
ENDBRANCH   5   6
ENDBRANCH   2   5
ENDBRANCH   1   2
BRANCH   1  10
ATOM     10  C   UNL     1      95.687  98.580  76.477  1.00  0.00     0.135 C 
ATOM     11  O   UNL     1      96.603  98.498  75.659  1.00  0.00    -0.300 OA
BRANCH  10  12
ATOM     12  C   UNL     1      95.937  98.810  77.959  1.00  0.00     0.080 C 
BRANCH  12  13
ATOM     13  C   UNL     1      96.818  97.741  78.608  1.00  0.00     0.043 C 
BRANCH  13  14
ATOM     14  C   UNL     1      96.280  97.255  79.933  1.00  0.00    -0.044 A 
ATOM     15  C   UNL     1      96.236  95.889  80.210  1.00  0.00     0.054 A 
ATOM     16  C   UNL     1      95.828  98.174  80.881  1.00  0.00     0.008 A 
ATOM     17  C   UNL     1      95.741  95.442  81.435  1.00  0.00     0.160 A 
ATOM     18  C   UNL     1      95.332  97.727  82.106  1.00  0.00     0.050 A 
ATOM     19  C   UNL     1      95.288  96.361  82.383  1.00  0.00     0.157 A 
BRANCH  17  20
ATOM     20  O   UNL     1      95.702  94.105  81.694  1.00  0.00    -0.493 OA
ATOM     21  C   UNL     1      94.819  93.316  80.899  1.00  0.00     0.278 C 
ENDBRANCH  17  20
BRANCH  19  22
ATOM     22  O   UNL     1      94.802  95.936  83.582  1.00  0.00    -0.504 OA
ATOM     23  H   UNL     1      95.500  96.021  84.254  1.00  0.00     0.293 HD
ENDBRANCH  19  22
ENDBRANCH  13  14
ENDBRANCH  12  13
ENDBRANCH  10  12
ENDBRANCH   1  10
TORSDOF 12
ENDMDL
MODEL 4
REMARK VINA RESULT:    -5.477      1.444      5.237
REMARK INTER + INTRA:         -10.351
REMARK INTER:                  -8.348
REMARK INTRA:                  -2.004
REMARK UNBOUND:                -1.353
REMARK SMILES CCCCC[C@H](O)CC(=O)CCc1ccc(O)c(OC)c1
REMARK SMILES IDX 8 1 6 2 7 3 5 5 4 6 3 7 2 8 1 9 9 10 10 11 11 12 12 13 13 14
REMARK SMILES IDX 21 15 14 16 18 17 15 18 16 19 19 20 20 21 17 22
REMARK H PARENT 7 4 17 23
REMARK Flexibility Score: inf
ROOT
ATOM      1  C   UNL     1      64.377  84.220  69.449  1.00  0.00     0.107 C 
ENDROOT
BRANCH   1   2
ATOM      2  C   UNL     1      63.427  83.555  68.450  1.00  0.00     0.121 C 
BRANCH   2   3
ATOM      3  O   UNL     1      64.029  82.375  67.922  1.00  0.00    -0.393 OA
ATOM      4  H   UNL     1      64.533  81.952  68.639  1.00  0.00     0.210 HD
ENDBRANCH   2   3
BRANCH   2   5
ATOM      5  C   UNL     1      62.067  83.198  69.061  1.00  0.00     0.032 C 
BRANCH   5   6
ATOM      6  C   UNL     1      61.380  84.417  69.690  1.00  0.00     0.003 C 
BRANCH   6   7
ATOM      7  C   UNL     1      61.148  84.271  71.198  1.00  0.00    -0.000 C 
BRANCH   7   8
ATOM      8  C   UNL     1      59.902  84.999  71.699  1.00  0.00    -0.003 C 
ATOM      9  C   UNL     1      58.661  84.562  70.936  1.00  0.00     0.004 C 
ENDBRANCH   7   8
ENDBRANCH   6   7
ENDBRANCH   5   6
ENDBRANCH   2   5
ENDBRANCH   1   2
BRANCH   1  10
ATOM     10  C   UNL     1      65.671  83.447  69.646  1.00  0.00     0.135 C 
ATOM     11  O   UNL     1      66.515  83.388  68.752  1.00  0.00    -0.300 OA
BRANCH  10  12
ATOM     12  C   UNL     1      65.878  82.799  71.006  1.00  0.00     0.080 C 
BRANCH  12  13
ATOM     13  C   UNL     1      64.851  81.713  71.333  1.00  0.00     0.043 C 
BRANCH  13  14
ATOM     14  C   UNL     1      63.943  82.085  72.481  1.00  0.00    -0.044 A 
ATOM     15  C   UNL     1      64.173  83.256  73.202  1.00  0.00     0.054 A 
ATOM     16  C   UNL     1      62.873  81.256  72.820  1.00  0.00     0.008 A 
ATOM     17  C   UNL     1      63.332  83.599  74.261  1.00  0.00     0.160 A 
ATOM     18  C   UNL     1      62.032  81.598  73.879  1.00  0.00     0.050 A 
ATOM     19  C   UNL     1      62.262  82.770  74.600  1.00  0.00     0.157 A 
BRANCH  17  20
ATOM     20  O   UNL     1      63.567  84.746  74.959  1.00  0.00    -0.493 OA
ATOM     21  C   UNL     1      63.159  85.969  74.350  1.00  0.00     0.278 C 
ENDBRANCH  17  20
BRANCH  19  22
ATOM     22  O   UNL     1      61.435  83.094  75.632  1.00  0.00    -0.504 OA
ATOM     23  H   UNL     1      61.151  82.277  76.079  1.00  0.00     0.293 HD
ENDBRANCH  19  22
ENDBRANCH  13  14
ENDBRANCH  12  13
ENDBRANCH  10  12
ENDBRANCH   1  10
TORSDOF 12
ENDMDL
MODEL 5
REMARK VINA RESULT:    -5.442     32.442     35.284
REMARK INTER + INTRA:         -10.295
REMARK INTER:                  -8.887
REMARK INTRA:                  -1.408
REMARK UNBOUND:                -1.353
REMARK SMILES CCCCC[C@H](O)CC(=O)CCc1ccc(O)c(OC)c1
REMARK SMILES IDX 8 1 6 2 7 3 5 5 4 6 3 7 2 8 1 9 9 10 10 11 11 12 12 13 13 14
REMARK SMILES IDX 21 15 14 16 18 17 15 18 16 19 19 20 20 21 17 22
REMARK H PARENT 7 4 17 23
REMARK Flexibility Score: inf
ROOT
ATOM      1  C   UNL     1      93.437  95.609  79.390  1.00  0.00     0.107 C 
ENDROOT
BRANCH   1   2
ATOM      2  C   UNL     1      94.415  94.686  80.122  1.00  0.00     0.121 C 
BRANCH   2   3
ATOM      3  O   UNL     1      94.152  93.329  79.772  1.00  0.00    -0.393 OA
ATOM      4  H   UNL     1      93.216  93.149  79.964  1.00  0.00     0.210 HD
ENDBRANCH   2   3
BRANCH   2   5
ATOM      5  C   UNL     1      95.884  95.009  79.821  1.00  0.00     0.032 C 
BRANCH   5   6
ATOM      6  C   UNL     1      96.686  95.287  81.098  1.00  0.00     0.003 C 
BRANCH   6   7
ATOM      7  C   UNL     1      95.820  95.331  82.361  1.00  0.00    -0.000 C 
BRANCH   7   8
ATOM      8  C   UNL     1      95.772  96.706  83.024  1.00  0.00    -0.003 C 
ATOM      9  C   UNL     1      94.857  97.656  82.265  1.00  0.00     0.004 C 
ENDBRANCH   7   8
ENDBRANCH   6   7
ENDBRANCH   5   6
ENDBRANCH   2   5
ENDBRANCH   1   2
BRANCH   1  10
ATOM     10  C   UNL     1      92.430  94.854  78.538  1.00  0.00     0.135 C 
ATOM     11  O   UNL     1      91.648  94.051  79.046  1.00  0.00    -0.300 OA
BRANCH  10  12
ATOM     12  C   UNL     1      92.414  95.179  77.053  1.00  0.00     0.080 C 
BRANCH  12  13
ATOM     13  C   UNL     1      93.808  95.309  76.437  1.00  0.00     0.043 C 
BRANCH  13  14
ATOM     14  C   UNL     1      94.033  96.639  75.757  1.00  0.00    -0.044 A 
ATOM     15  C   UNL     1      95.284  96.946  75.221  1.00  0.00     0.054 A 
ATOM     16  C   UNL     1      92.989  97.560  75.664  1.00  0.00     0.008 A 
ATOM     17  C   UNL     1      95.490  98.174  74.593  1.00  0.00     0.160 A 
ATOM     18  C   UNL     1      93.195  98.788  75.035  1.00  0.00     0.050 A 
ATOM     19  C   UNL     1      94.446  99.095  74.500  1.00  0.00     0.157 A 
BRANCH  17  20
ATOM     20  O   UNL     1      96.717  98.464  74.074  1.00  0.00    -0.493 OA
ATOM     21  C   UNL     1      97.760  98.756  75.002  1.00  0.00     0.278 C 
ENDBRANCH  17  20
BRANCH  19  22
ATOM     22  O   UNL     1      94.636 100.297  73.889  1.00  0.00    -0.504 OA
ATOM     23  H   UNL     1      94.737 100.986  74.568  1.00  0.00     0.293 HD
ENDBRANCH  19  22
ENDBRANCH  13  14
ENDBRANCH  12  13
ENDBRANCH  10  12
ENDBRANCH   1  10
TORSDOF 12
ENDMDL
MODEL 6
REMARK VINA RESULT:    -5.407     30.653     35.123
REMARK INTER + INTRA:         -10.237
REMARK INTER:                  -9.174
REMARK INTRA:                  -1.063
REMARK UNBOUND:                -1.353
REMARK SMILES CCCCC[C@H](O)CC(=O)CCc1ccc(O)c(OC)c1
REMARK SMILES IDX 8 1 6 2 7 3 5 5 4 6 3 7 2 8 1 9 9 10 10 11 11 12 12 13 13 14
REMARK SMILES IDX 21 15 14 16 18 17 15 18 16 19 19 20 20 21 17 22
REMARK H PARENT 7 4 17 23
REMARK Flexibility Score: inf
ROOT
ATOM      1  C   UNL     1      94.799  96.248  81.170  1.00  0.00     0.107 C 
ENDROOT
BRANCH   1   2
ATOM      2  C   UNL     1      95.352  96.725  82.516  1.00  0.00     0.121 C 
BRANCH   2   3
ATOM      3  O   UNL     1      94.799  95.940  83.570  1.00  0.00    -0.393 OA
ATOM      4  H   UNL     1      95.464  95.277  83.827  1.00  0.00     0.210 HD
ENDBRANCH   2   3
BRANCH   2   5
ATOM      5  C   UNL     1      96.882  96.665  82.590  1.00  0.00     0.032 C 
BRANCH   5   6
ATOM      6  C   UNL     1      97.546  97.419  81.431  1.00  0.00     0.003 C 
BRANCH   6   7
ATOM      7  C   UNL     1      98.431  96.526  80.555  1.00  0.00    -0.000 C 
BRANCH   7   8
ATOM      8  C   UNL     1      99.849  97.064  80.370  1.00  0.00    -0.003 C 
ATOM      9  C   UNL     1      99.841  98.424  79.689  1.00  0.00     0.004 C 
ENDBRANCH   7   8
ENDBRANCH   6   7
ENDBRANCH   5   6
ENDBRANCH   2   5
ENDBRANCH   1   2
BRANCH   1  10
ATOM     10  C   UNL     1      95.071  94.777  80.901  1.00  0.00     0.135 C 
ATOM     11  O   UNL     1      95.150  93.969  81.826  1.00  0.00    -0.300 OA
BRANCH  10  12
ATOM     12  C   UNL     1      95.194  94.362  79.443  1.00  0.00     0.080 C 
BRANCH  12  13
ATOM     13  C   UNL     1      94.680  95.414  78.459  1.00  0.00     0.043 C 
BRANCH  13  14
ATOM     14  C   UNL     1      93.252  95.175  78.029  1.00  0.00    -0.044 A 
ATOM     15  C   UNL     1      92.823  93.885  77.718  1.00  0.00     0.054 A 
ATOM     16  C   UNL     1      92.361  96.246  77.945  1.00  0.00     0.008 A 
ATOM     17  C   UNL     1      91.504  93.665  77.322  1.00  0.00     0.160 A 
ATOM     18  C   UNL     1      91.041  96.026  77.549  1.00  0.00     0.050 A 
ATOM     19  C   UNL     1      90.613  94.736  77.238  1.00  0.00     0.157 A 
BRANCH  17  20
ATOM     20  O   UNL     1      91.097  92.401  77.020  1.00  0.00    -0.493 OA
ATOM     21  C   UNL     1      91.361  91.934  75.698  1.00  0.00     0.278 C 
ENDBRANCH  17  20
BRANCH  19  22
ATOM     22  O   UNL     1      89.322  94.534  76.853  1.00  0.00    -0.504 OA
ATOM     23  H   UNL     1      88.789  95.303  77.116  1.00  0.00     0.293 HD
ENDBRANCH  19  22
ENDBRANCH  13  14
ENDBRANCH  12  13
ENDBRANCH  10  12
ENDBRANCH   1  10
TORSDOF 12
ENDMDL
MODEL 7
REMARK VINA RESULT:    -5.395     31.195     35.426
REMARK INTER + INTRA:         -10.217
REMARK INTER:                  -9.088
REMARK INTRA:                  -1.128
REMARK UNBOUND:                -1.353
REMARK SMILES CCCCC[C@H](O)CC(=O)CCc1ccc(O)c(OC)c1
REMARK SMILES IDX 8 1 6 2 7 3 5 5 4 6 3 7 2 8 1 9 9 10 10 11 11 12 12 13 13 14
REMARK SMILES IDX 21 15 14 16 18 17 15 18 16 19 19 20 20 21 17 22
REMARK H PARENT 7 4 17 23
REMARK Flexibility Score: inf
ROOT
ATOM      1  C   UNL     1      93.894  95.945  78.684  1.00  0.00     0.107 C 
ENDROOT
BRANCH   1   2
ATOM      2  C   UNL     1      93.917  95.855  77.156  1.00  0.00     0.121 C 
BRANCH   2   3
ATOM      3  O   UNL     1      94.042  94.493  76.754  1.00  0.00    -0.393 OA
ATOM      4  H   UNL     1      93.174  94.198  76.428  1.00  0.00     0.210 HD
ENDBRANCH   2   3
BRANCH   2   5
ATOM      5  C   UNL     1      92.672  96.463  76.499  1.00  0.00     0.032 C 
BRANCH   5   6
ATOM      6  C   UNL     1      91.400  96.189  77.312  1.00  0.00     0.003 C 
BRANCH   6   7
ATOM      7  C   UNL     1      90.687  94.896  76.904  1.00  0.00    -0.000 C 
BRANCH   7   8
ATOM      8  C   UNL     1      89.360  94.675  77.627  1.00  0.00    -0.003 C 
ATOM      9  C   UNL     1      89.336  93.334  78.345  1.00  0.00     0.004 C 
ENDBRANCH   7   8
ENDBRANCH   6   7
ENDBRANCH   5   6
ENDBRANCH   2   5
ENDBRANCH   1   2
BRANCH   1  10
ATOM     10  C   UNL     1      93.952  94.586  79.361  1.00  0.00     0.135 C 
ATOM     11  O   UNL     1      92.943  93.888  79.467  1.00  0.00    -0.300 OA
BRANCH  10  12
ATOM     12  C   UNL     1      95.316  94.126  79.852  1.00  0.00     0.080 C 
BRANCH  12  13
ATOM     13  C   UNL     1      95.579  94.444  81.326  1.00  0.00     0.043 C 
BRANCH  13  14
ATOM     14  C   UNL     1      95.857  95.908  81.575  1.00  0.00    -0.044 A 
ATOM     15  C   UNL     1      97.027  96.489  81.086  1.00  0.00     0.054 A 
ATOM     16  C   UNL     1      94.943  96.678  82.295  1.00  0.00     0.008 A 
ATOM     17  C   UNL     1      97.282  97.841  81.316  1.00  0.00     0.160 A 
ATOM     18  C   UNL     1      95.199  98.030  82.525  1.00  0.00     0.050 A 
ATOM     19  C   UNL     1      96.368  98.611  82.036  1.00  0.00     0.157 A 
BRANCH  17  20
ATOM     20  O   UNL     1      98.428  98.397  80.833  1.00  0.00    -0.493 OA
ATOM     21  C   UNL     1      99.622  98.175  81.583  1.00  0.00     0.278 C 
ENDBRANCH  17  20
BRANCH  19  22
ATOM     22  O   UNL     1      96.607  99.932  82.267  1.00  0.00    -0.504 OA
ATOM     23  H   UNL     1      97.287 100.015  82.957  1.00  0.00     0.293 HD
ENDBRANCH  19  22
ENDBRANCH  13  14
ENDBRANCH  12  13
ENDBRANCH  10  12
ENDBRANCH   1  10
TORSDOF 12
ENDMDL
MODEL 8
REMARK VINA RESULT:    -5.277     11.795     14.625
REMARK INTER + INTRA:         -10.023
REMARK INTER:                  -8.061
REMARK INTRA:                  -1.962
REMARK UNBOUND:                -1.353
REMARK SMILES CCCCC[C@H](O)CC(=O)CCc1ccc(O)c(OC)c1
REMARK SMILES IDX 8 1 6 2 7 3 5 5 4 6 3 7 2 8 1 9 9 10 10 11 11 12 12 13 13 14
REMARK SMILES IDX 21 15 14 16 18 17 15 18 16 19 19 20 20 21 17 22
REMARK H PARENT 7 4 17 23
REMARK Flexibility Score: inf
ROOT
ATOM      1  C   UNL     1      75.000  81.283  65.684  1.00  0.00     0.107 C 
ENDROOT
BRANCH   1   2
ATOM      2  C   UNL     1      73.601  81.403  65.074  1.00  0.00     0.121 C 
BRANCH   2   3
ATOM      3  O   UNL     1      72.753  80.388  65.606  1.00  0.00    -0.393 OA
ATOM      4  H   UNL     1      71.950  80.819  65.946  1.00  0.00     0.210 HD
ENDBRANCH   2   3
BRANCH   2   5
ATOM      5  C   UNL     1      72.958  82.774  65.314  1.00  0.00     0.032 C 
BRANCH   5   6
ATOM      6  C   UNL     1      73.568  83.495  66.522  1.00  0.00     0.003 C 
BRANCH   6   7
ATOM      7  C   UNL     1      73.954  84.949  66.229  1.00  0.00    -0.000 C 
BRANCH   7   8
ATOM      8  C   UNL     1      73.945  85.845  67.466  1.00  0.00    -0.003 C 
ATOM      9  C   UNL     1      73.000  85.310  68.532  1.00  0.00     0.004 C 
ENDBRANCH   7   8
ENDBRANCH   6   7
ENDBRANCH   5   6
ENDBRANCH   2   5
ENDBRANCH   1   2
BRANCH   1  10
ATOM     10  C   UNL     1      76.097  81.786  64.760  1.00  0.00     0.135 C 
ATOM     11  O   UNL     1      76.209  81.350  63.615  1.00  0.00    -0.300 OA
BRANCH  10  12
ATOM     12  C   UNL     1      77.005  82.876  65.309  1.00  0.00     0.080 C 
BRANCH  12  13
ATOM     13  C   UNL     1      77.386  82.677  66.777  1.00  0.00     0.043 C 
BRANCH  13  14
ATOM     14  C   UNL     1      77.373  83.961  67.572  1.00  0.00    -0.044 A 
ATOM     15  C   UNL     1      76.785  83.992  68.837  1.00  0.00     0.054 A 
ATOM     16  C   UNL     1      77.948  85.115  67.041  1.00  0.00     0.008 A 
ATOM     17  C   UNL     1      76.774  85.179  69.571  1.00  0.00     0.160 A 
ATOM     18  C   UNL     1      77.937  86.302  67.775  1.00  0.00     0.050 A 
ATOM     19  C   UNL     1      77.349  86.333  69.039  1.00  0.00     0.157 A 
BRANCH  17  20
ATOM     20  O   UNL     1      76.196  85.198  70.804  1.00  0.00    -0.493 OA
ATOM     21  C   UNL     1      75.976  83.938  71.436  1.00  0.00     0.278 C 
ENDBRANCH  17  20
BRANCH  19  22
ATOM     22  O   UNL     1      77.344  87.498  69.746  1.00  0.00    -0.504 OA
ATOM     23  H   UNL     1      76.622  88.063  69.421  1.00  0.00     0.293 HD
ENDBRANCH  19  22
ENDBRANCH  13  14
ENDBRANCH  12  13
ENDBRANCH  10  12
ENDBRANCH   1  10
TORSDOF 12
ENDMDL
MODEL 9
REMARK VINA RESULT:    -5.261     11.490     14.618
REMARK INTER + INTRA:          -9.997
REMARK INTER:                  -7.896
REMARK INTRA:                  -2.102
REMARK UNBOUND:                -1.353
REMARK SMILES CCCCC[C@H](O)CC(=O)CCc1ccc(O)c(OC)c1
REMARK SMILES IDX 8 1 6 2 7 3 5 5 4 6 3 7 2 8 1 9 9 10 10 11 11 12 12 13 13 14
REMARK SMILES IDX 21 15 14 16 18 17 15 18 16 19 19 20 20 21 17 22
REMARK H PARENT 7 4 17 23
REMARK Flexibility Score: inf
ROOT
ATOM      1  C   UNL     1      76.689  86.254  66.598  1.00  0.00     0.107 C 
ENDROOT
BRANCH   1   2
ATOM      2  C   UNL     1      75.169  86.433  66.551  1.00  0.00     0.121 C 
BRANCH   2   3
ATOM      3  O   UNL     1      74.610  85.561  65.571  1.00  0.00    -0.393 OA
ATOM      4  H   UNL     1      75.096  85.699  64.739  1.00  0.00     0.210 HD
ENDBRANCH   2   3
BRANCH   2   5
ATOM      5  C   UNL     1      74.492  86.174  67.902  1.00  0.00     0.032 C 
BRANCH   5   6
ATOM      6  C   UNL     1      75.488  86.233  69.067  1.00  0.00     0.003 C 
BRANCH   6   7
ATOM      7  C   UNL     1      75.388  85.031  70.011  1.00  0.00    -0.000 C 
BRANCH   7   8
ATOM      8  C   UNL     1      76.743  84.525  70.504  1.00  0.00    -0.003 C 
ATOM      9  C   UNL     1      77.871  85.444  70.062  1.00  0.00     0.004 C 
ENDBRANCH   7   8
ENDBRANCH   6   7
ENDBRANCH   5   6
ENDBRANCH   2   5
ENDBRANCH   1   2
BRANCH   1  10
ATOM     10  C   UNL     1      77.188  85.154  65.676  1.00  0.00     0.135 C 
ATOM     11  O   UNL     1      77.125  85.276  64.453  1.00  0.00    -0.300 OA
BRANCH  10  12
ATOM     12  C   UNL     1      77.803  83.933  66.342  1.00  0.00     0.080 C 
BRANCH  12  13
ATOM     13  C   UNL     1      76.784  83.044  67.057  1.00  0.00     0.043 C 
BRANCH  13  14
ATOM     14  C   UNL     1      75.881  82.295  66.106  1.00  0.00    -0.044 A 
ATOM     15  C   UNL     1      74.522  82.165  66.390  1.00  0.00     0.054 A 
ATOM     16  C   UNL     1      76.408  81.732  64.943  1.00  0.00     0.008 A 
ATOM     17  C   UNL     1      73.689  81.473  65.510  1.00  0.00     0.160 A 
ATOM     18  C   UNL     1      75.575  81.041  64.063  1.00  0.00     0.050 A 
ATOM     19  C   UNL     1      74.216  80.911  64.347  1.00  0.00     0.157 A 
BRANCH  17  20
ATOM     20  O   UNL     1      72.363  81.353  65.798  1.00  0.00    -0.493 OA
ATOM     21  C   UNL     1      71.586  82.549  65.787  1.00  0.00     0.278 C 
ENDBRANCH  17  20
BRANCH  19  22
ATOM     22  O   UNL     1      73.412  80.234  63.480  1.00  0.00    -0.504 OA
ATOM     23  H   UNL     1      72.791  79.684  63.988  1.00  0.00     0.293 HD
ENDBRANCH  19  22
ENDBRANCH  13  14
ENDBRANCH  12  13
ENDBRANCH  10  12
ENDBRANCH   1  10
TORSDOF 12
ENDMDL
MODEL 10
REMARK VINA RESULT:    -5.195     10.664     14.540
REMARK INTER + INTRA:          -9.888
REMARK INTER:                  -8.338
REMARK INTRA:                  -1.550
REMARK UNBOUND:                -1.353
REMARK SMILES CCCCC[C@H](O)CC(=O)CCc1ccc(O)c(OC)c1
REMARK SMILES IDX 8 1 6 2 7 3 5 5 4 6 3 7 2 8 1 9 9 10 10 11 11 12 12 13 13 14
REMARK SMILES IDX 21 15 14 16 18 17 15 18 16 19 19 20 20 21 17 22
REMARK H PARENT 7 4 17 23
REMARK Flexibility Score: inf
ROOT
ATOM      1  C   UNL     1      74.346  80.556  63.050  1.00  0.00     0.107 C 
ENDROOT
BRANCH   1   2
ATOM      2  C   UNL     1      72.816  80.533  63.041  1.00  0.00     0.121 C 
BRANCH   2   3
ATOM      3  O   UNL     1      72.335  79.892  64.220  1.00  0.00    -0.393 OA
ATOM      4  H   UNL     1      71.726  79.183  63.946  1.00  0.00     0.210 HD
ENDBRANCH   2   3
BRANCH   2   5
ATOM      5  C   UNL     1      72.195  81.931  62.938  1.00  0.00     0.032 C 
BRANCH   5   6
ATOM      6  C   UNL     1      71.305  82.257  64.143  1.00  0.00     0.003 C 
BRANCH   6   7
ATOM      7  C   UNL     1      71.865  83.379  65.024  1.00  0.00    -0.000 C 
BRANCH   7   8
ATOM      8  C   UNL     1      71.930  83.018  66.507  1.00  0.00    -0.003 C 
ATOM      9  C   UNL     1      70.595  82.487  67.008  1.00  0.00     0.004 C 
ENDBRANCH   7   8
ENDBRANCH   6   7
ENDBRANCH   5   6
ENDBRANCH   2   5
ENDBRANCH   1   2
BRANCH   1  10
ATOM     10  C   UNL     1      74.924  81.228  64.286  1.00  0.00     0.135 C 
ATOM     11  O   UNL     1      74.530  80.927  65.412  1.00  0.00    -0.300 OA
BRANCH  10  12
ATOM     12  C   UNL     1      76.032  82.244  64.054  1.00  0.00     0.080 C 
BRANCH  12  13
ATOM     13  C   UNL     1      75.674  83.659  64.512  1.00  0.00     0.043 C 
BRANCH  13  14
ATOM     14  C   UNL     1      76.524  84.141  65.663  1.00  0.00    -0.044 A 
ATOM     15  C   UNL     1      76.388  85.448  66.132  1.00  0.00     0.054 A 
ATOM     16  C   UNL     1      77.446  83.279  66.258  1.00  0.00     0.008 A 
ATOM     17  C   UNL     1      77.173  85.892  67.196  1.00  0.00     0.160 A 
ATOM     18  C   UNL     1      78.231  83.723  67.322  1.00  0.00     0.050 A 
ATOM     19  C   UNL     1      78.095  85.030  67.791  1.00  0.00     0.157 A 
BRANCH  17  20
ATOM     20  O   UNL     1      77.031  87.170  67.645  1.00  0.00    -0.493 OA
ATOM     21  C   UNL     1      75.920  87.438  68.499  1.00  0.00     0.278 C 
ENDBRANCH  17  20
BRANCH  19  22
ATOM     22  O   UNL     1      78.867  85.452  68.831  1.00  0.00    -0.504 OA
ATOM     23  H   UNL     1      79.788  85.530  68.530  1.00  0.00     0.293 HD
ENDBRANCH  19  22
ENDBRANCH  13  14
ENDBRANCH  12  13
ENDBRANCH  10  12
ENDBRANCH   1  10
TORSDOF 12
ENDMDL
