MODEL 1
REMARK VINA RESULT:    -6.213      0.000      0.000
REMARK INTER + INTRA:         -12.986
REMARK INTER:                 -10.572
REMARK INTRA:                  -2.414
REMARK UNBOUND:                -2.414
REMARK SMILES C=C(C)[C@]12C[C@@H](C)[C@@]34O[C@](Cc5ccccc5)(O[C@@H]1[C@@H]3C=C(COC(=O)Cc1ccc(O)cc1)C[C@]1(O)C(=O)C(C)=C[C@@H]41)O2
REMARK SMILES IDX 23 1 22 2 21 3 20 4 9 5 8 6 10 7 6 8 18 10 44 11 19 12 5 13
REMARK SMILES IDX 7 14 4 15 11 16 12 17 13 18 17 19 14 20 16 21 15 22 2 23
REMARK SMILES IDX 3 24 1 25 35 26 36 27 43 28 38 29 42 30 39 32 40 33 41 34
REMARK SMILES IDX 37 35 24 37 25 38 26 39 27 40 28 41 29 42 34 43 30 44 33 45
REMARK SMILES IDX 31 46 32 47
REMARK H PARENT 37 36 32 48
REMARK Flexibility Score: 90.00
ROOT
ATOM      1  C   UNL     1     103.557  79.790  75.058  1.00  0.00     0.264 C 
ENDROOT
BRANCH   1   2
ATOM      2  C   UNL     1     102.452  79.816  76.089  1.00  0.00    -0.033 C 
ATOM      3  C   UNL     1     101.261  80.360  75.765  1.00  0.00    -0.015 C 
BRANCH   3   4
ATOM      4  C   UNL     1     100.030  80.575  76.632  1.00  0.00     0.078 C 
ATOM      5  O   UNL     1      98.596  78.579  76.354  1.00  0.00    -0.319 OA
ATOM      6  C   UNL     1      99.382  79.326  77.335  1.00  0.00     0.095 CG0
ATOM      7  C   UNL     1      97.796  79.383  75.467  1.00  0.00     0.289 C 
ATOM      8  C   UNL     1      98.424  79.862  78.476  1.00  0.00     0.023 C 
ATOM      9  G   UNL     1     100.478  78.322  77.799  1.00  0.00     0.000 G0
ATOM     10  O   UNL     1      98.598  80.314  74.746  1.00  0.00    -0.320 OA
ATOM     11  O   UNL     1      96.831  80.166  76.166  1.00  0.00    -0.313 OA
ATOM     12  C   UNL     1      98.910  81.243  75.797  1.00  0.00     0.170 C 
ATOM     13  C   UNL     1      97.769  81.221  78.082  1.00  0.00     0.049 C 
ATOM     14  C   UNL     1      97.329  78.883  78.935  1.00  0.00     0.011 C 
ATOM     15  C   UNL     1      97.571  81.336  76.570  1.00  0.00     0.122 C 
BRANCH   7  16
ATOM     16  C   UNL     1      97.087  78.458  74.497  1.00  0.00     0.135 C 
BRANCH  16  17
ATOM     17  C   UNL     1      97.475  78.733  73.066  1.00  0.00    -0.040 A 
ATOM     18  C   UNL     1      98.599  78.117  72.516  1.00  0.00     0.004 A 
ATOM     19  C   UNL     1      96.709  79.605  72.292  1.00  0.00     0.004 A 
ATOM     20  C   UNL     1      98.957  78.372  71.192  1.00  0.00     0.000 A 
ATOM     21  C   UNL     1      97.067  79.859  70.968  1.00  0.00     0.000 A 
ATOM     22  C   UNL     1      98.191  79.243  70.419  1.00  0.00     0.000 A 
ENDBRANCH  16  17
ENDBRANCH   7  16
BRANCH  15  23
ATOM     23  C   UNL     1      96.784  82.546  76.185  1.00  0.00    -0.046 C 
ATOM     24  C   UNL     1      96.997  83.058  74.791  1.00  0.00     0.042 C 
ATOM     25  C   UNL     1      95.936  83.141  77.036  1.00  0.00     0.010 C 
ENDBRANCH  15  23
ENDBRANCH   3   4
BRANCH   2  26
ATOM     26  C   UNL     1     102.855  79.189  77.410  1.00  0.00     0.078 C 
BRANCH  26  27
ATOM     27  C   UNL     1     101.750  78.955  78.438  1.00  0.00     0.140 C 
ATOM     28  C   UNL     1     100.492  78.323  77.809  1.00  0.00     0.086 CG0
ATOM     29  C   UNL     1     102.138  77.933  79.486  1.00  0.00     0.190 C 
ATOM     30  C   UNL     1     100.134  77.224  78.771  1.00  0.00    -0.010 C 
ATOM     31  G   UNL     1      99.388  79.315  77.338  1.00  0.00     0.000 G0
ATOM     32  O   UNL     1     103.187  77.925  80.113  1.00  0.00    -0.291 OA
ATOM     33  C   UNL     1     101.051  76.962  79.707  1.00  0.00    -0.008 C 
ATOM     34  C   UNL     1     101.074  75.914  80.749  1.00  0.00     0.048 C 
BRANCH  27  35
ATOM     35  O   UNL     1     101.486  80.128  79.191  1.00  0.00    -0.381 OA
ATOM     36  H   UNL     1     102.201  80.766  79.025  1.00  0.00     0.212 HD
ENDBRANCH  27  35
ENDBRANCH  26  27
ENDBRANCH   2  26
ENDBRANCH   1   2
BRANCH   1  37
ATOM     37  O   UNL     1     103.042  79.310  73.835  1.00  0.00    -0.461 OA
BRANCH  37  38
ATOM     38  C   UNL     1     103.437  79.985  72.703  1.00  0.00     0.310 C 
ATOM     39  O   UNL     1     104.594  80.268  72.422  1.00  0.00    -0.252 OA
BRANCH  38  40
ATOM     40  C   UNL     1     102.226  80.318  71.866  1.00  0.00     0.158 C 
BRANCH  40  41
ATOM     41  C   UNL     1     101.556  81.600  72.286  1.00  0.00    -0.037 A 
ATOM     42  C   UNL     1     102.299  82.605  72.906  1.00  0.00     0.008 A 
ATOM     43  C   UNL     1     100.193  81.783  72.057  1.00  0.00     0.008 A 
ATOM     44  C   UNL     1     101.679  83.792  73.296  1.00  0.00     0.046 A 
ATOM     45  C   UNL     1      99.572  82.971  72.446  1.00  0.00     0.046 A 
ATOM     46  C   UNL     1     100.314  83.975  73.066  1.00  0.00     0.115 A 
BRANCH  46  47
ATOM     47  O   UNL     1      99.709  85.132  73.448  1.00  0.00    -0.508 OA
ATOM     48  H   UNL     1     100.392  85.807  73.610  1.00  0.00     0.293 HD
ENDBRANCH  46  47
ENDBRANCH  40  41
ENDBRANCH  38  40
ENDBRANCH  37  38
ENDBRANCH   1  37
TORSDOF 10
ENDMDL
MODEL 2
REMARK VINA RESULT:    -6.208     18.996     23.313
REMARK INTER + INTRA:         -12.978
REMARK INTER:                 -11.958
REMARK INTRA:                  -1.020
REMARK UNBOUND:                -2.414
REMARK SMILES C=C(C)[C@]12C[C@@H](C)[C@@]34O[C@](Cc5ccccc5)(O[C@@H]1[C@@H]3C=C(COC(=O)Cc1ccc(O)cc1)C[C@]1(O)C(=O)C(C)=C[C@@H]41)O2
REMARK SMILES IDX 23 1 22 2 21 3 20 4 9 5 8 6 10 7 6 8 18 10 44 11 19 12 5 13
REMARK SMILES IDX 7 14 4 15 11 16 12 17 13 18 17 19 14 20 16 21 15 22 2 23
REMARK SMILES IDX 3 24 1 25 35 26 36 27 43 28 38 29 42 30 39 32 40 33 41 34
REMARK SMILES IDX 37 35 24 37 25 38 26 39 27 40 28 41 29 42 34 43 30 44 33 45
REMARK SMILES IDX 31 46 32 47
REMARK H PARENT 37 36 32 48
REMARK Flexibility Score: 90.00
ROOT
ATOM      1  C   UNL     1      89.563  98.927  70.188  1.00  0.00     0.264 C 
ENDROOT
BRANCH   1   2
ATOM      2  C   UNL     1      90.583  99.836  70.833  1.00  0.00    -0.033 C 
ATOM      3  C   UNL     1      91.803  99.346  71.139  1.00  0.00    -0.015 C 
BRANCH   3   4
ATOM      4  C   UNL     1      92.964 100.022  71.850  1.00  0.00     0.078 C 
ATOM      5  O   UNL     1      94.402 101.014  70.100  1.00  0.00    -0.319 OA
ATOM      6  C   UNL     1      93.547 101.348  71.237  1.00  0.00     0.095 CG0
ATOM      7  C   UNL     1      95.274  99.884  70.297  1.00  0.00     0.289 C 
ATOM      8  C   UNL     1      94.418 102.052  72.358  1.00  0.00     0.023 C 
ATOM      9  G   UNL     1      92.413 102.221  70.626  1.00  0.00     0.000 G0
ATOM     10  O   UNL     1      94.536  98.712  70.632  1.00  0.00    -0.320 OA
ATOM     11  O   UNL     1      96.187 100.085  71.374  1.00  0.00    -0.313 OA
ATOM     12  C   UNL     1      94.150  99.035  71.977  1.00  0.00     0.170 C 
ATOM     13  C   UNL     1      95.110 101.006  73.286  1.00  0.00     0.049 C 
ATOM     14  C   UNL     1      95.468 103.054  71.848  1.00  0.00     0.011 C 
ATOM     15  C   UNL     1      95.425  99.709  72.540  1.00  0.00     0.122 C 
BRANCH   7  16
ATOM     16  C   UNL     1      96.050  99.654  69.015  1.00  0.00     0.135 C 
BRANCH  16  17
ATOM     17  C   UNL     1      97.290  98.826  69.244  1.00  0.00    -0.040 A 
ATOM     18  C   UNL     1      98.531  99.448  69.367  1.00  0.00     0.004 A 
ATOM     19  C   UNL     1      97.193  97.437  69.333  1.00  0.00     0.004 A 
ATOM     20  C   UNL     1      99.678  98.681  69.580  1.00  0.00     0.000 A 
ATOM     21  C   UNL     1      98.339  96.671  69.545  1.00  0.00     0.000 A 
ATOM     22  C   UNL     1      99.581  97.293  69.668  1.00  0.00     0.000 A 
ENDBRANCH  16  17
ENDBRANCH   7  16
BRANCH  15  23
ATOM     23  C   UNL     1      96.247  98.764  73.354  1.00  0.00    -0.046 C 
ATOM     24  C   UNL     1      95.724  98.441  74.722  1.00  0.00     0.042 C 
ATOM     25  C   UNL     1      97.388  98.234  72.889  1.00  0.00     0.010 C 
ENDBRANCH  15  23
ENDBRANCH   3   4
BRANCH   2  26
ATOM     26  C   UNL     1      90.070 101.247  71.051  1.00  0.00     0.078 C 
BRANCH  26  27
ATOM     27  C   UNL     1      91.094 102.308  71.450  1.00  0.00     0.140 C 
ATOM     28  C   UNL     1      92.391 102.209  70.619  1.00  0.00     0.086 CG0
ATOM     29  C   UNL     1      90.621 103.714  71.146  1.00  0.00     0.190 C 
ATOM     30  C   UNL     1      92.667 103.635  70.230  1.00  0.00    -0.010 C 
ATOM     31  G   UNL     1      93.534 101.350  71.233  1.00  0.00     0.000 G0
ATOM     32  O   UNL     1      89.528 104.172  71.445  1.00  0.00    -0.291 OA
ATOM     33  C   UNL     1      91.681 104.499  70.487  1.00  0.00    -0.008 C 
ATOM     34  C   UNL     1      91.571 105.939  70.172  1.00  0.00     0.048 C 
BRANCH  27  35
ATOM     35  O   UNL     1      91.311 102.319  72.851  1.00  0.00    -0.381 OA
ATOM     36  H   UNL     1      92.056 102.914  73.041  1.00  0.00     0.212 HD
ENDBRANCH  27  35
ENDBRANCH  26  27
ENDBRANCH   2  26
ENDBRANCH   1   2
BRANCH   1  37
ATOM     37  O   UNL     1      89.350  99.337  68.854  1.00  0.00    -0.461 OA
BRANCH  37  38
ATOM     38  C   UNL     1      89.814  98.488  67.876  1.00  0.00     0.310 C 
ATOM     39  O   UNL     1      90.127  97.319  68.051  1.00  0.00    -0.252 OA
BRANCH  38  40
ATOM     40  C   UNL     1      89.875  99.223  66.558  1.00  0.00     0.158 C 
BRANCH  40  41
ATOM     41  C   UNL     1      88.870 100.341  66.462  1.00  0.00    -0.037 A 
ATOM     42  C   UNL     1      89.302 101.666  66.414  1.00  0.00     0.008 A 
ATOM     43  C   UNL     1      87.506 100.051  66.420  1.00  0.00     0.008 A 
ATOM     44  C   UNL     1      88.371 102.702  66.326  1.00  0.00     0.046 A 
ATOM     45  C   UNL     1      86.575 101.086  66.330  1.00  0.00     0.046 A 
ATOM     46  C   UNL     1      87.007 102.411  66.284  1.00  0.00     0.115 A 
BRANCH  46  47
ATOM     47  O   UNL     1      86.099 103.421  66.198  1.00  0.00    -0.508 OA
ATOM     48  H   UNL     1      86.160 103.825  65.315  1.00  0.00     0.293 HD
ENDBRANCH  46  47
ENDBRANCH  40  41
ENDBRANCH  38  40
ENDBRANCH  37  38
ENDBRANCH   1  37
TORSDOF 10
ENDMDL
MODEL 3
REMARK VINA RESULT:    -6.136      9.015     12.088
REMARK INTER + INTRA:         -12.855
REMARK INTER:                 -12.411
REMARK INTRA:                  -0.444
REMARK UNBOUND:                -2.414
REMARK SMILES C=C(C)[C@]12C[C@@H](C)[C@@]34O[C@](Cc5ccccc5)(O[C@@H]1[C@@H]3C=C(COC(=O)Cc1ccc(O)cc1)C[C@]1(O)C(=O)C(C)=C[C@@H]41)O2
REMARK SMILES IDX 23 1 22 2 21 3 20 4 9 5 8 6 10 7 6 8 18 10 44 11 19 12 5 13
REMARK SMILES IDX 7 14 4 15 11 16 12 17 13 18 17 19 14 20 16 21 15 22 2 23
REMARK SMILES IDX 3 24 1 25 35 26 36 27 43 28 38 29 42 30 39 32 40 33 41 34
REMARK SMILES IDX 37 35 24 37 25 38 26 39 27 40 28 41 29 42 34 43 30 44 33 45
REMARK SMILES IDX 31 46 32 47
REMARK H PARENT 37 36 32 48
REMARK Flexibility Score: 90.00
ROOT
ATOM      1  C   UNL     1      96.022  81.622  83.385  1.00  0.00     0.264 C 
ENDROOT
BRANCH   1   2
ATOM      2  C   UNL     1      94.894  82.036  84.301  1.00  0.00    -0.033 C 
ATOM      3  C   UNL     1      93.745  81.328  84.292  1.00  0.00    -0.015 C 
BRANCH   3   4
ATOM      4  C   UNL     1      92.451  81.578  85.051  1.00  0.00     0.078 C 
ATOM      5  O   UNL     1      92.585  80.281  87.152  1.00  0.00    -0.319 OA
ATOM      6  C   UNL     1      92.505  81.641  86.621  1.00  0.00     0.095 CG0
ATOM      7  C   UNL     1      91.723  79.319  86.513  1.00  0.00     0.289 C 
ATOM      8  C   UNL     1      91.162  82.319  87.120  1.00  0.00     0.023 C 
ATOM      9  G   UNL     1      93.818  82.323  87.104  1.00  0.00     0.000 G0
ATOM     10  O   UNL     1      91.980  79.244  85.113  1.00  0.00    -0.320 OA
ATOM     11  O   UNL     1      90.345  79.661  86.634  1.00  0.00    -0.313 OA
ATOM     12  C   UNL     1      91.410  80.492  84.686  1.00  0.00     0.170 C 
ATOM     13  C   UNL     1      89.963  81.967  86.188  1.00  0.00     0.049 C 
ATOM     14  C   UNL     1      90.776  82.025  88.580  1.00  0.00     0.011 C 
ATOM     15  C   UNL     1      90.128  80.587  85.549  1.00  0.00     0.122 C 
BRANCH   7  16
ATOM     16  C   UNL     1      91.966  77.966  87.152  1.00  0.00     0.135 C 
BRANCH  16  17
ATOM     17  C   UNL     1      91.287  76.852  86.394  1.00  0.00    -0.040 A 
ATOM     18  C   UNL     1      90.065  76.350  86.838  1.00  0.00     0.004 A 
ATOM     19  C   UNL     1      91.884  76.325  85.249  1.00  0.00     0.004 A 
ATOM     20  C   UNL     1      89.437  75.320  86.136  1.00  0.00     0.000 A 
ATOM     21  C   UNL     1      91.257  75.295  84.548  1.00  0.00     0.000 A 
ATOM     22  C   UNL     1      90.034  74.793  84.991  1.00  0.00     0.000 A 
ENDBRANCH  16  17
ENDBRANCH   7  16
BRANCH  15  23
ATOM     23  C   UNL     1      88.911  80.154  84.798  1.00  0.00    -0.046 C 
ATOM     24  C   UNL     1      89.137  79.181  83.679  1.00  0.00     0.042 C 
ATOM     25  C   UNL     1      87.688  80.609  85.106  1.00  0.00     0.010 C 
ENDBRANCH  15  23
ENDBRANCH   3   4
BRANCH   2  26
ATOM     26  C   UNL     1      95.229  83.247  85.151  1.00  0.00     0.078 C 
BRANCH  26  27
ATOM     27  C   UNL     1      94.260  83.599  86.278  1.00  0.00     0.140 C 
ATOM     28  C   UNL     1      93.825  82.356  87.083  1.00  0.00     0.086 CG0
ATOM     29  C   UNL     1      94.898  84.468  87.341  1.00  0.00     0.190 C 
ATOM     30  C   UNL     1      93.957  82.802  88.512  1.00  0.00    -0.010 C 
ATOM     31  G   UNL     1      92.511  81.663  86.617  1.00  0.00     0.000 G0
ATOM     32  O   UNL     1      95.550  85.479  87.131  1.00  0.00    -0.291 OA
ATOM     33  C   UNL     1      94.580  83.970  88.693  1.00  0.00    -0.008 C 
ATOM     34  C   UNL     1      94.954  84.667  89.941  1.00  0.00     0.048 C 
BRANCH  27  35
ATOM     35  O   UNL     1      93.178  84.382  85.804  1.00  0.00    -0.381 OA
ATOM     36  H   UNL     1      92.488  83.783  85.472  1.00  0.00     0.212 HD
ENDBRANCH  27  35
ENDBRANCH  26  27
ENDBRANCH   2  26
ENDBRANCH   1   2
BRANCH   1  37
ATOM     37  O   UNL     1      95.704  80.387  82.780  1.00  0.00    -0.461 OA
BRANCH  37  38
ATOM     38  C   UNL     1      96.702  79.798  82.039  1.00  0.00     0.310 C 
ATOM     39  O   UNL     1      96.758  78.610  81.755  1.00  0.00    -0.252 OA
BRANCH  38  40
ATOM     40  C   UNL     1      97.713  80.844  81.634  1.00  0.00     0.158 C 
BRANCH  40  41
ATOM     41  C   UNL     1      97.673  81.161  80.162  1.00  0.00    -0.037 A 
ATOM     42  C   UNL     1      96.727  82.060  79.667  1.00  0.00     0.008 A 
ATOM     43  C   UNL     1      98.580  80.557  79.292  1.00  0.00     0.008 A 
ATOM     44  C   UNL     1      96.689  82.353  78.303  1.00  0.00     0.046 A 
ATOM     45  C   UNL     1      98.543  80.850  77.929  1.00  0.00     0.046 A 
ATOM     46  C   UNL     1      97.597  81.748  77.434  1.00  0.00     0.115 A 
BRANCH  46  47
ATOM     47  O   UNL     1      97.560  82.033  76.105  1.00  0.00    -0.508 OA
ATOM     48  H   UNL     1      98.300  81.581  75.663  1.00  0.00     0.293 HD
ENDBRANCH  46  47
ENDBRANCH  40  41
ENDBRANCH  38  40
ENDBRANCH  37  38
ENDBRANCH   1  37
TORSDOF 10
ENDMDL
MODEL 4
REMARK VINA RESULT:    -5.847     10.025     13.389
REMARK INTER + INTRA:         -12.363
REMARK INTER:                 -11.928
REMARK INTRA:                  -0.435
REMARK UNBOUND:                -2.414
REMARK SMILES C=C(C)[C@]12C[C@@H](C)[C@@]34O[C@](Cc5ccccc5)(O[C@@H]1[C@@H]3C=C(COC(=O)Cc1ccc(O)cc1)C[C@]1(O)C(=O)C(C)=C[C@@H]41)O2
REMARK SMILES IDX 23 1 22 2 21 3 20 4 9 5 8 6 10 7 6 8 18 10 44 11 19 12 5 13
REMARK SMILES IDX 7 14 4 15 11 16 12 17 13 18 17 19 14 20 16 21 15 22 2 23
REMARK SMILES IDX 3 24 1 25 35 26 36 27 43 28 38 29 42 30 39 32 40 33 41 34
REMARK SMILES IDX 37 35 24 37 25 38 26 39 27 40 28 41 29 42 34 43 30 44 33 45
REMARK SMILES IDX 31 46 32 47
REMARK H PARENT 37 36 32 48
REMARK Flexibility Score: 90.00
ROOT
ATOM      1  C   UNL     1      95.946  81.159  85.715  1.00  0.00     0.264 C 
ENDROOT
BRANCH   1   2
ATOM      2  C   UNL     1      94.493  81.456  86.007  1.00  0.00    -0.033 C 
ATOM      3  C   UNL     1      93.552  80.561  85.642  1.00  0.00    -0.015 C 
BRANCH   3   4
ATOM      4  C   UNL     1      92.038  80.654  85.750  1.00  0.00     0.078 C 
ATOM      5  O   UNL     1      91.405  79.616  87.903  1.00  0.00    -0.319 OA
ATOM      6  C   UNL     1      91.402  80.881  87.171  1.00  0.00     0.095 CG0
ATOM      7  C   UNL     1      91.021  78.459  87.135  1.00  0.00     0.289 C 
ATOM      8  C   UNL     1      89.907  81.358  86.956  1.00  0.00     0.023 C 
ATOM      9  G   UNL     1      92.290  81.828  88.030  1.00  0.00     0.000 G0
ATOM     10  O   UNL     1      91.862  78.292  85.997  1.00  0.00    -0.320 OA
ATOM     11  O   UNL     1      89.695  78.564  86.623  1.00  0.00    -0.313 OA
ATOM     12  C   UNL     1      91.390  79.371  85.175  1.00  0.00     0.170 C 
ATOM     13  C   UNL     1      89.276  80.711  85.686  1.00  0.00     0.049 C 
ATOM     14  C   UNL     1      88.967  81.148  88.156  1.00  0.00     0.011 C 
ATOM     15  C   UNL     1      89.860  79.325  85.408  1.00  0.00     0.122 C 
BRANCH   7  16
ATOM     16  C   UNL     1      91.121  77.240  88.030  1.00  0.00     0.135 C 
BRANCH  16  17
ATOM     17  C   UNL     1      90.060  76.216  87.714  1.00  0.00    -0.040 A 
ATOM     18  C   UNL     1      90.380  75.093  86.951  1.00  0.00     0.004 A 
ATOM     19  C   UNL     1      88.759  76.393  88.184  1.00  0.00     0.004 A 
ATOM     20  C   UNL     1      89.398  74.146  86.659  1.00  0.00     0.000 A 
ATOM     21  C   UNL     1      87.777  75.446  87.891  1.00  0.00     0.000 A 
ATOM     22  C   UNL     1      88.097  74.323  87.129  1.00  0.00     0.000 A 
ENDBRANCH  16  17
ENDBRANCH   7  16
BRANCH  15  23
ATOM     23  C   UNL     1      89.145  78.612  84.306  1.00  0.00    -0.046 C 
ATOM     24  C   UNL     1      88.770  77.185  84.576  1.00  0.00     0.042 C 
ATOM     25  C   UNL     1      88.857  79.212  83.143  1.00  0.00     0.010 C 
ENDBRANCH  15  23
ENDBRANCH   3   4
BRANCH   2  26
ATOM     26  C   UNL     1      94.286  82.783  86.712  1.00  0.00     0.078 C 
BRANCH  26  27
ATOM     27  C   UNL     1      92.892  83.068  87.267  1.00  0.00     0.140 C 
ATOM     28  C   UNL     1      92.307  81.859  88.027  1.00  0.00     0.086 CG0
ATOM     29  C   UNL     1      92.900  84.147  88.330  1.00  0.00     0.190 C 
ATOM     30  C   UNL     1      91.756  82.470  89.285  1.00  0.00    -0.010 C 
ATOM     31  G   UNL     1      91.416  80.892  87.194  1.00  0.00     0.000 G0
ATOM     32  O   UNL     1      93.452  85.233  88.232  1.00  0.00    -0.291 OA
ATOM     33  C   UNL     1      92.095  83.745  89.498  1.00  0.00    -0.008 C 
ATOM     34  C   UNL     1      91.808  84.626  90.649  1.00  0.00     0.048 C 
BRANCH  27  35
ATOM     35  O   UNL     1      92.032  83.586  86.266  1.00  0.00    -0.381 OA
ATOM     36  H   UNL     1      91.137  83.239  86.421  1.00  0.00     0.212 HD
ENDBRANCH  27  35
ENDBRANCH  26  27
ENDBRANCH   2  26
ENDBRANCH   1   2
BRANCH   1  37
ATOM     37  O   UNL     1      96.102  80.900  84.336  1.00  0.00    -0.461 OA
BRANCH  37  38
ATOM     38  C   UNL     1      96.967  81.726  83.657  1.00  0.00     0.310 C 
ATOM     39  O   UNL     1      98.080  82.051  84.047  1.00  0.00    -0.252 OA
BRANCH  38  40
ATOM     40  C   UNL     1      96.331  82.165  82.360  1.00  0.00     0.158 C 
BRANCH  40  41
ATOM     41  C   UNL     1      96.835  81.396  81.167  1.00  0.00    -0.037 A 
ATOM     42  C   UNL     1      97.059  80.023  81.266  1.00  0.00     0.008 A 
ATOM     43  C   UNL     1      97.080  82.056  79.964  1.00  0.00     0.008 A 
ATOM     44  C   UNL     1      97.528  79.310  80.162  1.00  0.00     0.046 A 
ATOM     45  C   UNL     1      97.548  81.344  78.859  1.00  0.00     0.046 A 
ATOM     46  C   UNL     1      97.772  79.972  78.958  1.00  0.00     0.115 A 
BRANCH  46  47
ATOM     47  O   UNL     1      98.229  79.277  77.881  1.00  0.00    -0.508 OA
ATOM     48  H   UNL     1      97.587  78.581  77.658  1.00  0.00     0.293 HD
ENDBRANCH  46  47
ENDBRANCH  40  41
ENDBRANCH  38  40
ENDBRANCH  37  38
ENDBRANCH   1  37
TORSDOF 10
ENDMDL
MODEL 5
REMARK VINA RESULT:    -5.357     34.722     38.577
REMARK INTER + INTRA:         -11.530
REMARK INTER:                  -8.652
REMARK INTRA:                  -2.878
REMARK UNBOUND:                -2.414
REMARK SMILES C=C(C)[C@]12C[C@@H](C)[C@@]34O[C@](Cc5ccccc5)(O[C@@H]1[C@@H]3C=C(COC(=O)Cc1ccc(O)cc1)C[C@]1(O)C(=O)C(C)=C[C@@H]41)O2
REMARK SMILES IDX 23 1 22 2 21 3 20 4 9 5 8 6 10 7 6 8 18 10 44 11 19 12 5 13
REMARK SMILES IDX 7 14 4 15 11 16 12 17 13 18 17 19 14 20 16 21 15 22 2 23
REMARK SMILES IDX 3 24 1 25 35 26 36 27 43 28 38 29 42 30 39 32 40 33 41 34
REMARK SMILES IDX 37 35 24 37 25 38 26 39 27 40 28 41 29 42 34 43 30 44 33 45
REMARK SMILES IDX 31 46 32 47
REMARK H PARENT 37 36 32 48
REMARK Flexibility Score: 90.00
ROOT
ATOM      1  C   UNL     1      64.386  88.607  69.900  1.00  0.00     0.264 C 
ENDROOT
BRANCH   1   2
ATOM      2  C   UNL     1      63.934  87.382  70.662  1.00  0.00    -0.033 C 
ATOM      3  C   UNL     1      63.102  87.530  71.714  1.00  0.00    -0.015 C 
BRANCH   3   4
ATOM      4  C   UNL     1      62.569  86.482  72.678  1.00  0.00     0.078 C 
ATOM      5  O   UNL     1      60.385  85.733  71.792  1.00  0.00    -0.319 OA
ATOM      6  C   UNL     1      61.741  85.279  72.092  1.00  0.00     0.095 CG0
ATOM      7  C   UNL     1      59.786  86.583  72.789  1.00  0.00     0.289 C 
ATOM      8  C   UNL     1      61.682  84.152  73.204  1.00  0.00     0.023 C 
ATOM      9  G   UNL     1      62.314  84.831  70.716  1.00  0.00     0.000 G0
ATOM     10  O   UNL     1      60.578  87.743  73.025  1.00  0.00    -0.320 OA
ATOM     11  O   UNL     1      59.666  85.935  74.053  1.00  0.00    -0.313 OA
ATOM     12  C   UNL     1      61.674  87.156  73.746  1.00  0.00     0.170 C 
ATOM     13  C   UNL     1      61.653  84.764  74.638  1.00  0.00     0.049 C 
ATOM     14  C   UNL     1      60.533  83.139  73.059  1.00  0.00     0.011 C 
ATOM     15  C   UNL     1      60.962  86.128  74.658  1.00  0.00     0.122 C 
BRANCH   7  16
ATOM     16  C   UNL     1      58.410  86.992  72.300  1.00  0.00     0.135 C 
BRANCH  16  17
ATOM     17  C   UNL     1      57.497  87.380  73.436  1.00  0.00    -0.040 A 
ATOM     18  C   UNL     1      57.597  88.647  74.010  1.00  0.00     0.004 A 
ATOM     19  C   UNL     1      56.553  86.471  73.912  1.00  0.00     0.004 A 
ATOM     20  C   UNL     1      56.752  89.006  75.060  1.00  0.00     0.000 A 
ATOM     21  C   UNL     1      55.708  86.830  74.962  1.00  0.00     0.000 A 
ATOM     22  C   UNL     1      55.808  88.097  75.536  1.00  0.00     0.000 A 
ENDBRANCH  16  17
ENDBRANCH   7  16
BRANCH  15  23
ATOM     23  C   UNL     1      60.761  86.649  76.043  1.00  0.00    -0.046 C 
ATOM     24  C   UNL     1      59.509  86.208  76.742  1.00  0.00     0.042 C 
ATOM     25  C   UNL     1      61.649  87.466  76.629  1.00  0.00     0.010 C 
ENDBRANCH  15  23
ENDBRANCH   3   4
BRANCH   2  26
ATOM     26  C   UNL     1      64.501  86.091  70.104  1.00  0.00     0.078 C 
BRANCH  26  27
ATOM     27  C   UNL     1      63.880  84.785  70.596  1.00  0.00     0.140 C 
ATOM     28  C   UNL     1      62.343  84.873  70.700  1.00  0.00     0.086 CG0
ATOM     29  C   UNL     1      64.074  83.646  69.618  1.00  0.00     0.190 C 
ATOM     30  C   UNL     1      61.875  83.597  70.057  1.00  0.00    -0.010 C 
ATOM     31  G   UNL     1      61.772  85.282  72.089  1.00  0.00     0.000 G0
ATOM     32  O   UNL     1      65.134  83.336  69.093  1.00  0.00    -0.291 OA
ATOM     33  C   UNL     1      62.818  82.899  69.417  1.00  0.00    -0.008 C 
ATOM     34  C   UNL     1      62.707  81.663  68.617  1.00  0.00     0.048 C 
BRANCH  27  35
ATOM     35  O   UNL     1      64.509  84.326  71.781  1.00  0.00    -0.381 OA
ATOM     36  H   UNL     1      65.380  84.751  71.850  1.00  0.00     0.212 HD
ENDBRANCH  27  35
ENDBRANCH  26  27
ENDBRANCH   2  26
ENDBRANCH   1   2
BRANCH   1  37
ATOM     37  O   UNL     1      65.166  89.422  70.749  1.00  0.00    -0.461 OA
BRANCH  37  38
ATOM     38  C   UNL     1      66.524  89.202  70.721  1.00  0.00     0.310 C 
ATOM     39  O   UNL     1      67.168  88.907  69.724  1.00  0.00    -0.252 OA
BRANCH  38  40
ATOM     40  C   UNL     1      67.092  89.381  72.109  1.00  0.00     0.158 C 
BRANCH  40  41
ATOM     41  C   UNL     1      66.478  88.448  73.120  1.00  0.00    -0.037 A 
ATOM     42  C   UNL     1      66.733  87.078  73.049  1.00  0.00     0.008 A 
ATOM     43  C   UNL     1      65.656  88.952  74.126  1.00  0.00     0.008 A 
ATOM     44  C   UNL     1      66.164  86.213  73.985  1.00  0.00     0.046 A 
ATOM     45  C   UNL     1      65.087  88.088  75.063  1.00  0.00     0.046 A 
ATOM     46  C   UNL     1      65.341  86.719  74.992  1.00  0.00     0.115 A 
BRANCH  46  47
ATOM     47  O   UNL     1      64.786  85.876  75.904  1.00  0.00    -0.508 OA
ATOM     48  H   UNL     1      65.415  85.742  76.634  1.00  0.00     0.293 HD
ENDBRANCH  46  47
ENDBRANCH  40  41
ENDBRANCH  38  40
ENDBRANCH  37  38
ENDBRANCH   1  37
TORSDOF 10
ENDMDL
MODEL 6
REMARK VINA RESULT:    -4.922     18.939     22.800
REMARK INTER + INTRA:         -10.790
REMARK INTER:                 -10.256
REMARK INTRA:                  -0.534
REMARK UNBOUND:                -2.414
REMARK SMILES C=C(C)[C@]12C[C@@H](C)[C@@]34O[C@](Cc5ccccc5)(O[C@@H]1[C@@H]3C=C(COC(=O)Cc1ccc(O)cc1)C[C@]1(O)C(=O)C(C)=C[C@@H]41)O2
REMARK SMILES IDX 23 1 22 2 21 3 20 4 9 5 8 6 10 7 6 8 18 10 44 11 19 12 5 13
REMARK SMILES IDX 7 14 4 15 11 16 12 17 13 18 17 19 14 20 16 21 15 22 2 23
REMARK SMILES IDX 3 24 1 25 35 26 36 27 43 28 38 29 42 30 39 32 40 33 41 34
REMARK SMILES IDX 37 35 24 37 25 38 26 39 27 40 28 41 29 42 34 43 30 44 33 45
REMARK SMILES IDX 31 46 32 47
REMARK H PARENT 37 36 32 48
REMARK Flexibility Score: 90.00
ROOT
ATOM      1  C   UNL     1      94.272  92.886  89.788  1.00  0.00     0.264 C 
ENDROOT
BRANCH   1   2
ATOM      2  C   UNL     1      94.249  94.336  90.213  1.00  0.00    -0.033 C 
ATOM      3  C   UNL     1      95.289  95.133  89.892  1.00  0.00    -0.015 C 
BRANCH   3   4
ATOM      4  C   UNL     1      95.541  96.586  90.262  1.00  0.00     0.078 C 
ATOM      5  O   UNL     1      94.609  97.966  88.433  1.00  0.00    -0.319 OA
ATOM      6  C   UNL     1      94.465  97.659  89.855  1.00  0.00     0.095 CG0
ATOM      7  C   UNL     1      95.965  98.117  87.971  1.00  0.00     0.289 C 
ATOM      8  C   UNL     1      94.747  98.966  90.704  1.00  0.00     0.023 C 
ATOM      9  G   UNL     1      93.027  97.076  89.982  1.00  0.00     0.000 G0
ATOM     10  O   UNL     1      96.734  96.946  88.232  1.00  0.00    -0.320 OA
ATOM     11  O   UNL     1      96.648  99.181  88.630  1.00  0.00    -0.313 OA
ATOM     12  C   UNL     1      96.886  97.057  89.656  1.00  0.00     0.170 C 
ATOM     13  C   UNL     1      96.270  99.153  90.979  1.00  0.00     0.049 C 
ATOM     14  C   UNL     1      94.170 100.269  90.124  1.00  0.00     0.011 C 
ATOM     15  C   UNL     1      97.124  98.575  89.849  1.00  0.00     0.122 C 
BRANCH   7  16
ATOM     16  C   UNL     1      95.931  98.386  86.480  1.00  0.00     0.135 C 
BRANCH  16  17
ATOM     17  C   UNL     1      95.906  99.863  86.171  1.00  0.00    -0.040 A 
ATOM     18  C   UNL     1      97.054 100.497  85.699  1.00  0.00     0.004 A 
ATOM     19  C   UNL     1      94.733 100.593  86.359  1.00  0.00     0.004 A 
ATOM     20  C   UNL     1      97.030 101.862  85.414  1.00  0.00     0.000 A 
ATOM     21  C   UNL     1      94.709 101.959  86.074  1.00  0.00     0.000 A 
ATOM     22  C   UNL     1      95.857 102.593  85.601  1.00  0.00     0.000 A 
ENDBRANCH  16  17
ENDBRANCH   7  16
BRANCH  15  23
ATOM     23  C   UNL     1      98.574  98.901  90.002  1.00  0.00    -0.046 C 
ATOM     24  C   UNL     1      99.289  98.227  91.135  1.00  0.00     0.042 C 
ATOM     25  C   UNL     1      99.201  99.748  89.172  1.00  0.00     0.010 C 
ENDBRANCH  15  23
ENDBRANCH   3   4
BRANCH   2  26
ATOM     26  C   UNL     1      92.992  94.713  90.974  1.00  0.00     0.078 C 
BRANCH  26  27
ATOM     27  C   UNL     1      92.758  96.199  91.241  1.00  0.00     0.140 C 
ATOM     28  C   UNL     1      93.033  97.067  89.996  1.00  0.00     0.086 CG0
ATOM     29  C   UNL     1      91.308  96.513  91.542  1.00  0.00     0.190 C 
ATOM     30  C   UNL     1      91.851  97.993  89.946  1.00  0.00    -0.010 C 
ATOM     31  G   UNL     1      94.470  97.654  89.873  1.00  0.00     0.000 G0
ATOM     32  O   UNL     1      90.605  95.913  92.341  1.00  0.00    -0.291 OA
ATOM     33  C   UNL     1      90.853  97.693  90.782  1.00  0.00    -0.008 C 
ATOM     34  C   UNL     1      89.526  98.322  90.946  1.00  0.00     0.048 C 
BRANCH  27  35
ATOM     35  O   UNL     1      93.446  96.631  92.403  1.00  0.00    -0.381 OA
ATOM     36  H   UNL     1      92.892  96.435  93.178  1.00  0.00     0.212 HD
ENDBRANCH  27  35
ENDBRANCH  26  27
ENDBRANCH   2  26
ENDBRANCH   1   2
BRANCH   1  37
ATOM     37  O   UNL     1      93.545  92.114  90.720  1.00  0.00    -0.461 OA
BRANCH  37  38
ATOM     38  C   UNL     1      94.077  90.886  91.038  1.00  0.00     0.310 C 
ATOM     39  O   UNL     1      95.020  90.702  91.794  1.00  0.00    -0.252 OA
BRANCH  38  40
ATOM     40  C   UNL     1      93.316  89.804  90.309  1.00  0.00     0.158 C 
BRANCH  40  41
ATOM     41  C   UNL     1      94.217  88.821  89.608  1.00  0.00    -0.037 A 
ATOM     42  C   UNL     1      95.133  89.270  88.657  1.00  0.00     0.008 A 
ATOM     43  C   UNL     1      94.136  87.462  89.910  1.00  0.00     0.008 A 
ATOM     44  C   UNL     1      95.968  88.360  88.007  1.00  0.00     0.046 A 
ATOM     45  C   UNL     1      94.971  86.551  89.261  1.00  0.00     0.046 A 
ATOM     46  C   UNL     1      95.886  87.000  88.310  1.00  0.00     0.115 A 
BRANCH  46  47
ATOM     47  O   UNL     1      96.699  86.113  87.676  1.00  0.00    -0.508 OA
ATOM     48  H   UNL     1      96.217  85.721  86.927  1.00  0.00     0.293 HD
ENDBRANCH  46  47
ENDBRANCH  40  41
ENDBRANCH  38  40
ENDBRANCH  37  38
ENDBRANCH   1  37
TORSDOF 10
ENDMDL
MODEL 7
REMARK VINA RESULT:    -4.834     35.360     39.386
REMARK INTER + INTRA:         -10.640
REMARK INTER:                  -9.073
REMARK INTRA:                  -1.567
REMARK UNBOUND:                -2.414
REMARK SMILES C=C(C)[C@]12C[C@@H](C)[C@@]34O[C@](Cc5ccccc5)(O[C@@H]1[C@@H]3C=C(COC(=O)Cc1ccc(O)cc1)C[C@]1(O)C(=O)C(C)=C[C@@H]41)O2
REMARK SMILES IDX 23 1 22 2 21 3 20 4 9 5 8 6 10 7 6 8 18 10 44 11 19 12 5 13
REMARK SMILES IDX 7 14 4 15 11 16 12 17 13 18 17 19 14 20 16 21 15 22 2 23
REMARK SMILES IDX 3 24 1 25 35 26 36 27 43 28 38 29 42 30 39 32 40 33 41 34
REMARK SMILES IDX 37 35 24 37 25 38 26 39 27 40 28 41 29 42 34 43 30 44 33 45
REMARK SMILES IDX 31 46 32 47
REMARK H PARENT 37 36 32 48
REMARK Flexibility Score: 90.00
ROOT
ATOM      1  C   UNL     1      60.355  88.891  70.621  1.00  0.00     0.264 C 
ENDROOT
BRANCH   1   2
ATOM      2  C   UNL     1      60.688  87.796  71.608  1.00  0.00    -0.033 C 
ATOM      3  C   UNL     1      61.467  86.768  71.213  1.00  0.00    -0.015 C 
BRANCH   3   4
ATOM      4  C   UNL     1      61.879  85.521  71.978  1.00  0.00     0.078 C 
ATOM      5  O   UNL     1      64.057  86.015  73.041  1.00  0.00    -0.319 OA
ATOM      6  C   UNL     1      62.660  85.697  73.332  1.00  0.00     0.095 CG0
ATOM      7  C   UNL     1      64.654  85.248  71.977  1.00  0.00     0.289 C 
ATOM      8  C   UNL     1      62.588  84.320  74.111  1.00  0.00     0.023 C 
ATOM      9  G   UNL     1      62.136  86.936  74.115  1.00  0.00     0.000 G0
ATOM     10  O   UNL     1      63.924  85.392  70.762  1.00  0.00    -0.320 OA
ATOM     11  O   UNL     1      64.664  83.850  72.257  1.00  0.00    -0.313 OA
ATOM     12  C   UNL     1      62.756  84.617  71.077  1.00  0.00     0.170 C 
ATOM     13  C   UNL     1      62.578  83.108  73.129  1.00  0.00     0.049 C 
ATOM     14  C   UNL     1      63.677  84.104  75.176  1.00  0.00     0.011 C 
ATOM     15  C   UNL     1      63.352  83.412  71.846  1.00  0.00     0.122 C 
BRANCH   7  16
ATOM     16  C   UNL     1      66.076  85.734  71.782  1.00  0.00     0.135 C 
BRANCH  16  17
ATOM     17  C   UNL     1      66.188  87.231  71.922  1.00  0.00    -0.040 A 
ATOM     18  C   UNL     1      65.848  88.059  70.852  1.00  0.00     0.004 A 
ATOM     19  C   UNL     1      66.630  87.788  73.122  1.00  0.00     0.004 A 
ATOM     20  C   UNL     1      65.951  89.445  70.982  1.00  0.00     0.000 A 
ATOM     21  C   UNL     1      66.732  89.173  73.251  1.00  0.00     0.000 A 
ATOM     22  C   UNL     1      66.393  90.001  72.182  1.00  0.00     0.000 A 
ENDBRANCH  16  17
ENDBRANCH   7  16
BRANCH  15  23
ATOM     23  C   UNL     1      63.510  82.211  70.972  1.00  0.00    -0.046 C 
ATOM     24  C   UNL     1      62.271  81.732  70.275  1.00  0.00     0.042 C 
ATOM     25  C   UNL     1      64.691  81.594  70.820  1.00  0.00     0.010 C 
ENDBRANCH  15  23
ENDBRANCH   3   4
BRANCH   2  26
ATOM     26  C   UNL     1      60.074  88.021  72.977  1.00  0.00     0.078 C 
BRANCH  26  27
ATOM     27  C   UNL     1      60.566  87.132  74.117  1.00  0.00     0.140 C 
ATOM     28  C   UNL     1      62.099  86.955  74.099  1.00  0.00     0.086 CG0
ATOM     29  C   UNL     1      60.326  87.749  75.479  1.00  0.00     0.190 C 
ATOM     30  C   UNL     1      62.492  87.168  75.534  1.00  0.00    -0.010 C 
ATOM     31  G   UNL     1      62.636  85.709  73.337  1.00  0.00     0.000 G0
ATOM     32  O   UNL     1      59.270  88.232  75.861  1.00  0.00    -0.291 OA
ATOM     33  C   UNL     1      61.527  87.641  76.328  1.00  0.00    -0.008 C 
ATOM     34  C   UNL     1      61.574  88.040  77.750  1.00  0.00     0.048 C 
BRANCH  27  35
ATOM     35  O   UNL     1      59.849  85.910  74.168  1.00  0.00    -0.381 OA
ATOM     36  H   UNL     1      58.898  86.112  74.161  1.00  0.00     0.212 HD
ENDBRANCH  27  35
ENDBRANCH  26  27
ENDBRANCH   2  26
ENDBRANCH   1   2
BRANCH   1  37
ATOM     37  O   UNL     1      59.394  89.756  71.190  1.00  0.00    -0.461 OA
BRANCH  37  38
ATOM     38  C   UNL     1      58.283  90.018  70.422  1.00  0.00     0.310 C 
ATOM     39  O   UNL     1      58.304  90.486  69.293  1.00  0.00    -0.252 OA
BRANCH  38  40
ATOM     40  C   UNL     1      57.040  89.638  71.190  1.00  0.00     0.158 C 
BRANCH  40  41
ATOM     41  C   UNL     1      56.963  88.164  71.492  1.00  0.00    -0.037 A 
ATOM     42  C   UNL     1      56.763  87.730  72.803  1.00  0.00     0.008 A 
ATOM     43  C   UNL     1      57.092  87.233  70.462  1.00  0.00     0.008 A 
ATOM     44  C   UNL     1      56.693  86.365  73.083  1.00  0.00     0.046 A 
ATOM     45  C   UNL     1      57.022  85.867  70.741  1.00  0.00     0.046 A 
ATOM     46  C   UNL     1      56.822  85.434  72.051  1.00  0.00     0.115 A 
BRANCH  46  47
ATOM     47  O   UNL     1      56.754  84.102  72.325  1.00  0.00    -0.508 OA
ATOM     48  H   UNL     1      56.808  83.975  73.288  1.00  0.00     0.293 HD
ENDBRANCH  46  47
ENDBRANCH  40  41
ENDBRANCH  38  40
ENDBRANCH  37  38
ENDBRANCH   1  37
TORSDOF 10
ENDMDL
MODEL 8
REMARK VINA RESULT:    -4.783     36.344     40.377
REMARK INTER + INTRA:         -10.552
REMARK INTER:                  -9.933
REMARK INTRA:                  -0.619
REMARK UNBOUND:                -2.414
REMARK SMILES C=C(C)[C@]12C[C@@H](C)[C@@]34O[C@](Cc5ccccc5)(O[C@@H]1[C@@H]3C=C(COC(=O)Cc1ccc(O)cc1)C[C@]1(O)C(=O)C(C)=C[C@@H]41)O2
REMARK SMILES IDX 23 1 22 2 21 3 20 4 9 5 8 6 10 7 6 8 18 10 44 11 19 12 5 13
REMARK SMILES IDX 7 14 4 15 11 16 12 17 13 18 17 19 14 20 16 21 15 22 2 23
REMARK SMILES IDX 3 24 1 25 35 26 36 27 43 28 38 29 42 30 39 32 40 33 41 34
REMARK SMILES IDX 37 35 24 37 25 38 26 39 27 40 28 41 29 42 34 43 30 44 33 45
REMARK SMILES IDX 31 46 32 47
REMARK H PARENT 37 36 32 48
REMARK Flexibility Score: 90.00
ROOT
ATOM      1  C   UNL     1      58.063  87.845  74.320  1.00  0.00     0.264 C 
ENDROOT
BRANCH   1   2
ATOM      2  C   UNL     1      59.481  87.364  74.523  1.00  0.00    -0.033 C 
ATOM      3  C   UNL     1      59.902  86.261  73.869  1.00  0.00    -0.015 C 
BRANCH   3   4
ATOM      4  C   UNL     1      61.237  85.537  73.958  1.00  0.00     0.078 C 
ATOM      5  O   UNL     1      62.676  86.458  72.169  1.00  0.00    -0.319 OA
ATOM      6  C   UNL     1      62.547  86.339  73.621  1.00  0.00     0.095 CG0
ATOM      7  C   UNL     1      62.369  85.263  71.425  1.00  0.00     0.289 C 
ATOM      8  C   UNL     1      63.774  85.514  74.190  1.00  0.00     0.023 C 
ATOM      9  G   UNL     1      62.440  87.809  74.122  1.00  0.00     0.000 G0
ATOM     10  O   UNL     1      61.046  84.808  71.698  1.00  0.00    -0.320 OA
ATOM     11  O   UNL     1      63.227  84.177  71.765  1.00  0.00    -0.313 OA
ATOM     12  C   UNL     1      61.226  84.298  73.029  1.00  0.00     0.170 C 
ATOM     13  C   UNL     1      63.513  83.979  74.119  1.00  0.00     0.049 C 
ATOM     14  C   UNL     1      65.137  85.829  73.549  1.00  0.00     0.011 C 
ATOM     15  C   UNL     1      62.610  83.611  72.940  1.00  0.00     0.122 C 
BRANCH   7  16
ATOM     16  C   UNL     1      62.510  85.574  69.948  1.00  0.00     0.135 C 
BRANCH  16  17
ATOM     17  C   UNL     1      62.751  84.332  69.128  1.00  0.00    -0.040 A 
ATOM     18  C   UNL     1      61.706  83.442  68.885  1.00  0.00     0.004 A 
ATOM     19  C   UNL     1      64.021  84.074  68.613  1.00  0.00     0.004 A 
ATOM     20  C   UNL     1      61.929  82.293  68.126  1.00  0.00     0.000 A 
ATOM     21  C   UNL     1      64.245  82.924  67.854  1.00  0.00     0.000 A 
ATOM     22  C   UNL     1      63.199  82.035  67.611  1.00  0.00     0.000 A 
ENDBRANCH  16  17
ENDBRANCH   7  16
BRANCH  15  23
ATOM     23  C   UNL     1      62.493  82.135  72.746  1.00  0.00    -0.046 C 
ATOM     24  C   UNL     1      62.176  81.329  73.970  1.00  0.00     0.042 C 
ATOM     25  C   UNL     1      62.662  81.562  71.545  1.00  0.00     0.010 C 
ENDBRANCH  15  23
ENDBRANCH   3   4
BRANCH   2  26
ATOM     26  C   UNL     1      60.276  88.236  75.476  1.00  0.00     0.078 C 
BRANCH  26  27
ATOM     27  C   UNL     1      61.786  88.014  75.530  1.00  0.00     0.140 C 
ATOM     28  C   UNL     1      62.399  87.821  74.128  1.00  0.00     0.086 CG0
ATOM     29  C   UNL     1      62.532  89.226  76.047  1.00  0.00     0.190 C 
ATOM     30  C   UNL     1      63.614  88.706  74.151  1.00  0.00    -0.010 C 
ATOM     31  G   UNL     1      62.534  86.351  73.635  1.00  0.00     0.000 G0
ATOM     32  O   UNL     1      62.249  89.856  77.055  1.00  0.00    -0.291 OA
ATOM     33  C   UNL     1      63.703  89.527  75.202  1.00  0.00    -0.008 C 
ATOM     34  C   UNL     1      64.700  90.574  75.509  1.00  0.00     0.048 C 
BRANCH  27  35
ATOM     35  O   UNL     1      62.128  86.990  76.450  1.00  0.00    -0.381 OA
ATOM     36  H   UNL     1      61.409  86.910  77.100  1.00  0.00     0.212 HD
ENDBRANCH  27  35
ENDBRANCH  26  27
ENDBRANCH   2  26
ENDBRANCH   1   2
BRANCH   1  37
ATOM     37  O   UNL     1      57.211  87.185  75.231  1.00  0.00    -0.461 OA
BRANCH  37  38
ATOM     38  C   UNL     1      55.872  87.486  75.138  1.00  0.00     0.310 C 
ATOM     39  O   UNL     1      54.973  86.665  75.029  1.00  0.00    -0.252 OA
BRANCH  38  40
ATOM     40  C   UNL     1      55.688  88.984  75.193  1.00  0.00     0.158 C 
BRANCH  40  41
ATOM     41  C   UNL     1      55.324  89.481  76.568  1.00  0.00    -0.037 A 
ATOM     42  C   UNL     1      54.084  90.084  76.786  1.00  0.00     0.008 A 
ATOM     43  C   UNL     1      56.225  89.341  77.623  1.00  0.00     0.008 A 
ATOM     44  C   UNL     1      53.747  90.545  78.059  1.00  0.00     0.046 A 
ATOM     45  C   UNL     1      55.888  89.801  78.896  1.00  0.00     0.046 A 
ATOM     46  C   UNL     1      54.650  90.404  79.114  1.00  0.00     0.115 A 
BRANCH  46  47
ATOM     47  O   UNL     1      54.321  90.854  80.355  1.00  0.00    -0.508 OA
ATOM     48  H   UNL     1      55.136  90.987  80.869  1.00  0.00     0.293 HD
ENDBRANCH  46  47
ENDBRANCH  40  41
ENDBRANCH  38  40
ENDBRANCH  37  38
ENDBRANCH   1  37
TORSDOF 10
ENDMDL
MODEL 9
REMARK VINA RESULT:    -4.418     35.190     39.251
REMARK INTER + INTRA:          -9.931
REMARK INTER:                  -9.537
REMARK INTRA:                  -0.394
REMARK UNBOUND:                -2.414
REMARK SMILES C=C(C)[C@]12C[C@@H](C)[C@@]34O[C@](Cc5ccccc5)(O[C@@H]1[C@@H]3C=C(COC(=O)Cc1ccc(O)cc1)C[C@]1(O)C(=O)C(C)=C[C@@H]41)O2
REMARK SMILES IDX 23 1 22 2 21 3 20 4 9 5 8 6 10 7 6 8 18 10 44 11 19 12 5 13
REMARK SMILES IDX 7 14 4 15 11 16 12 17 13 18 17 19 14 20 16 21 15 22 2 23
REMARK SMILES IDX 3 24 1 25 35 26 36 27 43 28 38 29 42 30 39 32 40 33 41 34
REMARK SMILES IDX 37 35 24 37 25 38 26 39 27 40 28 41 29 42 34 43 30 44 33 45
REMARK SMILES IDX 31 46 32 47
REMARK H PARENT 37 36 32 48
REMARK Flexibility Score: 90.00
ROOT
ATOM      1  C   UNL     1      59.063  85.689  71.380  1.00  0.00     0.264 C 
ENDROOT
BRANCH   1   2
ATOM      2  C   UNL     1      60.469  85.643  70.828  1.00  0.00    -0.033 C 
ATOM      3  C   UNL     1      61.426  86.406  71.397  1.00  0.00    -0.015 C 
BRANCH   3   4
ATOM      4  C   UNL     1      62.878  86.596  70.988  1.00  0.00     0.078 C 
ATOM      5  O   UNL     1      64.208  84.953  72.271  1.00  0.00    -0.319 OA
ATOM      6  C   UNL     1      63.807  85.329  70.917  1.00  0.00     0.095 CG0
ATOM      7  C   UNL     1      64.574  86.049  73.131  1.00  0.00     0.289 C 
ATOM      8  C   UNL     1      65.094  85.724  70.081  1.00  0.00     0.023 C 
ATOM      9  G   UNL     1      63.020  84.094  70.388  1.00  0.00     0.000 G0
ATOM     10  O   UNL     1      63.513  86.991  73.250  1.00  0.00    -0.320 OA
ATOM     11  O   UNL     1      65.688  86.784  72.628  1.00  0.00    -0.313 OA
ATOM     12  C   UNL     1      63.567  87.596  71.948  1.00  0.00     0.170 C 
ATOM     13  C   UNL     1      65.480  87.219  70.298  1.00  0.00     0.049 C 
ATOM     14  C   UNL     1      66.331  84.839  70.312  1.00  0.00     0.011 C 
ATOM     15  C   UNL     1      65.091  87.707  71.695  1.00  0.00     0.122 C 
BRANCH   7  16
ATOM     16  C   UNL     1      64.916  85.486  74.497  1.00  0.00     0.135 C 
BRANCH  16  17
ATOM     17  C   UNL     1      65.476  86.541  75.419  1.00  0.00    -0.040 A 
ATOM     18  C   UNL     1      66.828  86.874  75.360  1.00  0.00     0.004 A 
ATOM     19  C   UNL     1      64.638  87.182  76.332  1.00  0.00     0.004 A 
ATOM     20  C   UNL     1      67.345  87.850  76.213  1.00  0.00     0.000 A 
ATOM     21  C   UNL     1      65.155  88.158  77.185  1.00  0.00     0.000 A 
ATOM     22  C   UNL     1      66.508  88.491  77.126  1.00  0.00     0.000 A 
ENDBRANCH  16  17
ENDBRANCH   7  16
BRANCH  15  23
ATOM     23  C   UNL     1      65.611  89.076  71.990  1.00  0.00    -0.046 C 
ATOM     24  C   UNL     1      65.170  89.686  73.287  1.00  0.00     0.042 C 
ATOM     25  C   UNL     1      66.425  89.723  71.143  1.00  0.00     0.010 C 
ENDBRANCH  15  23
ENDBRANCH   3   4
BRANCH   2  26
ATOM     26  C   UNL     1      60.618  84.692  69.656  1.00  0.00     0.078 C 
BRANCH  26  27
ATOM     27  C   UNL     1      62.038  84.367  69.196  1.00  0.00     0.140 C 
ATOM     28  C   UNL     1      62.987  84.093  70.381  1.00  0.00     0.086 CG0
ATOM     29  C   UNL     1      62.113  83.074  68.413  1.00  0.00     0.190 C 
ATOM     30  C   UNL     1      63.722  82.851  69.960  1.00  0.00    -0.010 C 
ATOM     31  G   UNL     1      63.792  85.315  70.911  1.00  0.00     0.000 G0
ATOM     32  O   UNL     1      61.380  82.764  67.485  1.00  0.00    -0.291 OA
ATOM     33  C   UNL     1      63.238  82.240  68.874  1.00  0.00    -0.008 C 
ATOM     34  C   UNL     1      63.650  80.974  68.232  1.00  0.00     0.048 C 
BRANCH  27  35
ATOM     35  O   UNL     1      62.523  85.341  68.287  1.00  0.00    -0.381 OA
ATOM     36  H   UNL     1      61.867  85.453  67.578  1.00  0.00     0.212 HD
ENDBRANCH  27  35
ENDBRANCH  26  27
ENDBRANCH   2  26
ENDBRANCH   1   2
BRANCH   1  37
ATOM     37  O   UNL     1      58.791  86.990  71.856  1.00  0.00    -0.461 OA
BRANCH  37  38
ATOM     38  C   UNL     1      57.535  87.195  72.380  1.00  0.00     0.310 C 
ATOM     39  O   UNL     1      56.781  86.311  72.761  1.00  0.00    -0.252 OA
BRANCH  38  40
ATOM     40  C   UNL     1      57.238  88.675  72.412  1.00  0.00     0.158 C 
BRANCH  40  41
ATOM     41  C   UNL     1      56.380  89.126  71.259  1.00  0.00    -0.037 A 
ATOM     42  C   UNL     1      56.347  88.382  70.080  1.00  0.00     0.008 A 
ATOM     43  C   UNL     1      55.618  90.289  71.369  1.00  0.00     0.008 A 
ATOM     44  C   UNL     1      55.554  88.800  69.011  1.00  0.00     0.046 A 
ATOM     45  C   UNL     1      54.824  90.708  70.302  1.00  0.00     0.046 A 
ATOM     46  C   UNL     1      54.792  89.964  69.123  1.00  0.00     0.115 A 
BRANCH  46  47
ATOM     47  O   UNL     1      54.018  90.372  68.081  1.00  0.00    -0.508 OA
ATOM     48  H   UNL     1      53.434  91.090  68.383  1.00  0.00     0.293 HD
ENDBRANCH  46  47
ENDBRANCH  40  41
ENDBRANCH  38  40
ENDBRANCH  37  38
ENDBRANCH   1  37
TORSDOF 10
ENDMDL
MODEL 10
REMARK VINA RESULT:    -4.351      2.301      3.794
REMARK INTER + INTRA:          -9.817
REMARK INTER:                  -8.769
REMARK INTRA:                  -1.048
REMARK UNBOUND:                -2.414
REMARK SMILES C=C(C)[C@]12C[C@@H](C)[C@@]34O[C@](Cc5ccccc5)(O[C@@H]1[C@@H]3C=C(COC(=O)Cc1ccc(O)cc1)C[C@]1(O)C(=O)C(C)=C[C@@H]41)O2
REMARK SMILES IDX 23 1 22 2 21 3 20 4 9 5 8 6 10 7 6 8 18 10 44 11 19 12 5 13
REMARK SMILES IDX 7 14 4 15 11 16 12 17 13 18 17 19 14 20 16 21 15 22 2 23
REMARK SMILES IDX 3 24 1 25 35 26 36 27 43 28 38 29 42 30 39 32 40 33 41 34
REMARK SMILES IDX 37 35 24 37 25 38 26 39 27 40 28 41 29 42 34 43 30 44 33 45
REMARK SMILES IDX 31 46 32 47
REMARK H PARENT 37 36 32 48
REMARK Flexibility Score: 90.00
ROOT
ATOM      1  C   UNL     1     100.411  78.508  73.287  1.00  0.00     0.264 C 
ENDROOT
BRANCH   1   2
ATOM      2  C   UNL     1     100.738  78.839  74.725  1.00  0.00    -0.033 C 
ATOM      3  C   UNL     1      99.750  79.243  75.550  1.00  0.00    -0.015 C 
BRANCH   3   4
ATOM      4  C   UNL     1      99.827  79.702  76.997  1.00  0.00     0.078 C 
ATOM      5  O   UNL     1      99.448  77.706  78.407  1.00  0.00    -0.319 OA
ATOM      6  C   UNL     1     100.442  78.720  78.061  1.00  0.00     0.095 CG0
ATOM      7  C   UNL     1      98.106  78.197  78.592  1.00  0.00     0.289 C 
ATOM      8  C   UNL     1     100.793  79.570  79.352  1.00  0.00     0.023 C 
ATOM      9  G   UNL     1     101.624  77.912  77.451  1.00  0.00     0.000 G0
ATOM     10  O   UNL     1      97.637  78.872  77.428  1.00  0.00    -0.320 OA
ATOM     11  O   UNL     1      98.018  79.148  79.650  1.00  0.00    -0.313 OA
ATOM     12  C   UNL     1      98.414  80.077  77.506  1.00  0.00     0.170 C 
ATOM     13  C   UNL     1      99.783  80.741  79.557  1.00  0.00     0.049 C 
ATOM     14  C   UNL     1     100.916  78.768  80.659  1.00  0.00     0.011 C 
ATOM     15  C   UNL     1      98.394  80.391  79.022  1.00  0.00     0.122 C 
BRANCH   7  16
ATOM     16  C   UNL     1      97.206  77.016  78.898  1.00  0.00     0.135 C 
BRANCH  16  17
ATOM     17  C   UNL     1      96.999  76.134  77.692  1.00  0.00    -0.040 A 
ATOM     18  C   UNL     1      95.757  75.544  77.465  1.00  0.00     0.004 A 
ATOM     19  C   UNL     1      98.052  75.909  76.805  1.00  0.00     0.004 A 
ATOM     20  C   UNL     1      95.565  74.728  76.349  1.00  0.00     0.000 A 
ATOM     21  C   UNL     1      97.860  75.093  75.690  1.00  0.00     0.000 A 
ATOM     22  C   UNL     1      96.618  74.503  75.462  1.00  0.00     0.000 A 
ENDBRANCH  16  17
ENDBRANCH   7  16
BRANCH  15  23
ATOM     23  C   UNL     1      97.369  81.421  79.369  1.00  0.00    -0.046 C 
ATOM     24  C   UNL     1      96.928  82.319  78.251  1.00  0.00     0.042 C 
ATOM     25  C   UNL     1      96.872  81.538  80.609  1.00  0.00     0.010 C 
ENDBRANCH  15  23
ENDBRANCH   3   4
BRANCH   2  26
ATOM     26  C   UNL     1     102.207  78.655  75.060  1.00  0.00     0.078 C 
BRANCH  26  27
ATOM     27  C   UNL     1     102.601  78.725  76.534  1.00  0.00     0.140 C 
ATOM     28  C   UNL     1     101.642  77.916  77.433  1.00  0.00     0.086 CG0
ATOM     29  C   UNL     1     103.936  78.067  76.809  1.00  0.00     0.190 C 
ATOM     30  C   UNL     1     102.570  77.150  78.334  1.00  0.00    -0.010 C 
ATOM     31  G   UNL     1     100.455  78.707  78.055  1.00  0.00     0.000 G0
ATOM     32  O   UNL     1     104.964  78.261  76.177  1.00  0.00    -0.291 OA
ATOM     33  C   UNL     1     103.862  77.192  77.994  1.00  0.00    -0.008 C 
ATOM     34  C   UNL     1     105.026  76.504  78.590  1.00  0.00     0.048 C 
BRANCH  27  35
ATOM     35  O   UNL     1     102.789  80.064  76.957  1.00  0.00    -0.381 OA
ATOM     36  H   UNL     1     103.603  80.404  76.547  1.00  0.00     0.212 HD
ENDBRANCH  27  35
ENDBRANCH  26  27
ENDBRANCH   2  26
ENDBRANCH   1   2
BRANCH   1  37
ATOM     37  O   UNL     1     100.941  79.510  72.446  1.00  0.00    -0.461 OA
BRANCH  37  38
ATOM     38  C   UNL     1     100.165  79.872  71.369  1.00  0.00     0.310 C 
ATOM     39  O   UNL     1     100.595  80.212  70.276  1.00  0.00    -0.252 OA
BRANCH  38  40
ATOM     40  C   UNL     1      98.706  79.783  71.747  1.00  0.00     0.158 C 
BRANCH  40  41
ATOM     41  C   UNL     1      98.262  80.907  72.646  1.00  0.00    -0.037 A 
ATOM     42  C   UNL     1      97.069  80.799  73.362  1.00  0.00     0.008 A 
ATOM     43  C   UNL     1      99.042  82.057  72.763  1.00  0.00     0.008 A 
ATOM     44  C   UNL     1      96.658  81.841  74.194  1.00  0.00     0.046 A 
ATOM     45  C   UNL     1      98.632  83.099  73.595  1.00  0.00     0.046 A 
ATOM     46  C   UNL     1      97.439  82.991  74.310  1.00  0.00     0.115 A 
BRANCH  46  47
ATOM     47  O   UNL     1      97.037  84.007  75.121  1.00  0.00    -0.508 OA
ATOM     48  H   UNL     1      97.209  84.854  74.674  1.00  0.00     0.293 HD
ENDBRANCH  46  47
ENDBRANCH  40  41
ENDBRANCH  38  40
ENDBRANCH  37  38
ENDBRANCH   1  37
TORSDOF 10
ENDMDL
