MODEL 1
REMARK VINA RESULT:    -8.076      0.000      0.000
REMARK INTER + INTRA:          -9.888
REMARK INTER:                  -9.492
REMARK INTRA:                  -0.396
REMARK UNBOUND:                -0.396
REMARK SMILES O=C(/C=C/C=C/c1ccc2c(c1)OCO2)N1CCCCC1
REMARK SMILES IDX 3 1 4 2 2 3 1 4 16 5 17 6 21 7 18 8 20 9 19 10 5 11 6 12
REMARK SMILES IDX 7 13 12 14 8 15 11 16 9 17 13 18 10 19 14 20 15 21
REMARK H PARENT
REMARK Flexibility Score: inf
ROOT
ATOM      1  C   UNL     1      90.982  91.744  75.980  1.00  0.00     0.071 C 
ATOM      2  C   UNL     1      90.935  92.590  77.008  1.00  0.00     0.006 C 
ENDROOT
BRANCH   1   3
ATOM      3  C   UNL     1      89.716  91.141  75.519  1.00  0.00     0.246 C 
ATOM      4  O   UNL     1      88.776  91.113  76.314  1.00  0.00    -0.270 OA
ATOM      5  N   UNL     1      89.671  90.639  74.219  1.00  0.00    -0.339 N 
ATOM      6  C   UNL     1      88.429  90.029  73.734  1.00  0.00     0.120 C 
ATOM      7  C   UNL     1      90.784  90.613  73.259  1.00  0.00     0.120 C 
ATOM      8  C   UNL     1      87.982  90.649  72.415  1.00  0.00     0.022 C 
ATOM      9  C   UNL     1      90.374  91.225  71.919  1.00  0.00     0.022 C 
ATOM     10  C   UNL     1      89.098  90.588  71.376  1.00  0.00     0.004 C 
ENDBRANCH   1   3
BRANCH   2  11
ATOM     11  C   UNL     1      92.122  93.231  77.532  1.00  0.00     0.001 C 
ATOM     12  C   UNL     1      93.170  93.561  76.760  1.00  0.00     0.008 C 
BRANCH  12  13
ATOM     13  C   UNL     1      94.403  94.206  77.242  1.00  0.00    -0.022 A 
ATOM     14  C   UNL     1      95.343  94.642  76.317  1.00  0.00     0.058 A 
ATOM     15  C   UNL     1      94.594  94.361  78.617  1.00  0.00     0.012 A 
ATOM     16  C   UNL     1      96.482  95.240  76.817  1.00  0.00     0.166 A 
ATOM     17  C   UNL     1      95.757  94.970  79.095  1.00  0.00     0.051 A 
ATOM     18  O   UNL     1      97.515  95.731  76.078  1.00  0.00    -0.454 OA
ATOM     19  C   UNL     1      96.683  95.400  78.169  1.00  0.00     0.165 A 
ATOM     20  C   UNL     1      98.389  96.217  77.117  1.00  0.00     0.468 C 
ATOM     21  O   UNL     1      97.868  96.010  78.446  1.00  0.00    -0.454 OA
ENDBRANCH  12  13
ENDBRANCH   2  11
TORSDOF 3
ENDMDL
MODEL 2
REMARK VINA RESULT:    -7.689      2.609      9.021
REMARK INTER + INTRA:          -9.434
REMARK INTER:                  -9.089
REMARK INTRA:                  -0.345
REMARK UNBOUND:                -0.396
REMARK SMILES O=C(/C=C/C=C/c1ccc2c(c1)OCO2)N1CCCCC1
REMARK SMILES IDX 3 1 4 2 2 3 1 4 16 5 17 6 21 7 18 8 20 9 19 10 5 11 6 12
REMARK SMILES IDX 7 13 12 14 8 15 11 16 9 17 13 18 10 19 14 20 15 21
REMARK H PARENT
REMARK Flexibility Score: inf
ROOT
ATOM      1  C   UNL     1      94.750  94.040  76.237  1.00  0.00     0.071 C 
ATOM      2  C   UNL     1      93.506  94.517  76.255  1.00  0.00     0.006 C 
ENDROOT
BRANCH   1   3
ATOM      3  C   UNL     1      95.851  94.958  76.588  1.00  0.00     0.246 C 
ATOM      4  O   UNL     1      96.379  95.590  75.671  1.00  0.00    -0.270 OA
ATOM      5  N   UNL     1      96.223  95.045  77.928  1.00  0.00    -0.339 N 
ATOM      6  C   UNL     1      97.317  95.945  78.306  1.00  0.00     0.120 C 
ATOM      7  C   UNL     1      95.648  94.276  79.041  1.00  0.00     0.120 C 
ATOM      8  C   UNL     1      96.898  96.895  79.423  1.00  0.00     0.022 C 
ATOM      9  C   UNL     1      95.217  95.194  80.185  1.00  0.00     0.022 C 
ATOM     10  C   UNL     1      96.348  96.123  80.618  1.00  0.00     0.004 C 
ENDBRANCH   1   3
BRANCH   2  11
ATOM     11  C   UNL     1      92.362  93.694  75.927  1.00  0.00     0.001 C 
ATOM     12  C   UNL     1      92.217  93.093  74.735  1.00  0.00     0.008 C 
BRANCH  12  13
ATOM     13  C   UNL     1      91.071  92.253  74.347  1.00  0.00    -0.022 A 
ATOM     14  C   UNL     1      90.171  92.733  73.405  1.00  0.00     0.058 A 
ATOM     15  C   UNL     1      90.922  90.996  74.936  1.00  0.00     0.012 A 
ATOM     16  C   UNL     1      89.114  91.910  73.073  1.00  0.00     0.166 A 
ATOM     17  C   UNL     1      89.843  90.183  74.582  1.00  0.00     0.051 A 
ATOM     18  O   UNL     1      88.130  92.198  72.178  1.00  0.00    -0.454 OA
ATOM     19  C   UNL     1      88.954  90.669  73.646  1.00  0.00     0.165 A 
ATOM     20  C   UNL     1      87.333  90.999  72.252  1.00  0.00     0.468 C 
ATOM     21  O   UNL     1      87.850  90.024  73.181  1.00  0.00    -0.454 OA
ENDBRANCH  12  13
ENDBRANCH   2  11
TORSDOF 3
ENDMDL
MODEL 3
REMARK VINA RESULT:    -7.661      1.859      2.814
REMARK INTER + INTRA:          -9.401
REMARK INTER:                  -8.982
REMARK INTRA:                  -0.419
REMARK UNBOUND:                -0.396
REMARK SMILES O=C(/C=C/C=C/c1ccc2c(c1)OCO2)N1CCCCC1
REMARK SMILES IDX 3 1 4 2 2 3 1 4 16 5 17 6 21 7 18 8 20 9 19 10 5 11 6 12
REMARK SMILES IDX 7 13 12 14 8 15 11 16 9 17 13 18 10 19 14 20 15 21
REMARK H PARENT
REMARK Flexibility Score: inf
ROOT
ATOM      1  C   UNL     1      91.536  92.663  75.597  1.00  0.00     0.071 C 
ATOM      2  C   UNL     1      92.591  93.105  74.914  1.00  0.00     0.006 C 
ENDROOT
BRANCH   1   3
ATOM      3  C   UNL     1      90.423  92.058  74.840  1.00  0.00     0.246 C 
ATOM      4  O   UNL     1      90.004  92.669  73.856  1.00  0.00    -0.270 OA
ATOM      5  N   UNL     1      89.917  90.840  75.292  1.00  0.00    -0.339 N 
ATOM      6  C   UNL     1      88.807  90.217  74.564  1.00  0.00     0.120 C 
ATOM      7  C   UNL     1      90.359  90.104  76.486  1.00  0.00     0.120 C 
ATOM      8  C   UNL     1      89.128  88.774  74.188  1.00  0.00     0.022 C 
ATOM      9  C   UNL     1      90.688  88.650  76.149  1.00  0.00     0.022 C 
ATOM     10  C   UNL     1      89.537  87.967  75.415  1.00  0.00     0.004 C 
ENDBRANCH   1   3
BRANCH   2  11
ATOM     11  C   UNL     1      93.730  93.714  75.566  1.00  0.00     0.001 C 
ATOM     12  C   UNL     1      93.831  93.822  76.901  1.00  0.00     0.008 C 
BRANCH  12  13
ATOM     13  C   UNL     1      94.962  94.438  77.615  1.00  0.00    -0.022 A 
ATOM     14  C   UNL     1      95.095  94.226  78.981  1.00  0.00     0.058 A 
ATOM     15  C   UNL     1      95.871  95.220  76.898  1.00  0.00     0.012 A 
ATOM     16  C   UNL     1      96.170  94.823  79.605  1.00  0.00     0.166 A 
ATOM     17  C   UNL     1      96.951  95.813  77.556  1.00  0.00     0.051 A 
ATOM     18  O   UNL     1      96.472  94.738  80.930  1.00  0.00    -0.454 OA
ATOM     19  C   UNL     1      97.074  95.596  78.912  1.00  0.00     0.165 A 
ATOM     20  C   UNL     1      97.667  95.543  80.992  1.00  0.00     0.468 C 
ATOM     21  O   UNL     1      98.055  96.090  79.716  1.00  0.00    -0.454 OA
ENDBRANCH  12  13
ENDBRANCH   2  11
TORSDOF 3
ENDMDL
MODEL 4
REMARK VINA RESULT:    -7.380      2.565      4.051
REMARK INTER + INTRA:          -9.071
REMARK INTER:                  -8.683
REMARK INTRA:                  -0.388
REMARK UNBOUND:                -0.396
REMARK SMILES O=C(/C=C/C=C/c1ccc2c(c1)OCO2)N1CCCCC1
REMARK SMILES IDX 3 1 4 2 2 3 1 4 16 5 17 6 21 7 18 8 20 9 19 10 5 11 6 12
REMARK SMILES IDX 7 13 12 14 8 15 11 16 9 17 13 18 10 19 14 20 15 21
REMARK H PARENT
REMARK Flexibility Score: inf
ROOT
ATOM      1  C   UNL     1      93.208  93.726  76.798  1.00  0.00     0.071 C 
ATOM      2  C   UNL     1      94.492  94.004  76.579  1.00  0.00     0.006 C 
ENDROOT
BRANCH   1   3
ATOM      3  C   UNL     1      92.416  93.174  75.681  1.00  0.00     0.246 C 
ATOM      4  O   UNL     1      92.934  93.169  74.564  1.00  0.00    -0.270 OA
ATOM      5  N   UNL     1      91.135  92.702  75.964  1.00  0.00    -0.339 N 
ATOM      6  C   UNL     1      90.323  92.153  74.874  1.00  0.00     0.120 C 
ATOM      7  C   UNL     1      90.467  92.732  77.273  1.00  0.00     0.120 C 
ATOM      8  C   UNL     1      89.799  90.762  75.215  1.00  0.00     0.022 C 
ATOM      9  C   UNL     1      89.924  91.354  77.650  1.00  0.00     0.022 C 
ATOM     10  C   UNL     1      89.050  90.770  76.544  1.00  0.00     0.004 C 
ENDBRANCH   1   3
BRANCH   2  11
ATOM     11  C   UNL     1      95.349  94.547  77.611  1.00  0.00     0.001 C 
ATOM     12  C   UNL     1      94.995  94.583  78.905  1.00  0.00     0.008 C 
BRANCH  12  13
ATOM     13  C   UNL     1      95.823  95.131  79.993  1.00  0.00    -0.022 A 
ATOM     14  C   UNL     1      97.177  95.338  79.772  1.00  0.00     0.058 A 
ATOM     15  C   UNL     1      95.221  95.427  81.219  1.00  0.00     0.012 A 
ATOM     16  C   UNL     1      97.911  95.853  80.820  1.00  0.00     0.166 A 
ATOM     17  C   UNL     1      95.988  95.948  82.263  1.00  0.00     0.051 A 
ATOM     18  O   UNL     1      99.245  96.125  80.803  1.00  0.00    -0.454 OA
ATOM     19  C   UNL     1      97.333  96.150  82.033  1.00  0.00     0.165 A 
ATOM     20  C   UNL     1      99.441  96.627  82.141  1.00  0.00     0.468 C 
ATOM     21  O   UNL     1      98.231  96.645  82.927  1.00  0.00    -0.454 OA
ENDBRANCH  12  13
ENDBRANCH   2  11
TORSDOF 3
ENDMDL
MODEL 5
REMARK VINA RESULT:    -7.300      3.414      8.601
REMARK INTER + INTRA:          -8.976
REMARK INTER:                  -8.632
REMARK INTRA:                  -0.344
REMARK UNBOUND:                -0.396
REMARK SMILES O=C(/C=C/C=C/c1ccc2c(c1)OCO2)N1CCCCC1
REMARK SMILES IDX 3 1 4 2 2 3 1 4 16 5 17 6 21 7 18 8 20 9 19 10 5 11 6 12
REMARK SMILES IDX 7 13 12 14 8 15 11 16 9 17 13 18 10 19 14 20 15 21
REMARK H PARENT
REMARK Flexibility Score: inf
ROOT
ATOM      1  C   UNL     1      95.758  95.804  74.935  1.00  0.00     0.071 C 
ATOM      2  C   UNL     1      95.548  94.581  75.421  1.00  0.00     0.006 C 
ENDROOT
BRANCH   1   3
ATOM      3  C   UNL     1      97.111  96.380  75.066  1.00  0.00     0.246 C 
ATOM      4  O   UNL     1      97.595  96.444  76.197  1.00  0.00    -0.270 OA
ATOM      5  N   UNL     1      97.746  96.819  73.905  1.00  0.00    -0.339 N 
ATOM      6  C   UNL     1      99.088  97.401  74.004  1.00  0.00     0.120 C 
ATOM      7  C   UNL     1      97.182  96.801  72.547  1.00  0.00     0.120 C 
ATOM      8  C   UNL     1     100.064  96.716  73.054  1.00  0.00     0.022 C 
ATOM      9  C   UNL     1      98.135  96.124  71.562  1.00  0.00     0.022 C 
ATOM     10  C   UNL     1      99.534  96.731  71.623  1.00  0.00     0.004 C 
ENDBRANCH   1   3
BRANCH   2  11
ATOM     11  C   UNL     1      94.257  93.933  75.340  1.00  0.00     0.001 C 
ATOM     12  C   UNL     1      93.567  93.549  76.426  1.00  0.00     0.008 C 
BRANCH  12  13
ATOM     13  C   UNL     1      92.256  92.879  76.401  1.00  0.00    -0.022 A 
ATOM     14  C   UNL     1      91.826  92.280  75.224  1.00  0.00     0.058 A 
ATOM     15  C   UNL     1      91.480  92.864  77.562  1.00  0.00     0.012 A 
ATOM     16  C   UNL     1      90.591  91.665  75.250  1.00  0.00     0.166 A 
ATOM     17  C   UNL     1      90.234  92.234  77.560  1.00  0.00     0.051 A 
ATOM     18  O   UNL     1      89.996  91.026  74.205  1.00  0.00    -0.454 OA
ATOM     19  C   UNL     1      89.816  91.642  76.387  1.00  0.00     0.165 A 
ATOM     20  C   UNL     1      88.759  90.600  74.813  1.00  0.00     0.468 C 
ATOM     21  O   UNL     1      88.638  90.987  76.197  1.00  0.00    -0.454 OA
ENDBRANCH  12  13
ENDBRANCH   2  11
TORSDOF 3
ENDMDL
MODEL 6
REMARK VINA RESULT:    -7.038      4.267      8.147
REMARK INTER + INTRA:          -8.668
REMARK INTER:                  -8.297
REMARK INTRA:                  -0.371
REMARK UNBOUND:                -0.396
REMARK SMILES O=C(/C=C/C=C/c1ccc2c(c1)OCO2)N1CCCCC1
REMARK SMILES IDX 3 1 4 2 2 3 1 4 16 5 17 6 21 7 18 8 20 9 19 10 5 11 6 12
REMARK SMILES IDX 7 13 12 14 8 15 11 16 9 17 13 18 10 19 14 20 15 21
REMARK H PARENT
REMARK Flexibility Score: inf
ROOT
ATOM      1  C   UNL     1      94.283  96.632  74.342  1.00  0.00     0.071 C 
ATOM      2  C   UNL     1      94.683  95.757  75.262  1.00  0.00     0.006 C 
ENDROOT
BRANCH   1   3
ATOM      3  C   UNL     1      95.171  97.771  74.033  1.00  0.00     0.246 C 
ATOM      4  O   UNL     1      96.031  98.063  74.865  1.00  0.00    -0.270 OA
ATOM      5  N   UNL     1      94.975  98.439  72.826  1.00  0.00    -0.339 N 
ATOM      6  C   UNL     1      95.838  99.577  72.494  1.00  0.00     0.120 C 
ATOM      7  C   UNL     1      93.932  98.148  71.831  1.00  0.00     0.120 C 
ATOM      8  C   UNL     1      96.475  99.411  71.119  1.00  0.00     0.022 C 
ATOM      9  C   UNL     1      94.532  97.977  70.435  1.00  0.00     0.022 C 
ATOM     10  C   UNL     1      95.414  99.162  70.051  1.00  0.00     0.004 C 
ENDBRANCH   1   3
BRANCH   2  11
ATOM     11  C   UNL     1      93.882  94.610  75.633  1.00  0.00     0.001 C 
ATOM     12  C   UNL     1      92.540  94.614  75.580  1.00  0.00     0.008 C 
BRANCH  12  13
ATOM     13  C   UNL     1      91.677  93.480  75.953  1.00  0.00    -0.022 A 
ATOM     14  C   UNL     1      91.933  92.229  75.409  1.00  0.00     0.058 A 
ATOM     15  C   UNL     1      90.623  93.695  76.845  1.00  0.00     0.012 A 
ATOM     16  C   UNL     1      91.098  91.198  75.788  1.00  0.00     0.166 A 
ATOM     17  C   UNL     1      89.793  92.633  77.212  1.00  0.00     0.051 A 
ATOM     18  O   UNL     1      91.183  89.906  75.367  1.00  0.00    -0.454 OA
ATOM     19  C   UNL     1      90.057  91.394  76.666  1.00  0.00     0.165 A 
ATOM     20  C   UNL     1      90.078  89.312  76.078  1.00  0.00     0.468 C 
ATOM     21  O   UNL     1      89.359  90.250  76.904  1.00  0.00    -0.454 OA
ENDBRANCH  12  13
ENDBRANCH   2  11
TORSDOF 3
ENDMDL
MODEL 7
REMARK VINA RESULT:    -7.034      2.971      9.268
REMARK INTER + INTRA:          -8.663
REMARK INTER:                  -8.270
REMARK INTRA:                  -0.394
REMARK UNBOUND:                -0.396
REMARK SMILES O=C(/C=C/C=C/c1ccc2c(c1)OCO2)N1CCCCC1
REMARK SMILES IDX 3 1 4 2 2 3 1 4 16 5 17 6 21 7 18 8 20 9 19 10 5 11 6 12
REMARK SMILES IDX 7 13 12 14 8 15 11 16 9 17 13 18 10 19 14 20 15 21
REMARK H PARENT
REMARK Flexibility Score: inf
ROOT
ATOM      1  C   UNL     1      95.585  94.933  77.979  1.00  0.00     0.071 C 
ATOM      2  C   UNL     1      95.558  94.809  76.653  1.00  0.00     0.006 C 
ENDROOT
BRANCH   1   3
ATOM      3  C   UNL     1      96.621  95.800  78.574  1.00  0.00     0.246 C 
ATOM      4  O   UNL     1      97.240  96.550  77.817  1.00  0.00    -0.270 OA
ATOM      5  N   UNL     1      96.834  95.708  79.949  1.00  0.00    -0.339 N 
ATOM      6  C   UNL     1      97.860  96.553  80.568  1.00  0.00     0.120 C 
ATOM      7  C   UNL     1      96.149  94.795  80.875  1.00  0.00     0.120 C 
ATOM      8  C   UNL     1      97.296  97.343  81.743  1.00  0.00     0.022 C 
ATOM      9  C   UNL     1      95.571  95.551  82.072  1.00  0.00     0.022 C 
ATOM     10  C   UNL     1      96.626  96.418  82.754  1.00  0.00     0.004 C 
ENDBRANCH   1   3
BRANCH   2  11
ATOM     11  C   UNL     1      94.580  93.982  75.978  1.00  0.00     0.001 C 
ATOM     12  C   UNL     1      93.329  93.815  76.436  1.00  0.00     0.008 C 
BRANCH  12  13
ATOM     13  C   UNL     1      92.299  92.981  75.794  1.00  0.00    -0.022 A 
ATOM     14  C   UNL     1      91.190  92.591  76.531  1.00  0.00     0.058 A 
ATOM     15  C   UNL     1      92.468  92.604  74.459  1.00  0.00     0.012 A 
ATOM     16  C   UNL     1      90.252  91.810  75.886  1.00  0.00     0.166 A 
ATOM     17  C   UNL     1      91.503  91.813  73.831  1.00  0.00     0.051 A 
ATOM     18  O   UNL     1      89.103  91.328  76.433  1.00  0.00    -0.454 OA
ATOM     19  C   UNL     1      90.404  91.432  74.572  1.00  0.00     0.165 A 
ATOM     20  C   UNL     1      88.549  90.604  75.316  1.00  0.00     0.468 C 
ATOM     21  O   UNL     1      89.370  90.665  74.131  1.00  0.00    -0.454 OA
ENDBRANCH  12  13
ENDBRANCH   2  11
TORSDOF 3
ENDMDL
MODEL 8
REMARK VINA RESULT:    -6.900     21.719     25.417
REMARK INTER + INTRA:          -8.506
REMARK INTER:                  -8.186
REMARK INTRA:                  -0.320
REMARK UNBOUND:                -0.396
REMARK SMILES O=C(/C=C/C=C/c1ccc2c(c1)OCO2)N1CCCCC1
REMARK SMILES IDX 3 1 4 2 2 3 1 4 16 5 17 6 21 7 18 8 20 9 19 10 5 11 6 12
REMARK SMILES IDX 7 13 12 14 8 15 11 16 9 17 13 18 10 19 14 20 15 21
REMARK H PARENT
REMARK Flexibility Score: inf
ROOT
ATOM      1  C   UNL     1      83.931  69.066  72.060  1.00  0.00     0.071 C 
ATOM      2  C   UNL     1      85.141  69.036  71.505  1.00  0.00     0.006 C 
ENDROOT
BRANCH   1   3
ATOM      3  C   UNL     1      83.551  67.956  72.957  1.00  0.00     0.246 C 
ATOM      4  O   UNL     1      84.023  67.957  74.095  1.00  0.00    -0.270 OA
ATOM      5  N   UNL     1      82.689  66.982  72.457  1.00  0.00    -0.339 N 
ATOM      6  C   UNL     1      82.298  65.865  73.322  1.00  0.00     0.120 C 
ATOM      7  C   UNL     1      82.143  66.923  71.093  1.00  0.00     0.120 C 
ATOM      8  C   UNL     1      80.783  65.713  73.384  1.00  0.00     0.022 C 
ATOM      9  C   UNL     1      80.622  66.766  71.113  1.00  0.00     0.022 C 
ATOM     10  C   UNL     1      80.188  65.592  71.985  1.00  0.00     0.004 C 
ENDBRANCH   1   3
BRANCH   2  11
ATOM     11  C   UNL     1      85.604  70.077  70.612  1.00  0.00     0.001 C 
ATOM     12  C   UNL     1      86.790  70.023  69.986  1.00  0.00     0.008 C 
BRANCH  12  13
ATOM     13  C   UNL     1      87.313  71.056  69.076  1.00  0.00    -0.022 A 
ATOM     14  C   UNL     1      88.520  71.673  69.376  1.00  0.00     0.058 A 
ATOM     15  C   UNL     1      86.578  71.387  67.934  1.00  0.00     0.012 A 
ATOM     16  C   UNL     1      88.968  72.634  68.493  1.00  0.00     0.166 A 
ATOM     17  C   UNL     1      87.056  72.364  67.057  1.00  0.00     0.051 A 
ATOM     18  O   UNL     1      90.120  73.350  68.609  1.00  0.00    -0.454 OA
ATOM     19  C   UNL     1      88.256  72.970  67.364  1.00  0.00     0.165 A 
ATOM     20  C   UNL     1      90.053  74.174  67.428  1.00  0.00     0.468 C 
ATOM     21  O   UNL     1      88.872  73.938  66.633  1.00  0.00    -0.454 OA
ENDBRANCH  12  13
ENDBRANCH   2  11
TORSDOF 3
ENDMDL
MODEL 9
REMARK VINA RESULT:    -6.822      7.015      9.474
REMARK INTER + INTRA:          -8.415
REMARK INTER:                  -8.021
REMARK INTRA:                  -0.393
REMARK UNBOUND:                -0.396
REMARK SMILES O=C(/C=C/C=C/c1ccc2c(c1)OCO2)N1CCCCC1
REMARK SMILES IDX 3 1 4 2 2 3 1 4 16 5 17 6 21 7 18 8 20 9 19 10 5 11 6 12
REMARK SMILES IDX 7 13 12 14 8 15 11 16 9 17 13 18 10 19 14 20 15 21
REMARK H PARENT
REMARK Flexibility Score: inf
ROOT
ATOM      1  C   UNL     1      94.112  97.029  73.766  1.00  0.00     0.071 C 
ATOM      2  C   UNL     1      94.414  98.284  73.437  1.00  0.00     0.006 C 
ENDROOT
BRANCH   1   3
ATOM      3  C   UNL     1      94.816  96.424  74.914  1.00  0.00     0.246 C 
ATOM      4  O   UNL     1      95.830  96.991  75.323  1.00  0.00    -0.270 OA
ATOM      5  N   UNL     1      94.290  95.251  75.454  1.00  0.00    -0.339 N 
ATOM      6  C   UNL     1      94.970  94.624  76.591  1.00  0.00     0.120 C 
ATOM      7  C   UNL     1      93.110  94.523  74.965  1.00  0.00     0.120 C 
ATOM      8  C   UNL     1      94.008  94.373  77.747  1.00  0.00     0.022 C 
ATOM      9  C   UNL     1      92.120  94.249  76.097  1.00  0.00     0.022 C 
ATOM     10  C   UNL     1      92.797  93.569  77.285  1.00  0.00     0.004 C 
ENDBRANCH   1   3
BRANCH   2  11
ATOM     11  C   UNL     1      93.778  98.962  72.327  1.00  0.00     0.001 C 
ATOM     12  C   UNL     1      93.213  98.306  71.301  1.00  0.00     0.008 C 
BRANCH  12  13
ATOM     13  C   UNL     1      92.562  98.945  70.146  1.00  0.00    -0.022 A 
ATOM     14  C   UNL     1      91.531  98.279  69.497  1.00  0.00     0.058 A 
ATOM     15  C   UNL     1      92.999 100.207  69.733  1.00  0.00     0.012 A 
ATOM     16  C   UNL     1      90.951  98.918  68.421  1.00  0.00     0.166 A 
ATOM     17  C   UNL     1      92.394 100.831  68.640  1.00  0.00     0.051 A 
ATOM     18  O   UNL     1      89.934  98.433  67.657  1.00  0.00    -0.454 OA
ATOM     19  C   UNL     1      91.371 100.160  68.003  1.00  0.00     0.165 A 
ATOM     20  C   UNL     1      89.761  99.509  66.713  1.00  0.00     0.468 C 
ATOM     21  O   UNL     1      90.670 100.609  66.927  1.00  0.00    -0.454 OA
ENDBRANCH  12  13
ENDBRANCH   2  11
TORSDOF 3
ENDMDL
MODEL 10
REMARK VINA RESULT:    -6.434      2.323      3.711
REMARK INTER + INTRA:          -7.959
REMARK INTER:                  -7.651
REMARK INTRA:                  -0.308
REMARK UNBOUND:                -0.396
REMARK SMILES O=C(/C=C/C=C/c1ccc2c(c1)OCO2)N1CCCCC1
REMARK SMILES IDX 3 1 4 2 2 3 1 4 16 5 17 6 21 7 18 8 20 9 19 10 5 11 6 12
REMARK SMILES IDX 7 13 12 14 8 15 11 16 9 17 13 18 10 19 14 20 15 21
REMARK H PARENT
REMARK Flexibility Score: inf
ROOT
ATOM      1  C   UNL     1      92.550  93.745  75.442  1.00  0.00     0.071 C 
ATOM      2  C   UNL     1      93.663  93.470  76.120  1.00  0.00     0.006 C 
ENDROOT
BRANCH   1   3
ATOM      3  C   UNL     1      91.771  92.615  74.897  1.00  0.00     0.246 C 
ATOM      4  O   UNL     1      92.028  92.247  73.751  1.00  0.00    -0.270 OA
ATOM      5  N   UNL     1      90.796  92.045  75.714  1.00  0.00    -0.339 N 
ATOM      6  C   UNL     1      90.002  90.925  75.199  1.00  0.00     0.120 C 
ATOM      7  C   UNL     1      90.431  92.486  77.069  1.00  0.00     0.120 C 
ATOM      8  C   UNL     1      90.035  89.735  76.152  1.00  0.00     0.022 C 
ATOM      9  C   UNL     1      90.449  91.318  78.054  1.00  0.00     0.022 C 
ATOM     10  C   UNL     1      89.606  90.147  77.557  1.00  0.00     0.004 C 
ENDBRANCH   1   3
BRANCH   2  11
ATOM     11  C   UNL     1      94.493  94.509  76.690  1.00  0.00     0.001 C 
ATOM     12  C   UNL     1      95.681  94.258  77.263  1.00  0.00     0.008 C 
BRANCH  12  13
ATOM     13  C   UNL     1      96.560  95.274  77.865  1.00  0.00    -0.022 A 
ATOM     14  C   UNL     1      96.212  95.830  79.089  1.00  0.00     0.058 A 
ATOM     15  C   UNL     1      97.723  95.652  77.188  1.00  0.00     0.012 A 
ATOM     16  C   UNL     1      97.067  96.778  79.612  1.00  0.00     0.166 A 
ATOM     17  C   UNL     1      98.571  96.614  77.741  1.00  0.00     0.051 A 
ATOM     18  O   UNL     1      96.902  97.437  80.792  1.00  0.00    -0.454 OA
ATOM     19  C   UNL     1      98.215  97.159  78.957  1.00  0.00     0.165 A 
ATOM     20  C   UNL     1      98.075  98.275  80.805  1.00  0.00     0.468 C 
ATOM     21  O   UNL     1      98.913  98.105  79.643  1.00  0.00    -0.454 OA
ENDBRANCH  12  13
ENDBRANCH   2  11
TORSDOF 3
ENDMDL
