MODEL 1
REMARK VINA RESULT:    -6.992      0.000      0.000
REMARK INTER + INTRA:         -12.659
REMARK INTER:                 -10.875
REMARK INTRA:                  -1.784
REMARK UNBOUND:                -1.784
REMARK SMILES CCCCC/C=C/C(=O)CCc1ccc(O)c(OC)c1
REMARK SMILES IDX 6 1 7 2 8 3 9 4 10 5 11 6 12 7 17 8 20 9 15 10 14 11 13 12
REMARK SMILES IDX 18 13 19 14 16 15 5 17 4 18 3 19 2 20 1 21
REMARK H PARENT 16 16
REMARK Flexibility Score: inf
ROOT
ATOM      1  C   UNL     1      90.388  90.687  77.895  1.00  0.00    -0.023 C 
ATOM      2  C   UNL     1      89.542  89.747  77.458  1.00  0.00     0.043 C 
ENDROOT
BRANCH   2   3
ATOM      3  C   UNL     1      89.987  88.329  77.373  1.00  0.00     0.155 C 
ATOM      4  O   UNL     1      89.567  87.470  78.145  1.00  0.00    -0.295 OA
BRANCH   3   5
ATOM      5  C   UNL     1      91.029  88.010  76.319  1.00  0.00     0.085 C 
BRANCH   5   6
ATOM      6  C   UNL     1      90.421  88.027  74.915  1.00  0.00     0.044 C 
BRANCH   6   7
ATOM      7  C   UNL     1      90.373  89.411  74.312  1.00  0.00    -0.044 A 
ATOM      8  C   UNL     1      89.141  91.155  73.218  1.00  0.00     0.160 A 
ATOM      9  C   UNL     1      89.185  89.877  73.774  1.00  0.00     0.054 A 
ATOM     10  C   UNL     1      90.286  91.951  73.207  1.00  0.00     0.157 A 
ATOM     11  C   UNL     1      91.476  91.468  73.753  1.00  0.00     0.050 A 
ATOM     12  C   UNL     1      91.520  90.189  74.309  1.00  0.00     0.008 A 
BRANCH   8  13
ATOM     13  O   UNL     1      87.974  91.615  72.687  1.00  0.00    -0.493 OA
ATOM     14  C   UNL     1      86.865  90.718  72.684  1.00  0.00     0.278 C 
ENDBRANCH   8  13
BRANCH  10  15
ATOM     15  O   UNL     1      90.256  93.201  72.668  1.00  0.00    -0.504 OA
ATOM     16  H   UNL     1      90.427  93.126  71.713  1.00  0.00     0.293 HD
ENDBRANCH  10  15
ENDBRANCH   6   7
ENDBRANCH   5   6
ENDBRANCH   3   5
ENDBRANCH   2   3
BRANCH   1  17
ATOM     17  C   UNL     1      90.016  92.137  78.009  1.00  0.00     0.027 C 
BRANCH  17  18
ATOM     18  C   UNL     1      89.611  92.761  76.669  1.00  0.00     0.004 C 
BRANCH  18  19
ATOM     19  C   UNL     1      90.352  94.064  76.350  1.00  0.00     0.000 C 
BRANCH  19  20
ATOM     20  C   UNL     1      91.852  93.923  76.612  1.00  0.00    -0.003 C 
ATOM     21  C   UNL     1      92.670  94.729  75.614  1.00  0.00     0.004 C 
ENDBRANCH  19  20
ENDBRANCH  18  19
ENDBRANCH  17  18
ENDBRANCH   1  17
TORSDOF 10
ENDMDL
MODEL 2
REMARK VINA RESULT:    -6.660      1.559      4.829
REMARK INTER + INTRA:         -12.143
REMARK INTER:                 -11.020
REMARK INTRA:                  -1.123
REMARK UNBOUND:                -1.784
REMARK SMILES CCCCC/C=C/C(=O)CCc1ccc(O)c(OC)c1
REMARK SMILES IDX 6 1 7 2 8 3 9 4 10 5 11 6 12 7 17 8 20 9 15 10 14 11 13 12
REMARK SMILES IDX 18 13 19 14 16 15 5 17 4 18 3 19 2 20 1 21
REMARK H PARENT 16 16
REMARK Flexibility Score: inf
ROOT
ATOM      1  C   UNL     1      90.413  93.705  74.985  1.00  0.00    -0.023 C 
ATOM      2  C   UNL     1      90.763  92.909  73.967  1.00  0.00     0.043 C 
ENDROOT
BRANCH   2   3
ATOM      3  C   UNL     1      89.763  92.558  72.923  1.00  0.00     0.155 C 
ATOM      4  O   UNL     1      89.151  93.420  72.294  1.00  0.00    -0.295 OA
BRANCH   3   5
ATOM      5  C   UNL     1      89.497  91.081  72.710  1.00  0.00     0.085 C 
BRANCH   5   6
ATOM      6  C   UNL     1      88.493  90.544  73.731  1.00  0.00     0.044 C 
BRANCH   6   7
ATOM      7  C   UNL     1      89.144  89.732  74.825  1.00  0.00    -0.044 A 
ATOM      8  C   UNL     1      89.878  89.530  77.101  1.00  0.00     0.160 A 
ATOM      9  C   UNL     1      89.277  90.281  76.091  1.00  0.00     0.054 A 
ATOM     10  C   UNL     1      90.340  88.242  76.833  1.00  0.00     0.157 A 
ATOM     11  C   UNL     1      90.200  87.704  75.553  1.00  0.00     0.050 A 
ATOM     12  C   UNL     1      89.598  88.454  74.543  1.00  0.00     0.008 A 
BRANCH   8  13
ATOM     13  O   UNL     1      90.009  90.067  78.347  1.00  0.00    -0.493 OA
ATOM     14  C   UNL     1      90.430  91.428  78.425  1.00  0.00     0.278 C 
ENDBRANCH   8  13
BRANCH  10  15
ATOM     15  O   UNL     1      90.928  87.499  77.811  1.00  0.00    -0.504 OA
ATOM     16  H   UNL     1      91.860  87.359  77.570  1.00  0.00     0.293 HD
ENDBRANCH  10  15
ENDBRANCH   6   7
ENDBRANCH   5   6
ENDBRANCH   3   5
ENDBRANCH   2   3
BRANCH   1  17
ATOM     17  C   UNL     1      91.362  94.105  76.078  1.00  0.00     0.027 C 
BRANCH  17  18
ATOM     18  C   UNL     1      92.684  93.332  76.039  1.00  0.00     0.004 C 
BRANCH  18  19
ATOM     19  C   UNL     1      93.891  94.156  76.498  1.00  0.00     0.000 C 
BRANCH  19  20
ATOM     20  C   UNL     1      95.072  93.986  75.541  1.00  0.00    -0.003 C 
ATOM     21  C   UNL     1      96.347  93.630  76.288  1.00  0.00     0.004 C 
ENDBRANCH  19  20
ENDBRANCH  18  19
ENDBRANCH  17  18
ENDBRANCH   1  17
TORSDOF 10
ENDMDL
MODEL 3
REMARK VINA RESULT:    -6.566      1.268      4.761
REMARK INTER + INTRA:         -11.996
REMARK INTER:                 -10.818
REMARK INTRA:                  -1.178
REMARK UNBOUND:                -1.784
REMARK SMILES CCCCC/C=C/C(=O)CCc1ccc(O)c(OC)c1
REMARK SMILES IDX 6 1 7 2 8 3 9 4 10 5 11 6 12 7 17 8 20 9 15 10 14 11 13 12
REMARK SMILES IDX 18 13 19 14 16 15 5 17 4 18 3 19 2 20 1 21
REMARK H PARENT 16 16
REMARK Flexibility Score: inf
ROOT
ATOM      1  C   UNL     1      91.659  92.715  73.890  1.00  0.00    -0.023 C 
ATOM      2  C   UNL     1      91.141  91.714  73.169  1.00  0.00     0.043 C 
ENDROOT
BRANCH   2   3
ATOM      3  C   UNL     1      89.868  91.916  72.426  1.00  0.00     0.155 C 
ATOM      4  O   UNL     1      89.569  93.002  71.933  1.00  0.00    -0.295 OA
BRANCH   3   5
ATOM      5  C   UNL     1      88.931  90.726  72.353  1.00  0.00     0.085 C 
BRANCH   5   6
ATOM      6  C   UNL     1      88.128  90.571  73.645  1.00  0.00     0.044 C 
BRANCH   6   7
ATOM      7  C   UNL     1      88.874  89.807  74.713  1.00  0.00    -0.044 A 
ATOM      8  C   UNL     1      89.773  89.689  76.935  1.00  0.00     0.160 A 
ATOM      9  C   UNL     1      89.083  90.396  75.949  1.00  0.00     0.054 A 
ATOM     10  C   UNL     1      90.244  88.403  76.671  1.00  0.00     0.157 A 
ATOM     11  C   UNL     1      90.026  87.824  75.420  1.00  0.00     0.050 A 
ATOM     12  C   UNL     1      89.337  88.531  74.435  1.00  0.00     0.008 A 
BRANCH   8  13
ATOM     13  O   UNL     1      89.979  90.265  78.152  1.00  0.00    -0.493 OA
ATOM     14  C   UNL     1      90.603  91.548  78.164  1.00  0.00     0.278 C 
ENDBRANCH   8  13
BRANCH  10  15
ATOM     15  O   UNL     1      90.918  87.703  77.625  1.00  0.00    -0.504 OA
ATOM     16  H   UNL     1      90.337  86.993  77.950  1.00  0.00     0.293 HD
ENDBRANCH  10  15
ENDBRANCH   6   7
ENDBRANCH   5   6
ENDBRANCH   3   5
ENDBRANCH   2   3
BRANCH   1  17
ATOM     17  C   UNL     1      92.938  92.591  74.667  1.00  0.00     0.027 C 
BRANCH  17  18
ATOM     18  C   UNL     1      93.145  93.730  75.671  1.00  0.00     0.004 C 
BRANCH  18  19
ATOM     19  C   UNL     1      92.149  94.882  75.506  1.00  0.00     0.000 C 
BRANCH  19  20
ATOM     20  C   UNL     1      91.127  94.896  76.643  1.00  0.00    -0.003 C 
ATOM     21  C   UNL     1      89.722  94.621  76.132  1.00  0.00     0.004 C 
ENDBRANCH  19  20
ENDBRANCH  18  19
ENDBRANCH  17  18
ENDBRANCH   1  17
TORSDOF 10
ENDMDL
MODEL 4
REMARK VINA RESULT:    -5.734      5.358      9.020
REMARK INTER + INTRA:         -10.703
REMARK INTER:                  -9.613
REMARK INTRA:                  -1.089
REMARK UNBOUND:                -1.784
REMARK SMILES CCCCC/C=C/C(=O)CCc1ccc(O)c(OC)c1
REMARK SMILES IDX 6 1 7 2 8 3 9 4 10 5 11 6 12 7 17 8 20 9 15 10 14 11 13 12
REMARK SMILES IDX 18 13 19 14 16 15 5 17 4 18 3 19 2 20 1 21
REMARK H PARENT 16 16
REMARK Flexibility Score: inf
ROOT
ATOM      1  C   UNL     1      93.127  94.798  76.495  1.00  0.00    -0.023 C 
ATOM      2  C   UNL     1      93.892  94.622  75.410  1.00  0.00     0.043 C 
ENDROOT
BRANCH   2   3
ATOM      3  C   UNL     1      95.204  95.316  75.308  1.00  0.00     0.155 C 
ATOM      4  O   UNL     1      95.396  96.226  74.504  1.00  0.00    -0.295 OA
BRANCH   3   5
ATOM      5  C   UNL     1      96.311  94.806  76.211  1.00  0.00     0.085 C 
BRANCH   5   6
ATOM      6  C   UNL     1      96.693  95.848  77.263  1.00  0.00     0.044 C 
BRANCH   6   7
ATOM      7  C   UNL     1      96.260  95.461  78.658  1.00  0.00    -0.044 A 
ATOM      8  C   UNL     1      96.021  96.009  80.982  1.00  0.00     0.160 A 
ATOM      9  C   UNL     1      96.421  96.366  79.694  1.00  0.00     0.054 A 
ATOM     10  C   UNL     1      95.465  94.751  81.216  1.00  0.00     0.157 A 
ATOM     11  C   UNL     1      95.309  93.851  80.161  1.00  0.00     0.050 A 
ATOM     12  C   UNL     1      95.710  94.208  78.874  1.00  0.00     0.008 A 
BRANCH   8  13
ATOM     13  O   UNL     1      96.178  96.897  82.003  1.00  0.00    -0.493 OA
ATOM     14  C   UNL     1      97.457  96.943  82.631  1.00  0.00     0.278 C 
ENDBRANCH   8  13
BRANCH  10  15
ATOM     15  O   UNL     1      95.070  94.391  82.468  1.00  0.00    -0.504 OA
ATOM     16  H   UNL     1      95.784  94.612  83.090  1.00  0.00     0.293 HD
ENDBRANCH  10  15
ENDBRANCH   6   7
ENDBRANCH   5   6
ENDBRANCH   3   5
ENDBRANCH   2   3
BRANCH   1  17
ATOM     17  C   UNL     1      91.792  94.135  76.674  1.00  0.00     0.027 C 
BRANCH  17  18
ATOM     18  C   UNL     1      91.901  92.652  77.045  1.00  0.00     0.004 C 
BRANCH  18  19
ATOM     19  C   UNL     1      90.711  92.134  77.859  1.00  0.00     0.000 C 
BRANCH  19  20
ATOM     20  C   UNL     1      89.430  92.131  77.023  1.00  0.00    -0.003 C 
ATOM     21  C   UNL     1      89.575  91.259  75.786  1.00  0.00     0.004 C 
ENDBRANCH  19  20
ENDBRANCH  18  19
ENDBRANCH  17  18
ENDBRANCH   1  17
TORSDOF 10
ENDMDL
MODEL 5
REMARK VINA RESULT:    -5.655     12.723     14.979
REMARK INTER + INTRA:         -10.580
REMARK INTER:                  -8.687
REMARK INTRA:                  -1.893
REMARK UNBOUND:                -1.784
REMARK SMILES CCCCC/C=C/C(=O)CCc1ccc(O)c(OC)c1
REMARK SMILES IDX 6 1 7 2 8 3 9 4 10 5 11 6 12 7 17 8 20 9 15 10 14 11 13 12
REMARK SMILES IDX 18 13 19 14 16 15 5 17 4 18 3 19 2 20 1 21
REMARK H PARENT 16 16
REMARK Flexibility Score: inf
ROOT
ATOM      1  C   UNL     1      81.107  86.174  86.512  1.00  0.00    -0.023 C 
ATOM      2  C   UNL     1      80.156  86.661  87.318  1.00  0.00     0.043 C 
ENDROOT
BRANCH   2   3
ATOM      3  C   UNL     1      80.448  86.879  88.761  1.00  0.00     0.155 C 
ATOM      4  O   UNL     1      79.848  86.269  89.644  1.00  0.00    -0.295 OA
BRANCH   3   5
ATOM      5  C   UNL     1      81.488  87.933  89.089  1.00  0.00     0.085 C 
BRANCH   5   6
ATOM      6  C   UNL     1      81.123  89.284  88.472  1.00  0.00     0.044 C 
BRANCH   6   7
ATOM      7  C   UNL     1      82.303  89.976  87.833  1.00  0.00    -0.044 A 
ATOM      8  C   UNL     1      83.512  91.991  87.344  1.00  0.00     0.160 A 
ATOM      9  C   UNL     1      82.421  91.353  87.935  1.00  0.00     0.054 A 
ATOM     10  C   UNL     1      84.470  91.244  86.659  1.00  0.00     0.157 A 
ATOM     11  C   UNL     1      84.337  89.858  86.565  1.00  0.00     0.050 A 
ATOM     12  C   UNL     1      83.247  89.220  87.155  1.00  0.00     0.008 A 
BRANCH   8  13
ATOM     13  O   UNL     1      83.630  93.344  87.443  1.00  0.00    -0.493 OA
ATOM     14  C   UNL     1      82.830  93.995  88.429  1.00  0.00     0.278 C 
ENDBRANCH   8  13
BRANCH  10  15
ATOM     15  O   UNL     1      85.540  91.856  86.079  1.00  0.00    -0.504 OA
ATOM     16  H   UNL     1      86.296  91.789  86.686  1.00  0.00     0.293 HD
ENDBRANCH  10  15
ENDBRANCH   6   7
ENDBRANCH   5   6
ENDBRANCH   3   5
ENDBRANCH   2   3
BRANCH   1  17
ATOM     17  C   UNL     1      80.893  85.925  85.047  1.00  0.00     0.027 C 
BRANCH  17  18
ATOM     18  C   UNL     1      79.932  86.928  84.401  1.00  0.00     0.004 C 
BRANCH  18  19
ATOM     19  C   UNL     1      80.631  87.962  83.512  1.00  0.00     0.000 C 
BRANCH  19  20
ATOM     20  C   UNL     1      80.994  89.218  84.306  1.00  0.00    -0.003 C 
ATOM     21  C   UNL     1      79.791  89.772  85.052  1.00  0.00     0.004 C 
ENDBRANCH  19  20
ENDBRANCH  18  19
ENDBRANCH  17  18
ENDBRANCH   1  17
TORSDOF 10
ENDMDL
MODEL 6
REMARK VINA RESULT:    -5.635      3.601      6.087
REMARK INTER + INTRA:         -10.548
REMARK INTER:                  -9.624
REMARK INTRA:                  -0.924
REMARK UNBOUND:                -1.784
REMARK SMILES CCCCC/C=C/C(=O)CCc1ccc(O)c(OC)c1
REMARK SMILES IDX 6 1 7 2 8 3 9 4 10 5 11 6 12 7 17 8 20 9 15 10 14 11 13 12
REMARK SMILES IDX 18 13 19 14 16 15 5 17 4 18 3 19 2 20 1 21
REMARK H PARENT 16 16
REMARK Flexibility Score: inf
ROOT
ATOM      1  C   UNL     1      94.402  94.104  77.731  1.00  0.00    -0.023 C 
ATOM      2  C   UNL     1      94.791  94.957  76.775  1.00  0.00     0.043 C 
ENDROOT
BRANCH   2   3
ATOM      3  C   UNL     1      94.084  94.977  75.466  1.00  0.00     0.155 C 
ATOM      4  O   UNL     1      93.980  96.005  74.800  1.00  0.00    -0.295 OA
BRANCH   3   5
ATOM      5  C   UNL     1      93.452  93.673  75.019  1.00  0.00     0.085 C 
BRANCH   5   6
ATOM      6  C   UNL     1      91.929  93.723  75.143  1.00  0.00     0.044 C 
BRANCH   6   7
ATOM      7  C   UNL     1      91.370  92.598  75.982  1.00  0.00    -0.044 A 
ATOM      8  C   UNL     1      90.694  90.305  76.191  1.00  0.00     0.160 A 
ATOM      9  C   UNL     1      91.209  91.344  75.416  1.00  0.00     0.054 A 
ATOM     10  C   UNL     1      90.346  90.534  77.522  1.00  0.00     0.157 A 
ATOM     11  C   UNL     1      90.513  91.803  78.078  1.00  0.00     0.050 A 
ATOM     12  C   UNL     1      91.028  92.842  77.302  1.00  0.00     0.008 A 
BRANCH   8  13
ATOM     13  O   UNL     1      90.535  89.070  75.637  1.00  0.00    -0.493 OA
ATOM     14  C   UNL     1      89.383  88.870  74.819  1.00  0.00     0.278 C 
ENDBRANCH   8  13
BRANCH  10  15
ATOM     15  O   UNL     1      89.842  89.528  78.290  1.00  0.00    -0.504 OA
ATOM     16  H   UNL     1      90.567  89.154  78.818  1.00  0.00     0.293 HD
ENDBRANCH  10  15
ENDBRANCH   6   7
ENDBRANCH   5   6
ENDBRANCH   3   5
ENDBRANCH   2   3
BRANCH   1  17
ATOM     17  C   UNL     1      95.063  94.022  79.076  1.00  0.00     0.027 C 
BRANCH  17  18
ATOM     18  C   UNL     1      95.613  95.368  79.559  1.00  0.00     0.004 C 
BRANCH  18  19
ATOM     19  C   UNL     1      95.572  95.538  81.081  1.00  0.00     0.000 C 
BRANCH  19  20
ATOM     20  C   UNL     1      96.925  95.200  81.710  1.00  0.00    -0.003 C 
ATOM     21  C   UNL     1      98.073  95.507  80.762  1.00  0.00     0.004 C 
ENDBRANCH  19  20
ENDBRANCH  18  19
ENDBRANCH  17  18
ENDBRANCH   1  17
TORSDOF 10
ENDMDL
MODEL 7
REMARK VINA RESULT:    -5.391     12.320     14.923
REMARK INTER + INTRA:         -10.169
REMARK INTER:                  -9.132
REMARK INTRA:                  -1.037
REMARK UNBOUND:                -1.784
REMARK SMILES CCCCC/C=C/C(=O)CCc1ccc(O)c(OC)c1
REMARK SMILES IDX 6 1 7 2 8 3 9 4 10 5 11 6 12 7 17 8 20 9 15 10 14 11 13 12
REMARK SMILES IDX 18 13 19 14 16 15 5 17 4 18 3 19 2 20 1 21
REMARK H PARENT 16 16
REMARK Flexibility Score: inf
ROOT
ATOM      1  C   UNL     1      81.650  90.405  86.639  1.00  0.00    -0.023 C 
ATOM      2  C   UNL     1      81.661  89.819  85.435  1.00  0.00     0.043 C 
ENDROOT
BRANCH   2   3
ATOM      3  C   UNL     1      80.380  89.567  84.721  1.00  0.00     0.155 C 
ATOM      4  O   UNL     1      79.391  90.278  84.891  1.00  0.00    -0.295 OA
BRANCH   3   5
ATOM      5  C   UNL     1      80.340  88.354  83.812  1.00  0.00     0.085 C 
BRANCH   5   6
ATOM      6  C   UNL     1      79.721  87.148  84.521  1.00  0.00     0.044 C 
BRANCH   6   7
ATOM      7  C   UNL     1      80.521  86.697  85.720  1.00  0.00    -0.044 A 
ATOM      8  C   UNL     1      80.887  86.707  88.091  1.00  0.00     0.160 A 
ATOM      9  C   UNL     1      80.148  87.124  86.984  1.00  0.00     0.054 A 
ATOM     10  C   UNL     1      81.989  85.870  87.920  1.00  0.00     0.157 A 
ATOM     11  C   UNL     1      82.353  85.449  86.640  1.00  0.00     0.050 A 
ATOM     12  C   UNL     1      81.613  85.866  85.533  1.00  0.00     0.008 A 
BRANCH   8  13
ATOM     13  O   UNL     1      80.522  87.125  89.336  1.00  0.00    -0.493 OA
ATOM     14  C   UNL     1      79.254  86.687  89.821  1.00  0.00     0.278 C 
ENDBRANCH   8  13
BRANCH  10  15
ATOM     15  O   UNL     1      82.718  85.455  88.993  1.00  0.00    -0.504 OA
ATOM     16  H   UNL     1      82.512  86.036  89.745  1.00  0.00     0.293 HD
ENDBRANCH  10  15
ENDBRANCH   6   7
ENDBRANCH   5   6
ENDBRANCH   3   5
ENDBRANCH   2   3
BRANCH   1  17
ATOM     17  C   UNL     1      82.897  90.693  87.423  1.00  0.00     0.027 C 
BRANCH  17  18
ATOM     18  C   UNL     1      83.956  89.593  87.294  1.00  0.00     0.004 C 
BRANCH  18  19
ATOM     19  C   UNL     1      85.107  89.957  86.351  1.00  0.00     0.000 C 
BRANCH  19  20
ATOM     20  C   UNL     1      85.212  91.472  86.167  1.00  0.00    -0.003 C 
ATOM     21  C   UNL     1      85.103  91.864  84.702  1.00  0.00     0.004 C 
ENDBRANCH  19  20
ENDBRANCH  18  19
ENDBRANCH  17  18
ENDBRANCH   1  17
TORSDOF 10
ENDMDL
MODEL 8
REMARK VINA RESULT:    -5.253     22.409     25.396
REMARK INTER + INTRA:          -9.954
REMARK INTER:                  -8.635
REMARK INTRA:                  -1.319
REMARK UNBOUND:                -1.784
REMARK SMILES CCCCC/C=C/C(=O)CCc1ccc(O)c(OC)c1
REMARK SMILES IDX 6 1 7 2 8 3 9 4 10 5 11 6 12 7 17 8 20 9 15 10 14 11 13 12
REMARK SMILES IDX 18 13 19 14 16 15 5 17 4 18 3 19 2 20 1 21
REMARK H PARENT 16 16
REMARK Flexibility Score: inf
ROOT
ATOM      1  C   UNL     1      80.172  64.995  73.122  1.00  0.00    -0.023 C 
ATOM      2  C   UNL     1      81.032  65.426  72.190  1.00  0.00     0.043 C 
ENDROOT
BRANCH   2   3
ATOM      3  C   UNL     1      80.569  66.359  71.128  1.00  0.00     0.155 C 
ATOM      4  O   UNL     1      79.734  66.025  70.290  1.00  0.00    -0.295 OA
BRANCH   3   5
ATOM      5  C   UNL     1      81.220  67.728  71.100  1.00  0.00     0.085 C 
BRANCH   5   6
ATOM      6  C   UNL     1      81.736  68.126  72.484  1.00  0.00     0.044 C 
BRANCH   6   7
ATOM      7  C   UNL     1      83.161  68.626  72.457  1.00  0.00    -0.044 A 
ATOM      8  C   UNL     1      85.373  68.637  73.387  1.00  0.00     0.160 A 
ATOM      9  C   UNL     1      84.057  68.174  73.412  1.00  0.00     0.054 A 
ATOM     10  C   UNL     1      85.776  69.544  72.408  1.00  0.00     0.157 A 
ATOM     11  C   UNL     1      84.861  69.990  71.453  1.00  0.00     0.050 A 
ATOM     12  C   UNL     1      83.545  69.528  71.478  1.00  0.00     0.008 A 
BRANCH   8  13
ATOM     13  O   UNL     1      86.257  68.194  74.325  1.00  0.00    -0.493 OA
ATOM     14  C   UNL     1      86.202  68.811  75.610  1.00  0.00     0.278 C 
ENDBRANCH   8  13
BRANCH  10  15
ATOM     15  O   UNL     1      87.058  70.002  72.372  1.00  0.00    -0.504 OA
ATOM     16  H   UNL     1      87.277  70.226  71.452  1.00  0.00     0.293 HD
ENDBRANCH  10  15
ENDBRANCH   6   7
ENDBRANCH   5   6
ENDBRANCH   3   5
ENDBRANCH   2   3
BRANCH   1  17
ATOM     17  C   UNL     1      80.560  64.054  74.225  1.00  0.00     0.027 C 
BRANCH  17  18
ATOM     18  C   UNL     1      82.075  63.852  74.338  1.00  0.00     0.004 C 
BRANCH  18  19
ATOM     19  C   UNL     1      82.682  64.456  75.608  1.00  0.00     0.000 C 
BRANCH  19  20
ATOM     20  C   UNL     1      81.644  65.271  76.382  1.00  0.00    -0.003 C 
ATOM     21  C   UNL     1      81.911  66.763  76.268  1.00  0.00     0.004 C 
ENDBRANCH  19  20
ENDBRANCH  18  19
ENDBRANCH  17  18
ENDBRANCH   1  17
TORSDOF 10
ENDMDL
MODEL 9
REMARK VINA RESULT:    -5.221     12.144     15.007
REMARK INTER + INTRA:          -9.905
REMARK INTER:                  -8.469
REMARK INTRA:                  -1.436
REMARK UNBOUND:                -1.784
REMARK SMILES CCCCC/C=C/C(=O)CCc1ccc(O)c(OC)c1
REMARK SMILES IDX 6 1 7 2 8 3 9 4 10 5 11 6 12 7 17 8 20 9 15 10 14 11 13 12
REMARK SMILES IDX 18 13 19 14 16 15 5 17 4 18 3 19 2 20 1 21
REMARK H PARENT 16 16
REMARK Flexibility Score: inf
ROOT
ATOM      1  C   UNL     1      82.701  89.944  84.769  1.00  0.00    -0.023 C 
ATOM      2  C   UNL     1      83.609  90.922  84.670  1.00  0.00     0.043 C 
ENDROOT
BRANCH   2   3
ATOM      3  C   UNL     1      84.860  90.858  85.474  1.00  0.00     0.155 C 
ATOM      4  O   UNL     1      85.848  91.534  85.193  1.00  0.00    -0.295 OA
BRANCH   3   5
ATOM      5  C   UNL     1      84.872  89.874  86.628  1.00  0.00     0.085 C 
BRANCH   5   6
ATOM      6  C   UNL     1      84.305  90.504  87.901  1.00  0.00     0.044 C 
BRANCH   6   7
ATOM      7  C   UNL     1      82.860  90.137  88.144  1.00  0.00    -0.044 A 
ATOM      8  C   UNL     1      81.141  88.469  88.294  1.00  0.00     0.160 A 
ATOM      9  C   UNL     1      82.475  88.808  88.069  1.00  0.00     0.054 A 
ATOM     10  C   UNL     1      80.209  89.463  88.591  1.00  0.00     0.157 A 
ATOM     11  C   UNL     1      80.612  90.797  88.663  1.00  0.00     0.050 A 
ATOM     12  C   UNL     1      81.947  91.136  88.437  1.00  0.00     0.008 A 
BRANCH   8  13
ATOM     13  O   UNL     1      80.760  87.163  88.221  1.00  0.00    -0.493 OA
ATOM     14  C   UNL     1      81.695  86.245  87.658  1.00  0.00     0.278 C 
ENDBRANCH   8  13
BRANCH  10  15
ATOM     15  O   UNL     1      78.904  89.145  88.814  1.00  0.00    -0.504 OA
ATOM     16  H   UNL     1      78.645  88.456  88.178  1.00  0.00     0.293 HD
ENDBRANCH  10  15
ENDBRANCH   6   7
ENDBRANCH   5   6
ENDBRANCH   3   5
ENDBRANCH   2   3
BRANCH   1  17
ATOM     17  C   UNL     1      81.416  89.936  83.994  1.00  0.00     0.027 C 
BRANCH  17  18
ATOM     18  C   UNL     1      80.176  89.807  84.885  1.00  0.00     0.004 C 
BRANCH  18  19
ATOM     19  C   UNL     1      79.391  88.510  84.661  1.00  0.00     0.000 C 
BRANCH  19  20
ATOM     20  C   UNL     1      80.317  87.374  84.222  1.00  0.00    -0.003 C 
ATOM     21  C   UNL     1      80.031  86.944  82.792  1.00  0.00     0.004 C 
ENDBRANCH  19  20
ENDBRANCH  18  19
ENDBRANCH  17  18
ENDBRANCH   1  17
TORSDOF 10
ENDMDL
MODEL 10
REMARK VINA RESULT:    -5.038     12.834     15.377
REMARK INTER + INTRA:          -9.620
REMARK INTER:                  -8.433
REMARK INTRA:                  -1.188
REMARK UNBOUND:                -1.784
REMARK SMILES CCCCC/C=C/C(=O)CCc1ccc(O)c(OC)c1
REMARK SMILES IDX 6 1 7 2 8 3 9 4 10 5 11 6 12 7 17 8 20 9 15 10 14 11 13 12
REMARK SMILES IDX 18 13 19 14 16 15 5 17 4 18 3 19 2 20 1 21
REMARK H PARENT 16 16
REMARK Flexibility Score: inf
ROOT
ATOM      1  C   UNL     1      82.653  90.234  85.759  1.00  0.00    -0.023 C 
ATOM      2  C   UNL     1      82.281  89.509  84.697  1.00  0.00     0.043 C 
ENDROOT
BRANCH   2   3
ATOM      3  C   UNL     1      80.836  89.322  84.395  1.00  0.00     0.155 C 
ATOM      4  O   UNL     1      79.980  90.102  84.809  1.00  0.00    -0.295 OA
BRANCH   3   5
ATOM      5  C   UNL     1      80.467  88.089  83.594  1.00  0.00     0.085 C 
BRANCH   5   6
ATOM      6  C   UNL     1      79.730  87.064  84.459  1.00  0.00     0.044 C 
BRANCH   6   7
ATOM      7  C   UNL     1      80.523  86.643  85.673  1.00  0.00    -0.044 A 
ATOM      8  C   UNL     1      80.898  86.739  88.042  1.00  0.00     0.160 A 
ATOM      9  C   UNL     1      80.166  87.129  86.921  1.00  0.00     0.054 A 
ATOM     10  C   UNL     1      81.978  85.868  87.902  1.00  0.00     0.157 A 
ATOM     11  C   UNL     1      82.326  85.387  86.639  1.00  0.00     0.050 A 
ATOM     12  C   UNL     1      81.594  85.778  85.517  1.00  0.00     0.008 A 
BRANCH   8  13
ATOM     13  O   UNL     1      80.548  87.216  89.269  1.00  0.00    -0.493 OA
ATOM     14  C   UNL     1      79.368  86.678  89.862  1.00  0.00     0.278 C 
ENDBRANCH   8  13
BRANCH  10  15
ATOM     15  O   UNL     1      82.701  85.480  88.989  1.00  0.00    -0.504 OA
ATOM     16  H   UNL     1      83.603  85.831  88.897  1.00  0.00     0.293 HD
ENDBRANCH  10  15
ENDBRANCH   6   7
ENDBRANCH   5   6
ENDBRANCH   3   5
ENDBRANCH   2   3
BRANCH   1  17
ATOM     17  C   UNL     1      84.088  90.469  86.131  1.00  0.00     0.027 C 
BRANCH  17  18
ATOM     18  C   UNL     1      84.311  90.550  87.645  1.00  0.00     0.004 C 
BRANCH  18  19
ATOM     19  C   UNL     1      83.305  89.731  88.459  1.00  0.00     0.000 C 
BRANCH  19  20
ATOM     20  C   UNL     1      82.698  90.566  89.588  1.00  0.00    -0.003 C 
ATOM     21  C   UNL     1      82.292  89.697  90.767  1.00  0.00     0.004 C 
ENDBRANCH  19  20
ENDBRANCH  18  19
ENDBRANCH  17  18
ENDBRANCH   1  17
TORSDOF 10
ENDMDL
