MODEL 1
REMARK VINA RESULT:    -5.881      0.000      0.000
REMARK INTER + INTRA:         -10.708
REMARK INTER:                  -9.834
REMARK INTRA:                  -0.874
REMARK UNBOUND:                -0.874
REMARK SMILES COc1cc(CNC(=O)CCCCCCCC(C)C)ccc1O
REMARK SMILES IDX 11 1 10 2 8 3 9 4 7 5 6 7 5 8 4 9 20 10 3 11 21 12 22 13
REMARK SMILES IDX 2 14 1 15 23 16 12 18 13 19 14 20 15 21 16 22 17 23 18 24
REMARK SMILES IDX 19 25
REMARK H PARENT 7 6 23 17
REMARK Flexibility Score: inf
ROOT
ATOM      1  C   UNL     1      94.980  99.941  74.791  1.00  0.00     0.010 C 
ENDROOT
BRANCH   1   2
ATOM      2  C   UNL     1      94.553  99.519  73.387  1.00  0.00     0.100 C 
BRANCH   2   3
ATOM      3  C   UNL     1      93.626 100.532  72.735  1.00  0.00     0.220 C 
ATOM      4  O   UNL     1      93.963 101.683  72.474  1.00  0.00    -0.275 OA
ATOM      5  N   UNL     1      92.373  99.991  72.489  1.00  0.00    -0.352 N 
ATOM      6  H   UNL     1      92.182  99.027  72.751  1.00  0.00     0.163 HD
BRANCH   5   7
ATOM      7  C   UNL     1      91.300 100.745  71.882  1.00  0.00     0.151 C 
BRANCH   7   8
ATOM      8  C   UNL     1      90.419  99.879  71.029  1.00  0.00    -0.025 A 
ATOM      9  C   UNL     1      89.849 100.404  69.876  1.00  0.00     0.056 A 
ATOM     10  C   UNL     1      90.182  98.562  71.402  1.00  0.00     0.009 A 
ATOM     11  C   UNL     1      89.030  99.600  69.083  1.00  0.00     0.160 A 
ATOM     12  C   UNL     1      89.362  97.758  70.609  1.00  0.00     0.050 A 
ATOM     13  C   UNL     1      88.785  98.277  69.450  1.00  0.00     0.157 A 
BRANCH  11  14
ATOM     14  O   UNL     1      88.472 100.119  67.953  1.00  0.00    -0.493 OA
ATOM     15  C   UNL     1      88.444 101.541  67.839  1.00  0.00     0.278 C 
ENDBRANCH  11  14
BRANCH  13  16
ATOM     16  O   UNL     1      87.988  97.481  68.684  1.00  0.00    -0.504 OA
ATOM     17  H   UNL     1      87.526  96.848  69.260  1.00  0.00     0.293 HD
ENDBRANCH  13  16
ENDBRANCH   7   8
ENDBRANCH   5   7
ENDBRANCH   2   3
ENDBRANCH   1   2
BRANCH   1  18
ATOM     18  C   UNL     1      94.298  99.139  75.903  1.00  0.00     0.001 C 
BRANCH  18  19
ATOM     19  C   UNL     1      93.366  98.016  75.436  1.00  0.00     0.000 C 
BRANCH  19  20
ATOM     20  C   UNL     1      93.986  96.622  75.563  1.00  0.00     0.000 C 
BRANCH  20  21
ATOM     21  C   UNL     1      93.628  95.912  76.873  1.00  0.00     0.000 C 
BRANCH  21  22
ATOM     22  C   UNL     1      92.154  96.067  77.264  1.00  0.00     0.003 C 
BRANCH  22  23
ATOM     23  C   UNL     1      91.525  94.771  77.813  1.00  0.00    -0.017 C 
ATOM     24  C   UNL     1      92.359  94.248  78.985  1.00  0.00     0.007 C 
ATOM     25  C   UNL     1      91.399  93.683  76.747  1.00  0.00     0.007 C 
ENDBRANCH  22  23
ENDBRANCH  21  22
ENDBRANCH  20  21
ENDBRANCH  19  20
ENDBRANCH  18  19
ENDBRANCH   1  18
TORSDOF 12
ENDMDL
MODEL 2
REMARK VINA RESULT:    -5.868     19.105     22.083
REMARK INTER + INTRA:         -10.687
REMARK INTER:                  -9.125
REMARK INTRA:                  -1.562
REMARK UNBOUND:                -0.874
REMARK SMILES COc1cc(CNC(=O)CCCCCCCC(C)C)ccc1O
REMARK SMILES IDX 11 1 10 2 8 3 9 4 7 5 6 7 5 8 4 9 20 10 3 11 21 12 22 13
REMARK SMILES IDX 2 14 1 15 23 16 12 18 13 19 14 20 15 21 16 22 17 23 18 24
REMARK SMILES IDX 19 25
REMARK H PARENT 7 6 23 17
REMARK Flexibility Score: inf
ROOT
ATOM      1  C   UNL     1      76.340  88.070  67.280  1.00  0.00     0.010 C 
ENDROOT
BRANCH   1   2
ATOM      2  C   UNL     1      77.678  87.515  66.797  1.00  0.00     0.100 C 
BRANCH   2   3
ATOM      3  C   UNL     1      77.952  86.118  67.330  1.00  0.00     0.220 C 
ATOM      4  O   UNL     1      78.326  85.897  68.479  1.00  0.00    -0.275 OA
ATOM      5  N   UNL     1      77.734  85.151  66.361  1.00  0.00    -0.352 N 
ATOM      6  H   UNL     1      77.435  85.430  65.430  1.00  0.00     0.163 HD
BRANCH   5   7
ATOM      7  C   UNL     1      77.930  83.740  66.604  1.00  0.00     0.151 C 
BRANCH   7   8
ATOM      8  C   UNL     1      76.700  82.940  66.288  1.00  0.00    -0.025 A 
ATOM      9  C   UNL     1      75.451  83.420  66.666  1.00  0.00     0.056 A 
ATOM     10  C   UNL     1      76.822  81.728  65.620  1.00  0.00     0.009 A 
ATOM     11  C   UNL     1      74.308  82.676  66.372  1.00  0.00     0.160 A 
ATOM     12  C   UNL     1      75.678  80.983  65.327  1.00  0.00     0.050 A 
ATOM     13  C   UNL     1      74.422  81.457  65.702  1.00  0.00     0.157 A 
BRANCH  11  14
ATOM     14  O   UNL     1      73.086  83.149  66.744  1.00  0.00    -0.493 OA
ATOM     15  C   UNL     1      72.506  84.163  65.924  1.00  0.00     0.278 C 
ENDBRANCH  11  14
BRANCH  13  16
ATOM     16  O   UNL     1      73.313  80.722  65.409  1.00  0.00    -0.504 OA
ATOM     17  H   UNL     1      72.672  81.288  64.946  1.00  0.00     0.293 HD
ENDBRANCH  13  16
ENDBRANCH   7   8
ENDBRANCH   5   7
ENDBRANCH   2   3
ENDBRANCH   1   2
BRANCH   1  18
ATOM     18  C   UNL     1      75.137  87.227  66.848  1.00  0.00     0.001 C 
BRANCH  18  19
ATOM     19  C   UNL     1      74.161  86.840  67.964  1.00  0.00     0.000 C 
BRANCH  19  20
ATOM     20  C   UNL     1      74.800  85.976  69.055  1.00  0.00     0.000 C 
BRANCH  20  21
ATOM     21  C   UNL     1      74.737  86.609  70.449  1.00  0.00     0.000 C 
BRANCH  21  22
ATOM     22  C   UNL     1      75.499  87.934  70.550  1.00  0.00     0.003 C 
BRANCH  22  23
ATOM     23  C   UNL     1      74.579  89.161  70.711  1.00  0.00    -0.017 C 
ATOM     24  C   UNL     1      75.425  90.413  70.954  1.00  0.00     0.007 C 
ATOM     25  C   UNL     1      73.572  88.992  71.849  1.00  0.00     0.007 C 
ENDBRANCH  22  23
ENDBRANCH  21  22
ENDBRANCH  20  21
ENDBRANCH  19  20
ENDBRANCH  18  19
ENDBRANCH   1  18
TORSDOF 12
ENDMDL
MODEL 3
REMARK VINA RESULT:    -5.810      3.265      8.130
REMARK INTER + INTRA:         -10.589
REMARK INTER:                  -9.898
REMARK INTRA:                  -0.691
REMARK UNBOUND:                -0.874
REMARK SMILES COc1cc(CNC(=O)CCCCCCCC(C)C)ccc1O
REMARK SMILES IDX 11 1 10 2 8 3 9 4 7 5 6 7 5 8 4 9 20 10 3 11 21 12 22 13
REMARK SMILES IDX 2 14 1 15 23 16 12 18 13 19 14 20 15 21 16 22 17 23 18 24
REMARK SMILES IDX 19 25
REMARK H PARENT 7 6 23 17
REMARK Flexibility Score: inf
ROOT
ATOM      1  C   UNL     1      92.973 101.203  73.260  1.00  0.00     0.010 C 
ENDROOT
BRANCH   1   2
ATOM      2  C   UNL     1      92.528 100.262  74.378  1.00  0.00     0.100 C 
BRANCH   2   3
ATOM      3  C   UNL     1      93.682  99.456  74.949  1.00  0.00     0.220 C 
ATOM      4  O   UNL     1      94.750  99.956  75.289  1.00  0.00    -0.275 OA
ATOM      5  N   UNL     1      93.373  98.106  75.023  1.00  0.00    -0.352 N 
ATOM      6  H   UNL     1      92.463  97.781  74.705  1.00  0.00     0.163 HD
BRANCH   5   7
ATOM      7  C   UNL     1      94.300  97.116  75.522  1.00  0.00     0.151 C 
BRANCH   7   8
ATOM      8  C   UNL     1      93.656  96.196  76.518  1.00  0.00    -0.025 A 
ATOM      9  C   UNL     1      92.291  96.291  76.759  1.00  0.00     0.056 A 
ATOM     10  C   UNL     1      94.433  95.261  77.191  1.00  0.00     0.009 A 
ATOM     11  C   UNL     1      91.693  95.436  77.685  1.00  0.00     0.160 A 
ATOM     12  C   UNL     1      93.834  94.406  78.118  1.00  0.00     0.050 A 
ATOM     13  C   UNL     1      92.465  94.494  78.366  1.00  0.00     0.157 A 
BRANCH  11  14
ATOM     14  O   UNL     1      90.354  95.532  77.919  1.00  0.00    -0.493 OA
ATOM     15  C   UNL     1      89.490  94.811  77.042  1.00  0.00     0.278 C 
ENDBRANCH  11  14
BRANCH  13  16
ATOM     16  O   UNL     1      91.893  93.654  79.272  1.00  0.00    -0.504 OA
ATOM     17  H   UNL     1      92.557  93.009  79.569  1.00  0.00     0.293 HD
ENDBRANCH  13  16
ENDBRANCH   7   8
ENDBRANCH   5   7
ENDBRANCH   2   3
ENDBRANCH   1   2
BRANCH   1  18
ATOM     18  C   UNL     1      93.643 100.483  72.087  1.00  0.00     0.001 C 
BRANCH  18  19
ATOM     19  C   UNL     1      92.694  99.818  71.085  1.00  0.00     0.000 C 
BRANCH  19  20
ATOM     20  C   UNL     1      91.218 100.124  71.355  1.00  0.00     0.000 C 
BRANCH  20  21
ATOM     21  C   UNL     1      90.266  99.040  70.839  1.00  0.00     0.000 C 
BRANCH  21  22
ATOM     22  C   UNL     1      88.931  99.597  70.332  1.00  0.00     0.003 C 
BRANCH  22  23
ATOM     23  C   UNL     1      88.532  99.065  68.942  1.00  0.00    -0.017 C 
ATOM     24  C   UNL     1      89.179  97.698  68.706  1.00  0.00     0.007 C 
ATOM     25  C   UNL     1      88.925 100.021  67.814  1.00  0.00     0.007 C 
ENDBRANCH  22  23
ENDBRANCH  21  22
ENDBRANCH  20  21
ENDBRANCH  19  20
ENDBRANCH  18  19
ENDBRANCH   1  18
TORSDOF 12
ENDMDL
MODEL 4
REMARK VINA RESULT:    -5.693     30.500     33.066
REMARK INTER + INTRA:         -10.395
REMARK INTER:                  -8.567
REMARK INTRA:                  -1.828
REMARK UNBOUND:                -0.874
REMARK SMILES COc1cc(CNC(=O)CCCCCCCC(C)C)ccc1O
REMARK SMILES IDX 11 1 10 2 8 3 9 4 7 5 6 7 5 8 4 9 20 10 3 11 21 12 22 13
REMARK SMILES IDX 2 14 1 15 23 16 12 18 13 19 14 20 15 21 16 22 17 23 18 24
REMARK SMILES IDX 19 25
REMARK H PARENT 7 6 23 17
REMARK Flexibility Score: inf
ROOT
ATOM      1  C   UNL     1      61.748  85.250  76.001  1.00  0.00     0.010 C 
ENDROOT
BRANCH   1   2
ATOM      2  C   UNL     1      62.898  84.504  76.675  1.00  0.00     0.100 C 
BRANCH   2   3
ATOM      3  C   UNL     1      63.363  83.305  75.864  1.00  0.00     0.220 C 
ATOM      4  O   UNL     1      64.475  82.800  75.988  1.00  0.00    -0.275 OA
ATOM      5  N   UNL     1      62.384  82.877  74.980  1.00  0.00    -0.352 N 
ATOM      6  H   UNL     1      61.495  83.366  74.940  1.00  0.00     0.163 HD
BRANCH   5   7
ATOM      7  C   UNL     1      62.573  81.758  74.085  1.00  0.00     0.151 C 
BRANCH   7   8
ATOM      8  C   UNL     1      63.355  82.144  72.863  1.00  0.00    -0.025 A 
ATOM      9  C   UNL     1      63.172  83.399  72.297  1.00  0.00     0.056 A 
ATOM     10  C   UNL     1      64.255  81.240  72.311  1.00  0.00     0.009 A 
ATOM     11  C   UNL     1      63.899  83.757  71.161  1.00  0.00     0.160 A 
ATOM     12  C   UNL     1      64.981  81.598  71.174  1.00  0.00     0.050 A 
ATOM     13  C   UNL     1      64.804  82.856  70.599  1.00  0.00     0.157 A 
BRANCH  11  14
ATOM     14  O   UNL     1      63.717  84.989  70.609  1.00  0.00    -0.493 OA
ATOM     15  C   UNL     1      64.353  86.090  71.255  1.00  0.00     0.278 C 
ENDBRANCH  11  14
BRANCH  13  16
ATOM     16  O   UNL     1      65.520  83.193  69.491  1.00  0.00    -0.504 OA
ATOM     17  H   UNL     1      66.432  83.406  69.756  1.00  0.00     0.293 HD
ENDBRANCH  13  16
ENDBRANCH   7   8
ENDBRANCH   5   7
ENDBRANCH   2   3
ENDBRANCH   1   2
BRANCH   1  18
ATOM     18  C   UNL     1      62.213  86.323  75.013  1.00  0.00     0.001 C 
BRANCH  18  19
ATOM     19  C   UNL     1      61.406  86.423  73.714  1.00  0.00     0.000 C 
BRANCH  19  20
ATOM     20  C   UNL     1      60.079  85.662  73.765  1.00  0.00     0.000 C 
BRANCH  20  21
ATOM     21  C   UNL     1      59.946  84.594  72.674  1.00  0.00     0.000 C 
BRANCH  21  22
ATOM     22  C   UNL     1      58.642  84.701  71.876  1.00  0.00     0.003 C 
BRANCH  22  23
ATOM     23  C   UNL     1      58.833  85.291  70.465  1.00  0.00    -0.017 C 
ATOM     24  C   UNL     1      60.213  84.906  69.925  1.00  0.00     0.007 C 
ATOM     25  C   UNL     1      58.679  86.812  70.440  1.00  0.00     0.007 C 
ENDBRANCH  22  23
ENDBRANCH  21  22
ENDBRANCH  20  21
ENDBRANCH  19  20
ENDBRANCH  18  19
ENDBRANCH   1  18
TORSDOF 12
ENDMDL
MODEL 5
REMARK VINA RESULT:    -5.558     16.166     19.168
REMARK INTER + INTRA:         -10.169
REMARK INTER:                  -9.137
REMARK INTRA:                  -1.032
REMARK UNBOUND:                -0.874
REMARK SMILES COc1cc(CNC(=O)CCCCCCCC(C)C)ccc1O
REMARK SMILES IDX 11 1 10 2 8 3 9 4 7 5 6 7 5 8 4 9 20 10 3 11 21 12 22 13
REMARK SMILES IDX 2 14 1 15 23 16 12 18 13 19 14 20 15 21 16 22 17 23 18 24
REMARK SMILES IDX 19 25
REMARK H PARENT 7 6 23 17
REMARK Flexibility Score: inf
ROOT
ATOM      1  C   UNL     1      75.645  87.057  70.111  1.00  0.00     0.010 C 
ENDROOT
BRANCH   1   2
ATOM      2  C   UNL     1      74.650  87.962  70.836  1.00  0.00     0.100 C 
BRANCH   2   3
ATOM      3  C   UNL     1      74.839  89.428  70.485  1.00  0.00     0.220 C 
ATOM      4  O   UNL     1      75.328  89.809  69.425  1.00  0.00    -0.275 OA
ATOM      5  N   UNL     1      74.401  90.257  71.507  1.00  0.00    -0.352 N 
ATOM      6  H   UNL     1      74.020  89.849  72.356  1.00  0.00     0.163 HD
BRANCH   5   7
ATOM      7  C   UNL     1      74.475  91.698  71.432  1.00  0.00     0.151 C 
BRANCH   7   8
ATOM      8  C   UNL     1      75.406  92.267  72.464  1.00  0.00    -0.025 A 
ATOM      9  C   UNL     1      76.718  92.563  72.118  1.00  0.00     0.056 A 
ATOM     10  C   UNL     1      74.944  92.490  73.755  1.00  0.00     0.009 A 
ATOM     11  C   UNL     1      77.583  93.091  73.077  1.00  0.00     0.160 A 
ATOM     12  C   UNL     1      75.809  93.018  74.715  1.00  0.00     0.050 A 
ATOM     13  C   UNL     1      77.128  93.319  74.376  1.00  0.00     0.157 A 
BRANCH  11  14
ATOM     14  O   UNL     1      78.869  93.380  72.733  1.00  0.00    -0.493 OA
ATOM     15  C   UNL     1      79.112  94.658  72.147  1.00  0.00     0.278 C 
ENDBRANCH  11  14
BRANCH  13  16
ATOM     16  O   UNL     1      77.962  93.834  75.321  1.00  0.00    -0.504 OA
ATOM     17  H   UNL     1      78.625  93.163  75.559  1.00  0.00     0.293 HD
ENDBRANCH  13  16
ENDBRANCH   7   8
ENDBRANCH   5   7
ENDBRANCH   2   3
ENDBRANCH   1   2
BRANCH   1  18
ATOM     18  C   UNL     1      75.491  85.575  70.464  1.00  0.00     0.001 C 
BRANCH  18  19
ATOM     19  C   UNL     1      76.787  84.757  70.473  1.00  0.00     0.000 C 
BRANCH  19  20
ATOM     20  C   UNL     1      77.926  85.418  69.692  1.00  0.00     0.000 C 
BRANCH  20  21
ATOM     21  C   UNL     1      78.245  84.715  68.368  1.00  0.00     0.000 C 
BRANCH  21  22
ATOM     22  C   UNL     1      77.623  85.406  67.150  1.00  0.00     0.003 C 
BRANCH  22  23
ATOM     23  C   UNL     1      76.777  84.462  66.273  1.00  0.00    -0.017 C 
ATOM     24  C   UNL     1      76.170  83.356  67.141  1.00  0.00     0.007 C 
ATOM     25  C   UNL     1      77.586  83.836  65.136  1.00  0.00     0.007 C 
ENDBRANCH  22  23
ENDBRANCH  21  22
ENDBRANCH  20  21
ENDBRANCH  19  20
ENDBRANCH  18  19
ENDBRANCH   1  18
TORSDOF 12
ENDMDL
MODEL 6
REMARK VINA RESULT:    -5.453     21.830     24.746
REMARK INTER + INTRA:          -9.992
REMARK INTER:                  -8.552
REMARK INTRA:                  -1.440
REMARK UNBOUND:                -0.874
REMARK SMILES COc1cc(CNC(=O)CCCCCCCC(C)C)ccc1O
REMARK SMILES IDX 11 1 10 2 8 3 9 4 7 5 6 7 5 8 4 9 20 10 3 11 21 12 22 13
REMARK SMILES IDX 2 14 1 15 23 16 12 18 13 19 14 20 15 21 16 22 17 23 18 24
REMARK SMILES IDX 19 25
REMARK H PARENT 7 6 23 17
REMARK Flexibility Score: inf
ROOT
ATOM      1  C   UNL     1      76.544  83.432  64.468  1.00  0.00     0.010 C 
ENDROOT
BRANCH   1   2
ATOM      2  C   UNL     1      76.809  82.052  65.066  1.00  0.00     0.100 C 
BRANCH   2   3
ATOM      3  C   UNL     1      75.536  81.377  65.550  1.00  0.00     0.220 C 
ATOM      4  O   UNL     1      75.298  81.158  66.734  1.00  0.00    -0.275 OA
ATOM      5  N   UNL     1      74.704  81.042  64.492  1.00  0.00    -0.352 N 
ATOM      6  H   UNL     1      74.992  81.253  63.540  1.00  0.00     0.163 HD
BRANCH   5   7
ATOM      7  C   UNL     1      73.432  80.381  64.675  1.00  0.00     0.151 C 
BRANCH   7   8
ATOM      8  C   UNL     1      72.292  81.357  64.709  1.00  0.00    -0.025 A 
ATOM      9  C   UNL     1      71.981  82.011  65.895  1.00  0.00     0.056 A 
ATOM     10  C   UNL     1      71.559  81.597  63.553  1.00  0.00     0.009 A 
ATOM     11  C   UNL     1      70.922  82.918  65.926  1.00  0.00     0.160 A 
ATOM     12  C   UNL     1      70.499  82.504  63.584  1.00  0.00     0.050 A 
ATOM     13  C   UNL     1      70.180  83.164  64.771  1.00  0.00     0.157 A 
BRANCH  11  14
ATOM     14  O   UNL     1      70.620  83.556  67.091  1.00  0.00    -0.493 OA
ATOM     15  C   UNL     1      69.894  82.811  68.069  1.00  0.00     0.278 C 
ENDBRANCH  11  14
BRANCH  13  16
ATOM     16  O   UNL     1      69.144  84.048  64.788  1.00  0.00    -0.504 OA
ATOM     17  H   UNL     1      69.410  84.838  65.290  1.00  0.00     0.293 HD
ENDBRANCH  13  16
ENDBRANCH   7   8
ENDBRANCH   5   7
ENDBRANCH   2   3
ENDBRANCH   1   2
BRANCH   1  18
ATOM     18  C   UNL     1      77.089  84.582  65.319  1.00  0.00     0.001 C 
BRANCH  18  19
ATOM     19  C   UNL     1      76.036  85.503  65.945  1.00  0.00     0.000 C 
BRANCH  19  20
ATOM     20  C   UNL     1      75.018  84.757  66.811  1.00  0.00     0.000 C 
BRANCH  20  21
ATOM     21  C   UNL     1      75.309  84.851  68.312  1.00  0.00     0.000 C 
BRANCH  21  22
ATOM     22  C   UNL     1      76.441  83.925  68.770  1.00  0.00     0.003 C 
BRANCH  22  23
ATOM     23  C   UNL     1      77.126  84.388  70.070  1.00  0.00    -0.017 C 
ATOM     24  C   UNL     1      76.138  84.299  71.236  1.00  0.00     0.007 C 
ATOM     25  C   UNL     1      77.674  85.813  69.969  1.00  0.00     0.007 C 
ENDBRANCH  22  23
ENDBRANCH  21  22
ENDBRANCH  20  21
ENDBRANCH  19  20
ENDBRANCH  18  19
ENDBRANCH   1  18
TORSDOF 12
ENDMDL
MODEL 7
REMARK VINA RESULT:    -5.427     20.915     24.008
REMARK INTER + INTRA:          -9.949
REMARK INTER:                  -8.282
REMARK INTRA:                  -1.667
REMARK UNBOUND:                -0.874
REMARK SMILES COc1cc(CNC(=O)CCCCCCCC(C)C)ccc1O
REMARK SMILES IDX 11 1 10 2 8 3 9 4 7 5 6 7 5 8 4 9 20 10 3 11 21 12 22 13
REMARK SMILES IDX 2 14 1 15 23 16 12 18 13 19 14 20 15 21 16 22 17 23 18 24
REMARK SMILES IDX 19 25
REMARK H PARENT 7 6 23 17
REMARK Flexibility Score: inf
ROOT
ATOM      1  C   UNL     1      70.806  84.589  67.671  1.00  0.00     0.010 C 
ENDROOT
BRANCH   1   2
ATOM      2  C   UNL     1      70.336  83.176  67.335  1.00  0.00     0.100 C 
BRANCH   2   3
ATOM      3  C   UNL     1      71.049  82.602  66.122  1.00  0.00     0.220 C 
ATOM      4  O   UNL     1      70.570  82.615  64.991  1.00  0.00    -0.275 OA
ATOM      5  N   UNL     1      72.282  82.067  66.461  1.00  0.00    -0.352 N 
ATOM      6  H   UNL     1      72.591  82.092  67.429  1.00  0.00     0.163 HD
BRANCH   5   7
ATOM      7  C   UNL     1      73.161  81.450  65.494  1.00  0.00     0.151 C 
BRANCH   7   8
ATOM      8  C   UNL     1      74.537  82.049  65.523  1.00  0.00    -0.025 A 
ATOM      9  C   UNL     1      74.726  83.358  65.095  1.00  0.00     0.056 A 
ATOM     10  C   UNL     1      75.608  81.289  65.978  1.00  0.00     0.009 A 
ATOM     11  C   UNL     1      76.005  83.914  65.122  1.00  0.00     0.160 A 
ATOM     12  C   UNL     1      76.887  81.846  66.004  1.00  0.00     0.050 A 
ATOM     13  C   UNL     1      77.086  83.159  65.576  1.00  0.00     0.157 A 
BRANCH  11  14
ATOM     14  O   UNL     1      76.186  85.197  64.700  1.00  0.00    -0.493 OA
ATOM     15  C   UNL     1      75.379  86.201  65.314  1.00  0.00     0.278 C 
ENDBRANCH  11  14
BRANCH  13  16
ATOM     16  O   UNL     1      78.339  83.691  65.607  1.00  0.00    -0.504 OA
ATOM     17  H   UNL     1      78.489  84.097  66.479  1.00  0.00     0.293 HD
ENDBRANCH  13  16
ENDBRANCH   7   8
ENDBRANCH   5   7
ENDBRANCH   2   3
ENDBRANCH   1   2
BRANCH   1  18
ATOM     18  C   UNL     1      71.014  84.823  69.170  1.00  0.00     0.001 C 
BRANCH  18  19
ATOM     19  C   UNL     1      72.467  85.012  69.618  1.00  0.00     0.000 C 
BRANCH  19  20
ATOM     20  C   UNL     1      73.391  85.482  68.491  1.00  0.00     0.000 C 
BRANCH  20  21
ATOM     21  C   UNL     1      74.828  85.751  68.953  1.00  0.00     0.000 C 
BRANCH  21  22
ATOM     22  C   UNL     1      75.757  84.546  68.776  1.00  0.00     0.003 C 
BRANCH  22  23
ATOM     23  C   UNL     1      76.743  84.354  69.945  1.00  0.00    -0.017 C 
ATOM     24  C   UNL     1      75.974  84.302  71.268  1.00  0.00     0.007 C 
ATOM     25  C   UNL     1      77.799  85.459  70.008  1.00  0.00     0.007 C 
ENDBRANCH  22  23
ENDBRANCH  21  22
ENDBRANCH  20  21
ENDBRANCH  19  20
ENDBRANCH  18  19
ENDBRANCH   1  18
TORSDOF 12
ENDMDL
MODEL 8
REMARK VINA RESULT:    -5.426     15.640     18.763
REMARK INTER + INTRA:          -9.948
REMARK INTER:                  -8.798
REMARK INTRA:                  -1.150
REMARK UNBOUND:                -0.874
REMARK SMILES COc1cc(CNC(=O)CCCCCCCC(C)C)ccc1O
REMARK SMILES IDX 11 1 10 2 8 3 9 4 7 5 6 7 5 8 4 9 20 10 3 11 21 12 22 13
REMARK SMILES IDX 2 14 1 15 23 16 12 18 13 19 14 20 15 21 16 22 17 23 18 24
REMARK SMILES IDX 19 25
REMARK H PARENT 7 6 23 17
REMARK Flexibility Score: inf
ROOT
ATOM      1  C   UNL     1      75.599  86.922  70.124  1.00  0.00     0.010 C 
ENDROOT
BRANCH   1   2
ATOM      2  C   UNL     1      74.844  88.019  70.872  1.00  0.00     0.100 C 
BRANCH   2   3
ATOM      3  C   UNL     1      74.836  89.336  70.115  1.00  0.00     0.220 C 
ATOM      4  O   UNL     1      74.772  89.410  68.891  1.00  0.00    -0.275 OA
ATOM      5  N   UNL     1      74.916  90.420  70.977  1.00  0.00    -0.352 N 
ATOM      6  H   UNL     1      74.977  90.261  71.979  1.00  0.00     0.163 HD
BRANCH   5   7
ATOM      7  C   UNL     1      74.935  91.789  70.515  1.00  0.00     0.151 C 
BRANCH   7   8
ATOM      8  C   UNL     1      76.024  92.587  71.170  1.00  0.00    -0.025 A 
ATOM      9  C   UNL     1      76.044  93.970  71.027  1.00  0.00     0.056 A 
ATOM     10  C   UNL     1      77.002  91.936  71.912  1.00  0.00     0.009 A 
ATOM     11  C   UNL     1      77.057  94.711  71.636  1.00  0.00     0.160 A 
ATOM     12  C   UNL     1      78.015  92.679  72.520  1.00  0.00     0.050 A 
ATOM     13  C   UNL     1      78.043  94.066  72.382  1.00  0.00     0.157 A 
BRANCH  11  14
ATOM     14  O   UNL     1      77.073  96.066  71.493  1.00  0.00    -0.493 OA
ATOM     15  C   UNL     1      76.835  96.583  70.184  1.00  0.00     0.278 C 
ENDBRANCH  11  14
BRANCH  13  16
ATOM     16  O   UNL     1      79.036  94.779  72.982  1.00  0.00    -0.504 OA
ATOM     17  H   UNL     1      79.674  95.064  72.305  1.00  0.00     0.293 HD
ENDBRANCH  13  16
ENDBRANCH   7   8
ENDBRANCH   5   7
ENDBRANCH   2   3
ENDBRANCH   1   2
BRANCH   1  18
ATOM     18  C   UNL     1      75.389  85.525  70.713  1.00  0.00     0.001 C 
BRANCH  18  19
ATOM     19  C   UNL     1      76.451  84.483  70.347  1.00  0.00     0.000 C 
BRANCH  19  20
ATOM     20  C   UNL     1      77.654  85.078  69.610  1.00  0.00     0.000 C 
BRANCH  20  21
ATOM     21  C   UNL     1      78.039  84.304  68.345  1.00  0.00     0.000 C 
BRANCH  21  22
ATOM     22  C   UNL     1      78.038  85.170  67.080  1.00  0.00     0.003 C 
BRANCH  22  23
ATOM     23  C   UNL     1      76.932  86.244  67.072  1.00  0.00    -0.017 C 
ATOM     24  C   UNL     1      75.727  85.738  66.276  1.00  0.00     0.007 C 
ATOM     25  C   UNL     1      77.411  87.574  66.489  1.00  0.00     0.007 C 
ENDBRANCH  22  23
ENDBRANCH  21  22
ENDBRANCH  20  21
ENDBRANCH  19  20
ENDBRANCH  18  19
ENDBRANCH   1  18
TORSDOF 12
ENDMDL
MODEL 9
REMARK VINA RESULT:    -5.404     17.263     19.440
REMARK INTER + INTRA:          -9.911
REMARK INTER:                  -8.005
REMARK INTRA:                  -1.906
REMARK UNBOUND:                -0.874
REMARK SMILES COc1cc(CNC(=O)CCCCCCCC(C)C)ccc1O
REMARK SMILES IDX 11 1 10 2 8 3 9 4 7 5 6 7 5 8 4 9 20 10 3 11 21 12 22 13
REMARK SMILES IDX 2 14 1 15 23 16 12 18 13 19 14 20 15 21 16 22 17 23 18 24
REMARK SMILES IDX 19 25
REMARK H PARENT 7 6 23 17
REMARK Flexibility Score: inf
ROOT
ATOM      1  C   UNL     1      99.701  82.158  80.598  1.00  0.00     0.010 C 
ENDROOT
BRANCH   1   2
ATOM      2  C   UNL     1      98.576  83.189  80.653  1.00  0.00     0.100 C 
BRANCH   2   3
ATOM      3  C   UNL     1      97.925  83.408  79.297  1.00  0.00     0.220 C 
ATOM      4  O   UNL     1      96.713  83.348  79.114  1.00  0.00    -0.275 OA
ATOM      5  N   UNL     1      98.869  83.672  78.315  1.00  0.00    -0.352 N 
ATOM      6  H   UNL     1      99.856  83.691  78.560  1.00  0.00     0.163 HD
BRANCH   5   7
ATOM      7  C   UNL     1      98.518  83.910  76.934  1.00  0.00     0.151 C 
BRANCH   7   8
ATOM      8  C   UNL     1      99.622  83.514  75.998  1.00  0.00    -0.025 A 
ATOM      9  C   UNL     1     100.477  84.486  75.493  1.00  0.00     0.056 A 
ATOM     10  C   UNL     1      99.776  82.179  75.644  1.00  0.00     0.009 A 
ATOM     11  C   UNL     1     101.503  84.118  74.623  1.00  0.00     0.160 A 
ATOM     12  C   UNL     1     100.802  81.811  74.773  1.00  0.00     0.050 A 
ATOM     13  C   UNL     1     101.666  82.780  74.262  1.00  0.00     0.157 A 
BRANCH  11  14
ATOM     14  O   UNL     1     102.340  85.074  74.130  1.00  0.00    -0.493 OA
ATOM     15  C   UNL     1     103.455  85.440  74.941  1.00  0.00     0.278 C 
ENDBRANCH  11  14
BRANCH  13  16
ATOM     16  O   UNL     1     102.664  82.408  73.413  1.00  0.00    -0.504 OA
ATOM     17  H   UNL     1     102.338  82.463  72.498  1.00  0.00     0.293 HD
ENDBRANCH  13  16
ENDBRANCH   7   8
ENDBRANCH   5   7
ENDBRANCH   2   3
ENDBRANCH   1   2
BRANCH   1  18
ATOM     18  C   UNL     1      99.750  81.241  81.823  1.00  0.00     0.001 C 
BRANCH  18  19
ATOM     19  C   UNL     1     101.123  81.088  82.484  1.00  0.00     0.000 C 
BRANCH  19  20
ATOM     20  C   UNL     1     102.254  81.749  81.691  1.00  0.00     0.000 C 
BRANCH  20  21
ATOM     21  C   UNL     1     103.104  80.752  80.895  1.00  0.00     0.000 C 
BRANCH  21  22
ATOM     22  C   UNL     1     103.804  81.382  79.686  1.00  0.00     0.003 C 
BRANCH  22  23
ATOM     23  C   UNL     1     102.853  81.672  78.509  1.00  0.00    -0.017 C 
ATOM     24  C   UNL     1     101.988  80.441  78.226  1.00  0.00     0.007 C 
ATOM     25  C   UNL     1     103.600  82.078  77.238  1.00  0.00     0.007 C 
ENDBRANCH  22  23
ENDBRANCH  21  22
ENDBRANCH  20  21
ENDBRANCH  19  20
ENDBRANCH  18  19
ENDBRANCH   1  18
TORSDOF 12
ENDMDL
MODEL 10
REMARK VINA RESULT:    -5.400     18.025     20.928
REMARK INTER + INTRA:          -9.905
REMARK INTER:                  -9.247
REMARK INTRA:                  -0.658
REMARK UNBOUND:                -0.874
REMARK SMILES COc1cc(CNC(=O)CCCCCCCC(C)C)ccc1O
REMARK SMILES IDX 11 1 10 2 8 3 9 4 7 5 6 7 5 8 4 9 20 10 3 11 21 12 22 13
REMARK SMILES IDX 2 14 1 15 23 16 12 18 13 19 14 20 15 21 16 22 17 23 18 24
REMARK SMILES IDX 19 25
REMARK H PARENT 7 6 23 17
REMARK Flexibility Score: inf
ROOT
ATOM      1  C   UNL     1      75.695  88.140  70.446  1.00  0.00     0.010 C 
ENDROOT
BRANCH   1   2
ATOM      2  C   UNL     1      75.309  87.417  69.158  1.00  0.00     0.100 C 
BRANCH   2   3
ATOM      3  C   UNL     1      76.481  86.673  68.539  1.00  0.00     0.220 C 
ATOM      4  O   UNL     1      77.485  87.235  68.109  1.00  0.00    -0.275 OA
ATOM      5  N   UNL     1      76.263  85.303  68.521  1.00  0.00    -0.352 N 
ATOM      6  H   UNL     1      75.394  84.928  68.891  1.00  0.00     0.163 HD
BRANCH   5   7
ATOM      7  C   UNL     1      77.219  84.365  67.979  1.00  0.00     0.151 C 
BRANCH   7   8
ATOM      8  C   UNL     1      76.575  83.391  67.035  1.00  0.00    -0.025 A 
ATOM      9  C   UNL     1      75.197  83.212  67.066  1.00  0.00     0.056 A 
ATOM     10  C   UNL     1      77.364  82.678  66.140  1.00  0.00     0.009 A 
ATOM     11  C   UNL     1      74.600  82.306  66.189  1.00  0.00     0.160 A 
ATOM     12  C   UNL     1      76.766  81.772  65.264  1.00  0.00     0.050 A 
ATOM     13  C   UNL     1      75.384  81.586  65.288  1.00  0.00     0.157 A 
BRANCH  11  14
ATOM     14  O   UNL     1      73.249  82.133  66.223  1.00  0.00    -0.493 OA
ATOM     15  C   UNL     1      72.456  83.276  66.542  1.00  0.00     0.278 C 
ENDBRANCH  11  14
BRANCH  13  16
ATOM     16  O   UNL     1      74.812  80.700  64.426  1.00  0.00    -0.504 OA
ATOM     17  H   UNL     1      74.654  79.861  64.894  1.00  0.00     0.293 HD
ENDBRANCH  13  16
ENDBRANCH   7   8
ENDBRANCH   5   7
ENDBRANCH   2   3
ENDBRANCH   1   2
BRANCH   1  18
ATOM     18  C   UNL     1      75.584  89.664  70.347  1.00  0.00     0.001 C 
BRANCH  18  19
ATOM     19  C   UNL     1      74.637  90.329  71.352  1.00  0.00     0.000 C 
BRANCH  19  20
ATOM     20  C   UNL     1      74.799  91.850  71.421  1.00  0.00     0.000 C 
BRANCH  20  21
ATOM     21  C   UNL     1      75.832  92.307  72.457  1.00  0.00     0.000 C 
BRANCH  21  22
ATOM     22  C   UNL     1      77.229  92.522  71.866  1.00  0.00     0.003 C 
BRANCH  22  23
ATOM     23  C   UNL     1      78.279  92.947  72.911  1.00  0.00    -0.017 C 
ATOM     24  C   UNL     1      77.612  93.107  74.279  1.00  0.00     0.007 C 
ATOM     25  C   UNL     1      78.991  94.246  72.532  1.00  0.00     0.007 C 
ENDBRANCH  22  23
ENDBRANCH  21  22
ENDBRANCH  20  21
ENDBRANCH  19  20
ENDBRANCH  18  19
ENDBRANCH   1  18
TORSDOF 12
ENDMDL
