MODEL 1
REMARK VINA RESULT:    -6.762      0.000      0.000
REMARK INTER + INTRA:         -13.474
REMARK INTER:                 -11.505
REMARK INTRA:                  -1.968
REMARK UNBOUND:                -1.968
REMARK SMILES C=C(C)[C@]12C[C@@H](C)[C@@]34O[C@](Cc5ccccc5)(O[C@@H]1[C@@H]3C=C(COC(=O)Cc1ccc(O)cc1)C[C@]1(O)C(=O)C(C)=C[C@@H]41)O2
REMARK SMILES IDX 23 1 22 2 21 3 20 4 9 5 8 6 10 7 6 8 18 10 44 11 19 12 5 13
REMARK SMILES IDX 7 14 4 15 11 16 12 17 13 18 17 19 14 20 16 21 15 22 2 23
REMARK SMILES IDX 3 24 1 25 35 26 36 27 43 28 38 29 42 30 39 32 40 33 41 34
REMARK SMILES IDX 37 35 24 37 25 38 26 39 27 40 28 41 29 42 34 43 30 44 33 45
REMARK SMILES IDX 31 46 32 47
REMARK H PARENT 37 36 32 48
REMARK Flexibility Score: 90.00
ROOT
ATOM      1  C   UNL     1      66.074  87.123  73.666  1.00  0.00     0.264 C 
ENDROOT
BRANCH   1   2
ATOM      2  C   UNL     1      64.720  87.014  73.002  1.00  0.00    -0.033 C 
ATOM      3  C   UNL     1      64.411  85.895  72.315  1.00  0.00    -0.015 C 
BRANCH   3   4
ATOM      4  C   UNL     1      63.166  85.573  71.505  1.00  0.00     0.078 C 
ATOM      5  O   UNL     1      61.609  84.388  73.017  1.00  0.00    -0.319 OA
ATOM      6  C   UNL     1      61.771  85.609  72.230  1.00  0.00     0.095 CG0
ATOM      7  C   UNL     1      62.034  83.176  72.365  1.00  0.00     0.289 C 
ATOM      8  C   UNL     1      60.650  85.664  71.112  1.00  0.00     0.023 C 
ATOM      9  G   UNL     1      61.723  86.757  73.281  1.00  0.00     0.000 G0
ATOM     10  O   UNL     1      63.402  83.250  71.974  1.00  0.00    -0.320 OA
ATOM     11  O   UNL     1      61.305  82.920  71.167  1.00  0.00    -0.313 OA
ATOM     12  C   UNL     1      63.299  84.166  70.872  1.00  0.00     0.170 C 
ATOM     13  C   UNL     1      61.077  84.878  69.835  1.00  0.00     0.049 C 
ATOM     14  C   UNL     1      59.252  85.199  71.553  1.00  0.00     0.011 C 
ATOM     15  C   UNL     1      61.997  83.704  70.174  1.00  0.00     0.122 C 
BRANCH   7  16
ATOM     16  C   UNL     1      61.838  82.024  73.331  1.00  0.00     0.135 C 
BRANCH  16  17
ATOM     17  C   UNL     1      63.149  81.500  73.861  1.00  0.00    -0.040 A 
ATOM     18  C   UNL     1      64.013  80.801  73.020  1.00  0.00     0.004 A 
ATOM     19  C   UNL     1      63.497  81.717  75.194  1.00  0.00     0.004 A 
ATOM     20  C   UNL     1      65.226  80.317  73.511  1.00  0.00     0.000 A 
ATOM     21  C   UNL     1      64.710  81.233  75.686  1.00  0.00     0.000 A 
ATOM     22  C   UNL     1      65.574  80.533  74.844  1.00  0.00     0.000 A 
ENDBRANCH  16  17
ENDBRANCH   7  16
BRANCH  15  23
ATOM     23  C   UNL     1      62.272  82.831  68.993  1.00  0.00    -0.046 C 
ATOM     24  C   UNL     1      61.732  83.308  67.677  1.00  0.00     0.042 C 
ATOM     25  C   UNL     1      62.963  81.687  69.103  1.00  0.00     0.010 C 
ENDBRANCH  15  23
ENDBRANCH   3   4
BRANCH   2  26
ATOM     26  C   UNL     1      63.851  88.239  73.218  1.00  0.00     0.078 C 
BRANCH  26  27
ATOM     27  C   UNL     1      62.379  88.127  72.826  1.00  0.00     0.140 C 
ATOM     28  C   UNL     1      61.756  86.787  73.270  1.00  0.00     0.086 CG0
ATOM     29  C   UNL     1      61.510  89.141  73.541  1.00  0.00     0.190 C 
ATOM     30  C   UNL     1      60.447  87.195  73.885  1.00  0.00    -0.010 C 
ATOM     31  G   UNL     1      61.781  85.639  72.219  1.00  0.00     0.000 G0
ATOM     32  O   UNL     1      61.745  90.337  73.629  1.00  0.00    -0.291 OA
ATOM     33  C   UNL     1      60.290  88.509  74.077  1.00  0.00    -0.008 C 
ATOM     34  C   UNL     1      59.186  89.251  74.720  1.00  0.00     0.048 C 
BRANCH  27  35
ATOM     35  O   UNL     1      62.184  88.422  71.453  1.00  0.00    -0.381 OA
ATOM     36  H   UNL     1      62.633  87.740  70.926  1.00  0.00     0.212 HD
ENDBRANCH  27  35
ENDBRANCH  26  27
ENDBRANCH   2  26
ENDBRANCH   1   2
BRANCH   1  37
ATOM     37  O   UNL     1      65.963  87.926  74.822  1.00  0.00    -0.461 OA
BRANCH  37  38
ATOM     38  C   UNL     1      66.256  87.314  76.018  1.00  0.00     0.310 C 
ATOM     39  O   UNL     1      66.932  87.804  76.912  1.00  0.00    -0.252 OA
BRANCH  38  40
ATOM     40  C   UNL     1      65.613  85.948  76.055  1.00  0.00     0.158 C 
BRANCH  40  41
ATOM     41  C   UNL     1      64.138  86.000  76.357  1.00  0.00    -0.037 A 
ATOM     42  C   UNL     1      63.353  84.857  76.202  1.00  0.00     0.008 A 
ATOM     43  C   UNL     1      63.557  87.191  76.792  1.00  0.00     0.008 A 
ATOM     44  C   UNL     1      61.987  84.906  76.481  1.00  0.00     0.046 A 
ATOM     45  C   UNL     1      62.191  87.240  77.072  1.00  0.00     0.046 A 
ATOM     46  C   UNL     1      61.406  86.098  76.916  1.00  0.00     0.115 A 
BRANCH  46  47
ATOM     47  O   UNL     1      60.073  86.145  77.188  1.00  0.00    -0.508 OA
ATOM     48  H   UNL     1      59.902  86.879  77.803  1.00  0.00     0.293 HD
ENDBRANCH  46  47
ENDBRANCH  40  41
ENDBRANCH  38  40
ENDBRANCH  37  38
ENDBRANCH   1  37
TORSDOF 10
ENDMDL
MODEL 2
REMARK VINA RESULT:    -6.747     31.313     35.354
REMARK INTER + INTRA:         -13.448
REMARK INTER:                 -12.864
REMARK INTRA:                  -0.585
REMARK UNBOUND:                -1.968
REMARK SMILES C=C(C)[C@]12C[C@@H](C)[C@@]34O[C@](Cc5ccccc5)(O[C@@H]1[C@@H]3C=C(COC(=O)Cc1ccc(O)cc1)C[C@]1(O)C(=O)C(C)=C[C@@H]41)O2
REMARK SMILES IDX 23 1 22 2 21 3 20 4 9 5 8 6 10 7 6 8 18 10 44 11 19 12 5 13
REMARK SMILES IDX 7 14 4 15 11 16 12 17 13 18 17 19 14 20 16 21 15 22 2 23
REMARK SMILES IDX 3 24 1 25 35 26 36 27 43 28 38 29 42 30 39 32 40 33 41 34
REMARK SMILES IDX 37 35 24 37 25 38 26 39 27 40 28 41 29 42 34 43 30 44 33 45
REMARK SMILES IDX 31 46 32 47
REMARK H PARENT 37 36 32 48
REMARK Flexibility Score: 90.00
ROOT
ATOM      1  C   UNL     1      93.069  99.696  72.151  1.00  0.00     0.264 C 
ENDROOT
BRANCH   1   2
ATOM      2  C   UNL     1      94.535  99.424  72.397  1.00  0.00    -0.033 C 
ATOM      3  C   UNL     1      94.919  98.901  73.580  1.00  0.00    -0.015 C 
BRANCH   3   4
ATOM      4  C   UNL     1      96.318  98.608  74.097  1.00  0.00     0.078 C 
ATOM      5  O   UNL     1      96.831  96.263  73.504  1.00  0.00    -0.319 OA
ATOM      6  C   UNL     1      97.239  97.645  73.262  1.00  0.00     0.095 CG0
ATOM      7  C   UNL     1      96.534  95.940  74.876  1.00  0.00     0.289 C 
ATOM      8  C   UNL     1      98.728  97.847  73.766  1.00  0.00     0.023 C 
ATOM      9  G   UNL     1      97.017  97.854  71.735  1.00  0.00     0.000 G0
ATOM     10  O   UNL     1      95.509  96.783  75.396  1.00  0.00    -0.320 OA
ATOM     11  O   UNL     1      97.658  96.128  75.732  1.00  0.00    -0.313 OA
ATOM     12  C   UNL     1      96.238  98.014  75.525  1.00  0.00     0.170 C 
ATOM     13  C   UNL     1      98.775  98.182  75.288  1.00  0.00     0.049 C 
ATOM     14  C   UNL     1      99.690  96.685  73.469  1.00  0.00     0.011 C 
ATOM     15  C   UNL     1      97.615  97.535  76.046  1.00  0.00     0.122 C 
BRANCH   7  16
ATOM     16  C   UNL     1      96.089  94.493  74.938  1.00  0.00     0.135 C 
BRANCH  16  17
ATOM     17  C   UNL     1      94.766  94.337  75.644  1.00  0.00    -0.040 A 
ATOM     18  C   UNL     1      94.733  94.027  77.004  1.00  0.00     0.004 A 
ATOM     19  C   UNL     1      93.575  94.503  74.937  1.00  0.00     0.004 A 
ATOM     20  C   UNL     1      93.508  93.883  77.657  1.00  0.00     0.000 A 
ATOM     21  C   UNL     1      92.351  94.359  75.591  1.00  0.00     0.000 A 
ATOM     22  C   UNL     1      92.318  94.049  76.950  1.00  0.00     0.000 A 
ENDBRANCH  16  17
ENDBRANCH   7  16
BRANCH  15  23
ATOM     23  C   UNL     1      97.739  97.691  77.527  1.00  0.00    -0.046 C 
ATOM     24  C   UNL     1      97.063  96.643  78.362  1.00  0.00     0.042 C 
ATOM     25  C   UNL     1      98.417  98.708  78.079  1.00  0.00     0.010 C 
ENDBRANCH  15  23
ENDBRANCH   3   4
BRANCH   2  26
ATOM     26  C   UNL     1      95.415  99.789  71.216  1.00  0.00     0.078 C 
BRANCH  26  27
ATOM     27  C   UNL     1      96.870  99.328  71.262  1.00  0.00     0.140 C 
ATOM     28  C   UNL     1      97.005  97.866  71.736  1.00  0.00     0.086 CG0
ATOM     29  C   UNL     1      97.508  99.285  69.889  1.00  0.00     0.190 C 
ATOM     30  C   UNL     1      97.973  97.267  70.753  1.00  0.00    -0.010 C 
ATOM     31  G   UNL     1      97.238  97.658  73.261  1.00  0.00     0.000 G0
ATOM     32  O   UNL     1      97.465 100.181  69.060  1.00  0.00    -0.291 OA
ATOM     33  C   UNL     1      98.254  98.028  69.691  1.00  0.00    -0.008 C 
ATOM     34  C   UNL     1      99.085  97.735  68.504  1.00  0.00     0.048 C 
BRANCH  27  35
ATOM     35  O   UNL     1      97.681 100.241  71.983  1.00  0.00    -0.381 OA
ATOM     36  H   UNL     1      97.117 100.964  72.304  1.00  0.00     0.212 HD
ENDBRANCH  27  35
ENDBRANCH  26  27
ENDBRANCH   2  26
ENDBRANCH   1   2
BRANCH   1  37
ATOM     37  O   UNL     1      92.927 100.954  71.526  1.00  0.00    -0.461 OA
BRANCH  37  38
ATOM     38  C   UNL     1      91.940 101.050  70.572  1.00  0.00     0.310 C 
ATOM     39  O   UNL     1      90.823 101.510  70.762  1.00  0.00    -0.252 OA
BRANCH  38  40
ATOM     40  C   UNL     1      92.451 100.501  69.262  1.00  0.00     0.158 C 
BRANCH  40  41
ATOM     41  C   UNL     1      91.482  99.554  68.603  1.00  0.00    -0.037 A 
ATOM     42  C   UNL     1      91.076  98.397  69.268  1.00  0.00     0.008 A 
ATOM     43  C   UNL     1      90.989  99.834  67.329  1.00  0.00     0.008 A 
ATOM     44  C   UNL     1      90.180  97.519  68.658  1.00  0.00     0.046 A 
ATOM     45  C   UNL     1      90.092  98.957  66.719  1.00  0.00     0.046 A 
ATOM     46  C   UNL     1      89.687  97.800  67.383  1.00  0.00     0.115 A 
BRANCH  46  47
ATOM     47  O   UNL     1      88.813  96.944  66.788  1.00  0.00    -0.508 OA
ATOM     48  H   UNL     1      88.083  97.457  66.401  1.00  0.00     0.293 HD
ENDBRANCH  46  47
ENDBRANCH  40  41
ENDBRANCH  38  40
ENDBRANCH  37  38
ENDBRANCH   1  37
TORSDOF 10
ENDMDL
MODEL 3
REMARK VINA RESULT:    -6.331     30.739     33.906
REMARK INTER + INTRA:         -12.742
REMARK INTER:                 -12.604
REMARK INTRA:                  -0.137
REMARK UNBOUND:                -1.968
REMARK SMILES C=C(C)[C@]12C[C@@H](C)[C@@]34O[C@](Cc5ccccc5)(O[C@@H]1[C@@H]3C=C(COC(=O)Cc1ccc(O)cc1)C[C@]1(O)C(=O)C(C)=C[C@@H]41)O2
REMARK SMILES IDX 23 1 22 2 21 3 20 4 9 5 8 6 10 7 6 8 18 10 44 11 19 12 5 13
REMARK SMILES IDX 7 14 4 15 11 16 12 17 13 18 17 19 14 20 16 21 15 22 2 23
REMARK SMILES IDX 3 24 1 25 35 26 36 27 43 28 38 29 42 30 39 32 40 33 41 34
REMARK SMILES IDX 37 35 24 37 25 38 26 39 27 40 28 41 29 42 34 43 30 44 33 45
REMARK SMILES IDX 31 46 32 47
REMARK H PARENT 37 36 32 48
REMARK Flexibility Score: 90.00
ROOT
ATOM      1  C   UNL     1      93.296  98.565  72.816  1.00  0.00     0.264 C 
ENDROOT
BRANCH   1   2
ATOM      2  C   UNL     1      93.206  99.969  72.264  1.00  0.00    -0.033 C 
ATOM      3  C   UNL     1      93.531 100.192  70.974  1.00  0.00    -0.015 C 
BRANCH   3   4
ATOM      4  C   UNL     1      93.597 101.504  70.208  1.00  0.00     0.078 C 
ATOM      5  O   UNL     1      91.390 101.828  69.142  1.00  0.00    -0.319 OA
ATOM      6  C   UNL     1      92.302 102.393  70.134  1.00  0.00     0.095 CG0
ATOM      7  C   UNL     1      92.009 101.381  67.921  1.00  0.00     0.289 C 
ATOM      8  C   UNL     1      92.742 103.844  69.674  1.00  0.00     0.023 C 
ATOM      9  G   UNL     1      91.509 102.329  71.472  1.00  0.00     0.000 G0
ATOM     10  O   UNL     1      93.014 100.404  68.178  1.00  0.00    -0.320 OA
ATOM     11  O   UNL     1      92.667 102.438  67.228  1.00  0.00    -0.313 OA
ATOM     12  C   UNL     1      94.035 101.238  68.747  1.00  0.00     0.170 C 
ATOM     13  C   UNL     1      93.959 103.791  68.699  1.00  0.00     0.049 C 
ATOM     14  C   UNL     1      91.630 104.707  69.054  1.00  0.00     0.011 C 
ATOM     15  C   UNL     1      93.960 102.509  67.865  1.00  0.00     0.122 C 
BRANCH   7  16
ATOM     16  C   UNL     1      90.933 100.788  67.033  1.00  0.00     0.135 C 
BRANCH  16  17
ATOM     17  C   UNL     1      90.623  99.357  67.396  1.00  0.00    -0.040 A 
ATOM     18  C   UNL     1      90.303  98.438  66.398  1.00  0.00     0.004 A 
ATOM     19  C   UNL     1      90.657  98.955  68.730  1.00  0.00     0.004 A 
ATOM     20  C   UNL     1      90.017  97.114  66.734  1.00  0.00     0.000 A 
ATOM     21  C   UNL     1      90.371  97.631  69.067  1.00  0.00     0.000 A 
ATOM     22  C   UNL     1      90.051  96.712  68.068  1.00  0.00     0.000 A 
ENDBRANCH  16  17
ENDBRANCH   7  16
BRANCH  15  23
ATOM     23  C   UNL     1      95.009 102.517  66.801  1.00  0.00    -0.046 C 
ATOM     24  C   UNL     1      94.891 103.595  65.765  1.00  0.00     0.042 C 
ATOM     25  C   UNL     1      95.999 101.613  66.774  1.00  0.00     0.010 C 
ENDBRANCH  15  23
ENDBRANCH   3   4
BRANCH   2  26
ATOM     26  C   UNL     1      92.731 100.983  73.288  1.00  0.00     0.078 C 
BRANCH  26  27
ATOM     27  C   UNL     1      92.350 102.369  72.773  1.00  0.00     0.140 C 
ATOM     28  C   UNL     1      91.517 102.302  71.477  1.00  0.00     0.086 CG0
ATOM     29  C   UNL     1      91.422 103.104  73.718  1.00  0.00     0.190 C 
ATOM     30  C   UNL     1      90.396 103.271  71.730  1.00  0.00    -0.010 C 
ATOM     31  G   UNL     1      92.315 102.389  70.143  1.00  0.00     0.000 G0
ATOM     32  O   UNL     1      91.590 103.227  74.922  1.00  0.00    -0.291 OA
ATOM     33  C   UNL     1      90.298 103.718  72.985  1.00  0.00    -0.008 C 
ATOM     34  C   UNL     1      89.288 104.601  73.605  1.00  0.00     0.048 C 
BRANCH  27  35
ATOM     35  O   UNL     1      93.482 103.218  72.683  1.00  0.00    -0.381 OA
ATOM     36  H   UNL     1      93.340 103.981  73.269  1.00  0.00     0.212 HD
ENDBRANCH  27  35
ENDBRANCH  26  27
ENDBRANCH   2  26
ENDBRANCH   1   2
BRANCH   1  37
ATOM     37  O   UNL     1      94.640  98.135  72.781  1.00  0.00    -0.461 OA
BRANCH  37  38
ATOM     38  C   UNL     1      95.289  98.069  73.992  1.00  0.00     0.310 C 
ATOM     39  O   UNL     1      95.329  98.971  74.818  1.00  0.00    -0.252 OA
BRANCH  38  40
ATOM     40  C   UNL     1      95.942  96.716  74.141  1.00  0.00     0.158 C 
BRANCH  40  41
ATOM     41  C   UNL     1      95.208  95.811  75.097  1.00  0.00    -0.037 A 
ATOM     42  C   UNL     1      93.844  95.574  74.924  1.00  0.00     0.008 A 
ATOM     43  C   UNL     1      95.891  95.212  76.154  1.00  0.00     0.008 A 
ATOM     44  C   UNL     1      93.163  94.737  75.809  1.00  0.00     0.046 A 
ATOM     45  C   UNL     1      95.211  94.374  77.039  1.00  0.00     0.046 A 
ATOM     46  C   UNL     1      93.848  94.137  76.867  1.00  0.00     0.115 A 
BRANCH  46  47
ATOM     47  O   UNL     1      93.184  93.322  77.731  1.00  0.00    -0.508 OA
ATOM     48  H   UNL     1      92.398  92.961  77.284  1.00  0.00     0.293 HD
ENDBRANCH  46  47
ENDBRANCH  40  41
ENDBRANCH  38  40
ENDBRANCH  37  38
ENDBRANCH   1  37
TORSDOF 10
ENDMDL
MODEL 4
REMARK VINA RESULT:    -6.255     29.517     33.367
REMARK INTER + INTRA:         -12.612
REMARK INTER:                 -12.264
REMARK INTRA:                  -0.348
REMARK UNBOUND:                -1.968
REMARK SMILES C=C(C)[C@]12C[C@@H](C)[C@@]34O[C@](Cc5ccccc5)(O[C@@H]1[C@@H]3C=C(COC(=O)Cc1ccc(O)cc1)C[C@]1(O)C(=O)C(C)=C[C@@H]41)O2
REMARK SMILES IDX 23 1 22 2 21 3 20 4 9 5 8 6 10 7 6 8 18 10 44 11 19 12 5 13
REMARK SMILES IDX 7 14 4 15 11 16 12 17 13 18 17 19 14 20 16 21 15 22 2 23
REMARK SMILES IDX 3 24 1 25 35 26 36 27 43 28 38 29 42 30 39 32 40 33 41 34
REMARK SMILES IDX 37 35 24 37 25 38 26 39 27 40 28 41 29 42 34 43 30 44 33 45
REMARK SMILES IDX 31 46 32 47
REMARK H PARENT 37 36 32 48
REMARK Flexibility Score: 90.00
ROOT
ATOM      1  C   UNL     1      96.000  81.683  84.143  1.00  0.00     0.264 C 
ENDROOT
BRANCH   1   2
ATOM      2  C   UNL     1      94.778  82.079  84.940  1.00  0.00    -0.033 C 
ATOM      3  C   UNL     1      93.635  81.380  84.785  1.00  0.00    -0.015 C 
BRANCH   3   4
ATOM      4  C   UNL     1      92.266  81.619  85.402  1.00  0.00     0.078 C 
ATOM      5  O   UNL     1      92.153  80.247  87.457  1.00  0.00    -0.319 OA
ATOM      6  C   UNL     1      92.143  81.625  86.970  1.00  0.00     0.095 CG0
ATOM      7  C   UNL     1      91.361  79.319  86.691  1.00  0.00     0.289 C 
ATOM      8  C   UNL     1      90.759  82.302  87.340  1.00  0.00     0.023 C 
ATOM      9  G   UNL     1      93.399  82.275  87.621  1.00  0.00     0.000 G0
ATOM     10  O   UNL     1      91.772  79.290  85.327  1.00  0.00    -0.320 OA
ATOM     11  O   UNL     1      89.980  79.673  86.670  1.00  0.00    -0.313 OA
ATOM     12  C   UNL     1      91.263  80.559  84.885  1.00  0.00     0.170 C 
ATOM     13  C   UNL     1      89.669  81.998  86.267  1.00  0.00     0.049 C 
ATOM     14  C   UNL     1      90.209  81.962  88.736  1.00  0.00     0.011 C 
ATOM     15  C   UNL     1      89.894  80.639  85.601  1.00  0.00     0.122 C 
BRANCH   7  16
ATOM     16  C   UNL     1      91.519  77.942  87.303  1.00  0.00     0.135 C 
BRANCH  16  17
ATOM     17  C   UNL     1      90.955  76.859  86.417  1.00  0.00    -0.040 A 
ATOM     18  C   UNL     1      89.661  76.386  86.630  1.00  0.00     0.004 A 
ATOM     19  C   UNL     1      91.730  76.333  85.384  1.00  0.00     0.004 A 
ATOM     20  C   UNL     1      89.140  75.385  85.809  1.00  0.00     0.000 A 
ATOM     21  C   UNL     1      91.208  75.332  84.563  1.00  0.00     0.000 A 
ATOM     22  C   UNL     1      89.914  74.858  84.776  1.00  0.00     0.000 A 
ENDBRANCH  16  17
ENDBRANCH   7  16
BRANCH  15  23
ATOM     23  C   UNL     1      88.766  80.247  84.703  1.00  0.00    -0.046 C 
ATOM     24  C   UNL     1      88.888  78.911  84.032  1.00  0.00     0.042 C 
ATOM     25  C   UNL     1      87.705  81.044  84.508  1.00  0.00     0.010 C 
ENDBRANCH  15  23
ENDBRANCH   3   4
BRANCH   2  26
ATOM     26  C   UNL     1      95.023  83.265  85.854  1.00  0.00     0.078 C 
BRANCH  26  27
ATOM     27  C   UNL     1      93.955  83.568  86.904  1.00  0.00     0.140 C 
ATOM     28  C   UNL     1      93.428  82.289  87.587  1.00  0.00     0.086 CG0
ATOM     29  C   UNL     1      94.500  84.360  88.073  1.00  0.00     0.190 C 
ATOM     30  C   UNL     1      93.428  82.647  89.047  1.00  0.00    -0.010 C 
ATOM     31  G   UNL     1      92.155  81.651  86.957  1.00  0.00     0.000 G0
ATOM     32  O   UNL     1      95.184  85.370  87.988  1.00  0.00    -0.291 OA
ATOM     33  C   UNL     1      94.048  83.790  89.356  1.00  0.00    -0.008 C 
ATOM     34  C   UNL     1      94.310  84.404  90.674  1.00  0.00     0.048 C 
BRANCH  27  35
ATOM     35  O   UNL     1      92.934  84.400  86.379  1.00  0.00    -0.381 OA
ATOM     36  H   UNL     1      93.336  85.241  86.102  1.00  0.00     0.212 HD
ENDBRANCH  27  35
ENDBRANCH  26  27
ENDBRANCH   2  26
ENDBRANCH   1   2
BRANCH   1  37
ATOM     37  O   UNL     1      96.087  82.491  82.989  1.00  0.00    -0.461 OA
BRANCH  37  38
ATOM     38  C   UNL     1      97.145  83.369  82.941  1.00  0.00     0.310 C 
ATOM     39  O   UNL     1      97.140  84.501  83.405  1.00  0.00    -0.252 OA
BRANCH  38  40
ATOM     40  C   UNL     1      98.307  82.719  82.228  1.00  0.00     0.158 C 
BRANCH  40  41
ATOM     41  C   UNL     1      97.919  82.109  80.907  1.00  0.00    -0.037 A 
ATOM     42  C   UNL     1      97.090  82.810  80.031  1.00  0.00     0.008 A 
ATOM     43  C   UNL     1      98.387  80.842  80.559  1.00  0.00     0.008 A 
ATOM     44  C   UNL     1      96.730  82.245  78.807  1.00  0.00     0.046 A 
ATOM     45  C   UNL     1      98.028  80.277  79.335  1.00  0.00     0.046 A 
ATOM     46  C   UNL     1      97.199  80.977  78.460  1.00  0.00     0.115 A 
BRANCH  46  47
ATOM     47  O   UNL     1      96.847  80.426  77.267  1.00  0.00    -0.508 OA
ATOM     48  H   UNL     1      96.076  80.903  76.913  1.00  0.00     0.293 HD
ENDBRANCH  46  47
ENDBRANCH  40  41
ENDBRANCH  38  40
ENDBRANCH  37  38
ENDBRANCH   1  37
TORSDOF 10
ENDMDL
MODEL 5
REMARK VINA RESULT:    -6.137      3.361      5.418
REMARK INTER + INTRA:         -12.411
REMARK INTER:                 -11.369
REMARK INTRA:                  -1.042
REMARK UNBOUND:                -1.968
REMARK SMILES C=C(C)[C@]12C[C@@H](C)[C@@]34O[C@](Cc5ccccc5)(O[C@@H]1[C@@H]3C=C(COC(=O)Cc1ccc(O)cc1)C[C@]1(O)C(=O)C(C)=C[C@@H]41)O2
REMARK SMILES IDX 23 1 22 2 21 3 20 4 9 5 8 6 10 7 6 8 18 10 44 11 19 12 5 13
REMARK SMILES IDX 7 14 4 15 11 16 12 17 13 18 17 19 14 20 16 21 15 22 2 23
REMARK SMILES IDX 3 24 1 25 35 26 36 27 43 28 38 29 42 30 39 32 40 33 41 34
REMARK SMILES IDX 37 35 24 37 25 38 26 39 27 40 28 41 29 42 34 43 30 44 33 45
REMARK SMILES IDX 31 46 32 47
REMARK H PARENT 37 36 32 48
REMARK Flexibility Score: 90.00
ROOT
ATOM      1  C   UNL     1      61.726  88.582  80.171  1.00  0.00     0.264 C 
ENDROOT
BRANCH   1   2
ATOM      2  C   UNL     1      61.993  88.633  78.684  1.00  0.00    -0.033 C 
ATOM      3  C   UNL     1      62.841  87.740  78.135  1.00  0.00    -0.015 C 
BRANCH   3   4
ATOM      4  C   UNL     1      63.330  87.628  76.700  1.00  0.00     0.078 C 
ATOM      5  O   UNL     1      61.831  86.031  75.551  1.00  0.00    -0.319 OA
ATOM      6  C   UNL     1      62.264  87.427  75.560  1.00  0.00     0.095 CG0
ATOM      7  C   UNL     1      62.882  85.059  75.713  1.00  0.00     0.289 C 
ATOM      8  C   UNL     1      62.967  87.766  74.182  1.00  0.00     0.023 C 
ATOM      9  G   UNL     1      60.968  88.233  75.866  1.00  0.00     0.000 G0
ATOM     10  O   UNL     1      63.601  85.272  76.925  1.00  0.00    -0.320 OA
ATOM     11  O   UNL     1      63.852  85.131  74.671  1.00  0.00    -0.313 OA
ATOM     12  C   UNL     1      64.335  86.457  76.576  1.00  0.00     0.170 C 
ATOM     13  C   UNL     1      64.477  87.378  74.199  1.00  0.00     0.049 C 
ATOM     14  C   UNL     1      62.300  87.163  72.933  1.00  0.00     0.011 C 
ATOM     15  C   UNL     1      64.743  86.178  75.109  1.00  0.00     0.122 C 
BRANCH   7  16
ATOM     16  C   UNL     1      62.255  83.679  75.724  1.00  0.00     0.135 C 
BRANCH  16  17
ATOM     17  C   UNL     1      63.107  82.664  75.003  1.00  0.00    -0.040 A 
ATOM     18  C   UNL     1      64.116  81.988  75.688  1.00  0.00     0.004 A 
ATOM     19  C   UNL     1      62.884  82.403  73.652  1.00  0.00     0.004 A 
ATOM     20  C   UNL     1      64.903  81.049  75.021  1.00  0.00     0.000 A 
ATOM     21  C   UNL     1      63.671  81.464  72.985  1.00  0.00     0.000 A 
ATOM     22  C   UNL     1      64.680  80.788  73.669  1.00  0.00     0.000 A 
ENDBRANCH  16  17
ENDBRANCH   7  16
BRANCH  15  23
ATOM     23  C   UNL     1      66.147  85.676  75.002  1.00  0.00    -0.046 C 
ATOM     24  C   UNL     1      66.351  84.459  74.149  1.00  0.00     0.042 C 
ATOM     25  C   UNL     1      67.165  86.279  75.632  1.00  0.00     0.010 C 
ENDBRANCH  15  23
ENDBRANCH   3   4
BRANCH   2  26
ATOM     26  C   UNL     1      61.223  89.734  77.979  1.00  0.00     0.078 C 
BRANCH  26  27
ATOM     27  C   UNL     1      61.181  89.688  76.452  1.00  0.00     0.140 C 
ATOM     28  C   UNL     1      60.981  88.255  75.916  1.00  0.00     0.086 CG0
ATOM     29  C   UNL     1      59.982  90.418  75.883  1.00  0.00     0.190 C 
ATOM     30  C   UNL     1      59.919  88.419  74.866  1.00  0.00    -0.010 C 
ATOM     31  G   UNL     1      62.278  87.465  75.574  1.00  0.00     0.000 G0
ATOM     32  O   UNL     1      59.625  91.544  76.196  1.00  0.00    -0.291 OA
ATOM     33  C   UNL     1      59.319  89.613  74.840  1.00  0.00    -0.008 C 
ATOM     34  C   UNL     1      58.194  90.095  74.012  1.00  0.00     0.048 C 
BRANCH  27  35
ATOM     35  O   UNL     1      62.290  90.364  75.883  1.00  0.00    -0.381 OA
ATOM     36  H   UNL     1      62.096  91.316  75.872  1.00  0.00     0.212 HD
ENDBRANCH  27  35
ENDBRANCH  26  27
ENDBRANCH   2  26
ENDBRANCH   1   2
BRANCH   1  37
ATOM     37  O   UNL     1      62.623  87.674  80.774  1.00  0.00    -0.461 OA
BRANCH  37  38
ATOM     38  C   UNL     1      63.304  88.135  81.877  1.00  0.00     0.310 C 
ATOM     39  O   UNL     1      63.676  89.288  82.042  1.00  0.00    -0.252 OA
BRANCH  38  40
ATOM     40  C   UNL     1      63.520  86.998  82.847  1.00  0.00     0.158 C 
BRANCH  40  41
ATOM     41  C   UNL     1      64.757  86.192  82.543  1.00  0.00    -0.037 A 
ATOM     42  C   UNL     1      65.293  86.198  81.255  1.00  0.00     0.008 A 
ATOM     43  C   UNL     1      65.365  85.441  83.547  1.00  0.00     0.008 A 
ATOM     44  C   UNL     1      66.438  85.451  80.972  1.00  0.00     0.046 A 
ATOM     45  C   UNL     1      66.510  84.695  83.266  1.00  0.00     0.046 A 
ATOM     46  C   UNL     1      67.046  84.700  81.979  1.00  0.00     0.115 A 
BRANCH  46  47
ATOM     47  O   UNL     1      68.162  83.971  81.703  1.00  0.00    -0.508 OA
ATOM     48  H   UNL     1      67.969  83.365  80.966  1.00  0.00     0.293 HD
ENDBRANCH  46  47
ENDBRANCH  40  41
ENDBRANCH  38  40
ENDBRANCH  37  38
ENDBRANCH   1  37
TORSDOF 10
ENDMDL
MODEL 6
REMARK VINA RESULT:    -6.124     26.053     30.088
REMARK INTER + INTRA:         -12.389
REMARK INTER:                 -10.952
REMARK INTRA:                  -1.436
REMARK UNBOUND:                -1.968
REMARK SMILES C=C(C)[C@]12C[C@@H](C)[C@@]34O[C@](Cc5ccccc5)(O[C@@H]1[C@@H]3C=C(COC(=O)Cc1ccc(O)cc1)C[C@]1(O)C(=O)C(C)=C[C@@H]41)O2
REMARK SMILES IDX 23 1 22 2 21 3 20 4 9 5 8 6 10 7 6 8 18 10 44 11 19 12 5 13
REMARK SMILES IDX 7 14 4 15 11 16 12 17 13 18 17 19 14 20 16 21 15 22 2 23
REMARK SMILES IDX 3 24 1 25 35 26 36 27 43 28 38 29 42 30 39 32 40 33 41 34
REMARK SMILES IDX 37 35 24 37 25 38 26 39 27 40 28 41 29 42 34 43 30 44 33 45
REMARK SMILES IDX 31 46 32 47
REMARK H PARENT 37 36 32 48
REMARK Flexibility Score: 90.00
ROOT
ATOM      1  C   UNL     1      87.006  69.744  78.144  1.00  0.00     0.264 C 
ENDROOT
BRANCH   1   2
ATOM      2  C   UNL     1      86.952  68.474  77.327  1.00  0.00    -0.033 C 
ATOM      3  C   UNL     1      85.751  67.966  76.978  1.00  0.00    -0.015 C 
BRANCH   3   4
ATOM      4  C   UNL     1      85.427  66.679  76.235  1.00  0.00     0.078 C 
ATOM      5  O   UNL     1      85.327  67.242  73.829  1.00  0.00    -0.319 OA
ATOM      6  C   UNL     1      86.064  66.454  74.815  1.00  0.00     0.095 CG0
ATOM      7  C   UNL     1      83.894  67.219  73.971  1.00  0.00     0.289 C 
ATOM      8  C   UNL     1      85.925  64.915  74.465  1.00  0.00     0.023 C 
ATOM      9  G   UNL     1      87.512  67.023  74.762  1.00  0.00     0.000 G0
ATOM     10  O   UNL     1      83.494  67.672  75.261  1.00  0.00    -0.320 OA
ATOM     11  O   UNL     1      83.357  65.905  73.840  1.00  0.00    -0.313 OA
ATOM     12  C   UNL     1      83.894  66.546  76.058  1.00  0.00     0.170 C 
ATOM     13  C   UNL     1      84.622  64.307  75.069  1.00  0.00     0.049 C 
ATOM     14  C   UNL     1      86.004  64.567  72.969  1.00  0.00     0.011 C 
ATOM     15  C   UNL     1      83.503  65.346  75.162  1.00  0.00     0.122 C 
BRANCH   7  16
ATOM     16  C   UNL     1      83.297  68.116  72.904  1.00  0.00     0.135 C 
BRANCH  16  17
ATOM     17  C   UNL     1      82.242  67.406  72.093  1.00  0.00    -0.040 A 
ATOM     18  C   UNL     1      82.617  66.519  71.084  1.00  0.00     0.004 A 
ATOM     19  C   UNL     1      80.891  67.637  72.352  1.00  0.00     0.004 A 
ATOM     20  C   UNL     1      81.641  65.862  70.334  1.00  0.00     0.000 A 
ATOM     21  C   UNL     1      79.915  66.980  71.602  1.00  0.00     0.000 A 
ATOM     22  C   UNL     1      80.290  66.093  70.593  1.00  0.00     0.000 A 
ENDBRANCH  16  17
ENDBRANCH   7  16
BRANCH  15  23
ATOM     23  C   UNL     1      82.196  64.746  75.567  1.00  0.00    -0.046 C 
ATOM     24  C   UNL     1      81.400  64.095  74.474  1.00  0.00     0.042 C 
ATOM     25  C   UNL     1      81.758  64.787  76.834  1.00  0.00     0.010 C 
ENDBRANCH  15  23
ENDBRANCH   3   4
BRANCH   2  26
ATOM     26  C   UNL     1      88.324  67.923  76.989  1.00  0.00     0.078 C 
BRANCH  26  27
ATOM     27  C   UNL     1      88.386  66.757  76.005  1.00  0.00     0.140 C 
ATOM     28  C   UNL     1      87.522  67.005  74.751  1.00  0.00     0.086 CG0
ATOM     29  C   UNL     1      89.768  66.567  75.416  1.00  0.00     0.190 C 
ATOM     30  C   UNL     1      88.425  66.601  73.619  1.00  0.00    -0.010 C 
ATOM     31  G   UNL     1      86.067  66.454  74.800  1.00  0.00     0.000 G0
ATOM     32  O   UNL     1      90.809  66.524  76.053  1.00  0.00    -0.291 OA
ATOM     33  C   UNL     1      89.699  66.376  73.955  1.00  0.00    -0.008 C 
ATOM     34  C   UNL     1      90.863  66.047  73.106  1.00  0.00     0.048 C 
BRANCH  27  35
ATOM     35  O   UNL     1      88.120  65.522  76.648  1.00  0.00    -0.381 OA
ATOM     36  H   UNL     1      87.298  65.613  77.160  1.00  0.00     0.212 HD
ENDBRANCH  27  35
ENDBRANCH  26  27
ENDBRANCH   2  26
ENDBRANCH   1   2
BRANCH   1  37
ATOM     37  O   UNL     1      87.976  69.604  79.160  1.00  0.00    -0.461 OA
BRANCH  37  38
ATOM     38  C   UNL     1      87.498  69.369  80.428  1.00  0.00     0.310 C 
ATOM     39  O   UNL     1      86.648  70.042  80.994  1.00  0.00    -0.252 OA
BRANCH  38  40
ATOM     40  C   UNL     1      88.183  68.155  81.008  1.00  0.00     0.158 C 
BRANCH  40  41
ATOM     41  C   UNL     1      87.286  66.945  81.065  1.00  0.00    -0.037 A 
ATOM     42  C   UNL     1      86.746  66.535  82.284  1.00  0.00     0.008 A 
ATOM     43  C   UNL     1      86.997  66.235  79.901  1.00  0.00     0.008 A 
ATOM     44  C   UNL     1      85.917  65.414  82.338  1.00  0.00     0.046 A 
ATOM     45  C   UNL     1      86.167  65.115  79.953  1.00  0.00     0.046 A 
ATOM     46  C   UNL     1      85.627  64.704  81.171  1.00  0.00     0.115 A 
BRANCH  46  47
ATOM     47  O   UNL     1      84.819  63.611  81.224  1.00  0.00    -0.508 OA
ATOM     48  H   UNL     1      84.985  63.058  80.441  1.00  0.00     0.293 HD
ENDBRANCH  46  47
ENDBRANCH  40  41
ENDBRANCH  38  40
ENDBRANCH  37  38
ENDBRANCH   1  37
TORSDOF 10
ENDMDL
MODEL 7
REMARK VINA RESULT:    -6.076      3.443      6.234
REMARK INTER + INTRA:         -12.307
REMARK INTER:                 -12.060
REMARK INTRA:                  -0.247
REMARK UNBOUND:                -1.968
REMARK SMILES C=C(C)[C@]12C[C@@H](C)[C@@]34O[C@](Cc5ccccc5)(O[C@@H]1[C@@H]3C=C(COC(=O)Cc1ccc(O)cc1)C[C@]1(O)C(=O)C(C)=C[C@@H]41)O2
REMARK SMILES IDX 23 1 22 2 21 3 20 4 9 5 8 6 10 7 6 8 18 10 44 11 19 12 5 13
REMARK SMILES IDX 7 14 4 15 11 16 12 17 13 18 17 19 14 20 16 21 15 22 2 23
REMARK SMILES IDX 3 24 1 25 35 26 36 27 43 28 38 29 42 30 39 32 40 33 41 34
REMARK SMILES IDX 37 35 24 37 25 38 26 39 27 40 28 41 29 42 34 43 30 44 33 45
REMARK SMILES IDX 31 46 32 47
REMARK H PARENT 37 36 32 48
REMARK Flexibility Score: 90.00
ROOT
ATOM      1  C   UNL     1      67.161  86.886  71.306  1.00  0.00     0.264 C 
ENDROOT
BRANCH   1   2
ATOM      2  C   UNL     1      66.056  86.890  72.337  1.00  0.00    -0.033 C 
ATOM      3  C   UNL     1      64.837  86.421  71.998  1.00  0.00    -0.015 C 
BRANCH   3   4
ATOM      4  C   UNL     1      63.555  86.386  72.815  1.00  0.00     0.078 C 
ATOM      5  O   UNL     1      63.468  84.178  73.925  1.00  0.00    -0.319 OA
ATOM      6  C   UNL     1      63.561  85.614  74.185  1.00  0.00     0.095 CG0
ATOM      7  C   UNL     1      62.525  83.797  72.905  1.00  0.00     0.289 C 
ATOM      8  C   UNL     1      62.288  86.081  75.004  1.00  0.00     0.023 C 
ATOM      9  G   UNL     1      64.926  85.789  74.912  1.00  0.00     0.000 G0
ATOM     10  O   UNL     1      62.818  84.434  71.665  1.00  0.00    -0.320 OA
ATOM     11  O   UNL     1      61.191  84.182  73.229  1.00  0.00    -0.313 OA
ATOM     12  C   UNL     1      62.409  85.777  71.969  1.00  0.00     0.170 C 
ATOM     13  C   UNL     1      61.089  86.408  74.062  1.00  0.00     0.049 C 
ATOM     14  C   UNL     1      61.821  85.116  76.108  1.00  0.00     0.011 C 
ATOM     15  C   UNL     1      61.118  85.555  72.793  1.00  0.00     0.122 C 
BRANCH   7  16
ATOM     16  C   UNL     1      62.590  82.292  72.737  1.00  0.00     0.135 C 
BRANCH  16  17
ATOM     17  C   UNL     1      63.640  81.668  73.622  1.00  0.00    -0.040 A 
ATOM     18  C   UNL     1      63.557  81.806  75.007  1.00  0.00     0.004 A 
ATOM     19  C   UNL     1      64.694  80.953  73.053  1.00  0.00     0.004 A 
ATOM     20  C   UNL     1      64.529  81.228  75.825  1.00  0.00     0.000 A 
ATOM     21  C   UNL     1      65.665  80.376  73.871  1.00  0.00     0.000 A 
ATOM     22  C   UNL     1      65.583  80.513  75.256  1.00  0.00     0.000 A 
ENDBRANCH  16  17
ENDBRANCH   7  16
BRANCH  15  23
ATOM     23  C   UNL     1      59.886  85.720  71.964  1.00  0.00    -0.046 C 
ATOM     24  C   UNL     1      59.271  84.458  71.435  1.00  0.00     0.042 C 
ATOM     25  C   UNL     1      59.361  86.927  71.706  1.00  0.00     0.010 C 
ENDBRANCH  15  23
ENDBRANCH   3   4
BRANCH   2  26
ATOM     26  C   UNL     1      66.496  87.441  73.680  1.00  0.00     0.078 C 
BRANCH  26  27
ATOM     27  C   UNL     1      65.557  87.223  74.865  1.00  0.00     0.140 C 
ATOM     28  C   UNL     1      64.955  85.803  74.880  1.00  0.00     0.086 CG0
ATOM     29  C   UNL     1      66.277  87.285  76.195  1.00  0.00     0.190 C 
ATOM     30  C   UNL     1      65.114  85.370  76.311  1.00  0.00    -0.010 C 
ATOM     31  G   UNL     1      63.574  85.636  74.181  1.00  0.00     0.000 G0
ATOM     32  O   UNL     1      67.055  88.163  76.539  1.00  0.00    -0.291 OA
ATOM     33  C   UNL     1      65.875  86.166  77.069  1.00  0.00    -0.008 C 
ATOM     34  C   UNL     1      66.308  86.013  78.473  1.00  0.00     0.048 C 
BRANCH  27  35
ATOM     35  O   UNL     1      64.589  88.256  74.957  1.00  0.00    -0.381 OA
ATOM     36  H   UNL     1      65.015  89.042  75.339  1.00  0.00     0.212 HD
ENDBRANCH  27  35
ENDBRANCH  26  27
ENDBRANCH   2  26
ENDBRANCH   1   2
BRANCH   1  37
ATOM     37  O   UNL     1      66.668  87.412  70.092  1.00  0.00    -0.461 OA
BRANCH  37  38
ATOM     38  C   UNL     1      67.594  87.598  69.091  1.00  0.00     0.310 C 
ATOM     39  O   UNL     1      67.442  88.327  68.121  1.00  0.00    -0.252 OA
BRANCH  38  40
ATOM     40  C   UNL     1      68.820  86.765  69.378  1.00  0.00     0.158 C 
BRANCH  40  41
ATOM     41  C   UNL     1      69.056  85.692  68.346  1.00  0.00    -0.037 A 
ATOM     42  C   UNL     1      70.317  85.546  67.768  1.00  0.00     0.008 A 
ATOM     43  C   UNL     1      68.014  84.846  67.970  1.00  0.00     0.008 A 
ATOM     44  C   UNL     1      70.535  84.553  66.812  1.00  0.00     0.046 A 
ATOM     45  C   UNL     1      68.232  83.852  67.015  1.00  0.00     0.046 A 
ATOM     46  C   UNL     1      69.492  83.706  66.436  1.00  0.00     0.115 A 
BRANCH  46  47
ATOM     47  O   UNL     1      69.705  82.738  65.503  1.00  0.00    -0.508 OA
ATOM     48  H   UNL     1      69.005  82.790  64.829  1.00  0.00     0.293 HD
ENDBRANCH  46  47
ENDBRANCH  40  41
ENDBRANCH  38  40
ENDBRANCH  37  38
ENDBRANCH   1  37
TORSDOF 10
ENDMDL
MODEL 8
REMARK VINA RESULT:    -6.059     30.481     33.802
REMARK INTER + INTRA:         -12.278
REMARK INTER:                 -12.882
REMARK INTRA:                   0.604
REMARK UNBOUND:                -1.968
REMARK SMILES C=C(C)[C@]12C[C@@H](C)[C@@]34O[C@](Cc5ccccc5)(O[C@@H]1[C@@H]3C=C(COC(=O)Cc1ccc(O)cc1)C[C@]1(O)C(=O)C(C)=C[C@@H]41)O2
REMARK SMILES IDX 23 1 22 2 21 3 20 4 9 5 8 6 10 7 6 8 18 10 44 11 19 12 5 13
REMARK SMILES IDX 7 14 4 15 11 16 12 17 13 18 17 19 14 20 16 21 15 22 2 23
REMARK SMILES IDX 3 24 1 25 35 26 36 27 43 28 38 29 42 30 39 32 40 33 41 34
REMARK SMILES IDX 37 35 24 37 25 38 26 39 27 40 28 41 29 42 34 43 30 44 33 45
REMARK SMILES IDX 31 46 32 47
REMARK H PARENT 37 36 32 48
REMARK Flexibility Score: 90.00
ROOT
ATOM      1  C   UNL     1      96.542  98.170  74.276  1.00  0.00     0.264 C 
ENDROOT
BRANCH   1   2
ATOM      2  C   UNL     1      95.731  99.314  73.712  1.00  0.00    -0.033 C 
ATOM      3  C   UNL     1      95.423  99.318  72.398  1.00  0.00    -0.015 C 
BRANCH   3   4
ATOM      4  C   UNL     1      94.695 100.374  71.581  1.00  0.00     0.078 C 
ATOM      5  O   UNL     1      92.300  99.757  71.578  1.00  0.00    -0.319 OA
ATOM      6  C   UNL     1      93.241 100.786  72.017  1.00  0.00     0.095 CG0
ATOM      7  C   UNL     1      92.521  99.249  70.248  1.00  0.00     0.289 C 
ATOM      8  C   UNL     1      92.894 102.154  71.297  1.00  0.00     0.023 C 
ATOM      9  G   UNL     1      93.110 100.795  73.568  1.00  0.00     0.000 G0
ATOM     10  O   UNL     1      93.832  98.710  70.110  1.00  0.00    -0.320 OA
ATOM     11  O   UNL     1      92.416 100.266  69.254  1.00  0.00    -0.313 OA
ATOM     12  C   UNL     1      94.602  99.923  70.102  1.00  0.00     0.170 C 
ATOM     13  C   UNL     1      93.567 102.248  69.893  1.00  0.00     0.049 C 
ATOM     14  C   UNL     1      91.395 102.471  71.165  1.00  0.00     0.011 C 
ATOM     15  C   UNL     1      93.726 100.871  69.248  1.00  0.00     0.122 C 
BRANCH   7  16
ATOM     16  C   UNL     1      91.492  98.170  69.975  1.00  0.00     0.135 C 
BRANCH  16  17
ATOM     17  C   UNL     1      90.900  98.288  68.593  1.00  0.00    -0.040 A 
ATOM     18  C   UNL     1      90.609  99.544  68.063  1.00  0.00     0.004 A 
ATOM     19  C   UNL     1      90.644  97.139  67.845  1.00  0.00     0.004 A 
ATOM     20  C   UNL     1      90.062  99.653  66.784  1.00  0.00     0.000 A 
ATOM     21  C   UNL     1      90.096  97.247  66.566  1.00  0.00     0.000 A 
ATOM     22  C   UNL     1      89.806  98.504  66.036  1.00  0.00     0.000 A 
ENDBRANCH  16  17
ENDBRANCH   7  16
BRANCH  15  23
ATOM     23  C   UNL     1      94.199 100.951  67.833  1.00  0.00    -0.046 C 
ATOM     24  C   UNL     1      95.653 100.659  67.605  1.00  0.00     0.042 C 
ATOM     25  C   UNL     1      93.373 101.266  66.825  1.00  0.00     0.010 C 
ENDBRANCH  15  23
ENDBRANCH   3   4
BRANCH   2  26
ATOM     26  C   UNL     1      95.350 100.346  74.756  1.00  0.00     0.078 C 
BRANCH  26  27
ATOM     27  C   UNL     1      94.333 101.410  74.347  1.00  0.00     0.140 C 
ATOM     28  C   UNL     1      93.136 100.810  73.582  1.00  0.00     0.086 CG0
ATOM     29  C   UNL     1      93.663 102.060  75.539  1.00  0.00     0.190 C 
ATOM     30  C   UNL     1      91.945 101.461  74.227  1.00  0.00    -0.010 C 
ATOM     31  G   UNL     1      93.251 100.797  72.029  1.00  0.00     0.000 G0
ATOM     32  O   UNL     1      94.240 102.506  76.520  1.00  0.00    -0.291 OA
ATOM     33  C   UNL     1      92.204 102.147  75.345  1.00  0.00    -0.008 C 
ATOM     34  C   UNL     1      91.283 102.837  76.273  1.00  0.00     0.048 C 
BRANCH  27  35
ATOM     35  O   UNL     1      94.956 102.493  73.677  1.00  0.00    -0.381 OA
ATOM     36  H   UNL     1      94.660 103.321  74.091  1.00  0.00     0.212 HD
ENDBRANCH  27  35
ENDBRANCH  26  27
ENDBRANCH   2  26
ENDBRANCH   1   2
BRANCH   1  37
ATOM     37  O   UNL     1      95.764  96.992  74.255  1.00  0.00    -0.461 OA
BRANCH  37  38
ATOM     38  C   UNL     1      95.947  96.124  75.307  1.00  0.00     0.310 C 
ATOM     39  O   UNL     1      96.360  96.440  76.414  1.00  0.00    -0.252 OA
BRANCH  38  40
ATOM     40  C   UNL     1      95.560  94.728  74.882  1.00  0.00     0.158 C 
BRANCH  40  41
ATOM     41  C   UNL     1      94.334  94.216  75.592  1.00  0.00    -0.037 A 
ATOM     42  C   UNL     1      94.399  93.886  76.946  1.00  0.00     0.008 A 
ATOM     43  C   UNL     1      93.134  94.073  74.896  1.00  0.00     0.008 A 
ATOM     44  C   UNL     1      93.263  93.411  77.603  1.00  0.00     0.046 A 
ATOM     45  C   UNL     1      91.998  93.598  75.553  1.00  0.00     0.046 A 
ATOM     46  C   UNL     1      92.063  93.267  76.906  1.00  0.00     0.115 A 
BRANCH  46  47
ATOM     47  O   UNL     1      90.956  92.804  77.547  1.00  0.00    -0.508 OA
ATOM     48  H   UNL     1      90.825  91.868  77.315  1.00  0.00     0.293 HD
ENDBRANCH  46  47
ENDBRANCH  40  41
ENDBRANCH  38  40
ENDBRANCH  37  38
ENDBRANCH   1  37
TORSDOF 10
ENDMDL
MODEL 9
REMARK VINA RESULT:    -6.042      4.437      7.817
REMARK INTER + INTRA:         -12.249
REMARK INTER:                 -11.220
REMARK INTRA:                  -1.029
REMARK UNBOUND:                -1.968
REMARK SMILES C=C(C)[C@]12C[C@@H](C)[C@@]34O[C@](Cc5ccccc5)(O[C@@H]1[C@@H]3C=C(COC(=O)Cc1ccc(O)cc1)C[C@]1(O)C(=O)C(C)=C[C@@H]41)O2
REMARK SMILES IDX 23 1 22 2 21 3 20 4 9 5 8 6 10 7 6 8 18 10 44 11 19 12 5 13
REMARK SMILES IDX 7 14 4 15 11 16 12 17 13 18 17 19 14 20 16 21 15 22 2 23
REMARK SMILES IDX 3 24 1 25 35 26 36 27 43 28 38 29 42 30 39 32 40 33 41 34
REMARK SMILES IDX 37 35 24 37 25 38 26 39 27 40 28 41 29 42 34 43 30 44 33 45
REMARK SMILES IDX 31 46 32 47
REMARK H PARENT 37 36 32 48
REMARK Flexibility Score: 90.00
ROOT
ATOM      1  C   UNL     1      58.079  88.507  69.926  1.00  0.00     0.264 C 
ENDROOT
BRANCH   1   2
ATOM      2  C   UNL     1      59.495  88.080  69.611  1.00  0.00    -0.033 C 
ATOM      3  C   UNL     1      60.238  87.500  70.576  1.00  0.00    -0.015 C 
BRANCH   3   4
ATOM      4  C   UNL     1      61.692  87.056  70.538  1.00  0.00     0.078 C 
ATOM      5  O   UNL     1      61.700  84.671  69.886  1.00  0.00    -0.319 OA
ATOM      6  C   UNL     1      62.124  86.001  69.454  1.00  0.00     0.095 CG0
ATOM      7  C   UNL     1      61.915  84.378  71.280  1.00  0.00     0.289 C 
ATOM      8  C   UNL     1      63.705  86.039  69.352  1.00  0.00     0.023 C 
ATOM      9  G   UNL     1      61.362  86.237  68.118  1.00  0.00     0.000 G0
ATOM     10  O   UNL     1      61.255  85.326  72.115  1.00  0.00    -0.320 OA
ATOM     11  O   UNL     1      63.293  84.440  71.641  1.00  0.00    -0.313 OA
ATOM     12  C   UNL     1      62.099  86.470  71.912  1.00  0.00     0.170 C 
ATOM     13  C   UNL     1      64.360  86.362  70.729  1.00  0.00     0.049 C 
ATOM     14  C   UNL     1      64.359  84.779  68.759  1.00  0.00     0.011 C 
ATOM     15  C   UNL     1      63.515  85.843  71.894  1.00  0.00     0.122 C 
BRANCH   7  16
ATOM     16  C   UNL     1      61.382  82.988  71.561  1.00  0.00     0.135 C 
BRANCH  16  17
ATOM     17  C   UNL     1      62.293  82.206  72.475  1.00  0.00    -0.040 A 
ATOM     18  C   UNL     1      63.239  81.335  71.938  1.00  0.00     0.004 A 
ATOM     19  C   UNL     1      62.187  82.356  73.857  1.00  0.00     0.004 A 
ATOM     20  C   UNL     1      64.082  80.612  72.783  1.00  0.00     0.000 A 
ATOM     21  C   UNL     1      63.030  81.633  74.703  1.00  0.00     0.000 A 
ATOM     22  C   UNL     1      63.977  80.762  74.166  1.00  0.00     0.000 A 
ENDBRANCH  16  17
ENDBRANCH   7  16
BRANCH  15  23
ATOM     23  C   UNL     1      64.207  85.980  73.211  1.00  0.00    -0.046 C 
ATOM     24  C   UNL     1      64.122  87.326  73.866  1.00  0.00     0.042 C 
ATOM     25  C   UNL     1      64.866  84.957  73.775  1.00  0.00     0.010 C 
ENDBRANCH  15  23
ENDBRANCH   3   4
BRANCH   2  26
ATOM     26  C   UNL     1      59.900  88.372  68.178  1.00  0.00     0.078 C 
BRANCH  26  27
ATOM     27  C   UNL     1      61.208  87.758  67.684  1.00  0.00     0.140 C 
ATOM     28  C   UNL     1      61.359  86.283  68.113  1.00  0.00     0.086 CG0
ATOM     29  C   UNL     1      61.272  87.665  66.174  1.00  0.00     0.190 C 
ATOM     30  C   UNL     1      61.817  85.598  66.855  1.00  0.00    -0.010 C 
ATOM     31  G   UNL     1      62.128  86.031  69.442  1.00  0.00     0.000 G0
ATOM     32  O   UNL     1      61.012  88.573  65.398  1.00  0.00    -0.291 OA
ATOM     33  C   UNL     1      61.753  86.339  65.744  1.00  0.00    -0.008 C 
ATOM     34  C   UNL     1      62.038  85.976  64.341  1.00  0.00     0.048 C 
BRANCH  27  35
ATOM     35  O   UNL     1      62.321  88.569  68.021  1.00  0.00    -0.381 OA
ATOM     36  H   UNL     1      63.121  88.164  67.644  1.00  0.00     0.212 HD
ENDBRANCH  27  35
ENDBRANCH  26  27
ENDBRANCH   2  26
ENDBRANCH   1   2
BRANCH   1  37
ATOM     37  O   UNL     1      57.991  89.914  69.862  1.00  0.00    -0.461 OA
BRANCH  37  38
ATOM     38  C   UNL     1      56.796  90.428  69.416  1.00  0.00     0.310 C 
ATOM     39  O   UNL     1      55.814  90.632  70.115  1.00  0.00    -0.252 OA
BRANCH  38  40
ATOM     40  C   UNL     1      56.887  90.701  67.933  1.00  0.00     0.158 C 
BRANCH  40  41
ATOM     41  C   UNL     1      55.846  89.961  67.135  1.00  0.00    -0.037 A 
ATOM     42  C   UNL     1      54.561  90.488  67.005  1.00  0.00     0.008 A 
ATOM     43  C   UNL     1      56.165  88.748  66.525  1.00  0.00     0.008 A 
ATOM     44  C   UNL     1      53.596  89.802  66.267  1.00  0.00     0.046 A 
ATOM     45  C   UNL     1      55.201  88.062  65.785  1.00  0.00     0.046 A 
ATOM     46  C   UNL     1      53.917  88.589  65.657  1.00  0.00     0.115 A 
BRANCH  46  47
ATOM     47  O   UNL     1      52.976  87.920  64.936  1.00  0.00    -0.508 OA
ATOM     48  H   UNL     1      52.691  88.479  64.193  1.00  0.00     0.293 HD
ENDBRANCH  46  47
ENDBRANCH  40  41
ENDBRANCH  38  40
ENDBRANCH  37  38
ENDBRANCH   1  37
TORSDOF 10
ENDMDL
MODEL 10
REMARK VINA RESULT:    -5.960      2.244      5.314
REMARK INTER + INTRA:         -12.109
REMARK INTER:                 -11.348
REMARK INTRA:                  -0.762
REMARK UNBOUND:                -1.968
REMARK SMILES C=C(C)[C@]12C[C@@H](C)[C@@]34O[C@](Cc5ccccc5)(O[C@@H]1[C@@H]3C=C(COC(=O)Cc1ccc(O)cc1)C[C@]1(O)C(=O)C(C)=C[C@@H]41)O2
REMARK SMILES IDX 23 1 22 2 21 3 20 4 9 5 8 6 10 7 6 8 18 10 44 11 19 12 5 13
REMARK SMILES IDX 7 14 4 15 11 16 12 17 13 18 17 19 14 20 16 21 15 22 2 23
REMARK SMILES IDX 3 24 1 25 35 26 36 27 43 28 38 29 42 30 39 32 40 33 41 34
REMARK SMILES IDX 37 35 24 37 25 38 26 39 27 40 28 41 29 42 34 43 30 44 33 45
REMARK SMILES IDX 31 46 32 47
REMARK H PARENT 37 36 32 48
REMARK Flexibility Score: 90.00
ROOT
ATOM      1  C   UNL     1      66.626  86.801  71.025  1.00  0.00     0.264 C 
ENDROOT
BRANCH   1   2
ATOM      2  C   UNL     1      65.518  86.818  72.052  1.00  0.00    -0.033 C 
ATOM      3  C   UNL     1      64.275  86.438  71.687  1.00  0.00    -0.015 C 
BRANCH   3   4
ATOM      4  C   UNL     1      62.989  86.437  72.497  1.00  0.00     0.078 C 
ATOM      5  O   UNL     1      62.782  84.194  73.517  1.00  0.00    -0.319 OA
ATOM      6  C   UNL     1      62.948  85.611  73.835  1.00  0.00     0.095 CG0
ATOM      7  C   UNL     1      61.825  83.904  72.479  1.00  0.00     0.289 C 
ATOM      8  C   UNL     1      61.697  86.111  74.669  1.00  0.00     0.023 C 
ATOM      9  G   UNL     1      64.316  85.685  74.573  1.00  0.00     0.000 G0
ATOM     10  O   UNL     1      62.158  84.575  71.267  1.00  0.00    -0.320 OA
ATOM     11  O   UNL     1      60.511  84.344  72.814  1.00  0.00    -0.313 OA
ATOM     12  C   UNL     1      61.818  85.924  71.624  1.00  0.00     0.170 C 
ATOM     13  C   UNL     1      60.522  86.538  73.737  1.00  0.00     0.049 C 
ATOM     14  C   UNL     1      61.174  85.128  75.730  1.00  0.00     0.011 C 
ATOM     15  C   UNL     1      60.512  85.736  72.434  1.00  0.00     0.122 C 
BRANCH   7  16
ATOM     16  C   UNL     1      61.813  82.406  72.250  1.00  0.00     0.135 C 
BRANCH  16  17
ATOM     17  C   UNL     1      62.878  81.701  73.053  1.00  0.00    -0.040 A 
ATOM     18  C   UNL     1      62.854  81.759  74.445  1.00  0.00     0.004 A 
ATOM     19  C   UNL     1      63.886  80.992  72.400  1.00  0.00     0.004 A 
ATOM     20  C   UNL     1      63.839  81.106  75.188  1.00  0.00     0.000 A 
ATOM     21  C   UNL     1      64.871  80.340  73.142  1.00  0.00     0.000 A 
ATOM     22  C   UNL     1      64.847  80.397  74.535  1.00  0.00     0.000 A 
ENDBRANCH  16  17
ENDBRANCH   7  16
BRANCH  15  23
ATOM     23  C   UNL     1      59.295  85.999  71.608  1.00  0.00    -0.046 C 
ATOM     24  C   UNL     1      59.206  87.355  70.974  1.00  0.00     0.042 C 
ATOM     25  C   UNL     1      58.337  85.075  71.443  1.00  0.00     0.010 C 
ENDBRANCH  15  23
ENDBRANCH   3   4
BRANCH   2  26
ATOM     26  C   UNL     1      65.981  87.275  73.422  1.00  0.00     0.078 C 
BRANCH  26  27
ATOM     27  C   UNL     1      65.008  87.092  74.585  1.00  0.00     0.140 C 
ATOM     28  C   UNL     1      64.342  85.700  74.575  1.00  0.00     0.086 CG0
ATOM     29  C   UNL     1      65.702  87.110  75.931  1.00  0.00     0.190 C 
ATOM     30  C   UNL     1      64.451  85.250  76.006  1.00  0.00    -0.010 C 
ATOM     31  G   UNL     1      62.971  85.601  73.846  1.00  0.00     0.000 G0
ATOM     32  O   UNL     1      66.512  87.949  76.298  1.00  0.00    -0.291 OA
ATOM     33  C   UNL     1      65.231  86.005  76.786  1.00  0.00    -0.008 C 
ATOM     34  C   UNL     1      65.627  85.821  78.197  1.00  0.00     0.048 C 
BRANCH  27  35
ATOM     35  O   UNL     1      64.087  88.167  74.665  1.00  0.00    -0.381 OA
ATOM     36  H   UNL     1      63.230  87.862  74.322  1.00  0.00     0.212 HD
ENDBRANCH  27  35
ENDBRANCH  26  27
ENDBRANCH   2  26
ENDBRANCH   1   2
BRANCH   1  37
ATOM     37  O   UNL     1      66.080  86.528  69.753  1.00  0.00    -0.461 OA
BRANCH  37  38
ATOM     38  C   UNL     1      66.694  87.139  68.684  1.00  0.00     0.310 C 
ATOM     39  O   UNL     1      67.492  88.062  68.766  1.00  0.00    -0.252 OA
BRANCH  38  40
ATOM     40  C   UNL     1      66.230  86.493  67.400  1.00  0.00     0.158 C 
BRANCH  40  41
ATOM     41  C   UNL     1      65.048  85.579  67.595  1.00  0.00    -0.037 A 
ATOM     42  C   UNL     1      63.780  86.117  67.815  1.00  0.00     0.008 A 
ATOM     43  C   UNL     1      65.222  84.196  67.556  1.00  0.00     0.008 A 
ATOM     44  C   UNL     1      62.686  85.271  67.997  1.00  0.00     0.046 A 
ATOM     45  C   UNL     1      64.128  83.350  67.737  1.00  0.00     0.046 A 
ATOM     46  C   UNL     1      62.860  83.887  67.958  1.00  0.00     0.115 A 
BRANCH  46  47
ATOM     47  O   UNL     1      61.793  83.062  68.136  1.00  0.00    -0.508 OA
ATOM     48  H   UNL     1      62.082  82.272  68.625  1.00  0.00     0.293 HD
ENDBRANCH  46  47
ENDBRANCH  40  41
ENDBRANCH  38  40
ENDBRANCH  37  38
ENDBRANCH   1  37
TORSDOF 10
ENDMDL
