MODEL 1
REMARK VINA RESULT:    -8.094      0.000      0.000
REMARK INTER + INTRA:          -9.894
REMARK INTER:                  -9.514
REMARK INTRA:                  -0.380
REMARK UNBOUND:                -0.380
REMARK SMILES O=C(/C=C/C=C/c1ccc2c(c1)OCO2)N1CCCCC1
REMARK SMILES IDX 3 1 4 2 2 3 1 4 16 5 17 6 21 7 18 8 20 9 19 10 5 11 6 12
REMARK SMILES IDX 7 13 12 14 8 15 11 16 9 17 13 18 10 19 14 20 15 21
REMARK H PARENT
REMARK Flexibility Score: inf
ROOT
ATOM      1  C   UNL     1      90.996  91.690  76.086  1.00  0.00     0.071 C 
ATOM      2  C   UNL     1      90.935  92.656  77.000  1.00  0.00     0.006 C 
ENDROOT
BRANCH   1   3
ATOM      3  C   UNL     1      89.729  91.080  75.633  1.00  0.00     0.246 C 
ATOM      4  O   UNL     1      88.799  91.037  76.439  1.00  0.00    -0.270 OA
ATOM      5  N   UNL     1      89.673  90.592  74.329  1.00  0.00    -0.339 N 
ATOM      6  C   UNL     1      88.431  89.977  73.853  1.00  0.00     0.120 C 
ATOM      7  C   UNL     1      90.775  90.586  73.355  1.00  0.00     0.120 C 
ATOM      8  C   UNL     1      87.963  90.607  72.545  1.00  0.00     0.022 C 
ATOM      9  C   UNL     1      90.344  91.207  72.027  1.00  0.00     0.022 C 
ATOM     10  C   UNL     1      89.066  90.565  71.493  1.00  0.00     0.004 C 
ENDBRANCH   1   3
BRANCH   2  11
ATOM     11  C   UNL     1      92.121  93.313  77.506  1.00  0.00     0.001 C 
ATOM     12  C   UNL     1      93.156  93.650  76.720  1.00  0.00     0.008 C 
BRANCH  12  13
ATOM     13  C   UNL     1      94.388  94.311  77.183  1.00  0.00    -0.022 A 
ATOM     14  C   UNL     1      94.651  94.373  78.544  1.00  0.00     0.058 A 
ATOM     15  C   UNL     1      95.260  94.857  76.237  1.00  0.00     0.012 A 
ATOM     16  C   UNL     1      95.817  95.002  78.929  1.00  0.00     0.166 A 
ATOM     17  C   UNL     1      96.434  95.488  76.655  1.00  0.00     0.051 A 
ATOM     18  O   UNL     1      96.250  95.166  80.209  1.00  0.00    -0.454 OA
ATOM     19  C   UNL     1      96.685  95.545  78.010  1.00  0.00     0.165 A 
ATOM     20  C   UNL     1      97.488  95.873  79.992  1.00  0.00     0.468 C 
ATOM     21  O   UNL     1      97.771  96.117  78.598  1.00  0.00    -0.454 OA
ENDBRANCH  12  13
ENDBRANCH   2  11
TORSDOF 3
ENDMDL
MODEL 2
REMARK VINA RESULT:    -7.900      2.785      9.098
REMARK INTER + INTRA:          -9.665
REMARK INTER:                  -9.259
REMARK INTRA:                  -0.407
REMARK UNBOUND:                -0.380
REMARK SMILES O=C(/C=C/C=C/c1ccc2c(c1)OCO2)N1CCCCC1
REMARK SMILES IDX 3 1 4 2 2 3 1 4 16 5 17 6 21 7 18 8 20 9 19 10 5 11 6 12
REMARK SMILES IDX 7 13 12 14 8 15 11 16 9 17 13 18 10 19 14 20 15 21
REMARK H PARENT
REMARK Flexibility Score: inf
ROOT
ATOM      1  C   UNL     1      94.683  94.236  75.771  1.00  0.00     0.071 C 
ATOM      2  C   UNL     1      93.508  94.840  75.602  1.00  0.00     0.006 C 
ENDROOT
BRANCH   1   3
ATOM      3  C   UNL     1      95.837  95.061  76.180  1.00  0.00     0.246 C 
ATOM      4  O   UNL     1      96.397  95.728  75.309  1.00  0.00    -0.270 OA
ATOM      5  N   UNL     1      96.217  95.027  77.521  1.00  0.00    -0.339 N 
ATOM      6  C   UNL     1      97.363  95.831  77.956  1.00  0.00     0.120 C 
ATOM      7  C   UNL     1      95.603  94.210  78.578  1.00  0.00     0.120 C 
ATOM      8  C   UNL     1      97.002  96.718  79.143  1.00  0.00     0.022 C 
ATOM      9  C   UNL     1      95.230  95.064  79.790  1.00  0.00     0.022 C 
ATOM     10  C   UNL     1      96.413  95.892  80.283  1.00  0.00     0.004 C 
ENDBRANCH   1   3
BRANCH   2  11
ATOM     11  C   UNL     1      92.321  94.116  75.202  1.00  0.00     0.001 C 
ATOM     12  C   UNL     1      92.369  92.911  74.612  1.00  0.00     0.008 C 
BRANCH  12  13
ATOM     13  C   UNL     1      91.194  92.136  74.178  1.00  0.00    -0.022 A 
ATOM     14  C   UNL     1      90.248  92.742  73.363  1.00  0.00     0.058 A 
ATOM     15  C   UNL     1      91.064  90.810  74.600  1.00  0.00     0.012 A 
ATOM     16  C   UNL     1      89.166  91.975  72.983  1.00  0.00     0.166 A 
ATOM     17  C   UNL     1      89.958  90.057  74.200  1.00  0.00     0.051 A 
ATOM     18  O   UNL     1      88.136  92.385  72.192  1.00  0.00    -0.454 OA
ATOM     19  C   UNL     1      89.024  90.668  73.390  1.00  0.00     0.165 A 
ATOM     20  C   UNL     1      87.332  91.189  72.147  1.00  0.00     0.468 C 
ATOM     21  O   UNL     1      87.889  90.096  72.905  1.00  0.00    -0.454 OA
ENDBRANCH  12  13
ENDBRANCH   2  11
TORSDOF 3
ENDMDL
MODEL 3
REMARK VINA RESULT:    -7.793      1.713      2.412
REMARK INTER + INTRA:          -9.539
REMARK INTER:                  -9.184
REMARK INTRA:                  -0.356
REMARK UNBOUND:                -0.380
REMARK SMILES O=C(/C=C/C=C/c1ccc2c(c1)OCO2)N1CCCCC1
REMARK SMILES IDX 3 1 4 2 2 3 1 4 16 5 17 6 21 7 18 8 20 9 19 10 5 11 6 12
REMARK SMILES IDX 7 13 12 14 8 15 11 16 9 17 13 18 10 19 14 20 15 21
REMARK H PARENT
REMARK Flexibility Score: inf
ROOT
ATOM      1  C   UNL     1      90.954  92.752  76.752  1.00  0.00     0.071 C 
ATOM      2  C   UNL     1      92.195  93.142  76.467  1.00  0.00     0.006 C 
ENDROOT
BRANCH   1   3
ATOM      3  C   UNL     1      90.138  92.179  75.662  1.00  0.00     0.246 C 
ATOM      4  O   UNL     1      89.905  92.897  74.689  1.00  0.00    -0.270 OA
ATOM      5  N   UNL     1      89.684  90.870  75.810  1.00  0.00    -0.339 N 
ATOM      6  C   UNL     1      88.867  90.277  74.747  1.00  0.00     0.120 C 
ATOM      7  C   UNL     1      89.904  90.000  76.974  1.00  0.00     0.120 C 
ATOM      8  C   UNL     1      89.437  88.940  74.286  1.00  0.00     0.022 C 
ATOM      9  C   UNL     1      90.473  88.645  76.553  1.00  0.00     0.022 C 
ATOM     10  C   UNL     1      89.626  87.990  75.466  1.00  0.00     0.004 C 
ENDBRANCH   1   3
BRANCH   2  11
ATOM     11  C   UNL     1      93.070  93.714  77.468  1.00  0.00     0.001 C 
ATOM     12  C   UNL     1      94.336  94.076  77.204  1.00  0.00     0.008 C 
BRANCH  12  13
ATOM     13  C   UNL     1      95.271  94.654  78.185  1.00  0.00    -0.022 A 
ATOM     14  C   UNL     1      95.110  94.353  79.530  1.00  0.00     0.058 A 
ATOM     15  C   UNL     1      96.294  95.491  77.733  1.00  0.00     0.012 A 
ATOM     16  C   UNL     1      96.010  94.918  80.410  1.00  0.00     0.166 A 
ATOM     17  C   UNL     1      97.192  96.050  78.646  1.00  0.00     0.051 A 
ATOM     18  O   UNL     1      96.021  94.747  81.761  1.00  0.00    -0.454 OA
ATOM     19  C   UNL     1      97.023  95.744  79.980  1.00  0.00     0.165 A 
ATOM     20  C   UNL     1      97.154  95.558  82.132  1.00  0.00     0.468 C 
ATOM     21  O   UNL     1      97.795  96.194  81.007  1.00  0.00    -0.454 OA
ENDBRANCH  12  13
ENDBRANCH   2  11
TORSDOF 3
ENDMDL
MODEL 4
REMARK VINA RESULT:    -7.576      1.173      1.977
REMARK INTER + INTRA:          -9.285
REMARK INTER:                  -8.891
REMARK INTRA:                  -0.394
REMARK UNBOUND:                -0.380
REMARK SMILES O=C(/C=C/C=C/c1ccc2c(c1)OCO2)N1CCCCC1
REMARK SMILES IDX 3 1 4 2 2 3 1 4 16 5 17 6 21 7 18 8 20 9 19 10 5 11 6 12
REMARK SMILES IDX 7 13 12 14 8 15 11 16 9 17 13 18 10 19 14 20 15 21
REMARK H PARENT
REMARK Flexibility Score: inf
ROOT
ATOM      1  C   UNL     1      91.099  92.424  75.681  1.00  0.00     0.071 C 
ATOM      2  C   UNL     1      91.382  92.830  76.918  1.00  0.00     0.006 C 
ENDROOT
BRANCH   1   3
ATOM      3  C   UNL     1      89.875  91.624  75.475  1.00  0.00     0.246 C 
ATOM      4  O   UNL     1      89.072  91.563  76.407  1.00  0.00    -0.270 OA
ATOM      5  N   UNL     1      89.714  90.988  74.245  1.00  0.00    -0.339 N 
ATOM      6  C   UNL     1      88.512  90.182  74.013  1.00  0.00     0.120 C 
ATOM      7  C   UNL     1      90.671  91.001  73.128  1.00  0.00     0.120 C 
ATOM      8  C   UNL     1      87.798  90.601  72.733  1.00  0.00     0.022 C 
ATOM      9  C   UNL     1      89.991  91.414  71.823  1.00  0.00     0.022 C 
ATOM     10  C   UNL     1      88.751  90.571  71.541  1.00  0.00     0.004 C 
ENDBRANCH   1   3
BRANCH   2  11
ATOM     11  C   UNL     1      92.558  93.618  77.219  1.00  0.00     0.001 C 
ATOM     12  C   UNL     1      93.630  93.660  76.412  1.00  0.00     0.008 C 
BRANCH  12  13
ATOM     13  C   UNL     1      94.854  94.437  76.674  1.00  0.00    -0.022 A 
ATOM     14  C   UNL     1      95.546  94.988  75.604  1.00  0.00     0.058 A 
ATOM     15  C   UNL     1      95.285  94.598  77.993  1.00  0.00     0.012 A 
ATOM     16  C   UNL     1      96.685  95.707  75.900  1.00  0.00     0.166 A 
ATOM     17  C   UNL     1      96.442  95.331  78.264  1.00  0.00     0.051 A 
ATOM     18  O   UNL     1      97.498  96.321  74.996  1.00  0.00    -0.454 OA
ATOM     19  C   UNL     1      97.122  95.875  77.194  1.00  0.00     0.165 A 
ATOM     20  C   UNL     1      98.495  96.893  75.868  1.00  0.00     0.468 C 
ATOM     21  O   UNL     1      98.263  96.614  77.264  1.00  0.00    -0.454 OA
ENDBRANCH  12  13
ENDBRANCH   2  11
TORSDOF 3
ENDMDL
MODEL 5
REMARK VINA RESULT:    -7.422      2.310      3.879
REMARK INTER + INTRA:          -9.103
REMARK INTER:                  -8.710
REMARK INTRA:                  -0.393
REMARK UNBOUND:                -0.380
REMARK SMILES O=C(/C=C/C=C/c1ccc2c(c1)OCO2)N1CCCCC1
REMARK SMILES IDX 3 1 4 2 2 3 1 4 16 5 17 6 21 7 18 8 20 9 19 10 5 11 6 12
REMARK SMILES IDX 7 13 12 14 8 15 11 16 9 17 13 18 10 19 14 20 15 21
REMARK H PARENT
REMARK Flexibility Score: inf
ROOT
ATOM      1  C   UNL     1      92.809  94.242  76.610  1.00  0.00     0.071 C 
ATOM      2  C   UNL     1      94.088  93.875  76.650  1.00  0.00     0.006 C 
ENDROOT
BRANCH   1   3
ATOM      3  C   UNL     1      91.936  93.609  75.602  1.00  0.00     0.246 C 
ATOM      4  O   UNL     1      92.212  93.791  74.416  1.00  0.00    -0.270 OA
ATOM      5  N   UNL     1      90.857  92.853  76.059  1.00  0.00    -0.339 N 
ATOM      6  C   UNL     1      89.969  92.217  75.081  1.00  0.00     0.120 C 
ATOM      7  C   UNL     1      90.471  92.651  77.463  1.00  0.00     0.120 C 
ATOM      8  C   UNL     1      89.812  90.726  75.360  1.00  0.00     0.022 C 
ATOM      9  C   UNL     1      90.299  91.166  77.782  1.00  0.00     0.022 C 
ATOM     10  C   UNL     1      89.356  90.483  76.795  1.00  0.00     0.004 C 
ENDBRANCH   1   3
BRANCH   2  11
ATOM     11  C   UNL     1      95.021  94.440  77.602  1.00  0.00     0.001 C 
ATOM     12  C   UNL     1      94.808  94.420  78.928  1.00  0.00     0.008 C 
BRANCH  12  13
ATOM     13  C   UNL     1      95.717  94.985  79.938  1.00  0.00    -0.022 A 
ATOM     14  C   UNL     1      97.063  95.132  79.629  1.00  0.00     0.058 A 
ATOM     15  C   UNL     1      95.201  95.359  81.182  1.00  0.00     0.012 A 
ATOM     16  C   UNL     1      97.875  95.667  80.608  1.00  0.00     0.166 A 
ATOM     17  C   UNL     1      96.046  95.898  82.154  1.00  0.00     0.051 A 
ATOM     18  O   UNL     1      99.214  95.889  80.501  1.00  0.00    -0.454 OA
ATOM     19  C   UNL     1      97.381  96.040  81.837  1.00  0.00     0.165 A 
ATOM     20  C   UNL     1      99.506  96.442  81.800  1.00  0.00     0.468 C 
ATOM     21  O   UNL     1      98.348  96.541  82.653  1.00  0.00    -0.454 OA
ENDBRANCH  12  13
ENDBRANCH   2  11
TORSDOF 3
ENDMDL
MODEL 6
REMARK VINA RESULT:    -7.143      3.406      8.820
REMARK INTER + INTRA:          -8.775
REMARK INTER:                  -8.457
REMARK INTRA:                  -0.319
REMARK UNBOUND:                -0.380
REMARK SMILES O=C(/C=C/C=C/c1ccc2c(c1)OCO2)N1CCCCC1
REMARK SMILES IDX 3 1 4 2 2 3 1 4 16 5 17 6 21 7 18 8 20 9 19 10 5 11 6 12
REMARK SMILES IDX 7 13 12 14 8 15 11 16 9 17 13 18 10 19 14 20 15 21
REMARK H PARENT
REMARK Flexibility Score: inf
ROOT
ATOM      1  C   UNL     1      95.919  95.127  74.975  1.00  0.00     0.071 C 
ATOM      2  C   UNL     1      95.130  94.733  75.973  1.00  0.00     0.006 C 
ENDROOT
BRANCH   1   3
ATOM      3  C   UNL     1      97.100  95.949  75.306  1.00  0.00     0.246 C 
ATOM      4  O   UNL     1      97.442  96.003  76.488  1.00  0.00    -0.270 OA
ATOM      5  N   UNL     1      97.744  96.611  74.262  1.00  0.00    -0.339 N 
ATOM      6  C   UNL     1      98.917  97.439  74.561  1.00  0.00     0.120 C 
ATOM      7  C   UNL     1      97.339  96.606  72.848  1.00  0.00     0.120 C 
ATOM      8  C   UNL     1     100.107  97.055  73.688  1.00  0.00     0.022 C 
ATOM      9  C   UNL     1      98.508  96.229  71.939  1.00  0.00     0.022 C 
ATOM     10  C   UNL     1      99.735  97.095  72.209  1.00  0.00     0.004 C 
ENDBRANCH   1   3
BRANCH   2  11
ATOM     11  C   UNL     1      93.950  93.925  75.748  1.00  0.00     0.001 C 
ATOM     12  C   UNL     1      92.920  93.888  76.609  1.00  0.00     0.008 C 
BRANCH  12  13
ATOM     13  C   UNL     1      91.702  93.080  76.434  1.00  0.00    -0.022 A 
ATOM     14  C   UNL     1      91.456  92.486  75.203  1.00  0.00     0.058 A 
ATOM     15  C   UNL     1      90.825  92.933  77.512  1.00  0.00     0.012 A 
ATOM     16  C   UNL     1      90.302  91.738  75.088  1.00  0.00     0.166 A 
ATOM     17  C   UNL     1      89.664  92.171  77.367  1.00  0.00     0.051 A 
ATOM     18  O   UNL     1      89.885  91.081  73.971  1.00  0.00    -0.454 OA
ATOM     19  C   UNL     1      89.430  91.585  76.141  1.00  0.00     0.165 A 
ATOM     20  C   UNL     1      88.653  90.497  74.439  1.00  0.00     0.468 C 
ATOM     21  O   UNL     1      88.358  90.813  75.816  1.00  0.00    -0.454 OA
ENDBRANCH  12  13
ENDBRANCH   2  11
TORSDOF 3
ENDMDL
MODEL 7
REMARK VINA RESULT:    -7.059      4.175      8.179
REMARK INTER + INTRA:          -8.677
REMARK INTER:                  -8.294
REMARK INTRA:                  -0.383
REMARK UNBOUND:                -0.380
REMARK SMILES O=C(/C=C/C=C/c1ccc2c(c1)OCO2)N1CCCCC1
REMARK SMILES IDX 3 1 4 2 2 3 1 4 16 5 17 6 21 7 18 8 20 9 19 10 5 11 6 12
REMARK SMILES IDX 7 13 12 14 8 15 11 16 9 17 13 18 10 19 14 20 15 21
REMARK H PARENT
REMARK Flexibility Score: inf
ROOT
ATOM      1  C   UNL     1      94.629  96.685  74.523  1.00  0.00     0.071 C 
ATOM      2  C   UNL     1      95.044  95.707  75.325  1.00  0.00     0.006 C 
ENDROOT
BRANCH   1   3
ATOM      3  C   UNL     1      95.646  97.582  73.937  1.00  0.00     0.246 C 
ATOM      4  O   UNL     1      96.752  97.618  74.478  1.00  0.00    -0.270 OA
ATOM      5  N   UNL     1      95.285  98.330  72.818  1.00  0.00    -0.339 N 
ATOM      6  C   UNL     1      96.271  99.233  72.217  1.00  0.00     0.120 C 
ATOM      7  C   UNL     1      93.963  98.347  72.173  1.00  0.00     0.120 C 
ATOM      8  C   UNL     1      96.427  98.974  70.723  1.00  0.00     0.022 C 
ATOM      9  C   UNL     1      94.078  98.094  70.670  1.00  0.00     0.022 C 
ATOM     10  C   UNL     1      95.078  99.041  70.013  1.00  0.00     0.004 C 
ENDBRANCH   1   3
BRANCH   2  11
ATOM     11  C   UNL     1      94.124  94.778  75.946  1.00  0.00     0.001 C 
ATOM     12  C   UNL     1      93.347  93.943  75.238  1.00  0.00     0.008 C 
BRANCH  12  13
ATOM     13  C   UNL     1      92.389  92.986  75.817  1.00  0.00    -0.022 A 
ATOM     14  C   UNL     1      91.907  91.951  75.028  1.00  0.00     0.058 A 
ATOM     15  C   UNL     1      91.991  93.146  77.147  1.00  0.00     0.012 A 
ATOM     16  C   UNL     1      91.013  91.080  75.615  1.00  0.00     0.166 A 
ATOM     17  C   UNL     1      91.084  92.250  77.716  1.00  0.00     0.051 A 
ATOM     18  O   UNL     1      90.429  90.008  75.011  1.00  0.00    -0.454 OA
ATOM     19  C   UNL     1      90.612  91.225  76.924  1.00  0.00     0.165 A 
ATOM     20  C   UNL     1      89.616  89.496  76.087  1.00  0.00     0.468 C 
ATOM     21  O   UNL     1      89.727  90.263  77.303  1.00  0.00    -0.454 OA
ENDBRANCH  12  13
ENDBRANCH   2  11
TORSDOF 3
ENDMDL
MODEL 8
REMARK VINA RESULT:    -6.939     26.562     28.817
REMARK INTER + INTRA:          -8.536
REMARK INTER:                  -8.148
REMARK INTRA:                  -0.389
REMARK UNBOUND:                -0.380
REMARK SMILES O=C(/C=C/C=C/c1ccc2c(c1)OCO2)N1CCCCC1
REMARK SMILES IDX 3 1 4 2 2 3 1 4 16 5 17 6 21 7 18 8 20 9 19 10 5 11 6 12
REMARK SMILES IDX 7 13 12 14 8 15 11 16 9 17 13 18 10 19 14 20 15 21
REMARK H PARENT
REMARK Flexibility Score: inf
ROOT
ATOM      1  C   UNL     1      63.217  84.280  76.010  1.00  0.00     0.071 C 
ATOM      2  C   UNL     1      64.175  85.172  75.764  1.00  0.00     0.006 C 
ENDROOT
BRANCH   1   3
ATOM      3  C   UNL     1      62.675  83.511  74.872  1.00  0.00     0.246 C 
ATOM      4  O   UNL     1      61.793  84.042  74.195  1.00  0.00    -0.270 OA
ATOM      5  N   UNL     1      63.192  82.237  74.642  1.00  0.00    -0.339 N 
ATOM      6  C   UNL     1      62.669  81.448  73.523  1.00  0.00     0.120 C 
ATOM      7  C   UNL     1      64.210  81.554  75.453  1.00  0.00     0.120 C 
ATOM      8  C   UNL     1      63.792  80.949  72.621  1.00  0.00     0.022 C 
ATOM      9  C   UNL     1      65.354  81.034  74.582  1.00  0.00     0.022 C 
ATOM     10  C   UNL     1      64.840  80.185  73.424  1.00  0.00     0.004 C 
ENDBRANCH   1   3
BRANCH   2  11
ATOM     11  C   UNL     1      64.768  85.972  76.813  1.00  0.00     0.001 C 
ATOM     12  C   UNL     1      65.545  85.449  77.776  1.00  0.00     0.008 C 
BRANCH  12  13
ATOM     13  C   UNL     1      66.166  86.215  78.870  1.00  0.00    -0.022 A 
ATOM     14  C   UNL     1      66.072  87.600  78.863  1.00  0.00     0.058 A 
ATOM     15  C   UNL     1      66.833  85.525  79.885  1.00  0.00     0.012 A 
ATOM     16  C   UNL     1      66.669  88.273  79.909  1.00  0.00     0.166 A 
ATOM     17  C   UNL     1      67.429  86.232  80.932  1.00  0.00     0.051 A 
ATOM     18  O   UNL     1      66.689  89.623  80.081  1.00  0.00    -0.454 OA
ATOM     19  C   UNL     1      67.330  87.608  80.916  1.00  0.00     0.165 A 
ATOM     20  C   UNL     1      67.436  89.733  81.310  1.00  0.00     0.468 C 
ATOM     21  O   UNL     1      67.846  88.458  81.845  1.00  0.00    -0.454 OA
ENDBRANCH  12  13
ENDBRANCH   2  11
TORSDOF 3
ENDMDL
MODEL 9
REMARK VINA RESULT:    -6.844      3.274      8.947
REMARK INTER + INTRA:          -8.424
REMARK INTER:                  -8.070
REMARK INTRA:                  -0.354
REMARK UNBOUND:                -0.380
REMARK SMILES O=C(/C=C/C=C/c1ccc2c(c1)OCO2)N1CCCCC1
REMARK SMILES IDX 3 1 4 2 2 3 1 4 16 5 17 6 21 7 18 8 20 9 19 10 5 11 6 12
REMARK SMILES IDX 7 13 12 14 8 15 11 16 9 17 13 18 10 19 14 20 15 21
REMARK H PARENT
REMARK Flexibility Score: inf
ROOT
ATOM      1  C   UNL     1      94.982  94.869  75.488  1.00  0.00     0.071 C 
ATOM      2  C   UNL     1      93.760  94.765  76.005  1.00  0.00     0.006 C 
ENDROOT
BRANCH   1   3
ATOM      3  C   UNL     1      95.607  96.206  75.445  1.00  0.00     0.246 C 
ATOM      4  O   UNL     1      95.270  96.963  74.534  1.00  0.00    -0.270 OA
ATOM      5  N   UNL     1      96.538  96.520  76.434  1.00  0.00    -0.339 N 
ATOM      6  C   UNL     1      97.179  97.838  76.414  1.00  0.00     0.120 C 
ATOM      7  C   UNL     1      96.998  95.628  77.509  1.00  0.00     0.120 C 
ATOM      8  C   UNL     1      97.043  98.544  77.759  1.00  0.00     0.022 C 
ATOM      9  C   UNL     1      96.880  96.303  78.875  1.00  0.00     0.022 C 
ATOM     10  C   UNL     1      97.565  97.666  78.892  1.00  0.00     0.004 C 
ENDBRANCH   1   3
BRANCH   2  11
ATOM     11  C   UNL     1      93.065  93.498  76.090  1.00  0.00     0.001 C 
ATOM     12  C   UNL     1      92.018  93.189  75.308  1.00  0.00     0.008 C 
BRANCH  12  13
ATOM     13  C   UNL     1      91.272  91.921  75.358  1.00  0.00    -0.022 A 
ATOM     14  C   UNL     1      91.814  90.794  74.756  1.00  0.00     0.058 A 
ATOM     15  C   UNL     1      90.037  91.887  76.011  1.00  0.00     0.012 A 
ATOM     16  C   UNL     1      91.078  89.629  74.830  1.00  0.00     0.166 A 
ATOM     17  C   UNL     1      89.312  90.694  76.070  1.00  0.00     0.051 A 
ATOM     18  O   UNL     1      91.435  88.425  74.304  1.00  0.00    -0.454 OA
ATOM     19  C   UNL     1      89.860  89.580  75.469  1.00  0.00     0.165 A 
ATOM     20  C   UNL     1      90.305  87.613  74.685  1.00  0.00     0.468 C 
ATOM     21  O   UNL     1      89.302  88.340  75.425  1.00  0.00    -0.454 OA
ENDBRANCH  12  13
ENDBRANCH   2  11
TORSDOF 3
ENDMDL
MODEL 10
REMARK VINA RESULT:    -6.843     21.979     25.263
REMARK INTER + INTRA:          -8.423
REMARK INTER:                  -8.095
REMARK INTRA:                  -0.328
REMARK UNBOUND:                -0.380
REMARK SMILES O=C(/C=C/C=C/c1ccc2c(c1)OCO2)N1CCCCC1
REMARK SMILES IDX 3 1 4 2 2 3 1 4 16 5 17 6 21 7 18 8 20 9 19 10 5 11 6 12
REMARK SMILES IDX 7 13 12 14 8 15 11 16 9 17 13 18 10 19 14 20 15 21
REMARK H PARENT
REMARK Flexibility Score: inf
ROOT
ATOM      1  C   UNL     1      84.341  69.112  72.310  1.00  0.00     0.071 C 
ATOM      2  C   UNL     1      85.558  69.142  71.770  1.00  0.00     0.006 C 
ENDROOT
BRANCH   1   3
ATOM      3  C   UNL     1      84.091  68.155  73.407  1.00  0.00     0.246 C 
ATOM      4  O   UNL     1      84.905  68.124  74.330  1.00  0.00    -0.270 OA
ATOM      5  N   UNL     1      82.957  67.350  73.320  1.00  0.00    -0.339 N 
ATOM      6  C   UNL     1      82.685  66.387  74.391  1.00  0.00     0.120 C 
ATOM      7  C   UNL     1      81.989  67.329  72.214  1.00  0.00     0.120 C 
ATOM      8  C   UNL     1      81.273  66.550  74.943  1.00  0.00     0.022 C 
ATOM      9  C   UNL     1      80.558  67.486  72.727  1.00  0.00     0.022 C 
ATOM     10  C   UNL     1      80.238  66.475  73.825  1.00  0.00     0.004 C 
ENDBRANCH   1   3
BRANCH   2  11
ATOM     11  C   UNL     1      85.899  70.045  70.691  1.00  0.00     0.001 C 
ATOM     12  C   UNL     1      87.165  70.271  70.305  1.00  0.00     0.008 C 
BRANCH  12  13
ATOM     13  C   UNL     1      87.567  71.184  69.222  1.00  0.00    -0.022 A 
ATOM     14  C   UNL     1      88.755  71.891  69.341  1.00  0.00     0.058 A 
ATOM     15  C   UNL     1      86.741  71.312  68.102  1.00  0.00     0.012 A 
ATOM     16  C   UNL     1      89.090  72.733  68.300  1.00  0.00     0.166 A 
ATOM     17  C   UNL     1      87.104  72.172  67.063  1.00  0.00     0.051 A 
ATOM     18  O   UNL     1      90.206  73.509  68.228  1.00  0.00    -0.454 OA
ATOM     19  C   UNL     1      88.286  72.870  67.191  1.00  0.00     0.165 A 
ATOM     20  C   UNL     1      90.014  74.149  66.950  1.00  0.00     0.468 C 
ATOM     21  O   UNL     1      88.798  73.748  66.286  1.00  0.00    -0.454 OA
ENDBRANCH  12  13
ENDBRANCH   2  11
TORSDOF 3
ENDMDL
