MODEL 1
REMARK VINA RESULT:    -6.449      0.000      0.000
REMARK INTER + INTRA:         -13.135
REMARK INTER:                 -10.973
REMARK INTRA:                  -2.162
REMARK UNBOUND:                -2.162
REMARK SMILES C=C(C)[C@]12C[C@@H](C)[C@@]34O[C@](Cc5ccccc5)(O[C@@H]1[C@@H]3C=C(COC(=O)Cc1ccc(O)cc1)C[C@]1(O)C(=O)C(C)=C[C@@H]41)O2
REMARK SMILES IDX 23 1 22 2 21 3 20 4 9 5 8 6 10 7 6 8 18 10 44 11 19 12 5 13
REMARK SMILES IDX 7 14 4 15 11 16 12 17 13 18 17 19 14 20 16 21 15 22 2 23
REMARK SMILES IDX 3 24 1 25 35 26 36 27 43 28 38 29 42 30 39 32 40 33 41 34
REMARK SMILES IDX 37 35 24 37 25 38 26 39 27 40 28 41 29 42 34 43 30 44 33 45
REMARK SMILES IDX 31 46 32 47
REMARK H PARENT 37 36 32 48
REMARK Flexibility Score: 90.00
ROOT
ATOM      1  C   UNL     1      59.135  86.695  72.910  1.00  0.00     0.264 C 
ENDROOT
BRANCH   1   2
ATOM      2  C   UNL     1      60.576  86.868  73.332  1.00  0.00    -0.033 C 
ATOM      3  C   UNL     1      61.101  86.024  74.243  1.00  0.00    -0.015 C 
BRANCH   3   4
ATOM      4  C   UNL     1      62.481  86.030  74.882  1.00  0.00     0.078 C 
ATOM      5  O   UNL     1      63.923  84.575  73.498  1.00  0.00    -0.319 OA
ATOM      6  C   UNL     1      63.741  85.955  73.944  1.00  0.00     0.095 CG0
ATOM      7  C   UNL     1      63.740  83.571  74.514  1.00  0.00     0.289 C 
ATOM      8  C   UNL     1      65.000  86.401  74.795  1.00  0.00     0.023 C 
ATOM      9  G   UNL     1      63.502  86.758  72.632  1.00  0.00     0.000 G0
ATOM     10  O   UNL     1      62.444  83.659  75.101  1.00  0.00    -0.320 OA
ATOM     11  O   UNL     1      64.662  83.715  75.592  1.00  0.00    -0.313 OA
ATOM     12  C   UNL     1      62.603  84.854  75.882  1.00  0.00     0.170 C 
ATOM     13  C   UNL     1      64.858  85.981  76.290  1.00  0.00     0.049 C 
ATOM     14  C   UNL     1      66.362  85.926  74.260  1.00  0.00     0.011 C 
ATOM     15  C   UNL     1      64.038  84.699  76.443  1.00  0.00     0.122 C 
BRANCH   7  16
ATOM     16  C   UNL     1      63.921  82.209  73.874  1.00  0.00     0.135 C 
BRANCH  16  17
ATOM     17  C   UNL     1      64.101  82.305  72.379  1.00  0.00    -0.040 A 
ATOM     18  C   UNL     1      65.361  82.569  71.843  1.00  0.00     0.004 A 
ATOM     19  C   UNL     1      63.006  82.129  71.534  1.00  0.00     0.004 A 
ATOM     20  C   UNL     1      65.526  82.658  70.460  1.00  0.00     0.000 A 
ATOM     21  C   UNL     1      63.172  82.218  70.151  1.00  0.00     0.000 A 
ATOM     22  C   UNL     1      64.431  82.482  69.615  1.00  0.00     0.000 A 
ENDBRANCH  16  17
ENDBRANCH   7  16
BRANCH  15  23
ATOM     23  C   UNL     1      64.041  84.180  77.843  1.00  0.00    -0.046 C 
ATOM     24  C   UNL     1      65.386  83.882  78.436  1.00  0.00     0.042 C 
ATOM     25  C   UNL     1      62.905  83.989  78.531  1.00  0.00     0.010 C 
ENDBRANCH  15  23
ENDBRANCH   3   4
BRANCH   2  26
ATOM     26  C   UNL     1      61.268  88.021  72.630  1.00  0.00     0.078 C 
BRANCH  26  27
ATOM     27  C   UNL     1      62.782  88.129  72.792  1.00  0.00     0.140 C 
ATOM     28  C   UNL     1      63.485  86.765  72.634  1.00  0.00     0.086 CG0
ATOM     29  C   UNL     1      63.426  88.955  71.698  1.00  0.00     0.190 C 
ATOM     30  C   UNL     1      64.644  87.071  71.726  1.00  0.00    -0.010 C 
ATOM     31  G   UNL     1      63.734  85.966  73.946  1.00  0.00     0.000 G0
ATOM     32  O   UNL     1      63.048  90.056  71.327  1.00  0.00    -0.291 OA
ATOM     33  C   UNL     1      64.624  88.283  71.162  1.00  0.00    -0.008 C 
ATOM     34  C   UNL     1      65.539  88.885  70.170  1.00  0.00     0.048 C 
BRANCH  27  35
ATOM     35  O   UNL     1      63.129  88.817  73.983  1.00  0.00    -0.381 OA
ATOM     36  H   UNL     1      63.066  89.772  73.814  1.00  0.00     0.212 HD
ENDBRANCH  27  35
ENDBRANCH  26  27
ENDBRANCH   2  26
ENDBRANCH   1   2
BRANCH   1  37
ATOM     37  O   UNL     1      58.936  85.372  72.460  1.00  0.00    -0.461 OA
BRANCH  37  38
ATOM     38  C   UNL     1      58.570  85.226  71.142  1.00  0.00     0.310 C 
ATOM     39  O   UNL     1      58.099  84.210  70.651  1.00  0.00    -0.252 OA
BRANCH  38  40
ATOM     40  C   UNL     1      58.841  86.513  70.399  1.00  0.00     0.158 C 
BRANCH  40  41
ATOM     41  C   UNL     1      60.210  86.552  69.770  1.00  0.00    -0.037 A 
ATOM     42  C   UNL     1      60.635  87.696  69.095  1.00  0.00     0.008 A 
ATOM     43  C   UNL     1      61.052  85.444  69.862  1.00  0.00     0.008 A 
ATOM     44  C   UNL     1      61.902  87.732  68.512  1.00  0.00     0.046 A 
ATOM     45  C   UNL     1      62.319  85.480  69.280  1.00  0.00     0.046 A 
ATOM     46  C   UNL     1      62.744  86.623  68.604  1.00  0.00     0.115 A 
BRANCH  46  47
ATOM     47  O   UNL     1      63.979  86.658  68.035  1.00  0.00    -0.508 OA
ATOM     48  H   UNL     1      63.893  86.475  67.083  1.00  0.00     0.293 HD
ENDBRANCH  46  47
ENDBRANCH  40  41
ENDBRANCH  38  40
ENDBRANCH  37  38
ENDBRANCH   1  37
TORSDOF 10
ENDMDL
MODEL 2
REMARK VINA RESULT:    -6.434      2.153      6.490
REMARK INTER + INTRA:         -13.110
REMARK INTER:                 -10.605
REMARK INTRA:                  -2.504
REMARK UNBOUND:                -2.162
REMARK SMILES C=C(C)[C@]12C[C@@H](C)[C@@]34O[C@](Cc5ccccc5)(O[C@@H]1[C@@H]3C=C(COC(=O)Cc1ccc(O)cc1)C[C@]1(O)C(=O)C(C)=C[C@@H]41)O2
REMARK SMILES IDX 23 1 22 2 21 3 20 4 9 5 8 6 10 7 6 8 18 10 44 11 19 12 5 13
REMARK SMILES IDX 7 14 4 15 11 16 12 17 13 18 17 19 14 20 16 21 15 22 2 23
REMARK SMILES IDX 3 24 1 25 35 26 36 27 43 28 38 29 42 30 39 32 40 33 41 34
REMARK SMILES IDX 37 35 24 37 25 38 26 39 27 40 28 41 29 42 34 43 30 44 33 45
REMARK SMILES IDX 31 46 32 47
REMARK H PARENT 37 36 32 48
REMARK Flexibility Score: 90.00
ROOT
ATOM      1  C   UNL     1      64.546  88.197  74.832  1.00  0.00     0.264 C 
ENDROOT
BRANCH   1   2
ATOM      2  C   UNL     1      63.277  87.457  74.479  1.00  0.00    -0.033 C 
ATOM      3  C   UNL     1      62.389  88.034  73.641  1.00  0.00    -0.015 C 
BRANCH   3   4
ATOM      4  C   UNL     1      61.023  87.540  73.194  1.00  0.00     0.078 C 
ATOM      5  O   UNL     1      61.359  86.308  71.076  1.00  0.00    -0.319 OA
ATOM      6  C   UNL     1      60.931  86.149  72.465  1.00  0.00     0.095 CG0
ATOM      7  C   UNL     1      60.865  87.487  70.412  1.00  0.00     0.289 C 
ATOM      8  C   UNL     1      59.415  85.690  72.496  1.00  0.00     0.023 C 
ATOM      9  G   UNL     1      61.949  85.139  73.071  1.00  0.00     0.000 G0
ATOM     10  O   UNL     1      61.242  88.671  71.110  1.00  0.00    -0.320 OA
ATOM     11  O   UNL     1      59.442  87.516  70.345  1.00  0.00    -0.313 OA
ATOM     12  C   UNL     1      60.372  88.579  72.249  1.00  0.00     0.170 C 
ATOM     13  C   UNL     1      58.446  86.909  72.419  1.00  0.00     0.049 C 
ATOM     14  C   UNL     1      59.016  84.653  71.432  1.00  0.00     0.011 C 
ATOM     15  C   UNL     1      59.053  88.064  71.621  1.00  0.00     0.122 C 
BRANCH   7  16
ATOM     16  C   UNL     1      61.437  87.515  69.008  1.00  0.00     0.135 C 
BRANCH  16  17
ATOM     17  C   UNL     1      62.638  86.614  68.867  1.00  0.00    -0.040 A 
ATOM     18  C   UNL     1      63.923  87.139  68.993  1.00  0.00     0.004 A 
ATOM     19  C   UNL     1      62.461  85.254  68.612  1.00  0.00     0.004 A 
ATOM     20  C   UNL     1      65.034  86.305  68.863  1.00  0.00     0.000 A 
ATOM     21  C   UNL     1      63.572  84.420  68.483  1.00  0.00     0.000 A 
ATOM     22  C   UNL     1      64.858  84.945  68.608  1.00  0.00     0.000 A 
ENDBRANCH  16  17
ENDBRANCH   7  16
BRANCH  15  23
ATOM     23  C   UNL     1      58.077  89.170  71.381  1.00  0.00    -0.046 C 
ATOM     24  C   UNL     1      57.357  89.142  70.065  1.00  0.00     0.042 C 
ATOM     25  C   UNL     1      57.857  90.132  72.288  1.00  0.00     0.010 C 
ENDBRANCH  15  23
ENDBRANCH   3   4
BRANCH   2  26
ATOM     26  C   UNL     1      63.175  86.097  75.143  1.00  0.00     0.078 C 
BRANCH  26  27
ATOM     27  C   UNL     1      62.076  85.159  74.648  1.00  0.00     0.140 C 
ATOM     28  C   UNL     1      61.960  85.157  73.109  1.00  0.00     0.086 CG0
ATOM     29  C   UNL     1      62.374  83.706  74.953  1.00  0.00     0.190 C 
ATOM     30  C   UNL     1      61.870  83.696  72.767  1.00  0.00    -0.010 C 
ATOM     31  G   UNL     1      60.928  86.150  72.499  1.00  0.00     0.000 G0
ATOM     32  O   UNL     1      62.726  83.268  76.038  1.00  0.00    -0.291 OA
ATOM     33  C   UNL     1      62.125  82.855  73.773  1.00  0.00    -0.008 C 
ATOM     34  C   UNL     1      62.206  81.380  73.783  1.00  0.00     0.048 C 
BRANCH  27  35
ATOM     35  O   UNL     1      60.849  85.400  75.315  1.00  0.00    -0.381 OA
ATOM     36  H   UNL     1      60.542  84.564  75.704  1.00  0.00     0.212 HD
ENDBRANCH  27  35
ENDBRANCH  26  27
ENDBRANCH   2  26
ENDBRANCH   1   2
BRANCH   1  37
ATOM     37  O   UNL     1      65.500  88.002  73.809  1.00  0.00    -0.461 OA
BRANCH  37  38
ATOM     38  C   UNL     1      66.559  87.179  74.115  1.00  0.00     0.310 C 
ATOM     39  O   UNL     1      66.841  86.785  75.238  1.00  0.00    -0.252 OA
BRANCH  38  40
ATOM     40  C   UNL     1      67.314  86.840  72.852  1.00  0.00     0.158 C 
BRANCH  40  41
ATOM     41  C   UNL     1      66.933  85.498  72.282  1.00  0.00    -0.037 A 
ATOM     42  C   UNL     1      67.850  84.782  71.512  1.00  0.00     0.008 A 
ATOM     43  C   UNL     1      65.665  84.972  72.522  1.00  0.00     0.008 A 
ATOM     44  C   UNL     1      67.498  83.540  70.983  1.00  0.00     0.046 A 
ATOM     45  C   UNL     1      65.312  83.730  71.994  1.00  0.00     0.046 A 
ATOM     46  C   UNL     1      66.228  83.014  71.224  1.00  0.00     0.115 A 
BRANCH  46  47
ATOM     47  O   UNL     1      65.884  81.803  70.708  1.00  0.00    -0.508 OA
ATOM     48  H   UNL     1      65.635  81.208  71.437  1.00  0.00     0.293 HD
ENDBRANCH  46  47
ENDBRANCH  40  41
ENDBRANCH  38  40
ENDBRANCH  37  38
ENDBRANCH   1  37
TORSDOF 10
ENDMDL
MODEL 3
REMARK VINA RESULT:    -6.261      9.357     13.056
REMARK INTER + INTRA:         -12.815
REMARK INTER:                 -12.212
REMARK INTRA:                  -0.602
REMARK UNBOUND:                -2.162
REMARK SMILES C=C(C)[C@]12C[C@@H](C)[C@@]34O[C@](Cc5ccccc5)(O[C@@H]1[C@@H]3C=C(COC(=O)Cc1ccc(O)cc1)C[C@]1(O)C(=O)C(C)=C[C@@H]41)O2
REMARK SMILES IDX 23 1 22 2 21 3 20 4 9 5 8 6 10 7 6 8 18 10 44 11 19 12 5 13
REMARK SMILES IDX 7 14 4 15 11 16 12 17 13 18 17 19 14 20 16 21 15 22 2 23
REMARK SMILES IDX 3 24 1 25 35 26 36 27 43 28 38 29 42 30 39 32 40 33 41 34
REMARK SMILES IDX 37 35 24 37 25 38 26 39 27 40 28 41 29 42 34 43 30 44 33 45
REMARK SMILES IDX 31 46 32 47
REMARK H PARENT 37 36 32 48
REMARK Flexibility Score: 90.00
ROOT
ATOM      1  C   UNL     1      70.746  83.813  68.338  1.00  0.00     0.264 C 
ENDROOT
BRANCH   1   2
ATOM      2  C   UNL     1      71.771  84.264  67.323  1.00  0.00    -0.033 C 
ATOM      3  C   UNL     1      72.174  85.551  67.321  1.00  0.00    -0.015 C 
BRANCH   3   4
ATOM      4  C   UNL     1      73.122  86.264  66.370  1.00  0.00     0.078 C 
ATOM      5  O   UNL     1      75.379  86.137  67.373  1.00  0.00    -0.319 OA
ATOM      6  C   UNL     1      74.587  85.712  66.220  1.00  0.00     0.095 CG0
ATOM      7  C   UNL     1      75.179  87.502  67.787  1.00  0.00     0.289 C 
ATOM      8  C   UNL     1      75.203  86.339  64.902  1.00  0.00     0.023 C 
ATOM      9  G   UNL     1      74.602  84.157  66.291  1.00  0.00     0.000 G0
ATOM     10  O   UNL     1      73.811  87.754  68.096  1.00  0.00    -0.320 OA
ATOM     11  O   UNL     1      75.521  88.435  66.765  1.00  0.00    -0.313 OA
ATOM     12  C   UNL     1      73.250  87.754  66.774  1.00  0.00     0.170 C 
ATOM     13  C   UNL     1      74.661  87.778  64.645  1.00  0.00     0.049 C 
ATOM     14  C   UNL     1      76.740  86.353  64.832  1.00  0.00     0.011 C 
ATOM     15  C   UNL     1      74.330  88.500  65.952  1.00  0.00     0.122 C 
BRANCH   7  16
ATOM     16  C   UNL     1      76.037  87.757  69.010  1.00  0.00     0.135 C 
BRANCH  16  17
ATOM     17  C   UNL     1      76.369  86.483  69.746  1.00  0.00    -0.040 A 
ATOM     18  C   UNL     1      75.377  85.811  70.459  1.00  0.00     0.004 A 
ATOM     19  C   UNL     1      77.668  85.977  69.711  1.00  0.00     0.004 A 
ATOM     20  C   UNL     1      75.684  84.631  71.139  1.00  0.00     0.000 A 
ATOM     21  C   UNL     1      77.975  84.797  70.391  1.00  0.00     0.000 A 
ATOM     22  C   UNL     1      76.983  84.125  71.104  1.00  0.00     0.000 A 
ENDBRANCH  16  17
ENDBRANCH   7  16
BRANCH  15  23
ATOM     23  C   UNL     1      73.982  89.937  65.742  1.00  0.00    -0.046 C 
ATOM     24  C   UNL     1      74.659  90.921  66.650  1.00  0.00     0.042 C 
ATOM     25  C   UNL     1      73.114  90.326  64.797  1.00  0.00     0.010 C 
ENDBRANCH  15  23
ENDBRANCH   3   4
BRANCH   2  26
ATOM     26  C   UNL     1      72.232  83.147  66.406  1.00  0.00     0.078 C 
BRANCH  26  27
ATOM     27  C   UNL     1      73.452  83.423  65.528  1.00  0.00     0.140 C 
ATOM     28  C   UNL     1      74.570  84.156  66.298  1.00  0.00     0.086 CG0
ATOM     29  C   UNL     1      74.143  82.153  65.080  1.00  0.00     0.190 C 
ATOM     30  C   UNL     1      75.812  83.399  65.915  1.00  0.00    -0.010 C 
ATOM     31  G   UNL     1      74.564  85.709  66.204  1.00  0.00     0.000 G0
ATOM     32  O   UNL     1      73.589  81.181  64.588  1.00  0.00    -0.291 OA
ATOM     33  C   UNL     1      75.604  82.256  65.255  1.00  0.00    -0.008 C 
ATOM     34  C   UNL     1      76.567  81.231  64.800  1.00  0.00     0.048 C 
BRANCH  27  35
ATOM     35  O   UNL     1      73.084  84.056  64.314  1.00  0.00    -0.381 OA
ATOM     36  H   UNL     1      73.092  83.389  63.606  1.00  0.00     0.212 HD
ENDBRANCH  27  35
ENDBRANCH  26  27
ENDBRANCH   2  26
ENDBRANCH   1   2
BRANCH   1  37
ATOM     37  O   UNL     1      70.119  84.944  68.903  1.00  0.00    -0.461 OA
BRANCH  37  38
ATOM     38  C   UNL     1      70.437  85.225  70.212  1.00  0.00     0.310 C 
ATOM     39  O   UNL     1      70.986  86.247  70.598  1.00  0.00    -0.252 OA
BRANCH  38  40
ATOM     40  C   UNL     1      70.002  84.078  71.092  1.00  0.00     0.158 C 
BRANCH  40  41
ATOM     41  C   UNL     1      68.520  84.074  71.364  1.00  0.00    -0.037 A 
ATOM     42  C   UNL     1      67.672  83.276  70.594  1.00  0.00     0.008 A 
ATOM     43  C   UNL     1      67.995  84.867  72.383  1.00  0.00     0.008 A 
ATOM     44  C   UNL     1      66.300  83.273  70.845  1.00  0.00     0.046 A 
ATOM     45  C   UNL     1      66.622  84.864  72.634  1.00  0.00     0.046 A 
ATOM     46  C   UNL     1      65.775  84.067  71.865  1.00  0.00     0.115 A 
BRANCH  46  47
ATOM     47  O   UNL     1      64.436  84.065  72.109  1.00  0.00    -0.508 OA
ATOM     48  H   UNL     1      64.289  83.951  73.064  1.00  0.00     0.293 HD
ENDBRANCH  46  47
ENDBRANCH  40  41
ENDBRANCH  38  40
ENDBRANCH  37  38
ENDBRANCH   1  37
TORSDOF 10
ENDMDL
MODEL 4
REMARK VINA RESULT:    -6.112      2.956      7.285
REMARK INTER + INTRA:         -12.561
REMARK INTER:                 -11.424
REMARK INTRA:                  -1.137
REMARK UNBOUND:                -2.162
REMARK SMILES C=C(C)[C@]12C[C@@H](C)[C@@]34O[C@](Cc5ccccc5)(O[C@@H]1[C@@H]3C=C(COC(=O)Cc1ccc(O)cc1)C[C@]1(O)C(=O)C(C)=C[C@@H]41)O2
REMARK SMILES IDX 23 1 22 2 21 3 20 4 9 5 8 6 10 7 6 8 18 10 44 11 19 12 5 13
REMARK SMILES IDX 7 14 4 15 11 16 12 17 13 18 17 19 14 20 16 21 15 22 2 23
REMARK SMILES IDX 3 24 1 25 35 26 36 27 43 28 38 29 42 30 39 32 40 33 41 34
REMARK SMILES IDX 37 35 24 37 25 38 26 39 27 40 28 41 29 42 34 43 30 44 33 45
REMARK SMILES IDX 31 46 32 47
REMARK H PARENT 37 36 32 48
REMARK Flexibility Score: 90.00
ROOT
ATOM      1  C   UNL     1      68.146  87.619  72.640  1.00  0.00     0.264 C 
ENDROOT
BRANCH   1   2
ATOM      2  C   UNL     1      67.675  86.295  72.085  1.00  0.00    -0.033 C 
ATOM      3  C   UNL     1      66.451  85.838  72.420  1.00  0.00    -0.015 C 
BRANCH   3   4
ATOM      4  C   UNL     1      65.782  84.520  72.063  1.00  0.00     0.078 C 
ATOM      5  O   UNL     1      64.484  84.909  69.994  1.00  0.00    -0.319 OA
ATOM      6  C   UNL     1      65.610  84.156  70.542  1.00  0.00     0.095 CG0
ATOM      7  C   UNL     1      63.319  84.976  70.840  1.00  0.00     0.289 C 
ATOM      8  C   UNL     1      65.297  82.606  70.453  1.00  0.00     0.023 C 
ATOM      9  G   UNL     1      66.838  84.639  69.716  1.00  0.00     0.000 G0
ATOM     10  O   UNL     1      63.632  85.544  72.108  1.00  0.00    -0.320 OA
ATOM     11  O   UNL     1      62.776  83.688  71.118  1.00  0.00    -0.313 OA
ATOM     12  C   UNL     1      64.369  84.460  72.694  1.00  0.00     0.170 C 
ATOM     13  C   UNL     1      64.472  82.117  71.683  1.00  0.00     0.049 C 
ATOM     14  C   UNL     1      64.604  82.145  69.159  1.00  0.00     0.011 C 
ATOM     15  C   UNL     1      63.566  83.220  72.231  1.00  0.00     0.122 C 
BRANCH   7  16
ATOM     16  C   UNL     1      62.274  85.824  70.142  1.00  0.00     0.135 C 
BRANCH  16  17
ATOM     17  C   UNL     1      60.890  85.585  70.694  1.00  0.00    -0.040 A 
ATOM     18  C   UNL     1      60.469  86.263  71.837  1.00  0.00     0.004 A 
ATOM     19  C   UNL     1      60.033  84.687  70.059  1.00  0.00     0.004 A 
ATOM     20  C   UNL     1      59.189  86.043  72.347  1.00  0.00     0.000 A 
ATOM     21  C   UNL     1      58.753  84.467  70.570  1.00  0.00     0.000 A 
ATOM     22  C   UNL     1      58.332  85.144  71.713  1.00  0.00     0.000 A 
ENDBRANCH  16  17
ENDBRANCH   7  16
BRANCH  15  23
ATOM     23  C   UNL     1      62.637  82.725  73.292  1.00  0.00    -0.046 C 
ATOM     24  C   UNL     1      62.943  81.371  73.860  1.00  0.00     0.042 C 
ATOM     25  C   UNL     1      61.589  83.449  73.711  1.00  0.00     0.010 C 
ENDBRANCH  15  23
ENDBRANCH   3   4
BRANCH   2  26
ATOM     26  C   UNL     1      68.694  85.635  71.175  1.00  0.00     0.078 C 
BRANCH  26  27
ATOM     27  C   UNL     1      68.233  84.413  70.382  1.00  0.00     0.140 C 
ATOM     28  C   UNL     1      66.853  84.629  69.727  1.00  0.00     0.086 CG0
ATOM     29  C   UNL     1      69.119  84.129  69.187  1.00  0.00     0.190 C 
ATOM     30  C   UNL     1      67.048  84.123  68.325  1.00  0.00    -0.010 C 
ATOM     31  G   UNL     1      65.621  84.148  70.548  1.00  0.00     0.000 G0
ATOM     32  O   UNL     1      70.340  84.075  69.208  1.00  0.00    -0.291 OA
ATOM     33  C   UNL     1      68.313  83.860  67.982  1.00  0.00    -0.008 C 
ATOM     34  C   UNL     1      68.878  83.433  66.685  1.00  0.00     0.048 C 
BRANCH  27  35
ATOM     35  O   UNL     1      68.320  83.229  71.157  1.00  0.00    -0.381 OA
ATOM     36  H   UNL     1      68.974  83.371  71.862  1.00  0.00     0.212 HD
ENDBRANCH  27  35
ENDBRANCH  26  27
ENDBRANCH   2  26
ENDBRANCH   1   2
BRANCH   1  37
ATOM     37  O   UNL     1      67.063  88.276  73.263  1.00  0.00    -0.461 OA
BRANCH  37  38
ATOM     38  C   UNL     1      67.195  88.522  74.610  1.00  0.00     0.310 C 
ATOM     39  O   UNL     1      68.096  89.173  75.120  1.00  0.00    -0.252 OA
BRANCH  38  40
ATOM     40  C   UNL     1      66.058  87.865  75.356  1.00  0.00     0.158 C 
BRANCH  40  41
ATOM     41  C   UNL     1      66.526  87.001  76.498  1.00  0.00    -0.037 A 
ATOM     42  C   UNL     1      67.392  85.934  76.256  1.00  0.00     0.008 A 
ATOM     43  C   UNL     1      66.093  87.265  77.796  1.00  0.00     0.008 A 
ATOM     44  C   UNL     1      67.824  85.133  77.312  1.00  0.00     0.046 A 
ATOM     45  C   UNL     1      66.525  86.464  78.854  1.00  0.00     0.046 A 
ATOM     46  C   UNL     1      67.391  85.398  78.612  1.00  0.00     0.115 A 
BRANCH  46  47
ATOM     47  O   UNL     1      67.812  84.616  79.642  1.00  0.00    -0.508 OA
ATOM     48  H   UNL     1      67.928  83.705  79.320  1.00  0.00     0.293 HD
ENDBRANCH  46  47
ENDBRANCH  40  41
ENDBRANCH  38  40
ENDBRANCH  37  38
ENDBRANCH   1  37
TORSDOF 10
ENDMDL
MODEL 5
REMARK VINA RESULT:    -5.800      2.242      3.404
REMARK INTER + INTRA:         -12.030
REMARK INTER:                  -9.653
REMARK INTRA:                  -2.378
REMARK UNBOUND:                -2.162
REMARK SMILES C=C(C)[C@]12C[C@@H](C)[C@@]34O[C@](Cc5ccccc5)(O[C@@H]1[C@@H]3C=C(COC(=O)Cc1ccc(O)cc1)C[C@]1(O)C(=O)C(C)=C[C@@H]41)O2
REMARK SMILES IDX 23 1 22 2 21 3 20 4 9 5 8 6 10 7 6 8 18 10 44 11 19 12 5 13
REMARK SMILES IDX 7 14 4 15 11 16 12 17 13 18 17 19 14 20 16 21 15 22 2 23
REMARK SMILES IDX 3 24 1 25 35 26 36 27 43 28 38 29 42 30 39 32 40 33 41 34
REMARK SMILES IDX 37 35 24 37 25 38 26 39 27 40 28 41 29 42 34 43 30 44 33 45
REMARK SMILES IDX 31 46 32 47
REMARK H PARENT 37 36 32 48
REMARK Flexibility Score: 90.00
ROOT
ATOM      1  C   UNL     1      61.971  88.249  72.582  1.00  0.00     0.264 C 
ENDROOT
BRANCH   1   2
ATOM      2  C   UNL     1      63.267  87.982  73.313  1.00  0.00    -0.033 C 
ATOM      3  C   UNL     1      63.231  87.668  74.625  1.00  0.00    -0.015 C 
BRANCH   3   4
ATOM      4  C   UNL     1      64.379  87.432  75.592  1.00  0.00     0.078 C 
ATOM      5  O   UNL     1      64.847  85.004  75.578  1.00  0.00    -0.319 OA
ATOM      6  C   UNL     1      65.424  86.307  75.253  1.00  0.00     0.095 CG0
ATOM      7  C   UNL     1      64.124  84.944  76.823  1.00  0.00     0.289 C 
ATOM      8  C   UNL     1      66.703  86.552  76.156  1.00  0.00     0.023 C 
ATOM      9  G   UNL     1      65.690  86.242  73.721  1.00  0.00     0.000 G0
ATOM     10  O   UNL     1      63.066  85.897  76.854  1.00  0.00    -0.320 OA
ATOM     11  O   UNL     1      64.950  85.250  77.944  1.00  0.00    -0.313 OA
ATOM     12  C   UNL     1      63.823  87.109  77.001  1.00  0.00     0.170 C 
ATOM     13  C   UNL     1      66.318  87.155  77.542  1.00  0.00     0.049 C 
ATOM     14  C   UNL     1      67.609  85.326  76.368  1.00  0.00     0.011 C 
ATOM     15  C   UNL     1      64.933  86.692  77.996  1.00  0.00     0.122 C 
BRANCH   7  16
ATOM     16  C   UNL     1      63.561  83.546  76.978  1.00  0.00     0.135 C 
BRANCH  16  17
ATOM     17  C   UNL     1      63.132  82.958  75.657  1.00  0.00    -0.040 A 
ATOM     18  C   UNL     1      61.904  83.313  75.101  1.00  0.00     0.004 A 
ATOM     19  C   UNL     1      63.966  82.060  74.992  1.00  0.00     0.004 A 
ATOM     20  C   UNL     1      61.508  82.769  73.879  1.00  0.00     0.000 A 
ATOM     21  C   UNL     1      63.570  81.516  73.769  1.00  0.00     0.000 A 
ATOM     22  C   UNL     1      62.342  81.871  73.213  1.00  0.00     0.000 A 
ENDBRANCH  16  17
ENDBRANCH   7  16
BRANCH  15  23
ATOM     23  C   UNL     1      64.619  87.109  79.395  1.00  0.00    -0.046 C 
ATOM     24  C   UNL     1      65.571  86.640  80.455  1.00  0.00     0.042 C 
ATOM     25  C   UNL     1      63.546  87.859  79.688  1.00  0.00     0.010 C 
ENDBRANCH  15  23
ENDBRANCH   3   4
BRANCH   2  26
ATOM     26  C   UNL     1      64.489  88.104  72.423  1.00  0.00     0.078 C 
BRANCH  26  27
ATOM     27  C   UNL     1      65.821  87.626  72.997  1.00  0.00     0.140 C 
ATOM     28  C   UNL     1      65.695  86.264  73.710  1.00  0.00     0.086 CG0
ATOM     29  C   UNL     1      66.846  87.336  71.921  1.00  0.00     0.190 C 
ATOM     30  C   UNL     1      66.872  85.486  73.190  1.00  0.00    -0.010 C 
ATOM     31  G   UNL     1      65.430  86.315  75.243  1.00  0.00     0.000 G0
ATOM     32  O   UNL     1      67.127  88.079  70.992  1.00  0.00    -0.291 OA
ATOM     33  C   UNL     1      67.522  86.048  72.167  1.00  0.00    -0.008 C 
ATOM     34  C   UNL     1      68.653  85.540  71.364  1.00  0.00     0.048 C 
BRANCH  27  35
ATOM     35  O   UNL     1      66.435  88.631  73.787  1.00  0.00    -0.381 OA
ATOM     36  H   UNL     1      66.482  88.314  74.705  1.00  0.00     0.212 HD
ENDBRANCH  27  35
ENDBRANCH  26  27
ENDBRANCH   2  26
ENDBRANCH   1   2
BRANCH   1  37
ATOM     37  O   UNL     1      61.752  87.227  71.633  1.00  0.00    -0.461 OA
BRANCH  37  38
ATOM     38  C   UNL     1      60.917  86.205  72.021  1.00  0.00     0.310 C 
ATOM     39  O   UNL     1      60.369  86.122  73.111  1.00  0.00    -0.252 OA
BRANCH  38  40
ATOM     40  C   UNL     1      60.784  85.208  70.895  1.00  0.00     0.158 C 
BRANCH  40  41
ATOM     41  C   UNL     1      62.074  84.494  70.587  1.00  0.00    -0.037 A 
ATOM     42  C   UNL     1      63.191  84.689  71.400  1.00  0.00     0.008 A 
ATOM     43  C   UNL     1      62.153  83.638  69.488  1.00  0.00     0.008 A 
ATOM     44  C   UNL     1      64.386  84.029  71.114  1.00  0.00     0.046 A 
ATOM     45  C   UNL     1      63.348  82.977  69.202  1.00  0.00     0.046 A 
ATOM     46  C   UNL     1      64.464  83.173  70.014  1.00  0.00     0.115 A 
BRANCH  46  47
ATOM     47  O   UNL     1      65.630  82.529  69.735  1.00  0.00    -0.508 OA
ATOM     48  H   UNL     1      66.259  82.686  70.461  1.00  0.00     0.293 HD
ENDBRANCH  46  47
ENDBRANCH  40  41
ENDBRANCH  38  40
ENDBRANCH  37  38
ENDBRANCH   1  37
TORSDOF 10
ENDMDL
MODEL 6
REMARK VINA RESULT:    -5.752     10.327     13.734
REMARK INTER + INTRA:         -11.949
REMARK INTER:                 -10.300
REMARK INTRA:                  -1.649
REMARK UNBOUND:                -2.162
REMARK SMILES C=C(C)[C@]12C[C@@H](C)[C@@]34O[C@](Cc5ccccc5)(O[C@@H]1[C@@H]3C=C(COC(=O)Cc1ccc(O)cc1)C[C@]1(O)C(=O)C(C)=C[C@@H]41)O2
REMARK SMILES IDX 23 1 22 2 21 3 20 4 9 5 8 6 10 7 6 8 18 10 44 11 19 12 5 13
REMARK SMILES IDX 7 14 4 15 11 16 12 17 13 18 17 19 14 20 16 21 15 22 2 23
REMARK SMILES IDX 3 24 1 25 35 26 36 27 43 28 38 29 42 30 39 32 40 33 41 34
REMARK SMILES IDX 37 35 24 37 25 38 26 39 27 40 28 41 29 42 34 43 30 44 33 45
REMARK SMILES IDX 31 46 32 47
REMARK H PARENT 37 36 32 48
REMARK Flexibility Score: 90.00
ROOT
ATOM      1  C   UNL     1      75.436  87.806  64.051  1.00  0.00     0.264 C 
ENDROOT
BRANCH   1   2
ATOM      2  C   UNL     1      74.604  88.638  65.000  1.00  0.00    -0.033 C 
ATOM      3  C   UNL     1      73.998  88.037  66.045  1.00  0.00    -0.015 C 
BRANCH   3   4
ATOM      4  C   UNL     1      73.059  88.627  67.085  1.00  0.00     0.078 C 
ATOM      5  O   UNL     1      74.453  89.307  69.011  1.00  0.00    -0.319 OA
ATOM      6  C   UNL     1      73.574  89.825  67.965  1.00  0.00     0.095 CG0
ATOM      7  C   UNL     1      73.997  88.102  69.657  1.00  0.00     0.289 C 
ATOM      8  C   UNL     1      72.310  90.507  68.633  1.00  0.00     0.023 C 
ATOM      9  G   UNL     1      74.482  90.774  67.130  1.00  0.00     0.000 G0
ATOM     10  O   UNL     1      73.796  87.054  68.714  1.00  0.00    -0.320 OA
ATOM     11  O   UNL     1      72.742  88.279  70.310  1.00  0.00    -0.313 OA
ATOM     12  C   UNL     1      72.602  87.521  68.068  1.00  0.00     0.170 C 
ATOM     13  C   UNL     1      71.194  89.463  68.945  1.00  0.00     0.049 C 
ATOM     14  C   UNL     1      72.596  91.339  69.895  1.00  0.00     0.011 C 
ATOM     15  C   UNL     1      71.779  88.084  69.253  1.00  0.00     0.122 C 
BRANCH   7  16
ATOM     16  C   UNL     1      75.040  87.685  70.674  1.00  0.00     0.135 C 
BRANCH  16  17
ATOM     17  C   UNL     1      76.080  86.771  70.077  1.00  0.00    -0.040 A 
ATOM     18  C   UNL     1      76.036  85.401  70.335  1.00  0.00     0.004 A 
ATOM     19  C   UNL     1      77.085  87.296  69.265  1.00  0.00     0.004 A 
ATOM     20  C   UNL     1      76.998  84.555  69.782  1.00  0.00     0.000 A 
ATOM     21  C   UNL     1      78.047  86.450  68.711  1.00  0.00     0.000 A 
ATOM     22  C   UNL     1      78.003  85.080  68.970  1.00  0.00     0.000 A 
ENDBRANCH  16  17
ENDBRANCH   7  16
BRANCH  15  23
ATOM     23  C   UNL     1      70.746  87.116  69.730  1.00  0.00    -0.046 C 
ATOM     24  C   UNL     1      70.418  87.166  71.192  1.00  0.00     0.042 C 
ATOM     25  C   UNL     1      70.147  86.251  68.898  1.00  0.00     0.010 C 
ENDBRANCH  15  23
ENDBRANCH   3   4
BRANCH   2  26
ATOM     26  C   UNL     1      74.571  90.109  64.630  1.00  0.00     0.078 C 
BRANCH  26  27
ATOM     27  C   UNL     1      73.996  91.076  65.663  1.00  0.00     0.140 C 
ATOM     28  C   UNL     1      74.486  90.762  67.092  1.00  0.00     0.086 CG0
ATOM     29  C   UNL     1      74.478  92.497  65.459  1.00  0.00     0.190 C 
ATOM     30  C   UNL     1      74.872  92.110  67.633  1.00  0.00    -0.010 C 
ATOM     31  G   UNL     1      73.571  89.832  67.941  1.00  0.00     0.000 G0
ATOM     32  O   UNL     1      74.474  93.099  64.396  1.00  0.00    -0.291 OA
ATOM     33  C   UNL     1      74.905  93.099  66.735  1.00  0.00    -0.008 C 
ATOM     34  C   UNL     1      75.313  94.511  66.890  1.00  0.00     0.048 C 
BRANCH  27  35
ATOM     35  O   UNL     1      72.586  91.177  65.550  1.00  0.00    -0.381 OA
ATOM     36  H   UNL     1      72.274  90.468  64.962  1.00  0.00     0.212 HD
ENDBRANCH  27  35
ENDBRANCH  26  27
ENDBRANCH   2  26
ENDBRANCH   1   2
BRANCH   1  37
ATOM     37  O   UNL     1      74.596  87.244  63.064  1.00  0.00    -0.461 OA
BRANCH  37  38
ATOM     38  C   UNL     1      74.358  85.893  63.167  1.00  0.00     0.310 C 
ATOM     39  O   UNL     1      73.254  85.370  63.123  1.00  0.00    -0.252 OA
BRANCH  38  40
ATOM     40  C   UNL     1      75.668  85.162  63.342  1.00  0.00     0.158 C 
BRANCH  40  41
ATOM     41  C   UNL     1      75.574  84.012  64.311  1.00  0.00    -0.037 A 
ATOM     42  C   UNL     1      75.331  82.722  63.840  1.00  0.00     0.008 A 
ATOM     43  C   UNL     1      75.729  84.237  65.678  1.00  0.00     0.008 A 
ATOM     44  C   UNL     1      75.243  81.657  64.737  1.00  0.00     0.046 A 
ATOM     45  C   UNL     1      75.642  83.172  66.576  1.00  0.00     0.046 A 
ATOM     46  C   UNL     1      75.399  81.882  66.105  1.00  0.00     0.115 A 
BRANCH  46  47
ATOM     47  O   UNL     1      75.313  80.844  66.980  1.00  0.00    -0.508 OA
ATOM     48  H   UNL     1      76.014  80.200  66.775  1.00  0.00     0.293 HD
ENDBRANCH  46  47
ENDBRANCH  40  41
ENDBRANCH  38  40
ENDBRANCH  37  38
ENDBRANCH   1  37
TORSDOF 10
ENDMDL
MODEL 7
REMARK VINA RESULT:    -5.613      9.057     12.406
REMARK INTER + INTRA:         -11.712
REMARK INTER:                  -9.952
REMARK INTRA:                  -1.760
REMARK UNBOUND:                -2.162
REMARK SMILES C=C(C)[C@]12C[C@@H](C)[C@@]34O[C@](Cc5ccccc5)(O[C@@H]1[C@@H]3C=C(COC(=O)Cc1ccc(O)cc1)C[C@]1(O)C(=O)C(C)=C[C@@H]41)O2
REMARK SMILES IDX 23 1 22 2 21 3 20 4 9 5 8 6 10 7 6 8 18 10 44 11 19 12 5 13
REMARK SMILES IDX 7 14 4 15 11 16 12 17 13 18 17 19 14 20 16 21 15 22 2 23
REMARK SMILES IDX 3 24 1 25 35 26 36 27 43 28 38 29 42 30 39 32 40 33 41 34
REMARK SMILES IDX 37 35 24 37 25 38 26 39 27 40 28 41 29 42 34 43 30 44 33 45
REMARK SMILES IDX 31 46 32 47
REMARK H PARENT 37 36 32 48
REMARK Flexibility Score: 90.00
ROOT
ATOM      1  C   UNL     1      76.943  85.240  69.147  1.00  0.00     0.264 C 
ENDROOT
BRANCH   1   2
ATOM      2  C   UNL     1      75.702  86.095  69.033  1.00  0.00    -0.033 C 
ATOM      3  C   UNL     1      74.602  85.583  68.442  1.00  0.00    -0.015 C 
BRANCH   3   4
ATOM      4  C   UNL     1      73.270  86.252  68.138  1.00  0.00     0.078 C 
ATOM      5  O   UNL     1      71.779  85.790  70.056  1.00  0.00    -0.319 OA
ATOM      6  C   UNL     1      72.452  86.867  69.333  1.00  0.00     0.095 CG0
ATOM      7  C   UNL     1      71.168  84.781  69.229  1.00  0.00     0.289 C 
ATOM      8  C   UNL     1      71.367  87.843  68.718  1.00  0.00     0.023 C 
ATOM      9  G   UNL     1      73.405  87.504  70.386  1.00  0.00     0.000 G0
ATOM     10  O   UNL     1      72.123  84.176  68.361  1.00  0.00    -0.320 OA
ATOM     11  O   UNL     1      70.158  85.316  68.377  1.00  0.00    -0.313 OA
ATOM     12  C   UNL     1      72.329  85.249  67.428  1.00  0.00     0.170 C 
ATOM     13  C   UNL     1      70.859  87.336  67.333  1.00  0.00     0.049 C 
ATOM     14  C   UNL     1      70.160  88.145  69.623  1.00  0.00     0.011 C 
ATOM     15  C   UNL     1      70.898  85.809  67.241  1.00  0.00     0.122 C 
BRANCH   7  16
ATOM     16  C   UNL     1      70.560  83.729  70.135  1.00  0.00     0.135 C 
BRANCH  16  17
ATOM     17  C   UNL     1      69.166  84.099  70.577  1.00  0.00    -0.040 A 
ATOM     18  C   UNL     1      68.982  84.916  71.692  1.00  0.00     0.004 A 
ATOM     19  C   UNL     1      68.062  83.625  69.869  1.00  0.00     0.004 A 
ATOM     20  C   UNL     1      67.693  85.259  72.100  1.00  0.00     0.000 A 
ATOM     21  C   UNL     1      66.773  83.968  70.278  1.00  0.00     0.000 A 
ATOM     22  C   UNL     1      66.589  84.785  71.393  1.00  0.00     0.000 A 
ENDBRANCH  16  17
ENDBRANCH   7  16
BRANCH  15  23
ATOM     23  C   UNL     1      70.249  85.293  65.998  1.00  0.00    -0.046 C 
ATOM     24  C   UNL     1      70.312  86.190  64.798  1.00  0.00     0.042 C 
ATOM     25  C   UNL     1      69.646  84.096  65.957  1.00  0.00     0.010 C 
ENDBRANCH  15  23
ENDBRANCH   3   4
BRANCH   2  26
ATOM     26  C   UNL     1      75.872  87.476  69.636  1.00  0.00     0.078 C 
BRANCH  26  27
ATOM     27  C   UNL     1      74.616  88.333  69.783  1.00  0.00     0.140 C 
ATOM     28  C   UNL     1      73.431  87.536  70.367  1.00  0.00     0.086 CG0
ATOM     29  C   UNL     1      74.789  89.446  70.795  1.00  0.00     0.190 C 
ATOM     30  C   UNL     1      72.876  88.454  71.419  1.00  0.00    -0.010 C 
ATOM     31  G   UNL     1      72.466  86.887  69.333  1.00  0.00     0.000 G0
ATOM     32  O   UNL     1      75.732  90.222  70.840  1.00  0.00    -0.291 OA
ATOM     33  C   UNL     1      73.629  89.521  71.703  1.00  0.00    -0.008 C 
ATOM     34  C   UNL     1      73.440  90.575  72.721  1.00  0.00     0.048 C 
BRANCH  27  35
ATOM     35  O   UNL     1      74.309  89.015  68.579  1.00  0.00    -0.381 OA
ATOM     36  H   UNL     1      74.131  88.354  67.889  1.00  0.00     0.212 HD
ENDBRANCH  27  35
ENDBRANCH  26  27
ENDBRANCH   2  26
ENDBRANCH   1   2
BRANCH   1  37
ATOM     37  O   UNL     1      76.687  83.968  68.591  1.00  0.00    -0.461 OA
BRANCH  37  38
ATOM     38  C   UNL     1      77.516  83.575  67.566  1.00  0.00     0.310 C 
ATOM     39  O   UNL     1      78.733  83.691  67.563  1.00  0.00    -0.252 OA
BRANCH  38  40
ATOM     40  C   UNL     1      76.690  82.980  66.450  1.00  0.00     0.158 C 
BRANCH  40  41
ATOM     41  C   UNL     1      76.079  84.023  65.550  1.00  0.00    -0.037 A 
ATOM     42  C   UNL     1      74.858  83.775  64.923  1.00  0.00     0.008 A 
ATOM     43  C   UNL     1      76.735  85.236  65.344  1.00  0.00     0.008 A 
ATOM     44  C   UNL     1      74.293  84.740  64.089  1.00  0.00     0.046 A 
ATOM     45  C   UNL     1      76.170  86.202  64.510  1.00  0.00     0.046 A 
ATOM     46  C   UNL     1      74.950  85.954  63.883  1.00  0.00     0.115 A 
BRANCH  46  47
ATOM     47  O   UNL     1      74.399  86.895  63.069  1.00  0.00    -0.508 OA
ATOM     48  H   UNL     1      73.500  86.614  62.825  1.00  0.00     0.293 HD
ENDBRANCH  46  47
ENDBRANCH  40  41
ENDBRANCH  38  40
ENDBRANCH  37  38
ENDBRANCH   1  37
TORSDOF 10
ENDMDL
MODEL 8
REMARK VINA RESULT:    -5.576      2.310      7.348
REMARK INTER + INTRA:         -11.650
REMARK INTER:                 -10.426
REMARK INTRA:                  -1.224
REMARK UNBOUND:                -2.162
REMARK SMILES C=C(C)[C@]12C[C@@H](C)[C@@]34O[C@](Cc5ccccc5)(O[C@@H]1[C@@H]3C=C(COC(=O)Cc1ccc(O)cc1)C[C@]1(O)C(=O)C(C)=C[C@@H]41)O2
REMARK SMILES IDX 23 1 22 2 21 3 20 4 9 5 8 6 10 7 6 8 18 10 44 11 19 12 5 13
REMARK SMILES IDX 7 14 4 15 11 16 12 17 13 18 17 19 14 20 16 21 15 22 2 23
REMARK SMILES IDX 3 24 1 25 35 26 36 27 43 28 38 29 42 30 39 32 40 33 41 34
REMARK SMILES IDX 37 35 24 37 25 38 26 39 27 40 28 41 29 42 34 43 30 44 33 45
REMARK SMILES IDX 31 46 32 47
REMARK H PARENT 37 36 32 48
REMARK Flexibility Score: 90.00
ROOT
ATOM      1  C   UNL     1      61.882  82.621  74.193  1.00  0.00     0.264 C 
ENDROOT
BRANCH   1   2
ATOM      2  C   UNL     1      61.901  83.365  72.878  1.00  0.00    -0.033 C 
ATOM      3  C   UNL     1      61.255  84.546  72.780  1.00  0.00    -0.015 C 
BRANCH   3   4
ATOM      4  C   UNL     1      61.061  85.442  71.566  1.00  0.00     0.078 C 
ATOM      5  O   UNL     1      62.904  87.090  71.586  1.00  0.00    -0.319 OA
ATOM      6  C   UNL     1      62.338  85.980  70.822  1.00  0.00     0.095 CG0
ATOM      7  C   UNL     1      61.946  88.028  72.111  1.00  0.00     0.289 C 
ATOM      8  C   UNL     1      61.878  86.505  69.400  1.00  0.00     0.023 C 
ATOM      9  G   UNL     1      63.464  84.906  70.806  1.00  0.00     0.000 G0
ATOM     10  O   UNL     1      60.992  87.380  72.949  1.00  0.00    -0.320 OA
ATOM     11  O   UNL     1      61.188  88.662  71.083  1.00  0.00    -0.313 OA
ATOM     12  C   UNL     1      60.221  86.682  71.958  1.00  0.00     0.170 C 
ATOM     13  C   UNL     1      60.439  87.104  69.448  1.00  0.00     0.049 C 
ATOM     14  C   UNL     1      62.827  87.512  68.728  1.00  0.00     0.011 C 
ATOM     15  C   UNL     1      60.129  87.721  70.813  1.00  0.00     0.122 C 
BRANCH   7  16
ATOM     16  C   UNL     1      62.696  89.079  72.906  1.00  0.00     0.135 C 
BRANCH  16  17
ATOM     17  C   UNL     1      62.747  88.748  74.376  1.00  0.00    -0.040 A 
ATOM     18  C   UNL     1      62.168  89.610  75.307  1.00  0.00     0.004 A 
ATOM     19  C   UNL     1      63.374  87.578  74.805  1.00  0.00     0.004 A 
ATOM     20  C   UNL     1      62.216  89.303  76.667  1.00  0.00     0.000 A 
ATOM     21  C   UNL     1      63.421  87.271  76.165  1.00  0.00     0.000 A 
ATOM     22  C   UNL     1      62.842  88.133  77.095  1.00  0.00     0.000 A 
ENDBRANCH  16  17
ENDBRANCH   7  16
BRANCH  15  23
ATOM     23  C   UNL     1      58.829  88.458  70.827  1.00  0.00    -0.046 C 
ATOM     24  C   UNL     1      58.155  88.636  69.499  1.00  0.00     0.042 C 
ATOM     25  C   UNL     1      58.296  88.934  71.962  1.00  0.00     0.010 C 
ENDBRANCH  15  23
ENDBRANCH   3   4
BRANCH   2  26
ATOM     26  C   UNL     1      62.690  82.648  71.799  1.00  0.00     0.078 C 
BRANCH  26  27
ATOM     27  C   UNL     1      63.012  83.435  70.530  1.00  0.00     0.140 C 
ATOM     28  C   UNL     1      63.454  84.881  70.837  1.00  0.00     0.086 CG0
ATOM     29  C   UNL     1      64.211  82.879  69.791  1.00  0.00     0.190 C 
ATOM     30  C   UNL     1      64.666  85.069  69.968  1.00  0.00    -0.010 C 
ATOM     31  G   UNL     1      62.330  85.959  70.823  1.00  0.00     0.000 G0
ATOM     32  O   UNL     1      64.386  81.703  69.510  1.00  0.00    -0.291 OA
ATOM     33  C   UNL     1      65.133  83.958  69.389  1.00  0.00    -0.008 C 
ATOM     34  C   UNL     1      66.332  83.754  68.551  1.00  0.00     0.048 C 
BRANCH  27  35
ATOM     35  O   UNL     1      61.960  83.347  69.583  1.00  0.00    -0.381 OA
ATOM     36  H   UNL     1      62.247  83.785  68.764  1.00  0.00     0.212 HD
ENDBRANCH  27  35
ENDBRANCH  26  27
ENDBRANCH   2  26
ENDBRANCH   1   2
BRANCH   1  37
ATOM     37  O   UNL     1      63.189  82.585  74.727  1.00  0.00    -0.461 OA
BRANCH  37  38
ATOM     38  C   UNL     1      63.391  83.297  75.886  1.00  0.00     0.310 C 
ATOM     39  O   UNL     1      62.550  83.991  76.440  1.00  0.00    -0.252 OA
BRANCH  38  40
ATOM     40  C   UNL     1      64.808  83.089  76.364  1.00  0.00     0.158 C 
BRANCH  40  41
ATOM     41  C   UNL     1      65.319  84.231  77.205  1.00  0.00    -0.037 A 
ATOM     42  C   UNL     1      66.358  85.033  76.733  1.00  0.00     0.008 A 
ATOM     43  C   UNL     1      64.754  84.485  78.454  1.00  0.00     0.008 A 
ATOM     44  C   UNL     1      66.832  86.090  77.511  1.00  0.00     0.046 A 
ATOM     45  C   UNL     1      65.227  85.542  79.232  1.00  0.00     0.046 A 
ATOM     46  C   UNL     1      66.266  86.344  78.761  1.00  0.00     0.115 A 
BRANCH  46  47
ATOM     47  O   UNL     1      66.728  87.374  79.520  1.00  0.00    -0.508 OA
ATOM     48  H   UNL     1      66.012  87.684  80.102  1.00  0.00     0.293 HD
ENDBRANCH  46  47
ENDBRANCH  40  41
ENDBRANCH  38  40
ENDBRANCH  37  38
ENDBRANCH   1  37
TORSDOF 10
ENDMDL
MODEL 9
REMARK VINA RESULT:    -5.372      3.700      7.019
REMARK INTER + INTRA:         -11.303
REMARK INTER:                 -11.299
REMARK INTRA:                  -0.004
REMARK UNBOUND:                -2.162
REMARK SMILES C=C(C)[C@]12C[C@@H](C)[C@@]34O[C@](Cc5ccccc5)(O[C@@H]1[C@@H]3C=C(COC(=O)Cc1ccc(O)cc1)C[C@]1(O)C(=O)C(C)=C[C@@H]41)O2
REMARK SMILES IDX 23 1 22 2 21 3 20 4 9 5 8 6 10 7 6 8 18 10 44 11 19 12 5 13
REMARK SMILES IDX 7 14 4 15 11 16 12 17 13 18 17 19 14 20 16 21 15 22 2 23
REMARK SMILES IDX 3 24 1 25 35 26 36 27 43 28 38 29 42 30 39 32 40 33 41 34
REMARK SMILES IDX 37 35 24 37 25 38 26 39 27 40 28 41 29 42 34 43 30 44 33 45
REMARK SMILES IDX 31 46 32 47
REMARK H PARENT 37 36 32 48
REMARK Flexibility Score: 90.00
ROOT
ATOM      1  C   UNL     1      67.815  86.893  72.774  1.00  0.00     0.264 C 
ENDROOT
BRANCH   1   2
ATOM      2  C   UNL     1      66.621  86.549  73.635  1.00  0.00    -0.033 C 
ATOM      3  C   UNL     1      65.459  86.204  73.043  1.00  0.00    -0.015 C 
BRANCH   3   4
ATOM      4  C   UNL     1      64.111  85.891  73.672  1.00  0.00     0.078 C 
ATOM      5  O   UNL     1      64.032  83.445  74.027  1.00  0.00    -0.319 OA
ATOM      6  C   UNL     1      64.029  84.728  74.728  1.00  0.00     0.095 CG0
ATOM      7  C   UNL     1      63.206  83.386  72.848  1.00  0.00     0.289 C 
ATOM      8  C   UNL     1      62.665  84.891  75.517  1.00  0.00     0.023 C 
ATOM      9  G   UNL     1      65.311  84.691  75.610  1.00  0.00     0.000 G0
ATOM     10  O   UNL     1      63.581  84.386  71.904  1.00  0.00    -0.320 OA
ATOM     11  O   UNL     1      61.831  83.625  73.137  1.00  0.00    -0.313 OA
ATOM     12  C   UNL     1      63.079  85.557  72.566  1.00  0.00     0.170 C 
ATOM     13  C   UNL     1      61.543  85.475  74.605  1.00  0.00     0.049 C 
ATOM     14  C   UNL     1      62.147  83.620  76.212  1.00  0.00     0.011 C 
ATOM     15  C   UNL     1      61.730  85.064  73.144  1.00  0.00     0.122 C 
BRANCH   7  16
ATOM     16  C   UNL     1      63.361  82.012  72.229  1.00  0.00     0.135 C 
BRANCH  16  17
ATOM     17  C   UNL     1      63.535  82.081  70.732  1.00  0.00    -0.040 A 
ATOM     18  C   UNL     1      64.784  81.835  70.163  1.00  0.00     0.004 A 
ATOM     19  C   UNL     1      62.446  82.391  69.918  1.00  0.00     0.004 A 
ATOM     20  C   UNL     1      64.945  81.899  68.778  1.00  0.00     0.000 A 
ATOM     21  C   UNL     1      62.607  82.455  68.533  1.00  0.00     0.000 A 
ATOM     22  C   UNL     1      63.856  82.209  67.964  1.00  0.00     0.000 A 
ENDBRANCH  16  17
ENDBRANCH   7  16
BRANCH  15  23
ATOM     23  C   UNL     1      60.573  85.459  72.284  1.00  0.00    -0.046 C 
ATOM     24  C   UNL     1      59.393  86.051  72.995  1.00  0.00     0.042 C 
ATOM     25  C   UNL     1      60.589  85.292  70.954  1.00  0.00     0.010 C 
ENDBRANCH  15  23
ENDBRANCH   3   4
BRANCH   2  26
ATOM     26  C   UNL     1      66.914  86.635  75.121  1.00  0.00     0.078 C 
BRANCH  26  27
ATOM     27  C   UNL     1      65.853  86.087  76.074  1.00  0.00     0.140 C 
ATOM     28  C   UNL     1      65.322  84.710  75.626  1.00  0.00     0.086 CG0
ATOM     29  C   UNL     1      66.409  85.789  77.451  1.00  0.00     0.190 C 
ATOM     30  C   UNL     1      65.332  83.902  76.894  1.00  0.00    -0.010 C 
ATOM     31  G   UNL     1      64.042  84.724  74.740  1.00  0.00     0.000 G0
ATOM     32  O   UNL     1      67.098  86.548  78.116  1.00  0.00    -0.291 OA
ATOM     33  C   UNL     1      65.959  84.468  77.929  1.00  0.00    -0.008 C 
ATOM     34  C   UNL     1      66.232  83.940  79.282  1.00  0.00     0.048 C 
BRANCH  27  35
ATOM     35  O   UNL     1      64.834  87.042  76.320  1.00  0.00    -0.381 OA
ATOM     36  H   UNL     1      64.303  87.139  75.511  1.00  0.00     0.212 HD
ENDBRANCH  27  35
ENDBRANCH  26  27
ENDBRANCH   2  26
ENDBRANCH   1   2
BRANCH   1  37
ATOM     37  O   UNL     1      67.901  88.296  72.637  1.00  0.00    -0.461 OA
BRANCH  37  38
ATOM     38  C   UNL     1      68.790  88.760  71.695  1.00  0.00     0.310 C 
ATOM     39  O   UNL     1      68.930  89.933  71.380  1.00  0.00    -0.252 OA
BRANCH  38  40
ATOM     40  C   UNL     1      69.562  87.599  71.116  1.00  0.00     0.158 C 
BRANCH  40  41
ATOM     41  C   UNL     1      71.050  87.838  71.087  1.00  0.00    -0.037 A 
ATOM     42  C   UNL     1      71.632  88.721  71.996  1.00  0.00     0.008 A 
ATOM     43  C   UNL     1      71.844  87.178  70.151  1.00  0.00     0.008 A 
ATOM     44  C   UNL     1      73.009  88.943  71.969  1.00  0.00     0.046 A 
ATOM     45  C   UNL     1      73.222  87.399  70.123  1.00  0.00     0.046 A 
ATOM     46  C   UNL     1      73.804  88.282  71.032  1.00  0.00     0.115 A 
BRANCH  46  47
ATOM     47  O   UNL     1      75.147  88.499  71.005  1.00  0.00    -0.508 OA
ATOM     48  H   UNL     1      75.404  88.776  70.109  1.00  0.00     0.293 HD
ENDBRANCH  46  47
ENDBRANCH  40  41
ENDBRANCH  38  40
ENDBRANCH  37  38
ENDBRANCH   1  37
TORSDOF 10
ENDMDL
MODEL 10
REMARK VINA RESULT:    -5.322     31.704     35.996
REMARK INTER + INTRA:         -11.217
REMARK INTER:                 -10.931
REMARK INTRA:                  -0.286
REMARK UNBOUND:                -2.162
REMARK SMILES C=C(C)[C@]12C[C@@H](C)[C@@]34O[C@](Cc5ccccc5)(O[C@@H]1[C@@H]3C=C(COC(=O)Cc1ccc(O)cc1)C[C@]1(O)C(=O)C(C)=C[C@@H]41)O2
REMARK SMILES IDX 23 1 22 2 21 3 20 4 9 5 8 6 10 7 6 8 18 10 44 11 19 12 5 13
REMARK SMILES IDX 7 14 4 15 11 16 12 17 13 18 17 19 14 20 16 21 15 22 2 23
REMARK SMILES IDX 3 24 1 25 35 26 36 27 43 28 38 29 42 30 39 32 40 33 41 34
REMARK SMILES IDX 37 35 24 37 25 38 26 39 27 40 28 41 29 42 34 43 30 44 33 45
REMARK SMILES IDX 31 46 32 47
REMARK H PARENT 37 36 32 48
REMARK Flexibility Score: 90.00
ROOT
ATOM      1  C   UNL     1      96.780  82.423  87.158  1.00  0.00     0.264 C 
ENDROOT
BRANCH   1   2
ATOM      2  C   UNL     1      95.499  82.183  87.923  1.00  0.00    -0.033 C 
ATOM      3  C   UNL     1      95.353  82.722  89.151  1.00  0.00    -0.015 C 
BRANCH   3   4
ATOM      4  C   UNL     1      94.210  82.569  90.142  1.00  0.00     0.078 C 
ATOM      5  O   UNL     1      92.628  84.420  89.708  1.00  0.00    -0.319 OA
ATOM      6  C   UNL     1      92.760  82.965  89.679  1.00  0.00     0.095 CG0
ATOM      7  C   UNL     1      93.202  85.066  90.861  1.00  0.00     0.289 C 
ATOM      8  C   UNL     1      91.737  82.326  90.707  1.00  0.00     0.023 C 
ATOM      9  G   UNL     1      92.533  82.584  88.187  1.00  0.00     0.000 G0
ATOM     10  O   UNL     1      94.588  84.763  90.989  1.00  0.00    -0.320 OA
ATOM     11  O   UNL     1      92.599  84.636  92.080  1.00  0.00    -0.313 OA
ATOM     12  C   UNL     1      94.507  83.395  91.418  1.00  0.00     0.170 C 
ATOM     13  C   UNL     1      92.332  82.273  92.147  1.00  0.00     0.049 C 
ATOM     14  C   UNL     1      90.348  82.984  90.753  1.00  0.00     0.011 C 
ATOM     15  C   UNL     1      93.310  83.422  92.399  1.00  0.00     0.122 C 
BRANCH   7  16
ATOM     16  C   UNL     1      93.016  86.563  90.707  1.00  0.00     0.135 C 
BRANCH  16  17
ATOM     17  C   UNL     1      94.303  87.259  90.341  1.00  0.00    -0.040 A 
ATOM     18  C   UNL     1      94.911  88.124  91.249  1.00  0.00     0.004 A 
ATOM     19  C   UNL     1      94.883  87.036  89.092  1.00  0.00     0.004 A 
ATOM     20  C   UNL     1      96.102  88.768  90.909  1.00  0.00     0.000 A 
ATOM     21  C   UNL     1      96.074  87.679  88.753  1.00  0.00     0.000 A 
ATOM     22  C   UNL     1      96.683  88.545  89.661  1.00  0.00     0.000 A 
ENDBRANCH  16  17
ENDBRANCH   7  16
BRANCH  15  23
ATOM     23  C   UNL     1      93.752  83.497  93.824  1.00  0.00    -0.046 C 
ATOM     24  C   UNL     1      93.222  84.652  94.622  1.00  0.00     0.042 C 
ATOM     25  C   UNL     1      94.577  82.585  94.360  1.00  0.00     0.010 C 
ENDBRANCH  15  23
ENDBRANCH   3   4
BRANCH   2  26
ATOM     26  C   UNL     1      94.500  81.333  87.159  1.00  0.00     0.078 C 
BRANCH  26  27
ATOM     27  C   UNL     1      93.097  81.205  87.749  1.00  0.00     0.140 C 
ATOM     28  C   UNL     1      92.523  82.568  88.191  1.00  0.00     0.086 CG0
ATOM     29  C   UNL     1      92.080  80.738  86.730  1.00  0.00     0.190 C 
ATOM     30  C   UNL     1      91.124  82.552  87.641  1.00  0.00    -0.010 C 
ATOM     31  G   UNL     1      92.754  82.960  89.679  1.00  0.00     0.000 G0
ATOM     32  O   UNL     1      92.217  79.784  85.979  1.00  0.00    -0.291 OA
ATOM     33  C   UNL     1      90.852  81.554  86.795  1.00  0.00    -0.008 C 
ATOM     34  C   UNL     1      89.630  81.275  86.014  1.00  0.00     0.048 C 
BRANCH  27  35
ATOM     35  O   UNL     1      93.048  80.210  88.758  1.00  0.00    -0.381 OA
ATOM     36  H   UNL     1      93.335  80.609  89.597  1.00  0.00     0.212 HD
ENDBRANCH  27  35
ENDBRANCH  26  27
ENDBRANCH   2  26
ENDBRANCH   1   2
BRANCH   1  37
ATOM     37  O   UNL     1      96.707  83.674  86.507  1.00  0.00    -0.461 OA
BRANCH  37  38
ATOM     38  C   UNL     1      97.750  83.980  85.663  1.00  0.00     0.310 C 
ATOM     39  O   UNL     1      98.098  85.113  85.359  1.00  0.00    -0.252 OA
BRANCH  38  40
ATOM     40  C   UNL     1      98.392  82.705  85.172  1.00  0.00     0.158 C 
BRANCH  40  41
ATOM     41  C   UNL     1      98.696  82.730  83.697  1.00  0.00    -0.037 A 
ATOM     42  C   UNL     1      99.938  82.294  83.233  1.00  0.00     0.008 A 
ATOM     43  C   UNL     1      97.738  83.189  82.794  1.00  0.00     0.008 A 
ATOM     44  C   UNL     1     100.220  82.318  81.867  1.00  0.00     0.046 A 
ATOM     45  C   UNL     1      98.019  83.212  81.428  1.00  0.00     0.046 A 
ATOM     46  C   UNL     1      99.260  82.778  80.964  1.00  0.00     0.115 A 
BRANCH  46  47
ATOM     47  O   UNL     1      99.535  82.801  79.632  1.00  0.00    -0.508 OA
ATOM     48  H   UNL     1      99.874  83.682  79.395  1.00  0.00     0.293 HD
ENDBRANCH  46  47
ENDBRANCH  40  41
ENDBRANCH  38  40
ENDBRANCH  37  38
ENDBRANCH   1  37
TORSDOF 10
ENDMDL
