MODEL 1
REMARK VINA RESULT:    -6.478      0.000      0.000
REMARK INTER + INTRA:         -11.059
REMARK INTER:                 -10.075
REMARK INTRA:                  -0.984
REMARK UNBOUND:                -0.984
REMARK SMILES CCCCC/C=C/C(=O)CCc1ccc(O)c(OC)c1
REMARK SMILES IDX 6 1 7 2 8 3 9 4 10 5 11 6 12 7 17 8 20 9 15 10 14 11 13 12
REMARK SMILES IDX 18 13 19 14 16 15 5 17 4 18 3 19 2 20 1 21
REMARK H PARENT 16 16
REMARK Flexibility Score: inf
ROOT
ATOM      1  C   UNL     1      93.092  94.549  76.369  1.00  0.00    -0.023 C 
ATOM      2  C   UNL     1      93.837  95.129  75.420  1.00  0.00     0.043 C 
ENDROOT
BRANCH   2   3
ATOM      3  C   UNL     1      95.318  94.981  75.445  1.00  0.00     0.155 C 
ATOM      4  O   UNL     1      95.883  94.024  74.920  1.00  0.00    -0.295 OA
BRANCH   3   5
ATOM      5  C   UNL     1      96.091  96.045  76.199  1.00  0.00     0.085 C 
BRANCH   5   6
ATOM      6  C   UNL     1      97.084  95.419  77.181  1.00  0.00     0.044 C 
BRANCH   6   7
ATOM      7  C   UNL     1      96.508  95.244  78.566  1.00  0.00    -0.044 A 
ATOM      8  C   UNL     1      96.162  96.080  80.789  1.00  0.00     0.160 A 
ATOM      9  C   UNL     1      96.694  96.242  79.510  1.00  0.00     0.054 A 
ATOM     10  C   UNL     1      95.452  94.923  81.108  1.00  0.00     0.157 A 
ATOM     11  C   UNL     1      95.274  93.927  80.147  1.00  0.00     0.050 A 
ATOM     12  C   UNL     1      95.806  94.089  78.868  1.00  0.00     0.008 A 
BRANCH   8  13
ATOM     13  O   UNL     1      96.343  97.059  81.719  1.00  0.00    -0.493 OA
ATOM     14  C   UNL     1      96.295  98.408  81.257  1.00  0.00     0.278 C 
ENDBRANCH   8  13
BRANCH  10  15
ATOM     15  O   UNL     1      94.928  94.753  82.354  1.00  0.00    -0.504 OA
ATOM     16  H   UNL     1      95.312  93.947  82.740  1.00  0.00     0.293 HD
ENDBRANCH  10  15
ENDBRANCH   6   7
ENDBRANCH   5   6
ENDBRANCH   3   5
ENDBRANCH   2   3
BRANCH   1  17
ATOM     17  C   UNL     1      91.595  94.652  76.414  1.00  0.00     0.027 C 
BRANCH  17  18
ATOM     18  C   UNL     1      90.893  93.314  76.161  1.00  0.00     0.004 C 
BRANCH  18  19
ATOM     19  C   UNL     1      89.840  92.963  77.218  1.00  0.00     0.000 C 
BRANCH  19  20
ATOM     20  C   UNL     1      90.235  91.705  77.992  1.00  0.00    -0.003 C 
ATOM     21  C   UNL     1      90.326  90.494  77.078  1.00  0.00     0.004 C 
ENDBRANCH  19  20
ENDBRANCH  18  19
ENDBRANCH  17  18
ENDBRANCH   1  17
TORSDOF 10
ENDMDL
MODEL 2
REMARK VINA RESULT:    -5.695     13.632     16.897
REMARK INTER + INTRA:          -9.841
REMARK INTER:                  -8.355
REMARK INTRA:                  -1.487
REMARK UNBOUND:                -0.984
REMARK SMILES CCCCC/C=C/C(=O)CCc1ccc(O)c(OC)c1
REMARK SMILES IDX 6 1 7 2 8 3 9 4 10 5 11 6 12 7 17 8 20 9 15 10 14 11 13 12
REMARK SMILES IDX 18 13 19 14 16 15 5 17 4 18 3 19 2 20 1 21
REMARK H PARENT 16 16
REMARK Flexibility Score: inf
ROOT
ATOM      1  C   UNL     1      81.729  90.006  84.773  1.00  0.00    -0.023 C 
ATOM      2  C   UNL     1      82.894  89.347  84.804  1.00  0.00     0.043 C 
ENDROOT
BRANCH   2   3
ATOM      3  C   UNL     1      84.127  90.042  85.263  1.00  0.00     0.155 C 
ATOM      4  O   UNL     1      85.194  89.937  84.661  1.00  0.00    -0.295 OA
BRANCH   3   5
ATOM      5  C   UNL     1      84.013  90.845  86.545  1.00  0.00     0.085 C 
BRANCH   5   6
ATOM      6  C   UNL     1      83.745  89.937  87.746  1.00  0.00     0.044 C 
BRANCH   6   7
ATOM      7  C   UNL     1      82.301  89.960  88.189  1.00  0.00    -0.044 A 
ATOM      8  C   UNL     1      80.252  88.797  88.643  1.00  0.00     0.160 A 
ATOM      9  C   UNL     1      81.585  88.775  88.234  1.00  0.00     0.054 A 
ATOM     10  C   UNL     1      79.652  90.003  89.002  1.00  0.00     0.157 A 
ATOM     11  C   UNL     1      80.385  91.189  88.951  1.00  0.00     0.050 A 
ATOM     12  C   UNL     1      81.719  91.167  88.542  1.00  0.00     0.008 A 
BRANCH   8  13
ATOM     13  O   UNL     1      79.546  87.632  88.688  1.00  0.00    -0.493 OA
ATOM     14  C   UNL     1      79.928  86.680  89.679  1.00  0.00     0.278 C 
ENDBRANCH   8  13
BRANCH  10  15
ATOM     15  O   UNL     1      78.351  90.037  89.403  1.00  0.00    -0.504 OA
ATOM     16  H   UNL     1      77.819  90.422  88.685  1.00  0.00     0.293 HD
ENDBRANCH  10  15
ENDBRANCH   6   7
ENDBRANCH   5   6
ENDBRANCH   3   5
ENDBRANCH   2   3
BRANCH   1  17
ATOM     17  C   UNL     1      80.442  89.377  84.323  1.00  0.00     0.027 C 
BRANCH  17  18
ATOM     18  C   UNL     1      80.649  88.063  83.562  1.00  0.00     0.004 C 
BRANCH  18  19
ATOM     19  C   UNL     1      79.937  86.866  84.199  1.00  0.00     0.000 C 
BRANCH  19  20
ATOM     20  C   UNL     1      80.941  85.812  84.667  1.00  0.00    -0.003 C 
ATOM     21  C   UNL     1      81.115  85.841  86.177  1.00  0.00     0.004 C 
ENDBRANCH  19  20
ENDBRANCH  18  19
ENDBRANCH  17  18
ENDBRANCH   1  17
TORSDOF 10
ENDMDL
MODEL 3
REMARK VINA RESULT:    -5.540     27.148     30.453
REMARK INTER + INTRA:          -9.600
REMARK INTER:                  -8.241
REMARK INTRA:                  -1.359
REMARK UNBOUND:                -0.984
REMARK SMILES CCCCC/C=C/C(=O)CCc1ccc(O)c(OC)c1
REMARK SMILES IDX 6 1 7 2 8 3 9 4 10 5 11 6 12 7 17 8 20 9 15 10 14 11 13 12
REMARK SMILES IDX 18 13 19 14 16 15 5 17 4 18 3 19 2 20 1 21
REMARK H PARENT 16 16
REMARK Flexibility Score: inf
ROOT
ATOM      1  C   UNL     1      81.077  65.327  73.734  1.00  0.00    -0.023 C 
ATOM      2  C   UNL     1      80.253  65.179  72.689  1.00  0.00     0.043 C 
ENDROOT
BRANCH   2   3
ATOM      3  C   UNL     1      80.209  66.220  71.626  1.00  0.00     0.155 C 
ATOM      4  O   UNL     1      79.792  65.976  70.495  1.00  0.00    -0.295 OA
BRANCH   3   5
ATOM      5  C   UNL     1      80.755  67.586  71.994  1.00  0.00     0.085 C 
BRANCH   5   6
ATOM      6  C   UNL     1      81.739  68.094  70.938  1.00  0.00     0.044 C 
BRANCH   6   7
ATOM      7  C   UNL     1      83.017  68.631  71.537  1.00  0.00    -0.044 A 
ATOM      8  C   UNL     1      84.857  68.390  73.058  1.00  0.00     0.160 A 
ATOM      9  C   UNL     1      83.677  67.893  72.506  1.00  0.00     0.054 A 
ATOM     10  C   UNL     1      85.363  69.619  72.635  1.00  0.00     0.157 A 
ATOM     11  C   UNL     1      84.686  70.351  71.658  1.00  0.00     0.050 A 
ATOM     12  C   UNL     1      83.506  69.854  71.106  1.00  0.00     0.008 A 
BRANCH   8  13
ATOM     13  O   UNL     1      85.508  67.665  74.011  1.00  0.00    -0.493 OA
ATOM     14  C   UNL     1      86.278  66.551  73.565  1.00  0.00     0.278 C 
ENDBRANCH   8  13
BRANCH  10  15
ATOM     15  O   UNL     1      86.515  70.114  73.166  1.00  0.00    -0.504 OA
ATOM     16  H   UNL     1      86.658  71.006  72.805  1.00  0.00     0.293 HD
ENDBRANCH  10  15
ENDBRANCH   6   7
ENDBRANCH   5   6
ENDBRANCH   3   5
ENDBRANCH   2   3
BRANCH   1  17
ATOM     17  C   UNL     1      81.179  64.324  74.846  1.00  0.00     0.027 C 
BRANCH  17  18
ATOM     18  C   UNL     1      81.833  64.892  76.110  1.00  0.00     0.004 C 
BRANCH  18  19
ATOM     19  C   UNL     1      81.685  66.411  76.248  1.00  0.00     0.000 C 
BRANCH  19  20
ATOM     20  C   UNL     1      83.048  67.084  76.420  1.00  0.00    -0.003 C 
ATOM     21  C   UNL     1      84.126  66.076  76.782  1.00  0.00     0.004 C 
ENDBRANCH  19  20
ENDBRANCH  18  19
ENDBRANCH  17  18
ENDBRANCH   1  17
TORSDOF 10
ENDMDL
MODEL 4
REMARK VINA RESULT:    -5.476     13.425     16.869
REMARK INTER + INTRA:          -9.501
REMARK INTER:                  -8.003
REMARK INTRA:                  -1.498
REMARK UNBOUND:                -0.984
REMARK SMILES CCCCC/C=C/C(=O)CCc1ccc(O)c(OC)c1
REMARK SMILES IDX 6 1 7 2 8 3 9 4 10 5 11 6 12 7 17 8 20 9 15 10 14 11 13 12
REMARK SMILES IDX 18 13 19 14 16 15 5 17 4 18 3 19 2 20 1 21
REMARK H PARENT 16 16
REMARK Flexibility Score: inf
ROOT
ATOM      1  C   UNL     1      80.915  86.185  87.025  1.00  0.00    -0.023 C 
ATOM      2  C   UNL     1      80.068  87.124  87.463  1.00  0.00     0.043 C 
ENDROOT
BRANCH   2   3
ATOM      3  C   UNL     1      79.900  87.348  88.924  1.00  0.00     0.155 C 
ATOM      4  O   UNL     1      79.338  86.527  89.646  1.00  0.00    -0.295 OA
BRANCH   3   5
ATOM      5  C   UNL     1      80.411  88.667  89.470  1.00  0.00     0.085 C 
BRANCH   5   6
ATOM      6  C   UNL     1      81.940  88.713  89.470  1.00  0.00     0.044 C 
BRANCH   6   7
ATOM      7  C   UNL     1      82.490  89.962  88.824  1.00  0.00    -0.044 A 
ATOM      8  C   UNL     1      84.054  91.012  87.337  1.00  0.00     0.160 A 
ATOM      9  C   UNL     1      83.547  89.858  87.934  1.00  0.00     0.054 A 
ATOM     10  C   UNL     1      83.499  92.255  87.639  1.00  0.00     0.157 A 
ATOM     11  C   UNL     1      82.435  92.344  88.538  1.00  0.00     0.050 A 
ATOM     12  C   UNL     1      81.928  91.190  89.134  1.00  0.00     0.008 A 
BRANCH   8  13
ATOM     13  O   UNL     1      85.093  90.912  86.462  1.00  0.00    -0.493 OA
ATOM     14  C   UNL     1      85.403  89.610  85.969  1.00  0.00     0.278 C 
ENDBRANCH   8  13
BRANCH  10  15
ATOM     15  O   UNL     1      83.986  93.389  87.062  1.00  0.00    -0.504 OA
ATOM     16  H   UNL     1      84.044  93.243  86.102  1.00  0.00     0.293 HD
ENDBRANCH  10  15
ENDBRANCH   6   7
ENDBRANCH   5   6
ENDBRANCH   3   5
ENDBRANCH   2   3
BRANCH   1  17
ATOM     17  C   UNL     1      81.141  85.898  85.569  1.00  0.00     0.027 C 
BRANCH  17  18
ATOM     18  C   UNL     1      80.158  86.633  84.651  1.00  0.00     0.004 C 
BRANCH  18  19
ATOM     19  C   UNL     1      80.820  87.695  83.768  1.00  0.00     0.000 C 
BRANCH  19  20
ATOM     20  C   UNL     1      81.851  88.504  84.556  1.00  0.00    -0.003 C 
ATOM     21  C   UNL     1      81.337  89.898  84.879  1.00  0.00     0.004 C 
ENDBRANCH  19  20
ENDBRANCH  18  19
ENDBRANCH  17  18
ENDBRANCH   1  17
TORSDOF 10
ENDMDL
MODEL 5
REMARK VINA RESULT:    -5.311     29.059     32.352
REMARK INTER + INTRA:          -9.244
REMARK INTER:                  -8.667
REMARK INTRA:                  -0.577
REMARK UNBOUND:                -0.984
REMARK SMILES CCCCC/C=C/C(=O)CCc1ccc(O)c(OC)c1
REMARK SMILES IDX 6 1 7 2 8 3 9 4 10 5 11 6 12 7 17 8 20 9 15 10 14 11 13 12
REMARK SMILES IDX 18 13 19 14 16 15 5 17 4 18 3 19 2 20 1 21
REMARK H PARENT 16 16
REMARK Flexibility Score: inf
ROOT
ATOM      1  C   UNL     1      84.343  63.596  77.780  1.00  0.00    -0.023 C 
ATOM      2  C   UNL     1      84.480  63.472  76.454  1.00  0.00     0.043 C 
ENDROOT
BRANCH   2   3
ATOM      3  C   UNL     1      83.320  63.737  75.560  1.00  0.00     0.155 C 
ATOM      4  O   UNL     1      83.145  63.106  74.520  1.00  0.00    -0.295 OA
BRANCH   3   5
ATOM      5  C   UNL     1      82.392  64.862  75.973  1.00  0.00     0.085 C 
BRANCH   5   6
ATOM      6  C   UNL     1      81.058  64.784  75.228  1.00  0.00     0.044 C 
BRANCH   6   7
ATOM      7  C   UNL     1      81.044  65.608  73.962  1.00  0.00    -0.044 A 
ATOM      8  C   UNL     1      81.833  67.495  72.706  1.00  0.00     0.160 A 
ATOM      9  C   UNL     1      81.846  66.735  73.876  1.00  0.00     0.054 A 
ATOM     10  C   UNL     1      81.017  67.119  71.639  1.00  0.00     0.157 A 
ATOM     11  C   UNL     1      80.215  65.982  71.741  1.00  0.00     0.050 A 
ATOM     12  C   UNL     1      80.228  65.222  72.911  1.00  0.00     0.008 A 
BRANCH   8  13
ATOM     13  O   UNL     1      82.621  68.603  72.619  1.00  0.00    -0.493 OA
ATOM     14  C   UNL     1      84.011  68.432  72.886  1.00  0.00     0.278 C 
ENDBRANCH   8  13
BRANCH  10  15
ATOM     15  O   UNL     1      80.996  67.853  70.492  1.00  0.00    -0.504 OA
ATOM     16  H   UNL     1      80.156  68.343  70.458  1.00  0.00     0.293 HD
ENDBRANCH  10  15
ENDBRANCH   6   7
ENDBRANCH   5   6
ENDBRANCH   3   5
ENDBRANCH   2   3
BRANCH   1  17
ATOM     17  C   UNL     1      85.464  63.346  78.747  1.00  0.00     0.027 C 
BRANCH  17  18
ATOM     18  C   UNL     1      84.975  62.965  80.149  1.00  0.00     0.004 C 
BRANCH  18  19
ATOM     19  C   UNL     1      85.917  63.413  81.270  1.00  0.00     0.000 C 
BRANCH  19  20
ATOM     20  C   UNL     1      85.848  64.927  81.477  1.00  0.00    -0.003 C 
ATOM     21  C   UNL     1      85.811  65.286  82.954  1.00  0.00     0.004 C 
ENDBRANCH  19  20
ENDBRANCH  18  19
ENDBRANCH  17  18
ENDBRANCH   1  17
TORSDOF 10
ENDMDL
MODEL 6
REMARK VINA RESULT:    -5.294     13.829     17.459
REMARK INTER + INTRA:          -9.218
REMARK INTER:                  -7.826
REMARK INTRA:                  -1.392
REMARK UNBOUND:                -0.984
REMARK SMILES CCCCC/C=C/C(=O)CCc1ccc(O)c(OC)c1
REMARK SMILES IDX 6 1 7 2 8 3 9 4 10 5 11 6 12 7 17 8 20 9 15 10 14 11 13 12
REMARK SMILES IDX 18 13 19 14 16 15 5 17 4 18 3 19 2 20 1 21
REMARK H PARENT 16 16
REMARK Flexibility Score: inf
ROOT
ATOM      1  C   UNL     1      80.763  89.091  84.670  1.00  0.00    -0.023 C 
ATOM      2  C   UNL     1      81.391  87.964  84.313  1.00  0.00     0.043 C 
ENDROOT
BRANCH   2   3
ATOM      3  C   UNL     1      80.622  86.697  84.178  1.00  0.00     0.155 C 
ATOM      4  O   UNL     1      80.079  86.377  83.123  1.00  0.00    -0.295 OA
BRANCH   3   5
ATOM      5  C   UNL     1      80.499  85.845  85.426  1.00  0.00     0.085 C 
BRANCH   5   6
ATOM      6  C   UNL     1      81.579  86.199  86.449  1.00  0.00     0.044 C 
BRANCH   6   7
ATOM      7  C   UNL     1      81.017  86.819  87.706  1.00  0.00    -0.044 A 
ATOM      8  C   UNL     1      81.347  88.062  89.732  1.00  0.00     0.160 A 
ATOM      9  C   UNL     1      81.867  87.489  88.572  1.00  0.00     0.054 A 
ATOM     10  C   UNL     1      79.985  87.958  90.013  1.00  0.00     0.157 A 
ATOM     11  C   UNL     1      79.142  87.279  89.132  1.00  0.00     0.050 A 
ATOM     12  C   UNL     1      79.662  86.706  87.971  1.00  0.00     0.008 A 
BRANCH   8  13
ATOM     13  O   UNL     1      82.181  88.722  90.585  1.00  0.00    -0.493 OA
ATOM     14  C   UNL     1      83.261  89.449  90.002  1.00  0.00     0.278 C 
ENDBRANCH   8  13
BRANCH  10  15
ATOM     15  O   UNL     1      79.466  88.514  91.142  1.00  0.00    -0.504 OA
ATOM     16  H   UNL     1      79.853  88.061  91.911  1.00  0.00     0.293 HD
ENDBRANCH  10  15
ENDBRANCH   6   7
ENDBRANCH   5   6
ENDBRANCH   3   5
ENDBRANCH   2   3
BRANCH   1  17
ATOM     17  C   UNL     1      81.466  90.408  84.829  1.00  0.00     0.027 C 
BRANCH  17  18
ATOM     18  C   UNL     1      82.987  90.267  84.950  1.00  0.00     0.004 C 
BRANCH  18  19
ATOM     19  C   UNL     1      83.483  90.203  86.398  1.00  0.00     0.000 C 
BRANCH  19  20
ATOM     20  C   UNL     1      84.981  89.902  86.455  1.00  0.00    -0.003 C 
ATOM     21  C   UNL     1      85.702  90.427  85.224  1.00  0.00     0.004 C 
ENDBRANCH  19  20
ENDBRANCH  18  19
ENDBRANCH  17  18
ENDBRANCH   1  17
TORSDOF 10
ENDMDL
MODEL 7
REMARK VINA RESULT:    -5.284      3.628      8.575
REMARK INTER + INTRA:          -9.202
REMARK INTER:                  -8.459
REMARK INTRA:                  -0.743
REMARK UNBOUND:                -0.984
REMARK SMILES CCCCC/C=C/C(=O)CCc1ccc(O)c(OC)c1
REMARK SMILES IDX 6 1 7 2 8 3 9 4 10 5 11 6 12 7 17 8 20 9 15 10 14 11 13 12
REMARK SMILES IDX 18 13 19 14 16 15 5 17 4 18 3 19 2 20 1 21
REMARK H PARENT 16 16
REMARK Flexibility Score: inf
ROOT
ATOM      1  C   UNL     1      95.777  94.560  76.859  1.00  0.00    -0.023 C 
ATOM      2  C   UNL     1      94.928  94.425  75.833  1.00  0.00     0.043 C 
ENDROOT
BRANCH   2   3
ATOM      3  C   UNL     1      93.570  93.861  76.062  1.00  0.00     0.155 C 
ATOM      4  O   UNL     1      93.150  93.619  77.192  1.00  0.00    -0.295 OA
BRANCH   3   5
ATOM      5  C   UNL     1      92.748  93.552  74.826  1.00  0.00     0.085 C 
BRANCH   5   6
ATOM      6  C   UNL     1      91.254  93.508  75.149  1.00  0.00     0.044 C 
BRANCH   6   7
ATOM      7  C   UNL     1      90.667  92.122  75.025  1.00  0.00    -0.044 A 
ATOM      8  C   UNL     1      89.318  90.540  73.826  1.00  0.00     0.160 A 
ATOM      9  C   UNL     1      89.859  91.820  73.940  1.00  0.00     0.054 A 
ATOM     10  C   UNL     1      89.590  89.578  74.799  1.00  0.00     0.157 A 
ATOM     11  C   UNL     1      90.404  89.897  75.886  1.00  0.00     0.050 A 
ATOM     12  C   UNL     1      90.946  91.177  76.000  1.00  0.00     0.008 A 
BRANCH   8  13
ATOM     13  O   UNL     1      88.524  90.241  72.760  1.00  0.00    -0.493 OA
ATOM     14  C   UNL     1      87.149  90.610  72.851  1.00  0.00     0.278 C 
ENDBRANCH   8  13
BRANCH  10  15
ATOM     15  O   UNL     1      89.067  88.324  74.698  1.00  0.00    -0.504 OA
ATOM     16  H   UNL     1      88.113  88.376  74.881  1.00  0.00     0.293 HD
ENDBRANCH  10  15
ENDBRANCH   6   7
ENDBRANCH   5   6
ENDBRANCH   3   5
ENDBRANCH   2   3
BRANCH   1  17
ATOM     17  C   UNL     1      97.162  95.118  76.710  1.00  0.00     0.027 C 
BRANCH  17  18
ATOM     18  C   UNL     1      97.175  96.597  76.308  1.00  0.00     0.004 C 
BRANCH  18  19
ATOM     19  C   UNL     1      98.010  96.886  75.057  1.00  0.00     0.000 C 
BRANCH  19  20
ATOM     20  C   UNL     1      97.118  97.059  73.826  1.00  0.00    -0.003 C 
ATOM     21  C   UNL     1      97.531  96.122  72.703  1.00  0.00     0.004 C 
ENDBRANCH  19  20
ENDBRANCH  18  19
ENDBRANCH  17  18
ENDBRANCH   1  17
TORSDOF 10
ENDMDL
MODEL 8
REMARK VINA RESULT:    -5.245     14.836     17.949
REMARK INTER + INTRA:          -9.141
REMARK INTER:                  -7.632
REMARK INTRA:                  -1.509
REMARK UNBOUND:                -0.984
REMARK SMILES CCCCC/C=C/C(=O)CCc1ccc(O)c(OC)c1
REMARK SMILES IDX 6 1 7 2 8 3 9 4 10 5 11 6 12 7 17 8 20 9 15 10 14 11 13 12
REMARK SMILES IDX 18 13 19 14 16 15 5 17 4 18 3 19 2 20 1 21
REMARK H PARENT 16 16
REMARK Flexibility Score: inf
ROOT
ATOM      1  C   UNL     1      80.413  89.200  85.067  1.00  0.00    -0.023 C 
ATOM      2  C   UNL     1      81.685  89.334  84.672  1.00  0.00     0.043 C 
ENDROOT
BRANCH   2   3
ATOM      3  C   UNL     1      82.638  90.126  85.497  1.00  0.00     0.155 C 
ATOM      4  O   UNL     1      83.680  90.579  85.028  1.00  0.00    -0.295 OA
BRANCH   3   5
ATOM      5  C   UNL     1      82.281  90.302  86.960  1.00  0.00     0.085 C 
BRANCH   5   6
ATOM      6  C   UNL     1      82.499  89.007  87.744  1.00  0.00     0.044 C 
BRANCH   6   7
ATOM      7  C   UNL     1      81.264  88.556  88.488  1.00  0.00    -0.044 A 
ATOM      8  C   UNL     1      79.176  89.078  89.549  1.00  0.00     0.160 A 
ATOM      9  C   UNL     1      80.316  89.495  88.862  1.00  0.00     0.054 A 
ATOM     10  C   UNL     1      78.999  87.729  89.853  1.00  0.00     0.157 A 
ATOM     11  C   UNL     1      79.963  86.795  89.470  1.00  0.00     0.050 A 
ATOM     12  C   UNL     1      81.103  87.213  88.783  1.00  0.00     0.008 A 
BRANCH   8  13
ATOM     13  O   UNL     1      78.242  89.999  89.917  1.00  0.00    -0.493 OA
ATOM     14  C   UNL     1      78.547  90.816  91.046  1.00  0.00     0.278 C 
ENDBRANCH   8  13
BRANCH  10  15
ATOM     15  O   UNL     1      77.889  87.309  90.523  1.00  0.00    -0.504 OA
ATOM     16  H   UNL     1      77.833  87.802  91.360  1.00  0.00     0.293 HD
ENDBRANCH  10  15
ENDBRANCH   6   7
ENDBRANCH   5   6
ENDBRANCH   3   5
ENDBRANCH   2   3
BRANCH   1  17
ATOM     17  C   UNL     1      79.391  88.418  84.292  1.00  0.00     0.027 C 
BRANCH  17  18
ATOM     18  C   UNL     1      79.820  86.973  84.020  1.00  0.00     0.004 C 
BRANCH  18  19
ATOM     19  C   UNL     1      80.280  86.222  85.273  1.00  0.00     0.000 C 
BRANCH  19  20
ATOM     20  C   UNL     1      81.588  85.472  85.018  1.00  0.00    -0.003 C 
ATOM     21  C   UNL     1      82.502  85.515  86.233  1.00  0.00     0.004 C 
ENDBRANCH  19  20
ENDBRANCH  18  19
ENDBRANCH  17  18
ENDBRANCH   1  17
TORSDOF 10
ENDMDL
MODEL 9
REMARK VINA RESULT:    -5.225     14.201     16.925
REMARK INTER + INTRA:          -9.110
REMARK INTER:                  -7.481
REMARK INTRA:                  -1.629
REMARK UNBOUND:                -0.984
REMARK SMILES CCCCC/C=C/C(=O)CCc1ccc(O)c(OC)c1
REMARK SMILES IDX 6 1 7 2 8 3 9 4 10 5 11 6 12 7 17 8 20 9 15 10 14 11 13 12
REMARK SMILES IDX 18 13 19 14 16 15 5 17 4 18 3 19 2 20 1 21
REMARK H PARENT 16 16
REMARK Flexibility Score: inf
ROOT
ATOM      1  C   UNL     1      80.919  86.574  87.443  1.00  0.00    -0.023 C 
ATOM      2  C   UNL     1      79.979  87.510  87.621  1.00  0.00     0.043 C 
ENDROOT
BRANCH   2   3
ATOM      3  C   UNL     1      79.658  87.988  88.994  1.00  0.00     0.155 C 
ATOM      4  O   UNL     1      79.068  87.278  89.806  1.00  0.00    -0.295 OA
BRANCH   3   5
ATOM      5  C   UNL     1      80.049  89.416  89.321  1.00  0.00     0.085 C 
BRANCH   5   6
ATOM      6  C   UNL     1      81.519  89.508  89.731  1.00  0.00     0.044 C 
BRANCH   6   7
ATOM      7  C   UNL     1      82.372  90.217  88.705  1.00  0.00    -0.044 A 
ATOM      8  C   UNL     1      83.210  92.255  87.755  1.00  0.00     0.160 A 
ATOM      9  C   UNL     1      82.422  91.602  88.703  1.00  0.00     0.054 A 
ATOM     10  C   UNL     1      83.936  91.517  86.822  1.00  0.00     0.157 A 
ATOM     11  C   UNL     1      83.875  90.122  86.837  1.00  0.00     0.050 A 
ATOM     12  C   UNL     1      83.087  89.469  87.784  1.00  0.00     0.008 A 
BRANCH   8  13
ATOM     13  O   UNL     1      83.261  93.617  87.752  1.00  0.00    -0.493 OA
ATOM     14  C   UNL     1      82.682  94.291  88.868  1.00  0.00     0.278 C 
ENDBRANCH   8  13
BRANCH  10  15
ATOM     15  O   UNL     1      84.709  92.143  85.892  1.00  0.00    -0.504 OA
ATOM     16  H   UNL     1      85.267  92.796  86.349  1.00  0.00     0.293 HD
ENDBRANCH  10  15
ENDBRANCH   6   7
ENDBRANCH   5   6
ENDBRANCH   3   5
ENDBRANCH   2   3
BRANCH   1  17
ATOM     17  C   UNL     1      81.301  86.040  86.093  1.00  0.00     0.027 C 
BRANCH  17  18
ATOM     18  C   UNL     1      80.175  86.156  85.061  1.00  0.00     0.004 C 
BRANCH  18  19
ATOM     19  C   UNL     1      80.501  87.101  83.900  1.00  0.00     0.000 C 
BRANCH  19  20
ATOM     20  C   UNL     1      81.541  88.143  84.313  1.00  0.00    -0.003 C 
ATOM     21  C   UNL     1      80.900  89.497  84.572  1.00  0.00     0.004 C 
ENDBRANCH  19  20
ENDBRANCH  18  19
ENDBRANCH  17  18
ENDBRANCH   1  17
TORSDOF 10
ENDMDL
MODEL 10
REMARK VINA RESULT:    -5.193     14.100     16.869
REMARK INTER + INTRA:          -9.060
REMARK INTER:                  -7.529
REMARK INTRA:                  -1.531
REMARK UNBOUND:                -0.984
REMARK SMILES CCCCC/C=C/C(=O)CCc1ccc(O)c(OC)c1
REMARK SMILES IDX 6 1 7 2 8 3 9 4 10 5 11 6 12 7 17 8 20 9 15 10 14 11 13 12
REMARK SMILES IDX 18 13 19 14 16 15 5 17 4 18 3 19 2 20 1 21
REMARK H PARENT 16 16
REMARK Flexibility Score: inf
ROOT
ATOM      1  C   UNL     1      81.900  89.686  85.001  1.00  0.00    -0.023 C 
ATOM      2  C   UNL     1      83.215  89.441  84.942  1.00  0.00     0.043 C 
ENDROOT
BRANCH   2   3
ATOM      3  C   UNL     1      84.111  89.931  86.024  1.00  0.00     0.155 C 
ATOM      4  O   UNL     1      85.293  89.601  86.087  1.00  0.00    -0.295 OA
BRANCH   3   5
ATOM      5  C   UNL     1      83.476  90.819  87.077  1.00  0.00     0.085 C 
BRANCH   5   6
ATOM      6  C   UNL     1      83.959  90.449  88.480  1.00  0.00     0.044 C 
BRANCH   6   7
ATOM      7  C   UNL     1      83.021  89.506  89.195  1.00  0.00    -0.044 A 
ATOM      8  C   UNL     1      82.360  88.360  91.198  1.00  0.00     0.160 A 
ATOM      9  C   UNL     1      83.227  89.231  90.538  1.00  0.00     0.054 A 
ATOM     10  C   UNL     1      81.300  87.775  90.507  1.00  0.00     0.157 A 
ATOM     11  C   UNL     1      81.106  88.061  89.155  1.00  0.00     0.050 A 
ATOM     12  C   UNL     1      81.973  88.932  88.495  1.00  0.00     0.008 A 
BRANCH   8  13
ATOM     13  O   UNL     1      82.561  88.089  92.518  1.00  0.00    -0.493 OA
ATOM     14  C   UNL     1      83.771  87.421  92.866  1.00  0.00     0.278 C 
ENDBRANCH   8  13
BRANCH  10  15
ATOM     15  O   UNL     1      80.446  86.923  91.141  1.00  0.00    -0.504 OA
ATOM     16  H   UNL     1      80.969  86.201  91.530  1.00  0.00     0.293 HD
ENDBRANCH  10  15
ENDBRANCH   6   7
ENDBRANCH   5   6
ENDBRANCH   3   5
ENDBRANCH   2   3
BRANCH   1  17
ATOM     17  C   UNL     1      80.931  89.226  83.951  1.00  0.00     0.027 C 
BRANCH  17  18
ATOM     18  C   UNL     1      80.740  87.706  83.933  1.00  0.00     0.004 C 
BRANCH  18  19
ATOM     19  C   UNL     1      80.254  87.133  85.269  1.00  0.00     0.000 C 
BRANCH  19  20
ATOM     20  C   UNL     1      80.929  85.795  85.573  1.00  0.00    -0.003 C 
ATOM     21  C   UNL     1      82.336  85.991  86.116  1.00  0.00     0.004 C 
ENDBRANCH  19  20
ENDBRANCH  18  19
ENDBRANCH  17  18
ENDBRANCH   1  17
TORSDOF 10
ENDMDL
