MODEL 1
REMARK VINA RESULT:    -6.734      0.000      0.000
REMARK INTER + INTRA:         -12.756
REMARK INTER:                 -11.064
REMARK INTRA:                  -1.692
REMARK UNBOUND:                -1.692
REMARK SMILES CCCCC[C@H](O)CC(=O)CCc1ccc(O)c(OC)c1
REMARK SMILES IDX 8 1 6 2 7 3 5 5 4 6 3 7 2 8 1 9 9 10 10 11 11 12 12 13 13 14
REMARK SMILES IDX 21 15 14 16 18 17 15 18 16 19 19 20 20 21 17 22
REMARK H PARENT 7 4 17 23
REMARK Flexibility Score: inf
ROOT
ATOM      1  C   UNL     1      89.622  89.914  76.352  1.00  0.00     0.107 C 
ENDROOT
BRANCH   1   2
ATOM      2  C   UNL     1      90.709  89.087  75.661  1.00  0.00     0.121 C 
BRANCH   2   3
ATOM      3  O   UNL     1      90.799  87.802  76.270  1.00  0.00    -0.393 OA
ATOM      4  H   UNL     1      89.991  87.308  76.045  1.00  0.00     0.210 HD
ENDBRANCH   2   3
BRANCH   2   5
ATOM      5  C   UNL     1      90.467  88.916  74.156  1.00  0.00     0.032 C 
BRANCH   5   6
ATOM      6  C   UNL     1      89.529  89.993  73.597  1.00  0.00     0.003 C 
BRANCH   6   7
ATOM      7  C   UNL     1      89.784  90.312  72.120  1.00  0.00    -0.000 C 
BRANCH   7   8
ATOM      8  C   UNL     1      90.222  91.754  71.872  1.00  0.00    -0.003 C 
ATOM      9  C   UNL     1      89.267  92.743  72.523  1.00  0.00     0.004 C 
ENDBRANCH   7   8
ENDBRANCH   6   7
ENDBRANCH   5   6
ENDBRANCH   2   5
ENDBRANCH   1   2
BRANCH   1  10
ATOM     10  C   UNL     1      89.853  90.071  77.846  1.00  0.00     0.135 C 
ATOM     11  O   UNL     1      89.633  89.140  78.621  1.00  0.00    -0.300 OA
BRANCH  10  12
ATOM     12  C   UNL     1      90.406  91.408  78.314  1.00  0.00     0.080 C 
BRANCH  12  13
ATOM     13  C   UNL     1      90.239  92.535  77.293  1.00  0.00     0.043 C 
BRANCH  13  14
ATOM     14  C   UNL     1      91.536  92.928  76.627  1.00  0.00    -0.044 A 
ATOM     15  C   UNL     1      92.505  93.628  77.345  1.00  0.00     0.054 A 
ATOM     16  C   UNL     1      91.765  92.590  75.293  1.00  0.00     0.008 A 
ATOM     17  C   UNL     1      93.703  93.989  76.729  1.00  0.00     0.160 A 
ATOM     18  C   UNL     1      92.963  92.951  74.677  1.00  0.00     0.050 A 
ATOM     19  C   UNL     1      93.932  93.652  75.395  1.00  0.00     0.157 A 
BRANCH  17  20
ATOM     20  O   UNL     1      94.642  94.674  77.441  1.00  0.00    -0.493 OA
ATOM     21  C   UNL     1      94.861  94.262  78.789  1.00  0.00     0.278 C 
ENDBRANCH  17  20
BRANCH  19  22
ATOM     22  O   UNL     1      95.098  93.999  74.783  1.00  0.00    -0.504 OA
ATOM     23  H   UNL     1      94.998  93.885  73.823  1.00  0.00     0.293 HD
ENDBRANCH  19  22
ENDBRANCH  13  14
ENDBRANCH  12  13
ENDBRANCH  10  12
ENDBRANCH   1  10
TORSDOF 12
ENDMDL
MODEL 2
REMARK VINA RESULT:    -6.418      2.068      3.999
REMARK INTER + INTRA:         -12.237
REMARK INTER:                 -10.167
REMARK INTRA:                  -2.070
REMARK UNBOUND:                -1.692
REMARK SMILES CCCCC[C@H](O)CC(=O)CCc1ccc(O)c(OC)c1
REMARK SMILES IDX 8 1 6 2 7 3 5 5 4 6 3 7 2 8 1 9 9 10 10 11 11 12 12 13 13 14
REMARK SMILES IDX 21 15 14 16 18 17 15 18 16 19 19 20 20 21 17 22
REMARK H PARENT 7 4 17 23
REMARK Flexibility Score: inf
ROOT
ATOM      1  C   UNL     1      88.021  91.447  72.726  1.00  0.00     0.107 C 
ENDROOT
BRANCH   1   2
ATOM      2  C   UNL     1      87.728  90.422  73.824  1.00  0.00     0.121 C 
BRANCH   2   3
ATOM      3  O   UNL     1      88.144  89.126  73.400  1.00  0.00    -0.393 OA
ATOM      4  H   UNL     1      88.102  89.104  72.428  1.00  0.00     0.210 HD
ENDBRANCH   2   3
BRANCH   2   5
ATOM      5  C   UNL     1      88.407  90.759  75.157  1.00  0.00     0.032 C 
BRANCH   5   6
ATOM      6  C   UNL     1      89.277  89.605  75.669  1.00  0.00     0.003 C 
BRANCH   6   7
ATOM      7  C   UNL     1      90.779  89.852  75.492  1.00  0.00    -0.000 C 
BRANCH   7   8
ATOM      8  C   UNL     1      91.453  88.868  74.537  1.00  0.00    -0.003 C 
ATOM      9  C   UNL     1      91.056  87.434  74.848  1.00  0.00     0.004 C 
ENDBRANCH   7   8
ENDBRANCH   6   7
ENDBRANCH   5   6
ENDBRANCH   2   5
ENDBRANCH   1   2
BRANCH   1  10
ATOM     10  C   UNL     1      89.345  91.203  72.021  1.00  0.00     0.135 C 
ATOM     11  O   UNL     1      89.457  90.319  71.172  1.00  0.00    -0.300 OA
BRANCH  10  12
ATOM     12  C   UNL     1      90.494  92.131  72.388  1.00  0.00     0.080 C 
BRANCH  12  13
ATOM     13  C   UNL     1      90.086  93.278  73.314  1.00  0.00     0.043 C 
BRANCH  13  14
ATOM     14  C   UNL     1      90.956  93.383  74.544  1.00  0.00    -0.044 A 
ATOM     15  C   UNL     1      92.343  93.308  74.427  1.00  0.00     0.054 A 
ATOM     16  C   UNL     1      90.370  93.555  75.799  1.00  0.00     0.008 A 
ATOM     17  C   UNL     1      93.145  93.406  75.564  1.00  0.00     0.160 A 
ATOM     18  C   UNL     1      91.172  93.652  76.936  1.00  0.00     0.050 A 
ATOM     19  C   UNL     1      92.559  93.578  76.819  1.00  0.00     0.157 A 
BRANCH  17  20
ATOM     20  O   UNL     1      94.500  93.331  75.437  1.00  0.00    -0.493 OA
ATOM     21  C   UNL     1      95.207  94.562  75.301  1.00  0.00     0.278 C 
ENDBRANCH  17  20
BRANCH  19  22
ATOM     22  O   UNL     1      93.332  93.674  77.936  1.00  0.00    -0.504 OA
ATOM     23  H   UNL     1      93.404  92.796  78.349  1.00  0.00     0.293 HD
ENDBRANCH  19  22
ENDBRANCH  13  14
ENDBRANCH  12  13
ENDBRANCH  10  12
ENDBRANCH   1  10
TORSDOF 12
ENDMDL
MODEL 3
REMARK VINA RESULT:    -6.118      1.975      2.846
REMARK INTER + INTRA:         -11.744
REMARK INTER:                 -10.192
REMARK INTRA:                  -1.553
REMARK UNBOUND:                -1.692
REMARK SMILES CCCCC[C@H](O)CC(=O)CCc1ccc(O)c(OC)c1
REMARK SMILES IDX 8 1 6 2 7 3 5 5 4 6 3 7 2 8 1 9 9 10 10 11 11 12 12 13 13 14
REMARK SMILES IDX 21 15 14 16 18 17 15 18 16 19 19 20 20 21 17 22
REMARK H PARENT 7 4 17 23
REMARK Flexibility Score: inf
ROOT
ATOM      1  C   UNL     1      89.969  90.752  77.917  1.00  0.00     0.107 C 
ENDROOT
BRANCH   1   2
ATOM      2  C   UNL     1      90.418  89.785  76.819  1.00  0.00     0.121 C 
BRANCH   2   3
ATOM      3  O   UNL     1      90.614  88.484  77.370  1.00  0.00    -0.393 OA
ATOM      4  H   UNL     1      91.295  88.036  76.838  1.00  0.00     0.210 HD
ENDBRANCH   2   3
BRANCH   2   5
ATOM      5  C   UNL     1      89.423  89.695  75.655  1.00  0.00     0.032 C 
BRANCH   5   6
ATOM      6  C   UNL     1      90.024  90.209  74.342  1.00  0.00     0.003 C 
BRANCH   6   7
ATOM      7  C   UNL     1      91.495  90.617  74.467  1.00  0.00    -0.000 C 
BRANCH   7   8
ATOM      8  C   UNL     1      91.855  91.867  73.665  1.00  0.00    -0.003 C 
ATOM      9  C   UNL     1      90.670  92.815  73.556  1.00  0.00     0.004 C 
ENDBRANCH   7   8
ENDBRANCH   6   7
ENDBRANCH   5   6
ENDBRANCH   2   5
ENDBRANCH   1   2
BRANCH   1  10
ATOM     10  C   UNL     1      90.165  92.212  77.542  1.00  0.00     0.135 C 
ATOM     11  O   UNL     1      89.205  92.924  77.251  1.00  0.00    -0.300 OA
BRANCH  10  12
ATOM     12  C   UNL     1      91.589  92.743  77.592  1.00  0.00     0.080 C 
BRANCH  12  13
ATOM     13  C   UNL     1      91.815  93.981  76.721  1.00  0.00     0.043 C 
BRANCH  13  14
ATOM     14  C   UNL     1      93.257  94.429  76.691  1.00  0.00    -0.044 A 
ATOM     15  C   UNL     1      93.751  95.116  75.583  1.00  0.00     0.054 A 
ATOM     16  C   UNL     1      94.094  94.155  77.773  1.00  0.00     0.008 A 
ATOM     17  C   UNL     1      95.083  95.531  75.557  1.00  0.00     0.160 A 
ATOM     18  C   UNL     1      95.426  94.569  77.747  1.00  0.00     0.050 A 
ATOM     19  C   UNL     1      95.920  95.257  76.639  1.00  0.00     0.157 A 
BRANCH  17  20
ATOM     20  O   UNL     1      95.554  96.201  74.469  1.00  0.00    -0.493 OA
ATOM     21  C   UNL     1      95.284  97.600  74.402  1.00  0.00     0.278 C 
ENDBRANCH  17  20
BRANCH  19  22
ATOM     22  O   UNL     1      97.222  95.656  76.624  1.00  0.00    -0.504 OA
ATOM     23  H   UNL     1      97.795  94.870  76.596  1.00  0.00     0.293 HD
ENDBRANCH  19  22
ENDBRANCH  13  14
ENDBRANCH  12  13
ENDBRANCH  10  12
ENDBRANCH   1  10
TORSDOF 12
ENDMDL
MODEL 4
REMARK VINA RESULT:    -5.990     12.578     15.381
REMARK INTER + INTRA:         -11.533
REMARK INTER:                  -9.461
REMARK INTRA:                  -2.072
REMARK UNBOUND:                -1.692
REMARK SMILES CCCCC[C@H](O)CC(=O)CCc1ccc(O)c(OC)c1
REMARK SMILES IDX 8 1 6 2 7 3 5 5 4 6 3 7 2 8 1 9 9 10 10 11 11 12 12 13 13 14
REMARK SMILES IDX 21 15 14 16 18 17 15 18 16 19 19 20 20 21 17 22
REMARK H PARENT 7 4 17 23
REMARK Flexibility Score: inf
ROOT
ATOM      1  C   UNL     1      81.502  87.236  84.049  1.00  0.00     0.107 C 
ENDROOT
BRANCH   1   2
ATOM      2  C   UNL     1      81.428  86.047  85.011  1.00  0.00     0.121 C 
BRANCH   2   3
ATOM      3  O   UNL     1      81.716  84.839  84.310  1.00  0.00    -0.393 OA
ATOM      4  H   UNL     1      82.516  84.450  84.704  1.00  0.00     0.210 HD
ENDBRANCH   2   3
BRANCH   2   5
ATOM      5  C   UNL     1      82.385  86.179  86.203  1.00  0.00     0.032 C 
BRANCH   5   6
ATOM      6  C   UNL     1      81.637  86.437  87.516  1.00  0.00     0.003 C 
BRANCH   6   7
ATOM      7  C   UNL     1      80.116  86.514  87.343  1.00  0.00    -0.000 C 
BRANCH   7   8
ATOM      8  C   UNL     1      79.390  87.085  88.560  1.00  0.00    -0.003 C 
ATOM      9  C   UNL     1      79.862  86.426  89.847  1.00  0.00     0.004 C 
ENDBRANCH   7   8
ENDBRANCH   6   7
ENDBRANCH   5   6
ENDBRANCH   2   5
ENDBRANCH   1   2
BRANCH   1  10
ATOM     10  C   UNL     1      80.138  87.817  83.715  1.00  0.00     0.135 C 
ATOM     11  O   UNL     1      79.474  87.374  82.778  1.00  0.00    -0.300 OA
BRANCH  10  12
ATOM     12  C   UNL     1      79.630  88.929  84.621  1.00  0.00     0.080 C 
BRANCH  12  13
ATOM     13  C   UNL     1      80.602  90.102  84.757  1.00  0.00     0.043 C 
BRANCH  13  14
ATOM     14  C   UNL     1      81.404  90.060  86.036  1.00  0.00    -0.044 A 
ATOM     15  C   UNL     1      82.793  89.934  85.985  1.00  0.00     0.054 A 
ATOM     16  C   UNL     1      80.756  90.148  87.269  1.00  0.00     0.008 A 
ATOM     17  C   UNL     1      83.533  89.897  87.167  1.00  0.00     0.160 A 
ATOM     18  C   UNL     1      81.497  90.110  88.450  1.00  0.00     0.050 A 
ATOM     19  C   UNL     1      82.885  89.984  88.399  1.00  0.00     0.157 A 
BRANCH  17  20
ATOM     20  O   UNL     1      84.888  89.773  87.105  1.00  0.00    -0.493 OA
ATOM     21  C   UNL     1      85.500  89.978  85.832  1.00  0.00     0.278 C 
ENDBRANCH  17  20
BRANCH  19  22
ATOM     22  O   UNL     1      83.597  89.948  89.560  1.00  0.00    -0.504 OA
ATOM     23  H   UNL     1      83.765  89.021  89.800  1.00  0.00     0.293 HD
ENDBRANCH  19  22
ENDBRANCH  13  14
ENDBRANCH  12  13
ENDBRANCH  10  12
ENDBRANCH   1  10
TORSDOF 12
ENDMDL
MODEL 5
REMARK VINA RESULT:    -5.878      2.062      2.985
REMARK INTER + INTRA:         -11.349
REMARK INTER:                  -9.965
REMARK INTRA:                  -1.384
REMARK UNBOUND:                -1.692
REMARK SMILES CCCCC[C@H](O)CC(=O)CCc1ccc(O)c(OC)c1
REMARK SMILES IDX 8 1 6 2 7 3 5 5 4 6 3 7 2 8 1 9 9 10 10 11 11 12 12 13 13 14
REMARK SMILES IDX 21 15 14 16 18 17 15 18 16 19 19 20 20 21 17 22
REMARK H PARENT 7 4 17 23
REMARK Flexibility Score: inf
ROOT
ATOM      1  C   UNL     1      91.175  92.337  77.307  1.00  0.00     0.107 C 
ENDROOT
BRANCH   1   2
ATOM      2  C   UNL     1      90.841  91.090  76.484  1.00  0.00     0.121 C 
BRANCH   2   3
ATOM      3  O   UNL     1      89.428  90.978  76.328  1.00  0.00    -0.393 OA
ATOM      4  H   UNL     1      89.126  90.235  76.881  1.00  0.00     0.210 HD
ENDBRANCH   2   3
BRANCH   2   5
ATOM      5  C   UNL     1      91.503  91.088  75.101  1.00  0.00     0.032 C 
BRANCH   5   6
ATOM      6  C   UNL     1      90.495  90.806  73.980  1.00  0.00     0.003 C 
BRANCH   6   7
ATOM      7  C   UNL     1      90.811  91.551  72.679  1.00  0.00    -0.000 C 
BRANCH   7   8
ATOM      8  C   UNL     1      89.629  92.343  72.125  1.00  0.00    -0.003 C 
ATOM      9  C   UNL     1      89.518  93.709  72.785  1.00  0.00     0.004 C 
ENDBRANCH   7   8
ENDBRANCH   6   7
ENDBRANCH   5   6
ENDBRANCH   2   5
ENDBRANCH   1   2
BRANCH   1  10
ATOM     10  C   UNL     1      90.458  93.584  76.816  1.00  0.00     0.135 C 
ATOM     11  O   UNL     1      89.228  93.639  76.794  1.00  0.00    -0.300 OA
BRANCH  10  12
ATOM     12  C   UNL     1      91.334  94.757  76.404  1.00  0.00     0.080 C 
BRANCH  12  13
ATOM     13  C   UNL     1      92.434  94.383  75.409  1.00  0.00     0.043 C 
BRANCH  13  14
ATOM     14  C   UNL     1      93.822  94.689  75.919  1.00  0.00    -0.044 A 
ATOM     15  C   UNL     1      94.249  94.165  77.139  1.00  0.00     0.054 A 
ATOM     16  C   UNL     1      94.678  95.496  75.169  1.00  0.00     0.008 A 
ATOM     17  C   UNL     1      95.532  94.448  77.609  1.00  0.00     0.160 A 
ATOM     18  C   UNL     1      95.961  95.779  75.638  1.00  0.00     0.050 A 
ATOM     19  C   UNL     1      96.387  95.255  76.858  1.00  0.00     0.157 A 
BRANCH  17  20
ATOM     20  O   UNL     1      95.937  93.931  78.802  1.00  0.00    -0.493 OA
ATOM     21  C   UNL     1      95.341  94.473  79.979  1.00  0.00     0.278 C 
ENDBRANCH  17  20
BRANCH  19  22
ATOM     22  O   UNL     1      97.642  95.538  77.306  1.00  0.00    -0.504 OA
ATOM     23  H   UNL     1      97.598  95.758  78.253  1.00  0.00     0.293 HD
ENDBRANCH  19  22
ENDBRANCH  13  14
ENDBRANCH  12  13
ENDBRANCH  10  12
ENDBRANCH   1  10
TORSDOF 12
ENDMDL
MODEL 6
REMARK VINA RESULT:    -5.658      3.011      6.129
REMARK INTER + INTRA:         -10.988
REMARK INTER:                  -9.653
REMARK INTRA:                  -1.335
REMARK UNBOUND:                -1.692
REMARK SMILES CCCCC[C@H](O)CC(=O)CCc1ccc(O)c(OC)c1
REMARK SMILES IDX 8 1 6 2 7 3 5 5 4 6 3 7 2 8 1 9 9 10 10 11 11 12 12 13 13 14
REMARK SMILES IDX 21 15 14 16 18 17 15 18 16 19 19 20 20 21 17 22
REMARK H PARENT 7 4 17 23
REMARK Flexibility Score: inf
ROOT
ATOM      1  C   UNL     1      94.909  94.084  75.319  1.00  0.00     0.107 C 
ENDROOT
BRANCH   1   2
ATOM      2  C   UNL     1      93.558  93.543  75.792  1.00  0.00     0.121 C 
BRANCH   2   3
ATOM      3  O   UNL     1      92.872  94.544  76.542  1.00  0.00    -0.393 OA
ATOM      4  H   UNL     1      91.920  94.448  76.365  1.00  0.00     0.210 HD
ENDBRANCH   2   3
BRANCH   2   5
ATOM      5  C   UNL     1      92.662  93.074  74.639  1.00  0.00     0.032 C 
BRANCH   5   6
ATOM      6  C   UNL     1      91.263  92.675  75.122  1.00  0.00     0.003 C 
BRANCH   6   7
ATOM      7  C   UNL     1      91.268  91.467  76.064  1.00  0.00    -0.000 C 
BRANCH   7   8
ATOM      8  C   UNL     1      90.466  91.686  77.346  1.00  0.00    -0.003 C 
ATOM      9  C   UNL     1      89.618  92.945  77.260  1.00  0.00     0.004 C 
ENDBRANCH   7   8
ENDBRANCH   6   7
ENDBRANCH   5   6
ENDBRANCH   2   5
ENDBRANCH   1   2
BRANCH   1  10
ATOM     10  C   UNL     1      94.977  95.602  75.322  1.00  0.00     0.135 C 
ATOM     11  O   UNL     1      94.217  96.271  74.622  1.00  0.00    -0.300 OA
BRANCH  10  12
ATOM     12  C   UNL     1      95.992  96.238  76.260  1.00  0.00     0.080 C 
BRANCH  12  13
ATOM     13  C   UNL     1      96.797  95.223  77.074  1.00  0.00     0.043 C 
BRANCH  13  14
ATOM     14  C   UNL     1      96.322  95.100  78.503  1.00  0.00    -0.044 A 
ATOM     15  C   UNL     1      96.389  96.201  79.357  1.00  0.00     0.054 A 
ATOM     16  C   UNL     1      95.817  93.885  78.968  1.00  0.00     0.008 A 
ATOM     17  C   UNL     1      95.949  96.086  80.676  1.00  0.00     0.160 A 
ATOM     18  C   UNL     1      95.378  93.771  80.287  1.00  0.00     0.050 A 
ATOM     19  C   UNL     1      95.444  94.872  81.141  1.00  0.00     0.157 A 
BRANCH  17  20
ATOM     20  O   UNL     1      96.019  97.168  81.502  1.00  0.00    -0.493 OA
ATOM     21  C   UNL     1      97.180  97.990  81.396  1.00  0.00     0.278 C 
ENDBRANCH  17  20
BRANCH  19  22
ATOM     22  O   UNL     1      95.012  94.748  82.427  1.00  0.00    -0.504 OA
ATOM     23  H   UNL     1      95.301  93.887  82.777  1.00  0.00     0.293 HD
ENDBRANCH  19  22
ENDBRANCH  13  14
ENDBRANCH  12  13
ENDBRANCH  10  12
ENDBRANCH   1  10
TORSDOF 12
ENDMDL
MODEL 7
REMARK VINA RESULT:    -5.569     12.465     15.619
REMARK INTER + INTRA:         -10.841
REMARK INTER:                  -9.286
REMARK INTRA:                  -1.555
REMARK UNBOUND:                -1.692
REMARK SMILES CCCCC[C@H](O)CC(=O)CCc1ccc(O)c(OC)c1
REMARK SMILES IDX 8 1 6 2 7 3 5 5 4 6 3 7 2 8 1 9 9 10 10 11 11 12 12 13 13 14
REMARK SMILES IDX 21 15 14 16 18 17 15 18 16 19 19 20 20 21 17 22
REMARK H PARENT 7 4 17 23
REMARK Flexibility Score: inf
ROOT
ATOM      1  C   UNL     1      84.623  90.190  87.391  1.00  0.00     0.107 C 
ENDROOT
BRANCH   1   2
ATOM      2  C   UNL     1      83.650  90.573  88.509  1.00  0.00     0.121 C 
BRANCH   2   3
ATOM      3  O   UNL     1      84.309  91.406  89.459  1.00  0.00    -0.393 OA
ATOM      4  H   UNL     1      83.889  92.283  89.429  1.00  0.00     0.210 HD
ENDBRANCH   2   3
BRANCH   2   5
ATOM      5  C   UNL     1      82.396  91.290  87.993  1.00  0.00     0.032 C 
BRANCH   5   6
ATOM      6  C   UNL     1      81.379  91.549  89.111  1.00  0.00     0.003 C 
BRANCH   6   7
ATOM      7  C   UNL     1      80.154  90.633  89.041  1.00  0.00    -0.000 C 
BRANCH   7   8
ATOM      8  C   UNL     1      80.161  89.693  87.837  1.00  0.00    -0.003 C 
ATOM      9  C   UNL     1      80.292  88.240  88.268  1.00  0.00     0.004 C 
ENDBRANCH   7   8
ENDBRANCH   6   7
ENDBRANCH   5   6
ENDBRANCH   2   5
ENDBRANCH   1   2
BRANCH   1  10
ATOM     10  C   UNL     1      84.436  91.016  86.129  1.00  0.00     0.135 C 
ATOM     11  O   UNL     1      84.703  92.218  86.113  1.00  0.00    -0.300 OA
BRANCH  10  12
ATOM     12  C   UNL     1      83.951  90.273  84.894  1.00  0.00     0.080 C 
BRANCH  12  13
ATOM     13  C   UNL     1      82.491  90.559  84.538  1.00  0.00     0.043 C 
BRANCH  13  14
ATOM     14  C   UNL     1      81.621  89.325  84.572  1.00  0.00    -0.044 A 
ATOM     15  C   UNL     1      82.184  88.081  84.858  1.00  0.00     0.054 A 
ATOM     16  C   UNL     1      80.253  89.429  84.316  1.00  0.00     0.008 A 
ATOM     17  C   UNL     1      81.379  86.942  84.889  1.00  0.00     0.160 A 
ATOM     18  C   UNL     1      79.448  88.290  84.348  1.00  0.00     0.050 A 
ATOM     19  C   UNL     1      80.011  87.047  84.634  1.00  0.00     0.157 A 
BRANCH  17  20
ATOM     20  O   UNL     1      81.941  85.733  85.169  1.00  0.00    -0.493 OA
ATOM     21  C   UNL     1      82.645  85.616  86.404  1.00  0.00     0.278 C 
ENDBRANCH  17  20
BRANCH  19  22
ATOM     22  O   UNL     1      79.216  85.942  84.662  1.00  0.00    -0.504 OA
ATOM     23  H   UNL     1      78.313  86.208  84.909  1.00  0.00     0.293 HD
ENDBRANCH  19  22
ENDBRANCH  13  14
ENDBRANCH  12  13
ENDBRANCH  10  12
ENDBRANCH   1  10
TORSDOF 12
ENDMDL
MODEL 8
REMARK VINA RESULT:    -5.498     13.575     15.828
REMARK INTER + INTRA:         -10.725
REMARK INTER:                  -9.490
REMARK INTRA:                  -1.235
REMARK UNBOUND:                -1.692
REMARK SMILES CCCCC[C@H](O)CC(=O)CCc1ccc(O)c(OC)c1
REMARK SMILES IDX 8 1 6 2 7 3 5 5 4 6 3 7 2 8 1 9 9 10 10 11 11 12 12 13 13 14
REMARK SMILES IDX 21 15 14 16 18 17 15 18 16 19 19 20 20 21 17 22
REMARK H PARENT 7 4 17 23
REMARK Flexibility Score: inf
ROOT
ATOM      1  C   UNL     1      80.168  85.921  85.928  1.00  0.00     0.107 C 
ENDROOT
BRANCH   1   2
ATOM      2  C   UNL     1      81.062  86.266  84.735  1.00  0.00     0.121 C 
BRANCH   2   3
ATOM      3  O   UNL     1      81.548  85.069  84.132  1.00  0.00    -0.393 OA
ATOM      4  H   UNL     1      82.519  85.082  84.186  1.00  0.00     0.210 HD
ENDBRANCH   2   3
BRANCH   2   5
ATOM      5  C   UNL     1      80.346  87.111  83.673  1.00  0.00     0.032 C 
BRANCH   5   6
ATOM      6  C   UNL     1      79.408  88.150  84.300  1.00  0.00     0.003 C 
BRANCH   6   7
ATOM      7  C   UNL     1      80.150  89.289  85.005  1.00  0.00    -0.000 C 
BRANCH   7   8
ATOM      8  C   UNL     1      81.298  89.873  84.184  1.00  0.00    -0.003 C 
ATOM      9  C   UNL     1      82.591  89.907  84.985  1.00  0.00     0.004 C 
ENDBRANCH   7   8
ENDBRANCH   6   7
ENDBRANCH   5   6
ENDBRANCH   2   5
ENDBRANCH   1   2
BRANCH   1  10
ATOM     10  C   UNL     1      80.813  86.241  87.267  1.00  0.00     0.135 C 
ATOM     11  O   UNL     1      81.798  85.616  87.661  1.00  0.00    -0.300 OA
BRANCH  10  12
ATOM     12  C   UNL     1      80.208  87.390  88.058  1.00  0.00     0.080 C 
BRANCH  12  13
ATOM     13  C   UNL     1      80.627  87.412  89.530  1.00  0.00     0.043 C 
BRANCH  13  14
ATOM     14  C   UNL     1      81.693  88.439  89.827  1.00  0.00    -0.044 A 
ATOM     15  C   UNL     1      82.008  89.413  88.879  1.00  0.00     0.054 A 
ATOM     16  C   UNL     1      82.364  88.413  91.050  1.00  0.00     0.008 A 
ATOM     17  C   UNL     1      82.992  90.362  89.155  1.00  0.00     0.160 A 
ATOM     18  C   UNL     1      83.349  89.362  91.326  1.00  0.00     0.050 A 
ATOM     19  C   UNL     1      83.663  90.336  90.378  1.00  0.00     0.157 A 
BRANCH  17  20
ATOM     20  O   UNL     1      83.291  91.308  88.221  1.00  0.00    -0.493 OA
ATOM     21  C   UNL     1      82.518  92.507  88.243  1.00  0.00     0.278 C 
ENDBRANCH  17  20
BRANCH  19  22
ATOM     22  O   UNL     1      84.626  91.257  90.658  1.00  0.00    -0.504 OA
ATOM     23  H   UNL     1      84.356  92.118  90.297  1.00  0.00     0.293 HD
ENDBRANCH  19  22
ENDBRANCH  13  14
ENDBRANCH  12  13
ENDBRANCH  10  12
ENDBRANCH   1  10
TORSDOF 12
ENDMDL
MODEL 9
REMARK VINA RESULT:    -5.487      2.664      3.668
REMARK INTER + INTRA:         -10.708
REMARK INTER:                  -9.391
REMARK INTRA:                  -1.317
REMARK UNBOUND:                -1.692
REMARK SMILES CCCCC[C@H](O)CC(=O)CCc1ccc(O)c(OC)c1
REMARK SMILES IDX 8 1 6 2 7 3 5 5 4 6 3 7 2 8 1 9 9 10 10 11 11 12 12 13 13 14
REMARK SMILES IDX 21 15 14 16 18 17 15 18 16 19 19 20 20 21 17 22
REMARK H PARENT 7 4 17 23
REMARK Flexibility Score: inf
ROOT
ATOM      1  C   UNL     1      90.124  92.647  77.349  1.00  0.00     0.107 C 
ENDROOT
BRANCH   1   2
ATOM      2  C   UNL     1      89.887  91.286  76.689  1.00  0.00     0.121 C 
BRANCH   2   3
ATOM      3  O   UNL     1      88.691  91.326  75.914  1.00  0.00    -0.393 OA
ATOM      4  H   UNL     1      87.953  91.071  76.493  1.00  0.00     0.210 HD
ENDBRANCH   2   3
BRANCH   2   5
ATOM      5  C   UNL     1      91.053  90.842  75.797  1.00  0.00     0.032 C 
BRANCH   5   6
ATOM      6  C   UNL     1      90.608  90.590  74.351  1.00  0.00     0.003 C 
BRANCH   6   7
ATOM      7  C   UNL     1      91.247  91.551  73.344  1.00  0.00    -0.000 C 
BRANCH   7   8
ATOM      8  C   UNL     1      90.399  91.781  72.094  1.00  0.00    -0.003 C 
ATOM      9  C   UNL     1      89.397  92.905  72.304  1.00  0.00     0.004 C 
ENDBRANCH   7   8
ENDBRANCH   6   7
ENDBRANCH   5   6
ENDBRANCH   2   5
ENDBRANCH   1   2
BRANCH   1  10
ATOM     10  C   UNL     1      90.432  93.749  76.348  1.00  0.00     0.135 C 
ATOM     11  O   UNL     1      89.607  94.080  75.497  1.00  0.00    -0.300 OA
BRANCH  10  12
ATOM     12  C   UNL     1      91.780  94.439  76.488  1.00  0.00     0.080 C 
BRANCH  12  13
ATOM     13  C   UNL     1      92.947  93.630  75.918  1.00  0.00     0.043 C 
BRANCH  13  14
ATOM     14  C   UNL     1      94.118  94.490  75.507  1.00  0.00    -0.044 A 
ATOM     15  C   UNL     1      93.901  95.776  75.012  1.00  0.00     0.054 A 
ATOM     16  C   UNL     1      95.419  93.997  75.621  1.00  0.00     0.008 A 
ATOM     17  C   UNL     1      94.984  96.569  74.634  1.00  0.00     0.160 A 
ATOM     18  C   UNL     1      96.502  94.790  75.243  1.00  0.00     0.050 A 
ATOM     19  C   UNL     1      96.284  96.077  74.749  1.00  0.00     0.157 A 
BRANCH  17  20
ATOM     20  O   UNL     1      94.759  97.824  74.152  1.00  0.00    -0.493 OA
ATOM     21  C   UNL     1      94.029  97.928  72.931  1.00  0.00     0.278 C 
ENDBRANCH  17  20
BRANCH  19  22
ATOM     22  O   UNL     1      97.349  96.842  74.382  1.00  0.00    -0.504 OA
ATOM     23  H   UNL     1      98.084  96.259  74.124  1.00  0.00     0.293 HD
ENDBRANCH  19  22
ENDBRANCH  13  14
ENDBRANCH  12  13
ENDBRANCH  10  12
ENDBRANCH   1  10
TORSDOF 12
ENDMDL
MODEL 10
REMARK VINA RESULT:    -5.375     13.305     16.071
REMARK INTER + INTRA:         -10.524
REMARK INTER:                  -8.905
REMARK INTRA:                  -1.619
REMARK UNBOUND:                -1.692
REMARK SMILES CCCCC[C@H](O)CC(=O)CCc1ccc(O)c(OC)c1
REMARK SMILES IDX 8 1 6 2 7 3 5 5 4 6 3 7 2 8 1 9 9 10 10 11 11 12 12 13 13 14
REMARK SMILES IDX 21 15 14 16 18 17 15 18 16 19 19 20 20 21 17 22
REMARK H PARENT 7 4 17 23
REMARK Flexibility Score: inf
ROOT
ATOM      1  C   UNL     1      81.905  91.285  89.679  1.00  0.00     0.107 C 
ENDROOT
BRANCH   1   2
ATOM      2  C   UNL     1      83.237  91.791  89.120  1.00  0.00     0.121 C 
BRANCH   2   3
ATOM      3  O   UNL     1      84.315  91.071  89.715  1.00  0.00    -0.393 OA
ATOM      4  H   UNL     1      84.566  90.354  89.106  1.00  0.00     0.210 HD
ENDBRANCH   2   3
BRANCH   2   5
ATOM      5  C   UNL     1      83.332  91.671  87.594  1.00  0.00     0.032 C 
BRANCH   5   6
ATOM      6  C   UNL     1      83.939  90.333  87.157  1.00  0.00     0.003 C 
BRANCH   6   7
ATOM      7  C   UNL     1      83.988  90.157  85.636  1.00  0.00    -0.000 C 
BRANCH   7   8
ATOM      8  C   UNL     1      82.925  89.203  85.095  1.00  0.00    -0.003 C 
ATOM      9  C   UNL     1      81.598  89.914  84.883  1.00  0.00     0.004 C 
ENDBRANCH   7   8
ENDBRANCH   6   7
ENDBRANCH   5   6
ENDBRANCH   2   5
ENDBRANCH   1   2
BRANCH   1  10
ATOM     10  C   UNL     1      81.725  89.784  89.525  1.00  0.00     0.135 C 
ATOM     11  O   UNL     1      82.418  88.994  90.167  1.00  0.00    -0.300 OA
BRANCH  10  12
ATOM     12  C   UNL     1      80.626  89.322  88.580  1.00  0.00     0.080 C 
BRANCH  12  13
ATOM     13  C   UNL     1      80.288  87.836  88.711  1.00  0.00     0.043 C 
BRANCH  13  14
ATOM     14  C   UNL     1      80.749  87.017  87.529  1.00  0.00    -0.044 A 
ATOM     15  C   UNL     1      80.037  87.060  86.330  1.00  0.00     0.054 A 
ATOM     16  C   UNL     1      81.887  86.218  87.636  1.00  0.00     0.008 A 
ATOM     17  C   UNL     1      80.465  86.304  85.238  1.00  0.00     0.160 A 
ATOM     18  C   UNL     1      82.315  85.462  86.545  1.00  0.00     0.050 A 
ATOM     19  C   UNL     1      81.603  85.504  85.346  1.00  0.00     0.157 A 
BRANCH  17  20
ATOM     20  O   UNL     1      79.761  86.353  84.073  1.00  0.00    -0.493 OA
ATOM     21  C   UNL     1      80.225  87.258  83.073  1.00  0.00     0.278 C 
ENDBRANCH  17  20
BRANCH  19  22
ATOM     22  O   UNL     1      82.030  84.762  84.287  1.00  0.00    -0.504 OA
ATOM     23  H   UNL     1      81.308  84.180  83.996  1.00  0.00     0.293 HD
ENDBRANCH  19  22
ENDBRANCH  13  14
ENDBRANCH  12  13
ENDBRANCH  10  12
ENDBRANCH   1  10
TORSDOF 12
ENDMDL
