MODEL 1
REMARK VINA RESULT:    -7.544      0.000      0.000
REMARK INTER + INTRA:         -13.823
REMARK INTER:                 -12.837
REMARK INTRA:                  -0.986
REMARK UNBOUND:                -0.986
REMARK SMILES C=C(C)[C@]12C[C@@H](C)[C@@]34O[C@](Cc5ccccc5)(O[C@@H]1[C@@H]3C=C(COC(=O)Cc1ccc(O)cc1)C[C@]1(O)C(=O)C(C)=C[C@@H]41)O2
REMARK SMILES IDX 23 1 22 2 21 3 20 4 9 5 8 6 10 7 6 8 18 10 44 11 19 12 5 13
REMARK SMILES IDX 7 14 4 15 11 16 12 17 13 18 17 19 14 20 16 21 15 22 2 23
REMARK SMILES IDX 3 24 1 25 35 26 36 27 43 28 38 29 42 30 39 32 40 33 41 34
REMARK SMILES IDX 37 35 24 37 25 38 26 39 27 40 28 41 29 42 34 43 30 44 33 45
REMARK SMILES IDX 31 46 32 47
REMARK H PARENT 37 36 32 48
REMARK Flexibility Score: 90.00
ROOT
ATOM      1  C   UNL     1      94.210  86.520  91.013  1.00  0.00     0.264 C 
ENDROOT
BRANCH   1   2
ATOM      2  C   UNL     1      94.240  85.064  90.610  1.00  0.00    -0.033 C 
ATOM      3  C   UNL     1      94.032  84.733  89.319  1.00  0.00    -0.015 C 
BRANCH   3   4
ATOM      4  C   UNL     1      93.937  83.358  88.678  1.00  0.00     0.078 C 
ATOM      5  O   UNL     1      96.218  82.747  87.942  1.00  0.00    -0.319 OA
ATOM      6  C   UNL     1      95.143  82.364  88.856  1.00  0.00     0.095 CG0
ATOM      7  C   UNL     1      95.795  83.112  86.614  1.00  0.00     0.289 C 
ATOM      8  C   UNL     1      94.629  80.913  88.481  1.00  0.00     0.023 C 
ATOM      9  G   UNL     1      95.772  82.505  90.273  1.00  0.00     0.000 G0
ATOM     10  O   UNL     1      94.861  84.188  86.645  1.00  0.00    -0.320 OA
ATOM     11  O   UNL     1      95.129  82.044  85.944  1.00  0.00    -0.313 OA
ATOM     12  C   UNL     1      93.705  83.503  87.153  1.00  0.00     0.170 C 
ATOM     13  C   UNL     1      93.550  80.962  87.357  1.00  0.00     0.049 C 
ATOM     14  C   UNL     1      95.723  79.903  88.094  1.00  0.00     0.011 C 
ATOM     15  C   UNL     1      93.768  82.145  86.413  1.00  0.00     0.122 C 
BRANCH   7  16
ATOM     16  C   UNL     1      97.020  83.519  85.820  1.00  0.00     0.135 C 
BRANCH  16  17
ATOM     17  C   UNL     1      96.925  83.098  84.375  1.00  0.00    -0.040 A 
ATOM     18  C   UNL     1      97.489  81.892  83.961  1.00  0.00     0.004 A 
ATOM     19  C   UNL     1      96.272  83.916  83.453  1.00  0.00     0.004 A 
ATOM     20  C   UNL     1      97.400  81.503  82.624  1.00  0.00     0.000 A 
ATOM     21  C   UNL     1      96.183  83.527  82.116  1.00  0.00     0.000 A 
ATOM     22  C   UNL     1      96.747  82.321  81.702  1.00  0.00     0.000 A 
ENDBRANCH  16  17
ENDBRANCH   7  16
BRANCH  15  23
ATOM     23  C   UNL     1      92.859  82.109  85.227  1.00  0.00    -0.046 C 
ATOM     24  C   UNL     1      91.425  82.468  85.482  1.00  0.00     0.042 C 
ATOM     25  C   UNL     1      93.299  81.774  84.006  1.00  0.00     0.010 C 
ENDBRANCH  15  23
ENDBRANCH   3   4
BRANCH   2  26
ATOM     26  C   UNL     1      94.521  84.129  91.772  1.00  0.00     0.078 C 
BRANCH  26  27
ATOM     27  C   UNL     1      94.760  82.657  91.442  1.00  0.00     0.140 C 
ATOM     28  C   UNL     1      95.764  82.474  90.285  1.00  0.00     0.086 CG0
ATOM     29  C   UNL     1      95.430  81.910  92.575  1.00  0.00     0.190 C 
ATOM     30  C   UNL     1      96.684  81.396  90.788  1.00  0.00    -0.010 C 
ATOM     31  G   UNL     1      95.153  82.352  88.859  1.00  0.00     0.000 G0
ATOM     32  O   UNL     1      95.081  81.939  93.746  1.00  0.00    -0.291 OA
ATOM     33  C   UNL     1      96.540  81.076  92.077  1.00  0.00    -0.008 C 
ATOM     34  C   UNL     1      97.312  80.137  92.916  1.00  0.00     0.048 C 
BRANCH  27  35
ATOM     35  O   UNL     1      93.538  81.963  91.254  1.00  0.00    -0.381 OA
ATOM     36  H   UNL     1      93.104  82.316  90.458  1.00  0.00     0.212 HD
ENDBRANCH  27  35
ENDBRANCH  26  27
ENDBRANCH   2  26
ENDBRANCH   1   2
BRANCH   1  37
ATOM     37  O   UNL     1      92.870  86.925  91.199  1.00  0.00    -0.461 OA
BRANCH  37  38
ATOM     38  C   UNL     1      92.388  87.857  90.310  1.00  0.00     0.310 C 
ATOM     39  O   UNL     1      91.441  87.684  89.555  1.00  0.00    -0.252 OA
BRANCH  38  40
ATOM     40  C   UNL     1      93.207  89.121  90.411  1.00  0.00     0.158 C 
BRANCH  40  41
ATOM     41  C   UNL     1      93.769  89.565  89.086  1.00  0.00    -0.037 A 
ATOM     42  C   UNL     1      94.328  88.629  88.216  1.00  0.00     0.008 A 
ATOM     43  C   UNL     1      93.731  90.913  88.728  1.00  0.00     0.008 A 
ATOM     44  C   UNL     1      94.849  89.040  86.989  1.00  0.00     0.046 A 
ATOM     45  C   UNL     1      94.252  91.325  87.501  1.00  0.00     0.046 A 
ATOM     46  C   UNL     1      94.811  90.389  86.631  1.00  0.00     0.115 A 
BRANCH  46  47
ATOM     47  O   UNL     1      95.319  90.790  85.435  1.00  0.00    -0.508 OA
ATOM     48  H   UNL     1      95.053  91.712  85.272  1.00  0.00     0.293 HD
ENDBRANCH  46  47
ENDBRANCH  40  41
ENDBRANCH  38  40
ENDBRANCH  37  38
ENDBRANCH   1  37
TORSDOF 10
ENDMDL
MODEL 2
REMARK VINA RESULT:    -7.199      3.322      8.153
REMARK INTER + INTRA:         -13.235
REMARK INTER:                 -11.754
REMARK INTRA:                  -1.481
REMARK UNBOUND:                -0.986
REMARK SMILES C=C(C)[C@]12C[C@@H](C)[C@@]34O[C@](Cc5ccccc5)(O[C@@H]1[C@@H]3C=C(COC(=O)Cc1ccc(O)cc1)C[C@]1(O)C(=O)C(C)=C[C@@H]41)O2
REMARK SMILES IDX 23 1 22 2 21 3 20 4 9 5 8 6 10 7 6 8 18 10 44 11 19 12 5 13
REMARK SMILES IDX 7 14 4 15 11 16 12 17 13 18 17 19 14 20 16 21 15 22 2 23
REMARK SMILES IDX 3 24 1 25 35 26 36 27 43 28 38 29 42 30 39 32 40 33 41 34
REMARK SMILES IDX 37 35 24 37 25 38 26 39 27 40 28 41 29 42 34 43 30 44 33 45
REMARK SMILES IDX 31 46 32 47
REMARK H PARENT 37 36 32 48
REMARK Flexibility Score: 90.00
ROOT
ATOM      1  C   UNL     1      98.463  81.225  85.613  1.00  0.00     0.264 C 
ENDROOT
BRANCH   1   2
ATOM      2  C   UNL     1      97.073  81.615  85.168  1.00  0.00    -0.033 C 
ATOM      3  C   UNL     1      96.074  80.713  85.262  1.00  0.00    -0.015 C 
BRANCH   3   4
ATOM      4  C   UNL     1      94.624  80.829  84.817  1.00  0.00     0.078 C 
ATOM      5  O   UNL     1      93.344  81.684  86.753  1.00  0.00    -0.319 OA
ATOM      6  C   UNL     1      93.758  82.011  85.390  1.00  0.00     0.095 CG0
ATOM      7  C   UNL     1      92.905  80.327  86.954  1.00  0.00     0.289 C 
ATOM      8  C   UNL     1      92.475  82.153  84.472  1.00  0.00     0.023 C 
ATOM      9  G   UNL     1      94.616  83.301  85.544  1.00  0.00     0.000 G0
ATOM     10  O   UNL     1      93.918  79.396  86.584  1.00  0.00    -0.320 OA
ATOM     11  O   UNL     1      91.770  80.000  86.155  1.00  0.00    -0.313 OA
ATOM     12  C   UNL     1      93.865  79.522  85.154  1.00  0.00     0.170 C 
ATOM     13  C   UNL     1      92.013  80.771  83.917  1.00  0.00     0.049 C 
ATOM     14  C   UNL     1      91.276  82.870  85.117  1.00  0.00     0.011 C 
ATOM     15  C   UNL     1      92.345  79.633  84.883  1.00  0.00     0.122 C 
BRANCH   7  16
ATOM     16  C   UNL     1      92.558  80.152  88.419  1.00  0.00     0.135 C 
BRANCH  16  17
ATOM     17  C   UNL     1      93.421  81.009  89.311  1.00  0.00    -0.040 A 
ATOM     18  C   UNL     1      94.810  80.923  89.230  1.00  0.00     0.004 A 
ATOM     19  C   UNL     1      92.829  81.887  90.218  1.00  0.00     0.004 A 
ATOM     20  C   UNL     1      95.609  81.715  90.055  1.00  0.00     0.000 A 
ATOM     21  C   UNL     1      93.627  82.680  91.044  1.00  0.00     0.000 A 
ATOM     22  C   UNL     1      95.016  82.594  90.962  1.00  0.00     0.000 A 
ENDBRANCH  16  17
ENDBRANCH   7  16
BRANCH  15  23
ATOM     23  C   UNL     1      91.753  78.329  84.459  1.00  0.00    -0.046 C 
ATOM     24  C   UNL     1      92.727  77.235  84.134  1.00  0.00     0.042 C 
ATOM     25  C   UNL     1      90.427  78.146  84.373  1.00  0.00     0.010 C 
ENDBRANCH  15  23
ENDBRANCH   3   4
BRANCH   2  26
ATOM     26  C   UNL     1      96.989  83.042  84.659  1.00  0.00     0.078 C 
BRANCH  26  27
ATOM     27  C   UNL     1      95.594  83.614  84.415  1.00  0.00     0.140 C 
ATOM     28  C   UNL     1      94.619  83.288  85.566  1.00  0.00     0.086 CG0
ATOM     29  C   UNL     1      95.583  85.128  84.399  1.00  0.00     0.190 C 
ATOM     30  C   UNL     1      93.936  84.601  85.829  1.00  0.00    -0.010 C 
ATOM     31  G   UNL     1      93.760  82.002  85.393  1.00  0.00     0.000 G0
ATOM     32  O   UNL     1      96.352  85.835  83.765  1.00  0.00    -0.291 OA
ATOM     33  C   UNL     1      94.471  85.659  85.211  1.00  0.00    -0.008 C 
ATOM     34  C   UNL     1      94.119  87.091  85.299  1.00  0.00     0.048 C 
BRANCH  27  35
ATOM     35  O   UNL     1      95.104  83.259  83.132  1.00  0.00    -0.381 OA
ATOM     36  H   UNL     1      94.193  83.589  83.050  1.00  0.00     0.212 HD
ENDBRANCH  27  35
ENDBRANCH  26  27
ENDBRANCH   2  26
ENDBRANCH   1   2
BRANCH   1  37
ATOM     37  O   UNL     1      98.696  79.872  85.286  1.00  0.00    -0.461 OA
BRANCH  37  38
ATOM     38  C   UNL     1      99.739  79.626  84.424  1.00  0.00     0.310 C 
ATOM     39  O   UNL     1     100.924  79.741  84.704  1.00  0.00    -0.252 OA
BRANCH  38  40
ATOM     40  C   UNL     1      99.195  79.192  83.084  1.00  0.00     0.158 C 
BRANCH  40  41
ATOM     41  C   UNL     1      98.829  80.353  82.196  1.00  0.00    -0.037 A 
ATOM     42  C   UNL     1      99.822  81.215  81.729  1.00  0.00     0.008 A 
ATOM     43  C   UNL     1      97.497  80.566  81.839  1.00  0.00     0.008 A 
ATOM     44  C   UNL     1      99.483  82.290  80.907  1.00  0.00     0.046 A 
ATOM     45  C   UNL     1      97.158  81.641  81.017  1.00  0.00     0.046 A 
ATOM     46  C   UNL     1      98.150  82.503  80.551  1.00  0.00     0.115 A 
BRANCH  46  47
ATOM     47  O   UNL     1      97.820  83.551  79.749  1.00  0.00    -0.508 OA
ATOM     48  H   UNL     1      97.776  83.243  78.828  1.00  0.00     0.293 HD
ENDBRANCH  46  47
ENDBRANCH  40  41
ENDBRANCH  38  40
ENDBRANCH  37  38
ENDBRANCH   1  37
TORSDOF 10
ENDMDL
MODEL 3
REMARK VINA RESULT:    -6.684      5.629      9.481
REMARK INTER + INTRA:         -12.359
REMARK INTER:                 -11.411
REMARK INTRA:                  -0.948
REMARK UNBOUND:                -0.986
REMARK SMILES C=C(C)[C@]12C[C@@H](C)[C@@]34O[C@](Cc5ccccc5)(O[C@@H]1[C@@H]3C=C(COC(=O)Cc1ccc(O)cc1)C[C@]1(O)C(=O)C(C)=C[C@@H]41)O2
REMARK SMILES IDX 23 1 22 2 21 3 20 4 9 5 8 6 10 7 6 8 18 10 44 11 19 12 5 13
REMARK SMILES IDX 7 14 4 15 11 16 12 17 13 18 17 19 14 20 16 21 15 22 2 23
REMARK SMILES IDX 3 24 1 25 35 26 36 27 43 28 38 29 42 30 39 32 40 33 41 34
REMARK SMILES IDX 37 35 24 37 25 38 26 39 27 40 28 41 29 42 34 43 30 44 33 45
REMARK SMILES IDX 31 46 32 47
REMARK H PARENT 37 36 32 48
REMARK Flexibility Score: 90.00
ROOT
ATOM      1  C   UNL     1      95.901  77.599  83.263  1.00  0.00     0.264 C 
ENDROOT
BRANCH   1   2
ATOM      2  C   UNL     1      96.789  78.791  82.988  1.00  0.00    -0.033 C 
ATOM      3  C   UNL     1      97.637  78.753  81.940  1.00  0.00    -0.015 C 
BRANCH   3   4
ATOM      4  C   UNL     1      98.674  79.774  81.499  1.00  0.00     0.078 C 
ATOM      5  O   UNL     1      97.573  81.253  79.851  1.00  0.00    -0.319 OA
ATOM      6  C   UNL     1      98.193  81.236  81.175  1.00  0.00     0.095 CG0
ATOM      7  C   UNL     1      98.263  80.497  78.838  1.00  0.00     0.289 C 
ATOM      8  C   UNL     1      99.472  82.171  81.165  1.00  0.00     0.023 C 
ATOM      9  G   UNL     1      97.054  81.672  82.142  1.00  0.00     0.000 G0
ATOM     10  O   UNL     1      98.409  79.132  79.221  1.00  0.00    -0.320 OA
ATOM     11  O   UNL     1      99.587  80.976  78.611  1.00  0.00    -0.313 OA
ATOM     12  C   UNL     1      99.414  79.262  80.239  1.00  0.00     0.170 C 
ATOM     13  C   UNL     1     100.733  81.410  80.651  1.00  0.00     0.049 C 
ATOM     14  C   UNL     1      99.322  83.491  80.390  1.00  0.00     0.011 C 
ATOM     15  C   UNL     1     100.365  80.326  79.637  1.00  0.00     0.122 C 
BRANCH   7  16
ATOM     16  C   UNL     1      97.466  80.587  77.552  1.00  0.00     0.135 C 
BRANCH  16  17
ATOM     17  C   UNL     1      97.381  82.002  77.037  1.00  0.00    -0.040 A 
ATOM     18  C   UNL     1      96.430  82.879  77.559  1.00  0.00     0.004 A 
ATOM     19  C   UNL     1      98.254  82.433  76.039  1.00  0.00     0.004 A 
ATOM     20  C   UNL     1      96.352  84.188  77.082  1.00  0.00     0.000 A 
ATOM     21  C   UNL     1      98.175  83.743  75.562  1.00  0.00     0.000 A 
ATOM     22  C   UNL     1      97.225  84.619  76.084  1.00  0.00     0.000 A 
ENDBRANCH  16  17
ENDBRANCH   7  16
BRANCH  15  23
ATOM     23  C   UNL     1     101.565  79.708  78.996  1.00  0.00    -0.046 C 
ATOM     24  C   UNL     1     102.230  80.515  77.921  1.00  0.00     0.042 C 
ATOM     25  C   UNL     1     102.021  78.501  79.361  1.00  0.00     0.010 C 
ENDBRANCH  15  23
ENDBRANCH   3   4
BRANCH   2  26
ATOM     26  C   UNL     1      96.586  79.926  83.974  1.00  0.00     0.078 C 
BRANCH  26  27
ATOM     27  C   UNL     1      97.256  81.259  83.652  1.00  0.00     0.140 C 
ATOM     28  C   UNL     1      97.066  81.667  82.176  1.00  0.00     0.086 CG0
ATOM     29  C   UNL     1      96.627  82.420  84.393  1.00  0.00     0.190 C 
ATOM     30  C   UNL     1      96.672  83.115  82.261  1.00  0.00    -0.010 C 
ATOM     31  G   UNL     1      98.196  81.239  81.195  1.00  0.00     0.000 G0
ATOM     32  O   UNL     1      96.384  82.446  85.591  1.00  0.00    -0.291 OA
ATOM     33  C   UNL     1      96.391  83.561  83.489  1.00  0.00    -0.008 C 
ATOM     34  C   UNL     1      95.900  84.882  83.933  1.00  0.00     0.048 C 
BRANCH  27  35
ATOM     35  O   UNL     1      98.608  81.277  84.081  1.00  0.00    -0.381 OA
ATOM     36  H   UNL     1      98.653  80.881  84.967  1.00  0.00     0.212 HD
ENDBRANCH  27  35
ENDBRANCH  26  27
ENDBRANCH   2  26
ENDBRANCH   1   2
BRANCH   1  37
ATOM     37  O   UNL     1      95.318  77.737  84.542  1.00  0.00    -0.461 OA
BRANCH  37  38
ATOM     38  C   UNL     1      93.945  77.803  84.579  1.00  0.00     0.310 C 
ATOM     39  O   UNL     1      93.191  77.180  83.845  1.00  0.00    -0.252 OA
BRANCH  38  40
ATOM     40  C   UNL     1      93.516  78.762  85.664  1.00  0.00     0.158 C 
BRANCH  40  41
ATOM     41  C   UNL     1      92.584  79.835  85.166  1.00  0.00    -0.037 A 
ATOM     42  C   UNL     1      93.093  81.069  84.759  1.00  0.00     0.008 A 
ATOM     43  C   UNL     1      91.211  79.597  85.111  1.00  0.00     0.008 A 
ATOM     44  C   UNL     1      92.230  82.063  84.298  1.00  0.00     0.046 A 
ATOM     45  C   UNL     1      90.347  80.591  84.650  1.00  0.00     0.046 A 
ATOM     46  C   UNL     1      90.856  81.823  84.244  1.00  0.00     0.115 A 
BRANCH  46  47
ATOM     47  O   UNL     1      90.015  82.794  83.794  1.00  0.00    -0.508 OA
ATOM     48  H   UNL     1      90.460  83.656  83.864  1.00  0.00     0.293 HD
ENDBRANCH  46  47
ENDBRANCH  40  41
ENDBRANCH  38  40
ENDBRANCH  37  38
ENDBRANCH   1  37
TORSDOF 10
ENDMDL
MODEL 4
REMARK VINA RESULT:    -6.643      1.614      2.175
REMARK INTER + INTRA:         -12.290
REMARK INTER:                 -11.888
REMARK INTRA:                  -0.401
REMARK UNBOUND:                -0.986
REMARK SMILES C=C(C)[C@]12C[C@@H](C)[C@@]34O[C@](Cc5ccccc5)(O[C@@H]1[C@@H]3C=C(COC(=O)Cc1ccc(O)cc1)C[C@]1(O)C(=O)C(C)=C[C@@H]41)O2
REMARK SMILES IDX 23 1 22 2 21 3 20 4 9 5 8 6 10 7 6 8 18 10 44 11 19 12 5 13
REMARK SMILES IDX 7 14 4 15 11 16 12 17 13 18 17 19 14 20 16 21 15 22 2 23
REMARK SMILES IDX 3 24 1 25 35 26 36 27 43 28 38 29 42 30 39 32 40 33 41 34
REMARK SMILES IDX 37 35 24 37 25 38 26 39 27 40 28 41 29 42 34 43 30 44 33 45
REMARK SMILES IDX 31 46 32 47
REMARK H PARENT 37 36 32 48
REMARK Flexibility Score: 90.00
ROOT
ATOM      1  C   UNL     1      93.374  84.349  90.617  1.00  0.00     0.264 C 
ENDROOT
BRANCH   1   2
ATOM      2  C   UNL     1      93.874  83.060  90.008  1.00  0.00    -0.033 C 
ATOM      3  C   UNL     1      93.493  82.730  88.757  1.00  0.00    -0.015 C 
BRANCH   3   4
ATOM      4  C   UNL     1      93.791  81.471  87.957  1.00  0.00     0.078 C 
ATOM      5  O   UNL     1      95.829  81.925  86.633  1.00  0.00    -0.319 OA
ATOM      6  C   UNL     1      95.294  81.085  87.703  1.00  0.00     0.095 CG0
ATOM      7  C   UNL     1      94.951  82.122  85.508  1.00  0.00     0.289 C 
ATOM      8  C   UNL     1      95.328  79.568  87.244  1.00  0.00     0.023 C 
ATOM      9  G   UNL     1      96.171  81.428  88.942  1.00  0.00     0.000 G0
ATOM     10  O   UNL     1      93.710  82.692  85.914  1.00  0.00    -0.320 OA
ATOM     11  O   UNL     1      94.619  80.898  84.858  1.00  0.00    -0.313 OA
ATOM     12  C   UNL     1      93.115  81.560  86.567  1.00  0.00     0.170 C 
ATOM     13  C   UNL     1      94.060  79.191  86.419  1.00  0.00     0.049 C 
ATOM     14  C   UNL     1      96.586  79.140  86.470  1.00  0.00     0.011 C 
ATOM     15  C   UNL     1      93.517  80.388  85.637  1.00  0.00     0.122 C 
BRANCH   7  16
ATOM     16  C   UNL     1      95.642  83.045  84.523  1.00  0.00     0.135 C 
BRANCH  16  17
ATOM     17  C   UNL     1      96.615  82.304  83.640  1.00  0.00    -0.040 A 
ATOM     18  C   UNL     1      96.279  82.023  82.316  1.00  0.00     0.004 A 
ATOM     19  C   UNL     1      97.849  81.901  84.148  1.00  0.00     0.004 A 
ATOM     20  C   UNL     1      97.179  81.338  81.498  1.00  0.00     0.000 A 
ATOM     21  C   UNL     1      98.749  81.216  83.330  1.00  0.00     0.000 A 
ATOM     22  C   UNL     1      98.414  80.935  82.007  1.00  0.00     0.000 A 
ENDBRANCH  16  17
ENDBRANCH   7  16
BRANCH  15  23
ATOM     23  C   UNL     1      92.415  80.011  84.702  1.00  0.00    -0.046 C 
ATOM     24  C   UNL     1      91.475  81.111  84.307  1.00  0.00     0.042 C 
ATOM     25  C   UNL     1      92.273  78.759  84.242  1.00  0.00     0.010 C 
ENDBRANCH  15  23
ENDBRANCH   3   4
BRANCH   2  26
ATOM     26  C   UNL     1      94.789  82.280  90.934  1.00  0.00     0.078 C 
BRANCH  26  27
ATOM     27  C   UNL     1      95.532  81.085  90.338  1.00  0.00     0.140 C 
ATOM     28  C   UNL     1      96.158  81.413  88.966  1.00  0.00     0.086 CG0
ATOM     29  C   UNL     1      96.739  80.685  91.159  1.00  0.00     0.190 C 
ATOM     30  C   UNL     1      97.548  80.851  89.073  1.00  0.00    -0.010 C 
ATOM     31  G   UNL     1      95.291  81.075  87.719  1.00  0.00     0.000 G0
ATOM     32  O   UNL     1      96.748  80.516  92.369  1.00  0.00    -0.291 OA
ATOM     33  C   UNL     1      97.915  80.459  90.297  1.00  0.00    -0.008 C 
ATOM     34  C   UNL     1      99.212  79.944  90.783  1.00  0.00     0.048 C 
BRANCH  27  35
ATOM     35  O   UNL     1      94.723  79.921  90.335  1.00  0.00    -0.381 OA
ATOM     36  H   UNL     1      94.078  79.998  89.611  1.00  0.00     0.212 HD
ENDBRANCH  27  35
ENDBRANCH  26  27
ENDBRANCH   2  26
ENDBRANCH   1   2
BRANCH   1  37
ATOM     37  O   UNL     1      93.967  85.442  89.947  1.00  0.00    -0.461 OA
BRANCH  37  38
ATOM     38  C   UNL     1      93.105  86.302  89.307  1.00  0.00     0.310 C 
ATOM     39  O   UNL     1      92.591  86.099  88.216  1.00  0.00    -0.252 OA
BRANCH  38  40
ATOM     40  C   UNL     1      92.893  87.530  90.160  1.00  0.00     0.158 C 
BRANCH  40  41
ATOM     41  C   UNL     1      93.409  88.790  89.515  1.00  0.00    -0.037 A 
ATOM     42  C   UNL     1      92.646  89.957  89.555  1.00  0.00     0.008 A 
ATOM     43  C   UNL     1      94.649  88.790  88.876  1.00  0.00     0.008 A 
ATOM     44  C   UNL     1      93.123  91.124  88.956  1.00  0.00     0.046 A 
ATOM     45  C   UNL     1      95.126  89.956  88.278  1.00  0.00     0.046 A 
ATOM     46  C   UNL     1      94.364  91.123  88.318  1.00  0.00     0.115 A 
BRANCH  46  47
ATOM     47  O   UNL     1      94.828  92.261  87.734  1.00  0.00    -0.508 OA
ATOM     48  H   UNL     1      95.718  92.092  87.377  1.00  0.00     0.293 HD
ENDBRANCH  46  47
ENDBRANCH  40  41
ENDBRANCH  38  40
ENDBRANCH  37  38
ENDBRANCH   1  37
TORSDOF 10
ENDMDL
MODEL 5
REMARK VINA RESULT:    -6.530      4.522      8.793
REMARK INTER + INTRA:         -12.097
REMARK INTER:                 -10.380
REMARK INTRA:                  -1.717
REMARK UNBOUND:                -0.986
REMARK SMILES C=C(C)[C@]12C[C@@H](C)[C@@]34O[C@](Cc5ccccc5)(O[C@@H]1[C@@H]3C=C(COC(=O)Cc1ccc(O)cc1)C[C@]1(O)C(=O)C(C)=C[C@@H]41)O2
REMARK SMILES IDX 23 1 22 2 21 3 20 4 9 5 8 6 10 7 6 8 18 10 44 11 19 12 5 13
REMARK SMILES IDX 7 14 4 15 11 16 12 17 13 18 17 19 14 20 16 21 15 22 2 23
REMARK SMILES IDX 3 24 1 25 35 26 36 27 43 28 38 29 42 30 39 32 40 33 41 34
REMARK SMILES IDX 37 35 24 37 25 38 26 39 27 40 28 41 29 42 34 43 30 44 33 45
REMARK SMILES IDX 31 46 32 47
REMARK H PARENT 37 36 32 48
REMARK Flexibility Score: 90.00
ROOT
ATOM      1  C   UNL     1      91.113  79.879  84.057  1.00  0.00     0.264 C 
ENDROOT
BRANCH   1   2
ATOM      2  C   UNL     1      92.455  80.322  84.592  1.00  0.00    -0.033 C 
ATOM      3  C   UNL     1      93.499  79.469  84.541  1.00  0.00    -0.015 C 
BRANCH   3   4
ATOM      4  C   UNL     1      94.913  79.641  85.073  1.00  0.00     0.078 C 
ATOM      5  O   UNL     1      96.278  80.534  83.215  1.00  0.00    -0.319 OA
ATOM      6  C   UNL     1      95.768  80.852  84.547  1.00  0.00     0.095 CG0
ATOM      7  C   UNL     1      96.779  79.193  83.051  1.00  0.00     0.289 C 
ATOM      8  C   UNL     1      96.987  81.046  85.541  1.00  0.00     0.023 C 
ATOM      9  G   UNL     1      94.875  82.108  84.331  1.00  0.00     0.000 G0
ATOM     10  O   UNL     1      95.780  78.226  83.365  1.00  0.00    -0.320 OA
ATOM     11  O   UNL     1      97.873  78.913  83.921  1.00  0.00    -0.313 OA
ATOM     12  C   UNL     1      95.740  78.362  84.794  1.00  0.00     0.170 C 
ATOM     13  C   UNL     1      97.464  79.686  86.134  1.00  0.00     0.049 C 
ATOM     14  C   UNL     1      98.195  81.804  84.966  1.00  0.00     0.011 C 
ATOM     15  C   UNL     1      97.235  78.531  85.157  1.00  0.00     0.122 C 
BRANCH   7  16
ATOM     16  C   UNL     1      97.222  79.024  81.612  1.00  0.00     0.135 C 
BRANCH  16  17
ATOM     17  C   UNL     1      97.927  80.251  81.088  1.00  0.00    -0.040 A 
ATOM     18  C   UNL     1      97.275  81.104  80.200  1.00  0.00     0.004 A 
ATOM     19  C   UNL     1      99.232  80.530  81.494  1.00  0.00     0.004 A 
ATOM     20  C   UNL     1      97.927  82.239  79.716  1.00  0.00     0.000 A 
ATOM     21  C   UNL     1      99.884  81.665  81.011  1.00  0.00     0.000 A 
ATOM     22  C   UNL     1      99.231  82.519  80.122  1.00  0.00     0.000 A 
ENDBRANCH  16  17
ENDBRANCH   7  16
BRANCH  15  23
ATOM     23  C   UNL     1      97.847  77.252  85.627  1.00  0.00    -0.046 C 
ATOM     24  C   UNL     1      96.891  76.164  86.015  1.00  0.00     0.042 C 
ATOM     25  C   UNL     1      99.176  77.085  85.698  1.00  0.00     0.010 C 
ENDBRANCH  15  23
ENDBRANCH   3   4
BRANCH   2  26
ATOM     26  C   UNL     1      92.443  81.740  85.132  1.00  0.00     0.078 C 
BRANCH  26  27
ATOM     27  C   UNL     1      93.795  82.384  85.433  1.00  0.00     0.140 C 
ATOM     28  C   UNL     1      94.836  82.098  84.331  1.00  0.00     0.086 CG0
ATOM     29  C   UNL     1      93.729  83.897  85.434  1.00  0.00     0.190 C 
ATOM     30  C   UNL     1      95.464  83.442  84.085  1.00  0.00    -0.010 C 
ATOM     31  G   UNL     1      95.749  80.858  84.555  1.00  0.00     0.000 G0
ATOM     32  O   UNL     1      92.898  84.569  86.025  1.00  0.00    -0.291 OA
ATOM     33  C   UNL     1      94.849  84.476  84.668  1.00  0.00    -0.008 C 
ATOM     34  C   UNL     1      95.133  85.923  84.581  1.00  0.00     0.048 C 
BRANCH  27  35
ATOM     35  O   UNL     1      94.242  82.064  86.740  1.00  0.00    -0.381 OA
ATOM     36  H   UNL     1      93.553  81.538  87.179  1.00  0.00     0.212 HD
ENDBRANCH  27  35
ENDBRANCH  26  27
ENDBRANCH   2  26
ENDBRANCH   1   2
BRANCH   1  37
ATOM     37  O   UNL     1      90.688  78.729  84.758  1.00  0.00    -0.461 OA
BRANCH  37  38
ATOM     38  C   UNL     1      89.528  78.140  84.312  1.00  0.00     0.310 C 
ATOM     39  O   UNL     1      88.501  78.739  84.026  1.00  0.00    -0.252 OA
BRANCH  38  40
ATOM     40  C   UNL     1      89.721  76.645  84.231  1.00  0.00     0.158 C 
BRANCH  40  41
ATOM     41  C   UNL     1      91.103  76.254  83.776  1.00  0.00    -0.037 A 
ATOM     42  C   UNL     1      92.039  75.793  84.703  1.00  0.00     0.008 A 
ATOM     43  C   UNL     1      91.448  76.354  82.429  1.00  0.00     0.008 A 
ATOM     44  C   UNL     1      93.319  75.433  84.282  1.00  0.00     0.046 A 
ATOM     45  C   UNL     1      92.728  75.992  82.007  1.00  0.00     0.046 A 
ATOM     46  C   UNL     1      93.663  75.532  82.933  1.00  0.00     0.115 A 
BRANCH  46  47
ATOM     47  O   UNL     1      94.912  75.181  82.523  1.00  0.00    -0.508 OA
ATOM     48  H   UNL     1      95.288  74.549  83.161  1.00  0.00     0.293 HD
ENDBRANCH  46  47
ENDBRANCH  40  41
ENDBRANCH  38  40
ENDBRANCH  37  38
ENDBRANCH   1  37
TORSDOF 10
ENDMDL
MODEL 6
REMARK VINA RESULT:    -6.336      5.761      9.930
REMARK INTER + INTRA:         -11.767
REMARK INTER:                 -11.022
REMARK INTRA:                  -0.745
REMARK UNBOUND:                -0.986
REMARK SMILES C=C(C)[C@]12C[C@@H](C)[C@@]34O[C@](Cc5ccccc5)(O[C@@H]1[C@@H]3C=C(COC(=O)Cc1ccc(O)cc1)C[C@]1(O)C(=O)C(C)=C[C@@H]41)O2
REMARK SMILES IDX 23 1 22 2 21 3 20 4 9 5 8 6 10 7 6 8 18 10 44 11 19 12 5 13
REMARK SMILES IDX 7 14 4 15 11 16 12 17 13 18 17 19 14 20 16 21 15 22 2 23
REMARK SMILES IDX 3 24 1 25 35 26 36 27 43 28 38 29 42 30 39 32 40 33 41 34
REMARK SMILES IDX 37 35 24 37 25 38 26 39 27 40 28 41 29 42 34 43 30 44 33 45
REMARK SMILES IDX 31 46 32 47
REMARK H PARENT 37 36 32 48
REMARK Flexibility Score: 90.00
ROOT
ATOM      1  C   UNL     1      95.484  82.521  83.387  1.00  0.00     0.264 C 
ENDROOT
BRANCH   1   2
ATOM      2  C   UNL     1      96.760  82.233  82.630  1.00  0.00    -0.033 C 
ATOM      3  C   UNL     1      97.690  81.429  83.187  1.00  0.00    -0.015 C 
BRANCH   3   4
ATOM      4  C   UNL     1      99.069  81.048  82.674  1.00  0.00     0.078 C 
ATOM      5  O   UNL     1      98.812  78.935  81.416  1.00  0.00    -0.319 OA
ATOM      6  C   UNL     1      99.178  80.343  81.272  1.00  0.00     0.095 CG0
ATOM      7  C   UNL     1      99.346  78.276  82.580  1.00  0.00     0.289 C 
ATOM      8  C   UNL     1     100.686  80.446  80.799  1.00  0.00     0.023 C 
ATOM      9  G   UNL     1      98.125  80.918  80.280  1.00  0.00     0.000 G0
ATOM     10  O   UNL     1      98.951  78.941  83.777  1.00  0.00    -0.320 OA
ATOM     11  O   UNL     1     100.771  78.270  82.595  1.00  0.00    -0.313 OA
ATOM     12  C   UNL     1      99.771  80.117  83.693  1.00  0.00     0.170 C 
ATOM     13  C   UNL     1     101.670  80.394  82.008  1.00  0.00     0.049 C 
ATOM     14  C   UNL     1     101.121  79.415  79.744  1.00  0.00     0.011 C 
ATOM     15  C   UNL     1     101.110  79.555  83.158  1.00  0.00     0.122 C 
BRANCH   7  16
ATOM     16  C   UNL     1      98.835  76.849  82.594  1.00  0.00     0.135 C 
BRANCH  16  17
ATOM     17  C   UNL     1      97.434  76.754  83.143  1.00  0.00    -0.040 A 
ATOM     18  C   UNL     1      96.467  77.679  82.752  1.00  0.00     0.004 A 
ATOM     19  C   UNL     1      97.106  75.739  84.042  1.00  0.00     0.004 A 
ATOM     20  C   UNL     1      95.170  77.590  83.260  1.00  0.00     0.000 A 
ATOM     21  C   UNL     1      95.809  75.651  84.550  1.00  0.00     0.000 A 
ATOM     22  C   UNL     1      94.842  76.576  84.159  1.00  0.00     0.000 A 
ENDBRANCH  16  17
ENDBRANCH   7  16
BRANCH  15  23
ATOM     23  C   UNL     1     102.107  79.341  84.250  1.00  0.00    -0.046 C 
ATOM     24  C   UNL     1     102.974  80.515  84.594  1.00  0.00     0.042 C 
ATOM     25  C   UNL     1     102.220  78.166  84.887  1.00  0.00     0.010 C 
ENDBRANCH  15  23
ENDBRANCH   3   4
BRANCH   2  26
ATOM     26  C   UNL     1      96.818  82.916  81.276  1.00  0.00     0.078 C 
BRANCH  26  27
ATOM     27  C   UNL     1      97.935  82.489  80.326  1.00  0.00     0.140 C 
ATOM     28  C   UNL     1      98.103  80.957  80.273  1.00  0.00     0.086 CG0
ATOM     29  C   UNL     1      97.632  82.833  78.883  1.00  0.00     0.190 C 
ATOM     30  C   UNL     1      98.209  80.667  78.802  1.00  0.00    -0.010 C 
ATOM     31  G   UNL     1      99.151  80.348  81.249  1.00  0.00     0.000 G0
ATOM     32  O   UNL     1      97.245  83.920  78.481  1.00  0.00    -0.291 OA
ATOM     33  C   UNL     1      97.923  81.692  77.994  1.00  0.00    -0.008 C 
ATOM     34  C   UNL     1      97.845  81.750  76.520  1.00  0.00     0.048 C 
BRANCH  27  35
ATOM     35  O   UNL     1      99.139  83.188  80.595  1.00  0.00    -0.381 OA
ATOM     36  H   UNL     1      99.501  82.863  81.436  1.00  0.00     0.212 HD
ENDBRANCH  27  35
ENDBRANCH  26  27
ENDBRANCH   2  26
ENDBRANCH   1   2
BRANCH   1  37
ATOM     37  O   UNL     1      95.722  82.383  84.771  1.00  0.00    -0.461 OA
BRANCH  37  38
ATOM     38  C   UNL     1      94.743  81.742  85.495  1.00  0.00     0.310 C 
ATOM     39  O   UNL     1      94.330  82.100  86.589  1.00  0.00    -0.252 OA
BRANCH  38  40
ATOM     40  C   UNL     1      94.261  80.533  84.729  1.00  0.00     0.158 C 
BRANCH  40  41
ATOM     41  C   UNL     1      92.778  80.556  84.468  1.00  0.00    -0.037 A 
ATOM     42  C   UNL     1      92.115  81.773  84.311  1.00  0.00     0.008 A 
ATOM     43  C   UNL     1      92.066  79.360  84.382  1.00  0.00     0.008 A 
ATOM     44  C   UNL     1      90.741  81.795  84.070  1.00  0.00     0.046 A 
ATOM     45  C   UNL     1      90.692  79.380  84.141  1.00  0.00     0.046 A 
ATOM     46  C   UNL     1      90.030  80.597  83.985  1.00  0.00     0.115 A 
BRANCH  46  47
ATOM     47  O   UNL     1      88.689  80.618  83.750  1.00  0.00    -0.508 OA
ATOM     48  H   UNL     1      88.498  81.288  83.071  1.00  0.00     0.293 HD
ENDBRANCH  46  47
ENDBRANCH  40  41
ENDBRANCH  38  40
ENDBRANCH  37  38
ENDBRANCH   1  37
TORSDOF 10
ENDMDL
MODEL 7
REMARK VINA RESULT:    -6.150      9.281     12.389
REMARK INTER + INTRA:         -11.451
REMARK INTER:                 -10.436
REMARK INTRA:                  -1.015
REMARK UNBOUND:                -0.986
REMARK SMILES C=C(C)[C@]12C[C@@H](C)[C@@]34O[C@](Cc5ccccc5)(O[C@@H]1[C@@H]3C=C(COC(=O)Cc1ccc(O)cc1)C[C@]1(O)C(=O)C(C)=C[C@@H]41)O2
REMARK SMILES IDX 23 1 22 2 21 3 20 4 9 5 8 6 10 7 6 8 18 10 44 11 19 12 5 13
REMARK SMILES IDX 7 14 4 15 11 16 12 17 13 18 17 19 14 20 16 21 15 22 2 23
REMARK SMILES IDX 3 24 1 25 35 26 36 27 43 28 38 29 42 30 39 32 40 33 41 34
REMARK SMILES IDX 37 35 24 37 25 38 26 39 27 40 28 41 29 42 34 43 30 44 33 45
REMARK SMILES IDX 31 46 32 47
REMARK H PARENT 37 36 32 48
REMARK Flexibility Score: 90.00
ROOT
ATOM      1  C   UNL     1      94.197  75.712  83.719  1.00  0.00     0.264 C 
ENDROOT
BRANCH   1   2
ATOM      2  C   UNL     1      92.941  75.179  83.070  1.00  0.00    -0.033 C 
ATOM      3  C   UNL     1      92.862  75.137  81.723  1.00  0.00    -0.015 C 
BRANCH   3   4
ATOM      4  C   UNL     1      91.698  74.722  80.837  1.00  0.00     0.078 C 
ATOM      5  O   UNL     1      91.994  72.319  80.337  1.00  0.00    -0.319 OA
ATOM      6  C   UNL     1      91.110  73.273  81.003  1.00  0.00     0.095 CG0
ATOM      7  C   UNL     1      92.491  72.735  79.050  1.00  0.00     0.289 C 
ATOM      8  C   UNL     1      89.689  73.249  80.302  1.00  0.00     0.023 C 
ATOM      9  G   UNL     1      91.125  72.838  82.498  1.00  0.00     0.000 G0
ATOM     10  O   UNL     1      93.193  73.971  79.142  1.00  0.00    -0.320 OA
ATOM     11  O   UNL     1      91.442  72.957  78.110  1.00  0.00    -0.313 OA
ATOM     12  C   UNL     1      92.093  74.871  79.347  1.00  0.00     0.170 C 
ATOM     13  C   UNL     1      89.647  74.194  79.063  1.00  0.00     0.049 C 
ATOM     14  C   UNL     1      89.174  71.857  79.900  1.00  0.00     0.011 C 
ATOM     15  C   UNL     1      91.015  74.306  78.389  1.00  0.00     0.122 C 
BRANCH   7  16
ATOM     16  C   UNL     1      93.417  71.655  78.527  1.00  0.00     0.135 C 
BRANCH  16  17
ATOM     17  C   UNL     1      93.519  71.676  77.023  1.00  0.00    -0.040 A 
ATOM     18  C   UNL     1      92.727  70.821  76.258  1.00  0.00     0.004 A 
ATOM     19  C   UNL     1      94.405  72.552  76.397  1.00  0.00     0.004 A 
ATOM     20  C   UNL     1      92.821  70.841  74.866  1.00  0.00     0.000 A 
ATOM     21  C   UNL     1      94.499  72.572  75.005  1.00  0.00     0.000 A 
ATOM     22  C   UNL     1      93.707  71.717  74.240  1.00  0.00     0.000 A 
ENDBRANCH  16  17
ENDBRANCH   7  16
BRANCH  15  23
ATOM     23  C   UNL     1      90.961  75.059  77.100  1.00  0.00    -0.046 C 
ATOM     24  C   UNL     1      91.096  74.240  75.850  1.00  0.00     0.042 C 
ATOM     25  C   UNL     1      90.799  76.389  77.061  1.00  0.00     0.010 C 
ENDBRANCH  15  23
ENDBRANCH   3   4
BRANCH   2  26
ATOM     26  C   UNL     1      91.893  74.735  84.073  1.00  0.00     0.078 C 
BRANCH  26  27
ATOM     27  C   UNL     1      90.704  73.941  83.536  1.00  0.00     0.140 C 
ATOM     28  C   UNL     1      91.135  72.860  82.523  1.00  0.00     0.086 CG0
ATOM     29  C   UNL     1      90.020  73.123  84.611  1.00  0.00     0.190 C 
ATOM     30  C   UNL     1      90.370  71.643  82.962  1.00  0.00    -0.010 C 
ATOM     31  G   UNL     1      91.109  73.278  81.023  1.00  0.00     0.000 G0
ATOM     32  O   UNL     1      89.677  73.541  85.707  1.00  0.00    -0.291 OA
ATOM     33  C   UNL     1      89.756  71.749  84.145  1.00  0.00    -0.008 C 
ATOM     34  C   UNL     1      88.995  70.744  84.915  1.00  0.00     0.048 C 
BRANCH  27  35
ATOM     35  O   UNL     1      89.681  74.798  83.059  1.00  0.00    -0.381 OA
ATOM     36  H   UNL     1      89.833  74.961  82.113  1.00  0.00     0.212 HD
ENDBRANCH  27  35
ENDBRANCH  26  27
ENDBRANCH   2  26
ENDBRANCH   1   2
BRANCH   1  37
ATOM     37  O   UNL     1      93.847  76.676  84.690  1.00  0.00    -0.461 OA
BRANCH  37  38
ATOM     38  C   UNL     1      94.329  77.948  84.484  1.00  0.00     0.310 C 
ATOM     39  O   UNL     1      95.045  78.286  83.552  1.00  0.00    -0.252 OA
BRANCH  38  40
ATOM     40  C   UNL     1      93.838  78.857  85.585  1.00  0.00     0.158 C 
BRANCH  40  41
ATOM     41  C   UNL     1      92.786  79.830  85.119  1.00  0.00    -0.037 A 
ATOM     42  C   UNL     1      91.749  79.393  84.294  1.00  0.00     0.008 A 
ATOM     43  C   UNL     1      92.848  81.166  85.512  1.00  0.00     0.008 A 
ATOM     44  C   UNL     1      90.775  80.294  83.862  1.00  0.00     0.046 A 
ATOM     45  C   UNL     1      91.875  82.067  85.080  1.00  0.00     0.046 A 
ATOM     46  C   UNL     1      90.839  81.631  84.255  1.00  0.00     0.115 A 
BRANCH  46  47
ATOM     47  O   UNL     1      89.889  82.510  83.832  1.00  0.00    -0.508 OA
ATOM     48  H   UNL     1      89.553  83.005  84.600  1.00  0.00     0.293 HD
ENDBRANCH  46  47
ENDBRANCH  40  41
ENDBRANCH  38  40
ENDBRANCH  37  38
ENDBRANCH   1  37
TORSDOF 10
ENDMDL
MODEL 8
REMARK VINA RESULT:    -6.126      6.801     12.057
REMARK INTER + INTRA:         -11.411
REMARK INTER:                  -9.727
REMARK INTRA:                  -1.684
REMARK UNBOUND:                -0.986
REMARK SMILES C=C(C)[C@]12C[C@@H](C)[C@@]34O[C@](Cc5ccccc5)(O[C@@H]1[C@@H]3C=C(COC(=O)Cc1ccc(O)cc1)C[C@]1(O)C(=O)C(C)=C[C@@H]41)O2
REMARK SMILES IDX 23 1 22 2 21 3 20 4 9 5 8 6 10 7 6 8 18 10 44 11 19 12 5 13
REMARK SMILES IDX 7 14 4 15 11 16 12 17 13 18 17 19 14 20 16 21 15 22 2 23
REMARK SMILES IDX 3 24 1 25 35 26 36 27 43 28 38 29 42 30 39 32 40 33 41 34
REMARK SMILES IDX 37 35 24 37 25 38 26 39 27 40 28 41 29 42 34 43 30 44 33 45
REMARK SMILES IDX 31 46 32 47
REMARK H PARENT 37 36 32 48
REMARK Flexibility Score: 90.00
ROOT
ATOM      1  C   UNL     1     102.433  81.668  77.559  1.00  0.00     0.264 C 
ENDROOT
BRANCH   1   2
ATOM      2  C   UNL     1     102.079  80.569  78.535  1.00  0.00    -0.033 C 
ATOM      3  C   UNL     1     101.490  80.892  79.705  1.00  0.00    -0.015 C 
BRANCH   3   4
ATOM      4  C   UNL     1     101.108  79.996  80.873  1.00  0.00     0.078 C 
ATOM      5  O   UNL     1      98.758  79.312  80.518  1.00  0.00    -0.319 OA
ATOM      6  C   UNL     1     100.124  78.799  80.607  1.00  0.00     0.095 CG0
ATOM      7  C   UNL     1      98.410  80.307  81.500  1.00  0.00     0.289 C 
ATOM      8  C   UNL     1     100.231  77.807  81.838  1.00  0.00     0.023 C 
ATOM      9  G   UNL     1     100.390  78.163  79.211  1.00  0.00     0.000 G0
ATOM     10  O   UNL     1      99.289  81.426  81.438  1.00  0.00    -0.320 OA
ATOM     11  O   UNL     1      98.511  79.811  82.833  1.00  0.00    -0.313 OA
ATOM     12  C   UNL     1     100.475  80.846  82.002  1.00  0.00     0.170 C 
ATOM     13  C   UNL     1     100.516  78.573  83.166  1.00  0.00     0.049 C 
ATOM     14  C   UNL     1      99.029  76.869  82.038  1.00  0.00     0.011 C 
ATOM     15  C   UNL     1      99.909  79.976  83.151  1.00  0.00     0.122 C 
BRANCH   7  16
ATOM     16  C   UNL     1      96.986  80.756  81.236  1.00  0.00     0.135 C 
BRANCH  16  17
ATOM     17  C   UNL     1      96.425  81.562  82.382  1.00  0.00    -0.040 A 
ATOM     18  C   UNL     1      95.630  80.944  83.346  1.00  0.00     0.004 A 
ATOM     19  C   UNL     1      96.703  82.926  82.475  1.00  0.00     0.004 A 
ATOM     20  C   UNL     1      95.112  81.689  84.406  1.00  0.00     0.000 A 
ATOM     21  C   UNL     1      96.184  83.671  83.535  1.00  0.00     0.000 A 
ATOM     22  C   UNL     1      95.389  83.053  84.499  1.00  0.00     0.000 A 
ENDBRANCH  16  17
ENDBRANCH   7  16
BRANCH  15  23
ATOM     23  C   UNL     1     100.011  80.660  84.476  1.00  0.00    -0.046 C 
ATOM     24  C   UNL     1      98.715  80.953  85.171  1.00  0.00     0.042 C 
ATOM     25  C   UNL     1     101.195  80.992  85.013  1.00  0.00     0.010 C 
ENDBRANCH  15  23
ENDBRANCH   3   4
BRANCH   2  26
ATOM     26  C   UNL     1     102.447  79.186  78.034  1.00  0.00     0.078 C 
BRANCH  26  27
ATOM     27  C   UNL     1     101.889  77.992  78.806  1.00  0.00     0.140 C 
ATOM     28  C   UNL     1     100.408  78.187  79.193  1.00  0.00     0.086 CG0
ATOM     29  C   UNL     1     101.843  76.730  77.971  1.00  0.00     0.190 C 
ATOM     30  C   UNL     1      99.775  76.873  78.828  1.00  0.00    -0.010 C 
ATOM     31  G   UNL     1     100.142  78.800  80.599  1.00  0.00     0.000 G0
ATOM     32  O   UNL     1     102.765  76.294  77.297  1.00  0.00    -0.291 OA
ATOM     33  C   UNL     1     100.546  76.045  78.117  1.00  0.00    -0.008 C 
ATOM     34  C   UNL     1     100.233  74.727  77.526  1.00  0.00     0.048 C 
BRANCH  27  35
ATOM     35  O   UNL     1     102.725  77.645  79.898  1.00  0.00    -0.381 OA
ATOM     36  H   UNL     1     102.709  76.678  80.001  1.00  0.00     0.212 HD
ENDBRANCH  27  35
ENDBRANCH  26  27
ENDBRANCH   2  26
ENDBRANCH   1   2
BRANCH   1  37
ATOM     37  O   UNL     1     102.118  81.247  76.249  1.00  0.00    -0.461 OA
BRANCH  37  38
ATOM     38  C   UNL     1     101.020  81.838  75.668  1.00  0.00     0.310 C 
ATOM     39  O   UNL     1     101.056  82.811  74.927  1.00  0.00    -0.252 OA
BRANCH  38  40
ATOM     40  C   UNL     1      99.771  81.101  76.086  1.00  0.00     0.158 C 
BRANCH  40  41
ATOM     41  C   UNL     1      98.662  82.023  76.521  1.00  0.00    -0.037 A 
ATOM     42  C   UNL     1      98.248  82.037  77.853  1.00  0.00     0.008 A 
ATOM     43  C   UNL     1      98.048  82.863  75.592  1.00  0.00     0.008 A 
ATOM     44  C   UNL     1      97.221  82.891  78.256  1.00  0.00     0.046 A 
ATOM     45  C   UNL     1      97.021  83.717  75.994  1.00  0.00     0.046 A 
ATOM     46  C   UNL     1      96.607  83.731  77.325  1.00  0.00     0.115 A 
BRANCH  46  47
ATOM     47  O   UNL     1      95.604  84.563  77.718  1.00  0.00    -0.508 OA
ATOM     48  H   UNL     1      95.864  85.001  78.548  1.00  0.00     0.293 HD
ENDBRANCH  46  47
ENDBRANCH  40  41
ENDBRANCH  38  40
ENDBRANCH  37  38
ENDBRANCH   1  37
TORSDOF 10
ENDMDL
MODEL 9
REMARK VINA RESULT:    -6.117     32.124     35.954
REMARK INTER + INTRA:         -11.395
REMARK INTER:                  -8.880
REMARK INTRA:                  -2.515
REMARK UNBOUND:                -0.986
REMARK SMILES C=C(C)[C@]12C[C@@H](C)[C@@]34O[C@](Cc5ccccc5)(O[C@@H]1[C@@H]3C=C(COC(=O)Cc1ccc(O)cc1)C[C@]1(O)C(=O)C(C)=C[C@@H]41)O2
REMARK SMILES IDX 23 1 22 2 21 3 20 4 9 5 8 6 10 7 6 8 18 10 44 11 19 12 5 13
REMARK SMILES IDX 7 14 4 15 11 16 12 17 13 18 17 19 14 20 16 21 15 22 2 23
REMARK SMILES IDX 3 24 1 25 35 26 36 27 43 28 38 29 42 30 39 32 40 33 41 34
REMARK SMILES IDX 37 35 24 37 25 38 26 39 27 40 28 41 29 42 34 43 30 44 33 45
REMARK SMILES IDX 31 46 32 47
REMARK H PARENT 37 36 32 48
REMARK Flexibility Score: 90.00
ROOT
ATOM      1  C   UNL     1      64.155  88.265  67.455  1.00  0.00     0.264 C 
ENDROOT
BRANCH   1   2
ATOM      2  C   UNL     1      63.407  87.801  68.684  1.00  0.00    -0.033 C 
ATOM      3  C   UNL     1      63.684  86.587  69.204  1.00  0.00    -0.015 C 
BRANCH   3   4
ATOM      4  C   UNL     1      63.029  85.866  70.371  1.00  0.00     0.078 C 
ATOM      5  O   UNL     1      64.325  86.448  72.395  1.00  0.00    -0.319 OA
ATOM      6  C   UNL     1      63.008  86.577  71.774  1.00  0.00     0.095 CG0
ATOM      7  C   UNL     1      64.939  85.151  72.271  1.00  0.00     0.289 C 
ATOM      8  C   UNL     1      61.931  85.839  72.670  1.00  0.00     0.023 C 
ATOM      9  G   UNL     1      62.805  88.112  71.613  1.00  0.00     0.000 G0
ATOM     10  O   UNL     1      65.076  84.771  70.905  1.00  0.00    -0.320 OA
ATOM     11  O   UNL     1      64.162  84.122  72.881  1.00  0.00    -0.313 OA
ATOM     12  C   UNL     1      63.705  84.489  70.584  1.00  0.00     0.170 C 
ATOM     13  C   UNL     1      61.854  84.318  72.335  1.00  0.00     0.049 C 
ATOM     14  C   UNL     1      62.099  86.018  74.189  1.00  0.00     0.011 C 
ATOM     15  C   UNL     1      63.202  83.773  71.861  1.00  0.00     0.122 C 
BRANCH   7  16
ATOM     16  C   UNL     1      66.304  85.207  72.928  1.00  0.00     0.135 C 
BRANCH  16  17
ATOM     17  C   UNL     1      67.382  85.621  71.958  1.00  0.00    -0.040 A 
ATOM     18  C   UNL     1      67.440  86.936  71.498  1.00  0.00     0.004 A 
ATOM     19  C   UNL     1      68.322  84.687  71.522  1.00  0.00     0.004 A 
ATOM     20  C   UNL     1      68.438  87.319  70.601  1.00  0.00     0.000 A 
ATOM     21  C   UNL     1      69.320  85.070  70.624  1.00  0.00     0.000 A 
ATOM     22  C   UNL     1      69.377  86.385  70.164  1.00  0.00     0.000 A 
ENDBRANCH  16  17
ENDBRANCH   7  16
BRANCH  15  23
ATOM     23  C   UNL     1      63.199  82.287  71.708  1.00  0.00    -0.046 C 
ATOM     24  C   UNL     1      63.712  81.755  70.403  1.00  0.00     0.042 C 
ATOM     25  C   UNL     1      62.763  81.474  72.682  1.00  0.00     0.010 C 
ENDBRANCH  15  23
ENDBRANCH   3   4
BRANCH   2  26
ATOM     26  C   UNL     1      62.405  88.820  69.191  1.00  0.00     0.078 C 
BRANCH  26  27
ATOM     27  C   UNL     1      61.738  88.534  70.535  1.00  0.00     0.140 C 
ATOM     28  C   UNL     1      62.758  88.117  71.615  1.00  0.00     0.086 CG0
ATOM     29  C   UNL     1      61.107  89.768  71.144  1.00  0.00     0.190 C 
ATOM     30  C   UNL     1      62.356  88.935  72.811  1.00  0.00    -0.010 C 
ATOM     31  G   UNL     1      62.993  86.587  71.781  1.00  0.00     0.000 G0
ATOM     32  O   UNL     1      60.366  90.546  70.561  1.00  0.00    -0.291 OA
ATOM     33  C   UNL     1      61.452  89.889  72.573  1.00  0.00    -0.008 C 
ATOM     34  C   UNL     1      60.895  90.918  73.476  1.00  0.00     0.048 C 
BRANCH  27  35
ATOM     35  O   UNL     1      60.653  87.633  70.394  1.00  0.00    -0.381 OA
ATOM     36  H   UNL     1      60.969  86.843  69.924  1.00  0.00     0.212 HD
ENDBRANCH  27  35
ENDBRANCH  26  27
ENDBRANCH   2  26
ENDBRANCH   1   2
BRANCH   1  37
ATOM     37  O   UNL     1      65.543  88.207  67.704  1.00  0.00    -0.461 OA
BRANCH  37  38
ATOM     38  C   UNL     1      66.352  88.051  66.602  1.00  0.00     0.310 C 
ATOM     39  O   UNL     1      66.324  88.756  65.604  1.00  0.00    -0.252 OA
BRANCH  38  40
ATOM     40  C   UNL     1      67.276  86.876  66.818  1.00  0.00     0.158 C 
BRANCH  40  41
ATOM     41  C   UNL     1      66.548  85.558  66.873  1.00  0.00    -0.037 A 
ATOM     42  C   UNL     1      66.747  84.696  67.952  1.00  0.00     0.008 A 
ATOM     43  C   UNL     1      65.675  85.199  65.846  1.00  0.00     0.008 A 
ATOM     44  C   UNL     1      66.074  83.475  68.002  1.00  0.00     0.046 A 
ATOM     45  C   UNL     1      65.001  83.979  65.897  1.00  0.00     0.046 A 
ATOM     46  C   UNL     1      65.201  83.116  66.974  1.00  0.00     0.115 A 
BRANCH  46  47
ATOM     47  O   UNL     1      64.544  81.925  67.023  1.00  0.00    -0.508 OA
ATOM     48  H   UNL     1      63.682  82.022  66.583  1.00  0.00     0.293 HD
ENDBRANCH  46  47
ENDBRANCH  40  41
ENDBRANCH  38  40
ENDBRANCH  37  38
ENDBRANCH   1  37
TORSDOF 10
ENDMDL
MODEL 10
REMARK VINA RESULT:    -5.824      4.481      9.460
REMARK INTER + INTRA:         -10.896
REMARK INTER:                 -10.027
REMARK INTRA:                  -0.869
REMARK UNBOUND:                -0.986
REMARK SMILES C=C(C)[C@]12C[C@@H](C)[C@@]34O[C@](Cc5ccccc5)(O[C@@H]1[C@@H]3C=C(COC(=O)Cc1ccc(O)cc1)C[C@]1(O)C(=O)C(C)=C[C@@H]41)O2
REMARK SMILES IDX 23 1 22 2 21 3 20 4 9 5 8 6 10 7 6 8 18 10 44 11 19 12 5 13
REMARK SMILES IDX 7 14 4 15 11 16 12 17 13 18 17 19 14 20 16 21 15 22 2 23
REMARK SMILES IDX 3 24 1 25 35 26 36 27 43 28 38 29 42 30 39 32 40 33 41 34
REMARK SMILES IDX 37 35 24 37 25 38 26 39 27 40 28 41 29 42 34 43 30 44 33 45
REMARK SMILES IDX 31 46 32 47
REMARK H PARENT 37 36 32 48
REMARK Flexibility Score: 90.00
ROOT
ATOM      1  C   UNL     1      96.504  76.922  82.584  1.00  0.00     0.264 C 
ENDROOT
BRANCH   1   2
ATOM      2  C   UNL     1      97.055  78.018  83.466  1.00  0.00    -0.033 C 
ATOM      3  C   UNL     1      96.447  79.222  83.480  1.00  0.00    -0.015 C 
BRANCH   3   4
ATOM      4  C   UNL     1      96.843  80.495  84.211  1.00  0.00     0.078 C 
ATOM      5  O   UNL     1      95.652  80.481  86.379  1.00  0.00    -0.319 OA
ATOM      6  C   UNL     1      96.984  80.446  85.777  1.00  0.00     0.095 CG0
ATOM      7  C   UNL     1      94.732  81.415  85.783  1.00  0.00     0.289 C 
ATOM      8  C   UNL     1      97.795  81.730  86.226  1.00  0.00     0.023 C 
ATOM      9  G   UNL     1      97.581  79.084  86.236  1.00  0.00     0.000 G0
ATOM     10  O   UNL     1      94.562  81.158  84.392  1.00  0.00    -0.320 OA
ATOM     11  O   UNL     1      95.192  82.762  85.873  1.00  0.00    -0.313 OA
ATOM     12  C   UNL     1      95.828  81.621  83.894  1.00  0.00     0.170 C 
ATOM     13  C   UNL     1      97.495  82.949  85.302  1.00  0.00     0.049 C 
ATOM     14  C   UNL     1      97.613  82.148  87.696  1.00  0.00     0.011 C 
ATOM     15  C   UNL     1      96.074  82.896  84.738  1.00  0.00     0.122 C 
BRANCH   7  16
ATOM     16  C   UNL     1      93.400  81.289  86.495  1.00  0.00     0.135 C 
BRANCH  16  17
ATOM     17  C   UNL     1      92.293  80.878  85.556  1.00  0.00    -0.040 A 
ATOM     18  C   UNL     1      91.473  81.847  84.978  1.00  0.00     0.004 A 
ATOM     19  C   UNL     1      92.091  79.529  85.265  1.00  0.00     0.004 A 
ATOM     20  C   UNL     1      90.449  81.467  84.110  1.00  0.00     0.000 A 
ATOM     21  C   UNL     1      91.067  79.149  84.396  1.00  0.00     0.000 A 
ATOM     22  C   UNL     1      90.247  80.118  83.819  1.00  0.00     0.000 A 
ENDBRANCH  16  17
ENDBRANCH   7  16
BRANCH  15  23
ATOM     23  C   UNL     1      95.702  84.139  83.999  1.00  0.00    -0.046 C 
ATOM     24  C   UNL     1      95.844  84.089  82.506  1.00  0.00     0.042 C 
ATOM     25  C   UNL     1      95.267  85.238  84.632  1.00  0.00     0.010 C 
ENDBRANCH  15  23
ENDBRANCH   3   4
BRANCH   2  26
ATOM     26  C   UNL     1      98.274  77.587  84.260  1.00  0.00     0.078 C 
BRANCH  26  27
ATOM     27  C   UNL     1      98.758  78.527  85.362  1.00  0.00     0.140 C 
ATOM     28  C   UNL     1      97.596  79.067  86.221  1.00  0.00     0.086 CG0
ATOM     29  C   UNL     1      99.620  77.823  86.388  1.00  0.00     0.190 C 
ATOM     30  C   UNL     1      98.095  78.903  87.629  1.00  0.00    -0.010 C 
ATOM     31  G   UNL     1      96.993  80.432  85.778  1.00  0.00     0.000 G0
ATOM     32  O   UNL     1     100.563  77.087  86.136  1.00  0.00    -0.291 OA
ATOM     33  C   UNL     1      99.215  78.185  87.759  1.00  0.00    -0.008 C 
ATOM     34  C   UNL     1      99.936  77.759  88.977  1.00  0.00     0.048 C 
BRANCH  27  35
ATOM     35  O   UNL     1      99.606  79.539  84.845  1.00  0.00    -0.381 OA
ATOM     36  H   UNL     1      99.419  79.641  83.896  1.00  0.00     0.212 HD
ENDBRANCH  27  35
ENDBRANCH  26  27
ENDBRANCH   2  26
ENDBRANCH   1   2
BRANCH   1  37
ATOM     37  O   UNL     1      95.941  75.911  83.392  1.00  0.00    -0.461 OA
BRANCH  37  38
ATOM     38  C   UNL     1      94.888  76.289  84.193  1.00  0.00     0.310 C 
ATOM     39  O   UNL     1      94.935  76.401  85.409  1.00  0.00    -0.252 OA
BRANCH  38  40
ATOM     40  C   UNL     1      93.670  76.540  83.336  1.00  0.00     0.158 C 
BRANCH  40  41
ATOM     41  C   UNL     1      92.541  75.586  83.625  1.00  0.00    -0.037 A 
ATOM     42  C   UNL     1      91.350  75.675  82.903  1.00  0.00     0.008 A 
ATOM     43  C   UNL     1      92.685  74.613  84.613  1.00  0.00     0.008 A 
ATOM     44  C   UNL     1      90.304  74.792  83.171  1.00  0.00     0.046 A 
ATOM     45  C   UNL     1      91.639  73.729  84.881  1.00  0.00     0.046 A 
ATOM     46  C   UNL     1      90.449  73.818  84.161  1.00  0.00     0.115 A 
BRANCH  46  47
ATOM     47  O   UNL     1      89.428  72.957  84.422  1.00  0.00    -0.508 OA
ATOM     48  H   UNL     1      88.583  73.409  84.254  1.00  0.00     0.293 HD
ENDBRANCH  46  47
ENDBRANCH  40  41
ENDBRANCH  38  40
ENDBRANCH  37  38
ENDBRANCH   1  37
TORSDOF 10
ENDMDL
