MODEL 1
REMARK VINA RESULT:    -6.426      0.000      0.000
REMARK INTER + INTRA:         -10.906
REMARK INTER:                  -9.994
REMARK INTRA:                  -0.911
REMARK UNBOUND:                -0.911
REMARK SMILES COc1cc(CNC(=O)CCCC/C=C/C(C)C)ccc1O
REMARK SMILES IDX 10 1 8 2 7 3 9 5 6 6 5 7 3 8 21 9 4 10 20 11 19 12 2 13 1 14
REMARK SMILES IDX 22 15 11 17 12 18 13 19 14 20 15 21 16 22 17 23 18 24
REMARK H PARENT 7 4 22 16
REMARK Flexibility Score: inf
ROOT
ATOM      1  C   UNL     1      92.616  93.614  75.306  1.00  0.00     0.100 C 
ENDROOT
BRANCH   1   2
ATOM      2  C   UNL     1      93.752  94.504  75.613  1.00  0.00     0.220 C 
ATOM      3  N   UNL     1      94.734  94.102  76.468  1.00  0.00    -0.352 N 
ATOM      4  H   UNL     1      94.600  93.185  76.871  1.00  0.00     0.163 HD
ATOM      5  O   UNL     1      93.797  95.624  75.049  1.00  0.00    -0.275 OA
BRANCH   3   6
ATOM      6  C   UNL     1      95.888  94.873  76.805  1.00  0.00     0.151 C 
BRANCH   6   7
ATOM      7  C   UNL     1      96.136  94.872  78.272  1.00  0.00    -0.025 A 
ATOM      8  C   UNL     1      97.358  95.743  80.225  1.00  0.00     0.160 A 
ATOM      9  C   UNL     1      96.608  94.899  81.071  1.00  0.00     0.157 A 
ATOM     10  C   UNL     1      97.117  95.720  78.835  1.00  0.00     0.056 A 
ATOM     11  C   UNL     1      95.641  94.034  80.522  1.00  0.00     0.050 A 
ATOM     12  C   UNL     1      95.399  94.027  79.134  1.00  0.00     0.009 A 
BRANCH   8  13
ATOM     13  O   UNL     1      98.346  96.538  80.747  1.00  0.00    -0.493 OA
ATOM     14  C   UNL     1      98.230  97.928  80.391  1.00  0.00     0.278 C 
ENDBRANCH   8  13
BRANCH   9  15
ATOM     15  O   UNL     1      96.806  94.906  82.414  1.00  0.00    -0.504 OA
ATOM     16  H   UNL     1      97.141  95.764  82.685  1.00  0.00     0.293 HD
ENDBRANCH   9  15
ENDBRANCH   6   7
ENDBRANCH   3   6
ENDBRANCH   1   2
BRANCH   1  17
ATOM     17  C   UNL     1      91.428  93.847  76.278  1.00  0.00     0.010 C 
BRANCH  17  18
ATOM     18  C   UNL     1      91.394  92.824  77.448  1.00  0.00     0.005 C 
BRANCH  18  19
ATOM     19  C   UNL     1      89.999  92.164  77.616  1.00  0.00     0.027 C 
BRANCH  19  20
ATOM     20  C   UNL     1      89.805  91.053  76.696  1.00  0.00    -0.031 C 
ATOM     21  C   UNL     1      90.800  90.277  76.226  1.00  0.00    -0.028 C 
BRANCH  21  22
ATOM     22  C   UNL     1      90.580  89.153  75.318  1.00  0.00     0.005 C 
ATOM     23  C   UNL     1      90.889  87.785  75.987  1.00  0.00     0.012 C 
ATOM     24  C   UNL     1      89.130  89.184  74.768  1.00  0.00     0.012 C 
ENDBRANCH  21  22
ENDBRANCH  19  20
ENDBRANCH  18  19
ENDBRANCH  17  18
ENDBRANCH   1  17
TORSDOF 10
ENDMDL
MODEL 2
REMARK VINA RESULT:    -6.333      1.197      2.328
REMARK INTER + INTRA:         -10.762
REMARK INTER:                  -9.910
REMARK INTRA:                  -0.853
REMARK UNBOUND:                -0.911
REMARK SMILES COc1cc(CNC(=O)CCCC/C=C/C(C)C)ccc1O
REMARK SMILES IDX 10 1 8 2 7 3 9 5 6 6 5 7 3 8 21 9 4 10 20 11 19 12 2 13 1 14
REMARK SMILES IDX 22 15 11 17 12 18 13 19 14 20 15 21 16 22 17 23 18 24
REMARK H PARENT 7 4 22 16
REMARK Flexibility Score: inf
ROOT
ATOM      1  C   UNL     1      92.510  92.803  75.169  1.00  0.00     0.100 C 
ENDROOT
BRANCH   1   2
ATOM      2  C   UNL     1      93.498  93.894  75.066  1.00  0.00     0.220 C 
ATOM      3  N   UNL     1      94.827  93.641  75.227  1.00  0.00    -0.352 N 
ATOM      4  H   UNL     1      95.056  92.679  75.438  1.00  0.00     0.163 HD
ATOM      5  O   UNL     1      93.081  95.048  74.805  1.00  0.00    -0.275 OA
BRANCH   3   6
ATOM      6  C   UNL     1      95.863  94.618  75.116  1.00  0.00     0.151 C 
BRANCH   6   7
ATOM      7  C   UNL     1      96.328  95.076  76.453  1.00  0.00    -0.025 A 
ATOM      8  C   UNL     1      96.009  95.196  78.892  1.00  0.00     0.160 A 
ATOM      9  C   UNL     1      97.209  95.926  79.014  1.00  0.00     0.157 A 
ATOM     10  C   UNL     1      95.579  94.780  77.614  1.00  0.00     0.056 A 
ATOM     11  C   UNL     1      97.957  96.245  77.863  1.00  0.00     0.050 A 
ATOM     12  C   UNL     1      97.526  95.815  76.593  1.00  0.00     0.009 A 
BRANCH   8  13
ATOM     13  O   UNL     1      95.244  94.940  80.001  1.00  0.00    -0.493 OA
ATOM     14  C   UNL     1      95.566  93.703  80.663  1.00  0.00     0.278 C 
ENDBRANCH   8  13
BRANCH   9  15
ATOM     15  O   UNL     1      97.659  96.329  80.230  1.00  0.00    -0.504 OA
ATOM     16  H   UNL     1      97.687  97.288  80.259  1.00  0.00     0.293 HD
ENDBRANCH   9  15
ENDBRANCH   6   7
ENDBRANCH   3   6
ENDBRANCH   1   2
BRANCH   1  17
ATOM     17  C   UNL     1      91.310  93.201  76.069  1.00  0.00     0.010 C 
BRANCH  17  18
ATOM     18  C   UNL     1      91.448  92.679  77.527  1.00  0.00     0.005 C 
BRANCH  18  19
ATOM     19  C   UNL     1      90.228  91.826  77.968  1.00  0.00     0.027 C 
BRANCH  19  20
ATOM     20  C   UNL     1      89.664  91.066  76.863  1.00  0.00    -0.031 C 
ATOM     21  C   UNL     1      90.137  89.878  76.443  1.00  0.00    -0.028 C 
BRANCH  21  22
ATOM     22  C   UNL     1      89.542  89.122  75.342  1.00  0.00     0.005 C 
ATOM     23  C   UNL     1      88.848  90.043  74.301  1.00  0.00     0.012 C 
ATOM     24  C   UNL     1      90.614  88.230  74.663  1.00  0.00     0.012 C 
ENDBRANCH  21  22
ENDBRANCH  19  20
ENDBRANCH  18  19
ENDBRANCH  17  18
ENDBRANCH   1  17
TORSDOF 10
ENDMDL
MODEL 3
REMARK VINA RESULT:    -6.141     22.661     26.760
REMARK INTER + INTRA:         -10.463
REMARK INTER:                  -9.807
REMARK INTRA:                  -0.656
REMARK UNBOUND:                -0.911
REMARK SMILES COc1cc(CNC(=O)CCCC/C=C/C(C)C)ccc1O
REMARK SMILES IDX 10 1 8 2 7 3 9 5 6 6 5 7 3 8 21 9 4 10 20 11 19 12 2 13 1 14
REMARK SMILES IDX 22 15 11 17 12 18 13 19 14 20 15 21 16 22 17 23 18 24
REMARK H PARENT 7 4 22 16
REMARK Flexibility Score: inf
ROOT
ATOM      1  C   UNL     1      83.572  70.044  71.434  1.00  0.00     0.100 C 
ENDROOT
BRANCH   1   2
ATOM      2  C   UNL     1      85.046  69.976  71.403  1.00  0.00     0.220 C 
ATOM      3  N   UNL     1      85.719  70.110  70.226  1.00  0.00    -0.352 N 
ATOM      4  H   UNL     1      85.134  70.230  69.411  1.00  0.00     0.163 HD
ATOM      5  O   UNL     1      85.655  69.816  72.488  1.00  0.00    -0.275 OA
BRANCH   3   6
ATOM      6  C   UNL     1      87.141  70.092  70.092  1.00  0.00     0.151 C 
BRANCH   6   7
ATOM      7  C   UNL     1      87.617  71.154  69.165  1.00  0.00    -0.025 A 
ATOM      8  C   UNL     1      89.288  72.856  68.556  1.00  0.00     0.160 A 
ATOM      9  C   UNL     1      88.549  73.168  67.396  1.00  0.00     0.157 A 
ATOM     10  C   UNL     1      88.815  71.855  69.429  1.00  0.00     0.056 A 
ATOM     11  C   UNL     1      87.343  72.492  67.129  1.00  0.00     0.050 A 
ATOM     12  C   UNL     1      86.884  71.485  68.001  1.00  0.00     0.009 A 
BRANCH   8  13
ATOM     13  O   UNL     1      90.429  73.557  68.854  1.00  0.00    -0.493 OA
ATOM     14  C   UNL     1      91.055  73.162  70.089  1.00  0.00     0.278 C 
ENDBRANCH   8  13
BRANCH   9  15
ATOM     15  O   UNL     1      88.984  74.118  66.528  1.00  0.00    -0.504 OA
ATOM     16  H   UNL     1      88.687  74.982  66.822  1.00  0.00     0.293 HD
ENDBRANCH   9  15
ENDBRANCH   6   7
ENDBRANCH   3   6
ENDBRANCH   1   2
BRANCH   1  17
ATOM     17  C   UNL     1      82.948  68.712  71.930  1.00  0.00     0.010 C 
BRANCH  17  18
ATOM     18  C   UNL     1      82.606  67.735  70.770  1.00  0.00     0.005 C 
BRANCH  18  19
ATOM     19  C   UNL     1      81.157  67.188  70.867  1.00  0.00     0.027 C 
BRANCH  19  20
ATOM     20  C   UNL     1      80.835  66.725  72.208  1.00  0.00    -0.031 C 
ATOM     21  C   UNL     1      80.251  65.544  72.481  1.00  0.00    -0.028 C 
BRANCH  21  22
ATOM     22  C   UNL     1      79.954  65.091  73.840  1.00  0.00     0.005 C 
ATOM     23  C   UNL     1      79.904  63.542  73.946  1.00  0.00     0.012 C 
ATOM     24  C   UNL     1      80.983  65.681  74.839  1.00  0.00     0.012 C 
ENDBRANCH  21  22
ENDBRANCH  19  20
ENDBRANCH  18  19
ENDBRANCH  17  18
ENDBRANCH   1  17
TORSDOF 10
ENDMDL
MODEL 4
REMARK VINA RESULT:    -5.816     27.896     30.157
REMARK INTER + INTRA:          -9.958
REMARK INTER:                  -9.052
REMARK INTRA:                  -0.906
REMARK UNBOUND:                -0.911
REMARK SMILES COc1cc(CNC(=O)CCCC/C=C/C(C)C)ccc1O
REMARK SMILES IDX 10 1 8 2 7 3 9 5 6 6 5 7 3 8 21 9 4 10 20 11 19 12 2 13 1 14
REMARK SMILES IDX 22 15 11 17 12 18 13 19 14 20 15 21 16 22 17 23 18 24
REMARK H PARENT 7 4 22 16
REMARK Flexibility Score: inf
ROOT
ATOM      1  C   UNL     1      82.239  64.694  75.994  1.00  0.00     0.100 C 
ENDROOT
BRANCH   1   2
ATOM      2  C   UNL     1      83.601  64.395  76.476  1.00  0.00     0.220 C 
ATOM      3  N   UNL     1      83.793  63.530  77.511  1.00  0.00    -0.352 N 
ATOM      4  H   UNL     1      82.947  63.150  77.913  1.00  0.00     0.163 HD
ATOM      5  O   UNL     1      84.569  64.939  75.892  1.00  0.00    -0.275 OA
BRANCH   3   6
ATOM      6  C   UNL     1      85.068  63.149  78.030  1.00  0.00     0.151 C 
BRANCH   6   7
ATOM      7  C   UNL     1      85.409  63.917  79.259  1.00  0.00    -0.025 A 
ATOM      8  C   UNL     1      86.444  65.882  80.322  1.00  0.00     0.160 A 
ATOM      9  C   UNL     1      86.050  65.404  81.589  1.00  0.00     0.157 A 
ATOM     10  C   UNL     1      86.122  65.134  79.170  1.00  0.00     0.056 A 
ATOM     11  C   UNL     1      85.356  64.183  81.695  1.00  0.00     0.050 A 
ATOM     12  C   UNL     1      85.028  63.449  80.538  1.00  0.00     0.009 A 
BRANCH   8  13
ATOM     13  O   UNL     1      87.177  67.036  80.220  1.00  0.00    -0.493 OA
ATOM     14  C   UNL     1      88.583  66.821  79.999  1.00  0.00     0.278 C 
ENDBRANCH   8  13
BRANCH   9  15
ATOM     15  O   UNL     1      86.333  66.106  82.717  1.00  0.00    -0.504 OA
ATOM     16  H   UNL     1      85.611  66.710  82.908  1.00  0.00     0.293 HD
ENDBRANCH   9  15
ENDBRANCH   6   7
ENDBRANCH   3   6
ENDBRANCH   1   2
BRANCH   1  17
ATOM     17  C   UNL     1      81.986  64.098  74.583  1.00  0.00     0.010 C 
BRANCH  17  18
ATOM     18  C   UNL     1      80.476  63.913  74.265  1.00  0.00     0.005 C 
BRANCH  18  19
ATOM     19  C   UNL     1      79.992  64.852  73.127  1.00  0.00     0.027 C 
BRANCH  19  20
ATOM     20  C   UNL     1      81.006  65.825  72.753  1.00  0.00    -0.031 C 
ATOM     21  C   UNL     1      80.820  67.158  72.774  1.00  0.00    -0.028 C 
BRANCH  21  22
ATOM     22  C   UNL     1      81.861  68.119  72.412  1.00  0.00     0.005 C 
ATOM     23  C   UNL     1      83.207  67.830  73.132  1.00  0.00     0.012 C 
ATOM     24  C   UNL     1      82.052  68.149  70.873  1.00  0.00     0.012 C 
ENDBRANCH  21  22
ENDBRANCH  19  20
ENDBRANCH  18  19
ENDBRANCH  17  18
ENDBRANCH   1  17
TORSDOF 10
ENDMDL
MODEL 5
REMARK VINA RESULT:    -5.808      3.449      8.355
REMARK INTER + INTRA:          -9.945
REMARK INTER:                  -9.506
REMARK INTRA:                  -0.439
REMARK UNBOUND:                -0.911
REMARK SMILES COc1cc(CNC(=O)CCCC/C=C/C(C)C)ccc1O
REMARK SMILES IDX 10 1 8 2 7 3 9 5 6 6 5 7 3 8 21 9 4 10 20 11 19 12 2 13 1 14
REMARK SMILES IDX 22 15 11 17 12 18 13 19 14 20 15 21 16 22 17 23 18 24
REMARK H PARENT 7 4 22 16
REMARK Flexibility Score: inf
ROOT
ATOM      1  C   UNL     1      92.693  93.104  74.487  1.00  0.00     0.100 C 
ENDROOT
BRANCH   1   2
ATOM      2  C   UNL     1      91.503  92.560  75.169  1.00  0.00     0.220 C 
ATOM      3  N   UNL     1      90.557  91.875  74.466  1.00  0.00    -0.352 N 
ATOM      4  H   UNL     1      90.732  91.803  73.474  1.00  0.00     0.163 HD
ATOM      5  O   UNL     1      91.402  92.726  76.408  1.00  0.00    -0.275 OA
BRANCH   3   6
ATOM      6  C   UNL     1      89.388  91.283  75.035  1.00  0.00     0.151 C 
BRANCH   6   7
ATOM      7  C   UNL     1      89.735  90.179  75.971  1.00  0.00    -0.025 A 
ATOM      8  C   UNL     1      89.733  89.236  78.245  1.00  0.00     0.160 A 
ATOM      9  C   UNL     1      90.372  88.074  77.765  1.00  0.00     0.157 A 
ATOM     10  C   UNL     1      89.423  90.277  77.345  1.00  0.00     0.056 A 
ATOM     11  C   UNL     1      90.707  87.970  76.400  1.00  0.00     0.050 A 
ATOM     12  C   UNL     1      90.383  89.010  75.507  1.00  0.00     0.009 A 
BRANCH   8  13
ATOM     13  O   UNL     1      89.464  89.369  79.584  1.00  0.00    -0.493 OA
ATOM     14  C   UNL     1      90.413  90.185  80.294  1.00  0.00     0.278 C 
ENDBRANCH   8  13
BRANCH   9  15
ATOM     15  O   UNL     1      90.672  87.048  78.602  1.00  0.00    -0.504 OA
ATOM     16  H   UNL     1      89.861  86.647  78.923  1.00  0.00     0.293 HD
ENDBRANCH   9  15
ENDBRANCH   6   7
ENDBRANCH   3   6
ENDBRANCH   1   2
BRANCH   1  17
ATOM     17  C   UNL     1      92.983  94.566  74.922  1.00  0.00     0.010 C 
BRANCH  17  18
ATOM     18  C   UNL     1      94.067  94.662  76.033  1.00  0.00     0.005 C 
BRANCH  18  19
ATOM     19  C   UNL     1      95.418  94.033  75.596  1.00  0.00     0.027 C 
BRANCH  19  20
ATOM     20  C   UNL     1      96.558  94.725  76.178  1.00  0.00    -0.031 C 
ATOM     21  C   UNL     1      96.459  95.729  77.069  1.00  0.00    -0.028 C 
BRANCH  21  22
ATOM     22  C   UNL     1      97.619  96.398  77.656  1.00  0.00     0.005 C 
ATOM     23  C   UNL     1      97.728  96.154  79.187  1.00  0.00     0.012 C 
ATOM     24  C   UNL     1      98.917  95.954  76.931  1.00  0.00     0.012 C 
ENDBRANCH  21  22
ENDBRANCH  19  20
ENDBRANCH  18  19
ENDBRANCH  17  18
ENDBRANCH   1  17
TORSDOF 10
ENDMDL
MODEL 6
REMARK VINA RESULT:    -5.774     32.114     33.696
REMARK INTER + INTRA:          -9.892
REMARK INTER:                  -8.607
REMARK INTRA:                  -1.285
REMARK UNBOUND:                -0.911
REMARK SMILES COc1cc(CNC(=O)CCCC/C=C/C(C)C)ccc1O
REMARK SMILES IDX 10 1 8 2 7 3 9 5 6 6 5 7 3 8 21 9 4 10 20 11 19 12 2 13 1 14
REMARK SMILES IDX 22 15 11 17 12 18 13 19 14 20 15 21 16 22 17 23 18 24
REMARK H PARENT 7 4 22 16
REMARK Flexibility Score: inf
ROOT
ATOM      1  C   UNL     1      61.860  83.493  68.197  1.00  0.00     0.100 C 
ENDROOT
BRANCH   1   2
ATOM      2  C   UNL     1      61.712  84.693  69.042  1.00  0.00     0.220 C 
ATOM      3  N   UNL     1      61.089  84.615  70.252  1.00  0.00    -0.352 N 
ATOM      4  H   UNL     1      60.733  83.700  70.490  1.00  0.00     0.163 HD
ATOM      5  O   UNL     1      62.195  85.774  68.626  1.00  0.00    -0.275 OA
BRANCH   3   6
ATOM      6  C   UNL     1      60.923  85.708  71.156  1.00  0.00     0.151 C 
BRANCH   6   7
ATOM      7  C   UNL     1      61.593  85.446  72.459  1.00  0.00    -0.025 A 
ATOM      8  C   UNL     1      61.455  85.120  74.895  1.00  0.00     0.160 A 
ATOM      9  C   UNL     1      62.851  84.927  74.949  1.00  0.00     0.157 A 
ATOM     10  C   UNL     1      60.840  85.379  73.653  1.00  0.00     0.056 A 
ATOM     11  C   UNL     1      63.617  85.011  73.770  1.00  0.00     0.050 A 
ATOM     12  C   UNL     1      62.993  85.258  72.532  1.00  0.00     0.009 A 
BRANCH   8  13
ATOM     13  O   UNL     1      60.713  85.105  76.049  1.00  0.00    -0.493 OA
ATOM     14  C   UNL     1      60.321  86.411  76.511  1.00  0.00     0.278 C 
ENDBRANCH   8  13
BRANCH   9  15
ATOM     15  O   UNL     1      63.472  84.663  76.128  1.00  0.00    -0.504 OA
ATOM     16  H   UNL     1      64.385  84.418  75.961  1.00  0.00     0.293 HD
ENDBRANCH   9  15
ENDBRANCH   6   7
ENDBRANCH   3   6
ENDBRANCH   1   2
BRANCH   1  17
ATOM     17  C   UNL     1      63.031  82.594  68.679  1.00  0.00     0.010 C 
BRANCH  17  18
ATOM     18  C   UNL     1      62.559  81.418  69.579  1.00  0.00     0.005 C 
BRANCH  18  19
ATOM     19  C   UNL     1      62.340  81.853  71.053  1.00  0.00     0.027 C 
BRANCH  19  20
ATOM     20  C   UNL     1      63.330  81.273  71.948  1.00  0.00    -0.031 C 
ATOM     21  C   UNL     1      63.116  81.024  73.253  1.00  0.00    -0.028 C 
BRANCH  21  22
ATOM     22  C   UNL     1      64.121  80.422  74.130  1.00  0.00     0.005 C 
ATOM     23  C   UNL     1      65.419  80.042  73.365  1.00  0.00     0.012 C 
ATOM     24  C   UNL     1      64.435  81.371  75.315  1.00  0.00     0.012 C 
ENDBRANCH  21  22
ENDBRANCH  19  20
ENDBRANCH  18  19
ENDBRANCH  17  18
ENDBRANCH   1  17
TORSDOF 10
ENDMDL
MODEL 7
REMARK VINA RESULT:    -5.657     13.643     16.703
REMARK INTER + INTRA:          -9.711
REMARK INTER:                  -7.777
REMARK INTRA:                  -1.934
REMARK UNBOUND:                -0.911
REMARK SMILES COc1cc(CNC(=O)CCCC/C=C/C(C)C)ccc1O
REMARK SMILES IDX 10 1 8 2 7 3 9 5 6 6 5 7 3 8 21 9 4 10 20 11 19 12 2 13 1 14
REMARK SMILES IDX 22 15 11 17 12 18 13 19 14 20 15 21 16 22 17 23 18 24
REMARK H PARENT 7 4 22 16
REMARK Flexibility Score: inf
ROOT
ATOM      1  C   UNL     1      83.690  92.268  90.896  1.00  0.00     0.100 C 
ENDROOT
BRANCH   1   2
ATOM      2  C   UNL     1      83.266  90.877  90.646  1.00  0.00     0.220 C 
ATOM      3  N   UNL     1      82.223  90.612  89.810  1.00  0.00    -0.352 N 
ATOM      4  H   UNL     1      81.774  91.427  89.416  1.00  0.00     0.163 HD
ATOM      5  O   UNL     1      83.906  89.953  91.204  1.00  0.00    -0.275 OA
BRANCH   3   6
ATOM      6  C   UNL     1      81.756  89.304  89.478  1.00  0.00     0.151 C 
BRANCH   6   7
ATOM      7  C   UNL     1      81.580  89.143  88.009  1.00  0.00    -0.025 A 
ATOM      8  C   UNL     1      81.899  87.816  85.959  1.00  0.00     0.160 A 
ATOM      9  C   UNL     1      81.236  88.810  85.211  1.00  0.00     0.157 A 
ATOM     10  C   UNL     1      82.067  87.992  87.349  1.00  0.00     0.056 A 
ATOM     11  C   UNL     1      80.763  89.972  85.852  1.00  0.00     0.050 A 
ATOM     12  C   UNL     1      80.924  90.134  87.242  1.00  0.00     0.009 A 
BRANCH   8  13
ATOM     13  O   UNL     1      82.419  86.714  85.329  1.00  0.00    -0.493 OA
ATOM     14  C   UNL     1      82.482  85.539  86.159  1.00  0.00     0.278 C 
ENDBRANCH   8  13
BRANCH   9  15
ATOM     15  O   UNL     1      81.046  88.666  83.874  1.00  0.00    -0.504 OA
ATOM     16  H   UNL     1      81.705  89.178  83.400  1.00  0.00     0.293 HD
ENDBRANCH   9  15
ENDBRANCH   6   7
ENDBRANCH   3   6
ENDBRANCH   1   2
BRANCH   1  17
ATOM     17  C   UNL     1      82.730  93.288  90.227  1.00  0.00     0.010 C 
BRANCH  17  18
ATOM     18  C   UNL     1      83.467  94.287  89.290  1.00  0.00     0.005 C 
BRANCH  18  19
ATOM     19  C   UNL     1      83.188  94.005  87.789  1.00  0.00     0.027 C 
BRANCH  19  20
ATOM     20  C   UNL     1      83.725  92.720  87.365  1.00  0.00    -0.031 C 
ATOM     21  C   UNL     1      84.404  92.526  86.220  1.00  0.00    -0.028 C 
BRANCH  21  22
ATOM     22  C   UNL     1      84.953  91.229  85.823  1.00  0.00     0.005 C 
ATOM     23  C   UNL     1      84.885  90.185  86.971  1.00  0.00     0.012 C 
ATOM     24  C   UNL     1      84.228  90.706  84.556  1.00  0.00     0.012 C 
ENDBRANCH  21  22
ENDBRANCH  19  20
ENDBRANCH  18  19
ENDBRANCH  17  18
ENDBRANCH   1  17
TORSDOF 10
ENDMDL
MODEL 8
REMARK VINA RESULT:    -5.654     18.504     20.593
REMARK INTER + INTRA:          -9.705
REMARK INTER:                  -9.024
REMARK INTRA:                  -0.681
REMARK UNBOUND:                -0.911
REMARK SMILES COc1cc(CNC(=O)CCCC/C=C/C(C)C)ccc1O
REMARK SMILES IDX 10 1 8 2 7 3 9 5 6 6 5 7 3 8 21 9 4 10 20 11 19 12 2 13 1 14
REMARK SMILES IDX 22 15 11 17 12 18 13 19 14 20 15 21 16 22 17 23 18 24
REMARK H PARENT 7 4 22 16
REMARK Flexibility Score: inf
ROOT
ATOM      1  C   UNL     1      76.209  89.931  64.220  1.00  0.00     0.100 C 
ENDROOT
BRANCH   1   2
ATOM      2  C   UNL     1      76.049  91.394  64.109  1.00  0.00     0.220 C 
ATOM      3  N   UNL     1      77.098  92.225  64.365  1.00  0.00    -0.352 N 
ATOM      4  H   UNL     1      77.950  91.762  64.649  1.00  0.00     0.163 HD
ATOM      5  O   UNL     1      74.933  91.842  63.752  1.00  0.00    -0.275 OA
BRANCH   3   6
ATOM      6  C   UNL     1      77.055  93.649  64.255  1.00  0.00     0.151 C 
BRANCH   6   7
ATOM      7  C   UNL     1      77.867  94.303  65.318  1.00  0.00    -0.025 A 
ATOM      8  C   UNL     1      78.125  95.025  67.657  1.00  0.00     0.160 A 
ATOM      9  C   UNL     1      79.408  95.530  67.360  1.00  0.00     0.157 A 
ATOM     10  C   UNL     1      77.367  94.419  66.634  1.00  0.00     0.056 A 
ATOM     11  C   UNL     1      79.912  95.439  66.048  1.00  0.00     0.050 A 
ATOM     12  C   UNL     1      79.152  94.821  65.036  1.00  0.00     0.009 A 
BRANCH   8  13
ATOM     13  O   UNL     1      77.604  95.171  68.918  1.00  0.00    -0.493 OA
ATOM     14  C   UNL     1      76.331  94.525  69.104  1.00  0.00     0.278 C 
ENDBRANCH   8  13
BRANCH   9  15
ATOM     15  O   UNL     1      80.170  96.107  68.325  1.00  0.00    -0.504 OA
ATOM     16  H   UNL     1      79.889  95.792  69.187  1.00  0.00     0.293 HD
ENDBRANCH   9  15
ENDBRANCH   6   7
ENDBRANCH   3   6
ENDBRANCH   1   2
BRANCH   1  17
ATOM     17  C   UNL     1      77.599  89.549  64.796  1.00  0.00     0.010 C 
BRANCH  17  18
ATOM     18  C   UNL     1      77.693  88.054  65.210  1.00  0.00     0.005 C 
BRANCH  18  19
ATOM     19  C   UNL     1      78.270  87.871  66.640  1.00  0.00     0.027 C 
BRANCH  19  20
ATOM     20  C   UNL     1      77.963  86.560  67.190  1.00  0.00    -0.031 C 
ATOM     21  C   UNL     1      77.269  85.609  66.538  1.00  0.00    -0.028 C 
BRANCH  21  22
ATOM     22  C   UNL     1      76.989  84.290  67.104  1.00  0.00     0.005 C 
ATOM     23  C   UNL     1      76.664  84.356  68.621  1.00  0.00     0.012 C 
ATOM     24  C   UNL     1      75.839  83.604  66.321  1.00  0.00     0.012 C 
ENDBRANCH  21  22
ENDBRANCH  19  20
ENDBRANCH  18  19
ENDBRANCH  17  18
ENDBRANCH   1  17
TORSDOF 10
ENDMDL
MODEL 9
REMARK VINA RESULT:    -5.615     14.374     17.148
REMARK INTER + INTRA:          -9.644
REMARK INTER:                  -9.004
REMARK INTRA:                  -0.640
REMARK UNBOUND:                -0.911
REMARK SMILES COc1cc(CNC(=O)CCCC/C=C/C(C)C)ccc1O
REMARK SMILES IDX 10 1 8 2 7 3 9 5 6 6 5 7 3 8 21 9 4 10 20 11 19 12 2 13 1 14
REMARK SMILES IDX 22 15 11 17 12 18 13 19 14 20 15 21 16 22 17 23 18 24
REMARK H PARENT 7 4 22 16
REMARK Flexibility Score: inf
ROOT
ATOM      1  C   UNL     1      82.374  92.458  88.680  1.00  0.00     0.100 C 
ENDROOT
BRANCH   1   2
ATOM      2  C   UNL     1      83.035  91.415  87.872  1.00  0.00     0.220 C 
ATOM      3  N   UNL     1      82.660  91.200  86.580  1.00  0.00    -0.352 N 
ATOM      4  H   UNL     1      81.902  91.783  86.253  1.00  0.00     0.163 HD
ATOM      5  O   UNL     1      83.961  90.754  88.401  1.00  0.00    -0.275 OA
BRANCH   3   6
ATOM      6  C   UNL     1      83.256  90.240  85.706  1.00  0.00     0.151 C 
BRANCH   6   7
ATOM      7  C   UNL     1      82.281  89.193  85.298  1.00  0.00    -0.025 A 
ATOM      8  C   UNL     1      81.318  86.947  85.600  1.00  0.00     0.160 A 
ATOM      9  C   UNL     1      80.415  87.191  84.546  1.00  0.00     0.157 A 
ATOM     10  C   UNL     1      82.243  87.947  85.965  1.00  0.00     0.056 A 
ATOM     11  C   UNL     1      80.453  88.421  83.859  1.00  0.00     0.050 A 
ATOM     12  C   UNL     1      81.373  89.418  84.238  1.00  0.00     0.009 A 
BRANCH   8  13
ATOM     13  O   UNL     1      81.329  85.727  86.228  1.00  0.00    -0.493 OA
ATOM     14  C   UNL     1      82.647  85.203  86.470  1.00  0.00     0.278 C 
ENDBRANCH   8  13
BRANCH   9  15
ATOM     15  O   UNL     1      79.503  86.254  84.178  1.00  0.00    -0.504 OA
ATOM     16  H   UNL     1      79.958  85.476  83.847  1.00  0.00     0.293 HD
ENDBRANCH   9  15
ENDBRANCH   6   7
ENDBRANCH   3   6
ENDBRANCH   1   2
BRANCH   1  17
ATOM     17  C   UNL     1      83.277  93.709  88.849  1.00  0.00     0.010 C 
BRANCH  17  18
ATOM     18  C   UNL     1      83.714  94.327  87.492  1.00  0.00     0.005 C 
BRANCH  18  19
ATOM     19  C   UNL     1      83.637  95.878  87.496  1.00  0.00     0.027 C 
BRANCH  19  20
ATOM     20  C   UNL     1      82.268  96.358  87.375  1.00  0.00    -0.031 C 
ATOM     21  C   UNL     1      81.846  97.557  87.815  1.00  0.00    -0.028 C 
BRANCH  21  22
ATOM     22  C   UNL     1      80.469  98.028  87.665  1.00  0.00     0.005 C 
ATOM     23  C   UNL     1      80.348  99.565  87.851  1.00  0.00     0.012 C 
ATOM     24  C   UNL     1      79.900  97.591  86.290  1.00  0.00     0.012 C 
ENDBRANCH  21  22
ENDBRANCH  19  20
ENDBRANCH  18  19
ENDBRANCH  17  18
ENDBRANCH   1  17
TORSDOF 10
ENDMDL
MODEL 10
REMARK VINA RESULT:    -5.519     10.843     12.593
REMARK INTER + INTRA:          -9.496
REMARK INTER:                  -8.838
REMARK INTRA:                  -0.659
REMARK UNBOUND:                -0.911
REMARK SMILES COc1cc(CNC(=O)CCCC/C=C/C(C)C)ccc1O
REMARK SMILES IDX 10 1 8 2 7 3 9 5 6 6 5 7 3 8 21 9 4 10 20 11 19 12 2 13 1 14
REMARK SMILES IDX 22 15 11 17 12 18 13 19 14 20 15 21 16 22 17 23 18 24
REMARK H PARENT 7 4 22 16
REMARK Flexibility Score: inf
ROOT
ATOM      1  C   UNL     1      96.844  83.803  83.119  1.00  0.00     0.100 C 
ENDROOT
BRANCH   1   2
ATOM      2  C   UNL     1      95.848  83.199  84.025  1.00  0.00     0.220 C 
ATOM      3  N   UNL     1      95.197  83.964  84.945  1.00  0.00    -0.352 N 
ATOM      4  H   UNL     1      95.470  84.937  84.961  1.00  0.00     0.163 HD
ATOM      5  O   UNL     1      95.605  81.974  83.906  1.00  0.00    -0.275 OA
BRANCH   3   6
ATOM      6  C   UNL     1      94.196  83.484  85.843  1.00  0.00     0.151 C 
BRANCH   6   7
ATOM      7  C   UNL     1      93.798  84.528  86.827  1.00  0.00    -0.025 A 
ATOM      8  C   UNL     1      94.304  86.604  88.050  1.00  0.00     0.160 A 
ATOM      9  C   UNL     1      93.047  86.537  88.685  1.00  0.00     0.157 A 
ATOM     10  C   UNL     1      94.668  85.599  87.130  1.00  0.00     0.056 A 
ATOM     11  C   UNL     1      92.176  85.465  88.408  1.00  0.00     0.050 A 
ATOM     12  C   UNL     1      92.544  84.472  87.479  1.00  0.00     0.009 A 
BRANCH   8  13
ATOM     13  O   UNL     1      95.182  87.610  88.365  1.00  0.00    -0.493 OA
ATOM     14  C   UNL     1      95.422  88.538  87.291  1.00  0.00     0.278 C 
ENDBRANCH   8  13
BRANCH   9  15
ATOM     15  O   UNL     1      92.660  87.496  89.566  1.00  0.00    -0.504 OA
ATOM     16  H   UNL     1      91.939  87.163  90.106  1.00  0.00     0.293 HD
ENDBRANCH   9  15
ENDBRANCH   6   7
ENDBRANCH   3   6
ENDBRANCH   1   2
BRANCH   1  17
ATOM     17  C   UNL     1      97.809  82.736  82.535  1.00  0.00     0.010 C 
BRANCH  17  18
ATOM     18  C   UNL     1      97.998  82.868  80.998  1.00  0.00     0.005 C 
BRANCH  18  19
ATOM     19  C   UNL     1      96.713  82.494  80.211  1.00  0.00     0.027 C 
BRANCH  19  20
ATOM     20  C   UNL     1      96.931  82.501  78.772  1.00  0.00    -0.031 C 
ATOM     21  C   UNL     1      98.097  82.828  78.186  1.00  0.00    -0.028 C 
BRANCH  21  22
ATOM     22  C   UNL     1      98.300  82.809  76.737  1.00  0.00     0.005 C 
ATOM     23  C   UNL     1      97.644  84.030  76.035  1.00  0.00     0.012 C 
ATOM     24  C   UNL     1      99.813  82.729  76.409  1.00  0.00     0.012 C 
ENDBRANCH  21  22
ENDBRANCH  19  20
ENDBRANCH  18  19
ENDBRANCH  17  18
ENDBRANCH   1  17
TORSDOF 10
ENDMDL
