MODEL 1
REMARK VINA RESULT:    -6.424      0.000      0.000
REMARK INTER + INTRA:         -11.017
REMARK INTER:                 -10.368
REMARK INTRA:                  -0.650
REMARK UNBOUND:                -0.650
REMARK SMILES COc1cc(CNC(=O)CCCCCCC(C)C)ccc1O
REMARK SMILES IDX 11 1 10 2 8 3 7 4 9 6 6 7 5 8 3 9 21 10 4 11 20 12 19 13
REMARK SMILES IDX 2 14 1 15 22 16 12 18 13 19 14 20 15 21 16 22 17 23 18 24
REMARK H PARENT 7 5 22 17
REMARK Flexibility Score: inf
ROOT
ATOM      1  C   UNL     1      93.177  98.127  75.086  1.00  0.00     0.010 C 
ENDROOT
BRANCH   1   2
ATOM      2  C   UNL     1      93.143  99.680  75.074  1.00  0.00     0.100 C 
BRANCH   2   3
ATOM      3  C   UNL     1      93.011 100.251  73.714  1.00  0.00     0.220 C 
ATOM      4  N   UNL     1      91.888 100.018  72.975  1.00  0.00    -0.352 N 
ATOM      5  H   UNL     1      91.214  99.409  73.414  1.00  0.00     0.163 HD
ATOM      6  O   UNL     1      93.940 100.970  73.271  1.00  0.00    -0.275 OA
BRANCH   4   7
ATOM      7  C   UNL     1      91.625 100.563  71.678  1.00  0.00     0.151 C 
BRANCH   7   8
ATOM      8  C   UNL     1      90.617  99.784  70.908  1.00  0.00    -0.025 A 
ATOM      9  C   UNL     1      89.054  99.606  69.017  1.00  0.00     0.160 A 
ATOM     10  C   UNL     1      88.728  98.289  69.408  1.00  0.00     0.157 A 
ATOM     11  C   UNL     1      89.981 100.349  69.779  1.00  0.00     0.056 A 
ATOM     12  C   UNL     1      89.326  97.730  70.552  1.00  0.00     0.050 A 
ATOM     13  C   UNL     1      90.272  98.467  71.291  1.00  0.00     0.009 A 
BRANCH   9  14
ATOM     14  O   UNL     1      88.449 100.174  67.929  1.00  0.00    -0.493 OA
ATOM     15  C   UNL     1      89.002 101.450  67.558  1.00  0.00     0.278 C 
ENDBRANCH   9  14
BRANCH  10  16
ATOM     16  O   UNL     1      87.838  97.551  68.693  1.00  0.00    -0.504 OA
ATOM     17  H   UNL     1      88.292  96.807  68.290  1.00  0.00     0.293 HD
ENDBRANCH  10  16
ENDBRANCH   7   8
ENDBRANCH   4   7
ENDBRANCH   2   3
ENDBRANCH   1   2
BRANCH   1  18
ATOM     18  C   UNL     1      94.497  97.573  75.694  1.00  0.00     0.001 C 
BRANCH  18  19
ATOM     19  C   UNL     1      94.384  96.112  76.212  1.00  0.00     0.000 C 
BRANCH  19  20
ATOM     20  C   UNL     1      93.243  95.963  77.258  1.00  0.00     0.000 C 
BRANCH  20  21
ATOM     21  C   UNL     1      92.031  95.126  76.762  1.00  0.00     0.003 C 
BRANCH  21  22
ATOM     22  C   UNL     1      90.846  95.033  77.779  1.00  0.00    -0.017 C 
ATOM     23  C   UNL     1      91.062  93.846  78.759  1.00  0.00     0.007 C 
ATOM     24  C   UNL     1      89.448  94.933  77.101  1.00  0.00     0.007 C 
ENDBRANCH  21  22
ENDBRANCH  20  21
ENDBRANCH  19  20
ENDBRANCH  18  19
ENDBRANCH   1  18
TORSDOF 11
ENDMDL
MODEL 2
REMARK VINA RESULT:    -5.945     17.800     21.101
REMARK INTER + INTRA:         -10.245
REMARK INTER:                  -9.739
REMARK INTRA:                  -0.506
REMARK UNBOUND:                -0.650
REMARK SMILES COc1cc(CNC(=O)CCCCCCC(C)C)ccc1O
REMARK SMILES IDX 11 1 10 2 8 3 7 4 9 6 6 7 5 8 3 9 21 10 4 11 20 12 19 13
REMARK SMILES IDX 2 14 1 15 22 16 12 18 13 19 14 20 15 21 16 22 17 23 18 24
REMARK H PARENT 7 5 22 17
REMARK Flexibility Score: inf
ROOT
ATOM      1  C   UNL     1      97.350  83.232  84.315  1.00  0.00     0.010 C 
ENDROOT
BRANCH   1   2
ATOM      2  C   UNL     1      96.528  84.309  85.078  1.00  0.00     0.100 C 
BRANCH   2   3
ATOM      3  C   UNL     1      95.813  83.771  86.257  1.00  0.00     0.220 C 
ATOM      4  N   UNL     1      94.839  82.829  86.102  1.00  0.00    -0.352 N 
ATOM      5  H   UNL     1      94.638  82.585  85.143  1.00  0.00     0.163 HD
ATOM      6  O   UNL     1      96.139  84.183  87.397  1.00  0.00    -0.275 OA
BRANCH   4   7
ATOM      7  C   UNL     1      94.123  82.197  87.168  1.00  0.00     0.151 C 
BRANCH   7   8
ATOM      8  C   UNL     1      92.733  81.816  86.797  1.00  0.00    -0.025 A 
ATOM      9  C   UNL     1      91.162  80.228  85.767  1.00  0.00     0.160 A 
ATOM     10  C   UNL     1      90.081  81.062  86.124  1.00  0.00     0.157 A 
ATOM     11  C   UNL     1      92.479  80.620  86.089  1.00  0.00     0.056 A 
ATOM     12  C   UNL     1      90.324  82.275  86.794  1.00  0.00     0.050 A 
ATOM     13  C   UNL     1      91.638  82.646  87.138  1.00  0.00     0.009 A 
BRANCH   9  14
ATOM     14  O   UNL     1      90.941  79.065  85.081  1.00  0.00    -0.493 OA
ATOM     15  C   UNL     1      91.706  77.949  85.569  1.00  0.00     0.278 C 
ENDBRANCH   9  14
BRANCH  10  16
ATOM     16  O   UNL     1      88.802  80.711  85.826  1.00  0.00    -0.504 OA
ATOM     17  H   UNL     1      88.399  81.399  85.291  1.00  0.00     0.293 HD
ENDBRANCH  10  16
ENDBRANCH   7   8
ENDBRANCH   4   7
ENDBRANCH   2   3
ENDBRANCH   1   2
BRANCH   1  18
ATOM     18  C   UNL     1      97.545  83.597  82.816  1.00  0.00     0.001 C 
BRANCH  18  19
ATOM     19  C   UNL     1      98.469  82.611  82.046  1.00  0.00     0.000 C 
BRANCH  19  20
ATOM     20  C   UNL     1      98.734  83.092  80.592  1.00  0.00     0.000 C 
BRANCH  20  21
ATOM     21  C   UNL     1      97.446  83.338  79.758  1.00  0.00     0.003 C 
BRANCH  21  22
ATOM     22  C   UNL     1      97.580  82.996  78.238  1.00  0.00    -0.017 C 
ATOM     23  C   UNL     1      98.761  82.012  78.004  1.00  0.00     0.007 C 
ATOM     24  C   UNL     1      97.725  84.249  77.325  1.00  0.00     0.007 C 
ENDBRANCH  21  22
ENDBRANCH  20  21
ENDBRANCH  19  20
ENDBRANCH  18  19
ENDBRANCH   1  18
TORSDOF 11
ENDMDL
MODEL 3
REMARK VINA RESULT:    -5.872     17.423     20.920
REMARK INTER + INTRA:         -10.126
REMARK INTER:                  -9.221
REMARK INTRA:                  -0.905
REMARK UNBOUND:                -0.650
REMARK SMILES COc1cc(CNC(=O)CCCCCCC(C)C)ccc1O
REMARK SMILES IDX 11 1 10 2 8 3 7 4 9 6 6 7 5 8 3 9 21 10 4 11 20 12 19 13
REMARK SMILES IDX 2 14 1 15 22 16 12 18 13 19 14 20 15 21 16 22 17 23 18 24
REMARK H PARENT 7 5 22 17
REMARK Flexibility Score: inf
ROOT
ATOM      1  C   UNL     1      99.410  82.221  79.615  1.00  0.00     0.010 C 
ENDROOT
BRANCH   1   2
ATOM      2  C   UNL     1      99.863  80.783  79.994  1.00  0.00     0.100 C 
BRANCH   2   3
ATOM      3  C   UNL     1      99.571  80.429  81.401  1.00  0.00     0.220 C 
ATOM      4  N   UNL     1      99.398  81.408  82.336  1.00  0.00    -0.352 N 
ATOM      5  H   UNL     1      99.531  82.347  81.992  1.00  0.00     0.163 HD
ATOM      6  O   UNL     1      99.462  79.217  81.706  1.00  0.00    -0.275 OA
BRANCH   4   7
ATOM      7  C   UNL     1      99.056  81.188  83.708  1.00  0.00     0.151 C 
BRANCH   7   8
ATOM      8  C   UNL     1      98.541  82.408  84.387  1.00  0.00    -0.025 A 
ATOM      9  C   UNL     1      98.555  83.943  86.309  1.00  0.00     0.160 A 
ATOM     10  C   UNL     1      97.595  84.757  85.669  1.00  0.00     0.157 A 
ATOM     11  C   UNL     1      99.006  82.767  85.673  1.00  0.00     0.056 A 
ATOM     12  C   UNL     1      97.096  84.389  84.407  1.00  0.00     0.050 A 
ATOM     13  C   UNL     1      97.572  83.230  83.765  1.00  0.00     0.009 A 
BRANCH   9  14
ATOM     14  O   UNL     1      99.019  84.270  87.555  1.00  0.00    -0.493 OA
ATOM     15  C   UNL     1     100.453  84.236  87.667  1.00  0.00     0.278 C 
ENDBRANCH   9  14
BRANCH  10  16
ATOM     16  O   UNL     1      97.142  85.894  86.259  1.00  0.00    -0.504 OA
ATOM     17  H   UNL     1      96.497  86.315  85.687  1.00  0.00     0.293 HD
ENDBRANCH  10  16
ENDBRANCH   7   8
ENDBRANCH   4   7
ENDBRANCH   2   3
ENDBRANCH   1   2
BRANCH   1  18
ATOM     18  C   UNL     1      98.095  82.222  78.785  1.00  0.00     0.001 C 
BRANCH  18  19
ATOM     19  C   UNL     1      97.367  83.596  78.767  1.00  0.00     0.000 C 
BRANCH  19  20
ATOM     20  C   UNL     1      97.629  84.364  77.441  1.00  0.00     0.000 C 
BRANCH  20  21
ATOM     21  C   UNL     1      98.295  83.507  76.329  1.00  0.00     0.003 C 
BRANCH  21  22
ATOM     22  C   UNL     1      99.825  83.765  76.139  1.00  0.00    -0.017 C 
ATOM     23  C   UNL     1     100.060  85.038  75.278  1.00  0.00     0.007 C 
ATOM     24  C   UNL     1     100.593  82.551  75.537  1.00  0.00     0.007 C 
ENDBRANCH  21  22
ENDBRANCH  20  21
ENDBRANCH  19  20
ENDBRANCH  18  19
ENDBRANCH   1  18
TORSDOF 11
ENDMDL
MODEL 4
REMARK VINA RESULT:    -5.780     19.379     21.572
REMARK INTER + INTRA:          -9.978
REMARK INTER:                  -8.022
REMARK INTRA:                  -1.956
REMARK UNBOUND:                -0.650
REMARK SMILES COc1cc(CNC(=O)CCCCCCC(C)C)ccc1O
REMARK SMILES IDX 11 1 10 2 8 3 7 4 9 6 6 7 5 8 3 9 21 10 4 11 20 12 19 13
REMARK SMILES IDX 2 14 1 15 22 16 12 18 13 19 14 20 15 21 16 22 17 23 18 24
REMARK H PARENT 7 5 22 17
REMARK Flexibility Score: inf
ROOT
ATOM      1  C   UNL     1      74.885  88.518  68.243  1.00  0.00     0.010 C 
ENDROOT
BRANCH   1   2
ATOM      2  C   UNL     1      75.764  88.944  67.035  1.00  0.00     0.100 C 
BRANCH   2   3
ATOM      3  C   UNL     1      75.727  87.977  65.915  1.00  0.00     0.220 C 
ATOM      4  N   UNL     1      76.686  87.013  65.805  1.00  0.00    -0.352 N 
ATOM      5  H   UNL     1      77.410  87.057  66.507  1.00  0.00     0.163 HD
ATOM      6  O   UNL     1      74.786  88.050  65.088  1.00  0.00    -0.275 OA
BRANCH   4   7
ATOM      7  C   UNL     1      76.720  85.992  64.802  1.00  0.00     0.151 C 
BRANCH   7   8
ATOM      8  C   UNL     1      76.325  84.651  65.316  1.00  0.00    -0.025 A 
ATOM      9  C   UNL     1      74.584  83.095  66.087  1.00  0.00     0.160 A 
ATOM     10  C   UNL     1      75.557  82.085  66.253  1.00  0.00     0.157 A 
ATOM     11  C   UNL     1      74.977  84.374  65.639  1.00  0.00     0.056 A 
ATOM     12  C   UNL     1      76.908  82.361  65.971  1.00  0.00     0.050 A 
ATOM     13  C   UNL     1      77.289  83.631  65.496  1.00  0.00     0.009 A 
BRANCH   9  14
ATOM     14  O   UNL     1      73.274  82.849  66.396  1.00  0.00    -0.493 OA
ATOM     15  C   UNL     1      72.378  82.995  65.279  1.00  0.00     0.278 C 
ENDBRANCH   9  14
BRANCH  10  16
ATOM     16  O   UNL     1      75.207  80.845  66.685  1.00  0.00    -0.504 OA
ATOM     17  H   UNL     1      75.915  80.483  67.223  1.00  0.00     0.293 HD
ENDBRANCH  10  16
ENDBRANCH   7   8
ENDBRANCH   4   7
ENDBRANCH   2   3
ENDBRANCH   1   2
BRANCH   1  18
ATOM     18  C   UNL     1      75.738  87.996  69.434  1.00  0.00     0.001 C 
BRANCH  18  19
ATOM     19  C   UNL     1      74.906  87.276  70.533  1.00  0.00     0.000 C 
BRANCH  19  20
ATOM     20  C   UNL     1      74.834  85.743  70.284  1.00  0.00     0.000 C 
BRANCH  20  21
ATOM     21  C   UNL     1      75.597  85.267  69.017  1.00  0.00     0.003 C 
BRANCH  21  22
ATOM     22  C   UNL     1      76.937  84.515  69.309  1.00  0.00    -0.017 C 
ATOM     23  C   UNL     1      77.110  84.286  70.837  1.00  0.00     0.007 C 
ATOM     24  C   UNL     1      78.192  85.221  68.718  1.00  0.00     0.007 C 
ENDBRANCH  21  22
ENDBRANCH  20  21
ENDBRANCH  19  20
ENDBRANCH  18  19
ENDBRANCH   1  18
TORSDOF 11
ENDMDL
MODEL 5
REMARK VINA RESULT:    -5.763     18.138     20.760
REMARK INTER + INTRA:          -9.950
REMARK INTER:                  -9.167
REMARK INTRA:                  -0.782
REMARK UNBOUND:                -0.650
REMARK SMILES COc1cc(CNC(=O)CCCCCCC(C)C)ccc1O
REMARK SMILES IDX 11 1 10 2 8 3 7 4 9 6 6 7 5 8 3 9 21 10 4 11 20 12 19 13
REMARK SMILES IDX 2 14 1 15 22 16 12 18 13 19 14 20 15 21 16 22 17 23 18 24
REMARK H PARENT 7 5 22 17
REMARK Flexibility Score: inf
ROOT
ATOM      1  C   UNL     1      97.461  82.495  84.651  1.00  0.00     0.010 C 
ENDROOT
BRANCH   1   2
ATOM      2  C   UNL     1      97.078  83.892  84.087  1.00  0.00     0.100 C 
BRANCH   2   3
ATOM      3  C   UNL     1      96.731  84.872  85.140  1.00  0.00     0.220 C 
ATOM      4  N   UNL     1      95.829  84.549  86.112  1.00  0.00    -0.352 N 
ATOM      5  H   UNL     1      95.412  83.635  86.012  1.00  0.00     0.163 HD
ATOM      6  O   UNL     1      97.300  85.991  85.132  1.00  0.00    -0.275 OA
BRANCH   4   7
ATOM      7  C   UNL     1      95.460  85.391  87.209  1.00  0.00     0.151 C 
BRANCH   7   8
ATOM      8  C   UNL     1      94.175  84.993  87.847  1.00  0.00    -0.025 A 
ATOM      9  C   UNL     1      92.138  83.615  87.855  1.00  0.00     0.160 A 
ATOM     10  C   UNL     1      91.746  84.197  89.081  1.00  0.00     0.157 A 
ATOM     11  C   UNL     1      93.338  84.030  87.240  1.00  0.00     0.056 A 
ATOM     12  C   UNL     1      92.552  85.185  89.676  1.00  0.00     0.050 A 
ATOM     13  C   UNL     1      93.763  85.573  89.070  1.00  0.00     0.009 A 
BRANCH   9  14
ATOM     14  O   UNL     1      91.342  82.682  87.248  1.00  0.00    -0.493 OA
ATOM     15  C   UNL     1      92.074  81.702  86.489  1.00  0.00     0.278 C 
ENDBRANCH   9  14
BRANCH  10  16
ATOM     16  O   UNL     1      90.595  83.817  89.696  1.00  0.00    -0.504 OA
ATOM     17  H   UNL     1      90.800  83.211  90.411  1.00  0.00     0.293 HD
ENDBRANCH  10  16
ENDBRANCH   7   8
ENDBRANCH   4   7
ENDBRANCH   2   3
ENDBRANCH   1   2
BRANCH   1  18
ATOM     18  C   UNL     1      98.169  81.607  83.588  1.00  0.00     0.001 C 
BRANCH  18  19
ATOM     19  C   UNL     1      99.658  81.984  83.348  1.00  0.00     0.000 C 
BRANCH  19  20
ATOM     20  C   UNL     1      99.878  82.570  81.926  1.00  0.00     0.000 C 
BRANCH  20  21
ATOM     21  C   UNL     1      98.692  82.337  80.950  1.00  0.00     0.003 C 
BRANCH  21  22
ATOM     22  C   UNL     1      98.688  83.271  79.696  1.00  0.00    -0.017 C 
ATOM     23  C   UNL     1      97.251  83.397  79.116  1.00  0.00     0.007 C 
ATOM     24  C   UNL     1      99.688  82.833  78.586  1.00  0.00     0.007 C 
ENDBRANCH  21  22
ENDBRANCH  20  21
ENDBRANCH  19  20
ENDBRANCH  18  19
ENDBRANCH   1  18
TORSDOF 11
ENDMDL
MODEL 6
REMARK VINA RESULT:    -5.682     17.278     19.740
REMARK INTER + INTRA:          -9.819
REMARK INTER:                  -9.229
REMARK INTRA:                  -0.591
REMARK UNBOUND:                -0.650
REMARK SMILES COc1cc(CNC(=O)CCCCCCC(C)C)ccc1O
REMARK SMILES IDX 11 1 10 2 8 3 7 4 9 6 6 7 5 8 3 9 21 10 4 11 20 12 19 13
REMARK SMILES IDX 2 14 1 15 22 16 12 18 13 19 14 20 15 21 16 22 17 23 18 24
REMARK H PARENT 7 5 22 17
REMARK Flexibility Score: inf
ROOT
ATOM      1  C   UNL     1      97.010  82.379  85.745  1.00  0.00     0.010 C 
ENDROOT
BRANCH   1   2
ATOM      2  C   UNL     1      97.762  83.288  84.734  1.00  0.00     0.100 C 
BRANCH   2   3
ATOM      3  C   UNL     1      98.323  82.545  83.583  1.00  0.00     0.220 C 
ATOM      4  N   UNL     1      98.969  83.210  82.583  1.00  0.00    -0.352 N 
ATOM      5  H   UNL     1      98.982  84.214  82.684  1.00  0.00     0.163 HD
ATOM      6  O   UNL     1      98.212  81.295  83.563  1.00  0.00    -0.275 OA
BRANCH   4   7
ATOM      7  C   UNL     1      99.600  82.594  81.454  1.00  0.00     0.151 C 
BRANCH   7   8
ATOM      8  C   UNL     1      98.940  82.925  80.161  1.00  0.00    -0.025 A 
ATOM      9  C   UNL     1      98.999  83.020  77.704  1.00  0.00     0.160 A 
ATOM     10  C   UNL     1      97.674  83.510  77.690  1.00  0.00     0.157 A 
ATOM     11  C   UNL     1      99.627  82.750  78.938  1.00  0.00     0.056 A 
ATOM     12  C   UNL     1      96.994  83.726  78.902  1.00  0.00     0.050 A 
ATOM     13  C   UNL     1      97.617  83.425  80.129  1.00  0.00     0.009 A 
BRANCH   9  14
ATOM     14  O   UNL     1      99.683  82.845  76.533  1.00  0.00    -0.493 OA
ATOM     15  C   UNL     1     100.539  83.950  76.190  1.00  0.00     0.278 C 
ENDBRANCH   9  14
BRANCH  10  16
ATOM     16  O   UNL     1      97.045  83.781  76.516  1.00  0.00    -0.504 OA
ATOM     17  H   UNL     1      96.344  84.420  76.670  1.00  0.00     0.293 HD
ENDBRANCH  10  16
ENDBRANCH   7   8
ENDBRANCH   4   7
ENDBRANCH   2   3
ENDBRANCH   1   2
BRANCH   1  18
ATOM     18  C   UNL     1      95.582  82.907  86.060  1.00  0.00     0.001 C 
BRANCH  18  19
ATOM     19  C   UNL     1      94.710  81.909  86.874  1.00  0.00     0.000 C 
BRANCH  19  20
ATOM     20  C   UNL     1      93.201  82.275  86.798  1.00  0.00     0.000 C 
BRANCH  20  21
ATOM     21  C   UNL     1      92.286  81.110  86.328  1.00  0.00     0.003 C 
BRANCH  21  22
ATOM     22  C   UNL     1      92.376  79.818  87.204  1.00  0.00    -0.017 C 
ATOM     23  C   UNL     1      92.865  78.614  86.351  1.00  0.00     0.007 C 
ATOM     24  C   UNL     1      91.046  79.464  87.934  1.00  0.00     0.007 C 
ENDBRANCH  21  22
ENDBRANCH  20  21
ENDBRANCH  19  20
ENDBRANCH  18  19
ENDBRANCH   1  18
TORSDOF 11
ENDMDL
MODEL 7
REMARK VINA RESULT:    -5.639      4.548      8.252
REMARK INTER + INTRA:          -9.750
REMARK INTER:                  -8.046
REMARK INTRA:                  -1.703
REMARK UNBOUND:                -0.650
REMARK SMILES COc1cc(CNC(=O)CCCCCCC(C)C)ccc1O
REMARK SMILES IDX 11 1 10 2 8 3 7 4 9 6 6 7 5 8 3 9 21 10 4 11 20 12 19 13
REMARK SMILES IDX 2 14 1 15 22 16 12 18 13 19 14 20 15 21 16 22 17 23 18 24
REMARK H PARENT 7 5 22 17
REMARK Flexibility Score: inf
ROOT
ATOM      1  C   UNL     1      88.822  98.218  67.671  1.00  0.00     0.010 C 
ENDROOT
BRANCH   1   2
ATOM      2  C   UNL     1      88.834  97.030  68.672  1.00  0.00     0.100 C 
BRANCH   2   3
ATOM      3  C   UNL     1      89.586  97.319  69.914  1.00  0.00     0.220 C 
ATOM      4  N   UNL     1      90.232  98.510  70.067  1.00  0.00    -0.352 N 
ATOM      5  H   UNL     1      90.183  99.122  69.265  1.00  0.00     0.163 HD
ATOM      6  O   UNL     1      89.593  96.457  70.827  1.00  0.00    -0.275 OA
BRANCH   4   7
ATOM      7  C   UNL     1      90.938  98.922  71.242  1.00  0.00     0.151 C 
BRANCH   7   8
ATOM      8  C   UNL     1      90.611 100.311  71.667  1.00  0.00    -0.025 A 
ATOM      9  C   UNL     1      91.266 102.414  72.761  1.00  0.00     0.160 A 
ATOM     10  C   UNL     1      90.010 102.974  72.442  1.00  0.00     0.157 A 
ATOM     11  C   UNL     1      91.549 101.083  72.389  1.00  0.00     0.056 A 
ATOM     12  C   UNL     1      89.053 102.203  71.758  1.00  0.00     0.050 A 
ATOM     13  C   UNL     1      89.353 100.884  71.363  1.00  0.00     0.009 A 
BRANCH   9  14
ATOM     14  O   UNL     1      92.190 103.142  73.461  1.00  0.00    -0.493 OA
ATOM     15  C   UNL     1      92.896 102.379  74.457  1.00  0.00     0.278 C 
ENDBRANCH   9  14
BRANCH  10  16
ATOM     16  O   UNL     1      89.709 104.253  72.790  1.00  0.00    -0.504 OA
ATOM     17  H   UNL     1      90.285 104.533  73.505  1.00  0.00     0.293 HD
ENDBRANCH  10  16
ENDBRANCH   7   8
ENDBRANCH   4   7
ENDBRANCH   2   3
ENDBRANCH   1   2
BRANCH   1  18
ATOM     18  C   UNL     1      87.913  99.384  68.156  1.00  0.00     0.001 C 
BRANCH  18  19
ATOM     19  C   UNL     1      88.476 100.795  67.826  1.00  0.00     0.000 C 
BRANCH  19  20
ATOM     20  C   UNL     1      89.961 100.727  67.372  1.00  0.00     0.000 C 
BRANCH  20  21
ATOM     21  C   UNL     1      90.685 102.102  67.352  1.00  0.00     0.003 C 
BRANCH  21  22
ATOM     22  C   UNL     1      91.801 102.265  68.435  1.00  0.00    -0.017 C 
ATOM     23  C   UNL     1      91.600 103.587  69.229  1.00  0.00     0.007 C 
ATOM     24  C   UNL     1      93.247 102.190  67.859  1.00  0.00     0.007 C 
ENDBRANCH  21  22
ENDBRANCH  20  21
ENDBRANCH  19  20
ENDBRANCH  18  19
ENDBRANCH   1  18
TORSDOF 11
ENDMDL
MODEL 8
REMARK VINA RESULT:    -5.429      3.295      7.655
REMARK INTER + INTRA:          -9.412
REMARK INTER:                  -8.313
REMARK INTRA:                  -1.099
REMARK UNBOUND:                -0.650
REMARK SMILES COc1cc(CNC(=O)CCCCCCC(C)C)ccc1O
REMARK SMILES IDX 11 1 10 2 8 3 7 4 9 6 6 7 5 8 3 9 21 10 4 11 20 12 19 13
REMARK SMILES IDX 2 14 1 15 22 16 12 18 13 19 14 20 15 21 16 22 17 23 18 24
REMARK H PARENT 7 5 22 17
REMARK Flexibility Score: inf
ROOT
ATOM      1  C   UNL     1      90.700 102.275  68.758  1.00  0.00     0.010 C 
ENDROOT
BRANCH   1   2
ATOM      2  C   UNL     1      91.465 101.158  69.520  1.00  0.00     0.100 C 
BRANCH   2   3
ATOM      3  C   UNL     1      91.951 101.585  70.851  1.00  0.00     0.220 C 
ATOM      4  N   UNL     1      91.788 100.774  71.936  1.00  0.00    -0.352 N 
ATOM      5  H   UNL     1      91.286  99.918  71.752  1.00  0.00     0.163 HD
ATOM      6  O   UNL     1      92.534 102.691  70.952  1.00  0.00    -0.275 OA
BRANCH   4   7
ATOM      7  C   UNL     1      92.267 101.055  73.256  1.00  0.00     0.151 C 
BRANCH   7   8
ATOM      8  C   UNL     1      93.194 100.013  73.778  1.00  0.00    -0.025 A 
ATOM      9  C   UNL     1      95.335  98.810  73.648  1.00  0.00     0.160 A 
ATOM     10  C   UNL     1      94.985  98.060  74.792  1.00  0.00     0.157 A 
ATOM     11  C   UNL     1      94.430  99.765  73.140  1.00  0.00     0.056 A 
ATOM     12  C   UNL     1      93.740  98.269  75.413  1.00  0.00     0.050 A 
ATOM     13  C   UNL     1      92.855  99.246  74.917  1.00  0.00     0.009 A 
BRANCH   9  14
ATOM     14  O   UNL     1      96.526  98.586  73.013  1.00  0.00    -0.493 OA
ATOM     15  C   UNL     1      96.413  97.752  71.846  1.00  0.00     0.278 C 
ENDBRANCH   9  14
BRANCH  10  16
ATOM     16  O   UNL     1      95.836  97.131  75.303  1.00  0.00    -0.504 OA
ATOM     17  H   UNL     1      96.739  97.370  75.083  1.00  0.00     0.293 HD
ENDBRANCH  10  16
ENDBRANCH   7   8
ENDBRANCH   4   7
ENDBRANCH   2   3
ENDBRANCH   1   2
BRANCH   1  18
ATOM     18  C   UNL     1      89.868 101.712  67.570  1.00  0.00     0.001 C 
BRANCH  18  19
ATOM     19  C   UNL     1      88.745 100.728  68.002  1.00  0.00     0.000 C 
BRANCH  19  20
ATOM     20  C   UNL     1      89.106  99.258  67.649  1.00  0.00     0.000 C 
BRANCH  20  21
ATOM     21  C   UNL     1      88.594  98.211  68.677  1.00  0.00     0.003 C 
BRANCH  21  22
ATOM     22  C   UNL     1      89.440  98.119  69.988  1.00  0.00    -0.017 C 
ATOM     23  C   UNL     1      89.705  96.633  70.361  1.00  0.00     0.007 C 
ATOM     24  C   UNL     1      88.813  98.880  71.193  1.00  0.00     0.007 C 
ENDBRANCH  21  22
ENDBRANCH  20  21
ENDBRANCH  19  20
ENDBRANCH  18  19
ENDBRANCH   1  18
TORSDOF 11
ENDMDL
MODEL 9
REMARK VINA RESULT:    -5.356      5.490      9.517
REMARK INTER + INTRA:          -9.293
REMARK INTER:                  -8.370
REMARK INTRA:                  -0.923
REMARK UNBOUND:                -0.650
REMARK SMILES COc1cc(CNC(=O)CCCCCCC(C)C)ccc1O
REMARK SMILES IDX 11 1 10 2 8 3 7 4 9 6 6 7 5 8 3 9 21 10 4 11 20 12 19 13
REMARK SMILES IDX 2 14 1 15 22 16 12 18 13 19 14 20 15 21 16 22 17 23 18 24
REMARK H PARENT 7 5 22 17
REMARK Flexibility Score: inf
ROOT
ATOM      1  C   UNL     1      93.248  97.369  75.646  1.00  0.00     0.010 C 
ENDROOT
BRANCH   1   2
ATOM      2  C   UNL     1      93.858  98.724  75.194  1.00  0.00     0.100 C 
BRANCH   2   3
ATOM      3  C   UNL     1      94.723  99.348  76.221  1.00  0.00     0.220 C 
ATOM      4  N   UNL     1      95.828  98.694  76.681  1.00  0.00    -0.352 N 
ATOM      5  H   UNL     1      95.960  97.769  76.299  1.00  0.00     0.163 HD
ATOM      6  O   UNL     1      94.430 100.495  76.638  1.00  0.00    -0.275 OA
BRANCH   4   7
ATOM      7  C   UNL     1      96.766  99.219  77.626  1.00  0.00     0.151 C 
BRANCH   7   8
ATOM      8  C   UNL     1      97.076  98.274  78.733  1.00  0.00    -0.025 A 
ATOM      9  C   UNL     1      98.565  97.529  80.543  1.00  0.00     0.160 A 
ATOM     10  C   UNL     1      97.654  96.502  80.873  1.00  0.00     0.157 A 
ATOM     11  C   UNL     1      98.279  98.393  79.466  1.00  0.00     0.056 A 
ATOM     12  C   UNL     1      96.471  96.349  80.127  1.00  0.00     0.050 A 
ATOM     13  C   UNL     1      96.178  97.234  79.071  1.00  0.00     0.009 A 
BRANCH   9  14
ATOM     14  O   UNL     1      99.737  97.662  81.238  1.00  0.00    -0.493 OA
ATOM     15  C   UNL     1     100.649  98.612  80.658  1.00  0.00     0.278 C 
ENDBRANCH   9  14
BRANCH  10  16
ATOM     16  O   UNL     1      97.904  95.654  81.905  1.00  0.00    -0.504 OA
ATOM     17  H   UNL     1      97.261  94.941  81.896  1.00  0.00     0.293 HD
ENDBRANCH  10  16
ENDBRANCH   7   8
ENDBRANCH   4   7
ENDBRANCH   2   3
ENDBRANCH   1   2
BRANCH   1  18
ATOM     18  C   UNL     1      94.282  96.209  75.580  1.00  0.00     0.001 C 
BRANCH  18  19
ATOM     19  C   UNL     1      94.180  95.211  76.768  1.00  0.00     0.000 C 
BRANCH  19  20
ATOM     20  C   UNL     1      92.818  94.461  76.770  1.00  0.00     0.000 C 
BRANCH  20  21
ATOM     21  C   UNL     1      92.330  94.030  78.181  1.00  0.00     0.003 C 
BRANCH  21  22
ATOM     22  C   UNL     1      90.845  94.402  78.497  1.00  0.00    -0.017 C 
ATOM     23  C   UNL     1      89.944  93.136  78.446  1.00  0.00     0.007 C 
ATOM     24  C   UNL     1      90.270  95.518  77.575  1.00  0.00     0.007 C 
ENDBRANCH  21  22
ENDBRANCH  20  21
ENDBRANCH  19  20
ENDBRANCH  18  19
ENDBRANCH   1  18
TORSDOF 11
ENDMDL
MODEL 10
REMARK VINA RESULT:    -5.338     30.429     32.116
REMARK INTER + INTRA:          -9.264
REMARK INTER:                  -7.434
REMARK INTRA:                  -1.830
REMARK UNBOUND:                -0.650
REMARK SMILES COc1cc(CNC(=O)CCCCCCC(C)C)ccc1O
REMARK SMILES IDX 11 1 10 2 8 3 7 4 9 6 6 7 5 8 3 9 21 10 4 11 20 12 19 13
REMARK SMILES IDX 2 14 1 15 22 16 12 18 13 19 14 20 15 21 16 22 17 23 18 24
REMARK H PARENT 7 5 22 17
REMARK Flexibility Score: inf
ROOT
ATOM      1  C   UNL     1      64.137  82.244  68.691  1.00  0.00     0.010 C 
ENDROOT
BRANCH   1   2
ATOM      2  C   UNL     1      63.880  83.332  67.612  1.00  0.00     0.100 C 
BRANCH   2   3
ATOM      3  C   UNL     1      63.430  84.623  68.179  1.00  0.00     0.220 C 
ATOM      4  N   UNL     1      62.317  84.680  68.966  1.00  0.00    -0.352 N 
ATOM      5  H   UNL     1      61.834  83.801  69.075  1.00  0.00     0.163 HD
ATOM      6  O   UNL     1      64.107  85.653  67.940  1.00  0.00    -0.275 OA
BRANCH   4   7
ATOM      7  C   UNL     1      61.823  85.857  69.613  1.00  0.00     0.151 C 
BRANCH   7   8
ATOM      8  C   UNL     1      61.431  85.626  71.031  1.00  0.00    -0.025 A 
ATOM      9  C   UNL     1      61.628  86.199  73.415  1.00  0.00     0.160 A 
ATOM     10  C   UNL     1      60.659  85.223  73.732  1.00  0.00     0.157 A 
ATOM     11  C   UNL     1      62.020  86.380  72.072  1.00  0.00     0.056 A 
ATOM     12  C   UNL     1      60.094  84.439  72.709  1.00  0.00     0.050 A 
ATOM     13  C   UNL     1      60.469  84.645  71.367  1.00  0.00     0.009 A 
BRANCH   9  14
ATOM     14  O   UNL     1      62.212  86.940  74.406  1.00  0.00    -0.493 OA
ATOM     15  C   UNL     1      63.551  86.523  74.729  1.00  0.00     0.278 C 
ENDBRANCH   9  14
BRANCH  10  16
ATOM     16  O   UNL     1      60.263  85.025  75.017  1.00  0.00    -0.504 OA
ATOM     17  H   UNL     1      61.035  84.884  75.570  1.00  0.00     0.293 HD
ENDBRANCH  10  16
ENDBRANCH   7   8
ENDBRANCH   4   7
ENDBRANCH   2   3
ENDBRANCH   1   2
BRANCH   1  18
ATOM     18  C   UNL     1      65.324  82.613  69.626  1.00  0.00     0.001 C 
BRANCH  18  19
ATOM     19  C   UNL     1      65.263  81.923  71.017  1.00  0.00     0.000 C 
BRANCH  19  20
ATOM     20  C   UNL     1      63.856  82.060  71.663  1.00  0.00     0.000 C 
BRANCH  20  21
ATOM     21  C   UNL     1      63.778  83.111  72.805  1.00  0.00     0.003 C 
BRANCH  21  22
ATOM     22  C   UNL     1      63.015  82.629  74.082  1.00  0.00    -0.017 C 
ATOM     23  C   UNL     1      63.924  82.750  75.337  1.00  0.00     0.007 C 
ATOM     24  C   UNL     1      62.442  81.186  73.960  1.00  0.00     0.007 C 
ENDBRANCH  21  22
ENDBRANCH  20  21
ENDBRANCH  19  20
ENDBRANCH  18  19
ENDBRANCH   1  18
TORSDOF 11
ENDMDL
