MODEL 1
REMARK VINA RESULT:    -6.263      0.000      0.000
REMARK INTER + INTRA:         -10.978
REMARK INTER:                  -9.741
REMARK INTRA:                  -1.237
REMARK UNBOUND:                -1.237
REMARK SMILES COc1cc(CNC(=O)CCCCCC(C)C)ccc1O
REMARK SMILES IDX 10 1 8 2 7 3 9 5 6 6 5 7 3 8 20 9 4 10 19 11 18 12 2 13 1 14
REMARK SMILES IDX 21 15 11 17 12 18 13 19 14 20 15 21 16 22 17 23
REMARK H PARENT 7 4 21 16
REMARK Flexibility Score: inf
ROOT
ATOM      1  C   UNL     1      94.290  98.121  75.524  1.00  0.00     0.100 C 
ENDROOT
BRANCH   1   2
ATOM      2  C   UNL     1      95.498  98.079  76.375  1.00  0.00     0.220 C 
ATOM      3  N   UNL     1      95.381  98.304  77.714  1.00  0.00    -0.352 N 
ATOM      4  H   UNL     1      94.470  98.620  78.014  1.00  0.00     0.163 HD
ATOM      5  O   UNL     1      96.602  97.794  75.851  1.00  0.00    -0.275 OA
BRANCH   3   6
ATOM      6  C   UNL     1      96.426  98.125  78.671  1.00  0.00     0.151 C 
BRANCH   6   7
ATOM      7  C   UNL     1      95.944  97.568  79.964  1.00  0.00    -0.025 A 
ATOM      8  C   UNL     1      95.175  95.658  81.308  1.00  0.00     0.160 A 
ATOM      9  C   UNL     1      95.092  96.492  82.442  1.00  0.00     0.157 A 
ATOM     10  C   UNL     1      95.583  96.204  80.072  1.00  0.00     0.056 A 
ATOM     11  C   UNL     1      95.424  97.856  82.340  1.00  0.00     0.050 A 
ATOM     12  C   UNL     1      95.852  98.389  81.112  1.00  0.00     0.009 A 
BRANCH   8  13
ATOM     13  O   UNL     1      94.838  94.332  81.382  1.00  0.00    -0.493 OA
ATOM     14  C   UNL     1      95.250  93.561  80.236  1.00  0.00     0.278 C 
ENDBRANCH   8  13
BRANCH   9  15
ATOM     15  O   UNL     1      94.699  95.977  83.634  1.00  0.00    -0.504 OA
ATOM     16  H   UNL     1      95.415  95.460  84.011  1.00  0.00     0.293 HD
ENDBRANCH   9  15
ENDBRANCH   6   7
ENDBRANCH   3   6
ENDBRANCH   1   2
BRANCH   1  17
ATOM     17  C   UNL     1      93.220  97.054  75.881  1.00  0.00     0.010 C 
BRANCH  17  18
ATOM     18  C   UNL     1      93.853  95.648  76.066  1.00  0.00     0.001 C 
BRANCH  18  19
ATOM     19  C   UNL     1      93.362  94.914  77.342  1.00  0.00     0.000 C 
BRANCH  19  20
ATOM     20  C   UNL     1      92.076  95.560  77.934  1.00  0.00     0.003 C 
BRANCH  20  21
ATOM     21  C   UNL     1      90.837  94.610  78.012  1.00  0.00    -0.017 C 
ATOM     22  C   UNL     1      91.106  93.281  77.248  1.00  0.00     0.007 C 
ATOM     23  C   UNL     1      89.532  95.275  77.484  1.00  0.00     0.007 C 
ENDBRANCH  20  21
ENDBRANCH  19  20
ENDBRANCH  18  19
ENDBRANCH  17  18
ENDBRANCH   1  17
TORSDOF 10
ENDMDL
MODEL 2
REMARK VINA RESULT:    -5.582     22.553     25.908
REMARK INTER + INTRA:          -9.919
REMARK INTER:                  -8.742
REMARK INTRA:                  -1.177
REMARK UNBOUND:                -1.237
REMARK SMILES COc1cc(CNC(=O)CCCCCC(C)C)ccc1O
REMARK SMILES IDX 10 1 8 2 7 3 9 5 6 6 5 7 3 8 20 9 4 10 19 11 18 12 2 13 1 14
REMARK SMILES IDX 21 15 11 17 12 18 13 19 14 20 15 21 16 22 17 23
REMARK H PARENT 7 4 21 16
REMARK Flexibility Score: inf
ROOT
ATOM      1  C   UNL     1      76.650  87.658  66.240  1.00  0.00     0.100 C 
ENDROOT
BRANCH   1   2
ATOM      2  C   UNL     1      76.831  86.626  65.198  1.00  0.00     0.220 C 
ATOM      3  N   UNL     1      77.148  85.352  65.564  1.00  0.00    -0.352 N 
ATOM      4  H   UNL     1      77.370  85.234  66.542  1.00  0.00     0.163 HD
ATOM      5  O   UNL     1      76.646  86.937  63.996  1.00  0.00    -0.275 OA
BRANCH   3   6
ATOM      6  C   UNL     1      77.181  84.229  64.683  1.00  0.00     0.151 C 
BRANCH   6   7
ATOM      7  C   UNL     1      76.073  83.265  64.925  1.00  0.00    -0.025 A 
ATOM      8  C   UNL     1      73.781  82.495  64.478  1.00  0.00     0.160 A 
ATOM      9  C   UNL     1      73.987  81.392  65.332  1.00  0.00     0.157 A 
ATOM     10  C   UNL     1      74.818  83.434  64.294  1.00  0.00     0.056 A 
ATOM     11  C   UNL     1      75.222  81.228  65.985  1.00  0.00     0.050 A 
ATOM     12  C   UNL     1      76.259  82.153  65.779  1.00  0.00     0.009 A 
BRANCH   8  13
ATOM     13  O   UNL     1      72.579  82.684  63.848  1.00  0.00    -0.493 OA
ATOM     14  C   UNL     1      72.019  83.997  64.044  1.00  0.00     0.278 C 
ENDBRANCH   8  13
BRANCH   9  15
ATOM     15  O   UNL     1      72.996  80.484  65.517  1.00  0.00    -0.504 OA
ATOM     16  H   UNL     1      72.185  80.810  65.121  1.00  0.00     0.293 HD
ENDBRANCH   9  15
ENDBRANCH   6   7
ENDBRANCH   3   6
ENDBRANCH   1   2
BRANCH   1  17
ATOM     17  C   UNL     1      77.291  87.301  67.609  1.00  0.00     0.010 C 
BRANCH  17  18
ATOM     18  C   UNL     1      76.493  87.914  68.792  1.00  0.00     0.001 C 
BRANCH  18  19
ATOM     19  C   UNL     1      76.457  87.004  70.048  1.00  0.00     0.000 C 
BRANCH  19  20
ATOM     20  C   UNL     1      77.573  85.920  70.021  1.00  0.00     0.003 C 
BRANCH  20  21
ATOM     21  C   UNL     1      77.069  84.449  70.188  1.00  0.00    -0.017 C 
ATOM     22  C   UNL     1      76.478  83.910  68.852  1.00  0.00     0.007 C 
ATOM     23  C   UNL     1      76.028  84.293  71.334  1.00  0.00     0.007 C 
ENDBRANCH  20  21
ENDBRANCH  19  20
ENDBRANCH  18  19
ENDBRANCH  17  18
ENDBRANCH   1  17
TORSDOF 10
ENDMDL
MODEL 3
REMARK VINA RESULT:    -5.527      4.359      6.023
REMARK INTER + INTRA:          -9.833
REMARK INTER:                  -9.233
REMARK INTRA:                  -0.600
REMARK UNBOUND:                -1.237
REMARK SMILES COc1cc(CNC(=O)CCCCCC(C)C)ccc1O
REMARK SMILES IDX 10 1 8 2 7 3 9 5 6 6 5 7 3 8 20 9 4 10 19 11 18 12 2 13 1 14
REMARK SMILES IDX 21 15 11 17 12 18 13 19 14 20 15 21 16 22 17 23
REMARK H PARENT 7 4 21 16
REMARK Flexibility Score: inf
ROOT
ATOM      1  C   UNL     1      92.540 100.303  74.369  1.00  0.00     0.100 C 
ENDROOT
BRANCH   1   2
ATOM      2  C   UNL     1      93.442  99.514  75.233  1.00  0.00     0.220 C 
ATOM      3  N   UNL     1      93.230  98.175  75.375  1.00  0.00    -0.352 N 
ATOM      4  H   UNL     1      92.370  97.835  74.971  1.00  0.00     0.163 HD
ATOM      5  O   UNL     1      94.412 100.087  75.786  1.00  0.00    -0.275 OA
BRANCH   3   6
ATOM      6  C   UNL     1      94.116  97.268  76.032  1.00  0.00     0.151 C 
BRANCH   6   7
ATOM      7  C   UNL     1      93.412  96.304  76.920  1.00  0.00    -0.025 A 
ATOM      8  C   UNL     1      91.541  94.764  77.337  1.00  0.00     0.160 A 
ATOM      9  C   UNL     1      92.107  94.417  78.583  1.00  0.00     0.157 A 
ATOM     10  C   UNL     1      92.187  95.718  76.523  1.00  0.00     0.056 A 
ATOM     11  C   UNL     1      93.311  95.013  78.999  1.00  0.00     0.050 A 
ATOM     12  C   UNL     1      93.962  95.945  78.173  1.00  0.00     0.009 A 
BRANCH   8  13
ATOM     13  O   UNL     1      90.359  94.210  76.922  1.00  0.00    -0.493 OA
ATOM     14  C   UNL     1      89.198  94.992  77.262  1.00  0.00     0.278 C 
ENDBRANCH   8  13
BRANCH   9  15
ATOM     15  O   UNL     1      91.493  93.502  79.374  1.00  0.00    -0.504 OA
ATOM     16  H   UNL     1      92.004  92.690  79.380  1.00  0.00     0.293 HD
ENDBRANCH   9  15
ENDBRANCH   6   7
ENDBRANCH   3   6
ENDBRANCH   1   2
BRANCH   1  17
ATOM     17  C   UNL     1      92.295  99.684  72.967  1.00  0.00     0.010 C 
BRANCH  17  18
ATOM     18  C   UNL     1      91.286 100.526  72.138  1.00  0.00     0.001 C 
BRANCH  18  19
ATOM     19  C   UNL     1      90.902  99.870  70.786  1.00  0.00     0.000 C 
BRANCH  19  20
ATOM     20  C   UNL     1      89.361  99.838  70.563  1.00  0.00     0.003 C 
BRANCH  20  21
ATOM     21  C   UNL     1      88.784  98.449  70.137  1.00  0.00    -0.017 C 
ATOM     22  C   UNL     1      89.734  97.295  70.574  1.00  0.00     0.007 C 
ATOM     23  C   UNL     1      88.498  98.357  68.610  1.00  0.00     0.007 C 
ENDBRANCH  20  21
ENDBRANCH  19  20
ENDBRANCH  18  19
ENDBRANCH  17  18
ENDBRANCH   1  17
TORSDOF 10
ENDMDL
MODEL 4
REMARK VINA RESULT:    -5.495      2.695      3.986
REMARK INTER + INTRA:          -9.783
REMARK INTER:                  -8.725
REMARK INTRA:                  -1.058
REMARK UNBOUND:                -1.237
REMARK SMILES COc1cc(CNC(=O)CCCCCC(C)C)ccc1O
REMARK SMILES IDX 10 1 8 2 7 3 9 5 6 6 5 7 3 8 20 9 4 10 19 11 18 12 2 13 1 14
REMARK SMILES IDX 21 15 11 17 12 18 13 19 14 20 15 21 16 22 17 23
REMARK H PARENT 7 4 21 16
REMARK Flexibility Score: inf
ROOT
ATOM      1  C   UNL     1      93.379  94.089  79.458  1.00  0.00     0.100 C 
ENDROOT
BRANCH   1   2
ATOM      2  C   UNL     1      94.646  94.504  80.095  1.00  0.00     0.220 C 
ATOM      3  N   UNL     1      94.681  94.718  81.440  1.00  0.00    -0.352 N 
ATOM      4  H   UNL     1      93.779  94.703  81.896  1.00  0.00     0.163 HD
ATOM      5  O   UNL     1      95.678  94.610  79.387  1.00  0.00    -0.275 OA
BRANCH   3   6
ATOM      6  C   UNL     1      95.863  94.951  82.206  1.00  0.00     0.151 C 
BRANCH   6   7
ATOM      7  C   UNL     1      96.061  96.384  82.555  1.00  0.00    -0.025 A 
ATOM      8  C   UNL     1      97.531  98.221  83.269  1.00  0.00     0.160 A 
ATOM      9  C   UNL     1      96.453  99.125  83.154  1.00  0.00     0.157 A 
ATOM     10  C   UNL     1      97.324  96.854  82.987  1.00  0.00     0.056 A 
ATOM     11  C   UNL     1      95.186  98.663  82.751  1.00  0.00     0.050 A 
ATOM     12  C   UNL     1      94.993  97.305  82.448  1.00  0.00     0.009 A 
BRANCH   8  13
ATOM     13  O   UNL     1      98.767  98.647  83.679  1.00  0.00    -0.493 OA
ATOM     14  C   UNL     1      99.775  98.582  82.652  1.00  0.00     0.278 C 
ENDBRANCH   8  13
BRANCH   9  15
ATOM     15  O   UNL     1      96.641 100.441  83.425  1.00  0.00    -0.504 OA
ATOM     16  H   UNL     1      97.548 100.584  83.703  1.00  0.00     0.293 HD
ENDBRANCH   9  15
ENDBRANCH   6   7
ENDBRANCH   3   6
ENDBRANCH   1   2
BRANCH   1  17
ATOM     17  C   UNL     1      93.300  94.392  77.937  1.00  0.00     0.010 C 
BRANCH  17  18
ATOM     18  C   UNL     1      92.722  95.808  77.664  1.00  0.00     0.001 C 
BRANCH  18  19
ATOM     19  C   UNL     1      91.423  95.790  76.816  1.00  0.00     0.000 C 
BRANCH  19  20
ATOM     20  C   UNL     1      90.167  95.454  77.671  1.00  0.00     0.003 C 
BRANCH  20  21
ATOM     21  C   UNL     1      89.563  94.032  77.427  1.00  0.00    -0.017 C 
ATOM     22  C   UNL     1      89.775  93.118  78.670  1.00  0.00     0.007 C 
ATOM     23  C   UNL     1      90.134  93.344  76.154  1.00  0.00     0.007 C 
ENDBRANCH  20  21
ENDBRANCH  19  20
ENDBRANCH  18  19
ENDBRANCH  17  18
ENDBRANCH   1  17
TORSDOF 10
ENDMDL
MODEL 5
REMARK VINA RESULT:    -5.475      4.011      5.670
REMARK INTER + INTRA:          -9.752
REMARK INTER:                  -9.199
REMARK INTRA:                  -0.553
REMARK UNBOUND:                -1.237
REMARK SMILES COc1cc(CNC(=O)CCCCCC(C)C)ccc1O
REMARK SMILES IDX 10 1 8 2 7 3 9 5 6 6 5 7 3 8 20 9 4 10 19 11 18 12 2 13 1 14
REMARK SMILES IDX 21 15 11 17 12 18 13 19 14 20 15 21 16 22 17 23
REMARK H PARENT 7 4 21 16
REMARK Flexibility Score: inf
ROOT
ATOM      1  C   UNL     1      92.993 100.223  74.297  1.00  0.00     0.100 C 
ENDROOT
BRANCH   1   2
ATOM      2  C   UNL     1      93.927  99.233  74.873  1.00  0.00     0.220 C 
ATOM      3  N   UNL     1      93.446  98.037  75.316  1.00  0.00    -0.352 N 
ATOM      4  H   UNL     1      92.438  97.966  75.338  1.00  0.00     0.163 HD
ATOM      5  O   UNL     1      95.153  99.499  74.903  1.00  0.00    -0.275 OA
BRANCH   3   6
ATOM      6  C   UNL     1      94.248  96.931  75.731  1.00  0.00     0.151 C 
BRANCH   6   7
ATOM      7  C   UNL     1      93.542  96.015  76.666  1.00  0.00    -0.025 A 
ATOM      8  C   UNL     1      93.585  94.479  78.586  1.00  0.00     0.160 A 
ATOM      9  C   UNL     1      92.186  94.321  78.488  1.00  0.00     0.157 A 
ATOM     10  C   UNL     1      94.256  95.309  77.663  1.00  0.00     0.056 A 
ATOM     11  C   UNL     1      91.469  94.997  77.484  1.00  0.00     0.050 A 
ATOM     12  C   UNL     1      92.140  95.842  76.583  1.00  0.00     0.009 A 
BRANCH   8  13
ATOM     13  O   UNL     1      94.304  93.814  79.544  1.00  0.00    -0.493 OA
ATOM     14  C   UNL     1      95.731  93.944  79.395  1.00  0.00     0.278 C 
ENDBRANCH   8  13
BRANCH   9  15
ATOM     15  O   UNL     1      91.531  93.524  79.369  1.00  0.00    -0.504 OA
ATOM     16  H   UNL     1      92.169  93.015  79.876  1.00  0.00     0.293 HD
ENDBRANCH   9  15
ENDBRANCH   6   7
ENDBRANCH   3   6
ENDBRANCH   1   2
BRANCH   1  17
ATOM     17  C   UNL     1      92.153  99.690  73.105  1.00  0.00     0.010 C 
BRANCH  17  18
ATOM     18  C   UNL     1      91.662 100.845  72.189  1.00  0.00     0.001 C 
BRANCH  18  19
ATOM     19  C   UNL     1      90.307 100.547  71.495  1.00  0.00     0.000 C 
BRANCH  19  20
ATOM     20  C   UNL     1      90.436  99.448  70.400  1.00  0.00     0.003 C 
BRANCH  20  21
ATOM     21  C   UNL     1      89.210  98.484  70.284  1.00  0.00    -0.017 C 
ATOM     22  C   UNL     1      89.634  97.011  70.556  1.00  0.00     0.007 C 
ATOM     23  C   UNL     1      88.488  98.587  68.909  1.00  0.00     0.007 C 
ENDBRANCH  20  21
ENDBRANCH  19  20
ENDBRANCH  18  19
ENDBRANCH  17  18
ENDBRANCH   1  17
TORSDOF 10
ENDMDL
MODEL 6
REMARK VINA RESULT:    -5.387     22.627     23.953
REMARK INTER + INTRA:          -9.615
REMARK INTER:                  -7.973
REMARK INTRA:                  -1.642
REMARK UNBOUND:                -1.237
REMARK SMILES COc1cc(CNC(=O)CCCCCC(C)C)ccc1O
REMARK SMILES IDX 10 1 8 2 7 3 9 5 6 6 5 7 3 8 20 9 4 10 19 11 18 12 2 13 1 14
REMARK SMILES IDX 21 15 11 17 12 18 13 19 14 20 15 21 16 22 17 23
REMARK H PARENT 7 4 21 16
REMARK Flexibility Score: inf
ROOT
ATOM      1  C   UNL     1      74.017  89.917  68.312  1.00  0.00     0.100 C 
ENDROOT
BRANCH   1   2
ATOM      2  C   UNL     1      74.453  89.312  67.036  1.00  0.00     0.220 C 
ATOM      3  N   UNL     1      75.617  88.603  66.994  1.00  0.00    -0.352 N 
ATOM      4  H   UNL     1      76.176  88.655  67.834  1.00  0.00     0.163 HD
ATOM      5  O   UNL     1      73.720  89.429  66.024  1.00  0.00    -0.275 OA
BRANCH   3   6
ATOM      6  C   UNL     1      76.067  87.828  65.884  1.00  0.00     0.151 C 
BRANCH   6   7
ATOM      7  C   UNL     1      76.811  86.605  66.288  1.00  0.00    -0.025 A 
ATOM      8  C   UNL     1      77.484  84.278  65.861  1.00  0.00     0.160 A 
ATOM      9  C   UNL     1      78.282  84.298  67.024  1.00  0.00     0.157 A 
ATOM     10  C   UNL     1      76.739  85.425  65.511  1.00  0.00     0.056 A 
ATOM     11  C   UNL     1      78.341  85.457  67.819  1.00  0.00     0.050 A 
ATOM     12  C   UNL     1      77.616  86.603  67.452  1.00  0.00     0.009 A 
BRANCH   8  13
ATOM     13  O   UNL     1      77.398  83.153  65.084  1.00  0.00    -0.493 OA
ATOM     14  C   UNL     1      76.292  82.294  65.424  1.00  0.00     0.278 C 
ENDBRANCH   8  13
BRANCH   9  15
ATOM     15  O   UNL     1      79.000  83.200  67.371  1.00  0.00    -0.504 OA
ATOM     16  H   UNL     1      79.866  83.240  66.958  1.00  0.00     0.293 HD
ENDBRANCH   9  15
ENDBRANCH   6   7
ENDBRANCH   3   6
ENDBRANCH   1   2
BRANCH   1  17
ATOM     17  C   UNL     1      75.108  89.936  69.415  1.00  0.00     0.010 C 
BRANCH  17  18
ATOM     18  C   UNL     1      74.498  89.721  70.828  1.00  0.00     0.001 C 
BRANCH  18  19
ATOM     19  C   UNL     1      74.329  88.225  71.205  1.00  0.00     0.000 C 
BRANCH  19  20
ATOM     20  C   UNL     1      75.348  87.313  70.463  1.00  0.00     0.003 C 
BRANCH  20  21
ATOM     21  C   UNL     1      74.875  85.840  70.238  1.00  0.00    -0.017 C 
ATOM     22  C   UNL     1      76.011  84.832  70.583  1.00  0.00     0.007 C 
ATOM     23  C   UNL     1      74.356  85.585  68.793  1.00  0.00     0.007 C 
ENDBRANCH  20  21
ENDBRANCH  19  20
ENDBRANCH  18  19
ENDBRANCH  17  18
ENDBRANCH   1  17
TORSDOF 10
ENDMDL
MODEL 7
REMARK VINA RESULT:    -5.359     13.327     15.467
REMARK INTER + INTRA:          -9.572
REMARK INTER:                  -8.846
REMARK INTRA:                  -0.726
REMARK UNBOUND:                -1.237
REMARK SMILES COc1cc(CNC(=O)CCCCCC(C)C)ccc1O
REMARK SMILES IDX 10 1 8 2 7 3 9 5 6 6 5 7 3 8 20 9 4 10 19 11 18 12 2 13 1 14
REMARK SMILES IDX 21 15 11 17 12 18 13 19 14 20 15 21 16 22 17 23
REMARK H PARENT 7 4 21 16
REMARK Flexibility Score: inf
ROOT
ATOM      1  C   UNL     1      99.407  81.190  83.747  1.00  0.00     0.100 C 
ENDROOT
BRANCH   1   2
ATOM      2  C   UNL     1      99.627  81.044  82.293  1.00  0.00     0.220 C 
ATOM      3  N   UNL     1     100.141  82.090  81.586  1.00  0.00    -0.352 N 
ATOM      4  H   UNL     1     100.214  82.956  82.100  1.00  0.00     0.163 HD
ATOM      5  O   UNL     1      99.375  79.943  81.747  1.00  0.00    -0.275 OA
BRANCH   3   6
ATOM      6  C   UNL     1     100.563  82.032  80.223  1.00  0.00     0.151 C 
BRANCH   6   7
ATOM      7  C   UNL     1      99.613  82.692  79.288  1.00  0.00    -0.025 A 
ATOM      8  C   UNL     1      99.101  83.615  77.067  1.00  0.00     0.160 A 
ATOM      9  C   UNL     1      97.781  83.888  77.487  1.00  0.00     0.157 A 
ATOM     10  C   UNL     1     100.013  83.037  77.976  1.00  0.00     0.056 A 
ATOM     11  C   UNL     1      97.380  83.573  78.799  1.00  0.00     0.050 A 
ATOM     12  C   UNL     1      98.287  82.975  79.691  1.00  0.00     0.009 A 
BRANCH   8  13
ATOM     13  O   UNL     1      99.517  83.932  75.801  1.00  0.00    -0.493 OA
ATOM     14  C   UNL     1     100.935  83.777  75.599  1.00  0.00     0.278 C 
ENDBRANCH   8  13
BRANCH   9  15
ATOM     15  O   UNL     1      96.897  84.446  76.623  1.00  0.00    -0.504 OA
ATOM     16  H   UNL     1      96.096  84.685  77.094  1.00  0.00     0.293 HD
ENDBRANCH   9  15
ENDBRANCH   6   7
ENDBRANCH   3   6
ENDBRANCH   1   2
BRANCH   1  17
ATOM     17  C   UNL     1      97.977  81.655  84.133  1.00  0.00     0.010 C 
BRANCH  17  18
ATOM     18  C   UNL     1      97.724  83.132  83.721  1.00  0.00     0.001 C 
BRANCH  18  19
ATOM     19  C   UNL     1      97.715  84.114  84.922  1.00  0.00     0.000 C 
BRANCH  19  20
ATOM     20  C   UNL     1      96.277  84.588  85.282  1.00  0.00     0.003 C 
BRANCH  20  21
ATOM     21  C   UNL     1      95.705  84.008  86.616  1.00  0.00    -0.017 C 
ATOM     22  C   UNL     1      95.061  82.609  86.382  1.00  0.00     0.007 C 
ATOM     23  C   UNL     1      94.680  84.959  87.300  1.00  0.00     0.007 C 
ENDBRANCH  20  21
ENDBRANCH  19  20
ENDBRANCH  18  19
ENDBRANCH  17  18
ENDBRANCH   1  17
TORSDOF 10
ENDMDL
MODEL 8
REMARK VINA RESULT:    -5.304     17.515     20.843
REMARK INTER + INTRA:          -9.486
REMARK INTER:                  -8.670
REMARK INTRA:                  -0.816
REMARK UNBOUND:                -1.237
REMARK SMILES COc1cc(CNC(=O)CCCCCC(C)C)ccc1O
REMARK SMILES IDX 10 1 8 2 7 3 9 5 6 6 5 7 3 8 20 9 4 10 19 11 18 12 2 13 1 14
REMARK SMILES IDX 21 15 11 17 12 18 13 19 14 20 15 21 16 22 17 23
REMARK H PARENT 7 4 21 16
REMARK Flexibility Score: inf
ROOT
ATOM      1  C   UNL     1      74.563  88.526  71.121  1.00  0.00     0.100 C 
ENDROOT
BRANCH   1   2
ATOM      2  C   UNL     1      74.403  89.941  70.724  1.00  0.00     0.220 C 
ATOM      3  N   UNL     1      74.832  90.924  71.564  1.00  0.00    -0.352 N 
ATOM      4  H   UNL     1      75.118  90.607  72.480  1.00  0.00     0.163 HD
ATOM      5  O   UNL     1      73.912  90.206  69.600  1.00  0.00    -0.275 OA
BRANCH   3   6
ATOM      6  C   UNL     1      74.899  92.313  71.238  1.00  0.00     0.151 C 
BRANCH   6   7
ATOM      7  C   UNL     1      76.221  92.922  71.543  1.00  0.00    -0.025 A 
ATOM      8  C   UNL     1      77.732  94.862  71.516  1.00  0.00     0.160 A 
ATOM      9  C   UNL     1      78.716  94.102  72.183  1.00  0.00     0.157 A 
ATOM     10  C   UNL     1      76.499  94.262  71.184  1.00  0.00     0.056 A 
ATOM     11  C   UNL     1      78.461  92.760  72.521  1.00  0.00     0.050 A 
ATOM     12  C   UNL     1      77.222  92.176  72.209  1.00  0.00     0.009 A 
BRANCH   8  13
ATOM     13  O   UNL     1      77.968  96.164  71.161  1.00  0.00    -0.493 OA
ATOM     14  C   UNL     1      78.290  96.338  69.767  1.00  0.00     0.278 C 
ENDBRANCH   8  13
BRANCH   9  15
ATOM     15  O   UNL     1      79.906  94.668  72.505  1.00  0.00    -0.504 OA
ATOM     16  H   UNL     1      80.456  94.727  71.721  1.00  0.00     0.293 HD
ENDBRANCH   9  15
ENDBRANCH   6   7
ENDBRANCH   3   6
ENDBRANCH   1   2
BRANCH   1  17
ATOM     17  C   UNL     1      75.657  87.761  70.330  1.00  0.00     0.010 C 
BRANCH  17  18
ATOM     18  C   UNL     1      75.311  86.253  70.186  1.00  0.00     0.001 C 
BRANCH  18  19
ATOM     19  C   UNL     1      76.562  85.338  70.117  1.00  0.00     0.000 C 
BRANCH  19  20
ATOM     20  C   UNL     1      77.838  86.117  69.683  1.00  0.00     0.003 C 
BRANCH  20  21
ATOM     21  C   UNL     1      78.287  85.875  68.205  1.00  0.00    -0.017 C 
ATOM     22  C   UNL     1      77.703  86.968  67.261  1.00  0.00     0.007 C 
ATOM     23  C   UNL     1      77.908  84.459  67.681  1.00  0.00     0.007 C 
ENDBRANCH  20  21
ENDBRANCH  19  20
ENDBRANCH  18  19
ENDBRANCH  17  18
ENDBRANCH   1  17
TORSDOF 10
ENDMDL
MODEL 9
REMARK VINA RESULT:    -5.299      2.134      5.182
REMARK INTER + INTRA:          -9.479
REMARK INTER:                  -7.963
REMARK INTRA:                  -1.516
REMARK UNBOUND:                -1.237
REMARK SMILES COc1cc(CNC(=O)CCCCCC(C)C)ccc1O
REMARK SMILES IDX 10 1 8 2 7 3 9 5 6 6 5 7 3 8 20 9 4 10 19 11 18 12 2 13 1 14
REMARK SMILES IDX 21 15 11 17 12 18 13 19 14 20 15 21 16 22 17 23
REMARK H PARENT 7 4 21 16
REMARK Flexibility Score: inf
ROOT
ATOM      1  C   UNL     1      96.147  99.426  77.585  1.00  0.00     0.100 C 
ENDROOT
BRANCH   1   2
ATOM      2  C   UNL     1      95.276  98.624  76.701  1.00  0.00     0.220 C 
ATOM      3  N   UNL     1      95.510  97.288  76.564  1.00  0.00    -0.352 N 
ATOM      4  H   UNL     1      96.366  96.961  76.989  1.00  0.00     0.163 HD
ATOM      5  O   UNL     1      94.311  99.184  76.126  1.00  0.00    -0.275 OA
BRANCH   3   6
ATOM      6  C   UNL     1      94.652  96.369  75.887  1.00  0.00     0.151 C 
BRANCH   6   7
ATOM      7  C   UNL     1      93.761  95.614  76.809  1.00  0.00    -0.025 A 
ATOM      8  C   UNL     1      91.701  94.332  77.209  1.00  0.00     0.160 A 
ATOM      9  C   UNL     1      92.096  94.120  78.547  1.00  0.00     0.157 A 
ATOM     10  C   UNL     1      92.527  95.093  76.354  1.00  0.00     0.056 A 
ATOM     11  C   UNL     1      93.309  94.656  79.017  1.00  0.00     0.050 A 
ATOM     12  C   UNL     1      94.138  95.393  78.154  1.00  0.00     0.009 A 
BRANCH   8  13
ATOM     13  O   UNL     1      90.515  93.835  76.736  1.00  0.00    -0.493 OA
ATOM     14  C   UNL     1      89.415  94.760  76.838  1.00  0.00     0.278 C 
ENDBRANCH   8  13
BRANCH   9  15
ATOM     15  O   UNL     1      91.309  93.391  79.377  1.00  0.00    -0.504 OA
ATOM     16  H   UNL     1      91.128  93.897  80.173  1.00  0.00     0.293 HD
ENDBRANCH   9  15
ENDBRANCH   6   7
ENDBRANCH   3   6
ENDBRANCH   1   2
BRANCH   1  17
ATOM     17  C   UNL     1      96.322  98.840  79.012  1.00  0.00     0.010 C 
BRANCH  17  18
ATOM     18  C   UNL     1      97.777  98.352  79.256  1.00  0.00     0.001 C 
BRANCH  18  19
ATOM     19  C   UNL     1      97.912  97.402  80.475  1.00  0.00     0.000 C 
BRANCH  19  20
ATOM     20  C   UNL     1      96.910  96.213  80.408  1.00  0.00     0.003 C 
BRANCH  20  21
ATOM     21  C   UNL     1      96.058  95.994  81.700  1.00  0.00    -0.017 C 
ATOM     22  C   UNL     1      95.709  94.487  81.886  1.00  0.00     0.007 C 
ATOM     23  C   UNL     1      94.759  96.849  81.720  1.00  0.00     0.007 C 
ENDBRANCH  20  21
ENDBRANCH  19  20
ENDBRANCH  18  19
ENDBRANCH  17  18
ENDBRANCH   1  17
TORSDOF 10
ENDMDL
MODEL 10
REMARK VINA RESULT:    -4.954     24.224     28.059
REMARK INTER + INTRA:          -8.941
REMARK INTER:                  -8.168
REMARK INTRA:                  -0.774
REMARK UNBOUND:                -1.237
REMARK SMILES COc1cc(CNC(=O)CCCCCC(C)C)ccc1O
REMARK SMILES IDX 10 1 8 2 7 3 9 5 6 6 5 7 3 8 20 9 4 10 19 11 18 12 2 13 1 14
REMARK SMILES IDX 21 15 11 17 12 18 13 19 14 20 15 21 16 22 17 23
REMARK H PARENT 7 4 21 16
REMARK Flexibility Score: inf
ROOT
ATOM      1  C   UNL     1      76.274  83.203  65.343  1.00  0.00     0.100 C 
ENDROOT
BRANCH   1   2
ATOM      2  C   UNL     1      75.182  82.234  65.571  1.00  0.00     0.220 C 
ATOM      3  N   UNL     1      74.031  82.341  64.849  1.00  0.00    -0.352 N 
ATOM      4  H   UNL     1      73.958  83.178  64.287  1.00  0.00     0.163 HD
ATOM      5  O   UNL     1      75.354  81.305  66.397  1.00  0.00    -0.275 OA
BRANCH   3   6
ATOM      6  C   UNL     1      72.973  81.382  64.841  1.00  0.00     0.151 C 
BRANCH   6   7
ATOM      7  C   UNL     1      71.663  81.954  65.254  1.00  0.00    -0.025 A 
ATOM      8  C   UNL     1      70.101  82.647  67.022  1.00  0.00     0.160 A 
ATOM      9  C   UNL     1      69.196  83.104  66.040  1.00  0.00     0.157 A 
ATOM     10  C   UNL     1      71.320  82.058  66.623  1.00  0.00     0.056 A 
ATOM     11  C   UNL     1      69.516  82.981  64.676  1.00  0.00     0.050 A 
ATOM     12  C   UNL     1      70.742  82.415  64.285  1.00  0.00     0.009 A 
BRANCH   8  13
ATOM     13  O   UNL     1      69.800  82.740  68.356  1.00  0.00    -0.493 OA
ATOM     14  C   UNL     1      70.453  83.836  69.025  1.00  0.00     0.278 C 
ENDBRANCH   8  13
BRANCH   9  15
ATOM     15  O   UNL     1      68.021  83.670  66.413  1.00  0.00    -0.504 OA
ATOM     16  H   UNL     1      67.519  83.046  66.943  1.00  0.00     0.293 HD
ENDBRANCH   9  15
ENDBRANCH   6   7
ENDBRANCH   3   6
ENDBRANCH   1   2
BRANCH   1  17
ATOM     17  C   UNL     1      77.578  82.889  66.125  1.00  0.00     0.010 C 
BRANCH  17  18
ATOM     18  C   UNL     1      78.080  84.126  66.921  1.00  0.00     0.001 C 
BRANCH  18  19
ATOM     19  C   UNL     1      76.974  84.796  67.778  1.00  0.00     0.000 C 
BRANCH  19  20
ATOM     20  C   UNL     1      76.679  84.002  69.084  1.00  0.00     0.003 C 
BRANCH  20  21
ATOM     21  C   UNL     1      76.529  84.878  70.370  1.00  0.00    -0.017 C 
ATOM     22  C   UNL     1      75.921  84.047  71.539  1.00  0.00     0.007 C 
ATOM     23  C   UNL     1      75.682  86.162  70.131  1.00  0.00     0.007 C 
ENDBRANCH  20  21
ENDBRANCH  19  20
ENDBRANCH  18  19
ENDBRANCH  17  18
ENDBRANCH   1  17
TORSDOF 10
ENDMDL
