MODEL 1
REMARK VINA RESULT:    -7.294      0.000      0.000
REMARK INTER + INTRA:         -13.477
REMARK INTER:                 -12.838
REMARK INTRA:                  -0.639
REMARK UNBOUND:                -0.639
REMARK SMILES C=C(C)[C@]12C[C@@H](C)[C@@]34O[C@](Cc5ccccc5)(O[C@@H]1[C@@H]3C=C(COC(=O)Cc1ccc(O)c(OC)c1)C[C@]1(O)C(=O)C(C)=C[C@@H]41)O2
REMARK SMILES IDX 23 1 22 2 21 3 20 4 9 5 8 6 10 7 6 8 18 9 46 10 19 11 5 12
REMARK SMILES IDX 7 13 4 14 45 15 38 16 44 17 40 18 42 20 41 21 43 22 39 23
REMARK SMILES IDX 11 25 12 26 13 27 17 28 14 29 16 30 15 31 2 32 3 33 1 34
REMARK SMILES IDX 37 35 24 37 25 38 26 39 27 40 28 41 36 42 29 43 33 44 30 45
REMARK SMILES IDX 31 46 34 47 35 48 32 49
REMARK H PARENT 39 24 32 50
REMARK Flexibility Score: 90.00
ROOT
ATOM      1  C   UNL     1      96.335  81.567  83.840  1.00  0.00     0.264 C 
ENDROOT
BRANCH   1   2
ATOM      2  C   UNL     1      95.094  82.019  84.573  1.00  0.00    -0.033 C 
ATOM      3  C   UNL     1      93.955  81.310  84.441  1.00  0.00    -0.015 C 
BRANCH   3   4
ATOM      4  C   UNL     1      92.571  81.593  85.002  1.00  0.00     0.078 C 
ATOM      5  O   UNL     1      92.431  80.440  87.187  1.00  0.00    -0.319 OA
ATOM      6  C   UNL     1      92.415  81.760  86.560  1.00  0.00     0.095 C 
ATOM      7  C   UNL     1      91.667  79.426  86.508  1.00  0.00     0.289 C 
ATOM      8  C   UNL     1      91.015  82.451  86.830  1.00  0.00     0.023 C 
ATOM      9  O   UNL     1      92.106  79.262  85.162  1.00  0.00    -0.320 OA
ATOM     10  O   UNL     1      90.283  79.757  86.423  1.00  0.00    -0.313 OA
ATOM     11  C   UNL     1      91.592  80.469  84.580  1.00  0.00     0.170 C 
ATOM     12  C   UNL     1      89.952  82.022  85.773  1.00  0.00     0.049 C 
ATOM     13  C   UNL     1      90.442  82.250  88.242  1.00  0.00     0.011 C 
ATOM     14  C   UNL     1      90.206  80.604  85.258  1.00  0.00     0.122 C 
BRANCH   6  15
ATOM     15  C   UNL     1      93.650  82.491  87.162  1.00  0.00     0.086 C 
ATOM     16  C   UNL     1      94.183  83.697  86.361  1.00  0.00     0.140 CG0
ATOM     17  C   UNL     1      93.583  83.010  88.572  1.00  0.00    -0.010 C 
ATOM     18  C   UNL     1      94.667  84.627  87.455  1.00  0.00     0.190 C 
ATOM     19  G   UNL     1      95.299  83.300  85.396  1.00  0.00     0.000 G0
ATOM     20  C   UNL     1      94.169  84.194  88.774  1.00  0.00    -0.008 C 
ATOM     21  O   UNL     1      95.336  85.634  87.283  1.00  0.00    -0.291 OA
ATOM     22  C   UNL     1      94.367  84.956  90.024  1.00  0.00     0.048 C 
BRANCH  16  23
ATOM     23  O   UNL     1      93.172  84.444  85.705  1.00  0.00    -0.381 OA
ATOM     24  H   UNL     1      92.327  84.279  86.156  1.00  0.00     0.212 HD
ENDBRANCH  16  23
ENDBRANCH   6  15
BRANCH   7  25
ATOM     25  C   UNL     1      91.830  78.122  87.263  1.00  0.00     0.135 C 
BRANCH  25  26
ATOM     26  C   UNL     1      91.319  76.944  86.472  1.00  0.00    -0.040 A 
ATOM     27  C   UNL     1      89.981  76.563  86.574  1.00  0.00     0.004 A 
ATOM     28  C   UNL     1      92.184  76.235  85.639  1.00  0.00     0.004 A 
ATOM     29  C   UNL     1      89.508  75.473  85.843  1.00  0.00     0.000 A 
ATOM     30  C   UNL     1      91.711  75.145  84.908  1.00  0.00     0.000 A 
ATOM     31  C   UNL     1      90.372  74.764  85.011  1.00  0.00     0.000 A 
ENDBRANCH  25  26
ENDBRANCH   7  25
BRANCH  14  32
ATOM     32  C   UNL     1      89.103  80.104  84.385  1.00  0.00    -0.046 C 
ATOM     33  C   UNL     1      87.793  80.827  84.492  1.00  0.00     0.042 C 
ATOM     34  C   UNL     1      89.273  79.067  83.551  1.00  0.00     0.010 C 
ENDBRANCH  14  32
ENDBRANCH   3   4
BRANCH   2  35
ATOM     35  C   UNL     1      95.316  83.268  85.405  1.00  0.00     0.078 CG0
ATOM     36  G   UNL     1      94.184  83.697  86.338  1.00  0.00     0.000 G0
ENDBRANCH   2  35
ENDBRANCH   1   2
BRANCH   1  37
ATOM     37  O   UNL     1      95.985  80.581  82.893  1.00  0.00    -0.461 OA
BRANCH  37  38
ATOM     38  C   UNL     1      97.018  79.820  82.398  1.00  0.00     0.310 C 
ATOM     39  O   UNL     1      97.159  78.619  82.586  1.00  0.00    -0.252 OA
BRANCH  38  40
ATOM     40  C   UNL     1      97.948  80.694  81.590  1.00  0.00     0.158 C 
BRANCH  40  41
ATOM     41  C   UNL     1      97.711  80.589  80.105  1.00  0.00    -0.033 A 
ATOM     42  C   UNL     1      97.474  81.741  79.354  1.00  0.00     0.054 A 
ATOM     43  C   UNL     1      97.730  79.342  79.482  1.00  0.00     0.008 A 
ATOM     44  C   UNL     1      97.255  81.644  77.979  1.00  0.00     0.160 A 
ATOM     45  C   UNL     1      97.511  79.245  78.107  1.00  0.00     0.050 A 
ATOM     46  C   UNL     1      97.273  80.395  77.356  1.00  0.00     0.157 A 
BRANCH  44  47
ATOM     47  O   UNL     1      97.023  82.775  77.257  1.00  0.00    -0.493 OA
ATOM     48  C   UNL     1      95.678  83.020  76.849  1.00  0.00     0.278 C 
ENDBRANCH  44  47
BRANCH  46  49
ATOM     49  O   UNL     1      97.062  80.289  76.015  1.00  0.00    -0.504 OA
ATOM     50  H   UNL     1      96.209  80.700  75.795  1.00  0.00     0.293 HD
ENDBRANCH  46  49
ENDBRANCH  40  41
ENDBRANCH  38  40
ENDBRANCH  37  38
ENDBRANCH   1  37
TORSDOF 11
ENDMDL
MODEL 2
REMARK VINA RESULT:    -6.790     16.051     19.801
REMARK INTER + INTRA:         -12.589
REMARK INTER:                 -10.838
REMARK INTRA:                  -1.752
REMARK UNBOUND:                -0.639
REMARK SMILES C=C(C)[C@]12C[C@@H](C)[C@@]34O[C@](Cc5ccccc5)(O[C@@H]1[C@@H]3C=C(COC(=O)Cc1ccc(O)c(OC)c1)C[C@]1(O)C(=O)C(C)=C[C@@H]41)O2
REMARK SMILES IDX 23 1 22 2 21 3 20 4 9 5 8 6 10 7 6 8 18 9 46 10 19 11 5 12
REMARK SMILES IDX 7 13 4 14 45 15 38 16 44 17 40 18 42 20 41 21 43 22 39 23
REMARK SMILES IDX 11 25 12 26 13 27 17 28 14 29 16 30 15 31 2 32 3 33 1 34
REMARK SMILES IDX 37 35 24 37 25 38 26 39 27 40 28 41 36 42 29 43 33 44 30 45
REMARK SMILES IDX 31 46 34 47 35 48 32 49
REMARK H PARENT 39 24 32 50
REMARK Flexibility Score: 90.00
ROOT
ATOM      1  C   UNL     1      86.626  70.613  75.627  1.00  0.00     0.264 C 
ENDROOT
BRANCH   1   2
ATOM      2  C   UNL     1      86.278  69.143  75.663  1.00  0.00    -0.033 C 
ATOM      3  C   UNL     1      85.138  68.721  75.080  1.00  0.00    -0.015 C 
BRANCH   3   4
ATOM      4  C   UNL     1      84.531  67.329  75.044  1.00  0.00     0.078 C 
ATOM      5  O   UNL     1      85.362  66.232  72.988  1.00  0.00    -0.319 OA
ATOM      6  C   UNL     1      85.389  66.152  74.447  1.00  0.00     0.095 C 
ATOM      7  C   UNL     1      84.075  66.528  72.412  1.00  0.00     0.289 C 
ATOM      8  C   UNL     1      84.724  64.790  74.909  1.00  0.00     0.023 C 
ATOM      9  O   UNL     1      83.554  67.756  72.914  1.00  0.00    -0.320 OA
ATOM     10  O   UNL     1      83.100  65.538  72.727  1.00  0.00    -0.313 OA
ATOM     11  C   UNL     1      83.203  67.354  74.247  1.00  0.00     0.170 C 
ATOM     12  C   UNL     1      83.174  64.921  75.024  1.00  0.00     0.049 C 
ATOM     13  C   UNL     1      85.072  63.562  74.052  1.00  0.00     0.011 C 
ATOM     14  C   UNL     1      82.617  65.937  74.026  1.00  0.00     0.122 C 
BRANCH   6  15
ATOM     15  C   UNL     1      86.891  66.322  74.817  1.00  0.00     0.086 C 
ATOM     16  C   UNL     1      87.189  66.764  76.265  1.00  0.00     0.140 CG0
ATOM     17  C   UNL     1      87.838  65.175  74.600  1.00  0.00    -0.010 C 
ATOM     18  C   UNL     1      88.485  66.042  76.566  1.00  0.00     0.190 C 
ATOM     19  G   UNL     1      87.322  68.281  76.389  1.00  0.00     0.000 G0
ATOM     20  C   UNL     1      88.763  65.008  75.551  1.00  0.00    -0.008 C 
ATOM     21  O   UNL     1      89.195  66.237  77.541  1.00  0.00    -0.291 OA
ATOM     22  C   UNL     1      89.887  64.053  75.627  1.00  0.00     0.048 C 
BRANCH  16  23
ATOM     23  O   UNL     1      86.281  66.244  77.222  1.00  0.00    -0.381 OA
ATOM     24  H   UNL     1      85.661  66.949  77.472  1.00  0.00     0.212 HD
ENDBRANCH  16  23
ENDBRANCH   6  15
BRANCH   7  25
ATOM     25  C   UNL     1      84.238  66.618  70.908  1.00  0.00     0.135 C 
BRANCH  25  26
ATOM     26  C   UNL     1      83.029  66.090  70.176  1.00  0.00    -0.040 A 
ATOM     27  C   UNL     1      81.784  66.691  70.363  1.00  0.00     0.004 A 
ATOM     28  C   UNL     1      83.156  65.003  69.312  1.00  0.00     0.004 A 
ATOM     29  C   UNL     1      80.665  66.204  69.686  1.00  0.00     0.000 A 
ATOM     30  C   UNL     1      82.037  64.515  68.636  1.00  0.00     0.000 A 
ATOM     31  C   UNL     1      80.792  65.116  68.823  1.00  0.00     0.000 A 
ENDBRANCH  25  26
ENDBRANCH   7  25
BRANCH  14  32
ATOM     32  C   UNL     1      81.124  65.947  73.990  1.00  0.00    -0.046 C 
ATOM     33  C   UNL     1      80.471  67.296  73.939  1.00  0.00     0.042 C 
ATOM     34  C   UNL     1      80.406  64.813  74.003  1.00  0.00     0.010 C 
ENDBRANCH  14  32
ENDBRANCH   3   4
BRANCH   2  35
ATOM     35  C   UNL     1      87.317  68.303  76.382  1.00  0.00     0.078 CG0
ATOM     36  G   UNL     1      87.185  66.785  76.273  1.00  0.00     0.000 G0
ENDBRANCH   2  35
ENDBRANCH   1   2
BRANCH   1  37
ATOM     37  O   UNL     1      86.849  71.008  74.291  1.00  0.00    -0.461 OA
BRANCH  37  38
ATOM     38  C   UNL     1      85.826  71.695  73.681  1.00  0.00     0.310 C 
ATOM     39  O   UNL     1      85.426  72.802  74.015  1.00  0.00    -0.252 OA
BRANCH  38  40
ATOM     40  C   UNL     1      85.276  70.874  72.539  1.00  0.00     0.158 C 
BRANCH  40  41
ATOM     41  C   UNL     1      86.346  70.396  71.590  1.00  0.00    -0.033 A 
ATOM     42  C   UNL     1      86.811  71.240  70.581  1.00  0.00     0.054 A 
ATOM     43  C   UNL     1      86.871  69.110  71.722  1.00  0.00     0.008 A 
ATOM     44  C   UNL     1      87.801  70.797  69.703  1.00  0.00     0.160 A 
ATOM     45  C   UNL     1      87.861  68.668  70.844  1.00  0.00     0.050 A 
ATOM     46  C   UNL     1      88.325  69.511  69.835  1.00  0.00     0.157 A 
BRANCH  44  47
ATOM     47  O   UNL     1      88.247  71.630  68.722  1.00  0.00    -0.493 OA
ATOM     48  C   UNL     1      87.540  71.608  67.483  1.00  0.00     0.278 C 
ENDBRANCH  44  47
BRANCH  46  49
ATOM     49  O   UNL     1      89.293  69.068  68.984  1.00  0.00    -0.504 OA
ATOM     50  H   UNL     1      89.694  68.263  69.353  1.00  0.00     0.293 HD
ENDBRANCH  46  49
ENDBRANCH  40  41
ENDBRANCH  38  40
ENDBRANCH  37  38
ENDBRANCH   1  37
TORSDOF 11
ENDMDL
MODEL 3
REMARK VINA RESULT:    -6.611     10.036     14.978
REMARK INTER + INTRA:         -12.275
REMARK INTER:                  -9.410
REMARK INTRA:                  -2.865
REMARK UNBOUND:                -0.639
REMARK SMILES C=C(C)[C@]12C[C@@H](C)[C@@]34O[C@](Cc5ccccc5)(O[C@@H]1[C@@H]3C=C(COC(=O)Cc1ccc(O)c(OC)c1)C[C@]1(O)C(=O)C(C)=C[C@@H]41)O2
REMARK SMILES IDX 23 1 22 2 21 3 20 4 9 5 8 6 10 7 6 8 18 9 46 10 19 11 5 12
REMARK SMILES IDX 7 13 4 14 45 15 38 16 44 17 40 18 42 20 41 21 43 22 39 23
REMARK SMILES IDX 11 25 12 26 13 27 17 28 14 29 16 30 15 31 2 32 3 33 1 34
REMARK SMILES IDX 37 35 24 37 25 38 26 39 27 40 28 41 36 42 29 43 33 44 30 45
REMARK SMILES IDX 31 46 34 47 35 48 32 49
REMARK H PARENT 39 24 32 50
REMARK Flexibility Score: 90.00
ROOT
ATOM      1  C   UNL     1     103.727  79.584  74.708  1.00  0.00     0.264 C 
ENDROOT
BRANCH   1   2
ATOM      2  C   UNL     1     102.255  79.389  74.428  1.00  0.00    -0.033 C 
ATOM      3  C   UNL     1     101.368  80.284  74.908  1.00  0.00    -0.015 C 
BRANCH   3   4
ATOM      4  C   UNL     1      99.850  80.273  74.832  1.00  0.00     0.078 C 
ATOM      5  O   UNL     1      99.221  81.551  72.810  1.00  0.00    -0.319 OA
ATOM      6  C   UNL     1      99.172  80.221  73.413  1.00  0.00     0.095 C 
ATOM      7  C   UNL     1      98.912  82.642  73.697  1.00  0.00     0.289 C 
ATOM      8  C   UNL     1      97.659  79.795  73.620  1.00  0.00     0.023 C 
ATOM      9  O   UNL     1      99.785  82.655  74.824  1.00  0.00    -0.320 OA
ATOM     10  O   UNL     1      97.595  82.549  74.232  1.00  0.00    -0.313 OA
ATOM     11  C   UNL     1      99.279  81.523  75.548  1.00  0.00     0.170 C 
ATOM     12  C   UNL     1      97.091  80.342  74.966  1.00  0.00     0.049 C 
ATOM     13  C   UNL     1      96.706  80.169  72.473  1.00  0.00     0.011 C 
ATOM     14  C   UNL     1      97.748  81.665  75.362  1.00  0.00     0.122 C 
BRANCH   6  15
ATOM     15  C   UNL     1      99.992  79.323  72.442  1.00  0.00     0.086 C 
ATOM     16  C   UNL     1     100.530  78.002  73.029  1.00  0.00     0.140 CG0
ATOM     17  C   UNL     1      99.381  78.902  71.135  1.00  0.00    -0.010 C 
ATOM     18  C   UNL     1     100.459  77.065  71.842  1.00  0.00     0.190 C 
ATOM     19  G   UNL     1     101.950  78.148  73.574  1.00  0.00     0.000 G0
ATOM     20  C   UNL     1      99.647  77.648  70.756  1.00  0.00    -0.008 C 
ATOM     21  O   UNL     1     100.955  75.950  71.788  1.00  0.00    -0.291 OA
ATOM     22  C   UNL     1      99.290  76.932  69.514  1.00  0.00     0.048 C 
BRANCH  16  23
ATOM     23  O   UNL     1      99.668  77.405  73.983  1.00  0.00    -0.381 OA
ATOM     24  H   UNL     1      99.338  78.100  74.576  1.00  0.00     0.212 HD
ENDBRANCH  16  23
ENDBRANCH   6  15
BRANCH   7  25
ATOM     25  C   UNL     1      99.054  83.938  72.925  1.00  0.00     0.135 C 
BRANCH  25  26
ATOM     26  C   UNL     1     100.439  84.105  72.350  1.00  0.00    -0.040 A 
ATOM     27  C   UNL     1     101.546  84.137  73.198  1.00  0.00     0.004 A 
ATOM     28  C   UNL     1     100.612  84.225  70.971  1.00  0.00     0.004 A 
ATOM     29  C   UNL     1     102.827  84.291  72.666  1.00  0.00     0.000 A 
ATOM     30  C   UNL     1     101.893  84.380  70.440  1.00  0.00     0.000 A 
ATOM     31  C   UNL     1     103.000  84.412  71.288  1.00  0.00     0.000 A 
ENDBRANCH  25  26
ENDBRANCH   7  25
BRANCH  14  32
ATOM     32  C   UNL     1      97.095  82.298  76.547  1.00  0.00    -0.046 C 
ATOM     33  C   UNL     1      96.002  83.282  76.254  1.00  0.00     0.042 C 
ATOM     34  C   UNL     1      97.465  82.003  77.802  1.00  0.00     0.010 C 
ENDBRANCH  14  32
ENDBRANCH   3   4
BRANCH   2  35
ATOM     35  C   UNL     1     101.967  78.153  73.597  1.00  0.00     0.078 CG0
ATOM     36  G   UNL     1     100.553  78.002  73.037  1.00  0.00     0.000 G0
ENDBRANCH   2  35
ENDBRANCH   1   2
BRANCH   1  37
ATOM     37  O   UNL     1     104.479  78.746  73.858  1.00  0.00    -0.461 OA
BRANCH  37  38
ATOM     38  C   UNL     1     105.546  79.330  73.216  1.00  0.00     0.310 C 
ATOM     39  O   UNL     1     106.696  78.913  73.243  1.00  0.00    -0.252 OA
BRANCH  38  40
ATOM     40  C   UNL     1     105.078  80.561  72.477  1.00  0.00     0.158 C 
BRANCH  40  41
ATOM     41  C   UNL     1     104.160  80.241  71.325  1.00  0.00    -0.033 A 
ATOM     42  C   UNL     1     104.495  79.227  70.427  1.00  0.00     0.054 A 
ATOM     43  C   UNL     1     102.975  80.957  71.157  1.00  0.00     0.008 A 
ATOM     44  C   UNL     1     103.646  78.931  69.360  1.00  0.00     0.160 A 
ATOM     45  C   UNL     1     102.125  80.661  70.091  1.00  0.00     0.050 A 
ATOM     46  C   UNL     1     102.460  79.649  69.193  1.00  0.00     0.157 A 
BRANCH  44  47
ATOM     47  O   UNL     1     103.984  77.940  68.490  1.00  0.00    -0.493 OA
ATOM     48  C   UNL     1     105.333  77.918  68.025  1.00  0.00     0.278 C 
ENDBRANCH  44  47
BRANCH  46  49
ATOM     49  O   UNL     1     101.622  79.367  68.157  1.00  0.00    -0.504 OA
ATOM     50  H   UNL     1     101.073  78.601  68.392  1.00  0.00     0.293 HD
ENDBRANCH  46  49
ENDBRANCH  40  41
ENDBRANCH  38  40
ENDBRANCH  37  38
ENDBRANCH   1  37
TORSDOF 11
ENDMDL
MODEL 4
REMARK VINA RESULT:    -6.577     24.653     28.728
REMARK INTER + INTRA:         -12.215
REMARK INTER:                 -11.109
REMARK INTRA:                  -1.106
REMARK UNBOUND:                -0.639
REMARK SMILES C=C(C)[C@]12C[C@@H](C)[C@@]34O[C@](Cc5ccccc5)(O[C@@H]1[C@@H]3C=C(COC(=O)Cc1ccc(O)c(OC)c1)C[C@]1(O)C(=O)C(C)=C[C@@H]41)O2
REMARK SMILES IDX 23 1 22 2 21 3 20 4 9 5 8 6 10 7 6 8 18 9 46 10 19 11 5 12
REMARK SMILES IDX 7 13 4 14 45 15 38 16 44 17 40 18 42 20 41 21 43 22 39 23
REMARK SMILES IDX 11 25 12 26 13 27 17 28 14 29 16 30 15 31 2 32 3 33 1 34
REMARK SMILES IDX 37 35 24 37 25 38 26 39 27 40 28 41 36 42 29 43 33 44 30 45
REMARK SMILES IDX 31 46 34 47 35 48 32 49
REMARK H PARENT 39 24 32 50
REMARK Flexibility Score: 90.00
ROOT
ATOM      1  C   UNL     1      70.896  89.425  70.067  1.00  0.00     0.264 C 
ENDROOT
BRANCH   1   2
ATOM      2  C   UNL     1      72.239  89.509  69.381  1.00  0.00    -0.033 C 
ATOM      3  C   UNL     1      72.932  88.376  69.148  1.00  0.00    -0.015 C 
BRANCH   3   4
ATOM      4  C   UNL     1      74.319  88.198  68.553  1.00  0.00     0.078 C 
ATOM      5  O   UNL     1      74.022  87.867  66.119  1.00  0.00    -0.319 OA
ATOM      6  C   UNL     1      74.595  88.772  67.113  1.00  0.00     0.095 C 
ATOM      7  C   UNL     1      74.230  86.464  66.370  1.00  0.00     0.289 C 
ATOM      8  C   UNL     1      76.166  88.838  66.916  1.00  0.00     0.023 C 
ATOM      9  O   UNL     1      73.710  86.083  67.641  1.00  0.00    -0.320 OA
ATOM     10  O   UNL     1      75.613  86.120  66.401  1.00  0.00    -0.313 OA
ATOM     11  C   UNL     1      74.682  86.693  68.504  1.00  0.00     0.170 C 
ATOM     12  C   UNL     1      76.886  87.678  67.670  1.00  0.00     0.049 C 
ATOM     13  C   UNL     1      76.647  88.875  65.456  1.00  0.00     0.011 C 
ATOM     14  C   UNL     1      76.010  86.427  67.753  1.00  0.00     0.122 C 
BRANCH   6  15
ATOM     15  C   UNL     1      73.837  90.114  66.900  1.00  0.00     0.086 C 
ATOM     16  C   UNL     1      73.875  91.111  68.077  1.00  0.00     0.140 CG0
ATOM     17  C   UNL     1      74.171  90.967  65.708  1.00  0.00    -0.010 C 
ATOM     18  C   UNL     1      73.891  92.450  67.370  1.00  0.00     0.190 C 
ATOM     19  G   UNL     1      72.671  90.954  69.004  1.00  0.00     0.000 G0
ATOM     20  C   UNL     1      74.183  92.285  65.933  1.00  0.00    -0.008 C 
ATOM     21  O   UNL     1      73.738  93.536  67.907  1.00  0.00    -0.291 OA
ATOM     22  C   UNL     1      74.385  93.409  64.995  1.00  0.00     0.048 C 
BRANCH  16  23
ATOM     23  O   UNL     1      75.093  91.096  68.803  1.00  0.00    -0.381 OA
ATOM     24  H   UNL     1      75.649  90.380  68.454  1.00  0.00     0.212 HD
ENDBRANCH  16  23
ENDBRANCH   6  15
BRANCH   7  25
ATOM     25  C   UNL     1      73.537  85.678  65.276  1.00  0.00     0.135 C 
BRANCH  25  26
ATOM     26  C   UNL     1      74.132  84.302  65.105  1.00  0.00    -0.040 A 
ATOM     27  C   UNL     1      75.030  84.055  64.066  1.00  0.00     0.004 A 
ATOM     28  C   UNL     1      73.787  83.278  65.986  1.00  0.00     0.004 A 
ATOM     29  C   UNL     1      75.581  82.783  63.907  1.00  0.00     0.000 A 
ATOM     30  C   UNL     1      74.337  82.006  65.827  1.00  0.00     0.000 A 
ATOM     31  C   UNL     1      75.234  81.759  64.788  1.00  0.00     0.000 A 
ENDBRANCH  25  26
ENDBRANCH   7  25
BRANCH  14  32
ATOM     32  C   UNL     1      76.743  85.249  68.307  1.00  0.00    -0.046 C 
ATOM     33  C   UNL     1      77.299  84.283  67.304  1.00  0.00     0.042 C 
ATOM     34  C   UNL     1      76.894  85.065  69.627  1.00  0.00     0.010 C 
ENDBRANCH  14  32
ENDBRANCH   3   4
BRANCH   2  35
ATOM     35  C   UNL     1      72.638  90.928  69.025  1.00  0.00     0.078 CG0
ATOM     36  G   UNL     1      73.847  91.105  68.107  1.00  0.00     0.000 G0
ENDBRANCH   2  35
ENDBRANCH   1   2
BRANCH   1  37
ATOM     37  O   UNL     1      69.929  88.967  69.147  1.00  0.00    -0.461 OA
BRANCH  37  38
ATOM     38  C   UNL     1      69.119  87.942  69.576  1.00  0.00     0.310 C 
ATOM     39  O   UNL     1      69.397  86.752  69.510  1.00  0.00    -0.252 OA
BRANCH  38  40
ATOM     40  C   UNL     1      67.838  88.512  70.138  1.00  0.00     0.158 C 
BRANCH  40  41
ATOM     41  C   UNL     1      66.981  87.475  70.819  1.00  0.00    -0.033 A 
ATOM     42  C   UNL     1      66.872  87.465  72.210  1.00  0.00     0.054 A 
ATOM     43  C   UNL     1      66.298  86.527  70.058  1.00  0.00     0.008 A 
ATOM     44  C   UNL     1      66.079  86.506  72.840  1.00  0.00     0.160 A 
ATOM     45  C   UNL     1      65.505  85.567  70.689  1.00  0.00     0.050 A 
ATOM     46  C   UNL     1      65.396  85.556  72.079  1.00  0.00     0.157 A 
BRANCH  44  47
ATOM     47  O   UNL     1      65.981  86.505  74.198  1.00  0.00    -0.493 OA
ATOM     48  C   UNL     1      65.112  87.473  74.785  1.00  0.00     0.278 C 
ENDBRANCH  44  47
BRANCH  46  49
ATOM     49  O   UNL     1      64.618  84.615  72.683  1.00  0.00    -0.504 OA
ATOM     50  H   UNL     1      63.882  85.058  73.137  1.00  0.00     0.293 HD
ENDBRANCH  46  49
ENDBRANCH  40  41
ENDBRANCH  38  40
ENDBRANCH  37  38
ENDBRANCH   1  37
TORSDOF 11
ENDMDL
MODEL 5
REMARK VINA RESULT:    -6.566      3.732      9.034
REMARK INTER + INTRA:         -12.195
REMARK INTER:                 -11.223
REMARK INTRA:                  -0.973
REMARK UNBOUND:                -0.639
REMARK SMILES C=C(C)[C@]12C[C@@H](C)[C@@]34O[C@](Cc5ccccc5)(O[C@@H]1[C@@H]3C=C(COC(=O)Cc1ccc(O)c(OC)c1)C[C@]1(O)C(=O)C(C)=C[C@@H]41)O2
REMARK SMILES IDX 23 1 22 2 21 3 20 4 9 5 8 6 10 7 6 8 18 9 46 10 19 11 5 12
REMARK SMILES IDX 7 13 4 14 45 15 38 16 44 17 40 18 42 20 41 21 43 22 39 23
REMARK SMILES IDX 11 25 12 26 13 27 17 28 14 29 16 30 15 31 2 32 3 33 1 34
REMARK SMILES IDX 37 35 24 37 25 38 26 39 27 40 28 41 36 42 29 43 33 44 30 45
REMARK SMILES IDX 31 46 34 47 35 48 32 49
REMARK H PARENT 39 24 32 50
REMARK Flexibility Score: 90.00
ROOT
ATOM      1  C   UNL     1      95.928  85.550  88.538  1.00  0.00     0.264 C 
ENDROOT
BRANCH   1   2
ATOM      2  C   UNL     1      95.046  84.587  87.778  1.00  0.00    -0.033 C 
ATOM      3  C   UNL     1      95.588  83.817  86.813  1.00  0.00    -0.015 C 
BRANCH   3   4
ATOM      4  C   UNL     1      94.912  82.839  85.866  1.00  0.00     0.078 C 
ATOM      5  O   UNL     1      94.968  80.621  86.959  1.00  0.00    -0.319 OA
ATOM      6  C   UNL     1      94.064  81.665  86.481  1.00  0.00     0.095 C 
ATOM      7  C   UNL     1      96.068  80.311  86.083  1.00  0.00     0.289 C 
ATOM      8  C   UNL     1      93.149  81.078  85.328  1.00  0.00     0.023 C 
ATOM      9  O   UNL     1      96.858  81.467  85.816  1.00  0.00    -0.320 OA
ATOM     10  O   UNL     1      95.631  79.841  84.810  1.00  0.00    -0.313 OA
ATOM     11  C   UNL     1      95.970  82.183  84.944  1.00  0.00     0.170 C 
ATOM     12  C   UNL     1      93.855  81.163  83.940  1.00  0.00     0.049 C 
ATOM     13  C   UNL     1      92.638  79.645  85.555  1.00  0.00     0.011 C 
ATOM     14  C   UNL     1      95.374  81.051  84.070  1.00  0.00     0.122 C 
BRANCH   6  15
ATOM     15  C   UNL     1      93.309  82.139  87.757  1.00  0.00     0.086 C 
ATOM     16  C   UNL     1      92.659  83.535  87.683  1.00  0.00     0.140 CG0
ATOM     17  C   UNL     1      92.221  81.276  88.333  1.00  0.00    -0.010 C 
ATOM     18  C   UNL     1      91.415  83.361  88.529  1.00  0.00     0.190 C 
ATOM     19  G   UNL     1      93.581  84.631  88.216  1.00  0.00     0.000 G0
ATOM     20  C   UNL     1      91.156  81.935  88.800  1.00  0.00    -0.008 C 
ATOM     21  O   UNL     1      90.682  84.263  88.905  1.00  0.00    -0.291 OA
ATOM     22  C   UNL     1      89.955  81.429  89.497  1.00  0.00     0.048 C 
BRANCH  16  23
ATOM     23  O   UNL     1      92.151  83.865  86.400  1.00  0.00    -0.381 OA
ATOM     24  H   UNL     1      92.020  84.826  86.360  1.00  0.00     0.212 HD
ENDBRANCH  16  23
ENDBRANCH   6  15
BRANCH   7  25
ATOM     25  C   UNL     1      96.922  79.250  86.748  1.00  0.00     0.135 C 
BRANCH  25  26
ATOM     26  C   UNL     1      97.567  78.330  85.742  1.00  0.00    -0.040 A 
ATOM     27  C   UNL     1      98.617  78.792  84.948  1.00  0.00     0.004 A 
ATOM     28  C   UNL     1      97.115  77.018  85.606  1.00  0.00     0.004 A 
ATOM     29  C   UNL     1      99.214  77.941  84.017  1.00  0.00     0.000 A 
ATOM     30  C   UNL     1      97.712  76.167  84.676  1.00  0.00     0.000 A 
ATOM     31  C   UNL     1      98.761  76.629  83.881  1.00  0.00     0.000 A 
ENDBRANCH  25  26
ENDBRANCH   7  25
BRANCH  14  32
ATOM     32  C   UNL     1      96.058  80.947  82.746  1.00  0.00    -0.046 C 
ATOM     33  C   UNL     1      96.427  82.243  82.087  1.00  0.00     0.042 C 
ATOM     34  C   UNL     1      96.326  79.762  82.177  1.00  0.00     0.010 C 
ENDBRANCH  14  32
ENDBRANCH   3   4
BRANCH   2  35
ATOM     35  C   UNL     1      93.600  84.618  88.236  1.00  0.00     0.078 CG0
ATOM     36  G   UNL     1      92.666  83.547  87.673  1.00  0.00     0.000 G0
ENDBRANCH   2  35
ENDBRANCH   1   2
BRANCH   1  37
ATOM     37  O   UNL     1      95.489  86.870  88.303  1.00  0.00    -0.461 OA
BRANCH  37  38
ATOM     38  C   UNL     1      96.271  87.874  88.826  1.00  0.00     0.310 C 
ATOM     39  O   UNL     1      97.214  87.705  89.587  1.00  0.00    -0.252 OA
BRANCH  38  40
ATOM     40  C   UNL     1      95.784  89.210  88.317  1.00  0.00     0.158 C 
BRANCH  40  41
ATOM     41  C   UNL     1      94.924  89.942  89.315  1.00  0.00    -0.033 A 
ATOM     42  C   UNL     1      94.888  91.337  89.313  1.00  0.00     0.054 A 
ATOM     43  C   UNL     1      94.165  89.226  90.239  1.00  0.00     0.008 A 
ATOM     44  C   UNL     1      94.092  92.015  90.237  1.00  0.00     0.160 A 
ATOM     45  C   UNL     1      93.369  89.903  91.163  1.00  0.00     0.050 A 
ATOM     46  C   UNL     1      93.332  91.297  91.163  1.00  0.00     0.157 A 
BRANCH  44  47
ATOM     47  O   UNL     1      94.065  93.376  90.226  1.00  0.00    -0.493 OA
ATOM     48  C   UNL     1      95.168  94.052  90.828  1.00  0.00     0.278 C 
ENDBRANCH  44  47
BRANCH  46  49
ATOM     49  O   UNL     1      92.551  91.948  92.068  1.00  0.00    -0.504 OA
ATOM     50  H   UNL     1      92.845  91.716  92.965  1.00  0.00     0.293 HD
ENDBRANCH  46  49
ENDBRANCH  40  41
ENDBRANCH  38  40
ENDBRANCH  37  38
ENDBRANCH   1  37
TORSDOF 11
ENDMDL
MODEL 6
REMARK VINA RESULT:    -6.515     30.279     33.624
REMARK INTER + INTRA:         -12.106
REMARK INTER:                 -10.156
REMARK INTRA:                  -1.950
REMARK UNBOUND:                -0.639
REMARK SMILES C=C(C)[C@]12C[C@@H](C)[C@@]34O[C@](Cc5ccccc5)(O[C@@H]1[C@@H]3C=C(COC(=O)Cc1ccc(O)c(OC)c1)C[C@]1(O)C(=O)C(C)=C[C@@H]41)O2
REMARK SMILES IDX 23 1 22 2 21 3 20 4 9 5 8 6 10 7 6 8 18 9 46 10 19 11 5 12
REMARK SMILES IDX 7 13 4 14 45 15 38 16 44 17 40 18 42 20 41 21 43 22 39 23
REMARK SMILES IDX 11 25 12 26 13 27 17 28 14 29 16 30 15 31 2 32 3 33 1 34
REMARK SMILES IDX 37 35 24 37 25 38 26 39 27 40 28 41 36 42 29 43 33 44 30 45
REMARK SMILES IDX 31 46 34 47 35 48 32 49
REMARK H PARENT 39 24 32 50
REMARK Flexibility Score: 90.00
ROOT
ATOM      1  C   UNL     1      65.789  88.332  70.583  1.00  0.00     0.264 C 
ENDROOT
BRANCH   1   2
ATOM      2  C   UNL     1      65.660  86.860  70.267  1.00  0.00    -0.033 C 
ATOM      3  C   UNL     1      64.724  86.128  70.904  1.00  0.00    -0.015 C 
BRANCH   3   4
ATOM      4  C   UNL     1      64.447  84.636  70.823  1.00  0.00     0.078 C 
ATOM      5  O   UNL     1      62.740  84.315  69.061  1.00  0.00    -0.319 OA
ATOM      6  C   UNL     1      64.124  84.010  69.415  1.00  0.00     0.095 C 
ATOM      7  C   UNL     1      61.785  84.174  70.130  1.00  0.00     0.289 C 
ATOM      8  C   UNL     1      64.299  82.439  69.537  1.00  0.00     0.023 C 
ATOM      9  O   UNL     1      62.130  84.995  71.243  1.00  0.00    -0.320 OA
ATOM     10  O   UNL     1      61.732  82.842  70.636  1.00  0.00    -0.313 OA
ATOM     11  C   UNL     1      63.261  84.270  71.750  1.00  0.00     0.170 C 
ATOM     12  C   UNL     1      63.905  81.929  70.957  1.00  0.00     0.049 C 
ATOM     13  C   UNL     1      63.562  81.609  68.473  1.00  0.00     0.011 C 
ATOM     14  C   UNL     1      62.814  82.796  71.588  1.00  0.00     0.122 C 
BRANCH   6  15
ATOM     15  C   UNL     1      64.969  84.692  68.300  1.00  0.00     0.086 C 
ATOM     16  C   UNL     1      66.449  84.967  68.641  1.00  0.00     0.140 CG0
ATOM     17  C   UNL     1      65.035  84.063  66.937  1.00  0.00    -0.010 C 
ATOM     18  C   UNL     1      67.133  84.772  67.304  1.00  0.00     0.190 C 
ATOM     19  G   UNL     1      66.659  86.370  69.208  1.00  0.00     0.000 G0
ATOM     20  C   UNL     1      66.230  84.116  66.339  1.00  0.00    -0.008 C 
ATOM     21  O   UNL     1      68.291  85.065  67.053  1.00  0.00    -0.291 OA
ATOM     22  C   UNL     1      66.638  83.682  64.987  1.00  0.00     0.048 C 
BRANCH  16  23
ATOM     23  O   UNL     1      67.039  83.980  69.470  1.00  0.00    -0.381 OA
ATOM     24  H   UNL     1      66.331  83.431  69.847  1.00  0.00     0.212 HD
ENDBRANCH  16  23
ENDBRANCH   6  15
BRANCH   7  25
ATOM     25  C   UNL     1      60.420  84.571  69.605  1.00  0.00     0.135 C 
BRANCH  25  26
ATOM     26  C   UNL     1      59.661  85.423  70.591  1.00  0.00    -0.040 A 
ATOM     27  C   UNL     1      58.915  84.820  71.604  1.00  0.00     0.004 A 
ATOM     28  C   UNL     1      59.705  86.813  70.490  1.00  0.00     0.004 A 
ATOM     29  C   UNL     1      58.212  85.608  72.516  1.00  0.00     0.000 A 
ATOM     30  C   UNL     1      59.002  87.601  71.402  1.00  0.00     0.000 A 
ATOM     31  C   UNL     1      58.256  86.998  72.415  1.00  0.00     0.000 A 
ENDBRANCH  25  26
ENDBRANCH   7  25
BRANCH  14  32
ATOM     32  C   UNL     1      62.293  82.224  72.865  1.00  0.00    -0.046 C 
ATOM     33  C   UNL     1      60.955  82.726  73.319  1.00  0.00     0.042 C 
ATOM     34  C   UNL     1      62.983  81.312  73.568  1.00  0.00     0.010 C 
ENDBRANCH  14  32
ENDBRANCH   3   4
BRANCH   2  35
ATOM     35  C   UNL     1      66.649  86.389  69.216  1.00  0.00     0.078 CG0
ATOM     36  G   UNL     1      66.438  84.991  68.636  1.00  0.00     0.000 G0
ENDBRANCH   2  35
ENDBRANCH   1   2
BRANCH   1  37
ATOM     37  O   UNL     1      66.553  88.491  71.759  1.00  0.00    -0.461 OA
BRANCH  37  38
ATOM     38  C   UNL     1      66.433  89.701  72.403  1.00  0.00     0.310 C 
ATOM     39  O   UNL     1      66.436  90.793  71.852  1.00  0.00    -0.252 OA
BRANCH  38  40
ATOM     40  C   UNL     1      66.299  89.470  73.890  1.00  0.00     0.158 C 
BRANCH  40  41
ATOM     41  C   UNL     1      65.677  88.139  74.224  1.00  0.00    -0.033 A 
ATOM     42  C   UNL     1      64.338  88.073  74.614  1.00  0.00     0.054 A 
ATOM     43  C   UNL     1      66.438  86.973  74.144  1.00  0.00     0.008 A 
ATOM     44  C   UNL     1      63.762  86.840  74.923  1.00  0.00     0.160 A 
ATOM     45  C   UNL     1      65.862  85.741  74.453  1.00  0.00     0.050 A 
ATOM     46  C   UNL     1      64.525  85.674  74.843  1.00  0.00     0.157 A 
BRANCH  44  47
ATOM     47  O   UNL     1      62.455  86.788  75.302  1.00  0.00    -0.493 OA
ATOM     48  C   UNL     1      61.476  86.896  74.270  1.00  0.00     0.278 C 
ENDBRANCH  44  47
BRANCH  46  49
ATOM     49  O   UNL     1      63.973  84.465  75.141  1.00  0.00    -0.504 OA
ATOM     50  H   UNL     1      63.219  84.306  74.548  1.00  0.00     0.293 HD
ENDBRANCH  46  49
ENDBRANCH  40  41
ENDBRANCH  38  40
ENDBRANCH  37  38
ENDBRANCH   1  37
TORSDOF 11
ENDMDL
MODEL 7
REMARK VINA RESULT:    -6.472      4.043      9.258
REMARK INTER + INTRA:         -12.030
REMARK INTER:                 -11.319
REMARK INTRA:                  -0.711
REMARK UNBOUND:                -0.639
REMARK SMILES C=C(C)[C@]12C[C@@H](C)[C@@]34O[C@](Cc5ccccc5)(O[C@@H]1[C@@H]3C=C(COC(=O)Cc1ccc(O)c(OC)c1)C[C@]1(O)C(=O)C(C)=C[C@@H]41)O2
REMARK SMILES IDX 23 1 22 2 21 3 20 4 9 5 8 6 10 7 6 8 18 9 46 10 19 11 5 12
REMARK SMILES IDX 7 13 4 14 45 15 38 16 44 17 40 18 42 20 41 21 43 22 39 23
REMARK SMILES IDX 11 25 12 26 13 27 17 28 14 29 16 30 15 31 2 32 3 33 1 34
REMARK SMILES IDX 37 35 24 37 25 38 26 39 27 40 28 41 36 42 29 43 33 44 30 45
REMARK SMILES IDX 31 46 34 47 35 48 32 49
REMARK H PARENT 39 24 32 50
REMARK Flexibility Score: 90.00
ROOT
ATOM      1  C   UNL     1      95.966  85.609  88.538  1.00  0.00     0.264 C 
ENDROOT
BRANCH   1   2
ATOM      2  C   UNL     1      95.057  84.612  87.856  1.00  0.00    -0.033 C 
ATOM      3  C   UNL     1      95.578  83.747  86.963  1.00  0.00    -0.015 C 
BRANCH   3   4
ATOM      4  C   UNL     1      94.876  82.714  86.097  1.00  0.00     0.078 C 
ATOM      5  O   UNL     1      94.902  80.584  87.354  1.00  0.00    -0.319 OA
ATOM      6  C   UNL     1      94.013  81.605  86.806  1.00  0.00     0.095 C 
ATOM      7  C   UNL     1      95.988  80.188  86.496  1.00  0.00     0.289 C 
ATOM      8  C   UNL     1      93.077  80.951  85.708  1.00  0.00     0.023 C 
ATOM      9  O   UNL     1      96.797  81.305  86.136  1.00  0.00    -0.320 OA
ATOM     10  O   UNL     1      95.531  79.631  85.266  1.00  0.00    -0.313 OA
ATOM     11  C   UNL     1      95.913  81.971  85.220  1.00  0.00     0.170 C 
ATOM     12  C   UNL     1      93.771  80.918  84.312  1.00  0.00     0.049 C 
ATOM     13  C   UNL     1      92.542  79.549  86.046  1.00  0.00     0.011 C 
ATOM     14  C   UNL     1      95.290  80.788  84.438  1.00  0.00     0.122 C 
BRANCH   6  15
ATOM     15  C   UNL     1      93.279  82.188  88.049  1.00  0.00     0.086 C 
ATOM     16  C   UNL     1      92.647  83.584  87.872  1.00  0.00     0.140 CG0
ATOM     17  C   UNL     1      92.185  81.389  88.700  1.00  0.00    -0.010 C 
ATOM     18  C   UNL     1      91.410  83.495  88.741  1.00  0.00     0.190 C 
ATOM     19  G   UNL     1      93.590  84.704  88.310  1.00  0.00     0.000 G0
ATOM     20  C   UNL     1      91.133  82.098  89.125  1.00  0.00    -0.008 C 
ATOM     21  O   UNL     1      90.694  84.434  89.053  1.00  0.00    -0.291 OA
ATOM     22  C   UNL     1      89.933  81.666  89.870  1.00  0.00     0.048 C 
BRANCH  16  23
ATOM     23  O   UNL     1      92.130  83.820  86.573  1.00  0.00    -0.381 OA
ATOM     24  H   UNL     1      91.191  83.573  86.566  1.00  0.00     0.212 HD
ENDBRANCH  16  23
ENDBRANCH   6  15
BRANCH   7  25
ATOM     25  C   UNL     1      96.828  79.164  87.233  1.00  0.00     0.135 C 
BRANCH  25  26
ATOM     26  C   UNL     1      97.647  79.792  88.333  1.00  0.00    -0.040 A 
ATOM     27  C   UNL     1      97.022  80.565  89.312  1.00  0.00     0.004 A 
ATOM     28  C   UNL     1      99.027  79.598  88.374  1.00  0.00     0.004 A 
ATOM     29  C   UNL     1      97.779  81.146  90.331  1.00  0.00     0.000 A 
ATOM     30  C   UNL     1      99.784  80.178  89.392  1.00  0.00     0.000 A 
ATOM     31  C   UNL     1      99.159  80.952  90.370  1.00  0.00     0.000 A 
ENDBRANCH  25  26
ENDBRANCH   7  25
BRANCH  14  32
ATOM     32  C   UNL     1      95.959  80.571  83.120  1.00  0.00    -0.046 C 
ATOM     33  C   UNL     1      96.210  81.798  82.295  1.00  0.00     0.042 C 
ATOM     34  C   UNL     1      96.315  79.349  82.698  1.00  0.00     0.010 C 
ENDBRANCH  14  32
ENDBRANCH   3   4
BRANCH   2  35
ATOM     35  C   UNL     1      93.611  84.725  88.301  1.00  0.00     0.078 CG0
ATOM     36  G   UNL     1      92.662  83.602  87.885  1.00  0.00     0.000 G0
ENDBRANCH   2  35
ENDBRANCH   1   2
BRANCH   1  37
ATOM     37  O   UNL     1      95.533  86.918  88.236  1.00  0.00    -0.461 OA
BRANCH  37  38
ATOM     38  C   UNL     1      96.364  87.940  88.632  1.00  0.00     0.310 C 
ATOM     39  O   UNL     1      97.381  87.800  89.298  1.00  0.00    -0.252 OA
BRANCH  38  40
ATOM     40  C   UNL     1      95.827  89.255  88.117  1.00  0.00     0.158 C 
BRANCH  40  41
ATOM     41  C   UNL     1      95.110  90.051  89.177  1.00  0.00    -0.033 A 
ATOM     42  C   UNL     1      95.560  91.329  89.512  1.00  0.00     0.054 A 
ATOM     43  C   UNL     1      93.997  89.513  89.821  1.00  0.00     0.008 A 
ATOM     44  C   UNL     1      94.896  92.067  90.493  1.00  0.00     0.160 A 
ATOM     45  C   UNL     1      93.333  90.250  90.802  1.00  0.00     0.050 A 
ATOM     46  C   UNL     1      93.783  91.527  91.138  1.00  0.00     0.157 A 
BRANCH  44  47
ATOM     47  O   UNL     1      95.345  93.313  90.812  1.00  0.00    -0.493 OA
ATOM     48  C   UNL     1      96.464  93.393  91.694  1.00  0.00     0.278 C 
ENDBRANCH  44  47
BRANCH  46  49
ATOM     49  O   UNL     1      93.126  92.238  92.096  1.00  0.00    -0.504 OA
ATOM     50  H   UNL     1      93.156  91.745  92.933  1.00  0.00     0.293 HD
ENDBRANCH  46  49
ENDBRANCH  40  41
ENDBRANCH  38  40
ENDBRANCH  37  38
ENDBRANCH   1  37
TORSDOF 11
ENDMDL
MODEL 8
REMARK VINA RESULT:    -6.400     32.071     36.632
REMARK INTER + INTRA:         -11.903
REMARK INTER:                 -10.945
REMARK INTRA:                  -0.958
REMARK UNBOUND:                -0.639
REMARK SMILES C=C(C)[C@]12C[C@@H](C)[C@@]34O[C@](Cc5ccccc5)(O[C@@H]1[C@@H]3C=C(COC(=O)Cc1ccc(O)c(OC)c1)C[C@]1(O)C(=O)C(C)=C[C@@H]41)O2
REMARK SMILES IDX 23 1 22 2 21 3 20 4 9 5 8 6 10 7 6 8 18 9 46 10 19 11 5 12
REMARK SMILES IDX 7 13 4 14 45 15 38 16 44 17 40 18 42 20 41 21 43 22 39 23
REMARK SMILES IDX 11 25 12 26 13 27 17 28 14 29 16 30 15 31 2 32 3 33 1 34
REMARK SMILES IDX 37 35 24 37 25 38 26 39 27 40 28 41 36 42 29 43 33 44 30 45
REMARK SMILES IDX 31 46 34 47 35 48 32 49
REMARK H PARENT 39 24 32 50
REMARK Flexibility Score: 90.00
ROOT
ATOM      1  C   UNL     1      59.980  88.599  70.329  1.00  0.00     0.264 C 
ENDROOT
BRANCH   1   2
ATOM      2  C   UNL     1      60.125  87.365  71.189  1.00  0.00    -0.033 C 
ATOM      3  C   UNL     1      61.066  86.451  70.878  1.00  0.00    -0.015 C 
BRANCH   3   4
ATOM      4  C   UNL     1      61.359  85.109  71.528  1.00  0.00     0.078 C 
ATOM      5  O   UNL     1      63.077  85.508  73.263  1.00  0.00    -0.319 OA
ATOM      6  C   UNL     1      61.694  85.078  73.066  1.00  0.00     0.095 C 
ATOM      7  C   UNL     1      64.029  84.971  72.325  1.00  0.00     0.289 C 
ATOM      8  C   UNL     1      61.535  83.582  73.562  1.00  0.00     0.023 C 
ATOM      9  O   UNL     1      63.671  85.295  70.984  1.00  0.00    -0.320 OA
ATOM     10  O   UNL     1      64.093  83.548  72.373  1.00  0.00    -0.313 OA
ATOM     11  C   UNL     1      62.544  84.422  70.806  1.00  0.00     0.170 C 
ATOM     12  C   UNL     1      61.927  82.565  72.447  1.00  0.00     0.049 C 
ATOM     13  C   UNL     1      62.284  83.233  74.859  1.00  0.00     0.011 C 
ATOM     14  C   UNL     1      63.007  83.129  71.522  1.00  0.00     0.122 C 
BRANCH   6  15
ATOM     15  C   UNL     1      60.847  86.132  73.836  1.00  0.00     0.086 C 
ATOM     16  C   UNL     1      59.365  86.248  73.422  1.00  0.00     0.140 CG0
ATOM     17  C   UNL     1      60.786  86.075  75.337  1.00  0.00    -0.010 C 
ATOM     18  C   UNL     1      58.685  86.579  74.733  1.00  0.00     0.190 C 
ATOM     19  G   UNL     1      59.146  87.325  72.360  1.00  0.00     0.000 G0
ATOM     20  C   UNL     1      59.592  86.348  75.873  1.00  0.00    -0.008 C 
ATOM     21  O   UNL     1      57.524  86.940  74.857  1.00  0.00    -0.291 OA
ATOM     22  C   UNL     1      59.189  86.464  77.289  1.00  0.00     0.048 C 
BRANCH  16  23
ATOM     23  O   UNL     1      58.779  85.016  73.037  1.00  0.00    -0.381 OA
ATOM     24  H   UNL     1      58.251  85.163  72.235  1.00  0.00     0.212 HD
ENDBRANCH  16  23
ENDBRANCH   6  15
BRANCH   7  25
ATOM     25  C   UNL     1      65.391  85.551  72.646  1.00  0.00     0.135 C 
BRANCH  25  26
ATOM     26  C   UNL     1      65.367  86.393  73.897  1.00  0.00    -0.040 A 
ATOM     27  C   UNL     1      65.537  87.775  73.810  1.00  0.00     0.004 A 
ATOM     28  C   UNL     1      65.173  85.791  75.140  1.00  0.00     0.004 A 
ATOM     29  C   UNL     1      65.515  88.555  74.967  1.00  0.00     0.000 A 
ATOM     30  C   UNL     1      65.151  86.571  76.296  1.00  0.00     0.000 A 
ATOM     31  C   UNL     1      65.322  87.953  76.209  1.00  0.00     0.000 A 
ENDBRANCH  25  26
ENDBRANCH   7  25
BRANCH  14  32
ATOM     32  C   UNL     1      63.528  82.111  70.561  1.00  0.00    -0.046 C 
ATOM     33  C   UNL     1      62.571  81.645  69.505  1.00  0.00     0.042 C 
ATOM     34  C   UNL     1      64.782  81.639  70.638  1.00  0.00     0.010 C 
ENDBRANCH  14  32
ENDBRANCH   3   4
BRANCH   2  35
ATOM     35  C   UNL     1      59.144  87.328  72.346  1.00  0.00     0.078 CG0
ATOM     36  G   UNL     1      59.370  86.265  73.420  1.00  0.00     0.000 G0
ENDBRANCH   2  35
ENDBRANCH   1   2
BRANCH   1  37
ATOM     37  O   UNL     1      59.723  88.211  68.996  1.00  0.00    -0.461 OA
BRANCH  37  38
ATOM     38  C   UNL     1      59.252  89.194  68.157  1.00  0.00     0.310 C 
ATOM     39  O   UNL     1      59.604  89.355  66.996  1.00  0.00    -0.252 OA
BRANCH  38  40
ATOM     40  C   UNL     1      58.238  90.041  68.890  1.00  0.00     0.158 C 
BRANCH  40  41
ATOM     41  C   UNL     1      56.815  89.673  68.556  1.00  0.00    -0.033 A 
ATOM     42  C   UNL     1      56.247  90.103  67.356  1.00  0.00     0.054 A 
ATOM     43  C   UNL     1      56.066  88.904  69.446  1.00  0.00     0.008 A 
ATOM     44  C   UNL     1      54.929  89.763  67.048  1.00  0.00     0.160 A 
ATOM     45  C   UNL     1      54.749  88.563  69.138  1.00  0.00     0.050 A 
ATOM     46  C   UNL     1      54.180  88.993  67.939  1.00  0.00     0.157 A 
BRANCH  44  47
ATOM     47  O   UNL     1      54.385  90.189  65.874  1.00  0.00    -0.493 OA
ATOM     48  C   UNL     1      54.828  89.542  64.682  1.00  0.00     0.278 C 
ENDBRANCH  44  47
BRANCH  46  49
ATOM     49  O   UNL     1      52.894  88.654  67.648  1.00  0.00    -0.504 OA
ATOM     50  H   UNL     1      52.375  88.644  68.470  1.00  0.00     0.293 HD
ENDBRANCH  46  49
ENDBRANCH  40  41
ENDBRANCH  38  40
ENDBRANCH  37  38
ENDBRANCH   1  37
TORSDOF 11
ENDMDL
MODEL 9
REMARK VINA RESULT:    -6.100      8.684     11.942
REMARK INTER + INTRA:         -11.375
REMARK INTER:                  -9.633
REMARK INTRA:                  -1.742
REMARK UNBOUND:                -0.639
REMARK SMILES C=C(C)[C@]12C[C@@H](C)[C@@]34O[C@](Cc5ccccc5)(O[C@@H]1[C@@H]3C=C(COC(=O)Cc1ccc(O)c(OC)c1)C[C@]1(O)C(=O)C(C)=C[C@@H]41)O2
REMARK SMILES IDX 23 1 22 2 21 3 20 4 9 5 8 6 10 7 6 8 18 9 46 10 19 11 5 12
REMARK SMILES IDX 7 13 4 14 45 15 38 16 44 17 40 18 42 20 41 21 43 22 39 23
REMARK SMILES IDX 11 25 12 26 13 27 17 28 14 29 16 30 15 31 2 32 3 33 1 34
REMARK SMILES IDX 37 35 24 37 25 38 26 39 27 40 28 41 36 42 29 43 33 44 30 45
REMARK SMILES IDX 31 46 34 47 35 48 32 49
REMARK H PARENT 39 24 32 50
REMARK Flexibility Score: 90.00
ROOT
ATOM      1  C   UNL     1     103.624  79.832  75.362  1.00  0.00     0.264 C 
ENDROOT
BRANCH   1   2
ATOM      2  C   UNL     1     102.504  79.806  76.376  1.00  0.00    -0.033 C 
ATOM      3  C   UNL     1     101.308  80.337  76.050  1.00  0.00    -0.015 C 
BRANCH   3   4
ATOM      4  C   UNL     1     100.061  80.502  76.904  1.00  0.00     0.078 C 
ATOM      5  O   UNL     1      98.675  78.484  76.554  1.00  0.00    -0.319 OA
ATOM      6  C   UNL     1      99.430  79.220  77.565  1.00  0.00     0.095 C 
ATOM      7  C   UNL     1      97.868  79.293  75.676  1.00  0.00     0.289 C 
ATOM      8  C   UNL     1      98.444  79.705  78.706  1.00  0.00     0.023 C 
ATOM      9  O   UNL     1      98.660  80.261  74.993  1.00  0.00    -0.320 OA
ATOM     10  O   UNL     1      96.878  80.035  76.383  1.00  0.00    -0.313 OA
ATOM     11  C   UNL     1      98.938  81.167  76.071  1.00  0.00     0.170 C 
ATOM     12  C   UNL     1      97.766  81.060  78.338  1.00  0.00     0.049 C 
ATOM     13  C   UNL     1      97.366  78.690  79.122  1.00  0.00     0.011 C 
ATOM     14  C   UNL     1      97.586  81.211  76.827  1.00  0.00     0.122 C 
BRANCH   6  15
ATOM     15  C   UNL     1     100.541  78.229  78.018  1.00  0.00     0.086 C 
ATOM     16  C   UNL     1     101.775  78.857  78.699  1.00  0.00     0.140 CG0
ATOM     17  C   UNL     1     100.184  77.087  78.926  1.00  0.00    -0.010 C 
ATOM     18  C   UNL     1     102.161  77.799  79.712  1.00  0.00     0.190 C 
ATOM     19  G   UNL     1     102.897  79.151  77.704  1.00  0.00     0.000 G0
ATOM     20  C   UNL     1     101.086  76.802  79.871  1.00  0.00    -0.008 C 
ATOM     21  O   UNL     1     103.197  77.783  80.359  1.00  0.00    -0.291 OA
ATOM     22  C   UNL     1     101.108  75.713  80.869  1.00  0.00     0.048 C 
BRANCH  16  23
ATOM     23  O   UNL     1     101.477  79.993  79.493  1.00  0.00    -0.381 OA
ATOM     24  H   UNL     1     100.724  80.458  79.093  1.00  0.00     0.212 HD
ENDBRANCH  16  23
ENDBRANCH   6  15
BRANCH   7  25
ATOM     25  C   UNL     1      97.196  78.379  74.672  1.00  0.00     0.135 C 
BRANCH  25  26
ATOM     26  C   UNL     1      97.573  78.724  73.253  1.00  0.00    -0.040 A 
ATOM     27  C   UNL     1      98.781  78.270  72.723  1.00  0.00     0.004 A 
ATOM     28  C   UNL     1      96.714  79.495  72.470  1.00  0.00     0.004 A 
ATOM     29  C   UNL     1      99.131  78.589  71.410  1.00  0.00     0.000 A 
ATOM     30  C   UNL     1      97.063  79.813  71.157  1.00  0.00     0.000 A 
ATOM     31  C   UNL     1      98.272  79.360  70.628  1.00  0.00     0.000 A 
ENDBRANCH  25  26
ENDBRANCH   7  25
BRANCH  14  32
ATOM     32  C   UNL     1      96.778  82.413  76.462  1.00  0.00    -0.046 C 
ATOM     33  C   UNL     1      97.222  83.165  75.243  1.00  0.00     0.042 C 
ATOM     34  C   UNL     1      95.714  82.799  77.183  1.00  0.00     0.010 C 
ENDBRANCH  14  32
ENDBRANCH   3   4
BRANCH   2  35
ATOM     35  C   UNL     1     102.899  79.146  77.683  1.00  0.00     0.078 CG0
ATOM     36  G   UNL     1     101.784  78.863  78.689  1.00  0.00     0.000 G0
ENDBRANCH   2  35
ENDBRANCH   1   2
BRANCH   1  37
ATOM     37  O   UNL     1     103.541  78.685  74.545  1.00  0.00    -0.461 OA
BRANCH  37  38
ATOM     38  C   UNL     1     103.685  78.890  73.192  1.00  0.00     0.310 C 
ATOM     39  O   UNL     1     104.709  78.680  72.555  1.00  0.00    -0.252 OA
BRANCH  38  40
ATOM     40  C   UNL     1     102.389  79.412  72.620  1.00  0.00     0.158 C 
BRANCH  40  41
ATOM     41  C   UNL     1     102.423  80.892  72.341  1.00  0.00    -0.033 A 
ATOM     42  C   UNL     1     101.532  81.745  72.995  1.00  0.00     0.054 A 
ATOM     43  C   UNL     1     103.344  81.410  71.431  1.00  0.00     0.008 A 
ATOM     44  C   UNL     1     101.564  83.116  72.737  1.00  0.00     0.160 A 
ATOM     45  C   UNL     1     103.375  82.781  71.173  1.00  0.00     0.050 A 
ATOM     46  C   UNL     1     102.485  83.634  71.826  1.00  0.00     0.157 A 
BRANCH  44  47
ATOM     47  O   UNL     1     100.690  83.939  73.381  1.00  0.00    -0.493 OA
ATOM     48  C   UNL     1      99.582  84.426  72.625  1.00  0.00     0.278 C 
ENDBRANCH  44  47
BRANCH  46  49
ATOM     49  O   UNL     1     102.526  84.970  71.567  1.00  0.00    -0.504 OA
ATOM     50  H   UNL     1     102.074  85.445  72.285  1.00  0.00     0.293 HD
ENDBRANCH  46  49
ENDBRANCH  40  41
ENDBRANCH  38  40
ENDBRANCH  37  38
ENDBRANCH   1  37
TORSDOF 11
ENDMDL
MODEL 10
REMARK VINA RESULT:    -5.989     25.794     29.792
REMARK INTER + INTRA:         -11.180
REMARK INTER:                 -10.360
REMARK INTRA:                  -0.820
REMARK UNBOUND:                -0.639
REMARK SMILES C=C(C)[C@]12C[C@@H](C)[C@@]34O[C@](Cc5ccccc5)(O[C@@H]1[C@@H]3C=C(COC(=O)Cc1ccc(O)c(OC)c1)C[C@]1(O)C(=O)C(C)=C[C@@H]41)O2
REMARK SMILES IDX 23 1 22 2 21 3 20 4 9 5 8 6 10 7 6 8 18 9 46 10 19 11 5 12
REMARK SMILES IDX 7 13 4 14 45 15 38 16 44 17 40 18 42 20 41 21 43 22 39 23
REMARK SMILES IDX 11 25 12 26 13 27 17 28 14 29 16 30 15 31 2 32 3 33 1 34
REMARK SMILES IDX 37 35 24 37 25 38 26 39 27 40 28 41 36 42 29 43 33 44 30 45
REMARK SMILES IDX 31 46 34 47 35 48 32 49
REMARK H PARENT 39 24 32 50
REMARK Flexibility Score: 90.00
ROOT
ATOM      1  C   UNL     1      70.273  86.611  68.996  1.00  0.00     0.264 C 
ENDROOT
BRANCH   1   2
ATOM      2  C   UNL     1      71.612  86.990  68.408  1.00  0.00    -0.033 C 
ATOM      3  C   UNL     1      72.338  86.055  67.763  1.00  0.00    -0.015 C 
BRANCH   3   4
ATOM      4  C   UNL     1      73.729  86.161  67.159  1.00  0.00     0.078 C 
ATOM      5  O   UNL     1      73.438  86.791  64.785  1.00  0.00    -0.319 OA
ATOM      6  C   UNL     1      73.986  87.255  66.057  1.00  0.00     0.095 C 
ATOM      7  C   UNL     1      73.687  85.407  64.474  1.00  0.00     0.289 C 
ATOM      8  C   UNL     1      75.554  87.436  65.917  1.00  0.00     0.023 C 
ATOM      9  O   UNL     1      73.180  84.549  65.493  1.00  0.00    -0.320 OA
ATOM     10  O   UNL     1      75.079  85.116  64.383  1.00  0.00    -0.313 OA
ATOM     11  C   UNL     1      74.135  84.803  66.535  1.00  0.00     0.170 C 
ATOM     12  C   UNL     1      76.308  86.094  66.170  1.00  0.00     0.049 C 
ATOM     13  C   UNL     1      76.031  88.048  64.590  1.00  0.00     0.011 C 
ATOM     14  C   UNL     1      75.470  84.886  65.752  1.00  0.00     0.122 C 
BRANCH   6  15
ATOM     15  C   UNL     1      73.189  88.554  66.373  1.00  0.00     0.086 C 
ATOM     16  C   UNL     1      73.179  89.004  67.848  1.00  0.00     0.140 CG0
ATOM     17  C   UNL     1      73.512  89.817  65.624  1.00  0.00    -0.010 C 
ATOM     18  C   UNL     1      73.163  90.513  67.729  1.00  0.00     0.190 C 
ATOM     19  G   UNL     1      71.968  88.464  68.608  1.00  0.00     0.000 G0
ATOM     20  C   UNL     1      73.479  90.938  66.352  1.00  0.00    -0.008 C 
ATOM     21  O   UNL     1      72.968  91.294  68.648  1.00  0.00    -0.291 OA
ATOM     22  C   UNL     1      73.658  92.345  65.940  1.00  0.00     0.048 C 
BRANCH  16  23
ATOM     23  O   UNL     1      74.387  88.732  68.539  1.00  0.00    -0.381 OA
ATOM     24  H   UNL     1      74.211  88.050  69.209  1.00  0.00     0.212 HD
ENDBRANCH  16  23
ENDBRANCH   6  15
BRANCH   7  25
ATOM     25  C   UNL     1      73.016  85.087  63.154  1.00  0.00     0.135 C 
BRANCH  25  26
ATOM     26  C   UNL     1      72.409  83.706  63.148  1.00  0.00    -0.040 A 
ATOM     27  C   UNL     1      73.220  82.589  62.943  1.00  0.00     0.004 A 
ATOM     28  C   UNL     1      71.039  83.545  63.350  1.00  0.00     0.004 A 
ATOM     29  C   UNL     1      72.659  81.312  62.938  1.00  0.00     0.000 A 
ATOM     30  C   UNL     1      70.478  82.268  63.345  1.00  0.00     0.000 A 
ATOM     31  C   UNL     1      71.288  81.151  63.138  1.00  0.00     0.000 A 
ENDBRANCH  25  26
ENDBRANCH   7  25
BRANCH  14  32
ATOM     32  C   UNL     1      76.237  83.605  65.814  1.00  0.00    -0.046 C 
ATOM     33  C   UNL     1      75.460  82.354  65.532  1.00  0.00     0.042 C 
ATOM     34  C   UNL     1      77.546  83.576  66.106  1.00  0.00     0.010 C 
ENDBRANCH  14  32
ENDBRANCH   3   4
BRANCH   2  35
ATOM     35  C   UNL     1      71.968  88.448  68.633  1.00  0.00     0.078 CG0
ATOM     36  G   UNL     1      73.154  89.006  67.846  1.00  0.00     0.000 G0
ENDBRANCH   2  35
ENDBRANCH   1   2
BRANCH   1  37
ATOM     37  O   UNL     1      69.973  85.275  68.651  1.00  0.00    -0.461 OA
BRANCH  37  38
ATOM     38  C   UNL     1      69.127  84.603  69.502  1.00  0.00     0.310 C 
ATOM     39  O   UNL     1      69.272  84.517  70.714  1.00  0.00    -0.252 OA
BRANCH  38  40
ATOM     40  C   UNL     1      67.997  83.989  68.709  1.00  0.00     0.158 C 
BRANCH  40  41
ATOM     41  C   UNL     1      66.658  84.603  69.023  1.00  0.00    -0.033 A 
ATOM     42  C   UNL     1      65.527  83.792  69.131  1.00  0.00     0.054 A 
ATOM     43  C   UNL     1      66.547  85.981  69.206  1.00  0.00     0.008 A 
ATOM     44  C   UNL     1      64.287  84.361  69.422  1.00  0.00     0.160 A 
ATOM     45  C   UNL     1      65.307  86.550  69.496  1.00  0.00     0.050 A 
ATOM     46  C   UNL     1      64.177  85.740  69.604  1.00  0.00     0.157 A 
BRANCH  44  47
ATOM     47  O   UNL     1      63.190  83.559  69.525  1.00  0.00    -0.493 OA
ATOM     48  C   UNL     1      63.392  82.159  69.342  1.00  0.00     0.278 C 
ENDBRANCH  44  47
BRANCH  46  49
ATOM     49  O   UNL     1      62.971  86.306  69.889  1.00  0.00    -0.504 OA
ATOM     50  H   UNL     1      62.677  86.001  70.764  1.00  0.00     0.293 HD
ENDBRANCH  46  49
ENDBRANCH  40  41
ENDBRANCH  38  40
ENDBRANCH  37  38
ENDBRANCH   1  37
TORSDOF 11
ENDMDL
