MODEL 1
REMARK VINA RESULT:    -5.204      0.000      0.000
REMARK INTER + INTRA:         -10.451
REMARK INTER:                  -8.550
REMARK INTRA:                  -1.902
REMARK UNBOUND:                -1.902
REMARK SMILES CCCCC[C@H](O)CC(=O)CCc1ccc(O)c(OC)c1
REMARK SMILES IDX 8 1 6 2 7 3 5 5 4 6 3 7 2 8 1 9 9 10 10 11 11 12 12 13 13 14
REMARK SMILES IDX 21 15 14 16 18 17 15 18 16 19 19 20 20 21 17 22
REMARK H PARENT 7 4 17 23
REMARK Flexibility Score: inf
ROOT
ATOM      1  C   UNL     1      93.649  94.034  79.712  1.00  0.00     0.107 C 
ENDROOT
BRANCH   1   2
ATOM      2  C   UNL     1      94.539  95.193  80.168  1.00  0.00     0.121 C 
BRANCH   2   3
ATOM      3  O   UNL     1      94.705  95.146  81.583  1.00  0.00    -0.393 OA
ATOM      4  H   UNL     1      93.896  95.504  81.990  1.00  0.00     0.210 HD
ENDBRANCH   2   3
BRANCH   2   5
ATOM      5  C   UNL     1      95.918  95.191  79.498  1.00  0.00     0.032 C 
BRANCH   5   6
ATOM      6  C   UNL     1      96.627  96.544  79.634  1.00  0.00     0.003 C 
BRANCH   6   7
ATOM      7  C   UNL     1      95.802  97.718  79.095  1.00  0.00    -0.000 C 
BRANCH   7   8
ATOM      8  C   UNL     1      96.522  98.528  78.019  1.00  0.00    -0.003 C 
ATOM      9  C   UNL     1      95.792  99.830  77.724  1.00  0.00     0.004 C 
ENDBRANCH   7   8
ENDBRANCH   6   7
ENDBRANCH   5   6
ENDBRANCH   2   5
ENDBRANCH   1   2
BRANCH   1  10
ATOM     10  C   UNL     1      92.584  94.458  78.714  1.00  0.00     0.135 C 
ATOM     11  O   UNL     1      91.745  93.656  78.304  1.00  0.00    -0.300 OA
BRANCH  10  12
ATOM     12  C   UNL     1      92.587  95.920  78.293  1.00  0.00     0.080 C 
BRANCH  12  13
ATOM     13  C   UNL     1      92.170  96.142  76.838  1.00  0.00     0.043 C 
BRANCH  13  14
ATOM     14  C   UNL     1      93.235  96.828  76.016  1.00  0.00    -0.044 A 
ATOM     15  C   UNL     1      93.006  98.105  75.503  1.00  0.00     0.054 A 
ATOM     16  C   UNL     1      94.448  96.185  75.769  1.00  0.00     0.008 A 
ATOM     17  C   UNL     1      93.990  98.739  74.745  1.00  0.00     0.160 A 
ATOM     18  C   UNL     1      95.433  96.819  75.011  1.00  0.00     0.050 A 
ATOM     19  C   UNL     1      95.203  98.096  74.498  1.00  0.00     0.157 A 
BRANCH  17  20
ATOM     20  O   UNL     1      93.754  99.986  74.249  1.00  0.00    -0.493 OA
ATOM     21  C   UNL     1      93.232 100.956  75.155  1.00  0.00     0.278 C 
ENDBRANCH  17  20
BRANCH  19  22
ATOM     22  O   UNL     1      96.172  98.704  73.759  1.00  0.00    -0.504 OA
ATOM     23  H   UNL     1      96.905  98.080  73.621  1.00  0.00     0.293 HD
ENDBRANCH  19  22
ENDBRANCH  13  14
ENDBRANCH  12  13
ENDBRANCH  10  12
ENDBRANCH   1  10
TORSDOF 12
ENDMDL
MODEL 2
REMARK VINA RESULT:    -5.171     13.115     15.933
REMARK INTER + INTRA:         -10.398
REMARK INTER:                  -9.581
REMARK INTRA:                  -0.817
REMARK UNBOUND:                -1.902
REMARK SMILES CCCCC[C@H](O)CC(=O)CCc1ccc(O)c(OC)c1
REMARK SMILES IDX 8 1 6 2 7 3 5 5 4 6 3 7 2 8 1 9 9 10 10 11 11 12 12 13 13 14
REMARK SMILES IDX 21 15 14 16 18 17 15 18 16 19 19 20 20 21 17 22
REMARK H PARENT 7 4 17 23
REMARK Flexibility Score: inf
ROOT
ATOM      1  C   UNL     1      98.291  82.498  78.250  1.00  0.00     0.107 C 
ENDROOT
BRANCH   1   2
ATOM      2  C   UNL     1      98.453  83.462  77.072  1.00  0.00     0.121 C 
BRANCH   2   3
ATOM      3  O   UNL     1      97.978  84.756  77.436  1.00  0.00    -0.393 OA
ATOM      4  H   UNL     1      97.339  84.644  78.162  1.00  0.00     0.210 HD
ENDBRANCH   2   3
BRANCH   2   5
ATOM      5  C   UNL     1      99.903  83.575  76.585  1.00  0.00     0.032 C 
BRANCH   5   6
ATOM      6  C   UNL     1     100.062  84.639  75.492  1.00  0.00     0.003 C 
BRANCH   6   7
ATOM      7  C   UNL     1     101.506  84.797  75.005  1.00  0.00    -0.000 C 
BRANCH   7   8
ATOM      8  C   UNL     1     101.617  85.345  73.584  1.00  0.00    -0.003 C 
ATOM      9  C   UNL     1     100.654  86.501  73.359  1.00  0.00     0.004 C 
ENDBRANCH   7   8
ENDBRANCH   6   7
ENDBRANCH   5   6
ENDBRANCH   2   5
ENDBRANCH   1   2
BRANCH   1  10
ATOM     10  C   UNL     1      97.936  83.201  79.550  1.00  0.00     0.135 C 
ATOM     11  O   UNL     1      96.815  83.678  79.726  1.00  0.00    -0.300 OA
BRANCH  10  12
ATOM     12  C   UNL     1      99.015  83.240  80.621  1.00  0.00     0.080 C 
BRANCH  12  13
ATOM     13  C   UNL     1      99.125  81.946  81.430  1.00  0.00     0.043 C 
BRANCH  13  14
ATOM     14  C   UNL     1      98.405  82.014  82.756  1.00  0.00    -0.044 A 
ATOM     15  C   UNL     1      97.826  83.211  83.175  1.00  0.00     0.054 A 
ATOM     16  C   UNL     1      98.320  80.878  83.561  1.00  0.00     0.008 A 
ATOM     17  C   UNL     1      97.161  83.272  84.400  1.00  0.00     0.160 A 
ATOM     18  C   UNL     1      97.655  80.939  84.786  1.00  0.00     0.050 A 
ATOM     19  C   UNL     1      97.076  82.136  85.205  1.00  0.00     0.157 A 
BRANCH  17  20
ATOM     20  O   UNL     1      96.600  84.448  84.799  1.00  0.00    -0.493 OA
ATOM     21  C   UNL     1      97.486  85.462  85.271  1.00  0.00     0.278 C 
ENDBRANCH  17  20
BRANCH  19  22
ATOM     22  O   UNL     1      96.429  82.184  86.403  1.00  0.00    -0.504 OA
ATOM     23  H   UNL     1      95.560  81.757  86.311  1.00  0.00     0.293 HD
ENDBRANCH  19  22
ENDBRANCH  13  14
ENDBRANCH  12  13
ENDBRANCH  10  12
ENDBRANCH   1  10
TORSDOF 12
ENDMDL
MODEL 3
REMARK VINA RESULT:    -5.150     22.172     24.712
REMARK INTER + INTRA:         -10.363
REMARK INTER:                  -9.351
REMARK INTRA:                  -1.012
REMARK UNBOUND:                -1.902
REMARK SMILES CCCCC[C@H](O)CC(=O)CCc1ccc(O)c(OC)c1
REMARK SMILES IDX 8 1 6 2 7 3 5 5 4 6 3 7 2 8 1 9 9 10 10 11 11 12 12 13 13 14
REMARK SMILES IDX 21 15 14 16 18 17 15 18 16 19 19 20 20 21 17 22
REMARK H PARENT 7 4 17 23
REMARK Flexibility Score: inf
ROOT
ATOM      1  C   UNL     1      77.577  85.427  70.072  1.00  0.00     0.107 C 
ENDROOT
BRANCH   1   2
ATOM      2  C   UNL     1      76.215  84.742  70.205  1.00  0.00     0.121 C 
BRANCH   2   3
ATOM      3  O   UNL     1      76.042  84.264  71.537  1.00  0.00    -0.393 OA
ATOM      4  H   UNL     1      75.141  84.496  71.822  1.00  0.00     0.210 HD
ENDBRANCH   2   3
BRANCH   2   5
ATOM      5  C   UNL     1      75.043  85.663  69.844  1.00  0.00     0.032 C 
BRANCH   5   6
ATOM      6  C   UNL     1      75.206  87.066  70.440  1.00  0.00     0.003 C 
BRANCH   6   7
ATOM      7  C   UNL     1      73.874  87.791  70.659  1.00  0.00    -0.000 C 
BRANCH   7   8
ATOM      8  C   UNL     1      73.994  89.044  71.525  1.00  0.00    -0.003 C 
ATOM      9  C   UNL     1      72.869  89.121  72.545  1.00  0.00     0.004 C 
ENDBRANCH   7   8
ENDBRANCH   6   7
ENDBRANCH   5   6
ENDBRANCH   2   5
ENDBRANCH   1   2
BRANCH   1  10
ATOM     10  C   UNL     1      78.079  85.481  68.638  1.00  0.00     0.135 C 
ATOM     11  O   UNL     1      78.305  86.558  68.087  1.00  0.00    -0.300 OA
BRANCH  10  12
ATOM     12  C   UNL     1      78.326  84.146  67.952  1.00  0.00     0.080 C 
BRANCH  12  13
ATOM     13  C   UNL     1      77.877  84.114  66.490  1.00  0.00     0.043 C 
BRANCH  13  14
ATOM     14  C   UNL     1      76.666  83.241  66.262  1.00  0.00    -0.044 A 
ATOM     15  C   UNL     1      75.398  83.698  66.619  1.00  0.00     0.054 A 
ATOM     16  C   UNL     1      76.817  81.976  65.693  1.00  0.00     0.008 A 
ATOM     17  C   UNL     1      74.280  82.890  66.407  1.00  0.00     0.160 A 
ATOM     18  C   UNL     1      75.700  81.168  65.480  1.00  0.00     0.050 A 
ATOM     19  C   UNL     1      74.431  81.625  65.838  1.00  0.00     0.157 A 
BRANCH  17  20
ATOM     20  O   UNL     1      73.047  83.347  66.761  1.00  0.00    -0.493 OA
ATOM     21  C   UNL     1      72.408  84.252  65.862  1.00  0.00     0.278 C 
ENDBRANCH  17  20
BRANCH  19  22
ATOM     22  O   UNL     1      73.348  80.828  65.626  1.00  0.00    -0.504 OA
ATOM     23  H   UNL     1      72.912  81.099  64.800  1.00  0.00     0.293 HD
ENDBRANCH  19  22
ENDBRANCH  13  14
ENDBRANCH  12  13
ENDBRANCH  10  12
ENDBRANCH   1  10
TORSDOF 12
ENDMDL
MODEL 4
REMARK VINA RESULT:    -5.007     22.330     25.107
REMARK INTER + INTRA:         -10.129
REMARK INTER:                  -9.044
REMARK INTRA:                  -1.086
REMARK UNBOUND:                -1.902
REMARK SMILES CCCCC[C@H](O)CC(=O)CCc1ccc(O)c(OC)c1
REMARK SMILES IDX 8 1 6 2 7 3 5 5 4 6 3 7 2 8 1 9 9 10 10 11 11 12 12 13 13 14
REMARK SMILES IDX 21 15 14 16 18 17 15 18 16 19 19 20 20 21 17 22
REMARK H PARENT 7 4 17 23
REMARK Flexibility Score: inf
ROOT
ATOM      1  C   UNL     1      76.955  84.750  66.455  1.00  0.00     0.107 C 
ENDROOT
BRANCH   1   2
ATOM      2  C   UNL     1      76.444  83.826  65.347  1.00  0.00     0.121 C 
BRANCH   2   3
ATOM      3  O   UNL     1      77.484  83.583  64.402  1.00  0.00    -0.393 OA
ATOM      4  H   UNL     1      77.299  82.732  63.968  1.00  0.00     0.210 HD
ENDBRANCH   2   3
BRANCH   2   5
ATOM      5  C   UNL     1      75.921  82.485  65.877  1.00  0.00     0.032 C 
BRANCH   5   6
ATOM      6  C   UNL     1      76.096  81.354  64.857  1.00  0.00     0.003 C 
BRANCH   6   7
ATOM      7  C   UNL     1      74.854  81.120  63.991  1.00  0.00    -0.000 C 
BRANCH   7   8
ATOM      8  C   UNL     1      73.577  80.902  64.801  1.00  0.00    -0.003 C 
ATOM      9  C   UNL     1      72.533  80.144  63.995  1.00  0.00     0.004 C 
ENDBRANCH   7   8
ENDBRANCH   6   7
ENDBRANCH   5   6
ENDBRANCH   2   5
ENDBRANCH   1   2
BRANCH   1  10
ATOM     10  C   UNL     1      77.876  84.047  67.439  1.00  0.00     0.135 C 
ATOM     11  O   UNL     1      78.930  83.534  67.064  1.00  0.00    -0.300 OA
BRANCH  10  12
ATOM     12  C   UNL     1      77.449  84.056  68.899  1.00  0.00     0.080 C 
BRANCH  12  13
ATOM     13  C   UNL     1      77.784  85.357  69.631  1.00  0.00     0.043 C 
BRANCH  13  14
ATOM     14  C   UNL     1      76.601  86.286  69.758  1.00  0.00    -0.044 A 
ATOM     15  C   UNL     1      75.306  85.768  69.792  1.00  0.00     0.054 A 
ATOM     16  C   UNL     1      76.803  87.664  69.841  1.00  0.00     0.008 A 
ATOM     17  C   UNL     1      74.214  86.628  69.910  1.00  0.00     0.160 A 
ATOM     18  C   UNL     1      75.711  88.524  69.960  1.00  0.00     0.050 A 
ATOM     19  C   UNL     1      74.417  88.006  69.994  1.00  0.00     0.157 A 
BRANCH  17  20
ATOM     20  O   UNL     1      72.955  86.110  69.942  1.00  0.00    -0.493 OA
ATOM     21  C   UNL     1      72.480  85.486  68.749  1.00  0.00     0.278 C 
ENDBRANCH  17  20
BRANCH  19  22
ATOM     22  O   UNL     1      73.358  88.855  70.110  1.00  0.00    -0.504 OA
ATOM     23  H   UNL     1      72.715  88.476  70.733  1.00  0.00     0.293 HD
ENDBRANCH  19  22
ENDBRANCH  13  14
ENDBRANCH  12  13
ENDBRANCH  10  12
ENDBRANCH   1  10
TORSDOF 12
ENDMDL
MODEL 5
REMARK VINA RESULT:    -5.005      1.924      4.181
REMARK INTER + INTRA:         -10.126
REMARK INTER:                  -8.966
REMARK INTRA:                  -1.159
REMARK UNBOUND:                -1.902
REMARK SMILES CCCCC[C@H](O)CC(=O)CCc1ccc(O)c(OC)c1
REMARK SMILES IDX 8 1 6 2 7 3 5 5 4 6 3 7 2 8 1 9 9 10 10 11 11 12 12 13 13 14
REMARK SMILES IDX 21 15 14 16 18 17 15 18 16 19 19 20 20 21 17 22
REMARK H PARENT 7 4 17 23
REMARK Flexibility Score: inf
ROOT
ATOM      1  C   UNL     1      94.441  95.690  80.719  1.00  0.00     0.107 C 
ENDROOT
BRANCH   1   2
ATOM      2  C   UNL     1      94.204  94.364  79.993  1.00  0.00     0.121 C 
BRANCH   2   3
ATOM      3  O   UNL     1      94.046  93.314  80.944  1.00  0.00    -0.393 OA
ATOM      4  H   UNL     1      94.451  92.511  80.571  1.00  0.00     0.210 HD
ENDBRANCH   2   3
BRANCH   2   5
ATOM      5  C   UNL     1      92.981  94.396  79.069  1.00  0.00     0.032 C 
BRANCH   5   6
ATOM      6  C   UNL     1      92.705  95.803  78.526  1.00  0.00     0.003 C 
BRANCH   6   7
ATOM      7  C   UNL     1      91.404  95.900  77.723  1.00  0.00    -0.000 C 
BRANCH   7   8
ATOM      8  C   UNL     1      90.541  94.641  77.802  1.00  0.00    -0.003 C 
ATOM      9  C   UNL     1      89.137  94.898  77.278  1.00  0.00     0.004 C 
ENDBRANCH   7   8
ENDBRANCH   6   7
ENDBRANCH   5   6
ENDBRANCH   2   5
ENDBRANCH   1   2
BRANCH   1  10
ATOM     10  C   UNL     1      95.873  96.187  80.600  1.00  0.00     0.135 C 
ATOM     11  O   UNL     1      96.579  96.328  81.599  1.00  0.00    -0.300 OA
BRANCH  10  12
ATOM     12  C   UNL     1      96.390  96.450  79.194  1.00  0.00     0.080 C 
BRANCH  12  13
ATOM     13  C   UNL     1      95.849  97.738  78.571  1.00  0.00     0.043 C 
BRANCH  13  14
ATOM     14  C   UNL     1      95.929  97.746  77.063  1.00  0.00    -0.044 A 
ATOM     15  C   UNL     1      96.832  98.589  76.417  1.00  0.00     0.054 A 
ATOM     16  C   UNL     1      95.099  96.908  76.317  1.00  0.00     0.008 A 
ATOM     17  C   UNL     1      96.906  98.595  75.024  1.00  0.00     0.160 A 
ATOM     18  C   UNL     1      95.173  96.913  74.924  1.00  0.00     0.050 A 
ATOM     19  C   UNL     1      96.076  97.757  74.278  1.00  0.00     0.157 A 
BRANCH  17  20
ATOM     20  O   UNL     1      97.791  99.424  74.403  1.00  0.00    -0.493 OA
ATOM     21  C   UNL     1      99.152  99.000  74.357  1.00  0.00     0.278 C 
ENDBRANCH  17  20
BRANCH  19  22
ATOM     22  O   UNL     1      96.138  97.754  72.917  1.00  0.00    -0.504 OA
ATOM     23  H   UNL     1      96.521  98.595  72.615  1.00  0.00     0.293 HD
ENDBRANCH  19  22
ENDBRANCH  13  14
ENDBRANCH  12  13
ENDBRANCH  10  12
ENDBRANCH   1  10
TORSDOF 12
ENDMDL
MODEL 6
REMARK VINA RESULT:    -4.934      1.644      3.791
REMARK INTER + INTRA:         -10.009
REMARK INTER:                  -9.106
REMARK INTRA:                  -0.902
REMARK UNBOUND:                -1.902
REMARK SMILES CCCCC[C@H](O)CC(=O)CCc1ccc(O)c(OC)c1
REMARK SMILES IDX 8 1 6 2 7 3 5 5 4 6 3 7 2 8 1 9 9 10 10 11 11 12 12 13 13 14
REMARK SMILES IDX 21 15 14 16 18 17 15 18 16 19 19 20 20 21 17 22
REMARK H PARENT 7 4 17 23
REMARK Flexibility Score: inf
ROOT
ATOM      1  C   UNL     1      94.401  95.604  79.932  1.00  0.00     0.107 C 
ENDROOT
BRANCH   1   2
ATOM      2  C   UNL     1      94.138  94.145  79.550  1.00  0.00     0.121 C 
BRANCH   2   3
ATOM      3  O   UNL     1      93.606  93.441  80.669  1.00  0.00    -0.393 OA
ATOM      4  H   UNL     1      93.622  92.491  80.457  1.00  0.00     0.210 HD
ENDBRANCH   2   3
BRANCH   2   5
ATOM      5  C   UNL     1      93.181  94.000  78.360  1.00  0.00     0.032 C 
BRANCH   5   6
ATOM      6  C   UNL     1      91.732  94.324  78.743  1.00  0.00     0.003 C 
BRANCH   6   7
ATOM      7  C   UNL     1      91.052  95.299  77.776  1.00  0.00    -0.000 C 
BRANCH   7   8
ATOM      8  C   UNL     1      89.594  94.953  77.483  1.00  0.00    -0.003 C 
ATOM      9  C   UNL     1      89.185  93.655  78.162  1.00  0.00     0.004 C 
ENDBRANCH   7   8
ENDBRANCH   6   7
ENDBRANCH   5   6
ENDBRANCH   2   5
ENDBRANCH   1   2
BRANCH   1  10
ATOM     10  C   UNL     1      95.669  96.164  79.309  1.00  0.00     0.135 C 
ATOM     11  O   UNL     1      96.774  95.713  79.608  1.00  0.00    -0.300 OA
BRANCH  10  12
ATOM     12  C   UNL     1      95.492  97.266  78.275  1.00  0.00     0.080 C 
BRANCH  12  13
ATOM     13  C   UNL     1      94.418  96.960  77.229  1.00  0.00     0.043 C 
BRANCH  13  14
ATOM     14  C   UNL     1      94.663  97.654  75.910  1.00  0.00    -0.044 A 
ATOM     15  C   UNL     1      93.664  98.445  75.342  1.00  0.00     0.054 A 
ATOM     16  C   UNL     1      95.888  97.503  75.260  1.00  0.00     0.008 A 
ATOM     17  C   UNL     1      93.891  99.086  74.124  1.00  0.00     0.160 A 
ATOM     18  C   UNL     1      96.115  98.145  74.042  1.00  0.00     0.050 A 
ATOM     19  C   UNL     1      95.117  98.936  73.474  1.00  0.00     0.157 A 
BRANCH  17  20
ATOM     20  O   UNL     1      92.908  99.856  73.579  1.00  0.00    -0.493 OA
ATOM     21  C   UNL     1      92.658 101.119  74.193  1.00  0.00     0.278 C 
ENDBRANCH  17  20
BRANCH  19  22
ATOM     22  O   UNL     1      95.350  99.557  72.284  1.00  0.00    -0.504 OA
ATOM     23  H   UNL     1      95.597  98.889  71.622  1.00  0.00     0.293 HD
ENDBRANCH  19  22
ENDBRANCH  13  14
ENDBRANCH  12  13
ENDBRANCH  10  12
ENDBRANCH   1  10
TORSDOF 12
ENDMDL
MODEL 7
REMARK VINA RESULT:    -4.866     13.981     16.514
REMARK INTER + INTRA:          -9.897
REMARK INTER:                  -8.962
REMARK INTRA:                  -0.936
REMARK UNBOUND:                -1.902
REMARK SMILES CCCCC[C@H](O)CC(=O)CCc1ccc(O)c(OC)c1
REMARK SMILES IDX 8 1 6 2 7 3 5 5 4 6 3 7 2 8 1 9 9 10 10 11 11 12 12 13 13 14
REMARK SMILES IDX 21 15 14 16 18 17 15 18 16 19 19 20 20 21 17 22
REMARK H PARENT 7 4 17 23
REMARK Flexibility Score: inf
ROOT
ATOM      1  C   UNL     1      99.427  83.171  80.394  1.00  0.00     0.107 C 
ENDROOT
BRANCH   1   2
ATOM      2  C   UNL     1      98.949  82.217  79.297  1.00  0.00     0.121 C 
BRANCH   2   3
ATOM      3  O   UNL     1      98.911  80.883  79.798  1.00  0.00    -0.393 OA
ATOM      4  H   UNL     1      99.820  80.537  79.792  1.00  0.00     0.210 HD
ENDBRANCH   2   3
BRANCH   2   5
ATOM      5  C   UNL     1      97.568  82.587  78.741  1.00  0.00     0.032 C 
BRANCH   5   6
ATOM      6  C   UNL     1      97.457  84.083  78.421  1.00  0.00     0.003 C 
BRANCH   6   7
ATOM      7  C   UNL     1      97.607  84.396  76.929  1.00  0.00    -0.000 C 
BRANCH   7   8
ATOM      8  C   UNL     1      98.210  83.249  76.120  1.00  0.00    -0.003 C 
ATOM      9  C   UNL     1      99.664  83.523  75.768  1.00  0.00     0.004 C 
ENDBRANCH   7   8
ENDBRANCH   6   7
ENDBRANCH   5   6
ENDBRANCH   2   5
ENDBRANCH   1   2
BRANCH   1  10
ATOM     10  C   UNL     1      99.237  82.611  81.795  1.00  0.00     0.135 C 
ATOM     11  O   UNL     1     100.071  81.856  82.293  1.00  0.00    -0.300 OA
BRANCH  10  12
ATOM     12  C   UNL     1      97.998  83.068  82.549  1.00  0.00     0.080 C 
BRANCH  12  13
ATOM     13  C   UNL     1      97.814  82.380  83.903  1.00  0.00     0.043 C 
BRANCH  13  14
ATOM     14  C   UNL     1      97.551  83.350  85.030  1.00  0.00    -0.044 A 
ATOM     15  C   UNL     1      98.222  83.209  86.244  1.00  0.00     0.054 A 
ATOM     16  C   UNL     1      96.635  84.389  84.855  1.00  0.00     0.008 A 
ATOM     17  C   UNL     1      97.979  84.107  87.284  1.00  0.00     0.160 A 
ATOM     18  C   UNL     1      96.392  85.287  85.895  1.00  0.00     0.050 A 
ATOM     19  C   UNL     1      97.064  85.145  87.109  1.00  0.00     0.157 A 
BRANCH  17  20
ATOM     20  O   UNL     1      98.641  83.958  88.465  1.00  0.00    -0.493 OA
ATOM     21  C   UNL     1      99.801  83.128  88.458  1.00  0.00     0.278 C 
ENDBRANCH  17  20
BRANCH  19  22
ATOM     22  O   UNL     1      96.818  86.028  88.117  1.00  0.00    -0.504 OA
ATOM     23  H   UNL     1      97.511  86.710  88.117  1.00  0.00     0.293 HD
ENDBRANCH  19  22
ENDBRANCH  13  14
ENDBRANCH  12  13
ENDBRANCH  10  12
ENDBRANCH   1  10
TORSDOF 12
ENDMDL
MODEL 8
REMARK VINA RESULT:    -4.834      1.549      5.342
REMARK INTER + INTRA:          -9.844
REMARK INTER:                  -7.823
REMARK INTRA:                  -2.021
REMARK UNBOUND:                -1.902
REMARK SMILES CCCCC[C@H](O)CC(=O)CCc1ccc(O)c(OC)c1
REMARK SMILES IDX 8 1 6 2 7 3 5 5 4 6 3 7 2 8 1 9 9 10 10 11 11 12 12 13 13 14
REMARK SMILES IDX 21 15 14 16 18 17 15 18 16 19 19 20 20 21 17 22
REMARK H PARENT 7 4 17 23
REMARK Flexibility Score: inf
ROOT
ATOM      1  C   UNL     1      96.882  99.362  75.955  1.00  0.00     0.107 C 
ENDROOT
BRANCH   1   2
ATOM      2  C   UNL     1      96.220 100.089  77.128  1.00  0.00     0.121 C 
BRANCH   2   3
ATOM      3  O   UNL     1      95.021 100.722  76.690  1.00  0.00    -0.393 OA
ATOM      4  H   UNL     1      94.627 101.176  77.455  1.00  0.00     0.210 HD
ENDBRANCH   2   3
BRANCH   2   5
ATOM      5  C   UNL     1      95.900  99.159  78.305  1.00  0.00     0.032 C 
BRANCH   5   6
ATOM      6  C   UNL     1      96.993  98.107  78.523  1.00  0.00     0.003 C 
BRANCH   6   7
ATOM      7  C   UNL     1      96.609  97.037  79.550  1.00  0.00    -0.000 C 
BRANCH   7   8
ATOM      8  C   UNL     1      95.649  97.539  80.627  1.00  0.00    -0.003 C 
ATOM      9  C   UNL     1      94.693  96.443  81.072  1.00  0.00     0.004 C 
ENDBRANCH   7   8
ENDBRANCH   6   7
ENDBRANCH   5   6
ENDBRANCH   2   5
ENDBRANCH   1   2
BRANCH   1  10
ATOM     10  C   UNL     1      95.886  98.887  74.910  1.00  0.00     0.135 C 
ATOM     11  O   UNL     1      95.555  99.615  73.974  1.00  0.00    -0.300 OA
BRANCH  10  12
ATOM     12  C   UNL     1      95.366  97.466  75.060  1.00  0.00     0.080 C 
BRANCH  12  13
ATOM     13  C   UNL     1      93.858  97.386  75.308  1.00  0.00     0.043 C 
BRANCH  13  14
ATOM     14  C   UNL     1      93.485  96.369  76.360  1.00  0.00    -0.044 A 
ATOM     15  C   UNL     1      92.152  96.217  76.741  1.00  0.00     0.054 A 
ATOM     16  C   UNL     1      94.474  95.582  76.951  1.00  0.00     0.008 A 
ATOM     17  C   UNL     1      91.808  95.277  77.713  1.00  0.00     0.160 A 
ATOM     18  C   UNL     1      94.130  94.642  77.923  1.00  0.00     0.050 A 
ATOM     19  C   UNL     1      92.797  94.490  78.304  1.00  0.00     0.157 A 
BRANCH  17  20
ATOM     20  O   UNL     1      90.503  95.137  78.078  1.00  0.00    -0.493 OA
ATOM     21  C   UNL     1      89.634  94.494  77.146  1.00  0.00     0.278 C 
ENDBRANCH  17  20
BRANCH  19  22
ATOM     22  O   UNL     1      92.473  93.569  79.254  1.00  0.00    -0.504 OA
ATOM     23  H   UNL     1      93.288  93.262  79.688  1.00  0.00     0.293 HD
ENDBRANCH  19  22
ENDBRANCH  13  14
ENDBRANCH  12  13
ENDBRANCH  10  12
ENDBRANCH   1  10
TORSDOF 12
ENDMDL
MODEL 9
REMARK VINA RESULT:    -4.758     14.451     16.667
REMARK INTER + INTRA:          -9.719
REMARK INTER:                  -8.422
REMARK INTRA:                  -1.296
REMARK UNBOUND:                -1.902
REMARK SMILES CCCCC[C@H](O)CC(=O)CCc1ccc(O)c(OC)c1
REMARK SMILES IDX 8 1 6 2 7 3 5 5 4 6 3 7 2 8 1 9 9 10 10 11 11 12 12 13 13 14
REMARK SMILES IDX 21 15 14 16 18 17 15 18 16 19 19 20 20 21 17 22
REMARK H PARENT 7 4 17 23
REMARK Flexibility Score: inf
ROOT
ATOM      1  C   UNL     1      98.844  82.396  77.259  1.00  0.00     0.107 C 
ENDROOT
BRANCH   1   2
ATOM      2  C   UNL     1      99.262  83.283  76.083  1.00  0.00     0.121 C 
BRANCH   2   3
ATOM      3  O   UNL     1      98.983  84.648  76.383  1.00  0.00    -0.393 OA
ATOM      4  H   UNL     1      99.763  85.173  76.133  1.00  0.00     0.210 HD
ENDBRANCH   2   3
BRANCH   2   5
ATOM      5  C   UNL     1     100.745  83.138  75.720  1.00  0.00     0.032 C 
BRANCH   5   6
ATOM      6  C   UNL     1     101.656  83.297  76.944  1.00  0.00     0.003 C 
BRANCH   6   7
ATOM      7  C   UNL     1     102.940  82.466  76.856  1.00  0.00    -0.000 C 
BRANCH   7   8
ATOM      8  C   UNL     1     103.312  81.773  78.165  1.00  0.00    -0.003 C 
ATOM      9  C   UNL     1     102.103  81.623  79.076  1.00  0.00     0.004 C 
ENDBRANCH   7   8
ENDBRANCH   6   7
ENDBRANCH   5   6
ENDBRANCH   2   5
ENDBRANCH   1   2
BRANCH   1  10
ATOM     10  C   UNL     1      98.119  83.162  78.353  1.00  0.00     0.135 C 
ATOM     11  O   UNL     1      97.000  83.637  78.159  1.00  0.00    -0.300 OA
BRANCH  10  12
ATOM     12  C   UNL     1      98.826  83.266  79.696  1.00  0.00     0.080 C 
BRANCH  12  13
ATOM     13  C   UNL     1      97.873  83.287  80.893  1.00  0.00     0.043 C 
BRANCH  13  14
ATOM     14  C   UNL     1      98.521  82.815  82.173  1.00  0.00    -0.044 A 
ATOM     15  C   UNL     1      97.922  83.095  83.402  1.00  0.00     0.054 A 
ATOM     16  C   UNL     1      99.718  82.100  82.127  1.00  0.00     0.008 A 
ATOM     17  C   UNL     1      98.521  82.658  84.584  1.00  0.00     0.160 A 
ATOM     18  C   UNL     1     100.316  81.663  83.309  1.00  0.00     0.050 A 
ATOM     19  C   UNL     1      99.718  81.943  84.537  1.00  0.00     0.157 A 
BRANCH  17  20
ATOM     20  O   UNL     1      97.928  82.937  85.778  1.00  0.00    -0.493 OA
ATOM     21  C   UNL     1      98.205  84.211  86.357  1.00  0.00     0.278 C 
ENDBRANCH  17  20
BRANCH  19  22
ATOM     22  O   UNL     1     100.312  81.511  85.684  1.00  0.00    -0.504 OA
ATOM     23  H   UNL     1     100.484  82.277  86.259  1.00  0.00     0.293 HD
ENDBRANCH  19  22
ENDBRANCH  13  14
ENDBRANCH  12  13
ENDBRANCH  10  12
ENDBRANCH   1  10
TORSDOF 12
ENDMDL
MODEL 10
REMARK VINA RESULT:    -4.746      3.042      6.354
REMARK INTER + INTRA:          -9.699
REMARK INTER:                  -8.557
REMARK INTRA:                  -1.143
REMARK UNBOUND:                -1.902
REMARK SMILES CCCCC[C@H](O)CC(=O)CCc1ccc(O)c(OC)c1
REMARK SMILES IDX 8 1 6 2 7 3 5 5 4 6 3 7 2 8 1 9 9 10 10 11 11 12 12 13 13 14
REMARK SMILES IDX 21 15 14 16 18 17 15 18 16 19 19 20 20 21 17 22
REMARK H PARENT 7 4 17 23
REMARK Flexibility Score: inf
ROOT
ATOM      1  C   UNL     1      93.514  94.944  79.162  1.00  0.00     0.107 C 
ENDROOT
BRANCH   1   2
ATOM      2  C   UNL     1      92.589  94.039  78.344  1.00  0.00     0.121 C 
BRANCH   2   3
ATOM      3  O   UNL     1      91.452  93.677  79.124  1.00  0.00    -0.393 OA
ATOM      4  H   UNL     1      90.757  94.338  78.961  1.00  0.00     0.210 HD
ENDBRANCH   2   3
BRANCH   2   5
ATOM      5  C   UNL     1      92.118  94.688  77.036  1.00  0.00     0.032 C 
BRANCH   5   6
ATOM      6  C   UNL     1      92.838  96.012  76.758  1.00  0.00     0.003 C 
BRANCH   6   7
ATOM      7  C   UNL     1      94.044  95.862  75.825  1.00  0.00    -0.000 C 
BRANCH   7   8
ATOM      8  C   UNL     1      95.092  96.961  75.996  1.00  0.00    -0.003 C 
ATOM      9  C   UNL     1      94.491  98.340  75.773  1.00  0.00     0.004 C 
ENDBRANCH   7   8
ENDBRANCH   6   7
ENDBRANCH   5   6
ENDBRANCH   2   5
ENDBRANCH   1   2
BRANCH   1  10
ATOM     10  C   UNL     1      94.413  94.172  80.113  1.00  0.00     0.135 C 
ATOM     11  O   UNL     1      93.943  93.361  80.911  1.00  0.00    -0.300 OA
BRANCH  10  12
ATOM     12  C   UNL     1      95.909  94.423  79.992  1.00  0.00     0.080 C 
BRANCH  12  13
ATOM     13  C   UNL     1      96.267  95.885  79.718  1.00  0.00     0.043 C 
BRANCH  13  14
ATOM     14  C   UNL     1      96.305  96.729  80.969  1.00  0.00    -0.044 A 
ATOM     15  C   UNL     1      97.487  96.837  81.702  1.00  0.00     0.054 A 
ATOM     16  C   UNL     1      95.158  97.402  81.392  1.00  0.00     0.008 A 
ATOM     17  C   UNL     1      97.522  97.619  82.857  1.00  0.00     0.160 A 
ATOM     18  C   UNL     1      95.193  98.183  82.547  1.00  0.00     0.050 A 
ATOM     19  C   UNL     1      96.374  98.291  83.280  1.00  0.00     0.157 A 
BRANCH  17  20
ATOM     20  O   UNL     1      98.681  97.716  83.566  1.00  0.00    -0.493 OA
ATOM     21  C   UNL     1      99.673  98.611  83.065  1.00  0.00     0.278 C 
ENDBRANCH  17  20
BRANCH  19  22
ATOM     22  O   UNL     1      96.396  99.057  84.406  1.00  0.00    -0.504 OA
ATOM     23  H   UNL     1      96.330  99.994  84.154  1.00  0.00     0.293 HD
ENDBRANCH  19  22
ENDBRANCH  13  14
ENDBRANCH  12  13
ENDBRANCH  10  12
ENDBRANCH   1  10
TORSDOF 12
ENDMDL
