MODEL 1
REMARK VINA RESULT:    -6.233      0.000      0.000
REMARK INTER + INTRA:         -11.042
REMARK INTER:                  -9.694
REMARK INTRA:                  -1.347
REMARK UNBOUND:                -1.347
REMARK SMILES CCCCC/C=C/C(=O)CCc1ccc(O)c(OC)c1
REMARK SMILES IDX 6 1 7 2 8 3 9 4 10 5 11 6 12 7 17 8 20 9 15 10 14 11 13 12
REMARK SMILES IDX 18 13 19 14 16 15 5 17 4 18 3 19 2 20 1 21
REMARK H PARENT 16 16
REMARK Flexibility Score: inf
ROOT
ATOM      1  C   UNL     1      92.268  96.261  77.427  1.00  0.00    -0.023 C 
ATOM      2  C   UNL     1      93.083  95.972  76.405  1.00  0.00     0.043 C 
ENDROOT
BRANCH   2   3
ATOM      3  C   UNL     1      94.405  96.647  76.296  1.00  0.00     0.155 C 
ATOM      4  O   UNL     1      95.164  96.439  75.352  1.00  0.00    -0.295 OA
BRANCH   3   5
ATOM      5  C   UNL     1      94.790  97.567  77.439  1.00  0.00     0.085 C 
BRANCH   5   6
ATOM      6  C   UNL     1      96.058  97.078  78.141  1.00  0.00     0.044 C 
BRANCH   6   7
ATOM      7  C   UNL     1      95.769  96.148  79.295  1.00  0.00    -0.044 A 
ATOM      8  C   UNL     1      95.059  95.816  81.563  1.00  0.00     0.160 A 
ATOM      9  C   UNL     1      95.326  96.676  80.498  1.00  0.00     0.054 A 
ATOM     10  C   UNL     1      95.239  94.441  81.413  1.00  0.00     0.157 A 
ATOM     11  C   UNL     1      95.686  93.926  80.196  1.00  0.00     0.050 A 
ATOM     12  C   UNL     1      95.953  94.785  79.131  1.00  0.00     0.008 A 
BRANCH   8  13
ATOM     13  O   UNL     1      94.623  96.332  82.747  1.00  0.00    -0.493 OA
ATOM     14  C   UNL     1      95.569  97.063  83.523  1.00  0.00     0.278 C 
ENDBRANCH   8  13
BRANCH  10  15
ATOM     15  O   UNL     1      94.981  93.592  82.446  1.00  0.00    -0.504 OA
ATOM     16  H   UNL     1      95.659  92.895  82.445  1.00  0.00     0.293 HD
ENDBRANCH  10  15
ENDBRANCH   6   7
ENDBRANCH   5   6
ENDBRANCH   3   5
ENDBRANCH   2   3
BRANCH   1  17
ATOM     17  C   UNL     1      90.920  95.625  77.607  1.00  0.00     0.027 C 
BRANCH  17  18
ATOM     18  C   UNL     1      90.962  94.365  78.479  1.00  0.00     0.004 C 
BRANCH  18  19
ATOM     19  C   UNL     1      90.061  93.236  77.969  1.00  0.00     0.000 C 
BRANCH  19  20
ATOM     20  C   UNL     1      90.130  93.121  76.445  1.00  0.00    -0.003 C 
ATOM     21  C   UNL     1      91.342  92.317  76.002  1.00  0.00     0.004 C 
ENDBRANCH  19  20
ENDBRANCH  18  19
ENDBRANCH  17  18
ENDBRANCH   1  17
TORSDOF 10
ENDMDL
MODEL 2
REMARK VINA RESULT:    -6.123      1.196      2.358
REMARK INTER + INTRA:         -10.870
REMARK INTER:                  -9.823
REMARK INTRA:                  -1.047
REMARK UNBOUND:                -1.347
REMARK SMILES CCCCC/C=C/C(=O)CCc1ccc(O)c(OC)c1
REMARK SMILES IDX 6 1 7 2 8 3 9 4 10 5 11 6 12 7 17 8 20 9 15 10 14 11 13 12
REMARK SMILES IDX 18 13 19 14 16 15 5 17 4 18 3 19 2 20 1 21
REMARK H PARENT 16 16
REMARK Flexibility Score: inf
ROOT
ATOM      1  C   UNL     1      93.389  96.426  76.988  1.00  0.00    -0.023 C 
ATOM      2  C   UNL     1      94.346  96.536  76.058  1.00  0.00     0.043 C 
ENDROOT
BRANCH   2   3
ATOM      3  C   UNL     1      95.477  97.480  76.265  1.00  0.00     0.155 C 
ATOM      4  O   UNL     1      96.401  97.572  75.460  1.00  0.00    -0.295 OA
BRANCH   3   5
ATOM      5  C   UNL     1      95.457  98.288  77.548  1.00  0.00     0.085 C 
BRANCH   5   6
ATOM      6  C   UNL     1      96.580  97.858  78.492  1.00  0.00     0.044 C 
BRANCH   6   7
ATOM      7  C   UNL     1      96.071  97.375  79.830  1.00  0.00    -0.044 A 
ATOM      8  C   UNL     1      95.118  95.636  81.182  1.00  0.00     0.160 A 
ATOM      9  C   UNL     1      95.588  96.082  79.946  1.00  0.00     0.054 A 
ATOM     10  C   UNL     1      95.137  96.490  82.284  1.00  0.00     0.157 A 
ATOM     11  C   UNL     1      95.626  97.790  82.151  1.00  0.00     0.050 A 
ATOM     12  C   UNL     1      96.096  98.235  80.916  1.00  0.00     0.008 A 
BRANCH   8  13
ATOM     13  O   UNL     1      94.642  94.365  81.298  1.00  0.00    -0.493 OA
ATOM     14  C   UNL     1      94.153  93.744  80.111  1.00  0.00     0.278 C 
ENDBRANCH   8  13
BRANCH  10  15
ATOM     15  O   UNL     1      94.681  96.066  83.496  1.00  0.00    -0.504 OA
ATOM     16  H   UNL     1      94.793  95.101  83.544  1.00  0.00     0.293 HD
ENDBRANCH  10  15
ENDBRANCH   6   7
ENDBRANCH   5   6
ENDBRANCH   3   5
ENDBRANCH   2   3
BRANCH   1  17
ATOM     17  C   UNL     1      92.217  95.497  76.854  1.00  0.00     0.027 C 
BRANCH  17  18
ATOM     18  C   UNL     1      90.977  95.980  77.614  1.00  0.00     0.004 C 
BRANCH  18  19
ATOM     19  C   UNL     1      89.723  95.147  77.334  1.00  0.00     0.000 C 
BRANCH  19  20
ATOM     20  C   UNL     1      90.037  93.650  77.363  1.00  0.00    -0.003 C 
ATOM     21  C   UNL     1      89.676  93.032  78.705  1.00  0.00     0.004 C 
ENDBRANCH  19  20
ENDBRANCH  18  19
ENDBRANCH  17  18
ENDBRANCH   1  17
TORSDOF 10
ENDMDL
MODEL 3
REMARK VINA RESULT:    -5.586      9.062     12.744
REMARK INTER + INTRA:         -10.035
REMARK INTER:                  -8.872
REMARK INTRA:                  -1.162
REMARK UNBOUND:                -1.347
REMARK SMILES CCCCC/C=C/C(=O)CCc1ccc(O)c(OC)c1
REMARK SMILES IDX 6 1 7 2 8 3 9 4 10 5 11 6 12 7 17 8 20 9 15 10 14 11 13 12
REMARK SMILES IDX 18 13 19 14 16 15 5 17 4 18 3 19 2 20 1 21
REMARK H PARENT 16 16
REMARK Flexibility Score: inf
ROOT
ATOM      1  C   UNL     1      90.673  99.289  70.944  1.00  0.00    -0.023 C 
ATOM      2  C   UNL     1      89.584  98.517  71.036  1.00  0.00     0.043 C 
ENDROOT
BRANCH   2   3
ATOM      3  C   UNL     1      89.337  97.457  70.021  1.00  0.00     0.155 C 
ATOM      4  O   UNL     1      89.880  96.356  70.087  1.00  0.00    -0.295 OA
BRANCH   3   5
ATOM      5  C   UNL     1      88.422  97.824  68.869  1.00  0.00     0.085 C 
BRANCH   5   6
ATOM      6  C   UNL     1      89.219  98.329  67.665  1.00  0.00     0.044 C 
BRANCH   6   7
ATOM      7  C   UNL     1      89.296  99.836  67.601  1.00  0.00    -0.044 A 
ATOM      8  C   UNL     1      90.490 101.828  66.997  1.00  0.00     0.160 A 
ATOM      9  C   UNL     1      90.420 100.436  67.056  1.00  0.00     0.054 A 
ATOM     10  C   UNL     1      89.437 102.601  67.483  1.00  0.00     0.157 A 
ATOM     11  C   UNL     1      88.312 101.982  68.030  1.00  0.00     0.050 A 
ATOM     12  C   UNL     1      88.241 100.590  68.089  1.00  0.00     0.008 A 
BRANCH   8  13
ATOM     13  O   UNL     1      91.594 102.420  66.461  1.00  0.00    -0.493 OA
ATOM     14  C   UNL     1      92.791 102.382  67.236  1.00  0.00     0.278 C 
ENDBRANCH   8  13
BRANCH  10  15
ATOM     15  O   UNL     1      89.493 103.961  67.431  1.00  0.00    -0.504 OA
ATOM     16  H   UNL     1      88.891 104.265  66.730  1.00  0.00     0.293 HD
ENDBRANCH  10  15
ENDBRANCH   6   7
ENDBRANCH   5   6
ENDBRANCH   3   5
ENDBRANCH   2   3
BRANCH   1  17
ATOM     17  C   UNL     1      90.993 100.378  71.926  1.00  0.00     0.027 C 
BRANCH  17  18
ATOM     18  C   UNL     1      92.325 100.162  72.651  1.00  0.00     0.004 C 
BRANCH  18  19
ATOM     19  C   UNL     1      92.570 101.153  73.794  1.00  0.00     0.000 C 
BRANCH  19  20
ATOM     20  C   UNL     1      92.853 100.422  75.107  1.00  0.00    -0.003 C 
ATOM     21  C   UNL     1      92.906  98.916  74.906  1.00  0.00     0.004 C 
ENDBRANCH  19  20
ENDBRANCH  18  19
ENDBRANCH  17  18
ENDBRANCH   1  17
TORSDOF 10
ENDMDL
MODEL 4
REMARK VINA RESULT:    -5.574     21.821     26.263
REMARK INTER + INTRA:         -10.016
REMARK INTER:                  -9.130
REMARK INTRA:                  -0.886
REMARK UNBOUND:                -1.347
REMARK SMILES CCCCC/C=C/C(=O)CCc1ccc(O)c(OC)c1
REMARK SMILES IDX 6 1 7 2 8 3 9 4 10 5 11 6 12 7 17 8 20 9 15 10 14 11 13 12
REMARK SMILES IDX 18 13 19 14 16 15 5 17 4 18 3 19 2 20 1 21
REMARK H PARENT 16 16
REMARK Flexibility Score: inf
ROOT
ATOM      1  C   UNL     1      77.665  85.150  67.448  1.00  0.00    -0.023 C 
ATOM      2  C   UNL     1      78.326  84.301  66.651  1.00  0.00     0.043 C 
ENDROOT
BRANCH   2   3
ATOM      3  C   UNL     1      77.584  83.514  65.629  1.00  0.00     0.155 C 
ATOM      4  O   UNL     1      77.454  83.910  64.473  1.00  0.00    -0.295 OA
BRANCH   3   5
ATOM      5  C   UNL     1      76.951  82.220  66.102  1.00  0.00     0.085 C 
BRANCH   5   6
ATOM      6  C   UNL     1      76.594  81.313  64.923  1.00  0.00     0.044 C 
BRANCH   6   7
ATOM      7  C   UNL     1      75.117  81.313  64.608  1.00  0.00    -0.044 A 
ATOM      8  C   UNL     1      72.846  81.639  65.311  1.00  0.00     0.160 A 
ATOM      9  C   UNL     1      74.210  81.638  65.603  1.00  0.00     0.054 A 
ATOM     10  C   UNL     1      72.407  81.314  64.028  1.00  0.00     0.157 A 
ATOM     11  C   UNL     1      73.333  80.988  63.036  1.00  0.00     0.050 A 
ATOM     12  C   UNL     1      74.697  80.987  63.328  1.00  0.00     0.008 A 
BRANCH   8  13
ATOM     13  O   UNL     1      71.952  81.958  66.288  1.00  0.00    -0.493 OA
ATOM     14  C   UNL     1      72.024  83.277  66.827  1.00  0.00     0.278 C 
ENDBRANCH   8  13
BRANCH  10  15
ATOM     15  O   UNL     1      71.078  81.311  63.730  1.00  0.00    -0.504 OA
ATOM     16  H   UNL     1      70.982  81.369  62.764  1.00  0.00     0.293 HD
ENDBRANCH  10  15
ENDBRANCH   6   7
ENDBRANCH   5   6
ENDBRANCH   3   5
ENDBRANCH   2   3
BRANCH   1  17
ATOM     17  C   UNL     1      78.339  85.980  68.502  1.00  0.00     0.027 C 
BRANCH  17  18
ATOM     18  C   UNL     1      77.440  86.266  69.709  1.00  0.00     0.004 C 
BRANCH  18  19
ATOM     19  C   UNL     1      75.953  86.012  69.441  1.00  0.00     0.000 C 
BRANCH  19  20
ATOM     20  C   UNL     1      75.340  85.126  70.526  1.00  0.00    -0.003 C 
ATOM     21  C   UNL     1      76.362  84.157  71.097  1.00  0.00     0.004 C 
ENDBRANCH  19  20
ENDBRANCH  18  19
ENDBRANCH  17  18
ENDBRANCH   1  17
TORSDOF 10
ENDMDL
MODEL 5
REMARK VINA RESULT:    -5.515      2.020      4.113
REMARK INTER + INTRA:          -9.924
REMARK INTER:                  -8.651
REMARK INTRA:                  -1.273
REMARK UNBOUND:                -1.347
REMARK SMILES CCCCC/C=C/C(=O)CCc1ccc(O)c(OC)c1
REMARK SMILES IDX 6 1 7 2 8 3 9 4 10 5 11 6 12 7 17 8 20 9 15 10 14 11 13 12
REMARK SMILES IDX 18 13 19 14 16 15 5 17 4 18 3 19 2 20 1 21
REMARK H PARENT 16 16
REMARK Flexibility Score: inf
ROOT
ATOM      1  C   UNL     1      93.075  96.587  75.994  1.00  0.00    -0.023 C 
ATOM      2  C   UNL     1      93.565  95.409  76.400  1.00  0.00     0.043 C 
ENDROOT
BRANCH   2   3
ATOM      3  C   UNL     1      92.673  94.427  77.075  1.00  0.00     0.155 C 
ATOM      4  O   UNL     1      91.930  93.682  76.439  1.00  0.00    -0.295 OA
BRANCH   3   5
ATOM      5  C   UNL     1      92.688  94.430  78.591  1.00  0.00     0.085 C 
BRANCH   5   6
ATOM      6  C   UNL     1      93.365  95.688  79.137  1.00  0.00     0.044 C 
BRANCH   6   7
ATOM      7  C   UNL     1      94.313  95.397  80.276  1.00  0.00    -0.044 A 
ATOM      8  C   UNL     1      95.656  96.175  82.107  1.00  0.00     0.160 A 
ATOM      9  C   UNL     1      94.780  96.444  81.055  1.00  0.00     0.054 A 
ATOM     10  C   UNL     1      96.054  94.863  82.366  1.00  0.00     0.157 A 
ATOM     11  C   UNL     1      95.575  93.820  81.572  1.00  0.00     0.050 A 
ATOM     12  C   UNL     1      94.700  94.089  80.520  1.00  0.00     0.008 A 
BRANCH   8  13
ATOM     13  O   UNL     1      96.116  97.202  82.875  1.00  0.00    -0.493 OA
ATOM     14  C   UNL     1      96.652  98.333  82.191  1.00  0.00     0.278 C 
ENDBRANCH   8  13
BRANCH  10  15
ATOM     15  O   UNL     1      96.908  94.588  83.390  1.00  0.00    -0.504 OA
ATOM     16  H   UNL     1      96.459  94.796  84.227  1.00  0.00     0.293 HD
ENDBRANCH  10  15
ENDBRANCH   6   7
ENDBRANCH   5   6
ENDBRANCH   3   5
ENDBRANCH   2   3
BRANCH   1  17
ATOM     17  C   UNL     1      93.908  97.630  75.308  1.00  0.00     0.027 C 
BRANCH  17  18
ATOM     18  C   UNL     1      95.399  97.277  75.265  1.00  0.00     0.004 C 
BRANCH  18  19
ATOM     19  C   UNL     1      96.266  98.165  76.163  1.00  0.00     0.000 C 
BRANCH  19  20
ATOM     20  C   UNL     1      96.138  97.756  77.632  1.00  0.00    -0.003 C 
ATOM     21  C   UNL     1      96.150  98.968  78.550  1.00  0.00     0.004 C 
ENDBRANCH  19  20
ENDBRANCH  18  19
ENDBRANCH  17  18
ENDBRANCH   1  17
TORSDOF 10
ENDMDL
MODEL 6
REMARK VINA RESULT:    -5.448      9.853     13.377
REMARK INTER + INTRA:          -9.821
REMARK INTER:                  -8.299
REMARK INTRA:                  -1.522
REMARK UNBOUND:                -1.347
REMARK SMILES CCCCC/C=C/C(=O)CCc1ccc(O)c(OC)c1
REMARK SMILES IDX 6 1 7 2 8 3 9 4 10 5 11 6 12 7 17 8 20 9 15 10 14 11 13 12
REMARK SMILES IDX 18 13 19 14 16 15 5 17 4 18 3 19 2 20 1 21
REMARK H PARENT 16 16
REMARK Flexibility Score: inf
ROOT
ATOM      1  C   UNL     1      90.577  99.164  70.780  1.00  0.00    -0.023 C 
ATOM      2  C   UNL     1      89.566  98.293  70.886  1.00  0.00     0.043 C 
ENDROOT
BRANCH   2   3
ATOM      3  C   UNL     1      89.182  97.457  69.716  1.00  0.00     0.155 C 
ATOM      4  O   UNL     1      89.576  96.300  69.588  1.00  0.00    -0.295 OA
BRANCH   3   5
ATOM      5  C   UNL     1      88.320  98.124  68.662  1.00  0.00     0.085 C 
BRANCH   5   6
ATOM      6  C   UNL     1      89.169  98.663  67.510  1.00  0.00     0.044 C 
BRANCH   6   7
ATOM      7  C   UNL     1      89.304 100.167  67.533  1.00  0.00    -0.044 A 
ATOM      8  C   UNL     1      90.584 102.142  67.065  1.00  0.00     0.160 A 
ATOM      9  C   UNL     1      90.461 100.753  67.043  1.00  0.00     0.054 A 
ATOM     10  C   UNL     1      89.552 102.927  67.577  1.00  0.00     0.157 A 
ATOM     11  C   UNL     1      88.393 102.322  68.067  1.00  0.00     0.050 A 
ATOM     12  C   UNL     1      88.270 100.933  68.045  1.00  0.00     0.008 A 
BRANCH   8  13
ATOM     13  O   UNL     1      91.720 102.721  66.584  1.00  0.00    -0.493 OA
ATOM     14  C   UNL     1      91.828 102.860  65.168  1.00  0.00     0.278 C 
ENDBRANCH   8  13
BRANCH  10  15
ATOM     15  O   UNL     1      89.661 104.285  67.603  1.00  0.00    -0.504 OA
ATOM     16  H   UNL     1      89.001 104.656  66.992  1.00  0.00     0.293 HD
ENDBRANCH  10  15
ENDBRANCH   6   7
ENDBRANCH   5   6
ENDBRANCH   3   5
ENDBRANCH   2   3
BRANCH   1  17
ATOM     17  C   UNL     1      91.025 100.042  71.912  1.00  0.00     0.027 C 
BRANCH  17  18
ATOM     18  C   UNL     1      91.200 101.508  71.503  1.00  0.00     0.004 C 
BRANCH  18  19
ATOM     19  C   UNL     1      89.879 102.278  71.398  1.00  0.00     0.000 C 
BRANCH  19  20
ATOM     20  C   UNL     1      89.450 102.824  72.761  1.00  0.00    -0.003 C 
ATOM     21  C   UNL     1      87.978 103.208  72.768  1.00  0.00     0.004 C 
ENDBRANCH  19  20
ENDBRANCH  18  19
ENDBRANCH  17  18
ENDBRANCH   1  17
TORSDOF 10
ENDMDL
MODEL 7
REMARK VINA RESULT:    -5.403      2.407      6.755
REMARK INTER + INTRA:          -9.751
REMARK INTER:                  -8.588
REMARK INTRA:                  -1.164
REMARK UNBOUND:                -1.347
REMARK SMILES CCCCC/C=C/C(=O)CCc1ccc(O)c(OC)c1
REMARK SMILES IDX 6 1 7 2 8 3 9 4 10 5 11 6 12 7 17 8 20 9 15 10 14 11 13 12
REMARK SMILES IDX 18 13 19 14 16 15 5 17 4 18 3 19 2 20 1 21
REMARK H PARENT 16 16
REMARK Flexibility Score: inf
ROOT
ATOM      1  C   UNL     1      94.576  94.759  79.162  1.00  0.00    -0.023 C 
ATOM      2  C   UNL     1      93.464  94.079  79.470  1.00  0.00     0.043 C 
ENDROOT
BRANCH   2   3
ATOM      3  C   UNL     1      92.255  94.206  78.611  1.00  0.00     0.155 C 
ATOM      4  O   UNL     1      91.123  94.034  79.057  1.00  0.00    -0.295 OA
BRANCH   3   5
ATOM      5  C   UNL     1      92.496  94.507  77.145  1.00  0.00     0.085 C 
BRANCH   5   6
ATOM      6  C   UNL     1      92.050  95.926  76.789  1.00  0.00     0.044 C 
BRANCH   6   7
ATOM      7  C   UNL     1      93.105  96.702  76.037  1.00  0.00    -0.044 A 
ATOM      8  C   UNL     1      93.814  98.719  74.948  1.00  0.00     0.160 A 
ATOM      9  C   UNL     1      92.839  98.003  75.642  1.00  0.00     0.054 A 
ATOM     10  C   UNL     1      95.042  98.125  74.657  1.00  0.00     0.157 A 
ATOM     11  C   UNL     1      95.295  96.814  75.061  1.00  0.00     0.050 A 
ATOM     12  C   UNL     1      94.320  96.098  75.756  1.00  0.00     0.008 A 
BRANCH   8  13
ATOM     13  O   UNL     1      93.555  99.999  74.558  1.00  0.00    -0.493 OA
ATOM     14  C   UNL     1      92.581 100.180  73.532  1.00  0.00     0.278 C 
ENDBRANCH   8  13
BRANCH  10  15
ATOM     15  O   UNL     1      96.002  98.815  73.980  1.00  0.00    -0.504 OA
ATOM     16  H   UNL     1      96.480  98.190  73.407  1.00  0.00     0.293 HD
ENDBRANCH  10  15
ENDBRANCH   6   7
ENDBRANCH   5   6
ENDBRANCH   3   5
ENDBRANCH   2   3
BRANCH   1  17
ATOM     17  C   UNL     1      95.835  94.686  79.976  1.00  0.00     0.027 C 
BRANCH  17  18
ATOM     18  C   UNL     1      96.727  95.922  79.817  1.00  0.00     0.004 C 
BRANCH  18  19
ATOM     19  C   UNL     1      96.765  96.814  81.062  1.00  0.00     0.000 C 
BRANCH  19  20
ATOM     20  C   UNL     1      95.556  97.750  81.108  1.00  0.00    -0.003 C 
ATOM     21  C   UNL     1      94.821  97.645  82.434  1.00  0.00     0.004 C 
ENDBRANCH  19  20
ENDBRANCH  18  19
ENDBRANCH  17  18
ENDBRANCH   1  17
TORSDOF 10
ENDMDL
MODEL 8
REMARK VINA RESULT:    -5.317     12.375     14.795
REMARK INTER + INTRA:          -9.617
REMARK INTER:                  -8.673
REMARK INTRA:                  -0.943
REMARK UNBOUND:                -1.347
REMARK SMILES CCCCC/C=C/C(=O)CCc1ccc(O)c(OC)c1
REMARK SMILES IDX 6 1 7 2 8 3 9 4 10 5 11 6 12 7 17 8 20 9 15 10 14 11 13 12
REMARK SMILES IDX 18 13 19 14 16 15 5 17 4 18 3 19 2 20 1 21
REMARK H PARENT 16 16
REMARK Flexibility Score: inf
ROOT
ATOM      1  C   UNL     1      98.211  83.152  83.826  1.00  0.00    -0.023 C 
ATOM      2  C   UNL     1      98.078  81.902  83.365  1.00  0.00     0.043 C 
ENDROOT
BRANCH   2   3
ATOM      3  C   UNL     1      99.285  81.116  82.992  1.00  0.00     0.155 C 
ATOM      4  O   UNL     1     100.044  80.651  83.840  1.00  0.00    -0.295 OA
BRANCH   3   5
ATOM      5  C   UNL     1      99.561  80.963  81.509  1.00  0.00     0.085 C 
BRANCH   5   6
ATOM      6  C   UNL     1     100.116  82.257  80.911  1.00  0.00     0.044 C 
BRANCH   6   7
ATOM      7  C   UNL     1      99.282  82.779  79.765  1.00  0.00    -0.044 A 
ATOM      8  C   UNL     1      99.027  83.225  77.421  1.00  0.00     0.160 A 
ATOM      9  C   UNL     1      99.798  82.743  78.479  1.00  0.00     0.054 A 
ATOM     10  C   UNL     1      97.752  83.736  77.661  1.00  0.00     0.157 A 
ATOM     11  C   UNL     1      97.247  83.766  78.962  1.00  0.00     0.050 A 
ATOM     12  C   UNL     1      98.018  83.284  80.020  1.00  0.00     0.008 A 
BRANCH   8  13
ATOM     13  O   UNL     1      99.532  83.191  76.155  1.00  0.00    -0.493 OA
ATOM     14  C   UNL     1     100.420  84.243  75.783  1.00  0.00     0.278 C 
ENDBRANCH   8  13
BRANCH  10  15
ATOM     15  O   UNL     1      96.990  84.210  76.636  1.00  0.00    -0.504 OA
ATOM     16  H   UNL     1      96.395  83.498  76.345  1.00  0.00     0.293 HD
ENDBRANCH  10  15
ENDBRANCH   6   7
ENDBRANCH   5   6
ENDBRANCH   3   5
ENDBRANCH   2   3
BRANCH   1  17
ATOM     17  C   UNL     1      97.045  84.009  84.222  1.00  0.00     0.027 C 
BRANCH  17  18
ATOM     18  C   UNL     1      97.395  85.040  85.301  1.00  0.00     0.004 C 
BRANCH  18  19
ATOM     19  C   UNL     1      97.986  84.422  86.572  1.00  0.00     0.000 C 
BRANCH  19  20
ATOM     20  C   UNL     1      97.102  84.709  87.787  1.00  0.00    -0.003 C 
ATOM     21  C   UNL     1      95.882  85.532  87.406  1.00  0.00     0.004 C 
ENDBRANCH  19  20
ENDBRANCH  18  19
ENDBRANCH  17  18
ENDBRANCH   1  17
TORSDOF 10
ENDMDL
MODEL 9
REMARK VINA RESULT:    -5.302      4.533      5.803
REMARK INTER + INTRA:          -9.594
REMARK INTER:                  -9.036
REMARK INTRA:                  -0.557
REMARK UNBOUND:                -1.347
REMARK SMILES CCCCC/C=C/C(=O)CCc1ccc(O)c(OC)c1
REMARK SMILES IDX 6 1 7 2 8 3 9 4 10 5 11 6 12 7 17 8 20 9 15 10 14 11 13 12
REMARK SMILES IDX 18 13 19 14 16 15 5 17 4 18 3 19 2 20 1 21
REMARK H PARENT 16 16
REMARK Flexibility Score: inf
ROOT
ATOM      1  C   UNL     1      92.206 100.060  72.436  1.00  0.00    -0.023 C 
ATOM      2  C   UNL     1      92.475 100.122  73.746  1.00  0.00     0.043 C 
ENDROOT
BRANCH   2   3
ATOM      3  C   UNL     1      93.529  99.248  74.329  1.00  0.00     0.155 C 
ATOM      4  O   UNL     1      94.678  99.237  73.890  1.00  0.00    -0.295 OA
BRANCH   3   5
ATOM      5  C   UNL     1      93.101  98.332  75.459  1.00  0.00     0.085 C 
BRANCH   5   6
ATOM      6  C   UNL     1      94.206  97.338  75.817  1.00  0.00     0.044 C 
BRANCH   6   7
ATOM      7  C   UNL     1      93.794  96.365  76.897  1.00  0.00    -0.044 A 
ATOM      8  C   UNL     1      92.158  94.885  77.840  1.00  0.00     0.160 A 
ATOM      9  C   UNL     1      92.538  95.783  76.843  1.00  0.00     0.054 A 
ATOM     10  C   UNL     1      93.038  94.581  78.878  1.00  0.00     0.157 A 
ATOM     11  C   UNL     1      94.300  95.175  78.918  1.00  0.00     0.050 A 
ATOM     12  C   UNL     1      94.680  96.074  77.921  1.00  0.00     0.008 A 
BRANCH   8  13
ATOM     13  O   UNL     1      90.923  94.311  77.790  1.00  0.00    -0.493 OA
ATOM     14  C   UNL     1      89.829  95.157  77.441  1.00  0.00     0.278 C 
ENDBRANCH   8  13
BRANCH  10  15
ATOM     15  O   UNL     1      92.679  93.705  79.857  1.00  0.00    -0.504 OA
ATOM     16  H   UNL     1      92.361  92.888  79.435  1.00  0.00     0.293 HD
ENDBRANCH  10  15
ENDBRANCH   6   7
ENDBRANCH   5   6
ENDBRANCH   3   5
ENDBRANCH   2   3
BRANCH   1  17
ATOM     17  C   UNL     1      91.158 100.906  71.773  1.00  0.00     0.027 C 
BRANCH  17  18
ATOM     18  C   UNL     1      90.411 100.171  70.655  1.00  0.00     0.004 C 
BRANCH  18  19
ATOM     19  C   UNL     1      89.334  99.208  71.166  1.00  0.00     0.000 C 
BRANCH  19  20
ATOM     20  C   UNL     1      88.887  98.246  70.064  1.00  0.00    -0.003 C 
ATOM     21  C   UNL     1      89.723  96.976  70.060  1.00  0.00     0.004 C 
ENDBRANCH  19  20
ENDBRANCH  18  19
ENDBRANCH  17  18
ENDBRANCH   1  17
TORSDOF 10
ENDMDL
MODEL 10
REMARK VINA RESULT:    -5.223     21.221     23.349
REMARK INTER + INTRA:          -9.470
REMARK INTER:                  -8.300
REMARK INTRA:                  -1.170
REMARK UNBOUND:                -1.347
REMARK SMILES CCCCC/C=C/C(=O)CCc1ccc(O)c(OC)c1
REMARK SMILES IDX 6 1 7 2 8 3 9 4 10 5 11 6 12 7 17 8 20 9 15 10 14 11 13 12
REMARK SMILES IDX 18 13 19 14 16 15 5 17 4 18 3 19 2 20 1 21
REMARK H PARENT 16 16
REMARK Flexibility Score: inf
ROOT
ATOM      1  C   UNL     1      75.975  88.275  69.920  1.00  0.00    -0.023 C 
ATOM      2  C   UNL     1      75.494  87.032  70.046  1.00  0.00     0.043 C 
ENDROOT
BRANCH   2   3
ATOM      3  C   UNL     1      76.431  85.877  70.107  1.00  0.00     0.155 C 
ATOM      4  O   UNL     1      76.081  84.780  70.536  1.00  0.00    -0.295 OA
BRANCH   3   5
ATOM      5  C   UNL     1      77.857  86.139  69.661  1.00  0.00     0.085 C 
BRANCH   5   6
ATOM      6  C   UNL     1      78.319  85.097  68.641  1.00  0.00     0.044 C 
BRANCH   6   7
ATOM      7  C   UNL     1      77.829  85.388  67.242  1.00  0.00    -0.044 A 
ATOM      8  C   UNL     1      77.225  84.612  65.053  1.00  0.00     0.160 A 
ATOM      9  C   UNL     1      77.678  84.343  66.344  1.00  0.00     0.054 A 
ATOM     10  C   UNL     1      76.931  85.921  64.675  1.00  0.00     0.157 A 
ATOM     11  C   UNL     1      77.089  86.963  65.590  1.00  0.00     0.050 A 
ATOM     12  C   UNL     1      77.542  86.694  66.882  1.00  0.00     0.008 A 
BRANCH   8  13
ATOM     13  O   UNL     1      77.075  83.586  64.169  1.00  0.00    -0.493 OA
ATOM     14  C   UNL     1      76.183  82.536  64.538  1.00  0.00     0.278 C 
ENDBRANCH   8  13
BRANCH  10  15
ATOM     15  O   UNL     1      76.488  86.197  63.417  1.00  0.00    -0.504 OA
ATOM     16  H   UNL     1      75.874  86.950  63.467  1.00  0.00     0.293 HD
ENDBRANCH  10  15
ENDBRANCH   6   7
ENDBRANCH   5   6
ENDBRANCH   3   5
ENDBRANCH   2   3
BRANCH   1  17
ATOM     17  C   UNL     1      75.097  89.491  69.850  1.00  0.00     0.027 C 
BRANCH  17  18
ATOM     18  C   UNL     1      74.983  90.227  71.189  1.00  0.00     0.004 C 
BRANCH  18  19
ATOM     19  C   UNL     1      73.538  90.430  71.656  1.00  0.00     0.000 C 
BRANCH  19  20
ATOM     20  C   UNL     1      73.030  89.209  72.424  1.00  0.00    -0.003 C 
ATOM     21  C   UNL     1      71.999  88.434  71.619  1.00  0.00     0.004 C 
ENDBRANCH  19  20
ENDBRANCH  18  19
ENDBRANCH  17  18
ENDBRANCH   1  17
TORSDOF 10
ENDMDL
