MODEL 1
REMARK VINA RESULT:    -6.128      0.000      0.000
REMARK INTER + INTRA:         -10.921
REMARK INTER:                 -10.068
REMARK INTRA:                  -0.853
REMARK UNBOUND:                -0.853
REMARK SMILES CCCCC[C@H](O)CC(=O)CCc1ccc(O)c(OC)c1
REMARK SMILES IDX 8 1 6 2 7 3 5 5 4 6 3 7 2 8 1 9 9 10 10 11 11 12 12 13 13 14
REMARK SMILES IDX 21 15 14 16 18 17 15 18 16 19 19 20 20 21 17 22
REMARK H PARENT 7 4 17 23
REMARK Flexibility Score: inf
ROOT
ATOM      1  C   UNL     1      77.094  85.175  66.963  1.00  0.00     0.107 C 
ENDROOT
BRANCH   1   2
ATOM      2  C   UNL     1      77.972  86.302  67.513  1.00  0.00     0.121 C 
BRANCH   2   3
ATOM      3  O   UNL     1      77.688  87.517  66.822  1.00  0.00    -0.393 OA
ATOM      4  H   UNL     1      77.409  87.286  65.918  1.00  0.00     0.210 HD
ENDBRANCH   2   3
BRANCH   2   5
ATOM      5  C   UNL     1      77.790  86.524  69.019  1.00  0.00     0.032 C 
BRANCH   5   6
ATOM      6  C   UNL     1      76.529  87.339  69.334  1.00  0.00     0.003 C 
BRANCH   6   7
ATOM      7  C   UNL     1      75.650  86.703  70.415  1.00  0.00    -0.000 C 
BRANCH   7   8
ATOM      8  C   UNL     1      75.379  85.217  70.188  1.00  0.00    -0.003 C 
ATOM      9  C   UNL     1      75.953  84.371  71.314  1.00  0.00     0.004 C 
ENDBRANCH   7   8
ENDBRANCH   6   7
ENDBRANCH   5   6
ENDBRANCH   2   5
ENDBRANCH   1   2
BRANCH   1  10
ATOM     10  C   UNL     1      77.883  83.926  66.605  1.00  0.00     0.135 C 
ATOM     11  O   UNL     1      78.813  83.540  67.314  1.00  0.00    -0.300 OA
BRANCH  10  12
ATOM     12  C   UNL     1      77.435  83.169  65.365  1.00  0.00     0.080 C 
BRANCH  12  13
ATOM     13  C   UNL     1      76.952  81.746  65.654  1.00  0.00     0.043 C 
BRANCH  13  14
ATOM     14  C   UNL     1      75.569  81.469  65.114  1.00  0.00    -0.044 A 
ATOM     15  C   UNL     1      74.449  81.704  65.911  1.00  0.00     0.054 A 
ATOM     16  C   UNL     1      75.413  80.979  63.817  1.00  0.00     0.008 A 
ATOM     17  C   UNL     1      73.172  81.449  65.411  1.00  0.00     0.160 A 
ATOM     18  C   UNL     1      74.136  80.724  63.317  1.00  0.00     0.050 A 
ATOM     19  C   UNL     1      73.015  80.958  64.114  1.00  0.00     0.157 A 
BRANCH  17  20
ATOM     20  O   UNL     1      72.085  81.681  66.199  1.00  0.00    -0.493 OA
ATOM     21  C   UNL     1      71.881  83.021  66.643  1.00  0.00     0.278 C 
ENDBRANCH  17  20
BRANCH  19  22
ATOM     22  O   UNL     1      71.774  80.705  63.615  1.00  0.00    -0.504 OA
ATOM     23  H   UNL     1      71.665  81.187  62.777  1.00  0.00     0.293 HD
ENDBRANCH  19  22
ENDBRANCH  13  14
ENDBRANCH  12  13
ENDBRANCH  10  12
ENDBRANCH   1  10
TORSDOF 12
ENDMDL
MODEL 2
REMARK VINA RESULT:    -5.761     25.626     28.070
REMARK INTER + INTRA:         -10.319
REMARK INTER:                  -9.051
REMARK INTRA:                  -1.268
REMARK UNBOUND:                -0.853
REMARK SMILES CCCCC[C@H](O)CC(=O)CCc1ccc(O)c(OC)c1
REMARK SMILES IDX 8 1 6 2 7 3 5 5 4 6 3 7 2 8 1 9 9 10 10 11 11 12 12 13 13 14
REMARK SMILES IDX 21 15 14 16 18 17 15 18 16 19 19 20 20 21 17 22
REMARK H PARENT 7 4 17 23
REMARK Flexibility Score: inf
ROOT
ATOM      1  C   UNL     1      97.699  84.259  86.673  1.00  0.00     0.107 C 
ENDROOT
BRANCH   1   2
ATOM      2  C   UNL     1      96.783  84.525  87.870  1.00  0.00     0.121 C 
BRANCH   2   3
ATOM      3  O   UNL     1      97.053  85.818  88.407  1.00  0.00    -0.393 OA
ATOM      4  H   UNL     1      97.203  85.718  89.363  1.00  0.00     0.210 HD
ENDBRANCH   2   3
BRANCH   2   5
ATOM      5  C   UNL     1      95.294  84.423  87.521  1.00  0.00     0.032 C 
BRANCH   5   6
ATOM      6  C   UNL     1      94.731  83.024  87.798  1.00  0.00     0.003 C 
BRANCH   6   7
ATOM      7  C   UNL     1      94.448  82.221  86.524  1.00  0.00    -0.000 C 
BRANCH   7   8
ATOM      8  C   UNL     1      93.056  81.592  86.493  1.00  0.00    -0.003 C 
ATOM      9  C   UNL     1      91.999  82.561  87.000  1.00  0.00     0.004 C 
ENDBRANCH   7   8
ENDBRANCH   6   7
ENDBRANCH   5   6
ENDBRANCH   2   5
ENDBRANCH   1   2
BRANCH   1  10
ATOM     10  C   UNL     1      97.281  85.016  85.423  1.00  0.00     0.135 C 
ATOM     11  O   UNL     1      97.250  86.246  85.409  1.00  0.00    -0.300 OA
BRANCH  10  12
ATOM     12  C   UNL     1      96.952  84.179  84.197  1.00  0.00     0.080 C 
BRANCH  12  13
ATOM     13  C   UNL     1      97.502  82.753  84.260  1.00  0.00     0.043 C 
BRANCH  13  14
ATOM     14  C   UNL     1      98.158  82.313  82.973  1.00  0.00    -0.044 A 
ATOM     15  C   UNL     1      98.126  83.146  81.854  1.00  0.00     0.054 A 
ATOM     16  C   UNL     1      98.795  81.074  82.903  1.00  0.00     0.008 A 
ATOM     17  C   UNL     1      98.734  82.739  80.666  1.00  0.00     0.160 A 
ATOM     18  C   UNL     1      99.402  80.667  81.715  1.00  0.00     0.050 A 
ATOM     19  C   UNL     1      99.371  81.500  80.596  1.00  0.00     0.157 A 
BRANCH  17  20
ATOM     20  O   UNL     1      98.696  83.560  79.580  1.00  0.00    -0.493 OA
ATOM     21  C   UNL     1      97.472  83.614  78.849  1.00  0.00     0.278 C 
ENDBRANCH  17  20
BRANCH  19  22
ATOM     22  O   UNL     1      99.967  81.092  79.441  1.00  0.00    -0.504 OA
ATOM     23  H   UNL     1      99.359  80.504  78.961  1.00  0.00     0.293 HD
ENDBRANCH  19  22
ENDBRANCH  13  14
ENDBRANCH  12  13
ENDBRANCH  10  12
ENDBRANCH   1  10
TORSDOF 12
ENDMDL
MODEL 3
REMARK VINA RESULT:    -5.724     19.983     23.096
REMARK INTER + INTRA:         -10.258
REMARK INTER:                  -8.161
REMARK INTRA:                  -2.097
REMARK UNBOUND:                -0.853
REMARK SMILES CCCCC[C@H](O)CC(=O)CCc1ccc(O)c(OC)c1
REMARK SMILES IDX 8 1 6 2 7 3 5 5 4 6 3 7 2 8 1 9 9 10 10 11 11 12 12 13 13 14
REMARK SMILES IDX 21 15 14 16 18 17 15 18 16 19 19 20 20 21 17 22
REMARK H PARENT 7 4 17 23
REMARK Flexibility Score: inf
ROOT
ATOM      1  C   UNL     1      89.092  98.999  71.173  1.00  0.00     0.107 C 
ENDROOT
BRANCH   1   2
ATOM      2  C   UNL     1      90.454  99.675  71.342  1.00  0.00     0.121 C 
BRANCH   2   3
ATOM      3  O   UNL     1      91.417  99.039  70.505  1.00  0.00    -0.393 OA
ATOM      4  H   UNL     1      92.048  99.717  70.207  1.00  0.00     0.210 HD
ENDBRANCH   2   3
BRANCH   2   5
ATOM      5  C   UNL     1      90.423 101.175  71.024  1.00  0.00     0.032 C 
BRANCH   5   6
ATOM      6  C   UNL     1      89.164 101.855  71.575  1.00  0.00     0.003 C 
BRANCH   6   7
ATOM      7  C   UNL     1      89.154 103.373  71.369  1.00  0.00    -0.000 C 
BRANCH   7   8
ATOM      8  C   UNL     1      88.420 104.136  72.471  1.00  0.00    -0.003 C 
ATOM      9  C   UNL     1      88.027 103.214  73.615  1.00  0.00     0.004 C 
ENDBRANCH   7   8
ENDBRANCH   6   7
ENDBRANCH   5   6
ENDBRANCH   2   5
ENDBRANCH   1   2
BRANCH   1  10
ATOM     10  C   UNL     1      89.100  97.895  70.128  1.00  0.00     0.135 C 
ATOM     11  O   UNL     1      89.656  96.819  70.348  1.00  0.00    -0.300 OA
BRANCH  10  12
ATOM     12  C   UNL     1      88.354  98.177  68.832  1.00  0.00     0.080 C 
BRANCH  12  13
ATOM     13  C   UNL     1      89.260  98.639  67.689  1.00  0.00     0.043 C 
BRANCH  13  14
ATOM     14  C   UNL     1      89.360 100.142  67.584  1.00  0.00    -0.044 A 
ATOM     15  C   UNL     1      90.509 100.730  67.055  1.00  0.00     0.054 A 
ATOM     16  C   UNL     1      88.302 100.942  68.016  1.00  0.00     0.008 A 
ATOM     17  C   UNL     1      90.599 102.118  66.957  1.00  0.00     0.160 A 
ATOM     18  C   UNL     1      88.392 102.331  67.918  1.00  0.00     0.050 A 
ATOM     19  C   UNL     1      89.541 102.919  67.389  1.00  0.00     0.157 A 
BRANCH  17  20
ATOM     20  O   UNL     1      91.727 102.681  66.439  1.00  0.00    -0.493 OA
ATOM     21  C   UNL     1      92.933 102.518  67.182  1.00  0.00     0.278 C 
ENDBRANCH  17  20
BRANCH  19  22
ATOM     22  O   UNL     1      89.618 104.276  67.299  1.00  0.00    -0.504 OA
ATOM     23  H   UNL     1      88.790 104.663  67.631  1.00  0.00     0.293 HD
ENDBRANCH  19  22
ENDBRANCH  13  14
ENDBRANCH  12  13
ENDBRANCH  10  12
ENDBRANCH   1  10
TORSDOF 12
ENDMDL
MODEL 4
REMARK VINA RESULT:    -5.722      1.360      2.339
REMARK INTER + INTRA:         -10.254
REMARK INTER:                  -9.099
REMARK INTRA:                  -1.155
REMARK UNBOUND:                -0.853
REMARK SMILES CCCCC[C@H](O)CC(=O)CCc1ccc(O)c(OC)c1
REMARK SMILES IDX 8 1 6 2 7 3 5 5 4 6 3 7 2 8 1 9 9 10 10 11 11 12 12 13 13 14
REMARK SMILES IDX 21 15 14 16 18 17 15 18 16 19 19 20 20 21 17 22
REMARK H PARENT 7 4 17 23
REMARK Flexibility Score: inf
ROOT
ATOM      1  C   UNL     1      77.949  84.899  68.859  1.00  0.00     0.107 C 
ENDROOT
BRANCH   1   2
ATOM      2  C   UNL     1      76.690  84.772  69.720  1.00  0.00     0.121 C 
BRANCH   2   3
ATOM      3  O   UNL     1      76.962  83.959  70.858  1.00  0.00    -0.393 OA
ATOM      4  H   UNL     1      76.125  83.550  71.140  1.00  0.00     0.210 HD
ENDBRANCH   2   3
BRANCH   2   5
ATOM      5  C   UNL     1      76.144  86.127  70.187  1.00  0.00     0.032 C 
BRANCH   5   6
ATOM      6  C   UNL     1      76.889  87.302  69.543  1.00  0.00     0.003 C 
BRANCH   6   7
ATOM      7  C   UNL     1      76.014  88.131  68.598  1.00  0.00    -0.000 C 
BRANCH   7   8
ATOM      8  C   UNL     1      76.199  87.776  67.124  1.00  0.00    -0.003 C 
ATOM      9  C   UNL     1      77.672  87.675  66.759  1.00  0.00     0.004 C 
ENDBRANCH   7   8
ENDBRANCH   6   7
ENDBRANCH   5   6
ENDBRANCH   2   5
ENDBRANCH   1   2
BRANCH   1  10
ATOM     10  C   UNL     1      77.927  83.998  67.635  1.00  0.00     0.135 C 
ATOM     11  O   UNL     1      78.908  83.317  67.333  1.00  0.00    -0.300 OA
BRANCH  10  12
ATOM     12  C   UNL     1      76.628  83.952  66.846  1.00  0.00     0.080 C 
BRANCH  12  13
ATOM     13  C   UNL     1      76.752  83.235  65.500  1.00  0.00     0.043 C 
BRANCH  13  14
ATOM     14  C   UNL     1      75.557  82.369  65.178  1.00  0.00    -0.044 A 
ATOM     15  C   UNL     1      74.381  82.501  65.917  1.00  0.00     0.054 A 
ATOM     16  C   UNL     1      75.629  81.438  64.142  1.00  0.00     0.008 A 
ATOM     17  C   UNL     1      73.277  81.702  65.618  1.00  0.00     0.160 A 
ATOM     18  C   UNL     1      74.525  80.639  63.843  1.00  0.00     0.050 A 
ATOM     19  C   UNL     1      73.350  80.771  64.582  1.00  0.00     0.157 A 
BRANCH  17  20
ATOM     20  O   UNL     1      72.134  81.839  66.347  1.00  0.00    -0.493 OA
ATOM     21  C   UNL     1      71.598  83.156  66.470  1.00  0.00     0.278 C 
ENDBRANCH  17  20
BRANCH  19  22
ATOM     22  O   UNL     1      72.279  79.985  64.281  1.00  0.00    -0.504 OA
ATOM     23  H   UNL     1      71.498  80.550  64.150  1.00  0.00     0.293 HD
ENDBRANCH  19  22
ENDBRANCH  13  14
ENDBRANCH  12  13
ENDBRANCH  10  12
ENDBRANCH   1  10
TORSDOF 12
ENDMDL
MODEL 5
REMARK VINA RESULT:    -5.546     24.842     27.868
REMARK INTER + INTRA:          -9.966
REMARK INTER:                  -8.687
REMARK INTRA:                  -1.279
REMARK UNBOUND:                -0.853
REMARK SMILES CCCCC[C@H](O)CC(=O)CCc1ccc(O)c(OC)c1
REMARK SMILES IDX 8 1 6 2 7 3 5 5 4 6 3 7 2 8 1 9 9 10 10 11 11 12 12 13 13 14
REMARK SMILES IDX 21 15 14 16 18 17 15 18 16 19 19 20 20 21 17 22
REMARK H PARENT 7 4 17 23
REMARK Flexibility Score: inf
ROOT
ATOM      1  C   UNL     1      98.562  83.356  76.065  1.00  0.00     0.107 C 
ENDROOT
BRANCH   1   2
ATOM      2  C   UNL     1      99.872  84.097  75.790  1.00  0.00     0.121 C 
BRANCH   2   3
ATOM      3  O   UNL     1      99.630  85.501  75.729  1.00  0.00    -0.393 OA
ATOM      4  H   UNL     1     100.377  85.912  75.260  1.00  0.00     0.210 HD
ENDBRANCH   2   3
BRANCH   2   5
ATOM      5  C   UNL     1     100.952  83.817  76.842  1.00  0.00     0.032 C 
BRANCH   5   6
ATOM      6  C   UNL     1     102.271  83.360  76.207  1.00  0.00     0.003 C 
BRANCH   6   7
ATOM      7  C   UNL     1     102.255  83.407  74.676  1.00  0.00    -0.000 C 
BRANCH   7   8
ATOM      8  C   UNL     1     103.075  84.555  74.090  1.00  0.00    -0.003 C 
ATOM      9  C   UNL     1     102.203  85.505  73.285  1.00  0.00     0.004 C 
ENDBRANCH   7   8
ENDBRANCH   6   7
ENDBRANCH   5   6
ENDBRANCH   2   5
ENDBRANCH   1   2
BRANCH   1  10
ATOM     10  C   UNL     1      97.779  83.941  77.229  1.00  0.00     0.135 C 
ATOM     11  O   UNL     1      97.404  85.113  77.214  1.00  0.00    -0.300 OA
BRANCH  10  12
ATOM     12  C   UNL     1      97.452  82.995  78.375  1.00  0.00     0.080 C 
BRANCH  12  13
ATOM     13  C   UNL     1      97.394  83.681  79.741  1.00  0.00     0.043 C 
BRANCH  13  14
ATOM     14  C   UNL     1      98.392  83.122  80.727  1.00  0.00    -0.044 A 
ATOM     15  C   UNL     1      99.607  82.608  80.274  1.00  0.00     0.054 A 
ATOM     16  C   UNL     1      98.099  83.121  82.091  1.00  0.00     0.008 A 
ATOM     17  C   UNL     1     100.529  82.093  81.186  1.00  0.00     0.160 A 
ATOM     18  C   UNL     1      99.021  82.607  83.002  1.00  0.00     0.050 A 
ATOM     19  C   UNL     1     100.236  82.092  82.550  1.00  0.00     0.157 A 
BRANCH  17  20
ATOM     20  O   UNL     1     101.712  81.593  80.732  1.00  0.00    -0.493 OA
ATOM     21  C   UNL     1     101.791  81.273  79.344  1.00  0.00     0.278 C 
ENDBRANCH  17  20
BRANCH  19  22
ATOM     22  O   UNL     1     101.128  81.593  83.449  1.00  0.00    -0.504 OA
ATOM     23  H   UNL     1     101.215  80.634  83.310  1.00  0.00     0.293 HD
ENDBRANCH  19  22
ENDBRANCH  13  14
ENDBRANCH  12  13
ENDBRANCH  10  12
ENDBRANCH   1  10
TORSDOF 12
ENDMDL
MODEL 6
REMARK VINA RESULT:    -5.543      3.525      6.035
REMARK INTER + INTRA:          -9.961
REMARK INTER:                  -7.573
REMARK INTRA:                  -2.388
REMARK UNBOUND:                -0.853
REMARK SMILES CCCCC[C@H](O)CC(=O)CCc1ccc(O)c(OC)c1
REMARK SMILES IDX 8 1 6 2 7 3 5 5 4 6 3 7 2 8 1 9 9 10 10 11 11 12 12 13 13 14
REMARK SMILES IDX 21 15 14 16 18 17 15 18 16 19 19 20 20 21 17 22
REMARK H PARENT 7 4 17 23
REMARK Flexibility Score: inf
ROOT
ATOM      1  C   UNL     1      74.859  90.608  68.314  1.00  0.00     0.107 C 
ENDROOT
BRANCH   1   2
ATOM      2  C   UNL     1      74.458  90.401  69.777  1.00  0.00     0.121 C 
BRANCH   2   3
ATOM      3  O   UNL     1      73.124  89.903  69.847  1.00  0.00    -0.393 OA
ATOM      4  H   UNL     1      72.925  89.466  69.000  1.00  0.00     0.210 HD
ENDBRANCH   2   3
BRANCH   2   5
ATOM      5  C   UNL     1      75.394  89.444  70.525  1.00  0.00     0.032 C 
BRANCH   5   6
ATOM      6  C   UNL     1      74.641  88.243  71.112  1.00  0.00     0.003 C 
BRANCH   6   7
ATOM      7  C   UNL     1      75.056  86.905  70.491  1.00  0.00    -0.000 C 
BRANCH   7   8
ATOM      8  C   UNL     1      73.955  86.249  69.659  1.00  0.00    -0.003 C 
ATOM      9  C   UNL     1      74.494  85.079  68.851  1.00  0.00     0.004 C 
ENDBRANCH   7   8
ENDBRANCH   6   7
ENDBRANCH   5   6
ENDBRANCH   2   5
ENDBRANCH   1   2
BRANCH   1  10
ATOM     10  C   UNL     1      74.083  89.723  67.353  1.00  0.00     0.135 C 
ATOM     11  O   UNL     1      72.966  90.049  66.952  1.00  0.00    -0.300 OA
BRANCH  10  12
ATOM     12  C   UNL     1      74.776  88.452  66.885  1.00  0.00     0.080 C 
BRANCH  12  13
ATOM     13  C   UNL     1      76.303  88.521  66.962  1.00  0.00     0.043 C 
BRANCH  13  14
ATOM     14  C   UNL     1      76.951  87.163  67.094  1.00  0.00    -0.044 A 
ATOM     15  C   UNL     1      76.708  86.178  66.137  1.00  0.00     0.054 A 
ATOM     16  C   UNL     1      77.792  86.894  68.174  1.00  0.00     0.008 A 
ATOM     17  C   UNL     1      77.308  84.924  66.260  1.00  0.00     0.160 A 
ATOM     18  C   UNL     1      78.391  85.641  68.297  1.00  0.00     0.050 A 
ATOM     19  C   UNL     1      78.149  84.656  67.340  1.00  0.00     0.157 A 
BRANCH  17  20
ATOM     20  O   UNL     1      77.064  83.970  65.319  1.00  0.00    -0.493 OA
ATOM     21  C   UNL     1      77.410  84.284  63.971  1.00  0.00     0.278 C 
ENDBRANCH  17  20
BRANCH  19  22
ATOM     22  O   UNL     1      78.740  83.436  67.471  1.00  0.00    -0.504 OA
ATOM     23  H   UNL     1      78.287  82.938  68.172  1.00  0.00     0.293 HD
ENDBRANCH  19  22
ENDBRANCH  13  14
ENDBRANCH  12  13
ENDBRANCH  10  12
ENDBRANCH   1  10
TORSDOF 12
ENDMDL
MODEL 7
REMARK VINA RESULT:    -5.491     12.085     14.941
REMARK INTER + INTRA:          -9.874
REMARK INTER:                  -8.479
REMARK INTRA:                  -1.395
REMARK UNBOUND:                -0.853
REMARK SMILES CCCCC[C@H](O)CC(=O)CCc1ccc(O)c(OC)c1
REMARK SMILES IDX 8 1 6 2 7 3 5 5 4 6 3 7 2 8 1 9 9 10 10 11 11 12 12 13 13 14
REMARK SMILES IDX 21 15 14 16 18 17 15 18 16 19 19 20 20 21 17 22
REMARK H PARENT 7 4 17 23
REMARK Flexibility Score: inf
ROOT
ATOM      1  C   UNL     1      63.285  83.931  68.668  1.00  0.00     0.107 C 
ENDROOT
BRANCH   1   2
ATOM      2  C   UNL     1      62.792  84.909  69.737  1.00  0.00     0.121 C 
BRANCH   2   3
ATOM      3  O   UNL     1      62.358  86.119  69.121  1.00  0.00    -0.393 OA
ATOM      4  H   UNL     1      63.032  86.380  68.469  1.00  0.00     0.210 HD
ENDBRANCH   2   3
BRANCH   2   5
ATOM      5  C   UNL     1      61.653  84.341  70.591  1.00  0.00     0.032 C 
BRANCH   5   6
ATOM      6  C   UNL     1      60.274  84.667  70.005  1.00  0.00     0.003 C 
BRANCH   6   7
ATOM      7  C   UNL     1      59.152  84.650  71.048  1.00  0.00    -0.000 C 
BRANCH   7   8
ATOM      8  C   UNL     1      58.382  85.966  71.140  1.00  0.00    -0.003 C 
ATOM      9  C   UNL     1      59.030  86.919  72.133  1.00  0.00     0.004 C 
ENDBRANCH   7   8
ENDBRANCH   6   7
ENDBRANCH   5   6
ENDBRANCH   2   5
ENDBRANCH   1   2
BRANCH   1  10
ATOM     10  C   UNL     1      63.762  82.608  69.246  1.00  0.00     0.135 C 
ATOM     11  O   UNL     1      63.231  81.547  68.920  1.00  0.00    -0.300 OA
BRANCH  10  12
ATOM     12  C   UNL     1      64.946  82.668  70.199  1.00  0.00     0.080 C 
BRANCH  12  13
ATOM     13  C   UNL     1      64.886  81.628  71.320  1.00  0.00     0.043 C 
BRANCH  13  14
ATOM     14  C   UNL     1      63.974  82.032  72.454  1.00  0.00    -0.044 A 
ATOM     15  C   UNL     1      64.247  83.183  73.193  1.00  0.00     0.054 A 
ATOM     16  C   UNL     1      62.859  81.252  72.763  1.00  0.00     0.008 A 
ATOM     17  C   UNL     1      63.403  83.555  74.239  1.00  0.00     0.160 A 
ATOM     18  C   UNL     1      62.016  81.624  73.810  1.00  0.00     0.050 A 
ATOM     19  C   UNL     1      62.288  82.776  74.548  1.00  0.00     0.157 A 
BRANCH  17  20
ATOM     20  O   UNL     1      63.680  84.682  74.954  1.00  0.00    -0.493 OA
ATOM     21  C   UNL     1      64.771  84.616  75.871  1.00  0.00     0.278 C 
ENDBRANCH  17  20
BRANCH  19  22
ATOM     22  O   UNL     1      61.457  83.129  75.568  1.00  0.00    -0.504 OA
ATOM     23  H   UNL     1      61.157  84.044  75.430  1.00  0.00     0.293 HD
ENDBRANCH  19  22
ENDBRANCH  13  14
ENDBRANCH  12  13
ENDBRANCH  10  12
ENDBRANCH   1  10
TORSDOF 12
ENDMDL
MODEL 8
REMARK VINA RESULT:    -5.481     10.876     14.413
REMARK INTER + INTRA:          -9.858
REMARK INTER:                  -8.171
REMARK INTRA:                  -1.687
REMARK UNBOUND:                -0.853
REMARK SMILES CCCCC[C@H](O)CC(=O)CCc1ccc(O)c(OC)c1
REMARK SMILES IDX 8 1 6 2 7 3 5 5 4 6 3 7 2 8 1 9 9 10 10 11 11 12 12 13 13 14
REMARK SMILES IDX 21 15 14 16 18 17 15 18 16 19 19 20 20 21 17 22
REMARK H PARENT 7 4 17 23
REMARK Flexibility Score: inf
ROOT
ATOM      1  C   UNL     1      61.750  83.488  75.249  1.00  0.00     0.107 C 
ENDROOT
BRANCH   1   2
ATOM      2  C   UNL     1      61.762  84.826  74.506  1.00  0.00     0.121 C 
BRANCH   2   3
ATOM      3  O   UNL     1      62.830  84.845  73.562  1.00  0.00    -0.393 OA
ATOM      4  H   UNL     1      63.344  85.658  73.710  1.00  0.00     0.210 HD
ENDBRANCH   2   3
BRANCH   2   5
ATOM      5  C   UNL     1      60.443  85.121  73.782  1.00  0.00     0.032 C 
BRANCH   5   6
ATOM      6  C   UNL     1      60.246  84.225  72.554  1.00  0.00     0.003 C 
BRANCH   6   7
ATOM      7  C   UNL     1      59.307  84.830  71.505  1.00  0.00    -0.000 C 
BRANCH   7   8
ATOM      8  C   UNL     1      59.845  84.740  70.078  1.00  0.00    -0.003 C 
ATOM      9  C   UNL     1      60.854  85.842  69.795  1.00  0.00     0.004 C 
ENDBRANCH   7   8
ENDBRANCH   6   7
ENDBRANCH   5   6
ENDBRANCH   2   5
ENDBRANCH   1   2
BRANCH   1  10
ATOM     10  C   UNL     1      62.937  82.603  74.903  1.00  0.00     0.135 C 
ATOM     11  O   UNL     1      64.036  82.785  75.425  1.00  0.00    -0.300 OA
BRANCH  10  12
ATOM     12  C   UNL     1      62.679  81.469  73.922  1.00  0.00     0.080 C 
BRANCH  12  13
ATOM     13  C   UNL     1      63.925  81.023  73.156  1.00  0.00     0.043 C 
BRANCH  13  14
ATOM     14  C   UNL     1      64.097  81.739  71.837  1.00  0.00    -0.044 A 
ATOM     15  C   UNL     1      65.376  82.035  71.365  1.00  0.00     0.054 A 
ATOM     16  C   UNL     1      62.976  82.104  71.091  1.00  0.00     0.008 A 
ATOM     17  C   UNL     1      65.533  82.696  70.146  1.00  0.00     0.160 A 
ATOM     18  C   UNL     1      63.133  82.765  69.873  1.00  0.00     0.050 A 
ATOM     19  C   UNL     1      64.412  83.061  69.401  1.00  0.00     0.157 A 
BRANCH  17  20
ATOM     20  O   UNL     1      66.787  82.980  69.696  1.00  0.00    -0.493 OA
ATOM     21  C   UNL     1      67.648  83.692  70.582  1.00  0.00     0.278 C 
ENDBRANCH  17  20
BRANCH  19  22
ATOM     22  O   UNL     1      64.553  83.706  68.210  1.00  0.00    -0.504 OA
ATOM     23  H   UNL     1      64.066  84.548  68.245  1.00  0.00     0.293 HD
ENDBRANCH  19  22
ENDBRANCH  13  14
ENDBRANCH  12  13
ENDBRANCH  10  12
ENDBRANCH   1  10
TORSDOF 12
ENDMDL
MODEL 9
REMARK VINA RESULT:    -5.475     24.752     27.775
REMARK INTER + INTRA:          -9.848
REMARK INTER:                  -8.681
REMARK INTRA:                  -1.167
REMARK UNBOUND:                -0.853
REMARK SMILES CCCCC[C@H](O)CC(=O)CCc1ccc(O)c(OC)c1
REMARK SMILES IDX 8 1 6 2 7 3 5 5 4 6 3 7 2 8 1 9 9 10 10 11 11 12 12 13 13 14
REMARK SMILES IDX 21 15 14 16 18 17 15 18 16 19 19 20 20 21 17 22
REMARK H PARENT 7 4 17 23
REMARK Flexibility Score: inf
ROOT
ATOM      1  C   UNL     1      98.182  82.155  77.781  1.00  0.00     0.107 C 
ENDROOT
BRANCH   1   2
ATOM      2  C   UNL     1      98.149  83.056  76.545  1.00  0.00     0.121 C 
BRANCH   2   3
ATOM      3  O   UNL     1      96.975  83.866  76.568  1.00  0.00    -0.393 OA
ATOM      4  H   UNL     1      96.769  84.117  75.651  1.00  0.00     0.210 HD
ENDBRANCH   2   3
BRANCH   2   5
ATOM      5  C   UNL     1      99.383  83.959  76.427  1.00  0.00     0.032 C 
BRANCH   5   6
ATOM      6  C   UNL     1     100.619  83.187  75.951  1.00  0.00     0.003 C 
BRANCH   6   7
ATOM      7  C   UNL     1     101.834  83.364  76.868  1.00  0.00    -0.000 C 
BRANCH   7   8
ATOM      8  C   UNL     1     101.959  82.279  77.936  1.00  0.00    -0.003 C 
ATOM      9  C   UNL     1     103.391  81.781  78.056  1.00  0.00     0.004 C 
ENDBRANCH   7   8
ENDBRANCH   6   7
ENDBRANCH   5   6
ENDBRANCH   2   5
ENDBRANCH   1   2
BRANCH   1  10
ATOM     10  C   UNL     1      97.907  82.906  79.074  1.00  0.00     0.135 C 
ATOM     11  O   UNL     1      96.849  83.512  79.240  1.00  0.00    -0.300 OA
BRANCH  10  12
ATOM     12  C   UNL     1      98.980  82.827  80.150  1.00  0.00     0.080 C 
BRANCH  12  13
ATOM     13  C   UNL     1      98.542  83.404  81.497  1.00  0.00     0.043 C 
BRANCH  13  14
ATOM     14  C   UNL     1      98.391  82.353  82.571  1.00  0.00    -0.044 A 
ATOM     15  C   UNL     1      97.763  82.671  83.775  1.00  0.00     0.054 A 
ATOM     16  C   UNL     1      98.879  81.064  82.357  1.00  0.00     0.008 A 
ATOM     17  C   UNL     1      97.623  81.699  84.765  1.00  0.00     0.160 A 
ATOM     18  C   UNL     1      98.739  80.091  83.348  1.00  0.00     0.050 A 
ATOM     19  C   UNL     1      98.111  80.409  84.552  1.00  0.00     0.157 A 
BRANCH  17  20
ATOM     20  O   UNL     1      97.008  82.021  85.938  1.00  0.00    -0.493 OA
ATOM     21  C   UNL     1      95.849  82.848  85.856  1.00  0.00     0.278 C 
ENDBRANCH  17  20
BRANCH  19  22
ATOM     22  O   UNL     1      97.980  79.452  85.512  1.00  0.00    -0.504 OA
ATOM     23  H   UNL     1      97.052  79.418  85.801  1.00  0.00     0.293 HD
ENDBRANCH  19  22
ENDBRANCH  13  14
ENDBRANCH  12  13
ENDBRANCH  10  12
ENDBRANCH   1  10
TORSDOF 12
ENDMDL
MODEL 10
REMARK VINA RESULT:    -5.418     25.349     28.226
REMARK INTER + INTRA:          -9.756
REMARK INTER:                  -8.665
REMARK INTRA:                  -1.090
REMARK UNBOUND:                -0.853
REMARK SMILES CCCCC[C@H](O)CC(=O)CCc1ccc(O)c(OC)c1
REMARK SMILES IDX 8 1 6 2 7 3 5 5 4 6 3 7 2 8 1 9 9 10 10 11 11 12 12 13 13 14
REMARK SMILES IDX 21 15 14 16 18 17 15 18 16 19 19 20 20 21 17 22
REMARK H PARENT 7 4 17 23
REMARK Flexibility Score: inf
ROOT
ATOM      1  C   UNL     1      99.997  81.099  81.117  1.00  0.00     0.107 C 
ENDROOT
BRANCH   1   2
ATOM      2  C   UNL     1     100.123  82.220  80.082  1.00  0.00     0.121 C 
BRANCH   2   3
ATOM      3  O   UNL     1     100.296  81.660  78.782  1.00  0.00    -0.393 OA
ATOM      4  H   UNL     1     100.879  80.886  78.867  1.00  0.00     0.210 HD
ENDBRANCH   2   3
BRANCH   2   5
ATOM      5  C   UNL     1      98.915  83.164  80.069  1.00  0.00     0.032 C 
BRANCH   5   6
ATOM      6  C   UNL     1      97.933  82.828  78.940  1.00  0.00     0.003 C 
BRANCH   6   7
ATOM      7  C   UNL     1      97.386  84.067  78.224  1.00  0.00    -0.000 C 
BRANCH   7   8
ATOM      8  C   UNL     1      97.868  84.203  76.781  1.00  0.00    -0.003 C 
ATOM      9  C   UNL     1      98.111  82.841  76.147  1.00  0.00     0.004 C 
ENDBRANCH   7   8
ENDBRANCH   6   7
ENDBRANCH   5   6
ENDBRANCH   2   5
ENDBRANCH   1   2
BRANCH   1  10
ATOM     10  C   UNL     1     100.737  81.397  82.411  1.00  0.00     0.135 C 
ATOM     11  O   UNL     1     101.821  81.980  82.401  1.00  0.00    -0.300 OA
BRANCH  10  12
ATOM     12  C   UNL     1     100.048  80.980  83.702  1.00  0.00     0.080 C 
BRANCH  12  13
ATOM     13  C   UNL     1      98.535  80.806  83.563  1.00  0.00     0.043 C 
BRANCH  13  14
ATOM     14  C   UNL     1      97.749  81.943  84.172  1.00  0.00    -0.044 A 
ATOM     15  C   UNL     1      97.034  81.743  85.353  1.00  0.00     0.054 A 
ATOM     16  C   UNL     1      97.739  83.193  83.553  1.00  0.00     0.008 A 
ATOM     17  C   UNL     1      96.310  82.794  85.915  1.00  0.00     0.160 A 
ATOM     18  C   UNL     1      97.015  84.244  84.115  1.00  0.00     0.050 A 
ATOM     19  C   UNL     1      96.300  84.045  85.296  1.00  0.00     0.157 A 
BRANCH  17  20
ATOM     20  O   UNL     1      95.615  82.587  87.068  1.00  0.00    -0.493 OA
ATOM     21  C   UNL     1      96.375  82.307  88.242  1.00  0.00     0.278 C 
ENDBRANCH  17  20
BRANCH  19  22
ATOM     22  O   UNL     1      95.596  85.078  85.835  1.00  0.00    -0.504 OA
ATOM     23  H   UNL     1      96.206  85.653  86.329  1.00  0.00     0.293 HD
ENDBRANCH  19  22
ENDBRANCH  13  14
ENDBRANCH  12  13
ENDBRANCH  10  12
ENDBRANCH   1  10
TORSDOF 12
ENDMDL
