MODEL 1
REMARK VINA RESULT:    -6.713      0.000      0.000
REMARK INTER + INTRA:         -11.939
REMARK INTER:                 -11.030
REMARK INTRA:                  -0.910
REMARK UNBOUND:                -0.910
REMARK SMILES CCCCC[C@H](O)CC(=O)CCc1ccc(O)c(OC)c1
REMARK SMILES IDX 8 1 6 2 7 3 5 5 4 6 3 7 2 8 1 9 9 10 10 11 11 12 12 13 13 14
REMARK SMILES IDX 21 15 14 16 18 17 15 18 16 19 19 20 20 21 17 22
REMARK H PARENT 7 4 17 23
REMARK Flexibility Score: inf
ROOT
ATOM      1  C   UNL     1      92.125  94.501  77.052  1.00  0.00     0.107 C 
ENDROOT
BRANCH   1   2
ATOM      2  C   UNL     1      91.851  92.998  76.962  1.00  0.00     0.121 C 
BRANCH   2   3
ATOM      3  O   UNL     1      91.347  92.524  78.209  1.00  0.00    -0.393 OA
ATOM      4  H   UNL     1      92.030  91.957  78.609  1.00  0.00     0.210 HD
ENDBRANCH   2   3
BRANCH   2   5
ATOM      5  C   UNL     1      90.863  92.634  75.847  1.00  0.00     0.032 C 
BRANCH   5   6
ATOM      6  C   UNL     1      90.722  91.117  75.675  1.00  0.00     0.003 C 
BRANCH   6   7
ATOM      7  C   UNL     1      90.181  90.710  74.301  1.00  0.00    -0.000 C 
BRANCH   7   8
ATOM      8  C   UNL     1      88.714  91.080  74.086  1.00  0.00    -0.003 C 
ATOM      9  C   UNL     1      88.501  91.740  72.733  1.00  0.00     0.004 C 
ENDBRANCH   7   8
ENDBRANCH   6   7
ENDBRANCH   5   6
ENDBRANCH   2   5
ENDBRANCH   1   2
BRANCH   1  10
ATOM     10  C   UNL     1      93.060  95.002  75.963  1.00  0.00     0.135 C 
ATOM     11  O   UNL     1      92.679  95.829  75.133  1.00  0.00    -0.300 OA
BRANCH  10  12
ATOM     12  C   UNL     1      94.483  94.466  75.985  1.00  0.00     0.080 C 
BRANCH  12  13
ATOM     13  C   UNL     1      95.409  95.221  76.941  1.00  0.00     0.043 C 
BRANCH  13  14
ATOM     14  C   UNL     1      95.535  94.557  78.291  1.00  0.00    -0.044 A 
ATOM     15  C   UNL     1      95.551  95.332  79.451  1.00  0.00     0.054 A 
ATOM     16  C   UNL     1      95.634  93.168  78.379  1.00  0.00     0.008 A 
ATOM     17  C   UNL     1      95.666  94.718  80.698  1.00  0.00     0.160 A 
ATOM     18  C   UNL     1      95.749  92.554  79.626  1.00  0.00     0.050 A 
ATOM     19  C   UNL     1      95.765  93.329  80.785  1.00  0.00     0.157 A 
BRANCH  17  20
ATOM     20  O   UNL     1      95.682  95.485  81.824  1.00  0.00    -0.493 OA
ATOM     21  C   UNL     1      96.865  96.241  82.076  1.00  0.00     0.278 C 
ENDBRANCH  17  20
BRANCH  19  22
ATOM     22  O   UNL     1      95.878  92.717  81.997  1.00  0.00    -0.504 OA
ATOM     23  H   UNL     1      95.153  93.018  82.572  1.00  0.00     0.293 HD
ENDBRANCH  19  22
ENDBRANCH  13  14
ENDBRANCH  12  13
ENDBRANCH  10  12
ENDBRANCH   1  10
TORSDOF 12
ENDMDL
MODEL 2
REMARK VINA RESULT:    -6.148      1.954      6.835
REMARK INTER + INTRA:         -11.012
REMARK INTER:                  -9.454
REMARK INTRA:                  -1.558
REMARK UNBOUND:                -0.910
REMARK SMILES CCCCC[C@H](O)CC(=O)CCc1ccc(O)c(OC)c1
REMARK SMILES IDX 8 1 6 2 7 3 5 5 4 6 3 7 2 8 1 9 9 10 10 11 11 12 12 13 13 14
REMARK SMILES IDX 21 15 14 16 18 17 15 18 16 19 19 20 20 21 17 22
REMARK H PARENT 7 4 17 23
REMARK Flexibility Score: inf
ROOT
ATOM      1  C   UNL     1      97.150  94.662  79.482  1.00  0.00     0.107 C 
ENDROOT
BRANCH   1   2
ATOM      2  C   UNL     1      97.621  96.106  79.673  1.00  0.00     0.121 C 
BRANCH   2   3
ATOM      3  O   UNL     1      99.044  96.144  79.753  1.00  0.00    -0.393 OA
ATOM      4  H   UNL     1      99.392  95.426  79.196  1.00  0.00     0.210 HD
ENDBRANCH   2   3
BRANCH   2   5
ATOM      5  C   UNL     1      97.152  97.043  78.553  1.00  0.00     0.032 C 
BRANCH   5   6
ATOM      6  C   UNL     1      97.120  96.341  77.190  1.00  0.00     0.003 C 
BRANCH   6   7
ATOM      7  C   UNL     1      96.205  97.032  76.174  1.00  0.00    -0.000 C 
BRANCH   7   8
ATOM      8  C   UNL     1      95.720  96.107  75.059  1.00  0.00    -0.003 C 
ATOM      9  C   UNL     1      94.656  96.780  74.204  1.00  0.00     0.004 C 
ENDBRANCH   7   8
ENDBRANCH   6   7
ENDBRANCH   5   6
ENDBRANCH   2   5
ENDBRANCH   1   2
BRANCH   1  10
ATOM     10  C   UNL     1      95.948  94.309  80.344  1.00  0.00     0.135 C 
ATOM     11  O   UNL     1      95.763  94.861  81.428  1.00  0.00    -0.300 OA
BRANCH  10  12
ATOM     12  C   UNL     1      94.980  93.283  79.776  1.00  0.00     0.080 C 
BRANCH  12  13
ATOM     13  C   UNL     1      94.801  93.380  78.259  1.00  0.00     0.043 C 
BRANCH  13  14
ATOM     14  C   UNL     1      93.432  93.873  77.855  1.00  0.00    -0.044 A 
ATOM     15  C   UNL     1      92.347  92.997  77.855  1.00  0.00     0.054 A 
ATOM     16  C   UNL     1      93.254  95.205  77.481  1.00  0.00     0.008 A 
ATOM     17  C   UNL     1      91.082  93.453  77.482  1.00  0.00     0.160 A 
ATOM     18  C   UNL     1      91.989  95.662  77.108  1.00  0.00     0.050 A 
ATOM     19  C   UNL     1      90.904  94.786  77.108  1.00  0.00     0.157 A 
BRANCH  17  20
ATOM     20  O   UNL     1      90.030  92.588  77.486  1.00  0.00    -0.493 OA
ATOM     21  C   UNL     1      90.027  91.567  76.490  1.00  0.00     0.278 C 
ENDBRANCH  17  20
BRANCH  19  22
ATOM     22  O   UNL     1      89.674  95.243  76.742  1.00  0.00    -0.504 OA
ATOM     23  H   UNL     1      89.003  94.852  77.328  1.00  0.00     0.293 HD
ENDBRANCH  19  22
ENDBRANCH  13  14
ENDBRANCH  12  13
ENDBRANCH  10  12
ENDBRANCH   1  10
TORSDOF 12
ENDMDL
MODEL 3
REMARK VINA RESULT:    -5.996      2.375      8.068
REMARK INTER + INTRA:         -10.762
REMARK INTER:                  -9.905
REMARK INTRA:                  -0.856
REMARK UNBOUND:                -0.910
REMARK SMILES CCCCC[C@H](O)CC(=O)CCc1ccc(O)c(OC)c1
REMARK SMILES IDX 8 1 6 2 7 3 5 5 4 6 3 7 2 8 1 9 9 10 10 11 11 12 12 13 13 14
REMARK SMILES IDX 21 15 14 16 18 17 15 18 16 19 19 20 20 21 17 22
REMARK H PARENT 7 4 17 23
REMARK Flexibility Score: inf
ROOT
ATOM      1  C   UNL     1      96.739  95.657  80.809  1.00  0.00     0.107 C 
ENDROOT
BRANCH   1   2
ATOM      2  C   UNL     1      95.877  96.447  81.798  1.00  0.00     0.121 C 
BRANCH   2   3
ATOM      3  O   UNL     1      95.349  95.567  82.788  1.00  0.00    -0.393 OA
ATOM      4  H   UNL     1      95.958  95.573  83.547  1.00  0.00     0.210 HD
ENDBRANCH   2   3
BRANCH   2   5
ATOM      5  C   UNL     1      96.643  97.582  82.488  1.00  0.00     0.032 C 
BRANCH   5   6
ATOM      6  C   UNL     1      95.999  98.950  82.234  1.00  0.00     0.003 C 
BRANCH   6   7
ATOM      7  C   UNL     1      96.696  99.753  81.131  1.00  0.00    -0.000 C 
BRANCH   7   8
ATOM      8  C   UNL     1      96.068 101.123  80.882  1.00  0.00    -0.003 C 
ATOM      9  C   UNL     1      96.326 101.601  79.461  1.00  0.00     0.004 C 
ENDBRANCH   7   8
ENDBRANCH   6   7
ENDBRANCH   5   6
ENDBRANCH   2   5
ENDBRANCH   1   2
BRANCH   1  10
ATOM     10  C   UNL     1      95.972  94.552  80.102  1.00  0.00     0.135 C 
ATOM     11  O   UNL     1      95.313  93.731  80.739  1.00  0.00    -0.300 OA
BRANCH  10  12
ATOM     12  C   UNL     1      96.029  94.548  78.582  1.00  0.00     0.080 C 
BRANCH  12  13
ATOM     13  C   UNL     1      95.146  93.478  77.936  1.00  0.00     0.043 C 
BRANCH  13  14
ATOM     14  C   UNL     1      93.742  93.959  77.656  1.00  0.00    -0.044 A 
ATOM     15  C   UNL     1      92.655  93.121  77.902  1.00  0.00     0.054 A 
ATOM     16  C   UNL     1      93.533  95.243  77.152  1.00  0.00     0.008 A 
ATOM     17  C   UNL     1      91.358  93.566  77.644  1.00  0.00     0.160 A 
ATOM     18  C   UNL     1      92.236  95.689  76.894  1.00  0.00     0.050 A 
ATOM     19  C   UNL     1      91.149  94.850  77.140  1.00  0.00     0.157 A 
BRANCH  17  20
ATOM     20  O   UNL     1      90.304  92.738  77.887  1.00  0.00    -0.493 OA
ATOM     21  C   UNL     1      89.973  91.795  76.870  1.00  0.00     0.278 C 
ENDBRANCH  17  20
BRANCH  19  22
ATOM     22  O   UNL     1      89.888  95.297  76.884  1.00  0.00    -0.504 OA
ATOM     23  H   UNL     1      89.321  94.537  76.668  1.00  0.00     0.293 HD
ENDBRANCH  19  22
ENDBRANCH  13  14
ENDBRANCH  12  13
ENDBRANCH  10  12
ENDBRANCH   1  10
TORSDOF 12
ENDMDL
MODEL 4
REMARK VINA RESULT:    -5.941      2.102      3.889
REMARK INTER + INTRA:         -10.671
REMARK INTER:                  -9.403
REMARK INTRA:                  -1.268
REMARK UNBOUND:                -0.910
REMARK SMILES CCCCC[C@H](O)CC(=O)CCc1ccc(O)c(OC)c1
REMARK SMILES IDX 8 1 6 2 7 3 5 5 4 6 3 7 2 8 1 9 9 10 10 11 11 12 12 13 13 14
REMARK SMILES IDX 21 15 14 16 18 17 15 18 16 19 19 20 20 21 17 22
REMARK H PARENT 7 4 17 23
REMARK Flexibility Score: inf
ROOT
ATOM      1  C   UNL     1      94.274  95.053  78.112  1.00  0.00     0.107 C 
ENDROOT
BRANCH   1   2
ATOM      2  C   UNL     1      94.113  95.034  76.590  1.00  0.00     0.121 C 
BRANCH   2   3
ATOM      3  O   UNL     1      93.973  93.689  76.136  1.00  0.00    -0.393 OA
ATOM      4  H   UNL     1      93.477  93.197  76.813  1.00  0.00     0.210 HD
ENDBRANCH   2   3
BRANCH   2   5
ATOM      5  C   UNL     1      92.915  95.858  76.103  1.00  0.00     0.032 C 
BRANCH   5   6
ATOM      6  C   UNL     1      91.750  95.827  77.099  1.00  0.00     0.003 C 
BRANCH   6   7
ATOM      7  C   UNL     1      90.576  94.960  76.632  1.00  0.00    -0.000 C 
BRANCH   7   8
ATOM      8  C   UNL     1      90.431  93.654  77.411  1.00  0.00    -0.003 C 
ATOM      9  C   UNL     1      90.686  92.447  76.521  1.00  0.00     0.004 C 
ENDBRANCH   7   8
ENDBRANCH   6   7
ENDBRANCH   5   6
ENDBRANCH   2   5
ENDBRANCH   1   2
BRANCH   1  10
ATOM     10  C   UNL     1      94.334  93.663  78.723  1.00  0.00     0.135 C 
ATOM     11  O   UNL     1      93.317  92.980  78.843  1.00  0.00    -0.300 OA
BRANCH  10  12
ATOM     12  C   UNL     1      95.709  93.154  79.128  1.00  0.00     0.080 C 
BRANCH  12  13
ATOM     13  C   UNL     1      95.902  93.041  80.641  1.00  0.00     0.043 C 
BRANCH  13  14
ATOM     14  C   UNL     1      96.867  94.063  81.193  1.00  0.00    -0.044 A 
ATOM     15  C   UNL     1      96.469  95.392  81.337  1.00  0.00     0.054 A 
ATOM     16  C   UNL     1      98.157  93.677  81.560  1.00  0.00     0.008 A 
ATOM     17  C   UNL     1      97.362  96.335  81.848  1.00  0.00     0.160 A 
ATOM     18  C   UNL     1      99.049  94.619  82.071  1.00  0.00     0.050 A 
ATOM     19  C   UNL     1      98.651  95.949  82.214  1.00  0.00     0.157 A 
BRANCH  17  20
ATOM     20  O   UNL     1      96.962  97.630  81.984  1.00  0.00    -0.493 OA
ATOM     21  C   UNL     1      97.110  98.477  80.845  1.00  0.00     0.278 C 
ENDBRANCH  17  20
BRANCH  19  22
ATOM     22  O   UNL     1      99.531  96.860  82.714  1.00  0.00    -0.504 OA
ATOM     23  H   UNL     1      99.066  97.436  83.345  1.00  0.00     0.293 HD
ENDBRANCH  19  22
ENDBRANCH  13  14
ENDBRANCH  12  13
ENDBRANCH  10  12
ENDBRANCH   1  10
TORSDOF 12
ENDMDL
MODEL 5
REMARK VINA RESULT:    -5.910      1.939      8.496
REMARK INTER + INTRA:         -10.620
REMARK INTER:                  -9.656
REMARK INTRA:                  -0.963
REMARK UNBOUND:                -0.910
REMARK SMILES CCCCC[C@H](O)CC(=O)CCc1ccc(O)c(OC)c1
REMARK SMILES IDX 8 1 6 2 7 3 5 5 4 6 3 7 2 8 1 9 9 10 10 11 11 12 12 13 13 14
REMARK SMILES IDX 21 15 14 16 18 17 15 18 16 19 19 20 20 21 17 22
REMARK H PARENT 7 4 17 23
REMARK Flexibility Score: inf
ROOT
ATOM      1  C   UNL     1      96.567  95.813  80.616  1.00  0.00     0.107 C 
ENDROOT
BRANCH   1   2
ATOM      2  C   UNL     1      95.779  96.492  81.739  1.00  0.00     0.121 C 
BRANCH   2   3
ATOM      3  O   UNL     1      95.437  95.534  82.737  1.00  0.00    -0.393 OA
ATOM      4  H   UNL     1      95.816  95.836  83.581  1.00  0.00     0.210 HD
ENDBRANCH   2   3
BRANCH   2   5
ATOM      5  C   UNL     1      96.542  97.651  82.391  1.00  0.00     0.032 C 
BRANCH   5   6
ATOM      6  C   UNL     1      98.001  97.285  82.689  1.00  0.00     0.003 C 
BRANCH   6   7
ATOM      7  C   UNL     1      98.271  97.030  84.176  1.00  0.00    -0.000 C 
BRANCH   7   8
ATOM      8  C   UNL     1      99.276  95.909  84.432  1.00  0.00    -0.003 C 
ATOM      9  C   UNL     1      99.831  95.354  83.129  1.00  0.00     0.004 C 
ENDBRANCH   7   8
ENDBRANCH   6   7
ENDBRANCH   5   6
ENDBRANCH   2   5
ENDBRANCH   1   2
BRANCH   1  10
ATOM     10  C   UNL     1      95.831  94.634  80.000  1.00  0.00     0.135 C 
ATOM     11  O   UNL     1      95.344  93.752  80.708  1.00  0.00    -0.300 OA
BRANCH  10  12
ATOM     12  C   UNL     1      95.693  94.632  78.485  1.00  0.00     0.080 C 
BRANCH  12  13
ATOM     13  C   UNL     1      94.791  93.518  77.951  1.00  0.00     0.043 C 
BRANCH  13  14
ATOM     14  C   UNL     1      93.386  93.986  77.654  1.00  0.00    -0.044 A 
ATOM     15  C   UNL     1      92.313  93.107  77.799  1.00  0.00     0.054 A 
ATOM     16  C   UNL     1      93.163  95.297  77.233  1.00  0.00     0.008 A 
ATOM     17  C   UNL     1      91.015  93.541  77.525  1.00  0.00     0.160 A 
ATOM     18  C   UNL     1      91.865  95.731  76.959  1.00  0.00     0.050 A 
ATOM     19  C   UNL     1      90.792  94.852  77.104  1.00  0.00     0.157 A 
BRANCH  17  20
ATOM     20  O   UNL     1      89.975  92.673  77.669  1.00  0.00    -0.493 OA
ATOM     21  C   UNL     1      89.883  91.608  76.726  1.00  0.00     0.278 C 
ENDBRANCH  17  20
BRANCH  19  22
ATOM     22  O   UNL     1      89.530  95.287  76.833  1.00  0.00    -0.504 OA
ATOM     23  H   UNL     1      89.569  95.952  76.125  1.00  0.00     0.293 HD
ENDBRANCH  19  22
ENDBRANCH  13  14
ENDBRANCH  12  13
ENDBRANCH  10  12
ENDBRANCH   1  10
TORSDOF 12
ENDMDL
MODEL 6
REMARK VINA RESULT:    -5.617     20.584     23.193
REMARK INTER + INTRA:         -10.138
REMARK INTER:                  -9.105
REMARK INTRA:                  -1.033
REMARK UNBOUND:                -0.910
REMARK SMILES CCCCC[C@H](O)CC(=O)CCc1ccc(O)c(OC)c1
REMARK SMILES IDX 8 1 6 2 7 3 5 5 4 6 3 7 2 8 1 9 9 10 10 11 11 12 12 13 13 14
REMARK SMILES IDX 21 15 14 16 18 17 15 18 16 19 19 20 20 21 17 22
REMARK H PARENT 7 4 17 23
REMARK Flexibility Score: inf
ROOT
ATOM      1  C   UNL     1      75.612  83.943  66.750  1.00  0.00     0.107 C 
ENDROOT
BRANCH   1   2
ATOM      2  C   UNL     1      75.350  83.550  65.294  1.00  0.00     0.121 C 
BRANCH   2   3
ATOM      3  O   UNL     1      76.395  84.051  64.464  1.00  0.00    -0.393 OA
ATOM      4  H   UNL     1      76.901  83.290  64.130  1.00  0.00     0.210 HD
ENDBRANCH   2   3
BRANCH   2   5
ATOM      5  C   UNL     1      75.230  82.034  65.094  1.00  0.00     0.032 C 
BRANCH   5   6
ATOM      6  C   UNL     1      74.758  81.675  63.680  1.00  0.00     0.003 C 
BRANCH   6   7
ATOM      7  C   UNL     1      73.237  81.751  63.510  1.00  0.00    -0.000 C 
BRANCH   7   8
ATOM      8  C   UNL     1      72.464  80.958  64.562  1.00  0.00    -0.003 C 
ATOM      9  C   UNL     1      71.447  81.834  65.278  1.00  0.00     0.004 C 
ENDBRANCH   7   8
ENDBRANCH   6   7
ENDBRANCH   5   6
ENDBRANCH   2   5
ENDBRANCH   1   2
BRANCH   1  10
ATOM     10  C   UNL     1      77.083  84.185  67.047  1.00  0.00     0.135 C 
ATOM     11  O   UNL     1      77.947  83.411  66.636  1.00  0.00    -0.300 OA
BRANCH  10  12
ATOM     12  C   UNL     1      77.422  85.444  67.830  1.00  0.00     0.080 C 
BRANCH  12  13
ATOM     13  C   UNL     1      77.211  86.736  67.039  1.00  0.00     0.043 C 
BRANCH  13  14
ATOM     14  C   UNL     1      76.305  87.719  67.741  1.00  0.00    -0.044 A 
ATOM     15  C   UNL     1      75.047  87.312  68.187  1.00  0.00     0.054 A 
ATOM     16  C   UNL     1      76.725  89.034  67.942  1.00  0.00     0.008 A 
ATOM     17  C   UNL     1      74.211  88.221  68.836  1.00  0.00     0.160 A 
ATOM     18  C   UNL     1      75.889  89.942  68.591  1.00  0.00     0.050 A 
ATOM     19  C   UNL     1      74.632  89.536  69.038  1.00  0.00     0.157 A 
BRANCH  17  20
ATOM     20  O   UNL     1      72.985  87.813  69.268  1.00  0.00    -0.493 OA
ATOM     21  C   UNL     1      71.892  87.983  68.368  1.00  0.00     0.278 C 
ENDBRANCH  17  20
BRANCH  19  22
ATOM     22  O   UNL     1      73.824  90.432  69.670  1.00  0.00    -0.504 OA
ATOM     23  H   UNL     1      73.296  90.907  69.005  1.00  0.00     0.293 HD
ENDBRANCH  19  22
ENDBRANCH  13  14
ENDBRANCH  12  13
ENDBRANCH  10  12
ENDBRANCH   1  10
TORSDOF 12
ENDMDL
MODEL 7
REMARK VINA RESULT:    -5.569     30.275     33.906
REMARK INTER + INTRA:         -10.059
REMARK INTER:                  -8.224
REMARK INTRA:                  -1.835
REMARK UNBOUND:                -0.910
REMARK SMILES CCCCC[C@H](O)CC(=O)CCc1ccc(O)c(OC)c1
REMARK SMILES IDX 8 1 6 2 7 3 5 5 4 6 3 7 2 8 1 9 9 10 10 11 11 12 12 13 13 14
REMARK SMILES IDX 21 15 14 16 18 17 15 18 16 19 19 20 20 21 17 22
REMARK H PARENT 7 4 17 23
REMARK Flexibility Score: inf
ROOT
ATOM      1  C   UNL     1      60.677  83.760  73.254  1.00  0.00     0.107 C 
ENDROOT
BRANCH   1   2
ATOM      2  C   UNL     1      61.317  84.939  72.515  1.00  0.00     0.121 C 
BRANCH   2   3
ATOM      3  O   UNL     1      62.730  84.917  72.703  1.00  0.00    -0.393 OA
ATOM      4  H   UNL     1      63.046  84.023  72.484  1.00  0.00     0.210 HD
ENDBRANCH   2   3
BRANCH   2   5
ATOM      5  C   UNL     1      61.007  84.945  71.014  1.00  0.00     0.032 C 
BRANCH   5   6
ATOM      6  C   UNL     1      59.761  85.778  70.686  1.00  0.00     0.003 C 
BRANCH   6   7
ATOM      7  C   UNL     1      58.759  85.042  69.790  1.00  0.00    -0.000 C 
BRANCH   7   8
ATOM      8  C   UNL     1      57.345  84.995  70.365  1.00  0.00    -0.003 C 
ATOM      9  C   UNL     1      57.355  85.153  71.878  1.00  0.00     0.004 C 
ENDBRANCH   7   8
ENDBRANCH   6   7
ENDBRANCH   5   6
ENDBRANCH   2   5
ENDBRANCH   1   2
BRANCH   1  10
ATOM     10  C   UNL     1      61.687  82.914  74.012  1.00  0.00     0.135 C 
ATOM     11  O   UNL     1      62.318  83.379  74.961  1.00  0.00    -0.300 OA
BRANCH  10  12
ATOM     12  C   UNL     1      61.836  81.467  73.565  1.00  0.00     0.080 C 
BRANCH  12  13
ATOM     13  C   UNL     1      63.206  81.148  72.963  1.00  0.00     0.043 C 
BRANCH  13  14
ATOM     14  C   UNL     1      63.369  81.666  71.554  1.00  0.00    -0.044 A 
ATOM     15  C   UNL     1      64.541  82.325  71.185  1.00  0.00     0.054 A 
ATOM     16  C   UNL     1      62.346  81.486  70.622  1.00  0.00     0.008 A 
ATOM     17  C   UNL     1      64.691  82.803  69.883  1.00  0.00     0.160 A 
ATOM     18  C   UNL     1      62.496  81.964  69.320  1.00  0.00     0.050 A 
ATOM     19  C   UNL     1      63.669  82.623  68.951  1.00  0.00     0.157 A 
BRANCH  17  20
ATOM     20  O   UNL     1      65.841  83.446  69.533  1.00  0.00    -0.493 OA
ATOM     21  C   UNL     1      65.981  84.800  69.959  1.00  0.00     0.278 C 
ENDBRANCH  17  20
BRANCH  19  22
ATOM     22  O   UNL     1      63.804  83.085  67.677  1.00  0.00    -0.504 OA
ATOM     23  H   UNL     1      64.659  82.788  67.321  1.00  0.00     0.293 HD
ENDBRANCH  19  22
ENDBRANCH  13  14
ENDBRANCH  12  13
ENDBRANCH  10  12
ENDBRANCH   1  10
TORSDOF 12
ENDMDL
MODEL 8
REMARK VINA RESULT:    -5.491     11.008     14.693
REMARK INTER + INTRA:          -9.931
REMARK INTER:                  -8.064
REMARK INTRA:                  -1.867
REMARK UNBOUND:                -0.910
REMARK SMILES CCCCC[C@H](O)CC(=O)CCc1ccc(O)c(OC)c1
REMARK SMILES IDX 8 1 6 2 7 3 5 5 4 6 3 7 2 8 1 9 9 10 10 11 11 12 12 13 13 14
REMARK SMILES IDX 21 15 14 16 18 17 15 18 16 19 19 20 20 21 17 22
REMARK H PARENT 7 4 17 23
REMARK Flexibility Score: inf
ROOT
ATOM      1  C   UNL     1      91.309  99.637  69.404  1.00  0.00     0.107 C 
ENDROOT
BRANCH   1   2
ATOM      2  C   UNL     1      91.060 101.119  69.693  1.00  0.00     0.121 C 
BRANCH   2   3
ATOM      3  O   UNL     1      90.671 101.287  71.054  1.00  0.00    -0.393 OA
ATOM      4  H   UNL     1      90.515 100.403  71.430  1.00  0.00     0.210 HD
ENDBRANCH   2   3
BRANCH   2   5
ATOM      5  C   UNL     1      92.282 102.001  69.405  1.00  0.00     0.032 C 
BRANCH   5   6
ATOM      6  C   UNL     1      92.304 102.498  67.955  1.00  0.00     0.003 C 
BRANCH   6   7
ATOM      7  C   UNL     1      93.355 101.796  67.089  1.00  0.00    -0.000 C 
BRANCH   7   8
ATOM      8  C   UNL     1      93.370 102.273  65.638  1.00  0.00    -0.003 C 
ATOM      9  C   UNL     1      92.334 101.537  64.801  1.00  0.00     0.004 C 
ENDBRANCH   7   8
ENDBRANCH   6   7
ENDBRANCH   5   6
ENDBRANCH   2   5
ENDBRANCH   1   2
BRANCH   1  10
ATOM     10  C   UNL     1      90.028  98.850  69.182  1.00  0.00     0.135 C 
ATOM     11  O   UNL     1      89.172  98.773  70.064  1.00  0.00    -0.300 OA
BRANCH  10  12
ATOM     12  C   UNL     1      89.847  98.212  67.813  1.00  0.00     0.080 C 
BRANCH  12  13
ATOM     13  C   UNL     1      90.047  99.185  66.650  1.00  0.00     0.043 C 
BRANCH  13  14
ATOM     14  C   UNL     1      88.906 100.162  66.493  1.00  0.00    -0.044 A 
ATOM     15  C   UNL     1      89.162 101.532  66.445  1.00  0.00     0.054 A 
ATOM     16  C   UNL     1      87.596  99.693  66.396  1.00  0.00     0.008 A 
ATOM     17  C   UNL     1      88.108 102.434  66.299  1.00  0.00     0.160 A 
ATOM     18  C   UNL     1      86.541 100.595  66.250  1.00  0.00     0.050 A 
ATOM     19  C   UNL     1      86.797 101.965  66.202  1.00  0.00     0.157 A 
BRANCH  17  20
ATOM     20  O   UNL     1      88.370 103.770  66.254  1.00  0.00    -0.493 OA
ATOM     21  C   UNL     1      89.708 104.158  65.947  1.00  0.00     0.278 C 
ENDBRANCH  17  20
BRANCH  19  22
ATOM     22  O   UNL     1      85.759 102.835  66.059  1.00  0.00    -0.504 OA
ATOM     23  H   UNL     1      85.703 103.111  65.128  1.00  0.00     0.293 HD
ENDBRANCH  19  22
ENDBRANCH  13  14
ENDBRANCH  12  13
ENDBRANCH  10  12
ENDBRANCH   1  10
TORSDOF 12
ENDMDL
MODEL 9
REMARK VINA RESULT:    -5.420      2.632      8.497
REMARK INTER + INTRA:          -9.815
REMARK INTER:                  -8.992
REMARK INTRA:                  -0.823
REMARK UNBOUND:                -0.910
REMARK SMILES CCCCC[C@H](O)CC(=O)CCc1ccc(O)c(OC)c1
REMARK SMILES IDX 8 1 6 2 7 3 5 5 4 6 3 7 2 8 1 9 9 10 10 11 11 12 12 13 13 14
REMARK SMILES IDX 21 15 14 16 18 17 15 18 16 19 19 20 20 21 17 22
REMARK H PARENT 7 4 17 23
REMARK Flexibility Score: inf
ROOT
ATOM      1  C   UNL     1      96.412  96.422  80.738  1.00  0.00     0.107 C 
ENDROOT
BRANCH   1   2
ATOM      2  C   UNL     1      96.435  96.958  82.172  1.00  0.00     0.121 C 
BRANCH   2   3
ATOM      3  O   UNL     1      97.208  96.092  82.999  1.00  0.00    -0.393 OA
ATOM      4  H   UNL     1      97.918  95.713  82.452  1.00  0.00     0.210 HD
ENDBRANCH   2   3
BRANCH   2   5
ATOM      5  C   UNL     1      96.995  98.382  82.270  1.00  0.00     0.032 C 
BRANCH   5   6
ATOM      6  C   UNL     1      95.892  99.443  82.166  1.00  0.00     0.003 C 
BRANCH   6   7
ATOM      7  C   UNL     1      95.784 100.330  83.411  1.00  0.00    -0.000 C 
BRANCH   7   8
ATOM      8  C   UNL     1      95.248 101.731  83.119  1.00  0.00    -0.003 C 
ATOM      9  C   UNL     1      96.375 102.698  82.789  1.00  0.00     0.004 C 
ENDBRANCH   7   8
ENDBRANCH   6   7
ENDBRANCH   5   6
ENDBRANCH   2   5
ENDBRANCH   1   2
BRANCH   1  10
ATOM     10  C   UNL     1      96.195  94.919  80.668  1.00  0.00     0.135 C 
ATOM     11  O   UNL     1      95.551  94.331  81.536  1.00  0.00    -0.300 OA
BRANCH  10  12
ATOM     12  C   UNL     1      96.774  94.202  79.457  1.00  0.00     0.080 C 
BRANCH  12  13
ATOM     13  C   UNL     1      95.977  92.966  79.036  1.00  0.00     0.043 C 
BRANCH  13  14
ATOM     14  C   UNL     1      94.754  93.301  78.216  1.00  0.00    -0.044 A 
ATOM     15  C   UNL     1      94.895  93.750  76.903  1.00  0.00     0.054 A 
ATOM     16  C   UNL     1      93.482  93.161  78.773  1.00  0.00     0.008 A 
ATOM     17  C   UNL     1      93.763  94.058  76.147  1.00  0.00     0.160 A 
ATOM     18  C   UNL     1      92.351  93.470  78.017  1.00  0.00     0.050 A 
ATOM     19  C   UNL     1      92.492  93.918  76.704  1.00  0.00     0.157 A 
BRANCH  17  20
ATOM     20  O   UNL     1      93.913  94.495  74.865  1.00  0.00    -0.493 OA
ATOM     21  C   UNL     1      94.019  95.905  74.670  1.00  0.00     0.278 C 
ENDBRANCH  17  20
BRANCH  19  22
ATOM     22  O   UNL     1      91.380  94.216  75.976  1.00  0.00    -0.504 OA
ATOM     23  H   UNL     1      90.800  94.791  76.504  1.00  0.00     0.293 HD
ENDBRANCH  19  22
ENDBRANCH  13  14
ENDBRANCH  12  13
ENDBRANCH  10  12
ENDBRANCH   1  10
TORSDOF 12
ENDMDL
MODEL 10
REMARK VINA RESULT:    -5.384     10.268     14.303
REMARK INTER + INTRA:          -9.756
REMARK INTER:                  -8.632
REMARK INTRA:                  -1.124
REMARK UNBOUND:                -0.910
REMARK SMILES CCCCC[C@H](O)CC(=O)CCc1ccc(O)c(OC)c1
REMARK SMILES IDX 8 1 6 2 7 3 5 5 4 6 3 7 2 8 1 9 9 10 10 11 11 12 12 13 13 14
REMARK SMILES IDX 21 15 14 16 18 17 15 18 16 19 19 20 20 21 17 22
REMARK H PARENT 7 4 17 23
REMARK Flexibility Score: inf
ROOT
ATOM      1  C   UNL     1      90.853  98.909  68.896  1.00  0.00     0.107 C 
ENDROOT
BRANCH   1   2
ATOM      2  C   UNL     1      90.319  99.288  70.280  1.00  0.00     0.121 C 
BRANCH   2   3
ATOM      3  O   UNL     1      89.536  98.218  70.805  1.00  0.00    -0.393 OA
ATOM      4  H   UNL     1      88.600  98.477  70.744  1.00  0.00     0.210 HD
ENDBRANCH   2   3
BRANCH   2   5
ATOM      5  C   UNL     1      91.431  99.637  71.277  1.00  0.00     0.032 C 
BRANCH   5   6
ATOM      6  C   UNL     1      91.368 101.104  71.720  1.00  0.00     0.003 C 
BRANCH   6   7
ATOM      7  C   UNL     1      90.009 101.759  71.457  1.00  0.00    -0.000 C 
BRANCH   7   8
ATOM      8  C   UNL     1      89.896 103.178  72.012  1.00  0.00    -0.003 C 
ATOM      9  C   UNL     1      89.316 103.178  73.418  1.00  0.00     0.004 C 
ENDBRANCH   7   8
ENDBRANCH   6   7
ENDBRANCH   5   6
ENDBRANCH   2   5
ENDBRANCH   1   2
BRANCH   1  10
ATOM     10  C   UNL     1      90.030  97.827  68.216  1.00  0.00     0.135 C 
ATOM     11  O   UNL     1      90.047  96.667  68.627  1.00  0.00    -0.300 OA
BRANCH  10  12
ATOM     12  C   UNL     1      89.163  98.264  67.045  1.00  0.00     0.080 C 
BRANCH  12  13
ATOM     13  C   UNL     1      89.673  99.521  66.338  1.00  0.00     0.043 C 
BRANCH  13  14
ATOM     14  C   UNL     1      88.654 100.634  66.301  1.00  0.00    -0.044 A 
ATOM     15  C   UNL     1      89.073 101.964  66.291  1.00  0.00     0.054 A 
ATOM     16  C   UNL     1      87.292 100.332  66.278  1.00  0.00     0.008 A 
ATOM     17  C   UNL     1      88.131 102.992  66.256  1.00  0.00     0.160 A 
ATOM     18  C   UNL     1      86.349 101.360  66.243  1.00  0.00     0.050 A 
ATOM     19  C   UNL     1      86.769 102.690  66.232  1.00  0.00     0.157 A 
BRANCH  17  20
ATOM     20  O   UNL     1      88.552 104.288  66.247  1.00  0.00    -0.493 OA
ATOM     21  C   UNL     1      89.953 104.514  66.395  1.00  0.00     0.278 C 
ENDBRANCH  17  20
BRANCH  19  22
ATOM     22  O   UNL     1      85.839 103.685  66.198  1.00  0.00    -0.504 OA
ATOM     23  H   UNL     1      86.294 104.544  66.219  1.00  0.00     0.293 HD
ENDBRANCH  19  22
ENDBRANCH  13  14
ENDBRANCH  12  13
ENDBRANCH  10  12
ENDBRANCH   1  10
TORSDOF 12
ENDMDL
