MODEL 1
REMARK VINA RESULT:    -6.114      0.000      0.000
REMARK INTER + INTRA:         -10.594
REMARK INTER:                  -9.509
REMARK INTRA:                  -1.084
REMARK UNBOUND:                -1.084
REMARK SMILES COc1cc(CNC(=O)CCCCCC(C)C)ccc1O
REMARK SMILES IDX 10 1 8 2 7 3 9 5 6 6 5 7 3 8 20 9 4 10 19 11 18 12 2 13 1 14
REMARK SMILES IDX 21 15 11 17 12 18 13 19 14 20 15 21 16 22 17 23
REMARK H PARENT 7 4 21 16
REMARK Flexibility Score: inf
ROOT
ATOM      1  C   UNL     1      95.451  97.238  74.389  1.00  0.00     0.100 C 
ENDROOT
BRANCH   1   2
ATOM      2  C   UNL     1      96.663  97.080  75.218  1.00  0.00     0.220 C 
ATOM      3  N   UNL     1      96.539  96.955  76.570  1.00  0.00    -0.352 N 
ATOM      4  H   UNL     1      95.608  97.115  76.927  1.00  0.00     0.163 HD
ATOM      5  O   UNL     1      97.783  97.021  74.655  1.00  0.00    -0.275 OA
BRANCH   3   6
ATOM      6  C   UNL     1      97.600  96.626  77.466  1.00  0.00     0.151 C 
BRANCH   6   7
ATOM      7  C   UNL     1      97.170  95.739  78.581  1.00  0.00    -0.025 A 
ATOM      8  C   UNL     1      97.718  94.360  80.541  1.00  0.00     0.160 A 
ATOM      9  C   UNL     1      96.345  94.106  80.744  1.00  0.00     0.157 A 
ATOM     10  C   UNL     1      98.123  95.159  79.451  1.00  0.00     0.056 A 
ATOM     11  C   UNL     1      95.390  94.656  79.869  1.00  0.00     0.050 A 
ATOM     12  C   UNL     1      95.798  95.471  78.799  1.00  0.00     0.009 A 
BRANCH   8  13
ATOM     13  O   UNL     1      98.665  93.817  81.370  1.00  0.00    -0.493 OA
ATOM     14  C   UNL     1      99.180  94.741  82.348  1.00  0.00     0.278 C 
ENDBRANCH   8  13
BRANCH   9  15
ATOM     15  O   UNL     1      95.945  93.337  81.788  1.00  0.00    -0.504 OA
ATOM     16  H   UNL     1      96.710  93.082  82.309  1.00  0.00     0.293 HD
ENDBRANCH   9  15
ENDBRANCH   6   7
ENDBRANCH   3   6
ENDBRANCH   1   2
BRANCH   1  17
ATOM     17  C   UNL     1      94.241  96.384  74.857  1.00  0.00     0.010 C 
BRANCH  17  18
ATOM     18  C   UNL     1      94.514  94.864  74.688  1.00  0.00     0.001 C 
BRANCH  18  19
ATOM     19  C   UNL     1      93.953  94.004  75.851  1.00  0.00     0.000 C 
BRANCH  19  20
ATOM     20  C   UNL     1      92.402  93.885  75.799  1.00  0.00     0.003 C 
BRANCH  20  21
ATOM     21  C   UNL     1      91.754  93.170  77.029  1.00  0.00    -0.017 C 
ATOM     22  C   UNL     1      90.344  93.757  77.333  1.00  0.00     0.007 C 
ATOM     23  C   UNL     1      92.644  93.234  78.304  1.00  0.00     0.007 C 
ENDBRANCH  20  21
ENDBRANCH  19  20
ENDBRANCH  18  19
ENDBRANCH  17  18
ENDBRANCH   1  17
TORSDOF 10
ENDMDL
MODEL 2
REMARK VINA RESULT:    -5.693      6.490     10.495
REMARK INTER + INTRA:          -9.939
REMARK INTER:                  -9.454
REMARK INTRA:                  -0.485
REMARK UNBOUND:                -1.084
REMARK SMILES COc1cc(CNC(=O)CCCCCC(C)C)ccc1O
REMARK SMILES IDX 10 1 8 2 7 3 9 5 6 6 5 7 3 8 20 9 4 10 19 11 18 12 2 13 1 14
REMARK SMILES IDX 21 15 11 17 12 18 13 19 14 20 15 21 16 22 17 23
REMARK H PARENT 7 4 21 16
REMARK Flexibility Score: inf
ROOT
ATOM      1  C   UNL     1      94.700  98.755  72.802  1.00  0.00     0.100 C 
ENDROOT
BRANCH   1   2
ATOM      2  C   UNL     1      93.568  99.665  72.533  1.00  0.00     0.220 C 
ATOM      3  N   UNL     1      92.846  99.515  71.386  1.00  0.00    -0.352 N 
ATOM      4  H   UNL     1      93.232  98.856  70.725  1.00  0.00     0.163 HD
ATOM      5  O   UNL     1      93.267 100.532  73.389  1.00  0.00    -0.275 OA
BRANCH   3   6
ATOM      6  C   UNL     1      91.633 100.204  71.083  1.00  0.00     0.151 C 
BRANCH   6   7
ATOM      7  C   UNL     1      90.890  99.605  69.941  1.00  0.00    -0.025 A 
ATOM      8  C   UNL     1      90.302  99.588  67.554  1.00  0.00     0.160 A 
ATOM      9  C   UNL     1      89.530  98.424  67.755  1.00  0.00     0.157 A 
ATOM     10  C   UNL     1      90.962 100.181  68.651  1.00  0.00     0.056 A 
ATOM     11  C   UNL     1      89.431  97.857  69.039  1.00  0.00     0.050 A 
ATOM     12  C   UNL     1      90.109  98.439  70.123  1.00  0.00     0.009 A 
BRANCH   8  13
ATOM     13  O   UNL     1      90.396 100.166  66.315  1.00  0.00    -0.493 OA
ATOM     14  C   UNL     1      91.434 101.160  66.215  1.00  0.00     0.278 C 
ENDBRANCH   8  13
BRANCH   9  15
ATOM     15  O   UNL     1      88.890  97.847  66.707  1.00  0.00    -0.504 OA
ATOM     16  H   UNL     1      87.997  98.193  66.647  1.00  0.00     0.293 HD
ENDBRANCH   9  15
ENDBRANCH   6   7
ENDBRANCH   3   6
ENDBRANCH   1   2
BRANCH   1  17
ATOM     17  C   UNL     1      94.693  98.130  74.224  1.00  0.00     0.010 C 
BRANCH  17  18
ATOM     18  C   UNL     1      93.655  96.980  74.339  1.00  0.00     0.001 C 
BRANCH  18  19
ATOM     19  C   UNL     1      93.865  96.083  75.587  1.00  0.00     0.000 C 
BRANCH  19  20
ATOM     20  C   UNL     1      92.767  94.988  75.716  1.00  0.00     0.003 C 
BRANCH  20  21
ATOM     21  C   UNL     1      91.997  94.981  77.076  1.00  0.00    -0.017 C 
ATOM     22  C   UNL     1      92.530  93.855  78.011  1.00  0.00     0.007 C 
ATOM     23  C   UNL     1      90.457  94.844  76.899  1.00  0.00     0.007 C 
ENDBRANCH  20  21
ENDBRANCH  19  20
ENDBRANCH  18  19
ENDBRANCH  17  18
ENDBRANCH   1  17
TORSDOF 10
ENDMDL
MODEL 3
REMARK VINA RESULT:    -5.464      2.002      5.863
REMARK INTER + INTRA:          -9.584
REMARK INTER:                  -8.538
REMARK INTRA:                  -1.046
REMARK UNBOUND:                -1.084
REMARK SMILES COc1cc(CNC(=O)CCCCCC(C)C)ccc1O
REMARK SMILES IDX 10 1 8 2 7 3 9 5 6 6 5 7 3 8 20 9 4 10 19 11 18 12 2 13 1 14
REMARK SMILES IDX 21 15 11 17 12 18 13 19 14 20 15 21 16 22 17 23
REMARK H PARENT 7 4 21 16
REMARK Flexibility Score: inf
ROOT
ATOM      1  C   UNL     1      96.348  94.169  79.264  1.00  0.00     0.100 C 
ENDROOT
BRANCH   1   2
ATOM      2  C   UNL     1      97.051  95.157  78.418  1.00  0.00     0.220 C 
ATOM      3  N   UNL     1      96.334  95.928  77.552  1.00  0.00    -0.352 N 
ATOM      4  H   UNL     1      95.362  95.668  77.457  1.00  0.00     0.163 HD
ATOM      5  O   UNL     1      98.292  95.294  78.546  1.00  0.00    -0.275 OA
BRANCH   3   6
ATOM      6  C   UNL     1      96.855  97.030  76.809  1.00  0.00     0.151 C 
BRANCH   6   7
ATOM      7  C   UNL     1      96.563  96.942  75.352  1.00  0.00    -0.025 A 
ATOM      8  C   UNL     1      97.065  97.590  73.034  1.00  0.00     0.160 A 
ATOM      9  C   UNL     1      96.052  96.723  72.574  1.00  0.00     0.157 A 
ATOM     10  C   UNL     1      97.302  97.708  74.420  1.00  0.00     0.056 A 
ATOM     11  C   UNL     1      95.293  95.976  73.494  1.00  0.00     0.050 A 
ATOM     12  C   UNL     1      95.550  96.079  74.872  1.00  0.00     0.009 A 
BRANCH   8  13
ATOM     13  O   UNL     1      97.802  98.342  72.156  1.00  0.00    -0.493 OA
ATOM     14  C   UNL     1      99.070  97.753  71.809  1.00  0.00     0.278 C 
ENDBRANCH   8  13
BRANCH   9  15
ATOM     15  O   UNL     1      95.815  96.604  71.244  1.00  0.00    -0.504 OA
ATOM     16  H   UNL     1      96.352  95.894  70.885  1.00  0.00     0.293 HD
ENDBRANCH   9  15
ENDBRANCH   6   7
ENDBRANCH   3   6
ENDBRANCH   1   2
BRANCH   1  17
ATOM     17  C   UNL     1      95.506  93.134  78.471  1.00  0.00     0.010 C 
BRANCH  17  18
ATOM     18  C   UNL     1      93.985  93.312  78.732  1.00  0.00     0.001 C 
BRANCH  18  19
ATOM     19  C   UNL     1      93.309  94.327  77.772  1.00  0.00     0.000 C 
BRANCH  19  20
ATOM     20  C   UNL     1      93.005  93.705  76.378  1.00  0.00     0.003 C 
BRANCH  20  21
ATOM     21  C   UNL     1      91.487  93.519  76.056  1.00  0.00    -0.017 C 
ATOM     22  C   UNL     1      90.602  94.266  77.097  1.00  0.00     0.007 C 
ATOM     23  C   UNL     1      91.065  92.023  75.974  1.00  0.00     0.007 C 
ENDBRANCH  20  21
ENDBRANCH  19  20
ENDBRANCH  18  19
ENDBRANCH  17  18
ENDBRANCH   1  17
TORSDOF 10
ENDMDL
MODEL 4
REMARK VINA RESULT:    -5.386     23.408     27.316
REMARK INTER + INTRA:          -9.461
REMARK INTER:                  -8.133
REMARK INTRA:                  -1.328
REMARK UNBOUND:                -1.084
REMARK SMILES COc1cc(CNC(=O)CCCCCC(C)C)ccc1O
REMARK SMILES IDX 10 1 8 2 7 3 9 5 6 6 5 7 3 8 20 9 4 10 19 11 18 12 2 13 1 14
REMARK SMILES IDX 21 15 11 17 12 18 13 19 14 20 15 21 16 22 17 23
REMARK H PARENT 7 4 21 16
REMARK Flexibility Score: inf
ROOT
ATOM      1  C   UNL     1      76.877  86.318  66.448  1.00  0.00     0.100 C 
ENDROOT
BRANCH   1   2
ATOM      2  C   UNL     1      76.306  84.981  66.712  1.00  0.00     0.220 C 
ATOM      3  N   UNL     1      75.708  84.296  65.696  1.00  0.00    -0.352 N 
ATOM      4  H   UNL     1      75.581  84.824  64.844  1.00  0.00     0.163 HD
ATOM      5  O   UNL     1      76.421  84.485  67.859  1.00  0.00    -0.275 OA
BRANCH   3   6
ATOM      6  C   UNL     1      75.273  82.938  65.765  1.00  0.00     0.151 C 
BRANCH   6   7
ATOM      7  C   UNL     1      73.802  82.787  65.601  1.00  0.00    -0.025 A 
ATOM      8  C   UNL     1      71.855  81.419  64.979  1.00  0.00     0.160 A 
ATOM      9  C   UNL     1      70.997  82.476  65.351  1.00  0.00     0.157 A 
ATOM     10  C   UNL     1      73.252  81.588  65.089  1.00  0.00     0.056 A 
ATOM     11  C   UNL     1      71.534  83.682  65.836  1.00  0.00     0.050 A 
ATOM     12  C   UNL     1      72.925  83.835  65.966  1.00  0.00     0.009 A 
BRANCH   8  13
ATOM     13  O   UNL     1      71.353  80.243  64.486  1.00  0.00    -0.493 OA
ATOM     14  C   UNL     1      71.483  80.109  63.058  1.00  0.00     0.278 C 
ENDBRANCH   8  13
BRANCH   9  15
ATOM     15  O   UNL     1      69.653  82.324  65.248  1.00  0.00    -0.504 OA
ATOM     16  H   UNL     1      69.413  82.209  64.325  1.00  0.00     0.293 HD
ENDBRANCH   9  15
ENDBRANCH   6   7
ENDBRANCH   3   6
ENDBRANCH   1   2
BRANCH   1  17
ATOM     17  C   UNL     1      77.198  87.138  67.726  1.00  0.00     0.010 C 
BRANCH  17  18
ATOM     18  C   UNL     1      77.272  88.661  67.426  1.00  0.00     0.001 C 
BRANCH  18  19
ATOM     19  C   UNL     1      75.964  89.421  67.771  1.00  0.00     0.000 C 
BRANCH  19  20
ATOM     20  C   UNL     1      75.067  88.629  68.765  1.00  0.00     0.003 C 
BRANCH  20  21
ATOM     21  C   UNL     1      73.736  88.077  68.158  1.00  0.00    -0.017 C 
ATOM     22  C   UNL     1      73.508  86.594  68.575  1.00  0.00     0.007 C 
ATOM     23  C   UNL     1      73.678  88.211  66.608  1.00  0.00     0.007 C 
ENDBRANCH  20  21
ENDBRANCH  19  20
ENDBRANCH  18  19
ENDBRANCH  17  18
ENDBRANCH   1  17
TORSDOF 10
ENDMDL
MODEL 5
REMARK VINA RESULT:    -5.370     12.959     14.931
REMARK INTER + INTRA:          -9.436
REMARK INTER:                  -8.617
REMARK INTRA:                  -0.820
REMARK UNBOUND:                -1.084
REMARK SMILES COc1cc(CNC(=O)CCCCCC(C)C)ccc1O
REMARK SMILES IDX 10 1 8 2 7 3 9 5 6 6 5 7 3 8 20 9 4 10 19 11 18 12 2 13 1 14
REMARK SMILES IDX 21 15 11 17 12 18 13 19 14 20 15 21 16 22 17 23
REMARK H PARENT 7 4 21 16
REMARK Flexibility Score: inf
ROOT
ATOM      1  C   UNL     1      97.458  79.473  82.056  1.00  0.00     0.100 C 
ENDROOT
BRANCH   1   2
ATOM      2  C   UNL     1      98.368  79.821  80.945  1.00  0.00     0.220 C 
ATOM      3  N   UNL     1      97.854  80.362  79.804  1.00  0.00    -0.352 N 
ATOM      4  H   UNL     1      96.846  80.365  79.752  1.00  0.00     0.163 HD
ATOM      5  O   UNL     1      99.602  79.648  81.091  1.00  0.00    -0.275 OA
BRANCH   3   6
ATOM      6  C   UNL     1      98.626  80.900  78.730  1.00  0.00     0.151 C 
BRANCH   6   7
ATOM      7  C   UNL     1      97.809  81.665  77.749  1.00  0.00    -0.025 A 
ATOM      8  C   UNL     1      97.515  82.614  75.500  1.00  0.00     0.160 A 
ATOM      9  C   UNL     1      96.226  83.062  75.860  1.00  0.00     0.157 A 
ATOM     10  C   UNL     1      98.305  81.936  76.452  1.00  0.00     0.056 A 
ATOM     11  C   UNL     1      95.733  82.821  77.156  1.00  0.00     0.050 A 
ATOM     12  C   UNL     1      96.516  82.123  78.091  1.00  0.00     0.009 A 
BRANCH   8  13
ATOM     13  O   UNL     1      98.021  82.856  74.250  1.00  0.00    -0.493 OA
ATOM     14  C   UNL     1      99.450  82.698  74.160  1.00  0.00     0.278 C 
ENDBRANCH   8  13
BRANCH   9  15
ATOM     15  O   UNL     1      95.459  83.717  74.953  1.00  0.00    -0.504 OA
ATOM     16  H   UNL     1      95.989  84.381  74.505  1.00  0.00     0.293 HD
ENDBRANCH   9  15
ENDBRANCH   6   7
ENDBRANCH   3   6
ENDBRANCH   1   2
BRANCH   1  17
ATOM     17  C   UNL     1      97.654  80.333  83.334  1.00  0.00     0.010 C 
BRANCH  17  18
ATOM     18  C   UNL     1      97.437  81.844  83.045  1.00  0.00     0.001 C 
BRANCH  18  19
ATOM     19  C   UNL     1      95.953  82.215  82.781  1.00  0.00     0.000 C 
BRANCH  19  20
ATOM     20  C   UNL     1      95.017  81.748  83.933  1.00  0.00     0.003 C 
BRANCH  20  21
ATOM     21  C   UNL     1      95.085  82.614  85.232  1.00  0.00    -0.017 C 
ATOM     22  C   UNL     1      93.853  82.344  86.146  1.00  0.00     0.007 C 
ATOM     23  C   UNL     1      95.208  84.137  84.937  1.00  0.00     0.007 C 
ENDBRANCH  20  21
ENDBRANCH  19  20
ENDBRANCH  18  19
ENDBRANCH  17  18
ENDBRANCH   1  17
TORSDOF 10
ENDMDL
MODEL 6
REMARK VINA RESULT:    -5.345      3.011      4.926
REMARK INTER + INTRA:          -9.399
REMARK INTER:                  -8.700
REMARK INTRA:                  -0.698
REMARK UNBOUND:                -1.084
REMARK SMILES COc1cc(CNC(=O)CCCCCC(C)C)ccc1O
REMARK SMILES IDX 10 1 8 2 7 3 9 5 6 6 5 7 3 8 20 9 4 10 19 11 18 12 2 13 1 14
REMARK SMILES IDX 21 15 11 17 12 18 13 19 14 20 15 21 16 22 17 23
REMARK H PARENT 7 4 21 16
REMARK Flexibility Score: inf
ROOT
ATOM      1  C   UNL     1      95.620  92.884  79.966  1.00  0.00     0.100 C 
ENDROOT
BRANCH   1   2
ATOM      2  C   UNL     1      96.233  93.915  80.829  1.00  0.00     0.220 C 
ATOM      3  N   UNL     1      95.543  95.059  81.099  1.00  0.00    -0.352 N 
ATOM      4  H   UNL     1      94.692  95.177  80.567  1.00  0.00     0.163 HD
ATOM      5  O   UNL     1      97.362  93.696  81.332  1.00  0.00    -0.275 OA
BRANCH   3   6
ATOM      6  C   UNL     1      95.936  96.052  82.046  1.00  0.00     0.151 C 
BRANCH   6   7
ATOM      7  C   UNL     1      96.446  97.297  81.410  1.00  0.00    -0.025 A 
ATOM      8  C   UNL     1      97.580  98.428  79.544  1.00  0.00     0.160 A 
ATOM      9  C   UNL     1      97.358  99.674  80.167  1.00  0.00     0.157 A 
ATOM     10  C   UNL     1      97.140  97.246  80.178  1.00  0.00     0.056 A 
ATOM     11  C   UNL     1      96.693  99.734  81.405  1.00  0.00     0.050 A 
ATOM     12  C   UNL     1      96.235  98.556  82.020  1.00  0.00     0.009 A 
BRANCH   8  13
ATOM     13  O   UNL     1      98.243  98.346  78.348  1.00  0.00    -0.493 OA
ATOM     14  C   UNL     1      97.417  97.905  77.253  1.00  0.00     0.278 C 
ENDBRANCH   8  13
BRANCH   9  15
ATOM     15  O   UNL     1      97.779 100.816  79.567  1.00  0.00    -0.504 OA
ATOM     16  H   UNL     1      97.653 101.557  80.164  1.00  0.00     0.293 HD
ENDBRANCH   9  15
ENDBRANCH   6   7
ENDBRANCH   3   6
ENDBRANCH   1   2
BRANCH   1  17
ATOM     17  C   UNL     1      96.070  92.945  78.482  1.00  0.00     0.010 C 
BRANCH  17  18
ATOM     18  C   UNL     1      94.892  93.323  77.542  1.00  0.00     0.001 C 
BRANCH  18  19
ATOM     19  C   UNL     1      93.738  94.064  78.267  1.00  0.00     0.000 C 
BRANCH  19  20
ATOM     20  C   UNL     1      92.425  93.230  78.291  1.00  0.00     0.003 C 
BRANCH  20  21
ATOM     21  C   UNL     1      91.383  93.607  77.187  1.00  0.00    -0.017 C 
ATOM     22  C   UNL     1      91.412  95.136  76.895  1.00  0.00     0.007 C 
ATOM     23  C   UNL     1      89.936  93.159  77.544  1.00  0.00     0.007 C 
ENDBRANCH  20  21
ENDBRANCH  19  20
ENDBRANCH  18  19
ENDBRANCH  17  18
ENDBRANCH   1  17
TORSDOF 10
ENDMDL
MODEL 7
REMARK VINA RESULT:    -5.206      4.158      5.197
REMARK INTER + INTRA:          -9.182
REMARK INTER:                  -8.537
REMARK INTRA:                  -0.645
REMARK UNBOUND:                -1.084
REMARK SMILES COc1cc(CNC(=O)CCCCCC(C)C)ccc1O
REMARK SMILES IDX 10 1 8 2 7 3 9 5 6 6 5 7 3 8 20 9 4 10 19 11 18 12 2 13 1 14
REMARK SMILES IDX 21 15 11 17 12 18 13 19 14 20 15 21 16 22 17 23
REMARK H PARENT 7 4 21 16
REMARK Flexibility Score: inf
ROOT
ATOM      1  C   UNL     1      95.462  95.216  79.065  1.00  0.00     0.100 C 
ENDROOT
BRANCH   1   2
ATOM      2  C   UNL     1      95.966  95.160  80.453  1.00  0.00     0.220 C 
ATOM      3  N   UNL     1      96.839  96.112  80.888  1.00  0.00    -0.352 N 
ATOM      4  H   UNL     1      97.188  96.729  80.168  1.00  0.00     0.163 HD
ATOM      5  O   UNL     1      95.545  94.258  81.217  1.00  0.00    -0.275 OA
BRANCH   3   6
ATOM      6  C   UNL     1      97.267  96.279  82.239  1.00  0.00     0.151 C 
BRANCH   6   7
ATOM      7  C   UNL     1      96.853  97.581  82.828  1.00  0.00    -0.025 A 
ATOM      8  C   UNL     1      96.686  99.091  84.762  1.00  0.00     0.160 A 
ATOM      9  C   UNL     1      96.125 100.086  83.933  1.00  0.00     0.157 A 
ATOM     10  C   UNL     1      97.028  97.839  84.208  1.00  0.00     0.056 A 
ATOM     11  C   UNL     1      95.922  99.831  82.565  1.00  0.00     0.050 A 
ATOM     12  C   UNL     1      96.288  98.591  82.014  1.00  0.00     0.009 A 
BRANCH   8  13
ATOM     13  O   UNL     1      96.874  99.311  86.101  1.00  0.00    -0.493 OA
ATOM     14  C   UNL     1      98.225  99.670  86.447  1.00  0.00     0.278 C 
ENDBRANCH   8  13
BRANCH   9  15
ATOM     15  O   UNL     1      95.790 101.292  84.456  1.00  0.00    -0.504 OA
ATOM     16  H   UNL     1      95.617 101.197  85.395  1.00  0.00     0.293 HD
ENDBRANCH   9  15
ENDBRANCH   6   7
ENDBRANCH   3   6
ENDBRANCH   1   2
BRANCH   1  17
ATOM     17  C   UNL     1      95.706  93.922  78.244  1.00  0.00     0.010 C 
BRANCH  17  18
ATOM     18  C   UNL     1      94.693  93.786  77.074  1.00  0.00     0.001 C 
BRANCH  18  19
ATOM     19  C   UNL     1      93.316  94.436  77.373  1.00  0.00     0.000 C 
BRANCH  19  20
ATOM     20  C   UNL     1      92.355  93.465  78.117  1.00  0.00     0.003 C 
BRANCH  20  21
ATOM     21  C   UNL     1      90.965  93.258  77.432  1.00  0.00    -0.017 C 
ATOM     22  C   UNL     1      91.067  92.226  76.270  1.00  0.00     0.007 C 
ATOM     23  C   UNL     1      90.343  94.586  76.913  1.00  0.00     0.007 C 
ENDBRANCH  20  21
ENDBRANCH  19  20
ENDBRANCH  18  19
ENDBRANCH  17  18
ENDBRANCH   1  17
TORSDOF 10
ENDMDL
MODEL 8
REMARK VINA RESULT:    -5.183      4.458      8.324
REMARK INTER + INTRA:          -9.146
REMARK INTER:                  -8.454
REMARK INTRA:                  -0.692
REMARK UNBOUND:                -1.084
REMARK SMILES COc1cc(CNC(=O)CCCCCC(C)C)ccc1O
REMARK SMILES IDX 10 1 8 2 7 3 9 5 6 6 5 7 3 8 20 9 4 10 19 11 18 12 2 13 1 14
REMARK SMILES IDX 21 15 11 17 12 18 13 19 14 20 15 21 16 22 17 23
REMARK H PARENT 7 4 21 16
REMARK Flexibility Score: inf
ROOT
ATOM      1  C   UNL     1      94.806  95.577  74.194  1.00  0.00     0.100 C 
ENDROOT
BRANCH   1   2
ATOM      2  C   UNL     1      95.240  96.979  74.026  1.00  0.00     0.220 C 
ATOM      3  N   UNL     1      94.455  97.844  73.325  1.00  0.00    -0.352 N 
ATOM      4  H   UNL     1      93.673  97.418  72.848  1.00  0.00     0.163 HD
ATOM      5  O   UNL     1      96.307  97.355  74.570  1.00  0.00    -0.275 OA
BRANCH   3   6
ATOM      6  C   UNL     1      94.664  99.254  73.233  1.00  0.00     0.151 C 
BRANCH   6   7
ATOM      7  C   UNL     1      93.509  99.978  72.635  1.00  0.00    -0.025 A 
ATOM      8  C   UNL     1      91.610 100.044  71.075  1.00  0.00     0.160 A 
ATOM      9  C   UNL     1      91.271 101.330  71.546  1.00  0.00     0.157 A 
ATOM     10  C   UNL     1      92.738  99.384  71.608  1.00  0.00     0.056 A 
ATOM     11  C   UNL     1      92.047 101.941  72.548  1.00  0.00     0.050 A 
ATOM     12  C   UNL     1      93.154 101.268  73.093  1.00  0.00     0.009 A 
BRANCH   8  13
ATOM     13  O   UNL     1      90.879  99.441  70.085  1.00  0.00    -0.493 OA
ATOM     14  C   UNL     1      89.886  98.520  70.576  1.00  0.00     0.278 C 
ENDBRANCH   8  13
BRANCH   9  15
ATOM     15  O   UNL     1      90.190 101.974  71.038  1.00  0.00    -0.504 OA
ATOM     16  H   UNL     1      90.482 102.677  70.453  1.00  0.00     0.293 HD
ENDBRANCH   9  15
ENDBRANCH   6   7
ENDBRANCH   3   6
ENDBRANCH   1   2
BRANCH   1  17
ATOM     17  C   UNL     1      93.684  95.378  75.249  1.00  0.00     0.010 C 
BRANCH  17  18
ATOM     18  C   UNL     1      94.259  94.913  76.615  1.00  0.00     0.001 C 
BRANCH  18  19
ATOM     19  C   UNL     1      93.180  94.769  77.721  1.00  0.00     0.000 C 
BRANCH  19  20
ATOM     20  C   UNL     1      92.431  93.407  77.638  1.00  0.00     0.003 C 
BRANCH  20  21
ATOM     21  C   UNL     1      90.872  93.513  77.598  1.00  0.00    -0.017 C 
ATOM     22  C   UNL     1      90.244  92.229  76.980  1.00  0.00     0.007 C 
ATOM     23  C   UNL     1      90.371  94.773  76.833  1.00  0.00     0.007 C 
ENDBRANCH  20  21
ENDBRANCH  19  20
ENDBRANCH  18  19
ENDBRANCH  17  18
ENDBRANCH   1  17
TORSDOF 10
ENDMDL
MODEL 9
REMARK VINA RESULT:    -5.173     14.373     17.198
REMARK INTER + INTRA:          -9.130
REMARK INTER:                  -8.027
REMARK INTRA:                  -1.103
REMARK UNBOUND:                -1.084
REMARK SMILES COc1cc(CNC(=O)CCCCCC(C)C)ccc1O
REMARK SMILES IDX 10 1 8 2 7 3 9 5 6 6 5 7 3 8 20 9 4 10 19 11 18 12 2 13 1 14
REMARK SMILES IDX 21 15 11 17 12 18 13 19 14 20 15 21 16 22 17 23
REMARK H PARENT 7 4 21 16
REMARK Flexibility Score: inf
ROOT
ATOM      1  C   UNL     1      95.108  82.130  86.233  1.00  0.00     0.100 C 
ENDROOT
BRANCH   1   2
ATOM      2  C   UNL     1      93.772  82.222  86.857  1.00  0.00     0.220 C 
ATOM      3  N   UNL     1      92.665  82.280  86.063  1.00  0.00    -0.352 N 
ATOM      4  H   UNL     1      92.854  82.390  85.077  1.00  0.00     0.163 HD
ATOM      5  O   UNL     1      93.682  82.202  88.108  1.00  0.00    -0.275 OA
BRANCH   3   6
ATOM      6  C   UNL     1      91.317  82.197  86.526  1.00  0.00     0.151 C 
BRANCH   6   7
ATOM      7  C   UNL     1      90.498  81.213  85.767  1.00  0.00    -0.025 A 
ATOM      8  C   UNL     1      88.319  80.463  84.910  1.00  0.00     0.160 A 
ATOM      9  C   UNL     1      88.949  79.377  84.266  1.00  0.00     0.157 A 
ATOM     10  C   UNL     1      89.095  81.363  85.672  1.00  0.00     0.056 A 
ATOM     11  C   UNL     1      90.341  79.203  84.377  1.00  0.00     0.050 A 
ATOM     12  C   UNL     1      91.110  80.116  85.117  1.00  0.00     0.009 A 
BRANCH   8  13
ATOM     13  O   UNL     1      86.962  80.639  84.831  1.00  0.00    -0.493 OA
ATOM     14  C   UNL     1      86.561  81.657  83.894  1.00  0.00     0.278 C 
ENDBRANCH   8  13
BRANCH   9  15
ATOM     15  O   UNL     1      88.212  78.505  83.533  1.00  0.00    -0.504 OA
ATOM     16  H   UNL     1      87.809  78.967  82.795  1.00  0.00     0.293 HD
ENDBRANCH   9  15
ENDBRANCH   6   7
ENDBRANCH   3   6
ENDBRANCH   1   2
BRANCH   1  17
ATOM     17  C   UNL     1      95.672  80.687  86.140  1.00  0.00     0.010 C 
BRANCH  17  18
ATOM     18  C   UNL     1      95.119  79.935  84.898  1.00  0.00     0.001 C 
BRANCH  18  19
ATOM     19  C   UNL     1      95.148  80.785  83.600  1.00  0.00     0.000 C 
BRANCH  19  20
ATOM     20  C   UNL     1      96.497  80.647  82.836  1.00  0.00     0.003 C 
BRANCH  20  21
ATOM     21  C   UNL     1      97.023  81.967  82.183  1.00  0.00    -0.017 C 
ATOM     22  C   UNL     1      96.349  83.213  82.829  1.00  0.00     0.007 C 
ATOM     23  C   UNL     1      96.830  81.996  80.639  1.00  0.00     0.007 C 
ENDBRANCH  20  21
ENDBRANCH  19  20
ENDBRANCH  18  19
ENDBRANCH  17  18
ENDBRANCH   1  17
TORSDOF 10
ENDMDL
MODEL 10
REMARK VINA RESULT:    -5.125     14.016     15.114
REMARK INTER + INTRA:          -9.056
REMARK INTER:                  -7.550
REMARK INTRA:                  -1.506
REMARK UNBOUND:                -1.084
REMARK SMILES COc1cc(CNC(=O)CCCCCC(C)C)ccc1O
REMARK SMILES IDX 10 1 8 2 7 3 9 5 6 6 5 7 3 8 20 9 4 10 19 11 18 12 2 13 1 14
REMARK SMILES IDX 21 15 11 17 12 18 13 19 14 20 15 21 16 22 17 23
REMARK H PARENT 7 4 21 16
REMARK Flexibility Score: inf
ROOT
ATOM      1  C   UNL     1      99.260  79.714  70.080  1.00  0.00     0.100 C 
ENDROOT
BRANCH   1   2
ATOM      2  C   UNL     1      99.420  79.449  71.525  1.00  0.00     0.220 C 
ATOM      3  N   UNL     1      99.012  80.386  72.427  1.00  0.00    -0.352 N 
ATOM      4  H   UNL     1      98.741  81.273  72.026  1.00  0.00     0.163 HD
ATOM      5  O   UNL     1      99.892  78.346  71.893  1.00  0.00    -0.275 OA
BRANCH   3   6
ATOM      6  C   UNL     1      98.948  80.193  73.840  1.00  0.00     0.151 C 
BRANCH   6   7
ATOM      7  C   UNL     1      98.051  81.164  74.523  1.00  0.00    -0.025 A 
ATOM      8  C   UNL     1      97.328  82.328  76.565  1.00  0.00     0.160 A 
ATOM      9  C   UNL     1      96.388  83.062  75.811  1.00  0.00     0.157 A 
ATOM     10  C   UNL     1      98.140  81.370  75.920  1.00  0.00     0.056 A 
ATOM     11  C   UNL     1      96.273  82.846  74.425  1.00  0.00     0.050 A 
ATOM     12  C   UNL     1      97.101  81.909  73.785  1.00  0.00     0.009 A 
BRANCH   8  13
ATOM     13  O   UNL     1      97.442  82.509  77.918  1.00  0.00    -0.493 OA
ATOM     14  C   UNL     1      98.129  81.437  78.593  1.00  0.00     0.278 C 
ENDBRANCH   8  13
BRANCH   9  15
ATOM     15  O   UNL     1      95.601  83.983  76.421  1.00  0.00    -0.504 OA
ATOM     16  H   UNL     1      94.745  83.595  76.614  1.00  0.00     0.293 HD
ENDBRANCH   9  15
ENDBRANCH   6   7
ENDBRANCH   3   6
ENDBRANCH   1   2
BRANCH   1  17
ATOM     17  C   UNL     1     100.021  80.969  69.573  1.00  0.00     0.010 C 
BRANCH  17  18
ATOM     18  C   UNL     1     101.534  80.898  69.916  1.00  0.00     0.001 C 
BRANCH  18  19
ATOM     19  C   UNL     1     102.016  82.060  70.824  1.00  0.00     0.000 C 
BRANCH  19  20
ATOM     20  C   UNL     1     100.964  83.203  70.923  1.00  0.00     0.003 C 
BRANCH  20  21
ATOM     21  C   UNL     1     100.876  83.899  72.321  1.00  0.00    -0.017 C 
ATOM     22  C   UNL     1     101.384  82.950  73.446  1.00  0.00     0.007 C 
ATOM     23  C   UNL     1      99.442  84.404  72.655  1.00  0.00     0.007 C 
ENDBRANCH  20  21
ENDBRANCH  19  20
ENDBRANCH  18  19
ENDBRANCH  17  18
ENDBRANCH   1  17
TORSDOF 10
ENDMDL
