MODEL 1
REMARK VINA RESULT:    -7.321      0.000      0.000
REMARK INTER + INTRA:         -13.037
REMARK INTER:                 -11.814
REMARK INTRA:                  -1.223
REMARK UNBOUND:                -1.223
REMARK SMILES COc1cc(CNC(=O)CCCCC/C=C/C(C)C)ccc1O
REMARK SMILES IDX 11 1 10 2 8 3 7 4 9 6 6 7 5 8 3 9 22 10 4 11 21 12 20 13
REMARK SMILES IDX 2 14 1 15 23 16 12 18 13 19 14 20 15 21 16 22 17 23 18 24
REMARK SMILES IDX 19 25
REMARK H PARENT 7 5 23 17
REMARK Flexibility Score: inf
ROOT
ATOM      1  C   UNL     1      91.689  95.986  76.909  1.00  0.00     0.010 C 
ENDROOT
BRANCH   1   2
ATOM      2  C   UNL     1      92.639  96.066  75.686  1.00  0.00     0.100 C 
BRANCH   2   3
ATOM      3  C   UNL     1      93.924  95.370  75.878  1.00  0.00     0.220 C 
ATOM      4  N   UNL     1      94.815  95.833  76.798  1.00  0.00    -0.352 N 
ATOM      5  H   UNL     1      94.546  96.697  77.247  1.00  0.00     0.163 HD
ATOM      6  O   UNL     1      94.146  94.333  75.208  1.00  0.00    -0.275 OA
BRANCH   4   7
ATOM      7  C   UNL     1      96.046  95.203  77.151  1.00  0.00     0.151 C 
BRANCH   7   8
ATOM      8  C   UNL     1      95.982  94.523  78.471  1.00  0.00    -0.025 A 
ATOM      9  C   UNL     1      96.864  94.179  80.740  1.00  0.00     0.160 A 
ATOM     10  C   UNL     1      95.889  93.184  80.968  1.00  0.00     0.157 A 
ATOM     11  C   UNL     1      96.910  94.834  79.493  1.00  0.00     0.056 A 
ATOM     12  C   UNL     1      94.951  92.879  79.964  1.00  0.00     0.050 A 
ATOM     13  C   UNL     1      94.990  93.551  78.729  1.00  0.00     0.009 A 
BRANCH   9  14
ATOM     14  O   UNL     1      97.726  94.545  81.740  1.00  0.00    -0.493 OA
ATOM     15  C   UNL     1      99.022  93.929  81.654  1.00  0.00     0.278 C 
ENDBRANCH   9  14
BRANCH  10  16
ATOM     16  O   UNL     1      95.829  92.511  82.144  1.00  0.00    -0.504 OA
ATOM     17  H   UNL     1      95.266  91.740  82.042  1.00  0.00     0.293 HD
ENDBRANCH  10  16
ENDBRANCH   7   8
ENDBRANCH   4   7
ENDBRANCH   2   3
ENDBRANCH   1   2
BRANCH   1  18
ATOM     18  C   UNL     1      90.482  95.058  76.620  1.00  0.00     0.001 C 
BRANCH  18  19
ATOM     19  C   UNL     1      90.452  93.782  77.499  1.00  0.00     0.004 C 
BRANCH  19  20
ATOM     20  C   UNL     1      91.690  92.880  77.232  1.00  0.00     0.027 C 
BRANCH  20  21
ATOM     21  C   UNL     1      91.559  92.043  76.051  1.00  0.00    -0.031 C 
ATOM     22  C   UNL     1      90.398  91.918  75.384  1.00  0.00    -0.028 C 
BRANCH  22  23
ATOM     23  C   UNL     1      90.234  91.089  74.192  1.00  0.00     0.005 C 
ATOM     24  C   UNL     1      90.767  89.656  74.457  1.00  0.00     0.012 C 
ATOM     25  C   UNL     1      88.750  91.092  73.736  1.00  0.00     0.012 C 
ENDBRANCH  22  23
ENDBRANCH  20  21
ENDBRANCH  19  20
ENDBRANCH  18  19
ENDBRANCH   1  18
TORSDOF 11
ENDMDL
MODEL 2
REMARK VINA RESULT:    -5.854     11.889     13.416
REMARK INTER + INTRA:         -10.669
REMARK INTER:                  -9.824
REMARK INTRA:                  -0.845
REMARK UNBOUND:                -1.223
REMARK SMILES COc1cc(CNC(=O)CCCCC/C=C/C(C)C)ccc1O
REMARK SMILES IDX 11 1 10 2 8 3 7 4 9 6 6 7 5 8 3 9 22 10 4 11 21 12 20 13
REMARK SMILES IDX 2 14 1 15 23 16 12 18 13 19 14 20 15 21 16 22 17 23 18 24
REMARK SMILES IDX 19 25
REMARK H PARENT 7 5 23 17
REMARK Flexibility Score: inf
ROOT
ATOM      1  C   UNL     1      97.594  81.728  79.098  1.00  0.00     0.010 C 
ENDROOT
BRANCH   1   2
ATOM      2  C   UNL     1      96.670  82.401  80.147  1.00  0.00     0.100 C 
BRANCH   2   3
ATOM      3  C   UNL     1      96.747  81.796  81.490  1.00  0.00     0.220 C 
ATOM      4  N   UNL     1      96.695  82.590  82.595  1.00  0.00    -0.352 N 
ATOM      5  H   UNL     1      96.679  83.582  82.401  1.00  0.00     0.163 HD
ATOM      6  O   UNL     1      96.818  80.547  81.577  1.00  0.00    -0.275 OA
BRANCH   4   7
ATOM      7  C   UNL     1      96.662  82.131  83.945  1.00  0.00     0.151 C 
BRANCH   7   8
ATOM      8  C   UNL     1      95.358  82.394  84.607  1.00  0.00    -0.025 A 
ATOM      9  C   UNL     1      93.004  81.800  85.001  1.00  0.00     0.160 A 
ATOM     10  C   UNL     1      92.857  82.934  85.830  1.00  0.00     0.157 A 
ATOM     11  C   UNL     1      94.248  81.544  84.390  1.00  0.00     0.056 A 
ATOM     12  C   UNL     1      93.959  83.777  86.067  1.00  0.00     0.050 A 
ATOM     13  C   UNL     1      95.203  83.503  85.468  1.00  0.00     0.009 A 
BRANCH   9  14
ATOM     14  O   UNL     1      91.963  80.925  84.834  1.00  0.00    -0.493 OA
ATOM     15  C   UNL     1      92.067  79.731  85.627  1.00  0.00     0.278 C 
ENDBRANCH   9  14
BRANCH  10  16
ATOM     16  O   UNL     1      91.670  83.231  86.415  1.00  0.00    -0.504 OA
ATOM     17  H   UNL     1      90.955  83.030  85.806  1.00  0.00     0.293 HD
ENDBRANCH  10  16
ENDBRANCH   7   8
ENDBRANCH   4   7
ENDBRANCH   2   3
ENDBRANCH   1   2
BRANCH   1  18
ATOM     18  C   UNL     1      96.854  81.520  77.752  1.00  0.00     0.001 C 
BRANCH  18  19
ATOM     19  C   UNL     1      95.795  82.611  77.448  1.00  0.00     0.004 C 
BRANCH  19  20
ATOM     20  C   UNL     1      95.941  83.154  75.999  1.00  0.00     0.027 C 
BRANCH  20  21
ATOM     21  C   UNL     1      97.198  82.796  75.365  1.00  0.00    -0.031 C 
ATOM     22  C   UNL     1      97.615  83.367  74.220  1.00  0.00    -0.028 C 
BRANCH  22  23
ATOM     23  C   UNL     1      98.874  83.033  73.561  1.00  0.00     0.005 C 
ATOM     24  C   UNL     1      99.398  84.250  72.753  1.00  0.00     0.012 C 
ATOM     25  C   UNL     1      99.909  82.527  74.603  1.00  0.00     0.012 C 
ENDBRANCH  22  23
ENDBRANCH  20  21
ENDBRANCH  19  20
ENDBRANCH  18  19
ENDBRANCH   1  18
TORSDOF 11
ENDMDL
MODEL 3
REMARK VINA RESULT:    -5.851      2.653      3.312
REMARK INTER + INTRA:         -10.665
REMARK INTER:                  -9.887
REMARK INTRA:                  -0.778
REMARK UNBOUND:                -1.223
REMARK SMILES COc1cc(CNC(=O)CCCCC/C=C/C(C)C)ccc1O
REMARK SMILES IDX 11 1 10 2 8 3 7 4 9 6 6 7 5 8 3 9 22 10 4 11 21 12 20 13
REMARK SMILES IDX 2 14 1 15 23 16 12 18 13 19 14 20 15 21 16 22 17 23 18 24
REMARK SMILES IDX 19 25
REMARK H PARENT 7 5 23 17
REMARK Flexibility Score: inf
ROOT
ATOM      1  C   UNL     1      92.795  95.548  77.184  1.00  0.00     0.010 C 
ENDROOT
BRANCH   1   2
ATOM      2  C   UNL     1      93.958  94.586  76.828  1.00  0.00     0.100 C 
BRANCH   2   3
ATOM      3  C   UNL     1      94.930  94.390  77.919  1.00  0.00     0.220 C 
ATOM      4  N   UNL     1      96.134  95.024  77.876  1.00  0.00    -0.352 N 
ATOM      5  H   UNL     1      96.305  95.547  77.028  1.00  0.00     0.163 HD
ATOM      6  O   UNL     1      94.600  93.667  78.888  1.00  0.00    -0.275 OA
BRANCH   4   7
ATOM      7  C   UNL     1      97.122  94.999  78.905  1.00  0.00     0.151 C 
BRANCH   7   8
ATOM      8  C   UNL     1      96.908  96.054  79.930  1.00  0.00    -0.025 A 
ATOM      9  C   UNL     1      97.221  98.362  80.718  1.00  0.00     0.160 A 
ATOM     10  C   UNL     1      96.541  98.046  81.914  1.00  0.00     0.157 A 
ATOM     11  C   UNL     1      97.407  97.364  79.740  1.00  0.00     0.056 A 
ATOM     12  C   UNL     1      96.026  96.751  82.106  1.00  0.00     0.050 A 
ATOM     13  C   UNL     1      96.198  95.765  81.117  1.00  0.00     0.009 A 
BRANCH   9  14
ATOM     14  O   UNL     1      97.649  99.642  80.483  1.00  0.00    -0.493 OA
ATOM     15  C   UNL     1      99.008  99.889  80.882  1.00  0.00     0.278 C 
ENDBRANCH   9  14
BRANCH  10  16
ATOM     16  O   UNL     1      96.366  98.970  82.891  1.00  0.00    -0.504 OA
ATOM     17  H   UNL     1      95.712  99.614  82.608  1.00  0.00     0.293 HD
ENDBRANCH  10  16
ENDBRANCH   7   8
ENDBRANCH   4   7
ENDBRANCH   2   3
ENDBRANCH   1   2
BRANCH   1  18
ATOM     18  C   UNL     1      91.435  94.805  77.189  1.00  0.00     0.001 C 
BRANCH  18  19
ATOM     19  C   UNL     1      91.555  93.288  77.482  1.00  0.00     0.004 C 
BRANCH  19  20
ATOM     20  C   UNL     1      90.169  92.659  77.796  1.00  0.00     0.027 C 
BRANCH  20  21
ATOM     21  C   UNL     1      89.760  91.640  76.844  1.00  0.00    -0.031 C 
ATOM     22  C   UNL     1      90.121  91.681  75.549  1.00  0.00    -0.028 C 
BRANCH  22  23
ATOM     23  C   UNL     1      89.731  90.670  74.569  1.00  0.00     0.005 C 
ATOM     24  C   UNL     1      89.243  91.348  73.261  1.00  0.00     0.012 C 
ATOM     25  C   UNL     1      90.905  89.684  74.319  1.00  0.00     0.012 C 
ENDBRANCH  22  23
ENDBRANCH  20  21
ENDBRANCH  19  20
ENDBRANCH  18  19
ENDBRANCH   1  18
TORSDOF 11
ENDMDL
MODEL 4
REMARK VINA RESULT:    -5.726     20.139     23.881
REMARK INTER + INTRA:         -10.464
REMARK INTER:                  -9.705
REMARK INTRA:                  -0.759
REMARK UNBOUND:                -1.223
REMARK SMILES COc1cc(CNC(=O)CCCCC/C=C/C(C)C)ccc1O
REMARK SMILES IDX 11 1 10 2 8 3 7 4 9 6 6 7 5 8 3 9 22 10 4 11 21 12 20 13
REMARK SMILES IDX 2 14 1 15 23 16 12 18 13 19 14 20 15 21 16 22 17 23 18 24
REMARK SMILES IDX 19 25
REMARK H PARENT 7 5 23 17
REMARK Flexibility Score: inf
ROOT
ATOM      1  C   UNL     1      77.298  88.347  67.092  1.00  0.00     0.010 C 
ENDROOT
BRANCH   1   2
ATOM      2  C   UNL     1      76.977  87.062  67.898  1.00  0.00     0.100 C 
BRANCH   2   3
ATOM      3  C   UNL     1      77.122  85.815  67.124  1.00  0.00     0.220 C 
ATOM      4  N   UNL     1      76.445  85.661  65.953  1.00  0.00    -0.352 N 
ATOM      5  H   UNL     1      75.811  86.417  65.730  1.00  0.00     0.163 HD
ATOM      6  O   UNL     1      77.908  84.937  67.552  1.00  0.00    -0.275 OA
BRANCH   4   7
ATOM      7  C   UNL     1      76.569  84.554  65.062  1.00  0.00     0.151 C 
BRANCH   7   8
ATOM      8  C   UNL     1      75.401  83.637  65.123  1.00  0.00    -0.025 A 
ATOM      9  C   UNL     1      72.969  83.275  65.165  1.00  0.00     0.160 A 
ATOM     10  C   UNL     1      73.179  81.885  65.295  1.00  0.00     0.157 A 
ATOM     11  C   UNL     1      74.080  84.140  65.089  1.00  0.00     0.056 A 
ATOM     12  C   UNL     1      74.489  81.372  65.313  1.00  0.00     0.050 A 
ATOM     13  C   UNL     1      75.592  82.240  65.217  1.00  0.00     0.009 A 
BRANCH   9  14
ATOM     14  O   UNL     1      71.699  83.777  65.058  1.00  0.00    -0.493 OA
ATOM     15  C   UNL     1      71.164  84.288  66.290  1.00  0.00     0.278 C 
ENDBRANCH   9  14
BRANCH  10  16
ATOM     16  O   UNL     1      72.138  81.021  65.400  1.00  0.00    -0.504 OA
ATOM     17  H   UNL     1      72.032  80.758  66.317  1.00  0.00     0.293 HD
ENDBRANCH  10  16
ENDBRANCH   7   8
ENDBRANCH   4   7
ENDBRANCH   2   3
ENDBRANCH   1   2
BRANCH   1  18
ATOM     18  C   UNL     1      76.429  89.538  67.568  1.00  0.00     0.001 C 
BRANCH  18  19
ATOM     19  C   UNL     1      75.409  89.163  68.673  1.00  0.00     0.004 C 
BRANCH  19  20
ATOM     20  C   UNL     1      74.397  90.316  68.926  1.00  0.00     0.027 C 
BRANCH  20  21
ATOM     21  C   UNL     1      74.696  91.108  70.106  1.00  0.00    -0.031 C 
ATOM     22  C   UNL     1      74.997  92.417  70.036  1.00  0.00    -0.028 C 
BRANCH  22  23
ATOM     23  C   UNL     1      75.297  93.242  71.203  1.00  0.00     0.005 C 
ATOM     24  C   UNL     1      75.617  94.697  70.766  1.00  0.00     0.012 C 
ATOM     25  C   UNL     1      74.128  93.176  72.223  1.00  0.00     0.012 C 
ENDBRANCH  22  23
ENDBRANCH  20  21
ENDBRANCH  19  20
ENDBRANCH  18  19
ENDBRANCH   1  18
TORSDOF 11
ENDMDL
MODEL 5
REMARK VINA RESULT:    -5.725     11.743     12.986
REMARK INTER + INTRA:         -10.462
REMARK INTER:                  -9.733
REMARK INTRA:                  -0.729
REMARK UNBOUND:                -1.223
REMARK SMILES COc1cc(CNC(=O)CCCCC/C=C/C(C)C)ccc1O
REMARK SMILES IDX 11 1 10 2 8 3 7 4 9 6 6 7 5 8 3 9 22 10 4 11 21 12 20 13
REMARK SMILES IDX 2 14 1 15 23 16 12 18 13 19 14 20 15 21 16 22 17 23 18 24
REMARK SMILES IDX 19 25
REMARK H PARENT 7 5 23 17
REMARK Flexibility Score: inf
ROOT
ATOM      1  C   UNL     1      97.734  81.683  78.599  1.00  0.00     0.010 C 
ENDROOT
BRANCH   1   2
ATOM      2  C   UNL     1      96.652  82.083  79.634  1.00  0.00     0.100 C 
BRANCH   2   3
ATOM      3  C   UNL     1      97.055  81.870  81.037  1.00  0.00     0.220 C 
ATOM      4  N   UNL     1      96.781  82.821  81.972  1.00  0.00    -0.352 N 
ATOM      5  H   UNL     1      96.368  83.667  81.605  1.00  0.00     0.163 HD
ATOM      6  O   UNL     1      97.611  80.788  81.339  1.00  0.00    -0.275 OA
BRANCH   4   7
ATOM      7  C   UNL     1      97.028  82.702  83.373  1.00  0.00     0.151 C 
BRANCH   7   8
ATOM      8  C   UNL     1      95.776  82.628  84.170  1.00  0.00    -0.025 A 
ATOM      9  C   UNL     1      94.189  83.639  85.753  1.00  0.00     0.160 A 
ATOM     10  C   UNL     1      93.415  82.458  85.729  1.00  0.00     0.157 A 
ATOM     11  C   UNL     1      95.366  83.712  84.981  1.00  0.00     0.056 A 
ATOM     12  C   UNL     1      93.804  81.380  84.913  1.00  0.00     0.050 A 
ATOM     13  C   UNL     1      94.970  81.468  84.131  1.00  0.00     0.009 A 
BRANCH   9  14
ATOM     14  O   UNL     1      93.772  84.725  86.476  1.00  0.00    -0.493 OA
ATOM     15  C   UNL     1      94.571  84.998  87.639  1.00  0.00     0.278 C 
ENDBRANCH   9  14
BRANCH  10  16
ATOM     16  O   UNL     1      92.290  82.337  86.479  1.00  0.00    -0.504 OA
ATOM     17  H   UNL     1      91.846  81.515  86.258  1.00  0.00     0.293 HD
ENDBRANCH  10  16
ENDBRANCH   7   8
ENDBRANCH   4   7
ENDBRANCH   2   3
ENDBRANCH   1   2
BRANCH   1  18
ATOM     18  C   UNL     1      97.118  81.495  77.189  1.00  0.00     0.001 C 
BRANCH  18  19
ATOM     19  C   UNL     1      96.033  82.546  76.838  1.00  0.00     0.004 C 
BRANCH  19  20
ATOM     20  C   UNL     1      96.200  83.068  75.384  1.00  0.00     0.027 C 
BRANCH  20  21
ATOM     21  C   UNL     1      97.517  82.821  74.821  1.00  0.00    -0.031 C 
ATOM     22  C   UNL     1      98.027  83.573  73.830  1.00  0.00    -0.028 C 
BRANCH  22  23
ATOM     23  C   UNL     1      99.349  83.354  73.247  1.00  0.00     0.005 C 
ATOM     24  C   UNL     1      99.388  81.995  72.498  1.00  0.00     0.012 C 
ATOM     25  C   UNL     1      99.734  84.545  72.328  1.00  0.00     0.012 C 
ENDBRANCH  22  23
ENDBRANCH  20  21
ENDBRANCH  19  20
ENDBRANCH  18  19
ENDBRANCH   1  18
TORSDOF 11
ENDMDL
MODEL 6
REMARK VINA RESULT:    -5.724      2.048      2.949
REMARK INTER + INTRA:         -10.460
REMARK INTER:                 -10.178
REMARK INTRA:                  -0.283
REMARK UNBOUND:                -1.223
REMARK SMILES COc1cc(CNC(=O)CCCCC/C=C/C(C)C)ccc1O
REMARK SMILES IDX 11 1 10 2 8 3 7 4 9 6 6 7 5 8 3 9 22 10 4 11 21 12 20 13
REMARK SMILES IDX 2 14 1 15 23 16 12 18 13 19 14 20 15 21 16 22 17 23 18 24
REMARK SMILES IDX 19 25
REMARK H PARENT 7 5 23 17
REMARK Flexibility Score: inf
ROOT
ATOM      1  C   UNL     1      93.010  95.505  77.434  1.00  0.00     0.010 C 
ENDROOT
BRANCH   1   2
ATOM      2  C   UNL     1      94.154  94.487  77.187  1.00  0.00     0.100 C 
BRANCH   2   3
ATOM      3  C   UNL     1      94.727  93.917  78.420  1.00  0.00     0.220 C 
ATOM      4  N   UNL     1      96.051  94.082  78.692  1.00  0.00    -0.352 N 
ATOM      5  H   UNL     1      96.577  94.541  77.961  1.00  0.00     0.163 HD
ATOM      6  O   UNL     1      93.960  93.323  79.214  1.00  0.00    -0.275 OA
BRANCH   4   7
ATOM      7  C   UNL     1      96.711  93.668  79.887  1.00  0.00     0.151 C 
BRANCH   7   8
ATOM      8  C   UNL     1      96.928  94.789  80.838  1.00  0.00    -0.025 A 
ATOM      9  C   UNL     1      98.373  96.004  82.414  1.00  0.00     0.160 A 
ATOM     10  C   UNL     1      97.317  96.899  82.692  1.00  0.00     0.157 A 
ATOM     11  C   UNL     1      98.168  94.952  81.498  1.00  0.00     0.056 A 
ATOM     12  C   UNL     1      96.084  96.757  82.029  1.00  0.00     0.050 A 
ATOM     13  C   UNL     1      95.894  95.716  81.101  1.00  0.00     0.009 A 
BRANCH   9  14
ATOM     14  O   UNL     1      99.603  96.186  82.988  1.00  0.00    -0.493 OA
ATOM     15  C   UNL     1      99.890  95.278  84.064  1.00  0.00     0.278 C 
ENDBRANCH   9  14
BRANCH  10  16
ATOM     16  O   UNL     1      97.464  97.907  83.588  1.00  0.00    -0.504 OA
ATOM     17  H   UNL     1      98.033  98.585  83.215  1.00  0.00     0.293 HD
ENDBRANCH  10  16
ENDBRANCH   7   8
ENDBRANCH   4   7
ENDBRANCH   2   3
ENDBRANCH   1   2
BRANCH   1  18
ATOM     18  C   UNL     1      91.622  94.846  77.232  1.00  0.00     0.001 C 
BRANCH  18  19
ATOM     19  C   UNL     1      91.655  93.297  77.272  1.00  0.00     0.004 C 
BRANCH  19  20
ATOM     20  C   UNL     1      90.270  92.710  77.663  1.00  0.00     0.027 C 
BRANCH  20  21
ATOM     21  C   UNL     1      89.701  91.834  76.653  1.00  0.00    -0.031 C 
ATOM     22  C   UNL     1      90.458  91.210  75.733  1.00  0.00    -0.028 C 
BRANCH  22  23
ATOM     23  C   UNL     1      89.917  90.320  74.709  1.00  0.00     0.005 C 
ATOM     24  C   UNL     1      89.443  91.140  73.480  1.00  0.00     0.012 C 
ATOM     25  C   UNL     1      90.966  89.239  74.329  1.00  0.00     0.012 C 
ENDBRANCH  22  23
ENDBRANCH  20  21
ENDBRANCH  19  20
ENDBRANCH  18  19
ENDBRANCH   1  18
TORSDOF 11
ENDMDL
MODEL 7
REMARK VINA RESULT:    -5.581     20.721     22.629
REMARK INTER + INTRA:         -10.229
REMARK INTER:                  -7.622
REMARK INTRA:                  -2.607
REMARK UNBOUND:                -1.223
REMARK SMILES COc1cc(CNC(=O)CCCCC/C=C/C(C)C)ccc1O
REMARK SMILES IDX 11 1 10 2 8 3 7 4 9 6 6 7 5 8 3 9 22 10 4 11 21 12 20 13
REMARK SMILES IDX 2 14 1 15 23 16 12 18 13 19 14 20 15 21 16 22 17 23 18 24
REMARK SMILES IDX 19 25
REMARK H PARENT 7 5 23 17
REMARK Flexibility Score: inf
ROOT
ATOM      1  C   UNL     1      74.597  92.597  66.050  1.00  0.00     0.010 C 
ENDROOT
BRANCH   1   2
ATOM      2  C   UNL     1      73.351  91.721  65.759  1.00  0.00     0.100 C 
BRANCH   2   3
ATOM      3  C   UNL     1      73.666  90.408  65.166  1.00  0.00     0.220 C 
ATOM      4  N   UNL     1      74.913  90.167  64.674  1.00  0.00    -0.352 N 
ATOM      5  H   UNL     1      75.533  90.965  64.689  1.00  0.00     0.163 HD
ATOM      6  O   UNL     1      72.776  89.524  65.168  1.00  0.00    -0.275 OA
BRANCH   4   7
ATOM      7  C   UNL     1      75.377  88.918  64.165  1.00  0.00     0.151 C 
BRANCH   7   8
ATOM      8  C   UNL     1      76.040  88.087  65.203  1.00  0.00    -0.025 A 
ATOM      9  C   UNL     1      76.511  85.889  66.201  1.00  0.00     0.160 A 
ATOM     10  C   UNL     1      77.263  86.514  67.220  1.00  0.00     0.157 A 
ATOM     11  C   UNL     1      75.899  86.680  65.207  1.00  0.00     0.056 A 
ATOM     12  C   UNL     1      77.424  87.912  67.217  1.00  0.00     0.050 A 
ATOM     13  C   UNL     1      76.826  88.692  66.210  1.00  0.00     0.009 A 
BRANCH   9  14
ATOM     14  O   UNL     1      76.421  84.524  66.145  1.00  0.00    -0.493 OA
ATOM     15  C   UNL     1      75.163  83.999  66.601  1.00  0.00     0.278 C 
ENDBRANCH   9  14
BRANCH  10  16
ATOM     16  O   UNL     1      77.844  85.792  68.210  1.00  0.00    -0.504 OA
ATOM     17  H   UNL     1      78.763  85.624  67.986  1.00  0.00     0.293 HD
ENDBRANCH  10  16
ENDBRANCH   7   8
ENDBRANCH   4   7
ENDBRANCH   2   3
ENDBRANCH   1   2
BRANCH   1  18
ATOM     18  C   UNL     1      75.263  92.194  67.391  1.00  0.00     0.001 C 
BRANCH  18  19
ATOM     19  C   UNL     1      74.254  91.734  68.474  1.00  0.00     0.004 C 
BRANCH  19  20
ATOM     20  C   UNL     1      74.917  90.763  69.490  1.00  0.00     0.027 C 
BRANCH  20  21
ATOM     21  C   UNL     1      74.749  89.360  69.153  1.00  0.00    -0.031 C 
ATOM     22  C   UNL     1      73.728  88.919  68.398  1.00  0.00    -0.028 C 
BRANCH  22  23
ATOM     23  C   UNL     1      73.534  87.517  68.036  1.00  0.00     0.005 C 
ATOM     24  C   UNL     1      74.177  86.593  69.104  1.00  0.00     0.012 C 
ATOM     25  C   UNL     1      72.024  87.219  67.831  1.00  0.00     0.012 C 
ENDBRANCH  22  23
ENDBRANCH  20  21
ENDBRANCH  19  20
ENDBRANCH  18  19
ENDBRANCH   1  18
TORSDOF 11
ENDMDL
MODEL 8
REMARK VINA RESULT:    -5.498      3.458      5.526
REMARK INTER + INTRA:         -10.095
REMARK INTER:                  -9.148
REMARK INTRA:                  -0.947
REMARK UNBOUND:                -1.223
REMARK SMILES COc1cc(CNC(=O)CCCCC/C=C/C(C)C)ccc1O
REMARK SMILES IDX 11 1 10 2 8 3 7 4 9 6 6 7 5 8 3 9 22 10 4 11 21 12 20 13
REMARK SMILES IDX 2 14 1 15 23 16 12 18 13 19 14 20 15 21 16 22 17 23 18 24
REMARK SMILES IDX 19 25
REMARK H PARENT 7 5 23 17
REMARK Flexibility Score: inf
ROOT
ATOM      1  C   UNL     1      92.928  95.540  75.911  1.00  0.00     0.010 C 
ENDROOT
BRANCH   1   2
ATOM      2  C   UNL     1      93.328  94.042  75.949  1.00  0.00     0.100 C 
BRANCH   2   3
ATOM      3  C   UNL     1      93.859  93.595  77.250  1.00  0.00     0.220 C 
ATOM      4  N   UNL     1      95.165  93.226  77.358  1.00  0.00    -0.352 N 
ATOM      5  H   UNL     1      95.674  93.217  76.485  1.00  0.00     0.163 HD
ATOM      6  O   UNL     1      93.092  93.607  78.242  1.00  0.00    -0.275 OA
BRANCH   4   7
ATOM      7  C   UNL     1      95.828  92.868  78.570  1.00  0.00     0.151 C 
BRANCH   7   8
ATOM      8  C   UNL     1      96.335  94.050  79.315  1.00  0.00    -0.025 A 
ATOM      9  C   UNL     1      97.698  96.096  79.404  1.00  0.00     0.160 A 
ATOM     10  C   UNL     1      97.341  96.273  80.758  1.00  0.00     0.157 A 
ATOM     11  C   UNL     1      97.200  94.982  78.696  1.00  0.00     0.056 A 
ATOM     12  C   UNL     1      96.467  95.361  81.379  1.00  0.00     0.050 A 
ATOM     13  C   UNL     1      95.959  94.264  80.660  1.00  0.00     0.009 A 
BRANCH   9  14
ATOM     14  O   UNL     1      98.476  97.024  78.766  1.00  0.00    -0.493 OA
ATOM     15  C   UNL     1      97.782  97.783  77.762  1.00  0.00     0.278 C 
ENDBRANCH   9  14
BRANCH  10  16
ATOM     16  O   UNL     1      97.820  97.315  81.483  1.00  0.00    -0.504 OA
ATOM     17  H   UNL     1      97.125  97.655  82.053  1.00  0.00     0.293 HD
ENDBRANCH  10  16
ENDBRANCH   7   8
ENDBRANCH   4   7
ENDBRANCH   2   3
ENDBRANCH   1   2
BRANCH   1  18
ATOM     18  C   UNL     1      93.661  96.285  74.766  1.00  0.00     0.001 C 
BRANCH  18  19
ATOM     19  C   UNL     1      94.888  95.519  74.209  1.00  0.00     0.004 C 
BRANCH  19  20
ATOM     20  C   UNL     1      96.001  96.497  73.740  1.00  0.00     0.027 C 
BRANCH  20  21
ATOM     21  C   UNL     1      95.736  97.109  72.450  1.00  0.00    -0.031 C 
ATOM     22  C   UNL     1      96.166  96.568  71.296  1.00  0.00    -0.028 C 
BRANCH  22  23
ATOM     23  C   UNL     1      95.911  97.155  69.982  1.00  0.00     0.005 C 
ATOM     24  C   UNL     1      95.159  98.504  70.133  1.00  0.00     0.012 C 
ATOM     25  C   UNL     1      97.241  97.306  69.195  1.00  0.00     0.012 C 
ENDBRANCH  22  23
ENDBRANCH  20  21
ENDBRANCH  19  20
ENDBRANCH  18  19
ENDBRANCH   1  18
TORSDOF 11
ENDMDL
MODEL 9
REMARK VINA RESULT:    -5.485      4.612      8.486
REMARK INTER + INTRA:         -10.074
REMARK INTER:                  -9.249
REMARK INTRA:                  -0.825
REMARK UNBOUND:                -1.223
REMARK SMILES COc1cc(CNC(=O)CCCCC/C=C/C(C)C)ccc1O
REMARK SMILES IDX 11 1 10 2 8 3 7 4 9 6 6 7 5 8 3 9 22 10 4 11 21 12 20 13
REMARK SMILES IDX 2 14 1 15 23 16 12 18 13 19 14 20 15 21 16 22 17 23 18 24
REMARK SMILES IDX 19 25
REMARK H PARENT 7 5 23 17
REMARK Flexibility Score: inf
ROOT
ATOM      1  C   UNL     1      94.281  95.840  76.535  1.00  0.00     0.010 C 
ENDROOT
BRANCH   1   2
ATOM      2  C   UNL     1      93.681  95.823  75.106  1.00  0.00     0.100 C 
BRANCH   2   3
ATOM      3  C   UNL     1      94.287  96.806  74.189  1.00  0.00     0.220 C 
ATOM      4  N   UNL     1      93.747  98.052  74.077  1.00  0.00    -0.352 N 
ATOM      5  H   UNL     1      92.893  98.189  74.600  1.00  0.00     0.163 HD
ATOM      6  O   UNL     1      95.320  96.477  73.560  1.00  0.00    -0.275 OA
BRANCH   4   7
ATOM      7  C   UNL     1      94.286  99.124  73.306  1.00  0.00     0.151 C 
BRANCH   7   8
ATOM      8  C   UNL     1      93.233  99.973  72.692  1.00  0.00    -0.025 A 
ATOM      9  C   UNL     1      91.411 100.278  71.069  1.00  0.00     0.160 A 
ATOM     10  C   UNL     1      91.261 101.617  71.489  1.00  0.00     0.157 A 
ATOM     11  C   UNL     1      92.399  99.470  71.666  1.00  0.00     0.056 A 
ATOM     12  C   UNL     1      92.073 102.124  72.520  1.00  0.00     0.050 A 
ATOM     13  C   UNL     1      93.045 101.305  73.125  1.00  0.00     0.009 A 
BRANCH   9  14
ATOM     14  O   UNL     1      90.568  99.749  70.128  1.00  0.00    -0.493 OA
ATOM     15  C   UNL     1      89.753  98.667  70.609  1.00  0.00     0.278 C 
ENDBRANCH   9  14
BRANCH  10  16
ATOM     16  O   UNL     1      90.341 102.436  70.920  1.00  0.00    -0.504 OA
ATOM     17  H   UNL     1      90.779 103.033  70.309  1.00  0.00     0.293 HD
ENDBRANCH  10  16
ENDBRANCH   7   8
ENDBRANCH   4   7
ENDBRANCH   2   3
ENDBRANCH   1   2
BRANCH   1  18
ATOM     18  C   UNL     1      95.141  94.577  76.796  1.00  0.00     0.001 C 
BRANCH  18  19
ATOM     19  C   UNL     1      95.425  94.315  78.297  1.00  0.00     0.004 C 
BRANCH  19  20
ATOM     20  C   UNL     1      94.201  93.665  79.000  1.00  0.00     0.027 C 
BRANCH  20  21
ATOM     21  C   UNL     1      93.227  93.105  78.079  1.00  0.00    -0.031 C 
ATOM     22  C   UNL     1      91.970  93.575  77.988  1.00  0.00    -0.028 C 
BRANCH  22  23
ATOM     23  C   UNL     1      90.969  93.038  77.069  1.00  0.00     0.005 C 
ATOM     24  C   UNL     1      89.789  92.416  77.862  1.00  0.00     0.012 C 
ATOM     25  C   UNL     1      90.500  94.142  76.082  1.00  0.00     0.012 C 
ENDBRANCH  22  23
ENDBRANCH  20  21
ENDBRANCH  19  20
ENDBRANCH  18  19
ENDBRANCH   1  18
TORSDOF 11
ENDMDL
MODEL 10
REMARK VINA RESULT:    -5.372     21.227     24.528
REMARK INTER + INTRA:          -9.891
REMARK INTER:                  -7.725
REMARK INTRA:                  -2.166
REMARK UNBOUND:                -1.223
REMARK SMILES COc1cc(CNC(=O)CCCCC/C=C/C(C)C)ccc1O
REMARK SMILES IDX 11 1 10 2 8 3 7 4 9 6 6 7 5 8 3 9 22 10 4 11 21 12 20 13
REMARK SMILES IDX 2 14 1 15 23 16 12 18 13 19 14 20 15 21 16 22 17 23 18 24
REMARK SMILES IDX 19 25
REMARK H PARENT 7 5 23 17
REMARK Flexibility Score: inf
ROOT
ATOM      1  C   UNL     1      77.098  88.119  67.545  1.00  0.00     0.010 C 
ENDROOT
BRANCH   1   2
ATOM      2  C   UNL     1      76.810  88.589  66.096  1.00  0.00     0.100 C 
BRANCH   2   3
ATOM      3  C   UNL     1      75.404  88.431  65.682  1.00  0.00     0.220 C 
ATOM      4  N   UNL     1      74.938  87.204  65.318  1.00  0.00    -0.352 N 
ATOM      5  H   UNL     1      75.640  86.478  65.290  1.00  0.00     0.163 HD
ATOM      6  O   UNL     1      74.656  89.437  65.715  1.00  0.00    -0.275 OA
BRANCH   4   7
ATOM      7  C   UNL     1      73.584  86.894  64.991  1.00  0.00     0.151 C 
BRANCH   7   8
ATOM      8  C   UNL     1      72.815  86.388  66.158  1.00  0.00    -0.025 A 
ATOM      9  C   UNL     1      70.959  85.066  67.083  1.00  0.00     0.160 A 
ATOM     10  C   UNL     1      71.321  85.471  68.386  1.00  0.00     0.157 A 
ATOM     11  C   UNL     1      71.702  85.534  65.980  1.00  0.00     0.056 A 
ATOM     12  C   UNL     1      72.436  86.307  68.577  1.00  0.00     0.050 A 
ATOM     13  C   UNL     1      73.185  86.754  67.472  1.00  0.00     0.009 A 
BRANCH   9  14
ATOM     14  O   UNL     1      69.929  84.183  66.892  1.00  0.00    -0.493 OA
ATOM     15  C   UNL     1      70.284  83.025  66.118  1.00  0.00     0.278 C 
ENDBRANCH   9  14
BRANCH  10  16
ATOM     16  O   UNL     1      70.615  85.066  69.471  1.00  0.00    -0.504 OA
ATOM     17  H   UNL     1      71.163  84.493  70.013  1.00  0.00     0.293 HD
ENDBRANCH  10  16
ENDBRANCH   7   8
ENDBRANCH   4   7
ENDBRANCH   2   3
ENDBRANCH   1   2
BRANCH   1  18
ATOM     18  C   UNL     1      77.260  86.579  67.611  1.00  0.00     0.001 C 
BRANCH  18  19
ATOM     19  C   UNL     1      76.697  85.948  68.910  1.00  0.00     0.004 C 
BRANCH  19  20
ATOM     20  C   UNL     1      76.018  84.579  68.627  1.00  0.00     0.027 C 
BRANCH  20  21
ATOM     21  C   UNL     1      76.044  84.192  67.227  1.00  0.00    -0.031 C 
ATOM     22  C   UNL     1      75.008  83.574  66.632  1.00  0.00    -0.028 C 
BRANCH  22  23
ATOM     23  C   UNL     1      75.001  83.177  65.227  1.00  0.00     0.005 C 
ATOM     24  C   UNL     1      76.155  83.879  64.464  1.00  0.00     0.012 C 
ATOM     25  C   UNL     1      75.069  81.630  65.105  1.00  0.00     0.012 C 
ENDBRANCH  22  23
ENDBRANCH  20  21
ENDBRANCH  19  20
ENDBRANCH  18  19
ENDBRANCH   1  18
TORSDOF 11
ENDMDL
