MODEL 1
REMARK VINA RESULT:    -6.464      0.000      0.000
REMARK INTER + INTRA:         -12.434
REMARK INTER:                 -11.377
REMARK INTRA:                  -1.058
REMARK UNBOUND:                -1.058
REMARK SMILES C=C(C)[C@]12C[C@@H](C)[C@@]34O[C@](Cc5ccccc5)(O[C@@H]1[C@@H]3C=C(COC(=O)Cc1ccc(O)c(OC)c1)C[C@]1(O)C(=O)C(C)=C[C@@H]41)O2
REMARK SMILES IDX 23 1 22 2 21 3 20 4 9 5 8 6 10 7 6 8 18 9 46 10 19 11 5 12
REMARK SMILES IDX 7 13 4 14 45 15 38 16 44 17 40 18 42 20 41 21 43 22 39 23
REMARK SMILES IDX 11 25 12 26 13 27 17 28 14 29 16 30 15 31 2 32 3 33 1 34
REMARK SMILES IDX 37 35 24 37 25 38 26 39 27 40 28 41 36 42 29 43 33 44 30 45
REMARK SMILES IDX 31 46 34 47 35 48 32 49
REMARK H PARENT 39 24 32 50
REMARK Flexibility Score: 90.00
ROOT
ATOM      1  C   UNL     1      96.444  76.345  83.299  1.00  0.00     0.264 C 
ENDROOT
BRANCH   1   2
ATOM      2  C   UNL     1      97.145  77.673  83.135  1.00  0.00    -0.033 C 
ATOM      3  C   UNL     1      98.085  77.808  82.178  1.00  0.00    -0.015 C 
BRANCH   3   4
ATOM      4  C   UNL     1      98.977  78.998  81.863  1.00  0.00     0.078 C 
ATOM      5  O   UNL     1      97.811  80.336  80.140  1.00  0.00    -0.319 OA
ATOM      6  C   UNL     1      98.295  80.374  81.518  1.00  0.00     0.095 C 
ATOM      7  C   UNL     1      98.710  79.737  79.187  1.00  0.00     0.289 C 
ATOM      8  C   UNL     1      99.398  81.504  81.654  1.00  0.00     0.023 C 
ATOM      9  O   UNL     1      99.042  78.402  79.558  1.00  0.00    -0.320 OA
ATOM     10  O   UNL     1      99.951  80.433  79.104  1.00  0.00    -0.313 OA
ATOM     11  C   UNL     1      99.908  78.657  80.674  1.00  0.00     0.170 C 
ATOM     12  C   UNL     1     100.810  80.975  81.255  1.00  0.00     0.049 C 
ATOM     13  C   UNL     1      99.106  82.807  80.892  1.00  0.00     0.011 C 
ATOM     14  C   UNL     1     100.724  79.882  80.190  1.00  0.00     0.122 C 
BRANCH   6  15
ATOM     15  C   UNL     1      97.013  80.585  82.374  1.00  0.00     0.086 C 
ATOM     16  C   UNL     1      97.121  80.204  83.865  1.00  0.00     0.140 CG0
ATOM     17  C   UNL     1      96.363  81.940  82.406  1.00  0.00    -0.010 C 
ATOM     18  C   UNL     1      96.223  81.226  84.529  1.00  0.00     0.190 C 
ATOM     19  G   UNL     1      96.668  78.769  84.129  1.00  0.00     0.000 G0
ATOM     20  C   UNL     1      95.884  82.317  83.596  1.00  0.00    -0.008 C 
ATOM     21  O   UNL     1      95.858  81.198  85.695  1.00  0.00    -0.291 OA
ATOM     22  C   UNL     1      95.123  83.525  83.976  1.00  0.00     0.048 C 
BRANCH  16  23
ATOM     23  O   UNL     1      98.396  80.456  84.431  1.00  0.00    -0.381 OA
ATOM     24  H   UNL     1      98.881  79.616  84.483  1.00  0.00     0.212 HD
ENDBRANCH  16  23
ENDBRANCH   6  15
BRANCH   7  25
ATOM     25  C   UNL     1      98.036  79.740  77.830  1.00  0.00     0.135 C 
BRANCH  25  26
ATOM     26  C   UNL     1      98.052  81.108  77.194  1.00  0.00    -0.040 A 
ATOM     27  C   UNL     1      98.917  81.372  76.131  1.00  0.00     0.004 A 
ATOM     28  C   UNL     1      97.203  82.108  77.667  1.00  0.00     0.004 A 
ATOM     29  C   UNL     1      98.932  82.637  75.542  1.00  0.00     0.000 A 
ATOM     30  C   UNL     1      97.218  83.372  77.078  1.00  0.00     0.000 A 
ATOM     31  C   UNL     1      98.083  83.636  76.015  1.00  0.00     0.000 A 
ENDBRANCH  25  26
ENDBRANCH   7  25
BRANCH  14  32
ATOM     32  C   UNL     1     102.065  79.489  79.661  1.00  0.00    -0.046 C 
ATOM     33  C   UNL     1     102.890  80.590  79.062  1.00  0.00     0.042 C 
ATOM     34  C   UNL     1     102.508  78.224  79.718  1.00  0.00     0.010 C 
ENDBRANCH  14  32
ENDBRANCH   3   4
BRANCH   2  35
ATOM     35  C   UNL     1      96.662  78.726  84.115  1.00  0.00     0.078 CG0
ATOM     36  G   UNL     1      97.096  80.169  83.860  1.00  0.00     0.000 G0
ENDBRANCH   2  35
ENDBRANCH   1   2
BRANCH   1  37
ATOM     37  O   UNL     1      95.164  76.558  83.855  1.00  0.00    -0.461 OA
BRANCH  37  38
ATOM     38  C   UNL     1      94.333  75.463  83.906  1.00  0.00     0.310 C 
ATOM     39  O   UNL     1      94.452  74.526  84.682  1.00  0.00    -0.252 OA
BRANCH  38  40
ATOM     40  C   UNL     1      93.255  75.600  82.857  1.00  0.00     0.158 C 
BRANCH  40  41
ATOM     41  C   UNL     1      92.019  76.293  83.370  1.00  0.00    -0.033 A 
ATOM     42  C   UNL     1      92.080  77.634  83.753  1.00  0.00     0.054 A 
ATOM     43  C   UNL     1      90.815  75.596  83.462  1.00  0.00     0.008 A 
ATOM     44  C   UNL     1      90.936  78.276  84.228  1.00  0.00     0.160 A 
ATOM     45  C   UNL     1      89.671  76.238  83.937  1.00  0.00     0.050 A 
ATOM     46  C   UNL     1      89.732  77.577  84.321  1.00  0.00     0.157 A 
BRANCH  44  47
ATOM     47  O   UNL     1      91.008  79.585  84.599  1.00  0.00    -0.493 OA
ATOM     48  C   UNL     1      90.653  80.557  83.618  1.00  0.00     0.278 C 
ENDBRANCH  44  47
BRANCH  46  49
ATOM     49  O   UNL     1      88.609  78.194  84.782  1.00  0.00    -0.504 OA
ATOM     50  H   UNL     1      87.973  78.282  84.052  1.00  0.00     0.293 HD
ENDBRANCH  46  49
ENDBRANCH  40  41
ENDBRANCH  38  40
ENDBRANCH  37  38
ENDBRANCH   1  37
TORSDOF 11
ENDMDL
MODEL 2
REMARK VINA RESULT:    -6.351      3.143      6.537
REMARK INTER + INTRA:         -12.235
REMARK INTER:                 -11.420
REMARK INTRA:                  -0.815
REMARK UNBOUND:                -1.058
REMARK SMILES C=C(C)[C@]12C[C@@H](C)[C@@]34O[C@](Cc5ccccc5)(O[C@@H]1[C@@H]3C=C(COC(=O)Cc1ccc(O)c(OC)c1)C[C@]1(O)C(=O)C(C)=C[C@@H]41)O2
REMARK SMILES IDX 23 1 22 2 21 3 20 4 9 5 8 6 10 7 6 8 18 9 46 10 19 11 5 12
REMARK SMILES IDX 7 13 4 14 45 15 38 16 44 17 40 18 42 20 41 21 43 22 39 23
REMARK SMILES IDX 11 25 12 26 13 27 17 28 14 29 16 30 15 31 2 32 3 33 1 34
REMARK SMILES IDX 37 35 24 37 25 38 26 39 27 40 28 41 36 42 29 43 33 44 30 45
REMARK SMILES IDX 31 46 34 47 35 48 32 49
REMARK H PARENT 39 24 32 50
REMARK Flexibility Score: 90.00
ROOT
ATOM      1  C   UNL     1      93.569  76.205  83.106  1.00  0.00     0.264 C 
ENDROOT
BRANCH   1   2
ATOM      2  C   UNL     1      93.169  77.402  83.937  1.00  0.00    -0.033 C 
ATOM      3  C   UNL     1      94.128  78.197  84.452  1.00  0.00    -0.015 C 
BRANCH   3   4
ATOM      4  C   UNL     1      93.994  79.399  85.372  1.00  0.00     0.078 C 
ATOM      5  O   UNL     1      93.881  81.403  83.925  1.00  0.00    -0.319 OA
ATOM      6  C   UNL     1      93.117  80.615  84.890  1.00  0.00     0.095 C 
ATOM      7  C   UNL     1      95.263  81.622  84.265  1.00  0.00     0.289 C 
ATOM      8  C   UNL     1      92.798  81.509  86.160  1.00  0.00     0.023 C 
ATOM      9  O   UNL     1      95.953  80.388  84.446  1.00  0.00    -0.320 OA
ATOM     10  O   UNL     1      95.413  82.331  85.492  1.00  0.00    -0.313 OA
ATOM     11  C   UNL     1      95.395  79.969  85.701  1.00  0.00     0.170 C 
ATOM     12  C   UNL     1      93.973  81.484  87.186  1.00  0.00     0.049 C 
ATOM     13  C   UNL     1      92.412  82.966  85.860  1.00  0.00     0.011 C 
ATOM     14  C   UNL     1      95.324  81.298  86.495  1.00  0.00     0.122 C 
BRANCH   6  15
ATOM     15  C   UNL     1      91.877  80.120  84.092  1.00  0.00     0.086 C 
ATOM     16  C   UNL     1      91.150  78.884  84.664  1.00  0.00     0.140 CG0
ATOM     17  C   UNL     1      90.757  81.080  83.800  1.00  0.00    -0.010 C 
ATOM     18  C   UNL     1      89.704  79.165  84.312  1.00  0.00     0.190 C 
ATOM     19  G   UNL     1      91.659  77.581  84.050  1.00  0.00     0.000 G0
ATOM     20  C   UNL     1      89.526  80.567  83.888  1.00  0.00    -0.008 C 
ATOM     21  O   UNL     1      88.784  78.367  84.409  1.00  0.00    -0.291 OA
ATOM     22  C   UNL     1      88.215  81.183  83.594  1.00  0.00     0.048 C 
BRANCH  16  23
ATOM     23  O   UNL     1      91.148  78.824  86.080  1.00  0.00    -0.381 OA
ATOM     24  H   UNL     1      90.491  78.165  86.358  1.00  0.00     0.212 HD
ENDBRANCH  16  23
ENDBRANCH   6  15
BRANCH   7  25
ATOM     25  C   UNL     1      95.909  82.410  83.143  1.00  0.00     0.135 C 
BRANCH  25  26
ATOM     26  C   UNL     1      97.050  81.656  82.507  1.00  0.00    -0.040 A 
ATOM     27  C   UNL     1      98.301  81.635  83.124  1.00  0.00     0.004 A 
ATOM     28  C   UNL     1      96.854  80.980  81.303  1.00  0.00     0.004 A 
ATOM     29  C   UNL     1      99.357  80.938  82.535  1.00  0.00     0.000 A 
ATOM     30  C   UNL     1      97.910  80.283  80.715  1.00  0.00     0.000 A 
ATOM     31  C   UNL     1      99.161  80.262  81.331  1.00  0.00     0.000 A 
ENDBRANCH  25  26
ENDBRANCH   7  25
BRANCH  14  32
ATOM     32  C   UNL     1      96.475  81.453  87.434  1.00  0.00    -0.046 C 
ATOM     33  C   UNL     1      97.315  82.682  87.255  1.00  0.00     0.042 C 
ATOM     34  C   UNL     1      96.743  80.544  88.384  1.00  0.00     0.010 C 
ENDBRANCH  14  32
ENDBRANCH   3   4
BRANCH   2  35
ATOM     35  C   UNL     1      91.666  77.554  84.076  1.00  0.00     0.078 CG0
ATOM     36  G   UNL     1      91.147  78.872  84.648  1.00  0.00     0.000 G0
ENDBRANCH   2  35
ENDBRANCH   1   2
BRANCH   1  37
ATOM     37  O   UNL     1      92.445  75.373  82.913  1.00  0.00    -0.461 OA
BRANCH  37  38
ATOM     38  C   UNL     1      92.573  74.069  83.332  1.00  0.00     0.310 C 
ATOM     39  O   UNL     1      93.476  73.312  83.003  1.00  0.00    -0.252 OA
BRANCH  38  40
ATOM     40  C   UNL     1      91.430  73.721  84.256  1.00  0.00     0.158 C 
BRANCH  40  41
ATOM     41  C   UNL     1      90.334  72.948  83.569  1.00  0.00    -0.033 A 
ATOM     42  C   UNL     1      89.936  73.300  82.279  1.00  0.00     0.054 A 
ATOM     43  C   UNL     1      89.717  71.882  84.223  1.00  0.00     0.008 A 
ATOM     44  C   UNL     1      88.921  72.584  81.643  1.00  0.00     0.160 A 
ATOM     45  C   UNL     1      88.702  71.166  83.587  1.00  0.00     0.050 A 
ATOM     46  C   UNL     1      88.304  71.517  82.298  1.00  0.00     0.157 A 
BRANCH  44  47
ATOM     47  O   UNL     1      88.540  72.937  80.384  1.00  0.00    -0.493 OA
ATOM     48  C   UNL     1      89.569  73.035  79.400  1.00  0.00     0.278 C 
ENDBRANCH  44  47
BRANCH  46  49
ATOM     49  O   UNL     1      87.313  70.811  81.687  1.00  0.00    -0.504 OA
ATOM     50  H   UNL     1      87.707  70.228  81.017  1.00  0.00     0.293 HD
ENDBRANCH  46  49
ENDBRANCH  40  41
ENDBRANCH  38  40
ENDBRANCH  37  38
ENDBRANCH   1  37
TORSDOF 11
ENDMDL
MODEL 3
REMARK VINA RESULT:    -6.184     17.050     21.325
REMARK INTER + INTRA:         -11.942
REMARK INTER:                 -11.024
REMARK INTRA:                  -0.917
REMARK UNBOUND:                -1.058
REMARK SMILES C=C(C)[C@]12C[C@@H](C)[C@@]34O[C@](Cc5ccccc5)(O[C@@H]1[C@@H]3C=C(COC(=O)Cc1ccc(O)c(OC)c1)C[C@]1(O)C(=O)C(C)=C[C@@H]41)O2
REMARK SMILES IDX 23 1 22 2 21 3 20 4 9 5 8 6 10 7 6 8 18 9 46 10 19 11 5 12
REMARK SMILES IDX 7 13 4 14 45 15 38 16 44 17 40 18 42 20 41 21 43 22 39 23
REMARK SMILES IDX 11 25 12 26 13 27 17 28 14 29 16 30 15 31 2 32 3 33 1 34
REMARK SMILES IDX 37 35 24 37 25 38 26 39 27 40 28 41 36 42 29 43 33 44 30 45
REMARK SMILES IDX 31 46 34 47 35 48 32 49
REMARK H PARENT 39 24 32 50
REMARK Flexibility Score: 90.00
ROOT
ATOM      1  C   UNL     1      96.913 101.060  77.407  1.00  0.00     0.264 C 
ENDROOT
BRANCH   1   2
ATOM      2  C   UNL     1      96.414 101.114  75.982  1.00  0.00    -0.033 C 
ATOM      3  C   UNL     1      96.754 100.128  75.127  1.00  0.00    -0.015 C 
BRANCH   3   4
ATOM      4  C   UNL     1      96.451  99.990  73.644  1.00  0.00     0.078 C 
ATOM      5  O   UNL     1      94.337  98.719  73.457  1.00  0.00    -0.319 OA
ATOM      6  C   UNL     1      94.946 100.019  73.182  1.00  0.00     0.095 C 
ATOM      7  C   UNL     1      95.151  97.576  73.134  1.00  0.00     0.289 C 
ATOM      8  C   UNL     1      94.928 100.285  71.620  1.00  0.00     0.023 C 
ATOM      9  O   UNL     1      96.396  97.616  73.826  1.00  0.00    -0.320 OA
ATOM     10  O   UNL     1      95.482  97.522  71.749  1.00  0.00    -0.313 OA
ATOM     11  C   UNL     1      97.052  98.669  73.104  1.00  0.00     0.170 C 
ATOM     12  C   UNL     1      96.165  99.644  70.917  1.00  0.00     0.049 C 
ATOM     13  C   UNL     1      93.645  99.854  70.891  1.00  0.00     0.011 C 
ATOM     14  C   UNL     1      96.635  98.382  71.641  1.00  0.00     0.122 C 
BRANCH   6  15
ATOM     15  C   UNL     1      94.124 101.023  74.041  1.00  0.00     0.086 C 
ATOM     16  C   UNL     1      94.807 102.370  74.351  1.00  0.00     0.140 CG0
ATOM     17  C   UNL     1      92.748 101.424  73.588  1.00  0.00    -0.010 C 
ATOM     18  C   UNL     1      93.639 103.334  74.360  1.00  0.00     0.190 C 
ATOM     19  G   UNL     1      95.555 102.345  75.684  1.00  0.00     0.000 G0
ATOM     20  C   UNL     1      92.435 102.710  73.780  1.00  0.00    -0.008 C 
ATOM     21  O   UNL     1      93.680 104.493  74.744  1.00  0.00    -0.291 OA
ATOM     22  C   UNL     1      91.166 103.427  73.537  1.00  0.00     0.048 C 
BRANCH  16  23
ATOM     23  O   UNL     1      95.633 102.850  73.303  1.00  0.00    -0.381 OA
ATOM     24  H   UNL     1      96.486 102.387  73.348  1.00  0.00     0.212 HD
ENDBRANCH  16  23
ENDBRANCH   6  15
BRANCH   7  25
ATOM     25  C   UNL     1      94.389  96.325  73.521  1.00  0.00     0.135 C 
BRANCH  25  26
ATOM     26  C   UNL     1      93.832  96.413  74.920  1.00  0.00    -0.040 A 
ATOM     27  C   UNL     1      92.769  95.592  75.300  1.00  0.00     0.004 A 
ATOM     28  C   UNL     1      94.379  97.313  75.834  1.00  0.00     0.004 A 
ATOM     29  C   UNL     1      92.253  95.673  76.594  1.00  0.00     0.000 A 
ATOM     30  C   UNL     1      93.863  97.394  77.128  1.00  0.00     0.000 A 
ATOM     31  C   UNL     1      92.800  96.573  77.507  1.00  0.00     0.000 A 
ENDBRANCH  25  26
ENDBRANCH   7  25
BRANCH  14  32
ATOM     32  C   UNL     1      97.699  97.651  70.887  1.00  0.00    -0.046 C 
ATOM     33  C   UNL     1      97.289  97.054  69.574  1.00  0.00     0.042 C 
ATOM     34  C   UNL     1      98.949  97.535  71.359  1.00  0.00     0.010 C 
ENDBRANCH  14  32
ENDBRANCH   3   4
BRANCH   2  35
ATOM     35  C   UNL     1      95.549 102.327  75.700  1.00  0.00     0.078 CG0
ATOM     36  G   UNL     1      94.837 102.379  74.349  1.00  0.00     0.000 G0
ENDBRANCH   2  35
ENDBRANCH   1   2
BRANCH   1  37
ATOM     37  O   UNL     1      97.090  99.713  77.789  1.00  0.00    -0.461 OA
BRANCH  37  38
ATOM     38  C   UNL     1      98.244  99.424  78.481  1.00  0.00     0.310 C 
ATOM     39  O   UNL     1      98.915 100.239  79.100  1.00  0.00    -0.252 OA
BRANCH  38  40
ATOM     40  C   UNL     1      98.551  97.950  78.356  1.00  0.00     0.158 C 
BRANCH  40  41
ATOM     41  C   UNL     1      98.124  97.156  79.563  1.00  0.00    -0.033 A 
ATOM     42  C   UNL     1      97.006  96.323  79.490  1.00  0.00     0.054 A 
ATOM     43  C   UNL     1      98.844  97.254  80.753  1.00  0.00     0.008 A 
ATOM     44  C   UNL     1      96.610  95.588  80.608  1.00  0.00     0.160 A 
ATOM     45  C   UNL     1      98.448  96.519  81.871  1.00  0.00     0.050 A 
ATOM     46  C   UNL     1      97.332  95.686  81.799  1.00  0.00     0.157 A 
BRANCH  44  47
ATOM     47  O   UNL     1      95.518  94.779  80.525  1.00  0.00    -0.493 OA
ATOM     48  C   UNL     1      95.067  94.431  79.217  1.00  0.00     0.278 C 
ENDBRANCH  44  47
BRANCH  46  49
ATOM     49  O   UNL     1      96.955  94.973  82.896  1.00  0.00    -0.504 OA
ATOM     50  H   UNL     1      96.013  95.134  83.070  1.00  0.00     0.293 HD
ENDBRANCH  46  49
ENDBRANCH  40  41
ENDBRANCH  38  40
ENDBRANCH  37  38
ENDBRANCH   1  37
TORSDOF 11
ENDMDL
MODEL 4
REMARK VINA RESULT:    -5.957      3.381      7.704
REMARK INTER + INTRA:         -11.541
REMARK INTER:                  -8.749
REMARK INTRA:                  -2.792
REMARK UNBOUND:                -1.058
REMARK SMILES C=C(C)[C@]12C[C@@H](C)[C@@]34O[C@](Cc5ccccc5)(O[C@@H]1[C@@H]3C=C(COC(=O)Cc1ccc(O)c(OC)c1)C[C@]1(O)C(=O)C(C)=C[C@@H]41)O2
REMARK SMILES IDX 23 1 22 2 21 3 20 4 9 5 8 6 10 7 6 8 18 9 46 10 19 11 5 12
REMARK SMILES IDX 7 13 4 14 45 15 38 16 44 17 40 18 42 20 41 21 43 22 39 23
REMARK SMILES IDX 11 25 12 26 13 27 17 28 14 29 16 30 15 31 2 32 3 33 1 34
REMARK SMILES IDX 37 35 24 37 25 38 26 39 27 40 28 41 36 42 29 43 33 44 30 45
REMARK SMILES IDX 31 46 34 47 35 48 32 49
REMARK H PARENT 39 24 32 50
REMARK Flexibility Score: 90.00
ROOT
ATOM      1  C   UNL     1     101.414  81.213  86.420  1.00  0.00     0.264 C 
ENDROOT
BRANCH   1   2
ATOM      2  C   UNL     1     100.810  80.518  85.222  1.00  0.00    -0.033 C 
ATOM      3  C   UNL     1      99.507  80.174  85.247  1.00  0.00    -0.015 C 
BRANCH   3   4
ATOM      4  C   UNL     1      98.691  79.409  84.218  1.00  0.00     0.078 C 
ATOM      5  O   UNL     1      97.646  81.090  82.734  1.00  0.00    -0.319 OA
ATOM      6  C   UNL     1      98.602  79.985  82.755  1.00  0.00     0.095 C 
ATOM      7  C   UNL     1      96.433  80.872  83.479  1.00  0.00     0.289 C 
ATOM      8  C   UNL     1      98.079  78.823  81.813  1.00  0.00     0.023 C 
ATOM      9  O   UNL     1      96.712  80.578  84.846  1.00  0.00    -0.320 OA
ATOM     10  O   UNL     1      95.691  79.757  82.990  1.00  0.00    -0.313 OA
ATOM     11  C   UNL     1      97.234  79.247  84.717  1.00  0.00     0.170 C 
ATOM     12  C   UNL     1      97.090  77.880  82.564  1.00  0.00     0.049 C 
ATOM     13  C   UNL     1      97.444  79.281  80.490  1.00  0.00     0.011 C 
ATOM     14  C   UNL     1      96.305  78.627  83.643  1.00  0.00     0.122 C 
BRANCH   6  15
ATOM     15  C   UNL     1      99.953  80.631  82.334  1.00  0.00     0.086 C 
ATOM     16  C   UNL     1     101.228  79.850  82.713  1.00  0.00     0.140 CG0
ATOM     17  C   UNL     1     100.179  80.991  80.892  1.00  0.00    -0.010 C 
ATOM     18  C   UNL     1     102.153  80.153  81.554  1.00  0.00     0.190 C 
ATOM     19  G   UNL     1     101.804  80.302  84.055  1.00  0.00     0.000 G0
ATOM     20  C   UNL     1     101.413  80.760  80.431  1.00  0.00    -0.008 C 
ATOM     21  O   UNL     1     103.346  79.892  81.512  1.00  0.00    -0.291 OA
ATOM     22  C   UNL     1     102.008  81.061  79.113  1.00  0.00     0.048 C 
BRANCH  16  23
ATOM     23  O   UNL     1     101.074  78.442  82.664  1.00  0.00    -0.381 OA
ATOM     24  H   UNL     1     100.860  78.125  83.557  1.00  0.00     0.212 HD
ENDBRANCH  16  23
ENDBRANCH   6  15
BRANCH   7  25
ATOM     25  C   UNL     1      95.586  82.124  83.387  1.00  0.00     0.135 C 
BRANCH  25  26
ATOM     26  C   UNL     1      94.880  82.426  84.685  1.00  0.00    -0.040 A 
ATOM     27  C   UNL     1      93.648  81.832  84.964  1.00  0.00     0.004 A 
ATOM     28  C   UNL     1      95.458  83.297  85.608  1.00  0.00     0.004 A 
ATOM     29  C   UNL     1      92.995  82.111  86.165  1.00  0.00     0.000 A 
ATOM     30  C   UNL     1      94.805  83.576  86.809  1.00  0.00     0.000 A 
ATOM     31  C   UNL     1      93.573  82.982  87.087  1.00  0.00     0.000 A 
ENDBRANCH  25  26
ENDBRANCH   7  25
BRANCH  14  32
ATOM     32  C   UNL     1      95.225  77.791  84.250  1.00  0.00    -0.046 C 
ATOM     33  C   UNL     1      95.219  77.702  85.747  1.00  0.00     0.042 C 
ATOM     34  C   UNL     1      94.313  77.156  83.499  1.00  0.00     0.010 C 
ENDBRANCH  14  32
ENDBRANCH   3   4
BRANCH   2  35
ATOM     35  C   UNL     1     101.804  80.301  84.097  1.00  0.00     0.078 CG0
ATOM     36  G   UNL     1     101.243  79.869  82.742  1.00  0.00     0.000 G0
ENDBRANCH   2  35
ENDBRANCH   1   2
BRANCH   1  37
ATOM     37  O   UNL     1     100.845  82.498  86.551  1.00  0.00    -0.461 OA
BRANCH  37  38
ATOM     38  C   UNL     1     100.256  82.782  87.761  1.00  0.00     0.310 C 
ATOM     39  O   UNL     1     100.835  82.794  88.838  1.00  0.00    -0.252 OA
BRANCH  38  40
ATOM     40  C   UNL     1      98.789  83.075  87.552  1.00  0.00     0.158 C 
BRANCH  40  41
ATOM     41  C   UNL     1      97.898  82.329  88.512  1.00  0.00    -0.033 A 
ATOM     42  C   UNL     1      97.588  80.988  88.277  1.00  0.00     0.054 A 
ATOM     43  C   UNL     1      97.383  82.977  89.634  1.00  0.00     0.008 A 
ATOM     44  C   UNL     1      96.764  80.298  89.165  1.00  0.00     0.160 A 
ATOM     45  C   UNL     1      96.558  82.286  90.522  1.00  0.00     0.050 A 
ATOM     46  C   UNL     1      96.248  80.947  90.288  1.00  0.00     0.157 A 
BRANCH  44  47
ATOM     47  O   UNL     1      96.468  78.990  88.925  1.00  0.00    -0.493 OA
ATOM     48  C   UNL     1      97.493  78.034  89.194  1.00  0.00     0.278 C 
ENDBRANCH  44  47
BRANCH  46  49
ATOM     49  O   UNL     1      95.443  80.283  91.162  1.00  0.00    -0.504 OA
ATOM     50  H   UNL     1      94.724  80.874  91.442  1.00  0.00     0.293 HD
ENDBRANCH  46  49
ENDBRANCH  40  41
ENDBRANCH  38  40
ENDBRANCH  37  38
ENDBRANCH   1  37
TORSDOF 11
ENDMDL
MODEL 5
REMARK VINA RESULT:    -5.901     18.467     26.688
REMARK INTER + INTRA:         -11.443
REMARK INTER:                 -10.369
REMARK INTRA:                  -1.073
REMARK UNBOUND:                -1.058
REMARK SMILES C=C(C)[C@]12C[C@@H](C)[C@@]34O[C@](Cc5ccccc5)(O[C@@H]1[C@@H]3C=C(COC(=O)Cc1ccc(O)c(OC)c1)C[C@]1(O)C(=O)C(C)=C[C@@H]41)O2
REMARK SMILES IDX 23 1 22 2 21 3 20 4 9 5 8 6 10 7 6 8 18 9 46 10 19 11 5 12
REMARK SMILES IDX 7 13 4 14 45 15 38 16 44 17 40 18 42 20 41 21 43 22 39 23
REMARK SMILES IDX 11 25 12 26 13 27 17 28 14 29 16 30 15 31 2 32 3 33 1 34
REMARK SMILES IDX 37 35 24 37 25 38 26 39 27 40 28 41 36 42 29 43 33 44 30 45
REMARK SMILES IDX 31 46 34 47 35 48 32 49
REMARK H PARENT 39 24 32 50
REMARK Flexibility Score: 90.00
ROOT
ATOM      1  C   UNL     1      76.402  70.044  84.864  1.00  0.00     0.264 C 
ENDROOT
BRANCH   1   2
ATOM      2  C   UNL     1      75.389  68.958  85.144  1.00  0.00    -0.033 C 
ATOM      3  C   UNL     1      74.095  69.293  85.322  1.00  0.00    -0.015 C 
BRANCH   3   4
ATOM      4  C   UNL     1      72.912  68.412  85.687  1.00  0.00     0.078 C 
ATOM      5  O   UNL     1      71.865  67.696  83.563  1.00  0.00    -0.319 OA
ATOM      6  C   UNL     1      72.564  67.199  84.746  1.00  0.00     0.095 C 
ATOM      7  C   UNL     1      70.865  68.701  83.815  1.00  0.00     0.289 C 
ATOM      8  C   UNL     1      71.605  66.227  85.551  1.00  0.00     0.023 C 
ATOM      9  O   UNL     1      71.423  69.829  84.484  1.00  0.00    -0.320 OA
ATOM     10  O   UNL     1      69.823  68.227  84.663  1.00  0.00    -0.313 OA
ATOM     11  C   UNL     1      71.628  69.272  85.791  1.00  0.00     0.170 C 
ATOM     12  C   UNL     1      70.678  67.017  86.525  1.00  0.00     0.049 C 
ATOM     13  C   UNL     1      70.753  65.280  84.691  1.00  0.00     0.011 C 
ATOM     14  C   UNL     1      70.354  68.413  85.991  1.00  0.00     0.122 C 
BRANCH   6  15
ATOM     15  C   UNL     1      73.860  66.545  84.186  1.00  0.00     0.086 C 
ATOM     16  C   UNL     1      75.014  66.352  85.192  1.00  0.00     0.140 CG0
ATOM     17  C   UNL     1      73.774  65.214  83.493  1.00  0.00    -0.010 C 
ATOM     18  C   UNL     1      75.651  65.065  84.714  1.00  0.00     0.190 C 
ATOM     19  G   UNL     1      75.991  67.527  85.182  1.00  0.00     0.000 G0
ATOM     20  C   UNL     1      74.780  64.370  83.748  1.00  0.00    -0.008 C 
ATOM     21  O   UNL     1      76.719  64.616  85.102  1.00  0.00    -0.291 OA
ATOM     22  C   UNL     1      75.063  63.032  83.189  1.00  0.00     0.048 C 
BRANCH  16  23
ATOM     23  O   UNL     1      74.583  66.049  86.508  1.00  0.00    -0.381 OA
ATOM     24  H   UNL     1      73.930  65.331  86.459  1.00  0.00     0.212 HD
ENDBRANCH  16  23
ENDBRANCH   6  15
BRANCH   7  25
ATOM     25  C   UNL     1      70.279  69.132  82.486  1.00  0.00     0.135 C 
BRANCH  25  26
ATOM     26  C   UNL     1      68.961  68.455  82.203  1.00  0.00    -0.040 A 
ATOM     27  C   UNL     1      68.937  67.219  81.554  1.00  0.00     0.004 A 
ATOM     28  C   UNL     1      67.767  69.061  82.591  1.00  0.00     0.004 A 
ATOM     29  C   UNL     1      67.719  66.592  81.293  1.00  0.00     0.000 A 
ATOM     30  C   UNL     1      66.548  68.434  82.329  1.00  0.00     0.000 A 
ATOM     31  C   UNL     1      66.525  67.200  81.680  1.00  0.00     0.000 A 
ENDBRANCH  25  26
ENDBRANCH   7  25
BRANCH  14  32
ATOM     32  C   UNL     1      69.326  69.118  86.815  1.00  0.00    -0.046 C 
ATOM     33  C   UNL     1      67.895  68.780  86.520  1.00  0.00     0.042 C 
ATOM     34  C   UNL     1      69.663  70.005  87.764  1.00  0.00     0.010 C 
ENDBRANCH  14  32
ENDBRANCH   3   4
BRANCH   2  35
ATOM     35  C   UNL     1      76.000  67.570  85.180  1.00  0.00     0.078 CG0
ATOM     36  G   UNL     1      75.038  66.383  85.182  1.00  0.00     0.000 G0
ENDBRANCH   2  35
ENDBRANCH   1   2
BRANCH   1  37
ATOM     37  O   UNL     1      76.069  71.196  85.609  1.00  0.00    -0.461 OA
BRANCH  37  38
ATOM     38  C   UNL     1      76.999  71.613  86.532  1.00  0.00     0.310 C 
ATOM     39  O   UNL     1      77.587  70.882  87.317  1.00  0.00    -0.252 OA
BRANCH  38  40
ATOM     40  C   UNL     1      77.179  73.109  86.427  1.00  0.00     0.158 C 
BRANCH  40  41
ATOM     41  C   UNL     1      78.383  73.500  85.610  1.00  0.00    -0.033 A 
ATOM     42  C   UNL     1      79.350  74.347  86.155  1.00  0.00     0.054 A 
ATOM     43  C   UNL     1      78.532  73.016  84.311  1.00  0.00     0.008 A 
ATOM     44  C   UNL     1      80.465  74.709  85.399  1.00  0.00     0.160 A 
ATOM     45  C   UNL     1      79.647  73.378  83.555  1.00  0.00     0.050 A 
ATOM     46  C   UNL     1      80.613  74.225  84.098  1.00  0.00     0.157 A 
BRANCH  44  47
ATOM     47  O   UNL     1      81.402  75.536  85.941  1.00  0.00    -0.493 OA
ATOM     48  C   UNL     1      80.962  76.437  86.955  1.00  0.00     0.278 C 
ENDBRANCH  44  47
BRANCH  46  49
ATOM     49  O   UNL     1      81.698  74.570  83.351  1.00  0.00    -0.504 OA
ATOM     50  H   UNL     1      82.437  74.784  83.946  1.00  0.00     0.293 HD
ENDBRANCH  46  49
ENDBRANCH  40  41
ENDBRANCH  38  40
ENDBRANCH  37  38
ENDBRANCH   1  37
TORSDOF 11
ENDMDL
MODEL 6
REMARK VINA RESULT:    -5.893     17.864     26.010
REMARK INTER + INTRA:         -11.430
REMARK INTER:                 -10.357
REMARK INTRA:                  -1.072
REMARK UNBOUND:                -1.058
REMARK SMILES C=C(C)[C@]12C[C@@H](C)[C@@]34O[C@](Cc5ccccc5)(O[C@@H]1[C@@H]3C=C(COC(=O)Cc1ccc(O)c(OC)c1)C[C@]1(O)C(=O)C(C)=C[C@@H]41)O2
REMARK SMILES IDX 23 1 22 2 21 3 20 4 9 5 8 6 10 7 6 8 18 9 46 10 19 11 5 12
REMARK SMILES IDX 7 13 4 14 45 15 38 16 44 17 40 18 42 20 41 21 43 22 39 23
REMARK SMILES IDX 11 25 12 26 13 27 17 28 14 29 16 30 15 31 2 32 3 33 1 34
REMARK SMILES IDX 37 35 24 37 25 38 26 39 27 40 28 41 36 42 29 43 33 44 30 45
REMARK SMILES IDX 31 46 34 47 35 48 32 49
REMARK H PARENT 39 24 32 50
REMARK Flexibility Score: 90.00
ROOT
ATOM      1  C   UNL     1      75.367  70.076  84.753  1.00  0.00     0.264 C 
ENDROOT
BRANCH   1   2
ATOM      2  C   UNL     1      73.978  70.013  85.344  1.00  0.00    -0.033 C 
ATOM      3  C   UNL     1      73.711  70.695  86.476  1.00  0.00    -0.015 C 
BRANCH   3   4
ATOM      4  C   UNL     1      72.435  70.733  87.301  1.00  0.00     0.078 C 
ATOM      5  O   UNL     1      71.099  72.644  86.473  1.00  0.00    -0.319 OA
ATOM      6  C   UNL     1      71.102  71.188  86.598  1.00  0.00     0.095 C 
ATOM      7  C   UNL     1      71.564  73.362  87.632  1.00  0.00     0.289 C 
ATOM      8  C   UNL     1      69.895  70.739  87.521  1.00  0.00     0.023 C 
ATOM      9  O   UNL     1      72.888  72.970  87.987  1.00  0.00    -0.320 OA
ATOM     10  O   UNL     1      70.765  73.107  88.784  1.00  0.00    -0.313 OA
ATOM     11  C   UNL     1      72.627  71.664  88.524  1.00  0.00     0.170 C 
ATOM     12  C   UNL     1      70.282  70.791  89.032  1.00  0.00     0.049 C 
ATOM     13  C   UNL     1      68.578  71.502  87.304  1.00  0.00     0.011 C 
ATOM     14  C   UNL     1      71.313  71.883  89.315  1.00  0.00     0.122 C 
BRANCH   6  15
ATOM     15  C   UNL     1      71.049  70.672  85.130  1.00  0.00     0.086 C 
ATOM     16  C   UNL     1      71.522  69.222  84.902  1.00  0.00     0.140 CG0
ATOM     17  C   UNL     1      69.753  70.741  84.372  1.00  0.00    -0.010 C 
ATOM     18  C   UNL     1      70.619  68.757  83.779  1.00  0.00     0.190 C 
ATOM     19  G   UNL     1      73.002  69.150  84.530  1.00  0.00     0.000 G0
ATOM     20  C   UNL     1      69.495  69.693  83.583  1.00  0.00    -0.008 C 
ATOM     21  O   UNL     1      70.755  67.724  83.142  1.00  0.00    -0.291 OA
ATOM     22  C   UNL     1      68.377  69.459  82.646  1.00  0.00     0.048 C 
BRANCH  16  23
ATOM     23  O   UNL     1      71.214  68.342  85.970  1.00  0.00    -0.381 OA
ATOM     24  H   UNL     1      71.818  68.531  86.707  1.00  0.00     0.212 HD
ENDBRANCH  16  23
ENDBRANCH   6  15
BRANCH   7  25
ATOM     25  C   UNL     1      71.537  74.844  87.314  1.00  0.00     0.135 C 
BRANCH  25  26
ATOM     26  C   UNL     1      72.148  75.670  88.420  1.00  0.00    -0.040 A 
ATOM     27  C   UNL     1      73.531  75.841  88.479  1.00  0.00     0.004 A 
ATOM     28  C   UNL     1      71.330  76.263  89.380  1.00  0.00     0.004 A 
ATOM     29  C   UNL     1      74.096  76.605  89.501  1.00  0.00     0.000 A 
ATOM     30  C   UNL     1      71.895  77.027  90.402  1.00  0.00     0.000 A 
ATOM     31  C   UNL     1      73.278  77.197  90.462  1.00  0.00     0.000 A 
ENDBRANCH  25  26
ENDBRANCH   7  25
BRANCH  14  32
ATOM     32  C   UNL     1      71.562  72.074  90.775  1.00  0.00    -0.046 C 
ATOM     33  C   UNL     1      72.667  73.020  91.141  1.00  0.00     0.042 C 
ATOM     34  C   UNL     1      70.839  71.435  91.707  1.00  0.00     0.010 C 
ENDBRANCH  14  32
ENDBRANCH   3   4
BRANCH   2  35
ATOM     35  C   UNL     1      73.027  69.152  84.535  1.00  0.00     0.078 CG0
ATOM     36  G   UNL     1      71.542  69.226  84.891  1.00  0.00     0.000 G0
ENDBRANCH   2  35
ENDBRANCH   1   2
BRANCH   1  37
ATOM     37  O   UNL     1      76.226  70.747  85.651  1.00  0.00    -0.461 OA
BRANCH  37  38
ATOM     38  C   UNL     1      77.399  71.234  85.122  1.00  0.00     0.310 C 
ATOM     39  O   UNL     1      78.447  70.609  85.044  1.00  0.00    -0.252 OA
BRANCH  38  40
ATOM     40  C   UNL     1      77.189  72.655  84.654  1.00  0.00     0.158 C 
BRANCH  40  41
ATOM     41  C   UNL     1      78.385  73.538  84.902  1.00  0.00    -0.033 A 
ATOM     42  C   UNL     1      78.606  74.074  86.171  1.00  0.00     0.054 A 
ATOM     43  C   UNL     1      79.272  73.818  83.863  1.00  0.00     0.008 A 
ATOM     44  C   UNL     1      79.713  74.891  86.400  1.00  0.00     0.160 A 
ATOM     45  C   UNL     1      80.380  74.635  84.091  1.00  0.00     0.050 A 
ATOM     46  C   UNL     1      80.600  75.172  85.360  1.00  0.00     0.157 A 
BRANCH  44  47
ATOM     47  O   UNL     1      79.918  75.409  87.643  1.00  0.00    -0.493 OA
ATOM     48  C   UNL     1      79.817  74.508  88.745  1.00  0.00     0.278 C 
ENDBRANCH  44  47
BRANCH  46  49
ATOM     49  O   UNL     1      81.685  75.967  85.572  1.00  0.00    -0.504 OA
ATOM     50  H   UNL     1      82.442  75.410  85.819  1.00  0.00     0.293 HD
ENDBRANCH  46  49
ENDBRANCH  40  41
ENDBRANCH  38  40
ENDBRANCH  37  38
ENDBRANCH   1  37
TORSDOF 11
ENDMDL
MODEL 7
REMARK VINA RESULT:    -5.858      9.366     12.252
REMARK INTER + INTRA:         -11.368
REMARK INTER:                 -10.419
REMARK INTRA:                  -0.949
REMARK UNBOUND:                -1.058
REMARK SMILES C=C(C)[C@]12C[C@@H](C)[C@@]34O[C@](Cc5ccccc5)(O[C@@H]1[C@@H]3C=C(COC(=O)Cc1ccc(O)c(OC)c1)C[C@]1(O)C(=O)C(C)=C[C@@H]41)O2
REMARK SMILES IDX 23 1 22 2 21 3 20 4 9 5 8 6 10 7 6 8 18 9 46 10 19 11 5 12
REMARK SMILES IDX 7 13 4 14 45 15 38 16 44 17 40 18 42 20 41 21 43 22 39 23
REMARK SMILES IDX 11 25 12 26 13 27 17 28 14 29 16 30 15 31 2 32 3 33 1 34
REMARK SMILES IDX 37 35 24 37 25 38 26 39 27 40 28 41 36 42 29 43 33 44 30 45
REMARK SMILES IDX 31 46 34 47 35 48 32 49
REMARK H PARENT 39 24 32 50
REMARK Flexibility Score: 90.00
ROOT
ATOM      1  C   UNL     1      88.545  69.165  77.241  1.00  0.00     0.264 C 
ENDROOT
BRANCH   1   2
ATOM      2  C   UNL     1      89.454  69.980  78.130  1.00  0.00    -0.033 C 
ATOM      3  C   UNL     1      90.242  70.925  77.579  1.00  0.00    -0.015 C 
BRANCH   3   4
ATOM      4  C   UNL     1      91.286  71.814  78.235  1.00  0.00     0.078 C 
ATOM      5  O   UNL     1      90.140  73.904  78.897  1.00  0.00    -0.319 OA
ATOM      6  C   UNL     1      90.840  72.737  79.429  1.00  0.00     0.095 C 
ATOM      7  C   UNL     1      90.738  74.502  77.730  1.00  0.00     0.289 C 
ATOM      8  C   UNL     1      92.150  73.212  80.184  1.00  0.00     0.023 C 
ATOM      9  O   UNL     1      90.857  73.557  76.669  1.00  0.00    -0.320 OA
ATOM     10  O   UNL     1      92.061  74.970  77.979  1.00  0.00    -0.313 OA
ATOM     11  C   UNL     1      91.927  72.744  77.175  1.00  0.00     0.170 C 
ATOM     12  C   UNL     1      93.347  73.383  79.199  1.00  0.00     0.049 C 
ATOM     13  C   UNL     1      91.998  74.486  81.031  1.00  0.00     0.011 C 
ATOM     14  C   UNL     1      92.877  73.794  77.803  1.00  0.00     0.122 C 
BRANCH   6  15
ATOM     15  C   UNL     1      89.780  72.020  80.315  1.00  0.00     0.086 C 
ATOM     16  C   UNL     1      90.046  70.532  80.623  1.00  0.00     0.140 CG0
ATOM     17  C   UNL     1      89.430  72.598  81.658  1.00  0.00    -0.010 C 
ATOM     18  C   UNL     1      89.490  70.384  82.023  1.00  0.00     0.190 C 
ATOM     19  G   UNL     1      89.360  69.604  79.621  1.00  0.00     0.000 G0
ATOM     20  C   UNL     1      89.234  71.703  82.632  1.00  0.00    -0.008 C 
ATOM     21  O   UNL     1      89.318  69.326  82.609  1.00  0.00    -0.291 OA
ATOM     22  C   UNL     1      88.803  71.900  84.032  1.00  0.00     0.048 C 
BRANCH  16  23
ATOM     23  O   UNL     1      91.420  70.212  80.768  1.00  0.00    -0.381 OA
ATOM     24  H   UNL     1      91.502  69.506  81.430  1.00  0.00     0.212 HD
ENDBRANCH  16  23
ENDBRANCH   6  15
BRANCH   7  25
ATOM     25  C   UNL     1      89.866  75.660  77.289  1.00  0.00     0.135 C 
BRANCH  25  26
ATOM     26  C   UNL     1      90.590  76.584  76.343  1.00  0.00    -0.040 A 
ATOM     27  C   UNL     1      90.707  76.249  74.993  1.00  0.00     0.004 A 
ATOM     28  C   UNL     1      91.141  77.775  76.815  1.00  0.00     0.004 A 
ATOM     29  C   UNL     1      91.376  77.103  74.117  1.00  0.00     0.000 A 
ATOM     30  C   UNL     1      91.811  78.630  75.939  1.00  0.00     0.000 A 
ATOM     31  C   UNL     1      91.928  78.293  74.590  1.00  0.00     0.000 A 
ENDBRANCH  25  26
ENDBRANCH   7  25
BRANCH  14  32
ATOM     32  C   UNL     1      94.011  74.139  76.894  1.00  0.00    -0.046 C 
ATOM     33  C   UNL     1      95.362  73.627  77.296  1.00  0.00     0.042 C 
ATOM     34  C   UNL     1      93.831  74.867  75.782  1.00  0.00     0.010 C 
ENDBRANCH  14  32
ENDBRANCH   3   4
BRANCH   2  35
ATOM     35  C   UNL     1      89.343  69.607  79.596  1.00  0.00     0.078 CG0
ATOM     36  G   UNL     1      90.048  70.513  80.604  1.00  0.00     0.000 G0
ENDBRANCH   2  35
ENDBRANCH   1   2
BRANCH   1  37
ATOM     37  O   UNL     1      89.190  68.924  76.009  1.00  0.00    -0.461 OA
BRANCH  37  38
ATOM     38  C   UNL     1      88.398  68.450  74.989  1.00  0.00     0.310 C 
ATOM     39  O   UNL     1      88.706  67.551  74.220  1.00  0.00    -0.252 OA
BRANCH  38  40
ATOM     40  C   UNL     1      87.094  69.212  74.968  1.00  0.00     0.158 C 
BRANCH  40  41
ATOM     41  C   UNL     1      85.901  68.329  74.705  1.00  0.00    -0.033 A 
ATOM     42  C   UNL     1      85.100  68.556  73.585  1.00  0.00     0.054 A 
ATOM     43  C   UNL     1      85.599  67.286  75.579  1.00  0.00     0.008 A 
ATOM     44  C   UNL     1      83.996  67.739  73.341  1.00  0.00     0.160 A 
ATOM     45  C   UNL     1      84.495  66.468  75.335  1.00  0.00     0.050 A 
ATOM     46  C   UNL     1      83.693  66.695  74.217  1.00  0.00     0.157 A 
BRANCH  44  47
ATOM     47  O   UNL     1      83.221  67.970  72.245  1.00  0.00    -0.493 OA
ATOM     48  C   UNL     1      83.459  67.155  71.099  1.00  0.00     0.278 C 
ENDBRANCH  44  47
BRANCH  46  49
ATOM     49  O   UNL     1      82.619  65.890  73.988  1.00  0.00    -0.504 OA
ATOM     50  H   UNL     1      82.578  65.211  74.683  1.00  0.00     0.293 HD
ENDBRANCH  46  49
ENDBRANCH  40  41
ENDBRANCH  38  40
ENDBRANCH  37  38
ENDBRANCH   1  37
TORSDOF 11
ENDMDL
MODEL 8
REMARK VINA RESULT:    -5.678      4.386     10.050
REMARK INTER + INTRA:         -11.050
REMARK INTER:                  -9.640
REMARK INTRA:                  -1.410
REMARK UNBOUND:                -1.058
REMARK SMILES C=C(C)[C@]12C[C@@H](C)[C@@]34O[C@](Cc5ccccc5)(O[C@@H]1[C@@H]3C=C(COC(=O)Cc1ccc(O)c(OC)c1)C[C@]1(O)C(=O)C(C)=C[C@@H]41)O2
REMARK SMILES IDX 23 1 22 2 21 3 20 4 9 5 8 6 10 7 6 8 18 9 46 10 19 11 5 12
REMARK SMILES IDX 7 13 4 14 45 15 38 16 44 17 40 18 42 20 41 21 43 22 39 23
REMARK SMILES IDX 11 25 12 26 13 27 17 28 14 29 16 30 15 31 2 32 3 33 1 34
REMARK SMILES IDX 37 35 24 37 25 38 26 39 27 40 28 41 36 42 29 43 33 44 30 45
REMARK SMILES IDX 31 46 34 47 35 48 32 49
REMARK H PARENT 39 24 32 50
REMARK Flexibility Score: 90.00
ROOT
ATOM      1  C   UNL     1     100.404  78.652  74.232  1.00  0.00     0.264 C 
ENDROOT
BRANCH   1   2
ATOM      2  C   UNL     1     100.713  79.412  75.501  1.00  0.00    -0.033 C 
ATOM      3  C   UNL     1      99.700  79.938  76.218  1.00  0.00    -0.015 C 
BRANCH   3   4
ATOM      4  C   UNL     1      99.750  80.799  77.470  1.00  0.00     0.078 C 
ATOM      5  O   UNL     1      99.623  79.264  79.406  1.00  0.00    -0.319 OA
ATOM      6  C   UNL     1     100.490  80.233  78.739  1.00  0.00     0.095 C 
ATOM      7  C   UNL     1      98.238  79.644  79.510  1.00  0.00     0.289 C 
ATOM      8  C   UNL     1     100.763  81.450  79.717  1.00  0.00     0.023 C 
ATOM      9  O   UNL     1      97.675  79.904  78.226  1.00  0.00    -0.320 OA
ATOM     10  O   UNL     1      98.061  80.845  80.258  1.00  0.00    -0.313 OA
ATOM     11  C   UNL     1      98.311  81.155  77.921  1.00  0.00     0.170 C 
ATOM     12  C   UNL     1      99.631  82.519  79.630  1.00  0.00     0.049 C 
ATOM     13  C   UNL     1     100.999  81.073  81.189  1.00  0.00     0.011 C 
ATOM     14  C   UNL     1      98.282  81.887  79.286  1.00  0.00     0.122 C 
BRANCH   6  15
ATOM     15  C   UNL     1     101.745  79.412  78.326  1.00  0.00     0.086 C 
ATOM     16  C   UNL     1     102.616  80.019  77.207  1.00  0.00     0.140 CG0
ATOM     17  C   UNL     1     102.747  79.020  79.375  1.00  0.00    -0.010 C 
ATOM     18  C   UNL     1     104.011  79.592  77.611  1.00  0.00     0.190 C 
ATOM     19  G   UNL     1     102.223  79.501  75.824  1.00  0.00     0.000 G0
ATOM     20  C   UNL     1     104.028  79.083  78.996  1.00  0.00    -0.008 C 
ATOM     21  O   UNL     1     105.012  79.693  76.918  1.00  0.00    -0.291 OA
ATOM     22  C   UNL     1     105.256  78.701  79.723  1.00  0.00     0.048 C 
BRANCH  16  23
ATOM     23  O   UNL     1     102.676  81.436  77.231  1.00  0.00    -0.381 OA
ATOM     24  H   UNL     1     102.469  81.767  76.341  1.00  0.00     0.212 HD
ENDBRANCH  16  23
ENDBRANCH   6  15
BRANCH   7  25
ATOM     25  C   UNL     1      97.483  78.514  80.180  1.00  0.00     0.135 C 
BRANCH  25  26
ATOM     26  C   UNL     1      97.497  78.639  81.684  1.00  0.00    -0.040 A 
ATOM     27  C   UNL     1      98.446  77.942  82.432  1.00  0.00     0.004 A 
ATOM     28  C   UNL     1      96.564  79.452  82.325  1.00  0.00     0.004 A 
ATOM     29  C   UNL     1      98.460  78.057  83.822  1.00  0.00     0.000 A 
ATOM     30  C   UNL     1      96.577  79.567  83.716  1.00  0.00     0.000 A 
ATOM     31  C   UNL     1      97.526  78.869  84.464  1.00  0.00     0.000 A 
ENDBRANCH  25  26
ENDBRANCH   7  25
BRANCH  14  32
ATOM     32  C   UNL     1      97.152  82.861  79.376  1.00  0.00    -0.046 C 
ATOM     33  C   UNL     1      96.698  83.222  80.758  1.00  0.00     0.042 C 
ATOM     34  C   UNL     1      96.577  83.383  78.282  1.00  0.00     0.010 C 
ENDBRANCH  14  32
ENDBRANCH   3   4
BRANCH   2  35
ATOM     35  C   UNL     1     102.197  79.474  75.810  1.00  0.00     0.078 CG0
ATOM     36  G   UNL     1     102.603  80.002  77.186  1.00  0.00     0.000 G0
ENDBRANCH   2  35
ENDBRANCH   1   2
BRANCH   1  37
ATOM     37  O   UNL     1      99.812  79.527  73.296  1.00  0.00    -0.461 OA
BRANCH  37  38
ATOM     38  C   UNL     1     100.671  80.155  72.424  1.00  0.00     0.310 C 
ATOM     39  O   UNL     1     101.889  80.041  72.432  1.00  0.00    -0.252 OA
BRANCH  38  40
ATOM     40  C   UNL     1      99.877  81.002  71.457  1.00  0.00     0.158 C 
BRANCH  40  41
ATOM     41  C   UNL     1      99.783  82.445  71.881  1.00  0.00    -0.033 A 
ATOM     42  C   UNL     1      98.977  82.803  72.963  1.00  0.00     0.054 A 
ATOM     43  C   UNL     1     100.501  83.423  71.193  1.00  0.00     0.008 A 
ATOM     44  C   UNL     1      98.890  84.139  73.355  1.00  0.00     0.160 A 
ATOM     45  C   UNL     1     100.414  84.759  71.585  1.00  0.00     0.050 A 
ATOM     46  C   UNL     1      99.608  85.117  72.666  1.00  0.00     0.157 A 
BRANCH  44  47
ATOM     47  O   UNL     1      98.099  84.477  74.412  1.00  0.00    -0.493 OA
ATOM     48  C   UNL     1      98.589  84.161  75.714  1.00  0.00     0.278 C 
ENDBRANCH  44  47
BRANCH  46  49
ATOM     49  O   UNL     1      99.532  86.424  73.040  1.00  0.00    -0.504 OA
ATOM     50  H   UNL     1      98.960  86.900  72.415  1.00  0.00     0.293 HD
ENDBRANCH  46  49
ENDBRANCH  40  41
ENDBRANCH  38  40
ENDBRANCH  37  38
ENDBRANCH   1  37
TORSDOF 11
ENDMDL
MODEL 9
REMARK VINA RESULT:    -5.668      3.391      8.031
REMARK INTER + INTRA:         -11.034
REMARK INTER:                  -8.741
REMARK INTRA:                  -2.293
REMARK UNBOUND:                -1.058
REMARK SMILES C=C(C)[C@]12C[C@@H](C)[C@@]34O[C@](Cc5ccccc5)(O[C@@H]1[C@@H]3C=C(COC(=O)Cc1ccc(O)c(OC)c1)C[C@]1(O)C(=O)C(C)=C[C@@H]41)O2
REMARK SMILES IDX 23 1 22 2 21 3 20 4 9 5 8 6 10 7 6 8 18 9 46 10 19 11 5 12
REMARK SMILES IDX 7 13 4 14 45 15 38 16 44 17 40 18 42 20 41 21 43 22 39 23
REMARK SMILES IDX 11 25 12 26 13 27 17 28 14 29 16 30 15 31 2 32 3 33 1 34
REMARK SMILES IDX 37 35 24 37 25 38 26 39 27 40 28 41 36 42 29 43 33 44 30 45
REMARK SMILES IDX 31 46 34 47 35 48 32 49
REMARK H PARENT 39 24 32 50
REMARK Flexibility Score: 90.00
ROOT
ATOM      1  C   UNL     1     100.439  81.188  87.046  1.00  0.00     0.264 C 
ENDROOT
BRANCH   1   2
ATOM      2  C   UNL     1      98.945  81.025  86.888  1.00  0.00    -0.033 C 
ATOM      3  C   UNL     1      98.211  82.067  86.448  1.00  0.00    -0.015 C 
BRANCH   3   4
ATOM      4  C   UNL     1      96.705  82.183  86.280  1.00  0.00     0.078 C 
ATOM      5  O   UNL     1      96.187  81.522  83.953  1.00  0.00    -0.319 OA
ATOM      6  C   UNL     1      95.973  81.146  85.349  1.00  0.00     0.095 C 
ATOM      7  C   UNL     1      96.069  82.928  83.668  1.00  0.00     0.289 C 
ATOM      8  C   UNL     1      94.425  81.214  85.678  1.00  0.00     0.023 C 
ATOM      9  O   UNL     1      96.976  83.694  84.458  1.00  0.00    -0.320 OA
ATOM     10  O   UNL     1      94.772  83.435  83.973  1.00  0.00    -0.313 OA
ATOM     11  C   UNL     1      96.342  83.590  85.742  1.00  0.00     0.170 C 
ATOM     12  C   UNL     1      93.989  82.657  86.081  1.00  0.00     0.049 C 
ATOM     13  C   UNL     1      93.492  80.688  84.575  1.00  0.00     0.011 C 
ATOM     14  C   UNL     1      94.840  83.720  85.385  1.00  0.00     0.122 C 
BRANCH   6  15
ATOM     15  C   UNL     1      96.622  79.737  85.476  1.00  0.00     0.086 C 
ATOM     16  C   UNL     1      96.984  79.281  86.905  1.00  0.00     0.140 CG0
ATOM     17  C   UNL     1      95.913  78.545  84.897  1.00  0.00    -0.010 C 
ATOM     18  C   UNL     1      96.738  77.789  86.843  1.00  0.00     0.190 C 
ATOM     19  G   UNL     1      98.428  79.622  87.271  1.00  0.00     0.000 G0
ATOM     20  C   UNL     1      95.983  77.427  85.628  1.00  0.00    -0.008 C 
ATOM     21  O   UNL     1      97.067  76.981  87.698  1.00  0.00    -0.291 OA
ATOM     22  C   UNL     1      95.484  76.067  85.337  1.00  0.00     0.048 C 
BRANCH  16  23
ATOM     23  O   UNL     1      96.078  79.733  87.898  1.00  0.00    -0.381 OA
ATOM     24  H   UNL     1      96.218  79.208  88.703  1.00  0.00     0.212 HD
ENDBRANCH  16  23
ENDBRANCH   6  15
BRANCH   7  25
ATOM     25  C   UNL     1      96.363  83.142  82.197  1.00  0.00     0.135 C 
BRANCH  25  26
ATOM     26  C   UNL     1      97.231  82.047  81.629  1.00  0.00    -0.040 A 
ATOM     27  C   UNL     1      98.608  82.236  81.518  1.00  0.00     0.004 A 
ATOM     28  C   UNL     1      96.656  80.845  81.217  1.00  0.00     0.004 A 
ATOM     29  C   UNL     1      99.411  81.223  80.993  1.00  0.00     0.000 A 
ATOM     30  C   UNL     1      97.459  79.832  80.692  1.00  0.00     0.000 A 
ATOM     31  C   UNL     1      98.836  80.022  80.580  1.00  0.00     0.000 A 
ENDBRANCH  25  26
ENDBRANCH   7  25
BRANCH  14  32
ATOM     32  C   UNL     1      94.328  85.104  85.612  1.00  0.00    -0.046 C 
ATOM     33  C   UNL     1      93.303  85.262  86.696  1.00  0.00     0.042 C 
ATOM     34  C   UNL     1      94.759  86.148  84.887  1.00  0.00     0.010 C 
ENDBRANCH  14  32
ENDBRANCH   3   4
BRANCH   2  35
ATOM     35  C   UNL     1      98.455  79.638  87.257  1.00  0.00     0.078 CG0
ATOM     36  G   UNL     1      97.009  79.291  86.909  1.00  0.00     0.000 G0
ENDBRANCH   2  35
ENDBRANCH   1   2
BRANCH   1  37
ATOM     37  O   UNL     1     101.075  79.960  86.763  1.00  0.00    -0.461 OA
BRANCH  37  38
ATOM     38  C   UNL     1     102.150  80.015  85.907  1.00  0.00     0.310 C 
ATOM     39  O   UNL     1     103.254  79.538  86.134  1.00  0.00    -0.252 OA
BRANCH  38  40
ATOM     40  C   UNL     1     101.757  80.752  84.649  1.00  0.00     0.158 C 
BRANCH  40  41
ATOM     41  C   UNL     1     101.898  79.912  83.406  1.00  0.00    -0.033 A 
ATOM     42  C   UNL     1     101.067  78.808  83.213  1.00  0.00     0.054 A 
ATOM     43  C   UNL     1     102.859  80.238  82.449  1.00  0.00     0.008 A 
ATOM     44  C   UNL     1     101.198  78.030  82.062  1.00  0.00     0.160 A 
ATOM     45  C   UNL     1     102.989  79.460  81.299  1.00  0.00     0.050 A 
ATOM     46  C   UNL     1     102.160  78.356  81.105  1.00  0.00     0.157 A 
BRANCH  44  47
ATOM     47  O   UNL     1     100.381  76.954  81.885  1.00  0.00    -0.493 OA
ATOM     48  C   UNL     1      99.617  76.527  83.012  1.00  0.00     0.278 C 
ENDBRANCH  44  47
BRANCH  46  49
ATOM     49  O   UNL     1     102.295  77.605  79.978  1.00  0.00    -0.504 OA
ATOM     50  H   UNL     1     102.177  76.667  80.206  1.00  0.00     0.293 HD
ENDBRANCH  46  49
ENDBRANCH  40  41
ENDBRANCH  38  40
ENDBRANCH  37  38
ENDBRANCH   1  37
TORSDOF 11
ENDMDL
MODEL 10
REMARK VINA RESULT:    -5.464      5.113     10.200
REMARK INTER + INTRA:         -10.674
REMARK INTER:                  -9.608
REMARK INTRA:                  -1.066
REMARK UNBOUND:                -1.058
REMARK SMILES C=C(C)[C@]12C[C@@H](C)[C@@]34O[C@](Cc5ccccc5)(O[C@@H]1[C@@H]3C=C(COC(=O)Cc1ccc(O)c(OC)c1)C[C@]1(O)C(=O)C(C)=C[C@@H]41)O2
REMARK SMILES IDX 23 1 22 2 21 3 20 4 9 5 8 6 10 7 6 8 18 9 46 10 19 11 5 12
REMARK SMILES IDX 7 13 4 14 45 15 38 16 44 17 40 18 42 20 41 21 43 22 39 23
REMARK SMILES IDX 11 25 12 26 13 27 17 28 14 29 16 30 15 31 2 32 3 33 1 34
REMARK SMILES IDX 37 35 24 37 25 38 26 39 27 40 28 41 36 42 29 43 33 44 30 45
REMARK SMILES IDX 31 46 34 47 35 48 32 49
REMARK H PARENT 39 24 32 50
REMARK Flexibility Score: 90.00
ROOT
ATOM      1  C   UNL     1     100.617  79.668  73.809  1.00  0.00     0.264 C 
ENDROOT
BRANCH   1   2
ATOM      2  C   UNL     1     100.970  80.099  75.213  1.00  0.00    -0.033 C 
ATOM      3  C   UNL     1      99.986  80.479  76.053  1.00  0.00    -0.015 C 
BRANCH   3   4
ATOM      4  C   UNL     1     100.083  81.021  77.470  1.00  0.00     0.078 C 
ATOM      5  O   UNL     1      99.929  79.081  78.996  1.00  0.00    -0.319 OA
ATOM      6  C   UNL     1     100.820  80.152  78.556  1.00  0.00     0.095 C 
ATOM      7  C   UNL     1      98.560  79.469  79.216  1.00  0.00     0.289 C 
ATOM      8  C   UNL     1     101.150  81.097  79.784  1.00  0.00     0.023 C 
ATOM      9  O   UNL     1      97.989  80.040  78.041  1.00  0.00    -0.320 OA
ATOM     10  O   UNL     1      98.436  80.466  80.227  1.00  0.00    -0.313 OA
ATOM     11  C   UNL     1      98.665  81.307  78.022  1.00  0.00     0.170 C 
ATOM     12  C   UNL     1     100.055  82.191  79.973  1.00  0.00     0.049 C 
ATOM     13  C   UNL     1     101.392  80.379  81.122  1.00  0.00     0.011 C 
ATOM     14  C   UNL     1      98.680  81.700  79.520  1.00  0.00     0.122 C 
BRANCH   6  15
ATOM     15  C   UNL     1     102.040  79.411  77.935  1.00  0.00     0.086 C 
ATOM     16  C   UNL     1     102.912  80.234  76.964  1.00  0.00     0.140 CG0
ATOM     17  C   UNL     1     103.046  78.760  78.842  1.00  0.00    -0.010 C 
ATOM     18  C   UNL     1     104.299  79.685  77.226  1.00  0.00     0.190 C 
ATOM     19  G   UNL     1     102.479  80.058  75.509  1.00  0.00     0.000 G0
ATOM     20  C   UNL     1     104.321  78.872  78.457  1.00  0.00    -0.008 C 
ATOM     21  O   UNL     1     105.290  79.914  76.550  1.00  0.00    -0.291 OA
ATOM     22  C   UNL     1     105.548  78.298  79.047  1.00  0.00     0.048 C 
BRANCH  16  23
ATOM     23  O   UNL     1     103.020  81.605  77.310  1.00  0.00    -0.381 OA
ATOM     24  H   UNL     1     103.929  81.896  77.130  1.00  0.00     0.212 HD
ENDBRANCH  16  23
ENDBRANCH   6  15
BRANCH   7  25
ATOM     25  C   UNL     1      97.775  78.238  79.620  1.00  0.00     0.135 C 
BRANCH  25  26
ATOM     26  C   UNL     1      97.976  77.097  78.655  1.00  0.00    -0.040 A 
ATOM     27  C   UNL     1      98.995  76.169  78.875  1.00  0.00     0.004 A 
ATOM     28  C   UNL     1      97.144  76.968  77.543  1.00  0.00     0.004 A 
ATOM     29  C   UNL     1      99.181  75.113  77.982  1.00  0.00     0.000 A 
ATOM     30  C   UNL     1      97.330  75.912  76.650  1.00  0.00     0.000 A 
ATOM     31  C   UNL     1      98.349  74.985  76.870  1.00  0.00     0.000 A 
ENDBRANCH  25  26
ENDBRANCH   7  25
BRANCH  14  32
ATOM     32  C   UNL     1      97.587  82.660  79.859  1.00  0.00    -0.046 C 
ATOM     33  C   UNL     1      97.144  83.576  78.757  1.00  0.00     0.042 C 
ATOM     34  C   UNL     1      97.032  82.702  81.080  1.00  0.00     0.010 C 
ENDBRANCH  14  32
ENDBRANCH   3   4
BRANCH   2  35
ATOM     35  C   UNL     1     102.458  80.034  75.499  1.00  0.00     0.078 CG0
ATOM     36  G   UNL     1     102.901  80.231  76.948  1.00  0.00     0.000 G0
ENDBRANCH   2  35
ENDBRANCH   1   2
BRANCH   1  37
ATOM     37  O   UNL     1      99.745  80.618  73.234  1.00  0.00    -0.461 OA
BRANCH  37  38
ATOM     38  C   UNL     1      99.194  80.282  72.019  1.00  0.00     0.310 C 
ATOM     39  O   UNL     1      99.030  79.139  71.615  1.00  0.00    -0.252 OA
BRANCH  38  40
ATOM     40  C   UNL     1      98.826  81.539  71.267  1.00  0.00     0.158 C 
BRANCH  40  41
ATOM     41  C   UNL     1      99.038  82.792  72.076  1.00  0.00    -0.033 A 
ATOM     42  C   UNL     1     100.163  83.586  71.851  1.00  0.00     0.054 A 
ATOM     43  C   UNL     1      98.109  83.158  73.050  1.00  0.00     0.008 A 
ATOM     44  C   UNL     1     100.359  84.746  72.601  1.00  0.00     0.160 A 
ATOM     45  C   UNL     1      98.305  84.319  73.800  1.00  0.00     0.050 A 
ATOM     46  C   UNL     1      99.430  85.112  73.576  1.00  0.00     0.157 A 
BRANCH  44  47
ATOM     47  O   UNL     1     101.461  85.513  72.372  1.00  0.00    -0.493 OA
ATOM     48  C   UNL     1     102.329  85.103  71.316  1.00  0.00     0.278 C 
ENDBRANCH  44  47
BRANCH  46  49
ATOM     49  O   UNL     1      99.610  86.243  74.312  1.00  0.00    -0.504 OA
ATOM     50  H   UNL     1      98.951  86.905  74.043  1.00  0.00     0.293 HD
ENDBRANCH  46  49
ENDBRANCH  40  41
ENDBRANCH  38  40
ENDBRANCH  37  38
ENDBRANCH   1  37
TORSDOF 11
ENDMDL
