MODEL 1
REMARK VINA RESULT:    -5.990      0.000      0.000
REMARK INTER + INTRA:         -10.439
REMARK INTER:                  -9.666
REMARK INTRA:                  -0.773
REMARK UNBOUND:                -0.773
REMARK SMILES COc1cc(CNC(=O)CCCCCCC(C)C)ccc1O
REMARK SMILES IDX 11 1 10 2 8 3 7 4 9 6 6 7 5 8 3 9 21 10 4 11 20 12 19 13
REMARK SMILES IDX 2 14 1 15 22 16 12 18 13 19 14 20 15 21 16 22 17 23 18 24
REMARK H PARENT 7 5 22 17
REMARK Flexibility Score: inf
ROOT
ATOM      1  C   UNL     1      94.812  95.588  75.137  1.00  0.00     0.010 C 
ENDROOT
BRANCH   1   2
ATOM      2  C   UNL     1      94.497  94.099  75.449  1.00  0.00     0.100 C 
BRANCH   2   3
ATOM      3  C   UNL     1      93.145  93.684  75.014  1.00  0.00     0.220 C 
ATOM      4  N   UNL     1      92.961  92.489  74.380  1.00  0.00    -0.352 N 
ATOM      5  H   UNL     1      93.809  91.969  74.208  1.00  0.00     0.163 HD
ATOM      6  O   UNL     1      92.174  94.440  75.262  1.00  0.00    -0.275 OA
BRANCH   4   7
ATOM      7  C   UNL     1      91.697  91.959  73.967  1.00  0.00     0.151 C 
BRANCH   7   8
ATOM      8  C   UNL     1      91.239  90.816  74.803  1.00  0.00    -0.025 A 
ATOM      9  C   UNL     1      90.063  89.966  76.789  1.00  0.00     0.160 A 
ATOM     10  C   UNL     1      90.325  88.640  76.379  1.00  0.00     0.157 A 
ATOM     11  C   UNL     1      90.538  91.042  76.009  1.00  0.00     0.056 A 
ATOM     12  C   UNL     1      91.056  88.403  75.201  1.00  0.00     0.050 A 
ATOM     13  C   UNL     1      91.501  89.481  74.412  1.00  0.00     0.009 A 
BRANCH   9  14
ATOM     14  O   UNL     1      89.388  90.209  77.954  1.00  0.00    -0.493 OA
ATOM     15  C   UNL     1      90.242  90.557  79.058  1.00  0.00     0.278 C 
ENDBRANCH   9  14
BRANCH  10  16
ATOM     16  O   UNL     1      89.881  87.585  77.112  1.00  0.00    -0.504 OA
ATOM     17  H   UNL     1      89.833  87.836  78.037  1.00  0.00     0.293 HD
ENDBRANCH  10  16
ENDBRANCH   7   8
ENDBRANCH   4   7
ENDBRANCH   2   3
ENDBRANCH   1   2
BRANCH   1  18
ATOM     18  C   UNL     1      96.291  95.953  75.451  1.00  0.00     0.001 C 
BRANCH  18  19
ATOM     19  C   UNL     1      96.506  96.523  76.881  1.00  0.00     0.000 C 
BRANCH  19  20
ATOM     20  C   UNL     1      96.952  95.416  77.878  1.00  0.00     0.000 C 
BRANCH  20  21
ATOM     21  C   UNL     1      95.892  95.069  78.960  1.00  0.00     0.003 C 
BRANCH  21  22
ATOM     22  C   UNL     1      96.203  95.639  80.382  1.00  0.00    -0.017 C 
ATOM     23  C   UNL     1      97.690  95.381  80.757  1.00  0.00     0.007 C 
ATOM     24  C   UNL     1      95.258  95.096  81.494  1.00  0.00     0.007 C 
ENDBRANCH  21  22
ENDBRANCH  20  21
ENDBRANCH  19  20
ENDBRANCH  18  19
ENDBRANCH   1  18
TORSDOF 11
ENDMDL
MODEL 2
REMARK VINA RESULT:    -5.980      3.925      6.429
REMARK INTER + INTRA:         -10.423
REMARK INTER:                  -9.747
REMARK INTRA:                  -0.675
REMARK UNBOUND:                -0.773
REMARK SMILES COc1cc(CNC(=O)CCCCCCC(C)C)ccc1O
REMARK SMILES IDX 11 1 10 2 8 3 7 4 9 6 6 7 5 8 3 9 21 10 4 11 20 12 19 13
REMARK SMILES IDX 2 14 1 15 22 16 12 18 13 19 14 20 15 21 16 22 17 23 18 24
REMARK H PARENT 7 5 22 17
REMARK Flexibility Score: inf
ROOT
ATOM      1  C   UNL     1      94.170  96.754  74.365  1.00  0.00     0.010 C 
ENDROOT
BRANCH   1   2
ATOM      2  C   UNL     1      95.275  95.851  74.977  1.00  0.00     0.100 C 
BRANCH   2   3
ATOM      3  C   UNL     1      94.800  95.037  76.118  1.00  0.00     0.220 C 
ATOM      4  N   UNL     1      93.523  94.556  76.137  1.00  0.00    -0.352 N 
ATOM      5  H   UNL     1      92.954  94.840  75.353  1.00  0.00     0.163 HD
ATOM      6  O   UNL     1      95.601  94.780  77.050  1.00  0.00    -0.275 OA
BRANCH   4   7
ATOM      7  C   UNL     1      92.972  93.713  77.155  1.00  0.00     0.151 C 
BRANCH   7   8
ATOM      8  C   UNL     1      91.768  92.961  76.706  1.00  0.00    -0.025 A 
ATOM      9  C   UNL     1      90.414  91.994  74.895  1.00  0.00     0.160 A 
ATOM     10  C   UNL     1      89.500  91.490  75.845  1.00  0.00     0.157 A 
ATOM     11  C   UNL     1      91.529  92.740  75.330  1.00  0.00     0.056 A 
ATOM     12  C   UNL     1      89.705  91.737  77.214  1.00  0.00     0.050 A 
ATOM     13  C   UNL     1      90.837  92.457  77.644  1.00  0.00     0.009 A 
BRANCH   9  14
ATOM     14  O   UNL     1      90.202  91.794  73.558  1.00  0.00    -0.493 OA
ATOM     15  C   UNL     1      89.696  92.953  72.871  1.00  0.00     0.278 C 
ENDBRANCH   9  14
BRANCH  10  16
ATOM     16  O   UNL     1      88.416  90.769  75.454  1.00  0.00    -0.504 OA
ATOM     17  H   UNL     1      87.626  91.135  75.859  1.00  0.00     0.293 HD
ENDBRANCH  10  16
ENDBRANCH   7   8
ENDBRANCH   4   7
ENDBRANCH   2   3
ENDBRANCH   1   2
BRANCH   1  18
ATOM     18  C   UNL     1      94.755  97.826  73.401  1.00  0.00     0.001 C 
BRANCH  18  19
ATOM     19  C   UNL     1      93.705  98.433  72.428  1.00  0.00     0.000 C 
BRANCH  19  20
ATOM     20  C   UNL     1      94.056  98.126  70.945  1.00  0.00     0.000 C 
BRANCH  20  21
ATOM     21  C   UNL     1      93.430  99.117  69.924  1.00  0.00     0.003 C 
BRANCH  21  22
ATOM     22  C   UNL     1      91.939  99.491  70.212  1.00  0.00    -0.017 C 
ATOM     23  C   UNL     1      90.983  98.613  69.356  1.00  0.00     0.007 C 
ATOM     24  C   UNL     1      91.623 101.002  70.005  1.00  0.00     0.007 C 
ENDBRANCH  21  22
ENDBRANCH  20  21
ENDBRANCH  19  20
ENDBRANCH  18  19
ENDBRANCH   1  18
TORSDOF 11
ENDMDL
MODEL 3
REMARK VINA RESULT:    -5.814     26.374     29.304
REMARK INTER + INTRA:         -10.155
REMARK INTER:                  -7.989
REMARK INTRA:                  -2.166
REMARK UNBOUND:                -0.773
REMARK SMILES COc1cc(CNC(=O)CCCCCCC(C)C)ccc1O
REMARK SMILES IDX 11 1 10 2 8 3 7 4 9 6 6 7 5 8 3 9 21 10 4 11 20 12 19 13
REMARK SMILES IDX 2 14 1 15 22 16 12 18 13 19 14 20 15 21 16 22 17 23 18 24
REMARK H PARENT 7 5 22 17
REMARK Flexibility Score: inf
ROOT
ATOM      1  C   UNL     1      80.345  65.107  73.126  1.00  0.00     0.010 C 
ENDROOT
BRANCH   1   2
ATOM      2  C   UNL     1      80.236  66.273  74.147  1.00  0.00     0.100 C 
BRANCH   2   3
ATOM      3  C   UNL     1      81.094  66.089  75.339  1.00  0.00     0.220 C 
ATOM      4  N   UNL     1      81.531  64.845  75.688  1.00  0.00    -0.352 N 
ATOM      5  H   UNL     1      81.185  64.098  75.104  1.00  0.00     0.163 HD
ATOM      6  O   UNL     1      81.429  67.102  76.001  1.00  0.00    -0.275 OA
BRANCH   4   7
ATOM      7  C   UNL     1      82.408  64.553  76.781  1.00  0.00     0.151 C 
BRANCH   7   8
ATOM      8  C   UNL     1      83.843  64.515  76.387  1.00  0.00    -0.025 A 
ATOM      9  C   UNL     1      86.000  65.658  76.087  1.00  0.00     0.160 A 
ATOM     10  C   UNL     1      86.590  64.442  75.679  1.00  0.00     0.157 A 
ATOM     11  C   UNL     1      84.629  65.689  76.419  1.00  0.00     0.056 A 
ATOM     12  C   UNL     1      85.809  63.274  75.606  1.00  0.00     0.050 A 
ATOM     13  C   UNL     1      84.448  63.307  75.967  1.00  0.00     0.009 A 
BRANCH   9  14
ATOM     14  O   UNL     1      86.742  66.807  76.123  1.00  0.00    -0.493 OA
ATOM     15  C   UNL     1      85.960  68.007  75.979  1.00  0.00     0.278 C 
ENDBRANCH   9  14
BRANCH  10  16
ATOM     16  O   UNL     1      87.908  64.382  75.352  1.00  0.00    -0.504 OA
ATOM     17  H   UNL     1      87.997  64.287  74.401  1.00  0.00     0.293 HD
ENDBRANCH  10  16
ENDBRANCH   7   8
ENDBRANCH   4   7
ENDBRANCH   2   3
ENDBRANCH   1   2
BRANCH   1  18
ATOM     18  C   UNL     1      80.342  65.613  71.655  1.00  0.00     0.001 C 
BRANCH  18  19
ATOM     19  C   UNL     1      80.307  67.162  71.525  1.00  0.00     0.000 C 
BRANCH  19  20
ATOM     20  C   UNL     1      81.650  67.720  70.975  1.00  0.00     0.000 C 
BRANCH  20  21
ATOM     21  C   UNL     1      82.793  66.671  70.901  1.00  0.00     0.003 C 
BRANCH  21  22
ATOM     22  C   UNL     1      83.845  66.772  72.054  1.00  0.00    -0.017 C 
ATOM     23  C   UNL     1      84.006  65.399  72.764  1.00  0.00     0.007 C 
ATOM     24  C   UNL     1      83.529  67.889  73.092  1.00  0.00     0.007 C 
ENDBRANCH  21  22
ENDBRANCH  20  21
ENDBRANCH  19  20
ENDBRANCH  18  19
ENDBRANCH   1  18
TORSDOF 11
ENDMDL
MODEL 4
REMARK VINA RESULT:    -5.802      2.539      4.505
REMARK INTER + INTRA:         -10.136
REMARK INTER:                  -9.339
REMARK INTRA:                  -0.797
REMARK UNBOUND:                -0.773
REMARK SMILES COc1cc(CNC(=O)CCCCCCC(C)C)ccc1O
REMARK SMILES IDX 11 1 10 2 8 3 7 4 9 6 6 7 5 8 3 9 21 10 4 11 20 12 19 13
REMARK SMILES IDX 2 14 1 15 22 16 12 18 13 19 14 20 15 21 16 22 17 23 18 24
REMARK H PARENT 7 5 22 17
REMARK Flexibility Score: inf
ROOT
ATOM      1  C   UNL     1      95.100  94.033  76.547  1.00  0.00     0.010 C 
ENDROOT
BRANCH   1   2
ATOM      2  C   UNL     1      94.064  94.183  77.696  1.00  0.00     0.100 C 
BRANCH   2   3
ATOM      3  C   UNL     1      92.676  93.886  77.275  1.00  0.00     0.220 C 
ATOM      4  N   UNL     1      92.177  92.621  77.389  1.00  0.00    -0.352 N 
ATOM      5  H   UNL     1      92.836  91.938  77.731  1.00  0.00     0.163 HD
ATOM      6  O   UNL     1      91.967  94.824  76.836  1.00  0.00    -0.275 OA
BRANCH   4   7
ATOM      7  C   UNL     1      90.838  92.230  77.070  1.00  0.00     0.151 C 
BRANCH   7   8
ATOM      8  C   UNL     1      90.685  91.750  75.669  1.00  0.00    -0.025 A 
ATOM      9  C   UNL     1      90.761  89.924  74.024  1.00  0.00     0.160 A 
ATOM     10  C   UNL     1      90.353  90.817  73.009  1.00  0.00     0.157 A 
ATOM     11  C   UNL     1      90.942  90.400  75.339  1.00  0.00     0.056 A 
ATOM     12  C   UNL     1      90.132  92.172  73.317  1.00  0.00     0.050 A 
ATOM     13  C   UNL     1      90.286  92.634  74.639  1.00  0.00     0.009 A 
BRANCH   9  14
ATOM     14  O   UNL     1      91.017  88.613  73.727  1.00  0.00    -0.493 OA
ATOM     15  C   UNL     1      90.807  87.716  74.833  1.00  0.00     0.278 C 
ENDBRANCH   9  14
BRANCH  10  16
ATOM     16  O   UNL     1      90.173  90.387  71.733  1.00  0.00    -0.504 OA
ATOM     17  H   UNL     1      89.549  90.964  71.287  1.00  0.00     0.293 HD
ENDBRANCH  10  16
ENDBRANCH   7   8
ENDBRANCH   4   7
ENDBRANCH   2   3
ENDBRANCH   1   2
BRANCH   1  18
ATOM     18  C   UNL     1      94.514  94.455  75.170  1.00  0.00     0.001 C 
BRANCH  18  19
ATOM     19  C   UNL     1      94.631  95.978  74.879  1.00  0.00     0.000 C 
BRANCH  19  20
ATOM     20  C   UNL     1      95.970  96.560  75.412  1.00  0.00     0.000 C 
BRANCH  20  21
ATOM     21  C   UNL     1      97.188  96.316  74.479  1.00  0.00     0.003 C 
BRANCH  21  22
ATOM     22  C   UNL     1      96.951  96.713  72.985  1.00  0.00    -0.017 C 
ATOM     23  C   UNL     1      98.140  96.240  72.102  1.00  0.00     0.007 C 
ATOM     24  C   UNL     1      96.688  98.234  72.776  1.00  0.00     0.007 C 
ENDBRANCH  21  22
ENDBRANCH  20  21
ENDBRANCH  19  20
ENDBRANCH  18  19
ENDBRANCH   1  18
TORSDOF 11
ENDMDL
MODEL 5
REMARK VINA RESULT:    -5.691     24.099     28.369
REMARK INTER + INTRA:          -9.957
REMARK INTER:                  -8.651
REMARK INTRA:                  -1.306
REMARK UNBOUND:                -0.773
REMARK SMILES COc1cc(CNC(=O)CCCCCCC(C)C)ccc1O
REMARK SMILES IDX 11 1 10 2 8 3 7 4 9 6 6 7 5 8 3 9 21 10 4 11 20 12 19 13
REMARK SMILES IDX 2 14 1 15 22 16 12 18 13 19 14 20 15 21 16 22 17 23 18 24
REMARK H PARENT 7 5 22 17
REMARK Flexibility Score: inf
ROOT
ATOM      1  C   UNL     1      81.125  64.242  74.122  1.00  0.00     0.010 C 
ENDROOT
BRANCH   1   2
ATOM      2  C   UNL     1      81.566  64.756  75.520  1.00  0.00     0.100 C 
BRANCH   2   3
ATOM      3  C   UNL     1      83.023  64.641  75.753  1.00  0.00     0.220 C 
ATOM      4  N   UNL     1      83.606  65.287  76.804  1.00  0.00    -0.352 N 
ATOM      5  H   UNL     1      82.977  65.858  77.349  1.00  0.00     0.163 HD
ATOM      6  O   UNL     1      83.701  63.920  74.980  1.00  0.00    -0.275 OA
BRANCH   4   7
ATOM      7  C   UNL     1      84.990  65.203  77.160  1.00  0.00     0.151 C 
BRANCH   7   8
ATOM      8  C   UNL     1      85.544  66.488  77.668  1.00  0.00    -0.025 A 
ATOM      9  C   UNL     1      85.834  68.919  77.441  1.00  0.00     0.160 A 
ATOM     10  C   UNL     1      86.559  68.948  78.653  1.00  0.00     0.157 A 
ATOM     11  C   UNL     1      85.349  67.689  76.950  1.00  0.00     0.056 A 
ATOM     12  C   UNL     1      86.793  67.753  79.357  1.00  0.00     0.050 A 
ATOM     13  C   UNL     1      86.281  66.533  78.875  1.00  0.00     0.009 A 
BRANCH   9  14
ATOM     14  O   UNL     1      85.635  70.070  76.728  1.00  0.00    -0.493 OA
ATOM     15  C   UNL     1      86.521  70.216  75.603  1.00  0.00     0.278 C 
ENDBRANCH   9  14
BRANCH  10  16
ATOM     16  O   UNL     1      87.039  70.118  79.149  1.00  0.00    -0.504 OA
ATOM     17  H   UNL     1      87.018  70.091  80.109  1.00  0.00     0.293 HD
ENDBRANCH  10  16
ENDBRANCH   7   8
ENDBRANCH   4   7
ENDBRANCH   2   3
ENDBRANCH   1   2
BRANCH   1  18
ATOM     18  C   UNL     1      80.020  65.135  73.489  1.00  0.00     0.001 C 
BRANCH  18  19
ATOM     19  C   UNL     1      80.216  65.392  71.969  1.00  0.00     0.000 C 
BRANCH  19  20
ATOM     20  C   UNL     1      80.199  66.911  71.638  1.00  0.00     0.000 C 
BRANCH  20  21
ATOM     21  C   UNL     1      80.827  67.809  72.739  1.00  0.00     0.003 C 
BRANCH  21  22
ATOM     22  C   UNL     1      82.310  68.228  72.469  1.00  0.00    -0.017 C 
ATOM     23  C   UNL     1      82.644  68.101  70.956  1.00  0.00     0.007 C 
ATOM     24  C   UNL     1      83.347  67.441  73.324  1.00  0.00     0.007 C 
ENDBRANCH  21  22
ENDBRANCH  20  21
ENDBRANCH  19  20
ENDBRANCH  18  19
ENDBRANCH   1  18
TORSDOF 11
ENDMDL
MODEL 6
REMARK VINA RESULT:    -5.562     10.564     13.543
REMARK INTER + INTRA:          -9.748
REMARK INTER:                  -9.598
REMARK INTRA:                  -0.150
REMARK UNBOUND:                -0.773
REMARK SMILES COc1cc(CNC(=O)CCCCCCC(C)C)ccc1O
REMARK SMILES IDX 11 1 10 2 8 3 7 4 9 6 6 7 5 8 3 9 21 10 4 11 20 12 19 13
REMARK SMILES IDX 2 14 1 15 22 16 12 18 13 19 14 20 15 21 16 22 17 23 18 24
REMARK H PARENT 7 5 22 17
REMARK Flexibility Score: inf
ROOT
ATOM      1  C   UNL     1      97.178  82.898  83.288  1.00  0.00     0.010 C 
ENDROOT
BRANCH   1   2
ATOM      2  C   UNL     1      97.225  84.202  84.131  1.00  0.00     0.100 C 
BRANCH   2   3
ATOM      3  C   UNL     1      96.107  84.316  85.095  1.00  0.00     0.220 C 
ATOM      4  N   UNL     1      96.012  85.403  85.915  1.00  0.00    -0.352 N 
ATOM      5  H   UNL     1      96.771  86.063  85.829  1.00  0.00     0.163 HD
ATOM      6  O   UNL     1      95.242  83.407  85.123  1.00  0.00    -0.275 OA
BRANCH   4   7
ATOM      7  C   UNL     1      94.950  85.648  86.842  1.00  0.00     0.151 C 
BRANCH   7   8
ATOM      8  C   UNL     1      94.905  87.055  87.324  1.00  0.00    -0.025 A 
ATOM      9  C   UNL     1      94.242  88.704  89.025  1.00  0.00     0.160 A 
ATOM     10  C   UNL     1      94.853  89.730  88.272  1.00  0.00     0.157 A 
ATOM     11  C   UNL     1      94.256  87.380  88.537  1.00  0.00     0.056 A 
ATOM     12  C   UNL     1      95.468  89.426  87.044  1.00  0.00     0.050 A 
ATOM     13  C   UNL     1      95.504  88.097  86.577  1.00  0.00     0.009 A 
BRANCH   9  14
ATOM     14  O   UNL     1      93.607  88.995  90.201  1.00  0.00    -0.493 OA
ATOM     15  C   UNL     1      92.529  89.938  90.060  1.00  0.00     0.278 C 
ENDBRANCH   9  14
BRANCH  10  16
ATOM     16  O   UNL     1      94.854  91.014  88.716  1.00  0.00    -0.504 OA
ATOM     17  H   UNL     1      95.264  91.580  88.058  1.00  0.00     0.293 HD
ENDBRANCH  10  16
ENDBRANCH   7   8
ENDBRANCH   4   7
ENDBRANCH   2   3
ENDBRANCH   1   2
BRANCH   1  18
ATOM     18  C   UNL     1      96.685  83.154  81.836  1.00  0.00     0.001 C 
BRANCH  18  19
ATOM     19  C   UNL     1      97.336  82.218  80.779  1.00  0.00     0.000 C 
BRANCH  19  20
ATOM     20  C   UNL     1      98.598  82.865  80.142  1.00  0.00     0.000 C 
BRANCH  20  21
ATOM     21  C   UNL     1      98.722  82.645  78.609  1.00  0.00     0.003 C 
BRANCH  21  22
ATOM     22  C   UNL     1      97.373  82.751  77.825  1.00  0.00    -0.017 C 
ATOM     23  C   UNL     1      96.955  81.360  77.271  1.00  0.00     0.007 C 
ATOM     24  C   UNL     1      97.395  83.809  76.682  1.00  0.00     0.007 C 
ENDBRANCH  21  22
ENDBRANCH  20  21
ENDBRANCH  19  20
ENDBRANCH  18  19
ENDBRANCH   1  18
TORSDOF 11
ENDMDL
MODEL 7
REMARK VINA RESULT:    -5.548     24.946     28.513
REMARK INTER + INTRA:          -9.727
REMARK INTER:                  -8.468
REMARK INTRA:                  -1.258
REMARK UNBOUND:                -0.773
REMARK SMILES COc1cc(CNC(=O)CCCCCCC(C)C)ccc1O
REMARK SMILES IDX 11 1 10 2 8 3 7 4 9 6 6 7 5 8 3 9 21 10 4 11 20 12 19 13
REMARK SMILES IDX 2 14 1 15 22 16 12 18 13 19 14 20 15 21 16 22 17 23 18 24
REMARK H PARENT 7 5 22 17
REMARK Flexibility Score: inf
ROOT
ATOM      1  C   UNL     1      81.220  64.244  74.148  1.00  0.00     0.010 C 
ENDROOT
BRANCH   1   2
ATOM      2  C   UNL     1      81.609  64.812  75.541  1.00  0.00     0.100 C 
BRANCH   2   3
ATOM      3  C   UNL     1      83.047  64.655  75.855  1.00  0.00     0.220 C 
ATOM      4  N   UNL     1      83.631  65.429  76.814  1.00  0.00    -0.352 N 
ATOM      5  H   UNL     1      83.020  66.116  77.231  1.00  0.00     0.163 HD
ATOM      6  O   UNL     1      83.705  63.781  75.240  1.00  0.00    -0.275 OA
BRANCH   4   7
ATOM      7  C   UNL     1      84.993  65.327  77.242  1.00  0.00     0.151 C 
BRANCH   7   8
ATOM      8  C   UNL     1      85.557  66.620  77.720  1.00  0.00    -0.025 A 
ATOM      9  C   UNL     1      86.991  67.872  79.276  1.00  0.00     0.160 A 
ATOM     10  C   UNL     1      86.670  69.074  78.608  1.00  0.00     0.157 A 
ATOM     11  C   UNL     1      86.418  66.659  78.840  1.00  0.00     0.056 A 
ATOM     12  C   UNL     1      85.783  69.053  77.516  1.00  0.00     0.050 A 
ATOM     13  C   UNL     1      85.238  67.834  77.067  1.00  0.00     0.009 A 
BRANCH   9  14
ATOM     14  O   UNL     1      87.821  67.887  80.364  1.00  0.00    -0.493 OA
ATOM     15  C   UNL     1      87.284  67.207  81.513  1.00  0.00     0.278 C 
ENDBRANCH   9  14
BRANCH  10  16
ATOM     16  O   UNL     1      87.206  70.257  79.008  1.00  0.00    -0.504 OA
ATOM     17  H   UNL     1      87.341  70.821  78.243  1.00  0.00     0.293 HD
ENDBRANCH  10  16
ENDBRANCH   7   8
ENDBRANCH   4   7
ENDBRANCH   2   3
ENDBRANCH   1   2
BRANCH   1  18
ATOM     18  C   UNL     1      80.060  65.046  73.490  1.00  0.00     0.001 C 
BRANCH  18  19
ATOM     19  C   UNL     1      80.249  65.285  71.966  1.00  0.00     0.000 C 
BRANCH  19  20
ATOM     20  C   UNL     1      80.184  66.797  71.611  1.00  0.00     0.000 C 
BRANCH  20  21
ATOM     21  C   UNL     1      80.742  67.735  72.717  1.00  0.00     0.003 C 
BRANCH  21  22
ATOM     22  C   UNL     1      82.219  68.197  72.494  1.00  0.00    -0.017 C 
ATOM     23  C   UNL     1      82.583  68.144  70.983  1.00  0.00     0.007 C 
ATOM     24  C   UNL     1      83.258  67.396  73.333  1.00  0.00     0.007 C 
ENDBRANCH  21  22
ENDBRANCH  20  21
ENDBRANCH  19  20
ENDBRANCH  18  19
ENDBRANCH   1  18
TORSDOF 11
ENDMDL
MODEL 8
REMARK VINA RESULT:    -5.502     14.371     15.689
REMARK INTER + INTRA:          -9.651
REMARK INTER:                  -8.902
REMARK INTRA:                  -0.749
REMARK UNBOUND:                -0.773
REMARK SMILES COc1cc(CNC(=O)CCCCCCC(C)C)ccc1O
REMARK SMILES IDX 11 1 10 2 8 3 7 4 9 6 6 7 5 8 3 9 21 10 4 11 20 12 19 13
REMARK SMILES IDX 2 14 1 15 22 16 12 18 13 19 14 20 15 21 16 22 17 23 18 24
REMARK H PARENT 7 5 22 17
REMARK Flexibility Score: inf
ROOT
ATOM      1  C   UNL     1      83.244  93.829  89.092  1.00  0.00     0.010 C 
ENDROOT
BRANCH   1   2
ATOM      2  C   UNL     1      82.288  92.646  88.776  1.00  0.00     0.100 C 
BRANCH   2   3
ATOM      3  C   UNL     1      82.938  91.556  88.014  1.00  0.00     0.220 C 
ATOM      4  N   UNL     1      82.593  91.324  86.714  1.00  0.00    -0.352 N 
ATOM      5  H   UNL     1      81.854  91.914  86.362  1.00  0.00     0.163 HD
ATOM      6  O   UNL     1      83.825  90.872  88.580  1.00  0.00    -0.275 OA
BRANCH   4   7
ATOM      7  C   UNL     1      83.192  90.340  85.864  1.00  0.00     0.151 C 
BRANCH   7   8
ATOM      8  C   UNL     1      82.232  89.301  85.401  1.00  0.00    -0.025 A 
ATOM      9  C   UNL     1      81.636  86.933  85.106  1.00  0.00     0.160 A 
ATOM     10  C   UNL     1      80.388  87.313  84.564  1.00  0.00     0.157 A 
ATOM     11  C   UNL     1      82.554  87.928  85.502  1.00  0.00     0.056 A 
ATOM     12  C   UNL     1      80.072  88.676  84.422  1.00  0.00     0.050 A 
ATOM     13  C   UNL     1      80.982  89.664  84.847  1.00  0.00     0.009 A 
BRANCH   9  14
ATOM     14  O   UNL     1      81.969  85.610  85.212  1.00  0.00    -0.493 OA
ATOM     15  C   UNL     1      82.556  85.260  86.478  1.00  0.00     0.278 C 
ENDBRANCH   9  14
BRANCH  10  16
ATOM     16  O   UNL     1      79.485  86.376  84.172  1.00  0.00    -0.504 OA
ATOM     17  H   UNL     1      79.814  85.502  84.396  1.00  0.00     0.293 HD
ENDBRANCH  10  16
ENDBRANCH   7   8
ENDBRANCH   4   7
ENDBRANCH   2   3
ENDBRANCH   1   2
BRANCH   1  18
ATOM     18  C   UNL     1      83.904  94.410  87.809  1.00  0.00     0.001 C 
BRANCH  18  19
ATOM     19  C   UNL     1      83.205  95.690  87.270  1.00  0.00     0.000 C 
BRANCH  19  20
ATOM     20  C   UNL     1      82.539  96.503  88.415  1.00  0.00     0.000 C 
BRANCH  20  21
ATOM     21  C   UNL     1      80.986  96.485  88.389  1.00  0.00     0.003 C 
BRANCH  21  22
ATOM     22  C   UNL     1      80.331  97.764  87.772  1.00  0.00    -0.017 C 
ATOM     23  C   UNL     1      78.884  97.948  88.311  1.00  0.00     0.007 C 
ATOM     24  C   UNL     1      80.339  97.780  86.215  1.00  0.00     0.007 C 
ENDBRANCH  21  22
ENDBRANCH  20  21
ENDBRANCH  19  20
ENDBRANCH  18  19
ENDBRANCH   1  18
TORSDOF 11
ENDMDL
MODEL 9
REMARK VINA RESULT:    -5.461      2.989      4.568
REMARK INTER + INTRA:          -9.585
REMARK INTER:                  -8.433
REMARK INTRA:                  -1.152
REMARK UNBOUND:                -0.773
REMARK SMILES COc1cc(CNC(=O)CCCCCCC(C)C)ccc1O
REMARK SMILES IDX 11 1 10 2 8 3 7 4 9 6 6 7 5 8 3 9 21 10 4 11 20 12 19 13
REMARK SMILES IDX 2 14 1 15 22 16 12 18 13 19 14 20 15 21 16 22 17 23 18 24
REMARK H PARENT 7 5 22 17
REMARK Flexibility Score: inf
ROOT
ATOM      1  C   UNL     1      94.058  96.967  74.195  1.00  0.00     0.010 C 
ENDROOT
BRANCH   1   2
ATOM      2  C   UNL     1      95.278  96.168  74.730  1.00  0.00     0.100 C 
BRANCH   2   3
ATOM      3  C   UNL     1      94.945  95.289  75.874  1.00  0.00     0.220 C 
ATOM      4  N   UNL     1      93.747  94.638  75.917  1.00  0.00    -0.352 N 
ATOM      5  H   UNL     1      93.127  94.846  75.148  1.00  0.00     0.163 HD
ATOM      6  O   UNL     1      95.796  95.139  76.785  1.00  0.00    -0.275 OA
BRANCH   4   7
ATOM      7  C   UNL     1      93.341  93.721  76.939  1.00  0.00     0.151 C 
BRANCH   7   8
ATOM      8  C   UNL     1      92.070  93.013  76.621  1.00  0.00    -0.025 A 
ATOM      9  C   UNL     1      90.522  92.058  74.966  1.00  0.00     0.160 A 
ATOM     10  C   UNL     1      89.673  91.624  76.008  1.00  0.00     0.157 A 
ATOM     11  C   UNL     1      91.702  92.765  75.279  1.00  0.00     0.056 A 
ATOM     12  C   UNL     1      90.009  91.900  77.345  1.00  0.00     0.050 A 
ATOM     13  C   UNL     1      91.204  92.580  77.652  1.00  0.00     0.009 A 
BRANCH   9  14
ATOM     14  O   UNL     1      90.184  91.830  73.660  1.00  0.00    -0.493 OA
ATOM     15  C   UNL     1      89.618  92.976  72.998  1.00  0.00     0.278 C 
ENDBRANCH   9  14
BRANCH  10  16
ATOM     16  O   UNL     1      88.528  90.944  75.736  1.00  0.00    -0.504 OA
ATOM     17  H   UNL     1      88.149  91.272  74.917  1.00  0.00     0.293 HD
ENDBRANCH  10  16
ENDBRANCH   7   8
ENDBRANCH   4   7
ENDBRANCH   2   3
ENDBRANCH   1   2
BRANCH   1  18
ATOM     18  C   UNL     1      94.436  97.879  72.993  1.00  0.00     0.001 C 
BRANCH  18  19
ATOM     19  C   UNL     1      95.963  98.139  72.859  1.00  0.00     0.000 C 
BRANCH  19  20
ATOM     20  C   UNL     1      96.337  99.583  73.296  1.00  0.00     0.000 C 
BRANCH  20  21
ATOM     21  C   UNL     1      96.932  99.682  74.728  1.00  0.00     0.003 C 
BRANCH  21  22
ATOM     22  C   UNL     1      95.868  99.741  75.872  1.00  0.00    -0.017 C 
ATOM     23  C   UNL     1      94.786 100.812  75.554  1.00  0.00     0.007 C 
ATOM     24  C   UNL     1      96.479  99.986  77.283  1.00  0.00     0.007 C 
ENDBRANCH  21  22
ENDBRANCH  20  21
ENDBRANCH  19  20
ENDBRANCH  18  19
ENDBRANCH   1  18
TORSDOF 11
ENDMDL
MODEL 10
REMARK VINA RESULT:    -5.285      3.389      5.804
REMARK INTER + INTRA:          -9.302
REMARK INTER:                  -8.454
REMARK INTRA:                  -0.848
REMARK UNBOUND:                -0.773
REMARK SMILES COc1cc(CNC(=O)CCCCCCC(C)C)ccc1O
REMARK SMILES IDX 11 1 10 2 8 3 7 4 9 6 6 7 5 8 3 9 21 10 4 11 20 12 19 13
REMARK SMILES IDX 2 14 1 15 22 16 12 18 13 19 14 20 15 21 16 22 17 23 18 24
REMARK H PARENT 7 5 22 17
REMARK Flexibility Score: inf
ROOT
ATOM      1  C   UNL     1      94.118  97.290  74.074  1.00  0.00     0.010 C 
ENDROOT
BRANCH   1   2
ATOM      2  C   UNL     1      95.380  96.489  74.498  1.00  0.00     0.100 C 
BRANCH   2   3
ATOM      3  C   UNL     1      95.129  95.550  75.614  1.00  0.00     0.220 C 
ATOM      4  N   UNL     1      93.965  94.841  75.669  1.00  0.00    -0.352 N 
ATOM      5  H   UNL     1      93.309  95.050  74.931  1.00  0.00     0.163 HD
ATOM      6  O   UNL     1      96.018  95.404  76.489  1.00  0.00    -0.275 OA
BRANCH   4   7
ATOM      7  C   UNL     1      93.638  93.866  76.665  1.00  0.00     0.151 C 
BRANCH   7   8
ATOM      8  C   UNL     1      92.321  93.211  76.434  1.00  0.00    -0.025 A 
ATOM      9  C   UNL     1      90.624  92.327  74.889  1.00  0.00     0.160 A 
ATOM     10  C   UNL     1      89.832  91.923  75.986  1.00  0.00     0.157 A 
ATOM     11  C   UNL     1      91.851  92.984  75.121  1.00  0.00     0.056 A 
ATOM     12  C   UNL     1      90.271  92.178  77.298  1.00  0.00     0.050 A 
ATOM     13  C   UNL     1      91.511  92.808  77.522  1.00  0.00     0.009 A 
BRANCH   9  14
ATOM     14  O   UNL     1      90.188  92.119  73.609  1.00  0.00    -0.493 OA
ATOM     15  C   UNL     1      89.539  93.263  73.024  1.00  0.00     0.278 C 
ENDBRANCH   9  14
BRANCH  10  16
ATOM     16  O   UNL     1      88.645  91.290  75.793  1.00  0.00    -0.504 OA
ATOM     17  H   UNL     1      87.972  91.700  76.341  1.00  0.00     0.293 HD
ENDBRANCH  10  16
ENDBRANCH   7   8
ENDBRANCH   4   7
ENDBRANCH   2   3
ENDBRANCH   1   2
BRANCH   1  18
ATOM     18  C   UNL     1      94.236  97.847  72.626  1.00  0.00     0.001 C 
BRANCH  18  19
ATOM     19  C   UNL     1      95.633  98.444  72.297  1.00  0.00     0.000 C 
BRANCH  19  20
ATOM     20  C   UNL     1      95.777  98.761  70.782  1.00  0.00     0.000 C 
BRANCH  20  21
ATOM     21  C   UNL     1      96.675  97.760  70.004  1.00  0.00     0.003 C 
BRANCH  21  22
ATOM     22  C   UNL     1      97.730  97.013  70.884  1.00  0.00    -0.017 C 
ATOM     23  C   UNL     1      99.101  97.743  70.825  1.00  0.00     0.007 C 
ATOM     24  C   UNL     1      97.897  95.509  70.518  1.00  0.00     0.007 C 
ENDBRANCH  21  22
ENDBRANCH  20  21
ENDBRANCH  19  20
ENDBRANCH  18  19
ENDBRANCH   1  18
TORSDOF 11
ENDMDL
