MODEL 1
REMARK VINA RESULT:    -6.122      0.000      0.000
REMARK INTER + INTRA:         -10.707
REMARK INTER:                  -9.879
REMARK INTRA:                  -0.828
REMARK UNBOUND:                -0.828
REMARK SMILES CCCCCCCCC(=O)NCc1ccc(O)c(OC)c1
REMARK SMILES IDX 7 1 6 2 5 3 4 4 3 5 2 6 1 7 8 8 9 9 10 10 11 11 12 13 13 14
REMARK SMILES IDX 21 15 14 16 18 17 15 18 16 19 19 20 20 21 17 22
REMARK H PARENT 11 12 17 23
REMARK Flexibility Score: inf
ROOT
ATOM      1  C   UNL     1      90.916  95.353  76.724  1.00  0.00     0.010 C 
ENDROOT
BRANCH   1   2
ATOM      2  C   UNL     1      91.107  94.667  75.341  1.00  0.00     0.001 C 
BRANCH   2   3
ATOM      3  C   UNL     1      89.919  93.728  74.980  1.00  0.00     0.000 C 
BRANCH   3   4
ATOM      4  C   UNL     1      90.229  92.218  75.186  1.00  0.00    -0.000 C 
BRANCH   4   5
ATOM      5  C   UNL     1      90.632  91.503  73.865  1.00  0.00    -0.000 C 
BRANCH   5   6
ATOM      6  C   UNL     1      90.219  90.006  73.847  1.00  0.00    -0.003 C 
ATOM      7  C   UNL     1      89.816  89.479  75.242  1.00  0.00     0.004 C 
ENDBRANCH   5   6
ENDBRANCH   4   5
ENDBRANCH   3   4
ENDBRANCH   2   3
ENDBRANCH   1   2
BRANCH   1   8
ATOM      8  C   UNL     1      91.859  94.809  77.833  1.00  0.00     0.100 C 
BRANCH   8   9
ATOM      9  C   UNL     1      93.142  95.552  77.864  1.00  0.00     0.220 C 
ATOM     10  O   UNL     1      94.111  95.042  78.474  1.00  0.00    -0.275 OA
ATOM     11  N   UNL     1      93.266  96.749  77.217  1.00  0.00    -0.352 N 
ATOM     12  H   UNL     1      92.403  97.107  76.834  1.00  0.00     0.163 HD
BRANCH  11  13
ATOM     13  C   UNL     1      94.479  97.489  77.055  1.00  0.00     0.151 C 
BRANCH  13  14
ATOM     14  C   UNL     1      94.998  97.495  75.661  1.00  0.00    -0.025 A 
ATOM     15  C   UNL     1      96.176  98.212  75.343  1.00  0.00     0.056 A 
ATOM     16  C   UNL     1      94.328  96.793  74.633  1.00  0.00     0.009 A 
ATOM     17  C   UNL     1      96.691  98.212  74.026  1.00  0.00     0.160 A 
ATOM     18  C   UNL     1      94.835  96.788  73.322  1.00  0.00     0.050 A 
ATOM     19  C   UNL     1      96.010  97.501  73.012  1.00  0.00     0.157 A 
BRANCH  17  20
ATOM     20  O   UNL     1      97.810  98.942  73.710  1.00  0.00    -0.493 OA
ATOM     21  C   UNL     1      98.654  99.242  74.835  1.00  0.00     0.278 C 
ENDBRANCH  17  20
BRANCH  19  22
ATOM     22  O   UNL     1      96.476  97.513  71.738  1.00  0.00    -0.504 OA
ATOM     23  H   UNL     1      95.781  97.808  71.145  1.00  0.00     0.293 HD
ENDBRANCH  19  22
ENDBRANCH  13  14
ENDBRANCH  11  13
ENDBRANCH   8   9
ENDBRANCH   1   8
TORSDOF 11
ENDMDL
MODEL 2
REMARK VINA RESULT:    -5.808      1.376      2.059
REMARK INTER + INTRA:         -10.201
REMARK INTER:                  -9.076
REMARK INTRA:                  -1.126
REMARK UNBOUND:                -0.828
REMARK SMILES CCCCCCCCC(=O)NCc1ccc(O)c(OC)c1
REMARK SMILES IDX 7 1 6 2 5 3 4 4 3 5 2 6 1 7 8 8 9 9 10 10 11 11 12 13 13 14
REMARK SMILES IDX 21 15 14 16 18 17 15 18 16 19 19 20 20 21 17 22
REMARK H PARENT 11 12 17 23
REMARK Flexibility Score: inf
ROOT
ATOM      1  C   UNL     1      92.886  95.231  77.838  1.00  0.00     0.010 C 
ENDROOT
BRANCH   1   2
ATOM      2  C   UNL     1      93.201  94.533  76.483  1.00  0.00     0.001 C 
BRANCH   2   3
ATOM      3  C   UNL     1      92.089  94.779  75.421  1.00  0.00     0.000 C 
BRANCH   3   4
ATOM      4  C   UNL     1      90.705  95.139  76.034  1.00  0.00    -0.000 C 
BRANCH   4   5
ATOM      5  C   UNL     1      89.775  93.902  76.184  1.00  0.00    -0.000 C 
BRANCH   5   6
ATOM      6  C   UNL     1      90.406  92.608  75.602  1.00  0.00    -0.003 C 
ATOM      7  C   UNL     1      89.892  92.276  74.184  1.00  0.00     0.004 C 
ENDBRANCH   5   6
ENDBRANCH   4   5
ENDBRANCH   3   4
ENDBRANCH   2   3
ENDBRANCH   1   2
BRANCH   1   8
ATOM      8  C   UNL     1      94.131  95.433  78.746  1.00  0.00     0.100 C 
BRANCH   8   9
ATOM      9  C   UNL     1      95.113  96.350  78.119  1.00  0.00     0.220 C 
ATOM     10  O   UNL     1      96.328  96.041  78.161  1.00  0.00    -0.275 OA
ATOM     11  N   UNL     1      94.696  97.487  77.488  1.00  0.00    -0.352 N 
ATOM     12  H   UNL     1      93.711  97.683  77.589  1.00  0.00     0.163 HD
BRANCH  11  13
ATOM     13  C   UNL     1      95.524  98.374  76.729  1.00  0.00     0.151 C 
BRANCH  13  14
ATOM     14  C   UNL     1      95.685  97.975  75.305  1.00  0.00    -0.025 A 
ATOM     15  C   UNL     1      96.865  98.312  74.600  1.00  0.00     0.056 A 
ATOM     16  C   UNL     1      94.668  97.260  74.631  1.00  0.00     0.009 A 
ATOM     17  C   UNL     1      97.040  97.925  73.252  1.00  0.00     0.160 A 
ATOM     18  C   UNL     1      94.836  96.871  73.290  1.00  0.00     0.050 A 
ATOM     19  C   UNL     1      96.014  97.207  72.596  1.00  0.00     0.157 A 
BRANCH  17  20
ATOM     20  O   UNL     1      98.166  98.289  72.558  1.00  0.00    -0.493 OA
ATOM     21  C   UNL     1      99.396  98.042  73.261  1.00  0.00     0.278 C 
ENDBRANCH  17  20
BRANCH  19  22
ATOM     22  O   UNL     1      96.155  96.851  71.294  1.00  0.00    -0.504 OA
ATOM     23  H   UNL     1      96.969  97.224  70.946  1.00  0.00     0.293 HD
ENDBRANCH  19  22
ENDBRANCH  13  14
ENDBRANCH  11  13
ENDBRANCH   8   9
ENDBRANCH   1   8
TORSDOF 11
ENDMDL
MODEL 3
REMARK VINA RESULT:    -5.679     12.650     15.478
REMARK INTER + INTRA:          -9.994
REMARK INTER:                  -9.298
REMARK INTRA:                  -0.695
REMARK UNBOUND:                -0.828
REMARK SMILES CCCCCCCCC(=O)NCc1ccc(O)c(OC)c1
REMARK SMILES IDX 7 1 6 2 5 3 4 4 3 5 2 6 1 7 8 8 9 9 10 10 11 11 12 13 13 14
REMARK SMILES IDX 21 15 14 16 18 17 15 18 16 19 19 20 20 21 17 22
REMARK H PARENT 11 12 17 23
REMARK Flexibility Score: inf
ROOT
ATOM      1  C   UNL     1      98.077  82.418  78.342  1.00  0.00     0.010 C 
ENDROOT
BRANCH   1   2
ATOM      2  C   UNL     1      97.632  82.787  76.898  1.00  0.00     0.001 C 
BRANCH   2   3
ATOM      3  C   UNL     1      96.612  83.964  76.878  1.00  0.00     0.000 C 
BRANCH   3   4
ATOM      4  C   UNL     1      96.849  84.979  75.724  1.00  0.00    -0.000 C 
BRANCH   4   5
ATOM      5  C   UNL     1      98.184  84.727  74.967  1.00  0.00    -0.000 C 
BRANCH   5   6
ATOM      6  C   UNL     1      97.969  84.452  73.454  1.00  0.00    -0.003 C 
ATOM      7  C   UNL     1      98.008  82.948  73.106  1.00  0.00     0.004 C 
ENDBRANCH   5   6
ENDBRANCH   4   5
ENDBRANCH   3   4
ENDBRANCH   2   3
ENDBRANCH   1   2
BRANCH   1   8
ATOM      8  C   UNL     1      97.670  83.468  79.414  1.00  0.00     0.100 C 
BRANCH   8   9
ATOM      9  C   UNL     1      97.763  82.906  80.782  1.00  0.00     0.220 C 
ATOM     10  O   UNL     1      98.795  82.265  81.094  1.00  0.00    -0.275 OA
ATOM     11  N   UNL     1      96.758  83.109  81.685  1.00  0.00    -0.352 N 
ATOM     12  H   UNL     1      95.940  83.561  81.304  1.00  0.00     0.163 HD
BRANCH  11  13
ATOM     13  C   UNL     1      96.791  82.742  83.068  1.00  0.00     0.151 C 
BRANCH  13  14
ATOM     14  C   UNL     1      95.700  83.350  83.877  1.00  0.00    -0.025 A 
ATOM     15  C   UNL     1      94.595  82.565  84.286  1.00  0.00     0.056 A 
ATOM     16  C   UNL     1      95.744  84.713  84.247  1.00  0.00     0.009 A 
ATOM     17  C   UNL     1      93.560  83.125  85.069  1.00  0.00     0.160 A 
ATOM     18  C   UNL     1      94.718  85.275  85.028  1.00  0.00     0.050 A 
ATOM     19  C   UNL     1      93.622  84.489  85.434  1.00  0.00     0.157 A 
BRANCH  17  20
ATOM     20  O   UNL     1      92.469  82.374  85.429  1.00  0.00    -0.493 OA
ATOM     21  C   UNL     1      91.628  81.991  84.327  1.00  0.00     0.278 C 
ENDBRANCH  17  20
BRANCH  19  22
ATOM     22  O   UNL     1      92.623  85.047  86.163  1.00  0.00    -0.504 OA
ATOM     23  H   UNL     1      92.426  84.487  86.918  1.00  0.00     0.293 HD
ENDBRANCH  19  22
ENDBRANCH  13  14
ENDBRANCH  11  13
ENDBRANCH   8   9
ENDBRANCH   1   8
TORSDOF 11
ENDMDL
MODEL 4
REMARK VINA RESULT:    -5.630     12.353     15.505
REMARK INTER + INTRA:          -9.914
REMARK INTER:                  -9.357
REMARK INTRA:                  -0.558
REMARK UNBOUND:                -0.828
REMARK SMILES CCCCCCCCC(=O)NCc1ccc(O)c(OC)c1
REMARK SMILES IDX 7 1 6 2 5 3 4 4 3 5 2 6 1 7 8 8 9 9 10 10 11 11 12 13 13 14
REMARK SMILES IDX 21 15 14 16 18 17 15 18 16 19 19 20 20 21 17 22
REMARK H PARENT 11 12 17 23
REMARK Flexibility Score: inf
ROOT
ATOM      1  C   UNL     1      97.428  83.933  76.782  1.00  0.00     0.010 C 
ENDROOT
BRANCH   1   2
ATOM      2  C   UNL     1      96.700  84.716  75.653  1.00  0.00     0.001 C 
BRANCH   2   3
ATOM      3  C   UNL     1      97.406  84.555  74.274  1.00  0.00     0.000 C 
BRANCH   3   4
ATOM      4  C   UNL     1      98.956  84.656  74.348  1.00  0.00    -0.000 C 
BRANCH   4   5
ATOM      5  C   UNL     1      99.540  85.679  73.333  1.00  0.00    -0.000 C 
BRANCH   5   6
ATOM      6  C   UNL     1     101.089  85.762  73.395  1.00  0.00    -0.003 C 
ATOM      7  C   UNL     1     101.631  85.780  74.841  1.00  0.00     0.004 C 
ENDBRANCH   5   6
ENDBRANCH   4   5
ENDBRANCH   3   4
ENDBRANCH   2   3
ENDBRANCH   1   2
BRANCH   1   8
ATOM      8  C   UNL     1      96.511  83.558  77.981  1.00  0.00     0.100 C 
BRANCH   8   9
ATOM      9  C   UNL     1      97.307  83.118  79.152  1.00  0.00     0.220 C 
ATOM     10  O   UNL     1      98.198  83.885  79.588  1.00  0.00    -0.275 OA
ATOM     11  N   UNL     1      97.051  81.919  79.753  1.00  0.00    -0.352 N 
ATOM     12  H   UNL     1      96.375  81.345  79.270  1.00  0.00     0.163 HD
BRANCH  11  13
ATOM     13  C   UNL     1      97.648  81.447  80.965  1.00  0.00     0.151 C 
BRANCH  13  14
ATOM     14  C   UNL     1      96.758  81.548  82.153  1.00  0.00    -0.025 A 
ATOM     15  C   UNL     1      96.337  82.815  82.622  1.00  0.00     0.056 A 
ATOM     16  C   UNL     1      96.320  80.388  82.833  1.00  0.00     0.009 A 
ATOM     17  C   UNL     1      95.477  82.925  83.739  1.00  0.00     0.160 A 
ATOM     18  C   UNL     1      95.464  80.491  83.944  1.00  0.00     0.050 A 
ATOM     19  C   UNL     1      95.047  81.755  84.404  1.00  0.00     0.157 A 
BRANCH  17  20
ATOM     20  O   UNL     1      95.105  84.156  84.219  1.00  0.00    -0.493 OA
ATOM     21  C   UNL     1      96.049  85.205  83.944  1.00  0.00     0.278 C 
ENDBRANCH  17  20
BRANCH  19  22
ATOM     22  O   UNL     1      94.243  81.845  85.494  1.00  0.00    -0.504 OA
ATOM     23  H   UNL     1      94.174  82.763  85.766  1.00  0.00     0.293 HD
ENDBRANCH  19  22
ENDBRANCH  13  14
ENDBRANCH  11  13
ENDBRANCH   8   9
ENDBRANCH   1   8
TORSDOF 11
ENDMDL
MODEL 5
REMARK VINA RESULT:    -5.619      5.052      6.514
REMARK INTER + INTRA:          -9.896
REMARK INTER:                  -9.181
REMARK INTRA:                  -0.714
REMARK UNBOUND:                -0.828
REMARK SMILES CCCCCCCCC(=O)NCc1ccc(O)c(OC)c1
REMARK SMILES IDX 7 1 6 2 5 3 4 4 3 5 2 6 1 7 8 8 9 9 10 10 11 11 12 13 13 14
REMARK SMILES IDX 21 15 14 16 18 17 15 18 16 19 19 20 20 21 17 22
REMARK H PARENT 11 12 17 23
REMARK Flexibility Score: inf
ROOT
ATOM      1  C   UNL     1      94.377  96.813  74.891  1.00  0.00     0.010 C 
ENDROOT
BRANCH   1   2
ATOM      2  C   UNL     1      93.573  95.550  75.314  1.00  0.00     0.001 C 
BRANCH   2   3
ATOM      3  C   UNL     1      93.626  95.306  76.851  1.00  0.00     0.000 C 
BRANCH   3   4
ATOM      4  C   UNL     1      92.249  94.942  77.476  1.00  0.00    -0.000 C 
BRANCH   4   5
ATOM      5  C   UNL     1      91.062  95.654  76.768  1.00  0.00    -0.000 C 
BRANCH   5   6
ATOM      6  C   UNL     1      89.892  94.685  76.447  1.00  0.00    -0.003 C 
ATOM      7  C   UNL     1      89.950  94.130  75.007  1.00  0.00     0.004 C 
ENDBRANCH   5   6
ENDBRANCH   4   5
ENDBRANCH   3   4
ENDBRANCH   2   3
ENDBRANCH   1   2
BRANCH   1   8
ATOM      8  C   UNL     1      94.615  96.923  73.359  1.00  0.00     0.100 C 
BRANCH   8   9
ATOM      9  C   UNL     1      94.466  98.321  72.888  1.00  0.00     0.220 C 
ATOM     10  O   UNL     1      95.386  99.135  73.140  1.00  0.00    -0.275 OA
ATOM     11  N   UNL     1      93.365  98.699  72.174  1.00  0.00    -0.352 N 
ATOM     12  H   UNL     1      92.650  97.991  72.103  1.00  0.00     0.163 HD
BRANCH  11  13
ATOM     13  C   UNL     1      93.172  99.971  71.548  1.00  0.00     0.151 C 
BRANCH  13  14
ATOM     14  C   UNL     1      91.744 100.313  71.309  1.00  0.00    -0.025 A 
ATOM     15  C   UNL     1      91.061 101.178  72.197  1.00  0.00     0.056 A 
ATOM     16  C   UNL     1      91.045  99.782  70.201  1.00  0.00     0.009 A 
ATOM     17  C   UNL     1      89.708 101.526  71.974  1.00  0.00     0.160 A 
ATOM     18  C   UNL     1      89.700 100.124  69.973  1.00  0.00     0.050 A 
ATOM     19  C   UNL     1      89.027 100.988  70.859  1.00  0.00     0.157 A 
BRANCH  17  20
ATOM     20  O   UNL     1      89.036 102.330  72.859  1.00  0.00    -0.493 OA
ATOM     21  C   UNL     1      89.595 102.344  74.184  1.00  0.00     0.278 C 
ENDBRANCH  17  20
BRANCH  19  22
ATOM     22  O   UNL     1      87.721 101.291  70.645  1.00  0.00    -0.504 OA
ATOM     23  H   UNL     1      87.608 101.600  69.743  1.00  0.00     0.293 HD
ENDBRANCH  19  22
ENDBRANCH  13  14
ENDBRANCH  11  13
ENDBRANCH   8   9
ENDBRANCH   1   8
TORSDOF 11
ENDMDL
MODEL 6
REMARK VINA RESULT:    -5.607     12.964     15.356
REMARK INTER + INTRA:          -9.877
REMARK INTER:                  -9.290
REMARK INTRA:                  -0.587
REMARK UNBOUND:                -0.828
REMARK SMILES CCCCCCCCC(=O)NCc1ccc(O)c(OC)c1
REMARK SMILES IDX 7 1 6 2 5 3 4 4 3 5 2 6 1 7 8 8 9 9 10 10 11 11 12 13 13 14
REMARK SMILES IDX 21 15 14 16 18 17 15 18 16 19 19 20 20 21 17 22
REMARK H PARENT 11 12 17 23
REMARK Flexibility Score: inf
ROOT
ATOM      1  C   UNL     1      97.160  82.621  80.053  1.00  0.00     0.010 C 
ENDROOT
BRANCH   1   2
ATOM      2  C   UNL     1      97.275  82.468  78.509  1.00  0.00     0.001 C 
BRANCH   2   3
ATOM      3  C   UNL     1      96.504  83.586  77.747  1.00  0.00     0.000 C 
BRANCH   3   4
ATOM      4  C   UNL     1      97.290  84.182  76.545  1.00  0.00    -0.000 C 
BRANCH   4   5
ATOM      5  C   UNL     1      98.279  83.163  75.910  1.00  0.00    -0.000 C 
BRANCH   5   6
ATOM      6  C   UNL     1      98.162  83.105  74.363  1.00  0.00    -0.003 C 
ATOM      7  C   UNL     1      97.624  84.418  73.752  1.00  0.00     0.004 C 
ENDBRANCH   5   6
ENDBRANCH   4   5
ENDBRANCH   3   4
ENDBRANCH   2   3
ENDBRANCH   1   2
BRANCH   1   8
ATOM      8  C   UNL     1      97.326  81.286  80.832  1.00  0.00     0.100 C 
BRANCH   8   9
ATOM      9  C   UNL     1      97.185  81.493  82.293  1.00  0.00     0.220 C 
ATOM     10  O   UNL     1      98.227  81.624  82.979  1.00  0.00    -0.275 OA
ATOM     11  N   UNL     1      95.948  81.567  82.868  1.00  0.00    -0.352 N 
ATOM     12  H   UNL     1      95.184  81.362  82.241  1.00  0.00     0.163 HD
BRANCH  11  13
ATOM     13  C   UNL     1      95.680  81.901  84.233  1.00  0.00     0.151 C 
BRANCH  13  14
ATOM     14  C   UNL     1      95.360  83.338  84.448  1.00  0.00    -0.025 A 
ATOM     15  C   UNL     1      94.392  83.716  85.409  1.00  0.00     0.056 A 
ATOM     16  C   UNL     1      96.010  84.347  83.700  1.00  0.00     0.009 A 
ATOM     17  C   UNL     1      94.091  85.079  85.637  1.00  0.00     0.160 A 
ATOM     18  C   UNL     1      95.715  85.704  83.923  1.00  0.00     0.050 A 
ATOM     19  C   UNL     1      94.753  86.073  84.882  1.00  0.00     0.157 A 
BRANCH  17  20
ATOM     20  O   UNL     1      93.122  85.441  86.538  1.00  0.00    -0.493 OA
ATOM     21  C   UNL     1      93.491  85.236  87.913  1.00  0.00     0.278 C 
ENDBRANCH  17  20
BRANCH  19  22
ATOM     22  O   UNL     1      94.456  87.384  85.070  1.00  0.00    -0.504 OA
ATOM     23  H   UNL     1      93.509  87.514  84.978  1.00  0.00     0.293 HD
ENDBRANCH  19  22
ENDBRANCH  13  14
ENDBRANCH  11  13
ENDBRANCH   8   9
ENDBRANCH   1   8
TORSDOF 11
ENDMDL
MODEL 7
REMARK VINA RESULT:    -5.590     12.443     15.194
REMARK INTER + INTRA:          -9.849
REMARK INTER:                  -9.432
REMARK INTRA:                  -0.417
REMARK UNBOUND:                -0.828
REMARK SMILES CCCCCCCCC(=O)NCc1ccc(O)c(OC)c1
REMARK SMILES IDX 7 1 6 2 5 3 4 4 3 5 2 6 1 7 8 8 9 9 10 10 11 11 12 13 13 14
REMARK SMILES IDX 21 15 14 16 18 17 15 18 16 19 19 20 20 21 17 22
REMARK H PARENT 11 12 17 23
REMARK Flexibility Score: inf
ROOT
ATOM      1  C   UNL     1      97.433  83.823  76.799  1.00  0.00     0.010 C 
ENDROOT
BRANCH   1   2
ATOM      2  C   UNL     1      96.697  84.539  75.630  1.00  0.00     0.001 C 
BRANCH   2   3
ATOM      3  C   UNL     1      97.448  84.377  74.275  1.00  0.00     0.000 C 
BRANCH   3   4
ATOM      4  C   UNL     1      98.992  84.518  74.394  1.00  0.00    -0.000 C 
BRANCH   4   5
ATOM      5  C   UNL     1      99.581  85.544  73.383  1.00  0.00    -0.000 C 
BRANCH   5   6
ATOM      6  C   UNL     1     101.125  85.661  73.484  1.00  0.00    -0.003 C 
ATOM      7  C   UNL     1     101.627  85.740  74.943  1.00  0.00     0.004 C 
ENDBRANCH   5   6
ENDBRANCH   4   5
ENDBRANCH   3   4
ENDBRANCH   2   3
ENDBRANCH   1   2
BRANCH   1   8
ATOM      8  C   UNL     1      96.533  83.557  78.039  1.00  0.00     0.100 C 
BRANCH   8   9
ATOM      9  C   UNL     1      97.346  83.224  79.233  1.00  0.00     0.220 C 
ATOM     10  O   UNL     1      98.415  83.853  79.420  1.00  0.00    -0.275 OA
ATOM     11  N   UNL     1      96.921  82.275  80.119  1.00  0.00    -0.352 N 
ATOM     12  H   UNL     1      96.096  81.772  79.828  1.00  0.00     0.163 HD
BRANCH  11  13
ATOM     13  C   UNL     1      97.539  81.966  81.372  1.00  0.00     0.151 C 
BRANCH  13  14
ATOM     14  C   UNL     1      97.045  82.792  82.506  1.00  0.00    -0.025 A 
ATOM     15  C   UNL     1      97.375  82.444  83.838  1.00  0.00     0.056 A 
ATOM     16  C   UNL     1      96.240  83.931  82.279  1.00  0.00     0.009 A 
ATOM     17  C   UNL     1      96.928  83.230  84.925  1.00  0.00     0.160 A 
ATOM     18  C   UNL     1      95.792  84.718  83.355  1.00  0.00     0.050 A 
ATOM     19  C   UNL     1      96.127  84.367  84.677  1.00  0.00     0.157 A 
BRANCH  17  20
ATOM     20  O   UNL     1      97.213  82.867  86.217  1.00  0.00    -0.493 OA
ATOM     21  C   UNL     1      98.615  82.892  86.540  1.00  0.00     0.278 C 
ENDBRANCH  17  20
BRANCH  19  22
ATOM     22  O   UNL     1      95.667  85.117  85.712  1.00  0.00    -0.504 OA
ATOM     23  H   UNL     1      95.853  84.668  86.540  1.00  0.00     0.293 HD
ENDBRANCH  19  22
ENDBRANCH  13  14
ENDBRANCH  11  13
ENDBRANCH   8   9
ENDBRANCH   1   8
TORSDOF 11
ENDMDL
MODEL 8
REMARK VINA RESULT:    -5.413     12.627     15.290
REMARK INTER + INTRA:          -9.565
REMARK INTER:                  -8.708
REMARK INTRA:                  -0.856
REMARK UNBOUND:                -0.828
REMARK SMILES CCCCCCCCC(=O)NCc1ccc(O)c(OC)c1
REMARK SMILES IDX 7 1 6 2 5 3 4 4 3 5 2 6 1 7 8 8 9 9 10 10 11 11 12 13 13 14
REMARK SMILES IDX 21 15 14 16 18 17 15 18 16 19 19 20 20 21 17 22
REMARK H PARENT 11 12 17 23
REMARK Flexibility Score: inf
ROOT
ATOM      1  C   UNL     1      95.625  81.208  83.684  1.00  0.00     0.010 C 
ENDROOT
BRANCH   1   2
ATOM      2  C   UNL     1      96.251  80.738  85.028  1.00  0.00     0.001 C 
BRANCH   2   3
ATOM      3  C   UNL     1      95.251  79.909  85.886  1.00  0.00     0.000 C 
BRANCH   3   4
ATOM      4  C   UNL     1      93.952  80.680  86.255  1.00  0.00    -0.000 C 
BRANCH   4   5
ATOM      5  C   UNL     1      92.665  79.847  85.993  1.00  0.00    -0.000 C 
BRANCH   5   6
ATOM      6  C   UNL     1      92.064  80.105  84.585  1.00  0.00    -0.003 C 
ATOM      7  C   UNL     1      91.955  81.608  84.246  1.00  0.00     0.004 C 
ENDBRANCH   5   6
ENDBRANCH   4   5
ENDBRANCH   3   4
ENDBRANCH   2   3
ENDBRANCH   1   2
BRANCH   1   8
ATOM      8  C   UNL     1      96.332  80.633  82.425  1.00  0.00     0.100 C 
BRANCH   8   9
ATOM      9  C   UNL     1      97.107  81.679  81.715  1.00  0.00     0.220 C 
ATOM     10  O   UNL     1      97.250  82.794  82.271  1.00  0.00    -0.275 OA
ATOM     11  N   UNL     1      97.672  81.419  80.499  1.00  0.00    -0.352 N 
ATOM     12  H   UNL     1      97.422  80.524  80.106  1.00  0.00     0.163 HD
BRANCH  11  13
ATOM     13  C   UNL     1      98.554  82.291  79.784  1.00  0.00     0.151 C 
BRANCH  13  14
ATOM     14  C   UNL     1      97.933  82.927  78.592  1.00  0.00    -0.025 A 
ATOM     15  C   UNL     1      98.588  82.880  77.338  1.00  0.00     0.056 A 
ATOM     16  C   UNL     1      96.688  83.590  78.687  1.00  0.00     0.009 A 
ATOM     17  C   UNL     1      98.002  83.465  76.191  1.00  0.00     0.160 A 
ATOM     18  C   UNL     1      96.099  84.173  77.550  1.00  0.00     0.050 A 
ATOM     19  C   UNL     1      96.755  84.120  76.305  1.00  0.00     0.157 A 
BRANCH  17  20
ATOM     20  O   UNL     1      98.658  83.455  74.986  1.00  0.00    -0.493 OA
ATOM     21  C   UNL     1      99.805  84.322  74.933  1.00  0.00     0.278 C 
ENDBRANCH  17  20
BRANCH  19  22
ATOM     22  O   UNL     1      96.192  84.709  75.220  1.00  0.00    -0.504 OA
ATOM     23  H   UNL     1      96.094  85.651  75.382  1.00  0.00     0.293 HD
ENDBRANCH  19  22
ENDBRANCH  13  14
ENDBRANCH  11  13
ENDBRANCH   8   9
ENDBRANCH   1   8
TORSDOF 11
ENDMDL
MODEL 9
REMARK VINA RESULT:    -5.316     12.209     13.936
REMARK INTER + INTRA:          -9.407
REMARK INTER:                  -8.805
REMARK INTRA:                  -0.602
REMARK UNBOUND:                -0.828
REMARK SMILES CCCCCCCCC(=O)NCc1ccc(O)c(OC)c1
REMARK SMILES IDX 7 1 6 2 5 3 4 4 3 5 2 6 1 7 8 8 9 9 10 10 11 11 12 13 13 14
REMARK SMILES IDX 21 15 14 16 18 17 15 18 16 19 19 20 20 21 17 22
REMARK H PARENT 11 12 17 23
REMARK Flexibility Score: inf
ROOT
ATOM      1  C   UNL     1      98.091  82.627  77.675  1.00  0.00     0.010 C 
ENDROOT
BRANCH   1   2
ATOM      2  C   UNL     1      98.347  81.883  79.017  1.00  0.00     0.001 C 
BRANCH   2   3
ATOM      3  C   UNL     1      97.366  82.337  80.138  1.00  0.00     0.000 C 
BRANCH   3   4
ATOM      4  C   UNL     1      97.045  81.226  81.178  1.00  0.00    -0.000 C 
BRANCH   4   5
ATOM      5  C   UNL     1      96.835  81.789  82.612  1.00  0.00    -0.000 C 
BRANCH   5   6
ATOM      6  C   UNL     1      96.384  83.274  82.609  1.00  0.00    -0.003 C 
ATOM      7  C   UNL     1      95.475  83.628  83.807  1.00  0.00     0.004 C 
ENDBRANCH   5   6
ENDBRANCH   4   5
ENDBRANCH   3   4
ENDBRANCH   2   3
ENDBRANCH   1   2
BRANCH   1   8
ATOM      8  C   UNL     1      96.880  83.601  77.716  1.00  0.00     0.100 C 
BRANCH   8   9
ATOM      9  C   UNL     1      96.727  84.327  76.433  1.00  0.00     0.220 C 
ATOM     10  O   UNL     1      95.990  85.342  76.407  1.00  0.00    -0.275 OA
ATOM     11  N   UNL     1      97.398  83.914  75.317  1.00  0.00    -0.352 N 
ATOM     12  H   UNL     1      97.892  83.041  75.427  1.00  0.00     0.163 HD
BRANCH  11  13
ATOM     13  C   UNL     1      97.446  84.607  74.066  1.00  0.00     0.151 C 
BRANCH  13  14
ATOM     14  C   UNL     1      98.452  84.063  73.115  1.00  0.00    -0.025 A 
ATOM     15  C   UNL     1      99.456  84.906  72.581  1.00  0.00     0.056 A 
ATOM     16  C   UNL     1      98.424  82.704  72.726  1.00  0.00     0.009 A 
ATOM     17  C   UNL     1     100.429  84.399  71.690  1.00  0.00     0.160 A 
ATOM     18  C   UNL     1      99.390  82.193  71.841  1.00  0.00     0.050 A 
ATOM     19  C   UNL     1     100.388  83.037  71.316  1.00  0.00     0.157 A 
BRANCH  17  20
ATOM     20  O   UNL     1     101.376  85.226  71.141  1.00  0.00    -0.493 OA
ATOM     21  C   UNL     1     102.267  85.821  72.101  1.00  0.00     0.278 C 
ENDBRANCH  17  20
BRANCH  19  22
ATOM     22  O   UNL     1     101.299  82.541  70.441  1.00  0.00    -0.504 OA
ATOM     23  H   UNL     1     102.158  82.491  70.867  1.00  0.00     0.293 HD
ENDBRANCH  19  22
ENDBRANCH  13  14
ENDBRANCH  11  13
ENDBRANCH   8   9
ENDBRANCH   1   8
TORSDOF 11
ENDMDL
MODEL 10
REMARK VINA RESULT:    -5.294     12.437     14.925
REMARK INTER + INTRA:          -9.372
REMARK INTER:                  -8.606
REMARK INTRA:                  -0.767
REMARK UNBOUND:                -0.828
REMARK SMILES CCCCCCCCC(=O)NCc1ccc(O)c(OC)c1
REMARK SMILES IDX 7 1 6 2 5 3 4 4 3 5 2 6 1 7 8 8 9 9 10 10 11 11 12 13 13 14
REMARK SMILES IDX 21 15 14 16 18 17 15 18 16 19 19 20 20 21 17 22
REMARK H PARENT 11 12 17 23
REMARK Flexibility Score: inf
ROOT
ATOM      1  C   UNL     1      99.043  80.521  81.977  1.00  0.00     0.010 C 
ENDROOT
BRANCH   1   2
ATOM      2  C   UNL     1      97.691  80.580  81.209  1.00  0.00     0.001 C 
BRANCH   2   3
ATOM      3  C   UNL     1      97.082  82.013  81.200  1.00  0.00     0.000 C 
BRANCH   3   4
ATOM      4  C   UNL     1      96.400  82.413  82.539  1.00  0.00    -0.000 C 
BRANCH   4   5
ATOM      5  C   UNL     1      95.995  83.914  82.582  1.00  0.00    -0.000 C 
BRANCH   5   6
ATOM      6  C   UNL     1      96.281  84.569  83.961  1.00  0.00    -0.003 C 
ATOM      7  C   UNL     1      95.432  85.835  84.211  1.00  0.00     0.004 C 
ENDBRANCH   5   6
ENDBRANCH   4   5
ENDBRANCH   3   4
ENDBRANCH   2   3
ENDBRANCH   1   2
BRANCH   1   8
ATOM      8  C   UNL     1     100.205  81.267  81.264  1.00  0.00     0.100 C 
BRANCH   8   9
ATOM      9  C   UNL     1     100.242  80.950  79.816  1.00  0.00     0.220 C 
ATOM     10  O   UNL     1     100.621  79.806  79.467  1.00  0.00    -0.275 OA
ATOM     11  N   UNL     1      99.845  81.875  78.893  1.00  0.00    -0.352 N 
ATOM     12  H   UNL     1      99.644  82.787  79.276  1.00  0.00     0.163 HD
BRANCH  11  13
ATOM     13  C   UNL     1      99.702  81.645  77.488  1.00  0.00     0.151 C 
BRANCH  13  14
ATOM     14  C   UNL     1      98.725  82.551  76.827  1.00  0.00    -0.025 A 
ATOM     15  C   UNL     1      98.820  82.810  75.439  1.00  0.00     0.056 A 
ATOM     16  C   UNL     1      97.692  83.171  77.568  1.00  0.00     0.009 A 
ATOM     17  C   UNL     1      97.888  83.655  74.794  1.00  0.00     0.160 A 
ATOM     18  C   UNL     1      96.762  84.013  76.932  1.00  0.00     0.050 A 
ATOM     19  C   UNL     1      96.860  84.263  75.550  1.00  0.00     0.157 A 
BRANCH  17  20
ATOM     20  O   UNL     1      98.006  83.938  73.456  1.00  0.00    -0.493 OA
ATOM     21  C   UNL     1      99.023  84.908  73.147  1.00  0.00     0.278 C 
ENDBRANCH  17  20
BRANCH  19  22
ATOM     22  O   UNL     1      95.974  85.098  74.950  1.00  0.00    -0.504 OA
ATOM     23  H   UNL     1      96.078  85.984  75.306  1.00  0.00     0.293 HD
ENDBRANCH  19  22
ENDBRANCH  13  14
ENDBRANCH  11  13
ENDBRANCH   8   9
ENDBRANCH   1   8
TORSDOF 11
ENDMDL
