MODEL 1
REMARK VINA RESULT:    -6.245      0.000      0.000
REMARK INTER + INTRA:         -10.699
REMARK INTER:                  -9.714
REMARK INTRA:                  -0.985
REMARK UNBOUND:                -0.985
REMARK SMILES COc1cc(CNC(=O)CCCCCC(C)C)ccc1O
REMARK SMILES IDX 10 1 8 2 7 3 9 5 6 6 5 7 3 8 20 9 4 10 19 11 18 12 2 13 1 14
REMARK SMILES IDX 21 15 11 17 12 18 13 19 14 20 15 21 16 22 17 23
REMARK H PARENT 7 4 21 16
REMARK Flexibility Score: inf
ROOT
ATOM      1  C   UNL     1      93.534  95.859  76.258  1.00  0.00     0.100 C 
ENDROOT
BRANCH   1   2
ATOM      2  C   UNL     1      94.787  96.529  76.664  1.00  0.00     0.220 C 
ATOM      3  N   UNL     1      95.022  96.765  77.985  1.00  0.00    -0.352 N 
ATOM      4  H   UNL     1      94.240  96.576  78.596  1.00  0.00     0.163 HD
ATOM      5  O   UNL     1      95.630  96.830  75.783  1.00  0.00    -0.275 OA
BRANCH   3   6
ATOM      6  C   UNL     1      96.253  97.242  78.529  1.00  0.00     0.151 C 
BRANCH   6   7
ATOM      7  C   UNL     1      96.571  96.655  79.859  1.00  0.00    -0.025 A 
ATOM      8  C   UNL     1      96.135  94.988  81.613  1.00  0.00     0.160 A 
ATOM      9  C   UNL     1      97.219  95.495  82.361  1.00  0.00     0.157 A 
ATOM     10  C   UNL     1      95.806  95.583  80.376  1.00  0.00     0.056 A 
ATOM     11  C   UNL     1      97.969  96.578  81.868  1.00  0.00     0.050 A 
ATOM     12  C   UNL     1      97.652  97.151  80.625  1.00  0.00     0.009 A 
BRANCH   8  13
ATOM     13  O   UNL     1      95.379  93.947  82.084  1.00  0.00    -0.493 OA
ATOM     14  C   UNL     1      94.797  93.134  81.047  1.00  0.00     0.278 C 
ENDBRANCH   8  13
BRANCH   9  15
ATOM     15  O   UNL     1      97.542  94.932  83.552  1.00  0.00    -0.504 OA
ATOM     16  H   UNL     1      96.805  95.025  84.160  1.00  0.00     0.293 HD
ENDBRANCH   9  15
ENDBRANCH   6   7
ENDBRANCH   3   6
ENDBRANCH   1   2
BRANCH   1  17
ATOM     17  C   UNL     1      92.252  96.701  76.501  1.00  0.00     0.010 C 
BRANCH  17  18
ATOM     18  C   UNL     1      91.453  96.184  77.730  1.00  0.00     0.001 C 
BRANCH  18  19
ATOM     19  C   UNL     1      89.940  95.996  77.446  1.00  0.00     0.000 C 
BRANCH  19  20
ATOM     20  C   UNL     1      89.583  94.519  77.110  1.00  0.00     0.003 C 
BRANCH  20  21
ATOM     21  C   UNL     1      90.508  93.449  77.776  1.00  0.00    -0.017 C 
ATOM     22  C   UNL     1      91.146  92.520  76.701  1.00  0.00     0.007 C 
ATOM     23  C   UNL     1      89.770  92.596  78.849  1.00  0.00     0.007 C 
ENDBRANCH  20  21
ENDBRANCH  19  20
ENDBRANCH  18  19
ENDBRANCH  17  18
ENDBRANCH   1  17
TORSDOF 10
ENDMDL
MODEL 2
REMARK VINA RESULT:    -5.978     22.133     26.211
REMARK INTER + INTRA:         -10.282
REMARK INTER:                  -9.295
REMARK INTRA:                  -0.987
REMARK UNBOUND:                -0.985
REMARK SMILES COc1cc(CNC(=O)CCCCCC(C)C)ccc1O
REMARK SMILES IDX 10 1 8 2 7 3 9 5 6 6 5 7 3 8 20 9 4 10 19 11 18 12 2 13 1 14
REMARK SMILES IDX 21 15 11 17 12 18 13 19 14 20 15 21 16 22 17 23
REMARK H PARENT 7 4 21 16
REMARK Flexibility Score: inf
ROOT
ATOM      1  C   UNL     1      77.584  84.710  68.286  1.00  0.00     0.100 C 
ENDROOT
BRANCH   1   2
ATOM      2  C   UNL     1      77.859  83.698  67.245  1.00  0.00     0.220 C 
ATOM      3  N   UNL     1      76.824  82.995  66.705  1.00  0.00    -0.352 N 
ATOM      4  H   UNL     1      75.934  83.129  67.163  1.00  0.00     0.163 HD
ATOM      5  O   UNL     1      79.039  83.537  66.849  1.00  0.00    -0.275 OA
BRANCH   3   6
ATOM      6  C   UNL     1      76.923  82.120  65.581  1.00  0.00     0.151 C 
BRANCH   6   7
ATOM      7  C   UNL     1      75.601  81.637  65.099  1.00  0.00    -0.025 A 
ATOM      8  C   UNL     1      73.175  81.393  65.415  1.00  0.00     0.160 A 
ATOM      9  C   UNL     1      73.074  80.777  64.149  1.00  0.00     0.157 A 
ATOM     10  C   UNL     1      74.439  81.801  65.890  1.00  0.00     0.056 A 
ATOM     11  C   UNL     1      74.226  80.585  63.366  1.00  0.00     0.050 A 
ATOM     12  C   UNL     1      75.479  81.016  63.834  1.00  0.00     0.009 A 
BRANCH   8  13
ATOM     13  O   UNL     1      72.067  81.572  66.202  1.00  0.00    -0.493 OA
ATOM     14  C   UNL     1      71.870  82.934  66.628  1.00  0.00     0.278 C 
ENDBRANCH   8  13
BRANCH   9  15
ATOM     15  O   UNL     1      71.863  80.379  63.685  1.00  0.00    -0.504 OA
ATOM     16  H   UNL     1      71.587  79.586  64.150  1.00  0.00     0.293 HD
ENDBRANCH   9  15
ENDBRANCH   6   7
ENDBRANCH   3   6
ENDBRANCH   1   2
BRANCH   1  17
ATOM     17  C   UNL     1      78.211  86.102  68.005  1.00  0.00     0.010 C 
BRANCH  17  18
ATOM     18  C   UNL     1      77.330  86.941  67.038  1.00  0.00     0.001 C 
BRANCH  18  19
ATOM     19  C   UNL     1      76.546  88.077  67.747  1.00  0.00     0.000 C 
BRANCH  19  20
ATOM     20  C   UNL     1      75.143  87.609  68.232  1.00  0.00     0.003 C 
BRANCH  20  21
ATOM     21  C   UNL     1      74.930  87.658  69.780  1.00  0.00    -0.017 C 
ATOM     22  C   UNL     1      75.781  88.793  70.422  1.00  0.00     0.007 C 
ATOM     23  C   UNL     1      75.237  86.301  70.476  1.00  0.00     0.007 C 
ENDBRANCH  20  21
ENDBRANCH  19  20
ENDBRANCH  18  19
ENDBRANCH  17  18
ENDBRANCH   1  17
TORSDOF 10
ENDMDL
MODEL 3
REMARK VINA RESULT:    -5.641     22.792     26.396
REMARK INTER + INTRA:          -9.759
REMARK INTER:                  -9.007
REMARK INTRA:                  -0.752
REMARK UNBOUND:                -0.985
REMARK SMILES COc1cc(CNC(=O)CCCCCC(C)C)ccc1O
REMARK SMILES IDX 10 1 8 2 7 3 9 5 6 6 5 7 3 8 20 9 4 10 19 11 18 12 2 13 1 14
REMARK SMILES IDX 21 15 11 17 12 18 13 19 14 20 15 21 16 22 17 23
REMARK H PARENT 7 4 21 16
REMARK Flexibility Score: inf
ROOT
ATOM      1  C   UNL     1      71.729  81.909  66.288  1.00  0.00     0.100 C 
ENDROOT
BRANCH   1   2
ATOM      2  C   UNL     1      73.075  82.238  65.774  1.00  0.00     0.220 C 
ATOM      3  N   UNL     1      74.174  81.742  66.410  1.00  0.00    -0.352 N 
ATOM      4  H   UNL     1      73.985  81.280  67.288  1.00  0.00     0.163 HD
ATOM      5  O   UNL     1      73.176  82.933  64.734  1.00  0.00    -0.275 OA
BRANCH   3   6
ATOM      6  C   UNL     1      75.514  81.835  65.926  1.00  0.00     0.151 C 
BRANCH   6   7
ATOM      7  C   UNL     1      76.344  82.808  66.687  1.00  0.00    -0.025 A 
ATOM      8  C   UNL     1      76.641  84.312  68.610  1.00  0.00     0.160 A 
ATOM      9  C   UNL     1      77.949  84.610  68.171  1.00  0.00     0.157 A 
ATOM     10  C   UNL     1      75.840  83.428  67.855  1.00  0.00     0.056 A 
ATOM     11  C   UNL     1      78.450  84.020  66.997  1.00  0.00     0.050 A 
ATOM     12  C   UNL     1      77.656  83.121  66.263  1.00  0.00     0.009 A 
BRANCH   8  13
ATOM     13  O   UNL     1      76.127  84.891  69.740  1.00  0.00    -0.493 OA
ATOM     14  C   UNL     1      76.313  84.105  70.933  1.00  0.00     0.278 C 
ENDBRANCH   8  13
BRANCH   9  15
ATOM     15  O   UNL     1      78.726  85.460  68.888  1.00  0.00    -0.504 OA
ATOM     16  H   UNL     1      78.457  86.365  68.713  1.00  0.00     0.293 HD
ENDBRANCH   9  15
ENDBRANCH   6   7
ENDBRANCH   3   6
ENDBRANCH   1   2
BRANCH   1  17
ATOM     17  C   UNL     1      70.603  82.846  65.774  1.00  0.00     0.010 C 
BRANCH  17  18
ATOM     18  C   UNL     1      69.723  83.377  66.939  1.00  0.00     0.001 C 
BRANCH  18  19
ATOM     19  C   UNL     1      69.999  82.669  68.292  1.00  0.00     0.000 C 
BRANCH  19  20
ATOM     20  C   UNL     1      69.076  83.194  69.430  1.00  0.00     0.003 C 
BRANCH  20  21
ATOM     21  C   UNL     1      69.822  83.675  70.716  1.00  0.00    -0.017 C 
ATOM     22  C   UNL     1      68.841  84.385  71.695  1.00  0.00     0.007 C 
ATOM     23  C   UNL     1      71.029  84.606  70.402  1.00  0.00     0.007 C 
ENDBRANCH  20  21
ENDBRANCH  19  20
ENDBRANCH  18  19
ENDBRANCH  17  18
ENDBRANCH   1  17
TORSDOF 10
ENDMDL
MODEL 4
REMARK VINA RESULT:    -5.616     32.144     34.606
REMARK INTER + INTRA:          -9.719
REMARK INTER:                  -7.728
REMARK INTRA:                  -1.991
REMARK UNBOUND:                -0.985
REMARK SMILES COc1cc(CNC(=O)CCCCCC(C)C)ccc1O
REMARK SMILES IDX 10 1 8 2 7 3 9 5 6 6 5 7 3 8 20 9 4 10 19 11 18 12 2 13 1 14
REMARK SMILES IDX 21 15 11 17 12 18 13 19 14 20 15 21 16 22 17 23
REMARK H PARENT 7 4 21 16
REMARK Flexibility Score: inf
ROOT
ATOM      1  C   UNL     1      63.610  84.012  68.508  1.00  0.00     0.100 C 
ENDROOT
BRANCH   1   2
ATOM      2  C   UNL     1      63.758  82.871  69.434  1.00  0.00     0.220 C 
ATOM      3  N   UNL     1      64.722  82.911  70.398  1.00  0.00    -0.352 N 
ATOM      4  H   UNL     1      65.366  83.685  70.322  1.00  0.00     0.163 HD
ATOM      5  O   UNL     1      62.964  81.904  69.341  1.00  0.00    -0.275 OA
BRANCH   3   6
ATOM      6  C   UNL     1      64.863  81.966  71.459  1.00  0.00     0.151 C 
BRANCH   6   7
ATOM      7  C   UNL     1      63.979  82.255  72.620  1.00  0.00    -0.025 A 
ATOM      8  C   UNL     1      63.214  83.782  74.390  1.00  0.00     0.160 A 
ATOM      9  C   UNL     1      62.250  82.832  74.789  1.00  0.00     0.157 A 
ATOM     10  C   UNL     1      64.085  83.480  73.321  1.00  0.00     0.056 A 
ATOM     11  C   UNL     1      62.154  81.600  74.117  1.00  0.00     0.050 A 
ATOM     12  C   UNL     1      63.007  81.316  73.037  1.00  0.00     0.009 A 
BRANCH   8  13
ATOM     13  O   UNL     1      63.338  84.979  75.045  1.00  0.00    -0.493 OA
ATOM     14  C   UNL     1      64.420  85.798  74.561  1.00  0.00     0.278 C 
ENDBRANCH   8  13
BRANCH   9  15
ATOM     15  O   UNL     1      61.410  83.111  75.817  1.00  0.00    -0.504 OA
ATOM     16  H   UNL     1      61.393  82.370  76.427  1.00  0.00     0.293 HD
ENDBRANCH   9  15
ENDBRANCH   6   7
ENDBRANCH   3   6
ENDBRANCH   1   2
BRANCH   1  17
ATOM     17  C   UNL     1      62.474  85.000  68.888  1.00  0.00     0.010 C 
BRANCH  17  18
ATOM     18  C   UNL     1      62.883  85.912  70.078  1.00  0.00     0.001 C 
BRANCH  18  19
ATOM     19  C   UNL     1      61.988  85.727  71.331  1.00  0.00     0.000 C 
BRANCH  19  20
ATOM     20  C   UNL     1      61.107  84.447  71.242  1.00  0.00     0.003 C 
BRANCH  20  21
ATOM     21  C   UNL     1      59.902  84.404  72.237  1.00  0.00    -0.017 C 
ATOM     22  C   UNL     1      58.550  84.570  71.481  1.00  0.00     0.007 C 
ATOM     23  C   UNL     1      60.015  85.466  73.369  1.00  0.00     0.007 C 
ENDBRANCH  20  21
ENDBRANCH  19  20
ENDBRANCH  18  19
ENDBRANCH  17  18
ENDBRANCH   1  17
TORSDOF 10
ENDMDL
MODEL 5
REMARK VINA RESULT:    -5.547     12.484     14.559
REMARK INTER + INTRA:          -9.613
REMARK INTER:                  -8.915
REMARK INTRA:                  -0.698
REMARK UNBOUND:                -0.985
REMARK SMILES COc1cc(CNC(=O)CCCCCC(C)C)ccc1O
REMARK SMILES IDX 10 1 8 2 7 3 9 5 6 6 5 7 3 8 20 9 4 10 19 11 18 12 2 13 1 14
REMARK SMILES IDX 21 15 11 17 12 18 13 19 14 20 15 21 16 22 17 23
REMARK H PARENT 7 4 21 16
REMARK Flexibility Score: inf
ROOT
ATOM      1  C   UNL     1      97.469  81.671  84.603  1.00  0.00     0.100 C 
ENDROOT
BRANCH   1   2
ATOM      2  C   UNL     1      98.653  82.026  83.793  1.00  0.00     0.220 C 
ATOM      3  N   UNL     1      98.545  82.073  82.435  1.00  0.00    -0.352 N 
ATOM      4  H   UNL     1      97.672  81.725  82.066  1.00  0.00     0.163 HD
ATOM      5  O   UNL     1      99.725  82.319  84.377  1.00  0.00    -0.275 OA
BRANCH   3   6
ATOM      6  C   UNL     1      99.550  82.565  81.548  1.00  0.00     0.151 C 
BRANCH   6   7
ATOM      7  C   UNL     1      99.010  82.978  80.225  1.00  0.00    -0.025 A 
ATOM      8  C   UNL     1      99.296  83.263  77.799  1.00  0.00     0.160 A 
ATOM      9  C   UNL     1      97.959  83.702  77.695  1.00  0.00     0.157 A 
ATOM     10  C   UNL     1      99.818  82.922  79.065  1.00  0.00     0.056 A 
ATOM     11  C   UNL     1      97.154  83.787  78.846  1.00  0.00     0.050 A 
ATOM     12  C   UNL     1      97.672  83.423  80.100  1.00  0.00     0.009 A 
BRANCH   8  13
ATOM     13  O   UNL     1     100.102  83.192  76.694  1.00  0.00    -0.493 OA
ATOM     14  C   UNL     1     100.191  81.873  76.122  1.00  0.00     0.278 C 
ENDBRANCH   8  13
BRANCH   9  15
ATOM     15  O   UNL     1      97.447  84.034  76.483  1.00  0.00    -0.504 OA
ATOM     16  H   UNL     1      97.032  83.263  76.089  1.00  0.00     0.293 HD
ENDBRANCH   9  15
ENDBRANCH   6   7
ENDBRANCH   3   6
ENDBRANCH   1   2
BRANCH   1  17
ATOM     17  C   UNL     1      96.907  82.838  85.459  1.00  0.00     0.010 C 
BRANCH  17  18
ATOM     18  C   UNL     1      96.773  84.144  84.628  1.00  0.00     0.001 C 
BRANCH  18  19
ATOM     19  C   UNL     1      97.052  85.429  85.451  1.00  0.00     0.000 C 
BRANCH  19  20
ATOM     20  C   UNL     1      95.881  85.776  86.416  1.00  0.00     0.003 C 
BRANCH  20  21
ATOM     21  C   UNL     1      96.267  85.826  87.930  1.00  0.00    -0.017 C 
ATOM     22  C   UNL     1      96.009  84.451  88.614  1.00  0.00     0.007 C 
ATOM     23  C   UNL     1      95.527  86.955  88.705  1.00  0.00     0.007 C 
ENDBRANCH  20  21
ENDBRANCH  19  20
ENDBRANCH  18  19
ENDBRANCH  17  18
ENDBRANCH   1  17
TORSDOF 10
ENDMDL
MODEL 6
REMARK VINA RESULT:    -5.465     12.549     14.639
REMARK INTER + INTRA:          -9.485
REMARK INTER:                  -8.491
REMARK INTRA:                  -0.994
REMARK UNBOUND:                -0.985
REMARK SMILES COc1cc(CNC(=O)CCCCCC(C)C)ccc1O
REMARK SMILES IDX 10 1 8 2 7 3 9 5 6 6 5 7 3 8 20 9 4 10 19 11 18 12 2 13 1 14
REMARK SMILES IDX 21 15 11 17 12 18 13 19 14 20 15 21 16 22 17 23
REMARK H PARENT 7 4 21 16
REMARK Flexibility Score: inf
ROOT
ATOM      1  C   UNL     1      96.997  83.896  84.507  1.00  0.00     0.100 C 
ENDROOT
BRANCH   1   2
ATOM      2  C   UNL     1      98.089  83.232  83.764  1.00  0.00     0.220 C 
ATOM      3  N   UNL     1      98.087  83.263  82.402  1.00  0.00    -0.352 N 
ATOM      4  H   UNL     1      97.246  83.637  81.986  1.00  0.00     0.163 HD
ATOM      5  O   UNL     1      99.020  82.689  84.407  1.00  0.00    -0.275 OA
BRANCH   3   6
ATOM      6  C   UNL     1      99.158  82.819  81.568  1.00  0.00     0.151 C 
BRANCH   6   7
ATOM      7  C   UNL     1      98.907  83.052  80.120  1.00  0.00    -0.025 A 
ATOM      8  C   UNL     1      99.694  83.041  77.791  1.00  0.00     0.160 A 
ATOM      9  C   UNL     1      98.410  83.432  77.357  1.00  0.00     0.157 A 
ATOM     10  C   UNL     1      99.940  82.872  79.170  1.00  0.00     0.056 A 
ATOM     11  C   UNL     1      97.382  83.640  78.296  1.00  0.00     0.050 A 
ATOM     12  C   UNL     1      97.627  83.446  79.666  1.00  0.00     0.009 A 
BRANCH   8  13
ATOM     13  O   UNL     1     100.714  82.853  76.895  1.00  0.00    -0.493 OA
ATOM     14  C   UNL     1     101.548  84.013  76.710  1.00  0.00     0.278 C 
ENDBRANCH   8  13
BRANCH   9  15
ATOM     15  O   UNL     1      98.164  83.599  76.033  1.00  0.00    -0.504 OA
ATOM     16  H   UNL     1      97.216  83.613  75.883  1.00  0.00     0.293 HD
ENDBRANCH   9  15
ENDBRANCH   6   7
ENDBRANCH   3   6
ENDBRANCH   1   2
BRANCH   1  17
ATOM     17  C   UNL     1      97.405  85.232  85.184  1.00  0.00     0.010 C 
BRANCH  17  18
ATOM     18  C   UNL     1      96.365  85.675  86.250  1.00  0.00     0.001 C 
BRANCH  18  19
ATOM     19  C   UNL     1      95.471  84.513  86.758  1.00  0.00     0.000 C 
BRANCH  19  20
ATOM     20  C   UNL     1      95.929  83.984  88.148  1.00  0.00     0.003 C 
BRANCH  20  21
ATOM     21  C   UNL     1      96.568  82.557  88.134  1.00  0.00    -0.017 C 
ATOM     22  C   UNL     1      98.099  82.637  87.859  1.00  0.00     0.007 C 
ATOM     23  C   UNL     1      95.892  81.602  87.108  1.00  0.00     0.007 C 
ENDBRANCH  20  21
ENDBRANCH  19  20
ENDBRANCH  18  19
ENDBRANCH  17  18
ENDBRANCH   1  17
TORSDOF 10
ENDMDL
MODEL 7
REMARK VINA RESULT:    -5.382      1.208      2.445
REMARK INTER + INTRA:          -9.357
REMARK INTER:                  -8.558
REMARK INTRA:                  -0.798
REMARK UNBOUND:                -0.985
REMARK SMILES COc1cc(CNC(=O)CCCCCC(C)C)ccc1O
REMARK SMILES IDX 10 1 8 2 7 3 9 5 6 6 5 7 3 8 20 9 4 10 19 11 18 12 2 13 1 14
REMARK SMILES IDX 21 15 11 17 12 18 13 19 14 20 15 21 16 22 17 23
REMARK H PARENT 7 4 21 16
REMARK Flexibility Score: inf
ROOT
ATOM      1  C   UNL     1      93.626  95.662  76.565  1.00  0.00     0.100 C 
ENDROOT
BRANCH   1   2
ATOM      2  C   UNL     1      94.749  96.528  76.980  1.00  0.00     0.220 C 
ATOM      3  N   UNL     1      95.135  96.544  78.287  1.00  0.00    -0.352 N 
ATOM      4  H   UNL     1      94.522  96.046  78.917  1.00  0.00     0.163 HD
ATOM      5  O   UNL     1      95.354  97.200  76.109  1.00  0.00    -0.275 OA
BRANCH   3   6
ATOM      6  C   UNL     1      96.302  97.193  78.791  1.00  0.00     0.151 C 
BRANCH   6   7
ATOM      7  C   UNL     1      96.680  96.739  80.157  1.00  0.00    -0.025 A 
ATOM      8  C   UNL     1      97.677  97.198  82.357  1.00  0.00     0.160 A 
ATOM      9  C   UNL     1      97.338  95.895  82.780  1.00  0.00     0.157 A 
ATOM     10  C   UNL     1      97.362  97.605  81.043  1.00  0.00     0.056 A 
ATOM     11  C   UNL     1      96.683  95.016  81.898  1.00  0.00     0.050 A 
ATOM     12  C   UNL     1      96.351  95.436  80.599  1.00  0.00     0.009 A 
BRANCH   8  13
ATOM     13  O   UNL     1      98.332  98.063  83.194  1.00  0.00    -0.493 OA
ATOM     14  C   UNL     1      99.620  98.483  82.703  1.00  0.00     0.278 C 
ENDBRANCH   8  13
BRANCH   9  15
ATOM     15  O   UNL     1      97.638  95.493  84.041  1.00  0.00    -0.504 OA
ATOM     16  H   UNL     1      97.077  95.957  84.666  1.00  0.00     0.293 HD
ENDBRANCH   9  15
ENDBRANCH   6   7
ENDBRANCH   3   6
ENDBRANCH   1   2
BRANCH   1  17
ATOM     17  C   UNL     1      92.229  96.328  76.685  1.00  0.00     0.010 C 
BRANCH  17  18
ATOM     18  C   UNL     1      91.406  95.726  77.857  1.00  0.00     0.001 C 
BRANCH  18  19
ATOM     19  C   UNL     1      89.913  95.491  77.506  1.00  0.00     0.000 C 
BRANCH  19  20
ATOM     20  C   UNL     1      89.596  93.987  77.260  1.00  0.00     0.003 C 
BRANCH  20  21
ATOM     21  C   UNL     1      90.330  93.349  76.036  1.00  0.00    -0.017 C 
ATOM     22  C   UNL     1      89.307  92.805  74.997  1.00  0.00     0.007 C 
ATOM     23  C   UNL     1      91.324  92.224  76.447  1.00  0.00     0.007 C 
ENDBRANCH  20  21
ENDBRANCH  19  20
ENDBRANCH  18  19
ENDBRANCH  17  18
ENDBRANCH   1  17
TORSDOF 10
ENDMDL
MODEL 8
REMARK VINA RESULT:    -5.338     23.599     27.853
REMARK INTER + INTRA:          -9.288
REMARK INTER:                  -8.630
REMARK INTRA:                  -0.658
REMARK UNBOUND:                -0.985
REMARK SMILES COc1cc(CNC(=O)CCCCCC(C)C)ccc1O
REMARK SMILES IDX 10 1 8 2 7 3 9 5 6 6 5 7 3 8 20 9 4 10 19 11 18 12 2 13 1 14
REMARK SMILES IDX 21 15 11 17 12 18 13 19 14 20 15 21 16 22 17 23
REMARK H PARENT 7 4 21 16
REMARK Flexibility Score: inf
ROOT
ATOM      1  C   UNL     1      76.328  81.749  66.025  1.00  0.00     0.100 C 
ENDROOT
BRANCH   1   2
ATOM      2  C   UNL     1      75.290  81.372  65.042  1.00  0.00     0.220 C 
ATOM      3  N   UNL     1      74.084  80.916  65.484  1.00  0.00    -0.352 N 
ATOM      4  H   UNL     1      74.034  80.741  66.477  1.00  0.00     0.163 HD
ATOM      5  O   UNL     1      75.527  81.521  63.819  1.00  0.00    -0.275 OA
BRANCH   3   6
ATOM      6  C   UNL     1      72.941  80.684  64.660  1.00  0.00     0.151 C 
BRANCH   6   7
ATOM      7  C   UNL     1      71.793  81.570  64.989  1.00  0.00    -0.025 A 
ATOM      8  C   UNL     1      70.487  82.844  66.638  1.00  0.00     0.160 A 
ATOM      9  C   UNL     1      69.646  83.313  65.606  1.00  0.00     0.157 A 
ATOM     10  C   UNL     1      71.543  81.961  66.326  1.00  0.00     0.056 A 
ATOM     11  C   UNL     1      69.870  82.910  64.277  1.00  0.00     0.050 A 
ATOM     12  C   UNL     1      70.938  82.050  63.969  1.00  0.00     0.009 A 
BRANCH   8  13
ATOM     13  O   UNL     1      70.274  83.209  67.941  1.00  0.00    -0.493 OA
ATOM     14  C   UNL     1      71.170  84.233  68.413  1.00  0.00     0.278 C 
ENDBRANCH   8  13
BRANCH   9  15
ATOM     15  O   UNL     1      68.627  84.160  65.896  1.00  0.00    -0.504 OA
ATOM     16  H   UNL     1      68.870  84.710  66.644  1.00  0.00     0.293 HD
ENDBRANCH   9  15
ENDBRANCH   6   7
ENDBRANCH   3   6
ENDBRANCH   1   2
BRANCH   1  17
ATOM     17  C   UNL     1      77.203  82.957  65.597  1.00  0.00     0.010 C 
BRANCH  17  18
ATOM     18  C   UNL     1      78.050  83.498  66.782  1.00  0.00     0.001 C 
BRANCH  18  19
ATOM     19  C   UNL     1      77.446  84.765  67.444  1.00  0.00     0.000 C 
BRANCH  19  20
ATOM     20  C   UNL     1      78.354  85.327  68.576  1.00  0.00     0.003 C 
BRANCH  20  21
ATOM     21  C   UNL     1      77.612  85.669  69.909  1.00  0.00    -0.017 C 
ATOM     22  C   UNL     1      76.702  84.487  70.357  1.00  0.00     0.007 C 
ATOM     23  C   UNL     1      76.778  86.980  69.818  1.00  0.00     0.007 C 
ENDBRANCH  20  21
ENDBRANCH  19  20
ENDBRANCH  18  19
ENDBRANCH  17  18
ENDBRANCH   1  17
TORSDOF 10
ENDMDL
MODEL 9
REMARK VINA RESULT:    -5.278      3.088      4.583
REMARK INTER + INTRA:          -9.194
REMARK INTER:                  -8.534
REMARK INTRA:                  -0.660
REMARK UNBOUND:                -0.985
REMARK SMILES COc1cc(CNC(=O)CCCCCC(C)C)ccc1O
REMARK SMILES IDX 10 1 8 2 7 3 9 5 6 6 5 7 3 8 20 9 4 10 19 11 18 12 2 13 1 14
REMARK SMILES IDX 21 15 11 17 12 18 13 19 14 20 15 21 16 22 17 23
REMARK H PARENT 7 4 21 16
REMARK Flexibility Score: inf
ROOT
ATOM      1  C   UNL     1      94.884  94.053  80.075  1.00  0.00     0.100 C 
ENDROOT
BRANCH   1   2
ATOM      2  C   UNL     1      95.542  94.236  81.386  1.00  0.00     0.220 C 
ATOM      3  N   UNL     1      96.498  95.197  81.526  1.00  0.00    -0.352 N 
ATOM      4  H   UNL     1      96.787  95.638  80.665  1.00  0.00     0.163 HD
ATOM      5  O   UNL     1      95.174  93.529  82.356  1.00  0.00    -0.275 OA
BRANCH   3   6
ATOM      6  C   UNL     1      97.086  95.596  82.765  1.00  0.00     0.151 C 
BRANCH   6   7
ATOM      7  C   UNL     1      96.610  96.925  83.236  1.00  0.00    -0.025 A 
ATOM      8  C   UNL     1      96.578  98.696  84.942  1.00  0.00     0.160 A 
ATOM      9  C   UNL     1      95.758  99.483  84.106  1.00  0.00     0.157 A 
ATOM     10  C   UNL     1      96.984  97.415  84.510  1.00  0.00     0.056 A 
ATOM     11  C   UNL     1      95.359  98.994  82.848  1.00  0.00     0.050 A 
ATOM     12  C   UNL     1      95.786  97.728  82.414  1.00  0.00     0.009 A 
BRANCH   8  13
ATOM     13  O   UNL     1      96.962  99.145  86.179  1.00  0.00    -0.493 OA
ATOM     14  C   UNL     1      96.131  98.668  87.254  1.00  0.00     0.278 C 
ENDBRANCH   8  13
BRANCH   9  15
ATOM     15  O   UNL     1      95.361 100.715  84.512  1.00  0.00    -0.504 OA
ATOM     16  H   UNL     1      95.471 100.789  85.463  1.00  0.00     0.293 HD
ENDBRANCH   9  15
ENDBRANCH   6   7
ENDBRANCH   3   6
ENDBRANCH   1   2
BRANCH   1  17
ATOM     17  C   UNL     1      94.152  95.316  79.547  1.00  0.00     0.010 C 
BRANCH  17  18
ATOM     18  C   UNL     1      93.360  95.015  78.244  1.00  0.00     0.001 C 
BRANCH  18  19
ATOM     19  C   UNL     1      91.859  95.396  78.333  1.00  0.00     0.000 C 
BRANCH  19  20
ATOM     20  C   UNL     1      91.106  95.139  76.996  1.00  0.00     0.003 C 
BRANCH  20  21
ATOM     21  C   UNL     1      89.807  94.278  77.124  1.00  0.00    -0.017 C 
ATOM     22  C   UNL     1      89.856  93.386  78.400  1.00  0.00     0.007 C 
ATOM     23  C   UNL     1      89.537  93.399  75.868  1.00  0.00     0.007 C 
ENDBRANCH  20  21
ENDBRANCH  19  20
ENDBRANCH  18  19
ENDBRANCH  17  18
ENDBRANCH   1  17
TORSDOF 10
ENDMDL
MODEL 10
REMARK VINA RESULT:    -5.217      2.619      4.138
REMARK INTER + INTRA:          -9.100
REMARK INTER:                  -8.484
REMARK INTRA:                  -0.615
REMARK UNBOUND:                -0.985
REMARK SMILES COc1cc(CNC(=O)CCCCCC(C)C)ccc1O
REMARK SMILES IDX 10 1 8 2 7 3 9 5 6 6 5 7 3 8 20 9 4 10 19 11 18 12 2 13 1 14
REMARK SMILES IDX 21 15 11 17 12 18 13 19 14 20 15 21 16 22 17 23
REMARK H PARENT 7 4 21 16
REMARK Flexibility Score: inf
ROOT
ATOM      1  C   UNL     1      94.809  93.999  79.560  1.00  0.00     0.100 C 
ENDROOT
BRANCH   1   2
ATOM      2  C   UNL     1      95.405  93.958  80.911  1.00  0.00     0.220 C 
ATOM      3  N   UNL     1      96.312  94.910  81.272  1.00  0.00    -0.352 N 
ATOM      4  H   UNL     1      96.615  95.514  80.521  1.00  0.00     0.163 HD
ATOM      5  O   UNL     1      95.031  93.070  81.715  1.00  0.00    -0.275 OA
BRANCH   3   6
ATOM      6  C   UNL     1      96.832  95.092  82.589  1.00  0.00     0.151 C 
BRANCH   6   7
ATOM      7  C   UNL     1      97.024  96.523  82.949  1.00  0.00    -0.025 A 
ATOM      8  C   UNL     1      96.673  98.909  82.466  1.00  0.00     0.160 A 
ATOM      9  C   UNL     1      97.331  99.246  83.668  1.00  0.00     0.157 A 
ATOM     10  C   UNL     1      96.540  97.551  82.105  1.00  0.00     0.056 A 
ATOM     11  C   UNL     1      97.840  98.233  84.501  1.00  0.00     0.050 A 
ATOM     12  C   UNL     1      97.683  96.882  84.148  1.00  0.00     0.009 A 
BRANCH   8  13
ATOM     13  O   UNL     1      96.187  99.880  81.631  1.00  0.00    -0.493 OA
ATOM     14  C   UNL     1      96.076  99.464  80.256  1.00  0.00     0.278 C 
ENDBRANCH   8  13
BRANCH   9  15
ATOM     15  O   UNL     1      97.466 100.548  84.023  1.00  0.00    -0.504 OA
ATOM     16  H   UNL     1      96.843 100.756  84.723  1.00  0.00     0.293 HD
ENDBRANCH   9  15
ENDBRANCH   6   7
ENDBRANCH   3   6
ENDBRANCH   1   2
BRANCH   1  17
ATOM     17  C   UNL     1      93.310  94.402  79.535  1.00  0.00     0.010 C 
BRANCH  17  18
ATOM     18  C   UNL     1      92.972  95.274  78.294  1.00  0.00     0.001 C 
BRANCH  18  19
ATOM     19  C   UNL     1      92.833  94.455  76.984  1.00  0.00     0.000 C 
BRANCH  19  20
ATOM     20  C   UNL     1      91.474  93.700  76.904  1.00  0.00     0.003 C 
BRANCH  20  21
ATOM     21  C   UNL     1      90.386  94.191  77.914  1.00  0.00    -0.017 C 
ATOM     22  C   UNL     1      89.715  92.986  78.637  1.00  0.00     0.007 C 
ATOM     23  C   UNL     1      89.301  95.085  77.245  1.00  0.00     0.007 C 
ENDBRANCH  20  21
ENDBRANCH  19  20
ENDBRANCH  18  19
ENDBRANCH  17  18
ENDBRANCH   1  17
TORSDOF 10
ENDMDL
