MODEL 1
REMARK VINA RESULT:    -6.419      0.000      0.000
REMARK INTER + INTRA:         -11.221
REMARK INTER:                 -10.359
REMARK INTRA:                  -0.862
REMARK UNBOUND:                -0.862
REMARK SMILES COc1cc(CNC(=O)CCCCC/C=C/C(C)C)ccc1O
REMARK SMILES IDX 11 1 10 2 8 3 7 4 9 6 6 7 5 8 3 9 22 10 4 11 21 12 20 13
REMARK SMILES IDX 2 14 1 15 23 16 12 18 13 19 14 20 15 21 16 22 17 23 18 24
REMARK SMILES IDX 19 25
REMARK H PARENT 7 5 23 17
REMARK Flexibility Score: inf
ROOT
ATOM      1  C   UNL     1      92.856  85.495  87.256  1.00  0.00     0.010 C 
ENDROOT
BRANCH   1   2
ATOM      2  C   UNL     1      93.746  85.043  86.070  1.00  0.00     0.100 C 
BRANCH   2   3
ATOM      3  C   UNL     1      93.619  83.613  85.734  1.00  0.00     0.220 C 
ATOM      4  N   UNL     1      92.760  83.221  84.752  1.00  0.00    -0.352 N 
ATOM      5  H   UNL     1      92.199  83.966  84.361  1.00  0.00     0.163 HD
ATOM      6  O   UNL     1      94.344  82.791  86.343  1.00  0.00    -0.275 OA
BRANCH   4   7
ATOM      7  C   UNL     1      92.611  81.889  84.264  1.00  0.00     0.151 C 
BRANCH   7   8
ATOM      8  C   UNL     1      91.191  81.453  84.215  1.00  0.00    -0.025 A 
ATOM      9  C   UNL     1      88.790  81.985  84.267  1.00  0.00     0.160 A 
ATOM     10  C   UNL     1      88.485  80.610  84.175  1.00  0.00     0.157 A 
ATOM     11  C   UNL     1      90.139  82.395  84.295  1.00  0.00     0.056 A 
ATOM     12  C   UNL     1      89.523  79.665  84.078  1.00  0.00     0.050 A 
ATOM     13  C   UNL     1      90.866  80.085  84.087  1.00  0.00     0.009 A 
BRANCH   9  14
ATOM     14  O   UNL     1      87.788  82.919  84.274  1.00  0.00    -0.493 OA
ATOM     15  C   UNL     1      87.716  83.695  85.482  1.00  0.00     0.278 C 
ENDBRANCH   9  14
BRANCH  10  16
ATOM     16  O   UNL     1      87.201  80.172  84.174  1.00  0.00    -0.504 OA
ATOM     17  H   UNL     1      87.001  79.769  83.325  1.00  0.00     0.293 HD
ENDBRANCH  10  16
ENDBRANCH   7   8
ENDBRANCH   4   7
ENDBRANCH   2   3
ENDBRANCH   1   2
BRANCH   1  18
ATOM     18  C   UNL     1      93.583  85.295  88.610  1.00  0.00     0.001 C 
BRANCH  18  19
ATOM     19  C   UNL     1      93.737  86.599  89.433  1.00  0.00     0.004 C 
BRANCH  19  20
ATOM     20  C   UNL     1      92.361  87.124  89.927  1.00  0.00     0.027 C 
BRANCH  20  21
ATOM     21  C   UNL     1      92.125  88.525  89.621  1.00  0.00    -0.031 C 
ATOM     22  C   UNL     1      93.048  89.293  89.015  1.00  0.00    -0.028 C 
BRANCH  22  23
ATOM     23  C   UNL     1      92.841  90.702  88.690  1.00  0.00     0.005 C 
ATOM     24  C   UNL     1      92.326  91.472  89.935  1.00  0.00     0.012 C 
ATOM     25  C   UNL     1      94.145  91.317  88.113  1.00  0.00     0.012 C 
ENDBRANCH  22  23
ENDBRANCH  20  21
ENDBRANCH  19  20
ENDBRANCH  18  19
ENDBRANCH   1  18
TORSDOF 11
ENDMDL
MODEL 2
REMARK VINA RESULT:    -6.152     20.774     24.167
REMARK INTER + INTRA:         -10.789
REMARK INTER:                 -10.101
REMARK INTRA:                  -0.689
REMARK UNBOUND:                -0.862
REMARK SMILES COc1cc(CNC(=O)CCCCC/C=C/C(C)C)ccc1O
REMARK SMILES IDX 11 1 10 2 8 3 7 4 9 6 6 7 5 8 3 9 22 10 4 11 21 12 20 13
REMARK SMILES IDX 2 14 1 15 23 16 12 18 13 19 14 20 15 21 16 22 17 23 18 24
REMARK SMILES IDX 19 25
REMARK H PARENT 7 5 23 17
REMARK Flexibility Score: inf
ROOT
ATOM      1  C   UNL     1      75.054  90.460  70.059  1.00  0.00     0.010 C 
ENDROOT
BRANCH   1   2
ATOM      2  C   UNL     1      73.748  90.275  70.874  1.00  0.00     0.100 C 
BRANCH   2   3
ATOM      3  C   UNL     1      73.443  91.396  71.783  1.00  0.00     0.220 C 
ATOM      4  N   UNL     1      74.424  92.276  72.126  1.00  0.00    -0.352 N 
ATOM      5  H   UNL     1      75.342  92.043  71.773  1.00  0.00     0.163 HD
ATOM      6  O   UNL     1      72.264  91.531  72.188  1.00  0.00    -0.275 OA
BRANCH   4   7
ATOM      7  C   UNL     1      74.245  93.452  72.914  1.00  0.00     0.151 C 
BRANCH   7   8
ATOM      8  C   UNL     1      75.393  93.714  73.820  1.00  0.00    -0.025 A 
ATOM      9  C   UNL     1      76.289  94.090  76.079  1.00  0.00     0.160 A 
ATOM     10  C   UNL     1      77.580  94.269  75.536  1.00  0.00     0.157 A 
ATOM     11  C   UNL     1      75.205  93.823  75.217  1.00  0.00     0.056 A 
ATOM     12  C   UNL     1      77.781  94.146  74.149  1.00  0.00     0.050 A 
ATOM     13  C   UNL     1      76.698  93.860  73.298  1.00  0.00     0.009 A 
BRANCH   9  14
ATOM     14  O   UNL     1      76.097  94.120  77.435  1.00  0.00    -0.493 OA
ATOM     15  C   UNL     1      74.717  94.074  77.835  1.00  0.00     0.278 C 
ENDBRANCH   9  14
BRANCH  10  16
ATOM     16  O   UNL     1      78.644  94.554  76.328  1.00  0.00    -0.504 OA
ATOM     17  H   UNL     1      79.401  94.034  76.046  1.00  0.00     0.293 HD
ENDBRANCH  10  16
ENDBRANCH   7   8
ENDBRANCH   4   7
ENDBRANCH   2   3
ENDBRANCH   1   2
BRANCH   1  18
ATOM     18  C   UNL     1      75.253  89.301  69.049  1.00  0.00     0.001 C 
BRANCH  18  19
ATOM     19  C   UNL     1      76.717  89.139  68.567  1.00  0.00     0.004 C 
BRANCH  19  20
ATOM     20  C   UNL     1      76.779  88.521  67.142  1.00  0.00     0.027 C 
BRANCH  20  21
ATOM     21  C   UNL     1      76.787  87.068  67.135  1.00  0.00    -0.031 C 
ATOM     22  C   UNL     1      77.361  86.348  68.115  1.00  0.00    -0.028 C 
BRANCH  22  23
ATOM     23  C   UNL     1      77.381  84.887  68.139  1.00  0.00     0.005 C 
ATOM     24  C   UNL     1      76.124  84.344  68.871  1.00  0.00     0.012 C 
ATOM     25  C   UNL     1      77.511  84.328  66.697  1.00  0.00     0.012 C 
ENDBRANCH  22  23
ENDBRANCH  20  21
ENDBRANCH  19  20
ENDBRANCH  18  19
ENDBRANCH   1  18
TORSDOF 11
ENDMDL
MODEL 3
REMARK VINA RESULT:    -6.059     16.896     19.291
REMARK INTER + INTRA:         -10.640
REMARK INTER:                  -9.590
REMARK INTRA:                  -1.050
REMARK UNBOUND:                -0.862
REMARK SMILES COc1cc(CNC(=O)CCCCC/C=C/C(C)C)ccc1O
REMARK SMILES IDX 11 1 10 2 8 3 7 4 9 6 6 7 5 8 3 9 22 10 4 11 21 12 20 13
REMARK SMILES IDX 2 14 1 15 23 16 12 18 13 19 14 20 15 21 16 22 17 23 18 24
REMARK SMILES IDX 19 25
REMARK H PARENT 7 5 23 17
REMARK Flexibility Score: inf
ROOT
ATOM      1  C   UNL     1      95.227  98.012  77.030  1.00  0.00     0.010 C 
ENDROOT
BRANCH   1   2
ATOM      2  C   UNL     1      94.545  97.642  75.688  1.00  0.00     0.100 C 
BRANCH   2   3
ATOM      3  C   UNL     1      95.460  97.632  74.532  1.00  0.00     0.220 C 
ATOM      4  N   UNL     1      95.057  97.082  73.353  1.00  0.00    -0.352 N 
ATOM      5  H   UNL     1      94.149  96.640  73.383  1.00  0.00     0.163 HD
ATOM      6  O   UNL     1      96.584  98.173  74.658  1.00  0.00    -0.275 OA
BRANCH   4   7
ATOM      7  C   UNL     1      95.801  97.093  72.136  1.00  0.00     0.151 C 
BRANCH   7   8
ATOM      8  C   UNL     1      95.229  98.017  71.123  1.00  0.00    -0.025 A 
ATOM      9  C   UNL     1      93.679  99.828  70.518  1.00  0.00     0.160 A 
ATOM     10  C   UNL     1      94.104  99.742  69.175  1.00  0.00     0.157 A 
ATOM     11  C   UNL     1      94.237  98.961  71.479  1.00  0.00     0.056 A 
ATOM     12  C   UNL     1      95.102  98.819  68.812  1.00  0.00     0.050 A 
ATOM     13  C   UNL     1      95.669  97.970  69.781  1.00  0.00     0.009 A 
BRANCH   9  14
ATOM     14  O   UNL     1      92.772 100.782  70.898  1.00  0.00    -0.493 OA
ATOM     15  C   UNL     1      91.419 100.304  70.984  1.00  0.00     0.278 C 
ENDBRANCH   9  14
BRANCH  10  16
ATOM     16  O   UNL     1      93.572 100.539  68.214  1.00  0.00    -0.504 OA
ATOM     17  H   UNL     1      93.898 101.435  68.326  1.00  0.00     0.293 HD
ENDBRANCH  10  16
ENDBRANCH   7   8
ENDBRANCH   4   7
ENDBRANCH   2   3
ENDBRANCH   1   2
BRANCH   1  18
ATOM     18  C   UNL     1      94.854  97.002  78.145  1.00  0.00     0.001 C 
BRANCH  18  19
ATOM     19  C   UNL     1      94.487  95.593  77.613  1.00  0.00     0.004 C 
BRANCH  19  20
ATOM     20  C   UNL     1      93.380  94.930  78.479  1.00  0.00     0.027 C 
BRANCH  20  21
ATOM     21  C   UNL     1      92.082  94.877  77.827  1.00  0.00    -0.031 C 
ATOM     22  C   UNL     1      91.948  94.912  76.489  1.00  0.00    -0.028 C 
BRANCH  22  23
ATOM     23  C   UNL     1      90.659  94.854  75.804  1.00  0.00     0.005 C 
ATOM     24  C   UNL     1      90.741  93.900  74.583  1.00  0.00     0.012 C 
ATOM     25  C   UNL     1      89.540  94.443  76.799  1.00  0.00     0.012 C 
ENDBRANCH  22  23
ENDBRANCH  20  21
ENDBRANCH  19  20
ENDBRANCH  18  19
ENDBRANCH   1  18
TORSDOF 11
ENDMDL
MODEL 4
REMARK VINA RESULT:    -5.689     21.029     24.525
REMARK INTER + INTRA:         -10.042
REMARK INTER:                  -9.335
REMARK INTRA:                  -0.707
REMARK UNBOUND:                -0.862
REMARK SMILES COc1cc(CNC(=O)CCCCC/C=C/C(C)C)ccc1O
REMARK SMILES IDX 11 1 10 2 8 3 7 4 9 6 6 7 5 8 3 9 22 10 4 11 21 12 20 13
REMARK SMILES IDX 2 14 1 15 23 16 12 18 13 19 14 20 15 21 16 22 17 23 18 24
REMARK SMILES IDX 19 25
REMARK H PARENT 7 5 23 17
REMARK Flexibility Score: inf
ROOT
ATOM      1  C   UNL     1      74.038  89.348  69.374  1.00  0.00     0.010 C 
ENDROOT
BRANCH   1   2
ATOM      2  C   UNL     1      74.823  90.551  69.958  1.00  0.00     0.100 C 
BRANCH   2   3
ATOM      3  C   UNL     1      74.220  91.127  71.175  1.00  0.00     0.220 C 
ATOM      4  N   UNL     1      74.665  92.322  71.651  1.00  0.00    -0.352 N 
ATOM      5  H   UNL     1      75.457  92.706  71.154  1.00  0.00     0.163 HD
ATOM      6  O   UNL     1      73.274  90.510  71.720  1.00  0.00    -0.275 OA
BRANCH   4   7
ATOM      7  C   UNL     1      74.108  93.035  72.755  1.00  0.00     0.151 C 
BRANCH   7   8
ATOM      8  C   UNL     1      75.137  93.465  73.736  1.00  0.00    -0.025 A 
ATOM      9  C   UNL     1      77.407  94.269  74.237  1.00  0.00     0.160 A 
ATOM     10  C   UNL     1      77.114  94.233  75.618  1.00  0.00     0.157 A 
ATOM     11  C   UNL     1      76.421  93.876  73.309  1.00  0.00     0.056 A 
ATOM     12  C   UNL     1      75.835  93.842  76.054  1.00  0.00     0.050 A 
ATOM     13  C   UNL     1      74.850  93.471  75.119  1.00  0.00     0.009 A 
BRANCH   9  14
ATOM     14  O   UNL     1      78.619  94.731  73.798  1.00  0.00    -0.493 OA
ATOM     15  C   UNL     1      78.549  95.974  73.079  1.00  0.00     0.278 C 
ENDBRANCH   9  14
BRANCH  10  16
ATOM     16  O   UNL     1      78.044  94.575  76.545  1.00  0.00    -0.504 OA
ATOM     17  H   UNL     1      77.654  94.526  77.421  1.00  0.00     0.293 HD
ENDBRANCH  10  16
ENDBRANCH   7   8
ENDBRANCH   4   7
ENDBRANCH   2   3
ENDBRANCH   1   2
BRANCH   1  18
ATOM     18  C   UNL     1      74.912  88.067  69.353  1.00  0.00     0.001 C 
BRANCH  18  19
ATOM     19  C   UNL     1      76.236  88.229  68.564  1.00  0.00     0.004 C 
BRANCH  19  20
ATOM     20  C   UNL     1      77.159  86.992  68.747  1.00  0.00     0.027 C 
BRANCH  20  21
ATOM     21  C   UNL     1      77.078  86.036  67.655  1.00  0.00    -0.031 C 
ATOM     22  C   UNL     1      76.306  84.937  67.718  1.00  0.00    -0.028 C 
BRANCH  22  23
ATOM     23  C   UNL     1      76.198  83.960  66.637  1.00  0.00     0.005 C 
ATOM     24  C   UNL     1      75.023  84.330  65.694  1.00  0.00     0.012 C 
ATOM     25  C   UNL     1      77.549  83.848  65.879  1.00  0.00     0.012 C 
ENDBRANCH  22  23
ENDBRANCH  20  21
ENDBRANCH  19  20
ENDBRANCH  18  19
ENDBRANCH   1  18
TORSDOF 11
ENDMDL
MODEL 5
REMARK VINA RESULT:    -5.686      1.044      2.184
REMARK INTER + INTRA:         -10.039
REMARK INTER:                  -9.473
REMARK INTRA:                  -0.566
REMARK UNBOUND:                -0.862
REMARK SMILES COc1cc(CNC(=O)CCCCC/C=C/C(C)C)ccc1O
REMARK SMILES IDX 11 1 10 2 8 3 7 4 9 6 6 7 5 8 3 9 22 10 4 11 21 12 20 13
REMARK SMILES IDX 2 14 1 15 23 16 12 18 13 19 14 20 15 21 16 22 17 23 18 24
REMARK SMILES IDX 19 25
REMARK H PARENT 7 5 23 17
REMARK Flexibility Score: inf
ROOT
ATOM      1  C   UNL     1      92.985  85.844  87.344  1.00  0.00     0.010 C 
ENDROOT
BRANCH   1   2
ATOM      2  C   UNL     1      93.853  85.264  86.198  1.00  0.00     0.100 C 
BRANCH   2   3
ATOM      3  C   UNL     1      93.673  83.816  85.983  1.00  0.00     0.220 C 
ATOM      4  N   UNL     1      93.395  83.344  84.736  1.00  0.00    -0.352 N 
ATOM      5  H   UNL     1      93.256  84.060  84.036  1.00  0.00     0.163 HD
ATOM      6  O   UNL     1      93.824  83.045  86.961  1.00  0.00    -0.275 OA
BRANCH   4   7
ATOM      7  C   UNL     1      93.294  81.968  84.373  1.00  0.00     0.151 C 
BRANCH   7   8
ATOM      8  C   UNL     1      91.892  81.474  84.388  1.00  0.00    -0.025 A 
ATOM      9  C   UNL     1      90.282  79.616  84.344  1.00  0.00     0.160 A 
ATOM     10  C   UNL     1      89.215  80.541  84.363  1.00  0.00     0.157 A 
ATOM     11  C   UNL     1      91.610  80.089  84.348  1.00  0.00     0.056 A 
ATOM     12  C   UNL     1      89.484  81.921  84.420  1.00  0.00     0.050 A 
ATOM     13  C   UNL     1      90.813  82.384  84.443  1.00  0.00     0.009 A 
BRANCH   9  14
ATOM     14  O   UNL     1      90.031  78.270  84.377  1.00  0.00    -0.493 OA
ATOM     15  C   UNL     1      91.108  77.460  83.877  1.00  0.00     0.278 C 
ENDBRANCH   9  14
BRANCH  10  16
ATOM     16  O   UNL     1      87.923  80.129  84.331  1.00  0.00    -0.504 OA
ATOM     17  H   UNL     1      87.876  79.256  83.932  1.00  0.00     0.293 HD
ENDBRANCH  10  16
ENDBRANCH   7   8
ENDBRANCH   4   7
ENDBRANCH   2   3
ENDBRANCH   1   2
BRANCH   1  18
ATOM     18  C   UNL     1      93.561  85.460  88.731  1.00  0.00     0.001 C 
BRANCH  18  19
ATOM     19  C   UNL     1      93.791  86.672  89.668  1.00  0.00     0.004 C 
BRANCH  19  20
ATOM     20  C   UNL     1      92.444  87.275  90.156  1.00  0.00     0.027 C 
BRANCH  20  21
ATOM     21  C   UNL     1      92.257  88.667  89.781  1.00  0.00    -0.031 C 
ATOM     22  C   UNL     1      93.087  89.301  88.934  1.00  0.00    -0.028 C 
BRANCH  22  23
ATOM     23  C   UNL     1      92.923  90.696  88.534  1.00  0.00     0.005 C 
ATOM     24  C   UNL     1      92.648  91.584  89.776  1.00  0.00     0.012 C 
ATOM     25  C   UNL     1      94.164  91.173  87.731  1.00  0.00     0.012 C 
ENDBRANCH  22  23
ENDBRANCH  20  21
ENDBRANCH  19  20
ENDBRANCH  18  19
ENDBRANCH   1  18
TORSDOF 11
ENDMDL
MODEL 6
REMARK VINA RESULT:    -5.589      3.526      5.940
REMARK INTER + INTRA:          -9.881
REMARK INTER:                  -9.140
REMARK INTRA:                  -0.741
REMARK UNBOUND:                -0.862
REMARK SMILES COc1cc(CNC(=O)CCCCC/C=C/C(C)C)ccc1O
REMARK SMILES IDX 11 1 10 2 8 3 7 4 9 6 6 7 5 8 3 9 22 10 4 11 21 12 20 13
REMARK SMILES IDX 2 14 1 15 23 16 12 18 13 19 14 20 15 21 16 22 17 23 18 24
REMARK SMILES IDX 19 25
REMARK H PARENT 7 5 23 17
REMARK Flexibility Score: inf
ROOT
ATOM      1  C   UNL     1      93.850  83.618  87.739  1.00  0.00     0.010 C 
ENDROOT
BRANCH   1   2
ATOM      2  C   UNL     1      93.651  84.278  86.350  1.00  0.00     0.100 C 
BRANCH   2   3
ATOM      3  C   UNL     1      93.301  83.327  85.278  1.00  0.00     0.220 C 
ATOM      4  N   UNL     1      92.137  82.624  85.349  1.00  0.00    -0.352 N 
ATOM      5  H   UNL     1      91.614  82.760  86.203  1.00  0.00     0.163 HD
ATOM      6  O   UNL     1      94.076  83.222  84.298  1.00  0.00    -0.275 OA
BRANCH   4   7
ATOM      7  C   UNL     1      91.633  81.749  84.341  1.00  0.00     0.151 C 
BRANCH   7   8
ATOM      8  C   UNL     1      90.149  81.681  84.332  1.00  0.00    -0.025 A 
ATOM      9  C   UNL     1      87.959  82.788  84.498  1.00  0.00     0.160 A 
ATOM     10  C   UNL     1      87.317  81.537  84.368  1.00  0.00     0.157 A 
ATOM     11  C   UNL     1      89.367  82.850  84.488  1.00  0.00     0.056 A 
ATOM     12  C   UNL     1      88.084  80.370  84.194  1.00  0.00     0.050 A 
ATOM     13  C   UNL     1      89.489  80.443  84.166  1.00  0.00     0.009 A 
BRANCH   9  14
ATOM     14  O   UNL     1      87.221  83.940  84.579  1.00  0.00    -0.493 OA
ATOM     15  C   UNL     1      86.723  84.227  85.896  1.00  0.00     0.278 C 
ENDBRANCH   9  14
BRANCH  10  16
ATOM     16  O   UNL     1      85.965  81.431  84.400  1.00  0.00    -0.504 OA
ATOM     17  H   UNL     1      85.573  82.277  84.168  1.00  0.00     0.293 HD
ENDBRANCH  10  16
ENDBRANCH   7   8
ENDBRANCH   4   7
ENDBRANCH   2   3
ENDBRANCH   1   2
BRANCH   1  18
ATOM     18  C   UNL     1      94.761  82.368  87.639  1.00  0.00     0.001 C 
BRANCH  18  19
ATOM     19  C   UNL     1      96.234  82.698  87.286  1.00  0.00     0.004 C 
BRANCH  19  20
ATOM     20  C   UNL     1      96.911  81.522  86.527  1.00  0.00     0.027 C 
BRANCH  20  21
ATOM     21  C   UNL     1      96.317  81.243  85.231  1.00  0.00    -0.031 C 
ATOM     22  C   UNL     1      97.010  81.356  84.084  1.00  0.00    -0.028 C 
BRANCH  22  23
ATOM     23  C   UNL     1      96.444  81.078  82.766  1.00  0.00     0.005 C 
ATOM     24  C   UNL     1      96.776  82.232  81.784  1.00  0.00     0.012 C 
ATOM     25  C   UNL     1      96.941  79.701  82.248  1.00  0.00     0.012 C 
ENDBRANCH  22  23
ENDBRANCH  20  21
ENDBRANCH  19  20
ENDBRANCH  18  19
ENDBRANCH   1  18
TORSDOF 11
ENDMDL
MODEL 7
REMARK VINA RESULT:    -5.584      7.316     10.909
REMARK INTER + INTRA:          -9.874
REMARK INTER:                  -8.954
REMARK INTRA:                  -0.919
REMARK UNBOUND:                -0.862
REMARK SMILES COc1cc(CNC(=O)CCCCC/C=C/C(C)C)ccc1O
REMARK SMILES IDX 11 1 10 2 8 3 7 4 9 6 6 7 5 8 3 9 22 10 4 11 21 12 20 13
REMARK SMILES IDX 2 14 1 15 23 16 12 18 13 19 14 20 15 21 16 22 17 23 18 24
REMARK SMILES IDX 19 25
REMARK H PARENT 7 5 23 17
REMARK Flexibility Score: inf
ROOT
ATOM      1  C   UNL     1     100.146  81.125  79.204  1.00  0.00     0.010 C 
ENDROOT
BRANCH   1   2
ATOM      2  C   UNL     1      99.908  82.052  80.424  1.00  0.00     0.100 C 
BRANCH   2   3
ATOM      3  C   UNL     1      98.655  82.826  80.355  1.00  0.00     0.220 C 
ATOM      4  N   UNL     1      97.773  82.782  81.391  1.00  0.00    -0.352 N 
ATOM      5  H   UNL     1      98.022  82.138  82.129  1.00  0.00     0.163 HD
ATOM      6  O   UNL     1      98.454  83.544  79.347  1.00  0.00    -0.275 OA
BRANCH   4   7
ATOM      7  C   UNL     1      96.577  83.552  81.495  1.00  0.00     0.151 C 
BRANCH   7   8
ATOM      8  C   UNL     1      95.976  83.495  82.853  1.00  0.00    -0.025 A 
ATOM      9  C   UNL     1      95.317  84.607  84.946  1.00  0.00     0.160 A 
ATOM     10  C   UNL     1      94.878  83.369  85.464  1.00  0.00     0.157 A 
ATOM     11  C   UNL     1      95.870  84.659  83.650  1.00  0.00     0.056 A 
ATOM     12  C   UNL     1      94.963  82.208  84.674  1.00  0.00     0.050 A 
ATOM     13  C   UNL     1      95.498  82.272  83.374  1.00  0.00     0.009 A 
BRANCH   9  14
ATOM     14  O   UNL     1      95.158  85.757  85.672  1.00  0.00    -0.493 OA
ATOM     15  C   UNL     1      94.035  86.557  85.268  1.00  0.00     0.278 C 
ENDBRANCH   9  14
BRANCH  10  16
ATOM     16  O   UNL     1      94.366  83.271  86.716  1.00  0.00    -0.504 OA
ATOM     17  H   UNL     1      94.925  82.698  87.246  1.00  0.00     0.293 HD
ENDBRANCH  10  16
ENDBRANCH   7   8
ENDBRANCH   4   7
ENDBRANCH   2   3
ENDBRANCH   1   2
BRANCH   1  18
ATOM     18  C   UNL     1      98.999  80.093  79.053  1.00  0.00     0.001 C 
BRANCH  18  19
ATOM     19  C   UNL     1      98.123  80.316  77.795  1.00  0.00     0.004 C 
BRANCH  19  20
ATOM     20  C   UNL     1      98.849  81.207  76.748  1.00  0.00     0.027 C 
BRANCH  20  21
ATOM     21  C   UNL     1      97.991  82.208  76.138  1.00  0.00    -0.031 C 
ATOM     22  C   UNL     1      98.389  82.955  75.093  1.00  0.00    -0.028 C 
BRANCH  22  23
ATOM     23  C   UNL     1      97.549  83.965  74.453  1.00  0.00     0.005 C 
ATOM     24  C   UNL     1      96.791  84.792  75.526  1.00  0.00     0.012 C 
ATOM     25  C   UNL     1      98.405  84.859  73.515  1.00  0.00     0.012 C 
ENDBRANCH  22  23
ENDBRANCH  20  21
ENDBRANCH  19  20
ENDBRANCH  18  19
ENDBRANCH   1  18
TORSDOF 11
ENDMDL
MODEL 8
REMARK VINA RESULT:    -5.413     16.645     19.208
REMARK INTER + INTRA:          -9.598
REMARK INTER:                  -8.436
REMARK INTRA:                  -1.162
REMARK UNBOUND:                -0.862
REMARK SMILES COc1cc(CNC(=O)CCCCC/C=C/C(C)C)ccc1O
REMARK SMILES IDX 11 1 10 2 8 3 7 4 9 6 6 7 5 8 3 9 22 10 4 11 21 12 20 13
REMARK SMILES IDX 2 14 1 15 23 16 12 18 13 19 14 20 15 21 16 22 17 23 18 24
REMARK SMILES IDX 19 25
REMARK H PARENT 7 5 23 17
REMARK Flexibility Score: inf
ROOT
ATOM      1  C   UNL     1      95.737  98.164  77.512  1.00  0.00     0.010 C 
ENDROOT
BRANCH   1   2
ATOM      2  C   UNL     1      94.914  97.613  76.319  1.00  0.00     0.100 C 
BRANCH   2   3
ATOM      3  C   UNL     1      95.609  97.696  75.021  1.00  0.00     0.220 C 
ATOM      4  N   UNL     1      95.046  97.139  73.913  1.00  0.00    -0.352 N 
ATOM      5  H   UNL     1      94.191  96.628  74.086  1.00  0.00     0.163 HD
ATOM      6  O   UNL     1      96.695  98.320  74.965  1.00  0.00    -0.275 OA
BRANCH   4   7
ATOM      7  C   UNL     1      95.561  97.230  72.586  1.00  0.00     0.151 C 
BRANCH   7   8
ATOM      8  C   UNL     1      94.808  98.197  71.745  1.00  0.00    -0.025 A 
ATOM      9  C   UNL     1      94.618  99.558  69.705  1.00  0.00     0.160 A 
ATOM     10  C   UNL     1      93.393 100.084  70.172  1.00  0.00     0.157 A 
ATOM     11  C   UNL     1      95.320  98.627  70.498  1.00  0.00     0.056 A 
ATOM     12  C   UNL     1      92.867  99.650  71.402  1.00  0.00     0.050 A 
ATOM     13  C   UNL     1      93.564  98.706  72.179  1.00  0.00     0.009 A 
BRANCH   9  14
ATOM     14  O   UNL     1      95.095  99.907  68.470  1.00  0.00    -0.493 OA
ATOM     15  C   UNL     1      96.155 100.877  68.502  1.00  0.00     0.278 C 
ENDBRANCH   9  14
BRANCH  10  16
ATOM     16  O   UNL     1      92.701 101.003  69.452  1.00  0.00    -0.504 OA
ATOM     17  H   UNL     1      92.304 101.642  70.049  1.00  0.00     0.293 HD
ENDBRANCH  10  16
ENDBRANCH   7   8
ENDBRANCH   4   7
ENDBRANCH   2   3
ENDBRANCH   1   2
BRANCH   1  18
ATOM     18  C   UNL     1      95.943  97.079  78.599  1.00  0.00     0.001 C 
BRANCH  18  19
ATOM     19  C   UNL     1      95.619  95.643  78.114  1.00  0.00     0.004 C 
BRANCH  19  20
ATOM     20  C   UNL     1      94.652  94.919  79.092  1.00  0.00     0.027 C 
BRANCH  20  21
ATOM     21  C   UNL     1      93.287  94.825  78.602  1.00  0.00    -0.031 C 
ATOM     22  C   UNL     1      93.001  94.688  77.296  1.00  0.00    -0.028 C 
BRANCH  22  23
ATOM     23  C   UNL     1      91.641  94.586  76.772  1.00  0.00     0.005 C 
ATOM     24  C   UNL     1      90.932  95.965  76.842  1.00  0.00     0.012 C 
ATOM     25  C   UNL     1      91.663  94.007  75.331  1.00  0.00     0.012 C 
ENDBRANCH  22  23
ENDBRANCH  20  21
ENDBRANCH  19  20
ENDBRANCH  18  19
ENDBRANCH   1  18
TORSDOF 11
ENDMDL
MODEL 9
REMARK VINA RESULT:    -5.342     21.239     23.731
REMARK INTER + INTRA:          -9.483
REMARK INTER:                  -8.760
REMARK INTRA:                  -0.723
REMARK UNBOUND:                -0.862
REMARK SMILES COc1cc(CNC(=O)CCCCC/C=C/C(C)C)ccc1O
REMARK SMILES IDX 11 1 10 2 8 3 7 4 9 6 6 7 5 8 3 9 22 10 4 11 21 12 20 13
REMARK SMILES IDX 2 14 1 15 23 16 12 18 13 19 14 20 15 21 16 22 17 23 18 24
REMARK SMILES IDX 19 25
REMARK H PARENT 7 5 23 17
REMARK Flexibility Score: inf
ROOT
ATOM      1  C   UNL     1      74.400  91.506  70.918  1.00  0.00     0.010 C 
ENDROOT
BRANCH   1   2
ATOM      2  C   UNL     1      74.327  90.065  70.352  1.00  0.00     0.100 C 
BRANCH   2   3
ATOM      3  C   UNL     1      74.967  89.905  69.033  1.00  0.00     0.220 C 
ATOM      4  N   UNL     1      76.244  89.439  68.951  1.00  0.00    -0.352 N 
ATOM      5  H   UNL     1      76.700  89.300  69.842  1.00  0.00     0.163 HD
ATOM      6  O   UNL     1      74.294  90.168  68.008  1.00  0.00    -0.275 OA
BRANCH   4   7
ATOM      7  C   UNL     1      76.945  89.147  67.743  1.00  0.00     0.151 C 
BRANCH   7   8
ATOM      8  C   UNL     1      76.873  87.710  67.373  1.00  0.00    -0.025 A 
ATOM      9  C   UNL     1      76.065  85.925  65.886  1.00  0.00     0.160 A 
ATOM     10  C   UNL     1      76.695  84.961  66.703  1.00  0.00     0.157 A 
ATOM     11  C   UNL     1      76.151  87.289  66.231  1.00  0.00     0.056 A 
ATOM     12  C   UNL     1      77.430  85.369  67.831  1.00  0.00     0.050 A 
ATOM     13  C   UNL     1      77.528  86.735  68.158  1.00  0.00     0.009 A 
BRANCH   9  14
ATOM     14  O   UNL     1      75.422  85.545  64.738  1.00  0.00    -0.493 OA
ATOM     15  C   UNL     1      73.993  85.453  64.869  1.00  0.00     0.278 C 
ENDBRANCH   9  14
BRANCH  10  16
ATOM     16  O   UNL     1      76.613  83.636  66.422  1.00  0.00    -0.504 OA
ATOM     17  H   UNL     1      77.496  83.259  66.399  1.00  0.00     0.293 HD
ENDBRANCH  10  16
ENDBRANCH   7   8
ENDBRANCH   4   7
ENDBRANCH   2   3
ENDBRANCH   1   2
BRANCH   1  18
ATOM     18  C   UNL     1      73.532  91.651  72.195  1.00  0.00     0.001 C 
BRANCH  18  19
ATOM     19  C   UNL     1      73.876  92.900  73.044  1.00  0.00     0.004 C 
BRANCH  19  20
ATOM     20  C   UNL     1      74.926  93.798  72.332  1.00  0.00     0.027 C 
BRANCH  20  21
ATOM     21  C   UNL     1      75.631  94.697  73.230  1.00  0.00    -0.031 C 
ATOM     22  C   UNL     1      76.814  94.378  73.784  1.00  0.00    -0.028 C 
BRANCH  22  23
ATOM     23  C   UNL     1      77.550  95.261  74.686  1.00  0.00     0.005 C 
ATOM     24  C   UNL     1      78.306  94.428  75.756  1.00  0.00     0.012 C 
ATOM     25  C   UNL     1      78.502  96.183  73.876  1.00  0.00     0.012 C 
ENDBRANCH  22  23
ENDBRANCH  20  21
ENDBRANCH  19  20
ENDBRANCH  18  19
ENDBRANCH   1  18
TORSDOF 11
ENDMDL
MODEL 10
REMARK VINA RESULT:    -5.325     20.950     24.636
REMARK INTER + INTRA:          -9.456
REMARK INTER:                  -8.678
REMARK INTRA:                  -0.778
REMARK UNBOUND:                -0.862
REMARK SMILES COc1cc(CNC(=O)CCCCC/C=C/C(C)C)ccc1O
REMARK SMILES IDX 11 1 10 2 8 3 7 4 9 6 6 7 5 8 3 9 22 10 4 11 21 12 20 13
REMARK SMILES IDX 2 14 1 15 23 16 12 18 13 19 14 20 15 21 16 22 17 23 18 24
REMARK SMILES IDX 19 25
REMARK H PARENT 7 5 23 17
REMARK Flexibility Score: inf
ROOT
ATOM      1  C   UNL     1      73.074  92.423  71.163  1.00  0.00     0.010 C 
ENDROOT
BRANCH   1   2
ATOM      2  C   UNL     1      73.259  93.406  69.979  1.00  0.00     0.100 C 
BRANCH   2   3
ATOM      3  C   UNL     1      74.013  94.626  70.323  1.00  0.00     0.220 C 
ATOM      4  N   UNL     1      74.897  94.606  71.360  1.00  0.00    -0.352 N 
ATOM      5  H   UNL     1      74.916  93.740  71.881  1.00  0.00     0.163 HD
ATOM      6  O   UNL     1      73.848  95.648  69.617  1.00  0.00    -0.275 OA
BRANCH   4   7
ATOM      7  C   UNL     1      75.757  95.680  71.737  1.00  0.00     0.151 C 
BRANCH   7   8
ATOM      8  C   UNL     1      76.529  95.388  72.973  1.00  0.00    -0.025 A 
ATOM      9  C   UNL     1      77.826  96.161  74.914  1.00  0.00     0.160 A 
ATOM     10  C   UNL     1      78.045  94.821  75.300  1.00  0.00     0.157 A 
ATOM     11  C   UNL     1      77.078  96.434  73.750  1.00  0.00     0.056 A 
ATOM     12  C   UNL     1      77.489  93.773  74.544  1.00  0.00     0.050 A 
ATOM     13  C   UNL     1      76.728  94.055  73.394  1.00  0.00     0.009 A 
BRANCH   9  14
ATOM     14  O   UNL     1      78.288  97.190  75.691  1.00  0.00    -0.493 OA
ATOM     15  C   UNL     1      78.489  98.421  74.976  1.00  0.00     0.278 C 
ENDBRANCH   9  14
BRANCH  10  16
ATOM     16  O   UNL     1      78.783  94.515  76.397  1.00  0.00    -0.504 OA
ATOM     17  H   UNL     1      78.953  95.315  76.900  1.00  0.00     0.293 HD
ENDBRANCH  10  16
ENDBRANCH   7   8
ENDBRANCH   4   7
ENDBRANCH   2   3
ENDBRANCH   1   2
BRANCH   1  18
ATOM     18  C   UNL     1      74.092  91.257  71.087  1.00  0.00     0.001 C 
BRANCH  18  19
ATOM     19  C   UNL     1      73.432  89.861  70.956  1.00  0.00     0.004 C 
BRANCH  19  20
ATOM     20  C   UNL     1      73.762  89.204  69.587  1.00  0.00     0.027 C 
BRANCH  20  21
ATOM     21  C   UNL     1      75.186  89.074  69.328  1.00  0.00    -0.031 C 
ATOM     22  C   UNL     1      75.707  88.010  68.692  1.00  0.00    -0.028 C 
BRANCH  22  23
ATOM     23  C   UNL     1      77.133  87.853  68.412  1.00  0.00     0.005 C 
ATOM     24  C   UNL     1      77.388  86.525  67.653  1.00  0.00     0.012 C 
ATOM     25  C   UNL     1      77.667  89.088  67.637  1.00  0.00     0.012 C 
ENDBRANCH  22  23
ENDBRANCH  20  21
ENDBRANCH  19  20
ENDBRANCH  18  19
ENDBRANCH   1  18
TORSDOF 11
ENDMDL
