MODEL 1
REMARK VINA RESULT:    -6.231      0.000      0.000
REMARK INTER + INTRA:         -10.584
REMARK INTER:                 -10.056
REMARK INTRA:                  -0.528
REMARK UNBOUND:                -0.528
REMARK SMILES COc1cc(CNC(=O)CCCCCCC(C)C)ccc1O
REMARK SMILES IDX 11 1 10 2 8 3 7 4 9 6 6 7 5 8 3 9 21 10 4 11 20 12 19 13
REMARK SMILES IDX 2 14 1 15 22 16 12 18 13 19 14 20 15 21 16 22 17 23 18 24
REMARK H PARENT 7 5 22 17
REMARK Flexibility Score: inf
ROOT
ATOM      1  C   UNL     1      95.872  80.629  83.066  1.00  0.00     0.010 C 
ENDROOT
BRANCH   1   2
ATOM      2  C   UNL     1      95.298  82.000  83.519  1.00  0.00     0.100 C 
BRANCH   2   3
ATOM      3  C   UNL     1      94.338  81.890  84.640  1.00  0.00     0.220 C 
ATOM      4  N   UNL     1      93.018  81.648  84.396  1.00  0.00    -0.352 N 
ATOM      5  H   UNL     1      92.772  81.600  83.419  1.00  0.00     0.163 HD
ATOM      6  O   UNL     1      94.770  82.000  85.814  1.00  0.00    -0.275 OA
BRANCH   4   7
ATOM      7  C   UNL     1      92.012  81.465  85.399  1.00  0.00     0.151 C 
BRANCH   7   8
ATOM      8  C   UNL     1      90.983  80.457  85.021  1.00  0.00    -0.025 A 
ATOM      9  C   UNL     1      88.695  79.918  84.300  1.00  0.00     0.160 A 
ATOM     10  C   UNL     1      89.029  78.547  84.258  1.00  0.00     0.157 A 
ATOM     11  C   UNL     1      89.667  80.859  84.698  1.00  0.00     0.056 A 
ATOM     12  C   UNL     1      90.324  78.131  84.614  1.00  0.00     0.050 A 
ATOM     13  C   UNL     1      91.299  79.078  84.983  1.00  0.00     0.009 A 
BRANCH   9  14
ATOM     14  O   UNL     1      87.427  80.330  83.993  1.00  0.00    -0.493 OA
ATOM     15  C   UNL     1      87.158  81.697  84.353  1.00  0.00     0.278 C 
ENDBRANCH   9  14
BRANCH  10  16
ATOM     16  O   UNL     1      88.112  77.618  83.879  1.00  0.00    -0.504 OA
ATOM     17  H   UNL     1      87.937  77.707  82.939  1.00  0.00     0.293 HD
ENDBRANCH  10  16
ENDBRANCH   7   8
ENDBRANCH   4   7
ENDBRANCH   2   3
ENDBRANCH   1   2
BRANCH   1  18
ATOM     18  C   UNL     1      97.233  80.778  82.328  1.00  0.00     0.001 C 
BRANCH  18  19
ATOM     19  C   UNL     1      97.118  81.453  80.932  1.00  0.00     0.000 C 
BRANCH  19  20
ATOM     20  C   UNL     1      98.026  80.753  79.882  1.00  0.00     0.000 C 
BRANCH  20  21
ATOM     21  C   UNL     1      97.416  80.689  78.455  1.00  0.00     0.003 C 
BRANCH  21  22
ATOM     22  C   UNL     1      97.314  82.069  77.728  1.00  0.00    -0.017 C 
ATOM     23  C   UNL     1      95.829  82.514  77.610  1.00  0.00     0.007 C 
ATOM     24  C   UNL     1      98.003  82.093  76.331  1.00  0.00     0.007 C 
ENDBRANCH  21  22
ENDBRANCH  20  21
ENDBRANCH  19  20
ENDBRANCH  18  19
ENDBRANCH   1  18
TORSDOF 11
ENDMDL
MODEL 2
REMARK VINA RESULT:    -5.978     16.836     19.728
REMARK INTER + INTRA:         -10.176
REMARK INTER:                  -9.693
REMARK INTRA:                  -0.483
REMARK UNBOUND:                -0.528
REMARK SMILES COc1cc(CNC(=O)CCCCCCC(C)C)ccc1O
REMARK SMILES IDX 11 1 10 2 8 3 7 4 9 6 6 7 5 8 3 9 21 10 4 11 20 12 19 13
REMARK SMILES IDX 2 14 1 15 22 16 12 18 13 19 14 20 15 21 16 22 17 23 18 24
REMARK H PARENT 7 5 22 17
REMARK Flexibility Score: inf
ROOT
ATOM      1  C   UNL     1      92.930  99.725  71.649  1.00  0.00     0.010 C 
ENDROOT
BRANCH   1   2
ATOM      2  C   UNL     1      93.239  99.408  73.138  1.00  0.00     0.100 C 
BRANCH   2   3
ATOM      3  C   UNL     1      94.096  98.215  73.316  1.00  0.00     0.220 C 
ATOM      4  N   UNL     1      93.782  97.273  74.253  1.00  0.00    -0.352 N 
ATOM      5  H   UNL     1      92.971  97.491  74.813  1.00  0.00     0.163 HD
ATOM      6  O   UNL     1      95.099  98.078  72.573  1.00  0.00    -0.275 OA
BRANCH   4   7
ATOM      7  C   UNL     1      94.502  96.056  74.474  1.00  0.00     0.151 C 
BRANCH   7   8
ATOM      8  C   UNL     1      93.919  95.219  75.559  1.00  0.00    -0.025 A 
ATOM      9  C   UNL     1      94.216  93.665  77.442  1.00  0.00     0.160 A 
ATOM     10  C   UNL     1      92.820  93.656  77.657  1.00  0.00     0.157 A 
ATOM     11  C   UNL     1      94.752  94.430  76.385  1.00  0.00     0.056 A 
ATOM     12  C   UNL     1      91.978  94.407  76.818  1.00  0.00     0.050 A 
ATOM     13  C   UNL     1      92.522  95.192  75.783  1.00  0.00     0.009 A 
BRANCH   9  14
ATOM     14  O   UNL     1      95.041  92.907  78.228  1.00  0.00    -0.493 OA
ATOM     15  C   UNL     1      95.724  93.660  79.246  1.00  0.00     0.278 C 
ENDBRANCH   9  14
BRANCH  10  16
ATOM     16  O   UNL     1      92.276  92.927  78.667  1.00  0.00    -0.504 OA
ATOM     17  H   UNL     1      92.715  92.075  78.718  1.00  0.00     0.293 HD
ENDBRANCH  10  16
ENDBRANCH   7   8
ENDBRANCH   4   7
ENDBRANCH   2   3
ENDBRANCH   1   2
BRANCH   1  18
ATOM     18  C   UNL     1      91.539  99.185  71.210  1.00  0.00     0.001 C 
BRANCH  18  19
ATOM     19  C   UNL     1      90.656 100.241  70.487  1.00  0.00     0.000 C 
BRANCH  19  20
ATOM     20  C   UNL     1      90.305  99.797  69.039  1.00  0.00     0.000 C 
BRANCH  20  21
ATOM     21  C   UNL     1      88.788  99.562  68.795  1.00  0.00     0.003 C 
BRANCH  21  22
ATOM     22  C   UNL     1      88.371  99.518  67.289  1.00  0.00    -0.017 C 
ATOM     23  C   UNL     1      89.501  98.885  66.430  1.00  0.00     0.007 C 
ATOM     24  C   UNL     1      87.960 100.905  66.713  1.00  0.00     0.007 C 
ENDBRANCH  21  22
ENDBRANCH  20  21
ENDBRANCH  19  20
ENDBRANCH  18  19
ENDBRANCH   1  18
TORSDOF 11
ENDMDL
MODEL 3
REMARK VINA RESULT:    -5.911     16.623     19.365
REMARK INTER + INTRA:         -10.067
REMARK INTER:                  -9.294
REMARK INTRA:                  -0.773
REMARK UNBOUND:                -0.528
REMARK SMILES COc1cc(CNC(=O)CCCCCCC(C)C)ccc1O
REMARK SMILES IDX 11 1 10 2 8 3 7 4 9 6 6 7 5 8 3 9 21 10 4 11 20 12 19 13
REMARK SMILES IDX 2 14 1 15 22 16 12 18 13 19 14 20 15 21 16 22 17 23 18 24
REMARK H PARENT 7 5 22 17
REMARK Flexibility Score: inf
ROOT
ATOM      1  C   UNL     1      93.182  99.811  71.709  1.00  0.00     0.010 C 
ENDROOT
BRANCH   1   2
ATOM      2  C   UNL     1      93.295  99.422  73.209  1.00  0.00     0.100 C 
BRANCH   2   3
ATOM      3  C   UNL     1      94.160  98.244  73.444  1.00  0.00     0.220 C 
ATOM      4  N   UNL     1      93.850  97.347  74.424  1.00  0.00    -0.352 N 
ATOM      5  H   UNL     1      93.036  97.586  74.972  1.00  0.00     0.163 HD
ATOM      6  O   UNL     1      95.164  98.078  72.709  1.00  0.00    -0.275 OA
BRANCH   4   7
ATOM      7  C   UNL     1      94.575  96.145  74.704  1.00  0.00     0.151 C 
BRANCH   7   8
ATOM      8  C   UNL     1      93.930  95.298  75.745  1.00  0.00    -0.025 A 
ATOM      9  C   UNL     1      92.114  93.792  76.440  1.00  0.00     0.160 A 
ATOM     10  C   UNL     1      92.717  93.648  77.709  1.00  0.00     0.157 A 
ATOM     11  C   UNL     1      92.714  94.630  75.476  1.00  0.00     0.056 A 
ATOM     12  C   UNL     1      93.907  94.340  78.002  1.00  0.00     0.050 A 
ATOM     13  C   UNL     1      94.516  95.151  77.024  1.00  0.00     0.009 A 
BRANCH   9  14
ATOM     14  O   UNL     1      90.936  93.156  76.159  1.00  0.00    -0.493 OA
ATOM     15  C   UNL     1      91.107  91.864  75.548  1.00  0.00     0.278 C 
ENDBRANCH   9  14
BRANCH  10  16
ATOM     16  O   UNL     1      92.161  92.850  78.658  1.00  0.00    -0.504 OA
ATOM     17  H   UNL     1      92.608  92.000  78.662  1.00  0.00     0.293 HD
ENDBRANCH  10  16
ENDBRANCH   7   8
ENDBRANCH   4   7
ENDBRANCH   2   3
ENDBRANCH   1   2
BRANCH   1  18
ATOM     18  C   UNL     1      91.836  99.347  71.083  1.00  0.00     0.001 C 
BRANCH  18  19
ATOM     19  C   UNL     1      90.743 100.453  71.056  1.00  0.00     0.000 C 
BRANCH  19  20
ATOM     20  C   UNL     1      90.412 100.895  69.602  1.00  0.00     0.000 C 
BRANCH  20  21
ATOM     21  C   UNL     1      90.959  99.939  68.506  1.00  0.00     0.003 C 
BRANCH  21  22
ATOM     22  C   UNL     1      89.888  98.986  67.881  1.00  0.00    -0.017 C 
ATOM     23  C   UNL     1      88.455  99.494  68.203  1.00  0.00     0.007 C 
ATOM     24  C   UNL     1      90.049  97.498  68.310  1.00  0.00     0.007 C 
ENDBRANCH  21  22
ENDBRANCH  20  21
ENDBRANCH  19  20
ENDBRANCH  18  19
ENDBRANCH   1  18
TORSDOF 11
ENDMDL
MODEL 4
REMARK VINA RESULT:    -5.759      7.403     11.423
REMARK INTER + INTRA:          -9.822
REMARK INTER:                  -8.720
REMARK INTRA:                  -1.102
REMARK UNBOUND:                -0.528
REMARK SMILES COc1cc(CNC(=O)CCCCCCC(C)C)ccc1O
REMARK SMILES IDX 11 1 10 2 8 3 7 4 9 6 6 7 5 8 3 9 21 10 4 11 20 12 19 13
REMARK SMILES IDX 2 14 1 15 22 16 12 18 13 19 14 20 15 21 16 22 17 23 18 24
REMARK H PARENT 7 5 22 17
REMARK Flexibility Score: inf
ROOT
ATOM      1  C   UNL     1      97.142  81.922  78.252  1.00  0.00     0.010 C 
ENDROOT
BRANCH   1   2
ATOM      2  C   UNL     1      95.996  82.709  77.558  1.00  0.00     0.100 C 
BRANCH   2   3
ATOM      3  C   UNL     1      96.340  83.158  76.190  1.00  0.00     0.220 C 
ATOM      4  N   UNL     1      97.513  82.772  75.612  1.00  0.00    -0.352 N 
ATOM      5  H   UNL     1      98.111  82.214  76.205  1.00  0.00     0.163 HD
ATOM      6  O   UNL     1      95.519  83.878  75.569  1.00  0.00    -0.275 OA
BRANCH   4   7
ATOM      7  C   UNL     1      97.924  83.094  74.279  1.00  0.00     0.151 C 
BRANCH   7   8
ATOM      8  C   UNL     1      97.902  81.924  73.359  1.00  0.00    -0.025 A 
ATOM      9  C   UNL     1      99.044  80.466  71.741  1.00  0.00     0.160 A 
ATOM     10  C   UNL     1      97.883  79.669  71.636  1.00  0.00     0.157 A 
ATOM     11  C   UNL     1      99.039  81.596  72.586  1.00  0.00     0.056 A 
ATOM     12  C   UNL     1      96.733  80.008  72.371  1.00  0.00     0.050 A 
ATOM     13  C   UNL     1      96.744  81.121  73.235  1.00  0.00     0.009 A 
BRANCH   9  14
ATOM     14  O   UNL     1     100.156  80.168  71.001  1.00  0.00    -0.493 OA
ATOM     15  C   UNL     1     100.373  81.064  69.895  1.00  0.00     0.278 C 
ENDBRANCH   9  14
BRANCH  10  16
ATOM     16  O   UNL     1      97.860  78.576  70.829  1.00  0.00    -0.504 OA
ATOM     17  H   UNL     1      96.995  78.162  70.878  1.00  0.00     0.293 HD
ENDBRANCH  10  16
ENDBRANCH   7   8
ENDBRANCH   4   7
ENDBRANCH   2   3
ENDBRANCH   1   2
BRANCH   1  18
ATOM     18  C   UNL     1      97.081  82.039  79.801  1.00  0.00     0.001 C 
BRANCH  18  19
ATOM     19  C   UNL     1      97.409  80.712  80.543  1.00  0.00     0.000 C 
BRANCH  19  20
ATOM     20  C   UNL     1      97.791  79.580  79.548  1.00  0.00     0.000 C 
BRANCH  20  21
ATOM     21  C   UNL     1      99.107  78.835  79.906  1.00  0.00     0.003 C 
BRANCH  21  22
ATOM     22  C   UNL     1     100.297  79.113  78.930  1.00  0.00    -0.017 C 
ATOM     23  C   UNL     1     101.342  80.048  79.600  1.00  0.00     0.007 C 
ATOM     24  C   UNL     1      99.855  79.689  77.552  1.00  0.00     0.007 C 
ENDBRANCH  21  22
ENDBRANCH  20  21
ENDBRANCH  19  20
ENDBRANCH  18  19
ENDBRANCH   1  18
TORSDOF 11
ENDMDL
MODEL 5
REMARK VINA RESULT:    -5.733      6.153     12.156
REMARK INTER + INTRA:          -9.780
REMARK INTER:                  -9.086
REMARK INTRA:                  -0.694
REMARK UNBOUND:                -0.528
REMARK SMILES COc1cc(CNC(=O)CCCCCCC(C)C)ccc1O
REMARK SMILES IDX 11 1 10 2 8 3 7 4 9 6 6 7 5 8 3 9 21 10 4 11 20 12 19 13
REMARK SMILES IDX 2 14 1 15 22 16 12 18 13 19 14 20 15 21 16 22 17 23 18 24
REMARK H PARENT 7 5 22 17
REMARK Flexibility Score: inf
ROOT
ATOM      1  C   UNL     1      97.157  81.881  78.450  1.00  0.00     0.010 C 
ENDROOT
BRANCH   1   2
ATOM      2  C   UNL     1      95.930  82.393  77.646  1.00  0.00     0.100 C 
BRANCH   2   3
ATOM      3  C   UNL     1      96.295  83.003  76.348  1.00  0.00     0.220 C 
ATOM      4  N   UNL     1      97.472  82.678  75.740  1.00  0.00    -0.352 N 
ATOM      5  H   UNL     1      98.057  82.045  76.266  1.00  0.00     0.163 HD
ATOM      6  O   UNL     1      95.489  83.803  75.811  1.00  0.00    -0.275 OA
BRANCH   4   7
ATOM      7  C   UNL     1      97.902  83.158  74.462  1.00  0.00     0.151 C 
BRANCH   7   8
ATOM      8  C   UNL     1      99.300  82.768  74.128  1.00  0.00    -0.025 A 
ATOM      9  C   UNL     1     101.326  83.065  72.767  1.00  0.00     0.160 A 
ATOM     10  C   UNL     1     101.978  82.061  73.515  1.00  0.00     0.157 A 
ATOM     11  C   UNL     1      99.988  83.397  73.066  1.00  0.00     0.056 A 
ATOM     12  C   UNL     1     101.291  81.400  74.549  1.00  0.00     0.050 A 
ATOM     13  C   UNL     1      99.965  81.757  74.861  1.00  0.00     0.009 A 
BRANCH   9  14
ATOM     14  O   UNL     1     101.973  83.687  71.734  1.00  0.00    -0.493 OA
ATOM     15  C   UNL     1     101.087  84.231  70.739  1.00  0.00     0.278 C 
ENDBRANCH   9  14
BRANCH  10  16
ATOM     16  O   UNL     1     103.266  81.719  73.247  1.00  0.00    -0.504 OA
ATOM     17  H   UNL     1     103.858  82.277  73.758  1.00  0.00     0.293 HD
ENDBRANCH  10  16
ENDBRANCH   7   8
ENDBRANCH   4   7
ENDBRANCH   2   3
ENDBRANCH   1   2
BRANCH   1  18
ATOM     18  C   UNL     1      96.979  82.080  79.982  1.00  0.00     0.001 C 
BRANCH  18  19
ATOM     19  C   UNL     1      97.137  80.771  80.806  1.00  0.00     0.000 C 
BRANCH  19  20
ATOM     20  C   UNL     1      97.658  81.059  82.242  1.00  0.00     0.000 C 
BRANCH  20  21
ATOM     21  C   UNL     1      96.598  80.849  83.359  1.00  0.00     0.003 C 
BRANCH  21  22
ATOM     22  C   UNL     1      95.402  81.857  83.317  1.00  0.00    -0.017 C 
ATOM     23  C   UNL     1      95.925  83.320  83.296  1.00  0.00     0.007 C 
ATOM     24  C   UNL     1      94.379  81.660  84.474  1.00  0.00     0.007 C 
ENDBRANCH  21  22
ENDBRANCH  20  21
ENDBRANCH  19  20
ENDBRANCH  18  19
ENDBRANCH   1  18
TORSDOF 11
ENDMDL
MODEL 6
REMARK VINA RESULT:    -5.657     20.413     23.904
REMARK INTER + INTRA:          -9.657
REMARK INTER:                  -8.458
REMARK INTRA:                  -1.199
REMARK UNBOUND:                -0.528
REMARK SMILES COc1cc(CNC(=O)CCCCCCC(C)C)ccc1O
REMARK SMILES IDX 11 1 10 2 8 3 7 4 9 6 6 7 5 8 3 9 21 10 4 11 20 12 19 13
REMARK SMILES IDX 2 14 1 15 22 16 12 18 13 19 14 20 15 21 16 22 17 23 18 24
REMARK H PARENT 7 5 22 17
REMARK Flexibility Score: inf
ROOT
ATOM      1  C   UNL     1      89.041  98.524  67.059  1.00  0.00     0.010 C 
ENDROOT
BRANCH   1   2
ATOM      2  C   UNL     1      89.721  97.614  68.120  1.00  0.00     0.100 C 
BRANCH   2   3
ATOM      3  C   UNL     1      90.137  98.345  69.338  1.00  0.00     0.220 C 
ATOM      4  N   UNL     1      91.115  99.294  69.272  1.00  0.00    -0.352 N 
ATOM      5  H   UNL     1      91.535  99.403  68.360  1.00  0.00     0.163 HD
ATOM      6  O   UNL     1      89.554  98.091  70.420  1.00  0.00    -0.275 OA
BRANCH   4   7
ATOM      7  C   UNL     1      91.558 100.102  70.367  1.00  0.00     0.151 C 
BRANCH   7   8
ATOM      8  C   UNL     1      92.856  99.653  70.941  1.00  0.00    -0.025 A 
ATOM      9  C   UNL     1      94.161  98.792  72.840  1.00  0.00     0.160 A 
ATOM     10  C   UNL     1      95.317  98.753  72.030  1.00  0.00     0.157 A 
ATOM     11  C   UNL     1      92.946  99.259  72.295  1.00  0.00     0.056 A 
ATOM     12  C   UNL     1      95.249  99.180  70.691  1.00  0.00     0.050 A 
ATOM     13  C   UNL     1      94.026  99.617  70.146  1.00  0.00     0.009 A 
BRANCH   9  14
ATOM     14  O   UNL     1      94.225  98.417  74.154  1.00  0.00    -0.493 OA
ATOM     15  C   UNL     1      93.740  97.085  74.401  1.00  0.00     0.278 C 
ENDBRANCH   9  14
BRANCH  10  16
ATOM     16  O   UNL     1      96.502  98.311  72.528  1.00  0.00    -0.504 OA
ATOM     17  H   UNL     1      96.712  98.796  73.330  1.00  0.00     0.293 HD
ENDBRANCH  10  16
ENDBRANCH   7   8
ENDBRANCH   4   7
ENDBRANCH   2   3
ENDBRANCH   1   2
BRANCH   1  18
ATOM     18  C   UNL     1      88.097  99.576  67.707  1.00  0.00     0.001 C 
BRANCH  18  19
ATOM     19  C   UNL     1      87.363 100.478  66.675  1.00  0.00     0.000 C 
BRANCH  19  20
ATOM     20  C   UNL     1      88.199 101.741  66.323  1.00  0.00     0.000 C 
BRANCH  20  21
ATOM     21  C   UNL     1      89.290 102.096  67.371  1.00  0.00     0.003 C 
BRANCH  21  22
ATOM     22  C   UNL     1      90.708 102.365  66.769  1.00  0.00    -0.017 C 
ATOM     23  C   UNL     1      91.178 101.150  65.920  1.00  0.00     0.007 C 
ATOM     24  C   UNL     1      91.781 102.733  67.835  1.00  0.00     0.007 C 
ENDBRANCH  21  22
ENDBRANCH  20  21
ENDBRANCH  19  20
ENDBRANCH  18  19
ENDBRANCH   1  18
TORSDOF 11
ENDMDL
MODEL 7
REMARK VINA RESULT:    -5.628     19.958     23.237
REMARK INTER + INTRA:          -9.610
REMARK INTER:                  -8.998
REMARK INTRA:                  -0.612
REMARK UNBOUND:                -0.528
REMARK SMILES COc1cc(CNC(=O)CCCCCCC(C)C)ccc1O
REMARK SMILES IDX 11 1 10 2 8 3 7 4 9 6 6 7 5 8 3 9 21 10 4 11 20 12 19 13
REMARK SMILES IDX 2 14 1 15 22 16 12 18 13 19 14 20 15 21 16 22 17 23 18 24
REMARK H PARENT 7 5 22 17
REMARK Flexibility Score: inf
ROOT
ATOM      1  C   UNL     1      90.402  98.012  68.516  1.00  0.00     0.010 C 
ENDROOT
BRANCH   1   2
ATOM      2  C   UNL     1      90.041  98.567  69.921  1.00  0.00     0.100 C 
BRANCH   2   3
ATOM      3  C   UNL     1      91.005  99.574  70.418  1.00  0.00     0.220 C 
ATOM      4  N   UNL     1      91.701  99.353  71.570  1.00  0.00    -0.352 N 
ATOM      5  H   UNL     1      91.465  98.495  72.047  1.00  0.00     0.163 HD
ATOM      6  O   UNL     1      91.184 100.619  69.745  1.00  0.00    -0.275 OA
BRANCH   4   7
ATOM      7  C   UNL     1      92.697 100.225  72.115  1.00  0.00     0.151 C 
BRANCH   7   8
ATOM      8  C   UNL     1      93.683  99.521  72.980  1.00  0.00    -0.025 A 
ATOM      9  C   UNL     1      94.404  97.496  74.175  1.00  0.00     0.160 A 
ATOM     10  C   UNL     1      95.578  98.158  74.594  1.00  0.00     0.157 A 
ATOM     11  C   UNL     1      93.458  98.187  73.389  1.00  0.00     0.056 A 
ATOM     12  C   UNL     1      95.795  99.499  74.226  1.00  0.00     0.050 A 
ATOM     13  C   UNL     1      94.860 100.173  73.416  1.00  0.00     0.009 A 
BRANCH   9  14
ATOM     14  O   UNL     1      94.164  96.205  74.560  1.00  0.00    -0.493 OA
ATOM     15  C   UNL     1      93.280  96.091  75.690  1.00  0.00     0.278 C 
ENDBRANCH   9  14
BRANCH  10  16
ATOM     16  O   UNL     1      96.506  97.518  75.353  1.00  0.00    -0.504 OA
ATOM     17  H   UNL     1      97.381  97.684  74.995  1.00  0.00     0.293 HD
ENDBRANCH  10  16
ENDBRANCH   7   8
ENDBRANCH   4   7
ENDBRANCH   2   3
ENDBRANCH   1   2
BRANCH   1  18
ATOM     18  C   UNL     1      89.181  98.015  67.552  1.00  0.00     0.001 C 
BRANCH  18  19
ATOM     19  C   UNL     1      88.273  99.269  67.695  1.00  0.00     0.000 C 
BRANCH  19  20
ATOM     20  C   UNL     1      87.726  99.738  66.317  1.00  0.00     0.000 C 
BRANCH  20  21
ATOM     21  C   UNL     1      86.831 101.007  66.386  1.00  0.00     0.003 C 
BRANCH  21  22
ATOM     22  C   UNL     1      87.591 102.320  66.764  1.00  0.00    -0.017 C 
ATOM     23  C   UNL     1      86.822 103.564  66.239  1.00  0.00     0.007 C 
ATOM     24  C   UNL     1      89.070 102.348  66.277  1.00  0.00     0.007 C 
ENDBRANCH  21  22
ENDBRANCH  20  21
ENDBRANCH  19  20
ENDBRANCH  18  19
ENDBRANCH   1  18
TORSDOF 11
ENDMDL
MODEL 8
REMARK VINA RESULT:    -5.583     21.732     24.947
REMARK INTER + INTRA:          -9.538
REMARK INTER:                  -8.829
REMARK INTRA:                  -0.708
REMARK UNBOUND:                -0.528
REMARK SMILES COc1cc(CNC(=O)CCCCCCC(C)C)ccc1O
REMARK SMILES IDX 11 1 10 2 8 3 7 4 9 6 6 7 5 8 3 9 21 10 4 11 20 12 19 13
REMARK SMILES IDX 2 14 1 15 22 16 12 18 13 19 14 20 15 21 16 22 17 23 18 24
REMARK H PARENT 7 5 22 17
REMARK Flexibility Score: inf
ROOT
ATOM      1  C   UNL     1      90.004  99.064  66.591  1.00  0.00     0.010 C 
ENDROOT
BRANCH   1   2
ATOM      2  C   UNL     1      89.701  98.116  67.784  1.00  0.00     0.100 C 
BRANCH   2   3
ATOM      3  C   UNL     1      89.849  98.770  69.104  1.00  0.00     0.220 C 
ATOM      4  N   UNL     1      91.086  98.949  69.649  1.00  0.00    -0.352 N 
ATOM      5  H   UNL     1      91.846  98.567  69.105  1.00  0.00     0.163 HD
ATOM      6  O   UNL     1      88.817  99.175  69.694  1.00  0.00    -0.275 OA
BRANCH   4   7
ATOM      7  C   UNL     1      91.355  99.618  70.886  1.00  0.00     0.151 C 
BRANCH   7   8
ATOM      8  C   UNL     1      92.786  99.549  71.291  1.00  0.00    -0.025 A 
ATOM      9  C   UNL     1      95.134  99.067  70.741  1.00  0.00     0.160 A 
ATOM     10  C   UNL     1      95.521  99.458  72.041  1.00  0.00     0.157 A 
ATOM     11  C   UNL     1      93.770  99.098  70.382  1.00  0.00     0.056 A 
ATOM     12  C   UNL     1      94.547  99.872  72.967  1.00  0.00     0.050 A 
ATOM     13  C   UNL     1      93.190  99.928  72.593  1.00  0.00     0.009 A 
BRANCH   9  14
ATOM     14  O   UNL     1      96.069  98.625  69.845  1.00  0.00    -0.493 OA
ATOM     15  C   UNL     1      96.100  97.194  69.698  1.00  0.00     0.278 C 
ENDBRANCH   9  14
BRANCH  10  16
ATOM     16  O   UNL     1      96.828  99.438  72.415  1.00  0.00    -0.504 OA
ATOM     17  H   UNL     1      97.291 100.167  71.996  1.00  0.00     0.293 HD
ENDBRANCH  10  16
ENDBRANCH   7   8
ENDBRANCH   4   7
ENDBRANCH   2   3
ENDBRANCH   1   2
BRANCH   1  18
ATOM     18  C   UNL     1      89.013 100.260  66.526  1.00  0.00     0.001 C 
BRANCH  18  19
ATOM     19  C   UNL     1      87.531  99.836  66.320  1.00  0.00     0.000 C 
BRANCH  19  20
ATOM     20  C   UNL     1      86.593 101.070  66.205  1.00  0.00     0.000 C 
BRANCH  20  21
ATOM     21  C   UNL     1      87.325 102.438  66.298  1.00  0.00     0.003 C 
BRANCH  21  22
ATOM     22  C   UNL     1      86.407 103.684  66.076  1.00  0.00    -0.017 C 
ATOM     23  C   UNL     1      86.461 104.626  67.311  1.00  0.00     0.007 C 
ATOM     24  C   UNL     1      84.932 103.320  65.732  1.00  0.00     0.007 C 
ENDBRANCH  21  22
ENDBRANCH  20  21
ENDBRANCH  19  20
ENDBRANCH  18  19
ENDBRANCH   1  18
TORSDOF 11
ENDMDL
MODEL 9
REMARK VINA RESULT:    -5.507      4.110      6.053
REMARK INTER + INTRA:          -9.414
REMARK INTER:                  -8.645
REMARK INTRA:                  -0.769
REMARK UNBOUND:                -0.528
REMARK SMILES COc1cc(CNC(=O)CCCCCCC(C)C)ccc1O
REMARK SMILES IDX 11 1 10 2 8 3 7 4 9 6 6 7 5 8 3 9 21 10 4 11 20 12 19 13
REMARK SMILES IDX 2 14 1 15 22 16 12 18 13 19 14 20 15 21 16 22 17 23 18 24
REMARK H PARENT 7 5 22 17
REMARK Flexibility Score: inf
ROOT
ATOM      1  C   UNL     1      98.258  80.040  78.782  1.00  0.00     0.010 C 
ENDROOT
BRANCH   1   2
ATOM      2  C   UNL     1      98.955  79.212  79.896  1.00  0.00     0.100 C 
BRANCH   2   3
ATOM      3  C   UNL     1      98.324  79.372  81.225  1.00  0.00     0.220 C 
ATOM      4  N   UNL     1      96.992  79.653  81.326  1.00  0.00    -0.352 N 
ATOM      5  H   UNL     1      96.521  79.780  80.443  1.00  0.00     0.163 HD
ATOM      6  O   UNL     1      99.032  79.218  82.250  1.00  0.00    -0.275 OA
BRANCH   4   7
ATOM      7  C   UNL     1      96.264  79.772  82.553  1.00  0.00     0.151 C 
BRANCH   7   8
ATOM      8  C   UNL     1      96.100  81.181  83.004  1.00  0.00    -0.025 A 
ATOM      9  C   UNL     1      95.290  82.805  84.664  1.00  0.00     0.160 A 
ATOM     10  C   UNL     1      95.822  83.862  83.893  1.00  0.00     0.157 A 
ATOM     11  C   UNL     1      95.416  81.477  84.205  1.00  0.00     0.056 A 
ATOM     12  C   UNL     1      96.470  83.583  82.676  1.00  0.00     0.050 A 
ATOM     13  C   UNL     1      96.618  82.252  82.238  1.00  0.00     0.009 A 
BRANCH   9  14
ATOM     14  O   UNL     1      94.623  83.068  85.829  1.00  0.00    -0.493 OA
ATOM     15  C   UNL     1      93.279  82.555  85.857  1.00  0.00     0.278 C 
ENDBRANCH   9  14
BRANCH  10  16
ATOM     16  O   UNL     1      95.714  85.151  84.309  1.00  0.00    -0.504 OA
ATOM     17  H   UNL     1      95.711  85.177  85.269  1.00  0.00     0.293 HD
ENDBRANCH  10  16
ENDBRANCH   7   8
ENDBRANCH   4   7
ENDBRANCH   2   3
ENDBRANCH   1   2
BRANCH   1  18
ATOM     18  C   UNL     1      97.480  79.138  77.781  1.00  0.00     0.001 C 
BRANCH  18  19
ATOM     19  C   UNL     1      96.938  79.902  76.540  1.00  0.00     0.000 C 
BRANCH  19  20
ATOM     20  C   UNL     1      98.080  80.611  75.761  1.00  0.00     0.000 C 
BRANCH  20  21
ATOM     21  C   UNL     1      98.151  82.147  75.989  1.00  0.00     0.003 C 
BRANCH  21  22
ATOM     22  C   UNL     1      97.189  82.984  75.084  1.00  0.00    -0.017 C 
ATOM     23  C   UNL     1      95.963  83.478  75.903  1.00  0.00     0.007 C 
ATOM     24  C   UNL     1      96.721  82.231  73.804  1.00  0.00     0.007 C 
ENDBRANCH  21  22
ENDBRANCH  20  21
ENDBRANCH  19  20
ENDBRANCH  18  19
ENDBRANCH   1  18
TORSDOF 11
ENDMDL
MODEL 10
REMARK VINA RESULT:    -5.340      7.997     10.572
REMARK INTER + INTRA:          -9.145
REMARK INTER:                  -7.990
REMARK INTRA:                  -1.155
REMARK UNBOUND:                -0.528
REMARK SMILES COc1cc(CNC(=O)CCCCCCC(C)C)ccc1O
REMARK SMILES IDX 11 1 10 2 8 3 7 4 9 6 6 7 5 8 3 9 21 10 4 11 20 12 19 13
REMARK SMILES IDX 2 14 1 15 22 16 12 18 13 19 14 20 15 21 16 22 17 23 18 24
REMARK H PARENT 7 5 22 17
REMARK Flexibility Score: inf
ROOT
ATOM      1  C   UNL     1     101.529  78.881  76.502  1.00  0.00     0.010 C 
ENDROOT
BRANCH   1   2
ATOM      2  C   UNL     1     101.798  79.084  78.019  1.00  0.00     0.100 C 
BRANCH   2   3
ATOM      3  C   UNL     1     100.786  79.937  78.683  1.00  0.00     0.220 C 
ATOM      4  N   UNL     1      99.564  80.130  78.109  1.00  0.00    -0.352 N 
ATOM      5  H   UNL     1      99.447  79.689  77.208  1.00  0.00     0.163 HD
ATOM      6  O   UNL     1     101.069  80.454  79.791  1.00  0.00    -0.275 OA
BRANCH   4   7
ATOM      7  C   UNL     1      98.491  80.883  78.683  1.00  0.00     0.151 C 
BRANCH   7   8
ATOM      8  C   UNL     1      97.724  81.672  77.680  1.00  0.00    -0.025 A 
ATOM      9  C   UNL     1      97.509  82.595  75.411  1.00  0.00     0.160 A 
ATOM     10  C   UNL     1      96.249  83.137  75.749  1.00  0.00     0.157 A 
ATOM     11  C   UNL     1      98.243  81.884  76.383  1.00  0.00     0.056 A 
ATOM     12  C   UNL     1      95.739  82.966  77.048  1.00  0.00     0.050 A 
ATOM     13  C   UNL     1      96.465  82.230  78.005  1.00  0.00     0.009 A 
BRANCH   9  14
ATOM     14  O   UNL     1      98.031  82.789  74.161  1.00  0.00    -0.493 OA
ATOM     15  C   UNL     1      99.468  82.868  74.140  1.00  0.00     0.278 C 
ENDBRANCH   9  14
BRANCH  10  16
ATOM     16  O   UNL     1      95.520  83.827  74.833  1.00  0.00    -0.504 OA
ATOM     17  H   UNL     1      95.861  84.722  74.763  1.00  0.00     0.293 HD
ENDBRANCH  10  16
ENDBRANCH   7   8
ENDBRANCH   4   7
ENDBRANCH   2   3
ENDBRANCH   1   2
BRANCH   1  18
ATOM     18  C   UNL     1     102.645  79.508  75.619  1.00  0.00     0.001 C 
BRANCH  18  19
ATOM     19  C   UNL     1     103.928  79.893  76.409  1.00  0.00     0.000 C 
BRANCH  19  20
ATOM     20  C   UNL     1     105.057  78.843  76.213  1.00  0.00     0.000 C 
BRANCH  20  21
ATOM     21  C   UNL     1     105.604  78.241  77.537  1.00  0.00     0.003 C 
BRANCH  21  22
ATOM     22  C   UNL     1     105.573  79.218  78.758  1.00  0.00    -0.017 C 
ATOM     23  C   UNL     1     106.998  79.765  79.053  1.00  0.00     0.007 C 
ATOM     24  C   UNL     1     104.952  78.594  80.043  1.00  0.00     0.007 C 
ENDBRANCH  21  22
ENDBRANCH  20  21
ENDBRANCH  19  20
ENDBRANCH  18  19
ENDBRANCH   1  18
TORSDOF 11
ENDMDL
