MODEL 1
REMARK VINA RESULT:    -6.549      0.000      0.000
REMARK INTER + INTRA:         -11.694
REMARK INTER:                 -10.569
REMARK INTRA:                  -1.126
REMARK UNBOUND:                -1.126
REMARK SMILES COc1cc(CNC(=O)CCCCC/C=C/C(C)C)ccc1O
REMARK SMILES IDX 11 1 10 2 8 3 7 4 9 6 6 7 5 8 3 9 22 10 4 11 21 12 20 13
REMARK SMILES IDX 2 14 1 15 23 16 12 18 13 19 14 20 15 21 16 22 17 23 18 24
REMARK SMILES IDX 19 25
REMARK H PARENT 7 5 23 17
REMARK Flexibility Score: inf
ROOT
ATOM      1  C   UNL     1      94.515  95.268  76.287  1.00  0.00     0.010 C 
ENDROOT
BRANCH   1   2
ATOM      2  C   UNL     1      94.493  93.744  76.571  1.00  0.00     0.100 C 
BRANCH   2   3
ATOM      3  C   UNL     1      94.511  93.399  78.004  1.00  0.00     0.220 C 
ATOM      4  N   UNL     1      95.663  93.528  78.718  1.00  0.00    -0.352 N 
ATOM      5  H   UNL     1      96.470  93.793  78.171  1.00  0.00     0.163 HD
ATOM      6  O   UNL     1      93.439  93.031  78.542  1.00  0.00    -0.275 OA
BRANCH   4   7
ATOM      7  C   UNL     1      95.795  93.323  80.124  1.00  0.00     0.151 C 
BRANCH   7   8
ATOM      8  C   UNL     1      96.444  94.470  80.811  1.00  0.00    -0.025 A 
ATOM      9  C   UNL     1      98.382  95.451  81.965  1.00  0.00     0.160 A 
ATOM     10  C   UNL     1      97.656  96.645  82.167  1.00  0.00     0.157 A 
ATOM     11  C   UNL     1      97.768  94.371  81.298  1.00  0.00     0.056 A 
ATOM     12  C   UNL     1      96.344  96.761  81.672  1.00  0.00     0.050 A 
ATOM     13  C   UNL     1      95.746  95.685  80.990  1.00  0.00     0.009 A 
BRANCH   9  14
ATOM     14  O   UNL     1      99.688  95.358  82.365  1.00  0.00    -0.493 OA
ATOM     15  C   UNL     1      99.865  94.764  83.662  1.00  0.00     0.278 C 
ENDBRANCH   9  14
BRANCH  10  16
ATOM     16  O   UNL     1      98.199  97.697  82.830  1.00  0.00    -0.504 OA
ATOM     17  H   UNL     1      98.044  98.503  82.331  1.00  0.00     0.293 HD
ENDBRANCH  10  16
ENDBRANCH   7   8
ENDBRANCH   4   7
ENDBRANCH   2   3
ENDBRANCH   1   2
BRANCH   1  18
ATOM     18  C   UNL     1      93.111  95.782  75.880  1.00  0.00     0.001 C 
BRANCH  18  19
ATOM     19  C   UNL     1      92.162  96.021  77.081  1.00  0.00     0.004 C 
BRANCH  19  20
ATOM     20  C   UNL     1      90.755  95.411  76.823  1.00  0.00     0.027 C 
BRANCH  20  21
ATOM     21  C   UNL     1      90.712  93.965  76.956  1.00  0.00    -0.031 C 
ATOM     22  C   UNL     1      90.876  93.142  75.905  1.00  0.00    -0.028 C 
BRANCH  22  23
ATOM     23  C   UNL     1      90.843  91.685  76.006  1.00  0.00     0.005 C 
ATOM     24  C   UNL     1      89.567  91.226  76.760  1.00  0.00     0.012 C 
ATOM     25  C   UNL     1      90.956  91.046  74.595  1.00  0.00     0.012 C 
ENDBRANCH  22  23
ENDBRANCH  20  21
ENDBRANCH  19  20
ENDBRANCH  18  19
ENDBRANCH   1  18
TORSDOF 11
ENDMDL
MODEL 2
REMARK VINA RESULT:    -6.157      0.948      2.030
REMARK INTER + INTRA:         -11.062
REMARK INTER:                 -10.086
REMARK INTRA:                  -0.975
REMARK UNBOUND:                -1.126
REMARK SMILES COc1cc(CNC(=O)CCCCC/C=C/C(C)C)ccc1O
REMARK SMILES IDX 11 1 10 2 8 3 7 4 9 6 6 7 5 8 3 9 22 10 4 11 21 12 20 13
REMARK SMILES IDX 2 14 1 15 23 16 12 18 13 19 14 20 15 21 16 22 17 23 18 24
REMARK SMILES IDX 19 25
REMARK H PARENT 7 5 23 17
REMARK Flexibility Score: inf
ROOT
ATOM      1  C   UNL     1      94.270  95.237  76.772  1.00  0.00     0.010 C 
ENDROOT
BRANCH   1   2
ATOM      2  C   UNL     1      94.719  93.783  77.067  1.00  0.00     0.100 C 
BRANCH   2   3
ATOM      3  C   UNL     1      94.757  93.445  78.502  1.00  0.00     0.220 C 
ATOM      4  N   UNL     1      95.901  93.640  79.214  1.00  0.00    -0.352 N 
ATOM      5  H   UNL     1      96.692  93.948  78.665  1.00  0.00     0.163 HD
ATOM      6  O   UNL     1      93.709  93.020  79.042  1.00  0.00    -0.275 OA
BRANCH   4   7
ATOM      7  C   UNL     1      96.046  93.449  80.620  1.00  0.00     0.151 C 
BRANCH   7   8
ATOM      8  C   UNL     1      97.107  94.307  81.209  1.00  0.00    -0.025 A 
ATOM      9  C   UNL     1      97.931  96.524  81.883  1.00  0.00     0.160 A 
ATOM     10  C   UNL     1      99.156  95.946  82.282  1.00  0.00     0.157 A 
ATOM     11  C   UNL     1      96.921  95.703  81.342  1.00  0.00     0.056 A 
ATOM     12  C   UNL     1      99.346  94.556  82.170  1.00  0.00     0.050 A 
ATOM     13  C   UNL     1      98.325  93.741  81.647  1.00  0.00     0.009 A 
BRANCH   9  14
ATOM     14  O   UNL     1      97.703  97.861  82.070  1.00  0.00    -0.493 OA
ATOM     15  C   UNL     1      96.313  98.226  82.075  1.00  0.00     0.278 C 
ENDBRANCH   9  14
BRANCH  10  16
ATOM     16  O   UNL     1     100.164  96.704  82.781  1.00  0.00    -0.504 OA
ATOM     17  H   UNL     1     100.580  96.241  83.513  1.00  0.00     0.293 HD
ENDBRANCH  10  16
ENDBRANCH   7   8
ENDBRANCH   4   7
ENDBRANCH   2   3
ENDBRANCH   1   2
BRANCH   1  18
ATOM     18  C   UNL     1      92.880  95.266  76.088  1.00  0.00     0.001 C 
BRANCH  18  19
ATOM     19  C   UNL     1      91.696  95.353  77.085  1.00  0.00     0.004 C 
BRANCH  19  20
ATOM     20  C   UNL     1      90.972  93.985  77.226  1.00  0.00     0.027 C 
BRANCH  20  21
ATOM     21  C   UNL     1      91.165  93.102  76.089  1.00  0.00    -0.031 C 
ATOM     22  C   UNL     1      90.324  92.089  75.815  1.00  0.00    -0.028 C 
BRANCH  22  23
ATOM     23  C   UNL     1      90.487  91.187  74.677  1.00  0.00     0.005 C 
ATOM     24  C   UNL     1      90.784  89.746  75.171  1.00  0.00     0.012 C 
ATOM     25  C   UNL     1      89.236  91.249  73.759  1.00  0.00     0.012 C 
ENDBRANCH  22  23
ENDBRANCH  20  21
ENDBRANCH  19  20
ENDBRANCH  18  19
ENDBRANCH   1  18
TORSDOF 11
ENDMDL
MODEL 3
REMARK VINA RESULT:    -6.151      6.943     10.958
REMARK INTER + INTRA:         -11.053
REMARK INTER:                 -10.260
REMARK INTRA:                  -0.793
REMARK UNBOUND:                -1.126
REMARK SMILES COc1cc(CNC(=O)CCCCC/C=C/C(C)C)ccc1O
REMARK SMILES IDX 11 1 10 2 8 3 7 4 9 6 6 7 5 8 3 9 22 10 4 11 21 12 20 13
REMARK SMILES IDX 2 14 1 15 23 16 12 18 13 19 14 20 15 21 16 22 17 23 18 24
REMARK SMILES IDX 19 25
REMARK H PARENT 7 5 23 17
REMARK Flexibility Score: inf
ROOT
ATOM      1  C   UNL     1      93.581  97.376  74.151  1.00  0.00     0.010 C 
ENDROOT
BRANCH   1   2
ATOM      2  C   UNL     1      94.789  97.946  73.364  1.00  0.00     0.100 C 
BRANCH   2   3
ATOM      3  C   UNL     1      94.414  98.846  72.257  1.00  0.00     0.220 C 
ATOM      4  N   UNL     1      93.143  99.327  72.175  1.00  0.00    -0.352 N 
ATOM      5  H   UNL     1      92.507  98.957  72.869  1.00  0.00     0.163 HD
ATOM      6  O   UNL     1      95.300  99.179  71.434  1.00  0.00    -0.275 OA
BRANCH   4   7
ATOM      7  C   UNL     1      92.674 100.275  71.218  1.00  0.00     0.151 C 
BRANCH   7   8
ATOM      8  C   UNL     1      91.568  99.744  70.380  1.00  0.00    -0.025 A 
ATOM      9  C   UNL     1      90.342  99.683  68.249  1.00  0.00     0.160 A 
ATOM     10  C   UNL     1      89.423  98.767  68.805  1.00  0.00     0.157 A 
ATOM     11  C   UNL     1      91.401 100.171  69.042  1.00  0.00     0.056 A 
ATOM     12  C   UNL     1      89.589  98.324  70.130  1.00  0.00     0.050 A 
ATOM     13  C   UNL     1      90.660  98.800  70.908  1.00  0.00     0.009 A 
BRANCH   9  14
ATOM     14  O   UNL     1      90.241 100.054  66.934  1.00  0.00    -0.493 OA
ATOM     15  C   UNL     1      91.197 101.047  66.528  1.00  0.00     0.278 C 
ENDBRANCH   9  14
BRANCH  10  16
ATOM     16  O   UNL     1      88.374  98.296  68.085  1.00  0.00    -0.504 OA
ATOM     17  H   UNL     1      88.692  97.668  67.431  1.00  0.00     0.293 HD
ENDBRANCH  10  16
ENDBRANCH   7   8
ENDBRANCH   4   7
ENDBRANCH   2   3
ENDBRANCH   1   2
BRANCH   1  18
ATOM     18  C   UNL     1      94.050  96.460  75.309  1.00  0.00     0.001 C 
BRANCH  18  19
ATOM     19  C   UNL     1      94.331  94.999  74.874  1.00  0.00     0.004 C 
BRANCH  19  20
ATOM     20  C   UNL     1      94.440  94.053  76.102  1.00  0.00     0.027 C 
BRANCH  20  21
ATOM     21  C   UNL     1      93.162  93.525  76.548  1.00  0.00    -0.031 C 
ATOM     22  C   UNL     1      92.168  93.230  75.692  1.00  0.00    -0.028 C 
BRANCH  22  23
ATOM     23  C   UNL     1      90.874  92.694  76.109  1.00  0.00     0.005 C 
ATOM     24  C   UNL     1      90.756  91.200  75.705  1.00  0.00     0.012 C 
ATOM     25  C   UNL     1      90.668  92.910  77.633  1.00  0.00     0.012 C 
ENDBRANCH  22  23
ENDBRANCH  20  21
ENDBRANCH  19  20
ENDBRANCH  18  19
ENDBRANCH   1  18
TORSDOF 11
ENDMDL
MODEL 4
REMARK VINA RESULT:    -6.144     12.962     15.848
REMARK INTER + INTRA:         -11.040
REMARK INTER:                 -10.356
REMARK INTRA:                  -0.685
REMARK UNBOUND:                -1.126
REMARK SMILES COc1cc(CNC(=O)CCCCC/C=C/C(C)C)ccc1O
REMARK SMILES IDX 11 1 10 2 8 3 7 4 9 6 6 7 5 8 3 9 22 10 4 11 21 12 20 13
REMARK SMILES IDX 2 14 1 15 23 16 12 18 13 19 14 20 15 21 16 22 17 23 18 24
REMARK SMILES IDX 19 25
REMARK H PARENT 7 5 23 17
REMARK Flexibility Score: inf
ROOT
ATOM      1  C   UNL     1      95.960  81.652  83.918  1.00  0.00     0.010 C 
ENDROOT
BRANCH   1   2
ATOM      2  C   UNL     1      94.902  82.677  84.401  1.00  0.00     0.100 C 
BRANCH   2   3
ATOM      3  C   UNL     1      93.992  82.156  85.439  1.00  0.00     0.220 C 
ATOM      4  N   UNL     1      92.647  82.321  85.306  1.00  0.00    -0.352 N 
ATOM      5  H   UNL     1      92.367  82.874  84.508  1.00  0.00     0.163 HD
ATOM      6  O   UNL     1      94.489  81.533  86.407  1.00  0.00    -0.275 OA
BRANCH   4   7
ATOM      7  C   UNL     1      91.656  81.786  86.182  1.00  0.00     0.151 C 
BRANCH   7   8
ATOM      8  C   UNL     1      90.706  80.881  85.485  1.00  0.00    -0.025 A 
ATOM      9  C   UNL     1      88.408  80.273  84.852  1.00  0.00     0.160 A 
ATOM     10  C   UNL     1      88.894  79.120  84.199  1.00  0.00     0.157 A 
ATOM     11  C   UNL     1      89.315  81.139  85.497  1.00  0.00     0.056 A 
ATOM     12  C   UNL     1      90.277  78.862  84.166  1.00  0.00     0.050 A 
ATOM     13  C   UNL     1      91.177  79.742  84.795  1.00  0.00     0.009 A 
BRANCH   9  14
ATOM     14  O   UNL     1      87.074  80.579  84.816  1.00  0.00    -0.493 OA
ATOM     15  C   UNL     1      86.747  81.679  83.950  1.00  0.00     0.278 C 
ENDBRANCH   9  14
BRANCH  10  16
ATOM     16  O   UNL     1      88.052  78.246  83.591  1.00  0.00    -0.504 OA
ATOM     17  H   UNL     1      88.165  78.304  82.639  1.00  0.00     0.293 HD
ENDBRANCH  10  16
ENDBRANCH   7   8
ENDBRANCH   4   7
ENDBRANCH   2   3
ENDBRANCH   1   2
BRANCH   1  18
ATOM     18  C   UNL     1      97.003  82.322  82.987  1.00  0.00     0.001 C 
BRANCH  18  19
ATOM     19  C   UNL     1      96.668  82.192  81.480  1.00  0.00     0.004 C 
BRANCH  19  20
ATOM     20  C   UNL     1      97.465  81.032  80.820  1.00  0.00     0.027 C 
BRANCH  20  21
ATOM     21  C   UNL     1      97.572  81.144  79.375  1.00  0.00    -0.031 C 
ATOM     22  C   UNL     1      96.878  82.056  78.672  1.00  0.00    -0.028 C 
BRANCH  22  23
ATOM     23  C   UNL     1      96.968  82.198  77.221  1.00  0.00     0.005 C 
ATOM     24  C   UNL     1      96.989  80.802  76.544  1.00  0.00     0.012 C 
ATOM     25  C   UNL     1      95.810  83.091  76.696  1.00  0.00     0.012 C 
ENDBRANCH  22  23
ENDBRANCH  20  21
ENDBRANCH  19  20
ENDBRANCH  18  19
ENDBRANCH   1  18
TORSDOF 11
ENDMDL
MODEL 5
REMARK VINA RESULT:    -6.091      1.471      2.014
REMARK INTER + INTRA:         -10.956
REMARK INTER:                 -10.076
REMARK INTRA:                  -0.880
REMARK UNBOUND:                -1.126
REMARK SMILES COc1cc(CNC(=O)CCCCC/C=C/C(C)C)ccc1O
REMARK SMILES IDX 11 1 10 2 8 3 7 4 9 6 6 7 5 8 3 9 22 10 4 11 21 12 20 13
REMARK SMILES IDX 2 14 1 15 23 16 12 18 13 19 14 20 15 21 16 22 17 23 18 24
REMARK SMILES IDX 19 25
REMARK H PARENT 7 5 23 17
REMARK Flexibility Score: inf
ROOT
ATOM      1  C   UNL     1      94.721  94.284  77.692  1.00  0.00     0.010 C 
ENDROOT
BRANCH   1   2
ATOM      2  C   UNL     1      95.091  92.930  78.350  1.00  0.00     0.100 C 
BRANCH   2   3
ATOM      3  C   UNL     1      95.561  93.048  79.742  1.00  0.00     0.220 C 
ATOM      4  N   UNL     1      96.713  93.721  80.014  1.00  0.00    -0.352 N 
ATOM      5  H   UNL     1      97.217  94.040  79.198  1.00  0.00     0.163 HD
ATOM      6  O   UNL     1      94.856  92.553  80.653  1.00  0.00    -0.275 OA
BRANCH   4   7
ATOM      7  C   UNL     1      97.228  93.991  81.317  1.00  0.00     0.151 C 
BRANCH   7   8
ATOM      8  C   UNL     1      97.184  95.436  81.661  1.00  0.00    -0.025 A 
ATOM      9  C   UNL     1      98.265  97.451  82.566  1.00  0.00     0.160 A 
ATOM     10  C   UNL     1      97.073  98.180  82.365  1.00  0.00     0.157 A 
ATOM     11  C   UNL     1      98.309  96.084  82.222  1.00  0.00     0.056 A 
ATOM     12  C   UNL     1      95.954  97.550  81.792  1.00  0.00     0.050 A 
ATOM     13  C   UNL     1      96.012  96.191  81.432  1.00  0.00     0.009 A 
BRANCH   9  14
ATOM     14  O   UNL     1      99.388  98.076  83.042  1.00  0.00    -0.493 OA
ATOM     15  C   UNL     1     100.230  97.236  83.849  1.00  0.00     0.278 C 
ENDBRANCH   9  14
BRANCH  10  16
ATOM     16  O   UNL     1      96.981  99.489  82.709  1.00  0.00    -0.504 OA
ATOM     17  H   UNL     1      96.605  99.562  83.590  1.00  0.00     0.293 HD
ENDBRANCH  10  16
ENDBRANCH   7   8
ENDBRANCH   4   7
ENDBRANCH   2   3
ENDBRANCH   1   2
BRANCH   1  18
ATOM     18  C   UNL     1      93.212  94.594  77.860  1.00  0.00     0.001 C 
BRANCH  18  19
ATOM     19  C   UNL     1      92.301  93.347  77.730  1.00  0.00     0.004 C 
BRANCH  19  20
ATOM     20  C   UNL     1      90.956  93.698  77.033  1.00  0.00     0.027 C 
BRANCH  20  21
ATOM     21  C   UNL     1      90.635  92.831  75.913  1.00  0.00    -0.031 C 
ATOM     22  C   UNL     1      90.142  91.591  76.082  1.00  0.00    -0.028 C 
BRANCH  22  23
ATOM     23  C   UNL     1      89.804  90.697  74.977  1.00  0.00     0.005 C 
ATOM     24  C   UNL     1      89.194  91.503  73.800  1.00  0.00     0.012 C 
ATOM     25  C   UNL     1      91.052  89.879  74.547  1.00  0.00     0.012 C 
ENDBRANCH  22  23
ENDBRANCH  20  21
ENDBRANCH  19  20
ENDBRANCH  18  19
ENDBRANCH   1  18
TORSDOF 11
ENDMDL
MODEL 6
REMARK VINA RESULT:    -5.773     25.553     30.078
REMARK INTER + INTRA:         -10.442
REMARK INTER:                  -8.962
REMARK INTRA:                  -1.479
REMARK UNBOUND:                -1.126
REMARK SMILES COc1cc(CNC(=O)CCCCC/C=C/C(C)C)ccc1O
REMARK SMILES IDX 11 1 10 2 8 3 7 4 9 6 6 7 5 8 3 9 22 10 4 11 21 12 20 13
REMARK SMILES IDX 2 14 1 15 23 16 12 18 13 19 14 20 15 21 16 22 17 23 18 24
REMARK SMILES IDX 19 25
REMARK H PARENT 7 5 23 17
REMARK Flexibility Score: inf
ROOT
ATOM      1  C   UNL     1      81.422  65.941  76.347  1.00  0.00     0.010 C 
ENDROOT
BRANCH   1   2
ATOM      2  C   UNL     1      82.587  64.920  76.280  1.00  0.00     0.100 C 
BRANCH   2   3
ATOM      3  C   UNL     1      83.893  65.521  75.953  1.00  0.00     0.220 C 
ATOM      4  N   UNL     1      83.946  66.729  75.327  1.00  0.00    -0.352 N 
ATOM      5  H   UNL     1      83.047  67.104  75.059  1.00  0.00     0.163 HD
ATOM      6  O   UNL     1      84.933  64.912  76.301  1.00  0.00    -0.275 OA
BRANCH   4   7
ATOM      7  C   UNL     1      85.136  67.463  75.041  1.00  0.00     0.151 C 
BRANCH   7   8
ATOM      8  C   UNL     1      84.955  68.435  73.931  1.00  0.00    -0.025 A 
ATOM      9  C   UNL     1      85.280  70.681  72.985  1.00  0.00     0.160 A 
ATOM     10  C   UNL     1      84.559  70.299  71.832  1.00  0.00     0.157 A 
ATOM     11  C   UNL     1      85.465  69.751  74.028  1.00  0.00     0.056 A 
ATOM     12  C   UNL     1      84.063  68.988  71.718  1.00  0.00     0.050 A 
ATOM     13  C   UNL     1      84.268  68.059  72.755  1.00  0.00     0.009 A 
BRANCH   9  14
ATOM     14  O   UNL     1      85.843  71.927  73.068  1.00  0.00    -0.493 OA
ATOM     15  C   UNL     1      85.121  72.843  73.908  1.00  0.00     0.278 C 
ENDBRANCH   9  14
BRANCH  10  16
ATOM     16  O   UNL     1      84.335  71.173  70.819  1.00  0.00    -0.504 OA
ATOM     17  H   UNL     1      83.504  71.630  70.969  1.00  0.00     0.293 HD
ENDBRANCH  10  16
ENDBRANCH   7   8
ENDBRANCH   4   7
ENDBRANCH   2   3
ENDBRANCH   1   2
BRANCH   1  18
ATOM     18  C   UNL     1      80.153  65.389  75.648  1.00  0.00     0.001 C 
BRANCH  18  19
ATOM     19  C   UNL     1      80.383  64.982  74.170  1.00  0.00     0.004 C 
BRANCH  19  20
ATOM     20  C   UNL     1      80.916  66.176  73.330  1.00  0.00     0.027 C 
BRANCH  20  21
ATOM     21  C   UNL     1      80.793  65.983  71.896  1.00  0.00    -0.031 C 
ATOM     22  C   UNL     1      81.851  66.046  71.068  1.00  0.00    -0.028 C 
BRANCH  22  23
ATOM     23  C   UNL     1      81.761  65.851  69.623  1.00  0.00     0.005 C 
ATOM     24  C   UNL     1      80.547  64.949  69.277  1.00  0.00     0.012 C 
ATOM     25  C   UNL     1      81.703  67.223  68.899  1.00  0.00     0.012 C 
ENDBRANCH  22  23
ENDBRANCH  20  21
ENDBRANCH  19  20
ENDBRANCH  18  19
ENDBRANCH   1  18
TORSDOF 11
ENDMDL
MODEL 7
REMARK VINA RESULT:    -5.721     12.982     15.526
REMARK INTER + INTRA:         -10.358
REMARK INTER:                  -9.643
REMARK INTRA:                  -0.715
REMARK UNBOUND:                -1.126
REMARK SMILES COc1cc(CNC(=O)CCCCC/C=C/C(C)C)ccc1O
REMARK SMILES IDX 11 1 10 2 8 3 7 4 9 6 6 7 5 8 3 9 22 10 4 11 21 12 20 13
REMARK SMILES IDX 2 14 1 15 23 16 12 18 13 19 14 20 15 21 16 22 17 23 18 24
REMARK SMILES IDX 19 25
REMARK H PARENT 7 5 23 17
REMARK Flexibility Score: inf
ROOT
ATOM      1  C   UNL     1      95.947  81.326  82.992  1.00  0.00     0.010 C 
ENDROOT
BRANCH   1   2
ATOM      2  C   UNL     1      95.434  82.642  83.633  1.00  0.00     0.100 C 
BRANCH   2   3
ATOM      3  C   UNL     1      94.786  82.458  84.945  1.00  0.00     0.220 C 
ATOM      4  N   UNL     1      93.430  82.536  85.048  1.00  0.00    -0.352 N 
ATOM      5  H   UNL     1      92.957  82.795  84.194  1.00  0.00     0.163 HD
ATOM      6  O   UNL     1      95.509  82.192  85.934  1.00  0.00    -0.275 OA
BRANCH   4   7
ATOM      7  C   UNL     1      92.673  82.284  86.231  1.00  0.00     0.151 C 
BRANCH   7   8
ATOM      8  C   UNL     1      91.377  81.613  85.948  1.00  0.00    -0.025 A 
ATOM      9  C   UNL     1      90.014  80.089  84.581  1.00  0.00     0.160 A 
ATOM     10  C   UNL     1      88.888  80.379  85.383  1.00  0.00     0.157 A 
ATOM     11  C   UNL     1      91.246  80.714  84.864  1.00  0.00     0.056 A 
ATOM     12  C   UNL     1      89.011  81.258  86.474  1.00  0.00     0.050 A 
ATOM     13  C   UNL     1      90.249  81.863  86.761  1.00  0.00     0.009 A 
BRANCH   9  14
ATOM     14  O   UNL     1      89.927  79.168  83.572  1.00  0.00    -0.493 OA
ATOM     15  C   UNL     1      90.327  77.841  83.951  1.00  0.00     0.278 C 
ENDBRANCH   9  14
BRANCH  10  16
ATOM     16  O   UNL     1      87.679  79.821  85.127  1.00  0.00    -0.504 OA
ATOM     17  H   UNL     1      87.084  80.491  84.780  1.00  0.00     0.293 HD
ENDBRANCH  10  16
ENDBRANCH   7   8
ENDBRANCH   4   7
ENDBRANCH   2   3
ENDBRANCH   1   2
BRANCH   1  18
ATOM     18  C   UNL     1      96.902  81.616  81.807  1.00  0.00     0.001 C 
BRANCH  18  19
ATOM     19  C   UNL     1      97.482  80.339  81.147  1.00  0.00     0.004 C 
BRANCH  19  20
ATOM     20  C   UNL     1      98.395  80.690  79.939  1.00  0.00     0.027 C 
BRANCH  20  21
ATOM     21  C   UNL     1      97.745  81.515  78.935  1.00  0.00    -0.031 C 
ATOM     22  C   UNL     1      97.197  80.995  77.822  1.00  0.00    -0.028 C 
BRANCH  22  23
ATOM     23  C   UNL     1      96.532  81.796  76.798  1.00  0.00     0.005 C 
ATOM     24  C   UNL     1      95.585  82.834  77.457  1.00  0.00     0.012 C 
ATOM     25  C   UNL     1      97.584  82.463  75.870  1.00  0.00     0.012 C 
ENDBRANCH  22  23
ENDBRANCH  20  21
ENDBRANCH  19  20
ENDBRANCH  18  19
ENDBRANCH   1  18
TORSDOF 11
ENDMDL
MODEL 8
REMARK VINA RESULT:    -5.596     27.038     30.938
REMARK INTER + INTRA:         -10.157
REMARK INTER:                  -9.125
REMARK INTRA:                  -1.032
REMARK UNBOUND:                -1.126
REMARK SMILES COc1cc(CNC(=O)CCCCC/C=C/C(C)C)ccc1O
REMARK SMILES IDX 11 1 10 2 8 3 7 4 9 6 6 7 5 8 3 9 22 10 4 11 21 12 20 13
REMARK SMILES IDX 2 14 1 15 23 16 12 18 13 19 14 20 15 21 16 22 17 23 18 24
REMARK SMILES IDX 19 25
REMARK H PARENT 7 5 23 17
REMARK Flexibility Score: inf
ROOT
ATOM      1  C   UNL     1      80.629  64.675  76.710  1.00  0.00     0.010 C 
ENDROOT
BRANCH   1   2
ATOM      2  C   UNL     1      81.579  63.685  75.988  1.00  0.00     0.100 C 
BRANCH   2   3
ATOM      3  C   UNL     1      82.997  64.089  76.011  1.00  0.00     0.220 C 
ATOM      4  N   UNL     1      83.697  64.040  77.178  1.00  0.00    -0.352 N 
ATOM      5  H   UNL     1      83.149  63.788  77.988  1.00  0.00     0.163 HD
ATOM      6  O   UNL     1      83.536  64.433  74.932  1.00  0.00    -0.275 OA
BRANCH   4   7
ATOM      7  C   UNL     1      85.091  64.309  77.320  1.00  0.00     0.151 C 
BRANCH   7   8
ATOM      8  C   UNL     1      85.358  65.615  77.976  1.00  0.00    -0.025 A 
ATOM      9  C   UNL     1      85.190  68.069  77.996  1.00  0.00     0.160 A 
ATOM     10  C   UNL     1      85.917  68.108  79.205  1.00  0.00     0.157 A 
ATOM     11  C   UNL     1      84.924  66.826  77.386  1.00  0.00     0.056 A 
ATOM     12  C   UNL     1      86.339  66.909  79.809  1.00  0.00     0.050 A 
ATOM     13  C   UNL     1      86.053  65.671  79.205  1.00  0.00     0.009 A 
BRANCH   9  14
ATOM     14  O   UNL     1      84.699  69.223  77.445  1.00  0.00    -0.493 OA
ATOM     15  C   UNL     1      85.520  69.772  76.401  1.00  0.00     0.278 C 
ENDBRANCH   9  14
BRANCH  10  16
ATOM     16  O   UNL     1      86.219  69.285  79.809  1.00  0.00    -0.504 OA
ATOM     17  H   UNL     1      85.538  69.931  79.606  1.00  0.00     0.293 HD
ENDBRANCH  10  16
ENDBRANCH   7   8
ENDBRANCH   4   7
ENDBRANCH   2   3
ENDBRANCH   1   2
BRANCH   1  18
ATOM     18  C   UNL     1      80.146  65.790  75.748  1.00  0.00     0.001 C 
BRANCH  18  19
ATOM     19  C   UNL     1      80.166  65.376  74.255  1.00  0.00     0.004 C 
BRANCH  19  20
ATOM     20  C   UNL     1      80.865  66.452  73.378  1.00  0.00     0.027 C 
BRANCH  20  21
ATOM     21  C   UNL     1      81.473  65.917  72.171  1.00  0.00    -0.031 C 
ATOM     22  C   UNL     1      80.835  65.913  70.986  1.00  0.00    -0.028 C 
BRANCH  22  23
ATOM     23  C   UNL     1      81.420  65.389  69.755  1.00  0.00     0.005 C 
ATOM     24  C   UNL     1      82.246  64.110  70.053  1.00  0.00     0.012 C 
ATOM     25  C   UNL     1      80.310  65.141  68.697  1.00  0.00     0.012 C 
ENDBRANCH  22  23
ENDBRANCH  20  21
ENDBRANCH  19  20
ENDBRANCH  18  19
ENDBRANCH   1  18
TORSDOF 11
ENDMDL
MODEL 9
REMARK VINA RESULT:    -5.588      5.645      9.153
REMARK INTER + INTRA:         -10.144
REMARK INTER:                  -9.127
REMARK INTRA:                  -1.017
REMARK UNBOUND:                -1.126
REMARK SMILES COc1cc(CNC(=O)CCCCC/C=C/C(C)C)ccc1O
REMARK SMILES IDX 11 1 10 2 8 3 7 4 9 6 6 7 5 8 3 9 22 10 4 11 21 12 20 13
REMARK SMILES IDX 2 14 1 15 23 16 12 18 13 19 14 20 15 21 16 22 17 23 18 24
REMARK SMILES IDX 19 25
REMARK H PARENT 7 5 23 17
REMARK Flexibility Score: inf
ROOT
ATOM      1  C   UNL     1      94.798  95.049  75.670  1.00  0.00     0.010 C 
ENDROOT
BRANCH   1   2
ATOM      2  C   UNL     1      93.917  96.300  75.422  1.00  0.00     0.100 C 
BRANCH   2   3
ATOM      3  C   UNL     1      94.564  97.336  74.594  1.00  0.00     0.220 C 
ATOM      4  N   UNL     1      93.972  97.748  73.440  1.00  0.00    -0.352 N 
ATOM      5  H   UNL     1      93.134  97.240  73.191  1.00  0.00     0.163 HD
ATOM      6  O   UNL     1      95.635  97.842  75.004  1.00  0.00    -0.275 OA
BRANCH   4   7
ATOM      7  C   UNL     1      94.437  98.803  72.600  1.00  0.00     0.151 C 
BRANCH   7   8
ATOM      8  C   UNL     1      93.410  99.855  72.380  1.00  0.00    -0.025 A 
ATOM      9  C   UNL     1      91.544 100.777  71.070  1.00  0.00     0.160 A 
ATOM     10  C   UNL     1      91.488 101.891  71.935  1.00  0.00     0.157 A 
ATOM     11  C   UNL     1      92.508  99.773  71.293  1.00  0.00     0.056 A 
ATOM     12  C   UNL     1      92.369 101.974  73.029  1.00  0.00     0.050 A 
ATOM     13  C   UNL     1      93.316 100.958  73.256  1.00  0.00     0.009 A 
BRANCH   9  14
ATOM     14  O   UNL     1      90.635 100.642  70.054  1.00  0.00    -0.493 OA
ATOM     15  C   UNL     1      89.584  99.701  70.327  1.00  0.00     0.278 C 
ENDBRANCH   9  14
BRANCH  10  16
ATOM     16  O   UNL     1      90.594 102.892  71.738  1.00  0.00    -0.504 OA
ATOM     17  H   UNL     1      90.440 103.350  72.568  1.00  0.00     0.293 HD
ENDBRANCH  10  16
ENDBRANCH   7   8
ENDBRANCH   4   7
ENDBRANCH   2   3
ENDBRANCH   1   2
BRANCH   1  18
ATOM     18  C   UNL     1      95.231  94.955  77.155  1.00  0.00     0.001 C 
BRANCH  18  19
ATOM     19  C   UNL     1      95.551  93.511  77.621  1.00  0.00     0.004 C 
BRANCH  19  20
ATOM     20  C   UNL     1      94.567  93.043  78.730  1.00  0.00     0.027 C 
BRANCH  20  21
ATOM     21  C   UNL     1      93.232  93.600  78.600  1.00  0.00    -0.031 C 
ATOM     22  C   UNL     1      92.342  93.134  77.705  1.00  0.00    -0.028 C 
BRANCH  22  23
ATOM     23  C   UNL     1      90.991  93.668  77.554  1.00  0.00     0.005 C 
ATOM     24  C   UNL     1      90.847  94.388  76.187  1.00  0.00     0.012 C 
ATOM     25  C   UNL     1      89.943  92.537  77.738  1.00  0.00     0.012 C 
ENDBRANCH  22  23
ENDBRANCH  20  21
ENDBRANCH  19  20
ENDBRANCH  18  19
ENDBRANCH   1  18
TORSDOF 11
ENDMDL
MODEL 10
REMARK VINA RESULT:    -5.359     29.397     32.544
REMARK INTER + INTRA:          -9.775
REMARK INTER:                  -7.982
REMARK INTRA:                  -1.793
REMARK UNBOUND:                -1.126
REMARK SMILES COc1cc(CNC(=O)CCCCC/C=C/C(C)C)ccc1O
REMARK SMILES IDX 11 1 10 2 8 3 7 4 9 6 6 7 5 8 3 9 22 10 4 11 21 12 20 13
REMARK SMILES IDX 2 14 1 15 23 16 12 18 13 19 14 20 15 21 16 22 17 23 18 24
REMARK SMILES IDX 19 25
REMARK H PARENT 7 5 23 17
REMARK Flexibility Score: inf
ROOT
ATOM      1  C   UNL     1      62.611  84.871  74.792  1.00  0.00     0.010 C 
ENDROOT
BRANCH   1   2
ATOM      2  C   UNL     1      64.081  84.668  74.340  1.00  0.00     0.100 C 
BRANCH   2   3
ATOM      3  C   UNL     1      64.484  85.522  73.207  1.00  0.00     0.220 C 
ATOM      4  N   UNL     1      65.686  86.161  73.235  1.00  0.00    -0.352 N 
ATOM      5  H   UNL     1      66.201  86.053  74.098  1.00  0.00     0.163 HD
ATOM      6  O   UNL     1      63.715  85.604  72.220  1.00  0.00    -0.275 OA
BRANCH   4   7
ATOM      7  C   UNL     1      66.239  86.934  72.171  1.00  0.00     0.151 C 
BRANCH   7   8
ATOM      8  C   UNL     1      67.006  86.109  71.202  1.00  0.00    -0.025 A 
ATOM      9  C   UNL     1      67.336  85.245  68.923  1.00  0.00     0.160 A 
ATOM     10  C   UNL     1      68.442  84.490  69.371  1.00  0.00     0.157 A 
ATOM     11  C   UNL     1      66.622  86.040  69.842  1.00  0.00     0.056 A 
ATOM     12  C   UNL     1      68.844  84.564  70.717  1.00  0.00     0.050 A 
ATOM     13  C   UNL     1      68.137  85.376  71.624  1.00  0.00     0.009 A 
BRANCH   9  14
ATOM     14  O   UNL     1      66.990  85.248  67.598  1.00  0.00    -0.493 OA
ATOM     15  C   UNL     1      65.872  84.403  67.280  1.00  0.00     0.278 C 
ENDBRANCH   9  14
BRANCH  10  16
ATOM     16  O   UNL     1      69.139  83.690  68.524  1.00  0.00    -0.504 OA
ATOM     17  H   UNL     1      69.025  82.773  68.786  1.00  0.00     0.293 HD
ENDBRANCH  10  16
ENDBRANCH   7   8
ENDBRANCH   4   7
ENDBRANCH   2   3
ENDBRANCH   1   2
BRANCH   1  18
ATOM     18  C   UNL     1      61.933  83.516  75.116  1.00  0.00     0.001 C 
BRANCH  18  19
ATOM     19  C   UNL     1      61.537  82.700  73.859  1.00  0.00     0.004 C 
BRANCH  19  20
ATOM     20  C   UNL     1      62.306  81.351  73.793  1.00  0.00     0.027 C 
BRANCH  20  21
ATOM     21  C   UNL     1      63.315  81.305  72.748  1.00  0.00    -0.031 C 
ATOM     22  C   UNL     1      63.072  81.726  71.495  1.00  0.00    -0.028 C 
BRANCH  22  23
ATOM     23  C   UNL     1      64.065  81.698  70.424  1.00  0.00     0.005 C 
ATOM     24  C   UNL     1      63.383  81.933  69.051  1.00  0.00     0.012 C 
ATOM     25  C   UNL     1      65.191  82.729  70.708  1.00  0.00     0.012 C 
ENDBRANCH  22  23
ENDBRANCH  20  21
ENDBRANCH  19  20
ENDBRANCH  18  19
ENDBRANCH   1  18
TORSDOF 11
ENDMDL
