MODEL 1
REMARK VINA RESULT:    -7.309      0.000      0.000
REMARK INTER + INTRA:          -8.786
REMARK INTER:                  -8.591
REMARK INTRA:                  -0.195
REMARK UNBOUND:                -0.195
REMARK SMILES O=C(/C=C/C=C/c1ccc2c(c1)OCO2)N1CCCCC1
REMARK SMILES IDX 3 1 4 2 2 3 1 4 16 5 17 6 21 7 18 8 20 9 19 10 5 11 6 12
REMARK SMILES IDX 7 13 12 14 8 15 11 16 9 17 13 18 10 19 14 20 15 21
REMARK H PARENT
REMARK Flexibility Score: inf
ROOT
ATOM      1  C   UNL     1      96.220  82.159  77.190  1.00  0.00     0.071 C 
ATOM      2  C   UNL     1      97.117  82.310  78.162  1.00  0.00     0.006 C 
ENDROOT
BRANCH   1   3
ATOM      3  C   UNL     1      96.453  82.863  75.913  1.00  0.00     0.246 C 
ATOM      4  O   UNL     1      95.747  83.842  75.666  1.00  0.00    -0.270 OA
ATOM      5  N   UNL     1      97.451  82.372  75.073  1.00  0.00    -0.339 N 
ATOM      6  C   UNL     1      97.702  83.047  73.796  1.00  0.00     0.120 C 
ATOM      7  C   UNL     1      98.281  81.182  75.313  1.00  0.00     0.120 C 
ATOM      8  C   UNL     1      99.174  83.410  73.638  1.00  0.00     0.022 C 
ATOM      9  C   UNL     1      99.767  81.505  75.159  1.00  0.00     0.022 C 
ATOM     10  C   UNL     1     100.062  82.184  73.825  1.00  0.00     0.004 C 
ENDBRANCH   1   3
BRANCH   2  11
ATOM     11  C   UNL     1      96.975  81.661  79.448  1.00  0.00     0.001 C 
ATOM     12  C   UNL     1      96.668  82.330  80.570  1.00  0.00     0.008 C 
BRANCH  12  13
ATOM     13  C   UNL     1      96.520  81.722  81.903  1.00  0.00    -0.022 A 
ATOM     14  C   UNL     1      96.311  82.544  83.002  1.00  0.00     0.058 A 
ATOM     15  C   UNL     1      96.594  80.332  82.025  1.00  0.00     0.012 A 
ATOM     16  C   UNL     1      96.178  81.928  84.229  1.00  0.00     0.166 A 
ATOM     17  C   UNL     1      96.456  79.734  83.280  1.00  0.00     0.051 A 
ATOM     18  O   UNL     1      95.970  82.555  85.419  1.00  0.00    -0.454 OA
ATOM     19  C   UNL     1      96.248  80.560  84.365  1.00  0.00     0.165 A 
ATOM     20  C   UNL     1      95.917  81.429  86.318  1.00  0.00     0.468 C 
ATOM     21  O   UNL     1      96.093  80.160  85.656  1.00  0.00    -0.454 OA
ENDBRANCH  12  13
ENDBRANCH   2  11
TORSDOF 3
ENDMDL
MODEL 2
REMARK VINA RESULT:    -7.262      2.741      9.477
REMARK INTER + INTRA:          -8.730
REMARK INTER:                  -8.394
REMARK INTRA:                  -0.336
REMARK UNBOUND:                -0.195
REMARK SMILES O=C(/C=C/C=C/c1ccc2c(c1)OCO2)N1CCCCC1
REMARK SMILES IDX 3 1 4 2 2 3 1 4 16 5 17 6 21 7 18 8 20 9 19 10 5 11 6 12
REMARK SMILES IDX 7 13 12 14 8 15 11 16 9 17 13 18 10 19 14 20 15 21
REMARK H PARENT
REMARK Flexibility Score: inf
ROOT
ATOM      1  C   UNL     1      96.133  81.506  82.659  1.00  0.00     0.071 C 
ATOM      2  C   UNL     1      97.000  82.102  81.843  1.00  0.00     0.006 C 
ENDROOT
BRANCH   1   3
ATOM      3  C   UNL     1      96.534  81.293  84.064  1.00  0.00     0.246 C 
ATOM      4  O   UNL     1      97.739  81.310  84.320  1.00  0.00    -0.270 OA
ATOM      5  N   UNL     1      95.526  81.083  85.003  1.00  0.00    -0.339 N 
ATOM      6  C   UNL     1      95.894  80.864  86.405  1.00  0.00     0.120 C 
ATOM      7  C   UNL     1      94.083  81.011  84.728  1.00  0.00     0.120 C 
ATOM      8  C   UNL     1      95.148  81.816  87.333  1.00  0.00     0.022 C 
ATOM      9  C   UNL     1      93.298  81.952  85.643  1.00  0.00     0.022 C 
ATOM     10  C   UNL     1      93.641  81.725  87.112  1.00  0.00     0.004 C 
ENDBRANCH   1   3
BRANCH   2  11
ATOM     11  C   UNL     1      96.697  82.354  80.450  1.00  0.00     0.001 C 
ATOM     12  C   UNL     1      97.436  81.857  79.445  1.00  0.00     0.008 C 
BRANCH  12  13
ATOM     13  C   UNL     1      97.178  82.088  78.013  1.00  0.00    -0.022 A 
ATOM     14  C   UNL     1      98.119  81.669  77.082  1.00  0.00     0.058 A 
ATOM     15  C   UNL     1      95.993  82.722  77.632  1.00  0.00     0.012 A 
ATOM     16  C   UNL     1      97.833  81.907  75.753  1.00  0.00     0.166 A 
ATOM     17  C   UNL     1      95.729  82.950  76.280  1.00  0.00     0.051 A 
ATOM     18  O   UNL     1      98.623  81.576  74.695  1.00  0.00    -0.454 OA
ATOM     19  C   UNL     1      96.670  82.531  75.362  1.00  0.00     0.165 A 
ATOM     20  C   UNL     1      97.826  82.061  73.595  1.00  0.00     0.468 C 
ATOM     21  O   UNL     1      96.586  82.668  74.011  1.00  0.00    -0.454 OA
ENDBRANCH  12  13
ENDBRANCH   2  11
TORSDOF 3
ENDMDL
MODEL 3
REMARK VINA RESULT:    -7.217      2.010      2.685
REMARK INTER + INTRA:          -8.677
REMARK INTER:                  -8.357
REMARK INTRA:                  -0.320
REMARK UNBOUND:                -0.195
REMARK SMILES O=C(/C=C/C=C/c1ccc2c(c1)OCO2)N1CCCCC1
REMARK SMILES IDX 3 1 4 2 2 3 1 4 16 5 17 6 21 7 18 8 20 9 19 10 5 11 6 12
REMARK SMILES IDX 7 13 12 14 8 15 11 16 9 17 13 18 10 19 14 20 15 21
REMARK H PARENT
REMARK Flexibility Score: inf
ROOT
ATOM      1  C   UNL     1      97.242  81.482  78.427  1.00  0.00     0.071 C 
ATOM      2  C   UNL     1      97.617  81.838  79.654  1.00  0.00     0.006 C 
ENDROOT
BRANCH   1   3
ATOM      3  C   UNL     1      98.290  81.317  77.400  1.00  0.00     0.246 C 
ATOM      4  O   UNL     1      99.227  80.562  77.660  1.00  0.00    -0.270 OA
ATOM      5  N   UNL     1      98.152  82.031  76.211  1.00  0.00    -0.339 N 
ATOM      6  C   UNL     1      99.180  81.892  75.174  1.00  0.00     0.120 C 
ATOM      7  C   UNL     1      97.073  82.975  75.884  1.00  0.00     0.120 C 
ATOM      8  C   UNL     1      98.567  81.523  73.828  1.00  0.00     0.022 C 
ATOM      9  C   UNL     1      96.434  82.640  74.536  1.00  0.00     0.022 C 
ATOM     10  C   UNL     1      97.480  82.518  73.431  1.00  0.00     0.004 C 
ENDBRANCH   1   3
BRANCH   2  11
ATOM     11  C   UNL     1      96.664  82.024  80.727  1.00  0.00     0.001 C 
ATOM     12  C   UNL     1      97.032  82.327  81.982  1.00  0.00     0.008 C 
BRANCH  12  13
ATOM     13  C   UNL     1      96.106  82.518  83.111  1.00  0.00    -0.022 A 
ATOM     14  C   UNL     1      95.987  83.779  83.681  1.00  0.00     0.058 A 
ATOM     15  C   UNL     1      95.371  81.425  83.578  1.00  0.00     0.012 A 
ATOM     16  C   UNL     1      95.107  83.908  84.735  1.00  0.00     0.166 A 
ATOM     17  C   UNL     1      94.487  81.585  84.647  1.00  0.00     0.051 A 
ATOM     18  O   UNL     1      94.851  85.054  85.425  1.00  0.00    -0.454 OA
ATOM     19  C   UNL     1      94.377  82.841  85.206  1.00  0.00     0.165 A 
ATOM     20  C   UNL     1      93.878  84.588  86.382  1.00  0.00     0.468 C 
ATOM     21  O   UNL     1      93.572  83.184  86.248  1.00  0.00    -0.454 OA
ENDBRANCH  12  13
ENDBRANCH   2  11
TORSDOF 3
ENDMDL
MODEL 4
REMARK VINA RESULT:    -7.154     15.366     17.216
REMARK INTER + INTRA:          -8.603
REMARK INTER:                  -8.253
REMARK INTRA:                  -0.350
REMARK UNBOUND:                -0.195
REMARK SMILES O=C(/C=C/C=C/c1ccc2c(c1)OCO2)N1CCCCC1
REMARK SMILES IDX 3 1 4 2 2 3 1 4 16 5 17 6 21 7 18 8 20 9 19 10 5 11 6 12
REMARK SMILES IDX 7 13 12 14 8 15 11 16 9 17 13 18 10 19 14 20 15 21
REMARK H PARENT
REMARK Flexibility Score: inf
ROOT
ATOM      1  C   UNL     1      92.990  99.152  72.691  1.00  0.00     0.071 C 
ATOM      2  C   UNL     1      94.087  98.497  73.069  1.00  0.00     0.006 C 
ENDROOT
BRANCH   1   3
ATOM      3  C   UNL     1      93.036  99.910  71.425  1.00  0.00     0.246 C 
ATOM      4  O   UNL     1      94.139 100.279  71.022  1.00  0.00    -0.270 OA
ATOM      5  N   UNL     1      91.828 100.162  70.775  1.00  0.00    -0.339 N 
ATOM      6  C   UNL     1      91.841 100.917  69.519  1.00  0.00     0.120 C 
ATOM      7  C   UNL     1      90.490  99.777  71.248  1.00  0.00     0.120 C 
ATOM      8  C   UNL     1      91.102 100.172  68.413  1.00  0.00     0.022 C 
ATOM      9  C   UNL     1      89.715  99.029  70.163  1.00  0.00     0.022 C 
ATOM     10  C   UNL     1      89.687  99.807  68.851  1.00  0.00     0.004 C 
ENDBRANCH   1   3
BRANCH   2  11
ATOM     11  C   UNL     1      94.139  97.727  74.293  1.00  0.00     0.001 C 
ATOM     12  C   UNL     1      93.609  96.498  74.402  1.00  0.00     0.008 C 
BRANCH  12  13
ATOM     13  C   UNL     1      93.627  95.675  75.623  1.00  0.00    -0.022 A 
ATOM     14  C   UNL     1      94.779  94.971  75.946  1.00  0.00     0.058 A 
ATOM     15  C   UNL     1      92.483  95.626  76.423  1.00  0.00     0.012 A 
ATOM     16  C   UNL     1      94.748  94.215  77.100  1.00  0.00     0.166 A 
ATOM     17  C   UNL     1      92.479  94.852  77.586  1.00  0.00     0.051 A 
ATOM     18  O   UNL     1      95.769  93.457  77.585  1.00  0.00    -0.454 OA
ATOM     19  C   UNL     1      93.629  94.157  77.898  1.00  0.00     0.165 A 
ATOM     20  C   UNL     1      95.167  92.916  78.778  1.00  0.00     0.468 C 
ATOM     21  O   UNL     1      93.809  93.355  78.983  1.00  0.00    -0.454 OA
ENDBRANCH  12  13
ENDBRANCH   2  11
TORSDOF 3
ENDMDL
MODEL 5
REMARK VINA RESULT:    -6.983     16.071     18.140
REMARK INTER + INTRA:          -8.402
REMARK INTER:                  -8.065
REMARK INTRA:                  -0.337
REMARK UNBOUND:                -0.195
REMARK SMILES O=C(/C=C/C=C/c1ccc2c(c1)OCO2)N1CCCCC1
REMARK SMILES IDX 3 1 4 2 2 3 1 4 16 5 17 6 21 7 18 8 20 9 19 10 5 11 6 12
REMARK SMILES IDX 7 13 12 14 8 15 11 16 9 17 13 18 10 19 14 20 15 21
REMARK H PARENT
REMARK Flexibility Score: inf
ROOT
ATOM      1  C   UNL     1      91.793  99.560  71.557  1.00  0.00     0.071 C 
ATOM      2  C   UNL     1      93.035  99.453  72.027  1.00  0.00     0.006 C 
ENDROOT
BRANCH   1   3
ATOM      3  C   UNL     1      91.596 100.256  70.270  1.00  0.00     0.246 C 
ATOM      4  O   UNL     1      92.342 101.202  70.014  1.00  0.00    -0.270 OA
ATOM      5  N   UNL     1      90.576  99.801  69.435  1.00  0.00    -0.339 N 
ATOM      6  C   UNL     1      90.352 100.476  68.153  1.00  0.00     0.120 C 
ATOM      7  C   UNL     1      89.638  98.707  69.726  1.00  0.00     0.120 C 
ATOM      8  C   UNL     1      90.346  99.485  66.995  1.00  0.00     0.022 C 
ATOM      9  C   UNL     1      89.601  97.692  68.584  1.00  0.00     0.022 C 
ATOM     10  C   UNL     1      89.340  98.364  67.240  1.00  0.00     0.004 C 
ENDBRANCH   1   3
BRANCH   2  11
ATOM     11  C   UNL     1      93.329  98.789  73.279  1.00  0.00     0.001 C 
ATOM     12  C   UNL     1      94.030  97.646  73.348  1.00  0.00     0.008 C 
BRANCH  12  13
ATOM     13  C   UNL     1      94.350  96.926  74.592  1.00  0.00    -0.022 A 
ATOM     14  C   UNL     1      93.358  96.181  75.216  1.00  0.00     0.058 A 
ATOM     15  C   UNL     1      95.645  97.011  75.110  1.00  0.00     0.012 A 
ATOM     16  C   UNL     1      93.707  95.524  76.378  1.00  0.00     0.166 A 
ATOM     17  C   UNL     1      95.970  96.335  76.288  1.00  0.00     0.051 A 
ATOM     18  O   UNL     1      92.882  94.748  77.134  1.00  0.00    -0.454 OA
ATOM     19  C   UNL     1      94.978  95.598  76.900  1.00  0.00     0.165 A 
ATOM     20  C   UNL     1      93.776  94.344  78.190  1.00  0.00     0.468 C 
ATOM     21  O   UNL     1      95.108  94.879  78.048  1.00  0.00    -0.454 OA
ENDBRANCH  12  13
ENDBRANCH   2  11
TORSDOF 3
ENDMDL
MODEL 6
REMARK VINA RESULT:    -6.901      3.545      9.192
REMARK INTER + INTRA:          -8.306
REMARK INTER:                  -7.891
REMARK INTRA:                  -0.414
REMARK UNBOUND:                -0.195
REMARK SMILES O=C(/C=C/C=C/c1ccc2c(c1)OCO2)N1CCCCC1
REMARK SMILES IDX 3 1 4 2 2 3 1 4 16 5 17 6 21 7 18 8 20 9 19 10 5 11 6 12
REMARK SMILES IDX 7 13 12 14 8 15 11 16 9 17 13 18 10 19 14 20 15 21
REMARK H PARENT
REMARK Flexibility Score: inf
ROOT
ATOM      1  C   UNL     1      95.880  82.195  84.397  1.00  0.00     0.071 C 
ATOM      2  C   UNL     1      95.996  83.130  83.455  1.00  0.00     0.006 C 
ENDROOT
BRANCH   1   3
ATOM      3  C   UNL     1      95.162  82.545  85.638  1.00  0.00     0.246 C 
ATOM      4  O   UNL     1      95.697  83.355  86.397  1.00  0.00    -0.270 OA
ATOM      5  N   UNL     1      93.931  81.935  85.871  1.00  0.00    -0.339 N 
ATOM      6  C   UNL     1      93.196  82.258  87.098  1.00  0.00     0.120 C 
ATOM      7  C   UNL     1      93.282  80.932  85.012  1.00  0.00     0.120 C 
ATOM      8  C   UNL     1      91.767  82.693  86.793  1.00  0.00     0.022 C 
ATOM      9  C   UNL     1      91.843  81.331  84.687  1.00  0.00     0.022 C 
ATOM     10  C   UNL     1      91.045  81.646  85.949  1.00  0.00     0.004 C 
ENDBRANCH   1   3
BRANCH   2  11
ATOM     11  C   UNL     1      96.683  82.881  82.205  1.00  0.00     0.001 C 
ATOM     12  C   UNL     1      96.687  81.680  81.605  1.00  0.00     0.008 C 
BRANCH  12  13
ATOM     13  C   UNL     1      97.375  81.371  80.340  1.00  0.00    -0.022 A 
ATOM     14  C   UNL     1      97.061  82.105  79.204  1.00  0.00     0.058 A 
ATOM     15  C   UNL     1      98.324  80.346  80.317  1.00  0.00     0.012 A 
ATOM     16  C   UNL     1      97.732  81.779  78.043  1.00  0.00     0.166 A 
ATOM     17  C   UNL     1      98.988  80.037  79.128  1.00  0.00     0.051 A 
ATOM     18  O   UNL     1      97.567  82.376  76.831  1.00  0.00    -0.454 OA
ATOM     19  C   UNL     1      98.670  80.772  78.006  1.00  0.00     0.165 A 
ATOM     20  C   UNL     1      98.506  81.633  76.027  1.00  0.00     0.468 C 
ATOM     21  O   UNL     1      99.209  80.614  76.766  1.00  0.00    -0.454 OA
ENDBRANCH  12  13
ENDBRANCH   2  11
TORSDOF 3
ENDMDL
MODEL 7
REMARK VINA RESULT:    -6.812     24.402     26.249
REMARK INTER + INTRA:          -8.201
REMARK INTER:                  -7.824
REMARK INTRA:                  -0.377
REMARK UNBOUND:                -0.195
REMARK SMILES O=C(/C=C/C=C/c1ccc2c(c1)OCO2)N1CCCCC1
REMARK SMILES IDX 3 1 4 2 2 3 1 4 16 5 17 6 21 7 18 8 20 9 19 10 5 11 6 12
REMARK SMILES IDX 7 13 12 14 8 15 11 16 9 17 13 18 10 19 14 20 15 21
REMARK H PARENT
REMARK Flexibility Score: inf
ROOT
ATOM      1  C   UNL     1      76.584  85.736  67.261  1.00  0.00     0.071 C 
ATOM      2  C   UNL     1      77.212  86.829  66.830  1.00  0.00     0.006 C 
ENDROOT
BRANCH   1   3
ATOM      3  C   UNL     1      76.873  84.457  66.583  1.00  0.00     0.246 C 
ATOM      4  O   UNL     1      77.978  83.948  66.775  1.00  0.00    -0.270 OA
ATOM      5  N   UNL     1      75.879  83.914  65.770  1.00  0.00    -0.339 N 
ATOM      6  C   UNL     1      76.138  82.647  65.080  1.00  0.00     0.120 C 
ATOM      7  C   UNL     1      74.567  84.514  65.483  1.00  0.00     0.120 C 
ATOM      8  C   UNL     1      75.038  81.628  65.354  1.00  0.00     0.022 C 
ATOM      9  C   UNL     1      73.436  83.520  65.742  1.00  0.00     0.022 C 
ATOM     10  C   UNL     1      73.665  82.200  65.012  1.00  0.00     0.004 C 
ENDBRANCH   1   3
BRANCH   2  11
ATOM     11  C   UNL     1      76.995  88.128  67.430  1.00  0.00     0.001 C 
ATOM     12  C   UNL     1      75.835  88.796  67.318  1.00  0.00     0.008 C 
BRANCH  12  13
ATOM     13  C   UNL     1      75.564  90.121  67.900  1.00  0.00    -0.022 A 
ATOM     14  C   UNL     1      75.557  91.235  67.071  1.00  0.00     0.058 A 
ATOM     15  C   UNL     1      75.320  90.221  69.272  1.00  0.00     0.012 A 
ATOM     16  C   UNL     1      75.298  92.454  67.663  1.00  0.00     0.166 A 
ATOM     17  C   UNL     1      75.061  91.468  69.845  1.00  0.00     0.051 A 
ATOM     18  O   UNL     1      75.249  93.656  67.026  1.00  0.00    -0.454 OA
ATOM     19  C   UNL     1      75.056  92.568  69.013  1.00  0.00     0.165 A 
ATOM     20  C   UNL     1      74.949  94.538  68.126  1.00  0.00     0.468 C 
ATOM     21  O   UNL     1      74.825  93.855  69.390  1.00  0.00    -0.454 OA
ENDBRANCH  12  13
ENDBRANCH   2  11
TORSDOF 3
ENDMDL
MODEL 8
REMARK VINA RESULT:    -6.787      2.908      8.779
REMARK INTER + INTRA:          -8.172
REMARK INTER:                  -7.790
REMARK INTRA:                  -0.382
REMARK UNBOUND:                -0.195
REMARK SMILES O=C(/C=C/C=C/c1ccc2c(c1)OCO2)N1CCCCC1
REMARK SMILES IDX 3 1 4 2 2 3 1 4 16 5 17 6 21 7 18 8 20 9 19 10 5 11 6 12
REMARK SMILES IDX 7 13 12 14 8 15 11 16 9 17 13 18 10 19 14 20 15 21
REMARK H PARENT
REMARK Flexibility Score: inf
ROOT
ATOM      1  C   UNL     1      96.712  80.485  82.038  1.00  0.00     0.071 C 
ATOM      2  C   UNL     1      96.836  81.754  81.651  1.00  0.00     0.006 C 
ENDROOT
BRANCH   1   3
ATOM      3  C   UNL     1      96.938  80.168  83.462  1.00  0.00     0.246 C 
ATOM      4  O   UNL     1      96.003  80.355  84.242  1.00  0.00    -0.270 OA
ATOM      5  N   UNL     1      98.192  79.683  83.829  1.00  0.00    -0.339 N 
ATOM      6  C   UNL     1      98.448  79.364  85.236  1.00  0.00     0.120 C 
ATOM      7  C   UNL     1      99.344  79.489  82.935  1.00  0.00     0.120 C 
ATOM      8  C   UNL     1      98.989  77.947  85.397  1.00  0.00     0.022 C 
ATOM      9  C   UNL     1      99.918  78.079  83.070  1.00  0.00     0.022 C 
ATOM     10  C   UNL     1     100.221  77.730  84.525  1.00  0.00     0.004 C 
ENDBRANCH   1   3
BRANCH   2  11
ATOM     11  C   UNL     1      96.635  82.162  80.277  1.00  0.00     0.001 C 
ATOM     12  C   UNL     1      97.378  81.692  79.263  1.00  0.00     0.008 C 
BRANCH  12  13
ATOM     13  C   UNL     1      97.221  82.079  77.851  1.00  0.00    -0.022 A 
ATOM     14  C   UNL     1      98.254  81.818  76.960  1.00  0.00     0.058 A 
ATOM     15  C   UNL     1      96.037  82.699  77.446  1.00  0.00     0.012 A 
ATOM     16  C   UNL     1      98.060  82.199  75.648  1.00  0.00     0.166 A 
ATOM     17  C   UNL     1      95.868  83.075  76.111  1.00  0.00     0.051 A 
ATOM     18  O   UNL     1      98.948  82.033  74.630  1.00  0.00    -0.454 OA
ATOM     19  C   UNL     1      96.899  82.811  75.235  1.00  0.00     0.165 A 
ATOM     20  C   UNL     1      98.215  82.609  73.529  1.00  0.00     0.468 C 
ATOM     21  O   UNL     1      96.914  83.104  73.906  1.00  0.00    -0.454 OA
ENDBRANCH  12  13
ENDBRANCH   2  11
TORSDOF 3
ENDMDL
MODEL 9
REMARK VINA RESULT:    -6.549      9.192     11.502
REMARK INTER + INTRA:          -7.893
REMARK INTER:                  -7.561
REMARK INTRA:                  -0.332
REMARK UNBOUND:                -0.195
REMARK SMILES O=C(/C=C/C=C/c1ccc2c(c1)OCO2)N1CCCCC1
REMARK SMILES IDX 3 1 4 2 2 3 1 4 16 5 17 6 21 7 18 8 20 9 19 10 5 11 6 12
REMARK SMILES IDX 7 13 12 14 8 15 11 16 9 17 13 18 10 19 14 20 15 21
REMARK H PARENT
REMARK Flexibility Score: inf
ROOT
ATOM      1  C   UNL     1      94.033  85.007  88.007  1.00  0.00     0.071 C 
ATOM      2  C   UNL     1      93.854  84.347  86.864  1.00  0.00     0.006 C 
ENDROOT
BRANCH   1   3
ATOM      3  C   UNL     1      95.345  85.639  88.247  1.00  0.00     0.246 C 
ATOM      4  O   UNL     1      96.327  85.140  87.695  1.00  0.00    -0.270 OA
ATOM      5  N   UNL     1      95.386  86.754  89.083  1.00  0.00    -0.339 N 
ATOM      6  C   UNL     1      96.676  87.401  89.343  1.00  0.00     0.120 C 
ATOM      7  C   UNL     1      94.245  87.350  89.793  1.00  0.00     0.120 C 
ATOM      8  C   UNL     1      96.617  88.897  89.055  1.00  0.00     0.022 C 
ATOM      9  C   UNL     1      94.154  88.853  89.531  1.00  0.00     0.022 C 
ATOM     10  C   UNL     1      95.476  89.557  89.822  1.00  0.00     0.004 C 
ENDBRANCH   1   3
BRANCH   2  11
ATOM     11  C   UNL     1      92.604  83.694  86.540  1.00  0.00     0.001 C 
ATOM     12  C   UNL     1      92.538  82.424  86.110  1.00  0.00     0.008 C 
BRANCH  12  13
ATOM     13  C   UNL     1      91.296  81.715  85.759  1.00  0.00    -0.022 A 
ATOM     14  C   UNL     1      91.298  80.842  84.679  1.00  0.00     0.058 A 
ATOM     15  C   UNL     1      90.148  81.940  86.523  1.00  0.00     0.012 A 
ATOM     16  C   UNL     1      90.111  80.201  84.390  1.00  0.00     0.166 A 
ATOM     17  C   UNL     1      88.960  81.277  86.207  1.00  0.00     0.051 A 
ATOM     18  O   UNL     1      89.910  79.314  83.377  1.00  0.00    -0.454 OA
ATOM     19  C   UNL     1      88.973  80.413  85.133  1.00  0.00     0.165 A 
ATOM     20  C   UNL     1      88.517  78.991  83.567  1.00  0.00     0.468 C 
ATOM     21  O   UNL     1      87.916  79.685  84.680  1.00  0.00    -0.454 OA
ENDBRANCH  12  13
ENDBRANCH   2  11
TORSDOF 3
ENDMDL
MODEL 10
REMARK VINA RESULT:    -6.498     16.936     19.246
REMARK INTER + INTRA:          -7.833
REMARK INTER:                  -7.434
REMARK INTRA:                  -0.398
REMARK UNBOUND:                -0.195
REMARK SMILES O=C(/C=C/C=C/c1ccc2c(c1)OCO2)N1CCCCC1
REMARK SMILES IDX 3 1 4 2 2 3 1 4 16 5 17 6 21 7 18 8 20 9 19 10 5 11 6 12
REMARK SMILES IDX 7 13 12 14 8 15 11 16 9 17 13 18 10 19 14 20 15 21
REMARK H PARENT
REMARK Flexibility Score: inf
ROOT
ATOM      1  C   UNL     1      91.470  99.796  70.996  1.00  0.00     0.071 C 
ATOM      2  C   UNL     1      92.782 100.024  71.007  1.00  0.00     0.006 C 
ENDROOT
BRANCH   1   3
ATOM      3  C   UNL     1      90.641 100.559  70.042  1.00  0.00     0.246 C 
ATOM      4  O   UNL     1      90.738 101.787  70.060  1.00  0.00    -0.270 OA
ATOM      5  N   UNL     1      89.803  99.842  69.190  1.00  0.00    -0.339 N 
ATOM      6  C   UNL     1      88.963 100.572  68.236  1.00  0.00     0.120 C 
ATOM      7  C   UNL     1      89.628  98.382  69.171  1.00  0.00     0.120 C 
ATOM      8  C   UNL     1      89.153 100.053  66.815  1.00  0.00     0.022 C 
ATOM      9  C   UNL     1      89.807  97.822  67.760  1.00  0.00     0.022 C 
ATOM     10  C   UNL     1      88.923  98.546  66.749  1.00  0.00     0.004 C 
ENDBRANCH   1   3
BRANCH   2  11
ATOM     11  C   UNL     1      93.676  99.325  71.906  1.00  0.00     0.001 C 
ATOM     12  C   UNL     1      93.262  98.768  73.055  1.00  0.00     0.008 C 
BRANCH  12  13
ATOM     13  C   UNL     1      94.128  98.054  74.008  1.00  0.00    -0.022 A 
ATOM     14  C   UNL     1      95.379  98.578  74.308  1.00  0.00     0.058 A 
ATOM     15  C   UNL     1      93.668  96.868  74.586  1.00  0.00     0.012 A 
ATOM     16  C   UNL     1      96.154  97.874  75.206  1.00  0.00     0.166 A 
ATOM     17  C   UNL     1      94.474  96.176  75.493  1.00  0.00     0.051 A 
ATOM     18  O   UNL     1      97.402  98.220  75.626  1.00  0.00    -0.454 OA
ATOM     19  C   UNL     1      95.714  96.705  75.783  1.00  0.00     0.165 A 
ATOM     20  C   UNL     1      97.697  97.137  76.532  1.00  0.00     0.468 C 
ATOM     21  O   UNL     1      96.630  96.172  76.636  1.00  0.00    -0.454 OA
ENDBRANCH  12  13
ENDBRANCH   2  11
TORSDOF 3
ENDMDL
