MODEL 1
REMARK VINA RESULT:    -6.315      0.000      0.000
REMARK INTER + INTRA:         -11.348
REMARK INTER:                 -10.561
REMARK INTRA:                  -0.787
REMARK UNBOUND:                -0.787
REMARK SMILES COc1cc(CNC(=O)CCCCCCCC(C)C)ccc1O
REMARK SMILES IDX 11 1 10 2 8 3 9 4 7 5 6 7 5 8 4 9 20 10 3 11 21 12 22 13
REMARK SMILES IDX 2 14 1 15 23 16 12 18 13 19 14 20 15 21 16 22 17 23 18 24
REMARK SMILES IDX 19 25
REMARK H PARENT 7 6 23 17
REMARK Flexibility Score: inf
ROOT
ATOM      1  C   UNL     1      95.145  80.979  83.622  1.00  0.00     0.010 C 
ENDROOT
BRANCH   1   2
ATOM      2  C   UNL     1      95.380  81.803  84.887  1.00  0.00     0.100 C 
BRANCH   2   3
ATOM      3  C   UNL     1      94.080  82.259  85.530  1.00  0.00     0.220 C 
ATOM      4  O   UNL     1      94.037  82.977  86.525  1.00  0.00    -0.275 OA
ATOM      5  N   UNL     1      92.976  81.758  84.858  1.00  0.00    -0.352 N 
ATOM      6  H   UNL     1      93.110  81.160  84.047  1.00  0.00     0.163 HD
BRANCH   5   7
ATOM      7  C   UNL     1      91.618  82.033  85.269  1.00  0.00     0.151 C 
BRANCH   7   8
ATOM      8  C   UNL     1      90.689  80.904  84.928  1.00  0.00    -0.025 A 
ATOM      9  C   UNL     1      89.349  81.169  84.674  1.00  0.00     0.056 A 
ATOM     10  C   UNL     1      91.179  79.605  84.870  1.00  0.00     0.009 A 
ATOM     11  C   UNL     1      88.486  80.120  84.358  1.00  0.00     0.160 A 
ATOM     12  C   UNL     1      90.315  78.555  84.555  1.00  0.00     0.050 A 
ATOM     13  C   UNL     1      88.969  78.812  84.299  1.00  0.00     0.157 A 
BRANCH  11  14
ATOM     14  O   UNL     1      87.172  80.383  84.110  1.00  0.00    -0.493 OA
ATOM     15  C   UNL     1      86.813  81.749  83.908  1.00  0.00     0.278 C 
ENDBRANCH  11  14
BRANCH  13  16
ATOM     16  O   UNL     1      88.136  77.779  83.990  1.00  0.00    -0.504 OA
ATOM     17  H   UNL     1      88.669  76.986  83.809  1.00  0.00     0.293 HD
ENDBRANCH  13  16
ENDBRANCH   7   8
ENDBRANCH   5   7
ENDBRANCH   2   3
ENDBRANCH   1   2
BRANCH   1  18
ATOM     18  C   UNL     1      96.122  81.307  82.490  1.00  0.00     0.001 C 
BRANCH  18  19
ATOM     19  C   UNL     1      96.818  80.104  81.844  1.00  0.00     0.000 C 
BRANCH  19  20
ATOM     20  C   UNL     1      97.558  80.456  80.551  1.00  0.00     0.000 C 
BRANCH  20  21
ATOM     21  C   UNL     1      97.181  81.831  79.987  1.00  0.00     0.000 C 
BRANCH  21  22
ATOM     22  C   UNL     1      97.591  82.018  78.522  1.00  0.00     0.003 C 
BRANCH  22  23
ATOM     23  C   UNL     1      96.417  81.881  77.534  1.00  0.00    -0.017 C 
ATOM     24  C   UNL     1      96.558  80.579  76.741  1.00  0.00     0.007 C 
ATOM     25  C   UNL     1      96.322  83.063  76.568  1.00  0.00     0.007 C 
ENDBRANCH  22  23
ENDBRANCH  21  22
ENDBRANCH  20  21
ENDBRANCH  19  20
ENDBRANCH  18  19
ENDBRANCH   1  18
TORSDOF 12
ENDMDL
MODEL 2
REMARK VINA RESULT:    -6.199     21.216     24.907
REMARK INTER + INTRA:         -11.154
REMARK INTER:                  -8.780
REMARK INTRA:                  -2.374
REMARK UNBOUND:                -0.787
REMARK SMILES COc1cc(CNC(=O)CCCCCCCC(C)C)ccc1O
REMARK SMILES IDX 11 1 10 2 8 3 9 4 7 5 6 7 5 8 4 9 20 10 3 11 21 12 22 13
REMARK SMILES IDX 2 14 1 15 23 16 12 18 13 19 14 20 15 21 16 22 17 23 18 24
REMARK SMILES IDX 19 25
REMARK H PARENT 7 6 23 17
REMARK Flexibility Score: inf
ROOT
ATOM      1  C   UNL     1      87.358  99.707  66.771  1.00  0.00     0.010 C 
ENDROOT
BRANCH   1   2
ATOM      2  C   UNL     1      88.759  99.156  66.514  1.00  0.00     0.100 C 
BRANCH   2   3
ATOM      3  C   UNL     1      89.346  98.476  67.740  1.00  0.00     0.220 C 
ATOM      4  O   UNL     1      89.941  97.403  67.695  1.00  0.00    -0.275 OA
ATOM      5  N   UNL     1      89.116  99.214  68.891  1.00  0.00    -0.352 N 
ATOM      6  H   UNL     1      88.602 100.089  68.833  1.00  0.00     0.163 HD
BRANCH   5   7
ATOM      7  C   UNL     1      89.563  98.787  70.197  1.00  0.00     0.151 C 
BRANCH   7   8
ATOM      8  C   UNL     1      90.525  99.765  70.808  1.00  0.00    -0.025 A 
ATOM      9  C   UNL     1      91.779  99.330  71.219  1.00  0.00     0.056 A 
ATOM     10  C   UNL     1      90.150 101.094  70.957  1.00  0.00     0.009 A 
ATOM     11  C   UNL     1      92.673 100.238  71.786  1.00  0.00     0.160 A 
ATOM     12  C   UNL     1      91.044 102.003  71.526  1.00  0.00     0.050 A 
ATOM     13  C   UNL     1      92.305 101.575  71.941  1.00  0.00     0.157 A 
BRANCH  11  14
ATOM     14  O   UNL     1      93.901  99.809  72.188  1.00  0.00    -0.493 OA
ATOM     15  C   UNL     1      93.940  98.870  73.262  1.00  0.00     0.278 C 
ENDBRANCH  11  14
BRANCH  13  16
ATOM     16  O   UNL     1      93.168 102.472  72.493  1.00  0.00    -0.504 OA
ATOM     17  H   UNL     1      93.645 102.043  73.225  1.00  0.00     0.293 HD
ENDBRANCH  13  16
ENDBRANCH   7   8
ENDBRANCH   5   7
ENDBRANCH   2   3
ENDBRANCH   1   2
BRANCH   1  18
ATOM     18  C   UNL     1      87.166 101.142  66.271  1.00  0.00     0.001 C 
BRANCH  18  19
ATOM     19  C   UNL     1      87.873 102.230  67.085  1.00  0.00     0.000 C 
BRANCH  19  20
ATOM     20  C   UNL     1      88.565 103.283  66.216  1.00  0.00     0.000 C 
BRANCH  20  21
ATOM     21  C   UNL     1      90.095 103.240  66.307  1.00  0.00     0.000 C 
BRANCH  21  22
ATOM     22  C   UNL     1      90.607 102.564  67.584  1.00  0.00     0.003 C 
BRANCH  22  23
ATOM     23  C   UNL     1      91.571 101.392  67.314  1.00  0.00    -0.017 C 
ATOM     24  C   UNL     1      92.891 101.628  68.051  1.00  0.00     0.007 C 
ATOM     25  C   UNL     1      91.844 101.190  65.823  1.00  0.00     0.007 C 
ENDBRANCH  22  23
ENDBRANCH  21  22
ENDBRANCH  20  21
ENDBRANCH  19  20
ENDBRANCH  18  19
ENDBRANCH   1  18
TORSDOF 12
ENDMDL
MODEL 3
REMARK VINA RESULT:    -6.114     13.430     15.119
REMARK INTER + INTRA:         -11.012
REMARK INTER:                  -9.832
REMARK INTRA:                  -1.180
REMARK UNBOUND:                -0.787
REMARK SMILES COc1cc(CNC(=O)CCCCCCCC(C)C)ccc1O
REMARK SMILES IDX 11 1 10 2 8 3 9 4 7 5 6 7 5 8 4 9 20 10 3 11 21 12 22 13
REMARK SMILES IDX 2 14 1 15 23 16 12 18 13 19 14 20 15 21 16 22 17 23 18 24
REMARK SMILES IDX 19 25
REMARK H PARENT 7 6 23 17
REMARK Flexibility Score: inf
ROOT
ATOM      1  C   UNL     1      92.658  95.423  77.198  1.00  0.00     0.010 C 
ENDROOT
BRANCH   1   2
ATOM      2  C   UNL     1      92.277  94.129  77.916  1.00  0.00     0.100 C 
BRANCH   2   3
ATOM      3  C   UNL     1      90.981  93.535  77.390  1.00  0.00     0.220 C 
ATOM      4  O   UNL     1      90.009  94.214  77.072  1.00  0.00    -0.275 OA
ATOM      5  N   UNL     1      91.044  92.151  77.328  1.00  0.00    -0.352 N 
ATOM      6  H   UNL     1      91.891  91.673  77.624  1.00  0.00     0.163 HD
BRANCH   5   7
ATOM      7  C   UNL     1      89.942  91.337  76.870  1.00  0.00     0.151 C 
BRANCH   7   8
ATOM      8  C   UNL     1      89.892  91.250  75.372  1.00  0.00    -0.025 A 
ATOM      9  C   UNL     1      88.813  91.796  74.687  1.00  0.00     0.056 A 
ATOM     10  C   UNL     1      90.926  90.625  74.686  1.00  0.00     0.009 A 
ATOM     11  C   UNL     1      88.767  91.715  73.295  1.00  0.00     0.160 A 
ATOM     12  C   UNL     1      90.879  90.543  73.293  1.00  0.00     0.050 A 
ATOM     13  C   UNL     1      89.800  91.089  72.598  1.00  0.00     0.157 A 
BRANCH  11  14
ATOM     14  O   UNL     1      87.708  92.251  72.627  1.00  0.00    -0.493 OA
ATOM     15  C   UNL     1      86.566  91.415  72.446  1.00  0.00     0.278 C 
ENDBRANCH  11  14
BRANCH  13  16
ATOM     16  O   UNL     1      89.767  91.004  71.239  1.00  0.00    -0.504 OA
ATOM     17  H   UNL     1      88.843  90.910  70.950  1.00  0.00     0.293 HD
ENDBRANCH  13  16
ENDBRANCH   7   8
ENDBRANCH   5   7
ENDBRANCH   2   3
ENDBRANCH   1   2
BRANCH   1  18
ATOM     18  C   UNL     1      93.402  95.192  75.880  1.00  0.00     0.001 C 
BRANCH  18  19
ATOM     19  C   UNL     1      94.530  96.182  75.572  1.00  0.00     0.000 C 
BRANCH  19  20
ATOM     20  C   UNL     1      95.882  95.757  76.150  1.00  0.00     0.000 C 
BRANCH  20  21
ATOM     21  C   UNL     1      96.224  96.448  77.475  1.00  0.00     0.000 C 
BRANCH  21  22
ATOM     22  C   UNL     1      97.327  95.736  78.264  1.00  0.00     0.003 C 
BRANCH  22  23
ATOM     23  C   UNL     1      96.803  94.600  79.164  1.00  0.00    -0.017 C 
ATOM     24  C   UNL     1      95.423  94.969  79.713  1.00  0.00     0.007 C 
ATOM     25  C   UNL     1      97.750  94.287  80.324  1.00  0.00     0.007 C 
ENDBRANCH  22  23
ENDBRANCH  21  22
ENDBRANCH  20  21
ENDBRANCH  19  20
ENDBRANCH  18  19
ENDBRANCH   1  18
TORSDOF 12
ENDMDL
MODEL 4
REMARK VINA RESULT:    -6.100      6.536     11.477
REMARK INTER + INTRA:         -10.988
REMARK INTER:                  -9.882
REMARK INTRA:                  -1.106
REMARK UNBOUND:                -0.787
REMARK SMILES COc1cc(CNC(=O)CCCCCCCC(C)C)ccc1O
REMARK SMILES IDX 11 1 10 2 8 3 9 4 7 5 6 7 5 8 4 9 20 10 3 11 21 12 22 13
REMARK SMILES IDX 2 14 1 15 23 16 12 18 13 19 14 20 15 21 16 22 17 23 18 24
REMARK SMILES IDX 19 25
REMARK H PARENT 7 6 23 17
REMARK Flexibility Score: inf
ROOT
ATOM      1  C   UNL     1      96.385  81.858  77.732  1.00  0.00     0.010 C 
ENDROOT
BRANCH   1   2
ATOM      2  C   UNL     1      95.706  83.117  77.198  1.00  0.00     0.100 C 
BRANCH   2   3
ATOM      3  C   UNL     1      96.216  83.510  75.821  1.00  0.00     0.220 C 
ATOM      4  O   UNL     1      95.614  84.275  75.073  1.00  0.00    -0.275 OA
ATOM      5  N   UNL     1      97.423  82.892  75.530  1.00  0.00    -0.352 N 
ATOM      6  H   UNL     1      97.842  82.263  76.209  1.00  0.00     0.163 HD
BRANCH   5   7
ATOM      7  C   UNL     1      98.121  83.088  74.280  1.00  0.00     0.151 C 
BRANCH   7   8
ATOM      8  C   UNL     1      98.019  81.886  73.386  1.00  0.00    -0.025 A 
ATOM      9  C   UNL     1      99.136  81.459  72.678  1.00  0.00     0.056 A 
ATOM     10  C   UNL     1      96.808  81.213  73.276  1.00  0.00     0.009 A 
ATOM     11  C   UNL     1      99.041  80.342  71.847  1.00  0.00     0.160 A 
ATOM     12  C   UNL     1      96.713  80.096  72.444  1.00  0.00     0.050 A 
ATOM     13  C   UNL     1      97.829  79.661  71.730  1.00  0.00     0.157 A 
BRANCH  11  14
ATOM     14  O   UNL     1     100.138  79.927  71.154  1.00  0.00    -0.493 OA
ATOM     15  C   UNL     1     101.188  79.321  71.906  1.00  0.00     0.278 C 
ENDBRANCH  11  14
BRANCH  13  16
ATOM     16  O   UNL     1      97.724  78.569  70.923  1.00  0.00    -0.504 OA
ATOM     17  H   UNL     1      98.177  77.819  71.345  1.00  0.00     0.293 HD
ENDBRANCH  13  16
ENDBRANCH   7   8
ENDBRANCH   5   7
ENDBRANCH   2   3
ENDBRANCH   1   2
BRANCH   1  18
ATOM     18  C   UNL     1      97.047  82.054  79.098  1.00  0.00     0.001 C 
BRANCH  18  19
ATOM     19  C   UNL     1      98.394  81.348  79.291  1.00  0.00     0.000 C 
BRANCH  19  20
ATOM     20  C   UNL     1      98.455  80.498  80.563  1.00  0.00     0.000 C 
BRANCH  20  21
ATOM     21  C   UNL     1      97.075  80.157  81.136  1.00  0.00     0.000 C 
BRANCH  21  22
ATOM     22  C   UNL     1      96.892  80.608  82.589  1.00  0.00     0.003 C 
BRANCH  22  23
ATOM     23  C   UNL     1      95.924  81.797  82.746  1.00  0.00    -0.017 C 
ATOM     24  C   UNL     1      96.710  83.111  82.726  1.00  0.00     0.007 C 
ATOM     25  C   UNL     1      95.096  81.713  84.029  1.00  0.00     0.007 C 
ENDBRANCH  22  23
ENDBRANCH  21  22
ENDBRANCH  20  21
ENDBRANCH  19  20
ENDBRANCH  18  19
ENDBRANCH   1  18
TORSDOF 12
ENDMDL
MODEL 5
REMARK VINA RESULT:    -5.800     12.942     16.164
REMARK INTER + INTRA:         -10.486
REMARK INTER:                  -9.709
REMARK INTRA:                  -0.776
REMARK UNBOUND:                -0.787
REMARK SMILES COc1cc(CNC(=O)CCCCCCCC(C)C)ccc1O
REMARK SMILES IDX 11 1 10 2 8 3 9 4 7 5 6 7 5 8 4 9 20 10 3 11 21 12 22 13
REMARK SMILES IDX 2 14 1 15 23 16 12 18 13 19 14 20 15 21 16 22 17 23 18 24
REMARK SMILES IDX 19 25
REMARK H PARENT 7 6 23 17
REMARK Flexibility Score: inf
ROOT
ATOM      1  C   UNL     1      91.982  95.739  77.437  1.00  0.00     0.010 C 
ENDROOT
BRANCH   1   2
ATOM      2  C   UNL     1      93.410  95.273  77.163  1.00  0.00     0.100 C 
BRANCH   2   3
ATOM      3  C   UNL     1      93.977  94.444  78.304  1.00  0.00     0.220 C 
ATOM      4  O   UNL     1      93.504  93.367  78.655  1.00  0.00    -0.275 OA
ATOM      5  N   UNL     1      95.074  95.062  78.886  1.00  0.00    -0.352 N 
ATOM      6  H   UNL     1      95.389  95.962  78.534  1.00  0.00     0.163 HD
BRANCH   5   7
ATOM      7  C   UNL     1      95.797  94.489  79.998  1.00  0.00     0.151 C 
BRANCH   7   8
ATOM      8  C   UNL     1      97.223  94.957  80.042  1.00  0.00    -0.025 A 
ATOM      9  C   UNL     1      97.811  95.257  81.265  1.00  0.00     0.056 A 
ATOM     10  C   UNL     1      97.940  95.085  78.859  1.00  0.00     0.009 A 
ATOM     11  C   UNL     1      99.135  95.691  81.306  1.00  0.00     0.160 A 
ATOM     12  C   UNL     1      99.265  95.520  78.900  1.00  0.00     0.050 A 
ATOM     13  C   UNL     1      99.863  95.824  80.123  1.00  0.00     0.157 A 
BRANCH  11  14
ATOM     14  O   UNL     1      99.708  95.985  82.506  1.00  0.00    -0.493 OA
ATOM     15  C   UNL     1      99.857  94.911  83.433  1.00  0.00     0.278 C 
ENDBRANCH  11  14
BRANCH  13  16
ATOM     16  O   UNL     1     101.157  96.247  80.149  1.00  0.00    -0.504 OA
ATOM     17  H   UNL     1     101.685  95.688  79.553  1.00  0.00     0.293 HD
ENDBRANCH  13  16
ENDBRANCH   7   8
ENDBRANCH   5   7
ENDBRANCH   2   3
ENDBRANCH   1   2
BRANCH   1  18
ATOM     18  C   UNL     1      90.949  95.136  76.480  1.00  0.00     0.001 C 
BRANCH  18  19
ATOM     19  C   UNL     1      91.034  93.619  76.282  1.00  0.00     0.000 C 
BRANCH  19  20
ATOM     20  C   UNL     1      90.245  92.827  77.328  1.00  0.00     0.000 C 
BRANCH  20  21
ATOM     21  C   UNL     1      90.004  91.366  76.932  1.00  0.00     0.000 C 
BRANCH  21  22
ATOM     22  C   UNL     1      89.517  91.201  75.489  1.00  0.00     0.003 C 
BRANCH  22  23
ATOM     23  C   UNL     1      90.599  90.661  74.533  1.00  0.00    -0.017 C 
ATOM     24  C   UNL     1      90.185  90.922  73.083  1.00  0.00     0.007 C 
ATOM     25  C   UNL     1      90.865  89.169  74.731  1.00  0.00     0.007 C 
ENDBRANCH  22  23
ENDBRANCH  21  22
ENDBRANCH  20  21
ENDBRANCH  19  20
ENDBRANCH  18  19
ENDBRANCH   1  18
TORSDOF 12
ENDMDL
MODEL 6
REMARK VINA RESULT:    -5.767     22.250     25.195
REMARK INTER + INTRA:         -10.431
REMARK INTER:                  -8.680
REMARK INTRA:                  -1.750
REMARK UNBOUND:                -0.787
REMARK SMILES COc1cc(CNC(=O)CCCCCCCC(C)C)ccc1O
REMARK SMILES IDX 11 1 10 2 8 3 9 4 7 5 6 7 5 8 4 9 20 10 3 11 21 12 22 13
REMARK SMILES IDX 2 14 1 15 23 16 12 18 13 19 14 20 15 21 16 22 17 23 18 24
REMARK SMILES IDX 19 25
REMARK H PARENT 7 6 23 17
REMARK Flexibility Score: inf
ROOT
ATOM      1  C   UNL     1      88.036  99.274  66.300  1.00  0.00     0.010 C 
ENDROOT
BRANCH   1   2
ATOM      2  C   UNL     1      89.502  98.955  66.584  1.00  0.00     0.100 C 
BRANCH   2   3
ATOM      3  C   UNL     1      89.695  98.260  67.921  1.00  0.00     0.220 C 
ATOM      4  O   UNL     1      89.592  97.045  68.071  1.00  0.00    -0.275 OA
ATOM      5  N   UNL     1      89.988  99.166  68.929  1.00  0.00    -0.352 N 
ATOM      6  H   UNL     1      90.042 100.158  68.712  1.00  0.00     0.163 HD
BRANCH   5   7
ATOM      7  C   UNL     1      90.210  98.769  70.300  1.00  0.00     0.151 C 
BRANCH   7   8
ATOM      8  C   UNL     1      91.003  99.792  71.060  1.00  0.00    -0.025 A 
ATOM      9  C   UNL     1      90.514 101.087  71.185  1.00  0.00     0.056 A 
ATOM     10  C   UNL     1      92.219  99.434  71.630  1.00  0.00     0.009 A 
ATOM     11  C   UNL     1      91.252 102.037  71.891  1.00  0.00     0.160 A 
ATOM     12  C   UNL     1      92.957 100.385  72.335  1.00  0.00     0.050 A 
ATOM     13  C   UNL     1      92.474 101.687  72.466  1.00  0.00     0.157 A 
BRANCH  11  14
ATOM     14  O   UNL     1      90.770 103.306  72.012  1.00  0.00    -0.493 OA
ATOM     15  C   UNL     1      90.708 104.091  70.822  1.00  0.00     0.278 C 
ENDBRANCH  11  14
BRANCH  13  16
ATOM     16  O   UNL     1      93.203 102.606  73.158  1.00  0.00    -0.504 OA
ATOM     17  H   UNL     1      93.972 102.868  72.623  1.00  0.00     0.293 HD
ENDBRANCH  13  16
ENDBRANCH   7   8
ENDBRANCH   5   7
ENDBRANCH   2   3
ENDBRANCH   1   2
BRANCH   1  18
ATOM     18  C   UNL     1      87.500 100.453  67.117  1.00  0.00     0.001 C 
BRANCH  18  19
ATOM     19  C   UNL     1      87.179 101.722  66.321  1.00  0.00     0.000 C 
BRANCH  19  20
ATOM     20  C   UNL     1      88.307 102.758  66.354  1.00  0.00     0.000 C 
BRANCH  20  21
ATOM     21  C   UNL     1      89.165 102.685  67.622  1.00  0.00     0.000 C 
BRANCH  21  22
ATOM     22  C   UNL     1      90.643 102.400  67.338  1.00  0.00     0.003 C 
BRANCH  22  23
ATOM     23  C   UNL     1      91.025 102.561  65.854  1.00  0.00    -0.017 C 
ATOM     24  C   UNL     1      91.907 101.388  65.417  1.00  0.00     0.007 C 
ATOM     25  C   UNL     1      91.748 103.879  65.574  1.00  0.00     0.007 C 
ENDBRANCH  22  23
ENDBRANCH  21  22
ENDBRANCH  20  21
ENDBRANCH  19  20
ENDBRANCH  18  19
ENDBRANCH   1  18
TORSDOF 12
ENDMDL
MODEL 7
REMARK VINA RESULT:    -5.734     13.528     16.660
REMARK INTER + INTRA:         -10.375
REMARK INTER:                  -9.403
REMARK INTRA:                  -0.972
REMARK UNBOUND:                -0.787
REMARK SMILES COc1cc(CNC(=O)CCCCCCCC(C)C)ccc1O
REMARK SMILES IDX 11 1 10 2 8 3 9 4 7 5 6 7 5 8 4 9 20 10 3 11 21 12 22 13
REMARK SMILES IDX 2 14 1 15 23 16 12 18 13 19 14 20 15 21 16 22 17 23 18 24
REMARK SMILES IDX 19 25
REMARK H PARENT 7 6 23 17
REMARK Flexibility Score: inf
ROOT
ATOM      1  C   UNL     1      91.578  94.526  77.238  1.00  0.00     0.010 C 
ENDROOT
BRANCH   1   2
ATOM      2  C   UNL     1      92.000  93.322  78.079  1.00  0.00     0.100 C 
BRANCH   2   3
ATOM      3  C   UNL     1      93.510  93.163  78.144  1.00  0.00     0.220 C 
ATOM      4  O   UNL     1      94.227  93.121  77.148  1.00  0.00    -0.275 OA
ATOM      5  N   UNL     1      93.956  93.066  79.454  1.00  0.00    -0.352 N 
ATOM      6  H   UNL     1      93.285  93.100  80.216  1.00  0.00     0.163 HD
BRANCH   5   7
ATOM      7  C   UNL     1      95.350  92.901  79.796  1.00  0.00     0.151 C 
BRANCH   7   8
ATOM      8  C   UNL     1      96.092  94.205  79.776  1.00  0.00    -0.025 A 
ATOM      9  C   UNL     1      95.824  95.164  80.745  1.00  0.00     0.056 A 
ATOM     10  C   UNL     1      97.039  94.441  78.787  1.00  0.00     0.009 A 
ATOM     11  C   UNL     1      96.513  96.377  80.726  1.00  0.00     0.160 A 
ATOM     12  C   UNL     1      97.728  95.655  78.768  1.00  0.00     0.050 A 
ATOM     13  C   UNL     1      97.465  96.622  79.737  1.00  0.00     0.157 A 
BRANCH  11  14
ATOM     14  O   UNL     1      96.247  97.314  81.678  1.00  0.00    -0.493 OA
ATOM     15  C   UNL     1      96.834  97.117  82.963  1.00  0.00     0.278 C 
ENDBRANCH  11  14
BRANCH  13  16
ATOM     16  O   UNL     1      98.145  97.802  79.708  1.00  0.00    -0.504 OA
ATOM     17  H   UNL     1      98.181  98.169  80.608  1.00  0.00     0.293 HD
ENDBRANCH  13  16
ENDBRANCH   7   8
ENDBRANCH   5   7
ENDBRANCH   2   3
ENDBRANCH   1   2
BRANCH   1  18
ATOM     18  C   UNL     1      92.626  95.640  77.198  1.00  0.00     0.001 C 
BRANCH  18  19
ATOM     19  C   UNL     1      92.951  96.198  75.808  1.00  0.00     0.000 C 
BRANCH  19  20
ATOM     20  C   UNL     1      94.435  96.098  75.448  1.00  0.00     0.000 C 
BRANCH  20  21
ATOM     21  C   UNL     1      94.863  97.077  74.348  1.00  0.00     0.000 C 
BRANCH  21  22
ATOM     22  C   UNL     1      96.231  96.748  73.742  1.00  0.00     0.003 C 
BRANCH  22  23
ATOM     23  C   UNL     1      97.347  97.714  74.187  1.00  0.00    -0.017 C 
ATOM     24  C   UNL     1      98.445  97.761  73.121  1.00  0.00     0.007 C 
ATOM     25  C   UNL     1      97.956  97.325  75.535  1.00  0.00     0.007 C 
ENDBRANCH  22  23
ENDBRANCH  21  22
ENDBRANCH  20  21
ENDBRANCH  19  20
ENDBRANCH  18  19
ENDBRANCH   1  18
TORSDOF 12
ENDMDL
MODEL 8
REMARK VINA RESULT:    -5.708      6.299     12.004
REMARK INTER + INTRA:         -10.333
REMARK INTER:                  -9.463
REMARK INTRA:                  -0.870
REMARK UNBOUND:                -0.787
REMARK SMILES COc1cc(CNC(=O)CCCCCCCC(C)C)ccc1O
REMARK SMILES IDX 11 1 10 2 8 3 9 4 7 5 6 7 5 8 4 9 20 10 3 11 21 12 22 13
REMARK SMILES IDX 2 14 1 15 23 16 12 18 13 19 14 20 15 21 16 22 17 23 18 24
REMARK SMILES IDX 19 25
REMARK H PARENT 7 6 23 17
REMARK Flexibility Score: inf
ROOT
ATOM      1  C   UNL     1      97.134  81.467  77.878  1.00  0.00     0.010 C 
ENDROOT
BRANCH   1   2
ATOM      2  C   UNL     1      96.075  82.525  77.573  1.00  0.00     0.100 C 
BRANCH   2   3
ATOM      3  C   UNL     1      96.184  83.060  76.155  1.00  0.00     0.220 C 
ATOM      4  O   UNL     1      95.617  84.080  75.774  1.00  0.00    -0.275 OA
ATOM      5  N   UNL     1      96.987  82.250  75.365  1.00  0.00    -0.352 N 
ATOM      6  H   UNL     1      97.407  81.416  75.765  1.00  0.00     0.163 HD
BRANCH   5   7
ATOM      7  C   UNL     1      97.249  82.528  73.972  1.00  0.00     0.151 C 
BRANCH   7   8
ATOM      8  C   UNL     1      98.687  82.886  73.732  1.00  0.00    -0.025 A 
ATOM      9  C   UNL     1      99.689  82.001  74.114  1.00  0.00     0.056 A 
ATOM     10  C   UNL     1      99.003  84.098  73.131  1.00  0.00     0.009 A 
ATOM     11  C   UNL     1     101.025  82.333  73.891  1.00  0.00     0.160 A 
ATOM     12  C   UNL     1     100.340  84.431  72.909  1.00  0.00     0.050 A 
ATOM     13  C   UNL     1     101.351  83.549  73.289  1.00  0.00     0.157 A 
BRANCH  11  14
ATOM     14  O   UNL     1     102.004  81.464  74.267  1.00  0.00    -0.493 OA
ATOM     15  C   UNL     1     102.214  80.325  73.433  1.00  0.00     0.278 C 
ENDBRANCH  11  14
BRANCH  13  16
ATOM     16  O   UNL     1     102.652  83.884  73.065  1.00  0.00    -0.504 OA
ATOM     17  H   UNL     1     103.186  83.605  73.829  1.00  0.00     0.293 HD
ENDBRANCH  13  16
ENDBRANCH   7   8
ENDBRANCH   5   7
ENDBRANCH   2   3
ENDBRANCH   1   2
BRANCH   1  18
ATOM     18  C   UNL     1      97.886  81.716  79.188  1.00  0.00     0.001 C 
BRANCH  18  19
ATOM     19  C   UNL     1      97.136  81.332  80.468  1.00  0.00     0.000 C 
BRANCH  19  20
ATOM     20  C   UNL     1      96.778  82.536  81.344  1.00  0.00     0.000 C 
BRANCH  20  21
ATOM     21  C   UNL     1      95.917  82.173  82.558  1.00  0.00     0.000 C 
BRANCH  21  22
ATOM     22  C   UNL     1      96.460  80.980  83.352  1.00  0.00     0.003 C 
BRANCH  22  23
ATOM     23  C   UNL     1      95.499  80.485  84.451  1.00  0.00    -0.017 C 
ATOM     24  C   UNL     1      95.150  79.014  84.208  1.00  0.00     0.007 C 
ATOM     25  C   UNL     1      94.216  81.312  84.524  1.00  0.00     0.007 C 
ENDBRANCH  22  23
ENDBRANCH  21  22
ENDBRANCH  20  21
ENDBRANCH  19  20
ENDBRANCH  18  19
ENDBRANCH   1  18
TORSDOF 12
ENDMDL
MODEL 9
REMARK VINA RESULT:    -5.683      7.869     11.243
REMARK INTER + INTRA:         -10.290
REMARK INTER:                  -8.278
REMARK INTRA:                  -2.012
REMARK UNBOUND:                -0.787
REMARK SMILES COc1cc(CNC(=O)CCCCCCCC(C)C)ccc1O
REMARK SMILES IDX 11 1 10 2 8 3 9 4 7 5 6 7 5 8 4 9 20 10 3 11 21 12 22 13
REMARK SMILES IDX 2 14 1 15 23 16 12 18 13 19 14 20 15 21 16 22 17 23 18 24
REMARK SMILES IDX 19 25
REMARK H PARENT 7 6 23 17
REMARK Flexibility Score: inf
ROOT
ATOM      1  C   UNL     1      96.990  81.482  77.595  1.00  0.00     0.010 C 
ENDROOT
BRANCH   1   2
ATOM      2  C   UNL     1      96.007  82.604  77.268  1.00  0.00     0.100 C 
BRANCH   2   3
ATOM      3  C   UNL     1      96.307  83.265  75.933  1.00  0.00     0.220 C 
ATOM      4  O   UNL     1      95.509  83.992  75.347  1.00  0.00    -0.275 OA
ATOM      5  N   UNL     1      97.573  82.934  75.473  1.00  0.00    -0.352 N 
ATOM      6  H   UNL     1      98.160  82.313  76.023  1.00  0.00     0.163 HD
BRANCH   5   7
ATOM      7  C   UNL     1      98.104  83.423  74.222  1.00  0.00     0.151 C 
BRANCH   7   8
ATOM      8  C   UNL     1      98.444  82.305  73.281  1.00  0.00    -0.025 A 
ATOM      9  C   UNL     1      97.569  81.234  73.140  1.00  0.00     0.056 A 
ATOM     10  C   UNL     1      99.631  82.350  72.560  1.00  0.00     0.009 A 
ATOM     11  C   UNL     1      97.885  80.195  72.266  1.00  0.00     0.160 A 
ATOM     12  C   UNL     1      99.947  81.309  71.685  1.00  0.00     0.050 A 
ATOM     13  C   UNL     1      99.074  80.232  71.538  1.00  0.00     0.157 A 
BRANCH  11  14
ATOM     14  O   UNL     1      97.024  79.147  72.131  1.00  0.00    -0.493 OA
ATOM     15  C   UNL     1      96.961  78.218  73.213  1.00  0.00     0.278 C 
ENDBRANCH  11  14
BRANCH  13  16
ATOM     16  O   UNL     1      99.394  79.223  70.681  1.00  0.00    -0.504 OA
ATOM     17  H   UNL     1     100.015  79.560  70.012  1.00  0.00     0.293 HD
ENDBRANCH  13  16
ENDBRANCH   7   8
ENDBRANCH   5   7
ENDBRANCH   2   3
ENDBRANCH   1   2
BRANCH   1  18
ATOM     18  C   UNL     1      97.712  81.674  78.932  1.00  0.00     0.001 C 
BRANCH  18  19
ATOM     19  C   UNL     1      97.804  80.429  79.821  1.00  0.00     0.000 C 
BRANCH  19  20
ATOM     20  C   UNL     1      97.668  79.118  79.043  1.00  0.00     0.000 C 
BRANCH  20  21
ATOM     21  C   UNL     1      99.011  78.441  78.749  1.00  0.00     0.000 C 
BRANCH  21  22
ATOM     22  C   UNL     1      99.364  78.417  77.258  1.00  0.00     0.003 C 
BRANCH  22  23
ATOM     23  C   UNL     1     100.606  79.259  76.907  1.00  0.00    -0.017 C 
ATOM     24  C   UNL     1     101.290  79.733  78.192  1.00  0.00     0.007 C 
ATOM     25  C   UNL     1     100.267  80.466  76.031  1.00  0.00     0.007 C 
ENDBRANCH  22  23
ENDBRANCH  21  22
ENDBRANCH  20  21
ENDBRANCH  19  20
ENDBRANCH  18  19
ENDBRANCH   1  18
TORSDOF 12
ENDMDL
MODEL 10
REMARK VINA RESULT:    -5.554     17.197     20.195
REMARK INTER + INTRA:         -10.075
REMARK INTER:                  -8.693
REMARK INTRA:                  -1.382
REMARK UNBOUND:                -0.787
REMARK SMILES COc1cc(CNC(=O)CCCCCCCC(C)C)ccc1O
REMARK SMILES IDX 11 1 10 2 8 3 9 4 7 5 6 7 5 8 4 9 20 10 3 11 21 12 22 13
REMARK SMILES IDX 2 14 1 15 23 16 12 18 13 19 14 20 15 21 16 22 17 23 18 24
REMARK SMILES IDX 19 25
REMARK H PARENT 7 6 23 17
REMARK Flexibility Score: inf
ROOT
ATOM      1  C   UNL     1      80.822  65.717  76.439  1.00  0.00     0.010 C 
ENDROOT
BRANCH   1   2
ATOM      2  C   UNL     1      81.895  64.631  76.451  1.00  0.00     0.100 C 
BRANCH   2   3
ATOM      3  C   UNL     1      83.302  65.207  76.425  1.00  0.00     0.220 C 
ATOM      4  O   UNL     1      84.311  64.515  76.326  1.00  0.00    -0.275 OA
ATOM      5  N   UNL     1      83.288  66.589  76.535  1.00  0.00    -0.352 N 
ATOM      6  H   UNL     1      82.401  67.077  76.624  1.00  0.00     0.163 HD
BRANCH   5   7
ATOM      7  C   UNL     1      84.493  67.386  76.545  1.00  0.00     0.151 C 
BRANCH   7   8
ATOM      8  C   UNL     1      84.615  68.236  75.313  1.00  0.00    -0.025 A 
ATOM      9  C   UNL     1      85.493  69.313  75.304  1.00  0.00     0.056 A 
ATOM     10  C   UNL     1      83.847  67.936  74.194  1.00  0.00     0.009 A 
ATOM     11  C   UNL     1      85.605  70.102  74.160  1.00  0.00     0.160 A 
ATOM     12  C   UNL     1      83.959  68.727  73.049  1.00  0.00     0.050 A 
ATOM     13  C   UNL     1      84.838  69.809  73.032  1.00  0.00     0.157 A 
BRANCH  11  14
ATOM     14  O   UNL     1      86.467  71.157  74.155  1.00  0.00    -0.493 OA
ATOM     15  C   UNL     1      85.990  72.385  74.705  1.00  0.00     0.278 C 
ENDBRANCH  11  14
BRANCH  13  16
ATOM     16  O   UNL     1      84.939  70.572  71.908  1.00  0.00    -0.504 OA
ATOM     17  H   UNL     1      85.601  70.176  71.315  1.00  0.00     0.293 HD
ENDBRANCH  13  16
ENDBRANCH   7   8
ENDBRANCH   5   7
ENDBRANCH   2   3
ENDBRANCH   1   2
BRANCH   1  18
ATOM     18  C   UNL     1      79.970  65.718  75.167  1.00  0.00     0.001 C 
BRANCH  18  19
ATOM     19  C   UNL     1      80.572  66.451  73.964  1.00  0.00     0.000 C 
BRANCH  19  20
ATOM     20  C   UNL     1      81.267  65.515  72.971  1.00  0.00     0.000 C 
BRANCH  20  21
ATOM     21  C   UNL     1      80.888  65.784  71.511  1.00  0.00     0.000 C 
BRANCH  21  22
ATOM     22  C   UNL     1      81.943  65.299  70.511  1.00  0.00     0.003 C 
BRANCH  22  23
ATOM     23  C   UNL     1      81.575  65.587  69.042  1.00  0.00    -0.017 C 
ATOM     24  C   UNL     1      81.712  67.085  68.759  1.00  0.00     0.007 C 
ATOM     25  C   UNL     1      80.160  65.125  68.691  1.00  0.00     0.007 C 
ENDBRANCH  22  23
ENDBRANCH  21  22
ENDBRANCH  20  21
ENDBRANCH  19  20
ENDBRANCH  18  19
ENDBRANCH   1  18
TORSDOF 12
ENDMDL
