MODEL 1
REMARK VINA RESULT:    -5.992      0.000      0.000
REMARK INTER + INTRA:         -10.147
REMARK INTER:                  -9.320
REMARK INTRA:                  -0.827
REMARK UNBOUND:                -0.827
REMARK SMILES COc1cc(CNC(=O)CCCC/C=C/C(C)C)ccc1O
REMARK SMILES IDX 10 1 8 2 7 3 9 5 6 6 5 7 3 8 21 9 4 10 20 11 19 12 2 13 1 14
REMARK SMILES IDX 22 15 11 17 12 18 13 19 14 20 15 21 16 22 17 23 18 24
REMARK H PARENT 7 4 22 16
REMARK Flexibility Score: inf
ROOT
ATOM      1  C   UNL     1      99.333  81.055  84.222  1.00  0.00     0.100 C 
ENDROOT
BRANCH   1   2
ATOM      2  C   UNL     1     100.186  81.423  83.076  1.00  0.00     0.220 C 
ATOM      3  N   UNL     1      99.628  81.818  81.897  1.00  0.00    -0.352 N 
ATOM      4  H   UNL     1      98.617  81.811  81.881  1.00  0.00     0.163 HD
ATOM      5  O   UNL     1     101.431  81.382  83.227  1.00  0.00    -0.275 OA
BRANCH   3   6
ATOM      6  C   UNL     1     100.363  82.224  80.742  1.00  0.00     0.151 C 
BRANCH   6   7
ATOM      7  C   UNL     1      99.461  82.723  79.668  1.00  0.00    -0.025 A 
ATOM      8  C   UNL     1      99.062  83.243  77.295  1.00  0.00     0.160 A 
ATOM      9  C   UNL     1      97.749  83.653  77.605  1.00  0.00     0.157 A 
ATOM     10  C   UNL     1      99.906  82.784  78.328  1.00  0.00     0.056 A 
ATOM     11  C   UNL     1      97.298  83.617  78.939  1.00  0.00     0.050 A 
ATOM     12  C   UNL     1      98.144  83.146  79.963  1.00  0.00     0.009 A 
BRANCH   8  13
ATOM     13  O   UNL     1      99.527  83.338  76.008  1.00  0.00    -0.493 OA
ATOM     14  C   UNL     1     100.577  84.307  75.834  1.00  0.00     0.278 C 
ENDBRANCH   8  13
BRANCH   9  15
ATOM     15  O   UNL     1      96.907  84.087  76.632  1.00  0.00    -0.504 OA
ATOM     16  H   UNL     1      97.169  83.709  75.789  1.00  0.00     0.293 HD
ENDBRANCH   9  15
ENDBRANCH   6   7
ENDBRANCH   3   6
ENDBRANCH   1   2
BRANCH   1  17
ATOM     17  C   UNL     1      97.869  81.531  84.023  1.00  0.00     0.010 C 
BRANCH  17  18
ATOM     18  C   UNL     1      97.462  82.662  85.008  1.00  0.00     0.005 C 
BRANCH  18  19
ATOM     19  C   UNL     1      97.344  84.042  84.306  1.00  0.00     0.027 C 
BRANCH  19  20
ATOM     20  C   UNL     1      96.505  84.967  85.054  1.00  0.00    -0.031 C 
ATOM     21  C   UNL     1      95.900  84.667  86.218  1.00  0.00    -0.028 C 
BRANCH  21  22
ATOM     22  C   UNL     1      95.077  85.619  86.963  1.00  0.00     0.005 C 
ATOM     23  C   UNL     1      93.865  84.935  87.653  1.00  0.00     0.012 C 
ATOM     24  C   UNL     1      95.944  86.382  87.997  1.00  0.00     0.012 C 
ENDBRANCH  21  22
ENDBRANCH  19  20
ENDBRANCH  18  19
ENDBRANCH  17  18
ENDBRANCH   1  17
TORSDOF 10
ENDMDL
MODEL 2
REMARK VINA RESULT:    -5.965      2.583      7.987
REMARK INTER + INTRA:         -10.106
REMARK INTER:                  -9.166
REMARK INTRA:                  -0.939
REMARK UNBOUND:                -0.827
REMARK SMILES COc1cc(CNC(=O)CCCC/C=C/C(C)C)ccc1O
REMARK SMILES IDX 10 1 8 2 7 3 9 5 6 6 5 7 3 8 21 9 4 10 20 11 19 12 2 13 1 14
REMARK SMILES IDX 22 15 11 17 12 18 13 19 14 20 15 21 16 22 17 23 18 24
REMARK H PARENT 7 4 22 16
REMARK Flexibility Score: inf
ROOT
ATOM      1  C   UNL     1     101.048  81.737  81.119  1.00  0.00     0.100 C 
ENDROOT
BRANCH   1   2
ATOM      2  C   UNL     1      99.717  81.735  81.758  1.00  0.00     0.220 C 
ATOM      3  N   UNL     1      99.134  82.905  82.143  1.00  0.00    -0.352 N 
ATOM      4  H   UNL     1      99.689  83.733  81.978  1.00  0.00     0.163 HD
ATOM      5  O   UNL     1      99.135  80.634  81.911  1.00  0.00    -0.275 OA
BRANCH   3   6
ATOM      6  C   UNL     1      97.840  83.014  82.738  1.00  0.00     0.151 C 
BRANCH   6   7
ATOM      7  C   UNL     1      97.923  83.507  84.140  1.00  0.00    -0.025 A 
ATOM      8  C   UNL     1      97.184  85.069  85.894  1.00  0.00     0.160 A 
ATOM      9  C   UNL     1      98.054  84.448  86.814  1.00  0.00     0.157 A 
ATOM     10  C   UNL     1      97.129  84.595  84.566  1.00  0.00     0.056 A 
ATOM     11  C   UNL     1      98.866  83.375  86.398  1.00  0.00     0.050 A 
ATOM     12  C   UNL     1      98.795  82.901  85.074  1.00  0.00     0.009 A 
BRANCH   8  13
ATOM     13  O   UNL     1      96.440  86.156  86.276  1.00  0.00    -0.493 OA
ATOM     14  C   UNL     1      95.111  85.830  86.723  1.00  0.00     0.278 C 
ENDBRANCH   8  13
BRANCH   9  15
ATOM     15  O   UNL     1      98.122  84.871  88.103  1.00  0.00    -0.504 OA
ATOM     16  H   UNL     1      97.721  84.215  88.677  1.00  0.00     0.293 HD
ENDBRANCH   9  15
ENDBRANCH   6   7
ENDBRANCH   3   6
ENDBRANCH   1   2
BRANCH   1  17
ATOM     17  C   UNL     1     100.977  81.252  79.646  1.00  0.00     0.010 C 
BRANCH  17  18
ATOM     18  C   UNL     1     102.059  81.906  78.741  1.00  0.00     0.005 C 
BRANCH  18  19
ATOM     19  C   UNL     1     101.442  82.652  77.527  1.00  0.00     0.027 C 
BRANCH  19  20
ATOM     20  C   UNL     1     100.125  83.193  77.829  1.00  0.00    -0.031 C 
ATOM     21  C   UNL     1      99.011  82.904  77.132  1.00  0.00    -0.028 C 
BRANCH  21  22
ATOM     22  C   UNL     1      97.693  83.445  77.465  1.00  0.00     0.005 C 
ATOM     23  C   UNL     1      97.398  83.379  78.989  1.00  0.00     0.012 C 
ATOM     24  C   UNL     1      97.561  84.897  76.939  1.00  0.00     0.012 C 
ENDBRANCH  21  22
ENDBRANCH  19  20
ENDBRANCH  18  19
ENDBRANCH  17  18
ENDBRANCH   1  17
TORSDOF 10
ENDMDL
MODEL 3
REMARK VINA RESULT:    -5.920      5.121      9.513
REMARK INTER + INTRA:         -10.036
REMARK INTER:                  -9.470
REMARK INTRA:                  -0.565
REMARK UNBOUND:                -0.827
REMARK SMILES COc1cc(CNC(=O)CCCC/C=C/C(C)C)ccc1O
REMARK SMILES IDX 10 1 8 2 7 3 9 5 6 6 5 7 3 8 21 9 4 10 20 11 19 12 2 13 1 14
REMARK SMILES IDX 22 15 11 17 12 18 13 19 14 20 15 21 16 22 17 23 18 24
REMARK H PARENT 7 4 22 16
REMARK Flexibility Score: inf
ROOT
ATOM      1  C   UNL     1      96.708  82.001  85.520  1.00  0.00     0.100 C 
ENDROOT
BRANCH   1   2
ATOM      2  C   UNL     1      95.867  82.418  86.658  1.00  0.00     0.220 C 
ATOM      3  N   UNL     1      94.583  82.825  86.457  1.00  0.00    -0.352 N 
ATOM      4  H   UNL     1      94.286  82.837  85.491  1.00  0.00     0.163 HD
ATOM      5  O   UNL     1      96.361  82.362  87.811  1.00  0.00    -0.275 OA
BRANCH   3   6
ATOM      6  C   UNL     1      93.679  83.217  87.491  1.00  0.00     0.151 C 
BRANCH   6   7
ATOM      7  C   UNL     1      92.348  82.572  87.326  1.00  0.00    -0.025 A 
ATOM      8  C   UNL     1      90.917  80.891  86.236  1.00  0.00     0.160 A 
ATOM      9  C   UNL     1      89.820  81.319  87.014  1.00  0.00     0.157 A 
ATOM     10  C   UNL     1      92.168  81.522  86.398  1.00  0.00     0.056 A 
ATOM     11  C   UNL     1      89.980  82.378  87.930  1.00  0.00     0.050 A 
ATOM     12  C   UNL     1      91.236  82.994  88.093  1.00  0.00     0.009 A 
BRANCH   8  13
ATOM     13  O   UNL     1      90.750  79.906  85.296  1.00  0.00    -0.493 OA
ATOM     14  C   UNL     1      91.471  78.694  85.583  1.00  0.00     0.278 C 
ENDBRANCH   8  13
BRANCH   9  15
ATOM     15  O   UNL     1      88.606  80.724  86.892  1.00  0.00    -0.504 OA
ATOM     16  H   UNL     1      88.234  80.927  86.030  1.00  0.00     0.293 HD
ENDBRANCH   9  15
ENDBRANCH   6   7
ENDBRANCH   3   6
ENDBRANCH   1   2
BRANCH   1  17
ATOM     17  C   UNL     1      97.605  83.163  85.015  1.00  0.00     0.010 C 
BRANCH  17  18
ATOM     18  C   UNL     1      97.423  83.453  83.498  1.00  0.00     0.005 C 
BRANCH  18  19
ATOM     19  C   UNL     1      98.458  82.697  82.624  1.00  0.00     0.027 C 
BRANCH  19  20
ATOM     20  C   UNL     1      98.538  83.240  81.276  1.00  0.00    -0.031 C 
ATOM     21  C   UNL     1      98.577  82.491  80.160  1.00  0.00    -0.028 C 
BRANCH  21  22
ATOM     22  C   UNL     1      98.638  83.060  78.813  1.00  0.00     0.005 C 
ATOM     23  C   UNL     1      98.865  81.975  77.725  1.00  0.00     0.012 C 
ATOM     24  C   UNL     1      97.353  83.878  78.519  1.00  0.00     0.012 C 
ENDBRANCH  21  22
ENDBRANCH  19  20
ENDBRANCH  18  19
ENDBRANCH  17  18
ENDBRANCH   1  17
TORSDOF 10
ENDMDL
MODEL 4
REMARK VINA RESULT:    -5.610     13.377     15.374
REMARK INTER + INTRA:          -9.553
REMARK INTER:                  -7.953
REMARK INTRA:                  -1.599
REMARK UNBOUND:                -0.827
REMARK SMILES COc1cc(CNC(=O)CCCC/C=C/C(C)C)ccc1O
REMARK SMILES IDX 10 1 8 2 7 3 9 5 6 6 5 7 3 8 21 9 4 10 20 11 19 12 2 13 1 14
REMARK SMILES IDX 22 15 11 17 12 18 13 19 14 20 15 21 16 22 17 23 18 24
REMARK H PARENT 7 4 22 16
REMARK Flexibility Score: inf
ROOT
ATOM      1  C   UNL     1      93.745  97.062  76.158  1.00  0.00     0.100 C 
ENDROOT
BRANCH   1   2
ATOM      2  C   UNL     1      95.052  97.384  76.762  1.00  0.00     0.220 C 
ATOM      3  N   UNL     1      95.303  97.084  78.068  1.00  0.00    -0.352 N 
ATOM      4  H   UNL     1      94.532  96.661  78.564  1.00  0.00     0.163 HD
ATOM      5  O   UNL     1      95.926  97.917  76.036  1.00  0.00    -0.275 OA
BRANCH   3   6
ATOM      6  C   UNL     1      96.542  97.325  78.736  1.00  0.00     0.151 C 
BRANCH   6   7
ATOM      7  C   UNL     1      96.330  97.717  80.156  1.00  0.00    -0.025 A 
ATOM      8  C   UNL     1      97.084  98.920  82.168  1.00  0.00     0.160 A 
ATOM      9  C   UNL     1      95.931  98.491  82.857  1.00  0.00     0.157 A 
ATOM     10  C   UNL     1      97.274  98.528  80.826  1.00  0.00     0.056 A 
ATOM     11  C   UNL     1      94.991  97.666  82.208  1.00  0.00     0.050 A 
ATOM     12  C   UNL     1      95.183  97.290  80.865  1.00  0.00     0.009 A 
BRANCH   8  13
ATOM     13  O   UNL     1      98.034  99.668  82.815  1.00  0.00    -0.493 OA
ATOM     14  C   UNL     1      99.386  99.238  82.572  1.00  0.00     0.278 C 
ENDBRANCH   8  13
BRANCH   9  15
ATOM     15  O   UNL     1      95.712  98.861  84.145  1.00  0.00    -0.504 OA
ATOM     16  H   UNL     1      95.923  99.792  84.252  1.00  0.00     0.293 HD
ENDBRANCH   9  15
ENDBRANCH   6   7
ENDBRANCH   3   6
ENDBRANCH   1   2
BRANCH   1  17
ATOM     17  C   UNL     1      93.266  95.639  76.555  1.00  0.00     0.010 C 
BRANCH  17  18
ATOM     18  C   UNL     1      91.808  95.621  77.093  1.00  0.00     0.005 C 
BRANCH  18  19
ATOM     19  C   UNL     1      91.678  94.827  78.421  1.00  0.00     0.027 C 
BRANCH  19  20
ATOM     20  C   UNL     1      92.886  94.077  78.730  1.00  0.00    -0.031 C 
ATOM     21  C   UNL     1      93.618  94.249  79.846  1.00  0.00    -0.028 C 
BRANCH  21  22
ATOM     22  C   UNL     1      94.819  93.470  80.146  1.00  0.00     0.005 C 
ATOM     23  C   UNL     1      95.975  93.761  79.149  1.00  0.00     0.012 C 
ATOM     24  C   UNL     1      95.272  93.724  81.607  1.00  0.00     0.012 C 
ENDBRANCH  21  22
ENDBRANCH  19  20
ENDBRANCH  18  19
ENDBRANCH  17  18
ENDBRANCH   1  17
TORSDOF 10
ENDMDL
MODEL 5
REMARK VINA RESULT:    -5.607     34.832     37.234
REMARK INTER + INTRA:          -9.548
REMARK INTER:                  -8.183
REMARK INTRA:                  -1.365
REMARK UNBOUND:                -0.827
REMARK SMILES COc1cc(CNC(=O)CCCC/C=C/C(C)C)ccc1O
REMARK SMILES IDX 10 1 8 2 7 3 9 5 6 6 5 7 3 8 21 9 4 10 20 11 19 12 2 13 1 14
REMARK SMILES IDX 22 15 11 17 12 18 13 19 14 20 15 21 16 22 17 23 18 24
REMARK H PARENT 7 4 22 16
REMARK Flexibility Score: inf
ROOT
ATOM      1  C   UNL     1      59.938  85.825  72.648  1.00  0.00     0.100 C 
ENDROOT
BRANCH   1   2
ATOM      2  C   UNL     1      60.465  84.913  73.681  1.00  0.00     0.220 C 
ATOM      3  N   UNL     1      61.186  83.812  73.328  1.00  0.00    -0.352 N 
ATOM      4  H   UNL     1      61.297  83.675  72.333  1.00  0.00     0.163 HD
ATOM      5  O   UNL     1      60.250  85.194  74.885  1.00  0.00    -0.275 OA
BRANCH   3   6
ATOM      6  C   UNL     1      61.765  82.887  74.249  1.00  0.00     0.151 C 
BRANCH   6   7
ATOM      7  C   UNL     1      63.053  83.395  74.797  1.00  0.00    -0.025 A 
ATOM      8  C   UNL     1      65.175  84.600  74.475  1.00  0.00     0.160 A 
ATOM      9  C   UNL     1      65.503  84.387  75.830  1.00  0.00     0.157 A 
ATOM     10  C   UNL     1      63.956  84.101  73.971  1.00  0.00     0.056 A 
ATOM     11  C   UNL     1      64.621  83.668  76.661  1.00  0.00     0.050 A 
ATOM     12  C   UNL     1      63.400  83.183  76.152  1.00  0.00     0.009 A 
BRANCH   8  13
ATOM     13  O   UNL     1      66.060  85.242  73.646  1.00  0.00    -0.493 OA
ATOM     14  C   UNL     1      65.720  86.615  73.376  1.00  0.00     0.278 C 
ENDBRANCH   8  13
BRANCH   9  15
ATOM     15  O   UNL     1      66.662  84.866  76.350  1.00  0.00    -0.504 OA
ATOM     16  H   UNL     1      66.466  85.458  77.079  1.00  0.00     0.293 HD
ENDBRANCH   9  15
ENDBRANCH   6   7
ENDBRANCH   3   6
ENDBRANCH   1   2
BRANCH   1  17
ATOM     17  C   UNL     1      58.695  85.226  71.935  1.00  0.00     0.010 C 
BRANCH  17  18
ATOM     18  C   UNL     1      59.007  84.718  70.500  1.00  0.00     0.005 C 
BRANCH  18  19
ATOM     19  C   UNL     1      60.392  85.201  69.990  1.00  0.00     0.027 C 
BRANCH  19  20
ATOM     20  C   UNL     1      61.269  84.091  69.653  1.00  0.00    -0.031 C 
ATOM     21  C   UNL     1      62.549  83.989  70.056  1.00  0.00    -0.028 C 
BRANCH  21  22
ATOM     22  C   UNL     1      63.408  82.854  69.721  1.00  0.00     0.005 C 
ATOM     23  C   UNL     1      63.675  81.936  70.947  1.00  0.00     0.012 C 
ATOM     24  C   UNL     1      62.795  82.045  68.549  1.00  0.00     0.012 C 
ENDBRANCH  21  22
ENDBRANCH  19  20
ENDBRANCH  18  19
ENDBRANCH  17  18
ENDBRANCH   1  17
TORSDOF 10
ENDMDL
MODEL 6
REMARK VINA RESULT:    -5.594     35.360     37.459
REMARK INTER + INTRA:          -9.528
REMARK INTER:                  -8.039
REMARK INTRA:                  -1.489
REMARK UNBOUND:                -0.827
REMARK SMILES COc1cc(CNC(=O)CCCC/C=C/C(C)C)ccc1O
REMARK SMILES IDX 10 1 8 2 7 3 9 5 6 6 5 7 3 8 21 9 4 10 20 11 19 12 2 13 1 14
REMARK SMILES IDX 22 15 11 17 12 18 13 19 14 20 15 21 16 22 17 23 18 24
REMARK H PARENT 7 4 22 16
REMARK Flexibility Score: inf
ROOT
ATOM      1  C   UNL     1      64.582  83.762  68.021  1.00  0.00     0.100 C 
ENDROOT
BRANCH   1   2
ATOM      2  C   UNL     1      64.507  82.632  68.966  1.00  0.00     0.220 C 
ATOM      3  N   UNL     1      65.103  82.712  70.189  1.00  0.00    -0.352 N 
ATOM      4  H   UNL     1      65.600  83.575  70.365  1.00  0.00     0.163 HD
ATOM      5  O   UNL     1      63.861  81.613  68.621  1.00  0.00    -0.275 OA
BRANCH   3   6
ATOM      6  C   UNL     1      65.061  81.690  71.185  1.00  0.00     0.151 C 
BRANCH   6   7
ATOM      7  C   UNL     1      64.127  82.041  72.289  1.00  0.00    -0.025 A 
ATOM      8  C   UNL     1      62.780  83.720  73.486  1.00  0.00     0.160 A 
ATOM      9  C   UNL     1      62.330  82.724  74.377  1.00  0.00     0.157 A 
ATOM     10  C   UNL     1      63.675  83.370  72.453  1.00  0.00     0.056 A 
ATOM     11  C   UNL     1      62.787  81.398  74.238  1.00  0.00     0.050 A 
ATOM     12  C   UNL     1      63.671  81.056  73.197  1.00  0.00     0.009 A 
BRANCH   8  13
ATOM     13  O   UNL     1      62.390  85.023  73.657  1.00  0.00    -0.493 OA
ATOM     14  C   UNL     1      63.401  85.867  74.238  1.00  0.00     0.278 C 
ENDBRANCH   8  13
BRANCH   9  15
ATOM     15  O   UNL     1      61.458  83.024  75.374  1.00  0.00    -0.504 OA
ATOM     16  H   UNL     1      61.657  82.490  76.147  1.00  0.00     0.293 HD
ENDBRANCH   9  15
ENDBRANCH   6   7
ENDBRANCH   3   6
ENDBRANCH   1   2
BRANCH   1  17
ATOM     17  C   UNL     1      64.312  85.118  68.726  1.00  0.00     0.010 C 
BRANCH  17  18
ATOM     18  C   UNL     1      62.831  85.286  69.167  1.00  0.00     0.005 C 
BRANCH  18  19
ATOM     19  C   UNL     1      62.663  86.357  70.279  1.00  0.00     0.027 C 
BRANCH  19  20
ATOM     20  C   UNL     1      61.271  86.534  70.663  1.00  0.00    -0.031 C 
ATOM     21  C   UNL     1      60.384  85.528  70.776  1.00  0.00    -0.028 C 
BRANCH  21  22
ATOM     22  C   UNL     1      58.993  85.727  71.184  1.00  0.00     0.005 C 
ATOM     23  C   UNL     1      58.201  84.391  71.245  1.00  0.00     0.012 C 
ATOM     24  C   UNL     1      58.934  86.468  72.544  1.00  0.00     0.012 C 
ENDBRANCH  21  22
ENDBRANCH  19  20
ENDBRANCH  18  19
ENDBRANCH  17  18
ENDBRANCH   1  17
TORSDOF 10
ENDMDL
MODEL 7
REMARK VINA RESULT:    -5.586     12.260     15.822
REMARK INTER + INTRA:          -9.516
REMARK INTER:                  -8.920
REMARK INTRA:                  -0.595
REMARK UNBOUND:                -0.827
REMARK SMILES COc1cc(CNC(=O)CCCC/C=C/C(C)C)ccc1O
REMARK SMILES IDX 10 1 8 2 7 3 9 5 6 6 5 7 3 8 21 9 4 10 20 11 19 12 2 13 1 14
REMARK SMILES IDX 22 15 11 17 12 18 13 19 14 20 15 21 16 22 17 23 18 24
REMARK H PARENT 7 4 22 16
REMARK Flexibility Score: inf
ROOT
ATOM      1  C   UNL     1      93.547  75.079  72.878  1.00  0.00     0.100 C 
ENDROOT
BRANCH   1   2
ATOM      2  C   UNL     1      92.866  76.049  73.757  1.00  0.00     0.220 C 
ATOM      3  N   UNL     1      92.015  75.621  74.731  1.00  0.00    -0.352 N 
ATOM      4  H   UNL     1      91.884  74.620  74.773  1.00  0.00     0.163 HD
ATOM      5  O   UNL     1      93.111  77.269  73.594  1.00  0.00    -0.275 OA
BRANCH   3   6
ATOM      6  C   UNL     1      91.333  76.474  75.651  1.00  0.00     0.151 C 
BRANCH   6   7
ATOM      7  C   UNL     1      91.090  75.792  76.951  1.00  0.00    -0.025 A 
ATOM      8  C   UNL     1      91.736  74.105  78.624  1.00  0.00     0.160 A 
ATOM      9  C   UNL     1      90.652  74.495  79.437  1.00  0.00     0.157 A 
ATOM     10  C   UNL     1      91.943  74.755  77.389  1.00  0.00     0.056 A 
ATOM     11  C   UNL     1      89.780  75.514  79.005  1.00  0.00     0.050 A 
ATOM     12  C   UNL     1      90.002  76.165  77.776  1.00  0.00     0.009 A 
BRANCH   8  13
ATOM     13  O   UNL     1      92.548  73.069  79.010  1.00  0.00    -0.493 OA
ATOM     14  C   UNL     1      93.943  73.278  78.723  1.00  0.00     0.278 C 
ENDBRANCH   8  13
BRANCH   9  15
ATOM     15  O   UNL     1      90.432  73.899  80.637  1.00  0.00    -0.504 OA
ATOM     16  H   UNL     1      90.897  74.381  81.325  1.00  0.00     0.293 HD
ENDBRANCH   9  15
ENDBRANCH   6   7
ENDBRANCH   3   6
ENDBRANCH   1   2
BRANCH   1  17
ATOM     17  C   UNL     1      93.839  75.681  71.477  1.00  0.00     0.010 C 
BRANCH  17  18
ATOM     18  C   UNL     1      92.595  75.675  70.545  1.00  0.00     0.005 C 
BRANCH  18  19
ATOM     19  C   UNL     1      92.858  74.917  69.215  1.00  0.00     0.027 C 
BRANCH  19  20
ATOM     20  C   UNL     1      91.703  74.141  68.790  1.00  0.00    -0.031 C 
ATOM     21  C   UNL     1      90.777  74.579  67.917  1.00  0.00    -0.028 C 
BRANCH  21  22
ATOM     22  C   UNL     1      89.634  73.773  67.489  1.00  0.00     0.005 C 
ATOM     23  C   UNL     1      89.248  72.694  68.538  1.00  0.00     0.012 C 
ATOM     24  C   UNL     1      88.425  74.688  67.165  1.00  0.00     0.012 C 
ENDBRANCH  21  22
ENDBRANCH  19  20
ENDBRANCH  18  19
ENDBRANCH  17  18
ENDBRANCH   1  17
TORSDOF 10
ENDMDL
MODEL 8
REMARK VINA RESULT:    -5.564     34.790     37.157
REMARK INTER + INTRA:          -9.481
REMARK INTER:                  -8.183
REMARK INTRA:                  -1.299
REMARK UNBOUND:                -0.827
REMARK SMILES COc1cc(CNC(=O)CCCC/C=C/C(C)C)ccc1O
REMARK SMILES IDX 10 1 8 2 7 3 9 5 6 6 5 7 3 8 21 9 4 10 20 11 19 12 2 13 1 14
REMARK SMILES IDX 22 15 11 17 12 18 13 19 14 20 15 21 16 22 17 23 18 24
REMARK H PARENT 7 4 22 16
REMARK Flexibility Score: inf
ROOT
ATOM      1  C   UNL     1      63.183  84.113  68.204  1.00  0.00     0.100 C 
ENDROOT
BRANCH   1   2
ATOM      2  C   UNL     1      62.650  85.054  69.208  1.00  0.00     0.220 C 
ATOM      3  N   UNL     1      61.523  84.750  69.910  1.00  0.00    -0.352 N 
ATOM      4  H   UNL     1      61.094  83.868  69.668  1.00  0.00     0.163 HD
ATOM      5  O   UNL     1      63.277  86.123  69.409  1.00  0.00    -0.275 OA
BRANCH   3   6
ATOM      6  C   UNL     1      60.946  85.576  70.923  1.00  0.00     0.151 C 
BRANCH   6   7
ATOM      7  C   UNL     1      61.091  84.966  72.273  1.00  0.00    -0.025 A 
ATOM      8  C   UNL     1      61.555  83.002  73.683  1.00  0.00     0.160 A 
ATOM      9  C   UNL     1      61.389  83.792  74.839  1.00  0.00     0.157 A 
ATOM     10  C   UNL     1      61.402  83.595  72.412  1.00  0.00     0.056 A 
ATOM     11  C   UNL     1      61.059  85.156  74.716  1.00  0.00     0.050 A 
ATOM     12  C   UNL     1      60.920  85.742  73.443  1.00  0.00     0.009 A 
BRANCH   8  13
ATOM     13  O   UNL     1      61.811  81.659  73.798  1.00  0.00    -0.493 OA
ATOM     14  C   UNL     1      63.212  81.332  73.854  1.00  0.00     0.278 C 
ENDBRANCH   8  13
BRANCH   9  15
ATOM     15  O   UNL     1      61.542  83.255  76.077  1.00  0.00    -0.504 OA
ATOM     16  H   UNL     1      60.970  83.712  76.698  1.00  0.00     0.293 HD
ENDBRANCH   9  15
ENDBRANCH   6   7
ENDBRANCH   3   6
ENDBRANCH   1   2
BRANCH   1  17
ATOM     17  C   UNL     1      62.672  82.667  68.446  1.00  0.00     0.010 C 
BRANCH  17  18
ATOM     18  C   UNL     1      63.794  81.700  68.920  1.00  0.00     0.005 C 
BRANCH  18  19
ATOM     19  C   UNL     1      64.011  81.756  70.457  1.00  0.00     0.027 C 
BRANCH  19  20
ATOM     20  C   UNL     1      65.401  82.006  70.804  1.00  0.00    -0.031 C 
ATOM     21  C   UNL     1      66.180  82.918  70.195  1.00  0.00    -0.028 C 
BRANCH  21  22
ATOM     22  C   UNL     1      67.571  83.167  70.574  1.00  0.00     0.005 C 
ATOM     23  C   UNL     1      68.466  83.496  69.348  1.00  0.00     0.012 C 
ATOM     24  C   UNL     1      67.644  84.300  71.631  1.00  0.00     0.012 C 
ENDBRANCH  21  22
ENDBRANCH  19  20
ENDBRANCH  18  19
ENDBRANCH  17  18
ENDBRANCH   1  17
TORSDOF 10
ENDMDL
MODEL 9
REMARK VINA RESULT:    -5.498     25.500     28.124
REMARK INTER + INTRA:          -9.379
REMARK INTER:                  -8.564
REMARK INTRA:                  -0.815
REMARK UNBOUND:                -0.827
REMARK SMILES COc1cc(CNC(=O)CCCC/C=C/C(C)C)ccc1O
REMARK SMILES IDX 10 1 8 2 7 3 9 5 6 6 5 7 3 8 21 9 4 10 20 11 19 12 2 13 1 14
REMARK SMILES IDX 22 15 11 17 12 18 13 19 14 20 15 21 16 22 17 23 18 24
REMARK H PARENT 7 4 22 16
REMARK Flexibility Score: inf
ROOT
ATOM      1  C   UNL     1      76.911  85.657  65.547  1.00  0.00     0.100 C 
ENDROOT
BRANCH   1   2
ATOM      2  C   UNL     1      77.124  85.779  67.002  1.00  0.00     0.220 C 
ATOM      3  N   UNL     1      76.124  85.471  67.875  1.00  0.00    -0.352 N 
ATOM      4  H   UNL     1      75.254  85.188  67.445  1.00  0.00     0.163 HD
ATOM      5  O   UNL     1      78.253  86.149  67.407  1.00  0.00    -0.275 OA
BRANCH   3   6
ATOM      6  C   UNL     1      76.238  85.525  69.298  1.00  0.00     0.151 C 
BRANCH   6   7
ATOM      7  C   UNL     1      75.706  86.804  69.841  1.00  0.00    -0.025 A 
ATOM      8  C   UNL     1      73.864  88.080  70.862  1.00  0.00     0.160 A 
ATOM      9  C   UNL     1      74.680  89.230  70.898  1.00  0.00     0.157 A 
ATOM     10  C   UNL     1      74.383  86.880  70.333  1.00  0.00     0.056 A 
ATOM     11  C   UNL     1      75.994  89.174  70.393  1.00  0.00     0.050 A 
ATOM     12  C   UNL     1      76.507  87.969  69.877  1.00  0.00     0.009 A 
BRANCH   8  13
ATOM     13  O   UNL     1      72.563  88.146  71.292  1.00  0.00    -0.493 OA
ATOM     14  C   UNL     1      71.636  87.410  70.473  1.00  0.00     0.278 C 
ENDBRANCH   8  13
BRANCH   9  15
ATOM     15  O   UNL     1      74.215  90.397  71.413  1.00  0.00    -0.504 OA
ATOM     16  H   UNL     1      74.819  91.110  71.189  1.00  0.00     0.293 HD
ENDBRANCH   9  15
ENDBRANCH   6   7
ENDBRANCH   3   6
ENDBRANCH   1   2
BRANCH   1  17
ATOM     17  C   UNL     1      76.547  84.204  65.141  1.00  0.00     0.010 C 
BRANCH  17  18
ATOM     18  C   UNL     1      77.518  83.147  65.740  1.00  0.00     0.005 C 
BRANCH  18  19
ATOM     19  C   UNL     1      76.944  81.706  65.662  1.00  0.00     0.027 C 
BRANCH  19  20
ATOM     20  C   UNL     1      75.955  81.568  64.604  1.00  0.00    -0.031 C 
ATOM     21  C   UNL     1      74.806  80.878  64.728  1.00  0.00    -0.028 C 
BRANCH  21  22
ATOM     22  C   UNL     1      73.817  80.769  63.656  1.00  0.00     0.005 C 
ATOM     23  C   UNL     1      72.447  80.244  64.171  1.00  0.00     0.012 C 
ATOM     24  C   UNL     1      73.652  82.133  62.938  1.00  0.00     0.012 C 
ENDBRANCH  21  22
ENDBRANCH  19  20
ENDBRANCH  18  19
ENDBRANCH  17  18
ENDBRANCH   1  17
TORSDOF 10
ENDMDL
MODEL 10
REMARK VINA RESULT:    -5.444     35.068     37.109
REMARK INTER + INTRA:          -9.295
REMARK INTER:                  -7.827
REMARK INTRA:                  -1.469
REMARK UNBOUND:                -0.827
REMARK SMILES COc1cc(CNC(=O)CCCC/C=C/C(C)C)ccc1O
REMARK SMILES IDX 10 1 8 2 7 3 9 5 6 6 5 7 3 8 21 9 4 10 20 11 19 12 2 13 1 14
REMARK SMILES IDX 22 15 11 17 12 18 13 19 14 20 15 21 16 22 17 23 18 24
REMARK H PARENT 7 4 22 16
REMARK Flexibility Score: inf
ROOT
ATOM      1  C   UNL     1      62.585  84.103  76.710  1.00  0.00     0.100 C 
ENDROOT
BRANCH   1   2
ATOM      2  C   UNL     1      63.168  83.130  75.765  1.00  0.00     0.220 C 
ATOM      3  N   UNL     1      62.367  82.410  74.932  1.00  0.00    -0.352 N 
ATOM      4  H   UNL     1      61.376  82.582  75.038  1.00  0.00     0.163 HD
ATOM      5  O   UNL     1      64.417  83.007  75.738  1.00  0.00    -0.275 OA
BRANCH   3   6
ATOM      6  C   UNL     1      62.833  81.470  73.963  1.00  0.00     0.151 C 
BRANCH   6   7
ATOM      7  C   UNL     1      63.176  82.137  72.677  1.00  0.00    -0.025 A 
ATOM      8  C   UNL     1      64.740  82.475  70.805  1.00  0.00     0.160 A 
ATOM      9  C   UNL     1      63.837  83.383  70.214  1.00  0.00     0.157 A 
ATOM     10  C   UNL     1      64.402  81.863  72.030  1.00  0.00     0.056 A 
ATOM     11  C   UNL     1      62.619  83.681  70.857  1.00  0.00     0.050 A 
ATOM     12  C   UNL     1      62.286  83.056  72.074  1.00  0.00     0.009 A 
BRANCH   8  13
ATOM     13  O   UNL     1      65.955  82.232  70.217  1.00  0.00    -0.493 OA
ATOM     14  C   UNL     1      67.033  83.024  70.748  1.00  0.00     0.278 C 
ENDBRANCH   8  13
BRANCH   9  15
ATOM     15  O   UNL     1      64.126  83.980  69.029  1.00  0.00    -0.504 OA
ATOM     16  H   UNL     1      63.486  84.674  68.855  1.00  0.00     0.293 HD
ENDBRANCH   9  15
ENDBRANCH   6   7
ENDBRANCH   3   6
ENDBRANCH   1   2
BRANCH   1  17
ATOM     17  C   UNL     1      62.302  85.467  76.025  1.00  0.00     0.010 C 
BRANCH  17  18
ATOM     18  C   UNL     1      61.030  85.442  75.130  1.00  0.00     0.005 C 
BRANCH  18  19
ATOM     19  C   UNL     1      61.197  86.297  73.845  1.00  0.00     0.027 C 
BRANCH  19  20
ATOM     20  C   UNL     1      60.183  85.988  72.848  1.00  0.00    -0.031 C 
ATOM     21  C   UNL     1      60.248  86.371  71.559  1.00  0.00    -0.028 C 
BRANCH  21  22
ATOM     22  C   UNL     1      59.226  86.032  70.569  1.00  0.00     0.005 C 
ATOM     23  C   UNL     1      58.455  84.735  70.939  1.00  0.00     0.012 C 
ATOM     24  C   UNL     1      58.249  87.221  70.379  1.00  0.00     0.012 C 
ENDBRANCH  21  22
ENDBRANCH  19  20
ENDBRANCH  18  19
ENDBRANCH  17  18
ENDBRANCH   1  17
TORSDOF 10
ENDMDL
