MODEL 1
REMARK VINA RESULT:    -6.240      0.000      0.000
REMARK INTER + INTRA:         -11.454
REMARK INTER:                 -10.253
REMARK INTRA:                  -1.201
REMARK UNBOUND:                -1.201
REMARK SMILES CCCCC[C@H](O)CC(=O)CCc1ccc(O)c(OC)c1
REMARK SMILES IDX 8 1 6 2 7 3 5 5 4 6 3 7 2 8 1 9 9 10 10 11 11 12 12 13 13 14
REMARK SMILES IDX 21 15 14 16 18 17 15 18 16 19 19 20 20 21 17 22
REMARK H PARENT 7 4 17 23
REMARK Flexibility Score: inf
ROOT
ATOM      1  C   UNL     1      91.935  95.813  77.193  1.00  0.00     0.107 C 
ENDROOT
BRANCH   1   2
ATOM      2  C   UNL     1      90.880  94.703  77.197  1.00  0.00     0.121 C 
BRANCH   2   3
ATOM      3  O   UNL     1      90.161  94.716  75.966  1.00  0.00    -0.393 OA
ATOM      4  H   UNL     1      90.142  93.805  75.623  1.00  0.00     0.210 HD
ENDBRANCH   2   3
BRANCH   2   5
ATOM      5  C   UNL     1      91.478  93.308  77.418  1.00  0.00     0.032 C 
BRANCH   5   6
ATOM      6  C   UNL     1      90.723  92.227  76.634  1.00  0.00     0.003 C 
BRANCH   6   7
ATOM      7  C   UNL     1      91.461  91.766  75.373  1.00  0.00    -0.000 C 
BRANCH   7   8
ATOM      8  C   UNL     1      90.785  90.596  74.662  1.00  0.00    -0.003 C 
ATOM      9  C   UNL     1      89.478  91.022  74.013  1.00  0.00     0.004 C 
ENDBRANCH   7   8
ENDBRANCH   6   7
ENDBRANCH   5   6
ENDBRANCH   2   5
ENDBRANCH   1   2
BRANCH   1  10
ATOM     10  C   UNL     1      93.006  95.613  76.133  1.00  0.00     0.135 C 
ATOM     11  O   UNL     1      92.718  95.182  75.016  1.00  0.00    -0.300 OA
BRANCH  10  12
ATOM     12  C   UNL     1      94.423  96.014  76.511  1.00  0.00     0.080 C 
BRANCH  12  13
ATOM     13  C   UNL     1      95.386  94.831  76.631  1.00  0.00     0.043 C 
BRANCH  13  14
ATOM     14  C   UNL     1      95.472  94.279  78.034  1.00  0.00    -0.044 A 
ATOM     15  C   UNL     1      95.502  95.146  79.125  1.00  0.00     0.054 A 
ATOM     16  C   UNL     1      95.522  92.899  78.237  1.00  0.00     0.008 A 
ATOM     17  C   UNL     1      95.580  94.634  80.421  1.00  0.00     0.160 A 
ATOM     18  C   UNL     1      95.601  92.387  79.532  1.00  0.00     0.050 A 
ATOM     19  C   UNL     1      95.630  93.255  80.624  1.00  0.00     0.157 A 
BRANCH  17  20
ATOM     20  O   UNL     1      95.609  95.492  81.479  1.00  0.00    -0.493 OA
ATOM     21  C   UNL     1      96.844  96.155  81.742  1.00  0.00     0.278 C 
ENDBRANCH  17  20
BRANCH  19  22
ATOM     22  O   UNL     1      95.707  92.743  81.884  1.00  0.00    -0.504 OA
ATOM     23  H   UNL     1      95.155  93.280  82.478  1.00  0.00     0.293 HD
ENDBRANCH  19  22
ENDBRANCH  13  14
ENDBRANCH  12  13
ENDBRANCH  10  12
ENDBRANCH   1  10
TORSDOF 12
ENDMDL
MODEL 2
REMARK VINA RESULT:    -6.044      3.132      5.421
REMARK INTER + INTRA:         -11.132
REMARK INTER:                 -10.169
REMARK INTRA:                  -0.963
REMARK UNBOUND:                -1.201
REMARK SMILES CCCCC[C@H](O)CC(=O)CCc1ccc(O)c(OC)c1
REMARK SMILES IDX 8 1 6 2 7 3 5 5 4 6 3 7 2 8 1 9 9 10 10 11 11 12 12 13 13 14
REMARK SMILES IDX 21 15 14 16 18 17 15 18 16 19 19 20 20 21 17 22
REMARK H PARENT 7 4 17 23
REMARK Flexibility Score: inf
ROOT
ATOM      1  C   UNL     1      93.156  94.719  77.755  1.00  0.00     0.107 C 
ENDROOT
BRANCH   1   2
ATOM      2  C   UNL     1      92.512  93.333  77.839  1.00  0.00     0.121 C 
BRANCH   2   3
ATOM      3  O   UNL     1      92.956  92.664  79.017  1.00  0.00    -0.393 OA
ATOM      4  H   UNL     1      93.712  93.162  79.374  1.00  0.00     0.210 HD
ENDBRANCH   2   3
BRANCH   2   5
ATOM      5  C   UNL     1      90.979  93.382  77.833  1.00  0.00     0.032 C 
BRANCH   5   6
ATOM      6  C   UNL     1      90.369  92.238  77.014  1.00  0.00     0.003 C 
BRANCH   6   7
ATOM      7  C   UNL     1      91.077  92.006  75.675  1.00  0.00    -0.000 C 
BRANCH   7   8
ATOM      8  C   UNL     1      90.798  90.633  75.066  1.00  0.00    -0.003 C 
ATOM      9  C   UNL     1      90.238  90.755  73.657  1.00  0.00     0.004 C 
ENDBRANCH   7   8
ENDBRANCH   6   7
ENDBRANCH   5   6
ENDBRANCH   2   5
ENDBRANCH   1   2
BRANCH   1  10
ATOM     10  C   UNL     1      92.475  95.632  76.749  1.00  0.00     0.135 C 
ATOM     11  O   UNL     1      91.728  96.538  77.120  1.00  0.00    -0.300 OA
BRANCH  10  12
ATOM     12  C   UNL     1      92.802  95.395  75.282  1.00  0.00     0.080 C 
BRANCH  12  13
ATOM     13  C   UNL     1      94.198  94.815  75.049  1.00  0.00     0.043 C 
BRANCH  13  14
ATOM     14  C   UNL     1      95.224  95.866  74.698  1.00  0.00    -0.044 A 
ATOM     15  C   UNL     1      95.529  96.124  73.362  1.00  0.00     0.054 A 
ATOM     16  C   UNL     1      95.867  96.578  75.711  1.00  0.00     0.008 A 
ATOM     17  C   UNL     1      96.477  97.096  73.039  1.00  0.00     0.160 A 
ATOM     18  C   UNL     1      96.815  97.550  75.388  1.00  0.00     0.050 A 
ATOM     19  C   UNL     1      97.120  97.808  74.051  1.00  0.00     0.157 A 
BRANCH  17  20
ATOM     20  O   UNL     1      96.767  97.339  71.730  1.00  0.00    -0.493 OA
ATOM     21  C   UNL     1      96.145  96.497  70.761  1.00  0.00     0.278 C 
ENDBRANCH  17  20
BRANCH  19  22
ATOM     22  O   UNL     1      98.047  98.759  73.748  1.00  0.00    -0.504 OA
ATOM     23  H   UNL     1      98.928  98.433  73.998  1.00  0.00     0.293 HD
ENDBRANCH  19  22
ENDBRANCH  13  14
ENDBRANCH  12  13
ENDBRANCH  10  12
ENDBRANCH   1  10
TORSDOF 12
ENDMDL
MODEL 3
REMARK VINA RESULT:    -5.684     20.661     23.667
REMARK INTER + INTRA:         -10.540
REMARK INTER:                  -9.484
REMARK INTRA:                  -1.056
REMARK UNBOUND:                -1.201
REMARK SMILES CCCCC[C@H](O)CC(=O)CCc1ccc(O)c(OC)c1
REMARK SMILES IDX 8 1 6 2 7 3 5 5 4 6 3 7 2 8 1 9 9 10 10 11 11 12 12 13 13 14
REMARK SMILES IDX 21 15 14 16 18 17 15 18 16 19 19 20 20 21 17 22
REMARK H PARENT 7 4 17 23
REMARK Flexibility Score: inf
ROOT
ATOM      1  C   UNL     1      75.764  83.937  65.445  1.00  0.00     0.107 C 
ENDROOT
BRANCH   1   2
ATOM      2  C   UNL     1      75.977  82.702  64.567  1.00  0.00     0.121 C 
BRANCH   2   3
ATOM      3  O   UNL     1      76.622  81.678  65.321  1.00  0.00    -0.393 OA
ATOM      4  H   UNL     1      77.506  82.002  65.568  1.00  0.00     0.210 HD
ENDBRANCH   2   3
BRANCH   2   5
ATOM      5  C   UNL     1      74.672  82.150  63.980  1.00  0.00     0.032 C 
BRANCH   5   6
ATOM      6  C   UNL     1      73.818  81.441  65.039  1.00  0.00     0.003 C 
BRANCH   6   7
ATOM      7  C   UNL     1      72.346  81.866  65.016  1.00  0.00    -0.000 C 
BRANCH   7   8
ATOM      8  C   UNL     1      71.391  80.742  64.617  1.00  0.00    -0.003 C 
ATOM      9  C   UNL     1      71.605  80.319  63.172  1.00  0.00     0.004 C 
ENDBRANCH   7   8
ENDBRANCH   6   7
ENDBRANCH   5   6
ENDBRANCH   2   5
ENDBRANCH   1   2
BRANCH   1  10
ATOM     10  C   UNL     1      76.727  84.006  66.619  1.00  0.00     0.135 C 
ATOM     11  O   UNL     1      77.938  83.862  66.454  1.00  0.00    -0.300 OA
BRANCH  10  12
ATOM     12  C   UNL     1      76.121  84.304  67.982  1.00  0.00     0.080 C 
BRANCH  12  13
ATOM     13  C   UNL     1      76.842  85.414  68.747  1.00  0.00     0.043 C 
BRANCH  13  14
ATOM     14  C   UNL     1      76.483  86.798  68.261  1.00  0.00    -0.044 A 
ATOM     15  C   UNL     1      75.214  87.319  68.513  1.00  0.00     0.054 A 
ATOM     16  C   UNL     1      77.421  87.556  67.559  1.00  0.00     0.008 A 
ATOM     17  C   UNL     1      74.883  88.597  68.064  1.00  0.00     0.160 A 
ATOM     18  C   UNL     1      77.090  88.835  67.110  1.00  0.00     0.050 A 
ATOM     19  C   UNL     1      75.821  89.355  67.362  1.00  0.00     0.157 A 
BRANCH  17  20
ATOM     20  O   UNL     1      73.640  89.095  68.316  1.00  0.00    -0.493 OA
ATOM     21  C   UNL     1      72.600  88.732  67.409  1.00  0.00     0.278 C 
ENDBRANCH  17  20
BRANCH  19  22
ATOM     22  O   UNL     1      75.510  90.605  66.919  1.00  0.00    -0.504 OA
ATOM     23  H   UNL     1      76.330  91.117  66.815  1.00  0.00     0.293 HD
ENDBRANCH  19  22
ENDBRANCH  13  14
ENDBRANCH  12  13
ENDBRANCH  10  12
ENDBRANCH   1  10
TORSDOF 12
ENDMDL
MODEL 4
REMARK VINA RESULT:    -5.595      9.943     12.420
REMARK INTER + INTRA:         -10.394
REMARK INTER:                  -8.307
REMARK INTRA:                  -2.086
REMARK UNBOUND:                -1.201
REMARK SMILES CCCCC[C@H](O)CC(=O)CCc1ccc(O)c(OC)c1
REMARK SMILES IDX 8 1 6 2 7 3 5 5 4 6 3 7 2 8 1 9 9 10 10 11 11 12 12 13 13 14
REMARK SMILES IDX 21 15 14 16 18 17 15 18 16 19 19 20 20 21 17 22
REMARK H PARENT 7 4 17 23
REMARK Flexibility Score: inf
ROOT
ATOM      1  C   UNL     1      88.064  99.726  67.897  1.00  0.00     0.107 C 
ENDROOT
BRANCH   1   2
ATOM      2  C   UNL     1      87.544 100.143  66.519  1.00  0.00     0.121 C 
BRANCH   2   3
ATOM      3  O   UNL     1      86.275  99.541  66.278  1.00  0.00    -0.393 OA
ATOM      4  H   UNL     1      86.350  99.002  65.472  1.00  0.00     0.210 HD
ENDBRANCH   2   3
BRANCH   2   5
ATOM      5  C   UNL     1      87.420 101.663  66.360  1.00  0.00     0.032 C 
BRANCH   5   6
ATOM      6  C   UNL     1      88.491 102.416  67.157  1.00  0.00     0.003 C 
BRANCH   6   7
ATOM      7  C   UNL     1      89.764 102.695  66.351  1.00  0.00    -0.000 C 
BRANCH   7   8
ATOM      8  C   UNL     1      90.949 101.819  66.755  1.00  0.00    -0.003 C 
ATOM      9  C   UNL     1      91.131 100.654  65.795  1.00  0.00     0.004 C 
ENDBRANCH   7   8
ENDBRANCH   6   7
ENDBRANCH   5   6
ENDBRANCH   2   5
ENDBRANCH   1   2
BRANCH   1  10
ATOM     10  C   UNL     1      88.932  98.479  67.854  1.00  0.00     0.135 C 
ATOM     11  O   UNL     1      89.036  97.816  66.822  1.00  0.00    -0.300 OA
BRANCH  10  12
ATOM     12  C   UNL     1      89.689  98.130  69.126  1.00  0.00     0.080 C 
BRANCH  12  13
ATOM     13  C   UNL     1      89.545  99.176  70.233  1.00  0.00     0.043 C 
BRANCH  13  14
ATOM     14  C   UNL     1      90.639 100.217  70.211  1.00  0.00    -0.044 A 
ATOM     15  C   UNL     1      91.953  99.841  69.933  1.00  0.00     0.054 A 
ATOM     16  C   UNL     1      90.335 101.554  70.469  1.00  0.00     0.008 A 
ATOM     17  C   UNL     1      92.963 100.803  69.912  1.00  0.00     0.160 A 
ATOM     18  C   UNL     1      91.345 102.516  70.448  1.00  0.00     0.050 A 
ATOM     19  C   UNL     1      92.659 102.140  70.169  1.00  0.00     0.157 A 
BRANCH  17  20
ATOM     20  O   UNL     1      94.243 100.425  69.639  1.00  0.00    -0.493 OA
ATOM     21  C   UNL     1      94.734  99.267  70.313  1.00  0.00     0.278 C 
ENDBRANCH  17  20
BRANCH  19  22
ATOM     22  O   UNL     1      93.637 103.089  70.152  1.00  0.00    -0.504 OA
ATOM     23  H   UNL     1      94.376 102.792  70.709  1.00  0.00     0.293 HD
ENDBRANCH  19  22
ENDBRANCH  13  14
ENDBRANCH  12  13
ENDBRANCH  10  12
ENDBRANCH   1  10
TORSDOF 12
ENDMDL
MODEL 5
REMARK VINA RESULT:    -5.594      3.009      5.301
REMARK INTER + INTRA:         -10.392
REMARK INTER:                  -9.408
REMARK INTRA:                  -0.984
REMARK UNBOUND:                -1.201
REMARK SMILES CCCCC[C@H](O)CC(=O)CCc1ccc(O)c(OC)c1
REMARK SMILES IDX 8 1 6 2 7 3 5 5 4 6 3 7 2 8 1 9 9 10 10 11 11 12 12 13 13 14
REMARK SMILES IDX 21 15 14 16 18 17 15 18 16 19 19 20 20 21 17 22
REMARK H PARENT 7 4 17 23
REMARK Flexibility Score: inf
ROOT
ATOM      1  C   UNL     1      94.313  94.461  78.550  1.00  0.00     0.107 C 
ENDROOT
BRANCH   1   2
ATOM      2  C   UNL     1      93.249  93.481  78.047  1.00  0.00     0.121 C 
BRANCH   2   3
ATOM      3  O   UNL     1      92.913  92.560  79.082  1.00  0.00    -0.393 OA
ATOM      4  H   UNL     1      93.405  92.817  79.881  1.00  0.00     0.210 HD
ENDBRANCH   2   3
BRANCH   2   5
ATOM      5  C   UNL     1      91.974  94.179  77.558  1.00  0.00     0.032 C 
BRANCH   5   6
ATOM      6  C   UNL     1      90.815  93.193  77.368  1.00  0.00     0.003 C 
BRANCH   6   7
ATOM      7  C   UNL     1      90.789  92.548  75.978  1.00  0.00    -0.000 C 
BRANCH   7   8
ATOM      8  C   UNL     1      90.328  91.091  75.988  1.00  0.00    -0.003 C 
ATOM      9  C   UNL     1      90.779  90.359  74.734  1.00  0.00     0.004 C 
ENDBRANCH   7   8
ENDBRANCH   6   7
ENDBRANCH   5   6
ENDBRANCH   2   5
ENDBRANCH   1   2
BRANCH   1  10
ATOM     10  C   UNL     1      95.732  93.974  78.311  1.00  0.00     0.135 C 
ATOM     11  O   UNL     1      96.008  92.775  78.368  1.00  0.00    -0.300 OA
BRANCH  10  12
ATOM     12  C   UNL     1      96.766  95.032  77.958  1.00  0.00     0.080 C 
BRANCH  12  13
ATOM     13  C   UNL     1      96.158  96.345  77.462  1.00  0.00     0.043 C 
BRANCH  13  14
ATOM     14  C   UNL     1      96.098  96.438  75.955  1.00  0.00    -0.044 A 
ATOM     15  C   UNL     1      97.031  97.214  75.267  1.00  0.00     0.054 A 
ATOM     16  C   UNL     1      95.110  95.747  75.253  1.00  0.00     0.008 A 
ATOM     17  C   UNL     1      96.976  97.298  73.876  1.00  0.00     0.160 A 
ATOM     18  C   UNL     1      95.055  95.832  73.861  1.00  0.00     0.050 A 
ATOM     19  C   UNL     1      95.988  96.608  73.173  1.00  0.00     0.157 A 
BRANCH  17  20
ATOM     20  O   UNL     1      97.891  98.060  73.214  1.00  0.00    -0.493 OA
ATOM     21  C   UNL     1      99.257  97.657  73.306  1.00  0.00     0.278 C 
ENDBRANCH  17  20
BRANCH  19  22
ATOM     22  O   UNL     1      95.924  96.683  71.815  1.00  0.00    -0.504 OA
ATOM     23  H   UNL     1      96.608  96.106  71.433  1.00  0.00     0.293 HD
ENDBRANCH  19  22
ENDBRANCH  13  14
ENDBRANCH  12  13
ENDBRANCH  10  12
ENDBRANCH   1  10
TORSDOF 12
ENDMDL
MODEL 6
REMARK VINA RESULT:    -5.547     11.497     13.292
REMARK INTER + INTRA:         -10.315
REMARK INTER:                  -9.079
REMARK INTRA:                  -1.236
REMARK UNBOUND:                -1.201
REMARK SMILES CCCCC[C@H](O)CC(=O)CCc1ccc(O)c(OC)c1
REMARK SMILES IDX 8 1 6 2 7 3 5 5 4 6 3 7 2 8 1 9 9 10 10 11 11 12 12 13 13 14
REMARK SMILES IDX 21 15 14 16 18 17 15 18 16 19 19 20 20 21 17 22
REMARK H PARENT 7 4 17 23
REMARK Flexibility Score: inf
ROOT
ATOM      1  C   UNL     1      96.664  82.269  74.589  1.00  0.00     0.107 C 
ENDROOT
BRANCH   1   2
ATOM      2  C   UNL     1      97.919  82.818  73.905  1.00  0.00     0.121 C 
BRANCH   2   3
ATOM      3  O   UNL     1      98.134  84.170  74.302  1.00  0.00    -0.393 OA
ATOM      4  H   UNL     1      99.032  84.232  74.672  1.00  0.00     0.210 HD
ENDBRANCH   2   3
BRANCH   2   5
ATOM      5  C   UNL     1      99.177  81.996  74.210  1.00  0.00     0.032 C 
BRANCH   5   6
ATOM      6  C   UNL     1      98.870  80.499  74.345  1.00  0.00     0.003 C 
BRANCH   6   7
ATOM      7  C   UNL     1      98.745  79.783  72.996  1.00  0.00    -0.000 C 
BRANCH   7   8
ATOM      8  C   UNL     1      97.410  79.064  72.806  1.00  0.00    -0.003 C 
ATOM      9  C   UNL     1      96.523  79.797  71.812  1.00  0.00     0.004 C 
ENDBRANCH   7   8
ENDBRANCH   6   7
ENDBRANCH   5   6
ENDBRANCH   2   5
ENDBRANCH   1   2
BRANCH   1  10
ATOM     10  C   UNL     1      96.169  83.152  75.722  1.00  0.00     0.135 C 
ATOM     11  O   UNL     1      95.677  84.258  75.494  1.00  0.00    -0.300 OA
BRANCH  10  12
ATOM     12  C   UNL     1      96.273  82.581  77.128  1.00  0.00     0.080 C 
BRANCH  12  13
ATOM     13  C   UNL     1      97.666  82.051  77.475  1.00  0.00     0.043 C 
BRANCH  13  14
ATOM     14  C   UNL     1      97.783  81.587  78.907  1.00  0.00    -0.044 A 
ATOM     15  C   UNL     1      96.915  82.090  79.876  1.00  0.00     0.054 A 
ATOM     16  C   UNL     1      98.760  80.656  79.260  1.00  0.00     0.008 A 
ATOM     17  C   UNL     1      97.024  81.660  81.199  1.00  0.00     0.160 A 
ATOM     18  C   UNL     1      98.869  80.226  80.583  1.00  0.00     0.050 A 
ATOM     19  C   UNL     1      98.001  80.728  81.552  1.00  0.00     0.157 A 
BRANCH  17  20
ATOM     20  O   UNL     1      96.171  82.158  82.137  1.00  0.00    -0.493 OA
ATOM     21  C   UNL     1      96.586  83.332  82.832  1.00  0.00     0.278 C 
ENDBRANCH  17  20
BRANCH  19  22
ATOM     22  O   UNL     1      98.116  80.301  82.840  1.00  0.00    -0.504 OA
ATOM     23  H   UNL     1      98.626  79.473  82.855  1.00  0.00     0.293 HD
ENDBRANCH  19  22
ENDBRANCH  13  14
ENDBRANCH  12  13
ENDBRANCH  10  12
ENDBRANCH   1  10
TORSDOF 12
ENDMDL
MODEL 7
REMARK VINA RESULT:    -5.519      2.361      4.719
REMARK INTER + INTRA:         -10.270
REMARK INTER:                  -9.275
REMARK INTRA:                  -0.994
REMARK UNBOUND:                -1.201
REMARK SMILES CCCCC[C@H](O)CC(=O)CCc1ccc(O)c(OC)c1
REMARK SMILES IDX 8 1 6 2 7 3 5 5 4 6 3 7 2 8 1 9 9 10 10 11 11 12 12 13 13 14
REMARK SMILES IDX 21 15 14 16 18 17 15 18 16 19 19 20 20 21 17 22
REMARK H PARENT 7 4 17 23
REMARK Flexibility Score: inf
ROOT
ATOM      1  C   UNL     1      93.035  93.287  77.657  1.00  0.00     0.107 C 
ENDROOT
BRANCH   1   2
ATOM      2  C   UNL     1      92.101  94.375  77.120  1.00  0.00     0.121 C 
BRANCH   2   3
ATOM      3  O   UNL     1      92.430  94.670  75.765  1.00  0.00    -0.393 OA
ATOM      4  H   UNL     1      92.360  95.633  75.644  1.00  0.00     0.210 HD
ENDBRANCH   2   3
BRANCH   2   5
ATOM      5  C   UNL     1      90.619  93.991  77.208  1.00  0.00     0.032 C 
BRANCH   5   6
ATOM      6  C   UNL     1      90.426  92.543  77.673  1.00  0.00     0.003 C 
BRANCH   6   7
ATOM      7  C   UNL     1      89.920  91.613  76.565  1.00  0.00    -0.000 C 
BRANCH   7   8
ATOM      8  C   UNL     1      90.941  91.371  75.455  1.00  0.00    -0.003 C 
ATOM      9  C   UNL     1      90.407  90.400  74.413  1.00  0.00     0.004 C 
ENDBRANCH   7   8
ENDBRANCH   6   7
ENDBRANCH   5   6
ENDBRANCH   2   5
ENDBRANCH   1   2
BRANCH   1  10
ATOM     10  C   UNL     1      93.968  93.788  78.747  1.00  0.00     0.135 C 
ATOM     11  O   UNL     1      94.304  93.055  79.678  1.00  0.00    -0.300 OA
BRANCH  10  12
ATOM     12  C   UNL     1      94.490  95.209  78.599  1.00  0.00     0.080 C 
BRANCH  12  13
ATOM     13  C   UNL     1      96.004  95.289  78.391  1.00  0.00     0.043 C 
BRANCH  13  14
ATOM     14  C   UNL     1      96.392  96.093  77.173  1.00  0.00    -0.044 A 
ATOM     15  C   UNL     1      95.513  96.195  76.095  1.00  0.00     0.054 A 
ATOM     16  C   UNL     1      97.630  96.735  77.127  1.00  0.00     0.008 A 
ATOM     17  C   UNL     1      95.872  96.940  74.971  1.00  0.00     0.160 A 
ATOM     18  C   UNL     1      97.989  97.479  76.003  1.00  0.00     0.050 A 
ATOM     19  C   UNL     1      97.110  97.581  74.925  1.00  0.00     0.157 A 
BRANCH  17  20
ATOM     20  O   UNL     1      95.005  97.031  73.923  1.00  0.00    -0.493 OA
ATOM     21  C   UNL     1      93.706  97.550  74.201  1.00  0.00     0.278 C 
ENDBRANCH  17  20
BRANCH  19  22
ATOM     22  O   UNL     1      97.472  98.311  73.833  1.00  0.00    -0.504 OA
ATOM     23  H   UNL     1      96.886  98.082  73.091  1.00  0.00     0.293 HD
ENDBRANCH  19  22
ENDBRANCH  13  14
ENDBRANCH  12  13
ENDBRANCH  10  12
ENDBRANCH   1  10
TORSDOF 12
ENDMDL
MODEL 8
REMARK VINA RESULT:    -5.439      2.207      3.512
REMARK INTER + INTRA:         -10.137
REMARK INTER:                  -9.477
REMARK INTRA:                  -0.659
REMARK UNBOUND:                -1.201
REMARK SMILES CCCCC[C@H](O)CC(=O)CCc1ccc(O)c(OC)c1
REMARK SMILES IDX 8 1 6 2 7 3 5 5 4 6 3 7 2 8 1 9 9 10 10 11 11 12 12 13 13 14
REMARK SMILES IDX 21 15 14 16 18 17 15 18 16 19 19 20 20 21 17 22
REMARK H PARENT 7 4 17 23
REMARK Flexibility Score: inf
ROOT
ATOM      1  C   UNL     1      93.902  94.643  78.354  1.00  0.00     0.107 C 
ENDROOT
BRANCH   1   2
ATOM      2  C   UNL     1      93.009  93.482  77.909  1.00  0.00     0.121 C 
BRANCH   2   3
ATOM      3  O   UNL     1      92.762  92.613  79.012  1.00  0.00    -0.393 OA
ATOM      4  H   UNL     1      93.179  93.005  79.799  1.00  0.00     0.210 HD
ENDBRANCH   2   3
BRANCH   2   5
ATOM      5  C   UNL     1      91.671  93.946  77.321  1.00  0.00     0.032 C 
BRANCH   5   6
ATOM      6  C   UNL     1      90.674  92.789  77.175  1.00  0.00     0.003 C 
BRANCH   6   7
ATOM      7  C   UNL     1      90.623  92.207  75.759  1.00  0.00    -0.000 C 
BRANCH   7   8
ATOM      8  C   UNL     1      90.408  90.695  75.726  1.00  0.00    -0.003 C 
ATOM      9  C   UNL     1      90.915  90.092  74.425  1.00  0.00     0.004 C 
ENDBRANCH   7   8
ENDBRANCH   6   7
ENDBRANCH   5   6
ENDBRANCH   2   5
ENDBRANCH   1   2
BRANCH   1  10
ATOM     10  C   UNL     1      95.366  94.438  78.001  1.00  0.00     0.135 C 
ATOM     11  O   UNL     1      95.912  95.125  77.137  1.00  0.00    -0.300 OA
BRANCH  10  12
ATOM     12  C   UNL     1      96.118  93.382  78.797  1.00  0.00     0.080 C 
BRANCH  12  13
ATOM     13  C   UNL     1      95.841  93.433  80.301  1.00  0.00     0.043 C 
BRANCH  13  14
ATOM     14  C   UNL     1      96.520  94.594  80.989  1.00  0.00    -0.044 A 
ATOM     15  C   UNL     1      97.865  94.504  81.344  1.00  0.00     0.054 A 
ATOM     16  C   UNL     1      95.800  95.756  81.268  1.00  0.00     0.008 A 
ATOM     17  C   UNL     1      98.491  95.577  81.979  1.00  0.00     0.160 A 
ATOM     18  C   UNL     1      96.426  96.829  81.903  1.00  0.00     0.050 A 
ATOM     19  C   UNL     1      97.771  96.739  82.258  1.00  0.00     0.157 A 
BRANCH  17  20
ATOM     20  O   UNL     1      99.806  95.478  82.322  1.00  0.00    -0.493 OA
ATOM     21  C   UNL     1     100.105  94.858  83.571  1.00  0.00     0.278 C 
ENDBRANCH  17  20
BRANCH  19  22
ATOM     22  O   UNL     1      98.372  97.794  82.877  1.00  0.00    -0.504 OA
ATOM     23  H   UNL     1      99.138  98.077  82.349  1.00  0.00     0.293 HD
ENDBRANCH  19  22
ENDBRANCH  13  14
ENDBRANCH  12  13
ENDBRANCH  10  12
ENDBRANCH   1  10
TORSDOF 12
ENDMDL
MODEL 9
REMARK VINA RESULT:    -5.419      2.499      4.402
REMARK INTER + INTRA:         -10.104
REMARK INTER:                  -9.129
REMARK INTRA:                  -0.975
REMARK UNBOUND:                -1.201
REMARK SMILES CCCCC[C@H](O)CC(=O)CCc1ccc(O)c(OC)c1
REMARK SMILES IDX 8 1 6 2 7 3 5 5 4 6 3 7 2 8 1 9 9 10 10 11 11 12 12 13 13 14
REMARK SMILES IDX 21 15 14 16 18 17 15 18 16 19 19 20 20 21 17 22
REMARK H PARENT 7 4 17 23
REMARK Flexibility Score: inf
ROOT
ATOM      1  C   UNL     1      92.805  94.805  77.251  1.00  0.00     0.107 C 
ENDROOT
BRANCH   1   2
ATOM      2  C   UNL     1      93.513  94.491  75.931  1.00  0.00     0.121 C 
BRANCH   2   3
ATOM      3  O   UNL     1      92.939  93.327  75.340  1.00  0.00    -0.393 OA
ATOM      4  H   UNL     1      92.060  93.569  75.001  1.00  0.00     0.210 HD
ENDBRANCH   2   3
BRANCH   2   5
ATOM      5  C   UNL     1      93.453  95.649  74.927  1.00  0.00     0.032 C 
BRANCH   5   6
ATOM      6  C   UNL     1      94.819  95.931  74.290  1.00  0.00     0.003 C 
BRANCH   6   7
ATOM      7  C   UNL     1      94.907  97.310  73.628  1.00  0.00    -0.000 C 
BRANCH   7   8
ATOM      8  C   UNL     1      93.662  98.170  73.838  1.00  0.00    -0.003 C 
ATOM      9  C   UNL     1      93.556  99.260  72.783  1.00  0.00     0.004 C 
ENDBRANCH   7   8
ENDBRANCH   6   7
ENDBRANCH   5   6
ENDBRANCH   2   5
ENDBRANCH   1   2
BRANCH   1  10
ATOM     10  C   UNL     1      92.582  93.575  78.115  1.00  0.00     0.135 C 
ATOM     11  O   UNL     1      91.546  92.916  78.023  1.00  0.00    -0.300 OA
BRANCH  10  12
ATOM     12  C   UNL     1      93.715  93.185  79.053  1.00  0.00     0.080 C 
BRANCH  12  13
ATOM     13  C   UNL     1      95.074  93.071  78.361  1.00  0.00     0.043 C 
BRANCH  13  14
ATOM     14  C   UNL     1      96.069  94.103  78.835  1.00  0.00    -0.044 A 
ATOM     15  C   UNL     1      96.580  94.036  80.131  1.00  0.00     0.054 A 
ATOM     16  C   UNL     1      96.477  95.124  77.976  1.00  0.00     0.008 A 
ATOM     17  C   UNL     1      97.499  94.989  80.568  1.00  0.00     0.160 A 
ATOM     18  C   UNL     1      97.397  96.078  78.413  1.00  0.00     0.050 A 
ATOM     19  C   UNL     1      97.907  96.010  79.710  1.00  0.00     0.157 A 
BRANCH  17  20
ATOM     20  O   UNL     1      97.991  94.914  81.837  1.00  0.00    -0.493 OA
ATOM     21  C   UNL     1      98.991  93.928  82.087  1.00  0.00     0.278 C 
ENDBRANCH  17  20
BRANCH  19  22
ATOM     22  O   UNL     1      98.804  96.947  80.125  1.00  0.00    -0.504 OA
ATOM     23  H   UNL     1      99.695  96.555  80.125  1.00  0.00     0.293 HD
ENDBRANCH  19  22
ENDBRANCH  13  14
ENDBRANCH  12  13
ENDBRANCH  10  12
ENDBRANCH   1  10
TORSDOF 12
ENDMDL
MODEL 10
REMARK VINA RESULT:    -5.391      2.172      6.982
REMARK INTER + INTRA:         -10.058
REMARK INTER:                  -8.749
REMARK INTRA:                  -1.309
REMARK UNBOUND:                -1.201
REMARK SMILES CCCCC[C@H](O)CC(=O)CCc1ccc(O)c(OC)c1
REMARK SMILES IDX 8 1 6 2 7 3 5 5 4 6 3 7 2 8 1 9 9 10 10 11 11 12 12 13 13 14
REMARK SMILES IDX 21 15 14 16 18 17 15 18 16 19 19 20 20 21 17 22
REMARK H PARENT 7 4 17 23
REMARK Flexibility Score: inf
ROOT
ATOM      1  C   UNL     1      95.921  95.518  81.297  1.00  0.00     0.107 C 
ENDROOT
BRANCH   1   2
ATOM      2  C   UNL     1      96.627  96.702  81.961  1.00  0.00     0.121 C 
BRANCH   2   3
ATOM      3  O   UNL     1      97.083  96.327  83.259  1.00  0.00    -0.393 OA
ATOM      4  H   UNL     1      97.105  95.355  83.297  1.00  0.00     0.210 HD
ENDBRANCH   2   3
BRANCH   2   5
ATOM      5  C   UNL     1      97.812  97.230  81.143  1.00  0.00     0.032 C 
BRANCH   5   6
ATOM      6  C   UNL     1      97.358  97.927  79.855  1.00  0.00     0.003 C 
BRANCH   6   7
ATOM      7  C   UNL     1      98.006  97.350  78.592  1.00  0.00    -0.000 C 
BRANCH   7   8
ATOM      8  C   UNL     1      97.555  98.036  77.304  1.00  0.00    -0.003 C 
ATOM      9  C   UNL     1      97.272  97.023  76.206  1.00  0.00     0.004 C 
ENDBRANCH   7   8
ENDBRANCH   6   7
ENDBRANCH   5   6
ENDBRANCH   2   5
ENDBRANCH   1   2
BRANCH   1  10
ATOM     10  C   UNL     1      96.882  94.434  80.836  1.00  0.00     0.135 C 
ATOM     11  O   UNL     1      97.661  93.901  81.626  1.00  0.00    -0.300 OA
BRANCH  10  12
ATOM     12  C   UNL     1      96.792  94.019  79.375  1.00  0.00     0.080 C 
BRANCH  12  13
ATOM     13  C   UNL     1      95.831  92.855  79.124  1.00  0.00     0.043 C 
BRANCH  13  14
ATOM     14  C   UNL     1      94.660  93.233  78.248  1.00  0.00    -0.044 A 
ATOM     15  C   UNL     1      94.875  93.632  76.929  1.00  0.00     0.054 A 
ATOM     16  C   UNL     1      93.363  93.182  78.760  1.00  0.00     0.008 A 
ATOM     17  C   UNL     1      93.792  93.980  76.122  1.00  0.00     0.160 A 
ATOM     18  C   UNL     1      92.280  93.529  77.952  1.00  0.00     0.050 A 
ATOM     19  C   UNL     1      92.495  93.929  76.633  1.00  0.00     0.157 A 
BRANCH  17  20
ATOM     20  O   UNL     1      94.014  94.369  74.835  1.00  0.00    -0.493 OA
ATOM     21  C   UNL     1      94.194  95.765  74.602  1.00  0.00     0.278 C 
ENDBRANCH  17  20
BRANCH  19  22
ATOM     22  O   UNL     1      91.430  94.266  75.854  1.00  0.00    -0.504 OA
ATOM     23  H   UNL     1      91.720  94.323  74.927  1.00  0.00     0.293 HD
ENDBRANCH  19  22
ENDBRANCH  13  14
ENDBRANCH  12  13
ENDBRANCH  10  12
ENDBRANCH   1  10
TORSDOF 12
ENDMDL
