MODEL 1
REMARK VINA RESULT:    -5.838      0.000      0.000
REMARK INTER + INTRA:          -9.791
REMARK INTER:                  -9.080
REMARK INTRA:                  -0.711
REMARK UNBOUND:                -0.711
REMARK SMILES CCCCC/C=C/C(=O)CCc1ccc(O)c(OC)c1
REMARK SMILES IDX 6 1 7 2 8 3 9 4 10 5 11 6 12 7 17 8 20 9 15 10 14 11 13 12
REMARK SMILES IDX 18 13 19 14 16 15 5 17 4 18 3 19 2 20 1 21
REMARK H PARENT 16 16
REMARK Flexibility Score: inf
ROOT
ATOM      1  C   UNL     1      82.907  91.350  88.014  1.00  0.00    -0.023 C 
ATOM      2  C   UNL     1      83.617  91.504  86.890  1.00  0.00     0.043 C 
ENDROOT
BRANCH   2   3
ATOM      3  C   UNL     1      84.274  90.326  86.260  1.00  0.00     0.155 C 
ATOM      4  O   UNL     1      85.101  89.645  86.863  1.00  0.00    -0.295 OA
BRANCH   3   5
ATOM      5  C   UNL     1      83.910  90.041  84.816  1.00  0.00     0.085 C 
BRANCH   5   6
ATOM      6  C   UNL     1      82.410  90.216  84.576  1.00  0.00     0.044 C 
BRANCH   6   7
ATOM      7  C   UNL     1      81.630  88.938  84.773  1.00  0.00    -0.044 A 
ATOM      8  C   UNL     1      81.327  86.847  85.912  1.00  0.00     0.160 A 
ATOM      9  C   UNL     1      82.048  88.028  85.730  1.00  0.00     0.054 A 
ATOM     10  C   UNL     1      80.198  86.593  85.133  1.00  0.00     0.157 A 
ATOM     11  C   UNL     1      79.790  87.519  84.173  1.00  0.00     0.050 A 
ATOM     12  C   UNL     1      80.511  88.699  83.991  1.00  0.00     0.008 A 
BRANCH   8  13
ATOM     13  O   UNL     1      81.736  85.951  86.853  1.00  0.00    -0.493 OA
ATOM     14  C   UNL     1      82.821  85.094  86.503  1.00  0.00     0.278 C 
ENDBRANCH   8  13
BRANCH  10  15
ATOM     15  O   UNL     1      79.486  85.444  85.301  1.00  0.00    -0.504 OA
ATOM     16  H   UNL     1      78.710  85.644  85.853  1.00  0.00     0.293 HD
ENDBRANCH  10  15
ENDBRANCH   6   7
ENDBRANCH   5   6
ENDBRANCH   3   5
ENDBRANCH   2   3
BRANCH   1  17
ATOM     17  C   UNL     1      82.216  92.486  88.710  1.00  0.00     0.027 C 
BRANCH  17  18
ATOM     18  C   UNL     1      82.898  93.838  88.479  1.00  0.00     0.004 C 
BRANCH  18  19
ATOM     19  C   UNL     1      81.949  95.034  88.603  1.00  0.00     0.000 C 
BRANCH  19  20
ATOM     20  C   UNL     1      82.279  96.111  87.568  1.00  0.00    -0.003 C 
ATOM     21  C   UNL     1      83.740  96.054  87.152  1.00  0.00     0.004 C 
ENDBRANCH  19  20
ENDBRANCH  18  19
ENDBRANCH  17  18
ENDBRANCH   1  17
TORSDOF 10
ENDMDL
MODEL 2
REMARK VINA RESULT:    -5.811      2.990      5.694
REMARK INTER + INTRA:          -9.749
REMARK INTER:                  -7.720
REMARK INTRA:                  -2.029
REMARK UNBOUND:                -0.711
REMARK SMILES CCCCC/C=C/C(=O)CCc1ccc(O)c(OC)c1
REMARK SMILES IDX 6 1 7 2 8 3 9 4 10 5 11 6 12 7 17 8 20 9 15 10 14 11 13 12
REMARK SMILES IDX 18 13 19 14 16 15 5 17 4 18 3 19 2 20 1 21
REMARK H PARENT 16 16
REMARK Flexibility Score: inf
ROOT
ATOM      1  C   UNL     1      81.675  89.366  84.308  1.00  0.00    -0.023 C 
ATOM      2  C   UNL     1      82.881  88.964  84.727  1.00  0.00     0.043 C 
ENDROOT
BRANCH   2   3
ATOM      3  C   UNL     1      83.919  89.973  85.074  1.00  0.00     0.155 C 
ATOM      4  O   UNL     1      84.952  90.092  84.418  1.00  0.00    -0.295 OA
BRANCH   3   5
ATOM      5  C   UNL     1      83.662  90.811  86.311  1.00  0.00     0.085 C 
BRANCH   5   6
ATOM      6  C   UNL     1      83.628  89.945  87.571  1.00  0.00     0.044 C 
BRANCH   6   7
ATOM      7  C   UNL     1      82.237  89.792  88.141  1.00  0.00    -0.044 A 
ATOM      8  C   UNL     1      80.757  88.836  89.771  1.00  0.00     0.160 A 
ATOM      9  C   UNL     1      82.042  88.976  89.244  1.00  0.00     0.054 A 
ATOM     10  C   UNL     1      79.686  89.513  89.188  1.00  0.00     0.157 A 
ATOM     11  C   UNL     1      79.900  90.331  88.078  1.00  0.00     0.050 A 
ATOM     12  C   UNL     1      81.184  90.471  87.551  1.00  0.00     0.008 A 
BRANCH   8  13
ATOM     13  O   UNL     1      80.562  88.035  90.855  1.00  0.00    -0.493 OA
ATOM     14  C   UNL     1      81.585  88.028  91.849  1.00  0.00     0.278 C 
ENDBRANCH   8  13
BRANCH  10  15
ATOM     15  O   UNL     1      78.428  89.385  89.693  1.00  0.00    -0.504 OA
ATOM     16  H   UNL     1      78.472  88.815  90.481  1.00  0.00     0.293 HD
ENDBRANCH  10  15
ENDBRANCH   6   7
ENDBRANCH   5   6
ENDBRANCH   3   5
ENDBRANCH   2   3
BRANCH   1  17
ATOM     17  C   UNL     1      80.575  88.412  83.939  1.00  0.00     0.027 C 
BRANCH  17  18
ATOM     18  C   UNL     1      79.820  87.865  85.156  1.00  0.00     0.004 C 
BRANCH  18  19
ATOM     19  C   UNL     1      80.181  86.417  85.501  1.00  0.00     0.000 C 
BRANCH  19  20
ATOM     20  C   UNL     1      80.968  86.342  86.811  1.00  0.00    -0.003 C 
ATOM     21  C   UNL     1      82.368  85.793  86.589  1.00  0.00     0.004 C 
ENDBRANCH  19  20
ENDBRANCH  18  19
ENDBRANCH  17  18
ENDBRANCH   1  17
TORSDOF 10
ENDMDL
MODEL 3
REMARK VINA RESULT:    -5.809      2.304      6.409
REMARK INTER + INTRA:          -9.746
REMARK INTER:                  -8.437
REMARK INTRA:                  -1.309
REMARK UNBOUND:                -0.711
REMARK SMILES CCCCC/C=C/C(=O)CCc1ccc(O)c(OC)c1
REMARK SMILES IDX 6 1 7 2 8 3 9 4 10 5 11 6 12 7 17 8 20 9 15 10 14 11 13 12
REMARK SMILES IDX 18 13 19 14 16 15 5 17 4 18 3 19 2 20 1 21
REMARK H PARENT 16 16
REMARK Flexibility Score: inf
ROOT
ATOM      1  C   UNL     1      80.268  86.381  86.769  1.00  0.00    -0.023 C 
ATOM      2  C   UNL     1      80.990  86.323  87.895  1.00  0.00     0.043 C 
ENDROOT
BRANCH   2   3
ATOM      3  C   UNL     1      80.456  86.919  89.150  1.00  0.00     0.155 C 
ATOM      4  O   UNL     1      79.610  86.344  89.832  1.00  0.00    -0.295 OA
BRANCH   3   5
ATOM      5  C   UNL     1      80.971  88.297  89.516  1.00  0.00     0.085 C 
BRANCH   5   6
ATOM      6  C   UNL     1      80.487  89.353  88.521  1.00  0.00     0.044 C 
BRANCH   6   7
ATOM      7  C   UNL     1      81.601  90.242  88.020  1.00  0.00    -0.044 A 
ATOM      8  C   UNL     1      83.482  90.593  86.571  1.00  0.00     0.160 A 
ATOM      9  C   UNL     1      82.453  89.771  87.034  1.00  0.00     0.054 A 
ATOM     10  C   UNL     1      83.645  91.872  87.100  1.00  0.00     0.157 A 
ATOM     11  C   UNL     1      82.779  92.332  88.093  1.00  0.00     0.050 A 
ATOM     12  C   UNL     1      81.751  91.510  88.556  1.00  0.00     0.008 A 
BRANCH   8  13
ATOM     13  O   UNL     1      84.321  90.133  85.601  1.00  0.00    -0.493 OA
ATOM     14  C   UNL     1      85.661  89.837  85.989  1.00  0.00     0.278 C 
ENDBRANCH   8  13
BRANCH  10  15
ATOM     15  O   UNL     1      84.645  92.684  86.656  1.00  0.00    -0.504 OA
ATOM     16  H   UNL     1      84.606  93.517  87.156  1.00  0.00     0.293 HD
ENDBRANCH  10  15
ENDBRANCH   6   7
ENDBRANCH   5   6
ENDBRANCH   3   5
ENDBRANCH   2   3
BRANCH   1  17
ATOM     17  C   UNL     1      80.735  85.805  85.464  1.00  0.00     0.027 C 
BRANCH  17  18
ATOM     18  C   UNL     1      80.875  86.857  84.358  1.00  0.00     0.004 C 
BRANCH  18  19
ATOM     19  C   UNL     1      79.725  87.869  84.324  1.00  0.00     0.000 C 
BRANCH  19  20
ATOM     20  C   UNL     1      80.253  89.304  84.330  1.00  0.00    -0.003 C 
ATOM     21  C   UNL     1      79.324  90.237  85.091  1.00  0.00     0.004 C 
ENDBRANCH  19  20
ENDBRANCH  18  19
ENDBRANCH  17  18
ENDBRANCH   1  17
TORSDOF 10
ENDMDL
MODEL 4
REMARK VINA RESULT:    -5.794      2.753      4.634
REMARK INTER + INTRA:          -9.723
REMARK INTER:                  -8.525
REMARK INTRA:                  -1.197
REMARK UNBOUND:                -0.711
REMARK SMILES CCCCC/C=C/C(=O)CCc1ccc(O)c(OC)c1
REMARK SMILES IDX 6 1 7 2 8 3 9 4 10 5 11 6 12 7 17 8 20 9 15 10 14 11 13 12
REMARK SMILES IDX 18 13 19 14 16 15 5 17 4 18 3 19 2 20 1 21
REMARK H PARENT 16 16
REMARK Flexibility Score: inf
ROOT
ATOM      1  C   UNL     1      81.818  90.396  88.040  1.00  0.00    -0.023 C 
ATOM      2  C   UNL     1      80.507  90.476  88.299  1.00  0.00     0.043 C 
ENDROOT
BRANCH   2   3
ATOM      3  C   UNL     1      79.938  89.761  89.474  1.00  0.00     0.155 C 
ATOM      4  O   UNL     1      79.316  90.352  90.354  1.00  0.00    -0.295 OA
BRANCH   3   5
ATOM      5  C   UNL     1      80.211  88.272  89.556  1.00  0.00     0.085 C 
BRANCH   5   6
ATOM      6  C   UNL     1      79.529  87.518  88.414  1.00  0.00     0.044 C 
BRANCH   6   7
ATOM      7  C   UNL     1      80.506  86.771  87.537  1.00  0.00    -0.044 A 
ATOM      8  C   UNL     1      81.204  86.048  85.358  1.00  0.00     0.160 A 
ATOM      9  C   UNL     1      80.301  86.737  86.167  1.00  0.00     0.054 A 
ATOM     10  C   UNL     1      82.300  85.401  85.929  1.00  0.00     0.157 A 
ATOM     11  C   UNL     1      82.493  85.444  87.310  1.00  0.00     0.050 A 
ATOM     12  C   UNL     1      81.589  86.133  88.119  1.00  0.00     0.008 A 
BRANCH   8  13
ATOM     13  O   UNL     1      81.004  86.013  84.011  1.00  0.00    -0.493 OA
ATOM     14  C   UNL     1      80.297  87.108  83.431  1.00  0.00     0.278 C 
ENDBRANCH   8  13
BRANCH  10  15
ATOM     15  O   UNL     1      83.189  84.725  85.149  1.00  0.00    -0.504 OA
ATOM     16  H   UNL     1      83.693  84.117  85.717  1.00  0.00     0.293 HD
ENDBRANCH  10  15
ENDBRANCH   6   7
ENDBRANCH   5   6
ENDBRANCH   3   5
ENDBRANCH   2   3
BRANCH   1  17
ATOM     17  C   UNL     1      82.468  91.086  86.876  1.00  0.00     0.027 C 
BRANCH  17  18
ATOM     18  C   UNL     1      83.135  90.115  85.896  1.00  0.00     0.004 C 
BRANCH  18  19
ATOM     19  C   UNL     1      83.885  90.811  84.756  1.00  0.00     0.000 C 
BRANCH  19  20
ATOM     20  C   UNL     1      85.373  90.461  84.781  1.00  0.00    -0.003 C 
ATOM     21  C   UNL     1      85.795  89.913  86.135  1.00  0.00     0.004 C 
ENDBRANCH  19  20
ENDBRANCH  18  19
ENDBRANCH  17  18
ENDBRANCH   1  17
TORSDOF 10
ENDMDL
MODEL 5
REMARK VINA RESULT:    -5.524     24.285     27.009
REMARK INTER + INTRA:          -9.303
REMARK INTER:                  -7.732
REMARK INTRA:                  -1.571
REMARK UNBOUND:                -0.711
REMARK SMILES CCCCC/C=C/C(=O)CCc1ccc(O)c(OC)c1
REMARK SMILES IDX 6 1 7 2 8 3 9 4 10 5 11 6 12 7 17 8 20 9 15 10 14 11 13 12
REMARK SMILES IDX 18 13 19 14 16 15 5 17 4 18 3 19 2 20 1 21
REMARK H PARENT 16 16
REMARK Flexibility Score: inf
ROOT
ATOM      1  C   UNL     1      82.179  67.720  71.114  1.00  0.00    -0.023 C 
ATOM      2  C   UNL     1      80.979  67.522  71.673  1.00  0.00     0.043 C 
ENDROOT
BRANCH   2   3
ATOM      3  C   UNL     1      80.266  66.233  71.462  1.00  0.00     0.155 C 
ATOM      4  O   UNL     1      79.775  65.933  70.376  1.00  0.00    -0.295 OA
BRANCH   3   5
ATOM      5  C   UNL     1      80.131  65.330  72.672  1.00  0.00     0.085 C 
BRANCH   5   6
ATOM      6  C   UNL     1      80.151  66.136  73.972  1.00  0.00     0.044 C 
BRANCH   6   7
ATOM      7  C   UNL     1      81.345  65.820  74.840  1.00  0.00    -0.044 A 
ATOM      8  C   UNL     1      83.051  66.545  76.365  1.00  0.00     0.160 A 
ATOM      9  C   UNL     1      81.948  66.837  75.563  1.00  0.00     0.054 A 
ATOM     10  C   UNL     1      83.537  65.240  76.435  1.00  0.00     0.157 A 
ATOM     11  C   UNL     1      82.920  64.226  75.701  1.00  0.00     0.050 A 
ATOM     12  C   UNL     1      81.817  64.518  74.898  1.00  0.00     0.008 A 
BRANCH   8  13
ATOM     13  O   UNL     1      83.645  67.544  77.076  1.00  0.00    -0.493 OA
ATOM     14  C   UNL     1      84.608  68.343  76.392  1.00  0.00     0.278 C 
ENDBRANCH   8  13
BRANCH  10  15
ATOM     15  O   UNL     1      84.613  64.942  77.215  1.00  0.00    -0.504 OA
ATOM     16  H   UNL     1      84.721  65.652  77.871  1.00  0.00     0.293 HD
ENDBRANCH  10  15
ENDBRANCH   6   7
ENDBRANCH   5   6
ENDBRANCH   3   5
ENDBRANCH   2   3
BRANCH   1  17
ATOM     17  C   UNL     1      82.961  68.991  71.278  1.00  0.00     0.027 C 
BRANCH  17  18
ATOM     18  C   UNL     1      84.096  68.872  72.301  1.00  0.00     0.004 C 
BRANCH  18  19
ATOM     19  C   UNL     1      85.433  68.447  71.686  1.00  0.00     0.000 C 
BRANCH  19  20
ATOM     20  C   UNL     1      85.749  66.986  72.007  1.00  0.00    -0.003 C 
ATOM     21  C   UNL     1      84.959  66.497  73.211  1.00  0.00     0.004 C 
ENDBRANCH  19  20
ENDBRANCH  18  19
ENDBRANCH  17  18
ENDBRANCH   1  17
TORSDOF 10
ENDMDL
MODEL 6
REMARK VINA RESULT:    -5.322     18.111     20.692
REMARK INTER + INTRA:          -8.989
REMARK INTER:                  -7.585
REMARK INTRA:                  -1.404
REMARK UNBOUND:                -0.711
REMARK SMILES CCCCC/C=C/C(=O)CCc1ccc(O)c(OC)c1
REMARK SMILES IDX 6 1 7 2 8 3 9 4 10 5 11 6 12 7 17 8 20 9 15 10 14 11 13 12
REMARK SMILES IDX 18 13 19 14 16 15 5 17 4 18 3 19 2 20 1 21
REMARK H PARENT 16 16
REMARK Flexibility Score: inf
ROOT
ATOM      1  C   UNL     1      99.498  80.964  76.741  1.00  0.00    -0.023 C 
ATOM      2  C   UNL     1      98.814  81.793  75.943  1.00  0.00     0.043 C 
ENDROOT
BRANCH   2   3
ATOM      3  C   UNL     1      97.363  82.022  76.181  1.00  0.00     0.155 C 
ATOM      4  O   UNL     1      96.647  82.567  75.344  1.00  0.00    -0.295 OA
BRANCH   3   5
ATOM      5  C   UNL     1      96.823  81.595  77.532  1.00  0.00     0.085 C 
BRANCH   5   6
ATOM      6  C   UNL     1      96.714  82.785  78.487  1.00  0.00     0.044 C 
BRANCH   6   7
ATOM      7  C   UNL     1      97.446  82.561  79.790  1.00  0.00    -0.044 A 
ATOM      8  C   UNL     1      97.395  82.176  82.158  1.00  0.00     0.160 A 
ATOM      9  C   UNL     1      96.718  82.383  80.955  1.00  0.00     0.054 A 
ATOM     10  C   UNL     1      98.789  82.150  82.179  1.00  0.00     0.157 A 
ATOM     11  C   UNL     1      99.508  82.331  80.997  1.00  0.00     0.050 A 
ATOM     12  C   UNL     1      98.831  82.538  79.794  1.00  0.00     0.008 A 
BRANCH   8  13
ATOM     13  O   UNL     1      96.682  82.000  83.305  1.00  0.00    -0.493 OA
ATOM     14  C   UNL     1      96.214  80.682  83.583  1.00  0.00     0.278 C 
ENDBRANCH   8  13
BRANCH  10  15
ATOM     15  O   UNL     1      99.460  81.948  83.347  1.00  0.00    -0.504 OA
ATOM     16  H   UNL     1      99.256  82.685  83.948  1.00  0.00     0.293 HD
ENDBRANCH  10  15
ENDBRANCH   6   7
ENDBRANCH   5   6
ENDBRANCH   3   5
ENDBRANCH   2   3
BRANCH   1  17
ATOM     17  C   UNL     1     100.962  80.680  76.568  1.00  0.00     0.027 C 
BRANCH  17  18
ATOM     18  C   UNL     1     101.831  81.309  77.662  1.00  0.00     0.004 C 
BRANCH  18  19
ATOM     19  C   UNL     1     102.947  80.389  78.165  1.00  0.00     0.000 C 
BRANCH  19  20
ATOM     20  C   UNL     1     102.895  80.240  79.686  1.00  0.00    -0.003 C 
ATOM     21  C   UNL     1     101.636  79.513  80.132  1.00  0.00     0.004 C 
ENDBRANCH  19  20
ENDBRANCH  18  19
ENDBRANCH  17  18
ENDBRANCH   1  17
TORSDOF 10
ENDMDL
MODEL 7
REMARK VINA RESULT:    -5.229     14.632     17.428
REMARK INTER + INTRA:          -8.844
REMARK INTER:                  -8.158
REMARK INTRA:                  -0.686
REMARK UNBOUND:                -0.711
REMARK SMILES CCCCC/C=C/C(=O)CCc1ccc(O)c(OC)c1
REMARK SMILES IDX 6 1 7 2 8 3 9 4 10 5 11 6 12 7 17 8 20 9 15 10 14 11 13 12
REMARK SMILES IDX 18 13 19 14 16 15 5 17 4 18 3 19 2 20 1 21
REMARK H PARENT 16 16
REMARK Flexibility Score: inf
ROOT
ATOM      1  C   UNL     1      94.640  81.676  84.835  1.00  0.00    -0.023 C 
ATOM      2  C   UNL     1      95.685  81.598  84.001  1.00  0.00     0.043 C 
ENDROOT
BRANCH   2   3
ATOM      3  C   UNL     1      96.778  82.604  84.085  1.00  0.00     0.155 C 
ATOM      4  O   UNL     1      97.084  83.143  85.147  1.00  0.00    -0.295 OA
BRANCH   3   5
ATOM      5  C   UNL     1      97.462  82.970  82.782  1.00  0.00     0.085 C 
BRANCH   5   6
ATOM      6  C   UNL     1      96.461  83.027  81.627  1.00  0.00     0.044 C 
BRANCH   6   7
ATOM      7  C   UNL     1      96.909  82.233  80.423  1.00  0.00    -0.044 A 
ATOM      8  C   UNL     1      96.917  81.897  78.047  1.00  0.00     0.160 A 
ATOM      9  C   UNL     1      96.503  82.630  79.159  1.00  0.00     0.054 A 
ATOM     10  C   UNL     1      97.731  80.777  78.213  1.00  0.00     0.157 A 
ATOM     11  C   UNL     1      98.131  80.390  79.492  1.00  0.00     0.050 A 
ATOM     12  C   UNL     1      97.717  81.123  80.604  1.00  0.00     0.008 A 
BRANCH   8  13
ATOM     13  O   UNL     1      96.519  82.285  76.803  1.00  0.00    -0.493 OA
ATOM     14  C   UNL     1      97.334  83.245  76.131  1.00  0.00     0.278 C 
ENDBRANCH   8  13
BRANCH  10  15
ATOM     15  O   UNL     1      98.142  80.053  77.135  1.00  0.00    -0.504 OA
ATOM     16  H   UNL     1      98.631  79.277  77.457  1.00  0.00     0.293 HD
ENDBRANCH  10  15
ENDBRANCH   6   7
ENDBRANCH   5   6
ENDBRANCH   3   5
ENDBRANCH   2   3
BRANCH   1  17
ATOM     17  C   UNL     1      93.499  80.702  84.814  1.00  0.00     0.027 C 
BRANCH  17  18
ATOM     18  C   UNL     1      92.177  81.313  85.290  1.00  0.00     0.004 C 
BRANCH  18  19
ATOM     19  C   UNL     1      90.958  80.839  84.492  1.00  0.00     0.000 C 
BRANCH  19  20
ATOM     20  C   UNL     1      90.237  79.698  85.212  1.00  0.00    -0.003 C 
ATOM     21  C   UNL     1      89.364  78.901  84.256  1.00  0.00     0.004 C 
ENDBRANCH  19  20
ENDBRANCH  18  19
ENDBRANCH  17  18
ENDBRANCH   1  17
TORSDOF 10
ENDMDL
MODEL 8
REMARK VINA RESULT:    -5.043     18.455     20.967
REMARK INTER + INTRA:          -8.555
REMARK INTER:                  -6.440
REMARK INTRA:                  -2.115
REMARK UNBOUND:                -0.711
REMARK SMILES CCCCC/C=C/C(=O)CCc1ccc(O)c(OC)c1
REMARK SMILES IDX 6 1 7 2 8 3 9 4 10 5 11 6 12 7 17 8 20 9 15 10 14 11 13 12
REMARK SMILES IDX 18 13 19 14 16 15 5 17 4 18 3 19 2 20 1 21
REMARK H PARENT 16 16
REMARK Flexibility Score: inf
ROOT
ATOM      1  C   UNL     1      98.888  81.570  75.001  1.00  0.00    -0.023 C 
ATOM      2  C   UNL     1      98.097  80.492  75.069  1.00  0.00     0.043 C 
ENDROOT
BRANCH   2   3
ATOM      3  C   UNL     1      98.691  79.130  74.981  1.00  0.00     0.155 C 
ATOM      4  O   UNL     1      98.872  78.569  73.903  1.00  0.00    -0.295 OA
BRANCH   3   5
ATOM      5  C   UNL     1      99.013  78.447  76.296  1.00  0.00     0.085 C 
BRANCH   5   6
ATOM      6  C   UNL     1      97.999  78.820  77.379  1.00  0.00     0.044 C 
BRANCH   6   7
ATOM      7  C   UNL     1      98.637  79.475  78.581  1.00  0.00    -0.044 A 
ATOM      8  C   UNL     1      98.784  79.746  80.961  1.00  0.00     0.160 A 
ATOM      9  C   UNL     1      98.194  79.141  79.851  1.00  0.00     0.054 A 
ATOM     10  C   UNL     1      99.809  80.676  80.787  1.00  0.00     0.157 A 
ATOM     11  C   UNL     1     100.243  81.002  79.501  1.00  0.00     0.050 A 
ATOM     12  C   UNL     1      99.653  80.398  78.391  1.00  0.00     0.008 A 
BRANCH   8  13
ATOM     13  O   UNL     1      98.351  79.420  82.211  1.00  0.00    -0.493 OA
ATOM     14  C   UNL     1      97.089  79.945  82.617  1.00  0.00     0.278 C 
ENDBRANCH   8  13
BRANCH  10  15
ATOM     15  O   UNL     1     100.393  81.273  81.862  1.00  0.00    -0.504 OA
ATOM     16  H   UNL     1      99.901  81.014  82.660  1.00  0.00     0.293 HD
ENDBRANCH  10  15
ENDBRANCH   6   7
ENDBRANCH   5   6
ENDBRANCH   3   5
ENDBRANCH   2   3
BRANCH   1  17
ATOM     17  C   UNL     1      98.367  82.976  75.081  1.00  0.00     0.027 C 
BRANCH  17  18
ATOM     18  C   UNL     1      97.109  83.103  75.947  1.00  0.00     0.004 C 
BRANCH  18  19
ATOM     19  C   UNL     1      97.406  83.261  77.441  1.00  0.00     0.000 C 
BRANCH  19  20
ATOM     20  C   UNL     1      96.399  82.484  78.289  1.00  0.00    -0.003 C 
ATOM     21  C   UNL     1      96.741  82.558  79.769  1.00  0.00     0.004 C 
ENDBRANCH  19  20
ENDBRANCH  18  19
ENDBRANCH  17  18
ENDBRANCH   1  17
TORSDOF 10
ENDMDL
MODEL 9
REMARK VINA RESULT:    -5.009     18.195     20.593
REMARK INTER + INTRA:          -8.501
REMARK INTER:                  -6.839
REMARK INTRA:                  -1.663
REMARK UNBOUND:                -0.711
REMARK SMILES CCCCC/C=C/C(=O)CCc1ccc(O)c(OC)c1
REMARK SMILES IDX 6 1 7 2 8 3 9 4 10 5 11 6 12 7 17 8 20 9 15 10 14 11 13 12
REMARK SMILES IDX 18 13 19 14 16 15 5 17 4 18 3 19 2 20 1 21
REMARK H PARENT 16 16
REMARK Flexibility Score: inf
ROOT
ATOM      1  C   UNL     1      97.756  79.740  77.207  1.00  0.00    -0.023 C 
ATOM      2  C   UNL     1      96.719  80.509  77.561  1.00  0.00     0.043 C 
ENDROOT
BRANCH   2   3
ATOM      3  C   UNL     1      96.792  81.984  77.375  1.00  0.00     0.155 C 
ATOM      4  O   UNL     1      96.731  82.502  76.262  1.00  0.00    -0.295 OA
BRANCH   3   5
ATOM      5  C   UNL     1      97.000  82.814  78.627  1.00  0.00     0.085 C 
BRANCH   5   6
ATOM      6  C   UNL     1      98.471  82.828  79.047  1.00  0.00     0.044 C 
BRANCH   6   7
ATOM      7  C   UNL     1      98.666  82.527  80.514  1.00  0.00    -0.044 A 
ATOM      8  C   UNL     1     100.004  81.613  82.283  1.00  0.00     0.160 A 
ATOM      9  C   UNL     1      99.824  81.890  80.928  1.00  0.00     0.054 A 
ATOM     10  C   UNL     1      99.024  81.976  83.206  1.00  0.00     0.157 A 
ATOM     11  C   UNL     1      97.862  82.617  82.773  1.00  0.00     0.050 A 
ATOM     12  C   UNL     1      97.682  82.894  81.418  1.00  0.00     0.008 A 
BRANCH   8  13
ATOM     13  O   UNL     1     101.142  80.986  82.693  1.00  0.00    -0.493 OA
ATOM     14  C   UNL     1     102.237  80.967  81.780  1.00  0.00     0.278 C 
ENDBRANCH   8  13
BRANCH  10  15
ATOM     15  O   UNL     1      99.188  81.712  84.532  1.00  0.00    -0.504 OA
ATOM     16  H   UNL     1      98.326  81.455  84.901  1.00  0.00     0.293 HD
ENDBRANCH  10  15
ENDBRANCH   6   7
ENDBRANCH   5   6
ENDBRANCH   3   5
ENDBRANCH   2   3
BRANCH   1  17
ATOM     17  C   UNL     1      97.760  78.247  77.362  1.00  0.00     0.027 C 
BRANCH  17  18
ATOM     18  C   UNL     1      98.824  77.747  78.346  1.00  0.00     0.004 C 
BRANCH  18  19
ATOM     19  C   UNL     1      99.143  78.745  79.463  1.00  0.00     0.000 C 
BRANCH  19  20
ATOM     20  C   UNL     1      98.879  78.134  80.840  1.00  0.00    -0.003 C 
ATOM     21  C   UNL     1      97.771  78.872  81.574  1.00  0.00     0.004 C 
ENDBRANCH  19  20
ENDBRANCH  18  19
ENDBRANCH  17  18
ENDBRANCH   1  17
TORSDOF 10
ENDMDL
MODEL 10
REMARK VINA RESULT:    -4.925     18.292     20.814
REMARK INTER + INTRA:          -8.372
REMARK INTER:                  -7.328
REMARK INTRA:                  -1.044
REMARK UNBOUND:                -0.711
REMARK SMILES CCCCC/C=C/C(=O)CCc1ccc(O)c(OC)c1
REMARK SMILES IDX 6 1 7 2 8 3 9 4 10 5 11 6 12 7 17 8 20 9 15 10 14 11 13 12
REMARK SMILES IDX 18 13 19 14 16 15 5 17 4 18 3 19 2 20 1 21
REMARK H PARENT 16 16
REMARK Flexibility Score: inf
ROOT
ATOM      1  C   UNL     1      99.144  80.448  77.032  1.00  0.00    -0.023 C 
ATOM      2  C   UNL     1      98.675  81.505  76.358  1.00  0.00     0.043 C 
ENDROOT
BRANCH   2   3
ATOM      3  C   UNL     1      97.244  81.892  76.488  1.00  0.00     0.155 C 
ATOM      4  O   UNL     1      96.660  82.522  75.608  1.00  0.00    -0.295 OA
BRANCH   3   5
ATOM      5  C   UNL     1      96.557  81.516  77.786  1.00  0.00     0.085 C 
BRANCH   5   6
ATOM      6  C   UNL     1      96.609  82.665  78.795  1.00  0.00     0.044 C 
BRANCH   6   7
ATOM      7  C   UNL     1      97.042  82.219  80.171  1.00  0.00    -0.044 A 
ATOM      8  C   UNL     1      98.232  80.677  81.573  1.00  0.00     0.160 A 
ATOM      9  C   UNL     1      97.831  81.088  80.301  1.00  0.00     0.054 A 
ATOM     10  C   UNL     1      97.838  81.402  82.697  1.00  0.00     0.157 A 
ATOM     11  C   UNL     1      97.042  82.539  82.549  1.00  0.00     0.050 A 
ATOM     12  C   UNL     1      96.642  82.950  81.278  1.00  0.00     0.008 A 
BRANCH   8  13
ATOM     13  O   UNL     1      99.008  79.564  81.703  1.00  0.00    -0.493 OA
ATOM     14  C   UNL     1      98.674  78.442  80.889  1.00  0.00     0.278 C 
ENDBRANCH   8  13
BRANCH  10  15
ATOM     15  O   UNL     1      98.223  81.011  83.943  1.00  0.00    -0.504 OA
ATOM     16  H   UNL     1      97.440  80.674  84.413  1.00  0.00     0.293 HD
ENDBRANCH  10  15
ENDBRANCH   6   7
ENDBRANCH   5   6
ENDBRANCH   3   5
ENDBRANCH   2   3
BRANCH   1  17
ATOM     17  C   UNL     1     100.572  79.992  76.955  1.00  0.00     0.027 C 
BRANCH  17  18
ATOM     18  C   UNL     1     101.559  81.002  77.551  1.00  0.00     0.004 C 
BRANCH  18  19
ATOM     19  C   UNL     1     101.991  80.667  78.982  1.00  0.00     0.000 C 
BRANCH  19  20
ATOM     20  C   UNL     1     103.414  80.109  79.012  1.00  0.00    -0.003 C 
ATOM     21  C   UNL     1     104.079  80.203  77.648  1.00  0.00     0.004 C 
ENDBRANCH  19  20
ENDBRANCH  18  19
ENDBRANCH  17  18
ENDBRANCH   1  17
TORSDOF 10
ENDMDL
