MODEL 1
REMARK VINA RESULT:    -7.317      0.000      0.000
REMARK INTER + INTRA:          -8.984
REMARK INTER:                  -8.600
REMARK INTRA:                  -0.383
REMARK UNBOUND:                -0.383
REMARK SMILES O=C(/C=C/C=C/c1ccc2c(c1)OCO2)N1CCCCC1
REMARK SMILES IDX 3 1 4 2 2 3 1 4 16 5 17 6 21 7 18 8 20 9 19 10 5 11 6 12
REMARK SMILES IDX 7 13 12 14 8 15 11 16 9 17 13 18 10 19 14 20 15 21
REMARK H PARENT
REMARK Flexibility Score: inf
ROOT
ATOM      1  C   UNL     1      97.458  81.562  78.789  1.00  0.00     0.071 C 
ATOM      2  C   UNL     1      97.754  80.901  79.907  1.00  0.00     0.006 C 
ENDROOT
BRANCH   1   3
ATOM      3  C   UNL     1      98.240  81.258  77.574  1.00  0.00     0.246 C 
ATOM      4  O   UNL     1      99.123  80.405  77.665  1.00  0.00    -0.270 OA
ATOM      5  N   UNL     1      97.930  81.959  76.410  1.00  0.00    -0.339 N 
ATOM      6  C   UNL     1      98.693  81.683  75.189  1.00  0.00     0.120 C 
ATOM      7  C   UNL     1      96.914  83.014  76.275  1.00  0.00     0.120 C 
ATOM      8  C   UNL     1      97.772  81.361  74.017  1.00  0.00     0.022 C 
ATOM      9  C   UNL     1      95.972  82.728  75.106  1.00  0.00     0.022 C 
ATOM     10  C   UNL     1      96.739  82.465  73.814  1.00  0.00     0.004 C 
ENDBRANCH   1   3
BRANCH   2  11
ATOM     11  C   UNL     1      97.044  81.130  81.147  1.00  0.00     0.001 C 
ATOM     12  C   UNL     1      96.753  82.359  81.601  1.00  0.00     0.008 C 
BRANCH  12  13
ATOM     13  C   UNL     1      96.041  82.649  82.858  1.00  0.00    -0.022 A 
ATOM     14  C   UNL     1      95.980  83.958  83.313  1.00  0.00     0.058 A 
ATOM     15  C   UNL     1      95.447  81.595  83.558  1.00  0.00     0.012 A 
ATOM     16  C   UNL     1      95.302  84.179  84.495  1.00  0.00     0.166 A 
ATOM     17  C   UNL     1      94.767  81.848  84.752  1.00  0.00     0.051 A 
ATOM     18  O   UNL     1      95.132  85.385  85.104  1.00  0.00    -0.454 OA
ATOM     19  C   UNL     1      94.712  83.152  85.195  1.00  0.00     0.165 A 
ATOM     20  C   UNL     1      94.369  85.001  86.266  1.00  0.00     0.468 C 
ATOM     21  O   UNL     1      94.098  83.586  86.330  1.00  0.00    -0.454 OA
ENDBRANCH  12  13
ENDBRANCH   2  11
TORSDOF 3
ENDMDL
MODEL 2
REMARK VINA RESULT:    -7.225      2.905      9.187
REMARK INTER + INTRA:          -8.876
REMARK INTER:                  -8.547
REMARK INTRA:                  -0.328
REMARK UNBOUND:                -0.383
REMARK SMILES O=C(/C=C/C=C/c1ccc2c(c1)OCO2)N1CCCCC1
REMARK SMILES IDX 3 1 4 2 2 3 1 4 16 5 17 6 21 7 18 8 20 9 19 10 5 11 6 12
REMARK SMILES IDX 7 13 12 14 8 15 11 16 9 17 13 18 10 19 14 20 15 21
REMARK H PARENT
REMARK Flexibility Score: inf
ROOT
ATOM      1  C   UNL     1      96.066  81.767  82.832  1.00  0.00     0.071 C 
ATOM      2  C   UNL     1      97.012  81.767  81.894  1.00  0.00     0.006 C 
ENDROOT
BRANCH   1   3
ATOM      3  C   UNL     1      96.455  81.411  84.211  1.00  0.00     0.246 C 
ATOM      4  O   UNL     1      97.658  81.341  84.463  1.00  0.00    -0.270 OA
ATOM      5  N   UNL     1      95.436  81.174  85.132  1.00  0.00    -0.339 N 
ATOM      6  C   UNL     1      95.791  80.813  86.508  1.00  0.00     0.120 C 
ATOM      7  C   UNL     1      93.992  81.204  84.857  1.00  0.00     0.120 C 
ATOM      8  C   UNL     1      95.096  81.719  87.518  1.00  0.00     0.022 C 
ATOM      9  C   UNL     1      93.258  82.101  85.854  1.00  0.00     0.022 C 
ATOM     10  C   UNL     1      93.587  81.729  87.297  1.00  0.00     0.004 C 
ENDBRANCH   1   3
BRANCH   2  11
ATOM     11  C   UNL     1      96.729  82.102  80.515  1.00  0.00     0.001 C 
ATOM     12  C   UNL     1      97.516  81.717  79.497  1.00  0.00     0.008 C 
BRANCH  12  13
ATOM     13  C   UNL     1      97.279  82.036  78.079  1.00  0.00    -0.022 A 
ATOM     14  C   UNL     1      98.274  81.764  77.150  1.00  0.00     0.058 A 
ATOM     15  C   UNL     1      96.058  82.605  77.708  1.00  0.00     0.012 A 
ATOM     16  C   UNL     1      98.005  82.080  75.834  1.00  0.00     0.166 A 
ATOM     17  C   UNL     1      95.813  82.916  76.368  1.00  0.00     0.051 A 
ATOM     18  O   UNL     1      98.847  81.893  74.781  1.00  0.00    -0.454 OA
ATOM     19  C   UNL     1      96.808  82.641  75.453  1.00  0.00     0.165 A 
ATOM     20  C   UNL     1      98.044  82.398  73.695  1.00  0.00     0.468 C 
ATOM     21  O   UNL     1      96.749  82.874  74.114  1.00  0.00    -0.454 OA
ENDBRANCH  12  13
ENDBRANCH   2  11
TORSDOF 3
ENDMDL
MODEL 3
REMARK VINA RESULT:    -6.974     13.695     15.035
REMARK INTER + INTRA:          -8.581
REMARK INTER:                  -8.197
REMARK INTRA:                  -0.384
REMARK UNBOUND:                -0.383
REMARK SMILES O=C(/C=C/C=C/c1ccc2c(c1)OCO2)N1CCCCC1
REMARK SMILES IDX 3 1 4 2 2 3 1 4 16 5 17 6 21 7 18 8 20 9 19 10 5 11 6 12
REMARK SMILES IDX 7 13 12 14 8 15 11 16 9 17 13 18 10 19 14 20 15 21
REMARK H PARENT
REMARK Flexibility Score: inf
ROOT
ATOM      1  C   UNL     1      95.812  96.768  73.765  1.00  0.00     0.071 C 
ATOM      2  C   UNL     1      95.797  96.562  75.081  1.00  0.00     0.006 C 
ENDROOT
BRANCH   1   3
ATOM      3  C   UNL     1      97.024  97.365  73.170  1.00  0.00     0.246 C 
ATOM      4  O   UNL     1      98.018  97.471  73.888  1.00  0.00    -0.270 OA
ATOM      5  N   UNL     1      96.960  97.773  71.838  1.00  0.00    -0.339 N 
ATOM      6  C   UNL     1      98.146  98.374  71.221  1.00  0.00     0.120 C 
ATOM      7  C   UNL     1      95.780  97.704  70.964  1.00  0.00     0.120 C 
ATOM      8  C   UNL     1      98.513  97.671  69.918  1.00  0.00     0.022 C 
ATOM      9  C   UNL     1      96.109  97.007  69.644  1.00  0.00     0.022 C 
ATOM     10  C   UNL     1      97.324  97.632  68.964  1.00  0.00     0.004 C 
ENDBRANCH   1   3
BRANCH   2  11
ATOM     11  C   UNL     1      94.655  95.983  75.756  1.00  0.00     0.001 C 
ATOM     12  C   UNL     1      94.055  94.858  75.333  1.00  0.00     0.008 C 
BRANCH  12  13
ATOM     13  C   UNL     1      92.887  94.232  75.976  1.00  0.00    -0.022 A 
ATOM     14  C   UNL     1      92.458  92.989  75.532  1.00  0.00     0.058 A 
ATOM     15  C   UNL     1      92.244  94.906  77.017  1.00  0.00     0.012 A 
ATOM     16  C   UNL     1      91.361  92.442  76.165  1.00  0.00     0.166 A 
ATOM     17  C   UNL     1      91.135  94.329  77.641  1.00  0.00     0.051 A 
ATOM     18  O   UNL     1      90.789  91.241  75.877  1.00  0.00    -0.454 OA
ATOM     19  C   UNL     1      90.717  93.094  77.192  1.00  0.00     0.165 A 
ATOM     20  C   UNL     1      89.713  91.210  76.837  1.00  0.00     0.468 C 
ATOM     21  O   UNL     1      89.661  92.383  77.675  1.00  0.00    -0.454 OA
ENDBRANCH  12  13
ENDBRANCH   2  11
TORSDOF 3
ENDMDL
MODEL 4
REMARK VINA RESULT:    -6.932      2.548      3.847
REMARK INTER + INTRA:          -8.531
REMARK INTER:                  -8.142
REMARK INTRA:                  -0.389
REMARK UNBOUND:                -0.383
REMARK SMILES O=C(/C=C/C=C/c1ccc2c(c1)OCO2)N1CCCCC1
REMARK SMILES IDX 3 1 4 2 2 3 1 4 16 5 17 6 21 7 18 8 20 9 19 10 5 11 6 12
REMARK SMILES IDX 7 13 12 14 8 15 11 16 9 17 13 18 10 19 14 20 15 21
REMARK H PARENT
REMARK Flexibility Score: inf
ROOT
ATOM      1  C   UNL     1      97.841  82.142  75.787  1.00  0.00     0.071 C 
ATOM      2  C   UNL     1      96.680  82.378  76.395  1.00  0.00     0.006 C 
ENDROOT
BRANCH   1   3
ATOM      3  C   UNL     1      97.908  82.324  74.323  1.00  0.00     0.246 C 
ATOM      4  O   UNL     1      96.861  82.201  73.686  1.00  0.00    -0.270 OA
ATOM      5  N   UNL     1      99.149  82.616  73.761  1.00  0.00    -0.339 N 
ATOM      6  C   UNL     1      99.248  82.797  72.310  1.00  0.00     0.120 C 
ATOM      7  C   UNL     1     100.426  82.726  74.483  1.00  0.00     0.120 C 
ATOM      8  C   UNL     1      99.924  84.117  71.957  1.00  0.00     0.022 C 
ATOM      9  C   UNL     1     101.137  84.038  74.152  1.00  0.00     0.022 C 
ATOM     10  C   UNL     1     101.280  84.239  72.646  1.00  0.00     0.004 C 
ENDBRANCH   1   3
BRANCH   2  11
ATOM     11  C   UNL     1      96.516  82.228  77.825  1.00  0.00     0.001 C 
ATOM     12  C   UNL     1      97.524  81.876  78.639  1.00  0.00     0.008 C 
BRANCH  12  13
ATOM     13  C   UNL     1      97.411  81.701  80.097  1.00  0.00    -0.022 A 
ATOM     14  C   UNL     1      96.564  82.536  80.814  1.00  0.00     0.058 A 
ATOM     15  C   UNL     1      98.159  80.698  80.719  1.00  0.00     0.012 A 
ATOM     16  C   UNL     1      96.491  82.333  82.177  1.00  0.00     0.166 A 
ATOM     17  C   UNL     1      98.066  80.515  82.101  1.00  0.00     0.051 A 
ATOM     18  O   UNL     1      95.725  83.043  83.050  1.00  0.00    -0.454 OA
ATOM     19  C   UNL     1      97.222  81.350  82.804  1.00  0.00     0.165 A 
ATOM     20  C   UNL     1      96.056  82.397  84.295  1.00  0.00     0.468 C 
ATOM     21  O   UNL     1      97.005  81.321  84.147  1.00  0.00    -0.454 OA
ENDBRANCH  12  13
ENDBRANCH   2  11
TORSDOF 3
ENDMDL
MODEL 5
REMARK VINA RESULT:    -6.773      2.596      3.848
REMARK INTER + INTRA:          -8.344
REMARK INTER:                  -7.947
REMARK INTRA:                  -0.398
REMARK UNBOUND:                -0.383
REMARK SMILES O=C(/C=C/C=C/c1ccc2c(c1)OCO2)N1CCCCC1
REMARK SMILES IDX 3 1 4 2 2 3 1 4 16 5 17 6 21 7 18 8 20 9 19 10 5 11 6 12
REMARK SMILES IDX 7 13 12 14 8 15 11 16 9 17 13 18 10 19 14 20 15 21
REMARK H PARENT
REMARK Flexibility Score: inf
ROOT
ATOM      1  C   UNL     1      97.428  82.229  76.748  1.00  0.00     0.071 C 
ATOM      2  C   UNL     1      96.311  82.407  77.450  1.00  0.00     0.006 C 
ENDROOT
BRANCH   1   3
ATOM      3  C   UNL     1      97.363  82.403  75.283  1.00  0.00     0.246 C 
ATOM      4  O   UNL     1      96.341  82.906  74.815  1.00  0.00    -0.270 OA
ATOM      5  N   UNL     1      98.457  81.982  74.529  1.00  0.00    -0.339 N 
ATOM      6  C   UNL     1      98.420  82.137  73.072  1.00  0.00     0.120 C 
ATOM      7  C   UNL     1      99.673  81.338  75.047  1.00  0.00     0.120 C 
ATOM      8  C   UNL     1      99.650  82.876  72.558  1.00  0.00     0.022 C 
ATOM      9  C   UNL     1     100.932  82.049  74.550  1.00  0.00     0.022 C 
ATOM     10  C   UNL     1     100.932  82.199  73.032  1.00  0.00     0.004 C 
ENDBRANCH   1   3
BRANCH   2  11
ATOM     11  C   UNL     1      96.275  82.258  78.889  1.00  0.00     0.001 C 
ATOM     12  C   UNL     1      97.324  81.812  79.600  1.00  0.00     0.008 C 
BRANCH  12  13
ATOM     13  C   UNL     1      97.339  81.635  81.062  1.00  0.00    -0.022 A 
ATOM     14  C   UNL     1      98.131  80.636  81.613  1.00  0.00     0.058 A 
ATOM     15  C   UNL     1      96.555  82.477  81.855  1.00  0.00     0.012 A 
ATOM     16  C   UNL     1      98.112  80.509  82.987  1.00  0.00     0.166 A 
ATOM     17  C   UNL     1      96.555  82.326  83.243  1.00  0.00     0.051 A 
ATOM     18  O   UNL     1      98.813  79.596  83.713  1.00  0.00    -0.454 OA
ATOM     19  C   UNL     1      97.345  81.331  83.780  1.00  0.00     0.165 A 
ATOM     20  C   UNL     1      98.402  79.937  85.053  1.00  0.00     0.468 C 
ATOM     21  O   UNL     1      97.470  81.037  85.103  1.00  0.00    -0.454 OA
ENDBRANCH  12  13
ENDBRANCH   2  11
TORSDOF 3
ENDMDL
MODEL 6
REMARK VINA RESULT:    -6.763     24.237     25.895
REMARK INTER + INTRA:          -8.332
REMARK INTER:                  -7.963
REMARK INTRA:                  -0.369
REMARK UNBOUND:                -0.383
REMARK SMILES O=C(/C=C/C=C/c1ccc2c(c1)OCO2)N1CCCCC1
REMARK SMILES IDX 3 1 4 2 2 3 1 4 16 5 17 6 21 7 18 8 20 9 19 10 5 11 6 12
REMARK SMILES IDX 7 13 12 14 8 15 11 16 9 17 13 18 10 19 14 20 15 21
REMARK H PARENT
REMARK Flexibility Score: inf
ROOT
ATOM      1  C   UNL     1      76.455  85.986  66.326  1.00  0.00     0.071 C 
ATOM      2  C   UNL     1      77.314  86.640  67.106  1.00  0.00     0.006 C 
ENDROOT
BRANCH   1   3
ATOM      3  C   UNL     1      76.771  84.590  65.963  1.00  0.00     0.246 C 
ATOM      4  O   UNL     1      77.900  84.175  66.227  1.00  0.00    -0.270 OA
ATOM      5  N   UNL     1      75.773  83.839  65.343  1.00  0.00    -0.339 N 
ATOM      6  C   UNL     1      76.059  82.452  64.965  1.00  0.00     0.120 C 
ATOM      7  C   UNL     1      74.432  84.314  64.972  1.00  0.00     0.120 C 
ATOM      8  C   UNL     1      75.007  81.496  65.518  1.00  0.00     0.022 C 
ATOM      9  C   UNL     1      73.347  83.378  65.506  1.00  0.00     0.022 C 
ATOM     10  C   UNL     1      73.604  81.929  65.103  1.00  0.00     0.004 C 
ENDBRANCH   1   3
BRANCH   2  11
ATOM     11  C   UNL     1      77.092  88.010  67.516  1.00  0.00     0.001 C 
ATOM     12  C   UNL     1      75.866  88.543  67.636  1.00  0.00     0.008 C 
BRANCH  12  13
ATOM     13  C   UNL     1      75.584  89.931  68.040  1.00  0.00    -0.022 A 
ATOM     14  C   UNL     1      75.642  90.938  67.086  1.00  0.00     0.058 A 
ATOM     15  C   UNL     1      75.264  90.197  69.374  1.00  0.00     0.012 A 
ATOM     16  C   UNL     1      75.370  92.221  67.512  1.00  0.00     0.166 A 
ATOM     17  C   UNL     1      74.993  91.506  69.778  1.00  0.00     0.051 A 
ATOM     18  O   UNL     1      75.377  93.339  66.735  1.00  0.00    -0.454 OA
ATOM     19  C   UNL     1      75.054  92.498  68.822  1.00  0.00     0.165 A 
ATOM     20  C   UNL     1      75.030  94.350  67.703  1.00  0.00     0.468 C 
ATOM     21  O   UNL     1      74.823  93.823  69.030  1.00  0.00    -0.454 OA
ENDBRANCH  12  13
ENDBRANCH   2  11
TORSDOF 3
ENDMDL
MODEL 7
REMARK VINA RESULT:    -6.734      3.208      8.945
REMARK INTER + INTRA:          -8.298
REMARK INTER:                  -7.931
REMARK INTRA:                  -0.367
REMARK UNBOUND:                -0.383
REMARK SMILES O=C(/C=C/C=C/c1ccc2c(c1)OCO2)N1CCCCC1
REMARK SMILES IDX 3 1 4 2 2 3 1 4 16 5 17 6 21 7 18 8 20 9 19 10 5 11 6 12
REMARK SMILES IDX 7 13 12 14 8 15 11 16 9 17 13 18 10 19 14 20 15 21
REMARK H PARENT
REMARK Flexibility Score: inf
ROOT
ATOM      1  C   UNL     1      96.309  81.095  82.465  1.00  0.00     0.071 C 
ATOM      2  C   UNL     1      96.995  82.042  81.828  1.00  0.00     0.006 C 
ENDROOT
BRANCH   1   3
ATOM      3  C   UNL     1      96.648  80.822  83.876  1.00  0.00     0.246 C 
ATOM      4  O   UNL     1      96.994  81.776  84.573  1.00  0.00    -0.270 OA
ATOM      5  N   UNL     1      96.560  79.504  84.322  1.00  0.00    -0.339 N 
ATOM      6  C   UNL     1      96.896  79.201  85.717  1.00  0.00     0.120 C 
ATOM      7  C   UNL     1      96.195  78.334  83.510  1.00  0.00     0.120 C 
ATOM      8  C   UNL     1      95.775  78.429  86.404  1.00  0.00     0.022 C 
ATOM      9  C   UNL     1      95.075  77.530  84.169  1.00  0.00     0.022 C 
ATOM     10  C   UNL     1      95.411  77.176  85.615  1.00  0.00     0.004 C 
ENDBRANCH   1   3
BRANCH   2  11
ATOM     11  C   UNL     1      96.736  82.381  80.445  1.00  0.00     0.001 C 
ATOM     12  C   UNL     1      97.405  81.824  79.423  1.00  0.00     0.008 C 
BRANCH  12  13
ATOM     13  C   UNL     1      97.187  82.138  78.000  1.00  0.00    -0.022 A 
ATOM     14  C   UNL     1      98.170  81.806  77.077  1.00  0.00     0.058 A 
ATOM     15  C   UNL     1      95.997  82.761  77.619  1.00  0.00     0.012 A 
ATOM     16  C   UNL     1      97.920  82.119  75.757  1.00  0.00     0.166 A 
ATOM     17  C   UNL     1      95.770  83.068  76.275  1.00  0.00     0.051 A 
ATOM     18  O   UNL     1      98.753  81.879  74.708  1.00  0.00    -0.454 OA
ATOM     19  C   UNL     1      96.752  82.733  75.366  1.00  0.00     0.165 A 
ATOM     20  C   UNL     1      97.979  82.410  73.614  1.00  0.00     0.468 C 
ATOM     21  O   UNL     1      96.708  82.954  74.024  1.00  0.00    -0.454 OA
ENDBRANCH  12  13
ENDBRANCH   2  11
TORSDOF 3
ENDMDL
MODEL 8
REMARK VINA RESULT:    -6.613      2.906      9.079
REMARK INTER + INTRA:          -8.156
REMARK INTER:                  -7.806
REMARK INTRA:                  -0.350
REMARK UNBOUND:                -0.383
REMARK SMILES O=C(/C=C/C=C/c1ccc2c(c1)OCO2)N1CCCCC1
REMARK SMILES IDX 3 1 4 2 2 3 1 4 16 5 17 6 21 7 18 8 20 9 19 10 5 11 6 12
REMARK SMILES IDX 7 13 12 14 8 15 11 16 9 17 13 18 10 19 14 20 15 21
REMARK H PARENT
REMARK Flexibility Score: inf
ROOT
ATOM      1  C   UNL     1      95.242  82.162  83.848  1.00  0.00     0.071 C 
ATOM      2  C   UNL     1      96.176  82.861  83.206  1.00  0.00     0.006 C 
ENDROOT
BRANCH   1   3
ATOM      3  C   UNL     1      94.944  82.524  85.248  1.00  0.00     0.246 C 
ATOM      4  O   UNL     1      95.788  83.183  85.858  1.00  0.00    -0.270 OA
ATOM      5  N   UNL     1      93.733  82.093  85.787  1.00  0.00    -0.339 N 
ATOM      6  C   UNL     1      93.411  82.433  87.177  1.00  0.00     0.120 C 
ATOM      7  C   UNL     1      92.723  81.269  85.106  1.00  0.00     0.120 C 
ATOM      8  C   UNL     1      92.046  83.102  87.285  1.00  0.00     0.022 C 
ATOM      9  C   UNL     1      91.336  81.907  85.196  1.00  0.00     0.022 C 
ATOM     10  C   UNL     1      90.963  82.245  86.637  1.00  0.00     0.004 C 
ENDBRANCH   1   3
BRANCH   2  11
ATOM     11  C   UNL     1      96.538  82.581  81.833  1.00  0.00     0.001 C 
ATOM     12  C   UNL     1      97.173  81.457  81.463  1.00  0.00     0.008 C 
BRANCH  12  13
ATOM     13  C   UNL     1      97.571  81.126  80.085  1.00  0.00    -0.022 A 
ATOM     14  C   UNL     1      97.269  82.016  79.062  1.00  0.00     0.058 A 
ATOM     15  C   UNL     1      98.242  79.925  79.843  1.00  0.00     0.012 A 
ATOM     16  C   UNL     1      97.663  81.662  77.788  1.00  0.00     0.166 A 
ATOM     17  C   UNL     1      98.629  79.592  78.543  1.00  0.00     0.051 A 
ATOM     18  O   UNL     1      97.460  82.394  76.658  1.00  0.00    -0.454 OA
ATOM     19  C   UNL     1      98.325  80.482  77.535  1.00  0.00     0.165 A 
ATOM     20  C   UNL     1      98.069  81.542  75.666  1.00  0.00     0.468 C 
ATOM     21  O   UNL     1      98.620  80.327  76.215  1.00  0.00    -0.454 OA
ENDBRANCH  12  13
ENDBRANCH   2  11
TORSDOF 3
ENDMDL
MODEL 9
REMARK VINA RESULT:    -6.138     12.542     15.022
REMARK INTER + INTRA:          -7.598
REMARK INTER:                  -7.256
REMARK INTRA:                  -0.342
REMARK UNBOUND:                -0.383
REMARK SMILES O=C(/C=C/C=C/c1ccc2c(c1)OCO2)N1CCCCC1
REMARK SMILES IDX 3 1 4 2 2 3 1 4 16 5 17 6 21 7 18 8 20 9 19 10 5 11 6 12
REMARK SMILES IDX 7 13 12 14 8 15 11 16 9 17 13 18 10 19 14 20 15 21
REMARK H PARENT
REMARK Flexibility Score: inf
ROOT
ATOM      1  C   UNL     1      97.972  95.531  81.427  1.00  0.00     0.071 C 
ATOM      2  C   UNL     1      96.867  94.795  81.322  1.00  0.00     0.006 C 
ENDROOT
BRANCH   1   3
ATOM      3  C   UNL     1      98.915  95.216  82.519  1.00  0.00     0.246 C 
ATOM      4  O   UNL     1      99.603  94.201  82.401  1.00  0.00    -0.270 OA
ATOM      5  N   UNL     1      98.959  96.083  83.609  1.00  0.00    -0.339 N 
ATOM      6  C   UNL     1      99.882  95.794  84.711  1.00  0.00     0.120 C 
ATOM      7  C   UNL     1      98.123  97.277  83.805  1.00  0.00     0.120 C 
ATOM      8  C   UNL     1     100.768  96.994  85.025  1.00  0.00     0.022 C 
ATOM      9  C   UNL     1      98.976  98.504  84.127  1.00  0.00     0.022 C 
ATOM     10  C   UNL     1      99.928  98.240  85.290  1.00  0.00     0.004 C 
ENDBRANCH   1   3
BRANCH   2  11
ATOM     11  C   UNL     1      95.883  95.027  80.286  1.00  0.00     0.001 C 
ATOM     12  C   UNL     1      95.172  94.037  79.724  1.00  0.00     0.008 C 
BRANCH  12  13
ATOM     13  C   UNL     1      94.167  94.216  78.662  1.00  0.00    -0.022 A 
ATOM     14  C   UNL     1      93.141  93.289  78.541  1.00  0.00     0.058 A 
ATOM     15  C   UNL     1      94.274  95.315  77.806  1.00  0.00     0.012 A 
ATOM     16  C   UNL     1      92.223  93.500  77.532  1.00  0.00     0.166 A 
ATOM     17  C   UNL     1      93.331  95.504  76.793  1.00  0.00     0.051 A 
ATOM     18  O   UNL     1      91.152  92.709  77.250  1.00  0.00    -0.454 OA
ATOM     19  C   UNL     1      92.316  94.578  76.681  1.00  0.00     0.165 A 
ATOM     20  C   UNL     1      90.581  93.410  76.126  1.00  0.00     0.468 C 
ATOM     21  O   UNL     1      91.314  94.597  75.760  1.00  0.00    -0.454 OA
ENDBRANCH  12  13
ENDBRANCH   2  11
TORSDOF 3
ENDMDL
MODEL 10
REMARK VINA RESULT:    -6.101     39.338     40.874
REMARK INTER + INTRA:          -7.555
REMARK INTER:                  -7.209
REMARK INTRA:                  -0.346
REMARK UNBOUND:                -0.383
REMARK SMILES O=C(/C=C/C=C/c1ccc2c(c1)OCO2)N1CCCCC1
REMARK SMILES IDX 3 1 4 2 2 3 1 4 16 5 17 6 21 7 18 8 20 9 19 10 5 11 6 12
REMARK SMILES IDX 7 13 12 14 8 15 11 16 9 17 13 18 10 19 14 20 15 21
REMARK H PARENT
REMARK Flexibility Score: inf
ROOT
ATOM      1  C   UNL     1      59.193  85.388  70.890  1.00  0.00     0.071 C 
ATOM      2  C   UNL     1      57.903  85.429  71.221  1.00  0.00     0.006 C 
ENDROOT
BRANCH   1   3
ATOM      3  C   UNL     1      60.098  84.572  71.723  1.00  0.00     0.246 C 
ATOM      4  O   UNL     1      59.824  84.459  72.919  1.00  0.00    -0.270 OA
ATOM      5  N   UNL     1      61.202  83.989  71.104  1.00  0.00    -0.339 N 
ATOM      6  C   UNL     1      62.122  83.177  71.906  1.00  0.00     0.120 C 
ATOM      7  C   UNL     1      61.586  84.138  69.692  1.00  0.00     0.120 C 
ATOM      8  C   UNL     1      62.336  81.801  71.286  1.00  0.00     0.022 C 
ATOM      9  C   UNL     1      61.814  82.777  69.034  1.00  0.00     0.022 C 
ATOM     10  C   UNL     1      62.791  81.920  69.834  1.00  0.00     0.004 C 
ENDBRANCH   1   3
BRANCH   2  11
ATOM     11  C   UNL     1      56.940  86.201  70.466  1.00  0.00     0.001 C 
ATOM     12  C   UNL     1      56.799  87.529  70.611  1.00  0.00     0.008 C 
BRANCH  12  13
ATOM     13  C   UNL     1      55.831  88.360  69.876  1.00  0.00    -0.022 A 
ATOM     14  C   UNL     1      55.396  87.945  68.625  1.00  0.00     0.058 A 
ATOM     15  C   UNL     1      55.376  89.546  70.459  1.00  0.00     0.012 A 
ATOM     16  C   UNL     1      54.489  88.757  67.975  1.00  0.00     0.166 A 
ATOM     17  C   UNL     1      54.458  90.349  69.779  1.00  0.00     0.051 A 
ATOM     18  O   UNL     1      53.947  88.526  66.748  1.00  0.00    -0.454 OA
ATOM     19  C   UNL     1      54.032  89.927  68.537  1.00  0.00     0.165 A 
ATOM     20  C   UNL     1      53.098  89.682  66.601  1.00  0.00     0.468 C 
ATOM     21  O   UNL     1      53.147  90.576  67.732  1.00  0.00    -0.454 OA
ENDBRANCH  12  13
ENDBRANCH   2  11
TORSDOF 3
ENDMDL
