MODEL 1
REMARK VINA RESULT:    -5.833      0.000      0.000
REMARK INTER + INTRA:         -10.070
REMARK INTER:                  -9.073
REMARK INTRA:                  -0.997
REMARK UNBOUND:                -0.997
REMARK SMILES COc1cc(CNC(=O)CCCCCC(C)C)ccc1O
REMARK SMILES IDX 10 1 8 2 7 3 9 5 6 6 5 7 3 8 20 9 4 10 19 11 18 12 2 13 1 14
REMARK SMILES IDX 21 15 11 17 12 18 13 19 14 20 15 21 16 22 17 23
REMARK H PARENT 7 4 21 16
REMARK Flexibility Score: inf
ROOT
ATOM      1  C   UNL     1      77.014  85.644  65.140  1.00  0.00     0.100 C 
ENDROOT
BRANCH   1   2
ATOM      2  C   UNL     1      77.199  84.220  64.794  1.00  0.00     0.220 C 
ATOM      3  N   UNL     1      76.944  83.264  65.731  1.00  0.00    -0.352 N 
ATOM      4  H   UNL     1      76.767  83.617  66.661  1.00  0.00     0.163 HD
ATOM      5  O   UNL     1      77.548  83.917  63.626  1.00  0.00    -0.275 OA
BRANCH   3   6
ATOM      6  C   UNL     1      76.914  81.858  65.484  1.00  0.00     0.151 C 
BRANCH   6   7
ATOM      7  C   UNL     1      75.616  81.391  64.926  1.00  0.00    -0.025 A 
ATOM      8  C   UNL     1      73.206  80.979  65.188  1.00  0.00     0.160 A 
ATOM      9  C   UNL     1      73.133  80.564  63.841  1.00  0.00     0.157 A 
ATOM     10  C   UNL     1      74.450  81.371  65.727  1.00  0.00     0.056 A 
ATOM     11  C   UNL     1      74.291  80.555  63.043  1.00  0.00     0.050 A 
ATOM     12  C   UNL     1      75.522  80.970  63.579  1.00  0.00     0.009 A 
BRANCH   8  13
ATOM     13  O   UNL     1      72.094  80.977  65.988  1.00  0.00    -0.493 OA
ATOM     14  C   UNL     1      71.577  82.292  66.270  1.00  0.00     0.278 C 
ENDBRANCH   8  13
BRANCH   9  15
ATOM     15  O   UNL     1      71.942  80.183  63.314  1.00  0.00    -0.504 OA
ATOM     16  H   UNL     1      71.670  79.351  63.708  1.00  0.00     0.293 HD
ENDBRANCH   9  15
ENDBRANCH   6   7
ENDBRANCH   3   6
ENDBRANCH   1   2
BRANCH   1  17
ATOM     17  C   UNL     1      76.675  85.899  66.633  1.00  0.00     0.010 C 
BRANCH  17  18
ATOM     18  C   UNL     1      77.557  87.027  67.237  1.00  0.00     0.001 C 
BRANCH  18  19
ATOM     19  C   UNL     1      77.914  86.798  68.729  1.00  0.00     0.000 C 
BRANCH  19  20
ATOM     20  C   UNL     1      76.718  87.107  69.675  1.00  0.00     0.003 C 
BRANCH  20  21
ATOM     21  C   UNL     1      76.124  85.866  70.417  1.00  0.00    -0.017 C 
ATOM     22  C   UNL     1      77.050  84.625  70.251  1.00  0.00     0.007 C 
ATOM     23  C   UNL     1      74.679  85.519  69.954  1.00  0.00     0.007 C 
ENDBRANCH  20  21
ENDBRANCH  19  20
ENDBRANCH  18  19
ENDBRANCH  17  18
ENDBRANCH   1  17
TORSDOF 10
ENDMDL
MODEL 2
REMARK VINA RESULT:    -5.817      3.037      7.367
REMARK INTER + INTRA:         -10.044
REMARK INTER:                  -9.232
REMARK INTRA:                  -0.812
REMARK UNBOUND:                -0.997
REMARK SMILES COc1cc(CNC(=O)CCCCCC(C)C)ccc1O
REMARK SMILES IDX 10 1 8 2 7 3 9 5 6 6 5 7 3 8 20 9 4 10 19 11 18 12 2 13 1 14
REMARK SMILES IDX 21 15 11 17 12 18 13 19 14 20 15 21 16 22 17 23
REMARK H PARENT 7 4 21 16
REMARK Flexibility Score: inf
ROOT
ATOM      1  C   UNL     1      77.200  82.945  65.454  1.00  0.00     0.100 C 
ENDROOT
BRANCH   1   2
ATOM      2  C   UNL     1      77.545  83.427  66.807  1.00  0.00     0.220 C 
ATOM      3  N   UNL     1      76.555  83.610  67.725  1.00  0.00    -0.352 N 
ATOM      4  H   UNL     1      75.617  83.524  67.362  1.00  0.00     0.163 HD
ATOM      5  O   UNL     1      78.752  83.619  67.096  1.00  0.00    -0.275 OA
BRANCH   3   6
ATOM      6  C   UNL     1      76.760  83.902  69.108  1.00  0.00     0.151 C 
BRANCH   6   7
ATOM      7  C   UNL     1      76.497  85.326  69.449  1.00  0.00    -0.025 A 
ATOM      8  C   UNL     1      74.976  87.077  70.267  1.00  0.00     0.160 A 
ATOM      9  C   UNL     1      76.015  88.026  70.163  1.00  0.00     0.157 A 
ATOM     10  C   UNL     1      75.217  85.738  69.892  1.00  0.00     0.056 A 
ATOM     11  C   UNL     1      77.284  87.632  69.699  1.00  0.00     0.050 A 
ATOM     12  C   UNL     1      77.525  86.293  69.350  1.00  0.00     0.009 A 
BRANCH   8  13
ATOM     13  O   UNL     1      73.727  87.443  70.698  1.00  0.00    -0.493 OA
ATOM     14  C   UNL     1      72.690  87.236  69.720  1.00  0.00     0.278 C 
ENDBRANCH   8  13
BRANCH   9  15
ATOM     15  O   UNL     1      75.793  89.316  70.519  1.00  0.00    -0.504 OA
ATOM     16  H   UNL     1      76.076  89.897  69.810  1.00  0.00     0.293 HD
ENDBRANCH   9  15
ENDBRANCH   6   7
ENDBRANCH   3   6
ENDBRANCH   1   2
BRANCH   1  17
ATOM     17  C   UNL     1      76.375  81.630  65.436  1.00  0.00     0.010 C 
BRANCH  17  18
ATOM     18  C   UNL     1      75.958  81.235  63.992  1.00  0.00     0.001 C 
BRANCH  18  19
ATOM     19  C   UNL     1      75.029  82.276  63.313  1.00  0.00     0.000 C 
BRANCH  19  20
ATOM     20  C   UNL     1      73.601  81.712  63.057  1.00  0.00     0.003 C 
BRANCH  20  21
ATOM     21  C   UNL     1      73.126  80.629  64.079  1.00  0.00    -0.017 C 
ATOM     22  C   UNL     1      72.238  79.558  63.380  1.00  0.00     0.007 C 
ATOM     23  C   UNL     1      72.371  81.236  65.297  1.00  0.00     0.007 C 
ENDBRANCH  20  21
ENDBRANCH  19  20
ENDBRANCH  18  19
ENDBRANCH  17  18
ENDBRANCH   1  17
TORSDOF 10
ENDMDL
MODEL 3
REMARK VINA RESULT:    -5.733     25.483     27.820
REMARK INTER + INTRA:          -9.914
REMARK INTER:                  -9.100
REMARK INTRA:                  -0.814
REMARK UNBOUND:                -0.997
REMARK SMILES COc1cc(CNC(=O)CCCCCC(C)C)ccc1O
REMARK SMILES IDX 10 1 8 2 7 3 9 5 6 6 5 7 3 8 20 9 4 10 19 11 18 12 2 13 1 14
REMARK SMILES IDX 21 15 11 17 12 18 13 19 14 20 15 21 16 22 17 23
REMARK H PARENT 7 4 21 16
REMARK Flexibility Score: inf
ROOT
ATOM      1  C   UNL     1      98.207  82.828  84.524  1.00  0.00     0.100 C 
ENDROOT
BRANCH   1   2
ATOM      2  C   UNL     1      98.689  82.226  83.263  1.00  0.00     0.220 C 
ATOM      3  N   UNL     1      99.322  83.010  82.345  1.00  0.00    -0.352 N 
ATOM      4  H   UNL     1      99.298  84.000  82.544  1.00  0.00     0.163 HD
ATOM      5  O   UNL     1      98.543  80.992  83.082  1.00  0.00    -0.275 OA
BRANCH   3   6
ATOM      6  C   UNL     1      99.985  82.534  81.174  1.00  0.00     0.151 C 
BRANCH   6   7
ATOM      7  C   UNL     1      99.299  82.925  79.914  1.00  0.00    -0.025 A 
ATOM      8  C   UNL     1      99.346  83.271  77.479  1.00  0.00     0.160 A 
ATOM      9  C   UNL     1      97.975  83.605  77.503  1.00  0.00     0.157 A 
ATOM     10  C   UNL     1     100.003  82.952  78.687  1.00  0.00     0.056 A 
ATOM     11  C   UNL     1      97.271  83.608  78.721  1.00  0.00     0.050 A 
ATOM     12  C   UNL     1      97.926  83.265  79.917  1.00  0.00     0.009 A 
BRANCH   8  13
ATOM     13  O   UNL     1     100.054  83.282  76.306  1.00  0.00    -0.493 OA
ATOM     14  C   UNL     1     101.386  82.746  76.426  1.00  0.00     0.278 C 
ENDBRANCH   8  13
BRANCH   9  15
ATOM     15  O   UNL     1      97.334  83.916  76.349  1.00  0.00    -0.504 OA
ATOM     16  H   UNL     1      96.481  83.476  76.327  1.00  0.00     0.293 HD
ENDBRANCH   9  15
ENDBRANCH   6   7
ENDBRANCH   3   6
ENDBRANCH   1   2
BRANCH   1  17
ATOM     17  C   UNL     1      97.150  83.949  84.333  1.00  0.00     0.010 C 
BRANCH  17  18
ATOM     18  C   UNL     1      97.383  85.129  85.316  1.00  0.00     0.001 C 
BRANCH  18  19
ATOM     19  C   UNL     1      96.106  85.545  86.092  1.00  0.00     0.000 C 
BRANCH  19  20
ATOM     20  C   UNL     1      95.807  84.594  87.287  1.00  0.00     0.003 C 
BRANCH  20  21
ATOM     21  C   UNL     1      94.425  83.866  87.221  1.00  0.00    -0.017 C 
ATOM     22  C   UNL     1      93.767  83.797  88.631  1.00  0.00     0.007 C 
ATOM     23  C   UNL     1      94.522  82.440  86.607  1.00  0.00     0.007 C 
ENDBRANCH  20  21
ENDBRANCH  19  20
ENDBRANCH  18  19
ENDBRANCH  17  18
ENDBRANCH   1  17
TORSDOF 10
ENDMDL
MODEL 4
REMARK VINA RESULT:    -5.627     26.032     28.979
REMARK INTER + INTRA:          -9.748
REMARK INTER:                  -8.822
REMARK INTRA:                  -0.926
REMARK UNBOUND:                -0.997
REMARK SMILES COc1cc(CNC(=O)CCCCCC(C)C)ccc1O
REMARK SMILES IDX 10 1 8 2 7 3 9 5 6 6 5 7 3 8 20 9 4 10 19 11 18 12 2 13 1 14
REMARK SMILES IDX 21 15 11 17 12 18 13 19 14 20 15 21 16 22 17 23
REMARK H PARENT 7 4 21 16
REMARK Flexibility Score: inf
ROOT
ATOM      1  C   UNL     1      99.838  80.951  80.015  1.00  0.00     0.100 C 
ENDROOT
BRANCH   1   2
ATOM      2  C   UNL     1     100.126  81.313  81.418  1.00  0.00     0.220 C 
ATOM      3  N   UNL     1      99.164  81.133  82.367  1.00  0.00    -0.352 N 
ATOM      4  H   UNL     1      98.255  80.880  82.008  1.00  0.00     0.163 HD
ATOM      5  O   UNL     1     101.268  81.741  81.715  1.00  0.00    -0.275 OA
BRANCH   3   6
ATOM      6  C   UNL     1      99.361  81.276  83.774  1.00  0.00     0.151 C 
BRANCH   6   7
ATOM      7  C   UNL     1      98.701  82.485  84.337  1.00  0.00    -0.025 A 
ATOM      8  C   UNL     1      98.469  84.144  86.137  1.00  0.00     0.160 A 
ATOM      9  C   UNL     1      97.493  84.825  85.380  1.00  0.00     0.157 A 
ATOM     10  C   UNL     1      99.053  82.968  85.620  1.00  0.00     0.056 A 
ATOM     11  C   UNL     1      97.116  84.339  84.115  1.00  0.00     0.050 A 
ATOM     12  C   UNL     1      97.719  83.181  83.595  1.00  0.00     0.009 A 
BRANCH   8  13
ATOM     13  O   UNL     1      98.835  84.590  87.380  1.00  0.00    -0.493 OA
ATOM     14  C   UNL     1     100.068  84.022  87.862  1.00  0.00     0.278 C 
ENDBRANCH   8  13
BRANCH   9  15
ATOM     15  O   UNL     1      96.923  85.955  85.869  1.00  0.00    -0.504 OA
ATOM     16  H   UNL     1      97.329  86.180  86.710  1.00  0.00     0.293 HD
ENDBRANCH   9  15
ENDBRANCH   6   7
ENDBRANCH   3   6
ENDBRANCH   1   2
BRANCH   1  17
ATOM     17  C   UNL     1      98.526  81.563  79.454  1.00  0.00     0.010 C 
BRANCH  17  18
ATOM     18  C   UNL     1      98.597  83.114  79.395  1.00  0.00     0.001 C 
BRANCH  18  19
ATOM     19  C   UNL     1      97.353  83.763  78.734  1.00  0.00     0.000 C 
BRANCH  19  20
ATOM     20  C   UNL     1      97.604  84.134  77.244  1.00  0.00     0.003 C 
BRANCH  20  21
ATOM     21  C   UNL     1      98.833  83.426  76.586  1.00  0.00    -0.017 C 
ATOM     22  C   UNL     1      99.647  84.425  75.711  1.00  0.00     0.007 C 
ATOM     23  C   UNL     1      98.431  82.182  75.741  1.00  0.00     0.007 C 
ENDBRANCH  20  21
ENDBRANCH  19  20
ENDBRANCH  18  19
ENDBRANCH  17  18
ENDBRANCH   1  17
TORSDOF 10
ENDMDL
MODEL 5
REMARK VINA RESULT:    -5.433      1.350      2.238
REMARK INTER + INTRA:          -9.447
REMARK INTER:                  -8.258
REMARK INTRA:                  -1.189
REMARK UNBOUND:                -0.997
REMARK SMILES COc1cc(CNC(=O)CCCCCC(C)C)ccc1O
REMARK SMILES IDX 10 1 8 2 7 3 9 5 6 6 5 7 3 8 20 9 4 10 19 11 18 12 2 13 1 14
REMARK SMILES IDX 21 15 11 17 12 18 13 19 14 20 15 21 16 22 17 23
REMARK H PARENT 7 4 21 16
REMARK Flexibility Score: inf
ROOT
ATOM      1  C   UNL     1      77.113  86.890  64.765  1.00  0.00     0.100 C 
ENDROOT
BRANCH   1   2
ATOM      2  C   UNL     1      76.688  85.636  64.109  1.00  0.00     0.220 C 
ATOM      3  N   UNL     1      76.792  84.458  64.787  1.00  0.00    -0.352 N 
ATOM      4  H   UNL     1      77.288  84.515  65.665  1.00  0.00     0.163 HD
ATOM      5  O   UNL     1      76.198  85.688  62.955  1.00  0.00    -0.275 OA
BRANCH   3   6
ATOM      6  C   UNL     1      76.263  83.207  64.346  1.00  0.00     0.151 C 
BRANCH   6   7
ATOM      7  C   UNL     1      74.932  82.896  64.932  1.00  0.00    -0.025 A 
ATOM      8  C   UNL     1      72.810  81.655  64.865  1.00  0.00     0.160 A 
ATOM      9  C   UNL     1      72.423  82.254  66.083  1.00  0.00     0.157 A 
ATOM     10  C   UNL     1      74.052  81.994  64.288  1.00  0.00     0.056 A 
ATOM     11  C   UNL     1      73.279  83.174  66.718  1.00  0.00     0.050 A 
ATOM     12  C   UNL     1      74.525  83.488  66.150  1.00  0.00     0.009 A 
BRANCH   8  13
ATOM     13  O   UNL     1      71.983  80.772  64.220  1.00  0.00    -0.493 OA
ATOM     14  C   UNL     1      72.680  79.821  63.393  1.00  0.00     0.278 C 
ENDBRANCH   8  13
BRANCH   9  15
ATOM     15  O   UNL     1      71.230  81.938  66.645  1.00  0.00    -0.504 OA
ATOM     16  H   UNL     1      71.142  82.391  67.486  1.00  0.00     0.293 HD
ENDBRANCH   9  15
ENDBRANCH   6   7
ENDBRANCH   3   6
ENDBRANCH   1   2
BRANCH   1  17
ATOM     17  C   UNL     1      76.701  87.002  66.257  1.00  0.00     0.010 C 
BRANCH  17  18
ATOM     18  C   UNL     1      77.911  87.368  67.160  1.00  0.00     0.001 C 
BRANCH  18  19
ATOM     19  C   UNL     1      78.245  86.279  68.213  1.00  0.00     0.000 C 
BRANCH  19  20
ATOM     20  C   UNL     1      77.510  86.521  69.563  1.00  0.00     0.003 C 
BRANCH  20  21
ATOM     21  C   UNL     1      76.684  85.304  70.093  1.00  0.00    -0.017 C 
ATOM     22  C   UNL     1      76.738  84.116  69.087  1.00  0.00     0.007 C 
ATOM     23  C   UNL     1      75.204  85.669  70.407  1.00  0.00     0.007 C 
ENDBRANCH  20  21
ENDBRANCH  19  20
ENDBRANCH  18  19
ENDBRANCH  17  18
ENDBRANCH   1  17
TORSDOF 10
ENDMDL
MODEL 6
REMARK VINA RESULT:    -5.415     25.425     28.116
REMARK INTER + INTRA:          -9.418
REMARK INTER:                  -8.573
REMARK INTRA:                  -0.846
REMARK UNBOUND:                -0.997
REMARK SMILES COc1cc(CNC(=O)CCCCCC(C)C)ccc1O
REMARK SMILES IDX 10 1 8 2 7 3 9 5 6 6 5 7 3 8 20 9 4 10 19 11 18 12 2 13 1 14
REMARK SMILES IDX 21 15 11 17 12 18 13 19 14 20 15 21 16 22 17 23
REMARK H PARENT 7 4 21 16
REMARK Flexibility Score: inf
ROOT
ATOM      1  C   UNL     1     100.388  81.340  83.318  1.00  0.00     0.100 C 
ENDROOT
BRANCH   1   2
ATOM      2  C   UNL     1     101.071  81.664  82.049  1.00  0.00     0.220 C 
ATOM      3  N   UNL     1     100.440  81.417  80.866  1.00  0.00    -0.352 N 
ATOM      4  H   UNL     1      99.579  80.894  80.945  1.00  0.00     0.163 HD
ATOM      5  O   UNL     1     102.205  82.201  82.087  1.00  0.00    -0.275 OA
BRANCH   3   6
ATOM      6  C   UNL     1     100.906  81.835  79.583  1.00  0.00     0.151 C 
BRANCH   6   7
ATOM      7  C   UNL     1      99.886  82.595  78.811  1.00  0.00    -0.025 A 
ATOM      8  C   UNL     1      99.153  83.663  76.720  1.00  0.00     0.160 A 
ATOM      9  C   UNL     1      97.916  83.982  77.319  1.00  0.00     0.157 A 
ATOM     10  C   UNL     1     100.137  82.988  77.475  1.00  0.00     0.056 A 
ATOM     11  C   UNL     1      97.666  83.619  78.656  1.00  0.00     0.050 A 
ATOM     12  C   UNL     1      98.640  82.926  79.394  1.00  0.00     0.009 A 
BRANCH   8  13
ATOM     13  O   UNL     1      99.424  84.024  75.427  1.00  0.00    -0.493 OA
ATOM     14  C   UNL     1     100.292  85.168  75.312  1.00  0.00     0.278 C 
ENDBRANCH   8  13
BRANCH   9  15
ATOM     15  O   UNL     1      96.965  84.633  76.604  1.00  0.00    -0.504 OA
ATOM     16  H   UNL     1      96.294  84.974  77.199  1.00  0.00     0.293 HD
ENDBRANCH   9  15
ENDBRANCH   6   7
ENDBRANCH   3   6
ENDBRANCH   1   2
BRANCH   1  17
ATOM     17  C   UNL     1      99.260  82.333  83.708  1.00  0.00     0.010 C 
BRANCH  17  18
ATOM     18  C   UNL     1      97.965  81.589  84.136  1.00  0.00     0.001 C 
BRANCH  18  19
ATOM     19  C   UNL     1      97.009  82.460  84.993  1.00  0.00     0.000 C 
BRANCH  19  20
ATOM     20  C   UNL     1      96.894  83.915  84.451  1.00  0.00     0.003 C 
BRANCH  20  21
ATOM     21  C   UNL     1      97.351  85.029  85.448  1.00  0.00    -0.017 C 
ATOM     22  C   UNL     1      98.280  84.441  86.550  1.00  0.00     0.007 C 
ATOM     23  C   UNL     1      96.156  85.781  86.103  1.00  0.00     0.007 C 
ENDBRANCH  20  21
ENDBRANCH  19  20
ENDBRANCH  18  19
ENDBRANCH  17  18
ENDBRANCH   1  17
TORSDOF 10
ENDMDL
MODEL 7
REMARK VINA RESULT:    -5.348     12.717     15.530
REMARK INTER + INTRA:          -9.315
REMARK INTER:                  -7.648
REMARK INTRA:                  -1.667
REMARK UNBOUND:                -0.997
REMARK SMILES COc1cc(CNC(=O)CCCCCC(C)C)ccc1O
REMARK SMILES IDX 10 1 8 2 7 3 9 5 6 6 5 7 3 8 20 9 4 10 19 11 18 12 2 13 1 14
REMARK SMILES IDX 21 15 11 17 12 18 13 19 14 20 15 21 16 22 17 23
REMARK H PARENT 7 4 21 16
REMARK Flexibility Score: inf
ROOT
ATOM      1  C   UNL     1      64.476  81.698  71.271  1.00  0.00     0.100 C 
ENDROOT
BRANCH   1   2
ATOM      2  C   UNL     1      63.989  82.721  70.322  1.00  0.00     0.220 C 
ATOM      3  N   UNL     1      62.663  82.767  70.010  1.00  0.00    -0.352 N 
ATOM      4  H   UNL     1      62.116  81.994  70.361  1.00  0.00     0.163 HD
ATOM      5  O   UNL     1      64.803  83.554  69.854  1.00  0.00    -0.275 OA
BRANCH   3   6
ATOM      6  C   UNL     1      62.034  83.800  69.250  1.00  0.00     0.151 C 
BRANCH   6   7
ATOM      7  C   UNL     1      61.169  84.687  70.074  1.00  0.00    -0.025 A 
ATOM      8  C   UNL     1      60.905  86.646  71.537  1.00  0.00     0.160 A 
ATOM      9  C   UNL     1      59.514  86.416  71.590  1.00  0.00     0.157 A 
ATOM     10  C   UNL     1      61.726  85.770  70.796  1.00  0.00     0.056 A 
ATOM     11  C   UNL     1      58.953  85.327  70.898  1.00  0.00     0.050 A 
ATOM     12  C   UNL     1      59.773  84.472  70.141  1.00  0.00     0.009 A 
BRANCH   8  13
ATOM     13  O   UNL     1      61.473  87.689  72.220  1.00  0.00    -0.493 OA
ATOM     14  C   UNL     1      62.679  87.336  72.923  1.00  0.00     0.278 C 
ENDBRANCH   8  13
BRANCH   9  15
ATOM     15  O   UNL     1      58.716  87.251  72.301  1.00  0.00    -0.504 OA
ATOM     16  H   UNL     1      58.317  87.894  71.710  1.00  0.00     0.293 HD
ENDBRANCH   9  15
ENDBRANCH   6   7
ENDBRANCH   3   6
ENDBRANCH   1   2
BRANCH   1  17
ATOM     17  C   UNL     1      64.317  82.088  72.765  1.00  0.00     0.010 C 
BRANCH  17  18
ATOM     18  C   UNL     1      63.344  81.129  73.507  1.00  0.00     0.001 C 
BRANCH  18  19
ATOM     19  C   UNL     1      61.875  81.627  73.514  1.00  0.00     0.000 C 
BRANCH  19  20
ATOM     20  C   UNL     1      61.780  83.178  73.601  1.00  0.00     0.003 C 
BRANCH  20  21
ATOM     21  C   UNL     1      61.461  83.742  75.024  1.00  0.00    -0.017 C 
ATOM     22  C   UNL     1      60.694  85.093  74.928  1.00  0.00     0.007 C 
ATOM     23  C   UNL     1      62.733  83.911  75.905  1.00  0.00     0.007 C 
ENDBRANCH  20  21
ENDBRANCH  19  20
ENDBRANCH  18  19
ENDBRANCH  17  18
ENDBRANCH   1  17
TORSDOF 10
ENDMDL
MODEL 8
REMARK VINA RESULT:    -5.345      3.008      4.156
REMARK INTER + INTRA:          -9.310
REMARK INTER:                  -8.667
REMARK INTRA:                  -0.643
REMARK UNBOUND:                -0.997
REMARK SMILES COc1cc(CNC(=O)CCCCCC(C)C)ccc1O
REMARK SMILES IDX 10 1 8 2 7 3 9 5 6 6 5 7 3 8 20 9 4 10 19 11 18 12 2 13 1 14
REMARK SMILES IDX 21 15 11 17 12 18 13 19 14 20 15 21 16 22 17 23
REMARK H PARENT 7 4 21 16
REMARK Flexibility Score: inf
ROOT
ATOM      1  C   UNL     1      77.447  86.710  69.592  1.00  0.00     0.100 C 
ENDROOT
BRANCH   1   2
ATOM      2  C   UNL     1      77.353  85.349  69.026  1.00  0.00     0.220 C 
ATOM      3  N   UNL     1      78.251  84.953  68.080  1.00  0.00    -0.352 N 
ATOM      4  H   UNL     1      78.852  85.687  67.732  1.00  0.00     0.163 HD
ATOM      5  O   UNL     1      76.472  84.568  69.461  1.00  0.00    -0.275 OA
BRANCH   3   6
ATOM      6  C   UNL     1      78.385  83.623  67.578  1.00  0.00     0.151 C 
BRANCH   6   7
ATOM      7  C   UNL     1      77.574  83.376  66.355  1.00  0.00    -0.025 A 
ATOM      8  C   UNL     1      75.669  82.291  65.243  1.00  0.00     0.160 A 
ATOM      9  C   UNL     1      75.992  82.958  64.043  1.00  0.00     0.157 A 
ATOM     10  C   UNL     1      76.472  82.489  66.386  1.00  0.00     0.056 A 
ATOM     11  C   UNL     1      77.102  83.822  63.994  1.00  0.00     0.050 A 
ATOM     12  C   UNL     1      77.884  84.034  65.142  1.00  0.00     0.009 A 
BRANCH   8  13
ATOM     13  O   UNL     1      74.604  81.431  65.306  1.00  0.00    -0.493 OA
ATOM     14  C   UNL     1      73.451  81.980  65.972  1.00  0.00     0.278 C 
ENDBRANCH   8  13
BRANCH   9  15
ATOM     15  O   UNL     1      75.227  82.773  62.938  1.00  0.00    -0.504 OA
ATOM     16  H   UNL     1      74.306  82.932  63.155  1.00  0.00     0.293 HD
ENDBRANCH   9  15
ENDBRANCH   6   7
ENDBRANCH   3   6
ENDBRANCH   1   2
BRANCH   1  17
ATOM     17  C   UNL     1      76.265  87.642  69.212  1.00  0.00     0.010 C 
BRANCH  17  18
ATOM     18  C   UNL     1      75.321  87.891  70.421  1.00  0.00     0.001 C 
BRANCH  18  19
ATOM     19  C   UNL     1      75.314  89.365  70.905  1.00  0.00     0.000 C 
BRANCH  19  20
ATOM     20  C   UNL     1      73.874  89.890  71.171  1.00  0.00     0.003 C 
BRANCH  20  21
ATOM     21  C   UNL     1      73.068  89.092  72.247  1.00  0.00    -0.017 C 
ATOM     22  C   UNL     1      71.837  88.385  71.608  1.00  0.00     0.007 C 
ATOM     23  C   UNL     1      72.613  89.979  73.442  1.00  0.00     0.007 C 
ENDBRANCH  20  21
ENDBRANCH  19  20
ENDBRANCH  18  19
ENDBRANCH  17  18
ENDBRANCH   1  17
TORSDOF 10
ENDMDL
MODEL 9
REMARK VINA RESULT:    -5.275     25.419     28.217
REMARK INTER + INTRA:          -9.201
REMARK INTER:                  -8.207
REMARK INTRA:                  -0.994
REMARK UNBOUND:                -0.997
REMARK SMILES COc1cc(CNC(=O)CCCCCC(C)C)ccc1O
REMARK SMILES IDX 10 1 8 2 7 3 9 5 6 6 5 7 3 8 20 9 4 10 19 11 18 12 2 13 1 14
REMARK SMILES IDX 21 15 11 17 12 18 13 19 14 20 15 21 16 22 17 23
REMARK H PARENT 7 4 21 16
REMARK Flexibility Score: inf
ROOT
ATOM      1  C   UNL     1     103.839  81.341  79.757  1.00  0.00     0.100 C 
ENDROOT
BRANCH   1   2
ATOM      2  C   UNL     1     102.473  80.840  80.016  1.00  0.00     0.220 C 
ATOM      3  N   UNL     1     101.513  81.706  80.446  1.00  0.00    -0.352 N 
ATOM      4  H   UNL     1     101.849  82.628  80.687  1.00  0.00     0.163 HD
ATOM      5  O   UNL     1     102.216  79.632  79.793  1.00  0.00    -0.275 OA
BRANCH   3   6
ATOM      6  C   UNL     1     100.124  81.398  80.568  1.00  0.00     0.151 C 
BRANCH   6   7
ATOM      7  C   UNL     1      99.280  82.096  79.560  1.00  0.00    -0.025 A 
ATOM      8  C   UNL     1      98.635  82.482  77.218  1.00  0.00     0.160 A 
ATOM      9  C   UNL     1      97.629  83.374  77.645  1.00  0.00     0.157 A 
ATOM     10  C   UNL     1      99.467  81.863  78.177  1.00  0.00     0.056 A 
ATOM     11  C   UNL     1      97.452  83.633  79.017  1.00  0.00     0.050 A 
ATOM     12  C   UNL     1      98.267  82.995  79.967  1.00  0.00     0.009 A 
BRANCH   8  13
ATOM     13  O   UNL     1      98.837  82.231  75.887  1.00  0.00    -0.493 OA
ATOM     14  C   UNL     1      98.644  80.852  75.518  1.00  0.00     0.278 C 
ENDBRANCH   8  13
BRANCH   9  15
ATOM     15  O   UNL     1      96.826  83.975  76.732  1.00  0.00    -0.504 OA
ATOM     16  H   UNL     1      96.979  83.589  75.867  1.00  0.00     0.293 HD
ENDBRANCH   9  15
ENDBRANCH   6   7
ENDBRANCH   3   6
ENDBRANCH   1   2
BRANCH   1  17
ATOM     17  C   UNL     1     104.204  81.452  78.252  1.00  0.00     0.010 C 
BRANCH  17  18
ATOM     18  C   UNL     1     102.961  81.791  77.385  1.00  0.00     0.001 C 
BRANCH  18  19
ATOM     19  C   UNL     1     103.142  83.068  76.522  1.00  0.00     0.000 C 
BRANCH  19  20
ATOM     20  C   UNL     1     101.883  83.982  76.553  1.00  0.00     0.003 C 
BRANCH  20  21
ATOM     21  C   UNL     1     102.028  85.332  75.778  1.00  0.00    -0.017 C 
ATOM     22  C   UNL     1     100.796  85.580  74.858  1.00  0.00     0.007 C 
ATOM     23  C   UNL     1     103.341  85.414  74.946  1.00  0.00     0.007 C 
ENDBRANCH  20  21
ENDBRANCH  19  20
ENDBRANCH  18  19
ENDBRANCH  17  18
ENDBRANCH   1  17
TORSDOF 10
ENDMDL
MODEL 10
REMARK VINA RESULT:    -5.064     14.993     18.448
REMARK INTER + INTRA:          -8.873
REMARK INTER:                  -8.140
REMARK INTRA:                  -0.733
REMARK UNBOUND:                -0.997
REMARK SMILES COc1cc(CNC(=O)CCCCCC(C)C)ccc1O
REMARK SMILES IDX 10 1 8 2 7 3 9 5 6 6 5 7 3 8 20 9 4 10 19 11 18 12 2 13 1 14
REMARK SMILES IDX 21 15 11 17 12 18 13 19 14 20 15 21 16 22 17 23
REMARK H PARENT 7 4 21 16
REMARK Flexibility Score: inf
ROOT
ATOM      1  C   UNL     1      58.462  88.651  70.128  1.00  0.00     0.100 C 
ENDROOT
BRANCH   1   2
ATOM      2  C   UNL     1      58.569  87.585  71.146  1.00  0.00     0.220 C 
ATOM      3  N   UNL     1      58.405  86.285  70.773  1.00  0.00    -0.352 N 
ATOM      4  H   UNL     1      58.083  86.152  69.825  1.00  0.00     0.163 HD
ATOM      5  O   UNL     1      58.852  87.898  72.328  1.00  0.00    -0.275 OA
BRANCH   3   6
ATOM      6  C   UNL     1      58.650  85.153  71.609  1.00  0.00     0.151 C 
BRANCH   6   7
ATOM      7  C   UNL     1      60.031  84.616  71.474  1.00  0.00    -0.025 A 
ATOM      8  C   UNL     1      61.990  83.499  72.456  1.00  0.00     0.160 A 
ATOM      9  C   UNL     1      62.635  83.533  71.201  1.00  0.00     0.157 A 
ATOM     10  C   UNL     1      60.700  84.058  72.589  1.00  0.00     0.056 A 
ATOM     11  C   UNL     1      61.989  84.109  70.092  1.00  0.00     0.050 A 
ATOM     12  C   UNL     1      60.695  84.642  70.225  1.00  0.00     0.009 A 
BRANCH   8  13
ATOM     13  O   UNL     1      62.609  82.960  73.553  1.00  0.00    -0.493 OA
ATOM     14  C   UNL     1      62.207  81.607  73.841  1.00  0.00     0.278 C 
ENDBRANCH   8  13
BRANCH   9  15
ATOM     15  O   UNL     1      63.875  83.001  71.063  1.00  0.00    -0.504 OA
ATOM     16  H   UNL     1      64.509  83.704  70.908  1.00  0.00     0.293 HD
ENDBRANCH   9  15
ENDBRANCH   6   7
ENDBRANCH   3   6
ENDBRANCH   1   2
BRANCH   1  17
ATOM     17  C   UNL     1      57.142  88.623  69.310  1.00  0.00     0.010 C 
BRANCH  17  18
ATOM     18  C   UNL     1      56.331  89.936  69.486  1.00  0.00     0.001 C 
BRANCH  18  19
ATOM     19  C   UNL     1      55.066  90.003  68.592  1.00  0.00     0.000 C 
BRANCH  19  20
ATOM     20  C   UNL     1      55.321  89.431  67.167  1.00  0.00     0.003 C 
BRANCH  20  21
ATOM     21  C   UNL     1      54.211  88.467  66.635  1.00  0.00    -0.017 C 
ATOM     22  C   UNL     1      54.609  86.979  66.867  1.00  0.00     0.007 C 
ATOM     23  C   UNL     1      53.877  88.701  65.133  1.00  0.00     0.007 C 
ENDBRANCH  20  21
ENDBRANCH  19  20
ENDBRANCH  18  19
ENDBRANCH  17  18
ENDBRANCH   1  17
TORSDOF 10
ENDMDL
