MODEL 1
REMARK VINA RESULT:    -5.918      0.000      0.000
REMARK INTER + INTRA:         -11.323
REMARK INTER:                  -9.551
REMARK INTRA:                  -1.772
REMARK UNBOUND:                -1.772
REMARK SMILES COc1cc(CNC(=O)CCCCC/C=C/C(C)C)ccc1O
REMARK SMILES IDX 11 1 10 2 8 3 7 4 9 6 6 7 5 8 3 9 22 10 4 11 21 12 20 13
REMARK SMILES IDX 2 14 1 15 23 16 12 18 13 19 14 20 15 21 16 22 17 23 18 24
REMARK SMILES IDX 19 25
REMARK H PARENT 7 5 23 17
REMARK Flexibility Score: inf
ROOT
ATOM      1  C   UNL     1      76.117  84.825  68.828  1.00  0.00     0.010 C 
ENDROOT
BRANCH   1   2
ATOM      2  C   UNL     1      77.591  84.367  68.681  1.00  0.00     0.100 C 
BRANCH   2   3
ATOM      3  C   UNL     1      77.851  83.561  67.474  1.00  0.00     0.220 C 
ATOM      4  N   UNL     1      76.832  82.879  66.881  1.00  0.00    -0.352 N 
ATOM      5  H   UNL     1      75.952  82.923  67.376  1.00  0.00     0.163 HD
ATOM      6  O   UNL     1      79.011  83.558  66.998  1.00  0.00    -0.275 OA
BRANCH   4   7
ATOM      7  C   UNL     1      76.924  82.144  65.662  1.00  0.00     0.151 C 
BRANCH   7   8
ATOM      8  C   UNL     1      75.598  81.696  65.162  1.00  0.00    -0.025 A 
ATOM      9  C   UNL     1      73.179  81.401  65.493  1.00  0.00     0.160 A 
ATOM     10  C   UNL     1      73.081  80.790  64.224  1.00  0.00     0.157 A 
ATOM     11  C   UNL     1      74.436  81.841  65.955  1.00  0.00     0.056 A 
ATOM     12  C   UNL     1      74.228  80.656  63.419  1.00  0.00     0.050 A 
ATOM     13  C   UNL     1      75.475  81.115  63.881  1.00  0.00     0.009 A 
BRANCH   9  14
ATOM     14  O   UNL     1      72.056  81.616  66.247  1.00  0.00    -0.493 OA
ATOM     15  C   UNL     1      71.517  82.944  66.133  1.00  0.00     0.278 C 
ENDBRANCH   9  14
BRANCH  10  16
ATOM     16  O   UNL     1      71.896  80.328  63.754  1.00  0.00    -0.504 OA
ATOM     17  H   UNL     1      71.819  80.537  62.819  1.00  0.00     0.293 HD
ENDBRANCH  10  16
ENDBRANCH   7   8
ENDBRANCH   4   7
ENDBRANCH   2   3
ENDBRANCH   1   2
BRANCH   1  18
ATOM     18  C   UNL     1      75.896  86.219  68.188  1.00  0.00     0.001 C 
BRANCH  18  19
ATOM     19  C   UNL     1      77.194  87.056  68.055  1.00  0.00     0.004 C 
BRANCH  19  20
ATOM     20  C   UNL     1      77.459  87.460  66.578  1.00  0.00     0.027 C 
BRANCH  20  21
ATOM     21  C   UNL     1      77.078  86.441  65.615  1.00  0.00    -0.031 C 
ATOM     22  C   UNL     1      76.694  86.743  64.362  1.00  0.00    -0.028 C 
BRANCH  22  23
ATOM     23  C   UNL     1      76.310  85.742  63.370  1.00  0.00     0.005 C 
ATOM     24  C   UNL     1      77.431  84.681  63.215  1.00  0.00     0.012 C 
ATOM     25  C   UNL     1      74.945  85.107  63.749  1.00  0.00     0.012 C 
ENDBRANCH  22  23
ENDBRANCH  20  21
ENDBRANCH  19  20
ENDBRANCH  18  19
ENDBRANCH   1  18
TORSDOF 11
ENDMDL
MODEL 2
REMARK VINA RESULT:    -5.769      2.710      4.557
REMARK INTER + INTRA:         -11.082
REMARK INTER:                 -10.055
REMARK INTRA:                  -1.027
REMARK UNBOUND:                -1.772
REMARK SMILES COc1cc(CNC(=O)CCCCC/C=C/C(C)C)ccc1O
REMARK SMILES IDX 11 1 10 2 8 3 7 4 9 6 6 7 5 8 3 9 22 10 4 11 21 12 20 13
REMARK SMILES IDX 2 14 1 15 23 16 12 18 13 19 14 20 15 21 16 22 17 23 18 24
REMARK SMILES IDX 19 25
REMARK H PARENT 7 5 23 17
REMARK Flexibility Score: inf
ROOT
ATOM      1  C   UNL     1      77.998  86.659  68.250  1.00  0.00     0.010 C 
ENDROOT
BRANCH   1   2
ATOM      2  C   UNL     1      78.316  85.143  68.313  1.00  0.00     0.100 C 
BRANCH   2   3
ATOM      3  C   UNL     1      77.974  84.406  67.082  1.00  0.00     0.220 C 
ATOM      4  N   UNL     1      76.930  84.820  66.311  1.00  0.00    -0.352 N 
ATOM      5  H   UNL     1      76.403  85.592  66.696  1.00  0.00     0.163 HD
ATOM      6  O   UNL     1      78.689  83.429  66.754  1.00  0.00    -0.275 OA
BRANCH   4   7
ATOM      7  C   UNL     1      76.554  84.261  65.054  1.00  0.00     0.151 C 
BRANCH   7   8
ATOM      8  C   UNL     1      75.494  83.228  65.182  1.00  0.00    -0.025 A 
ATOM      9  C   UNL     1      73.281  82.526  65.995  1.00  0.00     0.160 A 
ATOM     10  C   UNL     1      73.498  81.235  65.468  1.00  0.00     0.157 A 
ATOM     11  C   UNL     1      74.283  83.509  65.856  1.00  0.00     0.056 A 
ATOM     12  C   UNL     1      74.692  80.948  64.781  1.00  0.00     0.050 A 
ATOM     13  C   UNL     1      75.678  81.941  64.629  1.00  0.00     0.009 A 
BRANCH   9  14
ATOM     14  O   UNL     1      72.088  82.841  66.588  1.00  0.00    -0.493 OA
ATOM     15  C   UNL     1      71.161  83.516  65.722  1.00  0.00     0.278 C 
ENDBRANCH   9  14
BRANCH  10  16
ATOM     16  O   UNL     1      72.572  80.253  65.605  1.00  0.00    -0.504 OA
ATOM     17  H   UNL     1      73.005  79.442  65.885  1.00  0.00     0.293 HD
ENDBRANCH  10  16
ENDBRANCH   7   8
ENDBRANCH   4   7
ENDBRANCH   2   3
ENDBRANCH   1   2
BRANCH   1  18
ATOM     18  C   UNL     1      77.366  87.154  69.576  1.00  0.00     0.001 C 
BRANCH  18  19
ATOM     19  C   UNL     1      76.450  86.107  70.259  1.00  0.00     0.004 C 
BRANCH  19  20
ATOM     20  C   UNL     1      75.017  86.667  70.480  1.00  0.00     0.027 C 
BRANCH  20  21
ATOM     21  C   UNL     1      74.944  88.117  70.444  1.00  0.00    -0.031 C 
ATOM     22  C   UNL     1      74.265  88.826  71.363  1.00  0.00    -0.028 C 
BRANCH  22  23
ATOM     23  C   UNL     1      74.176  90.284  71.357  1.00  0.00     0.005 C 
ATOM     24  C   UNL     1      73.626  90.795  72.715  1.00  0.00     0.012 C 
ATOM     25  C   UNL     1      75.557  90.904  71.010  1.00  0.00     0.012 C 
ENDBRANCH  22  23
ENDBRANCH  20  21
ENDBRANCH  19  20
ENDBRANCH  18  19
ENDBRANCH   1  18
TORSDOF 11
ENDMDL
MODEL 3
REMARK VINA RESULT:    -5.556     26.636     30.188
REMARK INTER + INTRA:         -10.738
REMARK INTER:                 -10.099
REMARK INTRA:                  -0.639
REMARK UNBOUND:                -1.772
REMARK SMILES COc1cc(CNC(=O)CCCCC/C=C/C(C)C)ccc1O
REMARK SMILES IDX 11 1 10 2 8 3 7 4 9 6 6 7 5 8 3 9 22 10 4 11 21 12 20 13
REMARK SMILES IDX 2 14 1 15 23 16 12 18 13 19 14 20 15 21 16 22 17 23 18 24
REMARK SMILES IDX 19 25
REMARK H PARENT 7 5 23 17
REMARK Flexibility Score: inf
ROOT
ATOM      1  C   UNL     1      97.057  84.102  87.129  1.00  0.00     0.010 C 
ENDROOT
BRANCH   1   2
ATOM      2  C   UNL     1      95.918  84.853  87.865  1.00  0.00     0.100 C 
BRANCH   2   3
ATOM      3  C   UNL     1      95.970  86.319  87.716  1.00  0.00     0.220 C 
ATOM      4  N   UNL     1      96.113  87.108  88.817  1.00  0.00    -0.352 N 
ATOM      5  H   UNL     1      96.100  86.611  89.696  1.00  0.00     0.163 HD
ATOM      6  O   UNL     1      95.921  86.802  86.560  1.00  0.00    -0.275 OA
BRANCH   4   7
ATOM      7  C   UNL     1      96.274  88.526  88.806  1.00  0.00     0.151 C 
BRANCH   7   8
ATOM      8  C   UNL     1      95.190  89.231  89.537  1.00  0.00    -0.025 A 
ATOM      9  C   UNL     1      93.410  89.233  91.235  1.00  0.00     0.160 A 
ATOM     10  C   UNL     1      93.087  90.565  90.892  1.00  0.00     0.157 A 
ATOM     11  C   UNL     1      94.451  88.575  90.550  1.00  0.00     0.056 A 
ATOM     12  C   UNL     1      93.826  91.233  89.899  1.00  0.00     0.050 A 
ATOM     13  C   UNL     1      94.877  90.574  89.234  1.00  0.00     0.009 A 
BRANCH   9  14
ATOM     14  O   UNL     1      92.755  88.604  92.260  1.00  0.00    -0.493 OA
ATOM     15  C   UNL     1      92.858  87.170  92.230  1.00  0.00     0.278 C 
ENDBRANCH   9  14
BRANCH  10  16
ATOM     16  O   UNL     1      92.074  91.225  91.507  1.00  0.00    -0.504 OA
ATOM     17  H   UNL     1      91.995  90.916  92.413  1.00  0.00     0.293 HD
ENDBRANCH  10  16
ENDBRANCH   7   8
ENDBRANCH   4   7
ENDBRANCH   2   3
ENDBRANCH   1   2
BRANCH   1  18
ATOM     18  C   UNL     1      96.513  83.319  85.907  1.00  0.00     0.001 C 
BRANCH  18  19
ATOM     19  C   UNL     1      96.825  83.993  84.547  1.00  0.00     0.004 C 
BRANCH  19  20
ATOM     20  C   UNL     1      97.796  83.129  83.695  1.00  0.00     0.027 C 
BRANCH  20  21
ATOM     21  C   UNL     1      97.838  83.506  82.293  1.00  0.00    -0.031 C 
ATOM     22  C   UNL     1      98.540  82.810  81.382  1.00  0.00    -0.028 C 
BRANCH  22  23
ATOM     23  C   UNL     1      98.598  83.160  79.965  1.00  0.00     0.005 C 
ATOM     24  C   UNL     1      99.277  82.022  79.157  1.00  0.00     0.012 C 
ATOM     25  C   UNL     1      97.176  83.492  79.435  1.00  0.00     0.012 C 
ENDBRANCH  22  23
ENDBRANCH  20  21
ENDBRANCH  19  20
ENDBRANCH  18  19
ENDBRANCH   1  18
TORSDOF 11
ENDMDL
MODEL 4
REMARK VINA RESULT:    -5.521      1.432      2.375
REMARK INTER + INTRA:         -10.681
REMARK INTER:                  -8.676
REMARK INTRA:                  -2.006
REMARK UNBOUND:                -1.772
REMARK SMILES COc1cc(CNC(=O)CCCCC/C=C/C(C)C)ccc1O
REMARK SMILES IDX 11 1 10 2 8 3 7 4 9 6 6 7 5 8 3 9 22 10 4 11 21 12 20 13
REMARK SMILES IDX 2 14 1 15 23 16 12 18 13 19 14 20 15 21 16 22 17 23 18 24
REMARK SMILES IDX 19 25
REMARK H PARENT 7 5 23 17
REMARK Flexibility Score: inf
ROOT
ATOM      1  C   UNL     1      76.476  83.934  70.551  1.00  0.00     0.010 C 
ENDROOT
BRANCH   1   2
ATOM      2  C   UNL     1      77.544  84.845  69.894  1.00  0.00     0.100 C 
BRANCH   2   3
ATOM      3  C   UNL     1      77.867  84.484  68.501  1.00  0.00     0.220 C 
ATOM      4  N   UNL     1      77.115  83.553  67.851  1.00  0.00    -0.352 N 
ATOM      5  H   UNL     1      76.408  83.109  68.421  1.00  0.00     0.163 HD
ATOM      6  O   UNL     1      78.811  85.083  67.934  1.00  0.00    -0.275 OA
BRANCH   4   7
ATOM      7  C   UNL     1      77.256  83.183  66.480  1.00  0.00     0.151 C 
BRANCH   7   8
ATOM      8  C   UNL     1      76.055  82.489  65.948  1.00  0.00    -0.025 A 
ATOM      9  C   UNL     1      73.637  82.045  66.022  1.00  0.00     0.160 A 
ATOM     10  C   UNL     1      73.775  81.121  64.963  1.00  0.00     0.157 A 
ATOM     11  C   UNL     1      74.777  82.714  66.512  1.00  0.00     0.056 A 
ATOM     12  C   UNL     1      75.039  80.903  64.383  1.00  0.00     0.050 A 
ATOM     13  C   UNL     1      76.168  81.589  64.865  1.00  0.00     0.009 A 
BRANCH   9  14
ATOM     14  O   UNL     1      72.400  82.330  66.535  1.00  0.00    -0.493 OA
ATOM     15  C   UNL     1      71.818  83.542  66.027  1.00  0.00     0.278 C 
ENDBRANCH   9  14
BRANCH  10  16
ATOM     16  O   UNL     1      72.708  80.436  64.482  1.00  0.00    -0.504 OA
ATOM     17  H   UNL     1      72.973  79.535  64.278  1.00  0.00     0.293 HD
ENDBRANCH  10  16
ENDBRANCH   7   8
ENDBRANCH   4   7
ENDBRANCH   2   3
ENDBRANCH   1   2
BRANCH   1  18
ATOM     18  C   UNL     1      75.340  84.774  71.189  1.00  0.00     0.001 C 
BRANCH  18  19
ATOM     19  C   UNL     1      75.015  86.074  70.412  1.00  0.00     0.004 C 
BRANCH  19  20
ATOM     20  C   UNL     1      74.029  85.804  69.241  1.00  0.00     0.027 C 
BRANCH  20  21
ATOM     21  C   UNL     1      74.594  86.070  67.929  1.00  0.00    -0.031 C 
ATOM     22  C   UNL     1      75.331  87.165  67.672  1.00  0.00    -0.028 C 
BRANCH  22  23
ATOM     23  C   UNL     1      75.916  87.459  66.367  1.00  0.00     0.005 C 
ATOM     24  C   UNL     1      77.446  87.685  66.501  1.00  0.00     0.012 C 
ATOM     25  C   UNL     1      75.573  86.329  65.358  1.00  0.00     0.012 C 
ENDBRANCH  22  23
ENDBRANCH  20  21
ENDBRANCH  19  20
ENDBRANCH  18  19
ENDBRANCH   1  18
TORSDOF 11
ENDMDL
MODEL 5
REMARK VINA RESULT:    -5.403     24.303     28.256
REMARK INTER + INTRA:         -10.492
REMARK INTER:                  -9.420
REMARK INTRA:                  -1.072
REMARK UNBOUND:                -1.772
REMARK SMILES COc1cc(CNC(=O)CCCCC/C=C/C(C)C)ccc1O
REMARK SMILES IDX 11 1 10 2 8 3 7 4 9 6 6 7 5 8 3 9 22 10 4 11 21 12 20 13
REMARK SMILES IDX 2 14 1 15 23 16 12 18 13 19 14 20 15 21 16 22 17 23 18 24
REMARK SMILES IDX 19 25
REMARK H PARENT 7 5 23 17
REMARK Flexibility Score: inf
ROOT
ATOM      1  C   UNL     1      95.653  93.952  79.208  1.00  0.00     0.010 C 
ENDROOT
BRANCH   1   2
ATOM      2  C   UNL     1      94.864  93.580  80.490  1.00  0.00     0.100 C 
BRANCH   2   3
ATOM      3  C   UNL     1      95.503  94.032  81.740  1.00  0.00     0.220 C 
ATOM      4  N   UNL     1      96.469  94.990  81.700  1.00  0.00    -0.352 N 
ATOM      5  H   UNL     1      96.737  95.280  80.769  1.00  0.00     0.163 HD
ATOM      6  O   UNL     1      95.104  93.542  82.823  1.00  0.00    -0.275 OA
BRANCH   4   7
ATOM      7  C   UNL     1      97.097  95.584  82.835  1.00  0.00     0.151 C 
BRANCH   7   8
ATOM      8  C   UNL     1      96.590  96.952  83.119  1.00  0.00    -0.025 A 
ATOM      9  C   UNL     1      96.426  98.903  84.607  1.00  0.00     0.160 A 
ATOM     10  C   UNL     1      95.577  99.540  83.677  1.00  0.00     0.157 A 
ATOM     11  C   UNL     1      96.918  97.612  84.326  1.00  0.00     0.056 A 
ATOM     12  C   UNL     1      95.258  98.900  82.465  1.00  0.00     0.050 A 
ATOM     13  C   UNL     1      95.769  97.620  82.183  1.00  0.00     0.009 A 
BRANCH   9  14
ATOM     14  O   UNL     1      96.813  99.553  85.749  1.00  0.00    -0.493 OA
ATOM     15  C   UNL     1      98.197  99.940  85.764  1.00  0.00     0.278 C 
ENDBRANCH   9  14
BRANCH  10  16
ATOM     16  O   UNL     1      95.059 100.770  83.922  1.00  0.00    -0.504 OA
ATOM     17  H   UNL     1      95.576 101.204  84.606  1.00  0.00     0.293 HD
ENDBRANCH  10  16
ENDBRANCH   7   8
ENDBRANCH   4   7
ENDBRANCH   2   3
ENDBRANCH   1   2
BRANCH   1  18
ATOM     18  C   UNL     1      94.884  94.997  78.360  1.00  0.00     0.001 C 
BRANCH  18  19
ATOM     19  C   UNL     1      93.737  95.700  79.129  1.00  0.00     0.004 C 
BRANCH  19  20
ATOM     20  C   UNL     1      92.644  96.228  78.157  1.00  0.00     0.027 C 
BRANCH  20  21
ATOM     21  C   UNL     1      91.516  95.326  78.000  1.00  0.00    -0.031 C 
ATOM     22  C   UNL     1      91.338  94.583  76.893  1.00  0.00    -0.028 C 
BRANCH  22  23
ATOM     23  C   UNL     1      90.219  93.664  76.706  1.00  0.00     0.005 C 
ATOM     24  C   UNL     1      90.681  92.406  75.924  1.00  0.00     0.012 C 
ATOM     25  C   UNL     1      89.584  93.306  78.077  1.00  0.00     0.012 C 
ENDBRANCH  22  23
ENDBRANCH  20  21
ENDBRANCH  19  20
ENDBRANCH  18  19
ENDBRANCH   1  18
TORSDOF 11
ENDMDL
MODEL 6
REMARK VINA RESULT:    -5.346      2.767      4.893
REMARK INTER + INTRA:         -10.399
REMARK INTER:                  -8.983
REMARK INTRA:                  -1.415
REMARK UNBOUND:                -1.772
REMARK SMILES COc1cc(CNC(=O)CCCCC/C=C/C(C)C)ccc1O
REMARK SMILES IDX 11 1 10 2 8 3 7 4 9 6 6 7 5 8 3 9 22 10 4 11 21 12 20 13
REMARK SMILES IDX 2 14 1 15 23 16 12 18 13 19 14 20 15 21 16 22 17 23 18 24
REMARK SMILES IDX 19 25
REMARK H PARENT 7 5 23 17
REMARK Flexibility Score: inf
ROOT
ATOM      1  C   UNL     1      77.498  86.540  66.516  1.00  0.00     0.010 C 
ENDROOT
BRANCH   1   2
ATOM      2  C   UNL     1      76.416  87.598  66.178  1.00  0.00     0.100 C 
BRANCH   2   3
ATOM      3  C   UNL     1      75.052  87.215  66.589  1.00  0.00     0.220 C 
ATOM      4  N   UNL     1      74.727  85.898  66.715  1.00  0.00    -0.352 N 
ATOM      5  H   UNL     1      75.456  85.256  66.436  1.00  0.00     0.163 HD
ATOM      6  O   UNL     1      74.231  88.125  66.852  1.00  0.00    -0.275 OA
BRANCH   4   7
ATOM      7  C   UNL     1      73.482  85.394  67.194  1.00  0.00     0.151 C 
BRANCH   7   8
ATOM      8  C   UNL     1      73.206  84.011  66.724  1.00  0.00    -0.025 A 
ATOM      9  C   UNL     1      73.962  81.923  65.668  1.00  0.00     0.160 A 
ATOM     10  C   UNL     1      72.658  81.395  65.780  1.00  0.00     0.157 A 
ATOM     11  C   UNL     1      74.224  83.228  66.131  1.00  0.00     0.056 A 
ATOM     12  C   UNL     1      71.641  82.158  66.383  1.00  0.00     0.050 A 
ATOM     13  C   UNL     1      71.915  83.453  66.862  1.00  0.00     0.009 A 
BRANCH   9  14
ATOM     14  O   UNL     1      74.979  81.157  65.162  1.00  0.00    -0.493 OA
ATOM     15  C   UNL     1      76.271  81.454  65.718  1.00  0.00     0.278 C 
ENDBRANCH   9  14
BRANCH  10  16
ATOM     16  O   UNL     1      72.358  80.154  65.321  1.00  0.00    -0.504 OA
ATOM     17  H   UNL     1      73.160  79.627  65.277  1.00  0.00     0.293 HD
ENDBRANCH  10  16
ENDBRANCH   7   8
ENDBRANCH   4   7
ENDBRANCH   2   3
ENDBRANCH   1   2
BRANCH   1  18
ATOM     18  C   UNL     1      78.219  86.883  67.845  1.00  0.00     0.001 C 
BRANCH  18  19
ATOM     19  C   UNL     1      77.991  85.838  68.965  1.00  0.00     0.004 C 
BRANCH  19  20
ATOM     20  C   UNL     1      76.651  86.090  69.712  1.00  0.00     0.027 C 
BRANCH  20  21
ATOM     21  C   UNL     1      76.435  87.481  70.072  1.00  0.00    -0.031 C 
ATOM     22  C   UNL     1      75.241  87.939  70.487  1.00  0.00    -0.028 C 
BRANCH  22  23
ATOM     23  C   UNL     1      74.993  89.329  70.861  1.00  0.00     0.005 C 
ATOM     24  C   UNL     1      74.876  90.215  69.592  1.00  0.00     0.012 C 
ATOM     25  C   UNL     1      73.735  89.426  71.766  1.00  0.00     0.012 C 
ENDBRANCH  22  23
ENDBRANCH  20  21
ENDBRANCH  19  20
ENDBRANCH  18  19
ENDBRANCH   1  18
TORSDOF 11
ENDMDL
MODEL 7
REMARK VINA RESULT:    -5.298     26.874     30.478
REMARK INTER + INTRA:         -10.322
REMARK INTER:                  -9.696
REMARK INTRA:                  -0.626
REMARK UNBOUND:                -1.772
REMARK SMILES COc1cc(CNC(=O)CCCCC/C=C/C(C)C)ccc1O
REMARK SMILES IDX 11 1 10 2 8 3 7 4 9 6 6 7 5 8 3 9 22 10 4 11 21 12 20 13
REMARK SMILES IDX 2 14 1 15 23 16 12 18 13 19 14 20 15 21 16 22 17 23 18 24
REMARK SMILES IDX 19 25
REMARK H PARENT 7 5 23 17
REMARK Flexibility Score: inf
ROOT
ATOM      1  C   UNL     1      97.393  84.103  86.573  1.00  0.00     0.010 C 
ENDROOT
BRANCH   1   2
ATOM      2  C   UNL     1      96.169  84.621  87.372  1.00  0.00     0.100 C 
BRANCH   2   3
ATOM      3  C   UNL     1      95.995  86.084  87.322  1.00  0.00     0.220 C 
ATOM      4  N   UNL     1      96.315  86.842  88.408  1.00  0.00    -0.352 N 
ATOM      5  H   UNL     1      96.590  86.314  89.224  1.00  0.00     0.163 HD
ATOM      6  O   UNL     1      95.591  86.600  86.254  1.00  0.00    -0.275 OA
BRANCH   4   7
ATOM      7  C   UNL     1      96.287  88.267  88.462  1.00  0.00     0.151 C 
BRANCH   7   8
ATOM      8  C   UNL     1      95.422  88.782  89.555  1.00  0.00    -0.025 A 
ATOM      9  C   UNL     1      94.667  90.629  90.992  1.00  0.00     0.160 A 
ATOM     10  C   UNL     1      93.808  89.744  91.678  1.00  0.00     0.157 A 
ATOM     11  C   UNL     1      95.473  90.141  89.944  1.00  0.00     0.056 A 
ATOM     12  C   UNL     1      93.736  88.394  91.289  1.00  0.00     0.050 A 
ATOM     13  C   UNL     1      94.529  87.918  90.229  1.00  0.00     0.009 A 
BRANCH   9  14
ATOM     14  O   UNL     1      94.680  91.963  91.305  1.00  0.00    -0.493 OA
ATOM     15  C   UNL     1      93.690  92.739  90.609  1.00  0.00     0.278 C 
ENDBRANCH   9  14
BRANCH  10  16
ATOM     16  O   UNL     1      93.037  90.168  92.711  1.00  0.00    -0.504 OA
ATOM     17  H   UNL     1      92.560  90.960  92.450  1.00  0.00     0.293 HD
ENDBRANCH  10  16
ENDBRANCH   7   8
ENDBRANCH   4   7
ENDBRANCH   2   3
ENDBRANCH   1   2
BRANCH   1  18
ATOM     18  C   UNL     1      96.959  83.109  85.466  1.00  0.00     0.001 C 
BRANCH  18  19
ATOM     19  C   UNL     1      97.545  83.437  84.069  1.00  0.00     0.004 C 
BRANCH  19  20
ATOM     20  C   UNL     1      98.686  82.451  83.688  1.00  0.00     0.027 C 
BRANCH  20  21
ATOM     21  C   UNL     1      98.785  82.197  82.261  1.00  0.00    -0.031 C 
ATOM     22  C   UNL     1      98.139  82.947  81.350  1.00  0.00    -0.028 C 
BRANCH  22  23
ATOM     23  C   UNL     1      98.223  82.721  79.910  1.00  0.00     0.005 C 
ATOM     24  C   UNL     1      97.218  83.637  79.162  1.00  0.00     0.012 C 
ATOM     25  C   UNL     1      99.682  82.923  79.419  1.00  0.00     0.012 C 
ENDBRANCH  22  23
ENDBRANCH  20  21
ENDBRANCH  19  20
ENDBRANCH  18  19
ENDBRANCH   1  18
TORSDOF 11
ENDMDL
MODEL 8
REMARK VINA RESULT:    -5.282      4.694      7.356
REMARK INTER + INTRA:         -10.296
REMARK INTER:                  -9.409
REMARK INTRA:                  -0.888
REMARK UNBOUND:                -1.772
REMARK SMILES COc1cc(CNC(=O)CCCCC/C=C/C(C)C)ccc1O
REMARK SMILES IDX 11 1 10 2 8 3 7 4 9 6 6 7 5 8 3 9 22 10 4 11 21 12 20 13
REMARK SMILES IDX 2 14 1 15 23 16 12 18 13 19 14 20 15 21 16 22 17 23 18 24
REMARK SMILES IDX 19 25
REMARK H PARENT 7 5 23 17
REMARK Flexibility Score: inf
ROOT
ATOM      1  C   UNL     1      73.970  88.541  71.025  1.00  0.00     0.010 C 
ENDROOT
BRANCH   1   2
ATOM      2  C   UNL     1      74.696  87.233  70.616  1.00  0.00     0.100 C 
BRANCH   2   3
ATOM      3  C   UNL     1      75.442  87.333  69.347  1.00  0.00     0.220 C 
ATOM      4  N   UNL     1      76.798  87.211  69.346  1.00  0.00    -0.352 N 
ATOM      5  H   UNL     1      77.214  87.129  70.264  1.00  0.00     0.163 HD
ATOM      6  O   UNL     1      74.793  87.489  68.286  1.00  0.00    -0.275 OA
BRANCH   4   7
ATOM      7  C   UNL     1      77.629  87.190  68.187  1.00  0.00     0.151 C 
BRANCH   7   8
ATOM      8  C   UNL     1      77.644  85.864  67.517  1.00  0.00    -0.025 A 
ATOM      9  C   UNL     1      77.057  84.426  65.610  1.00  0.00     0.160 A 
ATOM     10  C   UNL     1      77.630  83.318  66.270  1.00  0.00     0.157 A 
ATOM     11  C   UNL     1      77.060  85.687  66.241  1.00  0.00     0.056 A 
ATOM     12  C   UNL     1      78.229  83.485  67.533  1.00  0.00     0.050 A 
ATOM     13  C   UNL     1      78.245  84.751  68.147  1.00  0.00     0.009 A 
BRANCH   9  14
ATOM     14  O   UNL     1      76.550  84.293  64.345  1.00  0.00    -0.493 OA
ATOM     15  C   UNL     1      76.998  85.300  63.423  1.00  0.00     0.278 C 
ENDBRANCH   9  14
BRANCH  10  16
ATOM     16  O   UNL     1      77.622  82.082  65.710  1.00  0.00    -0.504 OA
ATOM     17  H   UNL     1      76.848  81.600  66.011  1.00  0.00     0.293 HD
ENDBRANCH  10  16
ENDBRANCH   7   8
ENDBRANCH   4   7
ENDBRANCH   2   3
ENDBRANCH   1   2
BRANCH   1  18
ATOM     18  C   UNL     1      74.972  89.713  71.181  1.00  0.00     0.001 C 
BRANCH  18  19
ATOM     19  C   UNL     1      74.697  90.899  70.223  1.00  0.00     0.004 C 
BRANCH  19  20
ATOM     20  C   UNL     1      74.846  92.263  70.953  1.00  0.00     0.027 C 
BRANCH  20  21
ATOM     21  C   UNL     1      76.157  92.469  71.547  1.00  0.00    -0.031 C 
ATOM     22  C   UNL     1      76.317  93.015  72.765  1.00  0.00    -0.028 C 
BRANCH  22  23
ATOM     23  C   UNL     1      77.619  93.230  73.391  1.00  0.00     0.005 C 
ATOM     24  C   UNL     1      77.562  92.852  74.895  1.00  0.00     0.012 C 
ATOM     25  C   UNL     1      78.718  92.443  72.626  1.00  0.00     0.012 C 
ENDBRANCH  22  23
ENDBRANCH  20  21
ENDBRANCH  19  20
ENDBRANCH  18  19
ENDBRANCH   1  18
TORSDOF 11
ENDMDL
MODEL 9
REMARK VINA RESULT:    -5.220      1.328      2.383
REMARK INTER + INTRA:         -10.196
REMARK INTER:                  -8.522
REMARK INTRA:                  -1.675
REMARK UNBOUND:                -1.772
REMARK SMILES COc1cc(CNC(=O)CCCCC/C=C/C(C)C)ccc1O
REMARK SMILES IDX 11 1 10 2 8 3 7 4 9 6 6 7 5 8 3 9 22 10 4 11 21 12 20 13
REMARK SMILES IDX 2 14 1 15 23 16 12 18 13 19 14 20 15 21 16 22 17 23 18 24
REMARK SMILES IDX 19 25
REMARK H PARENT 7 5 23 17
REMARK Flexibility Score: inf
ROOT
ATOM      1  C   UNL     1      76.842  84.038  69.329  1.00  0.00     0.010 C 
ENDROOT
BRANCH   1   2
ATOM      2  C   UNL     1      78.125  84.023  68.459  1.00  0.00     0.100 C 
BRANCH   2   3
ATOM      3  C   UNL     1      77.911  83.540  67.082  1.00  0.00     0.220 C 
ATOM      4  N   UNL     1      76.791  82.827  66.780  1.00  0.00    -0.352 N 
ATOM      5  H   UNL     1      76.201  82.613  67.572  1.00  0.00     0.163 HD
ATOM      6  O   UNL     1      78.759  83.839  66.207  1.00  0.00    -0.275 OA
BRANCH   4   7
ATOM      7  C   UNL     1      76.415  82.386  65.476  1.00  0.00     0.151 C 
BRANCH   7   8
ATOM      8  C   UNL     1      74.947  82.442  65.255  1.00  0.00    -0.025 A 
ATOM      9  C   UNL     1      72.950  81.767  63.987  1.00  0.00     0.160 A 
ATOM     10  C   UNL     1      72.152  82.595  64.805  1.00  0.00     0.157 A 
ATOM     11  C   UNL     1      74.340  81.703  64.211  1.00  0.00     0.056 A 
ATOM     12  C   UNL     1      72.741  83.321  65.856  1.00  0.00     0.050 A 
ATOM     13  C   UNL     1      74.127  83.237  66.086  1.00  0.00     0.009 A 
BRANCH   9  14
ATOM     14  O   UNL     1      72.375  80.989  63.017  1.00  0.00    -0.493 OA
ATOM     15  C   UNL     1      72.209  79.611  63.390  1.00  0.00     0.278 C 
ENDBRANCH   9  14
BRANCH  10  16
ATOM     16  O   UNL     1      70.815  82.707  64.604  1.00  0.00    -0.504 OA
ATOM     17  H   UNL     1      70.545  83.618  64.742  1.00  0.00     0.293 HD
ENDBRANCH  10  16
ENDBRANCH   7   8
ENDBRANCH   4   7
ENDBRANCH   2   3
ENDBRANCH   1   2
BRANCH   1  18
ATOM     18  C   UNL     1      76.783  85.307  70.217  1.00  0.00     0.001 C 
BRANCH  18  19
ATOM     19  C   UNL     1      77.639  86.483  69.682  1.00  0.00     0.004 C 
BRANCH  19  20
ATOM     20  C   UNL     1      76.751  87.696  69.288  1.00  0.00     0.027 C 
BRANCH  20  21
ATOM     21  C   UNL     1      76.097  87.548  67.999  1.00  0.00    -0.031 C 
ATOM     22  C   UNL     1      76.780  87.553  66.841  1.00  0.00    -0.028 C 
BRANCH  22  23
ATOM     23  C   UNL     1      76.154  87.401  65.531  1.00  0.00     0.005 C 
ATOM     24  C   UNL     1      76.793  86.214  64.763  1.00  0.00     0.012 C 
ATOM     25  C   UNL     1      74.617  87.244  65.686  1.00  0.00     0.012 C 
ENDBRANCH  22  23
ENDBRANCH  20  21
ENDBRANCH  19  20
ENDBRANCH  18  19
ENDBRANCH   1  18
TORSDOF 11
ENDMDL
MODEL 10
REMARK VINA RESULT:    -5.198      3.416      6.647
REMARK INTER + INTRA:         -10.161
REMARK INTER:                  -7.980
REMARK INTRA:                  -2.181
REMARK UNBOUND:                -1.772
REMARK SMILES COc1cc(CNC(=O)CCCCC/C=C/C(C)C)ccc1O
REMARK SMILES IDX 11 1 10 2 8 3 7 4 9 6 6 7 5 8 3 9 22 10 4 11 21 12 20 13
REMARK SMILES IDX 2 14 1 15 23 16 12 18 13 19 14 20 15 21 16 22 17 23 18 24
REMARK SMILES IDX 19 25
REMARK H PARENT 7 5 23 17
REMARK Flexibility Score: inf
ROOT
ATOM      1  C   UNL     1      77.513  83.620  66.036  1.00  0.00     0.010 C 
ENDROOT
BRANCH   1   2
ATOM      2  C   UNL     1      78.401  83.547  67.305  1.00  0.00     0.100 C 
BRANCH   2   3
ATOM      3  C   UNL     1      77.876  84.316  68.450  1.00  0.00     0.220 C 
ATOM      4  N   UNL     1      78.374  85.554  68.720  1.00  0.00    -0.352 N 
ATOM      5  H   UNL     1      79.147  85.835  68.133  1.00  0.00     0.163 HD
ATOM      6  O   UNL     1      76.946  83.816  69.126  1.00  0.00    -0.275 OA
BRANCH   4   7
ATOM      7  C   UNL     1      77.892  86.439  69.730  1.00  0.00     0.151 C 
BRANCH   7   8
ATOM      8  C   UNL     1      76.895  87.411  69.212  1.00  0.00    -0.025 A 
ATOM      9  C   UNL     1      75.076  89.020  69.603  1.00  0.00     0.160 A 
ATOM     10  C   UNL     1      74.959  89.224  68.211  1.00  0.00     0.157 A 
ATOM     11  C   UNL     1      76.036  88.109  70.092  1.00  0.00     0.056 A 
ATOM     12  C   UNL     1      75.820  88.548  67.327  1.00  0.00     0.050 A 
ATOM     13  C   UNL     1      76.788  87.656  67.824  1.00  0.00     0.009 A 
BRANCH   9  14
ATOM     14  O   UNL     1      74.303  89.738  70.476  1.00  0.00    -0.493 OA
ATOM     15  C   UNL     1      73.723  88.952  71.531  1.00  0.00     0.278 C 
ENDBRANCH   9  14
BRANCH  10  16
ATOM     16  O   UNL     1      74.030  90.070  67.698  1.00  0.00    -0.504 OA
ATOM     17  H   UNL     1      73.436  89.581  67.123  1.00  0.00     0.293 HD
ENDBRANCH  10  16
ENDBRANCH   7   8
ENDBRANCH   4   7
ENDBRANCH   2   3
ENDBRANCH   1   2
BRANCH   1  18
ATOM     18  C   UNL     1      76.856  82.248  65.734  1.00  0.00     0.001 C 
BRANCH  18  19
ATOM     19  C   UNL     1      75.377  82.153  66.186  1.00  0.00     0.004 C 
BRANCH  19  20
ATOM     20  C   UNL     1      74.624  83.492  65.949  1.00  0.00     0.027 C 
BRANCH  20  21
ATOM     21  C   UNL     1      74.033  84.051  67.153  1.00  0.00    -0.031 C 
ATOM     22  C   UNL     1      73.781  85.365  67.287  1.00  0.00    -0.028 C 
BRANCH  22  23
ATOM     23  C   UNL     1      73.183  85.957  68.481  1.00  0.00     0.005 C 
ATOM     24  C   UNL     1      71.647  85.735  68.480  1.00  0.00     0.012 C 
ATOM     25  C   UNL     1      73.860  85.390  69.758  1.00  0.00     0.012 C 
ENDBRANCH  22  23
ENDBRANCH  20  21
ENDBRANCH  19  20
ENDBRANCH  18  19
ENDBRANCH   1  18
TORSDOF 11
ENDMDL
