MODEL 1
REMARK VINA RESULT:    -6.868      0.000      0.000
REMARK INTER + INTRA:         -13.601
REMARK INTER:                 -12.087
REMARK INTRA:                  -1.514
REMARK UNBOUND:                -1.514
REMARK SMILES C=C(C)[C@]12C[C@@H](C)[C@@]34O[C@](Cc5ccccc5)(O[C@@H]1[C@@H]3C=C(COC(=O)Cc1ccc(O)c(OC)c1)C[C@]1(O)C(=O)C(C)=C[C@@H]41)O2
REMARK SMILES IDX 23 1 22 2 21 3 20 4 9 5 8 6 10 7 6 8 18 9 46 10 19 11 5 12
REMARK SMILES IDX 7 13 4 14 45 15 38 16 44 17 40 18 42 20 41 21 43 22 39 23
REMARK SMILES IDX 11 25 12 26 13 27 17 28 14 29 16 30 15 31 2 32 3 33 1 34
REMARK SMILES IDX 37 35 24 37 25 38 26 39 27 40 28 41 36 42 29 43 33 44 30 45
REMARK SMILES IDX 31 46 34 47 35 48 32 49
REMARK H PARENT 39 24 32 50
REMARK Flexibility Score: 90.00
ROOT
ATOM      1  C   UNL     1      61.495  88.121  79.067  1.00  0.00     0.264 C 
ENDROOT
BRANCH   1   2
ATOM      2  C   UNL     1      61.792  87.900  77.602  1.00  0.00    -0.033 C 
ATOM      3  C   UNL     1      62.911  87.235  77.249  1.00  0.00    -0.015 C 
BRANCH   3   4
ATOM      4  C   UNL     1      63.469  86.953  75.864  1.00  0.00     0.078 C 
ATOM      5  O   UNL     1      62.573  84.757  75.160  1.00  0.00    -0.319 OA
ATOM      6  C   UNL     1      62.562  86.182  74.834  1.00  0.00     0.095 C 
ATOM      7  C   UNL     1      63.861  84.215  75.508  1.00  0.00     0.289 C 
ATOM      8  C   UNL     1      63.185  86.394  73.393  1.00  0.00     0.023 C 
ATOM      9  O   UNL     1      64.432  84.908  76.615  1.00  0.00    -0.320 OA
ATOM     10  O   UNL     1      64.805  84.340  74.448  1.00  0.00    -0.313 OA
ATOM     11  C   UNL     1      64.786  86.147  75.981  1.00  0.00     0.170 C 
ATOM     12  C   UNL     1      64.740  86.500  73.453  1.00  0.00     0.049 C 
ATOM     13  C   UNL     1      62.784  85.349  72.339  1.00  0.00     0.011 C 
ATOM     14  C   UNL     1      65.319  85.678  74.605  1.00  0.00     0.122 C 
BRANCH   6  15
ATOM     15  C   UNL     1      61.072  86.603  74.987  1.00  0.00     0.086 C 
ATOM     16  C   UNL     1      60.808  88.111  75.181  1.00  0.00     0.140 CG0
ATOM     17  C   UNL     1      60.082  86.209  73.927  1.00  0.00    -0.010 C 
ATOM     18  C   UNL     1      59.491  88.307  74.460  1.00  0.00     0.190 C 
ATOM     19  G   UNL     1      60.731  88.498  76.657  1.00  0.00     0.000 G0
ATOM     20  C   UNL     1      59.164  87.134  73.628  1.00  0.00    -0.008 C 
ATOM     21  O   UNL     1      58.801  89.314  74.507  1.00  0.00    -0.291 OA
ATOM     22  C   UNL     1      58.007  87.065  72.712  1.00  0.00     0.048 C 
BRANCH  16  23
ATOM     23  O   UNL     1      61.709  88.947  74.473  1.00  0.00    -0.381 OA
ATOM     24  H   UNL     1      62.530  88.451  74.318  1.00  0.00     0.212 HD
ENDBRANCH  16  23
ENDBRANCH   6  15
BRANCH   7  25
ATOM     25  C   UNL     1      63.682  82.751  75.857  1.00  0.00     0.135 C 
BRANCH  25  26
ATOM     26  C   UNL     1      64.157  81.844  74.749  1.00  0.00    -0.040 A 
ATOM     27  C   UNL     1      63.532  81.880  73.502  1.00  0.00     0.004 A 
ATOM     28  C   UNL     1      65.220  80.970  74.970  1.00  0.00     0.004 A 
ATOM     29  C   UNL     1      63.970  81.042  72.477  1.00  0.00     0.000 A 
ATOM     30  C   UNL     1      65.659  80.131  73.945  1.00  0.00     0.000 A 
ATOM     31  C   UNL     1      65.033  80.167  72.699  1.00  0.00     0.000 A 
ENDBRANCH  25  26
ENDBRANCH   7  25
BRANCH  14  32
ATOM     32  C   UNL     1      66.812  85.616  74.573  1.00  0.00    -0.046 C 
ATOM     33  C   UNL     1      67.411  84.484  73.792  1.00  0.00     0.042 C 
ATOM     34  C   UNL     1      67.573  86.521  75.206  1.00  0.00     0.010 C 
ENDBRANCH  14  32
ENDBRANCH   3   4
BRANCH   2  35
ATOM     35  C   UNL     1      60.731  88.480  76.686  1.00  0.00     0.078 CG0
ATOM     36  G   UNL     1      60.796  88.093  75.209  1.00  0.00     0.000 G0
ENDBRANCH   2  35
ENDBRANCH   1   2
BRANCH   1  37
ATOM     37  O   UNL     1      62.611  88.725  79.684  1.00  0.00    -0.461 OA
BRANCH  37  38
ATOM     38  C   UNL     1      63.142  88.061  80.765  1.00  0.00     0.310 C 
ATOM     39  O   UNL     1      62.512  87.336  81.523  1.00  0.00    -0.252 OA
BRANCH  38  40
ATOM     40  C   UNL     1      64.618  88.367  80.870  1.00  0.00     0.158 C 
BRANCH  40  41
ATOM     41  C   UNL     1      65.457  87.138  81.104  1.00  0.00    -0.033 A 
ATOM     42  C   UNL     1      65.909  86.837  82.390  1.00  0.00     0.054 A 
ATOM     43  C   UNL     1      65.783  86.301  80.037  1.00  0.00     0.008 A 
ATOM     44  C   UNL     1      66.686  85.699  82.607  1.00  0.00     0.160 A 
ATOM     45  C   UNL     1      66.560  85.163  80.254  1.00  0.00     0.050 A 
ATOM     46  C   UNL     1      67.012  84.862  81.539  1.00  0.00     0.157 A 
BRANCH  44  47
ATOM     47  O   UNL     1      67.122  85.416  83.866  1.00  0.00    -0.493 OA
ATOM     48  C   UNL     1      66.239  84.673  84.706  1.00  0.00     0.278 C 
ENDBRANCH  44  47
BRANCH  46  49
ATOM     49  O   UNL     1      67.769  83.748  81.739  1.00  0.00    -0.504 OA
ATOM     50  H   UNL     1      67.215  82.961  81.608  1.00  0.00     0.293 HD
ENDBRANCH  46  49
ENDBRANCH  40  41
ENDBRANCH  38  40
ENDBRANCH  37  38
ENDBRANCH   1  37
TORSDOF 11
ENDMDL
MODEL 2
REMARK VINA RESULT:    -6.676      2.733      7.390
REMARK INTER + INTRA:         -13.264
REMARK INTER:                 -10.759
REMARK INTRA:                  -2.504
REMARK UNBOUND:                -1.514
REMARK SMILES C=C(C)[C@]12C[C@@H](C)[C@@]34O[C@](Cc5ccccc5)(O[C@@H]1[C@@H]3C=C(COC(=O)Cc1ccc(O)c(OC)c1)C[C@]1(O)C(=O)C(C)=C[C@@H]41)O2
REMARK SMILES IDX 23 1 22 2 21 3 20 4 9 5 8 6 10 7 6 8 18 9 46 10 19 11 5 12
REMARK SMILES IDX 7 13 4 14 45 15 38 16 44 17 40 18 42 20 41 21 43 22 39 23
REMARK SMILES IDX 11 25 12 26 13 27 17 28 14 29 16 30 15 31 2 32 3 33 1 34
REMARK SMILES IDX 37 35 24 37 25 38 26 39 27 40 28 41 36 42 29 43 33 44 30 45
REMARK SMILES IDX 31 46 34 47 35 48 32 49
REMARK H PARENT 39 24 32 50
REMARK Flexibility Score: 90.00
ROOT
ATOM      1  C   UNL     1      60.107  88.438  73.276  1.00  0.00     0.264 C 
ENDROOT
BRANCH   1   2
ATOM      2  C   UNL     1      61.573  88.092  73.389  1.00  0.00    -0.033 C 
ATOM      3  C   UNL     1      62.035  87.544  74.531  1.00  0.00    -0.015 C 
BRANCH   3   4
ATOM      4  C   UNL     1      63.459  87.181  74.920  1.00  0.00     0.078 C 
ATOM      5  O   UNL     1      63.795  84.812  74.292  1.00  0.00    -0.319 OA
ATOM      6  C   UNL     1      64.250  86.171  74.008  1.00  0.00     0.095 C 
ATOM      7  C   UNL     1      63.609  84.504  75.687  1.00  0.00     0.289 C 
ATOM      8  C   UNL     1      65.787  86.296  74.373  1.00  0.00     0.023 C 
ATOM      9  O   UNL     1      62.680  85.398  76.295  1.00  0.00    -0.320 OA
ATOM     10  O   UNL     1      64.815  84.634  76.435  1.00  0.00    -0.313 OA
ATOM     11  C   UNL     1      63.479  86.590  76.351  1.00  0.00     0.170 C 
ATOM     12  C   UNL     1      65.989  86.629  75.883  1.00  0.00     0.049 C 
ATOM     13  C   UNL     1      66.656  85.086  73.995  1.00  0.00     0.011 C 
ATOM     14  C   UNL     1      64.872  86.041  76.747  1.00  0.00     0.122 C 
BRANCH   6  15
ATOM     15  C   UNL     1      63.899  86.392  72.507  1.00  0.00     0.086 C 
ATOM     16  C   UNL     1      63.793  87.859  72.043  1.00  0.00     0.140 CG0
ATOM     17  C   UNL     1      64.753  85.751  71.450  1.00  0.00    -0.010 C 
ATOM     18  C   UNL     1      64.310  87.789  70.621  1.00  0.00     0.190 C 
ATOM     19  G   UNL     1      62.361  88.386  72.119  1.00  0.00     0.000 G0
ATOM     20  C   UNL     1      64.979  86.499  70.365  1.00  0.00    -0.008 C 
ATOM     21  O   UNL     1      64.240  88.687  69.797  1.00  0.00    -0.291 OA
ATOM     22  C   UNL     1      65.692  86.170  69.114  1.00  0.00     0.048 C 
BRANCH  16  23
ATOM     23  O   UNL     1      64.702  88.733  72.691  1.00  0.00    -0.381 OA
ATOM     24  H   UNL     1      64.973  88.327  73.531  1.00  0.00     0.212 HD
ENDBRANCH  16  23
ENDBRANCH   6  15
BRANCH   7  25
ATOM     25  C   UNL     1      63.097  83.082  75.796  1.00  0.00     0.135 C 
BRANCH  25  26
ATOM     26  C   UNL     1      63.879  82.131  74.923  1.00  0.00    -0.040 A 
ATOM     27  C   UNL     1      65.040  81.532  75.412  1.00  0.00     0.004 A 
ATOM     28  C   UNL     1      63.441  81.851  73.630  1.00  0.00     0.004 A 
ATOM     29  C   UNL     1      65.763  80.652  74.606  1.00  0.00     0.000 A 
ATOM     30  C   UNL     1      64.164  80.971  72.823  1.00  0.00     0.000 A 
ATOM     31  C   UNL     1      65.325  80.373  73.312  1.00  0.00     0.000 A 
ENDBRANCH  25  26
ENDBRANCH   7  25
BRANCH  14  32
ATOM     32  C   UNL     1      65.139  86.189  78.209  1.00  0.00    -0.046 C 
ATOM     33  C   UNL     1      64.143  86.997  78.986  1.00  0.00     0.042 C 
ATOM     34  C   UNL     1      66.209  85.630  78.795  1.00  0.00     0.010 C 
ENDBRANCH  14  32
ENDBRANCH   3   4
BRANCH   2  35
ATOM     35  C   UNL     1      62.360  88.418  72.133  1.00  0.00     0.078 CG0
ATOM     36  G   UNL     1      63.785  87.874  72.041  1.00  0.00     0.000 G0
ENDBRANCH   2  35
ENDBRANCH   1   2
BRANCH   1  37
ATOM     37  O   UNL     1      59.639  88.077  71.994  1.00  0.00    -0.461 OA
BRANCH  37  38
ATOM     38  C   UNL     1      58.932  86.900  71.914  1.00  0.00     0.310 C 
ATOM     39  O   UNL     1      57.725  86.817  71.730  1.00  0.00    -0.252 OA
BRANCH  38  40
ATOM     40  C   UNL     1      59.874  85.732  72.089  1.00  0.00     0.158 C 
BRANCH  40  41
ATOM     41  C   UNL     1      60.699  85.454  70.859  1.00  0.00    -0.033 A 
ATOM     42  C   UNL     1      61.461  84.287  70.780  1.00  0.00     0.054 A 
ATOM     43  C   UNL     1      60.701  86.360  69.799  1.00  0.00     0.008 A 
ATOM     44  C   UNL     1      62.225  84.029  69.642  1.00  0.00     0.160 A 
ATOM     45  C   UNL     1      61.465  86.102  68.661  1.00  0.00     0.050 A 
ATOM     46  C   UNL     1      62.227  84.937  68.582  1.00  0.00     0.157 A 
BRANCH  44  47
ATOM     47  O   UNL     1      62.966  82.888  69.577  1.00  0.00    -0.493 OA
ATOM     48  C   UNL     1      62.289  81.660  69.843  1.00  0.00     0.278 C 
ENDBRANCH  44  47
BRANCH  46  49
ATOM     49  O   UNL     1      62.968  84.696  67.465  1.00  0.00    -0.504 OA
ATOM     50  H   UNL     1      63.048  83.735  67.340  1.00  0.00     0.293 HD
ENDBRANCH  46  49
ENDBRANCH  40  41
ENDBRANCH  38  40
ENDBRANCH  37  38
ENDBRANCH   1  37
TORSDOF 11
ENDMDL
MODEL 3
REMARK VINA RESULT:    -6.164     26.613     30.172
REMARK INTER + INTRA:         -12.362
REMARK INTER:                  -9.849
REMARK INTRA:                  -2.513
REMARK UNBOUND:                -1.514
REMARK SMILES C=C(C)[C@]12C[C@@H](C)[C@@]34O[C@](Cc5ccccc5)(O[C@@H]1[C@@H]3C=C(COC(=O)Cc1ccc(O)c(OC)c1)C[C@]1(O)C(=O)C(C)=C[C@@H]41)O2
REMARK SMILES IDX 23 1 22 2 21 3 20 4 9 5 8 6 10 7 6 8 18 9 46 10 19 11 5 12
REMARK SMILES IDX 7 13 4 14 45 15 38 16 44 17 40 18 42 20 41 21 43 22 39 23
REMARK SMILES IDX 11 25 12 26 13 27 17 28 14 29 16 30 15 31 2 32 3 33 1 34
REMARK SMILES IDX 37 35 24 37 25 38 26 39 27 40 28 41 36 42 29 43 33 44 30 45
REMARK SMILES IDX 31 46 34 47 35 48 32 49
REMARK H PARENT 39 24 32 50
REMARK Flexibility Score: 90.00
ROOT
ATOM      1  C   UNL     1      87.751  63.739  71.788  1.00  0.00     0.264 C 
ENDROOT
BRANCH   1   2
ATOM      2  C   UNL     1      86.929  64.946  71.399  1.00  0.00    -0.033 C 
ATOM      3  C   UNL     1      85.647  65.029  71.805  1.00  0.00    -0.015 C 
BRANCH   3   4
ATOM      4  C   UNL     1      84.601  66.085  71.488  1.00  0.00     0.078 C 
ATOM      5  O   UNL     1      84.730  67.788  73.278  1.00  0.00    -0.319 OA
ATOM      6  C   UNL     1      84.919  67.585  71.844  1.00  0.00     0.095 C 
ATOM      7  C   UNL     1      83.558  67.165  73.839  1.00  0.00     0.289 C 
ATOM      8  C   UNL     1      83.896  68.495  71.047  1.00  0.00     0.023 C 
ATOM      9  O   UNL     1      83.558  65.759  73.605  1.00  0.00    -0.320 OA
ATOM     10  O   UNL     1      82.354  67.652  73.254  1.00  0.00    -0.313 OA
ATOM     11  C   UNL     1      83.269  65.737  72.199  1.00  0.00     0.170 C 
ATOM     12  C   UNL     1      82.513  67.792  70.884  1.00  0.00     0.049 C 
ATOM     13  C   UNL     1      83.687  69.908  71.616  1.00  0.00     0.011 C 
ATOM     14  C   UNL     1      82.211  66.859  72.058  1.00  0.00     0.122 C 
BRANCH   6  15
ATOM     15  C   UNL     1      86.424  67.902  71.602  1.00  0.00     0.086 C 
ATOM     16  C   UNL     1      87.045  67.314  70.318  1.00  0.00     0.140 CG0
ATOM     17  C   UNL     1      86.882  69.333  71.589  1.00  0.00    -0.010 C 
ATOM     18  C   UNL     1      88.043  68.381  69.920  1.00  0.00     0.190 C 
ATOM     19  G   UNL     1      87.705  65.958  70.564  1.00  0.00     0.000 G0
ATOM     20  C   UNL     1      87.812  69.628  70.674  1.00  0.00    -0.008 C 
ATOM     21  O   UNL     1      88.899  68.263  69.058  1.00  0.00    -0.291 OA
ATOM     22  C   UNL     1      88.541  70.890  70.430  1.00  0.00     0.048 C 
BRANCH  16  23
ATOM     23  O   UNL     1      86.149  67.262  69.219  1.00  0.00    -0.381 OA
ATOM     24  H   UNL     1      86.104  68.145  68.818  1.00  0.00     0.212 HD
ENDBRANCH  16  23
ENDBRANCH   6  15
BRANCH   7  25
ATOM     25  C   UNL     1      83.543  67.436  75.330  1.00  0.00     0.135 C 
BRANCH  25  26
ATOM     26  C   UNL     1      83.873  66.202  76.132  1.00  0.00    -0.040 A 
ATOM     27  C   UNL     1      83.195  65.008  75.885  1.00  0.00     0.004 A 
ATOM     28  C   UNL     1      84.855  66.254  77.120  1.00  0.00     0.004 A 
ATOM     29  C   UNL     1      83.500  63.866  76.627  1.00  0.00     0.000 A 
ATOM     30  C   UNL     1      85.160  65.112  77.862  1.00  0.00     0.000 A 
ATOM     31  C   UNL     1      84.482  63.919  77.615  1.00  0.00     0.000 A 
ENDBRANCH  25  26
ENDBRANCH   7  25
BRANCH  14  32
ATOM     32  C   UNL     1      80.820  66.317  72.016  1.00  0.00    -0.046 C 
ATOM     33  C   UNL     1      80.335  65.640  73.264  1.00  0.00     0.042 C 
ATOM     34  C   UNL     1      80.047  66.428  70.925  1.00  0.00     0.010 C 
ENDBRANCH  14  32
ENDBRANCH   3   4
BRANCH   2  35
ATOM     35  C   UNL     1      87.705  65.950  70.568  1.00  0.00     0.078 CG0
ATOM     36  G   UNL     1      87.048  67.308  70.320  1.00  0.00     0.000 G0
ENDBRANCH   2  35
ENDBRANCH   1   2
BRANCH   1  37
ATOM     37  O   UNL     1      87.403  63.340  73.097  1.00  0.00    -0.461 OA
BRANCH  37  38
ATOM     38  C   UNL     1      88.376  63.489  74.057  1.00  0.00     0.310 C 
ATOM     39  O   UNL     1      89.567  63.258  73.894  1.00  0.00    -0.252 OA
BRANCH  38  40
ATOM     40  C   UNL     1      87.748  63.981  75.340  1.00  0.00     0.158 C 
BRANCH  40  41
ATOM     41  C   UNL     1      88.033  65.436  75.614  1.00  0.00    -0.033 A 
ATOM     42  C   UNL     1      88.741  65.804  76.758  1.00  0.00     0.054 A 
ATOM     43  C   UNL     1      87.589  66.413  74.724  1.00  0.00     0.008 A 
ATOM     44  C   UNL     1      89.005  67.150  77.012  1.00  0.00     0.160 A 
ATOM     45  C   UNL     1      87.852  67.759  74.978  1.00  0.00     0.050 A 
ATOM     46  C   UNL     1      88.560  68.128  76.121  1.00  0.00     0.157 A 
BRANCH  44  47
ATOM     47  O   UNL     1      89.697  67.497  78.132  1.00  0.00    -0.493 OA
ATOM     48  C   UNL     1      91.112  67.318  78.102  1.00  0.00     0.278 C 
ENDBRANCH  44  47
BRANCH  46  49
ATOM     49  O   UNL     1      88.812  69.445  76.358  1.00  0.00    -0.504 OA
ATOM     50  H   UNL     1      89.773  69.578  76.415  1.00  0.00     0.293 HD
ENDBRANCH  46  49
ENDBRANCH  40  41
ENDBRANCH  38  40
ENDBRANCH  37  38
ENDBRANCH   1  37
TORSDOF 11
ENDMDL
MODEL 4
REMARK VINA RESULT:    -6.139      3.405      8.151
REMARK INTER + INTRA:         -12.318
REMARK INTER:                 -10.003
REMARK INTRA:                  -2.315
REMARK UNBOUND:                -1.514
REMARK SMILES C=C(C)[C@]12C[C@@H](C)[C@@]34O[C@](Cc5ccccc5)(O[C@@H]1[C@@H]3C=C(COC(=O)Cc1ccc(O)c(OC)c1)C[C@]1(O)C(=O)C(C)=C[C@@H]41)O2
REMARK SMILES IDX 23 1 22 2 21 3 20 4 9 5 8 6 10 7 6 8 18 9 46 10 19 11 5 12
REMARK SMILES IDX 7 13 4 14 45 15 38 16 44 17 40 18 42 20 41 21 43 22 39 23
REMARK SMILES IDX 11 25 12 26 13 27 17 28 14 29 16 30 15 31 2 32 3 33 1 34
REMARK SMILES IDX 37 35 24 37 25 38 26 39 27 40 28 41 36 42 29 43 33 44 30 45
REMARK SMILES IDX 31 46 34 47 35 48 32 49
REMARK H PARENT 39 24 32 50
REMARK Flexibility Score: 90.00
ROOT
ATOM      1  C   UNL     1      59.607  88.451  74.882  1.00  0.00     0.264 C 
ENDROOT
BRANCH   1   2
ATOM      2  C   UNL     1      60.827  87.572  75.031  1.00  0.00    -0.033 C 
ATOM      3  C   UNL     1      60.943  86.471  74.262  1.00  0.00    -0.015 C 
BRANCH   3   4
ATOM      4  C   UNL     1      62.018  85.396  74.272  1.00  0.00     0.078 C 
ATOM      5  O   UNL     1      63.720  86.065  72.606  1.00  0.00    -0.319 OA
ATOM      6  C   UNL     1      63.513  85.830  74.033  1.00  0.00     0.095 C 
ATOM      7  C   UNL     1      63.120  85.094  71.728  1.00  0.00     0.289 C 
ATOM      8  C   UNL     1      64.441  84.637  74.508  1.00  0.00     0.023 C 
ATOM      9  O   UNL     1      61.714  85.001  71.943  1.00  0.00    -0.320 OA
ATOM     10  O   UNL     1      63.630  83.780  71.945  1.00  0.00    -0.313 OA
ATOM     11  C   UNL     1      61.696  84.320  73.207  1.00  0.00     0.170 C 
ATOM     12  C   UNL     1      63.763  83.254  74.262  1.00  0.00     0.049 C 
ATOM     13  C   UNL     1      65.858  84.626  73.912  1.00  0.00     0.011 C 
ATOM     14  C   UNL     1      62.838  83.285  73.045  1.00  0.00     0.122 C 
BRANCH   6  15
ATOM     15  C   UNL     1      63.801  87.207  74.699  1.00  0.00     0.086 C 
ATOM     16  C   UNL     1      63.224  87.411  76.115  1.00  0.00     0.140 CG0
ATOM     17  C   UNL     1      65.221  87.680  74.829  1.00  0.00    -0.010 C 
ATOM     18  C   UNL     1      64.276  88.278  76.774  1.00  0.00     0.190 C 
ATOM     19  G   UNL     1      61.849  88.078  76.088  1.00  0.00     0.000 G0
ATOM     20  C   UNL     1      65.513  88.310  75.971  1.00  0.00    -0.008 C 
ATOM     21  O   UNL     1      64.156  88.843  77.850  1.00  0.00    -0.291 OA
ATOM     22  C   UNL     1      66.763  88.970  76.401  1.00  0.00     0.048 C 
BRANCH  16  23
ATOM     23  O   UNL     1      63.213  86.234  76.906  1.00  0.00    -0.381 OA
ATOM     24  H   UNL     1      63.842  85.601  76.522  1.00  0.00     0.212 HD
ENDBRANCH  16  23
ENDBRANCH   6  15
BRANCH   7  25
ATOM     25  C   UNL     1      63.393  85.512  70.298  1.00  0.00     0.135 C 
BRANCH  25  26
ATOM     26  C   UNL     1      63.022  84.433  69.312  1.00  0.00    -0.040 A 
ATOM     27  C   UNL     1      64.019  83.659  68.717  1.00  0.00     0.004 A 
ATOM     28  C   UNL     1      61.683  84.207  68.996  1.00  0.00     0.004 A 
ATOM     29  C   UNL     1      63.676  82.660  67.805  1.00  0.00     0.000 A 
ATOM     30  C   UNL     1      61.340  83.208  68.084  1.00  0.00     0.000 A 
ATOM     31  C   UNL     1      62.337  82.435  67.489  1.00  0.00     0.000 A 
ENDBRANCH  25  26
ENDBRANCH   7  25
BRANCH  14  32
ATOM     32  C   UNL     1      62.321  81.932  72.681  1.00  0.00    -0.046 C 
ATOM     33  C   UNL     1      62.122  80.972  73.816  1.00  0.00     0.042 C 
ATOM     34  C   UNL     1      62.051  81.593  71.411  1.00  0.00     0.010 C 
ENDBRANCH  14  32
ENDBRANCH   3   4
BRANCH   2  35
ATOM     35  C   UNL     1      61.805  88.083  76.072  1.00  0.00     0.078 CG0
ATOM     36  G   UNL     1      63.182  87.423  76.120  1.00  0.00     0.000 G0
ENDBRANCH   2  35
ENDBRANCH   1   2
BRANCH   1  37
ATOM     37  O   UNL     1      58.494  87.652  74.546  1.00  0.00    -0.461 OA
BRANCH  37  38
ATOM     38  C   UNL     1      57.690  88.123  73.534  1.00  0.00     0.310 C 
ATOM     39  O   UNL     1      57.040  89.159  73.577  1.00  0.00    -0.252 OA
BRANCH  38  40
ATOM     40  C   UNL     1      57.735  87.165  72.367  1.00  0.00     0.158 C 
BRANCH  40  41
ATOM     41  C   UNL     1      58.234  87.807  71.098  1.00  0.00    -0.033 A 
ATOM     42  C   UNL     1      59.590  88.108  70.956  1.00  0.00     0.054 A 
ATOM     43  C   UNL     1      57.343  88.101  70.067  1.00  0.00     0.008 A 
ATOM     44  C   UNL     1      60.052  88.702  69.781  1.00  0.00     0.160 A 
ATOM     45  C   UNL     1      57.805  88.695  68.893  1.00  0.00     0.050 A 
ATOM     46  C   UNL     1      59.159  88.996  68.750  1.00  0.00     0.157 A 
BRANCH  44  47
ATOM     47  O   UNL     1      61.377  88.991  69.654  1.00  0.00    -0.493 OA
ATOM     48  C   UNL     1      62.176  88.905  70.833  1.00  0.00     0.278 C 
ENDBRANCH  44  47
BRANCH  46  49
ATOM     49  O   UNL     1      59.600  89.575  67.598  1.00  0.00    -0.504 OA
ATOM     50  H   UNL     1      60.524  89.853  67.717  1.00  0.00     0.293 HD
ENDBRANCH  46  49
ENDBRANCH  40  41
ENDBRANCH  38  40
ENDBRANCH  37  38
ENDBRANCH   1  37
TORSDOF 11
ENDMDL
MODEL 5
REMARK VINA RESULT:    -5.873     21.203     25.930
REMARK INTER + INTRA:         -11.849
REMARK INTER:                 -10.044
REMARK INTRA:                  -1.806
REMARK UNBOUND:                -1.514
REMARK SMILES C=C(C)[C@]12C[C@@H](C)[C@@]34O[C@](Cc5ccccc5)(O[C@@H]1[C@@H]3C=C(COC(=O)Cc1ccc(O)c(OC)c1)C[C@]1(O)C(=O)C(C)=C[C@@H]41)O2
REMARK SMILES IDX 23 1 22 2 21 3 20 4 9 5 8 6 10 7 6 8 18 9 46 10 19 11 5 12
REMARK SMILES IDX 7 13 4 14 45 15 38 16 44 17 40 18 42 20 41 21 43 22 39 23
REMARK SMILES IDX 11 25 12 26 13 27 17 28 14 29 16 30 15 31 2 32 3 33 1 34
REMARK SMILES IDX 37 35 24 37 25 38 26 39 27 40 28 41 36 42 29 43 33 44 30 45
REMARK SMILES IDX 31 46 34 47 35 48 32 49
REMARK H PARENT 39 24 32 50
REMARK Flexibility Score: 90.00
ROOT
ATOM      1  C   UNL     1      78.763  65.742  86.807  1.00  0.00     0.264 C 
ENDROOT
BRANCH   1   2
ATOM      2  C   UNL     1      79.358  67.131  86.798  1.00  0.00    -0.033 C 
ATOM      3  C   UNL     1      78.538  68.199  86.869  1.00  0.00    -0.015 C 
BRANCH   3   4
ATOM      4  C   UNL     1      78.875  69.680  86.800  1.00  0.00     0.078 C 
ATOM      5  O   UNL     1      79.185  70.457  89.128  1.00  0.00    -0.319 OA
ATOM      6  C   UNL     1      79.882  70.268  87.858  1.00  0.00     0.095 C 
ATOM      7  C   UNL     1      77.862  71.016  89.029  1.00  0.00     0.289 C 
ATOM      8  C   UNL     1      80.376  71.674  87.318  1.00  0.00     0.023 C 
ATOM      9  O   UNL     1      77.023  70.216  88.200  1.00  0.00    -0.320 OA
ATOM     10  O   UNL     1      77.865  72.312  88.436  1.00  0.00    -0.313 OA
ATOM     11  C   UNL     1      77.579  70.520  86.911  1.00  0.00     0.170 C 
ATOM     12  C   UNL     1      79.259  72.401  86.509  1.00  0.00     0.049 C 
ATOM     13  C   UNL     1      80.939  72.629  88.384  1.00  0.00     0.011 C 
ATOM     14  C   UNL     1      77.863  72.039  87.019  1.00  0.00     0.122 C 
BRANCH   6  15
ATOM     15  C   UNL     1      81.006  69.242  88.179  1.00  0.00     0.086 C 
ATOM     16  C   UNL     1      81.600  68.484  86.974  1.00  0.00     0.140 CG0
ATOM     17  C   UNL     1      82.221  69.695  88.940  1.00  0.00    -0.010 C 
ATOM     18  C   UNL     1      83.049  68.313  87.378  1.00  0.00     0.190 C 
ATOM     19  G   UNL     1      80.899  67.148  86.731  1.00  0.00     0.000 G0
ATOM     20  C   UNL     1      83.381  69.170  88.532  1.00  0.00    -0.008 C 
ATOM     21  O   UNL     1      83.865  67.605  86.807  1.00  0.00    -0.291 OA
ATOM     22  C   UNL     1      84.742  69.320  89.088  1.00  0.00     0.048 C 
BRANCH  16  23
ATOM     23  O   UNL     1      81.668  69.256  85.787  1.00  0.00    -0.381 OA
ATOM     24  H   UNL     1      82.154  68.747  85.117  1.00  0.00     0.212 HD
ENDBRANCH  16  23
ENDBRANCH   6  15
BRANCH   7  25
ATOM     25  C   UNL     1      77.275  71.099  90.423  1.00  0.00     0.135 C 
BRANCH  25  26
ATOM     26  C   UNL     1      77.624  72.398  91.107  1.00  0.00    -0.040 A 
ATOM     27  C   UNL     1      78.905  72.591  91.623  1.00  0.00     0.004 A 
ATOM     28  C   UNL     1      76.667  73.406  91.222  1.00  0.00     0.004 A 
ATOM     29  C   UNL     1      79.229  73.792  92.256  1.00  0.00     0.000 A 
ATOM     30  C   UNL     1      76.990  74.607  91.854  1.00  0.00     0.000 A 
ATOM     31  C   UNL     1      78.271  74.799  92.371  1.00  0.00     0.000 A 
ENDBRANCH  25  26
ENDBRANCH   7  25
BRANCH  14  32
ATOM     32  C   UNL     1      76.789  72.858  86.383  1.00  0.00    -0.046 C 
ATOM     33  C   UNL     1      75.634  73.234  87.263  1.00  0.00     0.042 C 
ATOM     34  C   UNL     1      76.852  73.237  85.098  1.00  0.00     0.010 C 
ENDBRANCH  14  32
ENDBRANCH   3   4
BRANCH   2  35
ATOM     35  C   UNL     1      80.872  67.129  86.712  1.00  0.00     0.078 CG0
ATOM     36  G   UNL     1      81.588  68.453  86.973  1.00  0.00     0.000 G0
ENDBRANCH   2  35
ENDBRANCH   1   2
BRANCH   1  37
ATOM     37  O   UNL     1      77.897  65.597  85.702  1.00  0.00    -0.461 OA
BRANCH  37  38
ATOM     38  C   UNL     1      78.467  65.132  84.540  1.00  0.00     0.310 C 
ATOM     39  O   UNL     1      79.063  64.070  84.424  1.00  0.00    -0.252 OA
BRANCH  38  40
ATOM     40  C   UNL     1      78.244  66.136  83.433  1.00  0.00     0.158 C 
BRANCH  40  41
ATOM     41  C   UNL     1      76.796  66.520  83.270  1.00  0.00    -0.033 A 
ATOM     42  C   UNL     1      76.302  67.660  83.905  1.00  0.00     0.054 A 
ATOM     43  C   UNL     1      75.950  65.737  82.485  1.00  0.00     0.008 A 
ATOM     44  C   UNL     1      74.961  68.016  83.755  1.00  0.00     0.160 A 
ATOM     45  C   UNL     1      74.610  66.092  82.335  1.00  0.00     0.050 A 
ATOM     46  C   UNL     1      74.115  67.231  82.970  1.00  0.00     0.157 A 
BRANCH  44  47
ATOM     47  O   UNL     1      74.490  69.131  84.379  1.00  0.00    -0.493 OA
ATOM     48  C   UNL     1      75.120  70.370  84.057  1.00  0.00     0.278 C 
ENDBRANCH  44  47
BRANCH  46  49
ATOM     49  O   UNL     1      72.805  67.569  82.815  1.00  0.00    -0.504 OA
ATOM     50  H   UNL     1      72.398  66.971  82.165  1.00  0.00     0.293 HD
ENDBRANCH  46  49
ENDBRANCH  40  41
ENDBRANCH  38  40
ENDBRANCH  37  38
ENDBRANCH   1  37
TORSDOF 11
ENDMDL
MODEL 6
REMARK VINA RESULT:    -5.847      3.272      8.863
REMARK INTER + INTRA:         -11.804
REMARK INTER:                 -10.741
REMARK INTRA:                  -1.063
REMARK UNBOUND:                -1.514
REMARK SMILES C=C(C)[C@]12C[C@@H](C)[C@@]34O[C@](Cc5ccccc5)(O[C@@H]1[C@@H]3C=C(COC(=O)Cc1ccc(O)c(OC)c1)C[C@]1(O)C(=O)C(C)=C[C@@H]41)O2
REMARK SMILES IDX 23 1 22 2 21 3 20 4 9 5 8 6 10 7 6 8 18 9 46 10 19 11 5 12
REMARK SMILES IDX 7 13 4 14 45 15 38 16 44 17 40 18 42 20 41 21 43 22 39 23
REMARK SMILES IDX 11 25 12 26 13 27 17 28 14 29 16 30 15 31 2 32 3 33 1 34
REMARK SMILES IDX 37 35 24 37 25 38 26 39 27 40 28 41 36 42 29 43 33 44 30 45
REMARK SMILES IDX 31 46 34 47 35 48 32 49
REMARK H PARENT 39 24 32 50
REMARK Flexibility Score: 90.00
ROOT
ATOM      1  C   UNL     1      60.101  89.273  72.962  1.00  0.00     0.264 C 
ENDROOT
BRANCH   1   2
ATOM      2  C   UNL     1      61.523  88.775  73.082  1.00  0.00    -0.033 C 
ATOM      3  C   UNL     1      61.948  88.272  74.258  1.00  0.00    -0.015 C 
BRANCH   3   4
ATOM      4  C   UNL     1      63.332  87.784  74.654  1.00  0.00     0.078 C 
ATOM      5  O   UNL     1      63.394  85.352  74.204  1.00  0.00    -0.319 OA
ATOM      6  C   UNL     1      63.988  86.628  73.810  1.00  0.00     0.095 C 
ATOM      7  C   UNL     1      63.206  85.170  75.620  1.00  0.00     0.289 C 
ATOM      8  C   UNL     1      65.537  86.609  74.145  1.00  0.00     0.023 C 
ATOM      9  O   UNL     1      62.394  86.204  76.170  1.00  0.00    -0.320 OA
ATOM     10  O   UNL     1      64.435  85.221  76.340  1.00  0.00    -0.313 OA
ATOM     11  C   UNL     1      63.319  87.302  76.126  1.00  0.00     0.170 C 
ATOM     12  C   UNL     1      65.807  87.028  75.623  1.00  0.00     0.049 C 
ATOM     13  C   UNL     1      66.261  85.286  73.848  1.00  0.00     0.011 C 
ATOM     14  C   UNL     1      64.652  86.633  76.543  1.00  0.00     0.122 C 
BRANCH   6  15
ATOM     15  C   UNL     1      63.632  86.774  72.303  1.00  0.00     0.086 C 
ATOM     16  C   UNL     1      63.697  88.203  71.724  1.00  0.00     0.140 CG0
ATOM     17  C   UNL     1      64.374  85.952  71.287  1.00  0.00    -0.010 C 
ATOM     18  C   UNL     1      64.167  87.959  70.306  1.00  0.00     0.190 C 
ATOM     19  G   UNL     1      62.343  88.910  71.779  1.00  0.00     0.000 G0
ATOM     20  C   UNL     1      64.665  86.580  70.143  1.00  0.00    -0.008 C 
ATOM     21  O   UNL     1      64.188  88.794  69.414  1.00  0.00    -0.291 OA
ATOM     22  C   UNL     1      65.301  86.069  68.912  1.00  0.00     0.048 C 
BRANCH  16  23
ATOM     23  O   UNL     1      64.722  89.004  72.288  1.00  0.00    -0.381 OA
ATOM     24  H   UNL     1      64.802  89.816  71.761  1.00  0.00     0.212 HD
ENDBRANCH  16  23
ENDBRANCH   6  15
BRANCH   7  25
ATOM     25  C   UNL     1      62.544  83.825  75.843  1.00  0.00     0.135 C 
BRANCH  25  26
ATOM     26  C   UNL     1      63.043  82.782  74.874  1.00  0.00    -0.040 A 
ATOM     27  C   UNL     1      64.338  82.277  74.998  1.00  0.00     0.004 A 
ATOM     28  C   UNL     1      62.210  82.322  73.855  1.00  0.00     0.004 A 
ATOM     29  C   UNL     1      64.800  81.313  74.102  1.00  0.00     0.000 A 
ATOM     30  C   UNL     1      62.672  81.357  72.959  1.00  0.00     0.000 A 
ATOM     31  C   UNL     1      63.967  80.853  73.083  1.00  0.00     0.000 A 
ENDBRANCH  25  26
ENDBRANCH   7  25
BRANCH  14  32
ATOM     32  C   UNL     1      64.965  86.858  77.987  1.00  0.00    -0.046 C 
ATOM     33  C   UNL     1      65.813  85.814  78.651  1.00  0.00     0.042 C 
ATOM     34  C   UNL     1      64.513  87.932  78.652  1.00  0.00     0.010 C 
ENDBRANCH  14  32
ENDBRANCH   3   4
BRANCH   2  35
ATOM     35  C   UNL     1      62.311  88.910  71.792  1.00  0.00     0.078 CG0
ATOM     36  G   UNL     1      63.659  88.195  71.719  1.00  0.00     0.000 G0
ENDBRANCH   2  35
ENDBRANCH   1   2
BRANCH   1  37
ATOM     37  O   UNL     1      59.632  89.036  71.653  1.00  0.00    -0.461 OA
BRANCH  37  38
ATOM     38  C   UNL     1      58.492  88.274  71.544  1.00  0.00     0.310 C 
ATOM     39  O   UNL     1      57.834  87.856  72.486  1.00  0.00    -0.252 OA
BRANCH  38  40
ATOM     40  C   UNL     1      58.183  88.034  70.085  1.00  0.00     0.158 C 
BRANCH  40  41
ATOM     41  C   UNL     1      57.202  89.030  69.521  1.00  0.00    -0.033 A 
ATOM     42  C   UNL     1      56.706  90.055  70.328  1.00  0.00     0.054 A 
ATOM     43  C   UNL     1      56.790  88.927  68.192  1.00  0.00     0.008 A 
ATOM     44  C   UNL     1      55.798  90.976  69.806  1.00  0.00     0.160 A 
ATOM     45  C   UNL     1      55.882  89.849  67.670  1.00  0.00     0.050 A 
ATOM     46  C   UNL     1      55.386  90.873  68.476  1.00  0.00     0.157 A 
BRANCH  44  47
ATOM     47  O   UNL     1      55.321  91.972  70.603  1.00  0.00    -0.493 OA
ATOM     48  C   UNL     1      56.224  92.524  71.561  1.00  0.00     0.278 C 
ENDBRANCH  44  47
BRANCH  46  49
ATOM     49  O   UNL     1      54.501  91.767  67.955  1.00  0.00    -0.504 OA
ATOM     50  H   UNL     1      54.891  92.657  67.993  1.00  0.00     0.293 HD
ENDBRANCH  46  49
ENDBRANCH  40  41
ENDBRANCH  38  40
ENDBRANCH  37  38
ENDBRANCH   1  37
TORSDOF 11
ENDMDL
MODEL 7
REMARK VINA RESULT:    -5.628      5.135      7.192
REMARK INTER + INTRA:         -11.420
REMARK INTER:                 -10.971
REMARK INTRA:                  -0.449
REMARK UNBOUND:                -1.514
REMARK SMILES C=C(C)[C@]12C[C@@H](C)[C@@]34O[C@](Cc5ccccc5)(O[C@@H]1[C@@H]3C=C(COC(=O)Cc1ccc(O)c(OC)c1)C[C@]1(O)C(=O)C(C)=C[C@@H]41)O2
REMARK SMILES IDX 23 1 22 2 21 3 20 4 9 5 8 6 10 7 6 8 18 9 46 10 19 11 5 12
REMARK SMILES IDX 7 13 4 14 45 15 38 16 44 17 40 18 42 20 41 21 43 22 39 23
REMARK SMILES IDX 11 25 12 26 13 27 17 28 14 29 16 30 15 31 2 32 3 33 1 34
REMARK SMILES IDX 37 35 24 37 25 38 26 39 27 40 28 41 36 42 29 43 33 44 30 45
REMARK SMILES IDX 31 46 34 47 35 48 32 49
REMARK H PARENT 39 24 32 50
REMARK Flexibility Score: 90.00
ROOT
ATOM      1  C   UNL     1      64.586  88.841  73.292  1.00  0.00     0.264 C 
ENDROOT
BRANCH   1   2
ATOM      2  C   UNL     1      63.384  88.179  72.660  1.00  0.00    -0.033 C 
ATOM      3  C   UNL     1      63.497  86.922  72.187  1.00  0.00    -0.015 C 
BRANCH   3   4
ATOM      4  C   UNL     1      62.475  86.074  71.448  1.00  0.00     0.078 C 
ATOM      5  O   UNL     1      61.245  84.776  73.158  1.00  0.00    -0.319 OA
ATOM      6  C   UNL     1      61.084  85.809  72.137  1.00  0.00     0.095 C 
ATOM      7  C   UNL     1      62.067  83.656  72.779  1.00  0.00     0.289 C 
ATOM      8  C   UNL     1      60.087  85.289  71.020  1.00  0.00     0.023 C 
ATOM      9  O   UNL     1      63.373  84.080  72.395  1.00  0.00    -0.320 OA
ATOM     10  O   UNL     1      61.543  82.957  71.653  1.00  0.00    -0.313 OA
ATOM     11  C   UNL     1      63.078  84.684  71.126  1.00  0.00     0.170 C 
ATOM     12  C   UNL     1      60.830  84.445  69.939  1.00  0.00     0.049 C 
ATOM     13  C   UNL     1      58.870  84.504  71.536  1.00  0.00     0.011 C 
ATOM     14  C   UNL     1      62.035  83.709  70.525  1.00  0.00     0.122 C 
BRANCH   6  15
ATOM     15  C   UNL     1      60.610  87.064  72.925  1.00  0.00     0.086 C 
ATOM     16  C   UNL     1      60.815  88.424  72.224  1.00  0.00     0.140 CG0
ATOM     17  C   UNL     1      59.191  87.134  73.415  1.00  0.00    -0.010 C 
ATOM     18  C   UNL     1      59.614  89.217  72.694  1.00  0.00     0.190 C 
ATOM     19  G   UNL     1      62.139  89.080  72.614  1.00  0.00     0.000 G0
ATOM     20  C   UNL     1      58.613  88.336  73.325  1.00  0.00    -0.008 C 
ATOM     21  O   UNL     1      59.453  90.417  72.537  1.00  0.00    -0.291 OA
ATOM     22  C   UNL     1      57.281  88.788  73.778  1.00  0.00     0.048 C 
BRANCH  16  23
ATOM     23  O   UNL     1      60.658  88.373  70.816  1.00  0.00    -0.381 OA
ATOM     24  H   UNL     1      61.365  87.818  70.448  1.00  0.00     0.212 HD
ENDBRANCH  16  23
ENDBRANCH   6  15
BRANCH   7  25
ATOM     25  C   UNL     1      62.162  82.714  73.961  1.00  0.00     0.135 C 
BRANCH  25  26
ATOM     26  C   UNL     1      63.446  81.922  73.952  1.00  0.00    -0.040 A 
ATOM     27  C   UNL     1      63.424  80.562  73.642  1.00  0.00     0.004 A 
ATOM     28  C   UNL     1      64.655  82.550  74.251  1.00  0.00     0.004 A 
ATOM     29  C   UNL     1      64.612  79.830  73.633  1.00  0.00     0.000 A 
ATOM     30  C   UNL     1      65.843  81.817  74.242  1.00  0.00     0.000 A 
ATOM     31  C   UNL     1      65.820  80.457  73.933  1.00  0.00     0.000 A 
ENDBRANCH  25  26
ENDBRANCH   7  25
BRANCH  14  32
ATOM     32  C   UNL     1      62.652  82.754  69.556  1.00  0.00    -0.046 C 
ATOM     33  C   UNL     1      62.856  81.352  70.047  1.00  0.00     0.042 C 
ATOM     34  C   UNL     1      63.004  83.130  68.317  1.00  0.00     0.010 C 
ENDBRANCH  14  32
ENDBRANCH   3   4
BRANCH   2  35
ATOM     35  C   UNL     1      62.152  89.064  72.654  1.00  0.00     0.078 CG0
ATOM     36  G   UNL     1      60.838  88.430  72.200  1.00  0.00     0.000 G0
ENDBRANCH   2  35
ENDBRANCH   1   2
BRANCH   1  37
ATOM     37  O   UNL     1      65.646  88.872  72.361  1.00  0.00    -0.461 OA
BRANCH  37  38
ATOM     38  C   UNL     1      66.802  89.492  72.775  1.00  0.00     0.310 C 
ATOM     39  O   UNL     1      67.221  89.501  73.924  1.00  0.00    -0.252 OA
BRANCH  38  40
ATOM     40  C   UNL     1      67.469  90.156  71.594  1.00  0.00     0.158 C 
BRANCH  40  41
ATOM     41  C   UNL     1      68.301  89.202  70.775  1.00  0.00    -0.033 A 
ATOM     42  C   UNL     1      69.613  89.535  70.437  1.00  0.00     0.054 A 
ATOM     43  C   UNL     1      67.760  87.986  70.358  1.00  0.00     0.008 A 
ATOM     44  C   UNL     1      70.383  88.652  69.679  1.00  0.00     0.160 A 
ATOM     45  C   UNL     1      68.530  87.103  69.600  1.00  0.00     0.050 A 
ATOM     46  C   UNL     1      69.841  87.436  69.261  1.00  0.00     0.157 A 
BRANCH  44  47
ATOM     47  O   UNL     1      71.663  88.988  69.354  1.00  0.00    -0.493 OA
ATOM     48  C   UNL     1      72.475  89.528  70.395  1.00  0.00     0.278 C 
ENDBRANCH  44  47
BRANCH  46  49
ATOM     49  O   UNL     1      70.584  86.565  68.522  1.00  0.00    -0.504 OA
ATOM     50  H   UNL     1      70.353  85.656  68.777  1.00  0.00     0.293 HD
ENDBRANCH  46  49
ENDBRANCH  40  41
ENDBRANCH  38  40
ENDBRANCH  37  38
ENDBRANCH   1  37
TORSDOF 11
ENDMDL
MODEL 8
REMARK VINA RESULT:    -5.288     20.522     25.001
REMARK INTER + INTRA:         -10.820
REMARK INTER:                  -8.857
REMARK INTRA:                  -1.963
REMARK UNBOUND:                -1.514
REMARK SMILES C=C(C)[C@]12C[C@@H](C)[C@@]34O[C@](Cc5ccccc5)(O[C@@H]1[C@@H]3C=C(COC(=O)Cc1ccc(O)c(OC)c1)C[C@]1(O)C(=O)C(C)=C[C@@H]41)O2
REMARK SMILES IDX 23 1 22 2 21 3 20 4 9 5 8 6 10 7 6 8 18 9 46 10 19 11 5 12
REMARK SMILES IDX 7 13 4 14 45 15 38 16 44 17 40 18 42 20 41 21 43 22 39 23
REMARK SMILES IDX 11 25 12 26 13 27 17 28 14 29 16 30 15 31 2 32 3 33 1 34
REMARK SMILES IDX 37 35 24 37 25 38 26 39 27 40 28 41 36 42 29 43 33 44 30 45
REMARK SMILES IDX 31 46 34 47 35 48 32 49
REMARK H PARENT 39 24 32 50
REMARK Flexibility Score: 90.00
ROOT
ATOM      1  C   UNL     1      78.025  66.040  85.759  1.00  0.00     0.264 C 
ENDROOT
BRANCH   1   2
ATOM      2  C   UNL     1      78.755  67.315  86.113  1.00  0.00    -0.033 C 
ATOM      3  C   UNL     1      78.082  68.483  86.109  1.00  0.00    -0.015 C 
BRANCH   3   4
ATOM      4  C   UNL     1      78.596  69.893  86.349  1.00  0.00     0.078 C 
ATOM      5  O   UNL     1      78.301  70.366  88.759  1.00  0.00    -0.319 OA
ATOM      6  C   UNL     1      79.311  70.206  87.716  1.00  0.00     0.095 C 
ATOM      7  C   UNL     1      77.140  71.130  88.382  1.00  0.00     0.289 C 
ATOM      8  C   UNL     1      80.103  71.568  87.542  1.00  0.00     0.023 C 
ATOM      9  O   UNL     1      76.492  70.559  87.247  1.00  0.00    -0.320 OA
ATOM     10  O   UNL     1      77.469  72.464  88.006  1.00  0.00    -0.313 OA
ATOM     11  C   UNL     1      77.432  70.906  86.219  1.00  0.00     0.170 C 
ATOM     12  C   UNL     1      79.365  72.538  86.570  1.00  0.00     0.049 C 
ATOM     13  C   UNL     1      80.438  72.308  88.847  1.00  0.00     0.011 C 
ATOM     14  C   UNL     1      77.849  72.344  86.619  1.00  0.00     0.122 C 
BRANCH   6  15
ATOM     15  C   UNL     1      80.164  68.991  88.184  1.00  0.00     0.086 C 
ATOM     16  C   UNL     1      80.985  68.276  87.091  1.00  0.00     0.140 CG0
ATOM     17  C   UNL     1      81.152  69.172  89.302  1.00  0.00    -0.010 C 
ATOM     18  C   UNL     1      82.225  67.843  87.845  1.00  0.00     0.190 C 
ATOM     19  G   UNL     1      80.230  67.096  86.481  1.00  0.00     0.000 G0
ATOM     20  C   UNL     1      82.309  68.517  89.154  1.00  0.00    -0.008 C 
ATOM     21  O   UNL     1      83.080  67.080  87.423  1.00  0.00    -0.291 OA
ATOM     22  C   UNL     1      83.459  68.399  90.075  1.00  0.00     0.048 C 
BRANCH  16  23
ATOM     23  O   UNL     1      81.485  69.145  86.088  1.00  0.00    -0.381 OA
ATOM     24  H   UNL     1      82.240  68.713  85.656  1.00  0.00     0.212 HD
ENDBRANCH  16  23
ENDBRANCH   6  15
BRANCH   7  25
ATOM     25  C   UNL     1      76.184  71.156  89.557  1.00  0.00     0.135 C 
BRANCH  25  26
ATOM     26  C   UNL     1      75.324  72.395  89.559  1.00  0.00    -0.040 A 
ATOM     27  C   UNL     1      75.728  73.524  90.273  1.00  0.00     0.004 A 
ATOM     28  C   UNL     1      74.125  72.413  88.846  1.00  0.00     0.004 A 
ATOM     29  C   UNL     1      74.932  74.670  90.274  1.00  0.00     0.000 A 
ATOM     30  C   UNL     1      73.330  73.559  88.847  1.00  0.00     0.000 A 
ATOM     31  C   UNL     1      73.734  74.687  89.562  1.00  0.00     0.000 A 
ENDBRANCH  25  26
ENDBRANCH   7  25
BRANCH  14  32
ATOM     32  C   UNL     1      77.111  73.381  85.837  1.00  0.00    -0.046 C 
ATOM     33  C   UNL     1      77.523  74.804  86.070  1.00  0.00     0.042 C 
ATOM     34  C   UNL     1      76.135  73.058  84.975  1.00  0.00     0.010 C 
ENDBRANCH  14  32
ENDBRANCH   3   4
BRANCH   2  35
ATOM     35  C   UNL     1      80.217  67.089  86.449  1.00  0.00     0.078 CG0
ATOM     36  G   UNL     1      80.974  68.251  87.090  1.00  0.00     0.000 G0
ENDBRANCH   2  35
ENDBRANCH   1   2
BRANCH   1  37
ATOM     37  O   UNL     1      76.896  66.352  84.970  1.00  0.00    -0.461 OA
BRANCH  37  38
ATOM     38  C   UNL     1      77.000  66.082  83.625  1.00  0.00     0.310 C 
ATOM     39  O   UNL     1      77.423  65.037  83.149  1.00  0.00    -0.252 OA
BRANCH  38  40
ATOM     40  C   UNL     1      76.514  67.272  82.833  1.00  0.00     0.158 C 
BRANCH  40  41
ATOM     41  C   UNL     1      75.264  67.890  83.406  1.00  0.00    -0.033 A 
ATOM     42  C   UNL     1      74.054  67.197  83.347  1.00  0.00     0.054 A 
ATOM     43  C   UNL     1      75.317  69.152  83.995  1.00  0.00     0.008 A 
ATOM     44  C   UNL     1      72.897  67.768  83.877  1.00  0.00     0.160 A 
ATOM     45  C   UNL     1      74.160  69.724  84.526  1.00  0.00     0.050 A 
ATOM     46  C   UNL     1      72.950  69.032  84.467  1.00  0.00     0.157 A 
BRANCH  44  47
ATOM     47  O   UNL     1      71.722  67.083  83.814  1.00  0.00    -0.493 OA
ATOM     48  C   UNL     1      71.723  65.746  84.314  1.00  0.00     0.278 C 
ENDBRANCH  44  47
BRANCH  46  49
ATOM     49  O   UNL     1      71.828  69.599  84.989  1.00  0.00    -0.504 OA
ATOM     50  H   UNL     1      71.574  70.362  84.442  1.00  0.00     0.293 HD
ENDBRANCH  46  49
ENDBRANCH  40  41
ENDBRANCH  38  40
ENDBRANCH  37  38
ENDBRANCH   1  37
TORSDOF 11
ENDMDL
MODEL 9
REMARK VINA RESULT:    -5.171      1.420      2.065
REMARK INTER + INTRA:         -10.616
REMARK INTER:                  -9.610
REMARK INTRA:                  -1.006
REMARK UNBOUND:                -1.514
REMARK SMILES C=C(C)[C@]12C[C@@H](C)[C@@]34O[C@](Cc5ccccc5)(O[C@@H]1[C@@H]3C=C(COC(=O)Cc1ccc(O)c(OC)c1)C[C@]1(O)C(=O)C(C)=C[C@@H]41)O2
REMARK SMILES IDX 23 1 22 2 21 3 20 4 9 5 8 6 10 7 6 8 18 9 46 10 19 11 5 12
REMARK SMILES IDX 7 13 4 14 45 15 38 16 44 17 40 18 42 20 41 21 43 22 39 23
REMARK SMILES IDX 11 25 12 26 13 27 17 28 14 29 16 30 15 31 2 32 3 33 1 34
REMARK SMILES IDX 37 35 24 37 25 38 26 39 27 40 28 41 36 42 29 43 33 44 30 45
REMARK SMILES IDX 31 46 34 47 35 48 32 49
REMARK H PARENT 39 24 32 50
REMARK Flexibility Score: 90.00
ROOT
ATOM      1  C   UNL     1      61.822  88.912  78.701  1.00  0.00     0.264 C 
ENDROOT
BRANCH   1   2
ATOM      2  C   UNL     1      61.845  88.812  77.193  1.00  0.00    -0.033 C 
ATOM      3  C   UNL     1      62.709  87.963  76.601  1.00  0.00    -0.015 C 
BRANCH   3   4
ATOM      4  C   UNL     1      62.979  87.736  75.123  1.00  0.00     0.078 C 
ATOM      5  O   UNL     1      61.490  85.900  74.393  1.00  0.00    -0.319 OA
ATOM      6  C   UNL     1      61.775  87.320  74.198  1.00  0.00     0.095 C 
ATOM      7  C   UNL     1      62.646  85.045  74.471  1.00  0.00     0.289 C 
ATOM      8  C   UNL     1      62.218  87.563  72.696  1.00  0.00     0.023 C 
ATOM      9  O   UNL     1      63.519  85.451  75.522  1.00  0.00    -0.320 OA
ATOM     10  O   UNL     1      63.431  85.085  73.282  1.00  0.00    -0.313 OA
ATOM     11  C   UNL     1      64.066  86.648  74.948  1.00  0.00     0.170 C 
ATOM     12  C   UNL     1      63.745  87.311  72.502  1.00  0.00     0.049 C 
ATOM     13  C   UNL     1      61.431  86.772  71.639  1.00  0.00     0.011 C 
ATOM     14  C   UNL     1      64.268  86.245  73.466  1.00  0.00     0.122 C 
BRANCH   6  15
ATOM     15  C   UNL     1      60.468  88.042  74.634  1.00  0.00     0.086 C 
ATOM     16  C   UNL     1      60.605  89.534  75.002  1.00  0.00     0.140 CG0
ATOM     17  C   UNL     1      59.272  88.015  73.724  1.00  0.00    -0.010 C 
ATOM     18  C   UNL     1      59.285  90.108  74.532  1.00  0.00     0.190 C 
ATOM     19  G   UNL     1      60.834  89.741  76.498  1.00  0.00     0.000 G0
ATOM     20  C   UNL     1      58.570  89.152  73.666  1.00  0.00    -0.008 C 
ATOM     21  O   UNL     1      58.872  91.230  74.783  1.00  0.00    -0.291 OA
ATOM     22  C   UNL     1      57.313  89.459  72.954  1.00  0.00     0.048 C 
BRANCH  16  23
ATOM     23  O   UNL     1      61.570  90.229  74.230  1.00  0.00    -0.381 OA
ATOM     24  H   UNL     1      61.862  91.008  74.731  1.00  0.00     0.212 HD
ENDBRANCH  16  23
ENDBRANCH   6  15
BRANCH   7  25
ATOM     25  C   UNL     1      62.173  83.627  74.718  1.00  0.00     0.135 C 
BRANCH  25  26
ATOM     26  C   UNL     1      63.235  82.610  74.381  1.00  0.00    -0.040 A 
ATOM     27  C   UNL     1      63.238  81.993  73.130  1.00  0.00     0.004 A 
ATOM     28  C   UNL     1      64.215  82.287  75.320  1.00  0.00     0.004 A 
ATOM     29  C   UNL     1      64.220  81.052  72.818  1.00  0.00     0.000 A 
ATOM     30  C   UNL     1      65.197  81.346  75.008  1.00  0.00     0.000 A 
ATOM     31  C   UNL     1      65.199  80.729  73.757  1.00  0.00     0.000 A 
ENDBRANCH  25  26
ENDBRANCH   7  25
BRANCH  14  32
ATOM     32  C   UNL     1      65.682  85.855  73.178  1.00  0.00    -0.046 C 
ATOM     33  C   UNL     1      66.393  86.666  72.136  1.00  0.00     0.042 C 
ATOM     34  C   UNL     1      66.281  84.838  73.815  1.00  0.00     0.010 C 
ENDBRANCH  14  32
ENDBRANCH   3   4
BRANCH   2  35
ATOM     35  C   UNL     1      60.835  89.724  76.522  1.00  0.00     0.078 CG0
ATOM     36  G   UNL     1      60.593  89.517  75.027  1.00  0.00     0.000 G0
ENDBRANCH   2  35
ENDBRANCH   1   2
BRANCH   1  37
ATOM     37  O   UNL     1      63.035  89.479  79.149  1.00  0.00    -0.461 OA
BRANCH  37  38
ATOM     38  C   UNL     1      64.041  88.595  79.461  1.00  0.00     0.310 C 
ATOM     39  O   UNL     1      65.208  88.706  79.111  1.00  0.00    -0.252 OA
BRANCH  38  40
ATOM     40  C   UNL     1      63.482  87.469  80.299  1.00  0.00     0.158 C 
BRANCH  40  41
ATOM     41  C   UNL     1      64.253  87.248  81.575  1.00  0.00    -0.033 A 
ATOM     42  C   UNL     1      65.157  86.188  81.668  1.00  0.00     0.054 A 
ATOM     43  C   UNL     1      64.064  88.101  82.662  1.00  0.00     0.008 A 
ATOM     44  C   UNL     1      65.871  85.983  82.849  1.00  0.00     0.160 A 
ATOM     45  C   UNL     1      64.778  87.896  83.843  1.00  0.00     0.050 A 
ATOM     46  C   UNL     1      65.681  86.837  83.937  1.00  0.00     0.157 A 
BRANCH  44  47
ATOM     47  O   UNL     1      66.750  84.946  82.929  1.00  0.00    -0.493 OA
ATOM     48  C   UNL     1      67.364  84.522  81.713  1.00  0.00     0.278 C 
ENDBRANCH  44  47
BRANCH  46  49
ATOM     49  O   UNL     1      66.373  86.647  85.094  1.00  0.00    -0.504 OA
ATOM     50  H   UNL     1      65.812  86.906  85.845  1.00  0.00     0.293 HD
ENDBRANCH  46  49
ENDBRANCH  40  41
ENDBRANCH  38  40
ENDBRANCH  37  38
ENDBRANCH   1  37
TORSDOF 11
ENDMDL
MODEL 10
REMARK VINA RESULT:    -4.943      5.566      9.543
REMARK INTER + INTRA:         -10.214
REMARK INTER:                  -9.318
REMARK INTRA:                  -0.896
REMARK UNBOUND:                -1.514
REMARK SMILES C=C(C)[C@]12C[C@@H](C)[C@@]34O[C@](Cc5ccccc5)(O[C@@H]1[C@@H]3C=C(COC(=O)Cc1ccc(O)c(OC)c1)C[C@]1(O)C(=O)C(C)=C[C@@H]41)O2
REMARK SMILES IDX 23 1 22 2 21 3 20 4 9 5 8 6 10 7 6 8 18 9 46 10 19 11 5 12
REMARK SMILES IDX 7 13 4 14 45 15 38 16 44 17 40 18 42 20 41 21 43 22 39 23
REMARK SMILES IDX 11 25 12 26 13 27 17 28 14 29 16 30 15 31 2 32 3 33 1 34
REMARK SMILES IDX 37 35 24 37 25 38 26 39 27 40 28 41 36 42 29 43 33 44 30 45
REMARK SMILES IDX 31 46 34 47 35 48 32 49
REMARK H PARENT 39 24 32 50
REMARK Flexibility Score: 90.00
ROOT
ATOM      1  C   UNL     1      69.740  91.018  81.367  1.00  0.00     0.264 C 
ENDROOT
BRANCH   1   2
ATOM      2  C   UNL     1      68.470  90.373  81.870  1.00  0.00    -0.033 C 
ATOM      3  C   UNL     1      67.513  90.025  80.987  1.00  0.00    -0.015 C 
BRANCH   3   4
ATOM      4  C   UNL     1      66.133  89.440  81.240  1.00  0.00     0.078 C 
ATOM      5  O   UNL     1      66.362  86.979  81.137  1.00  0.00    -0.319 OA
ATOM      6  C   UNL     1      66.028  88.084  82.033  1.00  0.00     0.095 C 
ATOM      7  C   UNL     1      65.800  87.066  79.814  1.00  0.00     0.289 C 
ATOM      8  C   UNL     1      64.528  87.927  82.520  1.00  0.00     0.023 C 
ATOM      9  O   UNL     1      66.192  88.273  79.164  1.00  0.00    -0.320 OA
ATOM     10  O   UNL     1      64.375  87.084  79.832  1.00  0.00    -0.313 OA
ATOM     11  C   UNL     1      65.399  89.221  79.894  1.00  0.00     0.170 C 
ATOM     12  C   UNL     1      63.528  88.554  81.500  1.00  0.00     0.049 C 
ATOM     13  C   UNL     1      64.088  86.492  82.851  1.00  0.00     0.011 C 
ATOM     14  C   UNL     1      64.055  88.470  80.067  1.00  0.00     0.122 C 
BRANCH   6  15
ATOM     15  C   UNL     1      67.105  88.015  83.154  1.00  0.00     0.086 C 
ATOM     16  C   UNL     1      67.330  89.311  83.961  1.00  0.00     0.140 CG0
ATOM     17  C   UNL     1      66.997  86.957  84.215  1.00  0.00    -0.010 C 
ATOM     18  C   UNL     1      67.656  88.783  85.341  1.00  0.00     0.190 C 
ATOM     19  G   UNL     1      68.457  90.164  83.379  1.00  0.00     0.000 G0
ATOM     20  C   UNL     1      67.327  87.349  85.450  1.00  0.00    -0.008 C 
ATOM     21  O   UNL     1      68.087  89.448  86.271  1.00  0.00    -0.291 OA
ATOM     22  C   UNL     1      67.417  86.571  86.703  1.00  0.00     0.048 C 
BRANCH  16  23
ATOM     23  O   UNL     1      66.153  90.075  84.160  1.00  0.00    -0.381 OA
ATOM     24  H   UNL     1      66.381  91.016  84.084  1.00  0.00     0.212 HD
ENDBRANCH  16  23
ENDBRANCH   6  15
BRANCH   7  25
ATOM     25  C   UNL     1      66.282  85.873  79.013  1.00  0.00     0.135 C 
BRANCH  25  26
ATOM     26  C   UNL     1      65.870  85.962  77.565  1.00  0.00    -0.040 A 
ATOM     27  C   UNL     1      64.628  85.469  77.162  1.00  0.00     0.004 A 
ATOM     28  C   UNL     1      66.729  86.536  76.629  1.00  0.00     0.004 A 
ATOM     29  C   UNL     1      64.247  85.551  75.822  1.00  0.00     0.000 A 
ATOM     30  C   UNL     1      66.348  86.617  75.289  1.00  0.00     0.000 A 
ATOM     31  C   UNL     1      65.106  86.124  74.887  1.00  0.00     0.000 A 
ENDBRANCH  25  26
ENDBRANCH   7  25
BRANCH  14  32
ATOM     32  C   UNL     1      63.040  88.896  79.056  1.00  0.00    -0.046 C 
ATOM     33  C   UNL     1      61.867  89.670  79.581  1.00  0.00     0.042 C 
ATOM     34  C   UNL     1      63.170  88.604  77.753  1.00  0.00     0.010 C 
ENDBRANCH  14  32
ENDBRANCH   3   4
BRANCH   2  35
ATOM     35  C   UNL     1      68.452  90.191  83.376  1.00  0.00     0.078 CG0
ATOM     36  G   UNL     1      67.333  89.331  83.962  1.00  0.00     0.000 G0
ENDBRANCH   2  35
ENDBRANCH   1   2
BRANCH   1  37
ATOM     37  O   UNL     1      70.815  90.116  81.520  1.00  0.00    -0.461 OA
BRANCH  37  38
ATOM     38  C   UNL     1      72.021  90.664  81.888  1.00  0.00     0.310 C 
ATOM     39  O   UNL     1      72.331  90.978  83.029  1.00  0.00    -0.252 OA
BRANCH  38  40
ATOM     40  C   UNL     1      72.900  90.817  80.669  1.00  0.00     0.158 C 
BRANCH  40  41
ATOM     41  C   UNL     1      72.652  92.102  79.923  1.00  0.00    -0.033 A 
ATOM     42  C   UNL     1      72.211  92.067  78.599  1.00  0.00     0.054 A 
ATOM     43  C   UNL     1      72.862  93.328  80.555  1.00  0.00     0.008 A 
ATOM     44  C   UNL     1      71.981  93.257  77.908  1.00  0.00     0.160 A 
ATOM     45  C   UNL     1      72.632  94.518  79.864  1.00  0.00     0.050 A 
ATOM     46  C   UNL     1      72.192  94.483  78.541  1.00  0.00     0.157 A 
BRANCH  44  47
ATOM     47  O   UNL     1      71.551  93.209  76.617  1.00  0.00    -0.493 OA
ATOM     48  C   UNL     1      72.451  92.661  75.654  1.00  0.00     0.278 C 
ENDBRANCH  44  47
BRANCH  46  49
ATOM     49  O   UNL     1      71.970  95.651  77.877  1.00  0.00    -0.504 OA
ATOM     50  H   UNL     1      72.382  95.598  76.998  1.00  0.00     0.293 HD
ENDBRANCH  46  49
ENDBRANCH  40  41
ENDBRANCH  38  40
ENDBRANCH  37  38
ENDBRANCH   1  37
TORSDOF 11
ENDMDL
