MODEL 1
REMARK VINA RESULT:    -6.405      0.000      0.000
REMARK INTER + INTRA:         -10.905
REMARK INTER:                 -10.337
REMARK INTRA:                  -0.568
REMARK UNBOUND:                -0.568
REMARK SMILES COc1cc(CNC(=O)CCCCCCC(C)C)ccc1O
REMARK SMILES IDX 11 1 10 2 8 3 7 4 9 6 6 7 5 8 3 9 21 10 4 11 20 12 19 13
REMARK SMILES IDX 2 14 1 15 22 16 12 18 13 19 14 20 15 21 16 22 17 23 18 24
REMARK H PARENT 7 5 22 17
REMARK Flexibility Score: inf
ROOT
ATOM      1  C   UNL     1      79.972  65.187  69.739  1.00  0.00     0.010 C 
ENDROOT
BRANCH   1   2
ATOM      2  C   UNL     1      79.913  65.471  71.266  1.00  0.00     0.100 C 
BRANCH   2   3
ATOM      3  C   UNL     1      81.218  65.303  71.943  1.00  0.00     0.220 C 
ATOM      4  N   UNL     1      81.491  65.984  73.093  1.00  0.00    -0.352 N 
ATOM      5  H   UNL     1      80.763  66.617  73.390  1.00  0.00     0.163 HD
ATOM      6  O   UNL     1      82.053  64.504  71.450  1.00  0.00    -0.275 OA
BRANCH   4   7
ATOM      7  C   UNL     1      82.691  65.858  73.863  1.00  0.00     0.151 C 
BRANCH   7   8
ATOM      8  C   UNL     1      83.591  67.038  73.746  1.00  0.00    -0.025 A 
ATOM      9  C   UNL     1      85.340  68.484  74.693  1.00  0.00     0.160 A 
ATOM     10  C   UNL     1      85.340  69.261  73.514  1.00  0.00     0.157 A 
ATOM     11  C   UNL     1      84.454  67.393  74.808  1.00  0.00     0.056 A 
ATOM     12  C   UNL     1      84.457  68.942  72.466  1.00  0.00     0.050 A 
ATOM     13  C   UNL     1      83.596  67.832  72.575  1.00  0.00     0.009 A 
BRANCH   9  14
ATOM     14  O   UNL     1      86.166  68.810  75.734  1.00  0.00    -0.493 OA
ATOM     15  C   UNL     1      87.330  67.970  75.835  1.00  0.00     0.278 C 
ENDBRANCH   9  14
BRANCH  10  16
ATOM     16  O   UNL     1      86.181  70.319  73.376  1.00  0.00    -0.504 OA
ATOM     17  H   UNL     1      87.034  70.100  73.758  1.00  0.00     0.293 HD
ENDBRANCH  10  16
ENDBRANCH   7   8
ENDBRANCH   4   7
ENDBRANCH   2   3
ENDBRANCH   1   2
BRANCH   1  18
ATOM     18  C   UNL     1      79.220  63.881  69.356  1.00  0.00     0.001 C 
BRANCH  18  19
ATOM     19  C   UNL     1      77.738  64.109  68.943  1.00  0.00     0.000 C 
BRANCH  19  20
ATOM     20  C   UNL     1      77.522  63.858  67.425  1.00  0.00     0.000 C 
BRANCH  20  21
ATOM     21  C   UNL     1      76.054  63.525  67.036  1.00  0.00     0.003 C 
BRANCH  21  22
ATOM     22  C   UNL     1      75.121  64.772  66.893  1.00  0.00    -0.017 C 
ATOM     23  C   UNL     1      75.949  66.029  66.503  1.00  0.00     0.007 C 
ATOM     24  C   UNL     1      74.259  65.057  68.158  1.00  0.00     0.007 C 
ENDBRANCH  21  22
ENDBRANCH  20  21
ENDBRANCH  19  20
ENDBRANCH  18  19
ENDBRANCH   1  18
TORSDOF 11
ENDMDL
MODEL 2
REMARK VINA RESULT:    -6.153     20.187     24.081
REMARK INTER + INTRA:         -10.498
REMARK INTER:                  -9.883
REMARK INTRA:                  -0.615
REMARK UNBOUND:                -0.568
REMARK SMILES COc1cc(CNC(=O)CCCCCCC(C)C)ccc1O
REMARK SMILES IDX 11 1 10 2 8 3 7 4 9 6 6 7 5 8 3 9 21 10 4 11 20 12 19 13
REMARK SMILES IDX 2 14 1 15 22 16 12 18 13 19 14 20 15 21 16 22 17 23 18 24
REMARK H PARENT 7 5 22 17
REMARK Flexibility Score: inf
ROOT
ATOM      1  C   UNL     1      96.750  82.891  81.751  1.00  0.00     0.010 C 
ENDROOT
BRANCH   1   2
ATOM      2  C   UNL     1      96.163  83.921  82.755  1.00  0.00     0.100 C 
BRANCH   2   3
ATOM      3  C   UNL     1      95.488  83.291  83.912  1.00  0.00     0.220 C 
ATOM      4  N   UNL     1      94.951  82.042  83.800  1.00  0.00    -0.352 N 
ATOM      5  H   UNL     1      95.019  81.635  82.879  1.00  0.00     0.163 HD
ATOM      6  O   UNL     1      95.444  83.920  84.998  1.00  0.00    -0.275 OA
BRANCH   4   7
ATOM      7  C   UNL     1      94.328  81.313  84.863  1.00  0.00     0.151 C 
BRANCH   7   8
ATOM      8  C   UNL     1      92.908  80.964  84.582  1.00  0.00    -0.025 A 
ATOM      9  C   UNL     1      91.135  79.275  84.356  1.00  0.00     0.160 A 
ATOM     10  C   UNL     1      90.195  80.295  84.090  1.00  0.00     0.157 A 
ATOM     11  C   UNL     1      92.485  79.616  84.581  1.00  0.00     0.056 A 
ATOM     12  C   UNL     1      90.611  81.638  84.049  1.00  0.00     0.050 A 
ATOM     13  C   UNL     1      91.955  81.973  84.304  1.00  0.00     0.009 A 
BRANCH   9  14
ATOM     14  O   UNL     1      90.748  77.963  84.359  1.00  0.00    -0.493 OA
ATOM     15  C   UNL     1      91.596  77.107  83.572  1.00  0.00     0.278 C 
ENDBRANCH   9  14
BRANCH  10  16
ATOM     16  O   UNL     1      88.887  79.996  83.868  1.00  0.00    -0.504 OA
ATOM     17  H   UNL     1      88.815  79.433  83.094  1.00  0.00     0.293 HD
ENDBRANCH  10  16
ENDBRANCH   7   8
ENDBRANCH   4   7
ENDBRANCH   2   3
ENDBRANCH   1   2
BRANCH   1  18
ATOM     18  C   UNL     1      96.734  83.421  80.289  1.00  0.00     0.001 C 
BRANCH  18  19
ATOM     19  C   UNL     1      97.903  82.886  79.415  1.00  0.00     0.000 C 
BRANCH  19  20
ATOM     20  C   UNL     1      97.432  82.549  77.972  1.00  0.00     0.000 C 
BRANCH  20  21
ATOM     21  C   UNL     1      96.866  83.765  77.187  1.00  0.00     0.003 C 
BRANCH  21  22
ATOM     22  C   UNL     1      97.793  84.287  76.041  1.00  0.00    -0.017 C 
ATOM     23  C   UNL     1      97.031  84.293  74.686  1.00  0.00     0.007 C 
ATOM     24  C   UNL     1      99.131  83.501  75.912  1.00  0.00     0.007 C 
ENDBRANCH  21  22
ENDBRANCH  20  21
ENDBRANCH  19  20
ENDBRANCH  18  19
ENDBRANCH   1  18
TORSDOF 11
ENDMDL
MODEL 3
REMARK VINA RESULT:    -6.093      1.103      2.035
REMARK INTER + INTRA:         -10.401
REMARK INTER:                  -9.634
REMARK INTRA:                  -0.768
REMARK UNBOUND:                -0.568
REMARK SMILES COc1cc(CNC(=O)CCCCCCC(C)C)ccc1O
REMARK SMILES IDX 11 1 10 2 8 3 7 4 9 6 6 7 5 8 3 9 21 10 4 11 20 12 19 13
REMARK SMILES IDX 2 14 1 15 22 16 12 18 13 19 14 20 15 21 16 22 17 23 18 24
REMARK H PARENT 7 5 22 17
REMARK Flexibility Score: inf
ROOT
ATOM      1  C   UNL     1      79.558  65.967  70.599  1.00  0.00     0.010 C 
ENDROOT
BRANCH   1   2
ATOM      2  C   UNL     1      80.387  65.396  71.783  1.00  0.00     0.100 C 
BRANCH   2   3
ATOM      3  C   UNL     1      81.849  65.459  71.558  1.00  0.00     0.220 C 
ATOM      4  N   UNL     1      82.529  66.622  71.771  1.00  0.00    -0.352 N 
ATOM      5  H   UNL     1      81.951  67.404  72.040  1.00  0.00     0.163 HD
ATOM      6  O   UNL     1      82.446  64.417  71.192  1.00  0.00    -0.275 OA
BRANCH   4   7
ATOM      7  C   UNL     1      83.945  66.786  71.643  1.00  0.00     0.151 C 
BRANCH   7   8
ATOM      8  C   UNL     1      84.558  67.512  72.789  1.00  0.00    -0.025 A 
ATOM      9  C   UNL     1      85.979  69.328  73.645  1.00  0.00     0.160 A 
ATOM     10  C   UNL     1      85.694  68.929  74.969  1.00  0.00     0.157 A 
ATOM     11  C   UNL     1      85.425  68.606  72.567  1.00  0.00     0.056 A 
ATOM     12  C   UNL     1      84.864  67.818  75.203  1.00  0.00     0.050 A 
ATOM     13  C   UNL     1      84.291  67.120  74.122  1.00  0.00     0.009 A 
BRANCH   9  14
ATOM     14  O   UNL     1      86.817  70.383  73.406  1.00  0.00    -0.493 OA
ATOM     15  C   UNL     1      87.953  70.047  72.588  1.00  0.00     0.278 C 
ENDBRANCH   9  14
BRANCH  10  16
ATOM     16  O   UNL     1      86.216  69.605  76.027  1.00  0.00    -0.504 OA
ATOM     17  H   UNL     1      87.169  69.493  76.039  1.00  0.00     0.293 HD
ENDBRANCH  10  16
ENDBRANCH   7   8
ENDBRANCH   4   7
ENDBRANCH   2   3
ENDBRANCH   1   2
BRANCH   1  18
ATOM     18  C   UNL     1      78.521  64.942  70.060  1.00  0.00     0.001 C 
BRANCH  18  19
ATOM     19  C   UNL     1      79.082  64.008  68.951  1.00  0.00     0.000 C 
BRANCH  19  20
ATOM     20  C   UNL     1      77.997  63.661  67.892  1.00  0.00     0.000 C 
BRANCH  20  21
ATOM     21  C   UNL     1      77.164  64.881  67.410  1.00  0.00     0.003 C 
BRANCH  21  22
ATOM     22  C   UNL     1      75.624  64.625  67.330  1.00  0.00    -0.017 C 
ATOM     23  C   UNL     1      74.918  65.150  68.612  1.00  0.00     0.007 C 
ATOM     24  C   UNL     1      75.249  63.136  67.072  1.00  0.00     0.007 C 
ENDBRANCH  21  22
ENDBRANCH  20  21
ENDBRANCH  19  20
ENDBRANCH  18  19
ENDBRANCH   1  18
TORSDOF 11
ENDMDL
MODEL 4
REMARK VINA RESULT:    -5.964     20.391     23.446
REMARK INTER + INTRA:         -10.193
REMARK INTER:                  -9.658
REMARK INTRA:                  -0.534
REMARK UNBOUND:                -0.568
REMARK SMILES COc1cc(CNC(=O)CCCCCCC(C)C)ccc1O
REMARK SMILES IDX 11 1 10 2 8 3 7 4 9 6 6 7 5 8 3 9 21 10 4 11 20 12 19 13
REMARK SMILES IDX 2 14 1 15 22 16 12 18 13 19 14 20 15 21 16 22 17 23 18 24
REMARK H PARENT 7 5 22 17
REMARK Flexibility Score: inf
ROOT
ATOM      1  C   UNL     1      93.546  81.842  85.316  1.00  0.00     0.010 C 
ENDROOT
BRANCH   1   2
ATOM      2  C   UNL     1      94.245  82.861  84.374  1.00  0.00     0.100 C 
BRANCH   2   3
ATOM      3  C   UNL     1      95.638  82.489  84.041  1.00  0.00     0.220 C 
ATOM      4  N   UNL     1      96.132  82.716  82.790  1.00  0.00    -0.352 N 
ATOM      5  H   UNL     1      95.466  83.102  82.138  1.00  0.00     0.163 HD
ATOM      6  O   UNL     1      96.357  81.985  84.939  1.00  0.00    -0.275 OA
BRANCH   4   7
ATOM      7  C   UNL     1      97.476  82.452  82.371  1.00  0.00     0.151 C 
BRANCH   7   8
ATOM      8  C   UNL     1      97.589  82.152  80.917  1.00  0.00    -0.025 A 
ATOM      9  C   UNL     1      97.707  82.927  78.586  1.00  0.00     0.160 A 
ATOM     10  C   UNL     1      97.848  81.592  78.147  1.00  0.00     0.157 A 
ATOM     11  C   UNL     1      97.560  83.195  79.963  1.00  0.00     0.056 A 
ATOM     12  C   UNL     1      97.839  80.543  79.084  1.00  0.00     0.050 A 
ATOM     13  C   UNL     1      97.721  80.820  80.460  1.00  0.00     0.009 A 
BRANCH   9  14
ATOM     14  O   UNL     1      97.676  83.952  77.680  1.00  0.00    -0.493 OA
ATOM     15  C   UNL     1      96.352  84.272  77.213  1.00  0.00     0.278 C 
ENDBRANCH   9  14
BRANCH  10  16
ATOM     16  O   UNL     1      97.990  81.304  76.827  1.00  0.00    -0.504 OA
ATOM     17  H   UNL     1      97.128  81.311  76.404  1.00  0.00     0.293 HD
ENDBRANCH  10  16
ENDBRANCH   7   8
ENDBRANCH   4   7
ENDBRANCH   2   3
ENDBRANCH   1   2
BRANCH   1  18
ATOM     18  C   UNL     1      92.156  81.401  84.774  1.00  0.00     0.001 C 
BRANCH  18  19
ATOM     19  C   UNL     1      91.864  79.885  84.959  1.00  0.00     0.000 C 
BRANCH  19  20
ATOM     20  C   UNL     1      90.762  79.392  83.980  1.00  0.00     0.000 C 
BRANCH  20  21
ATOM     21  C   UNL     1      89.738  80.486  83.569  1.00  0.00     0.003 C 
BRANCH  21  22
ATOM     22  C   UNL     1      88.259  80.175  83.969  1.00  0.00    -0.017 C 
ATOM     23  C   UNL     1      88.094  78.669  84.316  1.00  0.00     0.007 C 
ATOM     24  C   UNL     1      87.216  80.605  82.895  1.00  0.00     0.007 C 
ENDBRANCH  21  22
ENDBRANCH  20  21
ENDBRANCH  19  20
ENDBRANCH  18  19
ENDBRANCH   1  18
TORSDOF 11
ENDMDL
MODEL 5
REMARK VINA RESULT:    -5.958     21.576     24.285
REMARK INTER + INTRA:         -10.184
REMARK INTER:                  -9.498
REMARK INTRA:                  -0.685
REMARK UNBOUND:                -0.568
REMARK SMILES COc1cc(CNC(=O)CCCCCCC(C)C)ccc1O
REMARK SMILES IDX 11 1 10 2 8 3 7 4 9 6 6 7 5 8 3 9 21 10 4 11 20 12 19 13
REMARK SMILES IDX 2 14 1 15 22 16 12 18 13 19 14 20 15 21 16 22 17 23 18 24
REMARK H PARENT 7 5 22 17
REMARK Flexibility Score: inf
ROOT
ATOM      1  C   UNL     1      96.773  82.555  81.504  1.00  0.00     0.010 C 
ENDROOT
BRANCH   1   2
ATOM      2  C   UNL     1      96.168  83.680  82.389  1.00  0.00     0.100 C 
BRANCH   2   3
ATOM      3  C   UNL     1      95.542  83.174  83.631  1.00  0.00     0.220 C 
ATOM      4  N   UNL     1      95.345  81.836  83.808  1.00  0.00    -0.352 N 
ATOM      5  H   UNL     1      95.615  81.263  83.022  1.00  0.00     0.163 HD
ATOM      6  O   UNL     1      95.222  83.998  84.522  1.00  0.00    -0.275 OA
BRANCH   4   7
ATOM      7  C   UNL     1      94.804  81.229  84.986  1.00  0.00     0.151 C 
BRANCH   7   8
ATOM      8  C   UNL     1      93.420  80.714  84.799  1.00  0.00    -0.025 A 
ATOM      9  C   UNL     1      91.054  81.114  84.260  1.00  0.00     0.160 A 
ATOM     10  C   UNL     1      90.787  79.734  84.397  1.00  0.00     0.157 A 
ATOM     11  C   UNL     1      92.362  81.595  84.480  1.00  0.00     0.056 A 
ATOM     12  C   UNL     1      91.824  78.853  84.752  1.00  0.00     0.050 A 
ATOM     13  C   UNL     1      93.133  79.336  84.942  1.00  0.00     0.009 A 
BRANCH   9  14
ATOM     14  O   UNL     1      90.045  81.986  83.953  1.00  0.00    -0.493 OA
ATOM     15  C   UNL     1      89.139  82.232  85.044  1.00  0.00     0.278 C 
ENDBRANCH   9  14
BRANCH  10  16
ATOM     16  O   UNL     1      89.536  79.243  84.192  1.00  0.00    -0.504 OA
ATOM     17  H   UNL     1      89.532  78.699  83.401  1.00  0.00     0.293 HD
ENDBRANCH  10  16
ENDBRANCH   7   8
ENDBRANCH   4   7
ENDBRANCH   2   3
ENDBRANCH   1   2
BRANCH   1  18
ATOM     18  C   UNL     1      97.374  83.108  80.180  1.00  0.00     0.001 C 
BRANCH  18  19
ATOM     19  C   UNL     1      98.770  82.520  79.832  1.00  0.00     0.000 C 
BRANCH  19  20
ATOM     20  C   UNL     1      98.826  82.015  78.362  1.00  0.00     0.000 C 
BRANCH  20  21
ATOM     21  C   UNL     1      97.479  82.128  77.597  1.00  0.00     0.003 C 
BRANCH  21  22
ATOM     22  C   UNL     1      97.468  83.194  76.453  1.00  0.00    -0.017 C 
ATOM     23  C   UNL     1      98.915  83.665  76.135  1.00  0.00     0.007 C 
ATOM     24  C   UNL     1      96.549  84.416  76.747  1.00  0.00     0.007 C 
ENDBRANCH  21  22
ENDBRANCH  20  21
ENDBRANCH  19  20
ENDBRANCH  18  19
ENDBRANCH   1  18
TORSDOF 11
ENDMDL
MODEL 6
REMARK VINA RESULT:    -5.906     24.443     26.136
REMARK INTER + INTRA:         -10.099
REMARK INTER:                  -9.402
REMARK INTRA:                  -0.697
REMARK UNBOUND:                -0.568
REMARK SMILES COc1cc(CNC(=O)CCCCCCC(C)C)ccc1O
REMARK SMILES IDX 11 1 10 2 8 3 7 4 9 6 6 7 5 8 3 9 21 10 4 11 20 12 19 13
REMARK SMILES IDX 2 14 1 15 22 16 12 18 13 19 14 20 15 21 16 22 17 23 18 24
REMARK H PARENT 7 5 22 17
REMARK Flexibility Score: inf
ROOT
ATOM      1  C   UNL     1      74.026  89.935  69.338  1.00  0.00     0.010 C 
ENDROOT
BRANCH   1   2
ATOM      2  C   UNL     1      74.102  90.346  70.835  1.00  0.00     0.100 C 
BRANCH   2   3
ATOM      3  C   UNL     1      74.155  91.811  71.037  1.00  0.00     0.220 C 
ATOM      4  N   UNL     1      74.450  92.327  72.265  1.00  0.00    -0.352 N 
ATOM      5  H   UNL     1      74.576  91.638  72.992  1.00  0.00     0.163 HD
ATOM      6  O   UNL     1      73.947  92.563  70.053  1.00  0.00    -0.275 OA
BRANCH   4   7
ATOM      7  C   UNL     1      74.586  93.720  72.565  1.00  0.00     0.151 C 
BRANCH   7   8
ATOM      8  C   UNL     1      75.632  94.001  73.587  1.00  0.00    -0.025 A 
ATOM      9  C   UNL     1      77.818  94.952  74.191  1.00  0.00     0.160 A 
ATOM     10  C   UNL     1      77.611  94.580  75.537  1.00  0.00     0.157 A 
ATOM     11  C   UNL     1      76.837  94.644  73.225  1.00  0.00     0.056 A 
ATOM     12  C   UNL     1      76.432  93.904  75.903  1.00  0.00     0.050 A 
ATOM     13  C   UNL     1      75.444  93.626  74.938  1.00  0.00     0.009 A 
BRANCH   9  14
ATOM     14  O   UNL     1      78.978  95.575  73.817  1.00  0.00    -0.493 OA
ATOM     15  C   UNL     1      78.773  96.731  72.985  1.00  0.00     0.278 C 
ENDBRANCH   9  14
BRANCH  10  16
ATOM     16  O   UNL     1      78.539  94.862  76.488  1.00  0.00    -0.504 OA
ATOM     17  H   UNL     1      79.328  95.214  76.070  1.00  0.00     0.293 HD
ENDBRANCH  10  16
ENDBRANCH   7   8
ENDBRANCH   4   7
ENDBRANCH   2   3
ENDBRANCH   1   2
BRANCH   1  18
ATOM     18  C   UNL     1      75.117  88.894  68.959  1.00  0.00     0.001 C 
BRANCH  18  19
ATOM     19  C   UNL     1      76.493  89.527  68.611  1.00  0.00     0.000 C 
BRANCH  19  20
ATOM     20  C   UNL     1      77.434  88.504  67.914  1.00  0.00     0.000 C 
BRANCH  20  21
ATOM     21  C   UNL     1      76.766  87.137  67.599  1.00  0.00     0.003 C 
BRANCH  21  22
ATOM     22  C   UNL     1      77.444  85.907  68.288  1.00  0.00    -0.017 C 
ATOM     23  C   UNL     1      77.495  84.697  67.313  1.00  0.00     0.007 C 
ATOM     24  C   UNL     1      76.775  85.497  69.633  1.00  0.00     0.007 C 
ENDBRANCH  21  22
ENDBRANCH  20  21
ENDBRANCH  19  20
ENDBRANCH  18  19
ENDBRANCH   1  18
TORSDOF 11
ENDMDL
MODEL 7
REMARK VINA RESULT:    -5.761     19.950     23.664
REMARK INTER + INTRA:          -9.866
REMARK INTER:                  -9.214
REMARK INTRA:                  -0.652
REMARK UNBOUND:                -0.568
REMARK SMILES COc1cc(CNC(=O)CCCCCCC(C)C)ccc1O
REMARK SMILES IDX 11 1 10 2 8 3 7 4 9 6 6 7 5 8 3 9 21 10 4 11 20 12 19 13
REMARK SMILES IDX 2 14 1 15 22 16 12 18 13 19 14 20 15 21 16 22 17 23 18 24
REMARK H PARENT 7 5 22 17
REMARK Flexibility Score: inf
ROOT
ATOM      1  C   UNL     1      96.385  80.040  84.801  1.00  0.00     0.010 C 
ENDROOT
BRANCH   1   2
ATOM      2  C   UNL     1      95.805  81.364  85.371  1.00  0.00     0.100 C 
BRANCH   2   3
ATOM      3  C   UNL     1      94.560  81.796  84.696  1.00  0.00     0.220 C 
ATOM      4  N   UNL     1      93.379  81.165  84.960  1.00  0.00    -0.352 N 
ATOM      5  H   UNL     1      93.451  80.384  85.595  1.00  0.00     0.163 HD
ATOM      6  O   UNL     1      94.612  82.765  83.901  1.00  0.00    -0.275 OA
BRANCH   4   7
ATOM      7  C   UNL     1      92.107  81.531  84.414  1.00  0.00     0.151 C 
BRANCH   7   8
ATOM      8  C   UNL     1      91.147  80.395  84.353  1.00  0.00    -0.025 A 
ATOM      9  C   UNL     1      88.850  79.562  84.071  1.00  0.00     0.160 A 
ATOM     10  C   UNL     1      89.314  78.234  84.192  1.00  0.00     0.157 A 
ATOM     11  C   UNL     1      89.765  80.631  84.172  1.00  0.00     0.056 A 
ATOM     12  C   UNL     1      90.682  77.988  84.411  1.00  0.00     0.050 A 
ATOM     13  C   UNL     1      91.594  79.059  84.481  1.00  0.00     0.009 A 
BRANCH   9  14
ATOM     14  O   UNL     1      87.516  79.814  83.897  1.00  0.00    -0.493 OA
ATOM     15  C   UNL     1      87.222  81.186  83.578  1.00  0.00     0.278 C 
ENDBRANCH   9  14
BRANCH  10  16
ATOM     16  O   UNL     1      88.456  77.185  84.101  1.00  0.00    -0.504 OA
ATOM     17  H   UNL     1      88.950  76.383  83.914  1.00  0.00     0.293 HD
ENDBRANCH  10  16
ENDBRANCH   7   8
ENDBRANCH   4   7
ENDBRANCH   2   3
ENDBRANCH   1   2
BRANCH   1  18
ATOM     18  C   UNL     1      95.849  79.731  83.374  1.00  0.00     0.001 C 
BRANCH  18  19
ATOM     19  C   UNL     1      96.875  80.023  82.243  1.00  0.00     0.000 C 
BRANCH  19  20
ATOM     20  C   UNL     1      97.400  81.485  82.310  1.00  0.00     0.000 C 
BRANCH  20  21
ATOM     21  C   UNL     1      96.890  82.398  81.162  1.00  0.00     0.003 C 
BRANCH  21  22
ATOM     22  C   UNL     1      97.993  82.843  80.146  1.00  0.00    -0.017 C 
ATOM     23  C   UNL     1      97.495  82.654  78.686  1.00  0.00     0.007 C 
ATOM     24  C   UNL     1      99.360  82.127  80.354  1.00  0.00     0.007 C 
ENDBRANCH  21  22
ENDBRANCH  20  21
ENDBRANCH  19  20
ENDBRANCH  18  19
ENDBRANCH   1  18
TORSDOF 11
ENDMDL
MODEL 8
REMARK VINA RESULT:    -5.711     29.873     34.097
REMARK INTER + INTRA:          -9.785
REMARK INTER:                  -8.914
REMARK INTRA:                  -0.871
REMARK UNBOUND:                -0.568
REMARK SMILES COc1cc(CNC(=O)CCCCCCC(C)C)ccc1O
REMARK SMILES IDX 11 1 10 2 8 3 7 4 9 6 6 7 5 8 3 9 21 10 4 11 20 12 19 13
REMARK SMILES IDX 2 14 1 15 22 16 12 18 13 19 14 20 15 21 16 22 17 23 18 24
REMARK H PARENT 7 5 22 17
REMARK Flexibility Score: inf
ROOT
ATOM      1  C   UNL     1      93.761  96.702  76.012  1.00  0.00     0.010 C 
ENDROOT
BRANCH   1   2
ATOM      2  C   UNL     1      95.001  97.638  75.998  1.00  0.00     0.100 C 
BRANCH   2   3
ATOM      3  C   UNL     1      95.577  97.826  74.648  1.00  0.00     0.220 C 
ATOM      4  N   UNL     1      95.016  97.210  73.567  1.00  0.00    -0.352 N 
ATOM      5  H   UNL     1      94.236  96.608  73.784  1.00  0.00     0.163 HD
ATOM      6  O   UNL     1      96.573  98.580  74.518  1.00  0.00    -0.275 OA
BRANCH   4   7
ATOM      7  C   UNL     1      95.450  97.363  72.212  1.00  0.00     0.151 C 
BRANCH   7   8
ATOM      8  C   UNL     1      94.666  98.379  71.456  1.00  0.00    -0.025 A 
ATOM      9  C   UNL     1      94.390  99.818  69.481  1.00  0.00     0.160 A 
ATOM     10  C   UNL     1      93.157 100.282  69.989  1.00  0.00     0.157 A 
ATOM     11  C   UNL     1      95.143  98.886  70.226  1.00  0.00     0.056 A 
ATOM     12  C   UNL     1      92.691  99.814  71.231  1.00  0.00     0.050 A 
ATOM     13  C   UNL     1      93.433  98.861  71.955  1.00  0.00     0.009 A 
BRANCH   9  14
ATOM     14  O   UNL     1      94.872 100.297  68.293  1.00  0.00    -0.493 OA
ATOM     15  C   UNL     1      95.506  99.294  67.478  1.00  0.00     0.278 C 
ENDBRANCH   9  14
BRANCH  10  16
ATOM     16  O   UNL     1      92.412 101.181  69.294  1.00  0.00    -0.504 OA
ATOM     17  H   UNL     1      92.787 102.058  69.401  1.00  0.00     0.293 HD
ENDBRANCH  10  16
ENDBRANCH   7   8
ENDBRANCH   4   7
ENDBRANCH   2   3
ENDBRANCH   1   2
BRANCH   1  18
ATOM     18  C   UNL     1      93.302  96.357  77.457  1.00  0.00     0.001 C 
BRANCH  18  19
ATOM     19  C   UNL     1      93.039  94.842  77.686  1.00  0.00     0.000 C 
BRANCH  19  20
ATOM     20  C   UNL     1      91.530  94.553  77.924  1.00  0.00     0.000 C 
BRANCH  20  21
ATOM     21  C   UNL     1      90.599  95.041  76.779  1.00  0.00     0.003 C 
BRANCH  21  22
ATOM     22  C   UNL     1      89.976  93.896  75.915  1.00  0.00    -0.017 C 
ATOM     23  C   UNL     1      89.921  92.571  76.727  1.00  0.00     0.007 C 
ATOM     24  C   UNL     1      90.702  93.672  74.556  1.00  0.00     0.007 C 
ENDBRANCH  21  22
ENDBRANCH  20  21
ENDBRANCH  19  20
ENDBRANCH  18  19
ENDBRANCH   1  18
TORSDOF 11
ENDMDL
MODEL 9
REMARK VINA RESULT:    -5.541     23.108     24.822
REMARK INTER + INTRA:          -9.511
REMARK INTER:                  -8.581
REMARK INTRA:                  -0.931
REMARK UNBOUND:                -0.568
REMARK SMILES COc1cc(CNC(=O)CCCCCCC(C)C)ccc1O
REMARK SMILES IDX 11 1 10 2 8 3 7 4 9 6 6 7 5 8 3 9 21 10 4 11 20 12 19 13
REMARK SMILES IDX 2 14 1 15 22 16 12 18 13 19 14 20 15 21 16 22 17 23 18 24
REMARK H PARENT 7 5 22 17
REMARK Flexibility Score: inf
ROOT
ATOM      1  C   UNL     1     100.544  84.950  74.251  1.00  0.00     0.010 C 
ENDROOT
BRANCH   1   2
ATOM      2  C   UNL     1      99.154  85.382  73.709  1.00  0.00     0.100 C 
BRANCH   2   3
ATOM      3  C   UNL     1      98.028  84.672  74.355  1.00  0.00     0.220 C 
ATOM      4  N   UNL     1      97.754  84.872  75.676  1.00  0.00    -0.352 N 
ATOM      5  H   UNL     1      98.397  85.489  76.151  1.00  0.00     0.163 HD
ATOM      6  O   UNL     1      97.320  83.905  73.656  1.00  0.00    -0.275 OA
BRANCH   4   7
ATOM      7  C   UNL     1      96.660  84.288  76.391  1.00  0.00     0.151 C 
BRANCH   7   8
ATOM      8  C   UNL     1      97.094  83.363  77.474  1.00  0.00    -0.025 A 
ATOM      9  C   UNL     1      98.339  81.371  78.201  1.00  0.00     0.160 A 
ATOM     10  C   UNL     1      97.962  81.620  79.538  1.00  0.00     0.157 A 
ATOM     11  C   UNL     1      97.887  82.231  77.178  1.00  0.00     0.056 A 
ATOM     12  C   UNL     1      97.140  82.721  79.840  1.00  0.00     0.050 A 
ATOM     13  C   UNL     1      96.717  83.593  78.818  1.00  0.00     0.009 A 
BRANCH   9  14
ATOM     14  O   UNL     1      99.105  80.280  77.891  1.00  0.00    -0.493 OA
ATOM     15  C   UNL     1     100.487  80.595  77.641  1.00  0.00     0.278 C 
ENDBRANCH   9  14
BRANCH  10  16
ATOM     16  O   UNL     1      98.380  80.807  80.543  1.00  0.00    -0.504 OA
ATOM     17  H   UNL     1      98.875  81.321  81.185  1.00  0.00     0.293 HD
ENDBRANCH  10  16
ENDBRANCH   7   8
ENDBRANCH   4   7
ENDBRANCH   2   3
ENDBRANCH   1   2
BRANCH   1  18
ATOM     18  C   UNL     1     101.420  84.278  73.155  1.00  0.00     0.001 C 
BRANCH  18  19
ATOM     19  C   UNL     1     100.659  84.004  71.827  1.00  0.00     0.000 C 
BRANCH  19  20
ATOM     20  C   UNL     1     100.887  82.550  71.327  1.00  0.00     0.000 C 
BRANCH  20  21
ATOM     21  C   UNL     1     100.167  82.215  69.991  1.00  0.00     0.003 C 
BRANCH  21  22
ATOM     22  C   UNL     1      99.080  81.095  70.101  1.00  0.00    -0.017 C 
ATOM     23  C   UNL     1      98.368  80.892  68.734  1.00  0.00     0.007 C 
ATOM     24  C   UNL     1      98.036  81.346  71.228  1.00  0.00     0.007 C 
ENDBRANCH  21  22
ENDBRANCH  20  21
ENDBRANCH  19  20
ENDBRANCH  18  19
ENDBRANCH   1  18
TORSDOF 11
ENDMDL
MODEL 10
REMARK VINA RESULT:    -5.539     23.684     25.506
REMARK INTER + INTRA:          -9.507
REMARK INTER:                  -8.745
REMARK INTRA:                  -0.763
REMARK UNBOUND:                -0.568
REMARK SMILES COc1cc(CNC(=O)CCCCCCC(C)C)ccc1O
REMARK SMILES IDX 11 1 10 2 8 3 7 4 9 6 6 7 5 8 3 9 21 10 4 11 20 12 19 13
REMARK SMILES IDX 2 14 1 15 22 16 12 18 13 19 14 20 15 21 16 22 17 23 18 24
REMARK H PARENT 7 5 22 17
REMARK Flexibility Score: inf
ROOT
ATOM      1  C   UNL     1      96.569  80.834  82.468  1.00  0.00     0.010 C 
ENDROOT
BRANCH   1   2
ATOM      2  C   UNL     1      97.137  79.710  81.558  1.00  0.00     0.100 C 
BRANCH   2   3
ATOM      3  C   UNL     1      98.112  80.203  80.559  1.00  0.00     0.220 C 
ATOM      4  N   UNL     1      97.923  81.409  79.949  1.00  0.00    -0.352 N 
ATOM      5  H   UNL     1      97.068  81.881  80.205  1.00  0.00     0.163 HD
ATOM      6  O   UNL     1      99.122  79.502  80.307  1.00  0.00    -0.275 OA
BRANCH   4   7
ATOM      7  C   UNL     1      98.823  82.012  79.014  1.00  0.00     0.151 C 
BRANCH   7   8
ATOM      8  C   UNL     1      98.134  82.834  77.981  1.00  0.00    -0.025 A 
ATOM      9  C   UNL     1      98.054  83.768  75.708  1.00  0.00     0.160 A 
ATOM     10  C   UNL     1      96.805  84.362  75.993  1.00  0.00     0.157 A 
ATOM     11  C   UNL     1      98.717  83.026  76.708  1.00  0.00     0.056 A 
ATOM     12  C   UNL     1      96.233  84.210  77.269  1.00  0.00     0.050 A 
ATOM     13  C   UNL     1      96.887  83.443  78.254  1.00  0.00     0.009 A 
BRANCH   9  14
ATOM     14  O   UNL     1      98.638  83.942  74.482  1.00  0.00    -0.493 OA
ATOM     15  C   UNL     1      98.264  82.944  73.515  1.00  0.00     0.278 C 
ENDBRANCH   9  14
BRANCH  10  16
ATOM     16  O   UNL     1      96.145  85.083  75.050  1.00  0.00    -0.504 OA
ATOM     17  H   UNL     1      95.267  84.716  74.923  1.00  0.00     0.293 HD
ENDBRANCH  10  16
ENDBRANCH   7   8
ENDBRANCH   4   7
ENDBRANCH   2   3
ENDBRANCH   1   2
BRANCH   1  18
ATOM     18  C   UNL     1      97.475  81.106  83.702  1.00  0.00     0.001 C 
BRANCH  18  19
ATOM     19  C   UNL     1      96.780  80.821  85.064  1.00  0.00     0.000 C 
BRANCH  19  20
ATOM     20  C   UNL     1      96.066  82.086  85.617  1.00  0.00     0.000 C 
BRANCH  20  21
ATOM     21  C   UNL     1      96.522  83.416  84.956  1.00  0.00     0.003 C 
BRANCH  21  22
ATOM     22  C   UNL     1      95.356  84.320  84.441  1.00  0.00    -0.017 C 
ATOM     23  C   UNL     1      95.920  85.576  83.718  1.00  0.00     0.007 C 
ATOM     24  C   UNL     1      94.350  84.738  85.554  1.00  0.00     0.007 C 
ENDBRANCH  21  22
ENDBRANCH  20  21
ENDBRANCH  19  20
ENDBRANCH  18  19
ENDBRANCH   1  18
TORSDOF 11
ENDMDL
