MODEL 1
REMARK VINA RESULT:    -7.938      0.000      0.000
REMARK INTER + INTRA:          -9.751
REMARK INTER:                  -9.330
REMARK INTRA:                  -0.421
REMARK UNBOUND:                -0.421
REMARK SMILES O=C(/C=C/C=C/c1ccc2c(c1)OCO2)N1CCCCC1
REMARK SMILES IDX 3 1 4 2 2 3 1 4 16 5 17 6 21 7 18 8 20 9 19 10 5 11 6 12
REMARK SMILES IDX 7 13 12 14 8 15 11 16 9 17 13 18 10 19 14 20 15 21
REMARK H PARENT
REMARK Flexibility Score: inf
ROOT
ATOM      1  C   UNL     1      94.765  94.084  75.593  1.00  0.00     0.071 C 
ATOM      2  C   UNL     1      93.646  94.741  75.293  1.00  0.00     0.006 C 
ENDROOT
BRANCH   1   3
ATOM      3  C   UNL     1      95.943  94.872  76.008  1.00  0.00     0.246 C 
ATOM      4  O   UNL     1      96.563  95.473  75.130  1.00  0.00    -0.270 OA
ATOM      5  N   UNL     1      96.277  94.878  77.361  1.00  0.00    -0.339 N 
ATOM      6  C   UNL     1      97.445  95.646  77.802  1.00  0.00     0.120 C 
ATOM      7  C   UNL     1      95.589  94.137  78.429  1.00  0.00     0.120 C 
ATOM      8  C   UNL     1      97.089  96.599  78.938  1.00  0.00     0.022 C 
ATOM      9  C   UNL     1      95.218  95.060  79.590  1.00  0.00     0.022 C 
ATOM     10  C   UNL     1      96.423  95.852  80.089  1.00  0.00     0.004 C 
ENDBRANCH   1   3
BRANCH   2  11
ATOM     11  C   UNL     1      92.440  94.058  74.877  1.00  0.00     0.001 C 
ATOM     12  C   UNL     1      92.391  92.731  74.671  1.00  0.00     0.008 C 
BRANCH  12  13
ATOM     13  C   UNL     1      91.195  91.988  74.240  1.00  0.00    -0.022 A 
ATOM     14  C   UNL     1      90.273  92.612  73.411  1.00  0.00     0.058 A 
ATOM     15  C   UNL     1      91.021  90.672  74.678  1.00  0.00     0.012 A 
ATOM     16  C   UNL     1      89.170  91.874  73.034  1.00  0.00     0.166 A 
ATOM     17  C   UNL     1      89.895  89.949  74.281  1.00  0.00     0.051 A 
ATOM     18  O   UNL     1      88.158  92.305  72.231  1.00  0.00    -0.454 OA
ATOM     19  C   UNL     1      88.985  90.578  73.458  1.00  0.00     0.165 A 
ATOM     20  C   UNL     1      87.317  91.135  72.197  1.00  0.00     0.468 C 
ATOM     21  O   UNL     1      87.835  90.035  72.973  1.00  0.00    -0.454 OA
ENDBRANCH  12  13
ENDBRANCH   2  11
TORSDOF 3
ENDMDL
MODEL 2
REMARK VINA RESULT:    -7.801      2.562      8.967
REMARK INTER + INTRA:          -9.590
REMARK INTER:                  -9.196
REMARK INTRA:                  -0.393
REMARK UNBOUND:                -0.421
REMARK SMILES O=C(/C=C/C=C/c1ccc2c(c1)OCO2)N1CCCCC1
REMARK SMILES IDX 3 1 4 2 2 3 1 4 16 5 17 6 21 7 18 8 20 9 19 10 5 11 6 12
REMARK SMILES IDX 7 13 12 14 8 15 11 16 9 17 13 18 10 19 14 20 15 21
REMARK H PARENT
REMARK Flexibility Score: inf
ROOT
ATOM      1  C   UNL     1      91.024  92.233  75.987  1.00  0.00     0.071 C 
ATOM      2  C   UNL     1      90.963  93.504  76.378  1.00  0.00     0.006 C 
ENDROOT
BRANCH   1   3
ATOM      3  C   UNL     1      89.762  91.559  75.619  1.00  0.00     0.246 C 
ATOM      4  O   UNL     1      88.842  91.587  76.437  1.00  0.00    -0.270 OA
ATOM      5  N   UNL     1      89.699  90.933  74.375  1.00  0.00    -0.339 N 
ATOM      6  C   UNL     1      88.462  90.251  73.984  1.00  0.00     0.120 C 
ATOM      7  C   UNL     1      90.789  90.840  73.392  1.00  0.00     0.120 C 
ATOM      8  C   UNL     1      87.967  90.730  72.623  1.00  0.00     0.022 C 
ATOM      9  C   UNL     1      90.331  91.310  72.011  1.00  0.00     0.022 C 
ATOM     10  C   UNL     1      89.059  90.594  71.566  1.00  0.00     0.004 C 
ENDBRANCH   1   3
BRANCH   2  11
ATOM     11  C   UNL     1      92.145  94.248  76.759  1.00  0.00     0.001 C 
ATOM     12  C   UNL     1      93.273  93.655  77.180  1.00  0.00     0.008 C 
BRANCH  12  13
ATOM     13  C   UNL     1      94.499  94.363  77.587  1.00  0.00    -0.022 A 
ATOM     14  C   UNL     1      95.334  94.884  76.608  1.00  0.00     0.058 A 
ATOM     15  C   UNL     1      94.788  94.491  78.948  1.00  0.00     0.012 A 
ATOM     16  C   UNL     1      96.470  95.539  77.038  1.00  0.00     0.166 A 
ATOM     17  C   UNL     1      95.944  95.159  79.355  1.00  0.00     0.051 A 
ATOM     18  O   UNL     1      97.410  96.115  76.239  1.00  0.00    -0.454 OA
ATOM     19  C   UNL     1      96.767  95.673  78.375  1.00  0.00     0.165 A 
ATOM     20  C   UNL     1      98.332  96.626  77.223  1.00  0.00     0.468 C 
ATOM     21  O   UNL     1      97.930  96.350  78.581  1.00  0.00    -0.454 OA
ENDBRANCH  12  13
ENDBRANCH   2  11
TORSDOF 3
ENDMDL
MODEL 3
REMARK VINA RESULT:    -7.720      2.002      2.557
REMARK INTER + INTRA:          -9.495
REMARK INTER:                  -9.105
REMARK INTRA:                  -0.390
REMARK UNBOUND:                -0.421
REMARK SMILES O=C(/C=C/C=C/c1ccc2c(c1)OCO2)N1CCCCC1
REMARK SMILES IDX 3 1 4 2 2 3 1 4 16 5 17 6 21 7 18 8 20 9 19 10 5 11 6 12
REMARK SMILES IDX 7 13 12 14 8 15 11 16 9 17 13 18 10 19 14 20 15 21
REMARK H PARENT
REMARK Flexibility Score: inf
ROOT
ATOM      1  C   UNL     1      95.588  94.397  77.605  1.00  0.00     0.071 C 
ATOM      2  C   UNL     1      94.367  94.741  77.201  1.00  0.00     0.006 C 
ENDROOT
BRANCH   1   3
ATOM      3  C   UNL     1      96.440  95.442  78.207  1.00  0.00     0.246 C 
ATOM      4  O   UNL     1      96.959  96.260  77.447  1.00  0.00    -0.270 OA
ATOM      5  N   UNL     1      96.604  95.428  79.591  1.00  0.00    -0.339 N 
ATOM      6  C   UNL     1      97.449  96.450  80.218  1.00  0.00     0.120 C 
ATOM      7  C   UNL     1      96.038  94.443  80.524  1.00  0.00     0.120 C 
ATOM      8  C   UNL     1      96.712  97.172  81.340  1.00  0.00     0.022 C 
ATOM      9  C   UNL     1      95.292  95.129  81.669  1.00  0.00     0.022 C 
ATOM     10  C   UNL     1      96.159  96.179  82.358  1.00  0.00     0.004 C 
ENDBRANCH   1   3
BRANCH   2  11
ATOM     11  C   UNL     1      93.458  93.789  76.599  1.00  0.00     0.001 C 
ATOM     12  C   UNL     1      92.363  93.332  77.227  1.00  0.00     0.008 C 
BRANCH  12  13
ATOM     13  C   UNL     1      91.412  92.358  76.666  1.00  0.00    -0.022 A 
ATOM     14  C   UNL     1      91.679  91.789  75.428  1.00  0.00     0.058 A 
ATOM     15  C   UNL     1      90.265  92.034  77.395  1.00  0.00     0.012 A 
ATOM     16  C   UNL     1      90.759  90.882  74.944  1.00  0.00     0.166 A 
ATOM     17  C   UNL     1      89.350  91.112  76.881  1.00  0.00     0.051 A 
ATOM     18  O   UNL     1      90.838  90.220  73.757  1.00  0.00    -0.454 OA
ATOM     19  C   UNL     1      89.625  90.553  75.651  1.00  0.00     0.165 A 
ATOM     20  C   UNL     1      89.628  89.437  73.797  1.00  0.00     0.468 C 
ATOM     21  O   UNL     1      88.853  89.643  74.996  1.00  0.00    -0.454 OA
ENDBRANCH  12  13
ENDBRANCH   2  11
TORSDOF 3
ENDMDL
MODEL 4
REMARK VINA RESULT:    -7.520      2.764      8.975
REMARK INTER + INTRA:          -9.260
REMARK INTER:                  -8.839
REMARK INTRA:                  -0.421
REMARK UNBOUND:                -0.421
REMARK SMILES O=C(/C=C/C=C/c1ccc2c(c1)OCO2)N1CCCCC1
REMARK SMILES IDX 3 1 4 2 2 3 1 4 16 5 17 6 21 7 18 8 20 9 19 10 5 11 6 12
REMARK SMILES IDX 7 13 12 14 8 15 11 16 9 17 13 18 10 19 14 20 15 21
REMARK H PARENT
REMARK Flexibility Score: inf
ROOT
ATOM      1  C   UNL     1      91.758  93.268  75.552  1.00  0.00     0.071 C 
ATOM      2  C   UNL     1      92.937  93.580  75.018  1.00  0.00     0.006 C 
ENDROOT
BRANCH   1   3
ATOM      3  C   UNL     1      90.721  92.701  74.666  1.00  0.00     0.246 C 
ATOM      4  O   UNL     1      90.453  93.321  73.636  1.00  0.00    -0.270 OA
ATOM      5  N   UNL     1      90.114  91.509  75.057  1.00  0.00    -0.339 N 
ATOM      6  C   UNL     1      89.077  90.925  74.200  1.00  0.00     0.120 C 
ATOM      7  C   UNL     1      90.375  90.767  76.299  1.00  0.00     0.120 C 
ATOM      8  C   UNL     1      89.382  89.468  73.871  1.00  0.00     0.022 C 
ATOM      9  C   UNL     1      90.682  89.297  76.011  1.00  0.00     0.022 C 
ATOM     10  C   UNL     1      89.603  88.655  75.143  1.00  0.00     0.004 C 
ENDBRANCH   1   3
BRANCH   2  11
ATOM     11  C   UNL     1      94.014  94.141  75.805  1.00  0.00     0.001 C 
ATOM     12  C   UNL     1      94.057  94.055  77.144  1.00  0.00     0.008 C 
BRANCH  12  13
ATOM     13  C   UNL     1      95.123  94.613  77.993  1.00  0.00    -0.022 A 
ATOM     14  C   UNL     1      95.089  94.380  79.361  1.00  0.00     0.058 A 
ATOM     15  C   UNL     1      96.140  95.363  77.397  1.00  0.00     0.012 A 
ATOM     16  C   UNL     1      96.110  94.923  80.114  1.00  0.00     0.166 A 
ATOM     17  C   UNL     1      97.161  95.901  78.184  1.00  0.00     0.051 A 
ATOM     18  O   UNL     1      96.254  94.809  81.463  1.00  0.00    -0.454 OA
ATOM     19  C   UNL     1      97.118  95.664  79.541  1.00  0.00     0.165 A 
ATOM     20  C   UNL     1      97.466  95.561  81.674  1.00  0.00     0.468 C 
ATOM     21  O   UNL     1      98.020  96.106  80.459  1.00  0.00    -0.454 OA
ENDBRANCH  12  13
ENDBRANCH   2  11
TORSDOF 3
ENDMDL
MODEL 5
REMARK VINA RESULT:    -7.484      1.945      2.476
REMARK INTER + INTRA:          -9.218
REMARK INTER:                  -8.889
REMARK INTRA:                  -0.328
REMARK UNBOUND:                -0.421
REMARK SMILES O=C(/C=C/C=C/c1ccc2c(c1)OCO2)N1CCCCC1
REMARK SMILES IDX 3 1 4 2 2 3 1 4 16 5 17 6 21 7 18 8 20 9 19 10 5 11 6 12
REMARK SMILES IDX 7 13 12 14 8 15 11 16 9 17 13 18 10 19 14 20 15 21
REMARK H PARENT
REMARK Flexibility Score: inf
ROOT
ATOM      1  C   UNL     1      94.658  94.136  77.736  1.00  0.00     0.071 C 
ATOM      2  C   UNL     1      93.335  93.996  77.683  1.00  0.00     0.006 C 
ENDROOT
BRANCH   1   3
ATOM      3  C   UNL     1      95.242  94.765  78.937  1.00  0.00     0.246 C 
ATOM      4  O   UNL     1      94.795  94.423  80.033  1.00  0.00    -0.270 OA
ATOM      5  N   UNL     1      96.255  95.705  78.751  1.00  0.00    -0.339 N 
ATOM      6  C   UNL     1      96.851  96.350  79.925  1.00  0.00     0.120 C 
ATOM      7  C   UNL     1      96.782  96.170  77.460  1.00  0.00     0.120 C 
ATOM      8  C   UNL     1      98.371  96.226  79.918  1.00  0.00     0.022 C 
ATOM      9  C   UNL     1      98.306  96.065  77.414  1.00  0.00     0.022 C 
ATOM     10  C   UNL     1      98.956  96.754  78.611  1.00  0.00     0.004 C 
ENDBRANCH   1   3
BRANCH   2  11
ATOM     11  C   UNL     1      92.670  93.392  76.548  1.00  0.00     0.001 C 
ATOM     12  C   UNL     1      91.557  92.650  76.668  1.00  0.00     0.008 C 
BRANCH  12  13
ATOM     13  C   UNL     1      90.847  92.007  75.550  1.00  0.00    -0.022 A 
ATOM     14  C   UNL     1      91.374  92.103  74.269  1.00  0.00     0.058 A 
ATOM     15  C   UNL     1      89.659  91.318  75.808  1.00  0.00     0.012 A 
ATOM     16  C   UNL     1      90.673  91.484  73.255  1.00  0.00     0.166 A 
ATOM     17  C   UNL     1      88.969  90.701  74.763  1.00  0.00     0.051 A 
ATOM     18  O   UNL     1      91.023  91.464  71.939  1.00  0.00    -0.454 OA
ATOM     19  C   UNL     1      89.502  90.802  73.495  1.00  0.00     0.165 A 
ATOM     20  C   UNL     1      89.941  90.693  71.379  1.00  0.00     0.468 C 
ATOM     21  O   UNL     1      88.972  90.269  72.360  1.00  0.00    -0.454 OA
ENDBRANCH  12  13
ENDBRANCH   2  11
TORSDOF 3
ENDMDL
MODEL 6
REMARK VINA RESULT:    -7.299      1.598      2.387
REMARK INTER + INTRA:          -9.000
REMARK INTER:                  -8.606
REMARK INTRA:                  -0.394
REMARK UNBOUND:                -0.421
REMARK SMILES O=C(/C=C/C=C/c1ccc2c(c1)OCO2)N1CCCCC1
REMARK SMILES IDX 3 1 4 2 2 3 1 4 16 5 17 6 21 7 18 8 20 9 19 10 5 11 6 12
REMARK SMILES IDX 7 13 12 14 8 15 11 16 9 17 13 18 10 19 14 20 15 21
REMARK H PARENT
REMARK Flexibility Score: inf
ROOT
ATOM      1  C   UNL     1      94.410  94.028  76.547  1.00  0.00     0.071 C 
ATOM      2  C   UNL     1      93.236  94.061  77.175  1.00  0.00     0.006 C 
ENDROOT
BRANCH   1   3
ATOM      3  C   UNL     1      95.558  94.701  77.187  1.00  0.00     0.246 C 
ATOM      4  O   UNL     1      95.903  94.303  78.300  1.00  0.00    -0.270 OA
ATOM      5  N   UNL     1      96.171  95.742  76.491  1.00  0.00    -0.339 N 
ATOM      6  C   UNL     1      97.311  96.432  77.103  1.00  0.00     0.120 C 
ATOM      7  C   UNL     1      95.760  96.274  75.183  1.00  0.00     0.120 C 
ATOM      8  C   UNL     1      98.511  96.466  76.164  1.00  0.00     0.022 C 
ATOM      9  C   UNL     1      96.940  96.326  74.212  1.00  0.00     0.022 C 
ATOM     10  C   UNL     1      98.132  97.065  74.813  1.00  0.00     0.004 C 
ENDBRANCH   1   3
BRANCH   2  11
ATOM     11  C   UNL     1      92.053  93.431  76.628  1.00  0.00     0.001 C 
ATOM     12  C   UNL     1      92.087  92.641  75.543  1.00  0.00     0.008 C 
BRANCH  12  13
ATOM     13  C   UNL     1      90.915  91.983  74.940  1.00  0.00    -0.022 A 
ATOM     14  C   UNL     1      90.335  92.540  73.808  1.00  0.00     0.058 A 
ATOM     15  C   UNL     1      90.417  90.816  75.526  1.00  0.00     0.012 A 
ATOM     16  C   UNL     1      89.240  91.887  73.280  1.00  0.00     0.166 A 
ATOM     17  C   UNL     1      89.307  90.177  74.971  1.00  0.00     0.051 A 
ATOM     18  O   UNL     1      88.535  92.272  72.181  1.00  0.00    -0.454 OA
ATOM     19  C   UNL     1      88.739  90.737  73.846  1.00  0.00     0.165 A 
ATOM     20  C   UNL     1      87.535  91.235  72.118  1.00  0.00     0.468 C 
ATOM     21  O   UNL     1      87.659  90.258  73.172  1.00  0.00    -0.454 OA
ENDBRANCH  12  13
ENDBRANCH   2  11
TORSDOF 3
ENDMDL
MODEL 7
REMARK VINA RESULT:    -7.223      3.073      4.142
REMARK INTER + INTRA:          -8.910
REMARK INTER:                  -8.547
REMARK INTRA:                  -0.363
REMARK UNBOUND:                -0.421
REMARK SMILES O=C(/C=C/C=C/c1ccc2c(c1)OCO2)N1CCCCC1
REMARK SMILES IDX 3 1 4 2 2 3 1 4 16 5 17 6 21 7 18 8 20 9 19 10 5 11 6 12
REMARK SMILES IDX 7 13 12 14 8 15 11 16 9 17 13 18 10 19 14 20 15 21
REMARK H PARENT
REMARK Flexibility Score: inf
ROOT
ATOM      1  C   UNL     1      95.084  96.485  74.971  1.00  0.00     0.071 C 
ATOM      2  C   UNL     1      94.940  95.256  75.462  1.00  0.00     0.006 C 
ENDROOT
BRANCH   1   3
ATOM      3  C   UNL     1      96.396  97.146  75.125  1.00  0.00     0.246 C 
ATOM      4  O   UNL     1      96.708  97.533  76.252  1.00  0.00    -0.270 OA
ATOM      5  N   UNL     1      97.188  97.291  73.988  1.00  0.00    -0.339 N 
ATOM      6  C   UNL     1      98.493  97.948  74.109  1.00  0.00     0.120 C 
ATOM      7  C   UNL     1      96.830  96.882  72.621  1.00  0.00     0.120 C 
ATOM      8  C   UNL     1      99.607  97.086  73.523  1.00  0.00     0.022 C 
ATOM      9  C   UNL     1      97.926  96.019  71.997  1.00  0.00     0.022 C 
ATOM     10  C   UNL     1      99.293  96.691  72.084  1.00  0.00     0.004 C 
ENDBRANCH   1   3
BRANCH   2  11
ATOM     11  C   UNL     1      93.693  94.527  75.359  1.00  0.00     0.001 C 
ATOM     12  C   UNL     1      93.206  93.776  76.360  1.00  0.00     0.008 C 
BRANCH  12  13
ATOM     13  C   UNL     1      91.950  93.010  76.306  1.00  0.00    -0.022 A 
ATOM     14  C   UNL     1      91.543  92.464  75.096  1.00  0.00     0.058 A 
ATOM     15  C   UNL     1      91.202  92.852  77.475  1.00  0.00     0.012 A 
ATOM     16  C   UNL     1      90.359  91.754  75.096  1.00  0.00     0.166 A 
ATOM     17  C   UNL     1      90.007  92.129  77.447  1.00  0.00     0.051 A 
ATOM     18  O   UNL     1      89.793  91.148  74.017  1.00  0.00    -0.454 OA
ATOM     19  C   UNL     1      89.612  91.591  76.240  1.00  0.00     0.165 A 
ATOM     20  C   UNL     1      88.605  90.584  74.611  1.00  0.00     0.468 C 
ATOM     21  O   UNL     1      88.484  90.861  76.021  1.00  0.00    -0.454 OA
ENDBRANCH  12  13
ENDBRANCH   2  11
TORSDOF 3
ENDMDL
MODEL 8
REMARK VINA RESULT:    -7.122      5.999      9.688
REMARK INTER + INTRA:          -8.793
REMARK INTER:                  -8.418
REMARK INTRA:                  -0.375
REMARK UNBOUND:                -0.421
REMARK SMILES O=C(/C=C/C=C/c1ccc2c(c1)OCO2)N1CCCCC1
REMARK SMILES IDX 3 1 4 2 2 3 1 4 16 5 17 6 21 7 18 8 20 9 19 10 5 11 6 12
REMARK SMILES IDX 7 13 12 14 8 15 11 16 9 17 13 18 10 19 14 20 15 21
REMARK H PARENT
REMARK Flexibility Score: inf
ROOT
ATOM      1  C   UNL     1      92.530  98.572  70.463  1.00  0.00     0.071 C 
ATOM      2  C   UNL     1      93.845  98.590  70.673  1.00  0.00     0.006 C 
ENDROOT
BRANCH   1   3
ATOM      3  C   UNL     1      91.996  99.363  69.336  1.00  0.00     0.246 C 
ATOM      4  O   UNL     1      92.486 100.476  69.139  1.00  0.00    -0.270 OA
ATOM      5  N   UNL     1      90.972  98.802  68.576  1.00  0.00    -0.339 N 
ATOM      6  C   UNL     1      90.417  99.566  67.454  1.00  0.00     0.120 C 
ATOM      7  C   UNL     1      90.332  97.498  68.808  1.00  0.00     0.120 C 
ATOM      8  C   UNL     1      90.431  98.751  66.165  1.00  0.00     0.022 C 
ATOM      9  C   UNL     1      90.322  96.652  67.535  1.00  0.00     0.022 C 
ATOM     10  C   UNL     1      89.723  97.414  66.356  1.00  0.00     0.004 C 
ENDBRANCH   1   3
BRANCH   2  11
ATOM     11  C   UNL     1      94.462  97.847  71.751  1.00  0.00     0.001 C 
ATOM     12  C   UNL     1      94.003  97.881  73.012  1.00  0.00     0.008 C 
BRANCH  12  13
ATOM     13  C   UNL     1      94.596  97.153  74.147  1.00  0.00    -0.022 A 
ATOM     14  C   UNL     1      93.997  95.980  74.584  1.00  0.00     0.058 A 
ATOM     15  C   UNL     1      95.747  97.665  74.753  1.00  0.00     0.012 A 
ATOM     16  C   UNL     1      94.590  95.334  75.649  1.00  0.00     0.166 A 
ATOM     17  C   UNL     1      96.326  96.990  75.830  1.00  0.00     0.051 A 
ATOM     18  O   UNL     1      94.157  94.177  76.222  1.00  0.00    -0.454 OA
ATOM     19  C   UNL     1      95.723  95.825  76.256  1.00  0.00     0.165 A 
ATOM     20  C   UNL     1      95.145  93.996  77.257  1.00  0.00     0.468 C 
ATOM     21  O   UNL     1      96.142  95.038  77.285  1.00  0.00    -0.454 OA
ENDBRANCH  12  13
ENDBRANCH   2  11
TORSDOF 3
ENDMDL
MODEL 9
REMARK VINA RESULT:    -7.065      3.984      5.373
REMARK INTER + INTRA:          -8.725
REMARK INTER:                  -8.349
REMARK INTRA:                  -0.376
REMARK UNBOUND:                -0.421
REMARK SMILES O=C(/C=C/C=C/c1ccc2c(c1)OCO2)N1CCCCC1
REMARK SMILES IDX 3 1 4 2 2 3 1 4 16 5 17 6 21 7 18 8 20 9 19 10 5 11 6 12
REMARK SMILES IDX 7 13 12 14 8 15 11 16 9 17 13 18 10 19 14 20 15 21
REMARK H PARENT
REMARK Flexibility Score: inf
ROOT
ATOM      1  C   UNL     1      94.120  96.827  74.213  1.00  0.00     0.071 C 
ATOM      2  C   UNL     1      94.550  95.849  75.008  1.00  0.00     0.006 C 
ENDROOT
BRANCH   1   3
ATOM      3  C   UNL     1      95.029  97.961  73.953  1.00  0.00     0.246 C 
ATOM      4  O   UNL     1      95.737  98.347  74.883  1.00  0.00    -0.270 OA
ATOM      5  N   UNL     1      95.020  98.521  72.676  1.00  0.00    -0.339 N 
ATOM      6  C   UNL     1      95.908  99.652  72.390  1.00  0.00     0.120 C 
ATOM      7  C   UNL     1      94.158  98.117  71.556  1.00  0.00     0.120 C 
ATOM      8  C   UNL     1      96.762  99.391  71.154  1.00  0.00     0.022 C 
ATOM      9  C   UNL     1      94.979  97.849  70.295  1.00  0.00     0.022 C 
ATOM     10  C   UNL     1      95.892  99.024  69.956  1.00  0.00     0.004 C 
ENDBRANCH   1   3
BRANCH   2  11
ATOM     11  C   UNL     1      93.732  94.697  75.322  1.00  0.00     0.001 C 
ATOM     12  C   UNL     1      92.445  94.798  75.690  1.00  0.00     0.008 C 
BRANCH  12  13
ATOM     13  C   UNL     1      91.571  93.662  76.028  1.00  0.00    -0.022 A 
ATOM     14  C   UNL     1      91.891  92.398  75.549  1.00  0.00     0.058 A 
ATOM     15  C   UNL     1      90.444  93.886  76.821  1.00  0.00     0.012 A 
ATOM     16  C   UNL     1      91.043  91.366  75.892  1.00  0.00     0.166 A 
ATOM     17  C   UNL     1      89.602  92.823  77.154  1.00  0.00     0.051 A 
ATOM     18  O   UNL     1      91.181  90.063  75.523  1.00  0.00    -0.454 OA
ATOM     19  C   UNL     1      89.929  91.572  76.673  1.00  0.00     0.165 A 
ATOM     20  C   UNL     1      90.030  89.472  76.160  1.00  0.00     0.468 C 
ATOM     21  O   UNL     1      89.230  90.424  76.891  1.00  0.00    -0.454 OA
ENDBRANCH  12  13
ENDBRANCH   2  11
TORSDOF 3
ENDMDL
MODEL 10
REMARK VINA RESULT:    -7.025      5.940      7.009
REMARK INTER + INTRA:          -8.678
REMARK INTER:                  -8.371
REMARK INTRA:                  -0.307
REMARK UNBOUND:                -0.421
REMARK SMILES O=C(/C=C/C=C/c1ccc2c(c1)OCO2)N1CCCCC1
REMARK SMILES IDX 3 1 4 2 2 3 1 4 16 5 17 6 21 7 18 8 20 9 19 10 5 11 6 12
REMARK SMILES IDX 7 13 12 14 8 15 11 16 9 17 13 18 10 19 14 20 15 21
REMARK H PARENT
REMARK Flexibility Score: inf
ROOT
ATOM      1  C   UNL     1      94.908  97.520  73.242  1.00  0.00     0.071 C 
ATOM      2  C   UNL     1      93.919  98.337  72.887  1.00  0.00     0.006 C 
ENDROOT
BRANCH   1   3
ATOM      3  C   UNL     1      95.491  97.679  74.589  1.00  0.00     0.246 C 
ATOM      4  O   UNL     1      95.388  98.781  75.127  1.00  0.00    -0.270 OA
ATOM      5  N   UNL     1      96.122  96.573  75.158  1.00  0.00    -0.339 N 
ATOM      6  C   UNL     1      96.715  96.702  76.493  1.00  0.00     0.120 C 
ATOM      7  C   UNL     1      96.303  95.257  74.529  1.00  0.00     0.120 C 
ATOM      8  C   UNL     1      96.213  95.611  77.433  1.00  0.00     0.022 C 
ATOM      9  C   UNL     1      95.814  94.134  75.444  1.00  0.00     0.022 C 
ATOM     10  C   UNL     1      96.438  94.227  76.833  1.00  0.00     0.004 C 
ENDBRANCH   1   3
BRANCH   2  11
ATOM     11  C   UNL     1      93.285  98.259  71.588  1.00  0.00     0.001 C 
ATOM     12  C   UNL     1      92.471  99.219  71.118  1.00  0.00     0.008 C 
BRANCH  12  13
ATOM     13  C   UNL     1      91.795  99.186  69.810  1.00  0.00    -0.022 A 
ATOM     14  C   UNL     1      90.889  98.169  69.543  1.00  0.00     0.058 A 
ATOM     15  C   UNL     1      92.084 100.182  68.873  1.00  0.00     0.012 A 
ATOM     16  C   UNL     1      90.281  98.181  68.304  1.00  0.00     0.166 A 
ATOM     17  C   UNL     1      91.454 100.170  67.627  1.00  0.00     0.051 A 
ATOM     18  O   UNL     1      89.370  97.276  67.853  1.00  0.00    -0.454 OA
ATOM     19  C   UNL     1      90.555  99.155  67.372  1.00  0.00     0.165 A 
ATOM     20  C   UNL     1      89.102  97.789  66.533  1.00  0.00     0.468 C 
ATOM     21  O   UNL     1      89.851  98.982  66.220  1.00  0.00    -0.454 OA
ENDBRANCH  12  13
ENDBRANCH   2  11
TORSDOF 3
ENDMDL
