MODEL 1
REMARK VINA RESULT:    -6.540      0.000      0.000
REMARK INTER + INTRA:         -11.205
REMARK INTER:                 -10.172
REMARK INTRA:                  -1.033
REMARK UNBOUND:                -1.033
REMARK SMILES CCCCC/C=C/C(=O)CCc1ccc(O)c(OC)c1
REMARK SMILES IDX 6 1 7 2 8 3 9 4 10 5 11 6 12 7 17 8 20 9 15 10 14 11 13 12
REMARK SMILES IDX 18 13 19 14 16 15 5 17 4 18 3 19 2 20 1 21
REMARK H PARENT 16 16
REMARK Flexibility Score: inf
ROOT
ATOM      1  C   UNL     1      92.257  95.436  77.871  1.00  0.00    -0.023 C 
ATOM      2  C   UNL     1      92.235  96.298  76.847  1.00  0.00     0.043 C 
ENDROOT
BRANCH   2   3
ATOM      3  C   UNL     1      93.465  97.052  76.485  1.00  0.00     0.155 C 
ATOM      4  O   UNL     1      93.415  98.153  75.939  1.00  0.00    -0.295 OA
BRANCH   3   5
ATOM      5  C   UNL     1      94.787  96.369  76.777  1.00  0.00     0.085 C 
BRANCH   5   6
ATOM      6  C   UNL     1      95.476  96.989  77.994  1.00  0.00     0.044 C 
BRANCH   6   7
ATOM      7  C   UNL     1      95.424  96.100  79.215  1.00  0.00    -0.044 A 
ATOM      8  C   UNL     1      95.057  95.832  81.571  1.00  0.00     0.160 A 
ATOM      9  C   UNL     1      95.106  96.653  80.445  1.00  0.00     0.054 A 
ATOM     10  C   UNL     1      95.328  94.469  81.453  1.00  0.00     0.157 A 
ATOM     11  C   UNL     1      95.648  93.927  80.207  1.00  0.00     0.050 A 
ATOM     12  C   UNL     1      95.696  94.749  79.081  1.00  0.00     0.008 A 
BRANCH   8  13
ATOM     13  O   UNL     1      94.745  96.373  82.782  1.00  0.00    -0.493 OA
ATOM     14  C   UNL     1      95.780  97.079  83.463  1.00  0.00     0.278 C 
ENDBRANCH   8  13
BRANCH  10  15
ATOM     15  O   UNL     1      95.284  93.656  82.545  1.00  0.00    -0.504 OA
ATOM     16  H   UNL     1      96.173  93.626  82.939  1.00  0.00     0.293 HD
ENDBRANCH  10  15
ENDBRANCH   6   7
ENDBRANCH   5   6
ENDBRANCH   3   5
ENDBRANCH   2   3
BRANCH   1  17
ATOM     17  C   UNL     1      91.059  94.638  78.298  1.00  0.00     0.027 C 
BRANCH  17  18
ATOM     18  C   UNL     1      89.895  94.723  77.306  1.00  0.00     0.004 C 
BRANCH  18  19
ATOM     19  C   UNL     1      89.810  93.525  76.355  1.00  0.00     0.000 C 
BRANCH  19  20
ATOM     20  C   UNL     1      91.062  92.652  76.455  1.00  0.00    -0.003 C 
ATOM     21  C   UNL     1      91.184  91.715  75.264  1.00  0.00     0.004 C 
ENDBRANCH  19  20
ENDBRANCH  18  19
ENDBRANCH  17  18
ENDBRANCH   1  17
TORSDOF 10
ENDMDL
MODEL 2
REMARK VINA RESULT:    -6.257      1.560      2.601
REMARK INTER + INTRA:         -10.765
REMARK INTER:                  -9.748
REMARK INTRA:                  -1.016
REMARK UNBOUND:                -1.033
REMARK SMILES CCCCC/C=C/C(=O)CCc1ccc(O)c(OC)c1
REMARK SMILES IDX 6 1 7 2 8 3 9 4 10 5 11 6 12 7 17 8 20 9 15 10 14 11 13 12
REMARK SMILES IDX 18 13 19 14 16 15 5 17 4 18 3 19 2 20 1 21
REMARK H PARENT 16 16
REMARK Flexibility Score: inf
ROOT
ATOM      1  C   UNL     1      93.672  95.525  77.227  1.00  0.00    -0.023 C 
ATOM      2  C   UNL     1      94.349  95.962  76.157  1.00  0.00     0.043 C 
ENDROOT
BRANCH   2   3
ATOM      3  C   UNL     1      95.305  97.094  76.296  1.00  0.00     0.155 C 
ATOM      4  O   UNL     1      96.142  97.346  75.432  1.00  0.00    -0.295 OA
BRANCH   3   5
ATOM      5  C   UNL     1      95.228  97.890  77.585  1.00  0.00     0.085 C 
BRANCH   5   6
ATOM      6  C   UNL     1      96.401  97.563  78.510  1.00  0.00     0.044 C 
BRANCH   6   7
ATOM      7  C   UNL     1      95.959  97.132  79.889  1.00  0.00    -0.044 A 
ATOM      8  C   UNL     1      95.437  95.384  81.448  1.00  0.00     0.160 A 
ATOM      9  C   UNL     1      95.845  95.781  80.175  1.00  0.00     0.054 A 
ATOM     10  C   UNL     1      95.148  96.343  82.419  1.00  0.00     0.157 A 
ATOM     11  C   UNL     1      95.266  97.700  82.115  1.00  0.00     0.050 A 
ATOM     12  C   UNL     1      95.674  98.097  80.842  1.00  0.00     0.008 A 
BRANCH   8  13
ATOM     13  O   UNL     1      95.325  94.056  81.732  1.00  0.00    -0.493 OA
ATOM     14  C   UNL     1      94.855  93.207  80.686  1.00  0.00     0.278 C 
ENDBRANCH   8  13
BRANCH  10  15
ATOM     15  O   UNL     1      94.749  95.968  83.666  1.00  0.00    -0.504 OA
ATOM     16  H   UNL     1      94.443  95.045  83.624  1.00  0.00     0.293 HD
ENDBRANCH  10  15
ENDBRANCH   6   7
ENDBRANCH   5   6
ENDBRANCH   3   5
ENDBRANCH   2   3
BRANCH   1  17
ATOM     17  C   UNL     1      92.691  94.391  77.170  1.00  0.00     0.027 C 
BRANCH  17  18
ATOM     18  C   UNL     1      91.324  94.805  76.615  1.00  0.00     0.004 C 
BRANCH  18  19
ATOM     19  C   UNL     1      90.308  95.176  77.700  1.00  0.00     0.000 C 
BRANCH  19  20
ATOM     20  C   UNL     1      89.234  94.097  77.842  1.00  0.00    -0.003 C 
ATOM     21  C   UNL     1      89.728  92.924  78.674  1.00  0.00     0.004 C 
ENDBRANCH  19  20
ENDBRANCH  18  19
ENDBRANCH  17  18
ENDBRANCH   1  17
TORSDOF 10
ENDMDL
MODEL 3
REMARK VINA RESULT:    -5.847     21.012     23.812
REMARK INTER + INTRA:         -10.127
REMARK INTER:                  -9.527
REMARK INTRA:                  -0.600
REMARK UNBOUND:                -1.033
REMARK SMILES CCCCC/C=C/C(=O)CCc1ccc(O)c(OC)c1
REMARK SMILES IDX 6 1 7 2 8 3 9 4 10 5 11 6 12 7 17 8 20 9 15 10 14 11 13 12
REMARK SMILES IDX 18 13 19 14 16 15 5 17 4 18 3 19 2 20 1 21
REMARK H PARENT 16 16
REMARK Flexibility Score: inf
ROOT
ATOM      1  C   UNL     1      76.807  82.130  65.850  1.00  0.00    -0.023 C 
ATOM      2  C   UNL     1      76.675  83.074  66.790  1.00  0.00     0.043 C 
ENDROOT
BRANCH   2   3
ATOM      3  C   UNL     1      77.885  83.723  67.364  1.00  0.00     0.155 C 
ATOM      4  O   UNL     1      78.988  83.626  66.831  1.00  0.00    -0.295 OA
BRANCH   3   5
ATOM      5  C   UNL     1      77.696  84.467  68.672  1.00  0.00     0.085 C 
BRANCH   5   6
ATOM      6  C   UNL     1      78.331  85.857  68.616  1.00  0.00     0.044 C 
BRANCH   6   7
ATOM      7  C   UNL     1      77.309  86.968  68.559  1.00  0.00    -0.044 A 
ATOM      8  C   UNL     1      75.788  88.446  69.682  1.00  0.00     0.160 A 
ATOM      9  C   UNL     1      76.731  87.420  69.735  1.00  0.00     0.054 A 
ATOM     10  C   UNL     1      75.434  89.007  68.455  1.00  0.00     0.157 A 
ATOM     11  C   UNL     1      76.025  88.540  67.279  1.00  0.00     0.050 A 
ATOM     12  C   UNL     1      76.968  87.514  67.333  1.00  0.00     0.008 A 
BRANCH   8  13
ATOM     13  O   UNL     1      75.218  88.893  70.836  1.00  0.00    -0.493 OA
ATOM     14  C   UNL     1      74.076  88.184  71.312  1.00  0.00     0.278 C 
ENDBRANCH   8  13
BRANCH  10  15
ATOM     15  O   UNL     1      74.515  90.009  68.390  1.00  0.00    -0.504 OA
ATOM     16  H   UNL     1      74.807  90.649  67.718  1.00  0.00     0.293 HD
ENDBRANCH  10  15
ENDBRANCH   6   7
ENDBRANCH   5   6
ENDBRANCH   3   5
ENDBRANCH   2   3
BRANCH   1  17
ATOM     17  C   UNL     1      75.639  81.428  65.222  1.00  0.00     0.027 C 
BRANCH  17  18
ATOM     18  C   UNL     1      75.810  81.204  63.715  1.00  0.00     0.004 C 
BRANCH  18  19
ATOM     19  C   UNL     1      74.508  80.831  62.998  1.00  0.00     0.000 C 
BRANCH  19  20
ATOM     20  C   UNL     1      73.401  80.502  64.000  1.00  0.00    -0.003 C 
ATOM     21  C   UNL     1      72.271  79.724  63.346  1.00  0.00     0.004 C 
ENDBRANCH  19  20
ENDBRANCH  18  19
ENDBRANCH  17  18
ENDBRANCH   1  17
TORSDOF 10
ENDMDL
MODEL 4
REMARK VINA RESULT:    -5.801      2.332      5.417
REMARK INTER + INTRA:         -10.056
REMARK INTER:                  -8.590
REMARK INTRA:                  -1.466
REMARK UNBOUND:                -1.033
REMARK SMILES CCCCC/C=C/C(=O)CCc1ccc(O)c(OC)c1
REMARK SMILES IDX 6 1 7 2 8 3 9 4 10 5 11 6 12 7 17 8 20 9 15 10 14 11 13 12
REMARK SMILES IDX 18 13 19 14 16 15 5 17 4 18 3 19 2 20 1 21
REMARK H PARENT 16 16
REMARK Flexibility Score: inf
ROOT
ATOM      1  C   UNL     1      95.929  98.098  78.794  1.00  0.00    -0.023 C 
ATOM      2  C   UNL     1      96.679  98.167  77.687  1.00  0.00     0.043 C 
ENDROOT
BRANCH   2   3
ATOM      3  C   UNL     1      96.060  98.576  76.397  1.00  0.00     0.155 C 
ATOM      4  O   UNL     1      95.820  99.753  76.136  1.00  0.00    -0.295 OA
BRANCH   3   5
ATOM      5  C   UNL     1      95.690  97.458  75.441  1.00  0.00     0.085 C 
BRANCH   5   6
ATOM      6  C   UNL     1      94.173  97.316  75.313  1.00  0.00     0.044 C 
BRANCH   6   7
ATOM      7  C   UNL     1      93.586  96.355  76.320  1.00  0.00    -0.044 A 
ATOM      8  C   UNL     1      91.705  95.575  77.590  1.00  0.00     0.160 A 
ATOM      9  C   UNL     1      92.247  96.462  76.660  1.00  0.00     0.054 A 
ATOM     10  C   UNL     1      92.509  94.592  78.168  1.00  0.00     0.157 A 
ATOM     11  C   UNL     1      93.856  94.498  77.815  1.00  0.00     0.050 A 
ATOM     12  C   UNL     1      94.398  95.386  76.885  1.00  0.00     0.008 A 
BRANCH   8  13
ATOM     13  O   UNL     1      90.389  95.678  77.926  1.00  0.00    -0.493 OA
ATOM     14  C   UNL     1      89.453  94.984  77.103  1.00  0.00     0.278 C 
ENDBRANCH   8  13
BRANCH  10  15
ATOM     15  O   UNL     1      91.992  93.720  79.077  1.00  0.00    -0.504 OA
ATOM     16  H   UNL     1      91.150  94.082  79.402  1.00  0.00     0.293 HD
ENDBRANCH  10  15
ENDBRANCH   6   7
ENDBRANCH   5   6
ENDBRANCH   3   5
ENDBRANCH   2   3
BRANCH   1  17
ATOM     17  C   UNL     1      96.477  97.695  80.132  1.00  0.00     0.027 C 
BRANCH  17  18
ATOM     18  C   UNL     1      95.404  97.618  81.224  1.00  0.00     0.004 C 
BRANCH  18  19
ATOM     19  C   UNL     1      95.156  96.198  81.741  1.00  0.00     0.000 C 
BRANCH  19  20
ATOM     20  C   UNL     1      95.834  95.158  80.847  1.00  0.00    -0.003 C 
ATOM     21  C   UNL     1      95.277  93.765  81.091  1.00  0.00     0.004 C 
ENDBRANCH  19  20
ENDBRANCH  18  19
ENDBRANCH  17  18
ENDBRANCH   1  17
TORSDOF 10
ENDMDL
MODEL 5
REMARK VINA RESULT:    -5.770     21.530     26.076
REMARK INTER + INTRA:         -10.008
REMARK INTER:                  -8.752
REMARK INTRA:                  -1.255
REMARK UNBOUND:                -1.033
REMARK SMILES CCCCC/C=C/C(=O)CCc1ccc(O)c(OC)c1
REMARK SMILES IDX 6 1 7 2 8 3 9 4 10 5 11 6 12 7 17 8 20 9 15 10 14 11 13 12
REMARK SMILES IDX 18 13 19 14 16 15 5 17 4 18 3 19 2 20 1 21
REMARK H PARENT 16 16
REMARK Flexibility Score: inf
ROOT
ATOM      1  C   UNL     1      77.153  85.956  66.134  1.00  0.00    -0.023 C 
ATOM      2  C   UNL     1      77.702  84.747  66.304  1.00  0.00     0.043 C 
ENDROOT
BRANCH   2   3
ATOM      3  C   UNL     1      77.409  83.656  65.335  1.00  0.00     0.155 C 
ATOM      4  O   UNL     1      77.309  83.870  64.129  1.00  0.00    -0.295 OA
BRANCH   3   5
ATOM      5  C   UNL     1      77.189  82.274  65.918  1.00  0.00     0.085 C 
BRANCH   5   6
ATOM      6  C   UNL     1      75.861  82.196  66.674  1.00  0.00     0.044 C 
BRANCH   6   7
ATOM      7  C   UNL     1      74.704  81.797  65.788  1.00  0.00    -0.044 A 
ATOM      8  C   UNL     1      72.360  81.872  65.278  1.00  0.00     0.160 A 
ATOM      9  C   UNL     1      73.428  82.241  66.096  1.00  0.00     0.054 A 
ATOM     10  C   UNL     1      72.582  81.064  64.163  1.00  0.00     0.157 A 
ATOM     11  C   UNL     1      73.873  80.624  63.866  1.00  0.00     0.050 A 
ATOM     12  C   UNL     1      74.941  80.993  64.685  1.00  0.00     0.008 A 
BRANCH   8  13
ATOM     13  O   UNL     1      71.105  82.307  65.578  1.00  0.00    -0.493 OA
ATOM     14  C   UNL     1      70.758  82.383  66.960  1.00  0.00     0.278 C 
ENDBRANCH   8  13
BRANCH  10  15
ATOM     15  O   UNL     1      71.548  80.698  63.356  1.00  0.00    -0.504 OA
ATOM     16  H   UNL     1      71.831  80.799  62.431  1.00  0.00     0.293 HD
ENDBRANCH  10  15
ENDBRANCH   6   7
ENDBRANCH   5   6
ENDBRANCH   3   5
ENDBRANCH   2   3
BRANCH   1  17
ATOM     17  C   UNL     1      77.398  87.107  67.066  1.00  0.00     0.027 C 
BRANCH  17  18
ATOM     18  C   UNL     1      78.292  86.738  68.255  1.00  0.00     0.004 C 
BRANCH  18  19
ATOM     19  C   UNL     1      77.538  86.651  69.586  1.00  0.00     0.000 C 
BRANCH  19  20
ATOM     20  C   UNL     1      77.446  85.205  70.075  1.00  0.00    -0.003 C 
ATOM     21  C   UNL     1      76.119  84.570  69.691  1.00  0.00     0.004 C 
ENDBRANCH  19  20
ENDBRANCH  18  19
ENDBRANCH  17  18
ENDBRANCH   1  17
TORSDOF 10
ENDMDL
MODEL 6
REMARK VINA RESULT:    -5.674      2.661      6.351
REMARK INTER + INTRA:          -9.858
REMARK INTER:                  -8.288
REMARK INTRA:                  -1.570
REMARK UNBOUND:                -1.033
REMARK SMILES CCCCC/C=C/C(=O)CCc1ccc(O)c(OC)c1
REMARK SMILES IDX 6 1 7 2 8 3 9 4 10 5 11 6 12 7 17 8 20 9 15 10 14 11 13 12
REMARK SMILES IDX 18 13 19 14 16 15 5 17 4 18 3 19 2 20 1 21
REMARK H PARENT 16 16
REMARK Flexibility Score: inf
ROOT
ATOM      1  C   UNL     1      93.471  94.545  79.454  1.00  0.00    -0.023 C 
ATOM      2  C   UNL     1      92.595  93.877  78.694  1.00  0.00     0.043 C 
ENDROOT
BRANCH   2   3
ATOM      3  C   UNL     1      91.287  94.497  78.350  1.00  0.00     0.155 C 
ATOM      4  O   UNL     1      90.221  93.920  78.556  1.00  0.00    -0.295 OA
BRANCH   3   5
ATOM      5  C   UNL     1      91.338  95.858  77.684  1.00  0.00     0.085 C 
BRANCH   5   6
ATOM      6  C   UNL     1      91.941  95.767  76.281  1.00  0.00     0.044 C 
BRANCH   6   7
ATOM      7  C   UNL     1      93.128  96.682  76.092  1.00  0.00    -0.044 A 
ATOM      8  C   UNL     1      94.019  98.821  75.465  1.00  0.00     0.160 A 
ATOM      9  C   UNL     1      92.923  97.976  75.639  1.00  0.00     0.054 A 
ATOM     10  C   UNL     1      95.306  98.362  75.746  1.00  0.00     0.157 A 
ATOM     11  C   UNL     1      95.496  97.056  76.201  1.00  0.00     0.050 A 
ATOM     12  C   UNL     1      94.400  96.211  76.375  1.00  0.00     0.008 A 
BRANCH   8  13
ATOM     13  O   UNL     1      93.820 100.093  75.020  1.00  0.00    -0.493 OA
ATOM     14  C   UNL     1      93.620 100.265  73.618  1.00  0.00     0.278 C 
ENDBRANCH   8  13
BRANCH  10  15
ATOM     15  O   UNL     1      96.384  99.177  75.580  1.00  0.00    -0.504 OA
ATOM     16  H   UNL     1      96.063 100.060  75.329  1.00  0.00     0.293 HD
ENDBRANCH  10  15
ENDBRANCH   6   7
ENDBRANCH   5   6
ENDBRANCH   3   5
ENDBRANCH   2   3
BRANCH   1  17
ATOM     17  C   UNL     1      94.810  93.989  79.845  1.00  0.00     0.027 C 
BRANCH  17  18
ATOM     18  C   UNL     1      95.892  95.066  79.981  1.00  0.00     0.004 C 
BRANCH  18  19
ATOM     19  C   UNL     1      95.344  96.496  79.938  1.00  0.00     0.000 C 
BRANCH  19  20
ATOM     20  C   UNL     1      95.738  97.275  81.194  1.00  0.00    -0.003 C 
ATOM     21  C   UNL     1      94.685  97.146  82.283  1.00  0.00     0.004 C 
ENDBRANCH  19  20
ENDBRANCH  18  19
ENDBRANCH  17  18
ENDBRANCH   1  17
TORSDOF 10
ENDMDL
MODEL 7
REMARK VINA RESULT:    -5.533      4.597      6.048
REMARK INTER + INTRA:          -9.638
REMARK INTER:                  -9.049
REMARK INTRA:                  -0.589
REMARK UNBOUND:                -1.033
REMARK SMILES CCCCC/C=C/C(=O)CCc1ccc(O)c(OC)c1
REMARK SMILES IDX 6 1 7 2 8 3 9 4 10 5 11 6 12 7 17 8 20 9 15 10 14 11 13 12
REMARK SMILES IDX 18 13 19 14 16 15 5 17 4 18 3 19 2 20 1 21
REMARK H PARENT 16 16
REMARK Flexibility Score: inf
ROOT
ATOM      1  C   UNL     1      91.859 100.317  72.671  1.00  0.00    -0.023 C 
ATOM      2  C   UNL     1      92.554  99.505  73.477  1.00  0.00     0.043 C 
ENDROOT
BRANCH   2   3
ATOM      3  C   UNL     1      93.053 100.008  74.785  1.00  0.00     0.155 C 
ATOM      4  O   UNL     1      93.115 101.210  75.037  1.00  0.00    -0.295 OA
BRANCH   3   5
ATOM      5  C   UNL     1      93.533  98.963  75.774  1.00  0.00     0.085 C 
BRANCH   5   6
ATOM      6  C   UNL     1      93.302  97.548  75.242  1.00  0.00     0.044 C 
BRANCH   6   7
ATOM      7  C   UNL     1      93.225  96.513  76.339  1.00  0.00    -0.044 A 
ATOM      8  C   UNL     1      91.918  95.196  77.860  1.00  0.00     0.160 A 
ATOM      9  C   UNL     1      91.988  96.152  76.847  1.00  0.00     0.054 A 
ATOM     10  C   UNL     1      93.085  94.614  78.352  1.00  0.00     0.157 A 
ATOM     11  C   UNL     1      94.325  94.988  77.831  1.00  0.00     0.050 A 
ATOM     12  C   UNL     1      94.395  95.945  76.818  1.00  0.00     0.008 A 
BRANCH   8  13
ATOM     13  O   UNL     1      90.702  94.839  78.361  1.00  0.00    -0.493 OA
ATOM     14  C   UNL     1      89.684  94.508  77.418  1.00  0.00     0.278 C 
ENDBRANCH   8  13
BRANCH  10  15
ATOM     15  O   UNL     1      93.030  93.679  79.341  1.00  0.00    -0.504 OA
ATOM     16  H   UNL     1      93.269  92.816  78.960  1.00  0.00     0.293 HD
ENDBRANCH  10  15
ENDBRANCH   6   7
ENDBRANCH   5   6
ENDBRANCH   3   5
ENDBRANCH   2   3
BRANCH   1  17
ATOM     17  C   UNL     1      91.321  99.885  71.337  1.00  0.00     0.027 C 
BRANCH  17  18
ATOM     18  C   UNL     1      90.024  99.077  71.444  1.00  0.00     0.004 C 
BRANCH  18  19
ATOM     19  C   UNL     1      89.713  98.248  70.194  1.00  0.00     0.000 C 
BRANCH  19  20
ATOM     20  C   UNL     1      88.764  98.997  69.257  1.00  0.00    -0.003 C 
ATOM     21  C   UNL     1      88.499  98.208  67.985  1.00  0.00     0.004 C 
ENDBRANCH  19  20
ENDBRANCH  18  19
ENDBRANCH  17  18
ENDBRANCH   1  17
TORSDOF 10
ENDMDL
MODEL 8
REMARK VINA RESULT:    -5.524      1.425      1.956
REMARK INTER + INTRA:          -9.625
REMARK INTER:                  -8.816
REMARK INTRA:                  -0.809
REMARK UNBOUND:                -1.033
REMARK SMILES CCCCC/C=C/C(=O)CCc1ccc(O)c(OC)c1
REMARK SMILES IDX 6 1 7 2 8 3 9 4 10 5 11 6 12 7 17 8 20 9 15 10 14 11 13 12
REMARK SMILES IDX 18 13 19 14 16 15 5 17 4 18 3 19 2 20 1 21
REMARK H PARENT 16 16
REMARK Flexibility Score: inf
ROOT
ATOM      1  C   UNL     1      92.664  96.449  76.929  1.00  0.00    -0.023 C 
ATOM      2  C   UNL     1      93.754  96.025  76.278  1.00  0.00     0.043 C 
ENDROOT
BRANCH   2   3
ATOM      3  C   UNL     1      94.921  96.935  76.115  1.00  0.00     0.155 C 
ATOM      4  O   UNL     1      95.685  96.844  75.156  1.00  0.00    -0.295 OA
BRANCH   3   5
ATOM      5  C   UNL     1      95.150  97.946  77.221  1.00  0.00     0.085 C 
BRANCH   5   6
ATOM      6  C   UNL     1      96.325  97.538  78.111  1.00  0.00     0.044 C 
BRANCH   6   7
ATOM      7  C   UNL     1      95.895  97.122  79.498  1.00  0.00    -0.044 A 
ATOM      8  C   UNL     1      95.760  97.574  81.851  1.00  0.00     0.160 A 
ATOM      9  C   UNL     1      96.158  97.959  80.570  1.00  0.00     0.054 A 
ATOM     10  C   UNL     1      95.105  96.358  82.042  1.00  0.00     0.157 A 
ATOM     11  C   UNL     1      94.848  95.526  80.952  1.00  0.00     0.050 A 
ATOM     12  C   UNL     1      95.246  95.911  79.672  1.00  0.00     0.008 A 
BRANCH   8  13
ATOM     13  O   UNL     1      96.017  98.396  82.907  1.00  0.00    -0.493 OA
ATOM     14  C   UNL     1      95.226  99.578  83.017  1.00  0.00     0.278 C 
ENDBRANCH   8  13
BRANCH  10  15
ATOM     15  O   UNL     1      94.711  95.972  83.288  1.00  0.00    -0.504 OA
ATOM     16  H   UNL     1      95.475  96.045  83.886  1.00  0.00     0.293 HD
ENDBRANCH  10  15
ENDBRANCH   6   7
ENDBRANCH   5   6
ENDBRANCH   3   5
ENDBRANCH   2   3
BRANCH   1  17
ATOM     17  C   UNL     1      91.447  95.594  77.135  1.00  0.00     0.027 C 
BRANCH  17  18
ATOM     18  C   UNL     1      91.476  94.813  78.454  1.00  0.00     0.004 C 
BRANCH  18  19
ATOM     19  C   UNL     1      90.650  93.524  78.422  1.00  0.00     0.000 C 
BRANCH  19  20
ATOM     20  C   UNL     1      89.387  93.699  77.578  1.00  0.00    -0.003 C 
ATOM     21  C   UNL     1      89.617  93.276  76.136  1.00  0.00     0.004 C 
ENDBRANCH  19  20
ENDBRANCH  18  19
ENDBRANCH  17  18
ENDBRANCH   1  17
TORSDOF 10
ENDMDL
MODEL 9
REMARK VINA RESULT:    -5.423      4.439      5.549
REMARK INTER + INTRA:          -9.467
REMARK INTER:                  -8.931
REMARK INTRA:                  -0.536
REMARK UNBOUND:                -1.033
REMARK SMILES CCCCC/C=C/C(=O)CCc1ccc(O)c(OC)c1
REMARK SMILES IDX 6 1 7 2 8 3 9 4 10 5 11 6 12 7 17 8 20 9 15 10 14 11 13 12
REMARK SMILES IDX 18 13 19 14 16 15 5 17 4 18 3 19 2 20 1 21
REMARK H PARENT 16 16
REMARK Flexibility Score: inf
ROOT
ATOM      1  C   UNL     1      91.867 100.201  72.869  1.00  0.00    -0.023 C 
ATOM      2  C   UNL     1      92.574  99.298  73.561  1.00  0.00     0.043 C 
ENDROOT
BRANCH   2   3
ATOM      3  C   UNL     1      93.103  99.645  74.908  1.00  0.00     0.155 C 
ATOM      4  O   UNL     1      93.176 100.809  75.297  1.00  0.00    -0.295 OA
BRANCH   3   5
ATOM      5  C   UNL     1      93.599  98.491  75.757  1.00  0.00     0.085 C 
BRANCH   5   6
ATOM      6  C   UNL     1      92.634  97.305  75.701  1.00  0.00     0.044 C 
BRANCH   6   7
ATOM      7  C   UNL     1      92.801  96.357  76.865  1.00  0.00    -0.044 A 
ATOM      8  C   UNL     1      94.208  95.313  78.504  1.00  0.00     0.160 A 
ATOM      9  C   UNL     1      94.055  96.189  77.429  1.00  0.00     0.054 A 
ATOM     10  C   UNL     1      93.106  94.616  79.000  1.00  0.00     0.157 A 
ATOM     11  C   UNL     1      91.850  94.796  78.420  1.00  0.00     0.050 A 
ATOM     12  C   UNL     1      91.697  95.672  77.345  1.00  0.00     0.008 A 
BRANCH   8  13
ATOM     13  O   UNL     1      95.440  95.146  79.062  1.00  0.00    -0.493 OA
ATOM     14  C   UNL     1      96.184  96.326  79.355  1.00  0.00     0.278 C 
ENDBRANCH   8  13
BRANCH  10  15
ATOM     15  O   UNL     1      93.243  93.759  80.049  1.00  0.00    -0.504 OA
ATOM     16  H   UNL     1      94.105  93.924  80.468  1.00  0.00     0.293 HD
ENDBRANCH  10  15
ENDBRANCH   6   7
ENDBRANCH   5   6
ENDBRANCH   3   5
ENDBRANCH   2   3
BRANCH   1  17
ATOM     17  C   UNL     1      91.300  99.929  71.506  1.00  0.00     0.027 C 
BRANCH  17  18
ATOM     18  C   UNL     1      90.109  98.966  71.532  1.00  0.00     0.004 C 
BRANCH  18  19
ATOM     19  C   UNL     1      89.856  98.267  70.192  1.00  0.00     0.000 C 
BRANCH  19  20
ATOM     20  C   UNL     1      88.780  98.994  69.385  1.00  0.00    -0.003 C 
ATOM     21  C   UNL     1      88.563  98.340  68.030  1.00  0.00     0.004 C 
ENDBRANCH  19  20
ENDBRANCH  18  19
ENDBRANCH  17  18
ENDBRANCH   1  17
TORSDOF 10
ENDMDL
MODEL 10
REMARK VINA RESULT:    -5.318     20.790     22.367
REMARK INTER + INTRA:          -9.304
REMARK INTER:                  -7.332
REMARK INTRA:                  -1.973
REMARK UNBOUND:                -1.033
REMARK SMILES CCCCC/C=C/C(=O)CCc1ccc(O)c(OC)c1
REMARK SMILES IDX 6 1 7 2 8 3 9 4 10 5 11 6 12 7 17 8 20 9 15 10 14 11 13 12
REMARK SMILES IDX 18 13 19 14 16 15 5 17 4 18 3 19 2 20 1 21
REMARK H PARENT 16 16
REMARK Flexibility Score: inf
ROOT
ATOM      1  C   UNL     1      77.346  87.139  66.653  1.00  0.00    -0.023 C 
ATOM      2  C   UNL     1      77.021  86.043  67.350  1.00  0.00     0.043 C 
ENDROOT
BRANCH   2   3
ATOM      3  C   UNL     1      77.833  85.649  68.534  1.00  0.00     0.155 C 
ATOM      4  O   UNL     1      78.752  84.837  68.449  1.00  0.00    -0.295 OA
BRANCH   3   5
ATOM      5  C   UNL     1      77.432  86.261  69.862  1.00  0.00     0.085 C 
BRANCH   5   6
ATOM      6  C   UNL     1      75.912  86.290  70.024  1.00  0.00     0.044 C 
BRANCH   6   7
ATOM      7  C   UNL     1      75.396  87.632  70.486  1.00  0.00    -0.044 A 
ATOM      8  C   UNL     1      73.713  88.940  71.589  1.00  0.00     0.160 A 
ATOM      9  C   UNL     1      74.189  87.700  71.163  1.00  0.00     0.054 A 
ATOM     10  C   UNL     1      74.450  90.096  71.332  1.00  0.00     0.157 A 
ATOM     11  C   UNL     1      75.664  90.012  70.649  1.00  0.00     0.050 A 
ATOM     12  C   UNL     1      76.139  88.771  70.223  1.00  0.00     0.008 A 
BRANCH   8  13
ATOM     13  O   UNL     1      72.526  89.009  72.255  1.00  0.00    -0.493 OA
ATOM     14  C   UNL     1      71.343  88.753  71.500  1.00  0.00     0.278 C 
ENDBRANCH   8  13
BRANCH  10  15
ATOM     15  O   UNL     1      73.996  91.312  71.744  1.00  0.00    -0.504 OA
ATOM     16  H   UNL     1      73.234  91.171  72.331  1.00  0.00     0.293 HD
ENDBRANCH  10  15
ENDBRANCH   6   7
ENDBRANCH   5   6
ENDBRANCH   3   5
ENDBRANCH   2   3
BRANCH   1  17
ATOM     17  C   UNL     1      76.580  87.602  65.449  1.00  0.00     0.027 C 
BRANCH  17  18
ATOM     18  C   UNL     1      75.246  88.267  65.804  1.00  0.00     0.004 C 
BRANCH  18  19
ATOM     19  C   UNL     1      75.359  89.316  66.915  1.00  0.00     0.000 C 
BRANCH  19  20
ATOM     20  C   UNL     1      73.979  89.818  67.343  1.00  0.00    -0.003 C 
ATOM     21  C   UNL     1      73.077  88.670  67.768  1.00  0.00     0.004 C 
ENDBRANCH  19  20
ENDBRANCH  18  19
ENDBRANCH  17  18
ENDBRANCH   1  17
TORSDOF 10
ENDMDL
