MODEL 1
REMARK VINA RESULT:    -7.214      0.000      0.000
REMARK INTER + INTRA:          -8.718
REMARK INTER:                  -8.479
REMARK INTRA:                  -0.239
REMARK UNBOUND:                -0.239
REMARK SMILES O=C(/C=C/C=C/c1ccc2c(c1)OCO2)N1CCCCC1
REMARK SMILES IDX 3 1 4 2 2 3 1 4 16 5 17 6 21 7 18 8 20 9 19 10 5 11 6 12
REMARK SMILES IDX 7 13 12 14 8 15 11 16 9 17 13 18 10 19 14 20 15 21
REMARK H PARENT
REMARK Flexibility Score: inf
ROOT
ATOM      1  C   UNL     1      98.573  83.300  85.379  1.00  0.00     0.071 C 
ATOM      2  C   UNL     1      98.089  82.451  84.474  1.00  0.00     0.006 C 
ENDROOT
BRANCH   1   3
ATOM      3  C   UNL     1      98.052  83.217  86.758  1.00  0.00     0.246 C 
ATOM      4  O   UNL     1      98.725  82.601  87.585  1.00  0.00    -0.270 OA
ATOM      5  N   UNL     1      96.833  83.836  87.030  1.00  0.00    -0.339 N 
ATOM      6  C   UNL     1      96.287  83.766  88.389  1.00  0.00     0.120 C 
ATOM      7  C   UNL     1      95.980  84.540  86.060  1.00  0.00     0.120 C 
ATOM      8  C   UNL     1      95.942  85.152  88.922  1.00  0.00     0.022 C 
ATOM      9  C   UNL     1      95.609  85.936  86.562  1.00  0.00     0.022 C 
ATOM     10  C   UNL     1      95.011  85.890  87.965  1.00  0.00     0.004 C 
ENDBRANCH   1   3
BRANCH   2  11
ATOM     11  C   UNL     1      98.537  82.455  83.098  1.00  0.00     0.001 C 
ATOM     12  C   UNL     1      97.910  83.145  82.132  1.00  0.00     0.008 C 
BRANCH  12  13
ATOM     13  C   UNL     1      98.318  83.178  80.717  1.00  0.00    -0.022 A 
ATOM     14  C   UNL     1      97.384  83.532  79.753  1.00  0.00     0.058 A 
ATOM     15  C   UNL     1      99.635  82.852  80.384  1.00  0.00     0.012 A 
ATOM     16  C   UNL     1      97.814  83.549  78.441  1.00  0.00     0.166 A 
ATOM     17  C   UNL     1     100.043  82.877  79.048  1.00  0.00     0.051 A 
ATOM     18  O   UNL     1      97.054  83.866  77.357  1.00  0.00    -0.454 OA
ATOM     19  C   UNL     1      99.107  83.230  78.098  1.00  0.00     0.165 A 
ATOM     20  C   UNL     1      98.016  83.711  76.293  1.00  0.00     0.468 C 
ATOM     21  O   UNL     1      99.321  83.308  76.756  1.00  0.00    -0.454 OA
ENDBRANCH  12  13
ENDBRANCH   2  11
TORSDOF 3
ENDMDL
MODEL 2
REMARK VINA RESULT:    -7.169      2.811      8.675
REMARK INTER + INTRA:          -8.665
REMARK INTER:                  -8.278
REMARK INTRA:                  -0.387
REMARK UNBOUND:                -0.239
REMARK SMILES O=C(/C=C/C=C/c1ccc2c(c1)OCO2)N1CCCCC1
REMARK SMILES IDX 3 1 4 2 2 3 1 4 16 5 17 6 21 7 18 8 20 9 19 10 5 11 6 12
REMARK SMILES IDX 7 13 12 14 8 15 11 16 9 17 13 18 10 19 14 20 15 21
REMARK H PARENT
REMARK Flexibility Score: inf
ROOT
ATOM      1  C   UNL     1      98.841  82.257  81.015  1.00  0.00     0.071 C 
ATOM      2  C   UNL     1      99.452  82.209  82.198  1.00  0.00     0.006 C 
ENDROOT
BRANCH   1   3
ATOM      3  C   UNL     1      99.634  81.941  79.810  1.00  0.00     0.246 C 
ATOM      4  O   UNL     1     100.499  81.071  79.911  1.00  0.00    -0.270 OA
ATOM      5  N   UNL     1      99.354  82.651  78.644  1.00  0.00    -0.339 N 
ATOM      6  C   UNL     1     100.128  82.363  77.433  1.00  0.00     0.120 C 
ATOM      7  C   UNL     1      98.362  83.726  78.498  1.00  0.00     0.120 C 
ATOM      8  C   UNL     1      99.217  82.062  76.248  1.00  0.00     0.022 C 
ATOM      9  C   UNL     1      97.430  83.462  77.315  1.00  0.00     0.022 C 
ATOM     10  C   UNL     1      98.210  83.187  76.033  1.00  0.00     0.004 C 
ENDBRANCH   1   3
BRANCH   2  11
ATOM     11  C   UNL     1      98.759  82.502  83.434  1.00  0.00     0.001 C 
ATOM     12  C   UNL     1      97.722  83.353  83.502  1.00  0.00     0.008 C 
BRANCH  12  13
ATOM     13  C   UNL     1      96.988  83.693  84.732  1.00  0.00    -0.022 A 
ATOM     14  C   UNL     1      96.863  85.027  85.097  1.00  0.00     0.058 A 
ATOM     15  C   UNL     1      96.438  82.663  85.499  1.00  0.00     0.012 A 
ATOM     16  C   UNL     1      96.166  85.295  86.258  1.00  0.00     0.166 A 
ATOM     17  C   UNL     1      95.737  82.964  86.670  1.00  0.00     0.051 A 
ATOM     18  O   UNL     1      95.937  86.530  86.783  1.00  0.00    -0.454 OA
ATOM     19  C   UNL     1      95.618  84.292  87.023  1.00  0.00     0.165 A 
ATOM     20  C   UNL     1      95.182  86.191  87.964  1.00  0.00     0.468 C 
ATOM     21  O   UNL     1      94.977  84.772  88.123  1.00  0.00    -0.454 OA
ENDBRANCH  12  13
ENDBRANCH   2  11
TORSDOF 3
ENDMDL
MODEL 3
REMARK VINA RESULT:    -6.976     25.219     27.493
REMARK INTER + INTRA:          -8.438
REMARK INTER:                  -8.054
REMARK INTRA:                  -0.384
REMARK UNBOUND:                -0.239
REMARK SMILES O=C(/C=C/C=C/c1ccc2c(c1)OCO2)N1CCCCC1
REMARK SMILES IDX 3 1 4 2 2 3 1 4 16 5 17 6 21 7 18 8 20 9 19 10 5 11 6 12
REMARK SMILES IDX 7 13 12 14 8 15 11 16 9 17 13 18 10 19 14 20 15 21
REMARK H PARENT
REMARK Flexibility Score: inf
ROOT
ATOM      1  C   UNL     1      76.751  85.807  68.202  1.00  0.00     0.071 C 
ATOM      2  C   UNL     1      77.495  86.650  68.916  1.00  0.00     0.006 C 
ENDROOT
BRANCH   1   3
ATOM      3  C   UNL     1      77.441  84.755  67.429  1.00  0.00     0.246 C 
ATOM      4  O   UNL     1      78.644  84.591  67.639  1.00  0.00    -0.270 OA
ATOM      5  N   UNL     1      76.688  84.022  66.513  1.00  0.00    -0.339 N 
ATOM      6  C   UNL     1      77.347  82.974  65.727  1.00  0.00     0.120 C 
ATOM      7  C   UNL     1      75.264  84.218  66.204  1.00  0.00     0.120 C 
ATOM      8  C   UNL     1      76.610  81.645  65.842  1.00  0.00     0.022 C 
ATOM      9  C   UNL     1      74.490  82.904  66.305  1.00  0.00     0.022 C 
ATOM     10  C   UNL     1      75.139  81.802  65.473  1.00  0.00     0.004 C 
ENDBRANCH   1   3
BRANCH   2  11
ATOM     11  C   UNL     1      76.910  87.713  69.704  1.00  0.00     0.001 C 
ATOM     12  C   UNL     1      75.604  87.755  70.013  1.00  0.00     0.008 C 
BRANCH  12  13
ATOM     13  C   UNL     1      74.956  88.816  70.803  1.00  0.00    -0.022 A 
ATOM     14  C   UNL     1      75.510  90.089  70.808  1.00  0.00     0.058 A 
ATOM     15  C   UNL     1      73.801  88.511  71.528  1.00  0.00     0.012 A 
ATOM     16  C   UNL     1      74.867  91.048  71.563  1.00  0.00     0.166 A 
ATOM     17  C   UNL     1      73.171  89.502  72.284  1.00  0.00     0.051 A 
ATOM     18  O   UNL     1      75.252  92.347  71.697  1.00  0.00    -0.454 OA
ATOM     19  C   UNL     1      73.729  90.763  72.281  1.00  0.00     0.165 A 
ATOM     20  C   UNL     1      74.227  92.847  72.581  1.00  0.00     0.468 C 
ATOM     21  O   UNL     1      73.258  91.847  72.955  1.00  0.00    -0.454 OA
ENDBRANCH  12  13
ENDBRANCH   2  11
TORSDOF 3
ENDMDL
MODEL 4
REMARK VINA RESULT:    -6.867     23.889     25.484
REMARK INTER + INTRA:          -8.310
REMARK INTER:                  -7.955
REMARK INTRA:                  -0.355
REMARK UNBOUND:                -0.239
REMARK SMILES O=C(/C=C/C=C/c1ccc2c(c1)OCO2)N1CCCCC1
REMARK SMILES IDX 3 1 4 2 2 3 1 4 16 5 17 6 21 7 18 8 20 9 19 10 5 11 6 12
REMARK SMILES IDX 7 13 12 14 8 15 11 16 9 17 13 18 10 19 14 20 15 21
REMARK H PARENT
REMARK Flexibility Score: inf
ROOT
ATOM      1  C   UNL     1      76.135  91.969  71.453  1.00  0.00     0.071 C 
ATOM      2  C   UNL     1      75.297  90.971  71.182  1.00  0.00     0.006 C 
ENDROOT
BRANCH   1   3
ATOM      3  C   UNL     1      75.601  93.154  72.153  1.00  0.00     0.246 C 
ATOM      4  O   UNL     1      74.567  93.657  71.712  1.00  0.00    -0.270 OA
ATOM      5  N   UNL     1      76.304  93.627  73.260  1.00  0.00    -0.339 N 
ATOM      6  C   UNL     1      75.801  94.806  73.972  1.00  0.00     0.120 C 
ATOM      7  C   UNL     1      77.564  93.082  73.787  1.00  0.00     0.120 C 
ATOM      8  C   UNL     1      75.657  94.534  75.466  1.00  0.00     0.022 C 
ATOM      9  C   UNL     1      77.460  92.799  75.286  1.00  0.00     0.022 C 
ATOM     10  C   UNL     1      76.965  94.020  76.057  1.00  0.00     0.004 C 
ENDBRANCH   1   3
BRANCH   2  11
ATOM     11  C   UNL     1      75.727  89.769  70.499  1.00  0.00     0.001 C 
ATOM     12  C   UNL     1      75.297  88.545  70.844  1.00  0.00     0.008 C 
BRANCH  12  13
ATOM     13  C   UNL     1      75.708  87.290  70.191  1.00  0.00    -0.022 A 
ATOM     14  C   UNL     1      76.988  87.191  69.663  1.00  0.00     0.058 A 
ATOM     15  C   UNL     1      74.797  86.234  70.120  1.00  0.00     0.012 A 
ATOM     16  C   UNL     1      77.326  85.997  69.061  1.00  0.00     0.166 A 
ATOM     17  C   UNL     1      75.165  85.035  69.504  1.00  0.00     0.051 A 
ATOM     18  O   UNL     1      78.525  85.704  68.485  1.00  0.00    -0.454 OA
ATOM     19  C   UNL     1      76.439  84.947  68.983  1.00  0.00     0.165 A 
ATOM     20  C   UNL     1      78.293  84.353  68.038  1.00  0.00     0.468 C 
ATOM     21  O   UNL     1      76.971  83.866  68.351  1.00  0.00    -0.454 OA
ENDBRANCH  12  13
ENDBRANCH   2  11
TORSDOF 3
ENDMDL
MODEL 5
REMARK VINA RESULT:    -6.846     24.522     25.686
REMARK INTER + INTRA:          -8.285
REMARK INTER:                  -7.938
REMARK INTRA:                  -0.347
REMARK UNBOUND:                -0.239
REMARK SMILES O=C(/C=C/C=C/c1ccc2c(c1)OCO2)N1CCCCC1
REMARK SMILES IDX 3 1 4 2 2 3 1 4 16 5 17 6 21 7 18 8 20 9 19 10 5 11 6 12
REMARK SMILES IDX 7 13 12 14 8 15 11 16 9 17 13 18 10 19 14 20 15 21
REMARK H PARENT
REMARK Flexibility Score: inf
ROOT
ATOM      1  C   UNL     1      75.393  90.343  70.657  1.00  0.00     0.071 C 
ATOM      2  C   UNL     1      75.435  89.025  70.839  1.00  0.00     0.006 C 
ENDROOT
BRANCH   1   3
ATOM      3  C   UNL     1      74.832  91.176  71.740  1.00  0.00     0.246 C 
ATOM      4  O   UNL     1      73.690  90.918  72.122  1.00  0.00    -0.270 OA
ATOM      5  N   UNL     1      75.629  92.198  72.253  1.00  0.00    -0.339 N 
ATOM      6  C   UNL     1      75.097  93.045  73.325  1.00  0.00     0.120 C 
ATOM      7  C   UNL     1      76.977  92.564  71.792  1.00  0.00     0.120 C 
ATOM      8  C   UNL     1      76.048  93.100  74.515  1.00  0.00     0.022 C 
ATOM      9  C   UNL     1      77.961  92.632  72.960  1.00  0.00     0.022 C 
ATOM     10  C   UNL     1      77.445  93.531  74.080  1.00  0.00     0.004 C 
ENDBRANCH   1   3
BRANCH   2  11
ATOM     11  C   UNL     1      75.966  88.127  69.835  1.00  0.00     0.001 C 
ATOM     12  C   UNL     1      76.005  86.794  70.000  1.00  0.00     0.008 C 
BRANCH  12  13
ATOM     13  C   UNL     1      76.541  85.837  69.017  1.00  0.00    -0.022 A 
ATOM     14  C   UNL     1      75.752  84.768  68.616  1.00  0.00     0.058 A 
ATOM     15  C   UNL     1      77.830  86.032  68.516  1.00  0.00     0.012 A 
ATOM     16  C   UNL     1      76.297  83.899  67.693  1.00  0.00     0.166 A 
ATOM     17  C   UNL     1      78.358  85.136  67.583  1.00  0.00     0.051 A 
ATOM     18  O   UNL     1      75.687  82.796  67.178  1.00  0.00    -0.454 OA
ATOM     19  C   UNL     1      77.566  84.078  67.190  1.00  0.00     0.165 A 
ATOM     20  C   UNL     1      76.714  82.302  66.295  1.00  0.00     0.468 C 
ATOM     21  O   UNL     1      77.909  83.110  66.297  1.00  0.00    -0.454 OA
ENDBRANCH  12  13
ENDBRANCH   2  11
TORSDOF 3
ENDMDL
MODEL 6
REMARK VINA RESULT:    -6.828      3.254      4.925
REMARK INTER + INTRA:          -8.264
REMARK INTER:                  -7.918
REMARK INTRA:                  -0.346
REMARK UNBOUND:                -0.239
REMARK SMILES O=C(/C=C/C=C/c1ccc2c(c1)OCO2)N1CCCCC1
REMARK SMILES IDX 3 1 4 2 2 3 1 4 16 5 17 6 21 7 18 8 20 9 19 10 5 11 6 12
REMARK SMILES IDX 7 13 12 14 8 15 11 16 9 17 13 18 10 19 14 20 15 21
REMARK H PARENT
REMARK Flexibility Score: inf
ROOT
ATOM      1  C   UNL     1      95.905  86.024  88.039  1.00  0.00     0.071 C 
ATOM      2  C   UNL     1      95.390  85.744  86.844  1.00  0.00     0.006 C 
ENDROOT
BRANCH   1   3
ATOM      3  C   UNL     1      95.033  86.680  89.034  1.00  0.00     0.246 C 
ATOM      4  O   UNL     1      94.089  86.028  89.481  1.00  0.00    -0.270 OA
ATOM      5  N   UNL     1      95.334  87.992  89.397  1.00  0.00    -0.339 N 
ATOM      6  C   UNL     1      94.483  88.672  90.378  1.00  0.00     0.120 C 
ATOM      7  C   UNL     1      96.423  88.816  88.853  1.00  0.00     0.120 C 
ATOM      8  C   UNL     1      95.307  89.252  91.523  1.00  0.00     0.022 C 
ATOM      9  C   UNL     1      97.272  89.421  89.971  1.00  0.00     0.022 C 
ATOM     10  C   UNL     1      96.414  90.159  90.994  1.00  0.00     0.004 C 
ENDBRANCH   1   3
BRANCH   2  11
ATOM     11  C   UNL     1      96.166  85.103  85.803  1.00  0.00     0.001 C 
ATOM     12  C   UNL     1      96.287  83.769  85.705  1.00  0.00     0.008 C 
BRANCH  12  13
ATOM     13  C   UNL     1      97.068  83.066  84.673  1.00  0.00    -0.022 A 
ATOM     14  C   UNL     1      97.427  83.746  83.517  1.00  0.00     0.058 A 
ATOM     15  C   UNL     1      97.428  81.733  84.887  1.00  0.00     0.012 A 
ATOM     16  C   UNL     1      98.159  83.045  82.581  1.00  0.00     0.166 A 
ATOM     17  C   UNL     1      98.169  81.048  83.922  1.00  0.00     0.051 A 
ATOM     18  O   UNL     1      98.603  83.530  81.389  1.00  0.00    -0.454 OA
ATOM     19  C   UNL     1      98.520  81.732  82.777  1.00  0.00     0.165 A 
ATOM     20  C   UNL     1      99.284  82.375  80.858  1.00  0.00     0.468 C 
ATOM     21  O   UNL     1      99.236  81.230  81.734  1.00  0.00    -0.454 OA
ENDBRANCH  12  13
ENDBRANCH   2  11
TORSDOF 3
ENDMDL
MODEL 7
REMARK VINA RESULT:    -6.622      5.388     11.095
REMARK INTER + INTRA:          -8.022
REMARK INTER:                  -7.685
REMARK INTRA:                  -0.337
REMARK UNBOUND:                -0.239
REMARK SMILES O=C(/C=C/C=C/c1ccc2c(c1)OCO2)N1CCCCC1
REMARK SMILES IDX 3 1 4 2 2 3 1 4 16 5 17 6 21 7 18 8 20 9 19 10 5 11 6 12
REMARK SMILES IDX 7 13 12 14 8 15 11 16 9 17 13 18 10 19 14 20 15 21
REMARK H PARENT
REMARK Flexibility Score: inf
ROOT
ATOM      1  C   UNL     1      95.767  85.603  87.793  1.00  0.00     0.071 C 
ATOM      2  C   UNL     1      96.123  86.371  88.821  1.00  0.00     0.006 C 
ENDROOT
BRANCH   1   3
ATOM      3  C   UNL     1      96.361  84.254  87.695  1.00  0.00     0.246 C 
ATOM      4  O   UNL     1      96.154  83.472  88.623  1.00  0.00    -0.270 OA
ATOM      5  N   UNL     1      97.119  83.959  86.563  1.00  0.00    -0.339 N 
ATOM      6  C   UNL     1      97.726  82.631  86.440  1.00  0.00     0.120 C 
ATOM      7  C   UNL     1      97.425  84.880  85.458  1.00  0.00     0.120 C 
ATOM      8  C   UNL     1      97.365  81.974  85.111  1.00  0.00     0.022 C 
ATOM      9  C   UNL     1      97.080  84.256  84.106  1.00  0.00     0.022 C 
ATOM     10  C   UNL     1      97.723  82.882  83.938  1.00  0.00     0.004 C 
ENDBRANCH   1   3
BRANCH   2  11
ATOM     11  C   UNL     1      95.596  87.706  89.003  1.00  0.00     0.001 C 
ATOM     12  C   UNL     1      95.093  88.136  90.171  1.00  0.00     0.008 C 
BRANCH  12  13
ATOM     13  C   UNL     1      94.537  89.479  90.408  1.00  0.00    -0.022 A 
ATOM     14  C   UNL     1      93.497  89.629  91.315  1.00  0.00     0.058 A 
ATOM     15  C   UNL     1      95.073  90.566  89.714  1.00  0.00     0.012 A 
ATOM     16  C   UNL     1      93.010  90.906  91.503  1.00  0.00     0.166 A 
ATOM     17  C   UNL     1      94.561  91.849  89.924  1.00  0.00     0.051 A 
ATOM     18  O   UNL     1      91.997  91.259  92.343  1.00  0.00    -0.454 OA
ATOM     19  C   UNL     1      93.527  91.987  90.827  1.00  0.00     0.165 A 
ATOM     20  C   UNL     1      91.937  92.682  92.118  1.00  0.00     0.468 C 
ATOM     21  O   UNL     1      92.905  93.151  91.157  1.00  0.00    -0.454 OA
ENDBRANCH  12  13
ENDBRANCH   2  11
TORSDOF 3
ENDMDL
MODEL 8
REMARK VINA RESULT:    -6.620      1.708      2.705
REMARK INTER + INTRA:          -8.020
REMARK INTER:                  -7.614
REMARK INTRA:                  -0.405
REMARK UNBOUND:                -0.239
REMARK SMILES O=C(/C=C/C=C/c1ccc2c(c1)OCO2)N1CCCCC1
REMARK SMILES IDX 3 1 4 2 2 3 1 4 16 5 17 6 21 7 18 8 20 9 19 10 5 11 6 12
REMARK SMILES IDX 7 13 12 14 8 15 11 16 9 17 13 18 10 19 14 20 15 21
REMARK H PARENT
REMARK Flexibility Score: inf
ROOT
ATOM      1  C   UNL     1      98.194  83.921  85.194  1.00  0.00     0.071 C 
ATOM      2  C   UNL     1      97.239  83.527  84.353  1.00  0.00     0.006 C 
ENDROOT
BRANCH   1   3
ATOM      3  C   UNL     1      97.917  83.846  86.642  1.00  0.00     0.246 C 
ATOM      4  O   UNL     1      97.093  84.635  87.106  1.00  0.00    -0.270 OA
ATOM      5  N   UNL     1      98.610  82.893  87.387  1.00  0.00    -0.339 N 
ATOM      6  C   UNL     1      98.361  82.799  88.829  1.00  0.00     0.120 C 
ATOM      7  C   UNL     1      99.632  81.967  86.878  1.00  0.00     0.120 C 
ATOM      8  C   UNL     1      98.011  81.374  89.242  1.00  0.00     0.022 C 
ATOM      9  C   UNL     1      99.318  80.524  87.275  1.00  0.00     0.022 C 
ATOM     10  C   UNL     1      99.082  80.392  88.777  1.00  0.00     0.004 C 
ENDBRANCH   1   3
BRANCH   2  11
ATOM     11  C   UNL     1      97.416  83.563  82.916  1.00  0.00     0.001 C 
ATOM     12  C   UNL     1      98.463  82.992  82.299  1.00  0.00     0.008 C 
BRANCH  12  13
ATOM     13  C   UNL     1      98.695  83.006  80.845  1.00  0.00    -0.022 A 
ATOM     14  C   UNL     1      97.691  83.467  80.004  1.00  0.00     0.058 A 
ATOM     15  C   UNL     1      99.922  82.555  80.350  1.00  0.00     0.012 A 
ATOM     16  C   UNL     1      97.956  83.461  78.650  1.00  0.00     0.166 A 
ATOM     17  C   UNL     1     100.163  82.560  78.975  1.00  0.00     0.051 A 
ATOM     18  O   UNL     1      97.106  83.870  77.669  1.00  0.00    -0.454 OA
ATOM     19  C   UNL     1      99.159  83.020  78.149  1.00  0.00     0.165 A 
ATOM     20  C   UNL     1      97.909  83.636  76.494  1.00  0.00     0.468 C 
ATOM     21  O   UNL     1      99.213  83.097  76.791  1.00  0.00    -0.454 OA
ENDBRANCH  12  13
ENDBRANCH   2  11
TORSDOF 3
ENDMDL
MODEL 9
REMARK VINA RESULT:    -6.611     24.721     26.493
REMARK INTER + INTRA:          -8.010
REMARK INTER:                  -7.645
REMARK INTRA:                  -0.365
REMARK UNBOUND:                -0.239
REMARK SMILES O=C(/C=C/C=C/c1ccc2c(c1)OCO2)N1CCCCC1
REMARK SMILES IDX 3 1 4 2 2 3 1 4 16 5 17 6 21 7 18 8 20 9 19 10 5 11 6 12
REMARK SMILES IDX 7 13 12 14 8 15 11 16 9 17 13 18 10 19 14 20 15 21
REMARK H PARENT
REMARK Flexibility Score: inf
ROOT
ATOM      1  C   UNL     1      76.062  87.804  70.079  1.00  0.00     0.071 C 
ATOM      2  C   UNL     1      75.037  88.651  70.142  1.00  0.00     0.006 C 
ENDROOT
BRANCH   1   3
ATOM      3  C   UNL     1      75.766  86.360  69.992  1.00  0.00     0.246 C 
ATOM      4  O   UNL     1      74.696  85.969  70.461  1.00  0.00    -0.270 OA
ATOM      5  N   UNL     1      76.717  85.536  69.392  1.00  0.00    -0.339 N 
ATOM      6  C   UNL     1      76.454  84.097  69.297  1.00  0.00     0.120 C 
ATOM      7  C   UNL     1      78.023  85.959  68.863  1.00  0.00     0.120 C 
ATOM      8  C   UNL     1      76.613  83.596  67.865  1.00  0.00     0.022 C 
ATOM      9  C   UNL     1      78.223  85.471  67.429  1.00  0.00     0.022 C 
ATOM     10  C   UNL     1      77.982  83.969  67.305  1.00  0.00     0.004 C 
ENDBRANCH   1   3
BRANCH   2  11
ATOM     11  C   UNL     1      75.227  90.083  70.229  1.00  0.00     0.001 C 
ATOM     12  C   UNL     1      75.914  90.666  71.225  1.00  0.00     0.008 C 
BRANCH  12  13
ATOM     13  C   UNL     1      76.130  92.116  71.366  1.00  0.00    -0.022 A 
ATOM     14  C   UNL     1      77.134  92.570  72.210  1.00  0.00     0.058 A 
ATOM     15  C   UNL     1      75.317  92.995  70.647  1.00  0.00     0.012 A 
ATOM     16  C   UNL     1      77.298  93.936  72.309  1.00  0.00     0.166 A 
ATOM     17  C   UNL     1      75.505  94.374  70.766  1.00  0.00     0.051 A 
ATOM     18  O   UNL     1      78.221  94.576  73.079  1.00  0.00    -0.454 OA
ATOM     19  C   UNL     1      76.505  94.815  71.606  1.00  0.00     0.165 A 
ATOM     20  C   UNL     1      77.920  95.954  72.782  1.00  0.00     0.468 C 
ATOM     21  O   UNL     1      76.832  96.113  71.848  1.00  0.00    -0.454 OA
ENDBRANCH  12  13
ENDBRANCH   2  11
TORSDOF 3
ENDMDL
MODEL 10
REMARK VINA RESULT:    -6.539     17.292     20.436
REMARK INTER + INTRA:          -7.925
REMARK INTER:                  -7.500
REMARK INTRA:                  -0.425
REMARK UNBOUND:                -0.239
REMARK SMILES O=C(/C=C/C=C/c1ccc2c(c1)OCO2)N1CCCCC1
REMARK SMILES IDX 3 1 4 2 2 3 1 4 16 5 17 6 21 7 18 8 20 9 19 10 5 11 6 12
REMARK SMILES IDX 7 13 12 14 8 15 11 16 9 17 13 18 10 19 14 20 15 21
REMARK H PARENT
REMARK Flexibility Score: inf
ROOT
ATOM      1  C   UNL     1      90.704 100.217  72.016  1.00  0.00     0.071 C 
ATOM      2  C   UNL     1      92.027 100.351  71.954  1.00  0.00     0.006 C 
ENDROOT
BRANCH   1   3
ATOM      3  C   UNL     1      89.926 100.426  70.778  1.00  0.00     0.246 C 
ATOM      4  O   UNL     1      89.886 101.568  70.317  1.00  0.00    -0.270 OA
ATOM      5  N   UNL     1      89.285  99.322  70.219  1.00  0.00    -0.339 N 
ATOM      6  C   UNL     1      88.500  99.500  68.994  1.00  0.00     0.120 C 
ATOM      7  C   UNL     1      89.272  97.956  70.764  1.00  0.00     0.120 C 
ATOM      8  C   UNL     1      88.925  98.512  67.912  1.00  0.00     0.022 C 
ATOM      9  C   UNL     1      89.689  96.934  69.707  1.00  0.00     0.022 C 
ATOM     10  C   UNL     1      88.868  97.078  68.429  1.00  0.00     0.004 C 
ENDBRANCH   1   3
BRANCH   2  11
ATOM     11  C   UNL     1      92.874 100.166  73.113  1.00  0.00     0.001 C 
ATOM     12  C   UNL     1      92.801  99.082  73.901  1.00  0.00     0.008 C 
BRANCH  12  13
ATOM     13  C   UNL     1      93.631  98.847  75.094  1.00  0.00    -0.022 A 
ATOM     14  C   UNL     1      93.618  97.594  75.691  1.00  0.00     0.058 A 
ATOM     15  C   UNL     1      94.411  99.893  75.593  1.00  0.00     0.012 A 
ATOM     16  C   UNL     1      94.412  97.422  76.806  1.00  0.00     0.166 A 
ATOM     17  C   UNL     1      95.206  99.692  76.724  1.00  0.00     0.051 A 
ATOM     18  O   UNL     1      94.535  96.276  77.529  1.00  0.00    -0.454 OA
ATOM     19  C   UNL     1      95.185  98.443  77.309  1.00  0.00     0.165 A 
ATOM     20  C   UNL     1      95.473  96.690  78.544  1.00  0.00     0.468 C 
ATOM     21  O   UNL     1      95.889  98.065  78.410  1.00  0.00    -0.454 OA
ENDBRANCH  12  13
ENDBRANCH   2  11
TORSDOF 3
ENDMDL
