MODEL 1
REMARK VINA RESULT:    -8.085      0.000      0.000
REMARK INTER + INTRA:          -9.885
REMARK INTER:                  -9.502
REMARK INTRA:                  -0.383
REMARK UNBOUND:                -0.383
REMARK SMILES O=C(/C=C/C=C/c1ccc2c(c1)OCO2)N1CCCCC1
REMARK SMILES IDX 3 1 4 2 2 3 1 4 16 5 17 6 21 7 18 8 20 9 19 10 5 11 6 12
REMARK SMILES IDX 7 13 12 14 8 15 11 16 9 17 13 18 10 19 14 20 15 21
REMARK H PARENT
REMARK Flexibility Score: inf
ROOT
ATOM      1  C   UNL     1      90.921  91.882  75.945  1.00  0.00     0.071 C 
ATOM      2  C   UNL     1      90.928  92.541  77.102  1.00  0.00     0.006 C 
ENDROOT
BRANCH   1   3
ATOM      3  C   UNL     1      89.666  91.225  75.527  1.00  0.00     0.246 C 
ATOM      4  O   UNL     1      88.751  91.172  76.350  1.00  0.00    -0.270 OA
ATOM      5  N   UNL     1      89.603  90.706  74.235  1.00  0.00    -0.339 N 
ATOM      6  C   UNL     1      88.372  90.043  73.794  1.00  0.00     0.120 C 
ATOM      7  C   UNL     1      90.688  90.711  73.243  1.00  0.00     0.120 C 
ATOM      8  C   UNL     1      87.863  90.630  72.482  1.00  0.00     0.022 C 
ATOM      9  C   UNL     1      90.216  91.289  71.909  1.00  0.00     0.022 C 
ATOM     10  C   UNL     1      88.950  90.597  71.411  1.00  0.00     0.004 C 
ENDBRANCH   1   3
BRANCH   2  11
ATOM     11  C   UNL     1      92.110  93.216  77.595  1.00  0.00     0.001 C 
ATOM     12  C   UNL     1      93.136  93.559  76.800  1.00  0.00     0.008 C 
BRANCH  12  13
ATOM     13  C   UNL     1      94.362  94.239  77.250  1.00  0.00    -0.022 A 
ATOM     14  C   UNL     1      94.672  94.247  78.603  1.00  0.00     0.058 A 
ATOM     15  C   UNL     1      95.181  94.857  76.302  1.00  0.00     0.012 A 
ATOM     16  C   UNL     1      95.832  94.895  78.976  1.00  0.00     0.166 A 
ATOM     17  C   UNL     1      96.349  95.506  76.707  1.00  0.00     0.051 A 
ATOM     18  O   UNL     1      96.306  95.014  80.246  1.00  0.00    -0.454 OA
ATOM     19  C   UNL     1      96.648  95.508  78.054  1.00  0.00     0.165 A 
ATOM     20  C   UNL     1      97.513  95.771  80.019  1.00  0.00     0.468 C 
ATOM     21  O   UNL     1      97.736  96.088  78.630  1.00  0.00    -0.454 OA
ENDBRANCH  12  13
ENDBRANCH   2  11
TORSDOF 3
ENDMDL
MODEL 2
REMARK VINA RESULT:    -7.869      2.760      9.164
REMARK INTER + INTRA:          -9.633
REMARK INTER:                  -9.251
REMARK INTRA:                  -0.382
REMARK UNBOUND:                -0.383
REMARK SMILES O=C(/C=C/C=C/c1ccc2c(c1)OCO2)N1CCCCC1
REMARK SMILES IDX 3 1 4 2 2 3 1 4 16 5 17 6 21 7 18 8 20 9 19 10 5 11 6 12
REMARK SMILES IDX 7 13 12 14 8 15 11 16 9 17 13 18 10 19 14 20 15 21
REMARK H PARENT
REMARK Flexibility Score: inf
ROOT
ATOM      1  C   UNL     1      94.732  94.349  76.450  1.00  0.00     0.071 C 
ATOM      2  C   UNL     1      93.814  94.938  75.687  1.00  0.00     0.006 C 
ENDROOT
BRANCH   1   3
ATOM      3  C   UNL     1      95.898  95.149  76.876  1.00  0.00     0.246 C 
ATOM      4  O   UNL     1      96.509  95.771  76.006  1.00  0.00    -0.270 OA
ATOM      5  N   UNL     1      96.232  95.142  78.229  1.00  0.00    -0.339 N 
ATOM      6  C   UNL     1      97.387  95.922  78.681  1.00  0.00     0.120 C 
ATOM      7  C   UNL     1      95.555  94.377  79.287  1.00  0.00     0.120 C 
ATOM      8  C   UNL     1      97.016  96.854  79.829  1.00  0.00     0.022 C 
ATOM      9  C   UNL     1      95.169  95.278  80.460  1.00  0.00     0.022 C 
ATOM     10  C   UNL     1      96.361  96.082  80.970  1.00  0.00     0.004 C 
ENDBRANCH   1   3
BRANCH   2  11
ATOM     11  C   UNL     1      92.637  94.236  75.220  1.00  0.00     0.001 C 
ATOM     12  C   UNL     1      92.674  92.968  74.778  1.00  0.00     0.008 C 
BRANCH  12  13
ATOM     13  C   UNL     1      91.511  92.211  74.285  1.00  0.00    -0.022 A 
ATOM     14  C   UNL     1      90.567  92.859  73.501  1.00  0.00     0.058 A 
ATOM     15  C   UNL     1      91.391  90.860  74.620  1.00  0.00     0.012 A 
ATOM     16  C   UNL     1      89.496  92.108  73.062  1.00  0.00     0.166 A 
ATOM     17  C   UNL     1      90.296  90.124  74.163  1.00  0.00     0.051 A 
ATOM     18  O   UNL     1      88.469  92.557  72.289  1.00  0.00    -0.454 OA
ATOM     19  C   UNL     1      89.363  90.776  73.385  1.00  0.00     0.165 A 
ATOM     20  C   UNL     1      87.677  91.359  72.161  1.00  0.00     0.468 C 
ATOM     21  O   UNL     1      88.238  90.225  72.854  1.00  0.00    -0.454 OA
ENDBRANCH  12  13
ENDBRANCH   2  11
TORSDOF 3
ENDMDL
MODEL 3
REMARK VINA RESULT:    -7.788      1.667      2.062
REMARK INTER + INTRA:          -9.537
REMARK INTER:                  -9.155
REMARK INTRA:                  -0.382
REMARK UNBOUND:                -0.383
REMARK SMILES O=C(/C=C/C=C/c1ccc2c(c1)OCO2)N1CCCCC1
REMARK SMILES IDX 3 1 4 2 2 3 1 4 16 5 17 6 21 7 18 8 20 9 19 10 5 11 6 12
REMARK SMILES IDX 7 13 12 14 8 15 11 16 9 17 13 18 10 19 14 20 15 21
REMARK H PARENT
REMARK Flexibility Score: inf
ROOT
ATOM      1  C   UNL     1      91.635  92.985  75.004  1.00  0.00     0.071 C 
ATOM      2  C   UNL     1      91.548  93.967  75.899  1.00  0.00     0.006 C 
ENDROOT
BRANCH   1   3
ATOM      3  C   UNL     1      90.380  92.423  74.465  1.00  0.00     0.246 C 
ATOM      4  O   UNL     1      89.809  93.055  73.575  1.00  0.00    -0.270 OA
ATOM      5  N   UNL     1      89.924  91.220  75.002  1.00  0.00    -0.339 N 
ATOM      6  C   UNL     1      88.678  90.640  74.491  1.00  0.00     0.120 C 
ATOM      7  C   UNL     1      90.553  90.461  76.093  1.00  0.00     0.120 C 
ATOM      8  C   UNL     1      88.874  89.190  74.060  1.00  0.00     0.022 C 
ATOM      9  C   UNL     1      90.763  88.999  75.701  1.00  0.00     0.022 C 
ATOM     10  C   UNL     1      89.474  88.361  75.191  1.00  0.00     0.004 C 
ENDBRANCH   1   3
BRANCH   2  11
ATOM     11  C   UNL     1      92.720  94.581  76.484  1.00  0.00     0.001 C 
ATOM     12  C   UNL     1      93.603  93.897  77.231  1.00  0.00     0.008 C 
BRANCH  12  13
ATOM     13  C   UNL     1      94.806  94.473  77.855  1.00  0.00    -0.022 A 
ATOM     14  C   UNL     1      95.026  94.269  79.211  1.00  0.00     0.058 A 
ATOM     15  C   UNL     1      95.693  95.209  77.066  1.00  0.00     0.012 A 
ATOM     16  C   UNL     1      96.167  94.828  79.750  1.00  0.00     0.166 A 
ATOM     17  C   UNL     1      96.840  95.763  77.638  1.00  0.00     0.051 A 
ATOM     18  O   UNL     1      96.559  94.743  81.051  1.00  0.00    -0.454 OA
ATOM     19  C   UNL     1      97.050  95.555  78.985  1.00  0.00     0.165 A 
ATOM     20  C   UNL     1      97.787  95.499  81.018  1.00  0.00     0.468 C 
ATOM     21  O   UNL     1      98.105  96.017  79.710  1.00  0.00    -0.454 OA
ENDBRANCH  12  13
ENDBRANCH   2  11
TORSDOF 3
ENDMDL
MODEL 4
REMARK VINA RESULT:    -7.134      4.347      8.100
REMARK INTER + INTRA:          -8.768
REMARK INTER:                  -8.401
REMARK INTRA:                  -0.367
REMARK UNBOUND:                -0.383
REMARK SMILES O=C(/C=C/C=C/c1ccc2c(c1)OCO2)N1CCCCC1
REMARK SMILES IDX 3 1 4 2 2 3 1 4 16 5 17 6 21 7 18 8 20 9 19 10 5 11 6 12
REMARK SMILES IDX 7 13 12 14 8 15 11 16 9 17 13 18 10 19 14 20 15 21
REMARK H PARENT
REMARK Flexibility Score: inf
ROOT
ATOM      1  C   UNL     1      94.281  96.688  74.313  1.00  0.00     0.071 C 
ATOM      2  C   UNL     1      94.709  95.721  75.122  1.00  0.00     0.006 C 
ENDROOT
BRANCH   1   3
ATOM      3  C   UNL     1      95.290  97.549  73.664  1.00  0.00     0.246 C 
ATOM      4  O   UNL     1      96.459  97.434  74.035  1.00  0.00    -0.270 OA
ATOM      5  N   UNL     1      94.852  98.436  72.681  1.00  0.00    -0.339 N 
ATOM      6  C   UNL     1      95.830  99.307  72.023  1.00  0.00     0.120 C 
ATOM      7  C   UNL     1      93.462  98.633  72.245  1.00  0.00     0.120 C 
ATOM      8  C   UNL     1      95.748  99.190  70.505  1.00  0.00     0.022 C 
ATOM      9  C   UNL     1      93.338  98.526  70.726  1.00  0.00     0.022 C 
ATOM     10  C   UNL     1      94.327  99.445  70.013  1.00  0.00     0.004 C 
ENDBRANCH   1   3
BRANCH   2  11
ATOM     11  C   UNL     1      93.797  94.827  75.803  1.00  0.00     0.001 C 
ATOM     12  C   UNL     1      93.240  93.763  75.203  1.00  0.00     0.008 C 
BRANCH  12  13
ATOM     13  C   UNL     1      92.301  92.827  75.846  1.00  0.00    -0.022 A 
ATOM     14  C   UNL     1      91.837  91.735  75.126  1.00  0.00     0.058 A 
ATOM     15  C   UNL     1      91.903  93.065  77.163  1.00  0.00     0.012 A 
ATOM     16  C   UNL     1      90.960  90.887  75.770  1.00  0.00     0.166 A 
ATOM     17  C   UNL     1      91.013  92.191  77.792  1.00  0.00     0.051 A 
ATOM     18  O   UNL     1      90.395  89.768  75.238  1.00  0.00    -0.454 OA
ATOM     19  C   UNL     1      90.559  91.109  77.068  1.00  0.00     0.165 A 
ATOM     20  C   UNL     1      89.594  89.311  76.347  1.00  0.00     0.468 C 
ATOM     21  O   UNL     1      89.693  90.157  77.511  1.00  0.00    -0.454 OA
ENDBRANCH  12  13
ENDBRANCH   2  11
TORSDOF 3
ENDMDL
MODEL 5
REMARK VINA RESULT:    -7.083      3.290      8.610
REMARK INTER + INTRA:          -8.708
REMARK INTER:                  -8.306
REMARK INTRA:                  -0.402
REMARK UNBOUND:                -0.383
REMARK SMILES O=C(/C=C/C=C/c1ccc2c(c1)OCO2)N1CCCCC1
REMARK SMILES IDX 3 1 4 2 2 3 1 4 16 5 17 6 21 7 18 8 20 9 19 10 5 11 6 12
REMARK SMILES IDX 7 13 12 14 8 15 11 16 9 17 13 18 10 19 14 20 15 21
REMARK H PARENT
REMARK Flexibility Score: inf
ROOT
ATOM      1  C   UNL     1      95.691  95.530  75.731  1.00  0.00     0.071 C 
ATOM      2  C   UNL     1      95.681  94.199  75.688  1.00  0.00     0.006 C 
ENDROOT
BRANCH   1   3
ATOM      3  C   UNL     1      96.998  96.214  75.782  1.00  0.00     0.246 C 
ATOM      4  O   UNL     1      97.563  96.280  76.874  1.00  0.00    -0.270 OA
ATOM      5  N   UNL     1      97.502  96.743  74.595  1.00  0.00    -0.339 N 
ATOM      6  C   UNL     1      98.795  97.433  74.616  1.00  0.00     0.120 C 
ATOM      7  C   UNL     1      96.836  96.723  73.284  1.00  0.00     0.120 C 
ATOM      8  C   UNL     1      99.746  96.866  73.567  1.00  0.00     0.022 C 
ATOM      9  C   UNL     1      97.760  96.164  72.203  1.00  0.00     0.022 C 
ATOM     10  C   UNL     1      99.106  96.883  72.182  1.00  0.00     0.004 C 
ENDBRANCH   1   3
BRANCH   2  11
ATOM     11  C   UNL     1      94.450  93.439  75.636  1.00  0.00     0.001 C 
ATOM     12  C   UNL     1      93.327  93.834  76.256  1.00  0.00     0.008 C 
BRANCH  12  13
ATOM     13  C   UNL     1      92.052  93.097  76.243  1.00  0.00    -0.022 A 
ATOM     14  C   UNL     1      91.831  92.146  75.255  1.00  0.00     0.058 A 
ATOM     15  C   UNL     1      91.098  93.375  77.225  1.00  0.00     0.012 A 
ATOM     16  C   UNL     1      90.622  91.482  75.285  1.00  0.00     0.166 A 
ATOM     17  C   UNL     1      89.882  92.688  77.231  1.00  0.00     0.051 A 
ATOM     18  O   UNL     1      90.217  90.522  74.409  1.00  0.00    -0.454 OA
ATOM     19  C   UNL     1      89.673  91.745  76.246  1.00  0.00     0.165 A 
ATOM     20  C   UNL     1      88.908  90.210  74.927  1.00  0.00     0.468 C 
ATOM     21  O   UNL     1      88.556  90.983  76.094  1.00  0.00    -0.454 OA
ENDBRANCH  12  13
ENDBRANCH   2  11
TORSDOF 3
ENDMDL
MODEL 6
REMARK VINA RESULT:    -6.957      3.146      9.124
REMARK INTER + INTRA:          -8.560
REMARK INTER:                  -8.167
REMARK INTRA:                  -0.392
REMARK UNBOUND:                -0.383
REMARK SMILES O=C(/C=C/C=C/c1ccc2c(c1)OCO2)N1CCCCC1
REMARK SMILES IDX 3 1 4 2 2 3 1 4 16 5 17 6 21 7 18 8 20 9 19 10 5 11 6 12
REMARK SMILES IDX 7 13 12 14 8 15 11 16 9 17 13 18 10 19 14 20 15 21
REMARK H PARENT
REMARK Flexibility Score: inf
ROOT
ATOM      1  C   UNL     1      95.589  95.598  75.870  1.00  0.00     0.071 C 
ATOM      2  C   UNL     1      95.497  94.346  75.425  1.00  0.00     0.006 C 
ENDROOT
BRANCH   1   3
ATOM      3  C   UNL     1      96.923  96.232  75.890  1.00  0.00     0.246 C 
ATOM      4  O   UNL     1      97.397  96.595  74.813  1.00  0.00    -0.270 OA
ATOM      5  N   UNL     1      97.557  96.372  77.123  1.00  0.00    -0.339 N 
ATOM      6  C   UNL     1      98.884  96.993  77.174  1.00  0.00     0.120 C 
ATOM      7  C   UNL     1      97.044  95.911  78.422  1.00  0.00     0.120 C 
ATOM      8  C   UNL     1      98.925  98.140  78.178  1.00  0.00     0.022 C 
ATOM      9  C   UNL     1      97.071  97.035  79.458  1.00  0.00     0.022 C 
ATOM     10  C   UNL     1      98.451  97.681  79.553  1.00  0.00     0.004 C 
ENDBRANCH   1   3
BRANCH   2  11
ATOM     11  C   UNL     1      94.235  93.641  75.368  1.00  0.00     0.001 C 
ATOM     12  C   UNL     1      93.387  93.583  76.408  1.00  0.00     0.008 C 
BRANCH  12  13
ATOM     13  C   UNL     1      92.096  92.875  76.406  1.00  0.00    -0.022 A 
ATOM     14  C   UNL     1      91.627  92.327  75.220  1.00  0.00     0.058 A 
ATOM     15  C   UNL     1      91.378  92.773  77.601  1.00  0.00     0.012 A 
ATOM     16  C   UNL     1      90.413  91.673  75.269  1.00  0.00     0.166 A 
ATOM     17  C   UNL     1      90.152  92.104  77.622  1.00  0.00     0.051 A 
ATOM     18  O   UNL     1      89.787  91.074  74.219  1.00  0.00    -0.454 OA
ATOM     19  C   UNL     1      89.695  91.564  76.438  1.00  0.00     0.165 A 
ATOM     20  C   UNL     1      88.594  90.576  74.859  1.00  0.00     0.468 C 
ATOM     21  O   UNL     1      88.529  90.883  76.267  1.00  0.00    -0.454 OA
ENDBRANCH  12  13
ENDBRANCH   2  11
TORSDOF 3
ENDMDL
MODEL 7
REMARK VINA RESULT:    -6.902     12.302     14.048
REMARK INTER + INTRA:          -8.496
REMARK INTER:                  -8.169
REMARK INTRA:                  -0.326
REMARK UNBOUND:                -0.383
REMARK SMILES O=C(/C=C/C=C/c1ccc2c(c1)OCO2)N1CCCCC1
REMARK SMILES IDX 3 1 4 2 2 3 1 4 16 5 17 6 21 7 18 8 20 9 19 10 5 11 6 12
REMARK SMILES IDX 7 13 12 14 8 15 11 16 9 17 13 18 10 19 14 20 15 21
REMARK H PARENT
REMARK Flexibility Score: inf
ROOT
ATOM      1  C   UNL     1      96.630  83.741  84.300  1.00  0.00     0.071 C 
ATOM      2  C   UNL     1      96.297  82.998  83.246  1.00  0.00     0.006 C 
ENDROOT
BRANCH   1   3
ATOM      3  C   UNL     1      95.978  83.446  85.591  1.00  0.00     0.246 C 
ATOM      4  O   UNL     1      96.170  82.335  86.086  1.00  0.00    -0.270 OA
ATOM      5  N   UNL     1      95.185  84.442  86.160  1.00  0.00    -0.339 N 
ATOM      6  C   UNL     1      94.520  84.177  87.440  1.00  0.00     0.120 C 
ATOM      7  C   UNL     1      94.897  85.761  85.579  1.00  0.00     0.120 C 
ATOM      8  C   UNL     1      94.825  85.266  88.463  1.00  0.00     0.022 C 
ATOM      9  C   UNL     1      95.188  86.882  86.577  1.00  0.00     0.022 C 
ATOM     10  C   UNL     1      94.484  86.646  87.911  1.00  0.00     0.004 C 
ENDBRANCH   1   3
BRANCH   2  11
ATOM     11  C   UNL     1      96.882  83.211  81.939  1.00  0.00     0.001 C 
ATOM     12  C   UNL     1      96.899  82.264  80.988  1.00  0.00     0.008 C 
BRANCH  12  13
ATOM     13  C   UNL     1      97.487  82.424  79.647  1.00  0.00    -0.022 A 
ATOM     14  C   UNL     1      96.644  82.546  78.550  1.00  0.00     0.058 A 
ATOM     15  C   UNL     1      98.877  82.448  79.516  1.00  0.00     0.012 A 
ATOM     16  C   UNL     1      97.242  82.694  77.315  1.00  0.00     0.166 A 
ATOM     17  C   UNL     1      99.456  82.599  78.253  1.00  0.00     0.051 A 
ATOM     18  O   UNL     1      96.594  82.827  76.126  1.00  0.00    -0.454 OA
ATOM     19  C   UNL     1      98.610  82.720  77.171  1.00  0.00     0.165 A 
ATOM     20  C   UNL     1      97.708  82.940  75.217  1.00  0.00     0.468 C 
ATOM     21  O   UNL     1      98.990  82.872  75.873  1.00  0.00    -0.454 OA
ENDBRANCH  12  13
ENDBRANCH   2  11
TORSDOF 3
ENDMDL
MODEL 8
REMARK VINA RESULT:    -6.901     21.794     25.485
REMARK INTER + INTRA:          -8.494
REMARK INTER:                  -8.170
REMARK INTRA:                  -0.324
REMARK UNBOUND:                -0.383
REMARK SMILES O=C(/C=C/C=C/c1ccc2c(c1)OCO2)N1CCCCC1
REMARK SMILES IDX 3 1 4 2 2 3 1 4 16 5 17 6 21 7 18 8 20 9 19 10 5 11 6 12
REMARK SMILES IDX 7 13 12 14 8 15 11 16 9 17 13 18 10 19 14 20 15 21
REMARK H PARENT
REMARK Flexibility Score: inf
ROOT
ATOM      1  C   UNL     1      83.992  68.910  71.945  1.00  0.00     0.071 C 
ATOM      2  C   UNL     1      85.269  69.044  71.594  1.00  0.00     0.006 C 
ENDROOT
BRANCH   1   3
ATOM      3  C   UNL     1      83.640  67.828  72.886  1.00  0.00     0.246 C 
ATOM      4  O   UNL     1      84.213  67.813  73.977  1.00  0.00    -0.270 OA
ATOM      5  N   UNL     1      82.690  66.894  72.477  1.00  0.00    -0.339 N 
ATOM      6  C   UNL     1      82.325  65.805  73.388  1.00  0.00     0.120 C 
ATOM      7  C   UNL     1      82.019  66.852  71.169  1.00  0.00     0.120 C 
ATOM      8  C   UNL     1      80.815  65.729  73.589  1.00  0.00     0.022 C 
ATOM      9  C   UNL     1      80.501  66.772  71.328  1.00  0.00     0.022 C 
ATOM     10  C   UNL     1      80.090  65.628  72.250  1.00  0.00     0.004 C 
ENDBRANCH   1   3
BRANCH   2  11
ATOM     11  C   UNL     1      85.711  70.074  70.677  1.00  0.00     0.001 C 
ATOM     12  C   UNL     1      86.921  70.059  70.096  1.00  0.00     0.008 C 
BRANCH  12  13
ATOM     13  C   UNL     1      87.423  71.083  69.164  1.00  0.00    -0.022 A 
ATOM     14  C   UNL     1      88.629  71.714  69.440  1.00  0.00     0.058 A 
ATOM     15  C   UNL     1      86.672  71.391  68.028  1.00  0.00     0.012 A 
ATOM     16  C   UNL     1      89.058  72.665  68.538  1.00  0.00     0.166 A 
ATOM     17  C   UNL     1      87.130  72.359  67.131  1.00  0.00     0.051 A 
ATOM     18  O   UNL     1      90.205  73.392  68.629  1.00  0.00    -0.454 OA
ATOM     19  C   UNL     1      88.328  72.980  67.414  1.00  0.00     0.165 A 
ATOM     20  C   UNL     1      90.116  74.199  67.437  1.00  0.00     0.468 C 
ATOM     21  O   UNL     1      88.928  73.942  66.661  1.00  0.00    -0.454 OA
ENDBRANCH  12  13
ENDBRANCH   2  11
TORSDOF 3
ENDMDL
MODEL 9
REMARK VINA RESULT:    -6.871     26.440     28.767
REMARK INTER + INTRA:          -8.460
REMARK INTER:                  -8.091
REMARK INTRA:                  -0.369
REMARK UNBOUND:                -0.383
REMARK SMILES O=C(/C=C/C=C/c1ccc2c(c1)OCO2)N1CCCCC1
REMARK SMILES IDX 3 1 4 2 2 3 1 4 16 5 17 6 21 7 18 8 20 9 19 10 5 11 6 12
REMARK SMILES IDX 7 13 12 14 8 15 11 16 9 17 13 18 10 19 14 20 15 21
REMARK H PARENT
REMARK Flexibility Score: inf
ROOT
ATOM      1  C   UNL     1      63.421  84.100  76.056  1.00  0.00     0.071 C 
ATOM      2  C   UNL     1      63.714  85.399  76.017  1.00  0.00     0.006 C 
ENDROOT
BRANCH   1   3
ATOM      3  C   UNL     1      62.823  83.487  74.853  1.00  0.00     0.246 C 
ATOM      4  O   UNL     1      61.969  84.135  74.248  1.00  0.00    -0.270 OA
ATOM      5  N   UNL     1      63.261  82.215  74.487  1.00  0.00    -0.339 N 
ATOM      6  C   UNL     1      62.682  81.578  73.300  1.00  0.00     0.120 C 
ATOM      7  C   UNL     1      64.244  81.393  75.208  1.00  0.00     0.120 C 
ATOM      8  C   UNL     1      63.766  81.110  72.335  1.00  0.00     0.022 C 
ATOM      9  C   UNL     1      65.347  80.901  74.272  1.00  0.00     0.022 C 
ATOM     10  C   UNL     1      64.773  80.207  73.040  1.00  0.00     0.004 C 
ENDBRANCH   1   3
BRANCH   2  11
ATOM     11  C   UNL     1      64.302  86.089  77.145  1.00  0.00     0.001 C 
ATOM     12  C   UNL     1      65.497  85.756  77.659  1.00  0.00     0.008 C 
BRANCH  12  13
ATOM     13  C   UNL     1      66.136  86.418  78.809  1.00  0.00    -0.022 A 
ATOM     14  C   UNL     1      66.143  87.804  78.872  1.00  0.00     0.058 A 
ATOM     15  C   UNL     1      66.718  85.631  79.806  1.00  0.00     0.012 A 
ATOM     16  C   UNL     1      66.754  88.378  79.968  1.00  0.00     0.166 A 
ATOM     17  C   UNL     1      67.329  86.238  80.905  1.00  0.00     0.051 A 
ATOM     18  O   UNL     1      66.866  89.713  80.211  1.00  0.00    -0.454 OA
ATOM     19  C   UNL     1      67.331  87.617  80.958  1.00  0.00     0.165 A 
ATOM     20  C   UNL     1      67.578  89.705  81.465  1.00  0.00     0.468 C 
ATOM     21  O   UNL     1      67.877  88.378  81.945  1.00  0.00    -0.454 OA
ENDBRANCH  12  13
ENDBRANCH   2  11
TORSDOF 3
ENDMDL
MODEL 10
REMARK VINA RESULT:    -6.593      2.229      3.513
REMARK INTER + INTRA:          -8.132
REMARK INTER:                  -7.776
REMARK INTRA:                  -0.356
REMARK UNBOUND:                -0.383
REMARK SMILES O=C(/C=C/C=C/c1ccc2c(c1)OCO2)N1CCCCC1
REMARK SMILES IDX 3 1 4 2 2 3 1 4 16 5 17 6 21 7 18 8 20 9 19 10 5 11 6 12
REMARK SMILES IDX 7 13 12 14 8 15 11 16 9 17 13 18 10 19 14 20 15 21
REMARK H PARENT
REMARK Flexibility Score: inf
ROOT
ATOM      1  C   UNL     1      92.210  94.240  75.577  1.00  0.00     0.071 C 
ATOM      2  C   UNL     1      93.447  93.785  75.764  1.00  0.00     0.006 C 
ENDROOT
BRANCH   1   3
ATOM      3  C   UNL     1      91.222  93.334  74.959  1.00  0.00     0.246 C 
ATOM      4  O   UNL     1      91.170  93.303  73.728  1.00  0.00    -0.270 OA
ATOM      5  N   UNL     1      90.413  92.580  75.807  1.00  0.00    -0.339 N 
ATOM      6  C   UNL     1      89.418  91.675  75.222  1.00  0.00     0.120 C 
ATOM      7  C   UNL     1      90.415  92.624  77.276  1.00  0.00     0.120 C 
ATOM      8  C   UNL     1      89.558  90.261  75.777  1.00  0.00     0.022 C 
ATOM      9  C   UNL     1      90.550  91.222  77.871  1.00  0.00     0.022 C 
ATOM     10  C   UNL     1      89.507  90.265  77.301  1.00  0.00     0.004 C 
ENDBRANCH   1   3
BRANCH   2  11
ATOM     11  C   UNL     1      94.485  94.598  76.362  1.00  0.00     0.001 C 
ATOM     12  C   UNL     1      94.964  94.373  77.596  1.00  0.00     0.008 C 
BRANCH  12  13
ATOM     13  C   UNL     1      96.011  95.172  78.254  1.00  0.00    -0.022 A 
ATOM     14  C   UNL     1      96.706  96.118  77.511  1.00  0.00     0.058 A 
ATOM     15  C   UNL     1      96.277  94.958  79.608  1.00  0.00     0.012 A 
ATOM     16  C   UNL     1      97.677  96.843  78.172  1.00  0.00     0.166 A 
ATOM     17  C   UNL     1      97.265  95.705  80.252  1.00  0.00     0.051 A 
ATOM     18  O   UNL     1      98.463  97.809  77.623  1.00  0.00    -0.454 OA
ATOM     19  C   UNL     1      97.949  96.642  79.506  1.00  0.00     0.165 A 
ATOM     20  C   UNL     1      99.261  98.193  78.761  1.00  0.00     0.468 C 
ATOM     21  O   UNL     1      98.940  97.457  79.960  1.00  0.00    -0.454 OA
ENDBRANCH  12  13
ENDBRANCH   2  11
TORSDOF 3
ENDMDL
