MODEL 1
REMARK VINA RESULT:    -6.298      0.000      0.000
REMARK INTER + INTRA:         -11.198
REMARK INTER:                 -10.164
REMARK INTRA:                  -1.034
REMARK UNBOUND:                -1.034
REMARK SMILES CCCCCCCCC(=O)NCc1ccc(O)c(OC)c1
REMARK SMILES IDX 7 1 6 2 5 3 4 4 3 5 2 6 1 7 8 8 9 9 10 10 11 11 12 13 13 14
REMARK SMILES IDX 21 15 14 16 18 17 15 18 16 19 19 20 20 21 17 22
REMARK H PARENT 11 12 17 23
REMARK Flexibility Score: inf
ROOT
ATOM      1  C   UNL     1      93.928  96.434  75.672  1.00  0.00     0.010 C 
ENDROOT
BRANCH   1   2
ATOM      2  C   UNL     1      94.038  95.191  76.602  1.00  0.00     0.001 C 
BRANCH   2   3
ATOM      3  C   UNL     1      92.653  94.533  76.870  1.00  0.00     0.000 C 
BRANCH   3   4
ATOM      4  C   UNL     1      91.863  95.188  78.038  1.00  0.00    -0.000 C 
BRANCH   4   5
ATOM      5  C   UNL     1      90.407  95.565  77.641  1.00  0.00    -0.000 C 
BRANCH   5   6
ATOM      6  C   UNL     1      89.480  94.325  77.531  1.00  0.00    -0.003 C 
ATOM      7  C   UNL     1      89.828  93.222  78.554  1.00  0.00     0.004 C 
ENDBRANCH   5   6
ENDBRANCH   4   5
ENDBRANCH   3   4
ENDBRANCH   2   3
ENDBRANCH   1   2
BRANCH   1   8
ATOM      8  C   UNL     1      95.251  97.240  75.540  1.00  0.00     0.100 C 
BRANCH   8   9
ATOM      9  C   UNL     1      95.422  98.186  76.669  1.00  0.00     0.220 C 
ATOM     10  O   UNL     1      94.773  99.259  76.649  1.00  0.00    -0.275 OA
ATOM     11  N   UNL     1      96.245  97.878  77.714  1.00  0.00    -0.352 N 
ATOM     12  H   UNL     1      96.783  97.033  77.587  1.00  0.00     0.163 HD
BRANCH  11  13
ATOM     13  C   UNL     1      96.384  98.636  78.920  1.00  0.00     0.151 C 
BRANCH  13  14
ATOM     14  C   UNL     1      95.942  97.912  80.141  1.00  0.00    -0.025 A 
ATOM     15  C   UNL     1      95.455  96.586  80.046  1.00  0.00     0.056 A 
ATOM     16  C   UNL     1      95.994  98.530  81.412  1.00  0.00     0.009 A 
ATOM     17  C   UNL     1      95.047  95.879  81.200  1.00  0.00     0.160 A 
ATOM     18  C   UNL     1      95.590  97.832  82.564  1.00  0.00     0.050 A 
ATOM     19  C   UNL     1      95.110  96.512  82.462  1.00  0.00     0.157 A 
BRANCH  17  20
ATOM     20  O   UNL     1      94.537  94.609  81.100  1.00  0.00    -0.493 OA
ATOM     21  C   UNL     1      95.167  93.799  80.093  1.00  0.00     0.278 C 
ENDBRANCH  17  20
BRANCH  19  22
ATOM     22  O   UNL     1      94.697  95.856  83.576  1.00  0.00    -0.504 OA
ATOM     23  H   UNL     1      94.664  96.469  84.315  1.00  0.00     0.293 HD
ENDBRANCH  19  22
ENDBRANCH  13  14
ENDBRANCH  11  13
ENDBRANCH   8   9
ENDBRANCH   1   8
TORSDOF 11
ENDMDL
MODEL 2
REMARK VINA RESULT:    -5.917      0.887      2.180
REMARK INTER + INTRA:         -10.582
REMARK INTER:                  -9.524
REMARK INTRA:                  -1.059
REMARK UNBOUND:                -1.034
REMARK SMILES CCCCCCCCC(=O)NCc1ccc(O)c(OC)c1
REMARK SMILES IDX 7 1 6 2 5 3 4 4 3 5 2 6 1 7 8 8 9 9 10 10 11 11 12 13 13 14
REMARK SMILES IDX 21 15 14 16 18 17 15 18 16 19 19 20 20 21 17 22
REMARK H PARENT 11 12 17 23
REMARK Flexibility Score: inf
ROOT
ATOM      1  C   UNL     1      94.102  96.244  75.633  1.00  0.00     0.010 C 
ENDROOT
BRANCH   1   2
ATOM      2  C   UNL     1      94.199  95.215  76.796  1.00  0.00     0.001 C 
BRANCH   2   3
ATOM      3  C   UNL     1      92.852  94.475  77.042  1.00  0.00     0.000 C 
BRANCH   3   4
ATOM      4  C   UNL     1      91.949  95.155  78.111  1.00  0.00    -0.000 C 
BRANCH   4   5
ATOM      5  C   UNL     1      90.598  95.655  77.524  1.00  0.00    -0.000 C 
BRANCH   5   6
ATOM      6  C   UNL     1      89.689  94.491  77.045  1.00  0.00    -0.003 C 
ATOM      7  C   UNL     1      89.191  93.602  78.206  1.00  0.00     0.004 C 
ENDBRANCH   5   6
ENDBRANCH   4   5
ENDBRANCH   3   4
ENDBRANCH   2   3
ENDBRANCH   1   2
BRANCH   1   8
ATOM      8  C   UNL     1      95.370  97.128  75.468  1.00  0.00     0.100 C 
BRANCH   8   9
ATOM      9  C   UNL     1      95.481  98.122  76.562  1.00  0.00     0.220 C 
ATOM     10  O   UNL     1      94.810  99.178  76.478  1.00  0.00    -0.275 OA
ATOM     11  N   UNL     1      96.274  97.874  77.646  1.00  0.00    -0.352 N 
ATOM     12  H   UNL     1      96.834  97.038  77.571  1.00  0.00     0.163 HD
BRANCH  11  13
ATOM     13  C   UNL     1      96.356  98.683  78.824  1.00  0.00     0.151 C 
BRANCH  13  14
ATOM     14  C   UNL     1      95.932  97.982  80.065  1.00  0.00    -0.025 A 
ATOM     15  C   UNL     1      96.230  98.535  81.334  1.00  0.00     0.056 A 
ATOM     16  C   UNL     1      95.231  96.755  80.004  1.00  0.00     0.009 A 
ATOM     17  C   UNL     1      95.818  97.889  82.522  1.00  0.00     0.160 A 
ATOM     18  C   UNL     1      94.817  96.108  81.182  1.00  0.00     0.050 A 
ATOM     19  C   UNL     1      95.115  96.666  82.440  1.00  0.00     0.157 A 
BRANCH  17  20
ATOM     20  O   UNL     1      96.145  98.406  83.750  1.00  0.00    -0.493 OA
ATOM     21  C   UNL     1      95.685  99.752  83.964  1.00  0.00     0.278 C 
ENDBRANCH  17  20
BRANCH  19  22
ATOM     22  O   UNL     1      94.735  96.020  83.572  1.00  0.00    -0.504 OA
ATOM     23  H   UNL     1      93.785  95.883  83.559  1.00  0.00     0.293 HD
ENDBRANCH  19  22
ENDBRANCH  13  14
ENDBRANCH  11  13
ENDBRANCH   8   9
ENDBRANCH   1   8
TORSDOF 11
ENDMDL
MODEL 3
REMARK VINA RESULT:    -5.564     22.257     25.563
REMARK INTER + INTRA:         -10.013
REMARK INTER:                  -8.852
REMARK INTRA:                  -1.161
REMARK UNBOUND:                -1.034
REMARK SMILES CCCCCCCCC(=O)NCc1ccc(O)c(OC)c1
REMARK SMILES IDX 7 1 6 2 5 3 4 4 3 5 2 6 1 7 8 8 9 9 10 10 11 11 12 13 13 14
REMARK SMILES IDX 21 15 14 16 18 17 15 18 16 19 19 20 20 21 17 22
REMARK H PARENT 11 12 17 23
REMARK Flexibility Score: inf
ROOT
ATOM      1  C   UNL     1      74.802  81.593  66.096  1.00  0.00     0.010 C 
ENDROOT
BRANCH   1   2
ATOM      2  C   UNL     1      74.283  83.052  66.245  1.00  0.00     0.001 C 
BRANCH   2   3
ATOM      3  C   UNL     1      72.973  83.297  65.439  1.00  0.00     0.000 C 
BRANCH   3   4
ATOM      4  C   UNL     1      73.181  83.327  63.899  1.00  0.00    -0.000 C 
BRANCH   4   5
ATOM      5  C   UNL     1      72.280  82.302  63.152  1.00  0.00    -0.000 C 
BRANCH   5   6
ATOM      6  C   UNL     1      71.928  81.069  64.027  1.00  0.00    -0.003 C 
ATOM      7  C   UNL     1      72.381  79.735  63.394  1.00  0.00     0.004 C 
ENDBRANCH   5   6
ENDBRANCH   4   5
ENDBRANCH   3   4
ENDBRANCH   2   3
ENDBRANCH   1   2
BRANCH   1   8
ATOM      8  C   UNL     1      75.862  81.413  64.974  1.00  0.00     0.100 C 
BRANCH   8   9
ATOM      9  C   UNL     1      76.824  82.541  64.955  1.00  0.00     0.220 C 
ATOM     10  O   UNL     1      76.842  83.291  63.949  1.00  0.00    -0.275 OA
ATOM     11  N   UNL     1      77.646  82.770  66.021  1.00  0.00    -0.352 N 
ATOM     12  H   UNL     1      77.611  82.058  66.736  1.00  0.00     0.163 HD
BRANCH  11  13
ATOM     13  C   UNL     1      78.511  83.899  66.182  1.00  0.00     0.151 C 
BRANCH  13  14
ATOM     14  C   UNL     1      78.042  84.875  67.202  1.00  0.00    -0.025 A 
ATOM     15  C   UNL     1      77.930  84.488  68.559  1.00  0.00     0.056 A 
ATOM     16  C   UNL     1      77.698  86.197  66.838  1.00  0.00     0.009 A 
ATOM     17  C   UNL     1      77.502  85.409  69.542  1.00  0.00     0.160 A 
ATOM     18  C   UNL     1      77.273  87.119  67.812  1.00  0.00     0.050 A 
ATOM     19  C   UNL     1      77.166  86.728  69.160  1.00  0.00     0.157 A 
BRANCH  17  20
ATOM     20  O   UNL     1      77.353  85.021  70.850  1.00  0.00    -0.493 OA
ATOM     21  C   UNL     1      76.185  84.220  71.097  1.00  0.00     0.278 C 
ENDBRANCH  17  20
BRANCH  19  22
ATOM     22  O   UNL     1      76.729  87.617  70.088  1.00  0.00    -0.504 OA
ATOM     23  H   UNL     1      77.370  88.326  70.180  1.00  0.00     0.293 HD
ENDBRANCH  19  22
ENDBRANCH  13  14
ENDBRANCH  11  13
ENDBRANCH   8   9
ENDBRANCH   1   8
TORSDOF 11
ENDMDL
MODEL 4
REMARK VINA RESULT:    -5.551      6.268      9.698
REMARK INTER + INTRA:          -9.992
REMARK INTER:                  -9.202
REMARK INTRA:                  -0.790
REMARK UNBOUND:                -1.034
REMARK SMILES CCCCCCCCC(=O)NCc1ccc(O)c(OC)c1
REMARK SMILES IDX 7 1 6 2 5 3 4 4 3 5 2 6 1 7 8 8 9 9 10 10 11 11 12 13 13 14
REMARK SMILES IDX 21 15 14 16 18 17 15 18 16 19 19 20 20 21 17 22
REMARK H PARENT 11 12 17 23
REMARK Flexibility Score: inf
ROOT
ATOM      1  C   UNL     1      92.934  98.938  75.184  1.00  0.00     0.010 C 
ENDROOT
BRANCH   1   2
ATOM      2  C   UNL     1      92.955  97.463  75.677  1.00  0.00     0.001 C 
BRANCH   2   3
ATOM      3  C   UNL     1      94.403  96.914  75.833  1.00  0.00     0.000 C 
BRANCH   3   4
ATOM      4  C   UNL     1      94.737  96.424  77.271  1.00  0.00    -0.000 C 
BRANCH   4   5
ATOM      5  C   UNL     1      94.396  94.923  77.488  1.00  0.00    -0.000 C 
BRANCH   5   6
ATOM      6  C   UNL     1      93.409  94.700  78.666  1.00  0.00    -0.003 C 
ATOM      7  C   UNL     1      91.950  95.052  78.301  1.00  0.00     0.004 C 
ENDBRANCH   5   6
ENDBRANCH   4   5
ENDBRANCH   3   4
ENDBRANCH   2   3
ENDBRANCH   1   2
BRANCH   1   8
ATOM      8  C   UNL     1      93.967  99.241  74.062  1.00  0.00     0.100 C 
BRANCH   8   9
ATOM      9  C   UNL     1      93.356 100.027  72.963  1.00  0.00     0.220 C 
ATOM     10  O   UNL     1      94.079 100.352  71.991  1.00  0.00    -0.275 OA
ATOM     11  N   UNL     1      92.032 100.360  73.002  1.00  0.00    -0.352 N 
ATOM     12  H   UNL     1      91.567 100.125  73.866  1.00  0.00     0.163 HD
BRANCH  11  13
ATOM     13  C   UNL     1      91.298 100.988  71.946  1.00  0.00     0.151 C 
BRANCH  13  14
ATOM     14  C   UNL     1      90.454 100.050  71.160  1.00  0.00    -0.025 A 
ATOM     15  C   UNL     1      89.768 100.503  70.007  1.00  0.00     0.056 A 
ATOM     16  C   UNL     1      90.317  98.697  71.546  1.00  0.00     0.009 A 
ATOM     17  C   UNL     1      88.977  99.619  69.240  1.00  0.00     0.160 A 
ATOM     18  C   UNL     1      89.532  97.811  70.787  1.00  0.00     0.050 A 
ATOM     19  C   UNL     1      88.855  98.269  69.639  1.00  0.00     0.157 A 
BRANCH  17  20
ATOM     20  O   UNL     1      88.279 100.070  68.147  1.00  0.00    -0.493 OA
ATOM     21  C   UNL     1      88.760 101.317  67.616  1.00  0.00     0.278 C 
ENDBRANCH  17  20
BRANCH  19  22
ATOM     22  O   UNL     1      88.078  97.413  68.928  1.00  0.00    -0.504 OA
ATOM     23  H   UNL     1      88.305  96.509  69.157  1.00  0.00     0.293 HD
ENDBRANCH  19  22
ENDBRANCH  13  14
ENDBRANCH  11  13
ENDBRANCH   8   9
ENDBRANCH   1   8
TORSDOF 11
ENDMDL
MODEL 5
REMARK VINA RESULT:    -5.470     23.251     26.808
REMARK INTER + INTRA:          -9.861
REMARK INTER:                  -8.789
REMARK INTRA:                  -1.072
REMARK UNBOUND:                -1.034
REMARK SMILES CCCCCCCCC(=O)NCc1ccc(O)c(OC)c1
REMARK SMILES IDX 7 1 6 2 5 3 4 4 3 5 2 6 1 7 8 8 9 9 10 10 11 11 12 13 13 14
REMARK SMILES IDX 21 15 14 16 18 17 15 18 16 19 19 20 20 21 17 22
REMARK H PARENT 11 12 17 23
REMARK Flexibility Score: inf
ROOT
ATOM      1  C   UNL     1      71.415  82.664  66.742  1.00  0.00     0.010 C 
ENDROOT
BRANCH   1   2
ATOM      2  C   UNL     1      69.987  82.489  67.334  1.00  0.00     0.001 C 
BRANCH   2   3
ATOM      3  C   UNL     1      69.605  83.647  68.303  1.00  0.00     0.000 C 
BRANCH   3   4
ATOM      4  C   UNL     1      69.652  83.249  69.805  1.00  0.00    -0.000 C 
BRANCH   4   5
ATOM      5  C   UNL     1      70.655  84.110  70.624  1.00  0.00    -0.000 C 
BRANCH   5   6
ATOM      6  C   UNL     1      71.116  85.378  69.857  1.00  0.00    -0.003 C 
ATOM      7  C   UNL     1      72.634  85.388  69.570  1.00  0.00     0.004 C 
ENDBRANCH   5   6
ENDBRANCH   4   5
ENDBRANCH   3   4
ENDBRANCH   2   3
ENDBRANCH   1   2
BRANCH   1   8
ATOM      8  C   UNL     1      71.648  81.881  65.419  1.00  0.00     0.100 C 
BRANCH   8   9
ATOM      9  C   UNL     1      73.043  81.386  65.324  1.00  0.00     0.220 C 
ATOM     10  O   UNL     1      73.311  80.530  64.447  1.00  0.00    -0.275 OA
ATOM     11  N   UNL     1      74.011  81.875  66.153  1.00  0.00    -0.352 N 
ATOM     12  H   UNL     1      73.670  82.493  66.875  1.00  0.00     0.163 HD
BRANCH  11  13
ATOM     13  C   UNL     1      75.410  81.585  66.067  1.00  0.00     0.151 C 
BRANCH  13  14
ATOM     14  C   UNL     1      76.276  82.597  66.728  1.00  0.00    -0.025 A 
ATOM     15  C   UNL     1      75.815  83.289  67.874  1.00  0.00     0.056 A 
ATOM     16  C   UNL     1      77.566  82.889  66.227  1.00  0.00     0.009 A 
ATOM     17  C   UNL     1      76.634  84.242  68.523  1.00  0.00     0.160 A 
ATOM     18  C   UNL     1      78.385  83.834  66.869  1.00  0.00     0.050 A 
ATOM     19  C   UNL     1      77.922  84.517  68.010  1.00  0.00     0.157 A 
BRANCH  17  20
ATOM     20  O   UNL     1      76.170  84.942  69.608  1.00  0.00    -0.493 OA
ATOM     21  C   UNL     1      76.301  84.245  70.859  1.00  0.00     0.278 C 
ENDBRANCH  17  20
BRANCH  19  22
ATOM     22  O   UNL     1      78.710  85.448  68.607  1.00  0.00    -0.504 OA
ATOM     23  H   UNL     1      79.572  85.066  68.791  1.00  0.00     0.293 HD
ENDBRANCH  19  22
ENDBRANCH  13  14
ENDBRANCH  11  13
ENDBRANCH   8   9
ENDBRANCH   1   8
TORSDOF 11
ENDMDL
MODEL 6
REMARK VINA RESULT:    -5.428     13.170     14.980
REMARK INTER + INTRA:          -9.794
REMARK INTER:                  -8.735
REMARK INTRA:                  -1.059
REMARK UNBOUND:                -1.034
REMARK SMILES CCCCCCCCC(=O)NCc1ccc(O)c(OC)c1
REMARK SMILES IDX 7 1 6 2 5 3 4 4 3 5 2 6 1 7 8 8 9 9 10 10 11 11 12 13 13 14
REMARK SMILES IDX 21 15 14 16 18 17 15 18 16 19 19 20 20 21 17 22
REMARK H PARENT 11 12 17 23
REMARK Flexibility Score: inf
ROOT
ATOM      1  C   UNL     1      98.200  83.280  79.873  1.00  0.00     0.010 C 
ENDROOT
BRANCH   1   2
ATOM      2  C   UNL     1      97.431  83.004  78.548  1.00  0.00     0.001 C 
BRANCH   2   3
ATOM      3  C   UNL     1      97.528  84.197  77.552  1.00  0.00     0.000 C 
BRANCH   3   4
ATOM      4  C   UNL     1      98.139  83.814  76.174  1.00  0.00    -0.000 C 
BRANCH   4   5
ATOM      5  C   UNL     1      99.059  82.563  76.252  1.00  0.00    -0.000 C 
BRANCH   5   6
ATOM      6  C   UNL     1     100.537  82.889  75.905  1.00  0.00    -0.003 C 
ATOM      7  C   UNL     1     101.341  83.396  77.122  1.00  0.00     0.004 C 
ENDBRANCH   5   6
ENDBRANCH   4   5
ENDBRANCH   3   4
ENDBRANCH   2   3
ENDBRANCH   1   2
BRANCH   1   8
ATOM      8  C   UNL     1      99.358  82.281  80.148  1.00  0.00     0.100 C 
BRANCH   8   9
ATOM      9  C   UNL     1      99.552  82.067  81.603  1.00  0.00     0.220 C 
ATOM     10  O   UNL     1     100.649  82.400  82.112  1.00  0.00    -0.275 OA
ATOM     11  N   UNL     1      98.547  81.547  82.368  1.00  0.00    -0.352 N 
ATOM     12  H   UNL     1      97.743  81.235  81.844  1.00  0.00     0.163 HD
BRANCH  11  13
ATOM     13  C   UNL     1      98.560  81.425  83.793  1.00  0.00     0.151 C 
BRANCH  13  14
ATOM     14  C   UNL     1      97.660  82.384  84.487  1.00  0.00    -0.025 A 
ATOM     15  C   UNL     1      96.770  81.929  85.490  1.00  0.00     0.056 A 
ATOM     16  C   UNL     1      97.671  83.760  84.159  1.00  0.00     0.009 A 
ATOM     17  C   UNL     1      95.921  82.831  86.170  1.00  0.00     0.160 A 
ATOM     18  C   UNL     1      96.830  84.663  84.833  1.00  0.00     0.050 A 
ATOM     19  C   UNL     1      95.949  84.203  85.831  1.00  0.00     0.157 A 
BRANCH  17  20
ATOM     20  O   UNL     1      95.029  82.382  87.111  1.00  0.00    -0.493 OA
ATOM     21  C   UNL     1      93.804  81.866  86.563  1.00  0.00     0.278 C 
ENDBRANCH  17  20
BRANCH  19  22
ATOM     22  O   UNL     1      95.121  85.078  86.456  1.00  0.00    -0.504 OA
ATOM     23  H   UNL     1      95.637  85.800  86.824  1.00  0.00     0.293 HD
ENDBRANCH  19  22
ENDBRANCH  13  14
ENDBRANCH  11  13
ENDBRANCH   8   9
ENDBRANCH   1   8
TORSDOF 11
ENDMDL
MODEL 7
REMARK VINA RESULT:    -5.380     22.109     25.657
REMARK INTER + INTRA:          -9.716
REMARK INTER:                  -8.603
REMARK INTRA:                  -1.114
REMARK UNBOUND:                -1.034
REMARK SMILES CCCCCCCCC(=O)NCc1ccc(O)c(OC)c1
REMARK SMILES IDX 7 1 6 2 5 3 4 4 3 5 2 6 1 7 8 8 9 9 10 10 11 11 12 13 13 14
REMARK SMILES IDX 21 15 14 16 18 17 15 18 16 19 19 20 20 21 17 22
REMARK H PARENT 11 12 17 23
REMARK Flexibility Score: inf
ROOT
ATOM      1  C   UNL     1      75.593  81.066  63.892  1.00  0.00     0.010 C 
ENDROOT
BRANCH   1   2
ATOM      2  C   UNL     1      74.148  80.544  63.642  1.00  0.00     0.001 C 
BRANCH   2   3
ATOM      3  C   UNL     1      73.252  81.605  62.938  1.00  0.00     0.000 C 
BRANCH   3   4
ATOM      4  C   UNL     1      71.989  81.999  63.753  1.00  0.00    -0.000 C 
BRANCH   4   5
ATOM      5  C   UNL     1      72.057  81.524  65.232  1.00  0.00    -0.000 C 
BRANCH   5   6
ATOM      6  C   UNL     1      71.692  82.649  66.238  1.00  0.00    -0.003 C 
ATOM      7  C   UNL     1      72.914  83.489  66.669  1.00  0.00     0.004 C 
ENDBRANCH   5   6
ENDBRANCH   4   5
ENDBRANCH   3   4
ENDBRANCH   2   3
ENDBRANCH   1   2
BRANCH   1   8
ATOM      8  C   UNL     1      75.831  81.590  65.336  1.00  0.00     0.100 C 
BRANCH   8   9
ATOM      9  C   UNL     1      76.829  82.686  65.354  1.00  0.00     0.220 C 
ATOM     10  O   UNL     1      76.860  83.480  64.383  1.00  0.00    -0.275 OA
ATOM     11  N   UNL     1      77.671  82.840  66.418  1.00  0.00    -0.352 N 
ATOM     12  H   UNL     1      77.621  82.098  67.101  1.00  0.00     0.163 HD
BRANCH  11  13
ATOM     13  C   UNL     1      78.574  83.932  66.618  1.00  0.00     0.151 C 
BRANCH  13  14
ATOM     14  C   UNL     1      78.033  85.008  67.491  1.00  0.00    -0.025 A 
ATOM     15  C   UNL     1      77.435  86.156  66.919  1.00  0.00     0.056 A 
ATOM     16  C   UNL     1      78.107  84.908  68.899  1.00  0.00     0.009 A 
ATOM     17  C   UNL     1      76.901  87.179  67.735  1.00  0.00     0.160 A 
ATOM     18  C   UNL     1      77.576  85.921  69.717  1.00  0.00     0.050 A 
ATOM     19  C   UNL     1      76.981  87.059  69.141  1.00  0.00     0.157 A 
BRANCH  17  20
ATOM     20  O   UNL     1      76.360  88.310  67.179  1.00  0.00    -0.493 OA
ATOM     21  C   UNL     1      75.325  88.054  66.212  1.00  0.00     0.278 C 
ENDBRANCH  17  20
BRANCH  19  22
ATOM     22  O   UNL     1      76.496  88.045  69.939  1.00  0.00    -0.504 OA
ATOM     23  H   UNL     1      75.615  88.291  69.645  1.00  0.00     0.293 HD
ENDBRANCH  19  22
ENDBRANCH  13  14
ENDBRANCH  11  13
ENDBRANCH   8   9
ENDBRANCH   1   8
TORSDOF 11
ENDMDL
MODEL 8
REMARK VINA RESULT:    -5.304     21.983     25.614
REMARK INTER + INTRA:          -9.593
REMARK INTER:                  -8.700
REMARK INTRA:                  -0.893
REMARK UNBOUND:                -1.034
REMARK SMILES CCCCCCCCC(=O)NCc1ccc(O)c(OC)c1
REMARK SMILES IDX 7 1 6 2 5 3 4 4 3 5 2 6 1 7 8 8 9 9 10 10 11 11 12 13 13 14
REMARK SMILES IDX 21 15 14 16 18 17 15 18 16 19 19 20 20 21 17 22
REMARK H PARENT 11 12 17 23
REMARK Flexibility Score: inf
ROOT
ATOM      1  C   UNL     1      74.996  81.470  66.222  1.00  0.00     0.010 C 
ENDROOT
BRANCH   1   2
ATOM      2  C   UNL     1      73.961  82.630  66.164  1.00  0.00     0.001 C 
BRANCH   2   3
ATOM      3  C   UNL     1      72.493  82.110  66.163  1.00  0.00     0.000 C 
BRANCH   3   4
ATOM      4  C   UNL     1      71.470  83.119  66.754  1.00  0.00    -0.000 C 
BRANCH   4   5
ATOM      5  C   UNL     1      70.272  82.418  67.457  1.00  0.00    -0.000 C 
BRANCH   5   6
ATOM      6  C   UNL     1      69.389  83.410  68.261  1.00  0.00    -0.003 C 
ATOM      7  C   UNL     1      69.225  83.003  69.742  1.00  0.00     0.004 C 
ENDBRANCH   5   6
ENDBRANCH   4   5
ENDBRANCH   3   4
ENDBRANCH   2   3
ENDBRANCH   1   2
BRANCH   1   8
ATOM      8  C   UNL     1      76.097  81.552  65.127  1.00  0.00     0.100 C 
BRANCH   8   9
ATOM      9  C   UNL     1      77.016  82.690  65.371  1.00  0.00     0.220 C 
ATOM     10  O   UNL     1      77.174  83.533  64.456  1.00  0.00    -0.275 OA
ATOM     11  N   UNL     1      77.650  82.825  66.573  1.00  0.00    -0.352 N 
ATOM     12  H   UNL     1      77.520  82.047  67.203  1.00  0.00     0.163 HD
BRANCH  11  13
ATOM     13  C   UNL     1      78.445  83.944  66.977  1.00  0.00     0.151 C 
BRANCH  13  14
ATOM     14  C   UNL     1      77.740  84.883  67.890  1.00  0.00    -0.025 A 
ATOM     15  C   UNL     1      76.490  84.528  68.451  1.00  0.00     0.056 A 
ATOM     16  C   UNL     1      78.298  86.143  68.209  1.00  0.00     0.009 A 
ATOM     17  C   UNL     1      75.816  85.404  69.334  1.00  0.00     0.160 A 
ATOM     18  C   UNL     1      77.634  87.017  69.087  1.00  0.00     0.050 A 
ATOM     19  C   UNL     1      76.392  86.656  69.644  1.00  0.00     0.157 A 
BRANCH  17  20
ATOM     20  O   UNL     1      74.585  85.075  69.843  1.00  0.00    -0.493 OA
ATOM     21  C   UNL     1      73.480  85.456  69.005  1.00  0.00     0.278 C 
ENDBRANCH  17  20
BRANCH  19  22
ATOM     22  O   UNL     1      75.745  87.519  70.469  1.00  0.00    -0.504 OA
ATOM     23  H   UNL     1      76.253  87.632  71.276  1.00  0.00     0.293 HD
ENDBRANCH  19  22
ENDBRANCH  13  14
ENDBRANCH  11  13
ENDBRANCH   8   9
ENDBRANCH   1   8
TORSDOF 11
ENDMDL
MODEL 9
REMARK VINA RESULT:    -5.204      3.927      5.572
REMARK INTER + INTRA:          -9.433
REMARK INTER:                  -8.822
REMARK INTRA:                  -0.611
REMARK UNBOUND:                -1.034
REMARK SMILES CCCCCCCCC(=O)NCc1ccc(O)c(OC)c1
REMARK SMILES IDX 7 1 6 2 5 3 4 4 3 5 2 6 1 7 8 8 9 9 10 10 11 11 12 13 13 14
REMARK SMILES IDX 21 15 14 16 18 17 15 18 16 19 19 20 20 21 17 22
REMARK H PARENT 11 12 17 23
REMARK Flexibility Score: inf
ROOT
ATOM      1  C   UNL     1      93.544  99.623  73.373  1.00  0.00     0.010 C 
ENDROOT
BRANCH   1   2
ATOM      2  C   UNL     1      92.620 100.509  72.489  1.00  0.00     0.001 C 
BRANCH   2   3
ATOM      3  C   UNL     1      91.202  99.889  72.312  1.00  0.00     0.000 C 
BRANCH   3   4
ATOM      4  C   UNL     1      90.549 100.199  70.935  1.00  0.00    -0.000 C 
BRANCH   4   5
ATOM      5  C   UNL     1      89.406  99.208  70.577  1.00  0.00    -0.000 C 
BRANCH   5   6
ATOM      6  C   UNL     1      89.910  97.983  69.768  1.00  0.00    -0.003 C 
ATOM      7  C   UNL     1      89.640  96.640  70.481  1.00  0.00     0.004 C 
ENDBRANCH   5   6
ENDBRANCH   4   5
ENDBRANCH   3   4
ENDBRANCH   2   3
ENDBRANCH   1   2
BRANCH   1   8
ATOM      8  C   UNL     1      93.329  99.819  74.900  1.00  0.00     0.100 C 
BRANCH   8   9
ATOM      9  C   UNL     1      94.151  98.868  75.687  1.00  0.00     0.220 C 
ATOM     10  O   UNL     1      94.798  99.309  76.667  1.00  0.00    -0.275 OA
ATOM     11  N   UNL     1      94.176  97.541  75.365  1.00  0.00    -0.352 N 
ATOM     12  H   UNL     1      93.691  97.309  74.510  1.00  0.00     0.163 HD
BRANCH  11  13
ATOM     13  C   UNL     1      94.812  96.508  76.125  1.00  0.00     0.151 C 
BRANCH  13  14
ATOM     14  C   UNL     1      93.869  95.687  76.930  1.00  0.00    -0.025 A 
ATOM     15  C   UNL     1      94.234  95.248  78.225  1.00  0.00     0.056 A 
ATOM     16  C   UNL     1      92.601  95.327  76.419  1.00  0.00     0.009 A 
ATOM     17  C   UNL     1      93.342  94.481  79.009  1.00  0.00     0.160 A 
ATOM     18  C   UNL     1      91.708  94.565  77.194  1.00  0.00     0.050 A 
ATOM     19  C   UNL     1      92.076  94.134  78.483  1.00  0.00     0.157 A 
BRANCH  17  20
ATOM     20  O   UNL     1      93.713  94.021  80.247  1.00  0.00    -0.493 OA
ATOM     21  C   UNL     1      95.041  93.471  80.296  1.00  0.00     0.278 C 
ENDBRANCH  17  20
BRANCH  19  22
ATOM     22  O   UNL     1      91.218  93.376  79.213  1.00  0.00    -0.504 OA
ATOM     23  H   UNL     1      91.704  92.671  79.647  1.00  0.00     0.293 HD
ENDBRANCH  19  22
ENDBRANCH  13  14
ENDBRANCH  11  13
ENDBRANCH   8   9
ENDBRANCH   1   8
TORSDOF 11
ENDMDL
MODEL 10
REMARK VINA RESULT:    -5.199     13.538     15.602
REMARK INTER + INTRA:          -9.425
REMARK INTER:                  -8.400
REMARK INTRA:                  -1.025
REMARK UNBOUND:                -1.034
REMARK SMILES CCCCCCCCC(=O)NCc1ccc(O)c(OC)c1
REMARK SMILES IDX 7 1 6 2 5 3 4 4 3 5 2 6 1 7 8 8 9 9 10 10 11 11 12 13 13 14
REMARK SMILES IDX 21 15 14 16 18 17 15 18 16 19 19 20 20 21 17 22
REMARK H PARENT 11 12 17 23
REMARK Flexibility Score: inf
ROOT
ATOM      1  C   UNL     1      97.853  82.490  83.331  1.00  0.00     0.010 C 
ENDROOT
BRANCH   1   2
ATOM      2  C   UNL     1      99.146  82.445  82.467  1.00  0.00     0.001 C 
BRANCH   2   3
ATOM      3  C   UNL     1      99.222  81.162  81.587  1.00  0.00     0.000 C 
BRANCH   3   4
ATOM      4  C   UNL     1      99.389  81.453  80.069  1.00  0.00    -0.000 C 
BRANCH   4   5
ATOM      5  C   UNL     1      99.447  82.974  79.752  1.00  0.00    -0.000 C 
BRANCH   5   6
ATOM      6  C   UNL     1      98.284  83.436  78.833  1.00  0.00    -0.003 C 
ATOM      7  C   UNL     1      96.935  83.539  79.579  1.00  0.00     0.004 C 
ENDBRANCH   5   6
ENDBRANCH   4   5
ENDBRANCH   3   4
ENDBRANCH   2   3
ENDBRANCH   1   2
BRANCH   1   8
ATOM      8  C   UNL     1      97.337  83.928  83.616  1.00  0.00     0.100 C 
BRANCH   8   9
ATOM      9  C   UNL     1      96.858  84.063  85.013  1.00  0.00     0.220 C 
ATOM     10  O   UNL     1      96.512  85.200  85.416  1.00  0.00    -0.275 OA
ATOM     11  N   UNL     1      96.771  82.969  85.825  1.00  0.00    -0.352 N 
ATOM     12  H   UNL     1      97.156  82.124  85.430  1.00  0.00     0.163 HD
BRANCH  11  13
ATOM     13  C   UNL     1      96.197  82.945  87.136  1.00  0.00     0.151 C 
BRANCH  13  14
ATOM     14  C   UNL     1      94.710  82.943  87.141  1.00  0.00    -0.025 A 
ATOM     15  C   UNL     1      93.997  81.868  86.557  1.00  0.00     0.056 A 
ATOM     16  C   UNL     1      93.984  84.009  87.721  1.00  0.00     0.009 A 
ATOM     17  C   UNL     1      92.584  81.844  86.570  1.00  0.00     0.160 A 
ATOM     18  C   UNL     1      92.578  83.990  87.737  1.00  0.00     0.050 A 
ATOM     19  C   UNL     1      91.875  82.916  87.158  1.00  0.00     0.157 A 
BRANCH  17  20
ATOM     20  O   UNL     1      91.894  80.823  85.967  1.00  0.00    -0.493 OA
ATOM     21  C   UNL     1      91.936  79.578  86.688  1.00  0.00     0.278 C 
ENDBRANCH  17  20
BRANCH  19  22
ATOM     22  O   UNL     1      90.517  82.921  87.154  1.00  0.00    -0.504 OA
ATOM     23  H   UNL     1      90.198  83.624  87.726  1.00  0.00     0.293 HD
ENDBRANCH  19  22
ENDBRANCH  13  14
ENDBRANCH  11  13
ENDBRANCH   8   9
ENDBRANCH   1   8
TORSDOF 11
ENDMDL
