MODEL 1
REMARK VINA RESULT:    -6.467      0.000      0.000
REMARK INTER + INTRA:         -11.389
REMARK INTER:                 -10.437
REMARK INTRA:                  -0.952
REMARK UNBOUND:                -0.952
REMARK SMILES COc1cc(CNC(=O)CCCCC/C=C/C(C)C)ccc1O
REMARK SMILES IDX 11 1 10 2 8 3 7 4 9 6 6 7 5 8 3 9 22 10 4 11 21 12 20 13
REMARK SMILES IDX 2 14 1 15 23 16 12 18 13 19 14 20 15 21 16 22 17 23 18 24
REMARK SMILES IDX 19 25
REMARK H PARENT 7 5 23 17
REMARK Flexibility Score: inf
ROOT
ATOM      1  C   UNL     1      93.679  98.093  73.821  1.00  0.00     0.010 C 
ENDROOT
BRANCH   1   2
ATOM      2  C   UNL     1      94.200  99.545  73.667  1.00  0.00     0.100 C 
BRANCH   2   3
ATOM      3  C   UNL     1      93.281 100.438  72.937  1.00  0.00     0.220 C 
ATOM      4  N   UNL     1      92.434  99.923  72.004  1.00  0.00    -0.352 N 
ATOM      5  H   UNL     1      92.555  98.936  71.824  1.00  0.00     0.163 HD
ATOM      6  O   UNL     1      93.278 101.657  73.230  1.00  0.00    -0.275 OA
BRANCH   4   7
ATOM      7  C   UNL     1      91.433 100.655  71.299  1.00  0.00     0.151 C 
BRANCH   7   8
ATOM      8  C   UNL     1      90.760  99.841  70.253  1.00  0.00    -0.025 A 
ATOM      9  C   UNL     1      89.799  99.632  67.999  1.00  0.00     0.160 A 
ATOM     10  C   UNL     1      89.427  98.300  68.282  1.00  0.00     0.157 A 
ATOM     11  C   UNL     1      90.453 100.395  68.988  1.00  0.00     0.056 A 
ATOM     12  C   UNL     1      89.742  97.734  69.530  1.00  0.00     0.050 A 
ATOM     13  C   UNL     1      90.413  98.495  70.505  1.00  0.00     0.009 A 
BRANCH   9  14
ATOM     14  O   UNL     1      89.576 100.165  66.756  1.00  0.00    -0.493 OA
ATOM     15  C   UNL     1      90.762 100.317  65.960  1.00  0.00     0.278 C 
ENDBRANCH   9  14
BRANCH  10  16
ATOM     16  O   UNL     1      88.771  97.542  67.368  1.00  0.00    -0.504 OA
ATOM     17  H   UNL     1      89.036  97.807  66.483  1.00  0.00     0.293 HD
ENDBRANCH  10  16
ENDBRANCH   7   8
ENDBRANCH   4   7
ENDBRANCH   2   3
ENDBRANCH   1   2
BRANCH   1  18
ATOM     18  C   UNL     1      94.782  97.062  73.470  1.00  0.00     0.001 C 
BRANCH  18  19
ATOM     19  C   UNL     1      94.743  95.785  74.346  1.00  0.00     0.004 C 
BRANCH  19  20
ATOM     20  C   UNL     1      95.106  96.100  75.825  1.00  0.00     0.027 C 
BRANCH  20  21
ATOM     21  C   UNL     1      94.155  95.569  76.786  1.00  0.00    -0.031 C 
ATOM     22  C   UNL     1      92.872  95.323  76.467  1.00  0.00    -0.028 C 
BRANCH  22  23
ATOM     23  C   UNL     1      91.893  94.785  77.408  1.00  0.00     0.005 C 
ATOM     24  C   UNL     1      90.472  94.819  76.784  1.00  0.00     0.012 C 
ATOM     25  C   UNL     1      92.306  93.356  77.854  1.00  0.00     0.012 C 
ENDBRANCH  22  23
ENDBRANCH  20  21
ENDBRANCH  19  20
ENDBRANCH  18  19
ENDBRANCH   1  18
TORSDOF 11
ENDMDL
MODEL 2
REMARK VINA RESULT:    -6.091     17.681     20.554
REMARK INTER + INTRA:         -10.781
REMARK INTER:                 -10.067
REMARK INTRA:                  -0.715
REMARK UNBOUND:                -0.952
REMARK SMILES COc1cc(CNC(=O)CCCCC/C=C/C(C)C)ccc1O
REMARK SMILES IDX 11 1 10 2 8 3 7 4 9 6 6 7 5 8 3 9 22 10 4 11 21 12 20 13
REMARK SMILES IDX 2 14 1 15 23 16 12 18 13 19 14 20 15 21 16 22 17 23 18 24
REMARK SMILES IDX 19 25
REMARK H PARENT 7 5 23 17
REMARK Flexibility Score: inf
ROOT
ATOM      1  C   UNL     1      97.074  81.485  80.843  1.00  0.00     0.010 C 
ENDROOT
BRANCH   1   2
ATOM      2  C   UNL     1      96.747  82.655  81.805  1.00  0.00     0.100 C 
BRANCH   2   3
ATOM      3  C   UNL     1      96.387  82.227  83.170  1.00  0.00     0.220 C 
ATOM      4  N   UNL     1      95.299  81.433  83.367  1.00  0.00    -0.352 N 
ATOM      5  H   UNL     1      94.756  81.248  82.535  1.00  0.00     0.163 HD
ATOM      6  O   UNL     1      97.127  82.579  84.119  1.00  0.00    -0.275 OA
BRANCH   4   7
ATOM      7  C   UNL     1      94.897  80.870  84.615  1.00  0.00     0.151 C 
BRANCH   7   8
ATOM      8  C   UNL     1      93.804  81.640  85.264  1.00  0.00    -0.025 A 
ATOM      9  C   UNL     1      93.056  83.488  86.704  1.00  0.00     0.160 A 
ATOM     10  C   UNL     1      91.717  83.071  86.542  1.00  0.00     0.157 A 
ATOM     11  C   UNL     1      94.089  82.765  86.072  1.00  0.00     0.056 A 
ATOM     12  C   UNL     1      91.421  81.963  85.726  1.00  0.00     0.050 A 
ATOM     13  C   UNL     1      92.456  81.259  85.083  1.00  0.00     0.009 A 
BRANCH   9  14
ATOM     14  O   UNL     1      93.348  84.616  87.424  1.00  0.00    -0.493 OA
ATOM     15  C   UNL     1      94.615  84.570  88.101  1.00  0.00     0.278 C 
ENDBRANCH   9  14
BRANCH  10  16
ATOM     16  O   UNL     1      90.697  83.721  87.155  1.00  0.00    -0.504 OA
ATOM     17  H   UNL     1      90.092  84.064  86.492  1.00  0.00     0.293 HD
ENDBRANCH  10  16
ENDBRANCH   7   8
ENDBRANCH   4   7
ENDBRANCH   2   3
ENDBRANCH   1   2
BRANCH   1  18
ATOM     18  C   UNL     1      97.639  82.008  79.498  1.00  0.00     0.001 C 
BRANCH  18  19
ATOM     19  C   UNL     1      96.840  81.531  78.258  1.00  0.00     0.004 C 
BRANCH  19  20
ATOM     20  C   UNL     1      95.900  82.649  77.725  1.00  0.00     0.027 C 
BRANCH  20  21
ATOM     21  C   UNL     1      95.947  82.813  76.282  1.00  0.00    -0.031 C 
ATOM     22  C   UNL     1      97.076  82.632  75.575  1.00  0.00    -0.028 C 
BRANCH  22  23
ATOM     23  C   UNL     1      97.155  82.784  74.124  1.00  0.00     0.005 C 
ATOM     24  C   UNL     1      98.531  83.377  73.719  1.00  0.00     0.012 C 
ATOM     25  C   UNL     1      96.869  81.427  73.426  1.00  0.00     0.012 C 
ENDBRANCH  22  23
ENDBRANCH  20  21
ENDBRANCH  19  20
ENDBRANCH  18  19
ENDBRANCH   1  18
TORSDOF 11
ENDMDL
MODEL 3
REMARK VINA RESULT:    -6.079     17.731     20.617
REMARK INTER + INTRA:         -10.763
REMARK INTER:                 -10.051
REMARK INTRA:                  -0.712
REMARK UNBOUND:                -0.952
REMARK SMILES COc1cc(CNC(=O)CCCCC/C=C/C(C)C)ccc1O
REMARK SMILES IDX 11 1 10 2 8 3 7 4 9 6 6 7 5 8 3 9 22 10 4 11 21 12 20 13
REMARK SMILES IDX 2 14 1 15 23 16 12 18 13 19 14 20 15 21 16 22 17 23 18 24
REMARK SMILES IDX 19 25
REMARK H PARENT 7 5 23 17
REMARK Flexibility Score: inf
ROOT
ATOM      1  C   UNL     1      97.053  81.461  80.961  1.00  0.00     0.010 C 
ENDROOT
BRANCH   1   2
ATOM      2  C   UNL     1      96.664  82.586  81.955  1.00  0.00     0.100 C 
BRANCH   2   3
ATOM      3  C   UNL     1      96.301  82.100  83.299  1.00  0.00     0.220 C 
ATOM      4  N   UNL     1      95.178  81.348  83.468  1.00  0.00    -0.352 N 
ATOM      5  H   UNL     1      94.617  81.236  82.634  1.00  0.00     0.163 HD
ATOM      6  O   UNL     1      97.068  82.363  84.255  1.00  0.00    -0.275 OA
BRANCH   4   7
ATOM      7  C   UNL     1      94.764  80.737  84.689  1.00  0.00     0.151 C 
BRANCH   7   8
ATOM      8  C   UNL     1      93.679  81.492  85.368  1.00  0.00    -0.025 A 
ATOM      9  C   UNL     1      91.287  81.914  85.752  1.00  0.00     0.160 A 
ATOM     10  C   UNL     1      91.615  82.974  86.626  1.00  0.00     0.157 A 
ATOM     11  C   UNL     1      92.320  81.188  85.124  1.00  0.00     0.056 A 
ATOM     12  C   UNL     1      92.964  83.274  86.889  1.00  0.00     0.050 A 
ATOM     13  C   UNL     1      93.989  82.532  86.273  1.00  0.00     0.009 A 
BRANCH   9  14
ATOM     14  O   UNL     1      89.979  81.557  85.557  1.00  0.00    -0.493 OA
ATOM     15  C   UNL     1      89.705  81.018  84.253  1.00  0.00     0.278 C 
ENDBRANCH   9  14
BRANCH  10  16
ATOM     16  O   UNL     1      90.651  83.715  87.228  1.00  0.00    -0.504 OA
ATOM     17  H   UNL     1      89.937  83.875  86.607  1.00  0.00     0.293 HD
ENDBRANCH  10  16
ENDBRANCH   7   8
ENDBRANCH   4   7
ENDBRANCH   2   3
ENDBRANCH   1   2
BRANCH   1  18
ATOM     18  C   UNL     1      97.710  82.044  79.685  1.00  0.00     0.001 C 
BRANCH  18  19
ATOM     19  C   UNL     1      97.088  81.517  78.367  1.00  0.00     0.004 C 
BRANCH  19  20
ATOM     20  C   UNL     1      95.994  82.482  77.831  1.00  0.00     0.027 C 
BRANCH  20  21
ATOM     21  C   UNL     1      95.988  82.613  76.384  1.00  0.00    -0.031 C 
ATOM     22  C   UNL     1      97.116  82.788  75.673  1.00  0.00    -0.028 C 
BRANCH  22  23
ATOM     23  C   UNL     1      97.144  82.918  74.219  1.00  0.00     0.005 C 
ATOM     24  C   UNL     1      98.532  83.432  73.751  1.00  0.00     0.012 C 
ATOM     25  C   UNL     1      96.760  81.569  73.552  1.00  0.00     0.012 C 
ENDBRANCH  22  23
ENDBRANCH  20  21
ENDBRANCH  19  20
ENDBRANCH  18  19
ENDBRANCH   1  18
TORSDOF 11
ENDMDL
MODEL 4
REMARK VINA RESULT:    -6.035     28.630     32.252
REMARK INTER + INTRA:         -10.691
REMARK INTER:                  -9.148
REMARK INTRA:                  -1.543
REMARK UNBOUND:                -0.952
REMARK SMILES COc1cc(CNC(=O)CCCCC/C=C/C(C)C)ccc1O
REMARK SMILES IDX 11 1 10 2 8 3 7 4 9 6 6 7 5 8 3 9 22 10 4 11 21 12 20 13
REMARK SMILES IDX 2 14 1 15 23 16 12 18 13 19 14 20 15 21 16 22 17 23 18 24
REMARK SMILES IDX 19 25
REMARK H PARENT 7 5 23 17
REMARK Flexibility Score: inf
ROOT
ATOM      1  C   UNL     1      81.036  66.157  76.546  1.00  0.00     0.010 C 
ENDROOT
BRANCH   1   2
ATOM      2  C   UNL     1      82.278  65.246  76.373  1.00  0.00     0.100 C 
BRANCH   2   3
ATOM      3  C   UNL     1      83.554  65.980  76.289  1.00  0.00     0.220 C 
ATOM      4  N   UNL     1      83.852  66.697  75.171  1.00  0.00    -0.352 N 
ATOM      5  H   UNL     1      83.178  66.610  74.422  1.00  0.00     0.163 HD
ATOM      6  O   UNL     1      84.322  65.956  77.281  1.00  0.00    -0.275 OA
BRANCH   4   7
ATOM      7  C   UNL     1      85.000  67.527  74.998  1.00  0.00     0.151 C 
BRANCH   7   8
ATOM      8  C   UNL     1      84.841  68.499  73.886  1.00  0.00    -0.025 A 
ATOM      9  C   UNL     1      85.158  70.755  72.959  1.00  0.00     0.160 A 
ATOM     10  C   UNL     1      84.486  70.365  71.781  1.00  0.00     0.157 A 
ATOM     11  C   UNL     1      85.323  69.824  74.005  1.00  0.00     0.056 A 
ATOM     12  C   UNL     1      84.017  69.045  71.645  1.00  0.00     0.050 A 
ATOM     13  C   UNL     1      84.203  68.116  72.685  1.00  0.00     0.009 A 
BRANCH   9  14
ATOM     14  O   UNL     1      85.695  72.011  73.067  1.00  0.00    -0.493 OA
ATOM     15  C   UNL     1      85.487  72.632  74.346  1.00  0.00     0.278 C 
ENDBRANCH   9  14
BRANCH  10  16
ATOM     16  O   UNL     1      84.282  71.238  70.763  1.00  0.00    -0.504 OA
ATOM     17  H   UNL     1      85.130  71.523  70.411  1.00  0.00     0.293 HD
ENDBRANCH  10  16
ENDBRANCH   7   8
ENDBRANCH   4   7
ENDBRANCH   2   3
ENDBRANCH   1   2
BRANCH   1  18
ATOM     18  C   UNL     1      79.852  65.660  75.676  1.00  0.00     0.001 C 
BRANCH  18  19
ATOM     19  C   UNL     1      80.283  65.108  74.294  1.00  0.00     0.004 C 
BRANCH  19  20
ATOM     20  C   UNL     1      80.622  66.258  73.305  1.00  0.00     0.027 C 
BRANCH  20  21
ATOM     21  C   UNL     1      81.362  65.821  72.133  1.00  0.00    -0.031 C 
ATOM     22  C   UNL     1      80.976  66.132  70.882  1.00  0.00    -0.028 C 
BRANCH  22  23
ATOM     23  C   UNL     1      81.701  65.714  69.685  1.00  0.00     0.005 C 
ATOM     24  C   UNL     1      81.359  66.649  68.495  1.00  0.00     0.012 C 
ATOM     25  C   UNL     1      83.226  65.658  69.972  1.00  0.00     0.012 C 
ENDBRANCH  22  23
ENDBRANCH  20  21
ENDBRANCH  19  20
ENDBRANCH  18  19
ENDBRANCH   1  18
TORSDOF 11
ENDMDL
MODEL 5
REMARK VINA RESULT:    -5.792     16.454     18.615
REMARK INTER + INTRA:         -10.299
REMARK INTER:                  -9.412
REMARK INTRA:                  -0.888
REMARK UNBOUND:                -0.952
REMARK SMILES COc1cc(CNC(=O)CCCCC/C=C/C(C)C)ccc1O
REMARK SMILES IDX 11 1 10 2 8 3 7 4 9 6 6 7 5 8 3 9 22 10 4 11 21 12 20 13
REMARK SMILES IDX 2 14 1 15 23 16 12 18 13 19 14 20 15 21 16 22 17 23 18 24
REMARK SMILES IDX 19 25
REMARK H PARENT 7 5 23 17
REMARK Flexibility Score: inf
ROOT
ATOM      1  C   UNL     1      97.045  81.206  77.705  1.00  0.00     0.010 C 
ENDROOT
BRANCH   1   2
ATOM      2  C   UNL     1      96.143  82.442  77.451  1.00  0.00     0.100 C 
BRANCH   2   3
ATOM      3  C   UNL     1      96.379  83.101  76.154  1.00  0.00     0.220 C 
ATOM      4  N   UNL     1      97.534  82.863  75.473  1.00  0.00    -0.352 N 
ATOM      5  H   UNL     1      98.201  82.284  75.964  1.00  0.00     0.163 HD
ATOM      6  O   UNL     1      95.480  83.841  75.689  1.00  0.00    -0.275 OA
BRANCH   4   7
ATOM      7  C   UNL     1      97.847  83.356  74.171  1.00  0.00     0.151 C 
BRANCH   7   8
ATOM      8  C   UNL     1      99.197  82.941  73.711  1.00  0.00    -0.025 A 
ATOM      9  C   UNL     1     101.326  81.778  74.112  1.00  0.00     0.160 A 
ATOM     10  C   UNL     1     101.793  82.197  72.846  1.00  0.00     0.157 A 
ATOM     11  C   UNL     1     100.038  82.160  74.537  1.00  0.00     0.056 A 
ATOM     12  C   UNL     1     100.958  82.960  72.009  1.00  0.00     0.050 A 
ATOM     13  C   UNL     1      99.666  83.320  72.433  1.00  0.00     0.009 A 
BRANCH   9  14
ATOM     14  O   UNL     1     102.096  80.962  74.898  1.00  0.00    -0.493 OA
ATOM     15  C   UNL     1     101.342  80.094  75.759  1.00  0.00     0.278 C 
ENDBRANCH   9  14
BRANCH  10  16
ATOM     16  O   UNL     1     103.036  81.875  72.411  1.00  0.00    -0.504 OA
ATOM     17  H   UNL     1     103.232  82.368  71.610  1.00  0.00     0.293 HD
ENDBRANCH  10  16
ENDBRANCH   7   8
ENDBRANCH   4   7
ENDBRANCH   2   3
ENDBRANCH   1   2
BRANCH   1  18
ATOM     18  C   UNL     1      98.310  81.594  78.512  1.00  0.00     0.001 C 
BRANCH  18  19
ATOM     19  C   UNL     1      98.745  80.522  79.543  1.00  0.00     0.004 C 
BRANCH  19  20
ATOM     20  C   UNL     1      97.556  80.090  80.447  1.00  0.00     0.027 C 
BRANCH  20  21
ATOM     21  C   UNL     1      97.447  80.856  81.676  1.00  0.00    -0.031 C 
ATOM     22  C   UNL     1      96.269  81.313  82.137  1.00  0.00    -0.028 C 
BRANCH  22  23
ATOM     23  C   UNL     1      96.126  82.081  83.371  1.00  0.00     0.005 C 
ATOM     24  C   UNL     1      96.236  83.600  83.075  1.00  0.00     0.012 C 
ATOM     25  C   UNL     1      94.794  81.714  84.081  1.00  0.00     0.012 C 
ENDBRANCH  22  23
ENDBRANCH  20  21
ENDBRANCH  19  20
ENDBRANCH  18  19
ENDBRANCH   1  18
TORSDOF 11
ENDMDL
MODEL 6
REMARK VINA RESULT:    -5.750     16.356     18.811
REMARK INTER + INTRA:         -10.232
REMARK INTER:                  -8.746
REMARK INTRA:                  -1.486
REMARK UNBOUND:                -0.952
REMARK SMILES COc1cc(CNC(=O)CCCCC/C=C/C(C)C)ccc1O
REMARK SMILES IDX 11 1 10 2 8 3 7 4 9 6 6 7 5 8 3 9 22 10 4 11 21 12 20 13
REMARK SMILES IDX 2 14 1 15 23 16 12 18 13 19 14 20 15 21 16 22 17 23 18 24
REMARK SMILES IDX 19 25
REMARK H PARENT 7 5 23 17
REMARK Flexibility Score: inf
ROOT
ATOM      1  C   UNL     1      96.682  81.683  77.924  1.00  0.00     0.010 C 
ENDROOT
BRANCH   1   2
ATOM      2  C   UNL     1      95.806  82.815  77.328  1.00  0.00     0.100 C 
BRANCH   2   3
ATOM      3  C   UNL     1      96.282  83.322  76.028  1.00  0.00     0.220 C 
ATOM      4  N   UNL     1      97.454  82.863  75.509  1.00  0.00    -0.352 N 
ATOM      5  H   UNL     1      97.966  82.236  76.115  1.00  0.00     0.163 HD
ATOM      6  O   UNL     1      95.564  84.143  75.409  1.00  0.00    -0.275 OA
BRANCH   4   7
ATOM      7  C   UNL     1      97.980  83.195  74.225  1.00  0.00     0.151 C 
BRANCH   7   8
ATOM      8  C   UNL     1      98.077  82.016  73.325  1.00  0.00    -0.025 A 
ATOM      9  C   UNL     1      99.297  80.720  71.627  1.00  0.00     0.160 A 
ATOM     10  C   UNL     1      98.233  79.794  71.572  1.00  0.00     0.157 A 
ATOM     11  C   UNL     1      99.207  81.827  72.495  1.00  0.00     0.056 A 
ATOM     12  C   UNL     1      97.112  79.962  72.405  1.00  0.00     0.050 A 
ATOM     13  C   UNL     1      97.039  81.059  73.283  1.00  0.00     0.009 A 
BRANCH   9  14
ATOM     14  O   UNL     1     100.430  80.518  70.885  1.00  0.00    -0.493 OA
ATOM     15  C   UNL     1     101.550  81.322  71.293  1.00  0.00     0.278 C 
ENDBRANCH   9  14
BRANCH  10  16
ATOM     16  O   UNL     1      98.267  78.731  70.730  1.00  0.00    -0.504 OA
ATOM     17  H   UNL     1      98.570  79.018  69.865  1.00  0.00     0.293 HD
ENDBRANCH  10  16
ENDBRANCH   7   8
ENDBRANCH   4   7
ENDBRANCH   2   3
ENDBRANCH   1   2
BRANCH   1  18
ATOM     18  C   UNL     1      97.115  82.015  79.375  1.00  0.00     0.001 C 
BRANCH  18  19
ATOM     19  C   UNL     1      98.291  81.146  79.888  1.00  0.00     0.004 C 
BRANCH  19  20
ATOM     20  C   UNL     1      98.599  79.976  78.913  1.00  0.00     0.027 C 
BRANCH  20  21
ATOM     21  C   UNL     1      99.853  80.129  78.195  1.00  0.00    -0.031 C 
ATOM     22  C   UNL     1      99.930  80.038  76.855  1.00  0.00    -0.028 C 
BRANCH  22  23
ATOM     23  C   UNL     1     101.173  80.193  76.104  1.00  0.00     0.005 C 
ATOM     24  C   UNL     1     102.359  79.579  76.894  1.00  0.00     0.012 C 
ATOM     25  C   UNL     1     101.025  79.574  74.687  1.00  0.00     0.012 C 
ENDBRANCH  22  23
ENDBRANCH  20  21
ENDBRANCH  19  20
ENDBRANCH  18  19
ENDBRANCH   1  18
TORSDOF 11
ENDMDL
MODEL 7
REMARK VINA RESULT:    -5.646      4.358      9.776
REMARK INTER + INTRA:         -10.064
REMARK INTER:                  -9.098
REMARK INTRA:                  -0.966
REMARK UNBOUND:                -0.952
REMARK SMILES COc1cc(CNC(=O)CCCCC/C=C/C(C)C)ccc1O
REMARK SMILES IDX 11 1 10 2 8 3 7 4 9 6 6 7 5 8 3 9 22 10 4 11 21 12 20 13
REMARK SMILES IDX 2 14 1 15 23 16 12 18 13 19 14 20 15 21 16 22 17 23 18 24
REMARK SMILES IDX 19 25
REMARK H PARENT 7 5 23 17
REMARK Flexibility Score: inf
ROOT
ATOM      1  C   UNL     1      88.595  99.944  66.606  1.00  0.00     0.010 C 
ENDROOT
BRANCH   1   2
ATOM      2  C   UNL     1      89.111  98.483  66.669  1.00  0.00     0.100 C 
BRANCH   2   3
ATOM      3  C   UNL     1      89.673  98.101  67.977  1.00  0.00     0.220 C 
ATOM      4  N   UNL     1      89.482  98.906  69.059  1.00  0.00    -0.352 N 
ATOM      5  H   UNL     1      89.011  99.777  68.858  1.00  0.00     0.163 HD
ATOM      6  O   UNL     1      90.284  97.010  68.067  1.00  0.00    -0.275 OA
BRANCH   4   7
ATOM      7  C   UNL     1      89.886  98.610  70.395  1.00  0.00     0.151 C 
BRANCH   7   8
ATOM      8  C   UNL     1      90.630  99.729  71.029  1.00  0.00    -0.025 A 
ATOM      9  C   UNL     1      90.753 102.080  71.741  1.00  0.00     0.160 A 
ATOM     10  C   UNL     1      92.076 101.874  72.191  1.00  0.00     0.157 A 
ATOM     11  C   UNL     1      90.045 101.011  71.156  1.00  0.00     0.056 A 
ATOM     12  C   UNL     1      92.662 100.599  72.085  1.00  0.00     0.050 A 
ATOM     13  C   UNL     1      91.941  99.532  71.518  1.00  0.00     0.009 A 
BRANCH   9  14
ATOM     14  O   UNL     1      90.143 103.293  71.919  1.00  0.00    -0.493 OA
ATOM     15  C   UNL     1      89.660 103.892  70.705  1.00  0.00     0.278 C 
ENDBRANCH   9  14
BRANCH  10  16
ATOM     16  O   UNL     1      92.801 102.883  72.733  1.00  0.00    -0.504 OA
ATOM     17  H   UNL     1      93.602 103.013  72.219  1.00  0.00     0.293 HD
ENDBRANCH  10  16
ENDBRANCH   7   8
ENDBRANCH   4   7
ENDBRANCH   2   3
ENDBRANCH   1   2
BRANCH   1  18
ATOM     18  C   UNL     1      87.081  99.990  66.276  1.00  0.00     0.001 C 
BRANCH  18  19
ATOM     19  C   UNL     1      86.501 101.425  66.211  1.00  0.00     0.004 C 
BRANCH  19  20
ATOM     20  C   UNL     1      87.630 102.493  66.185  1.00  0.00     0.027 C 
BRANCH  20  21
ATOM     21  C   UNL     1      87.296 103.714  66.898  1.00  0.00    -0.031 C 
ATOM     22  C   UNL     1      86.095 104.308  66.783  1.00  0.00    -0.028 C 
BRANCH  22  23
ATOM     23  C   UNL     1      85.726 105.532  67.490  1.00  0.00     0.005 C 
ATOM     24  C   UNL     1      84.296 105.978  67.083  1.00  0.00     0.012 C 
ATOM     25  C   UNL     1      85.867 105.330  69.023  1.00  0.00     0.012 C 
ENDBRANCH  22  23
ENDBRANCH  20  21
ENDBRANCH  19  20
ENDBRANCH  18  19
ENDBRANCH   1  18
TORSDOF 11
ENDMDL
MODEL 8
REMARK VINA RESULT:    -5.611     19.434     22.057
REMARK INTER + INTRA:         -10.007
REMARK INTER:                  -8.199
REMARK INTRA:                  -1.808
REMARK UNBOUND:                -0.952
REMARK SMILES COc1cc(CNC(=O)CCCCC/C=C/C(C)C)ccc1O
REMARK SMILES IDX 11 1 10 2 8 3 7 4 9 6 6 7 5 8 3 9 22 10 4 11 21 12 20 13
REMARK SMILES IDX 2 14 1 15 23 16 12 18 13 19 14 20 15 21 16 22 17 23 18 24
REMARK SMILES IDX 19 25
REMARK H PARENT 7 5 23 17
REMARK Flexibility Score: inf
ROOT
ATOM      1  C   UNL     1      75.087  90.772  69.618  1.00  0.00     0.010 C 
ENDROOT
BRANCH   1   2
ATOM      2  C   UNL     1      73.609  91.184  69.393  1.00  0.00     0.100 C 
BRANCH   2   3
ATOM      3  C   UNL     1      72.646  90.080  69.567  1.00  0.00     0.220 C 
ATOM      4  N   UNL     1      72.170  89.417  68.477  1.00  0.00    -0.352 N 
ATOM      5  H   UNL     1      72.472  89.795  67.589  1.00  0.00     0.163 HD
ATOM      6  O   UNL     1      72.318  89.753  70.732  1.00  0.00    -0.275 OA
BRANCH   4   7
ATOM      7  C   UNL     1      71.315  88.275  68.508  1.00  0.00     0.151 C 
BRANCH   7   8
ATOM      8  C   UNL     1      71.881  87.116  67.769  1.00  0.00    -0.025 A 
ATOM      9  C   UNL     1      71.610  84.895  66.749  1.00  0.00     0.160 A 
ATOM     10  C   UNL     1      72.980  84.886  66.408  1.00  0.00     0.157 A 
ATOM     11  C   UNL     1      71.073  86.005  67.433  1.00  0.00     0.056 A 
ATOM     12  C   UNL     1      73.789  85.993  66.722  1.00  0.00     0.050 A 
ATOM     13  C   UNL     1      73.241  87.105  67.389  1.00  0.00     0.009 A 
BRANCH   9  14
ATOM     14  O   UNL     1      70.795  83.862  66.370  1.00  0.00    -0.493 OA
ATOM     15  C   UNL     1      69.938  84.166  65.257  1.00  0.00     0.278 C 
ENDBRANCH   9  14
BRANCH  10  16
ATOM     16  O   UNL     1      73.541  83.825  65.775  1.00  0.00    -0.504 OA
ATOM     17  H   UNL     1      73.129  83.014  66.082  1.00  0.00     0.293 HD
ENDBRANCH  10  16
ENDBRANCH   7   8
ENDBRANCH   4   7
ENDBRANCH   2   3
ENDBRANCH   1   2
BRANCH   1  18
ATOM     18  C   UNL     1      75.464  89.545  68.750  1.00  0.00     0.001 C 
BRANCH  18  19
ATOM     19  C   UNL     1      75.825  89.904  67.286  1.00  0.00     0.004 C 
BRANCH  19  20
ATOM     20  C   UNL     1      77.080  89.124  66.804  1.00  0.00     0.027 C 
BRANCH  20  21
ATOM     21  C   UNL     1      77.340  87.910  67.560  1.00  0.00    -0.031 C 
ATOM     22  C   UNL     1      77.228  86.686  67.014  1.00  0.00    -0.028 C 
BRANCH  22  23
ATOM     23  C   UNL     1      77.487  85.448  67.744  1.00  0.00     0.005 C 
ATOM     24  C   UNL     1      76.603  85.379  69.017  1.00  0.00     0.012 C 
ATOM     25  C   UNL     1      77.278  84.222  66.813  1.00  0.00     0.012 C 
ENDBRANCH  22  23
ENDBRANCH  20  21
ENDBRANCH  19  20
ENDBRANCH  18  19
ENDBRANCH   1  18
TORSDOF 11
ENDMDL
MODEL 9
REMARK VINA RESULT:    -5.573      6.068      9.621
REMARK INTER + INTRA:          -9.946
REMARK INTER:                  -9.352
REMARK INTRA:                  -0.595
REMARK UNBOUND:                -0.952
REMARK SMILES COc1cc(CNC(=O)CCCCC/C=C/C(C)C)ccc1O
REMARK SMILES IDX 11 1 10 2 8 3 7 4 9 6 6 7 5 8 3 9 22 10 4 11 21 12 20 13
REMARK SMILES IDX 2 14 1 15 23 16 12 18 13 19 14 20 15 21 16 22 17 23 18 24
REMARK SMILES IDX 19 25
REMARK H PARENT 7 5 23 17
REMARK Flexibility Score: inf
ROOT
ATOM      1  C   UNL     1      94.745  95.349  74.365  1.00  0.00     0.010 C 
ENDROOT
BRANCH   1   2
ATOM      2  C   UNL     1      95.419  96.714  74.069  1.00  0.00     0.100 C 
BRANCH   2   3
ATOM      3  C   UNL     1      96.130  97.296  75.223  1.00  0.00     0.220 C 
ATOM      4  N   UNL     1      96.838  96.488  76.060  1.00  0.00    -0.352 N 
ATOM      5  H   UNL     1      96.761  95.501  75.858  1.00  0.00     0.163 HD
ATOM      6  O   UNL     1      96.094  98.539  75.380  1.00  0.00    -0.275 OA
BRANCH   4   7
ATOM      7  C   UNL     1      97.646  96.929  77.150  1.00  0.00     0.151 C 
BRANCH   7   8
ATOM      8  C   UNL     1      97.095  96.525  78.470  1.00  0.00    -0.025 A 
ATOM      9  C   UNL     1      96.909  96.857  80.900  1.00  0.00     0.160 A 
ATOM     10  C   UNL     1      96.083  95.716  80.992  1.00  0.00     0.157 A 
ATOM     11  C   UNL     1      97.415  97.247  79.643  1.00  0.00     0.056 A 
ATOM     12  C   UNL     1      95.745  94.999  79.829  1.00  0.00     0.050 A 
ATOM     13  C   UNL     1      96.238  95.407  78.576  1.00  0.00     0.009 A 
BRANCH   9  14
ATOM     14  O   UNL     1      97.174  97.613  82.011  1.00  0.00    -0.493 OA
ATOM     15  C   UNL     1      96.354  98.787  82.133  1.00  0.00     0.278 C 
ENDBRANCH   9  14
BRANCH  10  16
ATOM     16  O   UNL     1      95.599  95.291  82.186  1.00  0.00    -0.504 OA
ATOM     17  H   UNL     1      95.906  95.877  82.882  1.00  0.00     0.293 HD
ENDBRANCH  10  16
ENDBRANCH   7   8
ENDBRANCH   4   7
ENDBRANCH   2   3
ENDBRANCH   1   2
BRANCH   1  18
ATOM     18  C   UNL     1      94.171  95.310  75.804  1.00  0.00     0.001 C 
BRANCH  18  19
ATOM     19  C   UNL     1      93.029  96.329  76.048  1.00  0.00     0.004 C 
BRANCH  19  20
ATOM     20  C   UNL     1      91.706  95.616  76.442  1.00  0.00     0.027 C 
BRANCH  20  21
ATOM     21  C   UNL     1      91.814  94.167  76.486  1.00  0.00    -0.031 C 
ATOM     22  C   UNL     1      90.746  93.362  76.340  1.00  0.00    -0.028 C 
BRANCH  22  23
ATOM     23  C   UNL     1      90.822  91.904  76.374  1.00  0.00     0.005 C 
ATOM     24  C   UNL     1      89.558  91.316  77.056  1.00  0.00     0.012 C 
ATOM     25  C   UNL     1      91.034  91.344  74.941  1.00  0.00     0.012 C 
ENDBRANCH  22  23
ENDBRANCH  20  21
ENDBRANCH  19  20
ENDBRANCH  18  19
ENDBRANCH   1  18
TORSDOF 11
ENDMDL
MODEL 10
REMARK VINA RESULT:    -5.503      8.319     12.216
REMARK INTER + INTRA:          -9.833
REMARK INTER:                  -9.086
REMARK INTRA:                  -0.747
REMARK UNBOUND:                -0.952
REMARK SMILES COc1cc(CNC(=O)CCCCC/C=C/C(C)C)ccc1O
REMARK SMILES IDX 11 1 10 2 8 3 7 4 9 6 6 7 5 8 3 9 22 10 4 11 21 12 20 13
REMARK SMILES IDX 2 14 1 15 23 16 12 18 13 19 14 20 15 21 16 22 17 23 18 24
REMARK SMILES IDX 19 25
REMARK H PARENT 7 5 23 17
REMARK Flexibility Score: inf
ROOT
ATOM      1  C   UNL     1      95.935  95.602  81.541  1.00  0.00     0.010 C 
ENDROOT
BRANCH   1   2
ATOM      2  C   UNL     1      96.442  96.731  80.606  1.00  0.00     0.100 C 
BRANCH   2   3
ATOM      3  C   UNL     1      96.877  97.948  81.315  1.00  0.00     0.220 C 
ATOM      4  N   UNL     1      97.104  97.907  82.657  1.00  0.00    -0.352 N 
ATOM      5  H   UNL     1      96.878  97.024  83.096  1.00  0.00     0.163 HD
ATOM      6  O   UNL     1      97.066  98.991  80.646  1.00  0.00    -0.275 OA
BRANCH   4   7
ATOM      7  C   UNL     1      97.617  98.979  83.446  1.00  0.00     0.151 C 
BRANCH   7   8
ATOM      8  C   UNL     1      96.552  99.710  84.181  1.00  0.00    -0.025 A 
ATOM      9  C   UNL     1      94.812 101.446  84.252  1.00  0.00     0.160 A 
ATOM     10  C   UNL     1      94.559 101.135  85.606  1.00  0.00     0.157 A 
ATOM     11  C   UNL     1      95.811 100.738  83.553  1.00  0.00     0.056 A 
ATOM     12  C   UNL     1      95.278 100.103  86.235  1.00  0.00     0.050 A 
ATOM     13  C   UNL     1      96.261  99.388  85.525  1.00  0.00     0.009 A 
BRANCH   9  14
ATOM     14  O   UNL     1      94.057 102.388  83.605  1.00  0.00    -0.493 OA
ATOM     15  C   UNL     1      93.728 102.047  82.248  1.00  0.00     0.278 C 
ENDBRANCH   9  14
BRANCH  10  16
ATOM     16  O   UNL     1      93.626 101.812  86.322  1.00  0.00    -0.504 OA
ATOM     17  H   UNL     1      93.143 101.197  86.880  1.00  0.00     0.293 HD
ENDBRANCH  10  16
ENDBRANCH   7   8
ENDBRANCH   4   7
ENDBRANCH   2   3
ENDBRANCH   1   2
BRANCH   1  18
ATOM     18  C   UNL     1      96.369  94.208  81.022  1.00  0.00     0.001 C 
BRANCH  18  19
ATOM     19  C   UNL     1      95.974  93.941  79.548  1.00  0.00     0.004 C 
BRANCH  19  20
ATOM     20  C   UNL     1      94.719  93.029  79.454  1.00  0.00     0.027 C 
BRANCH  20  21
ATOM     21  C   UNL     1      93.874  93.314  78.307  1.00  0.00    -0.031 C 
ATOM     22  C   UNL     1      92.532  93.323  78.387  1.00  0.00    -0.028 C 
BRANCH  22  23
ATOM     23  C   UNL     1      91.655  93.611  77.255  1.00  0.00     0.005 C 
ATOM     24  C   UNL     1      90.283  92.911  77.445  1.00  0.00     0.012 C 
ATOM     25  C   UNL     1      91.512  95.146  77.063  1.00  0.00     0.012 C 
ENDBRANCH  22  23
ENDBRANCH  20  21
ENDBRANCH  19  20
ENDBRANCH  18  19
ENDBRANCH   1  18
TORSDOF 11
ENDMDL
