MODEL 1
REMARK VINA RESULT:    -6.840      0.000      0.000
REMARK INTER + INTRA:         -13.060
REMARK INTER:                 -12.038
REMARK INTRA:                  -1.023
REMARK UNBOUND:                -1.023
REMARK SMILES C=C(C)[C@]12C[C@@H](C)[C@@]34O[C@](Cc5ccccc5)(O[C@@H]1[C@@H]3C=C(COC(=O)Cc1ccc(O)c(OC)c1)C[C@]1(O)C(=O)C(C)=C[C@@H]41)O2
REMARK SMILES IDX 23 1 22 2 21 3 20 4 9 5 8 6 10 7 6 8 18 9 46 10 19 11 5 12
REMARK SMILES IDX 7 13 4 14 45 15 38 16 44 17 40 18 42 20 41 21 43 22 39 23
REMARK SMILES IDX 11 25 12 26 13 27 17 28 14 29 16 30 15 31 2 32 3 33 1 34
REMARK SMILES IDX 37 35 24 37 25 38 26 39 27 40 28 41 36 42 29 43 33 44 30 45
REMARK SMILES IDX 31 46 34 47 35 48 32 49
REMARK H PARENT 39 24 32 50
REMARK Flexibility Score: 90.00
ROOT
ATOM      1  C   UNL     1      93.969  77.193  84.205  1.00  0.00     0.264 C 
ENDROOT
BRANCH   1   2
ATOM      2  C   UNL     1      94.892  78.178  84.883  1.00  0.00    -0.033 C 
ATOM      3  C   UNL     1      96.066  78.492  84.300  1.00  0.00    -0.015 C 
BRANCH   3   4
ATOM      4  C   UNL     1      97.188  79.382  84.808  1.00  0.00     0.078 C 
ATOM      5  O   UNL     1      96.762  81.653  83.924  1.00  0.00    -0.319 OA
ATOM      6  C   UNL     1      96.854  80.880  85.160  1.00  0.00     0.095 C 
ATOM      7  C   UNL     1      97.778  81.370  82.943  1.00  0.00     0.289 C 
ATOM      8  C   UNL     1      98.045  81.443  86.042  1.00  0.00     0.023 C 
ATOM      9  O   UNL     1      97.779  79.991  82.582  1.00  0.00    -0.320 OA
ATOM     10  O   UNL     1      99.090  81.642  83.429  1.00  0.00    -0.313 OA
ATOM     11  C   UNL     1      98.340  79.419  83.774  1.00  0.00     0.170 C 
ATOM     12  C   UNL     1      99.409  80.805  85.634  1.00  0.00     0.049 C 
ATOM     13  C   UNL     1      98.182  82.974  86.066  1.00  0.00     0.011 C 
ATOM     14  C   UNL     1      99.441  80.442  84.149  1.00  0.00     0.122 C 
BRANCH   6  15
ATOM     15  C   UNL     1      95.439  80.995  85.797  1.00  0.00     0.086 C 
ATOM     16  C   UNL     1      95.076  79.923  86.845  1.00  0.00     0.140 CG0
ATOM     17  C   UNL     1      95.030  82.282  86.457  1.00  0.00    -0.010 C 
ATOM     18  C   UNL     1      94.207  80.696  87.815  1.00  0.00     0.190 C 
ATOM     19  G   UNL     1      94.344  78.733  86.224  1.00  0.00     0.000 G0
ATOM     20  C   UNL     1      94.314  82.148  87.578  1.00  0.00    -0.008 C 
ATOM     21  O   UNL     1      93.540  80.206  88.714  1.00  0.00    -0.291 OA
ATOM     22  C   UNL     1      93.683  83.175  88.432  1.00  0.00     0.048 C 
BRANCH  16  23
ATOM     23  O   UNL     1      96.173  79.499  87.637  1.00  0.00    -0.381 OA
ATOM     24  H   UNL     1      96.677  80.284  87.908  1.00  0.00     0.212 HD
ENDBRANCH  16  23
ENDBRANCH   6  15
BRANCH   7  25
ATOM     25  C   UNL     1      97.506  82.220  81.718  1.00  0.00     0.135 C 
BRANCH  25  26
ATOM     26  C   UNL     1      98.321  81.775  80.529  1.00  0.00    -0.040 A 
ATOM     27  C   UNL     1      97.710  81.077  79.487  1.00  0.00     0.004 A 
ATOM     28  C   UNL     1      99.684  82.062  80.471  1.00  0.00     0.004 A 
ATOM     29  C   UNL     1      98.464  80.666  78.387  1.00  0.00     0.000 A 
ATOM     30  C   UNL     1     100.438  81.651  79.371  1.00  0.00     0.000 A 
ATOM     31  C   UNL     1      99.827  80.953  78.330  1.00  0.00     0.000 A 
ENDBRANCH  25  26
ENDBRANCH   7  25
BRANCH  14  32
ATOM     32  C   UNL     1     100.795  80.001  83.695  1.00  0.00    -0.046 C 
ATOM     33  C   UNL     1     101.944  80.364  84.588  1.00  0.00     0.042 C 
ATOM     34  C   UNL     1     100.973  79.319  82.554  1.00  0.00     0.010 C 
ENDBRANCH  14  32
ENDBRANCH   3   4
BRANCH   2  35
ATOM     35  C   UNL     1      94.335  78.711  86.190  1.00  0.00     0.078 CG0
ATOM     36  G   UNL     1      95.049  79.907  86.819  1.00  0.00     0.000 G0
ENDBRANCH   2  35
ENDBRANCH   1   2
BRANCH   1  37
ATOM     37  O   UNL     1      92.649  77.399  84.659  1.00  0.00    -0.461 OA
BRANCH  37  38
ATOM     38  C   UNL     1      91.647  77.146  83.752  1.00  0.00     0.310 C 
ATOM     39  O   UNL     1      91.814  76.688  82.630  1.00  0.00    -0.252 OA
BRANCH  38  40
ATOM     40  C   UNL     1      90.314  77.521  84.356  1.00  0.00     0.158 C 
BRANCH  40  41
ATOM     41  C   UNL     1      90.011  78.993  84.245  1.00  0.00    -0.033 A 
ATOM     42  C   UNL     1      88.693  79.425  84.096  1.00  0.00     0.054 A 
ATOM     43  C   UNL     1      91.049  79.924  84.293  1.00  0.00     0.008 A 
ATOM     44  C   UNL     1      88.413  80.787  83.994  1.00  0.00     0.160 A 
ATOM     45  C   UNL     1      90.769  81.286  84.191  1.00  0.00     0.050 A 
ATOM     46  C   UNL     1      89.452  81.719  84.041  1.00  0.00     0.157 A 
BRANCH  44  47
ATOM     47  O   UNL     1      87.122  81.197  83.848  1.00  0.00    -0.493 OA
ATOM     48  C   UNL     1      86.612  81.272  82.517  1.00  0.00     0.278 C 
ENDBRANCH  44  47
BRANCH  46  49
ATOM     49  O   UNL     1      89.190  83.051  83.943  1.00  0.00    -0.504 OA
ATOM     50  H   UNL     1      89.353  83.340  83.029  1.00  0.00     0.293 HD
ENDBRANCH  46  49
ENDBRANCH  40  41
ENDBRANCH  38  40
ENDBRANCH  37  38
ENDBRANCH   1  37
TORSDOF 11
ENDMDL
MODEL 2
REMARK VINA RESULT:    -6.820      1.670      2.125
REMARK INTER + INTRA:         -13.026
REMARK INTER:                 -11.761
REMARK INTRA:                  -1.266
REMARK UNBOUND:                -1.023
REMARK SMILES C=C(C)[C@]12C[C@@H](C)[C@@]34O[C@](Cc5ccccc5)(O[C@@H]1[C@@H]3C=C(COC(=O)Cc1ccc(O)c(OC)c1)C[C@]1(O)C(=O)C(C)=C[C@@H]41)O2
REMARK SMILES IDX 23 1 22 2 21 3 20 4 9 5 8 6 10 7 6 8 18 9 46 10 19 11 5 12
REMARK SMILES IDX 7 13 4 14 45 15 38 16 44 17 40 18 42 20 41 21 43 22 39 23
REMARK SMILES IDX 11 25 12 26 13 27 17 28 14 29 16 30 15 31 2 32 3 33 1 34
REMARK SMILES IDX 37 35 24 37 25 38 26 39 27 40 28 41 36 42 29 43 33 44 30 45
REMARK SMILES IDX 31 46 34 47 35 48 32 49
REMARK H PARENT 39 24 32 50
REMARK Flexibility Score: 90.00
ROOT
ATOM      1  C   UNL     1      94.153  76.396  84.185  1.00  0.00     0.264 C 
ENDROOT
BRANCH   1   2
ATOM      2  C   UNL     1      95.098  77.575  84.216  1.00  0.00    -0.033 C 
ATOM      3  C   UNL     1      96.232  77.530  83.489  1.00  0.00    -0.015 C 
BRANCH   3   4
ATOM      4  C   UNL     1      97.367  78.538  83.410  1.00  0.00     0.078 C 
ATOM      5  O   UNL     1      96.847  80.064  81.534  1.00  0.00    -0.319 OA
ATOM      6  C   UNL     1      97.030  80.015  82.982  1.00  0.00     0.095 C 
ATOM      7  C   UNL     1      97.805  79.311  80.766  1.00  0.00     0.289 C 
ATOM      8  C   UNL     1      98.263  80.925  83.386  1.00  0.00     0.023 C 
ATOM      9  O   UNL     1      97.807  77.937  81.147  1.00  0.00    -0.320 OA
ATOM     10  O   UNL     1      99.139  79.768  80.966  1.00  0.00    -0.313 OA
ATOM     11  C   UNL     1      98.452  78.032  82.426  1.00  0.00     0.170 C 
ATOM     12  C   UNL     1      99.610  80.147  83.268  1.00  0.00     0.049 C 
ATOM     13  C   UNL     1      98.375  82.258  82.629  1.00  0.00     0.011 C 
ATOM     14  C   UNL     1      99.556  79.086  82.167  1.00  0.00     0.122 C 
BRANCH   6  15
ATOM     15  C   UNL     1      95.655  80.456  83.562  1.00  0.00     0.086 C 
ATOM     16  C   UNL     1      95.371  80.049  85.023  1.00  0.00     0.140 CG0
ATOM     17  C   UNL     1      95.272  81.909  83.524  1.00  0.00    -0.010 C 
ATOM     18  C   UNL     1      94.554  81.217  85.534  1.00  0.00     0.190 C 
ATOM     19  G   UNL     1      94.617  78.723  85.116  1.00  0.00     0.000 G0
ATOM     20  C   UNL     1      94.627  82.360  84.605  1.00  0.00    -0.008 C 
ATOM     21  O   UNL     1      93.950  81.247  86.596  1.00  0.00    -0.291 OA
ATOM     22  C   UNL     1      94.037  83.687  84.877  1.00  0.00     0.048 C 
BRANCH  16  23
ATOM     23  O   UNL     1      96.520  80.050  85.853  1.00  0.00    -0.381 OA
ATOM     24  H   UNL     1      97.127  80.739  85.536  1.00  0.00     0.212 HD
ENDBRANCH  16  23
ENDBRANCH   6  15
BRANCH   7  25
ATOM     25  C   UNL     1      97.442  79.435  79.300  1.00  0.00     0.135 C 
BRANCH  25  26
ATOM     26  C   UNL     1      97.820  80.782  78.736  1.00  0.00    -0.040 A 
ATOM     27  C   UNL     1      98.676  80.863  77.637  1.00  0.00     0.004 A 
ATOM     28  C   UNL     1      97.313  81.947  79.312  1.00  0.00     0.004 A 
ATOM     29  C   UNL     1      99.025  82.110  77.116  1.00  0.00     0.000 A 
ATOM     30  C   UNL     1      97.662  83.193  78.791  1.00  0.00     0.000 A 
ATOM     31  C   UNL     1      98.518  83.273  77.693  1.00  0.00     0.000 A 
ENDBRANCH  25  26
ENDBRANCH   7  25
BRANCH  14  32
ATOM     32  C   UNL     1     100.886  78.455  81.913  1.00  0.00    -0.046 C 
ATOM     33  C   UNL     1     101.980  79.375  81.457  1.00  0.00     0.042 C 
ATOM     34  C   UNL     1     101.091  77.140  82.082  1.00  0.00     0.010 C 
ENDBRANCH  14  32
ENDBRANCH   3   4
BRANCH   2  35
ATOM     35  C   UNL     1      94.609  78.706  85.102  1.00  0.00     0.078 CG0
ATOM     36  G   UNL     1      95.353  80.037  85.009  1.00  0.00     0.000 G0
ENDBRANCH   2  35
ENDBRANCH   1   2
BRANCH   1  37
ATOM     37  O   UNL     1      92.876  76.809  84.623  1.00  0.00    -0.461 OA
BRANCH  37  38
ATOM     38  C   UNL     1      91.854  76.698  83.709  1.00  0.00     0.310 C 
ATOM     39  O   UNL     1      91.979  76.293  82.562  1.00  0.00    -0.252 OA
BRANCH  38  40
ATOM     40  C   UNL     1      90.560  77.151  84.342  1.00  0.00     0.158 C 
BRANCH  40  41
ATOM     41  C   UNL     1      90.343  78.639  84.235  1.00  0.00    -0.033 A 
ATOM     42  C   UNL     1      89.047  79.153  84.189  1.00  0.00     0.054 A 
ATOM     43  C   UNL     1      91.438  79.502  84.183  1.00  0.00     0.008 A 
ATOM     44  C   UNL     1      88.846  80.530  84.091  1.00  0.00     0.160 A 
ATOM     45  C   UNL     1      91.237  80.879  84.084  1.00  0.00     0.050 A 
ATOM     46  C   UNL     1      89.941  81.393  84.037  1.00  0.00     0.157 A 
BRANCH  44  47
ATOM     47  O   UNL     1      87.576  81.020  84.046  1.00  0.00    -0.493 OA
ATOM     48  C   UNL     1      86.928  81.028  82.775  1.00  0.00     0.278 C 
ENDBRANCH  44  47
BRANCH  46  49
ATOM     49  O   UNL     1      89.758  82.739  83.942  1.00  0.00    -0.504 OA
ATOM     50  H   UNL     1      89.861  83.008  83.014  1.00  0.00     0.293 HD
ENDBRANCH  46  49
ENDBRANCH  40  41
ENDBRANCH  38  40
ENDBRANCH  37  38
ENDBRANCH   1  37
TORSDOF 11
ENDMDL
MODEL 3
REMARK VINA RESULT:    -6.227      2.488      5.312
REMARK INTER + INTRA:         -11.983
REMARK INTER:                 -10.997
REMARK INTRA:                  -0.986
REMARK UNBOUND:                -1.023
REMARK SMILES C=C(C)[C@]12C[C@@H](C)[C@@]34O[C@](Cc5ccccc5)(O[C@@H]1[C@@H]3C=C(COC(=O)Cc1ccc(O)c(OC)c1)C[C@]1(O)C(=O)C(C)=C[C@@H]41)O2
REMARK SMILES IDX 23 1 22 2 21 3 20 4 9 5 8 6 10 7 6 8 18 9 46 10 19 11 5 12
REMARK SMILES IDX 7 13 4 14 45 15 38 16 44 17 40 18 42 20 41 21 43 22 39 23
REMARK SMILES IDX 11 25 12 26 13 27 17 28 14 29 16 30 15 31 2 32 3 33 1 34
REMARK SMILES IDX 37 35 24 37 25 38 26 39 27 40 28 41 36 42 29 43 33 44 30 45
REMARK SMILES IDX 31 46 34 47 35 48 32 49
REMARK H PARENT 39 24 32 50
REMARK Flexibility Score: 90.00
ROOT
ATOM      1  C   UNL     1      93.790  76.863  83.452  1.00  0.00     0.264 C 
ENDROOT
BRANCH   1   2
ATOM      2  C   UNL     1      94.879  77.723  84.050  1.00  0.00    -0.033 C 
ATOM      3  C   UNL     1      94.864  79.053  83.828  1.00  0.00    -0.015 C 
BRANCH   3   4
ATOM      4  C   UNL     1      95.871  80.112  84.246  1.00  0.00     0.078 C 
ATOM      5  O   UNL     1      95.100  81.025  86.412  1.00  0.00    -0.319 OA
ATOM      6  C   UNL     1      96.187  80.282  85.779  1.00  0.00     0.095 C 
ATOM      7  C   UNL     1      94.609  82.155  85.665  1.00  0.00     0.289 C 
ATOM      8  C   UNL     1      97.531  81.112  85.903  1.00  0.00     0.023 C 
ATOM      9  O   UNL     1      94.158  81.762  84.371  1.00  0.00    -0.320 OA
ATOM     10  O   UNL     1      95.620  83.134  85.439  1.00  0.00    -0.313 OA
ATOM     11  C   UNL     1      95.418  81.501  83.733  1.00  0.00     0.170 C 
ATOM     12  C   UNL     1      97.671  82.149  84.746  1.00  0.00     0.049 C 
ATOM     13  C   UNL     1      97.749  81.818  87.251  1.00  0.00     0.011 C 
ATOM     14  C   UNL     1      96.308  82.651  84.268  1.00  0.00     0.122 C 
BRANCH   6  15
ATOM     15  C   UNL     1      96.185  78.902  86.499  1.00  0.00     0.086 C 
ATOM     16  C   UNL     1      96.889  77.747  85.757  1.00  0.00     0.140 CG0
ATOM     17  C   UNL     1      96.725  78.800  87.897  1.00  0.00    -0.010 C 
ATOM     18  C   UNL     1      97.473  76.937  86.895  1.00  0.00     0.190 C 
ATOM     19  G   UNL     1      95.919  76.936  84.899  1.00  0.00     0.000 G0
ATOM     20  C   UNL     1      97.430  77.695  88.160  1.00  0.00    -0.008 C 
ATOM     21  O   UNL     1      97.966  75.824  86.792  1.00  0.00    -0.291 OA
ATOM     22  C   UNL     1      98.030  77.227  89.426  1.00  0.00     0.048 C 
BRANCH  16  23
ATOM     23  O   UNL     1      98.025  78.152  85.011  1.00  0.00    -0.381 OA
ATOM     24  H   UNL     1      98.808  78.082  85.582  1.00  0.00     0.212 HD
ENDBRANCH  16  23
ENDBRANCH   6  15
BRANCH   7  25
ATOM     25  C   UNL     1      93.465  82.776  86.440  1.00  0.00     0.135 C 
BRANCH  25  26
ATOM     26  C   UNL     1      93.686  82.703  87.930  1.00  0.00    -0.040 A 
ATOM     27  C   UNL     1      93.290  81.567  88.638  1.00  0.00     0.004 A 
ATOM     28  C   UNL     1      94.287  83.768  88.600  1.00  0.00     0.004 A 
ATOM     29  C   UNL     1      93.494  81.499  90.017  1.00  0.00     0.000 A 
ATOM     30  C   UNL     1      94.491  83.699  89.979  1.00  0.00     0.000 A 
ATOM     31  C   UNL     1      94.094  82.564  90.686  1.00  0.00     0.000 A 
ENDBRANCH  25  26
ENDBRANCH   7  25
BRANCH  14  32
ATOM     32  C   UNL     1      96.421  83.775  83.290  1.00  0.00    -0.046 C 
ATOM     33  C   UNL     1      96.217  85.155  83.841  1.00  0.00     0.042 C 
ATOM     34  C   UNL     1      96.688  83.562  81.993  1.00  0.00     0.010 C 
ENDBRANCH  14  32
ENDBRANCH   3   4
BRANCH   2  35
ATOM     35  C   UNL     1      95.884  76.931  84.864  1.00  0.00     0.078 CG0
ATOM     36  G   UNL     1      96.862  77.724  85.730  1.00  0.00     0.000 G0
ENDBRANCH   2  35
ENDBRANCH   1   2
BRANCH   1  37
ATOM     37  O   UNL     1      92.715  76.772  84.362  1.00  0.00    -0.461 OA
BRANCH  37  38
ATOM     38  C   UNL     1      91.482  76.489  83.821  1.00  0.00     0.310 C 
ATOM     39  O   UNL     1      91.296  75.991  82.719  1.00  0.00    -0.252 OA
BRANCH  38  40
ATOM     40  C   UNL     1      90.399  76.887  84.796  1.00  0.00     0.158 C 
BRANCH  40  41
ATOM     41  C   UNL     1      89.629  78.104  84.355  1.00  0.00    -0.033 A 
ATOM     42  C   UNL     1      90.248  79.355  84.343  1.00  0.00     0.054 A 
ATOM     43  C   UNL     1      88.298  77.981  83.957  1.00  0.00     0.008 A 
ATOM     44  C   UNL     1      89.535  80.482  83.934  1.00  0.00     0.160 A 
ATOM     45  C   UNL     1      87.585  79.108  83.548  1.00  0.00     0.050 A 
ATOM     46  C   UNL     1      88.202  80.358  83.537  1.00  0.00     0.157 A 
BRANCH  44  47
ATOM     47  O   UNL     1      90.149  81.697  83.928  1.00  0.00    -0.493 OA
ATOM     48  C   UNL     1      90.981  82.009  85.044  1.00  0.00     0.278 C 
ENDBRANCH  44  47
BRANCH  46  49
ATOM     49  O   UNL     1      87.496  81.451  83.135  1.00  0.00    -0.504 OA
ATOM     50  H   UNL     1      86.599  81.174  82.884  1.00  0.00     0.293 HD
ENDBRANCH  46  49
ENDBRANCH  40  41
ENDBRANCH  38  40
ENDBRANCH  37  38
ENDBRANCH   1  37
TORSDOF 11
ENDMDL
MODEL 4
REMARK VINA RESULT:    -6.190     16.028     19.483
REMARK INTER + INTRA:         -11.916
REMARK INTER:                 -10.889
REMARK INTRA:                  -1.027
REMARK UNBOUND:                -1.023
REMARK SMILES C=C(C)[C@]12C[C@@H](C)[C@@]34O[C@](Cc5ccccc5)(O[C@@H]1[C@@H]3C=C(COC(=O)Cc1ccc(O)c(OC)c1)C[C@]1(O)C(=O)C(C)=C[C@@H]41)O2
REMARK SMILES IDX 23 1 22 2 21 3 20 4 9 5 8 6 10 7 6 8 18 9 46 10 19 11 5 12
REMARK SMILES IDX 7 13 4 14 45 15 38 16 44 17 40 18 42 20 41 21 43 22 39 23
REMARK SMILES IDX 11 25 12 26 13 27 17 28 14 29 16 30 15 31 2 32 3 33 1 34
REMARK SMILES IDX 37 35 24 37 25 38 26 39 27 40 28 41 36 42 29 43 33 44 30 45
REMARK SMILES IDX 31 46 34 47 35 48 32 49
REMARK H PARENT 39 24 32 50
REMARK Flexibility Score: 90.00
ROOT
ATOM      1  C   UNL     1      91.949  95.146  90.443  1.00  0.00     0.264 C 
ENDROOT
BRANCH   1   2
ATOM      2  C   UNL     1      91.556  96.594  90.620  1.00  0.00    -0.033 C 
ATOM      3  C   UNL     1      92.500  97.551  90.516  1.00  0.00    -0.015 C 
BRANCH   3   4
ATOM      4  C   UNL     1      92.379  99.051  90.725  1.00  0.00     0.078 C 
ATOM      5  O   UNL     1      91.916 100.052  88.510  1.00  0.00    -0.319 OA
ATOM      6  C   UNL     1      91.349  99.850  89.842  1.00  0.00     0.095 C 
ATOM      7  C   UNL     1      93.306 100.427  88.482  1.00  0.00     0.289 C 
ATOM      8  C   UNL     1      91.117 101.258  90.530  1.00  0.00     0.023 C 
ATOM      9  O   UNL     1      94.116  99.460  89.146  1.00  0.00    -0.320 OA
ATOM     10  O   UNL     1      93.548 101.659  89.157  1.00  0.00    -0.313 OA
ATOM     11  C   UNL     1      93.757  99.725  90.511  1.00  0.00     0.170 C 
ATOM     12  C   UNL     1      92.408 101.766  91.242  1.00  0.00     0.049 C 
ATOM     13  C   UNL     1      90.573 102.362  89.609  1.00  0.00     0.011 C 
ATOM     14  C   UNL     1      93.673 101.271  90.540  1.00  0.00     0.122 C 
BRANCH   6  15
ATOM     15  C   UNL     1      90.065  99.007  89.593  1.00  0.00     0.086 C 
ATOM     16  C   UNL     1      89.512  98.236  90.810  1.00  0.00     0.140 CG0
ATOM     17  C   UNL     1      88.847  99.672  89.018  1.00  0.00    -0.010 C 
ATOM     18  C   UNL     1      88.017  98.286  90.576  1.00  0.00     0.190 C 
ATOM     19  G   UNL     1      90.046  96.806  90.878  1.00  0.00     0.000 G0
ATOM     20  C   UNL     1      87.679  99.270  89.529  1.00  0.00    -0.008 C 
ATOM     21  O   UNL     1      87.181  97.646  91.195  1.00  0.00    -0.291 OA
ATOM     22  C   UNL     1      86.298  99.638  89.155  1.00  0.00     0.048 C 
BRANCH  16  23
ATOM     23  O   UNL     1      89.684  98.912  92.044  1.00  0.00    -0.381 OA
ATOM     24  H   UNL     1      89.289  99.796  91.968  1.00  0.00     0.212 HD
ENDBRANCH  16  23
ENDBRANCH   6  15
BRANCH   7  25
ATOM     25  C   UNL     1      93.737 100.549  87.035  1.00  0.00     0.135 C 
BRANCH  25  26
ATOM     26  C   UNL     1      93.814 101.988  86.587  1.00  0.00    -0.040 A 
ATOM     27  C   UNL     1      92.649 102.672  86.237  1.00  0.00     0.004 A 
ATOM     28  C   UNL     1      95.048 102.634  86.525  1.00  0.00     0.004 A 
ATOM     29  C   UNL     1      92.720 104.002  85.824  1.00  0.00     0.000 A 
ATOM     30  C   UNL     1      95.118 103.965  86.111  1.00  0.00     0.000 A 
ATOM     31  C   UNL     1      93.953 104.648  85.761  1.00  0.00     0.000 A 
ENDBRANCH  25  26
ENDBRANCH   7  25
BRANCH  14  32
ATOM     32  C   UNL     1      94.916 101.891  91.092  1.00  0.00    -0.046 C 
ATOM     33  C   UNL     1      95.167 103.320  90.715  1.00  0.00     0.042 C 
ATOM     34  C   UNL     1      95.759 101.207  91.880  1.00  0.00     0.010 C 
ENDBRANCH  14  32
ENDBRANCH   3   4
BRANCH   2  35
ATOM     35  C   UNL     1      90.076  96.779  90.897  1.00  0.00     0.078 CG0
ATOM     36  G   UNL     1      89.521  98.200  90.811  1.00  0.00     0.000 G0
ENDBRANCH   2  35
ENDBRANCH   1   2
BRANCH   1  37
ATOM     37  O   UNL     1      93.213  95.078  89.819  1.00  0.00    -0.461 OA
BRANCH  37  38
ATOM     38  C   UNL     1      94.085  94.135  90.312  1.00  0.00     0.310 C 
ATOM     39  O   UNL     1      94.420  94.033  91.484  1.00  0.00    -0.252 OA
BRANCH  38  40
ATOM     40  C   UNL     1      94.562  93.251  89.185  1.00  0.00     0.158 C 
BRANCH  40  41
ATOM     41  C   UNL     1      93.941  91.878  89.211  1.00  0.00    -0.033 A 
ATOM     42  C   UNL     1      94.577  90.812  88.573  1.00  0.00     0.054 A 
ATOM     43  C   UNL     1      92.732  91.672  89.874  1.00  0.00     0.008 A 
ATOM     44  C   UNL     1      94.003  89.541  88.598  1.00  0.00     0.160 A 
ATOM     45  C   UNL     1      92.157  90.401  89.899  1.00  0.00     0.050 A 
ATOM     46  C   UNL     1      92.792  89.336  89.261  1.00  0.00     0.157 A 
BRANCH  44  47
ATOM     47  O   UNL     1      94.633  88.509  87.971  1.00  0.00    -0.493 OA
ATOM     48  C   UNL     1      94.431  88.385  86.564  1.00  0.00     0.278 C 
ENDBRANCH  44  47
BRANCH  46  49
ATOM     49  O   UNL     1      92.222  88.099  89.293  1.00  0.00    -0.504 OA
ATOM     50  H   UNL     1      92.881  87.440  89.016  1.00  0.00     0.293 HD
ENDBRANCH  46  49
ENDBRANCH  40  41
ENDBRANCH  38  40
ENDBRANCH  37  38
ENDBRANCH   1  37
TORSDOF 11
ENDMDL
MODEL 5
REMARK VINA RESULT:    -5.870     31.740     36.699
REMARK INTER + INTRA:         -11.354
REMARK INTER:                 -10.039
REMARK INTRA:                  -1.315
REMARK UNBOUND:                -1.023
REMARK SMILES C=C(C)[C@]12C[C@@H](C)[C@@]34O[C@](Cc5ccccc5)(O[C@@H]1[C@@H]3C=C(COC(=O)Cc1ccc(O)c(OC)c1)C[C@]1(O)C(=O)C(C)=C[C@@H]41)O2
REMARK SMILES IDX 23 1 22 2 21 3 20 4 9 5 8 6 10 7 6 8 18 9 46 10 19 11 5 12
REMARK SMILES IDX 7 13 4 14 45 15 38 16 44 17 40 18 42 20 41 21 43 22 39 23
REMARK SMILES IDX 11 25 12 26 13 27 17 28 14 29 16 30 15 31 2 32 3 33 1 34
REMARK SMILES IDX 37 35 24 37 25 38 26 39 27 40 28 41 36 42 29 43 33 44 30 45
REMARK SMILES IDX 31 46 34 47 35 48 32 49
REMARK H PARENT 39 24 32 50
REMARK Flexibility Score: 90.00
ROOT
ATOM      1  C   UNL     1      57.423  78.702  83.651  1.00  0.00     0.264 C 
ENDROOT
BRANCH   1   2
ATOM      2  C   UNL     1      58.593  78.142  84.426  1.00  0.00    -0.033 C 
ATOM      3  C   UNL     1      58.364  77.264  85.423  1.00  0.00    -0.015 C 
BRANCH   3   4
ATOM      4  C   UNL     1      59.348  76.623  86.389  1.00  0.00     0.078 C 
ATOM      5  O   UNL     1      60.044  74.471  85.387  1.00  0.00    -0.319 OA
ATOM      6  C   UNL     1      60.540  75.783  85.796  1.00  0.00     0.095 C 
ATOM      7  C   UNL     1      59.129  73.844  86.305  1.00  0.00     0.289 C 
ATOM      8  C   UNL     1      61.616  75.601  86.945  1.00  0.00     0.023 C 
ATOM      9  O   UNL     1      57.994  74.670  86.549  1.00  0.00    -0.320 OA
ATOM     10  O   UNL     1      59.718  73.613  87.583  1.00  0.00    -0.313 OA
ATOM     11  C   UNL     1      58.592  75.688  87.365  1.00  0.00     0.170 C 
ATOM     12  C   UNL     1      60.942  75.504  88.349  1.00  0.00     0.049 C 
ATOM     13  C   UNL     1      62.585  74.422  86.761  1.00  0.00     0.011 C 
ATOM     14  C   UNL     1      59.552  74.872  88.267  1.00  0.00     0.122 C 
BRANCH   6  15
ATOM     15  C   UNL     1      61.068  76.427  84.482  1.00  0.00     0.086 C 
ATOM     16  C   UNL     1      61.207  77.963  84.484  1.00  0.00     0.140 CG0
ATOM     17  C   UNL     1      62.376  75.959  83.907  1.00  0.00    -0.010 C 
ATOM     18  C   UNL     1      62.422  78.183  83.608  1.00  0.00     0.190 C 
ATOM     19  G   UNL     1      59.959  78.656  83.938  1.00  0.00     0.000 G0
ATOM     20  C   UNL     1      63.147  76.918  83.383  1.00  0.00    -0.008 C 
ATOM     21  O   UNL     1      62.798  79.262  83.177  1.00  0.00    -0.291 OA
ATOM     22  C   UNL     1      64.437  76.819  82.670  1.00  0.00     0.048 C 
BRANCH  16  23
ATOM     23  O   UNL     1      61.591  78.503  85.738  1.00  0.00    -0.381 OA
ATOM     24  H   UNL     1      62.558  78.600  85.747  1.00  0.00     0.212 HD
ENDBRANCH  16  23
ENDBRANCH   6  15
BRANCH   7  25
ATOM     25  C   UNL     1      58.685  72.525  85.707  1.00  0.00     0.135 C 
BRANCH  25  26
ATOM     26  C   UNL     1      59.290  72.289  84.345  1.00  0.00    -0.040 A 
ATOM     27  C   UNL     1      58.516  72.468  83.198  1.00  0.00     0.004 A 
ATOM     28  C   UNL     1      60.622  71.894  84.233  1.00  0.00     0.004 A 
ATOM     29  C   UNL     1      59.075  72.250  81.939  1.00  0.00     0.000 A 
ATOM     30  C   UNL     1      61.181  71.676  82.973  1.00  0.00     0.000 A 
ATOM     31  C   UNL     1      60.407  71.854  81.827  1.00  0.00     0.000 A 
ENDBRANCH  25  26
ENDBRANCH   7  25
BRANCH  14  32
ATOM     32  C   UNL     1      58.964  74.602  89.613  1.00  0.00    -0.046 C 
ATOM     33  C   UNL     1      59.816  73.813  90.562  1.00  0.00     0.042 C 
ATOM     34  C   UNL     1      57.743  75.040  89.954  1.00  0.00     0.010 C 
ENDBRANCH  14  32
ENDBRANCH   3   4
BRANCH   2  35
ATOM     35  C   UNL     1      59.932  78.668  83.944  1.00  0.00     0.078 CG0
ATOM     36  G   UNL     1      61.187  77.981  84.480  1.00  0.00     0.000 G0
ENDBRANCH   2  35
ENDBRANCH   1   2
BRANCH   1  37
ATOM     37  O   UNL     1      57.323  80.088  83.893  1.00  0.00    -0.461 OA
BRANCH  37  38
ATOM     38  C   UNL     1      56.295  80.745  83.257  1.00  0.00     0.310 C 
ATOM     39  O   UNL     1      56.252  80.987  82.058  1.00  0.00    -0.252 OA
BRANCH  38  40
ATOM     40  C   UNL     1      55.234  81.119  84.265  1.00  0.00     0.158 C 
BRANCH  40  41
ATOM     41  C   UNL     1      55.784  81.305  85.656  1.00  0.00    -0.033 A 
ATOM     42  C   UNL     1      55.521  80.354  86.642  1.00  0.00     0.054 A 
ATOM     43  C   UNL     1      56.556  82.427  85.956  1.00  0.00     0.008 A 
ATOM     44  C   UNL     1      56.029  80.526  87.930  1.00  0.00     0.160 A 
ATOM     45  C   UNL     1      57.065  82.599  87.244  1.00  0.00     0.050 A 
ATOM     46  C   UNL     1      56.801  81.649  88.231  1.00  0.00     0.157 A 
BRANCH  44  47
ATOM     47  O   UNL     1      55.765  79.591  88.885  1.00  0.00    -0.493 OA
ATOM     48  C   UNL     1      55.955  78.224  88.524  1.00  0.00     0.278 C 
ENDBRANCH  44  47
BRANCH  46  49
ATOM     49  O   UNL     1      57.304  81.827  89.483  1.00  0.00    -0.504 OA
ATOM     50  H   UNL     1      58.200  81.450  89.522  1.00  0.00     0.293 HD
ENDBRANCH  46  49
ENDBRANCH  40  41
ENDBRANCH  38  40
ENDBRANCH  37  38
ENDBRANCH   1  37
TORSDOF 11
ENDMDL
MODEL 6
REMARK VINA RESULT:    -5.822     25.198     27.872
REMARK INTER + INTRA:         -11.269
REMARK INTER:                 -10.446
REMARK INTRA:                  -0.823
REMARK UNBOUND:                -1.023
REMARK SMILES C=C(C)[C@]12C[C@@H](C)[C@@]34O[C@](Cc5ccccc5)(O[C@@H]1[C@@H]3C=C(COC(=O)Cc1ccc(O)c(OC)c1)C[C@]1(O)C(=O)C(C)=C[C@@H]41)O2
REMARK SMILES IDX 23 1 22 2 21 3 20 4 9 5 8 6 10 7 6 8 18 9 46 10 19 11 5 12
REMARK SMILES IDX 7 13 4 14 45 15 38 16 44 17 40 18 42 20 41 21 43 22 39 23
REMARK SMILES IDX 11 25 12 26 13 27 17 28 14 29 16 30 15 31 2 32 3 33 1 34
REMARK SMILES IDX 37 35 24 37 25 38 26 39 27 40 28 41 36 42 29 43 33 44 30 45
REMARK SMILES IDX 31 46 34 47 35 48 32 49
REMARK H PARENT 39 24 32 50
REMARK Flexibility Score: 90.00
ROOT
ATOM      1  C   UNL     1      72.889  94.520  71.894  1.00  0.00     0.264 C 
ENDROOT
BRANCH   1   2
ATOM      2  C   UNL     1      73.911  95.593  72.185  1.00  0.00    -0.033 C 
ATOM      3  C   UNL     1      74.028  96.069  73.441  1.00  0.00    -0.015 C 
BRANCH   3   4
ATOM      4  C   UNL     1      74.912  97.186  73.971  1.00  0.00     0.078 C 
ATOM      5  O   UNL     1      77.011  96.135  74.753  1.00  0.00    -0.319 OA
ATOM      6  C   UNL     1      76.469  97.069  73.769  1.00  0.00     0.095 C 
ATOM      7  C   UNL     1      76.482  96.269  76.086  1.00  0.00     0.289 C 
ATOM      8  C   UNL     1      77.094  98.505  74.011  1.00  0.00     0.023 C 
ATOM      9  O   UNL     1      75.065  96.123  76.098  1.00  0.00    -0.320 OA
ATOM     10  O   UNL     1      76.741  97.555  76.644  1.00  0.00    -0.313 OA
ATOM     11  C   UNL     1      74.678  97.366  75.492  1.00  0.00     0.170 C 
ATOM     12  C   UNL     1      76.296  99.300  75.090  1.00  0.00     0.049 C 
ATOM     13  C   UNL     1      78.590  98.523  74.365  1.00  0.00     0.011 C 
ATOM     14  C   UNL     1      75.669  98.371  76.130  1.00  0.00     0.122 C 
BRANCH   6  15
ATOM     15  C   UNL     1      76.799  96.419  72.394  1.00  0.00     0.086 C 
ATOM     16  C   UNL     1      75.963  96.907  71.193  1.00  0.00     0.140 CG0
ATOM     17  C   UNL     1      78.210  96.464  71.878  1.00  0.00    -0.010 C 
ATOM     18  C   UNL     1      76.959  96.844  70.055  1.00  0.00     0.190 C 
ATOM     19  G   UNL     1      74.738  96.027  70.948  1.00  0.00     0.000 G0
ATOM     20  C   UNL     1      78.333  96.674  70.563  1.00  0.00    -0.008 C 
ATOM     21  O   UNL     1      76.689  96.968  68.870  1.00  0.00    -0.291 OA
ATOM     22  C   UNL     1      79.540  96.696  69.712  1.00  0.00     0.048 C 
BRANCH  16  23
ATOM     23  O   UNL     1      75.610  98.279  71.259  1.00  0.00    -0.381 OA
ATOM     24  H   UNL     1      76.421  98.799  71.380  1.00  0.00     0.212 HD
ENDBRANCH  16  23
ENDBRANCH   6  15
BRANCH   7  25
ATOM     25  C   UNL     1      77.114  95.203  76.958  1.00  0.00     0.135 C 
BRANCH  25  26
ATOM     26  C   UNL     1      76.121  94.143  77.365  1.00  0.00    -0.040 A 
ATOM     27  C   UNL     1      75.821  93.951  78.714  1.00  0.00     0.004 A 
ATOM     28  C   UNL     1      75.501  93.358  76.394  1.00  0.00     0.004 A 
ATOM     29  C   UNL     1      74.902  92.971  79.092  1.00  0.00     0.000 A 
ATOM     30  C   UNL     1      74.581  92.378  76.772  1.00  0.00     0.000 A 
ATOM     31  C   UNL     1      74.283  92.185  78.120  1.00  0.00     0.000 A 
ENDBRANCH  25  26
ENDBRANCH   7  25
BRANCH  14  32
ATOM     32  C   UNL     1      75.056  99.116  77.270  1.00  0.00    -0.046 C 
ATOM     33  C   UNL     1      73.561  99.056  77.374  1.00  0.00     0.042 C 
ATOM     34  C   UNL     1      75.800  99.801  78.152  1.00  0.00     0.010 C 
ENDBRANCH  14  32
ENDBRANCH   3   4
BRANCH   2  35
ATOM     35  C   UNL     1      74.709  96.002  70.962  1.00  0.00     0.078 CG0
ATOM     36  G   UNL     1      75.937  96.882  71.190  1.00  0.00     0.000 G0
ENDBRANCH   2  35
ENDBRANCH   1   2
BRANCH   1  37
ATOM     37  O   UNL     1      73.515  93.449  71.221  1.00  0.00    -0.461 OA
BRANCH  37  38
ATOM     38  C   UNL     1      73.746  92.315  71.965  1.00  0.00     0.310 C 
ATOM     39  O   UNL     1      73.299  92.106  73.084  1.00  0.00    -0.252 OA
BRANCH  38  40
ATOM     40  C   UNL     1      74.635  91.373  71.187  1.00  0.00     0.158 C 
BRANCH  40  41
ATOM     41  C   UNL     1      73.859  90.358  70.388  1.00  0.00    -0.033 A 
ATOM     42  C   UNL     1      74.533  89.343  69.708  1.00  0.00     0.054 A 
ATOM     43  C   UNL     1      72.467  90.432  70.329  1.00  0.00     0.008 A 
ATOM     44  C   UNL     1      73.815  88.403  68.968  1.00  0.00     0.160 A 
ATOM     45  C   UNL     1      71.749  89.492  69.590  1.00  0.00     0.050 A 
ATOM     46  C   UNL     1      72.422  88.478  68.909  1.00  0.00     0.157 A 
BRANCH  44  47
ATOM     47  O   UNL     1      74.484  87.417  68.308  1.00  0.00    -0.493 OA
ATOM     48  C   UNL     1      75.324  86.569  69.089  1.00  0.00     0.278 C 
ENDBRANCH  44  47
BRANCH  46  49
ATOM     49  O   UNL     1      71.711  87.565  68.192  1.00  0.00    -0.504 OA
ATOM     50  H   UNL     1      70.762  87.734  68.317  1.00  0.00     0.293 HD
ENDBRANCH  46  49
ENDBRANCH  40  41
ENDBRANCH  38  40
ENDBRANCH  37  38
ENDBRANCH   1  37
TORSDOF 11
ENDMDL
MODEL 7
REMARK VINA RESULT:    -5.811      2.377      3.488
REMARK INTER + INTRA:         -11.250
REMARK INTER:                  -9.850
REMARK INTRA:                  -1.400
REMARK UNBOUND:                -1.023
REMARK SMILES C=C(C)[C@]12C[C@@H](C)[C@@]34O[C@](Cc5ccccc5)(O[C@@H]1[C@@H]3C=C(COC(=O)Cc1ccc(O)c(OC)c1)C[C@]1(O)C(=O)C(C)=C[C@@H]41)O2
REMARK SMILES IDX 23 1 22 2 21 3 20 4 9 5 8 6 10 7 6 8 18 9 46 10 19 11 5 12
REMARK SMILES IDX 7 13 4 14 45 15 38 16 44 17 40 18 42 20 41 21 43 22 39 23
REMARK SMILES IDX 11 25 12 26 13 27 17 28 14 29 16 30 15 31 2 32 3 33 1 34
REMARK SMILES IDX 37 35 24 37 25 38 26 39 27 40 28 41 36 42 29 43 33 44 30 45
REMARK SMILES IDX 31 46 34 47 35 48 32 49
REMARK H PARENT 39 24 32 50
REMARK Flexibility Score: 90.00
ROOT
ATOM      1  C   UNL     1      96.928  75.208  84.524  1.00  0.00     0.264 C 
ENDROOT
BRANCH   1   2
ATOM      2  C   UNL     1      97.634  76.440  85.041  1.00  0.00    -0.033 C 
ATOM      3  C   UNL     1      98.176  77.307  84.162  1.00  0.00    -0.015 C 
BRANCH   3   4
ATOM      4  C   UNL     1      98.993  78.562  84.424  1.00  0.00     0.078 C 
ATOM      5  O   UNL     1      97.406  80.459  84.472  1.00  0.00    -0.319 OA
ATOM      6  C   UNL     1      98.351  79.706  85.294  1.00  0.00     0.095 C 
ATOM      7  C   UNL     1      97.852  80.757  83.136  1.00  0.00     0.289 C 
ATOM      8  C   UNL     1      99.520  80.668  85.760  1.00  0.00     0.023 C 
ATOM      9  O   UNL     1      98.180  79.568  82.423  1.00  0.00    -0.320 OA
ATOM     10  O   UNL     1      99.035  81.551  83.125  1.00  0.00    -0.313 OA
ATOM     11  C   UNL     1      99.406  79.210  83.079  1.00  0.00     0.170 C 
ATOM     12  C   UNL     1     100.647  80.760  84.686  1.00  0.00     0.049 C 
ATOM     13  C   UNL     1      99.086  82.085  86.169  1.00  0.00     0.011 C 
ATOM     14  C   UNL     1     100.096  80.584  83.271  1.00  0.00     0.122 C 
BRANCH   6  15
ATOM     15  C   UNL     1      97.481  79.107  86.437  1.00  0.00     0.086 C 
ATOM     16  C   UNL     1      98.080  77.898  87.185  1.00  0.00     0.140 CG0
ATOM     17  C   UNL     1      97.004  80.003  87.546  1.00  0.00    -0.010 C 
ATOM     18  C   UNL     1      97.569  78.102  88.596  1.00  0.00     0.190 C 
ATOM     19  G   UNL     1      97.628  76.567  86.585  1.00  0.00     0.000 G0
ATOM     20  C   UNL     1      97.016  79.458  88.767  1.00  0.00    -0.008 C 
ATOM     21  O   UNL     1      97.642  77.284  89.500  1.00  0.00    -0.291 OA
ATOM     22  C   UNL     1      96.547  80.005  90.057  1.00  0.00     0.048 C 
BRANCH  16  23
ATOM     23  O   UNL     1      99.490  77.951  87.325  1.00  0.00    -0.381 OA
ATOM     24  H   UNL     1      99.716  77.732  88.244  1.00  0.00     0.212 HD
ENDBRANCH  16  23
ENDBRANCH   6  15
BRANCH   7  25
ATOM     25  C   UNL     1      96.741  81.495  82.417  1.00  0.00     0.135 C 
BRANCH  25  26
ATOM     26  C   UNL     1      97.097  81.794  80.982  1.00  0.00    -0.040 A 
ATOM     27  C   UNL     1      97.087  83.111  80.521  1.00  0.00     0.004 A 
ATOM     28  C   UNL     1      97.437  80.755  80.116  1.00  0.00     0.004 A 
ATOM     29  C   UNL     1      97.417  83.388  79.194  1.00  0.00     0.000 A 
ATOM     30  C   UNL     1      97.767  81.032  78.789  1.00  0.00     0.000 A 
ATOM     31  C   UNL     1      97.756  82.349  78.329  1.00  0.00     0.000 A 
ENDBRANCH  25  26
ENDBRANCH   7  25
BRANCH  14  32
ATOM     32  C   UNL     1     101.122  80.849  82.217  1.00  0.00    -0.046 C 
ATOM     33  C   UNL     1     102.487  81.234  82.705  1.00  0.00     0.042 C 
ATOM     34  C   UNL     1     100.838  80.748  80.910  1.00  0.00     0.010 C 
ENDBRANCH  14  32
ENDBRANCH   3   4
BRANCH   2  35
ATOM     35  C   UNL     1      97.628  76.538  86.555  1.00  0.00     0.078 CG0
ATOM     36  G   UNL     1      98.064  77.867  87.171  1.00  0.00     0.000 G0
ENDBRANCH   2  35
ENDBRANCH   1   2
BRANCH   1  37
ATOM     37  O   UNL     1      96.044  74.727  85.513  1.00  0.00    -0.461 OA
BRANCH  37  38
ATOM     38  C   UNL     1      94.711  74.703  85.178  1.00  0.00     0.310 C 
ATOM     39  O   UNL     1      93.840  74.113  85.802  1.00  0.00    -0.252 OA
BRANCH  38  40
ATOM     40  C   UNL     1      94.491  75.514  83.922  1.00  0.00     0.158 C 
BRANCH  40  41
ATOM     41  C   UNL     1      93.331  76.469  84.035  1.00  0.00    -0.033 A 
ATOM     42  C   UNL     1      93.501  77.702  84.667  1.00  0.00     0.054 A 
ATOM     43  C   UNL     1      92.088  76.123  83.507  1.00  0.00     0.008 A 
ATOM     44  C   UNL     1      92.428  78.586  84.772  1.00  0.00     0.160 A 
ATOM     45  C   UNL     1      91.014  77.007  83.611  1.00  0.00     0.050 A 
ATOM     46  C   UNL     1      91.183  78.238  84.243  1.00  0.00     0.157 A 
BRANCH  44  47
ATOM     47  O   UNL     1      92.606  79.786  85.391  1.00  0.00    -0.493 OA
ATOM     48  C   UNL     1      93.928  80.101  85.826  1.00  0.00     0.278 C 
ENDBRANCH  44  47
BRANCH  46  49
ATOM     49  O   UNL     1      90.128  79.094  84.338  1.00  0.00    -0.504 OA
ATOM     50  H   UNL     1      89.767  79.052  85.240  1.00  0.00     0.293 HD
ENDBRANCH  46  49
ENDBRANCH  40  41
ENDBRANCH  38  40
ENDBRANCH  37  38
ENDBRANCH   1  37
TORSDOF 11
ENDMDL
MODEL 8
REMARK VINA RESULT:    -5.796     15.417     19.271
REMARK INTER + INTRA:         -11.223
REMARK INTER:                  -8.468
REMARK INTRA:                  -2.755
REMARK UNBOUND:                -1.023
REMARK SMILES C=C(C)[C@]12C[C@@H](C)[C@@]34O[C@](Cc5ccccc5)(O[C@@H]1[C@@H]3C=C(COC(=O)Cc1ccc(O)c(OC)c1)C[C@]1(O)C(=O)C(C)=C[C@@H]41)O2
REMARK SMILES IDX 23 1 22 2 21 3 20 4 9 5 8 6 10 7 6 8 18 9 46 10 19 11 5 12
REMARK SMILES IDX 7 13 4 14 45 15 38 16 44 17 40 18 42 20 41 21 43 22 39 23
REMARK SMILES IDX 11 25 12 26 13 27 17 28 14 29 16 30 15 31 2 32 3 33 1 34
REMARK SMILES IDX 37 35 24 37 25 38 26 39 27 40 28 41 36 42 29 43 33 44 30 45
REMARK SMILES IDX 31 46 34 47 35 48 32 49
REMARK H PARENT 39 24 32 50
REMARK Flexibility Score: 90.00
ROOT
ATOM      1  C   UNL     1      77.494  71.871  90.939  1.00  0.00     0.264 C 
ENDROOT
BRANCH   1   2
ATOM      2  C   UNL     1      77.302  72.113  89.460  1.00  0.00    -0.033 C 
ATOM      3  C   UNL     1      78.313  72.643  88.743  1.00  0.00    -0.015 C 
BRANCH   3   4
ATOM      4  C   UNL     1      78.347  73.049  87.278  1.00  0.00     0.078 C 
ATOM      5  O   UNL     1      79.168  71.093  86.006  1.00  0.00    -0.319 OA
ATOM      6  C   UNL     1      78.008  71.962  86.191  1.00  0.00     0.095 C 
ATOM      7  C   UNL     1      80.440  71.766  85.956  1.00  0.00     0.289 C 
ATOM      8  C   UNL     1      77.700  72.720  84.834  1.00  0.00     0.023 C 
ATOM      9  O   UNL     1      80.667  72.531  87.138  1.00  0.00    -0.320 OA
ATOM     10  O   UNL     1      80.521  72.692  84.877  1.00  0.00    -0.313 OA
ATOM     11  C   UNL     1      79.745  73.610  86.920  1.00  0.00     0.170 C 
ATOM     12  C   UNL     1      78.554  74.019  84.699  1.00  0.00     0.049 C 
ATOM     13  C   UNL     1      77.848  71.876  83.558  1.00  0.00     0.011 C 
ATOM     14  C   UNL     1      79.904  73.885  85.404  1.00  0.00     0.122 C 
BRANCH   6  15
ATOM     15  C   UNL     1      76.885  71.010  86.695  1.00  0.00     0.086 C 
ATOM     16  C   UNL     1      75.706  71.678  87.432  1.00  0.00     0.140 CG0
ATOM     17  C   UNL     1      76.210  70.087  85.719  1.00  0.00    -0.010 C 
ATOM     18  C   UNL     1      74.533  70.813  87.022  1.00  0.00     0.190 C 
ATOM     19  G   UNL     1      75.913  71.706  88.945  1.00  0.00     0.000 G0
ATOM     20  C   UNL     1      74.893  69.934  85.894  1.00  0.00    -0.008 C 
ATOM     21  O   UNL     1      73.415  70.858  87.513  1.00  0.00    -0.291 OA
ATOM     22  C   UNL     1      73.935  69.058  85.188  1.00  0.00     0.048 C 
BRANCH  16  23
ATOM     23  O   UNL     1      75.371  72.962  86.932  1.00  0.00    -0.381 OA
ATOM     24  H   UNL     1      75.694  73.630  87.559  1.00  0.00     0.212 HD
ENDBRANCH  16  23
ENDBRANCH   6  15
BRANCH   7  25
ATOM     25  C   UNL     1      81.526  70.719  85.807  1.00  0.00     0.135 C 
BRANCH  25  26
ATOM     26  C   UNL     1      82.207  70.420  87.120  1.00  0.00    -0.040 A 
ATOM     27  C   UNL     1      81.533  69.702  88.108  1.00  0.00     0.004 A 
ATOM     28  C   UNL     1      83.511  70.860  87.345  1.00  0.00     0.004 A 
ATOM     29  C   UNL     1      82.162  69.425  89.321  1.00  0.00     0.000 A 
ATOM     30  C   UNL     1      84.141  70.584  88.559  1.00  0.00     0.000 A 
ATOM     31  C   UNL     1      83.466  69.866  89.547  1.00  0.00     0.000 A 
ENDBRANCH  25  26
ENDBRANCH   7  25
BRANCH  14  32
ATOM     32  C   UNL     1      80.810  75.042  85.135  1.00  0.00    -0.046 C 
ATOM     33  C   UNL     1      81.011  75.405  83.694  1.00  0.00     0.042 C 
ATOM     34  C   UNL     1      81.410  75.718  86.126  1.00  0.00     0.010 C 
ENDBRANCH  14  32
ENDBRANCH   3   4
BRANCH   2  35
ATOM     35  C   UNL     1      75.930  71.698  88.963  1.00  0.00     0.078 CG0
ATOM     36  G   UNL     1      75.711  71.682  87.450  1.00  0.00     0.000 G0
ENDBRANCH   2  35
ENDBRANCH   1   2
BRANCH   1  37
ATOM     37  O   UNL     1      78.154  72.979  91.512  1.00  0.00    -0.461 OA
BRANCH  37  38
ATOM     38  C   UNL     1      79.128  72.693  92.441  1.00  0.00     0.310 C 
ATOM     39  O   UNL     1      78.976  72.738  93.654  1.00  0.00    -0.252 OA
BRANCH  38  40
ATOM     40  C   UNL     1      80.407  72.316  91.732  1.00  0.00     0.158 C 
BRANCH  40  41
ATOM     41  C   UNL     1      81.050  73.479  91.021  1.00  0.00    -0.033 A 
ATOM     42  C   UNL     1      80.522  74.763  91.166  1.00  0.00     0.054 A 
ATOM     43  C   UNL     1      82.171  73.273  90.218  1.00  0.00     0.008 A 
ATOM     44  C   UNL     1      81.117  75.840  90.508  1.00  0.00     0.160 A 
ATOM     45  C   UNL     1      82.766  74.350  89.560  1.00  0.00     0.050 A 
ATOM     46  C   UNL     1      82.239  75.633  89.705  1.00  0.00     0.157 A 
BRANCH  44  47
ATOM     47  O   UNL     1      80.593  77.088  90.657  1.00  0.00    -0.493 OA
ATOM     48  C   UNL     1      79.796  77.323  91.818  1.00  0.00     0.278 C 
ENDBRANCH  44  47
BRANCH  46  49
ATOM     49  O   UNL     1      82.829  76.677  89.058  1.00  0.00    -0.504 OA
ATOM     50  H   UNL     1      82.793  76.517  88.100  1.00  0.00     0.293 HD
ENDBRANCH  46  49
ENDBRANCH  40  41
ENDBRANCH  38  40
ENDBRANCH  37  38
ENDBRANCH   1  37
TORSDOF 11
ENDMDL
MODEL 9
REMARK VINA RESULT:    -5.728     30.596     35.164
REMARK INTER + INTRA:         -11.105
REMARK INTER:                 -10.513
REMARK INTRA:                  -0.591
REMARK UNBOUND:                -1.023
REMARK SMILES C=C(C)[C@]12C[C@@H](C)[C@@]34O[C@](Cc5ccccc5)(O[C@@H]1[C@@H]3C=C(COC(=O)Cc1ccc(O)c(OC)c1)C[C@]1(O)C(=O)C(C)=C[C@@H]41)O2
REMARK SMILES IDX 23 1 22 2 21 3 20 4 9 5 8 6 10 7 6 8 18 9 46 10 19 11 5 12
REMARK SMILES IDX 7 13 4 14 45 15 38 16 44 17 40 18 42 20 41 21 43 22 39 23
REMARK SMILES IDX 11 25 12 26 13 27 17 28 14 29 16 30 15 31 2 32 3 33 1 34
REMARK SMILES IDX 37 35 24 37 25 38 26 39 27 40 28 41 36 42 29 43 33 44 30 45
REMARK SMILES IDX 31 46 34 47 35 48 32 49
REMARK H PARENT 39 24 32 50
REMARK Flexibility Score: 90.00
ROOT
ATOM      1  C   UNL     1      57.733  79.602  84.209  1.00  0.00     0.264 C 
ENDROOT
BRANCH   1   2
ATOM      2  C   UNL     1      58.824  78.572  84.385  1.00  0.00    -0.033 C 
ATOM      3  C   UNL     1      59.983  78.718  83.711  1.00  0.00    -0.015 C 
BRANCH   3   4
ATOM      4  C   UNL     1      61.189  77.795  83.655  1.00  0.00     0.078 C 
ATOM      5  O   UNL     1      62.742  78.531  85.435  1.00  0.00    -0.319 OA
ATOM      6  C   UNL     1      61.903  77.414  85.006  1.00  0.00     0.095 C 
ATOM      7  C   UNL     1      63.503  79.167  84.391  1.00  0.00     0.289 C 
ATOM      8  C   UNL     1      62.817  76.150  84.725  1.00  0.00     0.023 C 
ATOM      9  O   UNL     1      62.655  79.649  83.352  1.00  0.00    -0.320 OA
ATOM     10  O   UNL     1      64.412  78.269  83.760  1.00  0.00    -0.313 OA
ATOM     11  C   UNL     1      62.277  78.406  82.739  1.00  0.00     0.170 C 
ATOM     12  C   UNL     1      63.394  76.173  83.276  1.00  0.00     0.049 C 
ATOM     13  C   UNL     1      63.962  75.928  85.727  1.00  0.00     0.011 C 
ATOM     14  C   UNL     1      63.601  77.602  82.771  1.00  0.00     0.122 C 
BRANCH   6  15
ATOM     15  C   UNL     1      60.863  77.246  86.151  1.00  0.00     0.086 C 
ATOM     16  C   UNL     1      59.564  76.498  85.786  1.00  0.00     0.140 CG0
ATOM     17  C   UNL     1      61.287  76.601  87.441  1.00  0.00    -0.010 C 
ATOM     18  C   UNL     1      59.237  75.767  87.070  1.00  0.00     0.190 C 
ATOM     19  G   UNL     1      58.451  77.453  85.356  1.00  0.00     0.000 G0
ATOM     20  C   UNL     1      60.384  75.786  87.997  1.00  0.00    -0.008 C 
ATOM     21  O   UNL     1      58.188  75.187  87.308  1.00  0.00    -0.291 OA
ATOM     22  C   UNL     1      60.423  75.059  89.283  1.00  0.00     0.048 C 
BRANCH  16  23
ATOM     23  O   UNL     1      59.747  75.457  84.841  1.00  0.00    -0.381 OA
ATOM     24  H   UNL     1      59.204  75.653  84.060  1.00  0.00     0.212 HD
ENDBRANCH  16  23
ENDBRANCH   6  15
BRANCH   7  25
ATOM     25  C   UNL     1      64.273  80.321  85.000  1.00  0.00     0.135 C 
BRANCH  25  26
ATOM     26  C   UNL     1      63.910  81.640  84.366  1.00  0.00    -0.040 A 
ATOM     27  C   UNL     1      64.091  81.828  82.995  1.00  0.00     0.004 A 
ATOM     28  C   UNL     1      63.391  82.672  85.148  1.00  0.00     0.004 A 
ATOM     29  C   UNL     1      63.754  83.048  82.408  1.00  0.00     0.000 A 
ATOM     30  C   UNL     1      63.055  83.892  84.561  1.00  0.00     0.000 A 
ATOM     31  C   UNL     1      63.237  84.079  83.190  1.00  0.00     0.000 A 
ENDBRANCH  25  26
ENDBRANCH   7  25
BRANCH  14  32
ATOM     32  C   UNL     1      64.320  77.650  81.463  1.00  0.00    -0.046 C 
ATOM     33  C   UNL     1      65.716  77.104  81.453  1.00  0.00     0.042 C 
ATOM     34  C   UNL     1      63.748  78.154  80.358  1.00  0.00     0.010 C 
ENDBRANCH  14  32
ENDBRANCH   3   4
BRANCH   2  35
ATOM     35  C   UNL     1      58.447  77.465  85.351  1.00  0.00     0.078 CG0
ATOM     36  G   UNL     1      59.560  76.519  85.798  1.00  0.00     0.000 G0
ENDBRANCH   2  35
ENDBRANCH   1   2
BRANCH   1  37
ATOM     37  O   UNL     1      57.947  80.668  85.109  1.00  0.00    -0.461 OA
BRANCH  37  38
ATOM     38  C   UNL     1      56.869  81.042  85.877  1.00  0.00     0.310 C 
ATOM     39  O   UNL     1      55.948  81.751  85.497  1.00  0.00    -0.252 OA
BRANCH  38  40
ATOM     40  C   UNL     1      57.001  80.442  87.257  1.00  0.00     0.158 C 
BRANCH  40  41
ATOM     41  C   UNL     1      56.419  81.317  88.337  1.00  0.00    -0.033 A 
ATOM     42  C   UNL     1      56.979  82.568  88.599  1.00  0.00     0.054 A 
ATOM     43  C   UNL     1      55.320  80.878  89.074  1.00  0.00     0.008 A 
ATOM     44  C   UNL     1      56.440  83.378  89.598  1.00  0.00     0.160 A 
ATOM     45  C   UNL     1      54.780  81.688  90.073  1.00  0.00     0.050 A 
ATOM     46  C   UNL     1      55.340  82.938  90.336  1.00  0.00     0.157 A 
BRANCH  44  47
ATOM     47  O   UNL     1      56.996  84.597  89.845  1.00  0.00    -0.493 OA
ATOM     48  C   UNL     1      57.998  85.049  88.935  1.00  0.00     0.278 C 
ENDBRANCH  44  47
BRANCH  46  49
ATOM     49  O   UNL     1      54.804  83.720  91.313  1.00  0.00    -0.504 OA
ATOM     50  H   UNL     1      54.617  84.601  90.946  1.00  0.00     0.293 HD
ENDBRANCH  46  49
ENDBRANCH  40  41
ENDBRANCH  38  40
ENDBRANCH  37  38
ENDBRANCH   1  37
TORSDOF 11
ENDMDL
MODEL 10
REMARK VINA RESULT:    -5.401     30.970     34.991
REMARK INTER + INTRA:         -10.529
REMARK INTER:                  -9.513
REMARK INTRA:                  -1.016
REMARK UNBOUND:                -1.023
REMARK SMILES C=C(C)[C@]12C[C@@H](C)[C@@]34O[C@](Cc5ccccc5)(O[C@@H]1[C@@H]3C=C(COC(=O)Cc1ccc(O)c(OC)c1)C[C@]1(O)C(=O)C(C)=C[C@@H]41)O2
REMARK SMILES IDX 23 1 22 2 21 3 20 4 9 5 8 6 10 7 6 8 18 9 46 10 19 11 5 12
REMARK SMILES IDX 7 13 4 14 45 15 38 16 44 17 40 18 42 20 41 21 43 22 39 23
REMARK SMILES IDX 11 25 12 26 13 27 17 28 14 29 16 30 15 31 2 32 3 33 1 34
REMARK SMILES IDX 37 35 24 37 25 38 26 39 27 40 28 41 36 42 29 43 33 44 30 45
REMARK SMILES IDX 31 46 34 47 35 48 32 49
REMARK H PARENT 39 24 32 50
REMARK Flexibility Score: 90.00
ROOT
ATOM      1  C   UNL     1      58.080  78.125  86.317  1.00  0.00     0.264 C 
ENDROOT
BRANCH   1   2
ATOM      2  C   UNL     1      59.389  77.480  85.926  1.00  0.00    -0.033 C 
ATOM      3  C   UNL     1      60.121  78.024  84.932  1.00  0.00    -0.015 C 
BRANCH   3   4
ATOM      4  C   UNL     1      61.415  77.530  84.307  1.00  0.00     0.078 C 
ATOM      5  O   UNL     1      63.269  78.604  85.544  1.00  0.00    -0.319 OA
ATOM      6  C   UNL     1      62.663  77.310  85.242  1.00  0.00     0.095 C 
ATOM      7  C   UNL     1      63.376  79.510  84.430  1.00  0.00     0.289 C 
ATOM      8  C   UNL     1      63.704  76.416  84.449  1.00  0.00     0.023 C 
ATOM      9  O   UNL     1      62.101  79.765  83.846  1.00  0.00    -0.320 OA
ATOM     10  O   UNL     1      64.182  78.983  83.379  1.00  0.00    -0.313 OA
ATOM     11  C   UNL     1      61.867  78.507  83.193  1.00  0.00     0.170 C 
ATOM     12  C   UNL     1      63.659  76.708  82.918  1.00  0.00     0.049 C 
ATOM     13  C   UNL     1      65.158  76.502  84.943  1.00  0.00     0.011 C 
ATOM     14  C   UNL     1      63.267  78.158  82.629  1.00  0.00     0.122 C 
BRANCH   6  15
ATOM     15  C   UNL     1      62.222  76.754  86.627  1.00  0.00     0.086 C 
ATOM     16  C   UNL     1      61.140  75.655  86.605  1.00  0.00     0.140 CG0
ATOM     17  C   UNL     1      63.261  76.203  87.563  1.00  0.00    -0.010 C 
ATOM     18  C   UNL     1      61.536  74.784  87.779  1.00  0.00     0.190 C 
ATOM     19  G   UNL     1      59.731  76.229  86.752  1.00  0.00     0.000 G0
ATOM     20  C   UNL     1      62.896  75.113  88.246  1.00  0.00    -0.008 C 
ATOM     21  O   UNL     1      60.856  73.888  88.257  1.00  0.00    -0.291 OA
ATOM     22  C   UNL     1      63.615  74.363  89.296  1.00  0.00     0.048 C 
BRANCH  16  23
ATOM     23  O   UNL     1      61.230  74.782  85.491  1.00  0.00    -0.381 OA
ATOM     24  H   UNL     1      61.733  73.995  85.757  1.00  0.00     0.212 HD
ENDBRANCH  16  23
ENDBRANCH   6  15
BRANCH   7  25
ATOM     25  C   UNL     1      63.980  80.808  84.928  1.00  0.00     0.135 C 
BRANCH  25  26
ATOM     26  C   UNL     1      63.424  81.211  86.271  1.00  0.00    -0.040 A 
ATOM     27  C   UNL     1      64.208  81.078  87.418  1.00  0.00     0.004 A 
ATOM     28  C   UNL     1      62.128  81.716  86.367  1.00  0.00     0.004 A 
ATOM     29  C   UNL     1      63.694  81.451  88.661  1.00  0.00     0.000 A 
ATOM     30  C   UNL     1      61.614  82.089  87.610  1.00  0.00     0.000 A 
ATOM     31  C   UNL     1      62.398  81.956  88.756  1.00  0.00     0.000 A 
ENDBRANCH  25  26
ENDBRANCH   7  25
BRANCH  14  32
ATOM     32  C   UNL     1      63.394  78.510  81.183  1.00  0.00    -0.046 C 
ATOM     33  C   UNL     1      62.177  79.103  80.537  1.00  0.00     0.042 C 
ATOM     34  C   UNL     1      64.530  78.307  80.500  1.00  0.00     0.010 C 
ENDBRANCH  14  32
ENDBRANCH   3   4
BRANCH   2  35
ATOM     35  C   UNL     1      59.718  76.252  86.753  1.00  0.00     0.078 CG0
ATOM     36  G   UNL     1      61.118  75.659  86.599  1.00  0.00     0.000 G0
ENDBRANCH   2  35
ENDBRANCH   1   2
BRANCH   1  37
ATOM     37  O   UNL     1      58.012  79.419  85.758  1.00  0.00    -0.461 OA
BRANCH  37  38
ATOM     38  C   UNL     1      56.799  79.788  85.223  1.00  0.00     0.310 C 
ATOM     39  O   UNL     1      56.650  80.386  84.167  1.00  0.00    -0.252 OA
BRANCH  38  40
ATOM     40  C   UNL     1      55.686  79.339  86.141  1.00  0.00     0.158 C 
BRANCH  40  41
ATOM     41  C   UNL     1      55.522  80.231  87.345  1.00  0.00    -0.033 A 
ATOM     42  C   UNL     1      56.183  81.459  87.399  1.00  0.00     0.054 A 
ATOM     43  C   UNL     1      54.709  79.829  88.405  1.00  0.00     0.008 A 
ATOM     44  C   UNL     1      56.031  82.284  88.513  1.00  0.00     0.160 A 
ATOM     45  C   UNL     1      54.557  80.654  89.519  1.00  0.00     0.050 A 
ATOM     46  C   UNL     1      55.218  81.881  89.574  1.00  0.00     0.157 A 
BRANCH  44  47
ATOM     47  O   UNL     1      56.681  83.480  88.555  1.00  0.00    -0.493 OA
ATOM     48  C   UNL     1      56.939  84.121  87.307  1.00  0.00     0.278 C 
ENDBRANCH  44  47
BRANCH  46  49
ATOM     49  O   UNL     1      55.061  82.679  90.666  1.00  0.00    -0.504 OA
ATOM     50  H   UNL     1      55.875  82.652  91.198  1.00  0.00     0.293 HD
ENDBRANCH  46  49
ENDBRANCH  40  41
ENDBRANCH  38  40
ENDBRANCH  37  38
ENDBRANCH   1  37
TORSDOF 11
ENDMDL
