MODEL 1
REMARK VINA RESULT:    -6.049      0.000      0.000
REMARK INTER + INTRA:         -10.136
REMARK INTER:                  -9.408
REMARK INTRA:                  -0.728
REMARK UNBOUND:                -0.728
REMARK SMILES COc1cc(CNC(=O)CCCC/C=C/C(C)C)ccc1O
REMARK SMILES IDX 10 1 8 2 7 3 9 5 6 6 5 7 3 8 21 9 4 10 20 11 19 12 2 13 1 14
REMARK SMILES IDX 22 15 11 17 12 18 13 19 14 20 15 21 16 22 17 23 18 24
REMARK H PARENT 7 4 22 16
REMARK Flexibility Score: inf
ROOT
ATOM      1  C   UNL     1      83.220  68.850  71.719  1.00  0.00     0.100 C 
ENDROOT
BRANCH   1   2
ATOM      2  C   UNL     1      84.677  68.641  71.619  1.00  0.00     0.220 C 
ATOM      3  N   UNL     1      85.508  69.685  71.345  1.00  0.00    -0.352 N 
ATOM      4  H   UNL     1      85.046  70.571  71.198  1.00  0.00     0.163 HD
ATOM      5  O   UNL     1      85.124  67.485  71.817  1.00  0.00    -0.275 OA
BRANCH   3   6
ATOM      6  C   UNL     1      86.931  69.593  71.259  1.00  0.00     0.151 C 
BRANCH   6   7
ATOM      7  C   UNL     1      87.473  70.492  70.204  1.00  0.00    -0.025 A 
ATOM      8  C   UNL     1      87.273  71.525  67.977  1.00  0.00     0.160 A 
ATOM      9  C   UNL     1      88.483  72.217  68.189  1.00  0.00     0.157 A 
ATOM     10  C   UNL     1      86.781  70.668  68.984  1.00  0.00     0.056 A 
ATOM     11  C   UNL     1      89.195  72.037  69.392  1.00  0.00     0.050 A 
ATOM     12  C   UNL     1      88.689  71.189  70.396  1.00  0.00     0.009 A 
BRANCH   8  13
ATOM     13  O   UNL     1      86.611  71.646  66.782  1.00  0.00    -0.493 OA
ATOM     14  C   UNL     1      86.784  70.523  65.899  1.00  0.00     0.278 C 
ENDBRANCH   8  13
BRANCH   9  15
ATOM     15  O   UNL     1      88.978  73.060  67.246  1.00  0.00    -0.504 OA
ATOM     16  H   UNL     1      88.321  73.728  67.037  1.00  0.00     0.293 HD
ENDBRANCH   9  15
ENDBRANCH   6   7
ENDBRANCH   3   6
ENDBRANCH   1   2
BRANCH   1  17
ATOM     17  C   UNL     1      82.430  67.756  70.951  1.00  0.00     0.010 C 
BRANCH  17  18
ATOM     18  C   UNL     1      80.897  67.828  71.203  1.00  0.00     0.005 C 
BRANCH  18  19
ATOM     19  C   UNL     1      80.192  66.470  70.938  1.00  0.00     0.027 C 
BRANCH  19  20
ATOM     20  C   UNL     1      80.512  65.479  71.954  1.00  0.00    -0.031 C 
ATOM     21  C   UNL     1      80.214  65.611  73.260  1.00  0.00    -0.028 C 
BRANCH  21  22
ATOM     22  C   UNL     1      80.528  64.593  74.261  1.00  0.00     0.005 C 
ATOM     23  C   UNL     1      79.703  63.292  74.059  1.00  0.00     0.012 C 
ATOM     24  C   UNL     1      82.049  64.289  74.258  1.00  0.00     0.012 C 
ENDBRANCH  21  22
ENDBRANCH  19  20
ENDBRANCH  18  19
ENDBRANCH  17  18
ENDBRANCH   1  17
TORSDOF 10
ENDMDL
MODEL 2
REMARK VINA RESULT:    -5.985      4.630      7.234
REMARK INTER + INTRA:         -10.037
REMARK INTER:                  -7.810
REMARK INTRA:                  -2.227
REMARK UNBOUND:                -0.728
REMARK SMILES COc1cc(CNC(=O)CCCC/C=C/C(C)C)ccc1O
REMARK SMILES IDX 10 1 8 2 7 3 9 5 6 6 5 7 3 8 21 9 4 10 20 11 19 12 2 13 1 14
REMARK SMILES IDX 22 15 11 17 12 18 13 19 14 20 15 21 16 22 17 23 18 24
REMARK H PARENT 7 4 22 16
REMARK Flexibility Score: inf
ROOT
ATOM      1  C   UNL     1      81.743  67.880  70.871  1.00  0.00     0.100 C 
ENDROOT
BRANCH   1   2
ATOM      2  C   UNL     1      82.983  67.939  71.668  1.00  0.00     0.220 C 
ATOM      3  N   UNL     1      83.770  66.835  71.806  1.00  0.00    -0.352 N 
ATOM      4  H   UNL     1      83.422  66.003  71.348  1.00  0.00     0.163 HD
ATOM      5  O   UNL     1      83.300  69.034  72.192  1.00  0.00    -0.275 OA
BRANCH   3   6
ATOM      6  C   UNL     1      85.001  66.795  72.527  1.00  0.00     0.151 C 
BRANCH   6   7
ATOM      7  C   UNL     1      84.966  65.779  73.614  1.00  0.00    -0.025 A 
ATOM      8  C   UNL     1      85.738  64.988  75.814  1.00  0.00     0.160 A 
ATOM      9  C   UNL     1      84.896  63.861  75.705  1.00  0.00     0.157 A 
ATOM     10  C   UNL     1      85.766  65.934  74.768  1.00  0.00     0.056 A 
ATOM     11  C   UNL     1      84.107  63.684  74.551  1.00  0.00     0.050 A 
ATOM     12  C   UNL     1      84.134  64.640  73.517  1.00  0.00     0.009 A 
BRANCH   8  13
ATOM     13  O   UNL     1      86.556  65.132  76.906  1.00  0.00    -0.493 OA
ATOM     14  C   UNL     1      86.077  66.079  77.878  1.00  0.00     0.278 C 
ENDBRANCH   8  13
BRANCH   9  15
ATOM     15  O   UNL     1      84.835  62.939  76.700  1.00  0.00    -0.504 OA
ATOM     16  H   UNL     1      84.859  62.057  76.321  1.00  0.00     0.293 HD
ENDBRANCH   9  15
ENDBRANCH   6   7
ENDBRANCH   3   6
ENDBRANCH   1   2
BRANCH   1  17
ATOM     17  C   UNL     1      81.065  66.487  70.968  1.00  0.00     0.010 C 
BRANCH  17  18
ATOM     18  C   UNL     1      80.088  66.372  72.172  1.00  0.00     0.005 C 
BRANCH  18  19
ATOM     19  C   UNL     1      80.185  64.995  72.883  1.00  0.00     0.027 C 
BRANCH  19  20
ATOM     20  C   UNL     1      80.674  65.117  74.247  1.00  0.00    -0.031 C 
ATOM     21  C   UNL     1      81.006  66.284  74.830  1.00  0.00    -0.028 C 
BRANCH  21  22
ATOM     22  C   UNL     1      81.478  66.385  76.211  1.00  0.00     0.005 C 
ATOM     23  C   UNL     1      81.654  64.992  76.877  1.00  0.00     0.012 C 
ATOM     24  C   UNL     1      82.798  67.196  76.268  1.00  0.00     0.012 C 
ENDBRANCH  21  22
ENDBRANCH  19  20
ENDBRANCH  18  19
ENDBRANCH  17  18
ENDBRANCH   1  17
TORSDOF 10
ENDMDL
MODEL 3
REMARK VINA RESULT:    -5.932     22.639     24.332
REMARK INTER + INTRA:          -9.954
REMARK INTER:                  -9.180
REMARK INTRA:                  -0.775
REMARK UNBOUND:                -0.728
REMARK SMILES COc1cc(CNC(=O)CCCC/C=C/C(C)C)ccc1O
REMARK SMILES IDX 10 1 8 2 7 3 9 5 6 6 5 7 3 8 21 9 4 10 20 11 19 12 2 13 1 14
REMARK SMILES IDX 22 15 11 17 12 18 13 19 14 20 15 21 16 22 17 23 18 24
REMARK H PARENT 7 4 22 16
REMARK Flexibility Score: inf
ROOT
ATOM      1  C   UNL     1      62.313  83.759  68.320  1.00  0.00     0.100 C 
ENDROOT
BRANCH   1   2
ATOM      2  C   UNL     1      63.293  84.357  67.393  1.00  0.00     0.220 C 
ATOM      3  N   UNL     1      64.629  84.274  67.651  1.00  0.00    -0.352 N 
ATOM      4  H   UNL     1      64.868  83.805  68.514  1.00  0.00     0.163 HD
ATOM      5  O   UNL     1      62.863  84.917  66.356  1.00  0.00    -0.275 OA
BRANCH   3   6
ATOM      6  C   UNL     1      65.656  84.789  66.804  1.00  0.00     0.151 C 
BRANCH   6   7
ATOM      7  C   UNL     1      66.999  84.661  67.434  1.00  0.00    -0.025 A 
ATOM      8  C   UNL     1      68.657  85.427  69.086  1.00  0.00     0.160 A 
ATOM      9  C   UNL     1      69.547  84.420  68.660  1.00  0.00     0.157 A 
ATOM     10  C   UNL     1      67.394  85.540  68.468  1.00  0.00     0.056 A 
ATOM     11  C   UNL     1      69.175  83.549  67.618  1.00  0.00     0.050 A 
ATOM     12  C   UNL     1      67.907  83.661  67.015  1.00  0.00     0.009 A 
BRANCH   8  13
ATOM     13  O   UNL     1      69.040  86.319  70.055  1.00  0.00    -0.493 OA
ATOM     14  C   UNL     1      69.356  87.631  69.553  1.00  0.00     0.278 C 
ENDBRANCH   8  13
BRANCH   9  15
ATOM     15  O   UNL     1      70.765  84.276  69.243  1.00  0.00    -0.504 OA
ATOM     16  H   UNL     1      70.970  83.342  69.331  1.00  0.00     0.293 HD
ENDBRANCH   9  15
ENDBRANCH   6   7
ENDBRANCH   3   6
ENDBRANCH   1   2
BRANCH   1  17
ATOM     17  C   UNL     1      62.332  82.208  68.252  1.00  0.00     0.010 C 
BRANCH  17  18
ATOM     18  C   UNL     1      62.761  81.550  69.594  1.00  0.00     0.005 C 
BRANCH  18  19
ATOM     19  C   UNL     1      62.118  82.244  70.825  1.00  0.00     0.027 C 
BRANCH  19  20
ATOM     20  C   UNL     1      62.582  81.672  72.080  1.00  0.00    -0.031 C 
ATOM     21  C   UNL     1      63.806  81.142  72.262  1.00  0.00    -0.028 C 
BRANCH  21  22
ATOM     22  C   UNL     1      64.258  80.589  73.539  1.00  0.00     0.005 C 
ATOM     23  C   UNL     1      65.614  79.842  73.410  1.00  0.00     0.012 C 
ATOM     24  C   UNL     1      64.343  81.710  74.608  1.00  0.00     0.012 C 
ENDBRANCH  21  22
ENDBRANCH  19  20
ENDBRANCH  18  19
ENDBRANCH  17  18
ENDBRANCH   1  17
TORSDOF 10
ENDMDL
MODEL 4
REMARK VINA RESULT:    -5.930     20.938     23.059
REMARK INTER + INTRA:          -9.951
REMARK INTER:                  -8.505
REMARK INTRA:                  -1.446
REMARK UNBOUND:                -0.728
REMARK SMILES COc1cc(CNC(=O)CCCC/C=C/C(C)C)ccc1O
REMARK SMILES IDX 10 1 8 2 7 3 9 5 6 6 5 7 3 8 21 9 4 10 20 11 19 12 2 13 1 14
REMARK SMILES IDX 22 15 11 17 12 18 13 19 14 20 15 21 16 22 17 23 18 24
REMARK H PARENT 7 4 22 16
REMARK Flexibility Score: inf
ROOT
ATOM      1  C   UNL     1      75.992  84.262  68.144  1.00  0.00     0.100 C 
ENDROOT
BRANCH   1   2
ATOM      2  C   UNL     1      74.930  85.223  67.788  1.00  0.00     0.220 C 
ATOM      3  N   UNL     1      74.331  85.979  68.750  1.00  0.00    -0.352 N 
ATOM      4  H   UNL     1      74.654  85.805  69.692  1.00  0.00     0.163 HD
ATOM      5  O   UNL     1      74.616  85.338  66.579  1.00  0.00    -0.275 OA
BRANCH   3   6
ATOM      6  C   UNL     1      73.319  86.956  68.507  1.00  0.00     0.151 C 
BRANCH   6   7
ATOM      7  C   UNL     1      73.791  88.327  68.843  1.00  0.00    -0.025 A 
ATOM      8  C   UNL     1      73.532  90.413  70.125  1.00  0.00     0.160 A 
ATOM      9  C   UNL     1      74.689  90.936  69.509  1.00  0.00     0.157 A 
ATOM     10  C   UNL     1      73.093  89.117  69.785  1.00  0.00     0.056 A 
ATOM     11  C   UNL     1      75.383  90.168  68.554  1.00  0.00     0.050 A 
ATOM     12  C   UNL     1      74.944  88.870  68.229  1.00  0.00     0.009 A 
BRANCH   8  13
ATOM     13  O   UNL     1      72.815  91.182  71.006  1.00  0.00    -0.493 OA
ATOM     14  C   UNL     1      71.423  91.318  70.668  1.00  0.00     0.278 C 
ENDBRANCH   8  13
BRANCH   9  15
ATOM     15  O   UNL     1      75.145  92.175  69.824  1.00  0.00    -0.504 OA
ATOM     16  H   UNL     1      75.962  92.099  70.323  1.00  0.00     0.293 HD
ENDBRANCH   9  15
ENDBRANCH   6   7
ENDBRANCH   3   6
ENDBRANCH   1   2
BRANCH   1  17
ATOM     17  C   UNL     1      77.315  84.567  67.391  1.00  0.00     0.010 C 
BRANCH  17  18
ATOM     18  C   UNL     1      77.830  86.013  67.632  1.00  0.00     0.005 C 
BRANCH  18  19
ATOM     19  C   UNL     1      78.346  86.682  66.330  1.00  0.00     0.027 C 
BRANCH  19  20
ATOM     20  C   UNL     1      77.780  88.008  66.134  1.00  0.00    -0.031 C 
ATOM     21  C   UNL     1      77.799  88.674  64.965  1.00  0.00    -0.028 C 
BRANCH  21  22
ATOM     22  C   UNL     1      77.206  89.999  64.786  1.00  0.00     0.005 C 
ATOM     23  C   UNL     1      77.766  90.730  63.534  1.00  0.00     0.012 C 
ATOM     24  C   UNL     1      75.661  89.889  64.718  1.00  0.00     0.012 C 
ENDBRANCH  21  22
ENDBRANCH  19  20
ENDBRANCH  18  19
ENDBRANCH  17  18
ENDBRANCH   1  17
TORSDOF 10
ENDMDL
MODEL 5
REMARK VINA RESULT:    -5.669     27.257     28.967
REMARK INTER + INTRA:          -9.546
REMARK INTER:                  -8.850
REMARK INTRA:                  -0.696
REMARK UNBOUND:                -0.728
REMARK SMILES COc1cc(CNC(=O)CCCC/C=C/C(C)C)ccc1O
REMARK SMILES IDX 10 1 8 2 7 3 9 5 6 6 5 7 3 8 21 9 4 10 20 11 19 12 2 13 1 14
REMARK SMILES IDX 22 15 11 17 12 18 13 19 14 20 15 21 16 22 17 23 18 24
REMARK H PARENT 7 4 22 16
REMARK Flexibility Score: inf
ROOT
ATOM      1  C   UNL     1      82.983  91.959  88.607  1.00  0.00     0.100 C 
ENDROOT
BRANCH   1   2
ATOM      2  C   UNL     1      83.413  90.930  87.642  1.00  0.00     0.220 C 
ATOM      3  N   UNL     1      83.140  91.070  86.314  1.00  0.00    -0.352 N 
ATOM      4  H   UNL     1      82.615  91.899  86.072  1.00  0.00     0.163 HD
ATOM      5  O   UNL     1      84.054  89.942  88.075  1.00  0.00    -0.275 OA
BRANCH   3   6
ATOM      6  C   UNL     1      83.539  90.149  85.298  1.00  0.00     0.151 C 
BRANCH   6   7
ATOM      7  C   UNL     1      82.471  89.152  85.013  1.00  0.00    -0.025 A 
ATOM      8  C   UNL     1      81.596  86.858  85.199  1.00  0.00     0.160 A 
ATOM      9  C   UNL     1      80.435  87.243  84.496  1.00  0.00     0.157 A 
ATOM     10  C   UNL     1      82.602  87.815  85.449  1.00  0.00     0.056 A 
ATOM     11  C   UNL     1      80.299  88.569  84.038  1.00  0.00     0.050 A 
ATOM     12  C   UNL     1      81.304  89.519  84.303  1.00  0.00     0.009 A 
BRANCH   8  13
ATOM     13  O   UNL     1      81.762  85.554  85.589  1.00  0.00    -0.493 OA
ATOM     14  C   UNL     1      82.538  85.396  86.792  1.00  0.00     0.278 C 
ENDBRANCH   8  13
BRANCH   9  15
ATOM     15  O   UNL     1      79.442  86.351  84.251  1.00  0.00    -0.504 OA
ATOM     16  H   UNL     1      78.732  86.784  83.770  1.00  0.00     0.293 HD
ENDBRANCH   9  15
ENDBRANCH   6   7
ENDBRANCH   3   6
ENDBRANCH   1   2
BRANCH   1  17
ATOM     17  C   UNL     1      83.117  93.389  88.018  1.00  0.00     0.010 C 
BRANCH  17  18
ATOM     18  C   UNL     1      83.470  94.455  89.093  1.00  0.00     0.005 C 
BRANCH  18  19
ATOM     19  C   UNL     1      83.624  95.877  88.487  1.00  0.00     0.027 C 
BRANCH  19  20
ATOM     20  C   UNL     1      82.382  96.633  88.545  1.00  0.00    -0.031 C 
ATOM     21  C   UNL     1      81.749  97.130  87.467  1.00  0.00    -0.028 C 
BRANCH  21  22
ATOM     22  C   UNL     1      80.490  97.872  87.547  1.00  0.00     0.005 C 
ATOM     23  C   UNL     1      79.666  97.777  86.233  1.00  0.00     0.012 C 
ATOM     24  C   UNL     1      79.656  97.382  88.759  1.00  0.00     0.012 C 
ENDBRANCH  21  22
ENDBRANCH  19  20
ENDBRANCH  18  19
ENDBRANCH  17  18
ENDBRANCH   1  17
TORSDOF 10
ENDMDL
MODEL 6
REMARK VINA RESULT:    -5.608     21.060     24.793
REMARK INTER + INTRA:          -9.450
REMARK INTER:                  -8.862
REMARK INTRA:                  -0.588
REMARK UNBOUND:                -0.728
REMARK SMILES COc1cc(CNC(=O)CCCC/C=C/C(C)C)ccc1O
REMARK SMILES IDX 10 1 8 2 7 3 9 5 6 6 5 7 3 8 21 9 4 10 20 11 19 12 2 13 1 14
REMARK SMILES IDX 22 15 11 17 12 18 13 19 14 20 15 21 16 22 17 23 18 24
REMARK H PARENT 7 4 22 16
REMARK Flexibility Score: inf
ROOT
ATOM      1  C   UNL     1      96.809  83.769  83.740  1.00  0.00     0.100 C 
ENDROOT
BRANCH   1   2
ATOM      2  C   UNL     1      95.908  83.263  84.794  1.00  0.00     0.220 C 
ATOM      3  N   UNL     1      94.766  83.936  85.109  1.00  0.00    -0.352 N 
ATOM      4  H   UNL     1      94.617  84.791  84.589  1.00  0.00     0.163 HD
ATOM      5  O   UNL     1      96.212  82.190  85.369  1.00  0.00    -0.275 OA
BRANCH   3   6
ATOM      6  C   UNL     1      93.815  83.516  86.087  1.00  0.00     0.151 C 
BRANCH   6   7
ATOM      7  C   UNL     1      93.503  84.606  87.051  1.00  0.00    -0.025 A 
ATOM      8  C   UNL     1      94.109  86.739  88.121  1.00  0.00     0.160 A 
ATOM      9  C   UNL     1      92.915  86.704  88.870  1.00  0.00     0.157 A 
ATOM     10  C   UNL     1      94.393  85.690  87.221  1.00  0.00     0.056 A 
ATOM     11  C   UNL     1      92.027  85.620  88.725  1.00  0.00     0.050 A 
ATOM     12  C   UNL     1      92.313  84.583  87.815  1.00  0.00     0.009 A 
BRANCH   8  13
ATOM     13  O   UNL     1      95.008  87.759  88.307  1.00  0.00    -0.493 OA
ATOM     14  C   UNL     1      95.543  88.299  87.085  1.00  0.00     0.278 C 
ENDBRANCH   8  13
BRANCH   9  15
ATOM     15  O   UNL     1      92.605  87.704  89.735  1.00  0.00    -0.504 OA
ATOM     16  H   UNL     1      92.472  87.339  90.612  1.00  0.00     0.293 HD
ENDBRANCH   9  15
ENDBRANCH   6   7
ENDBRANCH   3   6
ENDBRANCH   1   2
BRANCH   1  17
ATOM     17  C   UNL     1      96.423  83.214  82.342  1.00  0.00     0.010 C 
BRANCH  17  18
ATOM     18  C   UNL     1      97.457  82.192  81.791  1.00  0.00     0.005 C 
BRANCH  18  19
ATOM     19  C   UNL     1      98.417  82.827  80.749  1.00  0.00     0.027 C 
BRANCH  19  20
ATOM     20  C   UNL     1      97.931  82.664  79.387  1.00  0.00    -0.031 C 
ATOM     21  C   UNL     1      98.696  82.806  78.289  1.00  0.00    -0.028 C 
BRANCH  21  22
ATOM     22  C   UNL     1      98.190  82.618  76.929  1.00  0.00     0.005 C 
ATOM     23  C   UNL     1      97.162  81.457  76.838  1.00  0.00     0.012 C 
ATOM     24  C   UNL     1      97.580  83.941  76.397  1.00  0.00     0.012 C 
ENDBRANCH  21  22
ENDBRANCH  19  20
ENDBRANCH  18  19
ENDBRANCH  17  18
ENDBRANCH   1  17
TORSDOF 10
ENDMDL
MODEL 7
REMARK VINA RESULT:    -5.532     18.689     21.276
REMARK INTER + INTRA:          -9.332
REMARK INTER:                  -8.560
REMARK INTRA:                  -0.772
REMARK UNBOUND:                -0.728
REMARK SMILES COc1cc(CNC(=O)CCCC/C=C/C(C)C)ccc1O
REMARK SMILES IDX 10 1 8 2 7 3 9 5 6 6 5 7 3 8 21 9 4 10 20 11 19 12 2 13 1 14
REMARK SMILES IDX 22 15 11 17 12 18 13 19 14 20 15 21 16 22 17 23 18 24
REMARK H PARENT 7 4 22 16
REMARK Flexibility Score: inf
ROOT
ATOM      1  C   UNL     1      75.839  84.372  68.356  1.00  0.00     0.100 C 
ENDROOT
BRANCH   1   2
ATOM      2  C   UNL     1      74.966  84.698  67.211  1.00  0.00     0.220 C 
ATOM      3  N   UNL     1      75.225  84.185  65.976  1.00  0.00    -0.352 N 
ATOM      4  H   UNL     1      76.052  83.606  65.919  1.00  0.00     0.163 HD
ATOM      5  O   UNL     1      73.972  85.436  67.416  1.00  0.00    -0.275 OA
BRANCH   3   6
ATOM      6  C   UNL     1      74.426  84.412  64.814  1.00  0.00     0.151 C 
BRANCH   6   7
ATOM      7  C   UNL     1      73.611  83.216  64.469  1.00  0.00    -0.025 A 
ATOM      8  C   UNL     1      71.444  82.223  63.851  1.00  0.00     0.160 A 
ATOM      9  C   UNL     1      72.045  80.948  63.791  1.00  0.00     0.157 A 
ATOM     10  C   UNL     1      72.231  83.343  64.192  1.00  0.00     0.056 A 
ATOM     11  C   UNL     1      73.415  80.803  64.084  1.00  0.00     0.050 A 
ATOM     12  C   UNL     1      74.195  81.929  64.412  1.00  0.00     0.009 A 
BRANCH   8  13
ATOM     13  O   UNL     1      70.097  82.359  63.631  1.00  0.00    -0.493 OA
ATOM     14  C   UNL     1      69.499  83.471  64.324  1.00  0.00     0.278 C 
ENDBRANCH   8  13
BRANCH   9  15
ATOM     15  O   UNL     1      71.318  79.851  63.453  1.00  0.00    -0.504 OA
ATOM     16  H   UNL     1      71.899  79.089  63.390  1.00  0.00     0.293 HD
ENDBRANCH   9  15
ENDBRANCH   6   7
ENDBRANCH   3   6
ENDBRANCH   1   2
BRANCH   1  17
ATOM     17  C   UNL     1      77.337  84.597  68.015  1.00  0.00     0.010 C 
BRANCH  17  18
ATOM     18  C   UNL     1      77.680  86.091  67.753  1.00  0.00     0.005 C 
BRANCH  18  19
ATOM     19  C   UNL     1      78.307  86.315  66.351  1.00  0.00     0.027 C 
BRANCH  19  20
ATOM     20  C   UNL     1      78.288  87.717  65.961  1.00  0.00    -0.031 C 
ATOM     21  C   UNL     1      77.557  88.210  64.945  1.00  0.00    -0.028 C 
BRANCH  21  22
ATOM     22  C   UNL     1      77.538  89.627  64.583  1.00  0.00     0.005 C 
ATOM     23  C   UNL     1      77.637  89.844  63.047  1.00  0.00     0.012 C 
ATOM     24  C   UNL     1      76.270  90.310  65.158  1.00  0.00     0.012 C 
ENDBRANCH  21  22
ENDBRANCH  19  20
ENDBRANCH  18  19
ENDBRANCH  17  18
ENDBRANCH   1  17
TORSDOF 10
ENDMDL
MODEL 8
REMARK VINA RESULT:    -5.410     25.924     27.113
REMARK INTER + INTRA:          -9.142
REMARK INTER:                  -7.680
REMARK INTRA:                  -1.462
REMARK UNBOUND:                -0.728
REMARK SMILES COc1cc(CNC(=O)CCCC/C=C/C(C)C)ccc1O
REMARK SMILES IDX 10 1 8 2 7 3 9 5 6 6 5 7 3 8 21 9 4 10 20 11 19 12 2 13 1 14
REMARK SMILES IDX 22 15 11 17 12 18 13 19 14 20 15 21 16 22 17 23 18 24
REMARK H PARENT 7 4 22 16
REMARK Flexibility Score: inf
ROOT
ATOM      1  C   UNL     1      82.500  92.775  88.453  1.00  0.00     0.100 C 
ENDROOT
BRANCH   1   2
ATOM      2  C   UNL     1      83.154  91.909  87.454  1.00  0.00     0.220 C 
ATOM      3  N   UNL     1      82.686  90.652  87.215  1.00  0.00    -0.352 N 
ATOM      4  H   UNL     1      81.897  90.376  87.784  1.00  0.00     0.163 HD
ATOM      5  O   UNL     1      84.133  92.373  86.819  1.00  0.00    -0.275 OA
BRANCH   3   6
ATOM      6  C   UNL     1      83.227  89.750  86.249  1.00  0.00     0.151 C 
BRANCH   6   7
ATOM      7  C   UNL     1      82.347  88.566  86.055  1.00  0.00    -0.025 A 
ATOM      8  C   UNL     1      81.268  86.939  84.554  1.00  0.00     0.160 A 
ATOM      9  C   UNL     1      80.687  86.297  85.666  1.00  0.00     0.157 A 
ATOM     10  C   UNL     1      82.090  88.067  84.757  1.00  0.00     0.056 A 
ATOM     11  C   UNL     1      80.918  86.794  86.964  1.00  0.00     0.050 A 
ATOM     12  C   UNL     1      81.749  87.914  87.159  1.00  0.00     0.009 A 
BRANCH   8  13
ATOM     13  O   UNL     1      80.993  86.498  83.284  1.00  0.00    -0.493 OA
ATOM     14  C   UNL     1      79.909  87.195  82.643  1.00  0.00     0.278 C 
ENDBRANCH   8  13
BRANCH   9  15
ATOM     15  O   UNL     1      79.901  85.201  85.506  1.00  0.00    -0.504 OA
ATOM     16  H   UNL     1      80.440  84.460  85.217  1.00  0.00     0.293 HD
ENDBRANCH   9  15
ENDBRANCH   6   7
ENDBRANCH   3   6
ENDBRANCH   1   2
BRANCH   1  17
ATOM     17  C   UNL     1      82.758  92.275  89.900  1.00  0.00     0.010 C 
BRANCH  17  18
ATOM     18  C   UNL     1      81.573  91.448  90.475  1.00  0.00     0.005 C 
BRANCH  18  19
ATOM     19  C   UNL     1      80.230  91.770  89.767  1.00  0.00     0.027 C 
BRANCH  19  20
ATOM     20  C   UNL     1      79.409  90.583  89.584  1.00  0.00    -0.031 C 
ATOM     21  C   UNL     1      79.802  89.336  89.902  1.00  0.00    -0.028 C 
BRANCH  21  22
ATOM     22  C   UNL     1      78.952  88.158  89.727  1.00  0.00     0.005 C 
ATOM     23  C   UNL     1      79.551  86.894  90.406  1.00  0.00     0.012 C 
ATOM     24  C   UNL     1      77.523  88.445  90.256  1.00  0.00     0.012 C 
ENDBRANCH  21  22
ENDBRANCH  19  20
ENDBRANCH  18  19
ENDBRANCH  17  18
ENDBRANCH   1  17
TORSDOF 10
ENDMDL
MODEL 9
REMARK VINA RESULT:    -5.357     20.043     22.837
REMARK INTER + INTRA:          -9.061
REMARK INTER:                  -8.298
REMARK INTRA:                  -0.762
REMARK UNBOUND:                -0.728
REMARK SMILES COc1cc(CNC(=O)CCCC/C=C/C(C)C)ccc1O
REMARK SMILES IDX 10 1 8 2 7 3 9 5 6 6 5 7 3 8 21 9 4 10 20 11 19 12 2 13 1 14
REMARK SMILES IDX 22 15 11 17 12 18 13 19 14 20 15 21 16 22 17 23 18 24
REMARK H PARENT 7 4 22 16
REMARK Flexibility Score: inf
ROOT
ATOM      1  C   UNL     1      78.254  88.071  66.452  1.00  0.00     0.100 C 
ENDROOT
BRANCH   1   2
ATOM      2  C   UNL     1      77.815  86.761  66.969  1.00  0.00     0.220 C 
ATOM      3  N   UNL     1      76.515  86.557  67.322  1.00  0.00    -0.352 N 
ATOM      4  H   UNL     1      75.914  87.364  67.222  1.00  0.00     0.163 HD
ATOM      5  O   UNL     1      78.665  85.841  67.050  1.00  0.00    -0.275 OA
BRANCH   3   6
ATOM      6  C   UNL     1      75.984  85.321  67.801  1.00  0.00     0.151 C 
BRANCH   6   7
ATOM      7  C   UNL     1      75.431  84.497  66.692  1.00  0.00    -0.025 A 
ATOM      8  C   UNL     1      73.637  84.043  65.067  1.00  0.00     0.160 A 
ATOM      9  C   UNL     1      74.370  82.948  64.564  1.00  0.00     0.157 A 
ATOM     10  C   UNL     1      74.173  84.805  66.127  1.00  0.00     0.056 A 
ATOM     11  C   UNL     1      75.616  82.617  65.130  1.00  0.00     0.050 A 
ATOM     12  C   UNL     1      76.148  83.391  66.180  1.00  0.00     0.009 A 
BRANCH   8  13
ATOM     13  O   UNL     1      72.394  84.329  64.563  1.00  0.00    -0.493 OA
ATOM     14  C   UNL     1      71.996  85.703  64.726  1.00  0.00     0.278 C 
ENDBRANCH   8  13
BRANCH   9  15
ATOM     15  O   UNL     1      73.889  82.203  63.535  1.00  0.00    -0.504 OA
ATOM     16  H   UNL     1      74.463  82.300  62.773  1.00  0.00     0.293 HD
ENDBRANCH   9  15
ENDBRANCH   6   7
ENDBRANCH   3   6
ENDBRANCH   1   2
BRANCH   1  17
ATOM     17  C   UNL     1      77.873  88.254  64.958  1.00  0.00     0.010 C 
BRANCH  17  18
ATOM     18  C   UNL     1      77.074  89.562  64.693  1.00  0.00     0.005 C 
BRANCH  18  19
ATOM     19  C   UNL     1      77.639  90.365  63.490  1.00  0.00     0.027 C 
BRANCH  19  20
ATOM     20  C   UNL     1      77.874  91.761  63.826  1.00  0.00    -0.031 C 
ATOM     21  C   UNL     1      76.951  92.573  64.371  1.00  0.00    -0.028 C 
BRANCH  21  22
ATOM     22  C   UNL     1      77.215  93.969  64.719  1.00  0.00     0.005 C 
ATOM     23  C   UNL     1      78.736  94.281  64.786  1.00  0.00     0.012 C 
ATOM     24  C   UNL     1      76.500  94.915  63.721  1.00  0.00     0.012 C 
ENDBRANCH  21  22
ENDBRANCH  19  20
ENDBRANCH  18  19
ENDBRANCH  17  18
ENDBRANCH   1  17
TORSDOF 10
ENDMDL
MODEL 10
REMARK VINA RESULT:    -5.356     22.860     26.113
REMARK INTER + INTRA:          -9.059
REMARK INTER:                  -8.299
REMARK INTRA:                  -0.760
REMARK UNBOUND:                -0.728
REMARK SMILES COc1cc(CNC(=O)CCCC/C=C/C(C)C)ccc1O
REMARK SMILES IDX 10 1 8 2 7 3 9 5 6 6 5 7 3 8 21 9 4 10 20 11 19 12 2 13 1 14
REMARK SMILES IDX 22 15 11 17 12 18 13 19 14 20 15 21 16 22 17 23 18 24
REMARK H PARENT 7 4 22 16
REMARK Flexibility Score: inf
ROOT
ATOM      1  C   UNL     1      96.117  83.552  85.630  1.00  0.00     0.100 C 
ENDROOT
BRANCH   1   2
ATOM      2  C   UNL     1      94.950  84.175  86.285  1.00  0.00     0.220 C 
ATOM      3  N   UNL     1      95.120  85.026  87.335  1.00  0.00    -0.352 N 
ATOM      4  H   UNL     1      96.079  85.162  87.623  1.00  0.00     0.163 HD
ATOM      5  O   UNL     1      93.809  83.916  85.832  1.00  0.00    -0.275 OA
BRANCH   3   6
ATOM      6  C   UNL     1      94.062  85.703  88.014  1.00  0.00     0.151 C 
BRANCH   6   7
ATOM      7  C   UNL     1      94.350  87.156  88.165  1.00  0.00    -0.025 A 
ATOM      8  C   UNL     1      93.966  89.293  89.325  1.00  0.00     0.160 A 
ATOM      9  C   UNL     1      94.903  89.921  88.480  1.00  0.00     0.157 A 
ATOM     10  C   UNL     1      93.697  87.918  89.159  1.00  0.00     0.056 A 
ATOM     11  C   UNL     1      95.548  89.178  87.471  1.00  0.00     0.050 A 
ATOM     12  C   UNL     1      95.282  87.803  87.321  1.00  0.00     0.009 A 
BRANCH   8  13
ATOM     13  O   UNL     1      93.287  90.027  90.265  1.00  0.00    -0.493 OA
ATOM     14  C   UNL     1      93.025  89.314  91.488  1.00  0.00     0.278 C 
ENDBRANCH   8  13
BRANCH   9  15
ATOM     15  O   UNL     1      95.195  91.240  88.622  1.00  0.00    -0.504 OA
ATOM     16  H   UNL     1      94.386  91.733  88.778  1.00  0.00     0.293 HD
ENDBRANCH   9  15
ENDBRANCH   6   7
ENDBRANCH   3   6
ENDBRANCH   1   2
BRANCH   1  17
ATOM     17  C   UNL     1      95.811  82.100  85.175  1.00  0.00     0.010 C 
BRANCH  17  18
ATOM     18  C   UNL     1      95.918  81.912  83.636  1.00  0.00     0.005 C 
BRANCH  18  19
ATOM     19  C   UNL     1      96.269  83.236  82.903  1.00  0.00     0.027 C 
BRANCH  19  20
ATOM     20  C   UNL     1      96.953  82.998  81.641  1.00  0.00    -0.031 C 
ATOM     21  C   UNL     1      97.189  81.777  81.127  1.00  0.00    -0.028 C 
BRANCH  21  22
ATOM     22  C   UNL     1      97.863  81.562  79.847  1.00  0.00     0.005 C 
ATOM     23  C   UNL     1      97.339  82.516  78.738  1.00  0.00     0.012 C 
ATOM     24  C   UNL     1      99.398  81.703  80.018  1.00  0.00     0.012 C 
ENDBRANCH  21  22
ENDBRANCH  19  20
ENDBRANCH  18  19
ENDBRANCH  17  18
ENDBRANCH   1  17
TORSDOF 10
ENDMDL
