MODEL 1
REMARK VINA RESULT:    -7.180      0.000      0.000
REMARK INTER + INTRA:          -8.838
REMARK INTER:                  -8.440
REMARK INTRA:                  -0.399
REMARK UNBOUND:                -0.399
REMARK SMILES O=C(/C=C/C=C/c1ccc2c(c1)OCO2)N1CCCCC1
REMARK SMILES IDX 3 1 4 2 2 3 1 4 16 5 17 6 21 7 18 8 20 9 19 10 5 11 6 12
REMARK SMILES IDX 7 13 12 14 8 15 11 16 9 17 13 18 10 19 14 20 15 21
REMARK H PARENT
REMARK Flexibility Score: inf
ROOT
ATOM      1  C   UNL     1      99.004  82.861  81.013  1.00  0.00     0.071 C 
ATOM      2  C   UNL     1      98.935  81.988  82.016  1.00  0.00     0.006 C 
ENDROOT
BRANCH   1   3
ATOM      3  C   UNL     1      99.834  82.510  79.843  1.00  0.00     0.246 C 
ATOM      4  O   UNL     1     100.818  81.795  80.038  1.00  0.00    -0.270 OA
ATOM      5  N   UNL     1      99.452  83.014  78.601  1.00  0.00    -0.339 N 
ATOM      6  C   UNL     1     100.260  82.687  77.422  1.00  0.00     0.120 C 
ATOM      7  C   UNL     1      98.312  83.904  78.337  1.00  0.00     0.120 C 
ATOM      8  C   UNL     1      99.403  82.105  76.303  1.00  0.00     0.022 C 
ATOM      9  C   UNL     1      97.429  83.356  77.217  1.00  0.00     0.022 C 
ATOM     10  C   UNL     1      98.241  83.033  75.965  1.00  0.00     0.004 C 
ENDBRANCH   1   3
BRANCH   2  11
ATOM     11  C   UNL     1      98.148  82.243  83.204  1.00  0.00     0.001 C 
ATOM     12  C   UNL     1      97.808  83.480  83.599  1.00  0.00     0.008 C 
BRANCH  12  13
ATOM     13  C   UNL     1      97.017  83.796  84.801  1.00  0.00    -0.022 A 
ATOM     14  C   UNL     1      96.922  85.116  85.219  1.00  0.00     0.058 A 
ATOM     15  C   UNL     1      96.384  82.756  85.487  1.00  0.00     0.012 A 
ATOM     16  C   UNL     1      96.170  85.361  86.350  1.00  0.00     0.166 A 
ATOM     17  C   UNL     1      95.629  83.034  86.629  1.00  0.00     0.051 A 
ATOM     18  O   UNL     1      95.958  86.580  86.918  1.00  0.00    -0.454 OA
ATOM     19  C   UNL     1      95.541  84.348  87.036  1.00  0.00     0.165 A 
ATOM     20  C   UNL     1      95.124  86.220  88.038  1.00  0.00     0.468 C 
ATOM     21  O   UNL     1      94.856  84.805  88.120  1.00  0.00    -0.454 OA
ENDBRANCH  12  13
ENDBRANCH   2  11
TORSDOF 3
ENDMDL
MODEL 2
REMARK VINA RESULT:    -6.982      2.687      8.785
REMARK INTER + INTRA:          -8.605
REMARK INTER:                  -8.210
REMARK INTRA:                  -0.395
REMARK UNBOUND:                -0.399
REMARK SMILES O=C(/C=C/C=C/c1ccc2c(c1)OCO2)N1CCCCC1
REMARK SMILES IDX 3 1 4 2 2 3 1 4 16 5 17 6 21 7 18 8 20 9 19 10 5 11 6 12
REMARK SMILES IDX 7 13 12 14 8 15 11 16 9 17 13 18 10 19 14 20 15 21
REMARK H PARENT
REMARK Flexibility Score: inf
ROOT
ATOM      1  C   UNL     1      98.373  83.222  84.737  1.00  0.00     0.071 C 
ATOM      2  C   UNL     1      98.245  82.161  83.942  1.00  0.00     0.006 C 
ENDROOT
BRANCH   1   3
ATOM      3  C   UNL     1      98.046  83.061  86.168  1.00  0.00     0.246 C 
ATOM      4  O   UNL     1      98.822  82.399  86.858  1.00  0.00    -0.270 OA
ATOM      5  N   UNL     1      96.881  83.664  86.639  1.00  0.00    -0.339 N 
ATOM      6  C   UNL     1      96.526  83.517  88.054  1.00  0.00     0.120 C 
ATOM      7  C   UNL     1      95.908  84.422  85.838  1.00  0.00     0.120 C 
ATOM      8  C   UNL     1      96.269  84.871  88.707  1.00  0.00     0.022 C 
ATOM      9  C   UNL     1      95.620  85.786  86.463  1.00  0.00     0.022 C 
ATOM     10  C   UNL     1      95.221  85.662  87.930  1.00  0.00     0.004 C 
ENDBRANCH   1   3
BRANCH   2  11
ATOM     11  C   UNL     1      98.541  82.220  82.527  1.00  0.00     0.001 C 
ATOM     12  C   UNL     1      98.012  83.146  81.711  1.00  0.00     0.008 C 
BRANCH  12  13
ATOM     13  C   UNL     1      98.273  83.247  80.265  1.00  0.00    -0.022 A 
ATOM     14  C   UNL     1      99.552  82.991  79.790  1.00  0.00     0.058 A 
ATOM     15  C   UNL     1      97.224  83.597  79.411  1.00  0.00     0.012 A 
ATOM     16  C   UNL     1      99.746  83.097  78.428  1.00  0.00     0.166 A 
ATOM     17  C   UNL     1      97.450  83.698  78.036  1.00  0.00     0.051 A 
ATOM     18  O   UNL     1     100.920  82.889  77.771  1.00  0.00    -0.454 OA
ATOM     19  C   UNL     1      98.724  83.441  77.574  1.00  0.00     0.165 A 
ATOM     20  C   UNL     1     100.521  83.140  76.408  1.00  0.00     0.468 C 
ATOM     21  O   UNL     1      99.128  83.491  76.276  1.00  0.00    -0.454 OA
ENDBRANCH  12  13
ENDBRANCH   2  11
TORSDOF 3
ENDMDL
MODEL 3
REMARK VINA RESULT:    -6.927      3.524      8.859
REMARK INTER + INTRA:          -8.540
REMARK INTER:                  -8.136
REMARK INTRA:                  -0.404
REMARK UNBOUND:                -0.399
REMARK SMILES O=C(/C=C/C=C/c1ccc2c(c1)OCO2)N1CCCCC1
REMARK SMILES IDX 3 1 4 2 2 3 1 4 16 5 17 6 21 7 18 8 20 9 19 10 5 11 6 12
REMARK SMILES IDX 7 13 12 14 8 15 11 16 9 17 13 18 10 19 14 20 15 21
REMARK H PARENT
REMARK Flexibility Score: inf
ROOT
ATOM      1  C   UNL     1      98.104  82.680  85.086  1.00  0.00     0.071 C 
ATOM      2  C   UNL     1      97.321  83.454  84.337  1.00  0.00     0.006 C 
ENDROOT
BRANCH   1   3
ATOM      3  C   UNL     1      97.814  82.589  86.531  1.00  0.00     0.246 C 
ATOM      4  O   UNL     1      96.769  82.031  86.867  1.00  0.00    -0.270 OA
ATOM      5  N   UNL     1      98.737  83.146  87.415  1.00  0.00    -0.339 N 
ATOM      6  C   UNL     1      98.473  83.076  88.856  1.00  0.00     0.120 C 
ATOM      7  C   UNL     1      99.970  83.859  87.050  1.00  0.00     0.120 C 
ATOM      8  C   UNL     1      99.654  82.476  89.610  1.00  0.00     0.022 C 
ATOM      9  C   UNL     1     101.179  83.287  87.790  1.00  0.00     0.022 C 
ATOM     10  C   UNL     1     100.943  83.229  89.297  1.00  0.00     0.004 C 
ENDBRANCH   1   3
BRANCH   2  11
ATOM     11  C   UNL     1      97.527  83.607  82.912  1.00  0.00     0.001 C 
ATOM     12  C   UNL     1      98.378  82.837  82.214  1.00  0.00     0.008 C 
BRANCH  12  13
ATOM     13  C   UNL     1      98.631  82.955  80.768  1.00  0.00    -0.022 A 
ATOM     14  C   UNL     1      97.612  83.404  79.939  1.00  0.00     0.058 A 
ATOM     15  C   UNL     1      99.890  82.611  80.271  1.00  0.00     0.012 A 
ATOM     16  C   UNL     1      97.897  83.498  78.592  1.00  0.00     0.166 A 
ATOM     17  C   UNL     1     100.151  82.716  78.903  1.00  0.00     0.051 A 
ATOM     18  O   UNL     1      97.038  83.914  77.621  1.00  0.00    -0.454 OA
ATOM     19  C   UNL     1      99.133  83.163  78.087  1.00  0.00     0.165 A 
ATOM     20  C   UNL     1      97.871  83.802  76.450  1.00  0.00     0.468 C 
ATOM     21  O   UNL     1      99.202  83.327  76.738  1.00  0.00    -0.454 OA
ENDBRANCH  12  13
ENDBRANCH   2  11
TORSDOF 3
ENDMDL
MODEL 4
REMARK VINA RESULT:    -6.837     24.996     26.174
REMARK INTER + INTRA:          -8.434
REMARK INTER:                  -8.056
REMARK INTRA:                  -0.378
REMARK UNBOUND:                -0.399
REMARK SMILES O=C(/C=C/C=C/c1ccc2c(c1)OCO2)N1CCCCC1
REMARK SMILES IDX 3 1 4 2 2 3 1 4 16 5 17 6 21 7 18 8 20 9 19 10 5 11 6 12
REMARK SMILES IDX 7 13 12 14 8 15 11 16 9 17 13 18 10 19 14 20 15 21
REMARK H PARENT
REMARK Flexibility Score: inf
ROOT
ATOM      1  C   UNL     1      77.047  85.733  67.780  1.00  0.00     0.071 C 
ATOM      2  C   UNL     1      77.298  85.964  69.067  1.00  0.00     0.006 C 
ENDROOT
BRANCH   1   3
ATOM      3  C   UNL     1      77.527  84.464  67.195  1.00  0.00     0.246 C 
ATOM      4  O   UNL     1      78.669  84.103  67.480  1.00  0.00    -0.270 OA
ATOM      5  N   UNL     1      76.658  83.765  66.359  1.00  0.00    -0.339 N 
ATOM      6  C   UNL     1      77.108  82.505  65.759  1.00  0.00     0.120 C 
ATOM      7  C   UNL     1      75.307  84.187  65.961  1.00  0.00     0.120 C 
ATOM      8  C   UNL     1      76.119  81.376  66.028  1.00  0.00     0.022 C 
ATOM      9  C   UNL     1      74.285  83.078  66.212  1.00  0.00     0.022 C 
ATOM     10  C   UNL     1      74.715  81.760  65.574  1.00  0.00     0.004 C 
ENDBRANCH   1   3
BRANCH   2  11
ATOM     11  C   UNL     1      76.869  87.178  69.729  1.00  0.00     0.001 C 
ATOM     12  C   UNL     1      75.590  87.409  70.064  1.00  0.00     0.008 C 
BRANCH  12  13
ATOM     13  C   UNL     1      75.098  88.627  70.729  1.00  0.00    -0.022 A 
ATOM     14  C   UNL     1      75.820  89.806  70.600  1.00  0.00     0.058 A 
ATOM     15  C   UNL     1      73.918  88.563  71.474  1.00  0.00     0.012 A 
ATOM     16  C   UNL     1      75.320  90.920  71.241  1.00  0.00     0.166 A 
ATOM     17  C   UNL     1      73.434  89.707  72.113  1.00  0.00     0.051 A 
ATOM     18  O   UNL     1      75.878  92.162  71.236  1.00  0.00    -0.454 OA
ATOM     19  C   UNL     1      74.158  90.873  71.978  1.00  0.00     0.165 A 
ATOM     20  C   UNL     1      74.938  92.890  72.052  1.00  0.00     0.468 C 
ATOM     21  O   UNL     1      73.844  92.078  72.526  1.00  0.00    -0.454 OA
ENDBRANCH  12  13
ENDBRANCH   2  11
TORSDOF 3
ENDMDL
MODEL 5
REMARK VINA RESULT:    -6.731      2.302      2.878
REMARK INTER + INTRA:          -8.310
REMARK INTER:                  -7.988
REMARK INTRA:                  -0.321
REMARK UNBOUND:                -0.399
REMARK SMILES O=C(/C=C/C=C/c1ccc2c(c1)OCO2)N1CCCCC1
REMARK SMILES IDX 3 1 4 2 2 3 1 4 16 5 17 6 21 7 18 8 20 9 19 10 5 11 6 12
REMARK SMILES IDX 7 13 12 14 8 15 11 16 9 17 13 18 10 19 14 20 15 21
REMARK H PARENT
REMARK Flexibility Score: inf
ROOT
ATOM      1  C   UNL     1      98.515  82.740  79.602  1.00  0.00     0.071 C 
ATOM      2  C   UNL     1      98.015  83.390  80.652  1.00  0.00     0.006 C 
ENDROOT
BRANCH   1   3
ATOM      3  C   UNL     1      98.255  83.290  78.257  1.00  0.00     0.246 C 
ATOM      4  O   UNL     1      97.154  83.803  78.054  1.00  0.00    -0.270 OA
ATOM      5  N   UNL     1      99.270  83.188  77.306  1.00  0.00    -0.339 N 
ATOM      6  C   UNL     1      99.039  83.720  75.959  1.00  0.00     0.120 C 
ATOM      7  C   UNL     1     100.578  82.543  77.496  1.00  0.00     0.120 C 
ATOM      8  C   UNL     1     100.148  84.679  75.542  1.00  0.00     0.022 C 
ATOM      9  C   UNL     1     101.718  83.474  77.085  1.00  0.00     0.022 C 
ATOM     10  C   UNL     1     101.518  84.021  75.674  1.00  0.00     0.004 C 
ENDBRANCH   1   3
BRANCH   2  11
ATOM     11  C   UNL     1      98.216  82.928  82.009  1.00  0.00     0.001 C 
ATOM     12  C   UNL     1      97.620  83.502  83.067  1.00  0.00     0.008 C 
BRANCH  12  13
ATOM     13  C   UNL     1      97.795  83.079  84.466  1.00  0.00    -0.022 A 
ATOM     14  C   UNL     1      98.057  84.039  85.434  1.00  0.00     0.058 A 
ATOM     15  C   UNL     1      97.693  81.722  84.782  1.00  0.00     0.012 A 
ATOM     16  C   UNL     1      98.213  83.594  86.731  1.00  0.00     0.166 A 
ATOM     17  C   UNL     1      97.855  81.299  86.103  1.00  0.00     0.051 A 
ATOM     18  O   UNL     1      98.475  84.374  87.816  1.00  0.00    -0.454 OA
ATOM     19  C   UNL     1      98.115  82.261  87.057  1.00  0.00     0.165 A 
ATOM     20  C   UNL     1      98.530  83.381  88.861  1.00  0.00     0.468 C 
ATOM     21  O   UNL     1      98.302  82.038  88.386  1.00  0.00    -0.454 OA
ENDBRANCH  12  13
ENDBRANCH   2  11
TORSDOF 3
ENDMDL
MODEL 6
REMARK VINA RESULT:    -6.661     24.342     26.529
REMARK INTER + INTRA:          -8.228
REMARK INTER:                  -7.878
REMARK INTRA:                  -0.350
REMARK UNBOUND:                -0.399
REMARK SMILES O=C(/C=C/C=C/c1ccc2c(c1)OCO2)N1CCCCC1
REMARK SMILES IDX 3 1 4 2 2 3 1 4 16 5 17 6 21 7 18 8 20 9 19 10 5 11 6 12
REMARK SMILES IDX 7 13 12 14 8 15 11 16 9 17 13 18 10 19 14 20 15 21
REMARK H PARENT
REMARK Flexibility Score: inf
ROOT
ATOM      1  C   UNL     1      75.329  90.346  70.686  1.00  0.00     0.071 C 
ATOM      2  C   UNL     1      75.237  89.019  70.758  1.00  0.00     0.006 C 
ENDROOT
BRANCH   1   3
ATOM      3  C   UNL     1      74.842  91.139  71.832  1.00  0.00     0.246 C 
ATOM      4  O   UNL     1      73.747  90.838  72.308  1.00  0.00    -0.270 OA
ATOM      5  N   UNL     1      75.651  92.176  72.294  1.00  0.00    -0.339 N 
ATOM      6  C   UNL     1      75.191  92.985  73.427  1.00  0.00     0.120 C 
ATOM      7  C   UNL     1      76.941  92.593  71.724  1.00  0.00     0.120 C 
ATOM      8  C   UNL     1      76.242  93.047  74.530  1.00  0.00     0.022 C 
ATOM      9  C   UNL     1      78.022  92.670  72.802  1.00  0.00     0.022 C 
ATOM     10  C   UNL     1      77.581  93.531  73.983  1.00  0.00     0.004 C 
ENDBRANCH   1   3
BRANCH   2  11
ATOM     11  C   UNL     1      75.686  88.157  69.685  1.00  0.00     0.001 C 
ATOM     12  C   UNL     1      76.430  87.060  69.899  1.00  0.00     0.008 C 
BRANCH  12  13
ATOM     13  C   UNL     1      76.920  86.154  68.846  1.00  0.00    -0.022 A 
ATOM     14  C   UNL     1      76.517  86.362  67.534  1.00  0.00     0.058 A 
ATOM     15  C   UNL     1      77.780  85.110  69.197  1.00  0.00     0.012 A 
ATOM     16  C   UNL     1      77.003  85.488  66.583  1.00  0.00     0.166 A 
ATOM     17  C   UNL     1      78.257  84.240  68.214  1.00  0.00     0.051 A 
ATOM     18  O   UNL     1      76.725  85.523  65.251  1.00  0.00    -0.454 OA
ATOM     19  C   UNL     1      77.850  84.455  66.914  1.00  0.00     0.165 A 
ATOM     20  C   UNL     1      77.492  84.396  64.781  1.00  0.00     0.468 C 
ATOM     21  O   UNL     1      78.209  83.714  65.830  1.00  0.00    -0.454 OA
ENDBRANCH  12  13
ENDBRANCH   2  11
TORSDOF 3
ENDMDL
MODEL 7
REMARK VINA RESULT:    -6.403      3.542      8.765
REMARK INTER + INTRA:          -7.924
REMARK INTER:                  -7.540
REMARK INTRA:                  -0.384
REMARK UNBOUND:                -0.399
REMARK SMILES O=C(/C=C/C=C/c1ccc2c(c1)OCO2)N1CCCCC1
REMARK SMILES IDX 3 1 4 2 2 3 1 4 16 5 17 6 21 7 18 8 20 9 19 10 5 11 6 12
REMARK SMILES IDX 7 13 12 14 8 15 11 16 9 17 13 18 10 19 14 20 15 21
REMARK H PARENT
REMARK Flexibility Score: inf
ROOT
ATOM      1  C   UNL     1      98.918  82.760  84.479  1.00  0.00     0.071 C 
ATOM      2  C   UNL     1      97.782  82.966  83.815  1.00  0.00     0.006 C 
ENDROOT
BRANCH   1   3
ATOM      3  C   UNL     1      98.830  82.394  85.907  1.00  0.00     0.246 C 
ATOM      4  O   UNL     1      97.784  82.660  86.500  1.00  0.00    -0.270 OA
ATOM      5  N   UNL     1      99.937  81.777  86.488  1.00  0.00    -0.339 N 
ATOM      6  C   UNL     1      99.882  81.406  87.905  1.00  0.00     0.120 C 
ATOM      7  C   UNL     1     101.217  81.485  85.825  1.00  0.00     0.120 C 
ATOM      8  C   UNL     1     100.243  79.939  88.112  1.00  0.00     0.022 C 
ATOM      9  C   UNL     1     101.616  80.021  86.013  1.00  0.00     0.022 C 
ATOM     10  C   UNL     1     101.595  79.615  87.484  1.00  0.00     0.004 C 
ENDBRANCH   1   3
BRANCH   2  11
ATOM     11  C   UNL     1      97.766  83.329  82.414  1.00  0.00     0.001 C 
ATOM     12  C   UNL     1      98.526  82.713  81.494  1.00  0.00     0.008 C 
BRANCH  12  13
ATOM     13  C   UNL     1      98.554  83.047  80.060  1.00  0.00    -0.022 A 
ATOM     14  C   UNL     1      99.742  82.905  79.357  1.00  0.00     0.058 A 
ATOM     15  C   UNL     1      97.383  83.499  79.447  1.00  0.00     0.012 A 
ATOM     16  C   UNL     1      99.719  83.230  78.016  1.00  0.00     0.166 A 
ATOM     17  C   UNL     1      97.388  83.821  78.088  1.00  0.00     0.051 A 
ATOM     18  O   UNL     1     100.774  83.159  77.159  1.00  0.00    -0.454 OA
ATOM     19  C   UNL     1      98.573  83.676  77.398  1.00  0.00     0.165 A 
ATOM     20  C   UNL     1     100.164  83.611  75.933  1.00  0.00     0.468 C 
ATOM     21  O   UNL     1      98.767  83.941  76.077  1.00  0.00    -0.454 OA
ENDBRANCH  12  13
ENDBRANCH   2  11
TORSDOF 3
ENDMDL
MODEL 8
REMARK VINA RESULT:    -6.323      9.803     14.889
REMARK INTER + INTRA:          -7.831
REMARK INTER:                  -7.442
REMARK INTRA:                  -0.388
REMARK UNBOUND:                -0.399
REMARK SMILES O=C(/C=C/C=C/c1ccc2c(c1)OCO2)N1CCCCC1
REMARK SMILES IDX 3 1 4 2 2 3 1 4 16 5 17 6 21 7 18 8 20 9 19 10 5 11 6 12
REMARK SMILES IDX 7 13 12 14 8 15 11 16 9 17 13 18 10 19 14 20 15 21
REMARK H PARENT
REMARK Flexibility Score: inf
ROOT
ATOM      1  C   UNL     1      92.511  94.073  90.923  1.00  0.00     0.071 C 
ATOM      2  C   UNL     1      92.056  92.922  91.415  1.00  0.00     0.006 C 
ENDROOT
BRANCH   1   3
ATOM      3  C   UNL     1      91.841  95.320  91.341  1.00  0.00     0.246 C 
ATOM      4  O   UNL     1      90.693  95.231  91.777  1.00  0.00    -0.270 OA
ATOM      5  N   UNL     1      92.549  96.513  91.209  1.00  0.00    -0.339 N 
ATOM      6  C   UNL     1      91.908  97.769  91.611  1.00  0.00     0.120 C 
ATOM      7  C   UNL     1      93.902  96.664  90.652  1.00  0.00     0.120 C 
ATOM      8  C   UNL     1      92.780  98.552  92.587  1.00  0.00     0.022 C 
ATOM      9  C   UNL     1      94.807  97.449  91.601  1.00  0.00     0.022 C 
ATOM     10  C   UNL     1      94.176  98.776  92.014  1.00  0.00     0.004 C 
ENDBRANCH   1   3
BRANCH   2  11
ATOM     11  C   UNL     1      92.647  91.648  91.064  1.00  0.00     0.001 C 
ATOM     12  C   UNL     1      93.819  91.544  90.417  1.00  0.00     0.008 C 
BRANCH  12  13
ATOM     13  C   UNL     1      94.460  90.276  90.029  1.00  0.00    -0.022 A 
ATOM     14  C   UNL     1      94.083  89.104  90.671  1.00  0.00     0.058 A 
ATOM     15  C   UNL     1      95.430  90.287  89.024  1.00  0.00     0.012 A 
ATOM     16  C   UNL     1      94.711  87.942  90.273  1.00  0.00     0.166 A 
ATOM     17  C   UNL     1      96.050  89.096  88.640  1.00  0.00     0.051 A 
ATOM     18  O   UNL     1      94.484  86.699  90.778  1.00  0.00    -0.454 OA
ATOM     19  C   UNL     1      95.669  87.938  89.285  1.00  0.00     0.165 A 
ATOM     20  C   UNL     1      95.406  85.912  89.997  1.00  0.00     0.468 C 
ATOM     21  O   UNL     1      96.161  86.692  89.047  1.00  0.00    -0.454 OA
ENDBRANCH  12  13
ENDBRANCH   2  11
TORSDOF 3
ENDMDL
MODEL 9
REMARK VINA RESULT:    -6.243      3.414      9.237
REMARK INTER + INTRA:          -7.737
REMARK INTER:                  -7.360
REMARK INTRA:                  -0.377
REMARK UNBOUND:                -0.399
REMARK SMILES O=C(/C=C/C=C/c1ccc2c(c1)OCO2)N1CCCCC1
REMARK SMILES IDX 3 1 4 2 2 3 1 4 16 5 17 6 21 7 18 8 20 9 19 10 5 11 6 12
REMARK SMILES IDX 7 13 12 14 8 15 11 16 9 17 13 18 10 19 14 20 15 21
REMARK H PARENT
REMARK Flexibility Score: inf
ROOT
ATOM      1  C   UNL     1      95.167  84.608  86.875  1.00  0.00     0.071 C 
ATOM      2  C   UNL     1      96.384  84.085  87.018  1.00  0.00     0.006 C 
ENDROOT
BRANCH   1   3
ATOM      3  C   UNL     1      94.391  84.906  88.096  1.00  0.00     0.246 C 
ATOM      4  O   UNL     1      94.696  85.916  88.731  1.00  0.00    -0.270 OA
ATOM      5  N   UNL     1      93.372  84.023  88.449  1.00  0.00    -0.339 N 
ATOM      6  C   UNL     1      92.588  84.289  89.659  1.00  0.00     0.120 C 
ATOM      7  C   UNL     1      93.011  82.785  87.742  1.00  0.00     0.120 C 
ATOM      8  C   UNL     1      91.092  84.286  89.365  1.00  0.00     0.022 C 
ATOM      9  C   UNL     1      91.515  82.742  87.432  1.00  0.00     0.022 C 
ATOM     10  C   UNL     1      90.672  82.989  88.681  1.00  0.00     0.004 C 
ENDBRANCH   1   3
BRANCH   2  11
ATOM     11  C   UNL     1      97.220  83.759  85.882  1.00  0.00     0.001 C 
ATOM     12  C   UNL     1      96.882  82.828  84.975  1.00  0.00     0.008 C 
BRANCH  12  13
ATOM     13  C   UNL     1      97.697  82.452  83.808  1.00  0.00    -0.022 A 
ATOM     14  C   UNL     1      97.801  83.337  82.744  1.00  0.00     0.058 A 
ATOM     15  C   UNL     1      98.344  81.213  83.804  1.00  0.00     0.012 A 
ATOM     16  C   UNL     1      98.576  82.940  81.673  1.00  0.00     0.166 A 
ATOM     17  C   UNL     1      99.122  80.837  82.707  1.00  0.00     0.051 A 
ATOM     18  O   UNL     1      98.801  83.661  80.540  1.00  0.00    -0.454 OA
ATOM     19  C   UNL     1      99.219  81.724  81.655  1.00  0.00     0.165 A 
ATOM     20  C   UNL     1      99.657  82.761  79.807  1.00  0.00     0.468 C 
ATOM     21  O   UNL     1      99.927  81.530  80.509  1.00  0.00    -0.454 OA
ENDBRANCH  12  13
ENDBRANCH   2  11
TORSDOF 3
ENDMDL
MODEL 10
REMARK VINA RESULT:    -6.156     16.239     17.592
REMARK INTER + INTRA:          -7.634
REMARK INTER:                  -7.289
REMARK INTRA:                  -0.345
REMARK UNBOUND:                -0.399
REMARK SMILES O=C(/C=C/C=C/c1ccc2c(c1)OCO2)N1CCCCC1
REMARK SMILES IDX 3 1 4 2 2 3 1 4 16 5 17 6 21 7 18 8 20 9 19 10 5 11 6 12
REMARK SMILES IDX 7 13 12 14 8 15 11 16 9 17 13 18 10 19 14 20 15 21
REMARK H PARENT
REMARK Flexibility Score: inf
ROOT
ATOM      1  C   UNL     1      92.631 100.440  74.294  1.00  0.00     0.071 C 
ATOM      2  C   UNL     1      93.064  99.181  74.312  1.00  0.00     0.006 C 
ENDROOT
BRANCH   1   3
ATOM      3  C   UNL     1      92.868 101.238  73.074  1.00  0.00     0.246 C 
ATOM      4  O   UNL     1      93.948 101.820  72.976  1.00  0.00    -0.270 OA
ATOM      5  N   UNL     1      91.852 101.284  72.121  1.00  0.00    -0.339 N 
ATOM      6  C   UNL     1      92.056 102.073  70.902  1.00  0.00     0.120 C 
ATOM      7  C   UNL     1      90.534 100.640  72.223  1.00  0.00     0.120 C 
ATOM      8  C   UNL     1      91.792 101.243  69.650  1.00  0.00     0.022 C 
ATOM      9  C   UNL     1      90.231  99.800  70.983  1.00  0.00     0.022 C 
ATOM     10  C   UNL     1      90.407 100.605  69.699  1.00  0.00     0.004 C 
ENDBRANCH   1   3
BRANCH   2  11
ATOM     11  C   UNL     1      92.879  98.320  75.461  1.00  0.00     0.001 C 
ATOM     12  C   UNL     1      93.701  97.296  75.741  1.00  0.00     0.008 C 
BRANCH  12  13
ATOM     13  C   UNL     1      93.555  96.386  76.890  1.00  0.00    -0.022 A 
ATOM     14  C   UNL     1      94.694  95.911  77.525  1.00  0.00     0.058 A 
ATOM     15  C   UNL     1      92.272  96.026  77.310  1.00  0.00     0.012 A 
ATOM     16  C   UNL     1      94.506  95.062  78.596  1.00  0.00     0.166 A 
ATOM     17  C   UNL     1      92.111  95.164  78.397  1.00  0.00     0.051 A 
ATOM     18  O   UNL     1      95.490  94.492  79.345  1.00  0.00    -0.454 OA
ATOM     19  C   UNL     1      93.249  94.698  79.021  1.00  0.00     0.165 A 
ATOM     20  C   UNL     1      94.711  93.729  80.288  1.00  0.00     0.468 C 
ATOM     21  O   UNL     1      93.288  93.855  80.089  1.00  0.00    -0.454 OA
ENDBRANCH  12  13
ENDBRANCH   2  11
TORSDOF 3
ENDMDL
