MODEL 1
REMARK VINA RESULT:    -5.989      0.000      0.000
REMARK INTER + INTRA:         -12.487
REMARK INTER:                 -10.190
REMARK INTRA:                  -2.297
REMARK UNBOUND:                -2.297
REMARK SMILES C=C(C)[C@]12C[C@@H](C)[C@@]34O[C@](Cc5ccccc5)(O[C@@H]1[C@@H]3C=C(COC(=O)Cc1ccc(O)cc1)C[C@]1(O)C(=O)C(C)=C[C@@H]41)O2
REMARK SMILES IDX 23 1 22 2 21 3 20 4 9 5 8 6 10 7 6 8 18 10 44 11 19 12 5 13
REMARK SMILES IDX 7 14 4 15 11 16 12 17 13 18 17 19 14 20 16 21 15 22 2 23
REMARK SMILES IDX 3 24 1 25 35 26 36 27 43 28 38 29 42 30 39 32 40 33 41 34
REMARK SMILES IDX 37 35 24 37 25 38 26 39 27 40 28 41 29 42 34 43 30 44 33 45
REMARK SMILES IDX 31 46 32 47
REMARK H PARENT 37 36 32 48
REMARK Flexibility Score: 90.00
ROOT
ATOM      1  C   UNL     1      62.251  87.652  70.757  1.00  0.00     0.264 C 
ENDROOT
BRANCH   1   2
ATOM      2  C   UNL     1      63.297  87.622  71.848  1.00  0.00    -0.033 C 
ATOM      3  C   UNL     1      62.905  87.664  73.138  1.00  0.00    -0.015 C 
BRANCH   3   4
ATOM      4  C   UNL     1      63.750  87.722  74.401  1.00  0.00     0.078 C 
ATOM      5  O   UNL     1      64.094  85.389  75.146  1.00  0.00    -0.319 OA
ATOM      6  C   UNL     1      64.795  86.575  74.657  1.00  0.00     0.095 CG0
ATOM      7  C   UNL     1      63.070  85.642  76.127  1.00  0.00     0.289 C 
ATOM      8  C   UNL     1      65.803  87.084  75.768  1.00  0.00     0.023 C 
ATOM      9  G   UNL     1      65.449  86.115  73.321  1.00  0.00     0.000 G0
ATOM     10  O   UNL     1      62.084  86.540  75.627  1.00  0.00    -0.320 OA
ATOM     11  O   UNL     1      63.587  86.254  77.306  1.00  0.00    -0.313 OA
ATOM     12  C   UNL     1      62.830  87.768  75.646  1.00  0.00     0.170 C 
ATOM     13  C   UNL     1      65.097  88.021  76.795  1.00  0.00     0.049 C 
ATOM     14  C   UNL     1      66.566  85.982  76.524  1.00  0.00     0.011 C 
ATOM     15  C   UNL     1      63.622  87.657  76.972  1.00  0.00     0.122 C 
BRANCH   7  16
ATOM     16  C   UNL     1      62.423  84.319  76.488  1.00  0.00     0.135 C 
BRANCH  16  17
ATOM     17  C   UNL     1      62.475  83.333  75.348  1.00  0.00    -0.040 A 
ATOM     18  C   UNL     1      63.548  82.450  75.237  1.00  0.00     0.004 A 
ATOM     19  C   UNL     1      61.448  83.305  74.405  1.00  0.00     0.004 A 
ATOM     20  C   UNL     1      63.596  81.538  74.183  1.00  0.00     0.000 A 
ATOM     21  C   UNL     1      61.495  82.393  73.350  1.00  0.00     0.000 A 
ATOM     22  C   UNL     1      62.569  81.510  73.239  1.00  0.00     0.000 A 
ENDBRANCH  16  17
ENDBRANCH   7  16
BRANCH  15  23
ATOM     23  C   UNL     1      62.972  88.420  78.080  1.00  0.00    -0.046 C 
ATOM     24  C   UNL     1      62.269  89.686  77.688  1.00  0.00     0.042 C 
ATOM     25  C   UNL     1      63.015  87.999  79.352  1.00  0.00     0.010 C 
ENDBRANCH  15  23
ENDBRANCH   3   4
BRANCH   2  26
ATOM     26  C   UNL     1      64.714  87.538  71.311  1.00  0.00     0.078 C 
BRANCH  26  27
ATOM     27  C   UNL     1      65.823  87.231  72.316  1.00  0.00     0.140 C 
ATOM     28  C   UNL     1      65.421  86.118  73.307  1.00  0.00     0.086 CG0
ATOM     29  C   UNL     1      67.057  86.650  71.658  1.00  0.00     0.190 C 
ATOM     30  C   UNL     1      66.628  85.221  73.333  1.00  0.00    -0.010 C 
ATOM     31  G   UNL     1      64.791  86.591  74.649  1.00  0.00     0.000 G0
ATOM     32  O   UNL     1      67.614  87.107  70.671  1.00  0.00    -0.291 OA
ATOM     33  C   UNL     1      67.551  85.476  72.402  1.00  0.00    -0.008 C 
ATOM     34  C   UNL     1      68.804  84.761  72.083  1.00  0.00     0.048 C 
BRANCH  27  35
ATOM     35  O   UNL     1      66.297  88.411  72.941  1.00  0.00    -0.381 OA
ATOM     36  H   UNL     1      66.733  88.961  72.268  1.00  0.00     0.212 HD
ENDBRANCH  27  35
ENDBRANCH  26  27
ENDBRANCH   2  26
ENDBRANCH   1   2
BRANCH   1  37
ATOM     37  O   UNL     1      61.035  87.142  71.263  1.00  0.00    -0.461 OA
BRANCH  37  38
ATOM     38  C   UNL     1      60.763  85.824  70.977  1.00  0.00     0.310 C 
ATOM     39  O   UNL     1      60.066  85.086  71.659  1.00  0.00    -0.252 OA
BRANCH  38  40
ATOM     40  C   UNL     1      61.456  85.434  69.693  1.00  0.00     0.158 C 
BRANCH  40  41
ATOM     41  C   UNL     1      62.439  84.307  69.875  1.00  0.00    -0.037 A 
ATOM     42  C   UNL     1      63.528  84.463  70.734  1.00  0.00     0.008 A 
ATOM     43  C   UNL     1      62.262  83.108  69.186  1.00  0.00     0.008 A 
ATOM     44  C   UNL     1      64.439  83.420  70.902  1.00  0.00     0.046 A 
ATOM     45  C   UNL     1      63.172  82.064  69.354  1.00  0.00     0.046 A 
ATOM     46  C   UNL     1      64.261  82.220  70.212  1.00  0.00     0.115 A 
BRANCH  46  47
ATOM     47  O   UNL     1      65.150  81.203  70.375  1.00  0.00    -0.508 OA
ATOM     48  H   UNL     1      64.671  80.411  70.674  1.00  0.00     0.293 HD
ENDBRANCH  46  47
ENDBRANCH  40  41
ENDBRANCH  38  40
ENDBRANCH  37  38
ENDBRANCH   1  37
TORSDOF 10
ENDMDL
MODEL 2
REMARK VINA RESULT:    -5.930     29.601     33.234
REMARK INTER + INTRA:         -12.387
REMARK INTER:                 -11.937
REMARK INTRA:                  -0.450
REMARK UNBOUND:                -2.297
REMARK SMILES C=C(C)[C@]12C[C@@H](C)[C@@]34O[C@](Cc5ccccc5)(O[C@@H]1[C@@H]3C=C(COC(=O)Cc1ccc(O)cc1)C[C@]1(O)C(=O)C(C)=C[C@@H]41)O2
REMARK SMILES IDX 23 1 22 2 21 3 20 4 9 5 8 6 10 7 6 8 18 10 44 11 19 12 5 13
REMARK SMILES IDX 7 14 4 15 11 16 12 17 13 18 17 19 14 20 16 21 15 22 2 23
REMARK SMILES IDX 3 24 1 25 35 26 36 27 43 28 38 29 42 30 39 32 40 33 41 34
REMARK SMILES IDX 37 35 24 37 25 38 26 39 27 40 28 41 29 42 34 43 30 44 33 45
REMARK SMILES IDX 31 46 32 47
REMARK H PARENT 37 36 32 48
REMARK Flexibility Score: 90.00
ROOT
ATOM      1  C   UNL     1      92.159 102.127  72.215  1.00  0.00     0.264 C 
ENDROOT
BRANCH   1   2
ATOM      2  C   UNL     1      93.561 101.755  72.639  1.00  0.00    -0.033 C 
ATOM      3  C   UNL     1      93.746 101.116  73.813  1.00  0.00    -0.015 C 
BRANCH   3   4
ATOM      4  C   UNL     1      95.043 100.705  74.493  1.00  0.00     0.078 C 
ATOM      5  O   UNL     1      95.527  98.387  73.782  1.00  0.00    -0.319 OA
ATOM      6  C   UNL     1      96.029  99.758  73.716  1.00  0.00     0.095 CG0
ATOM      7  C   UNL     1      95.022  97.978  75.068  1.00  0.00     0.289 C 
ATOM      8  C   UNL     1      97.437  99.835  74.438  1.00  0.00     0.023 C 
ATOM      9  G   UNL     1      96.037 100.095  72.196  1.00  0.00     0.000 G0
ATOM     10  O   UNL     1      93.973  98.835  75.509  1.00  0.00    -0.320 OA
ATOM     11  O   UNL     1      96.020  98.035  76.085  1.00  0.00    -0.313 OA
ATOM     12  C   UNL     1      94.731 100.009  75.841  1.00  0.00     0.170 C 
ATOM     13  C   UNL     1      97.281 100.049  75.974  1.00  0.00     0.049 C 
ATOM     14  C   UNL     1      98.378  98.646  74.181  1.00  0.00     0.011 C 
ATOM     15  C   UNL     1      95.996  99.414  76.507  1.00  0.00     0.122 C 
BRANCH   7  16
ATOM     16  C   UNL     1      94.507  96.557  74.946  1.00  0.00     0.135 C 
BRANCH  16  17
ATOM     17  C   UNL     1      93.792  96.105  76.194  1.00  0.00    -0.040 A 
ATOM     18  C   UNL     1      94.435  95.264  77.101  1.00  0.00     0.004 A 
ATOM     19  C   UNL     1      92.486  96.528  76.440  1.00  0.00     0.004 A 
ATOM     20  C   UNL     1      93.773  94.846  78.256  1.00  0.00     0.000 A 
ATOM     21  C   UNL     1      91.824  96.111  77.595  1.00  0.00     0.000 A 
ATOM     22  C   UNL     1      92.467  95.270  78.503  1.00  0.00     0.000 A 
ENDBRANCH  16  17
ENDBRANCH   7  16
BRANCH  15  23
ATOM     23  C   UNL     1      95.914  99.448  77.998  1.00  0.00    -0.046 C 
ATOM     24  C   UNL     1      95.628 100.785  78.615  1.00  0.00     0.042 C 
ATOM     25  C   UNL     1      96.087  98.346  78.744  1.00  0.00     0.010 C 
ENDBRANCH  15  23
ENDBRANCH   3   4
BRANCH   2  26
ATOM     26  C   UNL     1      94.617 102.166  71.631  1.00  0.00     0.078 C 
BRANCH  26  27
ATOM     27  C   UNL     1      96.026 101.612  71.831  1.00  0.00     0.140 C 
ATOM     28  C   UNL     1      96.018 100.113  72.194  1.00  0.00     0.086 CG0
ATOM     29  C   UNL     1      96.844 101.634  70.557  1.00  0.00     0.190 C 
ATOM     30  C   UNL     1      97.080  99.531  71.303  1.00  0.00    -0.010 C 
ATOM     31  G   UNL     1      96.027  99.776  73.714  1.00  0.00     0.000 G0
ATOM     32  O   UNL     1      96.963 102.592  69.808  1.00  0.00    -0.291 OA
ATOM     33  C   UNL     1      97.544 100.351  70.355  1.00  0.00    -0.008 C 
ATOM     34  C   UNL     1      98.514 100.098  69.270  1.00  0.00     0.048 C 
BRANCH  27  35
ATOM     35  O   UNL     1      96.776 102.415  72.728  1.00  0.00    -0.381 OA
ATOM     36  H   UNL     1      96.335 103.277  72.810  1.00  0.00     0.212 HD
ENDBRANCH  27  35
ENDBRANCH  26  27
ENDBRANCH   2  26
ENDBRANCH   1   2
BRANCH   1  37
ATOM     37  O   UNL     1      91.423 100.951  71.953  1.00  0.00    -0.461 OA
BRANCH  37  38
ATOM     38  C   UNL     1      90.146 101.127  71.473  1.00  0.00     0.310 C 
ATOM     39  O   UNL     1      89.150 101.280  72.166  1.00  0.00    -0.252 OA
BRANCH  38  40
ATOM     40  C   UNL     1      90.167 101.102  69.963  1.00  0.00     0.158 C 
BRANCH  40  41
ATOM     41  C   UNL     1      89.707  99.787  69.390  1.00  0.00    -0.037 A 
ATOM     42  C   UNL     1      89.318  99.706  68.053  1.00  0.00     0.008 A 
ATOM     43  C   UNL     1      89.670  98.650  70.196  1.00  0.00     0.008 A 
ATOM     44  C   UNL     1      88.891  98.488  67.523  1.00  0.00     0.046 A 
ATOM     45  C   UNL     1      89.244  97.431  69.666  1.00  0.00     0.046 A 
ATOM     46  C   UNL     1      88.854  97.351  68.330  1.00  0.00     0.115 A 
BRANCH  46  47
ATOM     47  O   UNL     1      88.438  96.163  67.813  1.00  0.00    -0.508 OA
ATOM     48  H   UNL     1      87.731  96.331  67.166  1.00  0.00     0.293 HD
ENDBRANCH  46  47
ENDBRANCH  40  41
ENDBRANCH  38  40
ENDBRANCH  37  38
ENDBRANCH   1  37
TORSDOF 10
ENDMDL
MODEL 3
REMARK VINA RESULT:    -5.880      6.868     11.294
REMARK INTER + INTRA:         -12.302
REMARK INTER:                 -11.654
REMARK INTRA:                  -0.648
REMARK UNBOUND:                -2.297
REMARK SMILES C=C(C)[C@]12C[C@@H](C)[C@@]34O[C@](Cc5ccccc5)(O[C@@H]1[C@@H]3C=C(COC(=O)Cc1ccc(O)cc1)C[C@]1(O)C(=O)C(C)=C[C@@H]41)O2
REMARK SMILES IDX 23 1 22 2 21 3 20 4 9 5 8 6 10 7 6 8 18 10 44 11 19 12 5 13
REMARK SMILES IDX 7 14 4 15 11 16 12 17 13 18 17 19 14 20 16 21 15 22 2 23
REMARK SMILES IDX 3 24 1 25 35 26 36 27 43 28 38 29 42 30 39 32 40 33 41 34
REMARK SMILES IDX 37 35 24 37 25 38 26 39 27 40 28 41 29 42 34 43 30 44 33 45
REMARK SMILES IDX 31 46 32 47
REMARK H PARENT 37 36 32 48
REMARK Flexibility Score: 90.00
ROOT
ATOM      1  C   UNL     1      69.950  83.333  70.287  1.00  0.00     0.264 C 
ENDROOT
BRANCH   1   2
ATOM      2  C   UNL     1      70.622  84.283  69.323  1.00  0.00    -0.033 C 
ATOM      3  C   UNL     1      71.855  84.750  69.610  1.00  0.00    -0.015 C 
BRANCH   3   4
ATOM      4  C   UNL     1      72.705  85.760  68.855  1.00  0.00     0.078 C 
ATOM      5  O   UNL     1      74.144  84.476  67.306  1.00  0.00    -0.319 OA
ATOM      6  C   UNL     1      73.064  85.461  67.353  1.00  0.00     0.095 CG0
ATOM      7  C   UNL     1      75.205  84.681  68.258  1.00  0.00     0.289 C 
ATOM      8  C   UNL     1      73.563  86.816  66.701  1.00  0.00     0.023 C 
ATOM      9  G   UNL     1      71.875  84.768  66.626  1.00  0.00     0.000 G0
ATOM     10  O   UNL     1      74.706  84.701  69.593  1.00  0.00    -0.320 OA
ATOM     11  O   UNL     1      75.864  85.932  68.075  1.00  0.00    -0.313 OA
ATOM     12  C   UNL     1      74.047  85.977  69.596  1.00  0.00     0.170 C 
ATOM     13  C   UNL     1      74.316  87.707  67.737  1.00  0.00     0.049 C 
ATOM     14  C   UNL     1      74.427  86.663  65.437  1.00  0.00     0.011 C 
ATOM     15  C   UNL     1      75.030  86.864  68.794  1.00  0.00     0.122 C 
BRANCH   7  16
ATOM     16  C   UNL     1      76.207  83.555  68.101  1.00  0.00     0.135 C 
BRANCH  16  17
ATOM     17  C   UNL     1      76.220  83.000  66.699  1.00  0.00    -0.040 A 
ATOM     18  C   UNL     1      75.530  81.824  66.407  1.00  0.00     0.004 A 
ATOM     19  C   UNL     1      76.924  83.664  65.694  1.00  0.00     0.004 A 
ATOM     20  C   UNL     1      75.541  81.311  65.109  1.00  0.00     0.000 A 
ATOM     21  C   UNL     1      76.936  83.151  64.396  1.00  0.00     0.000 A 
ATOM     22  C   UNL     1      76.245  81.975  64.105  1.00  0.00     0.000 A 
ENDBRANCH  16  17
ENDBRANCH   7  16
BRANCH  15  23
ATOM     23  C   UNL     1      75.903  87.684  69.687  1.00  0.00    -0.046 C 
ATOM     24  C   UNL     1      77.362  87.335  69.688  1.00  0.00     0.042 C 
ATOM     25  C   UNL     1      75.411  88.674  70.446  1.00  0.00     0.010 C 
ENDBRANCH  15  23
ENDBRANCH   3   4
BRANCH   2  26
ATOM     26  C   UNL     1      69.777  84.589  68.101  1.00  0.00     0.078 C 
BRANCH  26  27
ATOM     27  C   UNL     1      70.453  85.340  66.955  1.00  0.00     0.140 C 
ATOM     28  C   UNL     1      71.854  84.779  66.636  1.00  0.00     0.086 CG0
ATOM     29  C   UNL     1      69.725  85.165  65.638  1.00  0.00     0.190 C 
ATOM     30  C   UNL     1      71.856  84.673  65.137  1.00  0.00    -0.010 C 
ATOM     31  G   UNL     1      73.049  85.471  67.354  1.00  0.00     0.000 G0
ATOM     32  O   UNL     1      68.523  85.305  65.469  1.00  0.00    -0.291 OA
ATOM     33  C   UNL     1      70.670  84.856  64.548  1.00  0.00    -0.008 C 
ATOM     34  C   UNL     1      70.287  84.747  63.126  1.00  0.00     0.048 C 
BRANCH  27  35
ATOM     35  O   UNL     1      70.432  86.741  67.169  1.00  0.00    -0.381 OA
ATOM     36  H   UNL     1      69.582  87.088  66.848  1.00  0.00     0.212 HD
ENDBRANCH  27  35
ENDBRANCH  26  27
ENDBRANCH   2  26
ENDBRANCH   1   2
BRANCH   1  37
ATOM     37  O   UNL     1      68.588  83.685  70.415  1.00  0.00    -0.461 OA
BRANCH  37  38
ATOM     38  C   UNL     1      68.214  84.238  71.618  1.00  0.00     0.310 C 
ATOM     39  O   UNL     1      68.936  84.336  72.600  1.00  0.00    -0.252 OA
BRANCH  38  40
ATOM     40  C   UNL     1      66.780  84.702  71.534  1.00  0.00     0.158 C 
BRANCH  40  41
ATOM     41  C   UNL     1      65.920  83.803  70.685  1.00  0.00    -0.037 A 
ATOM     42  C   UNL     1      65.412  84.266  69.471  1.00  0.00     0.008 A 
ATOM     43  C   UNL     1      65.630  82.507  71.111  1.00  0.00     0.008 A 
ATOM     44  C   UNL     1      64.615  83.434  68.684  1.00  0.00     0.046 A 
ATOM     45  C   UNL     1      64.833  81.674  70.325  1.00  0.00     0.046 A 
ATOM     46  C   UNL     1      64.326  82.138  69.112  1.00  0.00     0.115 A 
BRANCH  46  47
ATOM     47  O   UNL     1      63.548  81.327  68.345  1.00  0.00    -0.508 OA
ATOM     48  H   UNL     1      63.639  81.591  67.413  1.00  0.00     0.293 HD
ENDBRANCH  46  47
ENDBRANCH  40  41
ENDBRANCH  38  40
ENDBRANCH  37  38
ENDBRANCH   1  37
TORSDOF 10
ENDMDL
MODEL 4
REMARK VINA RESULT:    -5.875      2.937      6.056
REMARK INTER + INTRA:         -12.294
REMARK INTER:                 -11.875
REMARK INTRA:                  -0.419
REMARK UNBOUND:                -2.297
REMARK SMILES C=C(C)[C@]12C[C@@H](C)[C@@]34O[C@](Cc5ccccc5)(O[C@@H]1[C@@H]3C=C(COC(=O)Cc1ccc(O)cc1)C[C@]1(O)C(=O)C(C)=C[C@@H]41)O2
REMARK SMILES IDX 23 1 22 2 21 3 20 4 9 5 8 6 10 7 6 8 18 10 44 11 19 12 5 13
REMARK SMILES IDX 7 14 4 15 11 16 12 17 13 18 17 19 14 20 16 21 15 22 2 23
REMARK SMILES IDX 3 24 1 25 35 26 36 27 43 28 38 29 42 30 39 32 40 33 41 34
REMARK SMILES IDX 37 35 24 37 25 38 26 39 27 40 28 41 29 42 34 43 30 44 33 45
REMARK SMILES IDX 31 46 32 47
REMARK H PARENT 37 36 32 48
REMARK Flexibility Score: 90.00
ROOT
ATOM      1  C   UNL     1      67.533  86.187  70.666  1.00  0.00     0.264 C 
ENDROOT
BRANCH   1   2
ATOM      2  C   UNL     1      66.534  85.166  71.158  1.00  0.00    -0.033 C 
ATOM      3  C   UNL     1      66.107  85.225  72.436  1.00  0.00    -0.015 C 
BRANCH   3   4
ATOM      4  C   UNL     1      65.177  84.285  73.187  1.00  0.00     0.078 C 
ATOM      5  O   UNL     1      62.894  85.213  72.981  1.00  0.00    -0.319 OA
ATOM      6  C   UNL     1      63.724  84.063  72.626  1.00  0.00     0.095 CG0
ATOM      7  C   UNL     1      63.064  85.703  74.325  1.00  0.00     0.289 C 
ATOM      8  C   UNL     1      63.137  82.762  73.314  1.00  0.00     0.023 C 
ATOM      9  G   UNL     1      63.727  84.053  71.070  1.00  0.00     0.000 G0
ATOM     10  O   UNL     1      64.419  86.065  74.576  1.00  0.00    -0.320 OA
ATOM     11  O   UNL     1      62.740  84.721  75.306  1.00  0.00    -0.313 OA
ATOM     12  C   UNL     1      65.017  84.761  74.652  1.00  0.00     0.170 C 
ATOM     13  C   UNL     1      63.668  82.596  74.771  1.00  0.00     0.049 C 
ATOM     14  C   UNL     1      61.603  82.648  73.314  1.00  0.00     0.011 C 
ATOM     15  C   UNL     1      63.952  83.948  75.427  1.00  0.00     0.122 C 
BRANCH   7  16
ATOM     16  C   UNL     1      62.169  86.913  74.506  1.00  0.00     0.135 C 
BRANCH  16  17
ATOM     17  C   UNL     1      61.001  86.901  73.551  1.00  0.00    -0.040 A 
ATOM     18  C   UNL     1      60.003  85.936  73.681  1.00  0.00     0.004 A 
ATOM     19  C   UNL     1      60.921  87.856  72.538  1.00  0.00     0.004 A 
ATOM     20  C   UNL     1      58.923  85.926  72.797  1.00  0.00     0.000 A 
ATOM     21  C   UNL     1      59.841  87.846  71.655  1.00  0.00     0.000 A 
ATOM     22  C   UNL     1      58.843  86.881  71.784  1.00  0.00     0.000 A 
ENDBRANCH  16  17
ENDBRANCH   7  16
BRANCH  15  23
ATOM     23  C   UNL     1      64.287  83.823  76.878  1.00  0.00    -0.046 C 
ATOM     24  C   UNL     1      65.724  83.539  77.203  1.00  0.00     0.042 C 
ATOM     25  C   UNL     1      63.357  83.957  77.835  1.00  0.00     0.010 C 
ENDBRANCH  15  23
ENDBRANCH   3   4
BRANCH   2  26
ATOM     26  C   UNL     1      66.124  84.171  70.089  1.00  0.00     0.078 C 
BRANCH  26  27
ATOM     27  C   UNL     1      64.910  83.292  70.382  1.00  0.00     0.140 C 
ATOM     28  C   UNL     1      63.771  84.079  71.062  1.00  0.00     0.086 CG0
ATOM     29  C   UNL     1      64.245  82.782  69.121  1.00  0.00     0.190 C 
ATOM     30  C   UNL     1      62.547  83.650  70.302  1.00  0.00    -0.010 C 
ATOM     31  G   UNL     1      63.752  84.050  72.618  1.00  0.00     0.000 G0
ATOM     32  O   UNL     1      64.821  82.257  68.179  1.00  0.00    -0.291 OA
ATOM     33  C   UNL     1      62.781  82.945  69.191  1.00  0.00    -0.008 C 
ATOM     34  C   UNL     1      61.840  82.436  68.171  1.00  0.00     0.048 C 
BRANCH  27  35
ATOM     35  O   UNL     1      65.280  82.109  71.071  1.00  0.00    -0.381 OA
ATOM     36  H   UNL     1      64.483  81.731  71.481  1.00  0.00     0.212 HD
ENDBRANCH  27  35
ENDBRANCH  26  27
ENDBRANCH   2  26
ENDBRANCH   1   2
BRANCH   1  37
ATOM     37  O   UNL     1      68.504  85.544  69.868  1.00  0.00    -0.461 OA
BRANCH  37  38
ATOM     38  C   UNL     1      69.351  84.678  70.521  1.00  0.00     0.310 C 
ATOM     39  O   UNL     1      69.943  84.926  71.562  1.00  0.00    -0.252 OA
BRANCH  38  40
ATOM     40  C   UNL     1      69.432  83.380  69.755  1.00  0.00     0.158 C 
BRANCH  40  41
ATOM     41  C   UNL     1      70.356  83.455  68.567  1.00  0.00    -0.037 A 
ATOM     42  C   UNL     1      71.335  84.447  68.507  1.00  0.00     0.008 A 
ATOM     43  C   UNL     1      70.232  82.535  67.527  1.00  0.00     0.008 A 
ATOM     44  C   UNL     1      72.190  84.518  67.407  1.00  0.00     0.046 A 
ATOM     45  C   UNL     1      71.087  82.605  66.426  1.00  0.00     0.046 A 
ATOM     46  C   UNL     1      72.066  83.596  66.366  1.00  0.00     0.115 A 
BRANCH  46  47
ATOM     47  O   UNL     1      72.899  83.666  65.293  1.00  0.00    -0.508 OA
ATOM     48  H   UNL     1      73.578  82.973  65.375  1.00  0.00     0.293 HD
ENDBRANCH  46  47
ENDBRANCH  40  41
ENDBRANCH  38  40
ENDBRANCH  37  38
ENDBRANCH   1  37
TORSDOF 10
ENDMDL
MODEL 5
REMARK VINA RESULT:    -5.794      7.049     11.433
REMARK INTER + INTRA:         -12.156
REMARK INTER:                 -12.065
REMARK INTRA:                  -0.091
REMARK UNBOUND:                -2.297
REMARK SMILES C=C(C)[C@]12C[C@@H](C)[C@@]34O[C@](Cc5ccccc5)(O[C@@H]1[C@@H]3C=C(COC(=O)Cc1ccc(O)cc1)C[C@]1(O)C(=O)C(C)=C[C@@H]41)O2
REMARK SMILES IDX 23 1 22 2 21 3 20 4 9 5 8 6 10 7 6 8 18 10 44 11 19 12 5 13
REMARK SMILES IDX 7 14 4 15 11 16 12 17 13 18 17 19 14 20 16 21 15 22 2 23
REMARK SMILES IDX 3 24 1 25 35 26 36 27 43 28 38 29 42 30 39 32 40 33 41 34
REMARK SMILES IDX 37 35 24 37 25 38 26 39 27 40 28 41 29 42 34 43 30 44 33 45
REMARK SMILES IDX 31 46 32 47
REMARK H PARENT 37 36 32 48
REMARK Flexibility Score: 90.00
ROOT
ATOM      1  C   UNL     1      69.616  83.637  68.745  1.00  0.00     0.264 C 
ENDROOT
BRANCH   1   2
ATOM      2  C   UNL     1      70.712  84.062  67.796  1.00  0.00    -0.033 C 
ATOM      3  C   UNL     1      71.106  85.352  67.779  1.00  0.00    -0.015 C 
BRANCH   3   4
ATOM      4  C   UNL     1      72.119  86.040  66.878  1.00  0.00     0.078 C 
ATOM      5  O   UNL     1      74.298  85.947  68.043  1.00  0.00    -0.319 OA
ATOM      6  C   UNL     1      73.591  85.487  66.849  1.00  0.00     0.095 CG0
ATOM      7  C   UNL     1      74.068  87.323  68.403  1.00  0.00     0.289 C 
ATOM      8  C   UNL     1      74.300  86.078  65.561  1.00  0.00     0.023 C 
ATOM      9  G   UNL     1      73.602  83.935  66.966  1.00  0.00     0.000 G0
ATOM     10  O   UNL     1      72.682  87.580  68.606  1.00  0.00    -0.320 OA
ATOM     11  O   UNL     1      74.482  88.227  67.381  1.00  0.00    -0.313 OA
ATOM     12  C   UNL     1      72.217  87.541  67.247  1.00  0.00     0.170 C 
ATOM     13  C   UNL     1      73.777  87.508  65.225  1.00  0.00     0.049 C 
ATOM     14  C   UNL     1      75.838  86.094  65.601  1.00  0.00     0.011 C 
ATOM     15  C   UNL     1      73.353  88.266  66.484  1.00  0.00     0.122 C 
BRANCH   7  16
ATOM     16  C   UNL     1      74.836  87.616  69.677  1.00  0.00     0.135 C 
BRANCH  16  17
ATOM     17  C   UNL     1      75.756  86.482  70.057  1.00  0.00    -0.040 A 
ATOM     18  C   UNL     1      75.284  85.437  70.851  1.00  0.00     0.004 A 
ATOM     19  C   UNL     1      77.078  86.479  69.613  1.00  0.00     0.004 A 
ATOM     20  C   UNL     1      76.135  84.389  71.202  1.00  0.00     0.000 A 
ATOM     21  C   UNL     1      77.928  85.430  69.964  1.00  0.00     0.000 A 
ATOM     22  C   UNL     1      77.457  84.386  70.758  1.00  0.00     0.000 A 
ENDBRANCH  16  17
ENDBRANCH   7  16
BRANCH  15  23
ATOM     23  C   UNL     1      73.020  89.696  66.208  1.00  0.00    -0.046 C 
ATOM     24  C   UNL     1      71.956  89.941  65.180  1.00  0.00     0.042 C 
ATOM     25  C   UNL     1      73.638  90.703  66.843  1.00  0.00     0.010 C 
ENDBRANCH  15  23
ENDBRANCH   3   4
BRANCH   2  26
ATOM     26  C   UNL     1      71.251  82.917  66.958  1.00  0.00     0.078 C 
BRANCH  26  27
ATOM     27  C   UNL     1      72.519  83.182  66.148  1.00  0.00     0.140 C 
ATOM     28  C   UNL     1      73.590  83.930  66.969  1.00  0.00     0.086 CG0
ATOM     29  C   UNL     1      73.237  81.906  65.763  1.00  0.00     0.190 C 
ATOM     30  C   UNL     1      74.853  83.170  66.672  1.00  0.00    -0.010 C 
ATOM     31  G   UNL     1      73.586  85.482  66.848  1.00  0.00     0.000 G0
ATOM     32  O   UNL     1      72.714  80.924  65.257  1.00  0.00    -0.291 OA
ATOM     33  C   UNL     1      74.686  82.015  66.020  1.00  0.00    -0.008 C 
ATOM     34  C   UNL     1      75.675  80.986  65.640  1.00  0.00     0.048 C 
BRANCH  27  35
ATOM     35  O   UNL     1      72.221  83.792  64.904  1.00  0.00    -0.381 OA
ATOM     36  H   UNL     1      71.331  84.179  64.957  1.00  0.00     0.212 HD
ENDBRANCH  27  35
ENDBRANCH  26  27
ENDBRANCH   2  26
ENDBRANCH   1   2
BRANCH   1  37
ATOM     37  O   UNL     1      68.403  83.518  68.033  1.00  0.00    -0.461 OA
BRANCH  37  38
ATOM     38  C   UNL     1      67.249  83.663  68.769  1.00  0.00     0.310 C 
ATOM     39  O   UNL     1      66.255  84.275  68.403  1.00  0.00    -0.252 OA
BRANCH  38  40
ATOM     40  C   UNL     1      67.402  82.952  70.092  1.00  0.00     0.158 C 
BRANCH  40  41
ATOM     41  C   UNL     1      66.114  82.872  70.869  1.00  0.00    -0.037 A 
ATOM     42  C   UNL     1      65.581  84.021  71.455  1.00  0.00     0.008 A 
ATOM     43  C   UNL     1      65.455  81.651  71.004  1.00  0.00     0.008 A 
ATOM     44  C   UNL     1      64.389  83.947  72.175  1.00  0.00     0.046 A 
ATOM     45  C   UNL     1      64.262  81.577  71.724  1.00  0.00     0.046 A 
ATOM     46  C   UNL     1      63.729  82.725  72.310  1.00  0.00     0.115 A 
BRANCH  46  47
ATOM     47  O   UNL     1      62.567  82.653  73.013  1.00  0.00    -0.508 OA
ATOM     48  H   UNL     1      61.891  83.190  72.562  1.00  0.00     0.293 HD
ENDBRANCH  46  47
ENDBRANCH  40  41
ENDBRANCH  38  40
ENDBRANCH  37  38
ENDBRANCH   1  37
TORSDOF 10
ENDMDL
MODEL 6
REMARK VINA RESULT:    -5.740      6.993     11.211
REMARK INTER + INTRA:         -12.063
REMARK INTER:                 -10.222
REMARK INTRA:                  -1.841
REMARK UNBOUND:                -2.297
REMARK SMILES C=C(C)[C@]12C[C@@H](C)[C@@]34O[C@](Cc5ccccc5)(O[C@@H]1[C@@H]3C=C(COC(=O)Cc1ccc(O)cc1)C[C@]1(O)C(=O)C(C)=C[C@@H]41)O2
REMARK SMILES IDX 23 1 22 2 21 3 20 4 9 5 8 6 10 7 6 8 18 10 44 11 19 12 5 13
REMARK SMILES IDX 7 14 4 15 11 16 12 17 13 18 17 19 14 20 16 21 15 22 2 23
REMARK SMILES IDX 3 24 1 25 35 26 36 27 43 28 38 29 42 30 39 32 40 33 41 34
REMARK SMILES IDX 37 35 24 37 25 38 26 39 27 40 28 41 29 42 34 43 30 44 33 45
REMARK SMILES IDX 31 46 32 47
REMARK H PARENT 37 36 32 48
REMARK Flexibility Score: 90.00
ROOT
ATOM      1  C   UNL     1      69.368  83.107  69.356  1.00  0.00     0.264 C 
ENDROOT
BRANCH   1   2
ATOM      2  C   UNL     1      70.319  83.739  68.366  1.00  0.00    -0.033 C 
ATOM      3  C   UNL     1      70.629  85.046  68.492  1.00  0.00    -0.015 C 
BRANCH   3   4
ATOM      4  C   UNL     1      71.487  85.925  67.596  1.00  0.00     0.078 C 
ATOM      5  O   UNL     1      73.780  85.875  68.521  1.00  0.00    -0.319 OA
ATOM      6  C   UNL     1      72.984  85.509  67.351  1.00  0.00     0.095 CG0
ATOM      7  C   UNL     1      73.491  87.171  69.081  1.00  0.00     0.289 C 
ATOM      8  C   UNL     1      73.505  86.314  66.090  1.00  0.00     0.023 C 
ATOM      9  G   UNL     1      73.120  83.961  67.259  1.00  0.00     0.000 G0
ATOM     10  O   UNL     1      72.119  87.280  69.450  1.00  0.00    -0.320 OA
ATOM     11  O   UNL     1      73.726  88.227  68.153  1.00  0.00    -0.313 OA
ATOM     12  C   UNL     1      71.515  87.371  68.150  1.00  0.00     0.170 C 
ATOM     13  C   UNL     1      72.847  87.725  66.000  1.00  0.00     0.049 C 
ATOM     14  C   UNL     1      75.033  86.457  65.982  1.00  0.00     0.011 C 
ATOM     15  C   UNL     1      72.506  88.280  67.383  1.00  0.00     0.122 C 
BRANCH   7  16
ATOM     16  C   UNL     1      74.368  87.367  70.301  1.00  0.00     0.135 C 
BRANCH  16  17
ATOM     17  C   UNL     1      75.643  86.566  70.217  1.00  0.00    -0.040 A 
ATOM     18  C   UNL     1      75.708  85.295  70.787  1.00  0.00     0.004 A 
ATOM     19  C   UNL     1      76.757  87.098  69.568  1.00  0.00     0.004 A 
ATOM     20  C   UNL     1      76.888  84.554  70.708  1.00  0.00     0.000 A 
ATOM     21  C   UNL     1      77.937  86.357  69.489  1.00  0.00     0.000 A 
ATOM     22  C   UNL     1      78.002  85.086  70.059  1.00  0.00     0.000 A 
ENDBRANCH  16  17
ENDBRANCH   7  16
BRANCH  15  23
ATOM     23  C   UNL     1      72.043  89.700  67.333  1.00  0.00    -0.046 C 
ATOM     24  C   UNL     1      71.557  90.191  66.002  1.00  0.00     0.042 C 
ATOM     25  C   UNL     1      72.061  90.490  68.417  1.00  0.00     0.010 C 
ENDBRANCH  15  23
ENDBRANCH   3   4
BRANCH   2  26
ATOM     26  C   UNL     1      70.824  82.764  67.319  1.00  0.00     0.078 C 
BRANCH  26  27
ATOM     27  C   UNL     1      71.987  83.223  66.441  1.00  0.00     0.140 C 
ATOM     28  C   UNL     1      73.086  83.938  67.255  1.00  0.00     0.086 CG0
ATOM     29  C   UNL     1      72.741  82.063  65.825  1.00  0.00     0.190 C 
ATOM     30  C   UNL     1      74.357  83.317  66.747  1.00  0.00    -0.010 C 
ATOM     31  G   UNL     1      72.975  85.488  67.343  1.00  0.00     0.000 G0
ATOM     32  O   UNL     1      72.233  81.118  65.242  1.00  0.00    -0.291 OA
ATOM     33  C   UNL     1      74.199  82.245  65.964  1.00  0.00    -0.008 C 
ATOM     34  C   UNL     1      75.207  81.349  65.363  1.00  0.00     0.048 C 
BRANCH  27  35
ATOM     35  O   UNL     1      71.531  83.963  65.321  1.00  0.00    -0.381 OA
ATOM     36  H   UNL     1      71.541  84.907  65.553  1.00  0.00     0.212 HD
ENDBRANCH  27  35
ENDBRANCH  26  27
ENDBRANCH   2  26
ENDBRANCH   1   2
BRANCH   1  37
ATOM     37  O   UNL     1      68.054  83.170  68.845  1.00  0.00    -0.461 OA
BRANCH  37  38
ATOM     38  C   UNL     1      67.287  84.231  69.269  1.00  0.00     0.310 C 
ATOM     39  O   UNL     1      67.304  84.703  70.397  1.00  0.00    -0.252 OA
BRANCH  38  40
ATOM     40  C   UNL     1      66.427  84.718  68.129  1.00  0.00     0.158 C 
BRANCH  40  41
ATOM     41  C   UNL     1      67.147  84.714  66.805  1.00  0.00    -0.037 A 
ATOM     42  C   UNL     1      67.133  83.570  66.007  1.00  0.00     0.008 A 
ATOM     43  C   UNL     1      67.829  85.853  66.378  1.00  0.00     0.008 A 
ATOM     44  C   UNL     1      67.801  83.566  64.782  1.00  0.00     0.046 A 
ATOM     45  C   UNL     1      68.497  85.849  65.153  1.00  0.00     0.046 A 
ATOM     46  C   UNL     1      68.483  84.706  64.355  1.00  0.00     0.115 A 
BRANCH  46  47
ATOM     47  O   UNL     1      69.134  84.701  63.161  1.00  0.00    -0.508 OA
ATOM     48  H   UNL     1      68.989  85.556  62.718  1.00  0.00     0.293 HD
ENDBRANCH  46  47
ENDBRANCH  40  41
ENDBRANCH  38  40
ENDBRANCH  37  38
ENDBRANCH   1  37
TORSDOF 10
ENDMDL
MODEL 7
REMARK VINA RESULT:    -5.727     28.806     32.353
REMARK INTER + INTRA:         -12.042
REMARK INTER:                 -11.879
REMARK INTRA:                  -0.163
REMARK UNBOUND:                -2.297
REMARK SMILES C=C(C)[C@]12C[C@@H](C)[C@@]34O[C@](Cc5ccccc5)(O[C@@H]1[C@@H]3C=C(COC(=O)Cc1ccc(O)cc1)C[C@]1(O)C(=O)C(C)=C[C@@H]41)O2
REMARK SMILES IDX 23 1 22 2 21 3 20 4 9 5 8 6 10 7 6 8 18 10 44 11 19 12 5 13
REMARK SMILES IDX 7 14 4 15 11 16 12 17 13 18 17 19 14 20 16 21 15 22 2 23
REMARK SMILES IDX 3 24 1 25 35 26 36 27 43 28 38 29 42 30 39 32 40 33 41 34
REMARK SMILES IDX 37 35 24 37 25 38 26 39 27 40 28 41 29 42 34 43 30 44 33 45
REMARK SMILES IDX 31 46 32 47
REMARK H PARENT 37 36 32 48
REMARK Flexibility Score: 90.00
ROOT
ATOM      1  C   UNL     1      93.133  99.634  74.215  1.00  0.00     0.264 C 
ENDROOT
BRANCH   1   2
ATOM      2  C   UNL     1      92.748 100.909  73.501  1.00  0.00    -0.033 C 
ATOM      3  C   UNL     1      92.600 100.894  72.160  1.00  0.00    -0.015 C 
BRANCH   3   4
ATOM      4  C   UNL     1      92.297 102.042  71.210  1.00  0.00     0.078 C 
ATOM      5  O   UNL     1      89.840 102.123  70.937  1.00  0.00    -0.319 OA
ATOM      6  C   UNL     1      90.985 102.879  71.441  1.00  0.00     0.095 CG0
ATOM      7  C   UNL     1      90.045 101.467  69.670  1.00  0.00     0.289 C 
ATOM      8  C   UNL     1      91.125 104.226  70.619  1.00  0.00     0.023 C 
ATOM      9  G   UNL     1      90.699 103.050  72.961  1.00  0.00     0.000 G0
ATOM     10  O   UNL     1      91.153 100.573  69.723  1.00  0.00    -0.320 OA
ATOM     11  O   UNL     1      90.343 102.389  68.624  1.00  0.00    -0.313 OA
ATOM     12  C   UNL     1      92.236 101.517  69.754  1.00  0.00     0.170 C 
ATOM     13  C   UNL     1      91.941 104.014  69.307  1.00  0.00     0.049 C 
ATOM     14  C   UNL     1      89.803 104.939  70.287  1.00  0.00     0.011 C 
ATOM     15  C   UNL     1      91.764 102.600  68.753  1.00  0.00     0.122 C 
BRANCH   7  16
ATOM     16  C   UNL     1      88.784 100.701  69.323  1.00  0.00     0.135 C 
BRANCH  16  17
ATOM     17  C   UNL     1      88.991  99.208  69.392  1.00  0.00    -0.040 A 
ATOM     18  C   UNL     1      89.297  98.601  70.609  1.00  0.00     0.004 A 
ATOM     19  C   UNL     1      88.877  98.436  68.236  1.00  0.00     0.004 A 
ATOM     20  C   UNL     1      89.488  97.220  70.672  1.00  0.00     0.000 A 
ATOM     21  C   UNL     1      89.068  97.055  68.299  1.00  0.00     0.000 A 
ATOM     22  C   UNL     1      89.373  96.448  69.516  1.00  0.00     0.000 A 
ENDBRANCH  16  17
ENDBRANCH   7  16
BRANCH  15  23
ATOM     23  C   UNL     1      92.388 102.429  67.406  1.00  0.00    -0.046 C 
ATOM     24  C   UNL     1      91.479 101.957  66.310  1.00  0.00     0.042 C 
ATOM     25  C   UNL     1      93.687 102.683  67.189  1.00  0.00     0.010 C 
ENDBRANCH  15  23
ENDBRANCH   3   4
BRANCH   2  26
ATOM     26  C   UNL     1      92.567 102.087  74.440  1.00  0.00     0.078 C 
BRANCH  26  27
ATOM     27  C   UNL     1      91.949 103.356  73.857  1.00  0.00     0.140 C 
ATOM     28  C   UNL     1      90.718 103.054  72.977  1.00  0.00     0.086 CG0
ATOM     29  C   UNL     1      91.371 104.263  74.923  1.00  0.00     0.190 C 
ATOM     30  C   UNL     1      89.703 104.063  73.437  1.00  0.00    -0.010 C 
ATOM     31  G   UNL     1      90.989 102.884  71.454  1.00  0.00     0.000 G0
ATOM     32  O   UNL     1      91.945 104.608  75.945  1.00  0.00    -0.291 OA
ATOM     33  C   UNL     1      90.028 104.738  74.543  1.00  0.00    -0.008 C 
ATOM     34  C   UNL     1      89.251 105.731  75.315  1.00  0.00     0.048 C 
BRANCH  27  35
ATOM     35  O   UNL     1      92.924 104.163  73.219  1.00  0.00    -0.381 OA
ATOM     36  H   UNL     1      93.009 103.869  72.296  1.00  0.00     0.212 HD
ENDBRANCH  27  35
ENDBRANCH  26  27
ENDBRANCH   2  26
ENDBRANCH   1   2
BRANCH   1  37
ATOM     37  O   UNL     1      94.400  99.209  73.762  1.00  0.00    -0.461 OA
BRANCH  37  38
ATOM     38  C   UNL     1      95.178  98.536  74.675  1.00  0.00     0.310 C 
ATOM     39  O   UNL     1      96.256  98.014  74.430  1.00  0.00    -0.252 OA
BRANCH  38  40
ATOM     40  C   UNL     1      94.495  98.545  76.022  1.00  0.00     0.158 C 
BRANCH  40  41
ATOM     41  C   UNL     1      93.985  97.188  76.431  1.00  0.00    -0.037 A 
ATOM     42  C   UNL     1      94.852  96.264  77.016  1.00  0.00     0.008 A 
ATOM     43  C   UNL     1      92.647  96.853  76.225  1.00  0.00     0.008 A 
ATOM     44  C   UNL     1      94.381  95.007  77.394  1.00  0.00     0.046 A 
ATOM     45  C   UNL     1      92.175  95.596  76.604  1.00  0.00     0.046 A 
ATOM     46  C   UNL     1      93.041  94.673  77.188  1.00  0.00     0.115 A 
BRANCH  46  47
ATOM     47  O   UNL     1      92.582  93.446  77.556  1.00  0.00    -0.508 OA
ATOM     48  H   UNL     1      93.142  92.764  77.147  1.00  0.00     0.293 HD
ENDBRANCH  46  47
ENDBRANCH  40  41
ENDBRANCH  38  40
ENDBRANCH  37  38
ENDBRANCH   1  37
TORSDOF 10
ENDMDL
MODEL 8
REMARK VINA RESULT:    -5.608     31.352     34.761
REMARK INTER + INTRA:         -11.840
REMARK INTER:                  -9.267
REMARK INTRA:                  -2.573
REMARK UNBOUND:                -2.297
REMARK SMILES C=C(C)[C@]12C[C@@H](C)[C@@]34O[C@](Cc5ccccc5)(O[C@@H]1[C@@H]3C=C(COC(=O)Cc1ccc(O)cc1)C[C@]1(O)C(=O)C(C)=C[C@@H]41)O2
REMARK SMILES IDX 23 1 22 2 21 3 20 4 9 5 8 6 10 7 6 8 18 10 44 11 19 12 5 13
REMARK SMILES IDX 7 14 4 15 11 16 12 17 13 18 17 19 14 20 16 21 15 22 2 23
REMARK SMILES IDX 3 24 1 25 35 26 36 27 43 28 38 29 42 30 39 32 40 33 41 34
REMARK SMILES IDX 37 35 24 37 25 38 26 39 27 40 28 41 29 42 34 43 30 44 33 45
REMARK SMILES IDX 31 46 32 47
REMARK H PARENT 37 36 32 48
REMARK Flexibility Score: 90.00
ROOT
ATOM      1  C   UNL     1      96.595  81.823  88.769  1.00  0.00     0.264 C 
ENDROOT
BRANCH   1   2
ATOM      2  C   UNL     1      95.620  82.956  88.992  1.00  0.00    -0.033 C 
ATOM      3  C   UNL     1      94.669  82.830  89.940  1.00  0.00    -0.015 C 
BRANCH   3   4
ATOM      4  C   UNL     1      93.538  83.778  90.304  1.00  0.00     0.078 C 
ATOM      5  O   UNL     1      94.372  85.228  92.126  1.00  0.00    -0.319 OA
ATOM      6  C   UNL     1      93.902  85.245  90.742  1.00  0.00     0.095 CG0
ATOM      7  C   UNL     1      93.615  84.391  93.022  1.00  0.00     0.289 C 
ATOM      8  C   UNL     1      92.582  86.116  90.647  1.00  0.00     0.023 C 
ATOM      9  G   UNL     1      95.116  85.780  89.927  1.00  0.00     0.000 G0
ATOM     10  O   UNL     1      93.584  83.041  92.568  1.00  0.00    -0.320 OA
ATOM     11  O   UNL     1      92.251  84.796  93.120  1.00  0.00    -0.313 OA
ATOM     12  C   UNL     1      92.692  83.172  91.450  1.00  0.00     0.170 C 
ATOM     13  C   UNL     1      91.315  85.272  90.984  1.00  0.00     0.049 C 
ATOM     14  C   UNL     1      92.577  87.403  91.490  1.00  0.00     0.011 C 
ATOM     15  C   UNL     1      91.626  84.159  91.986  1.00  0.00     0.122 C 
BRANCH   7  16
ATOM     16  C   UNL     1      94.260  84.458  94.392  1.00  0.00     0.135 C 
BRANCH  16  17
ATOM     17  C   UNL     1      94.614  85.871  94.783  1.00  0.00    -0.040 A 
ATOM     18  C   UNL     1      95.939  86.300  94.722  1.00  0.00     0.004 A 
ATOM     19  C   UNL     1      93.616  86.747  95.207  1.00  0.00     0.004 A 
ATOM     20  C   UNL     1      96.267  87.608  95.083  1.00  0.00     0.000 A 
ATOM     21  C   UNL     1      93.943  88.055  95.568  1.00  0.00     0.000 A 
ATOM     22  C   UNL     1      95.268  88.484  95.506  1.00  0.00     0.000 A 
ENDBRANCH  16  17
ENDBRANCH   7  16
BRANCH  15  23
ATOM     23  C   UNL     1      90.397  83.455  92.462  1.00  0.00    -0.046 C 
ATOM     24  C   UNL     1      90.093  82.140  91.807  1.00  0.00     0.042 C 
ATOM     25  C   UNL     1      89.610  83.969  93.419  1.00  0.00     0.010 C 
ENDBRANCH  15  23
ENDBRANCH   3   4
BRANCH   2  26
ATOM     26  C   UNL     1      95.865  84.141  88.077  1.00  0.00     0.078 C 
BRANCH  26  27
ATOM     27  C   UNL     1      95.106  85.430  88.385  1.00  0.00     0.140 C 
ATOM     28  C   UNL     1      95.118  85.768  89.890  1.00  0.00     0.086 CG0
ATOM     29  C   UNL     1      95.761  86.650  87.773  1.00  0.00     0.190 C 
ATOM     30  C   UNL     1      95.455  87.233  89.917  1.00  0.00    -0.010 C 
ATOM     31  G   UNL     1      93.908  85.248  90.720  1.00  0.00     0.000 G0
ATOM     32  O   UNL     1      96.131  86.747  86.612  1.00  0.00    -0.291 OA
ATOM     33  C   UNL     1      95.847  87.751  88.749  1.00  0.00    -0.008 C 
ATOM     34  C   UNL     1      96.325  89.111  88.425  1.00  0.00     0.048 C 
BRANCH  27  35
ATOM     35  O   UNL     1      93.810  85.418  87.811  1.00  0.00    -0.381 OA
ATOM     36  H   UNL     1      93.502  86.336  87.730  1.00  0.00     0.212 HD
ENDBRANCH  27  35
ENDBRANCH  26  27
ENDBRANCH   2  26
ENDBRANCH   1   2
BRANCH   1  37
ATOM     37  O   UNL     1      95.878  80.640  88.486  1.00  0.00    -0.461 OA
BRANCH  37  38
ATOM     38  C   UNL     1      95.727  80.325  87.155  1.00  0.00     0.310 C 
ATOM     39  O   UNL     1      96.557  80.540  86.283  1.00  0.00    -0.252 OA
BRANCH  38  40
ATOM     40  C   UNL     1      94.381  79.674  86.942  1.00  0.00     0.158 C 
BRANCH  40  41
ATOM     41  C   UNL     1      93.229  80.577  87.296  1.00  0.00    -0.037 A 
ATOM     42  C   UNL     1      92.368  80.234  88.339  1.00  0.00     0.008 A 
ATOM     43  C   UNL     1      93.020  81.756  86.581  1.00  0.00     0.008 A 
ATOM     44  C   UNL     1      91.300  81.070  88.667  1.00  0.00     0.046 A 
ATOM     45  C   UNL     1      91.953  82.593  86.908  1.00  0.00     0.046 A 
ATOM     46  C   UNL     1      91.093  82.250  87.951  1.00  0.00     0.115 A 
BRANCH  46  47
ATOM     47  O   UNL     1      90.051  83.065  88.270  1.00  0.00    -0.508 OA
ATOM     48  H   UNL     1      90.155  83.910  87.798  1.00  0.00     0.293 HD
ENDBRANCH  46  47
ENDBRANCH  40  41
ENDBRANCH  38  40
ENDBRANCH  37  38
ENDBRANCH   1  37
TORSDOF 10
ENDMDL
MODEL 9
REMARK VINA RESULT:    -5.513     32.271     36.149
REMARK INTER + INTRA:         -11.678
REMARK INTER:                 -11.801
REMARK INTRA:                   0.123
REMARK UNBOUND:                -2.297
REMARK SMILES C=C(C)[C@]12C[C@@H](C)[C@@]34O[C@](Cc5ccccc5)(O[C@@H]1[C@@H]3C=C(COC(=O)Cc1ccc(O)cc1)C[C@]1(O)C(=O)C(C)=C[C@@H]41)O2
REMARK SMILES IDX 23 1 22 2 21 3 20 4 9 5 8 6 10 7 6 8 18 10 44 11 19 12 5 13
REMARK SMILES IDX 7 14 4 15 11 16 12 17 13 18 17 19 14 20 16 21 15 22 2 23
REMARK SMILES IDX 3 24 1 25 35 26 36 27 43 28 38 29 42 30 39 32 40 33 41 34
REMARK SMILES IDX 37 35 24 37 25 38 26 39 27 40 28 41 29 42 34 43 30 44 33 45
REMARK SMILES IDX 31 46 32 47
REMARK H PARENT 37 36 32 48
REMARK Flexibility Score: 90.00
ROOT
ATOM      1  C   UNL     1      94.518  87.688  90.205  1.00  0.00     0.264 C 
ENDROOT
BRANCH   1   2
ATOM      2  C   UNL     1      94.317  86.374  89.487  1.00  0.00    -0.033 C 
ATOM      3  C   UNL     1      95.336  85.849  88.775  1.00  0.00    -0.015 C 
BRANCH   3   4
ATOM      4  C   UNL     1      95.366  84.598  87.912  1.00  0.00     0.078 C 
ATOM      5  O   UNL     1      96.087  82.735  89.370  1.00  0.00    -0.319 OA
ATOM      6  C   UNL     1      94.967  83.226  88.569  1.00  0.00     0.095 CG0
ATOM      7  C   UNL     1      97.385  82.875  88.762  1.00  0.00     0.289 C 
ATOM      8  C   UNL     1      94.672  82.201  87.398  1.00  0.00     0.023 C 
ATOM      9  G   UNL     1      93.812  83.419  89.595  1.00  0.00     0.000 G0
ATOM     10  O   UNL     1      97.661  84.234  88.436  1.00  0.00    -0.320 OA
ATOM     11  O   UNL     1      97.490  82.155  87.535  1.00  0.00    -0.313 OA
ATOM     12  C   UNL     1      96.781  84.406  87.313  1.00  0.00     0.170 C 
ATOM     13  C   UNL     1      95.577  82.474  86.157  1.00  0.00     0.049 C 
ATOM     14  C   UNL     1      94.766  80.714  87.780  1.00  0.00     0.011 C 
ATOM     15  C   UNL     1      96.930  83.061  86.562  1.00  0.00     0.122 C 
BRANCH   7  16
ATOM     16  C   UNL     1      98.424  82.360  89.738  1.00  0.00     0.135 C 
BRANCH  16  17
ATOM     17  C   UNL     1      99.774  82.183  89.088  1.00  0.00    -0.040 A 
ATOM     18  C   UNL     1     100.086  80.988  88.442  1.00  0.00     0.004 A 
ATOM     19  C   UNL     1     100.710  83.216  89.134  1.00  0.00     0.004 A 
ATOM     20  C   UNL     1     101.334  80.824  87.840  1.00  0.00     0.000 A 
ATOM     21  C   UNL     1     101.958  83.053  88.533  1.00  0.00     0.000 A 
ATOM     22  C   UNL     1     102.270  81.857  87.886  1.00  0.00     0.000 A 
ENDBRANCH  16  17
ENDBRANCH   7  16
BRANCH  15  23
ATOM     23  C   UNL     1      97.879  83.161  85.412  1.00  0.00    -0.046 C 
ATOM     24  C   UNL     1      99.261  82.628  85.647  1.00  0.00     0.042 C 
ATOM     25  C   UNL     1      97.516  83.698  84.238  1.00  0.00     0.010 C 
ENDBRANCH  15  23
ENDBRANCH   3   4
BRANCH   2  26
ATOM     26  C   UNL     1      92.928  85.795  89.683  1.00  0.00     0.078 C 
BRANCH  26  27
ATOM     27  C   UNL     1      92.686  84.376  89.172  1.00  0.00     0.140 C 
ATOM     28  C   UNL     1      93.805  83.403  89.597  1.00  0.00     0.086 CG0
ATOM     29  C   UNL     1      91.455  83.742  89.784  1.00  0.00     0.190 C 
ATOM     30  C   UNL     1      93.054  82.198  90.090  1.00  0.00    -0.010 C 
ATOM     31  G   UNL     1      94.971  83.214  88.582  1.00  0.00     0.000 G0
ATOM     32  O   UNL     1      90.353  84.265  89.861  1.00  0.00    -0.291 OA
ATOM     33  C   UNL     1      91.736  82.365  90.233  1.00  0.00    -0.008 C 
ATOM     34  C   UNL     1      90.712  81.441  90.763  1.00  0.00     0.048 C 
BRANCH  27  35
ATOM     35  O   UNL     1      92.415  84.365  87.780  1.00  0.00    -0.381 OA
ATOM     36  H   UNL     1      93.261  84.310  87.304  1.00  0.00     0.212 HD
ENDBRANCH  27  35
ENDBRANCH  26  27
ENDBRANCH   2  26
ENDBRANCH   1   2
BRANCH   1  37
ATOM     37  O   UNL     1      95.820  88.168  89.944  1.00  0.00    -0.461 OA
BRANCH  37  38
ATOM     38  C   UNL     1      96.130  89.401  90.471  1.00  0.00     0.310 C 
ATOM     39  O   UNL     1      96.900  89.593  91.402  1.00  0.00    -0.252 OA
BRANCH  38  40
ATOM     40  C   UNL     1      95.375  90.473  89.723  1.00  0.00     0.158 C 
BRANCH  40  41
ATOM     41  C   UNL     1      94.339  91.163  90.572  1.00  0.00    -0.037 A 
ATOM     42  C   UNL     1      93.715  90.471  91.610  1.00  0.00     0.008 A 
ATOM     43  C   UNL     1      94.003  92.492  90.320  1.00  0.00     0.008 A 
ATOM     44  C   UNL     1      92.754  91.109  92.396  1.00  0.00     0.046 A 
ATOM     45  C   UNL     1      93.043  93.131  91.106  1.00  0.00     0.046 A 
ATOM     46  C   UNL     1      92.419  92.440  92.143  1.00  0.00     0.115 A 
BRANCH  46  47
ATOM     47  O   UNL     1      91.482  93.062  92.909  1.00  0.00    -0.508 OA
ATOM     48  H   UNL     1      91.319  92.527  93.705  1.00  0.00     0.293 HD
ENDBRANCH  46  47
ENDBRANCH  40  41
ENDBRANCH  38  40
ENDBRANCH  37  38
ENDBRANCH   1  37
TORSDOF 10
ENDMDL
MODEL 10
REMARK VINA RESULT:    -5.266     32.081     35.931
REMARK INTER + INTRA:         -11.257
REMARK INTER:                  -9.603
REMARK INTRA:                  -1.655
REMARK UNBOUND:                -2.297
REMARK SMILES C=C(C)[C@]12C[C@@H](C)[C@@]34O[C@](Cc5ccccc5)(O[C@@H]1[C@@H]3C=C(COC(=O)Cc1ccc(O)cc1)C[C@]1(O)C(=O)C(C)=C[C@@H]41)O2
REMARK SMILES IDX 23 1 22 2 21 3 20 4 9 5 8 6 10 7 6 8 18 10 44 11 19 12 5 13
REMARK SMILES IDX 7 14 4 15 11 16 12 17 13 18 17 19 14 20 16 21 15 22 2 23
REMARK SMILES IDX 3 24 1 25 35 26 36 27 43 28 38 29 42 30 39 32 40 33 41 34
REMARK SMILES IDX 37 35 24 37 25 38 26 39 27 40 28 41 29 42 34 43 30 44 33 45
REMARK SMILES IDX 31 46 32 47
REMARK H PARENT 37 36 32 48
REMARK Flexibility Score: 90.00
ROOT
ATOM      1  C   UNL     1      97.928  95.607  81.313  1.00  0.00     0.264 C 
ENDROOT
BRANCH   1   2
ATOM      2  C   UNL     1      97.907  97.111  81.159  1.00  0.00    -0.033 C 
ATOM      3  C   UNL     1      98.058  97.649  79.931  1.00  0.00    -0.015 C 
BRANCH   3   4
ATOM      4  C   UNL     1      98.148  99.111  79.523  1.00  0.00     0.078 C 
ATOM      5  O   UNL     1      95.852  99.847  78.969  1.00  0.00    -0.319 OA
ATOM      6  C   UNL     1      96.957 100.068  79.900  1.00  0.00     0.095 CG0
ATOM      7  C   UNL     1      96.232  99.703  77.587  1.00  0.00     0.289 C 
ATOM      8  C   UNL     1      97.475 101.558  79.753  1.00  0.00     0.023 C 
ATOM      9  G   UNL     1      96.370  99.698  81.293  1.00  0.00     0.000 G0
ATOM     10  O   UNL     1      97.155  98.632  77.411  1.00  0.00    -0.320 OA
ATOM     11  O   UNL     1      96.888 100.864  77.081  1.00  0.00    -0.313 OA
ATOM     12  C   UNL     1      98.332  99.218  77.989  1.00  0.00     0.170 C 
ATOM     13  C   UNL     1      98.520 101.690  78.603  1.00  0.00     0.049 C 
ATOM     14  C   UNL     1      96.381 102.624  79.572  1.00  0.00     0.011 C 
ATOM     15  C   UNL     1      98.261 100.680  77.484  1.00  0.00     0.122 C 
BRANCH   7  16
ATOM     16  C   UNL     1      94.979  99.439  76.776  1.00  0.00     0.135 C 
BRANCH  16  17
ATOM     17  C   UNL     1      95.285  99.223  75.314  1.00  0.00    -0.040 A 
ATOM     18  C   UNL     1      95.825  98.011  74.886  1.00  0.00     0.004 A 
ATOM     19  C   UNL     1      95.027 100.237  74.392  1.00  0.00     0.004 A 
ATOM     20  C   UNL     1      96.107  97.812  73.534  1.00  0.00     0.000 A 
ATOM     21  C   UNL     1      95.310 100.038  73.040  1.00  0.00     0.000 A 
ATOM     22  C   UNL     1      95.850  98.826  72.612  1.00  0.00     0.000 A 
ENDBRANCH  16  17
ENDBRANCH   7  16
BRANCH  15  23
ATOM     23  C   UNL     1      99.134 100.906  76.294  1.00  0.00    -0.046 C 
ATOM     24  C   UNL     1      98.983  99.928  75.166  1.00  0.00     0.042 C 
ATOM     25  C   UNL     1     100.005 101.925  76.236  1.00  0.00     0.010 C 
ENDBRANCH  15  23
ENDBRANCH   3   4
BRANCH   2  26
ATOM     26  C   UNL     1      97.699  97.842  82.472  1.00  0.00     0.078 C 
BRANCH  26  27
ATOM     27  C   UNL     1      97.423  99.342  82.400  1.00  0.00     0.140 C 
ATOM     28  C   UNL     1      96.388  99.693  81.310  1.00  0.00     0.086 CG0
ATOM     29  C   UNL     1      96.764  99.871  83.656  1.00  0.00     0.190 C 
ATOM     30  C   UNL     1      95.458 100.648  82.005  1.00  0.00    -0.010 C 
ATOM     31  G   UNL     1      96.964 100.067  79.913  1.00  0.00     0.000 G0
ATOM     32  O   UNL     1      97.140  99.654  84.798  1.00  0.00    -0.291 OA
ATOM     33  C   UNL     1      95.625 100.749  83.327  1.00  0.00    -0.008 C 
ATOM     34  C   UNL     1      94.853 101.515  84.328  1.00  0.00     0.048 C 
BRANCH  27  35
ATOM     35  O   UNL     1      98.625 100.087  82.308  1.00  0.00    -0.381 OA
ATOM     36  H   UNL     1      98.475 100.961  82.707  1.00  0.00     0.212 HD
ENDBRANCH  27  35
ENDBRANCH  26  27
ENDBRANCH   2  26
ENDBRANCH   1   2
BRANCH   1  37
ATOM     37  O   UNL     1      96.973  95.224  82.280  1.00  0.00    -0.461 OA
BRANCH  37  38
ATOM     38  C   UNL     1      95.659  95.240  81.874  1.00  0.00     0.310 C 
ATOM     39  O   UNL     1      94.799  95.993  82.309  1.00  0.00    -0.252 OA
BRANCH  38  40
ATOM     40  C   UNL     1      95.446  94.188  80.813  1.00  0.00     0.158 C 
BRANCH  40  41
ATOM     41  C   UNL     1      94.606  94.676  79.661  1.00  0.00    -0.037 A 
ATOM     42  C   UNL     1      95.148  95.563  78.729  1.00  0.00     0.008 A 
ATOM     43  C   UNL     1      93.288  94.244  79.525  1.00  0.00     0.008 A 
ATOM     44  C   UNL     1      94.371  96.016  77.663  1.00  0.00     0.046 A 
ATOM     45  C   UNL     1      92.510  94.696  78.459  1.00  0.00     0.046 A 
ATOM     46  C   UNL     1      93.051  95.582  77.528  1.00  0.00     0.115 A 
BRANCH  46  47
ATOM     47  O   UNL     1      92.293  96.025  76.488  1.00  0.00    -0.508 OA
ATOM     48  H   UNL     1      91.383  95.699  76.600  1.00  0.00     0.293 HD
ENDBRANCH  46  47
ENDBRANCH  40  41
ENDBRANCH  38  40
ENDBRANCH  37  38
ENDBRANCH   1  37
TORSDOF 10
ENDMDL
