MODEL 1
REMARK VINA RESULT:    -7.464      0.000      0.000
REMARK INTER + INTRA:         -14.215
REMARK INTER:                 -13.136
REMARK INTRA:                  -1.079
REMARK UNBOUND:                -1.079
REMARK SMILES C=C(C)[C@]12C[C@@H](C)[C@@]34O[C@](Cc5ccccc5)(O[C@@H]1[C@@H]3C=C(COC(=O)Cc1ccc(O)c(OC)c1)C[C@]1(O)C(=O)C(C)=C[C@@H]41)O2
REMARK SMILES IDX 23 1 22 2 21 3 20 4 9 5 8 6 10 7 6 8 18 9 46 10 19 11 5 12
REMARK SMILES IDX 7 13 4 14 45 15 38 16 44 17 40 18 42 20 41 21 43 22 39 23
REMARK SMILES IDX 11 25 12 26 13 27 17 28 14 29 16 30 15 31 2 32 3 33 1 34
REMARK SMILES IDX 37 35 24 37 25 38 26 39 27 40 28 41 36 42 29 43 33 44 30 45
REMARK SMILES IDX 31 46 34 47 35 48 32 49
REMARK H PARENT 39 24 32 50
REMARK Flexibility Score: 90.00
ROOT
ATOM      1  C   UNL     1      95.309  86.116  87.541  1.00  0.00     0.264 C 
ENDROOT
BRANCH   1   2
ATOM      2  C   UNL     1      94.140  85.501  88.274  1.00  0.00    -0.033 C 
ATOM      3  C   UNL     1      93.460  84.489  87.700  1.00  0.00    -0.015 C 
BRANCH   3   4
ATOM      4  C   UNL     1      92.217  83.762  88.188  1.00  0.00     0.078 C 
ATOM      5  O   UNL     1      92.992  81.784  89.456  1.00  0.00    -0.319 OA
ATOM      6  C   UNL     1      92.270  83.048  89.590  1.00  0.00     0.095 C 
ATOM      7  C   UNL     1      92.670  81.011  88.284  1.00  0.00     0.289 C 
ATOM      8  C   UNL     1      90.778  82.754  90.035  1.00  0.00     0.023 C 
ATOM      9  O   UNL     1      92.900  81.759  87.093  1.00  0.00    -0.320 OA
ATOM     10  O   UNL     1      91.296  80.636  88.244  1.00  0.00    -0.313 OA
ATOM     11  C   UNL     1      91.801  82.682  87.159  1.00  0.00     0.170 C 
ATOM     12  C   UNL     1      89.864  82.451  88.807  1.00  0.00     0.049 C 
ATOM     13  C   UNL     1      90.609  81.643  91.084  1.00  0.00     0.011 C 
ATOM     14  C   UNL     1      90.644  81.788  87.671  1.00  0.00     0.122 C 
BRANCH   6  15
ATOM     15  C   UNL     1      93.118  83.875  90.599  1.00  0.00     0.086 C 
ATOM     16  C   UNL     1      92.893  85.401  90.586  1.00  0.00     0.140 CG0
ATOM     17  C   UNL     1      93.070  83.527  92.060  1.00  0.00    -0.010 C 
ATOM     18  C   UNL     1      93.081  85.771  92.042  1.00  0.00     0.190 C 
ATOM     19  G   UNL     1      93.878  86.122  89.666  1.00  0.00     0.000 G0
ATOM     20  C   UNL     1      93.076  84.569  92.897  1.00  0.00    -0.008 C 
ATOM     21  O   UNL     1      93.176  86.909  92.477  1.00  0.00    -0.291 OA
ATOM     22  C   UNL     1      93.120  84.604  94.374  1.00  0.00     0.048 C 
BRANCH  16  23
ATOM     23  O   UNL     1      91.555  85.781  90.311  1.00  0.00    -0.381 OA
ATOM     24  H   UNL     1      91.191  85.169  89.650  1.00  0.00     0.212 HD
ENDBRANCH  16  23
ENDBRANCH   6  15
BRANCH   7  25
ATOM     25  C   UNL     1      93.535  79.767  88.283  1.00  0.00     0.135 C 
BRANCH  25  26
ATOM     26  C   UNL     1      92.858  78.609  87.592  1.00  0.00    -0.040 A 
ATOM     27  C   UNL     1      93.096  78.370  86.238  1.00  0.00     0.004 A 
ATOM     28  C   UNL     1      91.997  77.777  88.306  1.00  0.00     0.004 A 
ATOM     29  C   UNL     1      92.471  77.299  85.599  1.00  0.00     0.000 A 
ATOM     30  C   UNL     1      91.372  76.706  87.667  1.00  0.00     0.000 A 
ATOM     31  C   UNL     1      91.609  76.468  86.313  1.00  0.00     0.000 A 
ENDBRANCH  25  26
ENDBRANCH   7  25
BRANCH  14  32
ATOM     32  C   UNL     1      89.759  81.325  86.561  1.00  0.00    -0.046 C 
ATOM     33  C   UNL     1      90.431  80.584  85.443  1.00  0.00     0.042 C 
ATOM     34  C   UNL     1      88.438  81.558  86.562  1.00  0.00     0.010 C 
ENDBRANCH  14  32
ENDBRANCH   3   4
BRANCH   2  35
ATOM     35  C   UNL     1      93.886  86.137  89.628  1.00  0.00     0.078 CG0
ATOM     36  G   UNL     1      92.914  85.422  90.565  1.00  0.00     0.000 G0
ENDBRANCH   2  35
ENDBRANCH   1   2
BRANCH   1  37
ATOM     37  O   UNL     1      96.066  85.094  86.930  1.00  0.00    -0.461 OA
BRANCH  37  38
ATOM     38  C   UNL     1      96.611  85.391  85.702  1.00  0.00     0.310 C 
ATOM     39  O   UNL     1      97.228  86.413  85.437  1.00  0.00    -0.252 OA
BRANCH  38  40
ATOM     40  C   UNL     1      96.329  84.263  84.738  1.00  0.00     0.158 C 
BRANCH  40  41
ATOM     41  C   UNL     1      97.544  83.418  84.451  1.00  0.00    -0.033 A 
ATOM     42  C   UNL     1      97.807  82.996  83.147  1.00  0.00     0.054 A 
ATOM     43  C   UNL     1      98.405  83.059  85.487  1.00  0.00     0.008 A 
ATOM     44  C   UNL     1      98.931  82.214  82.880  1.00  0.00     0.160 A 
ATOM     45  C   UNL     1      99.529  82.277  85.221  1.00  0.00     0.050 A 
ATOM     46  C   UNL     1      99.792  81.854  83.918  1.00  0.00     0.157 A 
BRANCH  44  47
ATOM     47  O   UNL     1      99.177  81.807  81.604  1.00  0.00    -0.493 OA
ATOM     48  C   UNL     1      99.318  82.826  80.615  1.00  0.00     0.278 C 
ENDBRANCH  44  47
BRANCH  46  49
ATOM     49  O   UNL     1     100.893  81.092  83.670  1.00  0.00    -0.504 OA
ATOM     50  H   UNL     1     101.195  81.258  82.760  1.00  0.00     0.293 HD
ENDBRANCH  46  49
ENDBRANCH  40  41
ENDBRANCH  38  40
ENDBRANCH  37  38
ENDBRANCH   1  37
TORSDOF 11
ENDMDL
MODEL 2
REMARK VINA RESULT:    -7.015      2.123      3.611
REMARK INTER + INTRA:         -13.424
REMARK INTER:                 -12.271
REMARK INTRA:                  -1.153
REMARK UNBOUND:                -1.079
REMARK SMILES C=C(C)[C@]12C[C@@H](C)[C@@]34O[C@](Cc5ccccc5)(O[C@@H]1[C@@H]3C=C(COC(=O)Cc1ccc(O)c(OC)c1)C[C@]1(O)C(=O)C(C)=C[C@@H]41)O2
REMARK SMILES IDX 23 1 22 2 21 3 20 4 9 5 8 6 10 7 6 8 18 9 46 10 19 11 5 12
REMARK SMILES IDX 7 13 4 14 45 15 38 16 44 17 40 18 42 20 41 21 43 22 39 23
REMARK SMILES IDX 11 25 12 26 13 27 17 28 14 29 16 30 15 31 2 32 3 33 1 34
REMARK SMILES IDX 37 35 24 37 25 38 26 39 27 40 28 41 36 42 29 43 33 44 30 45
REMARK SMILES IDX 31 46 34 47 35 48 32 49
REMARK H PARENT 39 24 32 50
REMARK Flexibility Score: 90.00
ROOT
ATOM      1  C   UNL     1      97.337  82.091  87.448  1.00  0.00     0.264 C 
ENDROOT
BRANCH   1   2
ATOM      2  C   UNL     1      96.009  82.759  87.718  1.00  0.00    -0.033 C 
ATOM      3  C   UNL     1      94.869  82.078  87.487  1.00  0.00    -0.015 C 
BRANCH   3   4
ATOM      4  C   UNL     1      93.427  82.543  87.603  1.00  0.00     0.078 C 
ATOM      5  O   UNL     1      92.663  81.961  89.883  1.00  0.00    -0.319 OA
ATOM      6  C   UNL     1      92.925  83.089  88.992  1.00  0.00     0.095 C 
ATOM      7  C   UNL     1      91.984  80.843  89.280  1.00  0.00     0.289 C 
ATOM      8  C   UNL     1      91.576  83.880  88.738  1.00  0.00     0.023 C 
ATOM      9  O   UNL     1      92.710  80.340  88.161  1.00  0.00    -0.320 OA
ATOM     10  O   UNL     1      90.699  81.198  88.777  1.00  0.00    -0.313 OA
ATOM     11  C   UNL     1      92.469  81.390  87.212  1.00  0.00     0.170 C 
ATOM     12  C   UNL     1      90.755  83.249  87.571  1.00  0.00     0.049 C 
ATOM     13  C   UNL     1      90.669  84.050  89.968  1.00  0.00     0.011 C 
ATOM     14  C   UNL     1      90.982  81.740  87.470  1.00  0.00     0.122 C 
BRANCH   6  15
ATOM     15  C   UNL     1      94.049  83.895  89.706  1.00  0.00     0.086 C 
ATOM     16  C   UNL     1      94.859  84.863  88.819  1.00  0.00     0.140 CG0
ATOM     17  C   UNL     1      93.707  84.728  90.909  1.00  0.00    -0.010 C 
ATOM     18  C   UNL     1      95.160  86.002  89.770  1.00  0.00     0.190 C 
ATOM     19  G   UNL     1      96.126  84.213  88.264  1.00  0.00     0.000 G0
ATOM     20  C   UNL     1      94.335  85.905  90.989  1.00  0.00    -0.008 C 
ATOM     21  O   UNL     1      95.940  86.918  89.554  1.00  0.00    -0.291 OA
ATOM     22  C   UNL     1      94.308  86.928  92.054  1.00  0.00     0.048 C 
BRANCH  16  23
ATOM     23  O   UNL     1      94.098  85.473  87.790  1.00  0.00    -0.381 OA
ATOM     24  H   UNL     1      94.665  86.110  87.325  1.00  0.00     0.212 HD
ENDBRANCH  16  23
ENDBRANCH   6  15
BRANCH   7  25
ATOM     25  C   UNL     1      91.836  79.756  90.325  1.00  0.00     0.135 C 
BRANCH  25  26
ATOM     26  C   UNL     1      91.679  80.325  91.714  1.00  0.00    -0.040 A 
ATOM     27  C   UNL     1      90.484  80.945  92.082  1.00  0.00     0.004 A 
ATOM     28  C   UNL     1      92.726  80.230  92.630  1.00  0.00     0.004 A 
ATOM     29  C   UNL     1      90.338  81.470  93.366  1.00  0.00     0.000 A 
ATOM     30  C   UNL     1      92.580  80.755  93.914  1.00  0.00     0.000 A 
ATOM     31  C   UNL     1      91.385  81.376  94.281  1.00  0.00     0.000 A 
ENDBRANCH  25  26
ENDBRANCH   7  25
BRANCH  14  32
ATOM     32  C   UNL     1      90.072  81.087  86.483  1.00  0.00    -0.046 C 
ATOM     33  C   UNL     1      88.667  81.610  86.430  1.00  0.00     0.042 C 
ATOM     34  C   UNL     1      90.486  80.089  85.687  1.00  0.00     0.010 C 
ENDBRANCH  14  32
ENDBRANCH   3   4
BRANCH   2  35
ATOM     35  C   UNL     1      96.152  84.174  88.247  1.00  0.00     0.078 CG0
ATOM     36  G   UNL     1      94.896  84.841  88.806  1.00  0.00     0.000 G0
ENDBRANCH   2  35
ENDBRANCH   1   2
BRANCH   1  37
ATOM     37  O   UNL     1      97.490  81.903  86.057  1.00  0.00    -0.461 OA
BRANCH  37  38
ATOM     38  C   UNL     1      98.271  82.826  85.401  1.00  0.00     0.310 C 
ATOM     39  O   UNL     1      99.361  83.225  85.787  1.00  0.00    -0.252 OA
BRANCH  38  40
ATOM     40  C   UNL     1      97.574  83.268  84.136  1.00  0.00     0.158 C 
BRANCH  40  41
ATOM     41  C   UNL     1      98.192  82.686  82.891  1.00  0.00    -0.033 A 
ATOM     42  C   UNL     1      98.152  83.400  81.693  1.00  0.00     0.054 A 
ATOM     43  C   UNL     1      98.804  81.434  82.935  1.00  0.00     0.008 A 
ATOM     44  C   UNL     1      98.724  82.862  80.540  1.00  0.00     0.160 A 
ATOM     45  C   UNL     1      99.376  80.895  81.783  1.00  0.00     0.050 A 
ATOM     46  C   UNL     1      99.336  81.608  80.585  1.00  0.00     0.157 A 
BRANCH  44  47
ATOM     47  O   UNL     1      98.678  83.568  79.376  1.00  0.00    -0.493 OA
ATOM     48  C   UNL     1      97.444  83.559  78.661  1.00  0.00     0.278 C 
ENDBRANCH  44  47
BRANCH  46  49
ATOM     49  O   UNL     1      99.898  81.073  79.467  1.00  0.00    -0.504 OA
ATOM     50  H   UNL     1      99.251  80.490  79.034  1.00  0.00     0.293 HD
ENDBRANCH  46  49
ENDBRANCH  40  41
ENDBRANCH  38  40
ENDBRANCH  37  38
ENDBRANCH   1  37
TORSDOF 11
ENDMDL
MODEL 3
REMARK VINA RESULT:    -6.982     21.449     24.696
REMARK INTER + INTRA:         -13.368
REMARK INTER:                 -12.988
REMARK INTRA:                  -0.379
REMARK UNBOUND:                -1.079
REMARK SMILES C=C(C)[C@]12C[C@@H](C)[C@@]34O[C@](Cc5ccccc5)(O[C@@H]1[C@@H]3C=C(COC(=O)Cc1ccc(O)c(OC)c1)C[C@]1(O)C(=O)C(C)=C[C@@H]41)O2
REMARK SMILES IDX 23 1 22 2 21 3 20 4 9 5 8 6 10 7 6 8 18 9 46 10 19 11 5 12
REMARK SMILES IDX 7 13 4 14 45 15 38 16 44 17 40 18 42 20 41 21 43 22 39 23
REMARK SMILES IDX 11 25 12 26 13 27 17 28 14 29 16 30 15 31 2 32 3 33 1 34
REMARK SMILES IDX 37 35 24 37 25 38 26 39 27 40 28 41 36 42 29 43 33 44 30 45
REMARK SMILES IDX 31 46 34 47 35 48 32 49
REMARK H PARENT 39 24 32 50
REMARK Flexibility Score: 90.00
ROOT
ATOM      1  C   UNL     1      93.719 100.143  72.255  1.00  0.00     0.264 C 
ENDROOT
BRANCH   1   2
ATOM      2  C   UNL     1      92.789 101.289  71.931  1.00  0.00    -0.033 C 
ATOM      3  C   UNL     1      92.397 101.478  70.655  1.00  0.00    -0.015 C 
BRANCH   3   4
ATOM      4  C   UNL     1      91.540 102.586  70.064  1.00  0.00     0.078 C 
ATOM      5  O   UNL     1      89.204 101.773  70.073  1.00  0.00    -0.319 OA
ATOM      6  C   UNL     1      90.087 102.794  70.633  1.00  0.00     0.095 C 
ATOM      7  C   UNL     1      89.378 101.510  68.668  1.00  0.00     0.289 C 
ATOM      8  C   UNL     1      89.591 104.226  70.170  1.00  0.00     0.023 C 
ATOM      9  O   UNL     1      90.718 101.117  68.378  1.00  0.00    -0.320 OA
ATOM     10  O   UNL     1      89.134 102.662  67.867  1.00  0.00    -0.313 OA
ATOM     11  C   UNL     1      91.389 102.376  68.537  1.00  0.00     0.170 C 
ATOM     12  C   UNL     1      90.166 104.606  68.771  1.00  0.00     0.049 C 
ATOM     13  C   UNL     1      88.067 104.427  70.168  1.00  0.00     0.011 C 
ATOM     14  C   UNL     1      90.389 103.371  67.897  1.00  0.00     0.122 C 
BRANCH   6  15
ATOM     15  C   UNL     1      90.054 102.538  72.167  1.00  0.00     0.086 C 
ATOM     16  C   UNL     1      91.221 103.134  72.982  1.00  0.00     0.140 CG0
ATOM     17  C   UNL     1      88.838 102.938  72.954  1.00  0.00    -0.010 C 
ATOM     18  C   UNL     1      90.552 103.501  74.289  1.00  0.00     0.190 C 
ATOM     19  G   UNL     1      92.363 102.136  73.168  1.00  0.00     0.000 G0
ATOM     20  C   UNL     1      89.083 103.457  74.162  1.00  0.00    -0.008 C 
ATOM     21  O   UNL     1      91.130 103.840  75.310  1.00  0.00    -0.291 OA
ATOM     22  C   UNL     1      88.147 103.877  75.225  1.00  0.00     0.048 C 
BRANCH  16  23
ATOM     23  O   UNL     1      91.693 104.374  72.483  1.00  0.00    -0.381 OA
ATOM     24  H   UNL     1      92.242 104.791  73.168  1.00  0.00     0.212 HD
ENDBRANCH  16  23
ENDBRANCH   6  15
BRANCH   7  25
ATOM     25  C   UNL     1      88.423 100.404  68.269  1.00  0.00     0.135 C 
BRANCH  25  26
ATOM     26  C   UNL     1      88.810  99.077  68.873  1.00  0.00    -0.040 A 
ATOM     27  C   UNL     1      89.148  98.998  70.224  1.00  0.00     0.004 A 
ATOM     28  C   UNL     1      88.829  97.929  68.081  1.00  0.00     0.004 A 
ATOM     29  C   UNL     1      89.506  97.770  70.783  1.00  0.00     0.000 A 
ATOM     30  C   UNL     1      89.188  96.701  68.640  1.00  0.00     0.000 A 
ATOM     31  C   UNL     1      89.526  96.623  69.991  1.00  0.00     0.000 A 
ENDBRANCH  25  26
ENDBRANCH   7  25
BRANCH  14  32
ATOM     32  C   UNL     1      90.766 103.722  66.494  1.00  0.00    -0.046 C 
ATOM     33  C   UNL     1      91.954 103.002  65.928  1.00  0.00     0.042 C 
ATOM     34  C   UNL     1      90.081 104.628  65.781  1.00  0.00     0.010 C 
ENDBRANCH  14  32
ENDBRANCH   3   4
BRANCH   2  35
ATOM     35  C   UNL     1      92.400 102.103  73.151  1.00  0.00     0.078 CG0
ATOM     36  G   UNL     1      91.257 103.104  72.987  1.00  0.00     0.000 G0
ENDBRANCH   2  35
ENDBRANCH   1   2
BRANCH   1  37
ATOM     37  O   UNL     1      94.173 100.273  73.586  1.00  0.00    -0.461 OA
BRANCH  37  38
ATOM     38  C   UNL     1      93.856  99.242  74.440  1.00  0.00     0.310 C 
ATOM     39  O   UNL     1      92.727  98.973  74.828  1.00  0.00    -0.252 OA
BRANCH  38  40
ATOM     40  C   UNL     1      95.114  98.498  74.821  1.00  0.00     0.158 C 
BRANCH  40  41
ATOM     41  C   UNL     1      94.873  97.427  75.854  1.00  0.00    -0.033 A 
ATOM     42  C   UNL     1      95.242  97.645  77.183  1.00  0.00     0.054 A 
ATOM     43  C   UNL     1      94.282  96.220  75.484  1.00  0.00     0.008 A 
ATOM     44  C   UNL     1      95.020  96.654  78.139  1.00  0.00     0.160 A 
ATOM     45  C   UNL     1      94.059  95.229  76.440  1.00  0.00     0.050 A 
ATOM     46  C   UNL     1      94.428  95.446  77.767  1.00  0.00     0.157 A 
BRANCH  44  47
ATOM     47  O   UNL     1      95.385  96.877  79.432  1.00  0.00    -0.493 OA
ATOM     48  C   UNL     1      96.636  96.337  79.855  1.00  0.00     0.278 C 
ENDBRANCH  44  47
BRANCH  46  49
ATOM     49  O   UNL     1      94.205  94.472  78.693  1.00  0.00    -0.504 OA
ATOM     50  H   UNL     1      95.058  94.101  78.975  1.00  0.00     0.293 HD
ENDBRANCH  46  49
ENDBRANCH  40  41
ENDBRANCH  38  40
ENDBRANCH  37  38
ENDBRANCH   1  37
TORSDOF 11
ENDMDL
MODEL 4
REMARK VINA RESULT:    -6.663     19.833     23.219
REMARK INTER + INTRA:         -12.806
REMARK INTER:                 -11.952
REMARK INTRA:                  -0.854
REMARK UNBOUND:                -1.079
REMARK SMILES C=C(C)[C@]12C[C@@H](C)[C@@]34O[C@](Cc5ccccc5)(O[C@@H]1[C@@H]3C=C(COC(=O)Cc1ccc(O)c(OC)c1)C[C@]1(O)C(=O)C(C)=C[C@@H]41)O2
REMARK SMILES IDX 23 1 22 2 21 3 20 4 9 5 8 6 10 7 6 8 18 9 46 10 19 11 5 12
REMARK SMILES IDX 7 13 4 14 45 15 38 16 44 17 40 18 42 20 41 21 43 22 39 23
REMARK SMILES IDX 11 25 12 26 13 27 17 28 14 29 16 30 15 31 2 32 3 33 1 34
REMARK SMILES IDX 37 35 24 37 25 38 26 39 27 40 28 41 36 42 29 43 33 44 30 45
REMARK SMILES IDX 31 46 34 47 35 48 32 49
REMARK H PARENT 39 24 32 50
REMARK Flexibility Score: 90.00
ROOT
ATOM      1  C   UNL     1      94.383  98.788  74.196  1.00  0.00     0.264 C 
ENDROOT
BRANCH   1   2
ATOM      2  C   UNL     1      93.856 100.185  73.965  1.00  0.00    -0.033 C 
ATOM      3  C   UNL     1      93.381 100.518  72.748  1.00  0.00    -0.015 C 
BRANCH   3   4
ATOM      4  C   UNL     1      92.875 101.860  72.245  1.00  0.00     0.078 C 
ATOM      5  O   UNL     1      90.433 101.901  72.637  1.00  0.00    -0.319 OA
ATOM      6  C   UNL     1      91.687 102.549  73.015  1.00  0.00     0.095 C 
ATOM      7  C   UNL     1      90.287 101.610  71.234  1.00  0.00     0.289 C 
ATOM      8  C   UNL     1      91.645 104.069  72.571  1.00  0.00     0.023 C 
ATOM      9  O   UNL     1      91.350 100.784  70.765  1.00  0.00    -0.320 OA
ATOM     10  O   UNL     1      90.331 102.786  70.430  1.00  0.00    -0.313 OA
ATOM     11  C   UNL     1      92.427 101.733  70.768  1.00  0.00     0.170 C 
ATOM     12  C   UNL     1      92.092 104.244  71.087  1.00  0.00     0.049 C 
ATOM     13  C   UNL     1      90.301 104.783  72.788  1.00  0.00     0.011 C 
ATOM     14  C   UNL     1      91.742 103.019  70.243  1.00  0.00     0.122 C 
BRANCH   6  15
ATOM     15  C   UNL     1      91.805 102.302  74.547  1.00  0.00     0.086 C 
ATOM     16  C   UNL     1      93.221 102.422  75.147  1.00  0.00     0.140 CG0
ATOM     17  C   UNL     1      90.956 103.106  75.490  1.00  0.00    -0.010 C 
ATOM     18  C   UNL     1      92.944 102.990  76.524  1.00  0.00     0.190 C 
ATOM     19  G   UNL     1      93.941 101.075  75.204  1.00  0.00     0.000 G0
ATOM     20  C   UNL     1      91.558 103.484  76.622  1.00  0.00    -0.008 C 
ATOM     21  O   UNL     1      93.760 103.083  77.428  1.00  0.00    -0.291 OA
ATOM     22  C   UNL     1      91.016 104.202  77.795  1.00  0.00     0.048 C 
BRANCH  16  23
ATOM     23  O   UNL     1      94.025 103.413  74.528  1.00  0.00    -0.381 OA
ATOM     24  H   UNL     1      94.859 103.483  75.020  1.00  0.00     0.212 HD
ENDBRANCH  16  23
ENDBRANCH   6  15
BRANCH   7  25
ATOM     25  C   UNL     1      88.962 100.905  71.029  1.00  0.00     0.135 C 
BRANCH  25  26
ATOM     26  C   UNL     1      89.113  99.641  70.221  1.00  0.00    -0.040 A 
ATOM     27  C   UNL     1      88.972  99.680  68.833  1.00  0.00     0.004 A 
ATOM     28  C   UNL     1      89.394  98.433  70.859  1.00  0.00     0.004 A 
ATOM     29  C   UNL     1      89.112  98.510  68.085  1.00  0.00     0.000 A 
ATOM     30  C   UNL     1      89.534  97.264  70.111  1.00  0.00     0.000 A 
ATOM     31  C   UNL     1      89.393  97.303  68.724  1.00  0.00     0.000 A 
ENDBRANCH  25  26
ENDBRANCH   7  25
BRANCH  14  32
ATOM     32  C   UNL     1      91.994 103.234  68.786  1.00  0.00    -0.046 C 
ATOM     33  C   UNL     1      91.308 102.286  67.848  1.00  0.00     0.042 C 
ATOM     34  C   UNL     1      92.789 104.220  68.342  1.00  0.00     0.010 C 
ENDBRANCH  14  32
ENDBRANCH   3   4
BRANCH   2  35
ATOM     35  C   UNL     1      93.933 101.061  75.202  1.00  0.00     0.078 CG0
ATOM     36  G   UNL     1      93.247 102.425  75.136  1.00  0.00     0.000 G0
ENDBRANCH   2  35
ENDBRANCH   1   2
BRANCH   1  37
ATOM     37  O   UNL     1      94.254  98.460  75.562  1.00  0.00    -0.461 OA
BRANCH  37  38
ATOM     38  C   UNL     1      93.344  97.476  75.869  1.00  0.00     0.310 C 
ATOM     39  O   UNL     1      92.151  97.660  76.069  1.00  0.00    -0.252 OA
BRANCH  38  40
ATOM     40  C   UNL     1      94.044  96.138  75.921  1.00  0.00     0.158 C 
BRANCH  40  41
ATOM     41  C   UNL     1      94.172  95.595  77.321  1.00  0.00    -0.033 A 
ATOM     42  C   UNL     1      94.975  96.253  78.253  1.00  0.00     0.054 A 
ATOM     43  C   UNL     1      93.487  94.436  77.684  1.00  0.00     0.008 A 
ATOM     44  C   UNL     1      95.093  95.750  79.549  1.00  0.00     0.160 A 
ATOM     45  C   UNL     1      93.605  93.933  78.980  1.00  0.00     0.050 A 
ATOM     46  C   UNL     1      94.408  94.590  79.913  1.00  0.00     0.157 A 
BRANCH  44  47
ATOM     47  O   UNL     1      95.880  96.401  80.451  1.00  0.00    -0.493 OA
ATOM     48  C   UNL     1      96.984  97.141  79.932  1.00  0.00     0.278 C 
ENDBRANCH  44  47
BRANCH  46  49
ATOM     49  O   UNL     1      94.515  94.090  81.175  1.00  0.00    -0.504 OA
ATOM     50  H   UNL     1      95.379  93.656  81.272  1.00  0.00     0.293 HD
ENDBRANCH  46  49
ENDBRANCH  40  41
ENDBRANCH  38  40
ENDBRANCH  37  38
ENDBRANCH   1  37
TORSDOF 11
ENDMDL
MODEL 5
REMARK VINA RESULT:    -6.635     28.999     33.228
REMARK INTER + INTRA:         -12.757
REMARK INTER:                 -11.854
REMARK INTRA:                  -0.902
REMARK UNBOUND:                -1.079
REMARK SMILES C=C(C)[C@]12C[C@@H](C)[C@@]34O[C@](Cc5ccccc5)(O[C@@H]1[C@@H]3C=C(COC(=O)Cc1ccc(O)c(OC)c1)C[C@]1(O)C(=O)C(C)=C[C@@H]41)O2
REMARK SMILES IDX 23 1 22 2 21 3 20 4 9 5 8 6 10 7 6 8 18 9 46 10 19 11 5 12
REMARK SMILES IDX 7 13 4 14 45 15 38 16 44 17 40 18 42 20 41 21 43 22 39 23
REMARK SMILES IDX 11 25 12 26 13 27 17 28 14 29 16 30 15 31 2 32 3 33 1 34
REMARK SMILES IDX 37 35 24 37 25 38 26 39 27 40 28 41 36 42 29 43 33 44 30 45
REMARK SMILES IDX 31 46 34 47 35 48 32 49
REMARK H PARENT 39 24 32 50
REMARK Flexibility Score: 90.00
ROOT
ATOM      1  C   UNL     1      65.964  87.712  71.179  1.00  0.00     0.264 C 
ENDROOT
BRANCH   1   2
ATOM      2  C   UNL     1      65.551  86.324  71.612  1.00  0.00    -0.033 C 
ATOM      3  C   UNL     1      65.075  86.138  72.860  1.00  0.00    -0.015 C 
BRANCH   3   4
ATOM      4  C   UNL     1      64.671  84.848  73.555  1.00  0.00     0.078 C 
ATOM      5  O   UNL     1      62.250  84.539  73.149  1.00  0.00    -0.319 OA
ATOM      6  C   UNL     1      63.562  83.953  72.886  1.00  0.00     0.095 C 
ATOM      7  C   UNL     1      62.049  85.024  74.491  1.00  0.00     0.289 C 
ATOM      8  C   UNL     1      63.637  82.517  73.554  1.00  0.00     0.023 C 
ATOM      9  O   UNL     1      63.028  85.999  74.840  1.00  0.00    -0.320 OA
ATOM     10  O   UNL     1      62.172  83.989  75.463  1.00  0.00    -0.313 OA
ATOM     11  C   UNL     1      64.181  85.156  74.991  1.00  0.00     0.170 C 
ATOM     12  C   UNL     1      64.063  82.606  75.051  1.00  0.00     0.049 C 
ATOM     13  C   UNL     1      62.363  81.666  73.434  1.00  0.00     0.011 C 
ATOM     14  C   UNL     1      63.593  83.909  75.698  1.00  0.00     0.122 C 
BRANCH   6  15
ATOM     15  C   UNL     1      63.695  83.977  71.336  1.00  0.00     0.086 C 
ATOM     16  C   UNL     1      65.129  83.883  70.774  1.00  0.00     0.140 CG0
ATOM     17  C   UNL     1      62.932  82.974  70.516  1.00  0.00    -0.010 C 
ATOM     18  C   UNL     1      64.928  83.096  69.497  1.00  0.00     0.190 C 
ATOM     19  G   UNL     1      65.741  85.261  70.523  1.00  0.00     0.000 G0
ATOM     20  C   UNL     1      63.588  82.481  69.460  1.00  0.00    -0.008 C 
ATOM     21  O   UNL     1      65.768  82.936  68.625  1.00  0.00    -0.291 OA
ATOM     22  C   UNL     1      63.131  81.555  68.403  1.00  0.00     0.048 C 
BRANCH  16  23
ATOM     23  O   UNL     1      65.994  83.065  71.544  1.00  0.00    -0.381 OA
ATOM     24  H   UNL     1      65.554  82.213  71.698  1.00  0.00     0.212 HD
ENDBRANCH  16  23
ENDBRANCH   6  15
BRANCH   7  25
ATOM     25  C   UNL     1      60.665  85.634  74.573  1.00  0.00     0.135 C 
BRANCH  25  26
ATOM     26  C   UNL     1      60.042  85.810  73.211  1.00  0.00    -0.040 A 
ATOM     27  C   UNL     1      59.603  84.695  72.496  1.00  0.00     0.004 A 
ATOM     28  C   UNL     1      59.904  87.086  72.665  1.00  0.00     0.004 A 
ATOM     29  C   UNL     1      59.026  84.857  71.236  1.00  0.00     0.000 A 
ATOM     30  C   UNL     1      59.328  87.248  71.405  1.00  0.00     0.000 A 
ATOM     31  C   UNL     1      58.889  86.132  70.691  1.00  0.00     0.000 A 
ENDBRANCH  25  26
ENDBRANCH   7  25
BRANCH  14  32
ATOM     32  C   UNL     1      63.828  83.936  77.173  1.00  0.00    -0.046 C 
ATOM     33  C   UNL     1      62.615  84.127  78.034  1.00  0.00     0.042 C 
ATOM     34  C   UNL     1      65.055  83.798  77.698  1.00  0.00     0.010 C 
ENDBRANCH  14  32
ENDBRANCH   3   4
BRANCH   2  35
ATOM     35  C   UNL     1      65.732  85.283  70.524  1.00  0.00     0.078 CG0
ATOM     36  G   UNL     1      65.165  83.889  70.790  1.00  0.00     0.000 G0
ENDBRANCH   2  35
ENDBRANCH   1   2
BRANCH   1  37
ATOM     37  O   UNL     1      66.761  87.620  70.018  1.00  0.00    -0.461 OA
BRANCH  37  38
ATOM     38  C   UNL     1      67.908  88.378  70.006  1.00  0.00     0.310 C 
ATOM     39  O   UNL     1      68.158  89.263  69.199  1.00  0.00    -0.252 OA
BRANCH  38  40
ATOM     40  C   UNL     1      68.808  87.949  71.141  1.00  0.00     0.158 C 
BRANCH  40  41
ATOM     41  C   UNL     1      70.032  87.206  70.673  1.00  0.00    -0.033 A 
ATOM     42  C   UNL     1      71.235  87.890  70.488  1.00  0.00     0.054 A 
ATOM     43  C   UNL     1      69.965  85.836  70.424  1.00  0.00     0.008 A 
ATOM     44  C   UNL     1      72.368  87.203  70.054  1.00  0.00     0.160 A 
ATOM     45  C   UNL     1      71.098  85.148  69.990  1.00  0.00     0.050 A 
ATOM     46  C   UNL     1      72.300  85.831  69.805  1.00  0.00     0.157 A 
BRANCH  44  47
ATOM     47  O   UNL     1      73.536  87.881  69.877  1.00  0.00    -0.493 OA
ATOM     48  C   UNL     1      73.808  88.372  68.565  1.00  0.00     0.278 C 
ENDBRANCH  44  47
BRANCH  46  49
ATOM     49  O   UNL     1      73.400  85.150  69.382  1.00  0.00    -0.504 OA
ATOM     50  H   UNL     1      74.044  85.105  70.109  1.00  0.00     0.293 HD
ENDBRANCH  46  49
ENDBRANCH  40  41
ENDBRANCH  38  40
ENDBRANCH  37  38
ENDBRANCH   1  37
TORSDOF 11
ENDMDL
MODEL 6
REMARK VINA RESULT:    -6.548     29.182     33.350
REMARK INTER + INTRA:         -12.603
REMARK INTER:                  -9.769
REMARK INTRA:                  -2.834
REMARK UNBOUND:                -1.079
REMARK SMILES C=C(C)[C@]12C[C@@H](C)[C@@]34O[C@](Cc5ccccc5)(O[C@@H]1[C@@H]3C=C(COC(=O)Cc1ccc(O)c(OC)c1)C[C@]1(O)C(=O)C(C)=C[C@@H]41)O2
REMARK SMILES IDX 23 1 22 2 21 3 20 4 9 5 8 6 10 7 6 8 18 9 46 10 19 11 5 12
REMARK SMILES IDX 7 13 4 14 45 15 38 16 44 17 40 18 42 20 41 21 43 22 39 23
REMARK SMILES IDX 11 25 12 26 13 27 17 28 14 29 16 30 15 31 2 32 3 33 1 34
REMARK SMILES IDX 37 35 24 37 25 38 26 39 27 40 28 41 36 42 29 43 33 44 30 45
REMARK SMILES IDX 31 46 34 47 35 48 32 49
REMARK H PARENT 39 24 32 50
REMARK Flexibility Score: 90.00
ROOT
ATOM      1  C   UNL     1      67.534  86.433  72.217  1.00  0.00     0.264 C 
ENDROOT
BRANCH   1   2
ATOM      2  C   UNL     1      66.435  86.278  73.242  1.00  0.00    -0.033 C 
ATOM      3  C   UNL     1      65.171  86.059  72.826  1.00  0.00    -0.015 C 
BRANCH   3   4
ATOM      4  C   UNL     1      63.893  85.947  73.641  1.00  0.00     0.078 C 
ATOM      5  O   UNL     1      63.588  83.551  74.177  1.00  0.00    -0.319 OA
ATOM      6  C   UNL     1      63.824  84.861  74.779  1.00  0.00     0.095 C 
ATOM      7  C   UNL     1      62.611  83.526  73.119  1.00  0.00     0.289 C 
ATOM      8  C   UNL     1      62.604  85.231  75.721  1.00  0.00     0.023 C 
ATOM      9  O   UNL     1      62.965  84.420  72.067  1.00  0.00    -0.320 OA
ATOM     10  O   UNL     1      61.323  83.945  73.562  1.00  0.00    -0.313 OA
ATOM     11  C   UNL     1      62.692  85.678  72.702  1.00  0.00     0.170 C 
ATOM     12  C   UNL     1      61.444  85.896  74.919  1.00  0.00     0.049 C 
ATOM     13  C   UNL     1      62.046  84.073  76.564  1.00  0.00     0.011 C 
ATOM     14  C   UNL     1      61.385  85.384  73.479  1.00  0.00     0.122 C 
BRANCH   6  15
ATOM     15  C   UNL     1      65.200  84.719  75.492  1.00  0.00     0.086 C 
ATOM     16  C   UNL     1      65.947  86.034  75.796  1.00  0.00     0.140 CG0
ATOM     17  C   UNL     1      65.284  83.961  76.787  1.00  0.00    -0.010 C 
ATOM     18  C   UNL     1      66.644  85.718  77.103  1.00  0.00     0.190 C 
ATOM     19  G   UNL     1      66.926  86.412  74.686  1.00  0.00     0.000 G0
ATOM     20  C   UNL     1      66.108  84.481  77.702  1.00  0.00    -0.008 C 
ATOM     21  O   UNL     1      67.502  86.408  77.633  1.00  0.00    -0.291 OA
ATOM     22  C   UNL     1      66.497  83.970  79.033  1.00  0.00     0.048 C 
BRANCH  16  23
ATOM     23  O   UNL     1      65.092  87.117  76.123  1.00  0.00    -0.381 OA
ATOM     24  H   UNL     1      65.022  87.173  77.090  1.00  0.00     0.212 HD
ENDBRANCH  16  23
ENDBRANCH   6  15
BRANCH   7  25
ATOM     25  C   UNL     1      62.526  82.111  72.583  1.00  0.00     0.135 C 
BRANCH  25  26
ATOM     26  C   UNL     1      63.422  81.905  71.387  1.00  0.00    -0.040 A 
ATOM     27  C   UNL     1      62.879  81.893  70.102  1.00  0.00     0.004 A 
ATOM     28  C   UNL     1      64.794  81.729  71.566  1.00  0.00     0.004 A 
ATOM     29  C   UNL     1      63.708  81.703  68.996  1.00  0.00     0.000 A 
ATOM     30  C   UNL     1      65.623  81.538  70.459  1.00  0.00     0.000 A 
ATOM     31  C   UNL     1      65.079  81.525  69.175  1.00  0.00     0.000 A 
ENDBRANCH  25  26
ENDBRANCH   7  25
BRANCH  14  32
ATOM     32  C   UNL     1      60.176  85.866  72.747  1.00  0.00    -0.046 C 
ATOM     33  C   UNL     1      59.980  87.352  72.697  1.00  0.00     0.042 C 
ATOM     34  C   UNL     1      59.313  85.018  72.167  1.00  0.00     0.010 C 
ENDBRANCH  14  32
ENDBRANCH   3   4
BRANCH   2  35
ATOM     35  C   UNL     1      66.934  86.390  74.670  1.00  0.00     0.078 CG0
ATOM     36  G   UNL     1      65.956  86.019  75.784  1.00  0.00     0.000 G0
ENDBRANCH   2  35
ENDBRANCH   1   2
BRANCH   1  37
ATOM     37  O   UNL     1      67.711  85.210  71.534  1.00  0.00    -0.461 OA
BRANCH  37  38
ATOM     38  C   UNL     1      68.007  85.299  70.194  1.00  0.00     0.310 C 
ATOM     39  O   UNL     1      69.005  85.832  69.729  1.00  0.00    -0.252 OA
BRANCH  38  40
ATOM     40  C   UNL     1      66.910  84.640  69.390  1.00  0.00     0.158 C 
BRANCH  40  41
ATOM     41  C   UNL     1      65.776  85.577  69.063  1.00  0.00    -0.033 A 
ATOM     42  C   UNL     1      66.048  86.868  68.607  1.00  0.00     0.054 A 
ATOM     43  C   UNL     1      64.456  85.155  69.216  1.00  0.00     0.008 A 
ATOM     44  C   UNL     1      64.998  87.735  68.305  1.00  0.00     0.160 A 
ATOM     45  C   UNL     1      63.406  86.022  68.914  1.00  0.00     0.050 A 
ATOM     46  C   UNL     1      63.677  87.312  68.458  1.00  0.00     0.157 A 
BRANCH  44  47
ATOM     47  O   UNL     1      65.275  88.993  67.861  1.00  0.00    -0.493 OA
ATOM     48  C   UNL     1      65.579  89.139  66.474  1.00  0.00     0.278 C 
ENDBRANCH  44  47
BRANCH  46  49
ATOM     49  O   UNL     1      62.644  88.150  68.165  1.00  0.00    -0.504 OA
ATOM     50  H   UNL     1      62.393  88.637  68.968  1.00  0.00     0.293 HD
ENDBRANCH  46  49
ENDBRANCH  40  41
ENDBRANCH  38  40
ENDBRANCH  37  38
ENDBRANCH   1  37
TORSDOF 11
ENDMDL
MODEL 7
REMARK VINA RESULT:    -6.532     19.459     23.509
REMARK INTER + INTRA:         -12.575
REMARK INTER:                 -12.069
REMARK INTRA:                  -0.505
REMARK UNBOUND:                -1.079
REMARK SMILES C=C(C)[C@]12C[C@@H](C)[C@@]34O[C@](Cc5ccccc5)(O[C@@H]1[C@@H]3C=C(COC(=O)Cc1ccc(O)c(OC)c1)C[C@]1(O)C(=O)C(C)=C[C@@H]41)O2
REMARK SMILES IDX 23 1 22 2 21 3 20 4 9 5 8 6 10 7 6 8 18 9 46 10 19 11 5 12
REMARK SMILES IDX 7 13 4 14 45 15 38 16 44 17 40 18 42 20 41 21 43 22 39 23
REMARK SMILES IDX 11 25 12 26 13 27 17 28 14 29 16 30 15 31 2 32 3 33 1 34
REMARK SMILES IDX 37 35 24 37 25 38 26 39 27 40 28 41 36 42 29 43 33 44 30 45
REMARK SMILES IDX 31 46 34 47 35 48 32 49
REMARK H PARENT 39 24 32 50
REMARK Flexibility Score: 90.00
ROOT
ATOM      1  C   UNL     1      93.204 101.082  70.564  1.00  0.00     0.264 C 
ENDROOT
BRANCH   1   2
ATOM      2  C   UNL     1      94.482 100.940  71.357  1.00  0.00    -0.033 C 
ATOM      3  C   UNL     1      94.417 100.583  72.655  1.00  0.00    -0.015 C 
BRANCH   3   4
ATOM      4  C   UNL     1      95.535 100.449  73.676  1.00  0.00     0.078 C 
ATOM      5  O   UNL     1      96.293  98.095  73.610  1.00  0.00    -0.319 OA
ATOM      6  C   UNL     1      96.725  99.468  73.359  1.00  0.00     0.095 C 
ATOM      7  C   UNL     1      95.521  97.901  74.811  1.00  0.00     0.289 C 
ATOM      8  C   UNL     1      97.918  99.828  74.338  1.00  0.00     0.023 C 
ATOM      9  O   UNL     1      94.355  98.720  74.814  1.00  0.00    -0.320 OA
ATOM     10  O   UNL     1      96.247  98.260  75.984  1.00  0.00    -0.313 OA
ATOM     11  C   UNL     1      94.951 100.007  75.041  1.00  0.00     0.170 C 
ATOM     12  C   UNL     1      97.392 100.329  75.719  1.00  0.00     0.049 C 
ATOM     13  C   UNL     1      98.951  98.712  74.559  1.00  0.00     0.011 C 
ATOM     14  C   UNL     1      96.053  99.686  76.081  1.00  0.00     0.122 C 
BRANCH   6  15
ATOM     15  C   UNL     1      97.073  99.494  71.843  1.00  0.00     0.086 C 
ATOM     16  C   UNL     1      97.091 100.884  71.174  1.00  0.00     0.140 CG0
ATOM     17  C   UNL     1      98.352  98.862  71.370  1.00  0.00    -0.010 C 
ATOM     18  C   UNL     1      98.196 100.738  70.149  1.00  0.00     0.190 C 
ATOM     19  G   UNL     1      95.747 101.237  70.539  1.00  0.00     0.000 G0
ATOM     20  C   UNL     1      98.992  99.522  70.399  1.00  0.00    -0.008 C 
ATOM     21  O   UNL     1      98.445 101.535  69.257  1.00  0.00    -0.291 OA
ATOM     22  C   UNL     1     100.212  99.161  69.647  1.00  0.00     0.048 C 
BRANCH  16  23
ATOM     23  O   UNL     1      97.552 101.923  72.022  1.00  0.00    -0.381 OA
ATOM     24  H   UNL     1      97.815 101.533  72.871  1.00  0.00     0.212 HD
ENDBRANCH  16  23
ENDBRANCH   6  15
BRANCH   7  25
ATOM     25  C   UNL     1      95.122  96.442  74.890  1.00  0.00     0.135 C 
BRANCH  25  26
ATOM     26  C   UNL     1      94.259  96.156  76.093  1.00  0.00    -0.040 A 
ATOM     27  C   UNL     1      92.904  96.488  76.074  1.00  0.00     0.004 A 
ATOM     28  C   UNL     1      94.814  95.558  77.224  1.00  0.00     0.004 A 
ATOM     29  C   UNL     1      92.105  96.224  77.187  1.00  0.00     0.000 A 
ATOM     30  C   UNL     1      94.015  95.294  78.337  1.00  0.00     0.000 A 
ATOM     31  C   UNL     1      92.661  95.627  78.318  1.00  0.00     0.000 A 
ENDBRANCH  25  26
ENDBRANCH   7  25
BRANCH  14  32
ATOM     32  C   UNL     1      95.620 100.008  77.474  1.00  0.00    -0.046 C 
ATOM     33  C   UNL     1      95.373 101.457  77.773  1.00  0.00     0.042 C 
ATOM     34  C   UNL     1      95.461  99.056  78.406  1.00  0.00     0.010 C 
ENDBRANCH  14  32
ENDBRANCH   3   4
BRANCH   2  35
ATOM     35  C   UNL     1      95.726 101.226  70.536  1.00  0.00     0.078 CG0
ATOM     36  G   UNL     1      97.075 100.891  71.171  1.00  0.00     0.000 G0
ENDBRANCH   2  35
ENDBRANCH   1   2
BRANCH   1  37
ATOM     37  O   UNL     1      92.437 102.138  71.101  1.00  0.00    -0.461 OA
BRANCH  37  38
ATOM     38  C   UNL     1      91.199 101.799  71.596  1.00  0.00     0.310 C 
ATOM     39  O   UNL     1      90.994 101.290  72.690  1.00  0.00    -0.252 OA
BRANCH  38  40
ATOM     40  C   UNL     1      90.136 102.153  70.583  1.00  0.00     0.158 C 
BRANCH  40  41
ATOM     41  C   UNL     1      89.567 100.947  69.882  1.00  0.00    -0.033 A 
ATOM     42  C   UNL     1      89.658  99.688  70.477  1.00  0.00     0.054 A 
ATOM     43  C   UNL     1      88.949 101.089  68.640  1.00  0.00     0.008 A 
ATOM     44  C   UNL     1      89.131  98.571  69.828  1.00  0.00     0.160 A 
ATOM     45  C   UNL     1      88.422  99.972  67.991  1.00  0.00     0.050 A 
ATOM     46  C   UNL     1      88.513  98.713  68.584  1.00  0.00     0.157 A 
BRANCH  44  47
ATOM     47  O   UNL     1      89.226  97.347  70.418  1.00  0.00    -0.493 OA
ATOM     48  C   UNL     1      89.904  96.326  69.687  1.00  0.00     0.278 C 
ENDBRANCH  44  47
BRANCH  46  49
ATOM     49  O   UNL     1      87.994  97.630  67.942  1.00  0.00    -0.504 OA
ATOM     50  H   UNL     1      88.548  96.854  68.131  1.00  0.00     0.293 HD
ENDBRANCH  46  49
ENDBRANCH  40  41
ENDBRANCH  38  40
ENDBRANCH  37  38
ENDBRANCH   1  37
TORSDOF 11
ENDMDL
MODEL 8
REMARK VINA RESULT:    -6.419      2.338      3.530
REMARK INTER + INTRA:         -12.376
REMARK INTER:                 -11.500
REMARK INTRA:                  -0.877
REMARK UNBOUND:                -1.079
REMARK SMILES C=C(C)[C@]12C[C@@H](C)[C@@]34O[C@](Cc5ccccc5)(O[C@@H]1[C@@H]3C=C(COC(=O)Cc1ccc(O)c(OC)c1)C[C@]1(O)C(=O)C(C)=C[C@@H]41)O2
REMARK SMILES IDX 23 1 22 2 21 3 20 4 9 5 8 6 10 7 6 8 18 9 46 10 19 11 5 12
REMARK SMILES IDX 7 13 4 14 45 15 38 16 44 17 40 18 42 20 41 21 43 22 39 23
REMARK SMILES IDX 11 25 12 26 13 27 17 28 14 29 16 30 15 31 2 32 3 33 1 34
REMARK SMILES IDX 37 35 24 37 25 38 26 39 27 40 28 41 36 42 29 43 33 44 30 45
REMARK SMILES IDX 31 46 34 47 35 48 32 49
REMARK H PARENT 39 24 32 50
REMARK Flexibility Score: 90.00
ROOT
ATOM      1  C   UNL     1      97.372  82.428  85.688  1.00  0.00     0.264 C 
ENDROOT
BRANCH   1   2
ATOM      2  C   UNL     1      96.148  83.054  86.314  1.00  0.00    -0.033 C 
ATOM      3  C   UNL     1      95.096  82.273  86.630  1.00  0.00    -0.015 C 
BRANCH   3   4
ATOM      4  C   UNL     1      93.737  82.663  87.189  1.00  0.00     0.078 C 
ATOM      5  O   UNL     1      93.898  82.501  89.652  1.00  0.00    -0.319 OA
ATOM      6  C   UNL     1      93.685  83.443  88.555  1.00  0.00     0.095 C 
ATOM      7  C   UNL     1      93.201  81.246  89.531  1.00  0.00     0.289 C 
ATOM      8  C   UNL     1      92.242  84.083  88.688  1.00  0.00     0.023 C 
ATOM      9  O   UNL     1      93.550  80.576  88.323  1.00  0.00    -0.320 OA
ATOM     10  O   UNL     1      91.787  81.415  89.483  1.00  0.00    -0.313 OA
ATOM     11  C   UNL     1      92.860  81.399  87.370  1.00  0.00     0.170 C 
ATOM     12  C   UNL     1      91.155  83.184  88.023  1.00  0.00     0.049 C 
ATOM     13  C   UNL     1      91.807  84.439  90.118  1.00  0.00     0.011 C 
ATOM     14  C   UNL     1      91.525  81.702  88.094  1.00  0.00     0.122 C 
BRANCH   6  15
ATOM     15  C   UNL     1      94.873  84.442  88.665  1.00  0.00     0.086 C 
ATOM     16  C   UNL     1      95.201  85.251  87.394  1.00  0.00     0.140 CG0
ATOM     17  C   UNL     1      94.862  85.483  89.749  1.00  0.00    -0.010 C 
ATOM     18  C   UNL     1      95.662  86.577  87.961  1.00  0.00     0.190 C 
ATOM     19  G   UNL     1      96.273  84.575  86.540  1.00  0.00     0.000 G0
ATOM     20  C   UNL     1      95.325  86.686  89.392  1.00  0.00    -0.008 C 
ATOM     21  O   UNL     1      96.198  87.472  87.324  1.00  0.00    -0.291 OA
ATOM     22  C   UNL     1      95.534  87.903  90.202  1.00  0.00     0.048 C 
BRANCH  16  23
ATOM     23  O   UNL     1      94.062  85.591  86.620  1.00  0.00    -0.381 OA
ATOM     24  H   UNL     1      93.788  84.808  86.116  1.00  0.00     0.212 HD
ENDBRANCH  16  23
ENDBRANCH   6  15
BRANCH   7  25
ATOM     25  C   UNL     1      93.568  80.382  90.721  1.00  0.00     0.135 C 
BRANCH  25  26
ATOM     26  C   UNL     1      92.707  79.146  90.808  1.00  0.00    -0.040 A 
ATOM     27  C   UNL     1      92.785  78.171  89.814  1.00  0.00     0.004 A 
ATOM     28  C   UNL     1      91.835  78.978  91.883  1.00  0.00     0.004 A 
ATOM     29  C   UNL     1      91.990  77.027  89.894  1.00  0.00     0.000 A 
ATOM     30  C   UNL     1      91.039  77.835  91.963  1.00  0.00     0.000 A 
ATOM     31  C   UNL     1      91.117  76.860  90.968  1.00  0.00     0.000 A 
ENDBRANCH  25  26
ENDBRANCH   7  25
BRANCH  14  32
ATOM     32  C   UNL     1      90.419  80.811  87.630  1.00  0.00    -0.046 C 
ATOM     33  C   UNL     1      90.008  80.959  86.195  1.00  0.00     0.042 C 
ATOM     34  C   UNL     1      89.828  79.929  88.449  1.00  0.00     0.010 C 
ENDBRANCH  14  32
ENDBRANCH   3   4
BRANCH   2  35
ATOM     35  C   UNL     1      96.283  84.552  86.517  1.00  0.00     0.078 CG0
ATOM     36  G   UNL     1      95.227  85.238  87.382  1.00  0.00     0.000 G0
ENDBRANCH   2  35
ENDBRANCH   1   2
BRANCH   1  37
ATOM     37  O   UNL     1      97.938  83.332  84.764  1.00  0.00    -0.461 OA
BRANCH  37  38
ATOM     38  C   UNL     1      97.886  82.962  83.441  1.00  0.00     0.310 C 
ATOM     39  O   UNL     1      97.377  83.622  82.546  1.00  0.00    -0.252 OA
BRANCH  38  40
ATOM     40  C   UNL     1      98.553  81.617  83.266  1.00  0.00     0.158 C 
BRANCH  40  41
ATOM     41  C   UNL     1      99.653  81.636  82.237  1.00  0.00    -0.033 A 
ATOM     42  C   UNL     1      99.338  81.753  80.882  1.00  0.00     0.054 A 
ATOM     43  C   UNL     1     100.985  81.536  82.637  1.00  0.00     0.008 A 
ATOM     44  C   UNL     1     100.356  81.770  79.929  1.00  0.00     0.160 A 
ATOM     45  C   UNL     1     102.003  81.553  81.684  1.00  0.00     0.050 A 
ATOM     46  C   UNL     1     101.690  81.670  80.330  1.00  0.00     0.157 A 
BRANCH  44  47
ATOM     47  O   UNL     1     100.037  81.885  78.610  1.00  0.00    -0.493 OA
ATOM     48  C   UNL     1      99.599  83.165  78.157  1.00  0.00     0.278 C 
ENDBRANCH  44  47
BRANCH  46  49
ATOM     49  O   UNL     1     102.692  81.687  79.408  1.00  0.00    -0.504 OA
ATOM     50  H   UNL     1     102.399  82.192  78.631  1.00  0.00     0.293 HD
ENDBRANCH  46  49
ENDBRANCH  40  41
ENDBRANCH  38  40
ENDBRANCH  37  38
ENDBRANCH   1  37
TORSDOF 11
ENDMDL
MODEL 9
REMARK VINA RESULT:    -6.049     16.462     21.211
REMARK INTER + INTRA:         -11.724
REMARK INTER:                 -10.818
REMARK INTRA:                  -0.906
REMARK UNBOUND:                -1.079
REMARK SMILES C=C(C)[C@]12C[C@@H](C)[C@@]34O[C@](Cc5ccccc5)(O[C@@H]1[C@@H]3C=C(COC(=O)Cc1ccc(O)c(OC)c1)C[C@]1(O)C(=O)C(C)=C[C@@H]41)O2
REMARK SMILES IDX 23 1 22 2 21 3 20 4 9 5 8 6 10 7 6 8 18 9 46 10 19 11 5 12
REMARK SMILES IDX 7 13 4 14 45 15 38 16 44 17 40 18 42 20 41 21 43 22 39 23
REMARK SMILES IDX 11 25 12 26 13 27 17 28 14 29 16 30 15 31 2 32 3 33 1 34
REMARK SMILES IDX 37 35 24 37 25 38 26 39 27 40 28 41 36 42 29 43 33 44 30 45
REMARK SMILES IDX 31 46 34 47 35 48 32 49
REMARK H PARENT 39 24 32 50
REMARK Flexibility Score: 90.00
ROOT
ATOM      1  C   UNL     1      87.789  69.404  77.067  1.00  0.00     0.264 C 
ENDROOT
BRANCH   1   2
ATOM      2  C   UNL     1      87.621  68.123  76.283  1.00  0.00    -0.033 C 
ATOM      3  C   UNL     1      86.500  67.936  75.557  1.00  0.00    -0.015 C 
BRANCH   3   4
ATOM      4  C   UNL     1      86.062  66.722  74.755  1.00  0.00     0.078 C 
ATOM      5  O   UNL     1      86.883  67.050  72.445  1.00  0.00    -0.319 OA
ATOM      6  C   UNL     1      87.014  66.191  73.619  1.00  0.00     0.095 C 
ATOM      7  C   UNL     1      85.537  67.437  72.110  1.00  0.00     0.289 C 
ATOM      8  C   UNL     1      86.547  64.723  73.249  1.00  0.00     0.023 C 
ATOM      9  O   UNL     1      84.906  68.107  73.198  1.00  0.00    -0.320 OA
ATOM     10  O   UNL     1      84.708  66.314  71.818  1.00  0.00    -0.313 OA
ATOM     11  C   UNL     1      84.692  67.000  74.087  1.00  0.00     0.170 C 
ATOM     12  C   UNL     1      85.003  64.560  73.398  1.00  0.00     0.049 C 
ATOM     13  C   UNL     1      86.982  64.222  71.862  1.00  0.00     0.011 C 
ATOM     14  C   UNL     1      84.266  65.870  73.117  1.00  0.00     0.122 C 
BRANCH   6  15
ATOM     15  C   UNL     1      88.506  66.332  74.039  1.00  0.00     0.086 C 
ATOM     16  C   UNL     1      88.841  65.950  75.496  1.00  0.00     0.140 CG0
ATOM     17  C   UNL     1      89.566  65.627  73.241  1.00  0.00    -0.010 C 
ATOM     18  C   UNL     1      90.230  65.361  75.368  1.00  0.00     0.190 C 
ATOM     19  G   UNL     1      88.801  67.157  76.433  1.00  0.00     0.000 G0
ATOM     20  C   UNL     1      90.562  65.095  73.956  1.00  0.00    -0.008 C 
ATOM     21  O   UNL     1      90.972  65.088  76.299  1.00  0.00    -0.291 OA
ATOM     22  C   UNL     1      91.795  64.413  73.510  1.00  0.00     0.048 C 
BRANCH  16  23
ATOM     23  O   UNL     1      88.064  64.877  76.001  1.00  0.00    -0.381 OA
ATOM     24  H   UNL     1      88.587  64.061  75.935  1.00  0.00     0.212 HD
ENDBRANCH  16  23
ENDBRANCH   6  15
BRANCH   7  25
ATOM     25  C   UNL     1      85.590  68.354  70.905  1.00  0.00     0.135 C 
BRANCH  25  26
ATOM     26  C   UNL     1      86.948  68.991  70.740  1.00  0.00    -0.040 A 
ATOM     27  C   UNL     1      87.217  70.223  71.336  1.00  0.00     0.004 A 
ATOM     28  C   UNL     1      87.934  68.348  69.992  1.00  0.00     0.004 A 
ATOM     29  C   UNL     1      88.472  70.812  71.183  1.00  0.00     0.000 A 
ATOM     30  C   UNL     1      89.189  68.937  69.840  1.00  0.00     0.000 A 
ATOM     31  C   UNL     1      89.458  70.170  70.435  1.00  0.00     0.000 A 
ENDBRANCH  25  26
ENDBRANCH   7  25
BRANCH  14  32
ATOM     32  C   UNL     1      82.782  65.697  73.074  1.00  0.00    -0.046 C 
ATOM     33  C   UNL     1      82.064  65.813  74.386  1.00  0.00     0.042 C 
ATOM     34  C   UNL     1      82.129  65.450  71.929  1.00  0.00     0.010 C 
ENDBRANCH  14  32
ENDBRANCH   3   4
BRANCH   2  35
ATOM     35  C   UNL     1      88.801  67.180  76.424  1.00  0.00     0.078 CG0
ATOM     36  G   UNL     1      88.841  65.966  75.497  1.00  0.00     0.000 G0
ENDBRANCH   2  35
ENDBRANCH   1   2
BRANCH   1  37
ATOM     37  O   UNL     1      89.159  69.610  77.337  1.00  0.00    -0.461 OA
BRANCH  37  38
ATOM     38  C   UNL     1      89.518  69.648  78.664  1.00  0.00     0.310 C 
ATOM     39  O   UNL     1      88.766  69.424  79.602  1.00  0.00    -0.252 OA
BRANCH  38  40
ATOM     40  C   UNL     1      90.980  70.010  78.780  1.00  0.00     0.158 C 
BRANCH  40  41
ATOM     41  C   UNL     1      91.223  71.497  78.748  1.00  0.00    -0.033 A 
ATOM     42  C   UNL     1      91.888  72.072  77.665  1.00  0.00     0.054 A 
ATOM     43  C   UNL     1      90.783  72.298  79.801  1.00  0.00     0.008 A 
ATOM     44  C   UNL     1      92.113  73.448  77.635  1.00  0.00     0.160 A 
ATOM     45  C   UNL     1      91.007  73.674  79.772  1.00  0.00     0.050 A 
ATOM     46  C   UNL     1      91.672  74.250  78.689  1.00  0.00     0.157 A 
BRANCH  44  47
ATOM     47  O   UNL     1      92.763  73.998  76.572  1.00  0.00    -0.493 OA
ATOM     48  C   UNL     1      91.988  74.263  75.404  1.00  0.00     0.278 C 
ENDBRANCH  44  47
BRANCH  46  49
ATOM     49  O   UNL     1      91.885  75.595  78.671  1.00  0.00    -0.504 OA
ATOM     50  H   UNL     1      92.607  75.810  79.285  1.00  0.00     0.293 HD
ENDBRANCH  46  49
ENDBRANCH  40  41
ENDBRANCH  38  40
ENDBRANCH  37  38
ENDBRANCH   1  37
TORSDOF 11
ENDMDL
MODEL 10
REMARK VINA RESULT:    -5.966     28.899     32.463
REMARK INTER + INTRA:         -11.579
REMARK INTER:                 -10.834
REMARK INTRA:                  -0.745
REMARK UNBOUND:                -1.079
REMARK SMILES C=C(C)[C@]12C[C@@H](C)[C@@]34O[C@](Cc5ccccc5)(O[C@@H]1[C@@H]3C=C(COC(=O)Cc1ccc(O)c(OC)c1)C[C@]1(O)C(=O)C(C)=C[C@@H]41)O2
REMARK SMILES IDX 23 1 22 2 21 3 20 4 9 5 8 6 10 7 6 8 18 9 46 10 19 11 5 12
REMARK SMILES IDX 7 13 4 14 45 15 38 16 44 17 40 18 42 20 41 21 43 22 39 23
REMARK SMILES IDX 11 25 12 26 13 27 17 28 14 29 16 30 15 31 2 32 3 33 1 34
REMARK SMILES IDX 37 35 24 37 25 38 26 39 27 40 28 41 36 42 29 43 33 44 30 45
REMARK SMILES IDX 31 46 34 47 35 48 32 49
REMARK H PARENT 39 24 32 50
REMARK Flexibility Score: 90.00
ROOT
ATOM      1  C   UNL     1      67.810  86.305  71.971  1.00  0.00     0.264 C 
ENDROOT
BRANCH   1   2
ATOM      2  C   UNL     1      66.727  86.330  73.024  1.00  0.00    -0.033 C 
ATOM      3  C   UNL     1      65.437  86.219  72.647  1.00  0.00    -0.015 C 
BRANCH   3   4
ATOM      4  C   UNL     1      64.175  86.292  73.491  1.00  0.00     0.078 C 
ATOM      5  O   UNL     1      63.629  83.978  74.173  1.00  0.00    -0.319 OA
ATOM      6  C   UNL     1      64.019  85.287  74.692  1.00  0.00     0.095 C 
ATOM      7  C   UNL     1      62.629  83.998  73.137  1.00  0.00     0.289 C 
ATOM      8  C   UNL     1      62.870  85.840  75.634  1.00  0.00     0.023 C 
ATOM      9  O   UNL     1      63.050  84.787  72.027  1.00  0.00    -0.320 OA
ATOM     10  O   UNL     1      61.404  84.579  73.579  1.00  0.00    -0.313 OA
ATOM     11  C   UNL     1      62.929  86.102  72.592  1.00  0.00     0.170 C 
ATOM     12  C   UNL     1      61.767  86.579  74.816  1.00  0.00     0.049 C 
ATOM     13  C   UNL     1      62.213  84.798  76.554  1.00  0.00     0.011 C 
ATOM     14  C   UNL     1      61.618  85.995  73.410  1.00  0.00     0.122 C 
BRANCH   6  15
ATOM     15  C   UNL     1      65.389  85.038  75.386  1.00  0.00     0.086 C 
ATOM     16  C   UNL     1      66.279  86.280  75.599  1.00  0.00     0.140 CG0
ATOM     17  C   UNL     1      65.425  84.349  76.721  1.00  0.00    -0.010 C 
ATOM     18  C   UNL     1      66.972  85.964  76.908  1.00  0.00     0.190 C 
ATOM     19  G   UNL     1      67.266  86.487  74.450  1.00  0.00     0.000 G0
ATOM     20  C   UNL     1      66.322  84.828  77.589  1.00  0.00    -0.008 C 
ATOM     21  O   UNL     1      67.911  86.586  77.380  1.00  0.00    -0.291 OA
ATOM     22  C   UNL     1      66.687  84.354  78.940  1.00  0.00     0.048 C 
BRANCH  16  23
ATOM     23  O   UNL     1      65.553  87.465  75.877  1.00  0.00    -0.381 OA
ATOM     24  H   UNL     1      66.166  88.121  76.248  1.00  0.00     0.212 HD
ENDBRANCH  16  23
ENDBRANCH   6  15
BRANCH   7  25
ATOM     25  C   UNL     1      62.380  82.573  72.688  1.00  0.00     0.135 C 
BRANCH  25  26
ATOM     26  C   UNL     1      63.308  82.162  71.572  1.00  0.00    -0.040 A 
ATOM     27  C   UNL     1      64.646  81.875  71.848  1.00  0.00     0.004 A 
ATOM     28  C   UNL     1      62.830  82.068  70.265  1.00  0.00     0.004 A 
ATOM     29  C   UNL     1      65.504  81.495  70.816  1.00  0.00     0.000 A 
ATOM     30  C   UNL     1      63.689  81.687  69.234  1.00  0.00     0.000 A 
ATOM     31  C   UNL     1      65.026  81.401  69.510  1.00  0.00     0.000 A 
ENDBRANCH  25  26
ENDBRANCH   7  25
BRANCH  14  32
ATOM     32  C   UNL     1      60.449  86.563  72.673  1.00  0.00    -0.046 C 
ATOM     33  C   UNL     1      60.347  88.059  72.645  1.00  0.00     0.042 C 
ATOM     34  C   UNL     1      59.541  85.779  72.072  1.00  0.00     0.010 C 
ENDBRANCH  14  32
ENDBRANCH   3   4
BRANCH   2  35
ATOM     35  C   UNL     1      67.271  86.477  74.432  1.00  0.00     0.078 CG0
ATOM     36  G   UNL     1      66.284  86.295  75.585  1.00  0.00     0.000 G0
ENDBRANCH   2  35
ENDBRANCH   1   2
BRANCH   1  37
ATOM     37  O   UNL     1      68.139  84.965  71.672  1.00  0.00    -0.461 OA
BRANCH  37  38
ATOM     38  C   UNL     1      68.742  84.743  70.456  1.00  0.00     0.310 C 
ATOM     39  O   UNL     1      69.690  85.379  70.015  1.00  0.00    -0.252 OA
BRANCH  38  40
ATOM     40  C   UNL     1      68.053  83.598  69.752  1.00  0.00     0.158 C 
BRANCH  40  41
ATOM     41  C   UNL     1      68.342  83.556  68.274  1.00  0.00    -0.033 A 
ATOM     42  C   UNL     1      69.626  83.842  67.806  1.00  0.00     0.054 A 
ATOM     43  C   UNL     1      67.329  83.232  67.373  1.00  0.00     0.008 A 
ATOM     44  C   UNL     1      69.894  83.804  66.438  1.00  0.00     0.160 A 
ATOM     45  C   UNL     1      67.597  83.193  66.005  1.00  0.00     0.050 A 
ATOM     46  C   UNL     1      68.879  83.479  65.537  1.00  0.00     0.157 A 
BRANCH  44  47
ATOM     47  O   UNL     1      71.151  84.085  65.994  1.00  0.00    -0.493 OA
ATOM     48  C   UNL     1      72.195  83.202  66.400  1.00  0.00     0.278 C 
ENDBRANCH  44  47
BRANCH  46  49
ATOM     49  O   UNL     1      69.129  83.438  64.199  1.00  0.00    -0.504 OA
ATOM     50  H   UNL     1      69.996  83.023  64.052  1.00  0.00     0.293 HD
ENDBRANCH  46  49
ENDBRANCH  40  41
ENDBRANCH  38  40
ENDBRANCH  37  38
ENDBRANCH   1  37
TORSDOF 11
ENDMDL
