MODEL 1
REMARK VINA RESULT:    -5.834      0.000      0.000
REMARK INTER + INTRA:         -10.360
REMARK INTER:                  -9.585
REMARK INTRA:                  -0.775
REMARK UNBOUND:                -0.775
REMARK SMILES CCCCC[C@H](O)CC(=O)CCc1ccc(O)c(OC)c1
REMARK SMILES IDX 8 1 6 2 7 3 5 5 4 6 3 7 2 8 1 9 9 10 10 11 11 12 12 13 13 14
REMARK SMILES IDX 21 15 14 16 18 17 15 18 16 19 19 20 20 21 17 22
REMARK H PARENT 7 4 17 23
REMARK Flexibility Score: inf
ROOT
ATOM      1  C   UNL     1      98.142  82.017  76.316  1.00  0.00     0.107 C 
ENDROOT
BRANCH   1   2
ATOM      2  C   UNL     1      97.426  82.636  75.113  1.00  0.00     0.121 C 
BRANCH   2   3
ATOM      3  O   UNL     1      96.993  83.956  75.434  1.00  0.00    -0.393 OA
ATOM      4  H   UNL     1      96.081  84.057  75.110  1.00  0.00     0.210 HD
ENDBRANCH   2   3
BRANCH   2   5
ATOM      5  C   UNL     1      98.300  82.683  73.854  1.00  0.00     0.032 C 
BRANCH   5   6
ATOM      6  C   UNL     1      98.162  81.411  73.008  1.00  0.00     0.003 C 
BRANCH   6   7
ATOM      7  C   UNL     1      96.772  80.772  73.096  1.00  0.00    -0.000 C 
BRANCH   7   8
ATOM      8  C   UNL     1      96.473  79.799  71.957  1.00  0.00    -0.003 C 
ATOM      9  C   UNL     1      97.025  78.413  72.252  1.00  0.00     0.004 C 
ENDBRANCH   7   8
ENDBRANCH   6   7
ENDBRANCH   5   6
ENDBRANCH   2   5
ENDBRANCH   1   2
BRANCH   1  10
ATOM     10  C   UNL     1      97.317  82.070  77.592  1.00  0.00     0.135 C 
ATOM     11  O   UNL     1      96.096  82.223  77.550  1.00  0.00    -0.300 OA
BRANCH  10  12
ATOM     12  C   UNL     1      98.070  81.880  78.900  1.00  0.00     0.080 C 
BRANCH  12  13
ATOM     13  C   UNL     1      97.388  80.910  79.866  1.00  0.00     0.043 C 
BRANCH  13  14
ATOM     14  C   UNL     1      97.180  81.494  81.243  1.00  0.00    -0.044 A 
ATOM     15  C   UNL     1      97.849  80.951  82.340  1.00  0.00     0.054 A 
ATOM     16  C   UNL     1      96.319  82.578  81.417  1.00  0.00     0.008 A 
ATOM     17  C   UNL     1      97.657  81.492  83.611  1.00  0.00     0.160 A 
ATOM     18  C   UNL     1      96.127  83.119  82.689  1.00  0.00     0.050 A 
ATOM     19  C   UNL     1      96.796  82.576  83.786  1.00  0.00     0.157 A 
BRANCH  17  20
ATOM     20  O   UNL     1      98.315  80.953  84.675  1.00  0.00    -0.493 OA
ATOM     21  C   UNL     1      97.725  79.808  85.290  1.00  0.00     0.278 C 
ENDBRANCH  17  20
BRANCH  19  22
ATOM     22  O   UNL     1      96.600  83.113  85.022  1.00  0.00    -0.504 OA
ATOM     23  H   UNL     1      97.171  82.653  85.661  1.00  0.00     0.293 HD
ENDBRANCH  19  22
ENDBRANCH  13  14
ENDBRANCH  12  13
ENDBRANCH  10  12
ENDBRANCH   1  10
TORSDOF 12
ENDMDL
MODEL 2
REMARK VINA RESULT:    -5.454      8.170     11.313
REMARK INTER + INTRA:          -9.736
REMARK INTER:                  -7.268
REMARK INTRA:                  -2.467
REMARK UNBOUND:                -0.775
REMARK SMILES CCCCC[C@H](O)CC(=O)CCc1ccc(O)c(OC)c1
REMARK SMILES IDX 8 1 6 2 7 3 5 5 4 6 3 7 2 8 1 9 9 10 10 11 11 12 12 13 13 14
REMARK SMILES IDX 21 15 14 16 18 17 15 18 16 19 19 20 20 21 17 22
REMARK H PARENT 7 4 17 23
REMARK Flexibility Score: inf
ROOT
ATOM      1  C   UNL     1      93.982  82.311  86.895  1.00  0.00     0.107 C 
ENDROOT
BRANCH   1   2
ATOM      2  C   UNL     1      92.998  83.468  87.084  1.00  0.00     0.121 C 
BRANCH   2   3
ATOM      3  O   UNL     1      92.586  83.965  85.813  1.00  0.00    -0.393 OA
ATOM      4  H   UNL     1      92.295  83.206  85.277  1.00  0.00     0.210 HD
ENDBRANCH   2   3
BRANCH   2   5
ATOM      5  C   UNL     1      91.759  83.074  87.898  1.00  0.00     0.032 C 
BRANCH   5   6
ATOM      6  C   UNL     1      92.026  81.871  88.810  1.00  0.00     0.003 C 
BRANCH   6   7
ATOM      7  C   UNL     1      91.027  80.727  88.613  1.00  0.00    -0.000 C 
BRANCH   7   8
ATOM      8  C   UNL     1      89.597  81.200  88.359  1.00  0.00    -0.003 C 
ATOM      9  C   UNL     1      88.785  80.143  87.626  1.00  0.00     0.004 C 
ENDBRANCH   7   8
ENDBRANCH   6   7
ENDBRANCH   5   6
ENDBRANCH   2   5
ENDBRANCH   1   2
BRANCH   1  10
ATOM     10  C   UNL     1      94.456  82.161  85.459  1.00  0.00     0.135 C 
ATOM     11  O   UNL     1      95.254  82.960  84.969  1.00  0.00    -0.300 OA
BRANCH  10  12
ATOM     12  C   UNL     1      93.932  80.958  84.690  1.00  0.00     0.080 C 
BRANCH  12  13
ATOM     13  C   UNL     1      92.974  80.080  85.498  1.00  0.00     0.043 C 
BRANCH  13  14
ATOM     14  C   UNL     1      91.564  80.089  84.958  1.00  0.00    -0.044 A 
ATOM     15  C   UNL     1      90.922  78.886  84.664  1.00  0.00     0.054 A 
ATOM     16  C   UNL     1      90.904  81.301  84.753  1.00  0.00     0.008 A 
ATOM     17  C   UNL     1      89.619  78.896  84.166  1.00  0.00     0.160 A 
ATOM     18  C   UNL     1      89.601  81.311  84.255  1.00  0.00     0.050 A 
ATOM     19  C   UNL     1      88.959  80.108  83.961  1.00  0.00     0.157 A 
BRANCH  17  20
ATOM     20  O   UNL     1      89.002  77.715  83.882  1.00  0.00    -0.493 OA
ATOM     21  C   UNL     1      88.865  76.781  84.952  1.00  0.00     0.278 C 
ENDBRANCH  17  20
BRANCH  19  22
ATOM     22  O   UNL     1      87.686  80.130  83.475  1.00  0.00    -0.504 OA
ATOM     23  H   UNL     1      87.392  81.053  83.401  1.00  0.00     0.293 HD
ENDBRANCH  19  22
ENDBRANCH  13  14
ENDBRANCH  12  13
ENDBRANCH  10  12
ENDBRANCH   1  10
TORSDOF 12
ENDMDL
MODEL 3
REMARK VINA RESULT:    -5.357     18.862     21.338
REMARK INTER + INTRA:          -9.577
REMARK INTER:                  -8.819
REMARK INTRA:                  -0.758
REMARK UNBOUND:                -0.775
REMARK SMILES CCCCC[C@H](O)CC(=O)CCc1ccc(O)c(OC)c1
REMARK SMILES IDX 8 1 6 2 7 3 5 5 4 6 3 7 2 8 1 9 9 10 10 11 11 12 12 13 13 14
REMARK SMILES IDX 21 15 14 16 18 17 15 18 16 19 19 20 20 21 17 22
REMARK H PARENT 7 4 17 23
REMARK Flexibility Score: inf
ROOT
ATOM      1  C   UNL     1      89.330 100.085  68.978  1.00  0.00     0.107 C 
ENDROOT
BRANCH   1   2
ATOM      2  C   UNL     1      88.882  99.145  67.856  1.00  0.00     0.121 C 
BRANCH   2   3
ATOM      3  O   UNL     1      88.479  97.893  68.407  1.00  0.00    -0.393 OA
ATOM      4  H   UNL     1      88.574  97.218  67.712  1.00  0.00     0.210 HD
ENDBRANCH   2   3
BRANCH   2   5
ATOM      5  C   UNL     1      87.736  99.719  67.014  1.00  0.00     0.032 C 
BRANCH   5   6
ATOM      6  C   UNL     1      88.137 101.017  66.303  1.00  0.00     0.003 C 
BRANCH   6   7
ATOM      7  C   UNL     1      87.014 102.058  66.262  1.00  0.00    -0.000 C 
BRANCH   7   8
ATOM      8  C   UNL     1      87.372 103.371  66.955  1.00  0.00    -0.003 C 
ATOM      9  C   UNL     1      86.329 104.444  66.682  1.00  0.00     0.004 C 
ENDBRANCH   7   8
ENDBRANCH   6   7
ENDBRANCH   5   6
ENDBRANCH   2   5
ENDBRANCH   1   2
BRANCH   1  10
ATOM     10  C   UNL     1      90.127  99.380  70.064  1.00  0.00     0.135 C 
ATOM     11  O   UNL     1      89.595  98.551  70.801  1.00  0.00    -0.300 OA
BRANCH  10  12
ATOM     12  C   UNL     1      91.607  99.720  70.153  1.00  0.00     0.080 C 
BRANCH  12  13
ATOM     13  C   UNL     1      92.068 100.093  71.563  1.00  0.00     0.043 C 
BRANCH  13  14
ATOM     14  C   UNL     1      93.248  99.278  72.035  1.00  0.00    -0.044 A 
ATOM     15  C   UNL     1      94.315  99.029  71.171  1.00  0.00     0.054 A 
ATOM     16  C   UNL     1      93.272  98.774  73.336  1.00  0.00     0.008 A 
ATOM     17  C   UNL     1      95.405  98.277  71.608  1.00  0.00     0.160 A 
ATOM     18  C   UNL     1      94.363  98.022  73.773  1.00  0.00     0.050 A 
ATOM     19  C   UNL     1      95.429  97.773  72.909  1.00  0.00     0.157 A 
BRANCH  17  20
ATOM     20  O   UNL     1      96.441  98.040  70.755  1.00  0.00    -0.493 OA
ATOM     21  C   UNL     1      96.236  97.054  69.745  1.00  0.00     0.278 C 
ENDBRANCH  17  20
BRANCH  19  22
ATOM     22  O   UNL     1      96.488  97.038  73.347  1.00  0.00    -0.504 OA
ATOM     23  H   UNL     1      96.677  96.337  72.699  1.00  0.00     0.293 HD
ENDBRANCH  19  22
ENDBRANCH  13  14
ENDBRANCH  12  13
ENDBRANCH  10  12
ENDBRANCH   1  10
TORSDOF 12
ENDMDL
MODEL 4
REMARK VINA RESULT:    -5.354      2.656      9.143
REMARK INTER + INTRA:          -9.572
REMARK INTER:                  -8.785
REMARK INTRA:                  -0.787
REMARK UNBOUND:                -0.775
REMARK SMILES CCCCC[C@H](O)CC(=O)CCc1ccc(O)c(OC)c1
REMARK SMILES IDX 8 1 6 2 7 3 5 5 4 6 3 7 2 8 1 9 9 10 10 11 11 12 12 13 13 14
REMARK SMILES IDX 21 15 14 16 18 17 15 18 16 19 19 20 20 21 17 22
REMARK H PARENT 7 4 17 23
REMARK Flexibility Score: inf
ROOT
ATOM      1  C   UNL     1      97.450  82.062  77.392  1.00  0.00     0.107 C 
ENDROOT
BRANCH   1   2
ATOM      2  C   UNL     1      97.253  81.079  78.549  1.00  0.00     0.121 C 
BRANCH   2   3
ATOM      3  O   UNL     1      97.878  79.836  78.238  1.00  0.00    -0.393 OA
ATOM      4  H   UNL     1      98.746  79.821  78.677  1.00  0.00     0.210 HD
ENDBRANCH   2   3
BRANCH   2   5
ATOM      5  C   UNL     1      97.804  81.602  79.881  1.00  0.00     0.032 C 
BRANCH   5   6
ATOM      6  C   UNL     1      96.688  82.063  80.826  1.00  0.00     0.003 C 
BRANCH   6   7
ATOM      7  C   UNL     1      96.544  81.181  82.071  1.00  0.00    -0.000 C 
BRANCH   7   8
ATOM      8  C   UNL     1      96.385  81.973  83.367  1.00  0.00    -0.003 C 
ATOM      9  C   UNL     1      96.219  83.460  83.091  1.00  0.00     0.004 C 
ENDBRANCH   7   8
ENDBRANCH   6   7
ENDBRANCH   5   6
ENDBRANCH   2   5
ENDBRANCH   1   2
BRANCH   1  10
ATOM     10  C   UNL     1      96.145  82.650  76.882  1.00  0.00     0.135 C 
ATOM     11  O   UNL     1      95.323  83.136  77.658  1.00  0.00    -0.300 OA
BRANCH  10  12
ATOM     12  C   UNL     1      95.937  82.644  75.375  1.00  0.00     0.080 C 
BRANCH  12  13
ATOM     13  C   UNL     1      96.863  83.603  74.623  1.00  0.00     0.043 C 
BRANCH  13  14
ATOM     14  C   UNL     1      97.919  82.891  73.811  1.00  0.00    -0.044 A 
ATOM     15  C   UNL     1      99.081  83.564  73.435  1.00  0.00     0.054 A 
ATOM     16  C   UNL     1      97.731  81.560  73.437  1.00  0.00     0.008 A 
ATOM     17  C   UNL     1     100.056  82.906  72.685  1.00  0.00     0.160 A 
ATOM     18  C   UNL     1      98.706  80.902  72.688  1.00  0.00     0.050 A 
ATOM     19  C   UNL     1      99.868  81.575  72.311  1.00  0.00     0.157 A 
BRANCH  17  20
ATOM     20  O   UNL     1     101.187  83.573  72.323  1.00  0.00    -0.493 OA
ATOM     21  C   UNL     1     101.141  84.313  71.104  1.00  0.00     0.278 C 
ENDBRANCH  17  20
BRANCH  19  22
ATOM     22  O   UNL     1     100.813  80.921  71.580  1.00  0.00    -0.504 OA
ATOM     23  H   UNL     1     100.383  80.219  71.062  1.00  0.00     0.293 HD
ENDBRANCH  19  22
ENDBRANCH  13  14
ENDBRANCH  12  13
ENDBRANCH  10  12
ENDBRANCH   1  10
TORSDOF 12
ENDMDL
MODEL 5
REMARK VINA RESULT:    -5.273      2.807      8.066
REMARK INTER + INTRA:          -9.438
REMARK INTER:                  -8.186
REMARK INTRA:                  -1.251
REMARK UNBOUND:                -0.775
REMARK SMILES CCCCC[C@H](O)CC(=O)CCc1ccc(O)c(OC)c1
REMARK SMILES IDX 8 1 6 2 7 3 5 5 4 6 3 7 2 8 1 9 9 10 10 11 11 12 12 13 13 14
REMARK SMILES IDX 21 15 14 16 18 17 15 18 16 19 19 20 20 21 17 22
REMARK H PARENT 7 4 17 23
REMARK Flexibility Score: inf
ROOT
ATOM      1  C   UNL     1      99.978  78.953  81.178  1.00  0.00     0.107 C 
ENDROOT
BRANCH   1   2
ATOM      2  C   UNL     1      98.669  78.630  81.902  1.00  0.00     0.121 C 
BRANCH   2   3
ATOM      3  O   UNL     1      98.534  77.218  82.049  1.00  0.00    -0.393 OA
ATOM      4  H   UNL     1      97.617  77.033  82.316  1.00  0.00     0.210 HD
ENDBRANCH   2   3
BRANCH   2   5
ATOM      5  C   UNL     1      98.565  79.293  83.280  1.00  0.00     0.032 C 
BRANCH   5   6
ATOM      6  C   UNL     1      97.112  79.598  83.665  1.00  0.00     0.003 C 
BRANCH   6   7
ATOM      7  C   UNL     1      96.356  80.396  82.598  1.00  0.00    -0.000 C 
BRANCH   7   8
ATOM      8  C   UNL     1      95.730  81.686  83.127  1.00  0.00    -0.003 C 
ATOM      9  C   UNL     1      96.237  82.901  82.364  1.00  0.00     0.004 C 
ENDBRANCH   7   8
ENDBRANCH   6   7
ENDBRANCH   5   6
ENDBRANCH   2   5
ENDBRANCH   1   2
BRANCH   1  10
ATOM     10  C   UNL     1      99.775  79.786  79.923  1.00  0.00     0.135 C 
ATOM     11  O   UNL     1     100.736  80.227  79.293  1.00  0.00    -0.300 OA
BRANCH  10  12
ATOM     12  C   UNL     1      98.338  80.000  79.471  1.00  0.00     0.080 C 
BRANCH  12  13
ATOM     13  C   UNL     1      97.916  81.470  79.440  1.00  0.00     0.043 C 
BRANCH  13  14
ATOM     14  C   UNL     1      97.404  81.911  78.089  1.00  0.00    -0.044 A 
ATOM     15  C   UNL     1      98.175  81.694  76.947  1.00  0.00     0.054 A 
ATOM     16  C   UNL     1      96.161  82.534  77.984  1.00  0.00     0.008 A 
ATOM     17  C   UNL     1      97.701  82.101  75.700  1.00  0.00     0.160 A 
ATOM     18  C   UNL     1      95.687  82.941  76.737  1.00  0.00     0.050 A 
ATOM     19  C   UNL     1      96.457  82.724  75.595  1.00  0.00     0.157 A 
BRANCH  17  20
ATOM     20  O   UNL     1      98.463  81.885  74.591  1.00  0.00    -0.493 OA
ATOM     21  C   UNL     1      99.617  82.706  74.427  1.00  0.00     0.278 C 
ENDBRANCH  17  20
BRANCH  19  22
ATOM     22  O   UNL     1      95.984  83.126  74.382  1.00  0.00    -0.504 OA
ATOM     23  H   UNL     1      95.131  83.574  74.508  1.00  0.00     0.293 HD
ENDBRANCH  19  22
ENDBRANCH  13  14
ENDBRANCH  12  13
ENDBRANCH  10  12
ENDBRANCH   1  10
TORSDOF 12
ENDMDL
MODEL 6
REMARK VINA RESULT:    -5.261     21.212     24.004
REMARK INTER + INTRA:          -9.419
REMARK INTER:                  -8.077
REMARK INTRA:                  -1.342
REMARK UNBOUND:                -0.775
REMARK SMILES CCCCC[C@H](O)CC(=O)CCc1ccc(O)c(OC)c1
REMARK SMILES IDX 8 1 6 2 7 3 5 5 4 6 3 7 2 8 1 9 9 10 10 11 11 12 12 13 13 14
REMARK SMILES IDX 21 15 14 16 18 17 15 18 16 19 19 20 20 21 17 22
REMARK H PARENT 7 4 17 23
REMARK Flexibility Score: inf
ROOT
ATOM      1  C   UNL     1      94.264 102.599  67.122  1.00  0.00     0.107 C 
ENDROOT
BRANCH   1   2
ATOM      2  C   UNL     1      94.198 101.389  68.056  1.00  0.00     0.121 C 
BRANCH   2   3
ATOM      3  O   UNL     1      95.502 101.086  68.547  1.00  0.00    -0.393 OA
ATOM      4  H   UNL     1      95.472 100.198  68.944  1.00  0.00     0.210 HD
ENDBRANCH   2   3
BRANCH   2   5
ATOM      5  C   UNL     1      93.249 101.597  69.243  1.00  0.00     0.032 C 
BRANCH   5   6
ATOM      6  C   UNL     1      93.212 100.377  70.172  1.00  0.00     0.003 C 
BRANCH   6   7
ATOM      7  C   UNL     1      92.082  99.397  69.842  1.00  0.00    -0.000 C 
BRANCH   7   8
ATOM      8  C   UNL     1      90.922  99.443  70.835  1.00  0.00    -0.003 C 
ATOM      9  C   UNL     1      89.835 100.401  70.374  1.00  0.00     0.004 C 
ENDBRANCH   7   8
ENDBRANCH   6   7
ENDBRANCH   5   6
ENDBRANCH   2   5
ENDBRANCH   1   2
BRANCH   1  10
ATOM     10  C   UNL     1      93.538 102.376  65.806  1.00  0.00     0.135 C 
ATOM     11  O   UNL     1      94.015 102.775  64.744  1.00  0.00    -0.300 OA
BRANCH  10  12
ATOM     12  C   UNL     1      92.230 101.601  65.871  1.00  0.00     0.080 C 
BRANCH  12  13
ATOM     13  C   UNL     1      91.051 102.429  66.386  1.00  0.00     0.043 C 
BRANCH  13  14
ATOM     14  C   UNL     1      89.756 101.652  66.426  1.00  0.00    -0.044 A 
ATOM     15  C   UNL     1      89.778 100.265  66.571  1.00  0.00     0.054 A 
ATOM     16  C   UNL     1      88.537 102.323  66.319  1.00  0.00     0.008 A 
ATOM     17  C   UNL     1      88.582  99.549  66.609  1.00  0.00     0.160 A 
ATOM     18  C   UNL     1      87.341 101.607  66.357  1.00  0.00     0.050 A 
ATOM     19  C   UNL     1      87.363 100.220  66.502  1.00  0.00     0.157 A 
BRANCH  17  20
ATOM     20  O   UNL     1      88.616  98.194  66.750  1.00  0.00    -0.493 OA
ATOM     21  C   UNL     1      89.471  97.670  67.764  1.00  0.00     0.278 C 
ENDBRANCH  17  20
BRANCH  19  22
ATOM     22  O   UNL     1      86.188  99.532  66.537  1.00  0.00    -0.504 OA
ATOM     23  H   UNL     1      86.080  99.046  65.702  1.00  0.00     0.293 HD
ENDBRANCH  19  22
ENDBRANCH  13  14
ENDBRANCH  12  13
ENDBRANCH  10  12
ENDBRANCH   1  10
TORSDOF 12
ENDMDL
MODEL 7
REMARK VINA RESULT:    -5.190     24.808     27.832
REMARK INTER + INTRA:          -9.302
REMARK INTER:                  -8.224
REMARK INTRA:                  -1.078
REMARK UNBOUND:                -0.775
REMARK SMILES CCCCC[C@H](O)CC(=O)CCc1ccc(O)c(OC)c1
REMARK SMILES IDX 8 1 6 2 7 3 5 5 4 6 3 7 2 8 1 9 9 10 10 11 11 12 12 13 13 14
REMARK SMILES IDX 21 15 14 16 18 17 15 18 16 19 19 20 20 21 17 22
REMARK H PARENT 7 4 17 23
REMARK Flexibility Score: inf
ROOT
ATOM      1  C   UNL     1      71.565  82.843  64.250  1.00  0.00     0.107 C 
ENDROOT
BRANCH   1   2
ATOM      2  C   UNL     1      70.176  83.211  64.779  1.00  0.00     0.121 C 
BRANCH   2   3
ATOM      3  O   UNL     1      69.185  82.426  64.121  1.00  0.00    -0.393 OA
ATOM      4  H   UNL     1      68.404  82.989  63.981  1.00  0.00     0.210 HD
ENDBRANCH   2   3
BRANCH   2   5
ATOM      5  C   UNL     1      70.043  83.025  66.295  1.00  0.00     0.032 C 
BRANCH   5   6
ATOM      6  C   UNL     1      70.377  84.309  67.065  1.00  0.00     0.003 C 
BRANCH   6   7
ATOM      7  C   UNL     1      69.310  84.693  68.094  1.00  0.00    -0.000 C 
BRANCH   7   8
ATOM      8  C   UNL     1      69.887  85.176  69.424  1.00  0.00    -0.003 C 
ATOM      9  C   UNL     1      69.041  84.708  70.598  1.00  0.00     0.004 C 
ENDBRANCH   7   8
ENDBRANCH   6   7
ENDBRANCH   5   6
ENDBRANCH   2   5
ENDBRANCH   1   2
BRANCH   1  10
ATOM     10  C   UNL     1      72.128  81.581  64.882  1.00  0.00     0.135 C 
ATOM     11  O   UNL     1      71.527  80.510  64.800  1.00  0.00    -0.300 OA
BRANCH  10  12
ATOM     12  C   UNL     1      73.478  81.707  65.571  1.00  0.00     0.080 C 
BRANCH  12  13
ATOM     13  C   UNL     1      74.473  82.591  64.817  1.00  0.00     0.043 C 
BRANCH  13  14
ATOM     14  C   UNL     1      75.370  83.388  65.734  1.00  0.00    -0.044 A 
ATOM     15  C   UNL     1      74.820  84.335  66.599  1.00  0.00     0.054 A 
ATOM     16  C   UNL     1      76.749  83.178  65.716  1.00  0.00     0.008 A 
ATOM     17  C   UNL     1      75.650  85.070  67.446  1.00  0.00     0.160 A 
ATOM     18  C   UNL     1      77.579  83.913  66.564  1.00  0.00     0.050 A 
ATOM     19  C   UNL     1      77.029  84.859  67.428  1.00  0.00     0.157 A 
BRANCH  17  20
ATOM     20  O   UNL     1      75.101  85.992  68.286  1.00  0.00    -0.493 OA
ATOM     21  C   UNL     1      73.739  85.798  68.660  1.00  0.00     0.278 C 
ENDBRANCH  17  20
BRANCH  19  22
ATOM     22  O   UNL     1      77.849  85.571  68.251  1.00  0.00    -0.504 OA
ATOM     23  H   UNL     1      77.307  86.148  68.815  1.00  0.00     0.293 HD
ENDBRANCH  19  22
ENDBRANCH  13  14
ENDBRANCH  12  13
ENDBRANCH  10  12
ENDBRANCH   1  10
TORSDOF 12
ENDMDL
MODEL 8
REMARK VINA RESULT:    -5.155      2.125      2.855
REMARK INTER + INTRA:          -9.244
REMARK INTER:                  -8.579
REMARK INTRA:                  -0.665
REMARK UNBOUND:                -0.775
REMARK SMILES CCCCC[C@H](O)CC(=O)CCc1ccc(O)c(OC)c1
REMARK SMILES IDX 8 1 6 2 7 3 5 5 4 6 3 7 2 8 1 9 9 10 10 11 11 12 12 13 13 14
REMARK SMILES IDX 21 15 14 16 18 17 15 18 16 19 19 20 20 21 17 22
REMARK H PARENT 7 4 17 23
REMARK Flexibility Score: inf
ROOT
ATOM      1  C   UNL     1      97.412  81.918  78.270  1.00  0.00     0.107 C 
ENDROOT
BRANCH   1   2
ATOM      2  C   UNL     1      96.383  81.696  77.158  1.00  0.00     0.121 C 
BRANCH   2   3
ATOM      3  O   UNL     1      95.444  82.769  77.148  1.00  0.00    -0.393 OA
ATOM      4  H   UNL     1      95.715  83.395  76.454  1.00  0.00     0.210 HD
ENDBRANCH   2   3
BRANCH   2   5
ATOM      5  C   UNL     1      97.019  81.569  75.768  1.00  0.00     0.032 C 
BRANCH   5   6
ATOM      6  C   UNL     1      96.342  82.482  74.739  1.00  0.00     0.003 C 
BRANCH   6   7
ATOM      7  C   UNL     1      97.282  83.544  74.159  1.00  0.00    -0.000 C 
BRANCH   7   8
ATOM      8  C   UNL     1      98.544  82.964  73.524  1.00  0.00    -0.003 C 
ATOM      9  C   UNL     1      99.545  84.057  73.181  1.00  0.00     0.004 C 
ENDBRANCH   7   8
ENDBRANCH   6   7
ENDBRANCH   5   6
ENDBRANCH   2   5
ENDBRANCH   1   2
BRANCH   1  10
ATOM     10  C   UNL     1      97.709  80.657  79.065  1.00  0.00     0.135 C 
ATOM     11  O   UNL     1      98.268  79.694  78.540  1.00  0.00    -0.300 OA
BRANCH  10  12
ATOM     12  C   UNL     1      97.324  80.673  80.537  1.00  0.00     0.080 C 
BRANCH  12  13
ATOM     13  C   UNL     1      96.988  82.067  81.070  1.00  0.00     0.043 C 
BRANCH  13  14
ATOM     14  C   UNL     1      96.299  82.036  82.413  1.00  0.00    -0.044 A 
ATOM     15  C   UNL     1      95.867  80.823  82.949  1.00  0.00     0.054 A 
ATOM     16  C   UNL     1      96.094  83.223  83.118  1.00  0.00     0.008 A 
ATOM     17  C   UNL     1      95.232  80.796  84.191  1.00  0.00     0.160 A 
ATOM     18  C   UNL     1      95.458  83.196  84.360  1.00  0.00     0.050 A 
ATOM     19  C   UNL     1      95.027  81.983  84.896  1.00  0.00     0.157 A 
BRANCH  17  20
ATOM     20  O   UNL     1      94.815  79.605  84.704  1.00  0.00    -0.493 OA
ATOM     21  C   UNL     1      95.822  78.724  85.199  1.00  0.00     0.278 C 
ENDBRANCH  17  20
BRANCH  19  22
ATOM     22  O   UNL     1      94.407  81.969  86.109  1.00  0.00    -0.504 OA
ATOM     23  H   UNL     1      94.718  82.729  86.631  1.00  0.00     0.293 HD
ENDBRANCH  19  22
ENDBRANCH  13  14
ENDBRANCH  12  13
ENDBRANCH  10  12
ENDBRANCH   1  10
TORSDOF 12
ENDMDL
MODEL 9
REMARK VINA RESULT:    -5.114      6.848     10.191
REMARK INTER + INTRA:          -9.177
REMARK INTER:                  -7.432
REMARK INTRA:                  -1.745
REMARK UNBOUND:                -0.775
REMARK SMILES CCCCC[C@H](O)CC(=O)CCc1ccc(O)c(OC)c1
REMARK SMILES IDX 8 1 6 2 7 3 5 5 4 6 3 7 2 8 1 9 9 10 10 11 11 12 12 13 13 14
REMARK SMILES IDX 21 15 14 16 18 17 15 18 16 19 19 20 20 21 17 22
REMARK H PARENT 7 4 17 23
REMARK Flexibility Score: inf
ROOT
ATOM      1  C   UNL     1      90.652  77.422  84.503  1.00  0.00     0.107 C 
ENDROOT
BRANCH   1   2
ATOM      2  C   UNL     1      89.185  77.836  84.361  1.00  0.00     0.121 C 
BRANCH   2   3
ATOM      3  O   UNL     1      88.594  77.971  85.652  1.00  0.00    -0.393 OA
ATOM      4  H   UNL     1      87.905  77.290  85.736  1.00  0.00     0.210 HD
ENDBRANCH   2   3
BRANCH   2   5
ATOM      5  C   UNL     1      89.003  79.145  83.584  1.00  0.00     0.032 C 
BRANCH   5   6
ATOM      6  C   UNL     1      88.593  80.306  84.497  1.00  0.00     0.003 C 
BRANCH   6   7
ATOM      7  C   UNL     1      89.651  81.411  84.587  1.00  0.00    -0.000 C 
BRANCH   7   8
ATOM      8  C   UNL     1      89.916  81.890  86.013  1.00  0.00    -0.003 C 
ATOM      9  C   UNL     1      89.087  81.111  87.023  1.00  0.00     0.004 C 
ENDBRANCH   7   8
ENDBRANCH   6   7
ENDBRANCH   5   6
ENDBRANCH   2   5
ENDBRANCH   1   2
BRANCH   1  10
ATOM     10  C   UNL     1      91.407  78.246  85.533  1.00  0.00     0.135 C 
ATOM     11  O   UNL     1      91.075  78.235  86.718  1.00  0.00    -0.300 OA
BRANCH  10  12
ATOM     12  C   UNL     1      92.606  79.035  85.029  1.00  0.00     0.080 C 
BRANCH  12  13
ATOM     13  C   UNL     1      92.982  80.218  85.922  1.00  0.00     0.043 C 
BRANCH  13  14
ATOM     14  C   UNL     1      93.953  81.171  85.265  1.00  0.00    -0.044 A 
ATOM     15  C   UNL     1      94.116  82.460  85.771  1.00  0.00     0.054 A 
ATOM     16  C   UNL     1      94.687  80.760  84.152  1.00  0.00     0.008 A 
ATOM     17  C   UNL     1      95.014  83.338  85.164  1.00  0.00     0.160 A 
ATOM     18  C   UNL     1      95.585  81.638  83.545  1.00  0.00     0.050 A 
ATOM     19  C   UNL     1      95.748  82.927  84.051  1.00  0.00     0.157 A 
BRANCH  17  20
ATOM     20  O   UNL     1      95.165  84.596  85.667  1.00  0.00    -0.493 OA
ATOM     21  C   UNL     1      95.490  84.705  87.052  1.00  0.00     0.278 C 
ENDBRANCH  17  20
BRANCH  19  22
ATOM     22  O   UNL     1      96.627  83.776  83.450  1.00  0.00    -0.504 OA
ATOM     23  H   UNL     1      96.286  84.684  83.515  1.00  0.00     0.293 HD
ENDBRANCH  19  22
ENDBRANCH  13  14
ENDBRANCH  12  13
ENDBRANCH  10  12
ENDBRANCH   1  10
TORSDOF 12
ENDMDL
MODEL 10
REMARK VINA RESULT:    -5.109     13.118     14.775
REMARK INTER + INTRA:          -9.169
REMARK INTER:                  -8.204
REMARK INTRA:                  -0.965
REMARK UNBOUND:                -0.775
REMARK SMILES CCCCC[C@H](O)CC(=O)CCc1ccc(O)c(OC)c1
REMARK SMILES IDX 8 1 6 2 7 3 5 5 4 6 3 7 2 8 1 9 9 10 10 11 11 12 12 13 13 14
REMARK SMILES IDX 21 15 14 16 18 17 15 18 16 19 19 20 20 21 17 22
REMARK H PARENT 7 4 17 23
REMARK Flexibility Score: inf
ROOT
ATOM      1  C   UNL     1      95.510  95.454  79.814  1.00  0.00     0.107 C 
ENDROOT
BRANCH   1   2
ATOM      2  C   UNL     1      95.895  94.058  80.309  1.00  0.00     0.121 C 
BRANCH   2   3
ATOM      3  O   UNL     1      95.862  94.023  81.734  1.00  0.00    -0.393 OA
ATOM      4  H   UNL     1      95.952  93.095  82.011  1.00  0.00     0.210 HD
ENDBRANCH   2   3
BRANCH   2   5
ATOM      5  C   UNL     1      94.986  92.953  79.756  1.00  0.00     0.032 C 
BRANCH   5   6
ATOM      6  C   UNL     1      94.382  93.330  78.398  1.00  0.00     0.003 C 
BRANCH   6   7
ATOM      7  C   UNL     1      92.851  93.295  78.384  1.00  0.00    -0.000 C 
BRANCH   7   8
ATOM      8  C   UNL     1      92.241  93.703  77.045  1.00  0.00    -0.003 C 
ATOM      9  C   UNL     1      90.922  94.437  77.236  1.00  0.00     0.004 C 
ENDBRANCH   7   8
ENDBRANCH   6   7
ENDBRANCH   5   6
ENDBRANCH   2   5
ENDBRANCH   1   2
BRANCH   1  10
ATOM     10  C   UNL     1      96.682  96.222  79.225  1.00  0.00     0.135 C 
ATOM     11  O   UNL     1      97.158  95.910  78.133  1.00  0.00    -0.300 OA
BRANCH  10  12
ATOM     12  C   UNL     1      97.193  97.408  80.028  1.00  0.00     0.080 C 
BRANCH  12  13
ATOM     13  C   UNL     1      96.575  97.519  81.423  1.00  0.00     0.043 C 
BRANCH  13  14
ATOM     14  C   UNL     1      97.511  97.078  82.523  1.00  0.00    -0.044 A 
ATOM     15  C   UNL     1      97.166  97.287  83.858  1.00  0.00     0.054 A 
ATOM     16  C   UNL     1      98.722  96.463  82.202  1.00  0.00     0.008 A 
ATOM     17  C   UNL     1      98.032  96.879  84.873  1.00  0.00     0.160 A 
ATOM     18  C   UNL     1      99.587  96.055  83.218  1.00  0.00     0.050 A 
ATOM     19  C   UNL     1      99.242  96.263  84.553  1.00  0.00     0.157 A 
BRANCH  17  20
ATOM     20  O   UNL     1      97.684  97.088  86.174  1.00  0.00    -0.493 OA
ATOM     21  C   UNL     1      96.312  97.372  86.440  1.00  0.00     0.278 C 
ENDBRANCH  17  20
BRANCH  19  22
ATOM     22  O   UNL     1     100.095  95.861  85.535  1.00  0.00    -0.504 OA
ATOM     23  H   UNL     1     101.010  95.963  85.222  1.00  0.00     0.293 HD
ENDBRANCH  19  22
ENDBRANCH  13  14
ENDBRANCH  12  13
ENDBRANCH  10  12
ENDBRANCH   1  10
TORSDOF 12
ENDMDL
