MODEL 1
REMARK VINA RESULT:    -6.501      0.000      0.000
REMARK INTER + INTRA:         -10.737
REMARK INTER:                 -10.112
REMARK INTRA:                  -0.626
REMARK UNBOUND:                -0.626
REMARK SMILES COc1cc(CNC(=O)CCCCCC(C)C)ccc1O
REMARK SMILES IDX 10 1 8 2 7 3 9 5 6 6 5 7 3 8 20 9 4 10 19 11 18 12 2 13 1 14
REMARK SMILES IDX 21 15 11 17 12 18 13 19 14 20 15 21 16 22 17 23
REMARK H PARENT 7 4 21 16
REMARK Flexibility Score: inf
ROOT
ATOM      1  C   UNL     1      80.217  65.245  69.588  1.00  0.00     0.100 C 
ENDROOT
BRANCH   1   2
ATOM      2  C   UNL     1      80.010  65.950  70.870  1.00  0.00     0.220 C 
ATOM      3  N   UNL     1      80.957  65.860  71.845  1.00  0.00    -0.352 N 
ATOM      4  H   UNL     1      81.692  65.191  71.662  1.00  0.00     0.163 HD
ATOM      5  O   UNL     1      78.981  66.654  71.017  1.00  0.00    -0.275 OA
BRANCH   3   6
ATOM      6  C   UNL     1      80.969  66.621  73.053  1.00  0.00     0.151 C 
BRANCH   6   7
ATOM      7  C   UNL     1      82.339  67.001  73.491  1.00  0.00    -0.025 A 
ATOM      8  C   UNL     1      84.448  68.202  73.095  1.00  0.00     0.160 A 
ATOM      9  C   UNL     1      84.922  67.780  74.355  1.00  0.00     0.157 A 
ATOM     10  C   UNL     1      83.168  67.795  72.663  1.00  0.00     0.056 A 
ATOM     11  C   UNL     1      84.117  66.969  75.175  1.00  0.00     0.050 A 
ATOM     12  C   UNL     1      82.834  66.586  74.750  1.00  0.00     0.009 A 
BRANCH   8  13
ATOM     13  O   UNL     1      85.224  68.976  72.272  1.00  0.00    -0.493 OA
ATOM     14  C   UNL     1      84.863  70.371  72.276  1.00  0.00     0.278 C 
ENDBRANCH   8  13
BRANCH   9  15
ATOM     15  O   UNL     1      86.152  68.164  74.778  1.00  0.00    -0.504 OA
ATOM     16  H   UNL     1      86.788  68.039  74.070  1.00  0.00     0.293 HD
ENDBRANCH   9  15
ENDBRANCH   6   7
ENDBRANCH   3   6
ENDBRANCH   1   2
BRANCH   1  17
ATOM     17  C   UNL     1      80.189  63.697  69.699  1.00  0.00     0.010 C 
BRANCH  17  18
ATOM     18  C   UNL     1      78.812  63.117  69.273  1.00  0.00     0.001 C 
BRANCH  18  19
ATOM     19  C   UNL     1      77.922  64.137  68.514  1.00  0.00     0.000 C 
BRANCH  19  20
ATOM     20  C   UNL     1      77.577  63.659  67.074  1.00  0.00     0.003 C 
BRANCH  20  21
ATOM     21  C   UNL     1      76.277  64.279  66.466  1.00  0.00    -0.017 C 
ATOM     22  C   UNL     1      76.272  65.828  66.629  1.00  0.00     0.007 C 
ATOM     23  C   UNL     1      74.978  63.674  67.073  1.00  0.00     0.007 C 
ENDBRANCH  20  21
ENDBRANCH  19  20
ENDBRANCH  18  19
ENDBRANCH  17  18
ENDBRANCH   1  17
TORSDOF 10
ENDMDL
MODEL 2
REMARK VINA RESULT:    -6.324     20.789     26.270
REMARK INTER + INTRA:         -10.462
REMARK INTER:                  -9.823
REMARK INTRA:                  -0.639
REMARK UNBOUND:                -0.626
REMARK SMILES COc1cc(CNC(=O)CCCCCC(C)C)ccc1O
REMARK SMILES IDX 10 1 8 2 7 3 9 5 6 6 5 7 3 8 20 9 4 10 19 11 18 12 2 13 1 14
REMARK SMILES IDX 21 15 11 17 12 18 13 19 14 20 15 21 16 22 17 23
REMARK H PARENT 7 4 21 16
REMARK Flexibility Score: inf
ROOT
ATOM      1  C   UNL     1      93.853  83.537  85.801  1.00  0.00     0.100 C 
ENDROOT
BRANCH   1   2
ATOM      2  C   UNL     1      93.216  82.217  85.609  1.00  0.00     0.220 C 
ATOM      3  N   UNL     1      91.913  82.154  85.216  1.00  0.00    -0.352 N 
ATOM      4  H   UNL     1      91.427  83.039  85.210  1.00  0.00     0.163 HD
ATOM      5  O   UNL     1      93.903  81.180  85.773  1.00  0.00    -0.275 OA
BRANCH   3   6
ATOM      6  C   UNL     1      91.228  80.962  84.830  1.00  0.00     0.151 C 
BRANCH   6   7
ATOM      7  C   UNL     1      89.806  81.198  84.461  1.00  0.00    -0.025 A 
ATOM      8  C   UNL     1      87.881  82.713  84.254  1.00  0.00     0.160 A 
ATOM      9  C   UNL     1      87.118  81.665  83.697  1.00  0.00     0.157 A 
ATOM     10  C   UNL     1      89.213  82.469  84.649  1.00  0.00     0.056 A 
ATOM     11  C   UNL     1      87.690  80.390  83.529  1.00  0.00     0.050 A 
ATOM     12  C   UNL     1      89.025  80.159  83.903  1.00  0.00     0.009 A 
BRANCH   8  13
ATOM     13  O   UNL     1      87.337  83.957  84.443  1.00  0.00    -0.493 OA
ATOM     14  C   UNL     1      86.788  84.157  85.760  1.00  0.00     0.278 C 
ENDBRANCH   8  13
BRANCH   9  15
ATOM     15  O   UNL     1      85.836  81.889  83.315  1.00  0.00    -0.504 OA
ATOM     16  H   UNL     1      85.527  82.713  83.698  1.00  0.00     0.293 HD
ENDBRANCH   9  15
ENDBRANCH   6   7
ENDBRANCH   3   6
ENDBRANCH   1   2
BRANCH   1  17
ATOM     17  C   UNL     1      92.943  84.592  86.485  1.00  0.00     0.010 C 
BRANCH  17  18
ATOM     18  C   UNL     1      93.222  84.685  88.011  1.00  0.00     0.001 C 
BRANCH  18  19
ATOM     19  C   UNL     1      93.256  86.141  88.544  1.00  0.00     0.000 C 
BRANCH  19  20
ATOM     20  C   UNL     1      93.678  87.160  87.445  1.00  0.00     0.003 C 
BRANCH  20  21
ATOM     21  C   UNL     1      94.242  88.515  87.983  1.00  0.00    -0.017 C 
ATOM     22  C   UNL     1      93.157  89.287  88.790  1.00  0.00     0.007 C 
ATOM     23  C   UNL     1      94.814  89.422  86.854  1.00  0.00     0.007 C 
ENDBRANCH  20  21
ENDBRANCH  19  20
ENDBRANCH  18  19
ENDBRANCH  17  18
ENDBRANCH   1  17
TORSDOF 10
ENDMDL
MODEL 3
REMARK VINA RESULT:    -6.192     21.736     24.620
REMARK INTER + INTRA:         -10.256
REMARK INTER:                  -9.692
REMARK INTRA:                  -0.564
REMARK UNBOUND:                -0.626
REMARK SMILES COc1cc(CNC(=O)CCCCCC(C)C)ccc1O
REMARK SMILES IDX 10 1 8 2 7 3 9 5 6 6 5 7 3 8 20 9 4 10 19 11 18 12 2 13 1 14
REMARK SMILES IDX 21 15 11 17 12 18 13 19 14 20 15 21 16 22 17 23
REMARK H PARENT 7 4 21 16
REMARK Flexibility Score: inf
ROOT
ATOM      1  C   UNL     1      96.289  83.836  83.156  1.00  0.00     0.100 C 
ENDROOT
BRANCH   1   2
ATOM      2  C   UNL     1      95.328  83.852  84.279  1.00  0.00     0.220 C 
ATOM      3  N   UNL     1      94.105  83.271  84.122  1.00  0.00    -0.352 N 
ATOM      4  H   UNL     1      93.891  82.979  83.179  1.00  0.00     0.163 HD
ATOM      5  O   UNL     1      95.675  84.366  85.370  1.00  0.00    -0.275 OA
BRANCH   3   6
ATOM      6  C   UNL     1      93.154  83.063  85.166  1.00  0.00     0.151 C 
BRANCH   6   7
ATOM      7  C   UNL     1      92.243  81.915  84.907  1.00  0.00    -0.025 A 
ATOM      8  C   UNL     1      89.977  81.031  84.546  1.00  0.00     0.160 A 
ATOM      9  C   UNL     1      90.515  79.741  84.347  1.00  0.00     0.157 A 
ATOM     10  C   UNL     1      90.842  82.105  84.843  1.00  0.00     0.056 A 
ATOM     11  C   UNL     1      91.904  79.536  84.434  1.00  0.00     0.050 A 
ATOM     12  C   UNL     1      92.762  80.615  84.707  1.00  0.00     0.009 A 
BRANCH   8  13
ATOM     13  O   UNL     1      88.626  81.248  84.484  1.00  0.00    -0.493 OA
ATOM     14  C   UNL     1      88.264  82.639  84.388  1.00  0.00     0.278 C 
ENDBRANCH   8  13
BRANCH   9  15
ATOM     15  O   UNL     1      89.692  78.701  84.063  1.00  0.00    -0.504 OA
ATOM     16  H   UNL     1      88.968  79.006  83.511  1.00  0.00     0.293 HD
ENDBRANCH   9  15
ENDBRANCH   6   7
ENDBRANCH   3   6
ENDBRANCH   1   2
BRANCH   1  17
ATOM     17  C   UNL     1      96.325  82.500  82.366  1.00  0.00     0.010 C 
BRANCH  17  18
ATOM     18  C   UNL     1      97.781  82.062  82.048  1.00  0.00     0.001 C 
BRANCH  18  19
ATOM     19  C   UNL     1      98.297  82.585  80.681  1.00  0.00     0.000 C 
BRANCH  19  20
ATOM     20  C   UNL     1      97.152  83.172  79.805  1.00  0.00     0.003 C 
BRANCH  20  21
ATOM     21  C   UNL     1      97.422  83.154  78.266  1.00  0.00    -0.017 C 
ATOM     22  C   UNL     1      96.306  83.920  77.497  1.00  0.00     0.007 C 
ATOM     23  C   UNL     1      97.571  81.713  77.695  1.00  0.00     0.007 C 
ENDBRANCH  20  21
ENDBRANCH  19  20
ENDBRANCH  18  19
ENDBRANCH  17  18
ENDBRANCH   1  17
TORSDOF 10
ENDMDL
MODEL 4
REMARK VINA RESULT:    -6.001     23.652     25.540
REMARK INTER + INTRA:          -9.960
REMARK INTER:                  -9.521
REMARK INTRA:                  -0.438
REMARK UNBOUND:                -0.626
REMARK SMILES COc1cc(CNC(=O)CCCCCC(C)C)ccc1O
REMARK SMILES IDX 10 1 8 2 7 3 9 5 6 6 5 7 3 8 20 9 4 10 19 11 18 12 2 13 1 14
REMARK SMILES IDX 21 15 11 17 12 18 13 19 14 20 15 21 16 22 17 23
REMARK H PARENT 7 4 21 16
REMARK Flexibility Score: inf
ROOT
ATOM      1  C   UNL     1      97.768  83.491  79.459  1.00  0.00     0.100 C 
ENDROOT
BRANCH   1   2
ATOM      2  C   UNL     1      97.774  82.831  80.781  1.00  0.00     0.220 C 
ATOM      3  N   UNL     1      96.877  83.224  81.729  1.00  0.00    -0.352 N 
ATOM      4  H   UNL     1      96.346  84.051  81.495  1.00  0.00     0.163 HD
ATOM      5  O   UNL     1      98.579  81.891  80.989  1.00  0.00    -0.275 OA
BRANCH   3   6
ATOM      6  C   UNL     1      96.657  82.564  82.976  1.00  0.00     0.151 C 
BRANCH   6   7
ATOM      7  C   UNL     1      95.592  83.202  83.795  1.00  0.00    -0.025 A 
ATOM      8  C   UNL     1      93.443  83.062  84.983  1.00  0.00     0.160 A 
ATOM      9  C   UNL     1      93.596  84.398  85.411  1.00  0.00     0.157 A 
ATOM     10  C   UNL     1      94.433  82.479  84.163  1.00  0.00     0.056 A 
ATOM     11  C   UNL     1      94.732  85.135  85.030  1.00  0.00     0.050 A 
ATOM     12  C   UNL     1      95.725  84.541  84.233  1.00  0.00     0.009 A 
BRANCH   8  13
ATOM     13  O   UNL     1      92.335  82.333  85.328  1.00  0.00    -0.493 OA
ATOM     14  C   UNL     1      91.851  81.478  84.275  1.00  0.00     0.278 C 
ENDBRANCH   8  13
BRANCH   9  15
ATOM     15  O   UNL     1      92.650  84.969  86.199  1.00  0.00    -0.504 OA
ATOM     16  H   UNL     1      92.344  84.330  86.847  1.00  0.00     0.293 HD
ENDBRANCH   9  15
ENDBRANCH   6   7
ENDBRANCH   3   6
ENDBRANCH   1   2
BRANCH   1  17
ATOM     17  C   UNL     1      96.678  82.965  78.487  1.00  0.00     0.010 C 
BRANCH  17  18
ATOM     18  C   UNL     1      96.376  83.987  77.357  1.00  0.00     0.001 C 
BRANCH  18  19
ATOM     19  C   UNL     1      97.423  83.968  76.213  1.00  0.00     0.000 C 
BRANCH  19  20
ATOM     20  C   UNL     1      96.988  84.846  75.003  1.00  0.00     0.003 C 
BRANCH  20  21
ATOM     21  C   UNL     1      97.722  84.528  73.659  1.00  0.00    -0.017 C 
ATOM     22  C   UNL     1      97.871  82.991  73.458  1.00  0.00     0.007 C 
ATOM     23  C   UNL     1      99.113  85.217  73.553  1.00  0.00     0.007 C 
ENDBRANCH  20  21
ENDBRANCH  19  20
ENDBRANCH  18  19
ENDBRANCH  17  18
ENDBRANCH   1  17
TORSDOF 10
ENDMDL
MODEL 5
REMARK VINA RESULT:    -5.983      1.272      2.145
REMARK INTER + INTRA:          -9.931
REMARK INTER:                  -9.286
REMARK INTRA:                  -0.645
REMARK UNBOUND:                -0.626
REMARK SMILES COc1cc(CNC(=O)CCCCCC(C)C)ccc1O
REMARK SMILES IDX 10 1 8 2 7 3 9 5 6 6 5 7 3 8 20 9 4 10 19 11 18 12 2 13 1 14
REMARK SMILES IDX 21 15 11 17 12 18 13 19 14 20 15 21 16 22 17 23
REMARK H PARENT 7 4 21 16
REMARK Flexibility Score: inf
ROOT
ATOM      1  C   UNL     1      80.234  65.512  70.376  1.00  0.00     0.100 C 
ENDROOT
BRANCH   1   2
ATOM      2  C   UNL     1      80.676  65.550  71.786  1.00  0.00     0.220 C 
ATOM      3  N   UNL     1      82.009  65.539  72.070  1.00  0.00    -0.352 N 
ATOM      4  H   UNL     1      82.611  65.368  71.277  1.00  0.00     0.163 HD
ATOM      5  O   UNL     1      79.812  65.636  72.692  1.00  0.00    -0.275 OA
BRANCH   3   6
ATOM      6  C   UNL     1      82.575  65.745  73.365  1.00  0.00     0.151 C 
BRANCH   6   7
ATOM      7  C   UNL     1      83.480  66.924  73.426  1.00  0.00    -0.025 A 
ATOM      8  C   UNL     1      85.216  68.222  74.587  1.00  0.00     0.160 A 
ATOM      9  C   UNL     1      85.251  69.134  73.511  1.00  0.00     0.157 A 
ATOM     10  C   UNL     1      84.318  67.134  74.546  1.00  0.00     0.056 A 
ATOM     11  C   UNL     1      84.402  68.950  72.404  1.00  0.00     0.050 A 
ATOM     12  C   UNL     1      83.528  67.851  72.358  1.00  0.00     0.009 A 
BRANCH   8  13
ATOM     13  O   UNL     1      86.020  68.394  75.683  1.00  0.00    -0.493 OA
ATOM     14  C   UNL     1      87.205  67.575  75.670  1.00  0.00     0.278 C 
ENDBRANCH   8  13
BRANCH   9  15
ATOM     15  O   UNL     1      86.109  70.185  73.541  1.00  0.00    -0.504 OA
ATOM     16  H   UNL     1      85.693  70.950  73.138  1.00  0.00     0.293 HD
ENDBRANCH   9  15
ENDBRANCH   6   7
ENDBRANCH   3   6
ENDBRANCH   1   2
BRANCH   1  17
ATOM     17  C   UNL     1      80.560  64.184  69.641  1.00  0.00     0.010 C 
BRANCH  17  18
ATOM     18  C   UNL     1      79.270  63.392  69.291  1.00  0.00     0.001 C 
BRANCH  18  19
ATOM     19  C   UNL     1      78.028  64.297  69.082  1.00  0.00     0.000 C 
BRANCH  19  20
ATOM     20  C   UNL     1      77.775  64.612  67.579  1.00  0.00     0.003 C 
BRANCH  20  21
ATOM     21  C   UNL     1      76.467  65.416  67.284  1.00  0.00    -0.017 C 
ATOM     22  C   UNL     1      75.672  65.684  68.596  1.00  0.00     0.007 C 
ATOM     23  C   UNL     1      75.551  64.717  66.238  1.00  0.00     0.007 C 
ENDBRANCH  20  21
ENDBRANCH  19  20
ENDBRANCH  18  19
ENDBRANCH  17  18
ENDBRANCH   1  17
TORSDOF 10
ENDMDL
MODEL 6
REMARK VINA RESULT:    -5.792     20.966     24.382
REMARK INTER + INTRA:          -9.635
REMARK INTER:                  -9.102
REMARK INTRA:                  -0.533
REMARK UNBOUND:                -0.626
REMARK SMILES COc1cc(CNC(=O)CCCCCC(C)C)ccc1O
REMARK SMILES IDX 10 1 8 2 7 3 9 5 6 6 5 7 3 8 20 9 4 10 19 11 18 12 2 13 1 14
REMARK SMILES IDX 21 15 11 17 12 18 13 19 14 20 15 21 16 22 17 23
REMARK H PARENT 7 4 21 16
REMARK Flexibility Score: inf
ROOT
ATOM      1  C   UNL     1      94.306  83.305  85.921  1.00  0.00     0.100 C 
ENDROOT
BRANCH   1   2
ATOM      2  C   UNL     1      95.381  83.710  84.991  1.00  0.00     0.220 C 
ATOM      3  N   UNL     1      95.204  83.543  83.650  1.00  0.00    -0.352 N 
ATOM      4  H   UNL     1      94.379  83.020  83.392  1.00  0.00     0.163 HD
ATOM      5  O   UNL     1      96.421  84.239  85.455  1.00  0.00    -0.275 OA
BRANCH   3   6
ATOM      6  C   UNL     1      96.077  84.043  82.637  1.00  0.00     0.151 C 
BRANCH   6   7
ATOM      7  C   UNL     1      96.584  82.982  81.726  1.00  0.00    -0.025 A 
ATOM      8  C   UNL     1      96.997  80.607  81.240  1.00  0.00     0.160 A 
ATOM      9  C   UNL     1      97.487  80.955  79.964  1.00  0.00     0.157 A 
ATOM     10  C   UNL     1      96.566  81.623  82.120  1.00  0.00     0.056 A 
ATOM     11  C   UNL     1      97.534  82.306  79.572  1.00  0.00     0.050 A 
ATOM     12  C   UNL     1      97.081  83.311  80.443  1.00  0.00     0.009 A 
BRANCH   8  13
ATOM     13  O   UNL     1      96.961  79.299  81.649  1.00  0.00    -0.493 OA
ATOM     14  C   UNL     1      97.021  79.135  83.078  1.00  0.00     0.278 C 
ENDBRANCH   8  13
BRANCH   9  15
ATOM     15  O   UNL     1      97.905  79.986  79.111  1.00  0.00    -0.504 OA
ATOM     16  H   UNL     1      97.787  80.283  78.206  1.00  0.00     0.293 HD
ENDBRANCH   9  15
ENDBRANCH   6   7
ENDBRANCH   3   6
ENDBRANCH   1   2
BRANCH   1  17
ATOM     17  C   UNL     1      92.878  83.377  85.316  1.00  0.00     0.010 C 
BRANCH  17  18
ATOM     18  C   UNL     1      92.399  81.987  84.814  1.00  0.00     0.001 C 
BRANCH  18  19
ATOM     19  C   UNL     1      90.942  81.993  84.281  1.00  0.00     0.000 C 
BRANCH  19  20
ATOM     20  C   UNL     1      90.324  80.565  84.241  1.00  0.00     0.003 C 
BRANCH  20  21
ATOM     21  C   UNL     1      88.808  80.512  83.861  1.00  0.00    -0.017 C 
ATOM     22  C   UNL     1      88.025  81.677  84.535  1.00  0.00     0.007 C 
ATOM     23  C   UNL     1      88.144  79.149  84.212  1.00  0.00     0.007 C 
ENDBRANCH  20  21
ENDBRANCH  19  20
ENDBRANCH  18  19
ENDBRANCH  17  18
ENDBRANCH   1  17
TORSDOF 10
ENDMDL
MODEL 7
REMARK VINA RESULT:    -5.674     23.408     25.629
REMARK INTER + INTRA:          -9.452
REMARK INTER:                  -8.669
REMARK INTRA:                  -0.782
REMARK UNBOUND:                -0.626
REMARK SMILES COc1cc(CNC(=O)CCCCCC(C)C)ccc1O
REMARK SMILES IDX 10 1 8 2 7 3 9 5 6 6 5 7 3 8 20 9 4 10 19 11 18 12 2 13 1 14
REMARK SMILES IDX 21 15 11 17 12 18 13 19 14 20 15 21 16 22 17 23
REMARK H PARENT 7 4 21 16
REMARK Flexibility Score: inf
ROOT
ATOM      1  C   UNL     1      96.821  83.350  77.643  1.00  0.00     0.100 C 
ENDROOT
BRANCH   1   2
ATOM      2  C   UNL     1      96.763  84.258  76.479  1.00  0.00     0.220 C 
ATOM      3  N   UNL     1      97.562  84.018  75.402  1.00  0.00    -0.352 N 
ATOM      4  H   UNL     1      98.249  83.290  75.537  1.00  0.00     0.163 HD
ATOM      5  O   UNL     1      95.945  85.211  76.490  1.00  0.00    -0.275 OA
BRANCH   3   6
ATOM      6  C   UNL     1      97.486  84.705  74.152  1.00  0.00     0.151 C 
BRANCH   6   7
ATOM      7  C   UNL     1      98.528  84.271  73.183  1.00  0.00    -0.025 A 
ATOM      8  C   UNL     1      99.572  82.510  71.821  1.00  0.00     0.160 A 
ATOM      9  C   UNL     1     100.469  83.459  71.285  1.00  0.00     0.157 A 
ATOM     10  C   UNL     1      98.620  82.918  72.779  1.00  0.00     0.056 A 
ATOM     11  C   UNL     1     100.403  84.802  71.699  1.00  0.00     0.050 A 
ATOM     12  C   UNL     1      99.437  85.207  72.636  1.00  0.00     0.009 A 
BRANCH   8  13
ATOM     13  O   UNL     1      99.632  81.194  71.446  1.00  0.00    -0.493 OA
ATOM     14  C   UNL     1      98.505  80.760  70.661  1.00  0.00     0.278 C 
ENDBRANCH   8  13
BRANCH   9  15
ATOM     15  O   UNL     1     101.389  83.077  70.365  1.00  0.00    -0.504 OA
ATOM     16  H   UNL     1     101.196  82.184  70.070  1.00  0.00     0.293 HD
ENDBRANCH   9  15
ENDBRANCH   6   7
ENDBRANCH   3   6
ENDBRANCH   1   2
BRANCH   1  17
ATOM     17  C   UNL     1      98.085  82.450  77.689  1.00  0.00     0.010 C 
BRANCH  17  18
ATOM     18  C   UNL     1      97.928  81.293  78.713  1.00  0.00     0.001 C 
BRANCH  18  19
ATOM     19  C   UNL     1      98.998  81.315  79.837  1.00  0.00     0.000 C 
BRANCH  19  20
ATOM     20  C   UNL     1      98.552  82.171  81.058  1.00  0.00     0.003 C 
BRANCH  20  21
ATOM     21  C   UNL     1      97.032  82.071  81.413  1.00  0.00    -0.017 C 
ATOM     22  C   UNL     1      96.592  83.266  82.310  1.00  0.00     0.007 C 
ATOM     23  C   UNL     1      96.658  80.724  82.097  1.00  0.00     0.007 C 
ENDBRANCH  20  21
ENDBRANCH  19  20
ENDBRANCH  18  19
ENDBRANCH  17  18
ENDBRANCH   1  17
TORSDOF 10
ENDMDL
MODEL 8
REMARK VINA RESULT:    -5.606     24.410     25.537
REMARK INTER + INTRA:          -9.345
REMARK INTER:                  -8.543
REMARK INTRA:                  -0.801
REMARK UNBOUND:                -0.626
REMARK SMILES COc1cc(CNC(=O)CCCCCC(C)C)ccc1O
REMARK SMILES IDX 10 1 8 2 7 3 9 5 6 6 5 7 3 8 20 9 4 10 19 11 18 12 2 13 1 14
REMARK SMILES IDX 21 15 11 17 12 18 13 19 14 20 15 21 16 22 17 23
REMARK H PARENT 7 4 21 16
REMARK Flexibility Score: inf
ROOT
ATOM      1  C   UNL     1      99.022  80.227  80.782  1.00  0.00     0.100 C 
ENDROOT
BRANCH   1   2
ATOM      2  C   UNL     1      99.513  80.683  79.465  1.00  0.00     0.220 C 
ATOM      3  N   UNL     1      98.795  80.389  78.345  1.00  0.00    -0.352 N 
ATOM      4  H   UNL     1      98.026  79.750  78.488  1.00  0.00     0.163 HD
ATOM      5  O   UNL     1     100.562  81.371  79.411  1.00  0.00    -0.275 OA
BRANCH   3   6
ATOM      6  C   UNL     1      99.057  80.909  77.041  1.00  0.00     0.151 C 
BRANCH   6   7
ATOM      7  C   UNL     1      98.291  82.149  76.742  1.00  0.00    -0.025 A 
ATOM      8  C   UNL     1      97.642  83.929  75.174  1.00  0.00     0.160 A 
ATOM      9  C   UNL     1      96.782  84.473  76.152  1.00  0.00     0.157 A 
ATOM     10  C   UNL     1      98.404  82.782  75.482  1.00  0.00     0.056 A 
ATOM     11  C   UNL     1      96.682  83.868  77.418  1.00  0.00     0.050 A 
ATOM     12  C   UNL     1      97.426  82.712  77.710  1.00  0.00     0.009 A 
BRANCH   8  13
ATOM     13  O   UNL     1      97.769  84.514  73.942  1.00  0.00    -0.493 OA
ATOM     14  C   UNL     1      98.609  83.779  73.032  1.00  0.00     0.278 C 
ENDBRANCH   8  13
BRANCH   9  15
ATOM     15  O   UNL     1      96.046  85.577  75.867  1.00  0.00    -0.504 OA
ATOM     16  H   UNL     1      95.848  85.596  74.928  1.00  0.00     0.293 HD
ENDBRANCH   9  15
ENDBRANCH   6   7
ENDBRANCH   3   6
ENDBRANCH   1   2
BRANCH   1  17
ATOM     17  C   UNL     1      97.482  80.319  80.957  1.00  0.00     0.010 C 
BRANCH  17  18
ATOM     18  C   UNL     1      97.005  81.794  81.056  1.00  0.00     0.001 C 
BRANCH  18  19
ATOM     19  C   UNL     1      97.301  82.447  82.432  1.00  0.00     0.000 C 
BRANCH  19  20
ATOM     20  C   UNL     1      96.295  83.584  82.773  1.00  0.00     0.003 C 
BRANCH  20  21
ATOM     21  C   UNL     1      95.566  83.431  84.147  1.00  0.00    -0.017 C 
ATOM     22  C   UNL     1      94.375  82.433  84.036  1.00  0.00     0.007 C 
ATOM     23  C   UNL     1      95.072  84.789  84.725  1.00  0.00     0.007 C 
ENDBRANCH  20  21
ENDBRANCH  19  20
ENDBRANCH  18  19
ENDBRANCH  17  18
ENDBRANCH   1  17
TORSDOF 10
ENDMDL
MODEL 9
REMARK VINA RESULT:    -5.552     24.229     25.741
REMARK INTER + INTRA:          -9.262
REMARK INTER:                  -8.497
REMARK INTRA:                  -0.765
REMARK UNBOUND:                -0.626
REMARK SMILES COc1cc(CNC(=O)CCCCCC(C)C)ccc1O
REMARK SMILES IDX 10 1 8 2 7 3 9 5 6 6 5 7 3 8 20 9 4 10 19 11 18 12 2 13 1 14
REMARK SMILES IDX 21 15 11 17 12 18 13 19 14 20 15 21 16 22 17 23
REMARK H PARENT 7 4 21 16
REMARK Flexibility Score: inf
ROOT
ATOM      1  C   UNL     1      98.198  83.230  78.696  1.00  0.00     0.100 C 
ENDROOT
BRANCH   1   2
ATOM      2  C   UNL     1      97.430  83.252  77.433  1.00  0.00     0.220 C 
ATOM      3  N   UNL     1      97.352  84.409  76.718  1.00  0.00    -0.352 N 
ATOM      4  H   UNL     1      97.728  85.223  77.183  1.00  0.00     0.163 HD
ATOM      5  O   UNL     1      96.900  82.190  77.025  1.00  0.00    -0.275 OA
BRANCH   3   6
ATOM      6  C   UNL     1      96.796  84.530  75.408  1.00  0.00     0.151 C 
BRANCH   6   7
ATOM      7  C   UNL     1      97.792  84.301  74.327  1.00  0.00    -0.025 A 
ATOM      8  C   UNL     1      98.954  82.777  72.785  1.00  0.00     0.160 A 
ATOM      9  C   UNL     1      99.640  83.873  72.222  1.00  0.00     0.157 A 
ATOM     10  C   UNL     1      98.049  82.995  73.846  1.00  0.00     0.056 A 
ATOM     11  C   UNL     1      99.412  85.173  72.710  1.00  0.00     0.050 A 
ATOM     12  C   UNL     1      98.492  85.386  73.750  1.00  0.00     0.009 A 
BRANCH   8  13
ATOM     13  O   UNL     1      99.176  81.501  72.338  1.00  0.00    -0.493 OA
ATOM     14  C   UNL     1      99.941  80.689  73.249  1.00  0.00     0.278 C 
ENDBRANCH   8  13
BRANCH   9  15
ATOM     15  O   UNL     1     100.513  83.675  71.203  1.00  0.00    -0.504 OA
ATOM     16  H   UNL     1     101.379  84.006  71.454  1.00  0.00     0.293 HD
ENDBRANCH   9  15
ENDBRANCH   6   7
ENDBRANCH   3   6
ENDBRANCH   1   2
BRANCH   1  17
ATOM     17  C   UNL     1      97.330  83.040  79.968  1.00  0.00     0.010 C 
BRANCH  17  18
ATOM     18  C   UNL     1      97.310  81.557  80.432  1.00  0.00     0.001 C 
BRANCH  18  19
ATOM     19  C   UNL     1      96.749  81.368  81.866  1.00  0.00     0.000 C 
BRANCH  19  20
ATOM     20  C   UNL     1      97.370  82.374  82.878  1.00  0.00     0.003 C 
BRANCH  20  21
ATOM     21  C   UNL     1      96.333  83.202  83.705  1.00  0.00    -0.017 C 
ATOM     22  C   UNL     1      95.083  82.341  84.050  1.00  0.00     0.007 C 
ATOM     23  C   UNL     1      95.897  84.513  82.989  1.00  0.00     0.007 C 
ENDBRANCH  20  21
ENDBRANCH  19  20
ENDBRANCH  18  19
ENDBRANCH  17  18
ENDBRANCH   1  17
TORSDOF 10
ENDMDL
MODEL 10
REMARK VINA RESULT:    -5.438     20.923     23.456
REMARK INTER + INTRA:          -9.084
REMARK INTER:                  -8.020
REMARK INTRA:                  -1.064
REMARK UNBOUND:                -0.626
REMARK SMILES COc1cc(CNC(=O)CCCCCC(C)C)ccc1O
REMARK SMILES IDX 10 1 8 2 7 3 9 5 6 6 5 7 3 8 20 9 4 10 19 11 18 12 2 13 1 14
REMARK SMILES IDX 21 15 11 17 12 18 13 19 14 20 15 21 16 22 17 23
REMARK H PARENT 7 4 21 16
REMARK Flexibility Score: inf
ROOT
ATOM      1  C   UNL     1      74.733  89.950  69.788  1.00  0.00     0.100 C 
ENDROOT
BRANCH   1   2
ATOM      2  C   UNL     1      73.268  89.761  69.750  1.00  0.00     0.220 C 
ATOM      3  N   UNL     1      72.686  89.262  68.623  1.00  0.00    -0.352 N 
ATOM      4  H   UNL     1      73.303  89.179  67.827  1.00  0.00     0.163 HD
ATOM      5  O   UNL     1      72.594  90.024  70.776  1.00  0.00    -0.275 OA
BRANCH   3   6
ATOM      6  C   UNL     1      71.319  88.869  68.509  1.00  0.00     0.151 C 
BRANCH   6   7
ATOM      7  C   UNL     1      71.102  87.422  68.783  1.00  0.00    -0.025 A 
ATOM      8  C   UNL     1      69.722  85.611  69.711  1.00  0.00     0.160 A 
ATOM      9  C   UNL     1      70.657  84.663  69.244  1.00  0.00     0.157 A 
ATOM     10  C   UNL     1      69.960  86.985  69.494  1.00  0.00     0.056 A 
ATOM     11  C   UNL     1      71.810  85.088  68.559  1.00  0.00     0.050 A 
ATOM     12  C   UNL     1      72.028  86.456  68.325  1.00  0.00     0.009 A 
BRANCH   8  13
ATOM     13  O   UNL     1      68.603  85.219  70.398  1.00  0.00    -0.493 OA
ATOM     14  C   UNL     1      68.101  86.214  71.310  1.00  0.00     0.278 C 
ENDBRANCH   8  13
BRANCH   9  15
ATOM     15  O   UNL     1      70.439  83.340  69.449  1.00  0.00    -0.504 OA
ATOM     16  H   UNL     1      69.507  83.145  69.327  1.00  0.00     0.293 HD
ENDBRANCH   9  15
ENDBRANCH   6   7
ENDBRANCH   3   6
ENDBRANCH   1   2
BRANCH   1  17
ATOM     17  C   UNL     1      75.550  88.708  69.342  1.00  0.00     0.010 C 
BRANCH  17  18
ATOM     18  C   UNL     1      76.488  89.037  68.148  1.00  0.00     0.001 C 
BRANCH  18  19
ATOM     19  C   UNL     1      77.288  87.810  67.636  1.00  0.00     0.000 C 
BRANCH  19  20
ATOM     20  C   UNL     1      77.227  86.612  68.628  1.00  0.00     0.003 C 
BRANCH  20  21
ATOM     21  C   UNL     1      76.547  85.322  68.063  1.00  0.00    -0.017 C 
ATOM     22  C   UNL     1      75.984  84.441  69.217  1.00  0.00     0.007 C 
ATOM     23  C   UNL     1      77.500  84.481  67.165  1.00  0.00     0.007 C 
ENDBRANCH  20  21
ENDBRANCH  19  20
ENDBRANCH  18  19
ENDBRANCH  17  18
ENDBRANCH   1  17
TORSDOF 10
ENDMDL
