MODEL 1
REMARK VINA RESULT:    -6.053      0.000      0.000
REMARK INTER + INTRA:         -13.360
REMARK INTER:                 -10.653
REMARK INTRA:                  -2.707
REMARK UNBOUND:                -2.707
REMARK SMILES C=C(C)[C@]12C[C@@H](C)[C@@]34O[C@](Cc5ccccc5)(O[C@@H]1[C@@H]3C=C(COC(=O)Cc1ccc(O)c(OC)c1)C[C@]1(O)C(=O)C(C)=C[C@@H]41)O2
REMARK SMILES IDX 23 1 22 2 21 3 20 4 9 5 8 6 10 7 6 8 18 9 46 10 19 11 5 12
REMARK SMILES IDX 7 13 4 14 45 15 38 16 44 17 40 18 42 20 41 21 43 22 39 23
REMARK SMILES IDX 11 25 12 26 13 27 17 28 14 29 16 30 15 31 2 32 3 33 1 34
REMARK SMILES IDX 37 35 24 37 25 38 26 39 27 40 28 41 36 42 29 43 33 44 30 45
REMARK SMILES IDX 31 46 34 47 35 48 32 49
REMARK H PARENT 39 24 32 50
REMARK Flexibility Score: 90.00
ROOT
ATOM      1  C   UNL     1     103.572  79.290  74.669  1.00  0.00     0.264 C 
ENDROOT
BRANCH   1   2
ATOM      2  C   UNL     1     102.090  79.197  74.387  1.00  0.00    -0.033 C 
ATOM      3  C   UNL     1     101.261  80.124  74.907  1.00  0.00    -0.015 C 
BRANCH   3   4
ATOM      4  C   UNL     1      99.745  80.209  74.837  1.00  0.00     0.078 C 
ATOM      5  O   UNL     1      99.192  81.618  72.880  1.00  0.00    -0.319 OA
ATOM      6  C   UNL     1      99.063  80.267  73.419  1.00  0.00     0.095 C 
ATOM      7  C   UNL     1      98.952  82.683  73.820  1.00  0.00     0.289 C 
ATOM      8  C   UNL     1      97.527  79.925  73.611  1.00  0.00     0.023 C 
ATOM      9  O   UNL     1      99.826  82.588  74.942  1.00  0.00    -0.320 OA
ATOM     10  O   UNL     1      97.632  82.644  74.355  1.00  0.00    -0.313 OA
ATOM     11  C   UNL     1      99.252  81.455  75.613  1.00  0.00     0.170 C 
ATOM     12  C   UNL     1      96.995  80.439  74.984  1.00  0.00     0.049 C 
ATOM     13  C   UNL     1      96.598  80.410  72.487  1.00  0.00     0.011 C 
ATOM     14  C   UNL     1      97.732  81.699  75.440  1.00  0.00     0.122 C 
BRANCH   6  15
ATOM     15  C   UNL     1      99.826  79.368  72.403  1.00  0.00     0.086 C 
ATOM     16  C   UNL     1     100.265  77.982  72.918  1.00  0.00     0.140 CG0
ATOM     17  C   UNL     1      99.197  79.064  71.072  1.00  0.00    -0.010 C 
ATOM     18  C   UNL     1     100.138  77.119  71.680  1.00  0.00     0.190 C 
ATOM     19  G   UNL     1     101.688  77.998  73.476  1.00  0.00     0.000 G0
ATOM     20  C   UNL     1      99.378  77.816  70.626  1.00  0.00    -0.008 C 
ATOM     21  O   UNL     1     100.556  75.976  71.567  1.00  0.00    -0.291 OA
ATOM     22  C   UNL     1      98.981  77.198  69.344  1.00  0.00     0.048 C 
BRANCH  16  23
ATOM     23  O   UNL     1      99.357  77.395  73.835  1.00  0.00    -0.381 OA
ATOM     24  H   UNL     1      98.581  77.081  73.340  1.00  0.00     0.212 HD
ENDBRANCH  16  23
ENDBRANCH   6  15
BRANCH   7  25
ATOM     25  C   UNL     1      99.172  84.003  73.110  1.00  0.00     0.135 C 
BRANCH  25  26
ATOM     26  C   UNL     1     100.516  84.060  72.426  1.00  0.00    -0.040 A 
ATOM     27  C   UNL     1     101.672  84.270  73.179  1.00  0.00     0.004 A 
ATOM     28  C   UNL     1     100.603  83.903  71.044  1.00  0.00     0.004 A 
ATOM     29  C   UNL     1     102.915  84.323  72.547  1.00  0.00     0.000 A 
ATOM     30  C   UNL     1     101.846  83.956  70.412  1.00  0.00     0.000 A 
ATOM     31  C   UNL     1     103.001  84.166  71.164  1.00  0.00     0.000 A 
ENDBRANCH  25  26
ENDBRANCH   7  25
BRANCH  14  32
ATOM     32  C   UNL     1      97.120  82.313  76.657  1.00  0.00    -0.046 C 
ATOM     33  C   UNL     1      95.956  83.230  76.422  1.00  0.00     0.042 C 
ATOM     34  C   UNL     1      97.585  82.060  77.890  1.00  0.00     0.010 C 
ENDBRANCH  14  32
ENDBRANCH   3   4
BRANCH   2  35
ATOM     35  C   UNL     1     101.726  78.017  73.506  1.00  0.00     0.078 CG0
ATOM     36  G   UNL     1     100.308  77.982  72.936  1.00  0.00     0.000 G0
ENDBRANCH   2  35
ENDBRANCH   1   2
BRANCH   1  37
ATOM     37  O   UNL     1     103.768  79.793  75.973  1.00  0.00    -0.461 OA
BRANCH  37  38
ATOM     38  C   UNL     1     104.385  78.948  76.865  1.00  0.00     0.310 C 
ATOM     39  O   UNL     1     105.301  78.185  76.592  1.00  0.00    -0.252 OA
BRANCH  38  40
ATOM     40  C   UNL     1     103.755  79.107  78.229  1.00  0.00     0.158 C 
BRANCH  40  41
ATOM     41  C   UNL     1     102.281  78.793  78.237  1.00  0.00    -0.033 A 
ATOM     42  C   UNL     1     101.841  77.505  77.930  1.00  0.00     0.054 A 
ATOM     43  C   UNL     1     101.357  79.789  78.550  1.00  0.00     0.008 A 
ATOM     44  C   UNL     1     100.477  77.214  77.937  1.00  0.00     0.160 A 
ATOM     45  C   UNL     1      99.992  79.498  78.557  1.00  0.00     0.050 A 
ATOM     46  C   UNL     1      99.552  78.211  78.250  1.00  0.00     0.157 A 
BRANCH  44  47
ATOM     47  O   UNL     1     100.059  75.953  77.635  1.00  0.00    -0.493 OA
ATOM     48  C   UNL     1     100.532  75.388  76.413  1.00  0.00     0.278 C 
ENDBRANCH  44  47
BRANCH  46  49
ATOM     49  O   UNL     1      98.218  77.939  78.261  1.00  0.00    -0.504 OA
ATOM     50  H   UNL     1      98.032  77.240  77.611  1.00  0.00     0.293 HD
ENDBRANCH  46  49
ENDBRANCH  40  41
ENDBRANCH  38  40
ENDBRANCH  37  38
ENDBRANCH   1  37
TORSDOF 11
ENDMDL
MODEL 2
REMARK VINA RESULT:    -6.014     17.648     22.218
REMARK INTER + INTRA:         -13.291
REMARK INTER:                 -12.569
REMARK INTRA:                  -0.723
REMARK UNBOUND:                -2.707
REMARK SMILES C=C(C)[C@]12C[C@@H](C)[C@@]34O[C@](Cc5ccccc5)(O[C@@H]1[C@@H]3C=C(COC(=O)Cc1ccc(O)c(OC)c1)C[C@]1(O)C(=O)C(C)=C[C@@H]41)O2
REMARK SMILES IDX 23 1 22 2 21 3 20 4 9 5 8 6 10 7 6 8 18 9 46 10 19 11 5 12
REMARK SMILES IDX 7 13 4 14 45 15 38 16 44 17 40 18 42 20 41 21 43 22 39 23
REMARK SMILES IDX 11 25 12 26 13 27 17 28 14 29 16 30 15 31 2 32 3 33 1 34
REMARK SMILES IDX 37 35 24 37 25 38 26 39 27 40 28 41 36 42 29 43 33 44 30 45
REMARK SMILES IDX 31 46 34 47 35 48 32 49
REMARK H PARENT 39 24 32 50
REMARK Flexibility Score: 90.00
ROOT
ATOM      1  C   UNL     1      91.807 100.797  71.290  1.00  0.00     0.264 C 
ENDROOT
BRANCH   1   2
ATOM      2  C   UNL     1      93.306 100.614  71.343  1.00  0.00    -0.033 C 
ATOM      3  C   UNL     1      93.878 100.192  72.489  1.00  0.00    -0.015 C 
BRANCH   3   4
ATOM      4  C   UNL     1      95.349 100.005  72.821  1.00  0.00     0.078 C 
ATOM      5  O   UNL     1      95.918  97.659  72.279  1.00  0.00    -0.319 OA
ATOM      6  C   UNL     1      96.205  99.044  71.914  1.00  0.00     0.095 C 
ATOM      7  C   UNL     1      95.831  97.400  73.693  1.00  0.00     0.289 C 
ATOM      8  C   UNL     1      97.734  99.353  72.196  1.00  0.00     0.023 C 
ATOM      9  O   UNL     1      94.837  98.216  74.308  1.00  0.00    -0.320 OA
ATOM     10  O   UNL     1      97.047  97.697  74.373  1.00  0.00    -0.313 OA
ATOM     11  C   UNL     1      95.500  99.490  74.273  1.00  0.00     0.170 C 
ATOM     12  C   UNL     1      97.967  99.778  73.678  1.00  0.00     0.049 C 
ATOM     13  C   UNL     1      98.714  98.228  71.826  1.00  0.00     0.011 C 
ATOM     14  C   UNL     1      96.962  99.115  74.621  1.00  0.00     0.122 C 
BRANCH   6  15
ATOM     15  C   UNL     1      95.765  99.153  70.425  1.00  0.00     0.086 C 
ATOM     16  C   UNL     1      95.482 100.576  69.902  1.00  0.00     0.140 CG0
ATOM     17  C   UNL     1      96.632  98.552  69.355  1.00  0.00    -0.010 C 
ATOM     18  C   UNL     1      95.938 100.490  68.460  1.00  0.00     0.190 C 
ATOM     19  G   UNL     1      94.007 100.955  70.027  1.00  0.00     0.000 G0
ATOM     20  C   UNL     1      96.728  99.266  68.228  1.00  0.00    -0.008 C 
ATOM     21  O   UNL     1      95.734 101.335  67.602  1.00  0.00    -0.291 OA
ATOM     22  C   UNL     1      97.413  98.952  66.957  1.00  0.00     0.048 C 
BRANCH  16  23
ATOM     23  O   UNL     1      96.322 101.571  70.463  1.00  0.00    -0.381 OA
ATOM     24  H   UNL     1      96.656 102.133  69.744  1.00  0.00     0.212 HD
ENDBRANCH  16  23
ENDBRANCH   6  15
BRANCH   7  25
ATOM     25  C   UNL     1      95.485  95.938  73.889  1.00  0.00     0.135 C 
BRANCH  25  26
ATOM     26  C   UNL     1      94.557  95.727  75.059  1.00  0.00    -0.040 A 
ATOM     27  C   UNL     1      95.063  95.271  76.277  1.00  0.00     0.004 A 
ATOM     28  C   UNL     1      93.195  95.991  74.926  1.00  0.00     0.004 A 
ATOM     29  C   UNL     1      94.206  95.076  77.360  1.00  0.00     0.000 A 
ATOM     30  C   UNL     1      92.337  95.796  76.009  1.00  0.00     0.000 A 
ATOM     31  C   UNL     1      92.843  95.339  77.225  1.00  0.00     0.000 A 
ENDBRANCH  25  26
ENDBRANCH   7  25
BRANCH  14  32
ATOM     32  C   UNL     1      97.277  99.361  76.061  1.00  0.00    -0.046 C 
ATOM     33  C   UNL     1      97.362  98.147  76.937  1.00  0.00     0.042 C 
ATOM     34  C   UNL     1      97.472 100.598  76.543  1.00  0.00     0.010 C 
ENDBRANCH  14  32
ENDBRANCH   3   4
BRANCH   2  35
ATOM     35  C   UNL     1      93.992 100.940  70.030  1.00  0.00     0.078 CG0
ATOM     36  G   UNL     1      95.476 100.594  69.913  1.00  0.00     0.000 G0
ENDBRANCH   2  35
ENDBRANCH   1   2
BRANCH   1  37
ATOM     37  O   UNL     1      91.344 100.485  69.994  1.00  0.00    -0.461 OA
BRANCH  37  38
ATOM     38  C   UNL     1      90.349  99.538  69.915  1.00  0.00     0.310 C 
ATOM     39  O   UNL     1      89.742  99.076  70.871  1.00  0.00    -0.252 OA
BRANCH  38  40
ATOM     40  C   UNL     1      90.125  99.161  68.469  1.00  0.00     0.158 C 
BRANCH  40  41
ATOM     41  C   UNL     1      89.084 100.016  67.793  1.00  0.00    -0.033 A 
ATOM     42  C   UNL     1      89.210 101.406  67.802  1.00  0.00     0.054 A 
ATOM     43  C   UNL     1      87.995  99.418  67.159  1.00  0.00     0.008 A 
ATOM     44  C   UNL     1      88.246 102.197  67.176  1.00  0.00     0.160 A 
ATOM     45  C   UNL     1      87.031 100.209  66.533  1.00  0.00     0.050 A 
ATOM     46  C   UNL     1      87.156 101.598  66.542  1.00  0.00     0.157 A 
BRANCH  44  47
ATOM     47  O   UNL     1      88.379 103.552  67.191  1.00  0.00    -0.493 OA
ATOM     48  C   UNL     1      89.526 104.098  66.541  1.00  0.00     0.278 C 
ENDBRANCH  44  47
BRANCH  46  49
ATOM     49  O   UNL     1      86.210 102.360  65.927  1.00  0.00    -0.504 OA
ATOM     50  H   UNL     1      86.354 102.330  64.966  1.00  0.00     0.293 HD
ENDBRANCH  46  49
ENDBRANCH  40  41
ENDBRANCH  38  40
ENDBRANCH  37  38
ENDBRANCH   1  37
TORSDOF 11
ENDMDL
MODEL 3
REMARK VINA RESULT:    -5.984      9.709     14.300
REMARK INTER + INTRA:         -13.238
REMARK INTER:                 -12.750
REMARK INTRA:                  -0.489
REMARK UNBOUND:                -2.707
REMARK SMILES C=C(C)[C@]12C[C@@H](C)[C@@]34O[C@](Cc5ccccc5)(O[C@@H]1[C@@H]3C=C(COC(=O)Cc1ccc(O)c(OC)c1)C[C@]1(O)C(=O)C(C)=C[C@@H]41)O2
REMARK SMILES IDX 23 1 22 2 21 3 20 4 9 5 8 6 10 7 6 8 18 9 46 10 19 11 5 12
REMARK SMILES IDX 7 13 4 14 45 15 38 16 44 17 40 18 42 20 41 21 43 22 39 23
REMARK SMILES IDX 11 25 12 26 13 27 17 28 14 29 16 30 15 31 2 32 3 33 1 34
REMARK SMILES IDX 37 35 24 37 25 38 26 39 27 40 28 41 36 42 29 43 33 44 30 45
REMARK SMILES IDX 31 46 34 47 35 48 32 49
REMARK H PARENT 39 24 32 50
REMARK Flexibility Score: 90.00
ROOT
ATOM      1  C   UNL     1      96.119  81.803  83.517  1.00  0.00     0.264 C 
ENDROOT
BRANCH   1   2
ATOM      2  C   UNL     1      94.947  82.191  84.388  1.00  0.00    -0.033 C 
ATOM      3  C   UNL     1      93.810  81.471  84.323  1.00  0.00    -0.015 C 
BRANCH   3   4
ATOM      4  C   UNL     1      92.482  81.698  85.028  1.00  0.00     0.078 C 
ATOM      5  O   UNL     1      92.546  80.387  87.125  1.00  0.00    -0.319 OA
ATOM      6  C   UNL     1      92.469  81.749  86.601  1.00  0.00     0.095 C 
ATOM      7  C   UNL     1      91.726  79.418  86.445  1.00  0.00     0.289 C 
ATOM      8  C   UNL     1      91.097  82.404  87.048  1.00  0.00     0.023 C 
ATOM      9  O   UNL     1      92.041  79.357  85.056  1.00  0.00    -0.320 OA
ATOM     10  O   UNL     1      90.339  79.740  86.511  1.00  0.00    -0.313 OA
ATOM     11  C   UNL     1      91.472  80.599  84.614  1.00  0.00     0.170 C 
ATOM     12  C   UNL     1      89.943  82.043  86.063  1.00  0.00     0.049 C 
ATOM     13  C   UNL     1      90.656  82.094  88.488  1.00  0.00     0.011 C 
ATOM     14  C   UNL     1      90.154  80.670  85.424  1.00  0.00     0.122 C 
BRANCH   6  15
ATOM     15  C   UNL     1      93.751  82.446  87.142  1.00  0.00     0.086 C 
ATOM     16  C   UNL     1      94.210  83.708  86.382  1.00  0.00     0.140 CG0
ATOM     17  C   UNL     1      93.808  82.866  88.584  1.00  0.00    -0.010 C 
ATOM     18  C   UNL     1      94.787  84.564  87.490  1.00  0.00     0.190 C 
ATOM     19  G   UNL     1      95.236  83.386  85.296  1.00  0.00     0.000 G0
ATOM     20  C   UNL     1      94.409  84.038  88.815  1.00  0.00    -0.008 C 
ATOM     21  O   UNL     1      95.438  85.585  87.330  1.00  0.00    -0.291 OA
ATOM     22  C   UNL     1      94.716  84.714  90.093  1.00  0.00     0.048 C 
BRANCH  16  23
ATOM     23  O   UNL     1      93.143  84.490  85.871  1.00  0.00    -0.381 OA
ATOM     24  H   UNL     1      92.419  84.481  86.518  1.00  0.00     0.212 HD
ENDBRANCH  16  23
ENDBRANCH   6  15
BRANCH   7  25
ATOM     25  C   UNL     1      91.962  78.064  87.083  1.00  0.00     0.135 C 
BRANCH  25  26
ATOM     26  C   UNL     1      90.825  77.108  86.818  1.00  0.00    -0.040 A 
ATOM     27  C   UNL     1      90.827  76.326  85.662  1.00  0.00     0.004 A 
ATOM     28  C   UNL     1      89.773  77.004  87.727  1.00  0.00     0.004 A 
ATOM     29  C   UNL     1      89.776  75.442  85.416  1.00  0.00     0.000 A 
ATOM     30  C   UNL     1      88.722  76.120  87.481  1.00  0.00     0.000 A 
ATOM     31  C   UNL     1      88.725  75.340  86.325  1.00  0.00     0.000 A 
ENDBRANCH  25  26
ENDBRANCH   7  25
BRANCH  14  32
ATOM     32  C   UNL     1      88.976  80.224  84.620  1.00  0.00    -0.046 C 
ATOM     33  C   UNL     1      89.057  78.846  84.035  1.00  0.00     0.042 C 
ATOM     34  C   UNL     1      87.907  81.012  84.431  1.00  0.00     0.010 C 
ENDBRANCH  14  32
ENDBRANCH   3   4
BRANCH   2  35
ATOM     35  C   UNL     1      95.232  83.396  85.266  1.00  0.00     0.078 CG0
ATOM     36  G   UNL     1      94.233  83.699  86.382  1.00  0.00     0.000 G0
ENDBRANCH   2  35
ENDBRANCH   1   2
BRANCH   1  37
ATOM     37  O   UNL     1      95.851  80.562  82.900  1.00  0.00    -0.461 OA
BRANCH  37  38
ATOM     38  C   UNL     1      96.640  80.236  81.821  1.00  0.00     0.310 C 
ATOM     39  O   UNL     1      96.839  79.099  81.415  1.00  0.00    -0.252 OA
BRANCH  38  40
ATOM     40  C   UNL     1      97.218  81.495  81.220  1.00  0.00     0.158 C 
BRANCH  40  41
ATOM     41  C   UNL     1      97.652  81.317  79.788  1.00  0.00    -0.033 A 
ATOM     42  C   UNL     1      98.659  80.404  79.473  1.00  0.00     0.054 A 
ATOM     43  C   UNL     1      97.048  82.064  78.778  1.00  0.00     0.008 A 
ATOM     44  C   UNL     1      99.062  80.239  78.148  1.00  0.00     0.160 A 
ATOM     45  C   UNL     1      97.450  81.900  77.452  1.00  0.00     0.050 A 
ATOM     46  C   UNL     1      98.457  80.988  77.137  1.00  0.00     0.157 A 
BRANCH  44  47
ATOM     47  O   UNL     1     100.046  79.345  77.853  1.00  0.00    -0.493 OA
ATOM     48  C   UNL     1     101.392  79.777  78.043  1.00  0.00     0.278 C 
ENDBRANCH  44  47
BRANCH  46  49
ATOM     49  O   UNL     1      98.840  80.834  75.839  1.00  0.00    -0.504 OA
ATOM     50  H   UNL     1      98.573  81.621  75.335  1.00  0.00     0.293 HD
ENDBRANCH  46  49
ENDBRANCH  40  41
ENDBRANCH  38  40
ENDBRANCH  37  38
ENDBRANCH   1  37
TORSDOF 11
ENDMDL
MODEL 4
REMARK VINA RESULT:    -5.652      9.797     14.386
REMARK INTER + INTRA:         -12.654
REMARK INTER:                 -12.114
REMARK INTRA:                  -0.540
REMARK UNBOUND:                -2.707
REMARK SMILES C=C(C)[C@]12C[C@@H](C)[C@@]34O[C@](Cc5ccccc5)(O[C@@H]1[C@@H]3C=C(COC(=O)Cc1ccc(O)c(OC)c1)C[C@]1(O)C(=O)C(C)=C[C@@H]41)O2
REMARK SMILES IDX 23 1 22 2 21 3 20 4 9 5 8 6 10 7 6 8 18 9 46 10 19 11 5 12
REMARK SMILES IDX 7 13 4 14 45 15 38 16 44 17 40 18 42 20 41 21 43 22 39 23
REMARK SMILES IDX 11 25 12 26 13 27 17 28 14 29 16 30 15 31 2 32 3 33 1 34
REMARK SMILES IDX 37 35 24 37 25 38 26 39 27 40 28 41 36 42 29 43 33 44 30 45
REMARK SMILES IDX 31 46 34 47 35 48 32 49
REMARK H PARENT 39 24 32 50
REMARK Flexibility Score: 90.00
ROOT
ATOM      1  C   UNL     1      96.095  81.852  83.496  1.00  0.00     0.264 C 
ENDROOT
BRANCH   1   2
ATOM      2  C   UNL     1      94.900  82.209  84.349  1.00  0.00    -0.033 C 
ATOM      3  C   UNL     1      93.806  81.422  84.314  1.00  0.00    -0.015 C 
BRANCH   3   4
ATOM      4  C   UNL     1      92.466  81.601  85.007  1.00  0.00     0.078 C 
ATOM      5  O   UNL     1      92.600  80.391  87.161  1.00  0.00    -0.319 OA
ATOM      6  C   UNL     1      92.444  81.721  86.577  1.00  0.00     0.095 C 
ATOM      7  C   UNL     1      91.841  79.346  86.524  1.00  0.00     0.289 C 
ATOM      8  C   UNL     1      91.035  82.314  86.994  1.00  0.00     0.023 C 
ATOM      9  O   UNL     1      92.163  79.242  85.140  1.00  0.00    -0.320 OA
ATOM     10  O   UNL     1      90.437  79.589  86.576  1.00  0.00    -0.313 OA
ATOM     11  C   UNL     1      91.523  80.428  84.643  1.00  0.00     0.170 C 
ATOM     12  C   UNL     1      89.908  81.842  86.025  1.00  0.00     0.049 C 
ATOM     13  C   UNL     1      90.609  82.043  88.446  1.00  0.00     0.011 C 
ATOM     14  C   UNL     1      90.200  80.457  85.448  1.00  0.00     0.122 C 
BRANCH   6  15
ATOM     15  C   UNL     1      93.682  82.516  87.086  1.00  0.00     0.086 C 
ATOM     16  C   UNL     1      94.058  83.777  86.282  1.00  0.00     0.140 CG0
ATOM     17  C   UNL     1      93.717  82.988  88.513  1.00  0.00    -0.010 C 
ATOM     18  C   UNL     1      94.583  84.705  87.356  1.00  0.00     0.190 C 
ATOM     19  G   UNL     1      95.099  83.484  85.202  1.00  0.00     0.000 G0
ATOM     20  C   UNL     1      94.243  84.203  88.701  1.00  0.00    -0.008 C 
ATOM     21  O   UNL     1      95.168  85.760  87.158  1.00  0.00    -0.291 OA
ATOM     22  C   UNL     1      94.511  84.941  89.953  1.00  0.00     0.048 C 
BRANCH  16  23
ATOM     23  O   UNL     1      92.942  84.473  85.750  1.00  0.00    -0.381 OA
ATOM     24  H   UNL     1      92.222  84.440  86.400  1.00  0.00     0.212 HD
ENDBRANCH  16  23
ENDBRANCH   6  15
BRANCH   7  25
ATOM     25  C   UNL     1      92.154  78.038  87.222  1.00  0.00     0.135 C 
BRANCH  25  26
ATOM     26  C   UNL     1      92.486  78.240  88.680  1.00  0.00    -0.040 A 
ATOM     27  C   UNL     1      91.461  78.341  89.621  1.00  0.00     0.004 A 
ATOM     28  C   UNL     1      93.817  78.325  89.087  1.00  0.00     0.004 A 
ATOM     29  C   UNL     1      91.767  78.528  90.969  1.00  0.00     0.000 A 
ATOM     30  C   UNL     1      94.123  78.512  90.435  1.00  0.00     0.000 A 
ATOM     31  C   UNL     1      93.098  78.614  91.376  1.00  0.00     0.000 A 
ENDBRANCH  25  26
ENDBRANCH   7  25
BRANCH  14  32
ATOM     32  C   UNL     1      89.054  79.907  84.664  1.00  0.00    -0.046 C 
ATOM     33  C   UNL     1      89.189  78.488  84.199  1.00  0.00     0.042 C 
ATOM     34  C   UNL     1      87.965  80.641  84.390  1.00  0.00     0.010 C 
ENDBRANCH  14  32
ENDBRANCH   3   4
BRANCH   2  35
ATOM     35  C   UNL     1      95.111  83.465  85.174  1.00  0.00     0.078 CG0
ATOM     36  G   UNL     1      94.080  83.770  86.259  1.00  0.00     0.000 G0
ENDBRANCH   2  35
ENDBRANCH   1   2
BRANCH   1  37
ATOM     37  O   UNL     1      95.886  80.587  82.906  1.00  0.00    -0.461 OA
BRANCH  37  38
ATOM     38  C   UNL     1      96.702  80.269  81.845  1.00  0.00     0.310 C 
ATOM     39  O   UNL     1      96.964  79.132  81.477  1.00  0.00    -0.252 OA
BRANCH  38  40
ATOM     40  C   UNL     1      97.222  81.537  81.210  1.00  0.00     0.158 C 
BRANCH  40  41
ATOM     41  C   UNL     1      97.665  81.341  79.783  1.00  0.00    -0.033 A 
ATOM     42  C   UNL     1      98.679  80.429  79.487  1.00  0.00     0.054 A 
ATOM     43  C   UNL     1      97.062  82.070  78.758  1.00  0.00     0.008 A 
ATOM     44  C   UNL     1      99.090  80.247  78.166  1.00  0.00     0.160 A 
ATOM     45  C   UNL     1      97.473  81.888  77.438  1.00  0.00     0.050 A 
ATOM     46  C   UNL     1      98.487  80.977  77.141  1.00  0.00     0.157 A 
BRANCH  44  47
ATOM     47  O   UNL     1     100.081  79.355  77.890  1.00  0.00    -0.493 OA
ATOM     48  C   UNL     1     101.424  79.802  78.066  1.00  0.00     0.278 C 
ENDBRANCH  44  47
BRANCH  46  49
ATOM     49  O   UNL     1      98.878  80.807  75.848  1.00  0.00    -0.504 OA
ATOM     50  H   UNL     1      98.610  81.585  75.331  1.00  0.00     0.293 HD
ENDBRANCH  46  49
ENDBRANCH  40  41
ENDBRANCH  38  40
ENDBRANCH  37  38
ENDBRANCH   1  37
TORSDOF 11
ENDMDL
MODEL 5
REMARK VINA RESULT:    -5.509      3.764      6.060
REMARK INTER + INTRA:         -12.403
REMARK INTER:                 -12.144
REMARK INTRA:                  -0.259
REMARK UNBOUND:                -2.707
REMARK SMILES C=C(C)[C@]12C[C@@H](C)[C@@]34O[C@](Cc5ccccc5)(O[C@@H]1[C@@H]3C=C(COC(=O)Cc1ccc(O)c(OC)c1)C[C@]1(O)C(=O)C(C)=C[C@@H]41)O2
REMARK SMILES IDX 23 1 22 2 21 3 20 4 9 5 8 6 10 7 6 8 18 9 46 10 19 11 5 12
REMARK SMILES IDX 7 13 4 14 45 15 38 16 44 17 40 18 42 20 41 21 43 22 39 23
REMARK SMILES IDX 11 25 12 26 13 27 17 28 14 29 16 30 15 31 2 32 3 33 1 34
REMARK SMILES IDX 37 35 24 37 25 38 26 39 27 40 28 41 36 42 29 43 33 44 30 45
REMARK SMILES IDX 31 46 34 47 35 48 32 49
REMARK H PARENT 39 24 32 50
REMARK Flexibility Score: 90.00
ROOT
ATOM      1  C   UNL     1      98.561  78.109  79.638  1.00  0.00     0.264 C 
ENDROOT
BRANCH   1   2
ATOM      2  C   UNL     1      98.141  78.209  78.190  1.00  0.00    -0.033 C 
ATOM      3  C   UNL     1      98.334  79.367  77.526  1.00  0.00    -0.015 C 
BRANCH   3   4
ATOM      4  C   UNL     1      97.935  79.744  76.109  1.00  0.00     0.078 C 
ATOM      5  O   UNL     1      99.866  79.221  74.654  1.00  0.00    -0.319 OA
ATOM      6  C   UNL     1      98.475  78.864  74.920  1.00  0.00     0.095 C 
ATOM      7  C   UNL     1     100.155  80.632  74.673  1.00  0.00     0.289 C 
ATOM      8  C   UNL     1      97.596  79.194  73.643  1.00  0.00     0.023 C 
ATOM      9  O   UNL     1      99.800  81.216  75.924  1.00  0.00    -0.320 OA
ATOM     10  O   UNL     1      99.415  81.350  73.689  1.00  0.00    -0.313 OA
ATOM     11  C   UNL     1      98.368  81.201  75.811  1.00  0.00     0.170 C 
ATOM     12  C   UNL     1      97.132  80.683  73.637  1.00  0.00     0.049 C 
ATOM     13  C   UNL     1      98.245  78.855  72.291  1.00  0.00     0.011 C 
ATOM     14  C   UNL     1      98.146  81.594  74.329  1.00  0.00     0.122 C 
BRANCH   6  15
ATOM     15  C   UNL     1      98.529  77.363  75.325  1.00  0.00     0.086 C 
ATOM     16  C   UNL     1      97.322  76.830  76.125  1.00  0.00     0.140 CG0
ATOM     17  C   UNL     1      98.732  76.320  74.262  1.00  0.00    -0.010 C 
ATOM     18  C   UNL     1      97.207  75.404  75.630  1.00  0.00     0.190 C 
ATOM     19  G   UNL     1      97.549  76.910  77.634  1.00  0.00     0.000 G0
ATOM     20  C   UNL     1      98.024  75.196  74.419  1.00  0.00    -0.008 C 
ATOM     21  O   UNL     1      96.499  74.538  76.122  1.00  0.00    -0.291 OA
ATOM     22  C   UNL     1      98.033  73.948  73.629  1.00  0.00     0.048 C 
BRANCH  16  23
ATOM     23  O   UNL     1      96.085  77.417  75.755  1.00  0.00    -0.381 OA
ATOM     24  H   UNL     1      96.091  78.347  76.035  1.00  0.00     0.212 HD
ENDBRANCH  16  23
ENDBRANCH   6  15
BRANCH   7  25
ATOM     25  C   UNL     1     101.639  80.817  74.425  1.00  0.00     0.135 C 
BRANCH  25  26
ATOM     26  C   UNL     1     102.474  80.243  75.542  1.00  0.00    -0.040 A 
ATOM     27  C   UNL     1     101.861  79.799  76.714  1.00  0.00     0.004 A 
ATOM     28  C   UNL     1     103.859  80.155  75.404  1.00  0.00     0.004 A 
ATOM     29  C   UNL     1     102.634  79.268  77.748  1.00  0.00     0.000 A 
ATOM     30  C   UNL     1     104.632  79.624  76.437  1.00  0.00     0.000 A 
ATOM     31  C   UNL     1     104.018  79.181  77.609  1.00  0.00     0.000 A 
ENDBRANCH  25  26
ENDBRANCH   7  25
BRANCH  14  32
ATOM     32  C   UNL     1      97.814  83.043  74.177  1.00  0.00    -0.046 C 
ATOM     33  C   UNL     1      98.816  83.878  73.437  1.00  0.00     0.042 C 
ATOM     34  C   UNL     1      96.683  83.567  74.673  1.00  0.00     0.010 C 
ENDBRANCH  14  32
ENDBRANCH   3   4
BRANCH   2  35
ATOM     35  C   UNL     1      97.535  76.925  77.656  1.00  0.00     0.078 CG0
ATOM     36  G   UNL     1      97.316  76.830  76.147  1.00  0.00     0.000 G0
ENDBRANCH   2  35
ENDBRANCH   1   2
BRANCH   1  37
ATOM     37  O   UNL     1      98.447  79.378  80.246  1.00  0.00    -0.461 OA
BRANCH  37  38
ATOM     38  C   UNL     1      98.236  79.384  81.605  1.00  0.00     0.310 C 
ATOM     39  O   UNL     1      99.115  79.306  82.453  1.00  0.00    -0.252 OA
BRANCH  38  40
ATOM     40  C   UNL     1      96.757  79.502  81.885  1.00  0.00     0.158 C 
BRANCH  40  41
ATOM     41  C   UNL     1      96.373  80.838  82.469  1.00  0.00    -0.033 A 
ATOM     42  C   UNL     1      95.592  80.896  83.624  1.00  0.00     0.054 A 
ATOM     43  C   UNL     1      96.799  82.015  81.855  1.00  0.00     0.008 A 
ATOM     44  C   UNL     1      95.237  82.132  84.164  1.00  0.00     0.160 A 
ATOM     45  C   UNL     1      96.444  83.252  82.395  1.00  0.00     0.050 A 
ATOM     46  C   UNL     1      95.663  83.310  83.549  1.00  0.00     0.157 A 
BRANCH  44  47
ATOM     47  O   UNL     1      94.474  82.176  85.291  1.00  0.00    -0.493 OA
ATOM     48  C   UNL     1      93.511  81.138  85.463  1.00  0.00     0.278 C 
ENDBRANCH  44  47
BRANCH  46  49
ATOM     49  O   UNL     1      95.324  84.523  84.067  1.00  0.00    -0.504 OA
ATOM     50  H   UNL     1      94.479  84.808  83.679  1.00  0.00     0.293 HD
ENDBRANCH  46  49
ENDBRANCH  40  41
ENDBRANCH  38  40
ENDBRANCH  37  38
ENDBRANCH   1  37
TORSDOF 11
ENDMDL
MODEL 6
REMARK VINA RESULT:    -5.391      9.578     13.395
REMARK INTER + INTRA:         -12.196
REMARK INTER:                 -10.640
REMARK INTRA:                  -1.556
REMARK UNBOUND:                -2.707
REMARK SMILES C=C(C)[C@]12C[C@@H](C)[C@@]34O[C@](Cc5ccccc5)(O[C@@H]1[C@@H]3C=C(COC(=O)Cc1ccc(O)c(OC)c1)C[C@]1(O)C(=O)C(C)=C[C@@H]41)O2
REMARK SMILES IDX 23 1 22 2 21 3 20 4 9 5 8 6 10 7 6 8 18 9 46 10 19 11 5 12
REMARK SMILES IDX 7 13 4 14 45 15 38 16 44 17 40 18 42 20 41 21 43 22 39 23
REMARK SMILES IDX 11 25 12 26 13 27 17 28 14 29 16 30 15 31 2 32 3 33 1 34
REMARK SMILES IDX 37 35 24 37 25 38 26 39 27 40 28 41 36 42 29 43 33 44 30 45
REMARK SMILES IDX 31 46 34 47 35 48 32 49
REMARK H PARENT 39 24 32 50
REMARK Flexibility Score: 90.00
ROOT
ATOM      1  C   UNL     1      93.571  76.854  84.360  1.00  0.00     0.264 C 
ENDROOT
BRANCH   1   2
ATOM      2  C   UNL     1      92.896  77.939  85.166  1.00  0.00    -0.033 C 
ATOM      3  C   UNL     1      93.651  78.800  85.877  1.00  0.00    -0.015 C 
BRANCH   3   4
ATOM      4  C   UNL     1      93.219  79.914  86.815  1.00  0.00     0.078 C 
ATOM      5  O   UNL     1      93.083  81.982  85.465  1.00  0.00    -0.319 OA
ATOM      6  C   UNL     1      92.283  81.047  86.252  1.00  0.00     0.095 C 
ATOM      7  C   UNL     1      94.355  82.341  86.039  1.00  0.00     0.289 C 
ATOM      8  C   UNL     1      91.654  81.810  87.490  1.00  0.00     0.023 C 
ATOM      9  O   UNL     1      95.159  81.188  86.275  1.00  0.00    -0.320 OA
ATOM     10  O   UNL     1      94.215  82.979  87.306  1.00  0.00    -0.313 OA
ATOM     11  C   UNL     1      94.466  80.623  87.399  1.00  0.00     0.170 C 
ATOM     12  C   UNL     1      92.644  81.857  88.695  1.00  0.00     0.049 C 
ATOM     13  C   UNL     1      91.137  83.229  87.199  1.00  0.00     0.011 C 
ATOM     14  C   UNL     1      94.100  81.878  88.231  1.00  0.00     0.122 C 
BRANCH   6  15
ATOM     15  C   UNL     1      91.258  80.463  85.237  1.00  0.00     0.086 C 
ATOM     16  C   UNL     1      90.616  79.113  85.620  1.00  0.00     0.140 CG0
ATOM     17  C   UNL     1      90.085  81.299  84.809  1.00  0.00    -0.010 C 
ATOM     18  C   UNL     1      89.220  79.242  85.048  1.00  0.00     0.190 C 
ATOM     19  G   UNL     1      91.380  77.925  85.038  1.00  0.00     0.000 G0
ATOM     20  C   UNL     1      88.932  80.638  84.667  1.00  0.00    -0.008 C 
ATOM     21  O   UNL     1      88.407  78.335  84.952  1.00  0.00    -0.291 OA
ATOM     22  C   UNL     1      87.616  81.111  84.190  1.00  0.00     0.048 C 
BRANCH  16  23
ATOM     23  O   UNL     1      90.398  78.957  87.012  1.00  0.00    -0.381 OA
ATOM     24  H   UNL     1      89.794  79.657  87.309  1.00  0.00     0.212 HD
ENDBRANCH  16  23
ENDBRANCH   6  15
BRANCH   7  25
ATOM     25  C   UNL     1      95.065  83.273  85.078  1.00  0.00     0.135 C 
BRANCH  25  26
ATOM     26  C   UNL     1      95.634  82.535  83.892  1.00  0.00    -0.040 A 
ATOM     27  C   UNL     1      96.161  83.248  82.815  1.00  0.00     0.004 A 
ATOM     28  C   UNL     1      95.636  81.140  83.873  1.00  0.00     0.004 A 
ATOM     29  C   UNL     1      96.688  82.566  81.718  1.00  0.00     0.000 A 
ATOM     30  C   UNL     1      96.164  80.458  82.776  1.00  0.00     0.000 A 
ATOM     31  C   UNL     1      96.689  81.172  81.698  1.00  0.00     0.000 A 
ENDBRANCH  25  26
ENDBRANCH   7  25
BRANCH  14  32
ATOM     32  C   UNL     1      95.058  82.106  89.354  1.00  0.00    -0.046 C 
ATOM     33  C   UNL     1      94.885  81.230  90.560  1.00  0.00     0.042 C 
ATOM     34  C   UNL     1      96.019  83.040  89.290  1.00  0.00     0.010 C 
ENDBRANCH  14  32
ENDBRANCH   3   4
BRANCH   2  35
ATOM     35  C   UNL     1      91.383  77.911  85.050  1.00  0.00     0.078 CG0
ATOM     36  G   UNL     1      90.616  79.099  85.628  1.00  0.00     0.000 G0
ENDBRANCH   2  35
ENDBRANCH   1   2
BRANCH   1  37
ATOM     37  O   UNL     1      94.891  76.679  84.828  1.00  0.00    -0.461 OA
BRANCH  37  38
ATOM     38  C   UNL     1      95.875  76.620  83.868  1.00  0.00     0.310 C 
ATOM     39  O   UNL     1      95.697  76.790  82.669  1.00  0.00    -0.252 OA
BRANCH  38  40
ATOM     40  C   UNL     1      97.201  76.314  84.522  1.00  0.00     0.158 C 
BRANCH  40  41
ATOM     41  C   UNL     1      98.035  77.546  84.765  1.00  0.00    -0.033 A 
ATOM     42  C   UNL     1      98.098  78.104  86.043  1.00  0.00     0.054 A 
ATOM     43  C   UNL     1      98.743  78.128  83.714  1.00  0.00     0.008 A 
ATOM     44  C   UNL     1      98.869  79.244  86.268  1.00  0.00     0.160 A 
ATOM     45  C   UNL     1      99.515  79.268  83.940  1.00  0.00     0.050 A 
ATOM     46  C   UNL     1      99.578  79.826  85.216  1.00  0.00     0.157 A 
BRANCH  44  47
ATOM     47  O   UNL     1      98.922  79.780  87.519  1.00  0.00    -0.493 OA
ATOM     48  C   UNL     1      97.713  79.783  88.275  1.00  0.00     0.278 C 
ENDBRANCH  44  47
BRANCH  46  49
ATOM     49  O   UNL     1     100.335  80.939  85.425  1.00  0.00    -0.504 OA
ATOM     50  H   UNL     1      99.868  81.712  85.066  1.00  0.00     0.293 HD
ENDBRANCH  46  49
ENDBRANCH  40  41
ENDBRANCH  38  40
ENDBRANCH  37  38
ENDBRANCH   1  37
TORSDOF 11
ENDMDL
MODEL 7
REMARK VINA RESULT:    -5.141     35.165     39.333
REMARK INTER + INTRA:         -11.755
REMARK INTER:                  -9.667
REMARK INTRA:                  -2.088
REMARK UNBOUND:                -2.707
REMARK SMILES C=C(C)[C@]12C[C@@H](C)[C@@]34O[C@](Cc5ccccc5)(O[C@@H]1[C@@H]3C=C(COC(=O)Cc1ccc(O)c(OC)c1)C[C@]1(O)C(=O)C(C)=C[C@@H]41)O2
REMARK SMILES IDX 23 1 22 2 21 3 20 4 9 5 8 6 10 7 6 8 18 9 46 10 19 11 5 12
REMARK SMILES IDX 7 13 4 14 45 15 38 16 44 17 40 18 42 20 41 21 43 22 39 23
REMARK SMILES IDX 11 25 12 26 13 27 17 28 14 29 16 30 15 31 2 32 3 33 1 34
REMARK SMILES IDX 37 35 24 37 25 38 26 39 27 40 28 41 36 42 29 43 33 44 30 45
REMARK SMILES IDX 31 46 34 47 35 48 32 49
REMARK H PARENT 39 24 32 50
REMARK Flexibility Score: 90.00
ROOT
ATOM      1  C   UNL     1      62.424  87.730  76.009  1.00  0.00     0.264 C 
ENDROOT
BRANCH   1   2
ATOM      2  C   UNL     1      61.420  87.644  74.883  1.00  0.00    -0.033 C 
ATOM      3  C   UNL     1      61.803  87.134  73.696  1.00  0.00    -0.015 C 
BRANCH   3   4
ATOM      4  C   UNL     1      61.019  87.011  72.400  1.00  0.00     0.078 C 
ATOM      5  O   UNL     1      59.960  84.775  72.407  1.00  0.00    -0.319 OA
ATOM      6  C   UNL     1      59.666  86.206  72.417  1.00  0.00     0.095 C 
ATOM      7  C   UNL     1      61.010  84.368  71.510  1.00  0.00     0.289 C 
ATOM      8  C   UNL     1      58.866  86.585  71.102  1.00  0.00     0.023 C 
ATOM      9  O   UNL     1      62.228  85.049  71.796  1.00  0.00    -0.320 OA
ATOM     10  O   UNL     1      60.709  84.673  70.150  1.00  0.00    -0.313 OA
ATOM     11  C   UNL     1      61.904  86.361  71.308  1.00  0.00     0.170 C 
ATOM     12  C   UNL     1      59.829  86.870  69.909  1.00  0.00     0.049 C 
ATOM     13  C   UNL     1      57.797  85.571  70.665  1.00  0.00     0.011 C 
ATOM     14  C   UNL     1      61.115  86.049  70.012  1.00  0.00     0.122 C 
BRANCH   6  15
ATOM     15  C   UNL     1      58.903  86.437  73.753  1.00  0.00     0.086 C 
ATOM     16  C   UNL     1      58.877  87.888  74.279  1.00  0.00     0.140 CG0
ATOM     17  C   UNL     1      57.471  85.997  73.870  1.00  0.00    -0.010 C 
ATOM     18  C   UNL     1      57.515  87.972  74.936  1.00  0.00     0.190 C 
ATOM     19  G   UNL     1      60.017  88.167  75.258  1.00  0.00     0.000 G0
ATOM     20  C   UNL     1      56.671  86.824  74.552  1.00  0.00    -0.008 C 
ATOM     21  O   UNL     1      57.128  88.885  75.649  1.00  0.00    -0.291 OA
ATOM     22  C   UNL     1      55.251  86.677  74.930  1.00  0.00     0.048 C 
BRANCH  16  23
ATOM     23  O   UNL     1      58.821  88.868  73.257  1.00  0.00    -0.381 OA
ATOM     24  H   UNL     1      59.695  88.924  72.836  1.00  0.00     0.212 HD
ENDBRANCH  16  23
ENDBRANCH   6  15
BRANCH   7  25
ATOM     25  C   UNL     1      61.211  82.873  71.660  1.00  0.00     0.135 C 
BRANCH  25  26
ATOM     26  C   UNL     1      62.421  82.387  70.902  1.00  0.00    -0.040 A 
ATOM     27  C   UNL     1      63.670  82.360  71.524  1.00  0.00     0.004 A 
ATOM     28  C   UNL     1      62.291  81.962  69.580  1.00  0.00     0.004 A 
ATOM     29  C   UNL     1      64.789  81.910  70.822  1.00  0.00     0.000 A 
ATOM     30  C   UNL     1      63.410  81.512  68.879  1.00  0.00     0.000 A 
ATOM     31  C   UNL     1      64.659  81.486  69.500  1.00  0.00     0.000 A 
ENDBRANCH  25  26
ENDBRANCH   7  25
BRANCH  14  32
ATOM     32  C   UNL     1      61.970  86.167  68.792  1.00  0.00    -0.046 C 
ATOM     33  C   UNL     1      61.921  87.482  68.073  1.00  0.00     0.042 C 
ATOM     34  C   UNL     1      62.739  85.154  68.364  1.00  0.00     0.010 C 
ENDBRANCH  14  32
ENDBRANCH   3   4
BRANCH   2  35
ATOM     35  C   UNL     1      60.048  88.166  75.268  1.00  0.00     0.078 CG0
ATOM     36  G   UNL     1      58.896  87.877  74.307  1.00  0.00     0.000 G0
ENDBRANCH   2  35
ENDBRANCH   1   2
BRANCH   1  37
ATOM     37  O   UNL     1      63.069  86.483  76.155  1.00  0.00    -0.461 OA
BRANCH  37  38
ATOM     38  C   UNL     1      64.443  86.500  76.110  1.00  0.00     0.310 C 
ATOM     39  O   UNL     1      65.161  87.184  76.827  1.00  0.00    -0.252 OA
BRANCH  38  40
ATOM     40  C   UNL     1      64.925  85.548  75.041  1.00  0.00     0.158 C 
BRANCH  40  41
ATOM     41  C   UNL     1      65.390  86.252  73.793  1.00  0.00    -0.033 A 
ATOM     42  C   UNL     1      66.128  85.556  72.834  1.00  0.00     0.054 A 
ATOM     43  C   UNL     1      65.082  87.597  73.594  1.00  0.00     0.008 A 
ATOM     44  C   UNL     1      66.559  86.208  71.678  1.00  0.00     0.160 A 
ATOM     45  C   UNL     1      65.512  88.249  72.438  1.00  0.00     0.050 A 
ATOM     46  C   UNL     1      66.250  87.555  71.480  1.00  0.00     0.157 A 
BRANCH  44  47
ATOM     47  O   UNL     1      67.279  85.519  70.750  1.00  0.00    -0.493 OA
ATOM     48  C   UNL     1      68.573  85.063  71.142  1.00  0.00     0.278 C 
ENDBRANCH  44  47
BRANCH  46  49
ATOM     49  O   UNL     1      66.664  88.201  70.355  1.00  0.00    -0.504 OA
ATOM     50  H   UNL     1      67.313  87.645  69.892  1.00  0.00     0.293 HD
ENDBRANCH  46  49
ENDBRANCH  40  41
ENDBRANCH  38  40
ENDBRANCH  37  38
ENDBRANCH   1  37
TORSDOF 11
ENDMDL
MODEL 8
REMARK VINA RESULT:    -4.905      3.151      5.969
REMARK INTER + INTRA:         -11.340
REMARK INTER:                 -10.751
REMARK INTRA:                  -0.588
REMARK UNBOUND:                -2.707
REMARK SMILES C=C(C)[C@]12C[C@@H](C)[C@@]34O[C@](Cc5ccccc5)(O[C@@H]1[C@@H]3C=C(COC(=O)Cc1ccc(O)c(OC)c1)C[C@]1(O)C(=O)C(C)=C[C@@H]41)O2
REMARK SMILES IDX 23 1 22 2 21 3 20 4 9 5 8 6 10 7 6 8 18 9 46 10 19 11 5 12
REMARK SMILES IDX 7 13 4 14 45 15 38 16 44 17 40 18 42 20 41 21 43 22 39 23
REMARK SMILES IDX 11 25 12 26 13 27 17 28 14 29 16 30 15 31 2 32 3 33 1 34
REMARK SMILES IDX 37 35 24 37 25 38 26 39 27 40 28 41 36 42 29 43 33 44 30 45
REMARK SMILES IDX 31 46 34 47 35 48 32 49
REMARK H PARENT 39 24 32 50
REMARK Flexibility Score: 90.00
ROOT
ATOM      1  C   UNL     1      99.528  77.651  78.592  1.00  0.00     0.264 C 
ENDROOT
BRANCH   1   2
ATOM      2  C   UNL     1     100.139  77.875  77.229  1.00  0.00    -0.033 C 
ATOM      3  C   UNL     1      99.344  78.229  76.200  1.00  0.00    -0.015 C 
BRANCH   3   4
ATOM      4  C   UNL     1      99.695  78.435  74.735  1.00  0.00     0.078 C 
ATOM      5  O   UNL     1     100.237  80.832  74.455  1.00  0.00    -0.319 OA
ATOM      6  C   UNL     1     100.807  79.490  74.374  1.00  0.00     0.095 C 
ATOM      7  C   UNL     1      98.919  80.978  73.894  1.00  0.00     0.289 C 
ATOM      8  C   UNL     1     101.270  79.207  72.885  1.00  0.00     0.023 C 
ATOM      9  O   UNL     1      97.993  80.086  74.509  1.00  0.00    -0.320 OA
ATOM     10  O   UNL     1      98.886  80.668  72.503  1.00  0.00    -0.313 OA
ATOM     11  C   UNL     1      98.428  78.841  73.942  1.00  0.00     0.170 C 
ATOM     12  C   UNL     1     100.092  78.676  72.011  1.00  0.00     0.049 C 
ATOM     13  C   UNL     1     101.945  80.388  72.169  1.00  0.00     0.011 C 
ATOM     14  C   UNL     1      98.746  79.232  72.478  1.00  0.00     0.122 C 
BRANCH   6  15
ATOM     15  C   UNL     1     101.941  79.483  75.439  1.00  0.00     0.086 C 
ATOM     16  C   UNL     1     102.395  78.097  75.941  1.00  0.00     0.140 CG0
ATOM     17  C   UNL     1     103.235  80.188  75.142  1.00  0.00    -0.010 C 
ATOM     18  C   UNL     1     103.875  78.306  76.183  1.00  0.00     0.190 C 
ATOM     19  G   UNL     1     101.650  77.668  77.204  1.00  0.00     0.000 G0
ATOM     20  C   UNL     1     104.338  79.566  75.571  1.00  0.00    -0.008 C 
ATOM     21  O   UNL     1     104.615  77.524  76.760  1.00  0.00    -0.291 OA
ATOM     22  C   UNL     1     105.750  79.996  75.529  1.00  0.00     0.048 C 
BRANCH  16  23
ATOM     23  O   UNL     1     102.354  77.085  74.948  1.00  0.00    -0.381 OA
ATOM     24  H   UNL     1     101.881  76.318  75.310  1.00  0.00     0.212 HD
ENDBRANCH  16  23
ENDBRANCH   6  15
BRANCH   7  25
ATOM     25  C   UNL     1      98.468  82.409  74.103  1.00  0.00     0.135 C 
BRANCH  25  26
ATOM     26  C   UNL     1      97.594  82.553  75.324  1.00  0.00    -0.040 A 
ATOM     27  C   UNL     1      96.368  83.214  75.231  1.00  0.00     0.004 A 
ATOM     28  C   UNL     1      98.009  82.026  76.546  1.00  0.00     0.004 A 
ATOM     29  C   UNL     1      95.560  83.347  76.360  1.00  0.00     0.000 A 
ATOM     30  C   UNL     1      97.201  82.159  77.676  1.00  0.00     0.000 A 
ATOM     31  C   UNL     1      95.976  82.820  77.581  1.00  0.00     0.000 A 
ENDBRANCH  25  26
ENDBRANCH   7  25
BRANCH  14  32
ATOM     32  C   UNL     1      97.628  78.885  71.549  1.00  0.00    -0.046 C 
ATOM     33  C   UNL     1      96.729  77.767  71.984  1.00  0.00     0.042 C 
ATOM     34  C   UNL     1      97.439  79.537  70.391  1.00  0.00     0.010 C 
ENDBRANCH  14  32
ENDBRANCH   3   4
BRANCH   2  35
ATOM     35  C   UNL     1     101.642  77.668  77.210  1.00  0.00     0.078 CG0
ATOM     36  G   UNL     1     102.387  78.074  75.939  1.00  0.00     0.000 G0
ENDBRANCH   2  35
ENDBRANCH   1   2
BRANCH   1  37
ATOM     37  O   UNL     1      99.459  78.881  79.281  1.00  0.00    -0.461 OA
BRANCH  37  38
ATOM     38  C   UNL     1      98.198  79.334  79.592  1.00  0.00     0.310 C 
ATOM     39  O   UNL     1      97.154  78.844  79.183  1.00  0.00    -0.252 OA
BRANCH  38  40
ATOM     40  C   UNL     1      98.303  80.527  80.513  1.00  0.00     0.158 C 
BRANCH  40  41
ATOM     41  C   UNL     1      97.748  80.260  81.888  1.00  0.00    -0.033 A 
ATOM     42  C   UNL     1      98.522  80.531  83.017  1.00  0.00     0.054 A 
ATOM     43  C   UNL     1      96.462  79.741  82.032  1.00  0.00     0.008 A 
ATOM     44  C   UNL     1      98.008  80.284  84.290  1.00  0.00     0.160 A 
ATOM     45  C   UNL     1      95.948  79.493  83.305  1.00  0.00     0.050 A 
ATOM     46  C   UNL     1      96.721  79.764  84.434  1.00  0.00     0.157 A 
BRANCH  44  47
ATOM     47  O   UNL     1      98.773  80.553  85.385  1.00  0.00    -0.493 OA
ATOM     48  C   UNL     1      99.447  79.451  85.991  1.00  0.00     0.278 C 
ENDBRANCH  44  47
BRANCH  46  49
ATOM     49  O   UNL     1      96.208  79.520  85.672  1.00  0.00    -0.504 OA
ATOM     50  H   UNL     1      96.263  78.566  85.855  1.00  0.00     0.293 HD
ENDBRANCH  46  49
ENDBRANCH  40  41
ENDBRANCH  38  40
ENDBRANCH  37  38
ENDBRANCH   1  37
TORSDOF 11
ENDMDL
MODEL 9
REMARK VINA RESULT:    -4.690      2.543      5.228
REMARK INTER + INTRA:         -10.961
REMARK INTER:                  -9.760
REMARK INTRA:                  -1.201
REMARK UNBOUND:                -2.707
REMARK SMILES C=C(C)[C@]12C[C@@H](C)[C@@]34O[C@](Cc5ccccc5)(O[C@@H]1[C@@H]3C=C(COC(=O)Cc1ccc(O)c(OC)c1)C[C@]1(O)C(=O)C(C)=C[C@@H]41)O2
REMARK SMILES IDX 23 1 22 2 21 3 20 4 9 5 8 6 10 7 6 8 18 9 46 10 19 11 5 12
REMARK SMILES IDX 7 13 4 14 45 15 38 16 44 17 40 18 42 20 41 21 43 22 39 23
REMARK SMILES IDX 11 25 12 26 13 27 17 28 14 29 16 30 15 31 2 32 3 33 1 34
REMARK SMILES IDX 37 35 24 37 25 38 26 39 27 40 28 41 36 42 29 43 33 44 30 45
REMARK SMILES IDX 31 46 34 47 35 48 32 49
REMARK H PARENT 39 24 32 50
REMARK Flexibility Score: 90.00
ROOT
ATOM      1  C   UNL     1     100.426  77.086  77.816  1.00  0.00     0.264 C 
ENDROOT
BRANCH   1   2
ATOM      2  C   UNL     1     100.857  77.591  76.459  1.00  0.00    -0.033 C 
ATOM      3  C   UNL     1      99.924  78.043  75.596  1.00  0.00    -0.015 C 
BRANCH   3   4
ATOM      4  C   UNL     1     100.088  78.524  74.164  1.00  0.00     0.078 C 
ATOM      5  O   UNL     1     100.427  80.973  74.261  1.00  0.00    -0.319 OA
ATOM      6  C   UNL     1     101.074  79.719  73.883  1.00  0.00     0.095 C 
ATOM      7  C   UNL     1      99.046  81.095  73.873  1.00  0.00     0.289 C 
ATOM      8  C   UNL     1     101.378  79.734  72.328  1.00  0.00     0.023 C 
ATOM      9  O   UNL     1      98.261  80.034  74.412  1.00  0.00    -0.320 OA
ATOM     10  O   UNL     1      98.872  81.023  72.460  1.00  0.00    -0.313 OA
ATOM     11  C   UNL     1      98.712  78.946  73.591  1.00  0.00     0.170 C 
ATOM     12  C   UNL     1     100.145  79.258  71.500  1.00  0.00     0.049 C 
ATOM     13  C   UNL     1     101.883  81.074  71.768  1.00  0.00     0.011 C 
ATOM     14  C   UNL     1      98.828  79.606  72.194  1.00  0.00     0.122 C 
BRANCH   6  15
ATOM     15  C   UNL     1     102.323  79.631  74.808  1.00  0.00     0.086 C 
ATOM     16  C   UNL     1     102.928  78.226  75.003  1.00  0.00     0.140 CG0
ATOM     17  C   UNL     1     103.521  80.489  74.510  1.00  0.00    -0.010 C 
ATOM     18  C   UNL     1     104.408  78.521  75.125  1.00  0.00     0.190 C 
ATOM     19  G   UNL     1     102.368  77.523  76.238  1.00  0.00     0.000 G0
ATOM     20  C   UNL     1     104.707  79.903  74.705  1.00  0.00    -0.008 C 
ATOM     21  O   UNL     1     105.263  77.722  75.473  1.00  0.00    -0.291 OA
ATOM     22  C   UNL     1     106.072  80.459  74.596  1.00  0.00     0.048 C 
BRANCH  16  23
ATOM     23  O   UNL     1     102.842  77.399  73.853  1.00  0.00    -0.381 OA
ATOM     24  H   UNL     1     103.721  77.351  73.443  1.00  0.00     0.212 HD
ENDBRANCH  16  23
ENDBRANCH   6  15
BRANCH   7  25
ATOM     25  C   UNL     1      98.526  82.425  74.380  1.00  0.00     0.135 C 
BRANCH  25  26
ATOM     26  C   UNL     1      97.873  82.298  75.734  1.00  0.00    -0.040 A 
ATOM     27  C   UNL     1      98.565  81.703  76.789  1.00  0.00     0.004 A 
ATOM     28  C   UNL     1      96.578  82.775  75.932  1.00  0.00     0.004 A 
ATOM     29  C   UNL     1      97.962  81.585  78.041  1.00  0.00     0.000 A 
ATOM     30  C   UNL     1      95.974  82.658  77.184  1.00  0.00     0.000 A 
ATOM     31  C   UNL     1      96.667  82.062  78.239  1.00  0.00     0.000 A 
ENDBRANCH  25  26
ENDBRANCH   7  25
BRANCH  14  32
ATOM     32  C   UNL     1      97.636  79.325  71.339  1.00  0.00    -0.046 C 
ATOM     33  C   UNL     1      96.323  79.850  71.839  1.00  0.00     0.042 C 
ATOM     34  C   UNL     1      97.734  78.641  70.189  1.00  0.00     0.010 C 
ENDBRANCH  14  32
ENDBRANCH   3   4
BRANCH   2  35
ATOM     35  C   UNL     1     102.358  77.523  76.248  1.00  0.00     0.078 CG0
ATOM     36  G   UNL     1     102.921  78.212  75.006  1.00  0.00     0.000 G0
ENDBRANCH   2  35
ENDBRANCH   1   2
BRANCH   1  37
ATOM     37  O   UNL     1      99.732  78.110  78.496  1.00  0.00    -0.461 OA
BRANCH  37  38
ATOM     38  C   UNL     1     100.488  78.922  79.309  1.00  0.00     0.310 C 
ATOM     39  O   UNL     1     101.095  79.917  78.938  1.00  0.00    -0.252 OA
BRANCH  38  40
ATOM     40  C   UNL     1     100.452  78.394  80.723  1.00  0.00     0.158 C 
BRANCH  40  41
ATOM     41  C   UNL     1      99.144  78.668  81.420  1.00  0.00    -0.033 A 
ATOM     42  C   UNL     1      98.143  77.695  81.432  1.00  0.00     0.054 A 
ATOM     43  C   UNL     1      98.933  79.892  82.053  1.00  0.00     0.008 A 
ATOM     44  C   UNL     1      96.932  77.949  82.076  1.00  0.00     0.160 A 
ATOM     45  C   UNL     1      97.723  80.146  82.698  1.00  0.00     0.050 A 
ATOM     46  C   UNL     1      96.722  79.175  82.709  1.00  0.00     0.157 A 
BRANCH  44  47
ATOM     47  O   UNL     1      95.963  76.992  82.081  1.00  0.00    -0.493 OA
ATOM     48  C   UNL     1      96.359  75.669  82.440  1.00  0.00     0.278 C 
ENDBRANCH  44  47
BRANCH  46  49
ATOM     49  O   UNL     1      95.544  79.433  83.343  1.00  0.00    -0.504 OA
ATOM     50  H   UNL     1      95.622  79.170  84.275  1.00  0.00     0.293 HD
ENDBRANCH  46  49
ENDBRANCH  40  41
ENDBRANCH  38  40
ENDBRANCH  37  38
ENDBRANCH   1  37
TORSDOF 11
ENDMDL
MODEL 10
REMARK VINA RESULT:    -4.680     36.601     40.635
REMARK INTER + INTRA:         -10.944
REMARK INTER:                 -10.229
REMARK INTRA:                  -0.715
REMARK UNBOUND:                -2.707
REMARK SMILES C=C(C)[C@]12C[C@@H](C)[C@@]34O[C@](Cc5ccccc5)(O[C@@H]1[C@@H]3C=C(COC(=O)Cc1ccc(O)c(OC)c1)C[C@]1(O)C(=O)C(C)=C[C@@H]41)O2
REMARK SMILES IDX 23 1 22 2 21 3 20 4 9 5 8 6 10 7 6 8 18 9 46 10 19 11 5 12
REMARK SMILES IDX 7 13 4 14 45 15 38 16 44 17 40 18 42 20 41 21 43 22 39 23
REMARK SMILES IDX 11 25 12 26 13 27 17 28 14 29 16 30 15 31 2 32 3 33 1 34
REMARK SMILES IDX 37 35 24 37 25 38 26 39 27 40 28 41 36 42 29 43 33 44 30 45
REMARK SMILES IDX 31 46 34 47 35 48 32 49
REMARK H PARENT 39 24 32 50
REMARK Flexibility Score: 90.00
ROOT
ATOM      1  C   UNL     1      63.287  86.432  74.536  1.00  0.00     0.264 C 
ENDROOT
BRANCH   1   2
ATOM      2  C   UNL     1      62.103  85.820  73.823  1.00  0.00    -0.033 C 
ATOM      3  C   UNL     1      60.872  86.327  74.035  1.00  0.00    -0.015 C 
BRANCH   3   4
ATOM      4  C   UNL     1      59.528  85.850  73.508  1.00  0.00     0.078 C 
ATOM      5  O   UNL     1      59.101  87.081  71.405  1.00  0.00    -0.319 OA
ATOM      6  C   UNL     1      59.330  85.745  71.950  1.00  0.00     0.095 C 
ATOM      7  C   UNL     1      58.214  87.916  72.173  1.00  0.00     0.289 C 
ATOM      8  C   UNL     1      58.051  84.847  71.689  1.00  0.00     0.023 C 
ATOM      9  O   UNL     1      58.682  88.077  73.509  1.00  0.00    -0.320 OA
ATOM     10  O   UNL     1      56.908  87.356  72.287  1.00  0.00    -0.313 OA
ATOM     11  C   UNL     1      58.400  86.771  74.034  1.00  0.00     0.170 C 
ATOM     12  C   UNL     1      56.982  85.036  72.809  1.00  0.00     0.049 C 
ATOM     13  C   UNL     1      57.388  85.027  70.313  1.00  0.00     0.011 C 
ATOM     14  C   UNL     1      57.025  86.445  73.400  1.00  0.00     0.122 C 
BRANCH   6  15
ATOM     15  C   UNL     1      60.638  85.262  71.259  1.00  0.00     0.086 C 
ATOM     16  C   UNL     1      61.402  84.124  71.967  1.00  0.00     0.140 CG0
ATOM     17  C   UNL     1      60.591  84.812  69.825  1.00  0.00    -0.010 C 
ATOM     18  C   UNL     1      61.979  83.345  70.804  1.00  0.00     0.190 C 
ATOM     19  G   UNL     1      62.481  84.653  72.911  1.00  0.00     0.000 G0
ATOM     20  C   UNL     1      61.355  83.754  69.532  1.00  0.00    -0.008 C 
ATOM     21  O   UNL     1      62.814  82.457  70.891  1.00  0.00    -0.291 OA
ATOM     22  C   UNL     1      61.616  83.100  68.233  1.00  0.00     0.048 C 
BRANCH  16  23
ATOM     23  O   UNL     1      60.560  83.186  72.618  1.00  0.00    -0.381 OA
ATOM     24  H   UNL     1      60.455  82.414  72.038  1.00  0.00     0.212 HD
ENDBRANCH  16  23
ENDBRANCH   6  15
BRANCH   7  25
ATOM     25  C   UNL     1      58.127  89.268  71.494  1.00  0.00     0.135 C 
BRANCH  25  26
ATOM     26  C   UNL     1      56.778  89.496  70.859  1.00  0.00    -0.040 A 
ATOM     27  C   UNL     1      55.936  90.495  71.350  1.00  0.00     0.004 A 
ATOM     28  C   UNL     1      56.371  88.710  69.781  1.00  0.00     0.004 A 
ATOM     29  C   UNL     1      54.688  90.707  70.764  1.00  0.00     0.000 A 
ATOM     30  C   UNL     1      55.123  88.922  69.195  1.00  0.00     0.000 A 
ATOM     31  C   UNL     1      54.282  89.920  69.687  1.00  0.00     0.000 A 
ENDBRANCH  25  26
ENDBRANCH   7  25
BRANCH  14  32
ATOM     32  C   UNL     1      55.896  86.707  74.342  1.00  0.00    -0.046 C 
ATOM     33  C   UNL     1      55.919  88.028  75.053  1.00  0.00     0.042 C 
ATOM     34  C   UNL     1      54.916  85.813  74.542  1.00  0.00     0.010 C 
ENDBRANCH  14  32
ENDBRANCH   3   4
BRANCH   2  35
ATOM     35  C   UNL     1      62.487  84.666  72.917  1.00  0.00     0.078 CG0
ATOM     36  G   UNL     1      61.405  84.119  71.986  1.00  0.00     0.000 G0
ENDBRANCH   2  35
ENDBRANCH   1   2
BRANCH   1  37
ATOM     37  O   UNL     1      64.263  86.803  73.587  1.00  0.00    -0.461 OA
BRANCH  37  38
ATOM     38  C   UNL     1      64.497  88.151  73.449  1.00  0.00     0.310 C 
ATOM     39  O   UNL     1      65.180  88.660  72.571  1.00  0.00    -0.252 OA
BRANCH  38  40
ATOM     40  C   UNL     1      63.781  88.902  74.547  1.00  0.00     0.158 C 
BRANCH  40  41
ATOM     41  C   UNL     1      64.721  89.481  75.573  1.00  0.00    -0.033 A 
ATOM     42  C   UNL     1      64.406  90.683  76.208  1.00  0.00     0.054 A 
ATOM     43  C   UNL     1      65.905  88.815  75.889  1.00  0.00     0.008 A 
ATOM     44  C   UNL     1      65.276  91.218  77.158  1.00  0.00     0.160 A 
ATOM     45  C   UNL     1      66.775  89.350  76.839  1.00  0.00     0.050 A 
ATOM     46  C   UNL     1      66.461  90.552  77.473  1.00  0.00     0.157 A 
BRANCH  44  47
ATOM     47  O   UNL     1      64.959  92.393  77.771  1.00  0.00    -0.493 OA
ATOM     48  C   UNL     1      63.741  92.427  78.514  1.00  0.00     0.278 C 
ENDBRANCH  44  47
BRANCH  46  49
ATOM     49  O   UNL     1      67.318  91.064  78.399  1.00  0.00    -0.504 OA
ATOM     50  H   UNL     1      67.326  92.033  78.321  1.00  0.00     0.293 HD
ENDBRANCH  46  49
ENDBRANCH  40  41
ENDBRANCH  38  40
ENDBRANCH  37  38
ENDBRANCH   1  37
TORSDOF 11
ENDMDL
