MODEL 1
REMARK VINA RESULT:    -6.547      0.000      0.000
REMARK INTER + INTRA:         -12.222
REMARK INTER:                 -11.522
REMARK INTRA:                  -0.700
REMARK UNBOUND:                -0.700
REMARK SMILES C=C(C)[C@]12C[C@@H](C)[C@@]34O[C@](Cc5ccccc5)(O[C@@H]1[C@@H]3C=C(COC(=O)Cc1ccc(O)c(OC)c1)C[C@]1(O)C(=O)C(C)=C[C@@H]41)O2
REMARK SMILES IDX 23 1 22 2 21 3 20 4 9 5 8 6 10 7 6 8 18 9 46 10 19 11 5 12
REMARK SMILES IDX 7 13 4 14 45 15 38 16 44 17 40 18 42 20 41 21 43 22 39 23
REMARK SMILES IDX 11 25 12 26 13 27 17 28 14 29 16 30 15 31 2 32 3 33 1 34
REMARK SMILES IDX 37 35 24 37 25 38 26 39 27 40 28 41 36 42 29 43 33 44 30 45
REMARK SMILES IDX 31 46 34 47 35 48 32 49
REMARK H PARENT 39 24 32 50
REMARK Flexibility Score: 90.00
ROOT
ATOM      1  C   UNL     1      63.124  86.171  75.079  1.00  0.00     0.264 C 
ENDROOT
BRANCH   1   2
ATOM      2  C   UNL     1      61.986  85.609  74.260  1.00  0.00    -0.033 C 
ATOM      3  C   UNL     1      60.751  86.132  74.400  1.00  0.00    -0.015 C 
BRANCH   3   4
ATOM      4  C   UNL     1      59.442  85.701  73.759  1.00  0.00     0.078 C 
ATOM      5  O   UNL     1      59.173  87.044  71.699  1.00  0.00    -0.319 OA
ATOM      6  C   UNL     1      59.350  85.679  72.188  1.00  0.00     0.095 C 
ATOM      7  C   UNL     1      58.243  87.851  72.447  1.00  0.00     0.289 C 
ATOM      8  C   UNL     1      58.082  84.813  71.794  1.00  0.00     0.023 C 
ATOM      9  O   UNL     1      58.620  87.937  73.819  1.00  0.00    -0.320 OA
ATOM     10  O   UNL     1      56.927  87.304  72.444  1.00  0.00    -0.313 OA
ATOM     11  C   UNL     1      58.290  86.609  74.255  1.00  0.00     0.170 C 
ATOM     12  C   UNL     1      56.941  84.959  72.847  1.00  0.00     0.049 C 
ATOM     13  C   UNL     1      57.517  85.073  70.388  1.00  0.00     0.011 C 
ATOM     14  C   UNL     1      56.958  86.336  73.512  1.00  0.00     0.122 C 
BRANCH   6  15
ATOM     15  C   UNL     1      60.697  85.214  71.562  1.00  0.00     0.086 C 
ATOM     16  C   UNL     1      61.397  84.028  72.258  1.00  0.00     0.140 CG0
ATOM     17  C   UNL     1      60.744  84.843  70.107  1.00  0.00    -0.010 C 
ATOM     18  C   UNL     1      62.045  83.305  71.097  1.00  0.00     0.190 C 
ATOM     19  G   UNL     1      62.413  84.489  73.301  1.00  0.00     0.000 G0
ATOM     20  C   UNL     1      61.515  83.791  69.809  1.00  0.00    -0.008 C 
ATOM     21  O   UNL     1      62.861  82.401  71.192  1.00  0.00    -0.291 OA
ATOM     22  C   UNL     1      61.858  83.204  68.497  1.00  0.00     0.048 C 
BRANCH  16  23
ATOM     23  O   UNL     1      60.501  83.070  72.797  1.00  0.00    -0.381 OA
ATOM     24  H   UNL     1      59.832  83.537  73.325  1.00  0.00     0.212 HD
ENDBRANCH  16  23
ENDBRANCH   6  15
BRANCH   7  25
ATOM     25  C   UNL     1      58.217  89.237  71.836  1.00  0.00     0.135 C 
BRANCH  25  26
ATOM     26  C   UNL     1      56.898  89.534  71.166  1.00  0.00    -0.040 A 
ATOM     27  C   UNL     1      56.025  90.466  71.728  1.00  0.00     0.004 A 
ATOM     28  C   UNL     1      56.552  88.879  69.985  1.00  0.00     0.004 A 
ATOM     29  C   UNL     1      54.805  90.742  71.109  1.00  0.00     0.000 A 
ATOM     30  C   UNL     1      55.332  89.155  69.365  1.00  0.00     0.000 A 
ATOM     31  C   UNL     1      54.459  90.086  69.929  1.00  0.00     0.000 A 
ENDBRANCH  25  26
ENDBRANCH   7  25
BRANCH  14  32
ATOM     32  C   UNL     1      55.770  86.564  74.389  1.00  0.00    -0.046 C 
ATOM     33  C   UNL     1      54.799  85.426  74.499  1.00  0.00     0.042 C 
ATOM     34  C   UNL     1      55.581  87.722  75.040  1.00  0.00     0.010 C 
ENDBRANCH  14  32
ENDBRANCH   3   4
BRANCH   2  35
ATOM     35  C   UNL     1      62.415  84.481  73.340  1.00  0.00     0.078 CG0
ATOM     36  G   UNL     1      61.419  84.034  72.271  1.00  0.00     0.000 G0
ENDBRANCH   2  35
ENDBRANCH   1   2
BRANCH   1  37
ATOM     37  O   UNL     1      64.309  85.468  74.776  1.00  0.00    -0.461 OA
BRANCH  37  38
ATOM     38  C   UNL     1      65.291  86.180  74.128  1.00  0.00     0.310 C 
ATOM     39  O   UNL     1      65.175  86.689  73.021  1.00  0.00    -0.252 OA
BRANCH  38  40
ATOM     40  C   UNL     1      66.529  86.235  74.992  1.00  0.00     0.158 C 
BRANCH  40  41
ATOM     41  C   UNL     1      66.571  87.452  75.881  1.00  0.00    -0.033 A 
ATOM     42  C   UNL     1      66.621  87.301  77.267  1.00  0.00     0.054 A 
ATOM     43  C   UNL     1      66.562  88.728  75.318  1.00  0.00     0.008 A 
ATOM     44  C   UNL     1      66.661  88.427  78.090  1.00  0.00     0.160 A 
ATOM     45  C   UNL     1      66.602  89.854  76.141  1.00  0.00     0.050 A 
ATOM     46  C   UNL     1      66.651  89.704  77.526  1.00  0.00     0.157 A 
BRANCH  44  47
ATOM     47  O   UNL     1      66.708  88.267  79.442  1.00  0.00    -0.493 OA
ATOM     48  C   UNL     1      65.461  88.165  80.127  1.00  0.00     0.278 C 
ENDBRANCH  44  47
BRANCH  46  49
ATOM     49  O   UNL     1      66.690  90.810  78.320  1.00  0.00    -0.504 OA
ATOM     50  H   UNL     1      66.003  91.433  78.028  1.00  0.00     0.293 HD
ENDBRANCH  46  49
ENDBRANCH  40  41
ENDBRANCH  38  40
ENDBRANCH  37  38
ENDBRANCH   1  37
TORSDOF 11
ENDMDL
MODEL 2
REMARK VINA RESULT:    -6.538     32.170     36.283
REMARK INTER + INTRA:         -12.207
REMARK INTER:                 -11.370
REMARK INTRA:                  -0.837
REMARK UNBOUND:                -0.700
REMARK SMILES C=C(C)[C@]12C[C@@H](C)[C@@]34O[C@](Cc5ccccc5)(O[C@@H]1[C@@H]3C=C(COC(=O)Cc1ccc(O)c(OC)c1)C[C@]1(O)C(=O)C(C)=C[C@@H]41)O2
REMARK SMILES IDX 23 1 22 2 21 3 20 4 9 5 8 6 10 7 6 8 18 9 46 10 19 11 5 12
REMARK SMILES IDX 7 13 4 14 45 15 38 16 44 17 40 18 42 20 41 21 43 22 39 23
REMARK SMILES IDX 11 25 12 26 13 27 17 28 14 29 16 30 15 31 2 32 3 33 1 34
REMARK SMILES IDX 37 35 24 37 25 38 26 39 27 40 28 41 36 42 29 43 33 44 30 45
REMARK SMILES IDX 31 46 34 47 35 48 32 49
REMARK H PARENT 39 24 32 50
REMARK Flexibility Score: 90.00
ROOT
ATOM      1  C   UNL     1      95.908  81.772  86.177  1.00  0.00     0.264 C 
ENDROOT
BRANCH   1   2
ATOM      2  C   UNL     1      94.426  81.899  86.437  1.00  0.00    -0.033 C 
ATOM      3  C   UNL     1      93.592  80.940  85.988  1.00  0.00    -0.015 C 
BRANCH   3   4
ATOM      4  C   UNL     1      92.075  80.872  86.050  1.00  0.00     0.078 C 
ATOM      5  O   UNL     1      91.493  79.650  88.121  1.00  0.00    -0.319 OA
ATOM      6  C   UNL     1      91.380  80.948  87.461  1.00  0.00     0.095 C 
ATOM      7  C   UNL     1      91.253  78.507  87.278  1.00  0.00     0.289 C 
ATOM      8  C   UNL     1      89.849  81.283  87.224  1.00  0.00     0.023 C 
ATOM      9  O   UNL     1      92.137  78.493  86.160  1.00  0.00    -0.320 OA
ATOM     10  O   UNL     1      89.938  78.507  86.729  1.00  0.00    -0.313 OA
ATOM     11  C   UNL     1      91.579  79.565  85.385  1.00  0.00     0.170 C 
ATOM     12  C   UNL     1      89.325  80.651  85.898  1.00  0.00     0.049 C 
ATOM     13  C   UNL     1      88.905  80.908  88.378  1.00  0.00     0.011 C 
ATOM     14  C   UNL     1      90.055  79.349  85.564  1.00  0.00     0.122 C 
BRANCH   6  15
ATOM     15  C   UNL     1      92.141  81.929  88.399  1.00  0.00     0.086 C 
ATOM     16  C   UNL     1      92.608  83.255  87.763  1.00  0.00     0.140 CG0
ATOM     17  C   UNL     1      91.499  82.365  89.686  1.00  0.00    -0.010 C 
ATOM     18  C   UNL     1      92.475  84.232  88.912  1.00  0.00     0.190 C 
ATOM     19  G   UNL     1      94.037  83.168  87.230  1.00  0.00     0.000 G0
ATOM     20  C   UNL     1      91.691  83.647  90.016  1.00  0.00    -0.008 C 
ATOM     21  O   UNL     1      92.907  85.375  88.923  1.00  0.00    -0.291 OA
ATOM     22  C   UNL     1      91.285  84.389  91.227  1.00  0.00     0.048 C 
BRANCH  16  23
ATOM     23  O   UNL     1      91.720  83.764  86.781  1.00  0.00    -0.381 OA
ATOM     24  H   UNL     1      91.029  83.100  86.619  1.00  0.00     0.212 HD
ENDBRANCH  16  23
ENDBRANCH   6  15
BRANCH   7  25
ATOM     25  C   UNL     1      91.455  77.254  88.107  1.00  0.00     0.135 C 
BRANCH  25  26
ATOM     26  C   UNL     1      92.905  77.039  88.462  1.00  0.00    -0.040 A 
ATOM     27  C   UNL     1      93.487  75.783  88.288  1.00  0.00     0.004 A 
ATOM     28  C   UNL     1      93.665  78.096  88.962  1.00  0.00     0.004 A 
ATOM     29  C   UNL     1      94.829  75.584  88.617  1.00  0.00     0.000 A 
ATOM     30  C   UNL     1      95.007  77.897  89.290  1.00  0.00     0.000 A 
ATOM     31  C   UNL     1      95.588  76.641  89.117  1.00  0.00     0.000 A 
ENDBRANCH  25  26
ENDBRANCH   7  25
BRANCH  14  32
ATOM     32  C   UNL     1      89.449  78.633  84.402  1.00  0.00    -0.046 C 
ATOM     33  C   UNL     1      88.679  77.386  84.721  1.00  0.00     0.042 C 
ATOM     34  C   UNL     1      89.586  79.078  83.144  1.00  0.00     0.010 C 
ENDBRANCH  14  32
ENDBRANCH   3   4
BRANCH   2  35
ATOM     35  C   UNL     1      94.064  83.151  87.215  1.00  0.00     0.078 CG0
ATOM     36  G   UNL     1      92.643  83.241  87.771  1.00  0.00     0.000 G0
ENDBRANCH   2  35
ENDBRANCH   1   2
BRANCH   1  37
ATOM     37  O   UNL     1      96.233  82.451  84.983  1.00  0.00    -0.461 OA
BRANCH  37  38
ATOM     38  C   UNL     1      96.990  81.751  84.073  1.00  0.00     0.310 C 
ATOM     39  O   UNL     1      98.213  81.712  84.057  1.00  0.00    -0.252 OA
BRANCH  38  40
ATOM     40  C   UNL     1      96.079  81.041  83.099  1.00  0.00     0.158 C 
BRANCH  40  41
ATOM     41  C   UNL     1      96.687  80.891  81.728  1.00  0.00    -0.033 A 
ATOM     42  C   UNL     1      97.179  79.652  81.315  1.00  0.00     0.054 A 
ATOM     43  C   UNL     1      96.758  81.989  80.871  1.00  0.00     0.008 A 
ATOM     44  C   UNL     1      97.742  79.512  80.046  1.00  0.00     0.160 A 
ATOM     45  C   UNL     1      97.321  81.850  79.603  1.00  0.00     0.050 A 
ATOM     46  C   UNL     1      97.813  80.612  79.190  1.00  0.00     0.157 A 
BRANCH  44  47
ATOM     47  O   UNL     1      98.219  78.298  79.655  1.00  0.00    -0.493 OA
ATOM     48  C   UNL     1      97.492  77.148  80.081  1.00  0.00     0.278 C 
ENDBRANCH  44  47
BRANCH  46  49
ATOM     49  O   UNL     1      98.359  80.488  77.949  1.00  0.00    -0.504 OA
ATOM     50  H   UNL     1      98.699  79.584  77.842  1.00  0.00     0.293 HD
ENDBRANCH  46  49
ENDBRANCH  40  41
ENDBRANCH  38  40
ENDBRANCH  37  38
ENDBRANCH   1  37
TORSDOF 11
ENDMDL
MODEL 3
REMARK VINA RESULT:    -6.522     33.054     39.302
REMARK INTER + INTRA:         -12.178
REMARK INTER:                 -11.358
REMARK INTRA:                  -0.820
REMARK UNBOUND:                -0.700
REMARK SMILES C=C(C)[C@]12C[C@@H](C)[C@@]34O[C@](Cc5ccccc5)(O[C@@H]1[C@@H]3C=C(COC(=O)Cc1ccc(O)c(OC)c1)C[C@]1(O)C(=O)C(C)=C[C@@H]41)O2
REMARK SMILES IDX 23 1 22 2 21 3 20 4 9 5 8 6 10 7 6 8 18 9 46 10 19 11 5 12
REMARK SMILES IDX 7 13 4 14 45 15 38 16 44 17 40 18 42 20 41 21 43 22 39 23
REMARK SMILES IDX 11 25 12 26 13 27 17 28 14 29 16 30 15 31 2 32 3 33 1 34
REMARK SMILES IDX 37 35 24 37 25 38 26 39 27 40 28 41 36 42 29 43 33 44 30 45
REMARK SMILES IDX 31 46 34 47 35 48 32 49
REMARK H PARENT 39 24 32 50
REMARK Flexibility Score: 90.00
ROOT
ATOM      1  C   UNL     1      95.856  95.589  81.313  1.00  0.00     0.264 C 
ENDROOT
BRANCH   1   2
ATOM      2  C   UNL     1      96.847  96.619  81.802  1.00  0.00    -0.033 C 
ATOM      3  C   UNL     1      96.507  97.923  81.780  1.00  0.00    -0.015 C 
BRANCH   3   4
ATOM      4  C   UNL     1      97.339  99.144  82.139  1.00  0.00     0.078 C 
ATOM      5  O   UNL     1      96.912  99.630  84.527  1.00  0.00    -0.319 OA
ATOM      6  C   UNL     1      97.956  99.231  83.585  1.00  0.00     0.095 C 
ATOM      7  C   UNL     1      96.038 100.680  84.070  1.00  0.00     0.289 C 
ATOM      8  C   UNL     1      99.088 100.339  83.558  1.00  0.00     0.023 C 
ATOM      9  O   UNL     1      95.394 100.322  82.850  1.00  0.00    -0.320 OA
ATOM     10  O   UNL     1      96.742 101.888  83.793  1.00  0.00    -0.313 OA
ATOM     11  C   UNL     1      96.500 100.430  81.940  1.00  0.00     0.170 C 
ATOM     12  C   UNL     1      98.739 101.488  82.563  1.00  0.00     0.049 C 
ATOM     13  C   UNL     1      99.457 100.939  84.924  1.00  0.00     0.011 C 
ATOM     14  C   UNL     1      97.229 101.699  82.449  1.00  0.00     0.122 C 
BRANCH   6  15
ATOM     15  C   UNL     1      98.407  97.826  84.078  1.00  0.00     0.086 C 
ATOM     16  C   UNL     1      99.138  96.944  83.044  1.00  0.00     0.140 CG0
ATOM     17  C   UNL     1      99.272  97.717  85.303  1.00  0.00    -0.010 C 
ATOM     18  C   UNL     1     100.128  96.187  83.903  1.00  0.00     0.190 C 
ATOM     19  G   UNL     1      98.180  96.016  82.297  1.00  0.00     0.000 G0
ATOM     20  C   UNL     1     100.230  96.787  85.246  1.00  0.00    -0.008 C 
ATOM     21  O   UNL     1     100.801  95.235  83.536  1.00  0.00    -0.291 OA
ATOM     22  C   UNL     1     101.196  96.352  86.276  1.00  0.00     0.048 C 
BRANCH  16  23
ATOM     23  O   UNL     1      99.957  97.674  82.146  1.00  0.00    -0.381 OA
ATOM     24  H   UNL     1     100.776  97.172  82.000  1.00  0.00     0.212 HD
ENDBRANCH  16  23
ENDBRANCH   6  15
BRANCH   7  25
ATOM     25  C   UNL     1      94.999 100.934  85.142  1.00  0.00     0.135 C 
BRANCH  25  26
ATOM     26  C   UNL     1      94.636 102.395  85.244  1.00  0.00    -0.040 A 
ATOM     27  C   UNL     1      95.415 103.253  86.021  1.00  0.00     0.004 A 
ATOM     28  C   UNL     1      93.525 102.887  84.561  1.00  0.00     0.004 A 
ATOM     29  C   UNL     1      95.080 104.605  86.115  1.00  0.00     0.000 A 
ATOM     30  C   UNL     1      93.190 104.238  84.655  1.00  0.00     0.000 A 
ATOM     31  C   UNL     1      93.968 105.097  85.432  1.00  0.00     0.000 A 
ENDBRANCH  25  26
ENDBRANCH   7  25
BRANCH  14  32
ATOM     32  C   UNL     1      96.876 102.908  81.646  1.00  0.00    -0.046 C 
ATOM     33  C   UNL     1      96.272 104.053  82.404  1.00  0.00     0.042 C 
ATOM     34  C   UNL     1      97.088 102.968  80.323  1.00  0.00     0.010 C 
ENDBRANCH  14  32
ENDBRANCH   3   4
BRANCH   2  35
ATOM     35  C   UNL     1      98.152  96.010  82.280  1.00  0.00     0.078 CG0
ATOM     36  G   UNL     1      99.107  96.920  83.050  1.00  0.00     0.000 G0
ENDBRANCH   2  35
ENDBRANCH   1   2
BRANCH   1  37
ATOM     37  O   UNL     1      96.485  94.326  81.258  1.00  0.00    -0.461 OA
BRANCH  37  38
ATOM     38  C   UNL     1      95.841  93.358  80.523  1.00  0.00     0.310 C 
ATOM     39  O   UNL     1      95.241  92.402  80.993  1.00  0.00    -0.252 OA
BRANCH  38  40
ATOM     40  C   UNL     1      95.991  93.660  79.050  1.00  0.00     0.158 C 
BRANCH  40  41
ATOM     41  C   UNL     1      94.678  93.963  78.375  1.00  0.00    -0.033 A 
ATOM     42  C   UNL     1      94.594  95.005  77.450  1.00  0.00     0.054 A 
ATOM     43  C   UNL     1      93.548  93.204  78.675  1.00  0.00     0.008 A 
ATOM     44  C   UNL     1      93.379  95.286  76.825  1.00  0.00     0.160 A 
ATOM     45  C   UNL     1      92.333  93.485  78.050  1.00  0.00     0.050 A 
ATOM     46  C   UNL     1      92.248  94.525  77.126  1.00  0.00     0.157 A 
BRANCH  44  47
ATOM     47  O   UNL     1      93.309  96.304  75.924  1.00  0.00    -0.493 OA
ATOM     48  C   UNL     1      93.737  96.023  74.592  1.00  0.00     0.278 C 
ENDBRANCH  44  47
BRANCH  46  49
ATOM     49  O   UNL     1      91.056  94.790  76.521  1.00  0.00    -0.504 OA
ATOM     50  H   UNL     1      91.223  95.095  75.613  1.00  0.00     0.293 HD
ENDBRANCH  46  49
ENDBRANCH  40  41
ENDBRANCH  38  40
ENDBRANCH  37  38
ENDBRANCH   1  37
TORSDOF 11
ENDMDL
MODEL 4
REMARK VINA RESULT:    -6.499      2.382      4.147
REMARK INTER + INTRA:         -12.137
REMARK INTER:                  -9.851
REMARK INTRA:                  -2.287
REMARK UNBOUND:                -0.700
REMARK SMILES C=C(C)[C@]12C[C@@H](C)[C@@]34O[C@](Cc5ccccc5)(O[C@@H]1[C@@H]3C=C(COC(=O)Cc1ccc(O)c(OC)c1)C[C@]1(O)C(=O)C(C)=C[C@@H]41)O2
REMARK SMILES IDX 23 1 22 2 21 3 20 4 9 5 8 6 10 7 6 8 18 9 46 10 19 11 5 12
REMARK SMILES IDX 7 13 4 14 45 15 38 16 44 17 40 18 42 20 41 21 43 22 39 23
REMARK SMILES IDX 11 25 12 26 13 27 17 28 14 29 16 30 15 31 2 32 3 33 1 34
REMARK SMILES IDX 37 35 24 37 25 38 26 39 27 40 28 41 36 42 29 43 33 44 30 45
REMARK SMILES IDX 31 46 34 47 35 48 32 49
REMARK H PARENT 39 24 32 50
REMARK Flexibility Score: 90.00
ROOT
ATOM      1  C   UNL     1      63.353  85.039  75.464  1.00  0.00     0.264 C 
ENDROOT
BRANCH   1   2
ATOM      2  C   UNL     1      62.199  84.799  74.519  1.00  0.00    -0.033 C 
ATOM      3  C   UNL     1      61.124  85.611  74.573  1.00  0.00    -0.015 C 
BRANCH   3   4
ATOM      4  C   UNL     1      59.819  85.536  73.796  1.00  0.00     0.078 C 
ATOM      5  O   UNL     1      60.094  86.954  71.788  1.00  0.00    -0.319 OA
ATOM      6  C   UNL     1      59.880  85.576  72.224  1.00  0.00     0.095 C 
ATOM      7  C   UNL     1      59.322  87.949  72.488  1.00  0.00     0.289 C 
ATOM      8  C   UNL     1      58.484  85.064  71.676  1.00  0.00     0.023 C 
ATOM      9  O   UNL     1      59.571  87.904  73.890  1.00  0.00    -0.320 OA
ATOM     10  O   UNL     1      57.919  87.748  72.339  1.00  0.00    -0.313 OA
ATOM     11  C   UNL     1      58.882  86.691  74.230  1.00  0.00     0.170 C 
ATOM     12  C   UNL     1      57.316  85.464  72.628  1.00  0.00     0.049 C 
ATOM     13  C   UNL     1      58.142  85.492  70.239  1.00  0.00     0.011 C 
ATOM     14  C   UNL     1      57.604  86.777  73.358  1.00  0.00     0.122 C 
BRANCH   6  15
ATOM     15  C   UNL     1      61.127  84.806  71.700  1.00  0.00     0.086 C 
ATOM     16  C   UNL     1      61.438  83.464  72.395  1.00  0.00     0.140 CG0
ATOM     17  C   UNL     1      61.227  84.473  70.238  1.00  0.00    -0.010 C 
ATOM     18  C   UNL     1      62.001  82.632  71.262  1.00  0.00     0.190 C 
ATOM     19  G   UNL     1      62.427  83.627  73.549  1.00  0.00     0.000 G0
ATOM     20  C   UNL     1      61.740  83.271  69.958  1.00  0.00    -0.008 C 
ATOM     21  O   UNL     1      62.555  81.550  71.385  1.00  0.00    -0.291 OA
ATOM     22  C   UNL     1      62.058  82.652  68.655  1.00  0.00     0.048 C 
BRANCH  16  23
ATOM     23  O   UNL     1      60.284  82.746  72.801  1.00  0.00    -0.381 OA
ATOM     24  H   UNL     1      60.563  81.874  73.123  1.00  0.00     0.212 HD
ENDBRANCH  16  23
ENDBRANCH   6  15
BRANCH   7  25
ATOM     25  C   UNL     1      59.698  89.312  71.944  1.00  0.00     0.135 C 
BRANCH  25  26
ATOM     26  C   UNL     1      59.959  89.276  70.459  1.00  0.00    -0.040 A 
ATOM     27  C   UNL     1      61.266  89.161  69.983  1.00  0.00     0.004 A 
ATOM     28  C   UNL     1      58.895  89.356  69.561  1.00  0.00     0.004 A 
ATOM     29  C   UNL     1      61.507  89.128  68.609  1.00  0.00     0.000 A 
ATOM     30  C   UNL     1      59.136  89.323  68.187  1.00  0.00     0.000 A 
ATOM     31  C   UNL     1      60.443  89.209  67.712  1.00  0.00     0.000 A 
ENDBRANCH  25  26
ENDBRANCH   7  25
BRANCH  14  32
ATOM     32  C   UNL     1      56.428  87.273  74.134  1.00  0.00    -0.046 C 
ATOM     33  C   UNL     1      55.434  86.236  74.566  1.00  0.00     0.042 C 
ATOM     34  C   UNL     1      56.269  88.572  74.428  1.00  0.00     0.010 C 
ENDBRANCH  14  32
ENDBRANCH   3   4
BRANCH   2  35
ATOM     35  C   UNL     1      62.426  83.623  73.589  1.00  0.00     0.078 CG0
ATOM     36  G   UNL     1      61.473  83.474  72.404  1.00  0.00     0.000 G0
ENDBRANCH   2  35
ENDBRANCH   1   2
BRANCH   1  37
ATOM     37  O   UNL     1      64.543  85.189  74.719  1.00  0.00    -0.461 OA
BRANCH  37  38
ATOM     38  C   UNL     1      64.891  86.476  74.381  1.00  0.00     0.310 C 
ATOM     39  O   UNL     1      65.388  87.293  75.144  1.00  0.00    -0.252 OA
BRANCH  38  40
ATOM     40  C   UNL     1      64.564  86.722  72.927  1.00  0.00     0.158 C 
BRANCH  40  41
ATOM     41  C   UNL     1      65.398  85.888  71.988  1.00  0.00    -0.033 A 
ATOM     42  C   UNL     1      66.765  86.136  71.862  1.00  0.00     0.054 A 
ATOM     43  C   UNL     1      64.802  84.869  71.246  1.00  0.00     0.008 A 
ATOM     44  C   UNL     1      67.536  85.364  70.993  1.00  0.00     0.160 A 
ATOM     45  C   UNL     1      65.574  84.097  70.376  1.00  0.00     0.050 A 
ATOM     46  C   UNL     1      66.940  84.344  70.250  1.00  0.00     0.157 A 
BRANCH  44  47
ATOM     47  O   UNL     1      68.870  85.616  70.878  1.00  0.00    -0.493 OA
ATOM     48  C   UNL     1      69.262  86.626  69.949  1.00  0.00     0.278 C 
ENDBRANCH  44  47
BRANCH  46  49
ATOM     49  O   UNL     1      67.683  83.584  69.399  1.00  0.00    -0.504 OA
ATOM     50  H   UNL     1      67.226  83.527  68.543  1.00  0.00     0.293 HD
ENDBRANCH  46  49
ENDBRANCH  40  41
ENDBRANCH  38  40
ENDBRANCH  37  38
ENDBRANCH   1  37
TORSDOF 11
ENDMDL
MODEL 5
REMARK VINA RESULT:    -6.436     33.263     39.505
REMARK INTER + INTRA:         -12.027
REMARK INTER:                 -11.561
REMARK INTRA:                  -0.466
REMARK UNBOUND:                -0.700
REMARK SMILES C=C(C)[C@]12C[C@@H](C)[C@@]34O[C@](Cc5ccccc5)(O[C@@H]1[C@@H]3C=C(COC(=O)Cc1ccc(O)c(OC)c1)C[C@]1(O)C(=O)C(C)=C[C@@H]41)O2
REMARK SMILES IDX 23 1 22 2 21 3 20 4 9 5 8 6 10 7 6 8 18 9 46 10 19 11 5 12
REMARK SMILES IDX 7 13 4 14 45 15 38 16 44 17 40 18 42 20 41 21 43 22 39 23
REMARK SMILES IDX 11 25 12 26 13 27 17 28 14 29 16 30 15 31 2 32 3 33 1 34
REMARK SMILES IDX 37 35 24 37 25 38 26 39 27 40 28 41 36 42 29 43 33 44 30 45
REMARK SMILES IDX 31 46 34 47 35 48 32 49
REMARK H PARENT 39 24 32 50
REMARK Flexibility Score: 90.00
ROOT
ATOM      1  C   UNL     1      95.900  95.594  81.149  1.00  0.00     0.264 C 
ENDROOT
BRANCH   1   2
ATOM      2  C   UNL     1      96.837  96.769  81.304  1.00  0.00    -0.033 C 
ATOM      3  C   UNL     1      96.325  97.999  81.507  1.00  0.00    -0.015 C 
BRANCH   3   4
ATOM      4  C   UNL     1      97.039  99.336  81.617  1.00  0.00     0.078 C 
ATOM      5  O   UNL     1      97.502  99.712  84.017  1.00  0.00    -0.319 OA
ATOM      6  C   UNL     1      98.147  99.505  82.723  1.00  0.00     0.095 C 
ATOM      7  C   UNL     1      96.374 100.607  84.008  1.00  0.00     0.289 C 
ATOM      8  C   UNL     1      99.002 100.787  82.353  1.00  0.00     0.023 C 
ATOM      9  O   UNL     1      95.369 100.163  83.100  1.00  0.00    -0.320 OA
ATOM     10  O   UNL     1      96.728 101.920  83.580  1.00  0.00    -0.313 OA
ATOM     11  C   UNL     1      96.007 100.467  81.850  1.00  0.00     0.170 C 
ATOM     12  C   UNL     1      98.129 101.876  81.657  1.00  0.00     0.049 C 
ATOM     13  C   UNL     1      99.777 101.422  83.519  1.00  0.00     0.011 C 
ATOM     14  C   UNL     1      96.679 101.833  82.141  1.00  0.00     0.122 C 
BRANCH   6  15
ATOM     15  C   UNL     1      98.957  98.189  82.898  1.00  0.00     0.086 C 
ATOM     16  C   UNL     1      99.347  97.452  81.600  1.00  0.00     0.140 CG0
ATOM     17  C   UNL     1     100.237  98.211  83.685  1.00  0.00    -0.010 C 
ATOM     18  C   UNL     1     100.694  96.859  81.953  1.00  0.00     0.190 C 
ATOM     19  G   UNL     1      98.323  96.387  81.210  1.00  0.00     0.000 G0
ATOM     20  C   UNL     1     101.224  97.452  83.196  1.00  0.00    -0.008 C 
ATOM     21  O   UNL     1     101.303  96.036  81.286  1.00  0.00    -0.291 OA
ATOM     22  C   UNL     1     102.568  97.171  83.741  1.00  0.00     0.048 C 
BRANCH  16  23
ATOM     23  O   UNL     1      99.633  98.317  80.513  1.00  0.00    -0.381 OA
ATOM     24  H   UNL     1      98.858  98.883  80.359  1.00  0.00     0.212 HD
ENDBRANCH  16  23
ENDBRANCH   6  15
BRANCH   7  25
ATOM     25  C   UNL     1      95.805 100.669  85.411  1.00  0.00     0.135 C 
BRANCH  25  26
ATOM     26  C   UNL     1      96.263  99.509  86.259  1.00  0.00    -0.040 A 
ATOM     27  C   UNL     1      96.856  99.744  87.500  1.00  0.00     0.004 A 
ATOM     28  C   UNL     1      96.093  98.202  85.804  1.00  0.00     0.004 A 
ATOM     29  C   UNL     1      97.280  98.671  88.285  1.00  0.00     0.000 A 
ATOM     30  C   UNL     1      96.516  97.129  86.589  1.00  0.00     0.000 A 
ATOM     31  C   UNL     1      97.110  97.364  87.829  1.00  0.00     0.000 A 
ENDBRANCH  25  26
ENDBRANCH   7  25
BRANCH  14  32
ATOM     32  C   UNL     1      95.868 102.977  81.627  1.00  0.00    -0.046 C 
ATOM     33  C   UNL     1      96.220 104.332  82.165  1.00  0.00     0.042 C 
ATOM     34  C   UNL     1      94.880 102.804  80.736  1.00  0.00     0.010 C 
ENDBRANCH  14  32
ENDBRANCH   3   4
BRANCH   2  35
ATOM     35  C   UNL     1      98.301  96.379  81.213  1.00  0.00     0.078 CG0
ATOM     36  G   UNL     1      99.332  97.439  81.598  1.00  0.00     0.000 G0
ENDBRANCH   2  35
ENDBRANCH   1   2
BRANCH   1  37
ATOM     37  O   UNL     1      96.651  94.400  81.106  1.00  0.00    -0.461 OA
BRANCH  37  38
ATOM     38  C   UNL     1      95.986  93.278  80.669  1.00  0.00     0.310 C 
ATOM     39  O   UNL     1      95.305  92.546  81.374  1.00  0.00    -0.252 OA
BRANCH  38  40
ATOM     40  C   UNL     1      96.227  93.093  79.190  1.00  0.00     0.158 C 
BRANCH  40  41
ATOM     41  C   UNL     1      94.988  93.312  78.360  1.00  0.00    -0.033 A 
ATOM     42  C   UNL     1      95.103  93.717  77.030  1.00  0.00     0.054 A 
ATOM     43  C   UNL     1      93.728  93.110  78.922  1.00  0.00     0.008 A 
ATOM     44  C   UNL     1      93.956  93.920  76.261  1.00  0.00     0.160 A 
ATOM     45  C   UNL     1      92.581  93.312  78.153  1.00  0.00     0.050 A 
ATOM     46  C   UNL     1      92.695  93.718  76.824  1.00  0.00     0.157 A 
BRANCH  44  47
ATOM     47  O   UNL     1      94.080  94.315  74.964  1.00  0.00    -0.493 OA
ATOM     48  C   UNL     1      95.012  95.361  74.691  1.00  0.00     0.278 C 
ENDBRANCH  44  47
BRANCH  46  49
ATOM     49  O   UNL     1      91.568  93.911  76.083  1.00  0.00    -0.504 OA
ATOM     50  H   UNL     1      91.455  94.863  75.922  1.00  0.00     0.293 HD
ENDBRANCH  46  49
ENDBRANCH  40  41
ENDBRANCH  38  40
ENDBRANCH  37  38
ENDBRANCH   1  37
TORSDOF 11
ENDMDL
MODEL 6
REMARK VINA RESULT:    -6.320     33.022     40.514
REMARK INTER + INTRA:         -11.822
REMARK INTER:                 -11.116
REMARK INTRA:                  -0.706
REMARK UNBOUND:                -0.700
REMARK SMILES C=C(C)[C@]12C[C@@H](C)[C@@]34O[C@](Cc5ccccc5)(O[C@@H]1[C@@H]3C=C(COC(=O)Cc1ccc(O)c(OC)c1)C[C@]1(O)C(=O)C(C)=C[C@@H]41)O2
REMARK SMILES IDX 23 1 22 2 21 3 20 4 9 5 8 6 10 7 6 8 18 9 46 10 19 11 5 12
REMARK SMILES IDX 7 13 4 14 45 15 38 16 44 17 40 18 42 20 41 21 43 22 39 23
REMARK SMILES IDX 11 25 12 26 13 27 17 28 14 29 16 30 15 31 2 32 3 33 1 34
REMARK SMILES IDX 37 35 24 37 25 38 26 39 27 40 28 41 36 42 29 43 33 44 30 45
REMARK SMILES IDX 31 46 34 47 35 48 32 49
REMARK H PARENT 39 24 32 50
REMARK Flexibility Score: 90.00
ROOT
ATOM      1  C   UNL     1      96.040  96.040  80.092  1.00  0.00     0.264 C 
ENDROOT
BRANCH   1   2
ATOM      2  C   UNL     1      96.911  97.026  80.834  1.00  0.00    -0.033 C 
ATOM      3  C   UNL     1      97.158  96.831  82.145  1.00  0.00    -0.015 C 
BRANCH   3   4
ATOM      4  C   UNL     1      97.926  97.705  83.123  1.00  0.00     0.078 C 
ATOM      5  O   UNL     1     100.274  96.928  83.092  1.00  0.00    -0.319 OA
ATOM      6  C   UNL     1      99.419  98.072  82.785  1.00  0.00     0.095 C 
ATOM      7  C   UNL     1      99.978  96.251  84.328  1.00  0.00     0.289 C 
ATOM      8  C   UNL     1      99.833  99.295  83.704  1.00  0.00     0.023 C 
ATOM      9  O   UNL     1      98.629  95.792  84.356  1.00  0.00    -0.320 OA
ATOM     10  O   UNL     1     100.118  97.106  85.460  1.00  0.00    -0.313 OA
ATOM     11  C   UNL     1      97.941  97.042  84.522  1.00  0.00     0.170 C 
ATOM     12  C   UNL     1      99.121  99.235  85.090  1.00  0.00     0.049 C 
ATOM     13  C   UNL     1     101.344  99.483  83.913  1.00  0.00     0.011 C 
ATOM     14  C   UNL     1      98.851  97.794  85.525  1.00  0.00     0.122 C 
BRANCH   6  15
ATOM     15  C   UNL     1      99.601  98.293  81.256  1.00  0.00     0.086 C 
ATOM     16  C   UNL     1      98.488  99.093  80.548  1.00  0.00     0.140 CG0
ATOM     17  C   UNL     1     100.865  98.929  80.748  1.00  0.00    -0.010 C 
ATOM     18  C   UNL     1      99.255  99.848  79.483  1.00  0.00     0.190 C 
ATOM     19  G   UNL     1      97.409  98.185  79.959  1.00  0.00     0.000 G0
ATOM     20  C   UNL     1     100.707  99.786  79.734  1.00  0.00    -0.008 C 
ATOM     21  O   UNL     1      98.756 100.474  78.560  1.00  0.00    -0.291 OA
ATOM     22  C   UNL     1     101.717 100.520  78.943  1.00  0.00     0.048 C 
BRANCH  16  23
ATOM     23  O   UNL     1      97.921 100.119  81.347  1.00  0.00    -0.381 OA
ATOM     24  H   UNL     1      98.165 100.977  80.963  1.00  0.00     0.212 HD
ENDBRANCH  16  23
ENDBRANCH   6  15
BRANCH   7  25
ATOM     25  C   UNL     1     100.922  95.074  84.464  1.00  0.00     0.135 C 
BRANCH  25  26
ATOM     26  C   UNL     1     102.260  95.484  85.028  1.00  0.00    -0.040 A 
ATOM     27  C   UNL     1     103.193  96.124  84.212  1.00  0.00     0.004 A 
ATOM     28  C   UNL     1     102.563  95.225  86.364  1.00  0.00     0.004 A 
ATOM     29  C   UNL     1     104.431  96.504  84.733  1.00  0.00     0.000 A 
ATOM     30  C   UNL     1     103.801  95.604  86.885  1.00  0.00     0.000 A 
ATOM     31  C   UNL     1     104.734  96.244  86.069  1.00  0.00     0.000 A 
ENDBRANCH  25  26
ENDBRANCH   7  25
BRANCH  14  32
ATOM     32  C   UNL     1      98.338  97.703  86.925  1.00  0.00    -0.046 C 
ATOM     33  C   UNL     1      99.318  98.033  88.013  1.00  0.00     0.042 C 
ATOM     34  C   UNL     1      97.073  97.347  87.196  1.00  0.00     0.010 C 
ENDBRANCH  14  32
ENDBRANCH   3   4
BRANCH   2  35
ATOM     35  C   UNL     1      97.419  98.153  79.954  1.00  0.00     0.078 CG0
ATOM     36  G   UNL     1      98.483  99.076  80.544  1.00  0.00     0.000 G0
ENDBRANCH   2  35
ENDBRANCH   1   2
BRANCH   1  37
ATOM     37  O   UNL     1      96.561  94.739  80.260  1.00  0.00    -0.461 OA
BRANCH  37  38
ATOM     38  C   UNL     1      95.669  93.703  80.106  1.00  0.00     0.310 C 
ATOM     39  O   UNL     1      95.139  93.091  81.023  1.00  0.00    -0.252 OA
BRANCH  38  40
ATOM     40  C   UNL     1      95.448  93.440  78.635  1.00  0.00     0.158 C 
BRANCH  40  41
ATOM     41  C   UNL     1      94.098  93.901  78.152  1.00  0.00    -0.033 A 
ATOM     42  C   UNL     1      92.995  93.051  78.249  1.00  0.00     0.054 A 
ATOM     43  C   UNL     1      93.949  95.177  77.609  1.00  0.00     0.008 A 
ATOM     44  C   UNL     1      91.744  93.478  77.801  1.00  0.00     0.160 A 
ATOM     45  C   UNL     1      92.698  95.604  77.162  1.00  0.00     0.050 A 
ATOM     46  C   UNL     1      91.596  94.755  77.257  1.00  0.00     0.157 A 
BRANCH  44  47
ATOM     47  O   UNL     1      90.676  92.640  77.900  1.00  0.00    -0.493 OA
ATOM     48  C   UNL     1      90.282  91.949  76.716  1.00  0.00     0.278 C 
ENDBRANCH  44  47
BRANCH  46  49
ATOM     49  O   UNL     1      90.380  95.183  76.819  1.00  0.00    -0.504 OA
ATOM     50  H   UNL     1      90.341  96.151  76.890  1.00  0.00     0.293 HD
ENDBRANCH  46  49
ENDBRANCH  40  41
ENDBRANCH  38  40
ENDBRANCH  37  38
ENDBRANCH   1  37
TORSDOF 11
ENDMDL
MODEL 7
REMARK VINA RESULT:    -6.310     32.291     39.566
REMARK INTER + INTRA:         -11.806
REMARK INTER:                 -10.846
REMARK INTRA:                  -0.959
REMARK UNBOUND:                -0.700
REMARK SMILES C=C(C)[C@]12C[C@@H](C)[C@@]34O[C@](Cc5ccccc5)(O[C@@H]1[C@@H]3C=C(COC(=O)Cc1ccc(O)c(OC)c1)C[C@]1(O)C(=O)C(C)=C[C@@H]41)O2
REMARK SMILES IDX 23 1 22 2 21 3 20 4 9 5 8 6 10 7 6 8 18 9 46 10 19 11 5 12
REMARK SMILES IDX 7 13 4 14 45 15 38 16 44 17 40 18 42 20 41 21 43 22 39 23
REMARK SMILES IDX 11 25 12 26 13 27 17 28 14 29 16 30 15 31 2 32 3 33 1 34
REMARK SMILES IDX 37 35 24 37 25 38 26 39 27 40 28 41 36 42 29 43 33 44 30 45
REMARK SMILES IDX 31 46 34 47 35 48 32 49
REMARK H PARENT 39 24 32 50
REMARK Flexibility Score: 90.00
ROOT
ATOM      1  C   UNL     1      95.983  95.688  80.507  1.00  0.00     0.264 C 
ENDROOT
BRANCH   1   2
ATOM      2  C   UNL     1      97.351  96.288  80.733  1.00  0.00    -0.033 C 
ATOM      3  C   UNL     1      97.746  97.332  79.976  1.00  0.00    -0.015 C 
BRANCH   3   4
ATOM      4  C   UNL     1      99.082  98.055  79.953  1.00  0.00     0.078 C 
ATOM      5  O   UNL     1      98.906  99.945  81.540  1.00  0.00    -0.319 OA
ATOM      6  C   UNL     1      99.613  98.691  81.292  1.00  0.00     0.095 C 
ATOM      7  C   UNL     1      98.721 100.787  80.386  1.00  0.00     0.289 C 
ATOM      8  C   UNL     1     101.157  98.989  81.102  1.00  0.00     0.023 C 
ATOM      9  O   UNL     1      98.019 100.101  79.352  1.00  0.00    -0.320 OA
ATOM     10  O   UNL     1      99.960 101.191  79.808  1.00  0.00    -0.313 OA
ATOM     11  C   UNL     1      99.044  99.198  78.908  1.00  0.00     0.170 C 
ATOM     12  C   UNL     1     101.488  99.376  79.628  1.00  0.00     0.049 C 
ATOM     13  C   UNL     1     101.747 100.044  82.052  1.00  0.00     0.011 C 
ATOM     14  C   UNL     1     100.313 100.085  78.952  1.00  0.00     0.122 C 
BRANCH   6  15
ATOM     15  C   UNL     1      99.250  97.793  82.510  1.00  0.00     0.086 C 
ATOM     16  C   UNL     1      99.437  96.274  82.316  1.00  0.00     0.140 CG0
ATOM     17  C   UNL     1      99.900  98.058  83.840  1.00  0.00    -0.010 C 
ATOM     18  C   UNL     1      99.863  95.818  83.695  1.00  0.00     0.190 C 
ATOM     19  G   UNL     1      98.154  95.591  81.844  1.00  0.00     0.000 G0
ATOM     20  C   UNL     1     100.231  96.969  84.542  1.00  0.00    -0.008 C 
ATOM     21  O   UNL     1      99.948  94.656  84.062  1.00  0.00    -0.291 OA
ATOM     22  C   UNL     1     100.801  96.849  85.899  1.00  0.00     0.048 C 
BRANCH  16  23
ATOM     23  O   UNL     1     100.539  95.933  81.491  1.00  0.00    -0.381 OA
ATOM     24  H   UNL     1     100.226  95.336  80.792  1.00  0.00     0.212 HD
ENDBRANCH  16  23
ENDBRANCH   6  15
BRANCH   7  25
ATOM     25  C   UNL     1      97.938 102.012  80.811  1.00  0.00     0.135 C 
BRANCH  25  26
ATOM     26  C   UNL     1      96.995 101.713  81.950  1.00  0.00    -0.040 A 
ATOM     27  C   UNL     1      95.886 100.892  81.740  1.00  0.00     0.004 A 
ATOM     28  C   UNL     1      97.231 102.255  83.213  1.00  0.00     0.004 A 
ATOM     29  C   UNL     1      95.014 100.614  82.793  1.00  0.00     0.000 A 
ATOM     30  C   UNL     1      96.359 101.978  84.266  1.00  0.00     0.000 A 
ATOM     31  C   UNL     1      95.251 101.157  84.056  1.00  0.00     0.000 A 
ENDBRANCH  25  26
ENDBRANCH   7  25
BRANCH  14  32
ATOM     32  C   UNL     1     100.667 100.626  77.605  1.00  0.00    -0.046 C 
ATOM     33  C   UNL     1     101.646 101.761  77.584  1.00  0.00     0.042 C 
ATOM     34  C   UNL     1     100.138 100.125  76.479  1.00  0.00     0.010 C 
ENDBRANCH  14  32
ENDBRANCH   3   4
BRANCH   2  35
ATOM     35  C   UNL     1      98.126  95.602  81.842  1.00  0.00     0.078 CG0
ATOM     36  G   UNL     1      99.428  96.260  82.294  1.00  0.00     0.000 G0
ENDBRANCH   2  35
ENDBRANCH   1   2
BRANCH   1  37
ATOM     37  O   UNL     1      96.038  94.798  79.413  1.00  0.00    -0.461 OA
BRANCH  37  38
ATOM     38  C   UNL     1      95.220  93.694  79.485  1.00  0.00     0.310 C 
ATOM     39  O   UNL     1      94.893  93.128  80.518  1.00  0.00    -0.252 OA
BRANCH  38  40
ATOM     40  C   UNL     1      94.791  93.293  78.093  1.00  0.00     0.158 C 
BRANCH  40  41
ATOM     41  C   UNL     1      93.412  93.786  77.738  1.00  0.00    -0.033 A 
ATOM     42  C   UNL     1      92.314  92.933  77.857  1.00  0.00     0.054 A 
ATOM     43  C   UNL     1      93.232  95.095  77.291  1.00  0.00     0.008 A 
ATOM     44  C   UNL     1      91.038  93.389  77.528  1.00  0.00     0.160 A 
ATOM     45  C   UNL     1      91.956  95.551  76.962  1.00  0.00     0.050 A 
ATOM     46  C   UNL     1      90.859  94.699  77.080  1.00  0.00     0.157 A 
BRANCH  44  47
ATOM     47  O   UNL     1      89.974  92.547  77.648  1.00  0.00    -0.493 OA
ATOM     48  C   UNL     1      89.852  91.513  76.673  1.00  0.00     0.278 C 
ENDBRANCH  44  47
BRANCH  46  49
ATOM     49  O   UNL     1      89.617  95.155  76.758  1.00  0.00    -0.504 OA
ATOM     50  H   UNL     1      89.702  96.014  76.310  1.00  0.00     0.293 HD
ENDBRANCH  46  49
ENDBRANCH  40  41
ENDBRANCH  38  40
ENDBRANCH  37  38
ENDBRANCH   1  37
TORSDOF 11
ENDMDL
MODEL 8
REMARK VINA RESULT:    -6.201     10.330     14.222
REMARK INTER + INTRA:         -11.614
REMARK INTER:                  -9.604
REMARK INTRA:                  -2.010
REMARK UNBOUND:                -0.700
REMARK SMILES C=C(C)[C@]12C[C@@H](C)[C@@]34O[C@](Cc5ccccc5)(O[C@@H]1[C@@H]3C=C(COC(=O)Cc1ccc(O)c(OC)c1)C[C@]1(O)C(=O)C(C)=C[C@@H]41)O2
REMARK SMILES IDX 23 1 22 2 21 3 20 4 9 5 8 6 10 7 6 8 18 9 46 10 19 11 5 12
REMARK SMILES IDX 7 13 4 14 45 15 38 16 44 17 40 18 42 20 41 21 43 22 39 23
REMARK SMILES IDX 11 25 12 26 13 27 17 28 14 29 16 30 15 31 2 32 3 33 1 34
REMARK SMILES IDX 37 35 24 37 25 38 26 39 27 40 28 41 36 42 29 43 33 44 30 45
REMARK SMILES IDX 31 46 34 47 35 48 32 49
REMARK H PARENT 39 24 32 50
REMARK Flexibility Score: 90.00
ROOT
ATOM      1  C   UNL     1      74.429  85.844  68.869  1.00  0.00     0.264 C 
ENDROOT
BRANCH   1   2
ATOM      2  C   UNL     1      73.411  86.258  67.831  1.00  0.00    -0.033 C 
ATOM      3  C   UNL     1      72.672  85.311  67.218  1.00  0.00    -0.015 C 
BRANCH   3   4
ATOM      4  C   UNL     1      71.652  85.456  66.101  1.00  0.00     0.078 C 
ATOM      5  O   UNL     1      69.443  85.748  67.176  1.00  0.00    -0.319 OA
ATOM      6  C   UNL     1      70.426  86.417  66.327  1.00  0.00     0.095 C 
ATOM      7  C   UNL     1      69.203  84.362  66.866  1.00  0.00     0.289 C 
ATOM      8  C   UNL     1      69.780  86.712  64.911  1.00  0.00     0.023 C 
ATOM      9  O   UNL     1      70.408  83.602  66.930  1.00  0.00    -0.320 OA
ATOM     10  O   UNL     1      68.705  84.182  65.543  1.00  0.00    -0.313 OA
ATOM     11  C   UNL     1      71.064  84.069  65.742  1.00  0.00     0.170 C 
ATOM     12  C   UNL     1      69.908  85.484  63.957  1.00  0.00     0.049 C 
ATOM     13  C   UNL     1      68.318  87.187  64.938  1.00  0.00     0.011 C 
ATOM     14  C   UNL     1      69.896  84.165  64.730  1.00  0.00     0.122 C 
BRANCH   6  15
ATOM     15  C   UNL     1      70.852  87.673  67.142  1.00  0.00     0.086 C 
ATOM     16  C   UNL     1      72.208  88.302  66.762  1.00  0.00     0.140 CG0
ATOM     17  C   UNL     1      69.925  88.854  67.213  1.00  0.00    -0.010 C 
ATOM     18  C   UNL     1      71.959  89.778  66.994  1.00  0.00     0.190 C 
ATOM     19  G   UNL     1      73.355  87.761  67.615  1.00  0.00     0.000 G0
ATOM     20  C   UNL     1      70.519  90.051  67.160  1.00  0.00    -0.008 C 
ATOM     21  O   UNL     1      72.816  90.649  66.996  1.00  0.00    -0.291 OA
ATOM     22  C   UNL     1      69.942  91.406  67.283  1.00  0.00     0.048 C 
BRANCH  16  23
ATOM     23  O   UNL     1      72.510  88.223  65.379  1.00  0.00    -0.381 OA
ATOM     24  H   UNL     1      71.948  87.538  64.981  1.00  0.00     0.212 HD
ENDBRANCH  16  23
ENDBRANCH   6  15
BRANCH   7  25
ATOM     25  C   UNL     1      68.201  83.818  67.863  1.00  0.00     0.135 C 
BRANCH  25  26
ATOM     26  C   UNL     1      67.946  84.785  68.993  1.00  0.00    -0.040 A 
ATOM     27  C   UNL     1      68.469  84.529  70.261  1.00  0.00     0.004 A 
ATOM     28  C   UNL     1      67.188  85.934  68.770  1.00  0.00     0.004 A 
ATOM     29  C   UNL     1      68.234  85.423  71.306  1.00  0.00     0.000 A 
ATOM     30  C   UNL     1      66.952  86.828  69.815  1.00  0.00     0.000 A 
ATOM     31  C   UNL     1      67.475  86.572  71.083  1.00  0.00     0.000 A 
ENDBRANCH  25  26
ENDBRANCH   7  25
BRANCH  14  32
ATOM     32  C   UNL     1      69.834  82.974  63.830  1.00  0.00    -0.046 C 
ATOM     33  C   UNL     1      71.099  82.180  63.694  1.00  0.00     0.042 C 
ATOM     34  C   UNL     1      68.711  82.633  63.180  1.00  0.00     0.010 C 
ENDBRANCH  14  32
ENDBRANCH   3   4
BRANCH   2  35
ATOM     35  C   UNL     1      73.355  87.759  67.618  1.00  0.00     0.078 CG0
ATOM     36  G   UNL     1      72.212  88.301  66.761  1.00  0.00     0.000 G0
ENDBRANCH   2  35
ENDBRANCH   1   2
BRANCH   1  37
ATOM     37  O   UNL     1      75.598  86.620  68.711  1.00  0.00    -0.461 OA
BRANCH  37  38
ATOM     38  C   UNL     1      76.766  85.923  68.507  1.00  0.00     0.310 C 
ATOM     39  O   UNL     1      77.276  85.156  69.312  1.00  0.00    -0.252 OA
BRANCH  38  40
ATOM     40  C   UNL     1      77.319  86.255  67.141  1.00  0.00     0.158 C 
BRANCH  40  41
ATOM     41  C   UNL     1      76.581  85.562  66.025  1.00  0.00    -0.033 A 
ATOM     42  C   UNL     1      76.433  84.174  66.043  1.00  0.00     0.054 A 
ATOM     43  C   UNL     1      76.047  86.306  64.974  1.00  0.00     0.008 A 
ATOM     44  C   UNL     1      75.750  83.533  65.009  1.00  0.00     0.160 A 
ATOM     45  C   UNL     1      75.364  85.665  63.940  1.00  0.00     0.050 A 
ATOM     46  C   UNL     1      75.215  84.278  63.957  1.00  0.00     0.157 A 
BRANCH  44  47
ATOM     47  O   UNL     1      75.612  82.178  65.038  1.00  0.00    -0.493 OA
ATOM     48  C   UNL     1      74.359  81.663  65.487  1.00  0.00     0.278 C 
ENDBRANCH  44  47
BRANCH  46  49
ATOM     49  O   UNL     1      74.546  83.663  62.944  1.00  0.00    -0.504 OA
ATOM     50  H   UNL     1      73.641  84.016  62.902  1.00  0.00     0.293 HD
ENDBRANCH  46  49
ENDBRANCH  40  41
ENDBRANCH  38  40
ENDBRANCH  37  38
ENDBRANCH   1  37
TORSDOF 11
ENDMDL
MODEL 9
REMARK VINA RESULT:    -6.184      3.034      8.997
REMARK INTER + INTRA:         -11.584
REMARK INTER:                 -10.455
REMARK INTRA:                  -1.129
REMARK UNBOUND:                -0.700
REMARK SMILES C=C(C)[C@]12C[C@@H](C)[C@@]34O[C@](Cc5ccccc5)(O[C@@H]1[C@@H]3C=C(COC(=O)Cc1ccc(O)c(OC)c1)C[C@]1(O)C(=O)C(C)=C[C@@H]41)O2
REMARK SMILES IDX 23 1 22 2 21 3 20 4 9 5 8 6 10 7 6 8 18 9 46 10 19 11 5 12
REMARK SMILES IDX 7 13 4 14 45 15 38 16 44 17 40 18 42 20 41 21 43 22 39 23
REMARK SMILES IDX 11 25 12 26 13 27 17 28 14 29 16 30 15 31 2 32 3 33 1 34
REMARK SMILES IDX 37 35 24 37 25 38 26 39 27 40 28 41 36 42 29 43 33 44 30 45
REMARK SMILES IDX 31 46 34 47 35 48 32 49
REMARK H PARENT 39 24 32 50
REMARK Flexibility Score: 90.00
ROOT
ATOM      1  C   UNL     1      57.299  86.558  73.007  1.00  0.00     0.264 C 
ENDROOT
BRANCH   1   2
ATOM      2  C   UNL     1      58.532  86.207  73.806  1.00  0.00    -0.033 C 
ATOM      3  C   UNL     1      59.414  85.321  73.302  1.00  0.00    -0.015 C 
BRANCH   3   4
ATOM      4  C   UNL     1      60.674  84.749  73.931  1.00  0.00     0.078 C 
ATOM      5  O   UNL     1      62.548  86.213  73.248  1.00  0.00    -0.319 OA
ATOM      6  C   UNL     1      61.792  85.749  74.409  1.00  0.00     0.095 C 
ATOM      7  C   UNL     1      62.879  85.197  72.282  1.00  0.00     0.289 C 
ATOM      8  C   UNL     1      62.760  84.957  75.382  1.00  0.00     0.023 C 
ATOM      9  O   UNL     1      61.709  84.547  71.794  1.00  0.00    -0.320 OA
ATOM     10  O   UNL     1      63.689  84.165  72.839  1.00  0.00    -0.313 OA
ATOM     11  C   UNL     1      61.355  83.766  72.947  1.00  0.00     0.170 C 
ATOM     12  C   UNL     1      62.889  83.460  74.965  1.00  0.00     0.049 C 
ATOM     13  C   UNL     1      64.163  85.562  75.554  1.00  0.00     0.011 C 
ATOM     14  C   UNL     1      62.734  83.277  73.455  1.00  0.00     0.122 C 
BRANCH   6  15
ATOM     15  C   UNL     1      61.159  87.041  75.002  1.00  0.00     0.086 C 
ATOM     16  C   UNL     1      59.937  86.840  75.922  1.00  0.00     0.140 CG0
ATOM     17  C   UNL     1      62.024  87.998  75.775  1.00  0.00    -0.010 C 
ATOM     18  C   UNL     1      60.103  87.955  76.933  1.00  0.00     0.190 C 
ATOM     19  G   UNL     1      58.618  86.935  75.157  1.00  0.00     0.000 G0
ATOM     20  C   UNL     1      61.450  88.549  76.850  1.00  0.00    -0.008 C 
ATOM     21  O   UNL     1      59.264  88.298  77.753  1.00  0.00    -0.291 OA
ATOM     22  C   UNL     1      61.962  89.575  77.780  1.00  0.00     0.048 C 
BRANCH  16  23
ATOM     23  O   UNL     1      59.998  85.660  76.706  1.00  0.00    -0.381 OA
ATOM     24  H   UNL     1      60.832  85.203  76.510  1.00  0.00     0.212 HD
ENDBRANCH  16  23
ENDBRANCH   6  15
BRANCH   7  25
ATOM     25  C   UNL     1      63.616  85.855  71.134  1.00  0.00     0.135 C 
BRANCH  25  26
ATOM     26  C   UNL     1      65.108  85.658  71.232  1.00  0.00    -0.040 A 
ATOM     27  C   UNL     1      65.859  86.442  72.110  1.00  0.00     0.004 A 
ATOM     28  C   UNL     1      65.738  84.692  70.448  1.00  0.00     0.004 A 
ATOM     29  C   UNL     1      67.239  86.259  72.201  1.00  0.00     0.000 A 
ATOM     30  C   UNL     1      67.118  84.510  70.540  1.00  0.00     0.000 A 
ATOM     31  C   UNL     1      67.868  85.294  71.417  1.00  0.00     0.000 A 
ENDBRANCH  25  26
ENDBRANCH   7  25
BRANCH  14  32
ATOM     32  C   UNL     1      63.033  81.883  73.011  1.00  0.00    -0.046 C 
ATOM     33  C   UNL     1      63.779  81.745  71.717  1.00  0.00     0.042 C 
ATOM     34  C   UNL     1      62.657  80.813  73.729  1.00  0.00     0.010 C 
ENDBRANCH  14  32
ENDBRANCH   3   4
BRANCH   2  35
ATOM     35  C   UNL     1      58.614  86.945  75.129  1.00  0.00     0.078 CG0
ATOM     36  G   UNL     1      59.921  86.833  75.912  1.00  0.00     0.000 G0
ENDBRANCH   2  35
ENDBRANCH   1   2
BRANCH   1  37
ATOM     37  O   UNL     1      57.447  86.081  71.687  1.00  0.00    -0.461 OA
BRANCH  37  38
ATOM     38  C   UNL     1      57.567  87.036  70.704  1.00  0.00     0.310 C 
ATOM     39  O   UNL     1      58.582  87.256  70.059  1.00  0.00    -0.252 OA
BRANCH  38  40
ATOM     40  C   UNL     1      56.255  87.768  70.549  1.00  0.00     0.158 C 
BRANCH  40  41
ATOM     41  C   UNL     1      56.404  89.105  69.870  1.00  0.00    -0.033 A 
ATOM     42  C   UNL     1      57.191  90.099  70.452  1.00  0.00     0.054 A 
ATOM     43  C   UNL     1      55.756  89.349  68.659  1.00  0.00     0.008 A 
ATOM     44  C   UNL     1      57.330  91.337  69.824  1.00  0.00     0.160 A 
ATOM     45  C   UNL     1      55.894  90.587  68.031  1.00  0.00     0.050 A 
ATOM     46  C   UNL     1      56.680  91.581  68.613  1.00  0.00     0.157 A 
BRANCH  44  47
ATOM     47  O   UNL     1      58.101  92.299  70.402  1.00  0.00    -0.493 OA
ATOM     48  C   UNL     1      58.372  92.162  71.796  1.00  0.00     0.278 C 
ENDBRANCH  44  47
BRANCH  46  49
ATOM     49  O   UNL     1      56.809  92.785  67.989  1.00  0.00    -0.504 OA
ATOM     50  H   UNL     1      56.502  92.700  67.071  1.00  0.00     0.293 HD
ENDBRANCH  46  49
ENDBRANCH  40  41
ENDBRANCH  38  40
ENDBRANCH  37  38
ENDBRANCH   1  37
TORSDOF 11
ENDMDL
MODEL 10
REMARK VINA RESULT:    -5.966      1.684      2.247
REMARK INTER + INTRA:         -11.200
REMARK INTER:                 -10.216
REMARK INTRA:                  -0.983
REMARK UNBOUND:                -0.700
REMARK SMILES C=C(C)[C@]12C[C@@H](C)[C@@]34O[C@](Cc5ccccc5)(O[C@@H]1[C@@H]3C=C(COC(=O)Cc1ccc(O)c(OC)c1)C[C@]1(O)C(=O)C(C)=C[C@@H]41)O2
REMARK SMILES IDX 23 1 22 2 21 3 20 4 9 5 8 6 10 7 6 8 18 9 46 10 19 11 5 12
REMARK SMILES IDX 7 13 4 14 45 15 38 16 44 17 40 18 42 20 41 21 43 22 39 23
REMARK SMILES IDX 11 25 12 26 13 27 17 28 14 29 16 30 15 31 2 32 3 33 1 34
REMARK SMILES IDX 37 35 24 37 25 38 26 39 27 40 28 41 36 42 29 43 33 44 30 45
REMARK SMILES IDX 31 46 34 47 35 48 32 49
REMARK H PARENT 39 24 32 50
REMARK Flexibility Score: 90.00
ROOT
ATOM      1  C   UNL     1      63.820  85.456  75.321  1.00  0.00     0.264 C 
ENDROOT
BRANCH   1   2
ATOM      2  C   UNL     1      62.681  85.087  74.400  1.00  0.00    -0.033 C 
ATOM      3  C   UNL     1      61.637  85.931  74.272  1.00  0.00    -0.015 C 
BRANCH   3   4
ATOM      4  C   UNL     1      60.350  85.760  73.481  1.00  0.00     0.078 C 
ATOM      5  O   UNL     1      60.737  86.756  71.250  1.00  0.00    -0.319 OA
ATOM      6  C   UNL     1      60.452  85.496  71.933  1.00  0.00     0.095 C 
ATOM      7  C   UNL     1      59.993  87.895  71.722  1.00  0.00     0.289 C 
ATOM      8  C   UNL     1      59.048  84.944  71.447  1.00  0.00     0.023 C 
ATOM      9  O   UNL     1      60.205  88.110  73.115  1.00  0.00    -0.320 OA
ATOM     10  O   UNL     1      58.587  87.724  71.569  1.00  0.00    -0.313 OA
ATOM     11  C   UNL     1      59.455  87.012  73.656  1.00  0.00     0.170 C 
ATOM     12  C   UNL     1      57.875  85.564  72.267  1.00  0.00     0.049 C 
ATOM     13  C   UNL     1      58.761  85.101  69.945  1.00  0.00     0.011 C 
ATOM     14  C   UNL     1      58.204  86.979  72.743  1.00  0.00     0.122 C 
BRANCH   6  15
ATOM     15  C   UNL     1      61.675  84.591  71.606  1.00  0.00     0.086 C 
ATOM     16  C   UNL     1      61.913  83.401  72.558  1.00  0.00     0.140 CG0
ATOM     17  C   UNL     1      61.793  83.976  70.240  1.00  0.00    -0.010 C 
ATOM     18  C   UNL     1      62.465  82.343  71.626  1.00  0.00     0.190 C 
ATOM     19  G   UNL     1      62.883  83.749  73.686  1.00  0.00     0.000 G0
ATOM     20  C   UNL     1      62.259  82.723  70.215  1.00  0.00    -0.008 C 
ATOM     21  O   UNL     1      62.969  81.286  71.973  1.00  0.00    -0.291 OA
ATOM     22  C   UNL     1      62.578  81.849  69.067  1.00  0.00     0.048 C 
BRANCH  16  23
ATOM     23  O   UNL     1      60.721  82.821  73.061  1.00  0.00    -0.381 OA
ATOM     24  H   UNL     1      60.071  83.529  73.202  1.00  0.00     0.212 HD
ENDBRANCH  16  23
ENDBRANCH   6  15
BRANCH   7  25
ATOM     25  C   UNL     1      60.443  89.114  70.942  1.00  0.00     0.135 C 
BRANCH  25  26
ATOM     26  C   UNL     1      59.520  89.419  69.789  1.00  0.00    -0.040 A 
ATOM     27  C   UNL     1      58.341  90.133  70.010  1.00  0.00     0.004 A 
ATOM     28  C   UNL     1      59.845  88.990  68.502  1.00  0.00     0.004 A 
ATOM     29  C   UNL     1      57.487  90.416  68.943  1.00  0.00     0.000 A 
ATOM     30  C   UNL     1      58.990  89.273  67.436  1.00  0.00     0.000 A 
ATOM     31  C   UNL     1      57.812  89.986  67.657  1.00  0.00     0.000 A 
ENDBRANCH  25  26
ENDBRANCH   7  25
BRANCH  14  32
ATOM     32  C   UNL     1      57.032  87.660  73.371  1.00  0.00    -0.046 C 
ATOM     33  C   UNL     1      56.386  86.943  74.519  1.00  0.00     0.042 C 
ATOM     34  C   UNL     1      56.583  88.846  72.934  1.00  0.00     0.010 C 
ENDBRANCH  14  32
ENDBRANCH   3   4
BRANCH   2  35
ATOM     35  C   UNL     1      62.884  83.754  73.706  1.00  0.00     0.078 CG0
ATOM     36  G   UNL     1      61.929  83.406  72.565  1.00  0.00     0.000 G0
ENDBRANCH   2  35
ENDBRANCH   1   2
BRANCH   1  37
ATOM     37  O   UNL     1      64.408  86.660  74.877  1.00  0.00    -0.461 OA
BRANCH  37  38
ATOM     38  C   UNL     1      65.782  86.715  74.912  1.00  0.00     0.310 C 
ATOM     39  O   UNL     1      66.531  85.894  74.400  1.00  0.00    -0.252 OA
BRANCH  38  40
ATOM     40  C   UNL     1      66.219  87.941  75.678  1.00  0.00     0.158 C 
BRANCH  40  41
ATOM     41  C   UNL     1      66.020  87.806  77.166  1.00  0.00    -0.033 A 
ATOM     42  C   UNL     1      64.816  88.205  77.748  1.00  0.00     0.054 A 
ATOM     43  C   UNL     1      67.039  87.283  77.961  1.00  0.00     0.008 A 
ATOM     44  C   UNL     1      64.632  88.080  79.125  1.00  0.00     0.160 A 
ATOM     45  C   UNL     1      66.855  87.159  79.339  1.00  0.00     0.050 A 
ATOM     46  C   UNL     1      65.652  87.557  79.920  1.00  0.00     0.157 A 
BRANCH  44  47
ATOM     47  O   UNL     1      63.452  88.472  79.681  1.00  0.00    -0.493 OA
ATOM     48  C   UNL     1      62.403  88.838  78.786  1.00  0.00     0.278 C 
ENDBRANCH  44  47
BRANCH  46  49
ATOM     49  O   UNL     1      65.484  87.429  81.266  1.00  0.00    -0.504 OA
ATOM     50  H   UNL     1      66.297  87.064  81.654  1.00  0.00     0.293 HD
ENDBRANCH  46  49
ENDBRANCH  40  41
ENDBRANCH  38  40
ENDBRANCH  37  38
ENDBRANCH   1  37
TORSDOF 11
ENDMDL
