MODEL 1
REMARK VINA RESULT:    -6.615      0.000      0.000
REMARK INTER + INTRA:         -11.695
REMARK INTER:                 -10.289
REMARK INTRA:                  -1.406
REMARK UNBOUND:                -1.406
REMARK SMILES COc1cc(CNC(=O)CCCCCC(C)C)ccc1O
REMARK SMILES IDX 10 1 8 2 7 3 9 5 6 6 5 7 3 8 20 9 4 10 19 11 18 12 2 13 1 14
REMARK SMILES IDX 21 15 11 17 12 18 13 19 14 20 15 21 16 22 17 23
REMARK H PARENT 7 4 21 16
REMARK Flexibility Score: inf
ROOT
ATOM      1  C   UNL     1      89.297  90.268  72.340  1.00  0.00     0.100 C 
ENDROOT
BRANCH   1   2
ATOM      2  C   UNL     1      89.816  91.652  72.371  1.00  0.00     0.220 C 
ATOM      3  N   UNL     1      89.789  92.350  73.541  1.00  0.00    -0.352 N 
ATOM      4  H   UNL     1      89.283  91.903  74.292  1.00  0.00     0.163 HD
ATOM      5  O   UNL     1      90.310  92.140  71.326  1.00  0.00    -0.275 OA
BRANCH   3   6
ATOM      6  C   UNL     1      90.409  93.619  73.755  1.00  0.00     0.151 C 
BRANCH   6   7
ATOM      7  C   UNL     1      91.387  93.610  74.876  1.00  0.00    -0.025 A 
ATOM      8  C   UNL     1      93.711  93.661  75.678  1.00  0.00     0.160 A 
ATOM      9  C   UNL     1      93.248  93.661  77.011  1.00  0.00     0.157 A 
ATOM     10  C   UNL     1      92.779  93.617  74.620  1.00  0.00     0.056 A 
ATOM     11  C   UNL     1      91.867  93.628  77.278  1.00  0.00     0.050 A 
ATOM     12  C   UNL     1      90.943  93.608  76.219  1.00  0.00     0.009 A 
BRANCH   8  13
ATOM     13  O   UNL     1      95.052  93.673  75.397  1.00  0.00    -0.493 OA
ATOM     14  C   UNL     1      95.570  94.981  75.088  1.00  0.00     0.278 C 
ENDBRANCH   8  13
BRANCH   9  15
ATOM     15  O   UNL     1      94.136  93.701  78.036  1.00  0.00    -0.504 OA
ATOM     16  H   UNL     1      93.838  94.334  78.693  1.00  0.00     0.293 HD
ENDBRANCH   9  15
ENDBRANCH   6   7
ENDBRANCH   3   6
ENDBRANCH   1   2
BRANCH   1  17
ATOM     17  C   UNL     1      89.251  89.572  73.727  1.00  0.00     0.010 C 
BRANCH  17  18
ATOM     18  C   UNL     1      90.488  88.660  73.951  1.00  0.00     0.001 C 
BRANCH  18  19
ATOM     19  C   UNL     1      91.034  88.707  75.403  1.00  0.00     0.000 C 
BRANCH  19  20
ATOM     20  C   UNL     1      90.595  89.997  76.155  1.00  0.00     0.003 C 
BRANCH  20  21
ATOM     21  C   UNL     1      89.750  89.753  77.448  1.00  0.00    -0.017 C 
ATOM     22  C   UNL     1      90.171  90.736  78.580  1.00  0.00     0.007 C 
ATOM     23  C   UNL     1      89.835  88.285  77.956  1.00  0.00     0.007 C 
ENDBRANCH  20  21
ENDBRANCH  19  20
ENDBRANCH  18  19
ENDBRANCH  17  18
ENDBRANCH   1  17
TORSDOF 10
ENDMDL
MODEL 2
REMARK VINA RESULT:    -5.911      2.039      3.683
REMARK INTER + INTRA:         -10.600
REMARK INTER:                  -9.580
REMARK INTRA:                  -1.020
REMARK UNBOUND:                -1.406
REMARK SMILES COc1cc(CNC(=O)CCCCCC(C)C)ccc1O
REMARK SMILES IDX 10 1 8 2 7 3 9 5 6 6 5 7 3 8 20 9 4 10 19 11 18 12 2 13 1 14
REMARK SMILES IDX 21 15 11 17 12 18 13 19 14 20 15 21 16 22 17 23
REMARK H PARENT 7 4 21 16
REMARK Flexibility Score: inf
ROOT
ATOM      1  C   UNL     1      90.654  93.472  73.430  1.00  0.00     0.100 C 
ENDROOT
BRANCH   1   2
ATOM      2  C   UNL     1      91.558  92.971  74.487  1.00  0.00     0.220 C 
ATOM      3  N   UNL     1      91.791  93.739  75.588  1.00  0.00    -0.352 N 
ATOM      4  H   UNL     1      91.420  94.677  75.538  1.00  0.00     0.163 HD
ATOM      5  O   UNL     1      92.060  91.827  74.366  1.00  0.00    -0.275 OA
BRANCH   3   6
ATOM      6  C   UNL     1      92.496  93.312  76.753  1.00  0.00     0.151 C 
BRANCH   6   7
ATOM      7  C   UNL     1      93.878  93.858  76.833  1.00  0.00    -0.025 A 
ATOM      8  C   UNL     1      95.754  94.728  78.164  1.00  0.00     0.160 A 
ATOM      9  C   UNL     1      96.533  94.834  76.992  1.00  0.00     0.157 A 
ATOM     10  C   UNL     1      94.426  94.259  78.074  1.00  0.00     0.056 A 
ATOM     11  C   UNL     1      95.989  94.464  75.749  1.00  0.00     0.050 A 
ATOM     12  C   UNL     1      94.675  93.974  75.670  1.00  0.00     0.009 A 
BRANCH   8  13
ATOM     13  O   UNL     1      96.258  95.102  79.382  1.00  0.00    -0.493 OA
ATOM     14  C   UNL     1      95.255  95.255  80.405  1.00  0.00     0.278 C 
ENDBRANCH   8  13
BRANCH   9  15
ATOM     15  O   UNL     1      97.810  95.286  77.067  1.00  0.00    -0.504 OA
ATOM     16  H   UNL     1      97.918  95.810  77.864  1.00  0.00     0.293 HD
ENDBRANCH   9  15
ENDBRANCH   6   7
ENDBRANCH   3   6
ENDBRANCH   1   2
BRANCH   1  17
ATOM     17  C   UNL     1      89.421  92.567  73.163  1.00  0.00     0.010 C 
BRANCH  17  18
ATOM     18  C   UNL     1      89.645  91.644  71.933  1.00  0.00     0.001 C 
BRANCH  18  19
ATOM     19  C   UNL     1      89.530  90.133  72.267  1.00  0.00     0.000 C 
BRANCH  19  20
ATOM     20  C   UNL     1      88.599  89.869  73.486  1.00  0.00     0.003 C 
BRANCH  20  21
ATOM     21  C   UNL     1      89.282  89.153  74.696  1.00  0.00    -0.017 C 
ATOM     22  C   UNL     1      89.376  90.106  75.924  1.00  0.00     0.007 C 
ATOM     23  C   UNL     1      90.691  88.590  74.349  1.00  0.00     0.007 C 
ENDBRANCH  20  21
ENDBRANCH  19  20
ENDBRANCH  18  19
ENDBRANCH  17  18
ENDBRANCH   1  17
TORSDOF 10
ENDMDL
MODEL 3
REMARK VINA RESULT:    -5.725      2.013      3.188
REMARK INTER + INTRA:         -10.311
REMARK INTER:                  -9.259
REMARK INTRA:                  -1.053
REMARK UNBOUND:                -1.406
REMARK SMILES COc1cc(CNC(=O)CCCCCC(C)C)ccc1O
REMARK SMILES IDX 10 1 8 2 7 3 9 5 6 6 5 7 3 8 20 9 4 10 19 11 18 12 2 13 1 14
REMARK SMILES IDX 21 15 11 17 12 18 13 19 14 20 15 21 16 22 17 23
REMARK H PARENT 7 4 21 16
REMARK Flexibility Score: inf
ROOT
ATOM      1  C   UNL     1      91.028  92.475  73.692  1.00  0.00     0.100 C 
ENDROOT
BRANCH   1   2
ATOM      2  C   UNL     1      91.070  93.094  75.034  1.00  0.00     0.220 C 
ATOM      3  N   UNL     1      92.082  92.772  75.888  1.00  0.00    -0.352 N 
ATOM      4  H   UNL     1      92.673  92.014  75.580  1.00  0.00     0.163 HD
ATOM      5  O   UNL     1      90.193  93.937  75.343  1.00  0.00    -0.275 OA
BRANCH   3   6
ATOM      6  C   UNL     1      92.340  93.417  77.136  1.00  0.00     0.151 C 
BRANCH   6   7
ATOM      7  C   UNL     1      93.667  94.088  77.182  1.00  0.00    -0.025 A 
ATOM      8  C   UNL     1      95.470  95.329  76.061  1.00  0.00     0.160 A 
ATOM      9  C   UNL     1      96.164  95.424  77.285  1.00  0.00     0.157 A 
ATOM     10  C   UNL     1      94.236  94.646  76.013  1.00  0.00     0.056 A 
ATOM     11  C   UNL     1      95.621  94.849  78.449  1.00  0.00     0.050 A 
ATOM     12  C   UNL     1      94.380  94.191  78.400  1.00  0.00     0.009 A 
BRANCH   8  13
ATOM     13  O   UNL     1      95.991  95.865  74.912  1.00  0.00    -0.493 OA
ATOM     14  C   UNL     1      95.290  97.034  74.445  1.00  0.00     0.278 C 
ENDBRANCH   8  13
BRANCH   9  15
ATOM     15  O   UNL     1      97.352  96.076  77.342  1.00  0.00    -0.504 OA
ATOM     16  H   UNL     1      98.022  95.491  77.702  1.00  0.00     0.293 HD
ENDBRANCH   9  15
ENDBRANCH   6   7
ENDBRANCH   3   6
ENDBRANCH   1   2
BRANCH   1  17
ATOM     17  C   UNL     1      89.602  92.344  73.094  1.00  0.00     0.010 C 
BRANCH  17  18
ATOM     18  C   UNL     1      89.317  90.897  72.604  1.00  0.00     0.001 C 
BRANCH  18  19
ATOM     19  C   UNL     1      88.776  89.964  73.719  1.00  0.00     0.000 C 
BRANCH  19  20
ATOM     20  C   UNL     1      89.866  88.989  74.251  1.00  0.00     0.003 C 
BRANCH  20  21
ATOM     21  C   UNL     1      90.399  89.313  75.685  1.00  0.00    -0.017 C 
ATOM     22  C   UNL     1      90.720  88.005  76.467  1.00  0.00     0.007 C 
ATOM     23  C   UNL     1      89.419  90.200  76.508  1.00  0.00     0.007 C 
ENDBRANCH  20  21
ENDBRANCH  19  20
ENDBRANCH  18  19
ENDBRANCH  17  18
ENDBRANCH   1  17
TORSDOF 10
ENDMDL
MODEL 4
REMARK VINA RESULT:    -5.561      2.305      3.834
REMARK INTER + INTRA:         -10.055
REMARK INTER:                  -9.238
REMARK INTRA:                  -0.817
REMARK UNBOUND:                -1.406
REMARK SMILES COc1cc(CNC(=O)CCCCCC(C)C)ccc1O
REMARK SMILES IDX 10 1 8 2 7 3 9 5 6 6 5 7 3 8 20 9 4 10 19 11 18 12 2 13 1 14
REMARK SMILES IDX 21 15 11 17 12 18 13 19 14 20 15 21 16 22 17 23
REMARK H PARENT 7 4 21 16
REMARK Flexibility Score: inf
ROOT
ATOM      1  C   UNL     1      90.529  93.538  74.774  1.00  0.00     0.100 C 
ENDROOT
BRANCH   1   2
ATOM      2  C   UNL     1      91.940  93.100  74.808  1.00  0.00     0.220 C 
ATOM      3  N   UNL     1      92.931  94.036  74.833  1.00  0.00    -0.352 N 
ATOM      4  H   UNL     1      92.621  94.987  74.690  1.00  0.00     0.163 HD
ATOM      5  O   UNL     1      92.196  91.872  74.856  1.00  0.00    -0.275 OA
BRANCH   3   6
ATOM      6  C   UNL     1      94.316  93.760  75.039  1.00  0.00     0.151 C 
BRANCH   6   7
ATOM      7  C   UNL     1      94.802  94.184  76.380  1.00  0.00    -0.025 A 
ATOM      8  C   UNL     1      96.528  95.219  77.794  1.00  0.00     0.160 A 
ATOM      9  C   UNL     1      95.700  95.050  78.924  1.00  0.00     0.157 A 
ATOM     10  C   UNL     1      96.082  94.768  76.533  1.00  0.00     0.056 A 
ATOM     11  C   UNL     1      94.437  94.447  78.788  1.00  0.00     0.050 A 
ATOM     12  C   UNL     1      93.988  94.022  77.526  1.00  0.00     0.009 A 
BRANCH   8  13
ATOM     13  O   UNL     1      97.770  95.786  77.908  1.00  0.00    -0.493 OA
ATOM     14  C   UNL     1      98.323  96.234  76.655  1.00  0.00     0.278 C 
ENDBRANCH   8  13
BRANCH   9  15
ATOM     15  O   UNL     1      96.120  95.478  80.141  1.00  0.00    -0.504 OA
ATOM     16  H   UNL     1      95.405  95.943  80.581  1.00  0.00     0.293 HD
ENDBRANCH   9  15
ENDBRANCH   6   7
ENDBRANCH   3   6
ENDBRANCH   1   2
BRANCH   1  17
ATOM     17  C   UNL     1      89.909  93.585  73.351  1.00  0.00     0.010 C 
BRANCH  17  18
ATOM     18  C   UNL     1      89.842  92.172  72.709  1.00  0.00     0.001 C 
BRANCH  18  19
ATOM     19  C   UNL     1      88.392  91.680  72.453  1.00  0.00     0.000 C 
BRANCH  19  20
ATOM     20  C   UNL     1      87.899  90.702  73.559  1.00  0.00     0.003 C 
BRANCH  20  21
ATOM     21  C   UNL     1      89.009  90.199  74.539  1.00  0.00    -0.017 C 
ATOM     22  C   UNL     1      89.129  88.647  74.494  1.00  0.00     0.007 C 
ATOM     23  C   UNL     1      88.783  90.675  76.003  1.00  0.00     0.007 C 
ENDBRANCH  20  21
ENDBRANCH  19  20
ENDBRANCH  18  19
ENDBRANCH  17  18
ENDBRANCH   1  17
TORSDOF 10
ENDMDL
MODEL 5
REMARK VINA RESULT:    -5.529      3.136      5.515
REMARK INTER + INTRA:         -10.007
REMARK INTER:                  -9.257
REMARK INTRA:                  -0.750
REMARK UNBOUND:                -1.406
REMARK SMILES COc1cc(CNC(=O)CCCCCC(C)C)ccc1O
REMARK SMILES IDX 10 1 8 2 7 3 9 5 6 6 5 7 3 8 20 9 4 10 19 11 18 12 2 13 1 14
REMARK SMILES IDX 21 15 11 17 12 18 13 19 14 20 15 21 16 22 17 23
REMARK H PARENT 7 4 21 16
REMARK Flexibility Score: inf
ROOT
ATOM      1  C   UNL     1      91.514  94.393  75.907  1.00  0.00     0.100 C 
ENDROOT
BRANCH   1   2
ATOM      2  C   UNL     1      92.672  93.760  76.572  1.00  0.00     0.220 C 
ATOM      3  N   UNL     1      93.933  94.075  76.164  1.00  0.00    -0.352 N 
ATOM      4  H   UNL     1      93.981  94.636  75.325  1.00  0.00     0.163 HD
ATOM      5  O   UNL     1      92.469  92.975  77.530  1.00  0.00    -0.275 OA
BRANCH   3   6
ATOM      6  C   UNL     1      95.135  93.676  76.824  1.00  0.00     0.151 C 
BRANCH   6   7
ATOM      7  C   UNL     1      95.529  94.595  77.925  1.00  0.00    -0.025 A 
ATOM      8  C   UNL     1      95.549  95.174  80.315  1.00  0.00     0.160 A 
ATOM      9  C   UNL     1      96.337  96.309  80.031  1.00  0.00     0.157 A 
ATOM     10  C   UNL     1      95.134  94.335  79.259  1.00  0.00     0.056 A 
ATOM     11  C   UNL     1      96.713  96.592  78.705  1.00  0.00     0.050 A 
ATOM     12  C   UNL     1      96.318  95.739  77.661  1.00  0.00     0.009 A 
BRANCH   8  13
ATOM     13  O   UNL     1      95.155  94.892  81.597  1.00  0.00    -0.493 OA
ATOM     14  C   UNL     1      95.587  93.600  82.067  1.00  0.00     0.278 C 
ENDBRANCH   8  13
BRANCH   9  15
ATOM     15  O   UNL     1      96.739  97.124  81.039  1.00  0.00    -0.504 OA
ATOM     16  H   UNL     1      96.011  97.262  81.649  1.00  0.00     0.293 HD
ENDBRANCH   9  15
ENDBRANCH   6   7
ENDBRANCH   3   6
ENDBRANCH   1   2
BRANCH   1  17
ATOM     17  C   UNL     1      91.101  93.723  74.569  1.00  0.00     0.010 C 
BRANCH  17  18
ATOM     18  C   UNL     1      90.629  92.258  74.784  1.00  0.00     0.001 C 
BRANCH  18  19
ATOM     19  C   UNL     1      91.324  91.242  73.840  1.00  0.00     0.000 C 
BRANCH  19  20
ATOM     20  C   UNL     1      90.383  90.066  73.446  1.00  0.00     0.003 C 
BRANCH  20  21
ATOM     21  C   UNL     1      89.574  90.282  72.126  1.00  0.00    -0.017 C 
ATOM     22  C   UNL     1      90.318  91.263  71.173  1.00  0.00     0.007 C 
ATOM     23  C   UNL     1      88.123  90.784  72.381  1.00  0.00     0.007 C 
ENDBRANCH  20  21
ENDBRANCH  19  20
ENDBRANCH  18  19
ENDBRANCH  17  18
ENDBRANCH   1  17
TORSDOF 10
ENDMDL
MODEL 6
REMARK VINA RESULT:    -5.267     25.331     28.039
REMARK INTER + INTRA:          -9.598
REMARK INTER:                  -8.890
REMARK INTRA:                  -0.707
REMARK UNBOUND:                -1.406
REMARK SMILES COc1cc(CNC(=O)CCCCCC(C)C)ccc1O
REMARK SMILES IDX 10 1 8 2 7 3 9 5 6 6 5 7 3 8 20 9 4 10 19 11 18 12 2 13 1 14
REMARK SMILES IDX 21 15 11 17 12 18 13 19 14 20 15 21 16 22 17 23
REMARK H PARENT 7 4 21 16
REMARK Flexibility Score: inf
ROOT
ATOM      1  C   UNL     1      83.022  64.329  75.338  1.00  0.00     0.100 C 
ENDROOT
BRANCH   1   2
ATOM      2  C   UNL     1      84.143  63.842  76.168  1.00  0.00     0.220 C 
ATOM      3  N   UNL     1      83.935  63.584  77.490  1.00  0.00    -0.352 N 
ATOM      4  H   UNL     1      83.036  63.876  77.843  1.00  0.00     0.163 HD
ATOM      5  O   UNL     1      85.257  63.637  75.626  1.00  0.00    -0.275 OA
BRANCH   3   6
ATOM      6  C   UNL     1      84.873  62.951  78.361  1.00  0.00     0.151 C 
BRANCH   6   7
ATOM      7  C   UNL     1      85.358  63.846  79.446  1.00  0.00    -0.025 A 
ATOM      8  C   UNL     1      86.610  65.834  80.171  1.00  0.00     0.160 A 
ATOM      9  C   UNL     1      86.224  65.587  81.506  1.00  0.00     0.157 A 
ATOM     10  C   UNL     1      86.191  64.951  79.153  1.00  0.00     0.056 A 
ATOM     11  C   UNL     1      85.418  64.476  81.812  1.00  0.00     0.050 A 
ATOM     12  C   UNL     1      84.983  63.615  80.791  1.00  0.00     0.009 A 
BRANCH   8  13
ATOM     13  O   UNL     1      87.411  66.899  79.854  1.00  0.00    -0.493 OA
ATOM     14  C   UNL     1      86.746  67.919  79.085  1.00  0.00     0.278 C 
ENDBRANCH   8  13
BRANCH   9  15
ATOM     15  O   UNL     1      86.624  66.428  82.493  1.00  0.00    -0.504 OA
ATOM     16  H   UNL     1      87.506  66.753  82.298  1.00  0.00     0.293 HD
ENDBRANCH   9  15
ENDBRANCH   6   7
ENDBRANCH   3   6
ENDBRANCH   1   2
BRANCH   1  17
ATOM     17  C   UNL     1      81.794  64.823  76.150  1.00  0.00     0.010 C 
BRANCH  17  18
ATOM     18  C   UNL     1      81.401  66.276  75.767  1.00  0.00     0.001 C 
BRANCH  18  19
ATOM     19  C   UNL     1      80.559  66.365  74.467  1.00  0.00     0.000 C 
BRANCH  19  20
ATOM     20  C   UNL     1      81.141  67.398  73.459  1.00  0.00     0.003 C 
BRANCH  20  21
ATOM     21  C   UNL     1      80.598  67.273  71.998  1.00  0.00    -0.017 C 
ATOM     22  C   UNL     1      80.212  65.800  71.673  1.00  0.00     0.007 C 
ATOM     23  C   UNL     1      81.598  67.811  70.933  1.00  0.00     0.007 C 
ENDBRANCH  20  21
ENDBRANCH  19  20
ENDBRANCH  18  19
ENDBRANCH  17  18
ENDBRANCH   1  17
TORSDOF 10
ENDMDL
MODEL 7
REMARK VINA RESULT:    -5.264     23.034     25.780
REMARK INTER + INTRA:          -9.594
REMARK INTER:                  -8.286
REMARK INTRA:                  -1.308
REMARK UNBOUND:                -1.406
REMARK SMILES COc1cc(CNC(=O)CCCCCC(C)C)ccc1O
REMARK SMILES IDX 10 1 8 2 7 3 9 5 6 6 5 7 3 8 20 9 4 10 19 11 18 12 2 13 1 14
REMARK SMILES IDX 21 15 11 17 12 18 13 19 14 20 15 21 16 22 17 23
REMARK H PARENT 7 4 21 16
REMARK Flexibility Score: inf
ROOT
ATOM      1  C   UNL     1      80.668  67.399  72.221  1.00  0.00     0.100 C 
ENDROOT
BRANCH   1   2
ATOM      2  C   UNL     1      82.083  67.824  72.222  1.00  0.00     0.220 C 
ATOM      3  N   UNL     1      82.928  67.336  73.174  1.00  0.00    -0.352 N 
ATOM      4  H   UNL     1      82.480  66.806  73.908  1.00  0.00     0.163 HD
ATOM      5  O   UNL     1      82.488  68.594  71.317  1.00  0.00    -0.275 OA
BRANCH   3   6
ATOM      6  C   UNL     1      84.343  67.524  73.191  1.00  0.00     0.151 C 
BRANCH   6   7
ATOM      7  C   UNL     1      84.837  68.132  74.456  1.00  0.00    -0.025 A 
ATOM      8  C   UNL     1      86.345  69.678  75.631  1.00  0.00     0.160 A 
ATOM      9  C   UNL     1      85.732  69.340  76.857  1.00  0.00     0.157 A 
ATOM     10  C   UNL     1      85.907  69.058  74.442  1.00  0.00     0.056 A 
ATOM     11  C   UNL     1      84.685  68.400  76.885  1.00  0.00     0.050 A 
ATOM     12  C   UNL     1      84.237  67.805  75.694  1.00  0.00     0.009 A 
BRANCH   8  13
ATOM     13  O   UNL     1      87.379  70.576  75.584  1.00  0.00    -0.493 OA
ATOM     14  C   UNL     1      88.354  70.287  74.564  1.00  0.00     0.278 C 
ENDBRANCH   8  13
BRANCH   9  15
ATOM     15  O   UNL     1      86.148  69.929  78.006  1.00  0.00    -0.504 OA
ATOM     16  H   UNL     1      86.384  69.252  78.645  1.00  0.00     0.293 HD
ENDBRANCH   9  15
ENDBRANCH   6   7
ENDBRANCH   3   6
ENDBRANCH   1   2
BRANCH   1  17
ATOM     17  C   UNL     1      80.261  66.529  73.440  1.00  0.00     0.010 C 
BRANCH  17  18
ATOM     18  C   UNL     1      80.153  65.026  73.061  1.00  0.00     0.001 C 
BRANCH  18  19
ATOM     19  C   UNL     1      80.528  64.068  74.223  1.00  0.00     0.000 C 
BRANCH  19  20
ATOM     20  C   UNL     1      82.063  63.832  74.319  1.00  0.00     0.003 C 
BRANCH  20  21
ATOM     21  C   UNL     1      82.778  64.600  75.478  1.00  0.00    -0.017 C 
ATOM     22  C   UNL     1      83.866  63.709  76.147  1.00  0.00     0.007 C 
ATOM     23  C   UNL     1      81.786  65.130  76.554  1.00  0.00     0.007 C 
ENDBRANCH  20  21
ENDBRANCH  19  20
ENDBRANCH  18  19
ENDBRANCH  17  18
ENDBRANCH   1  17
TORSDOF 10
ENDMDL
MODEL 8
REMARK VINA RESULT:    -5.194     12.200     13.747
REMARK INTER + INTRA:          -9.485
REMARK INTER:                  -8.880
REMARK INTRA:                  -0.605
REMARK UNBOUND:                -1.406
REMARK SMILES COc1cc(CNC(=O)CCCCCC(C)C)ccc1O
REMARK SMILES IDX 10 1 8 2 7 3 9 5 6 6 5 7 3 8 20 9 4 10 19 11 18 12 2 13 1 14
REMARK SMILES IDX 21 15 11 17 12 18 13 19 14 20 15 21 16 22 17 23
REMARK H PARENT 7 4 21 16
REMARK Flexibility Score: inf
ROOT
ATOM      1  C   UNL     1      96.180  84.512  83.564  1.00  0.00     0.100 C 
ENDROOT
BRANCH   1   2
ATOM      2  C   UNL     1      96.123  84.625  85.036  1.00  0.00     0.220 C 
ATOM      3  N   UNL     1      95.479  85.684  85.602  1.00  0.00    -0.352 N 
ATOM      4  H   UNL     1      95.191  86.403  84.953  1.00  0.00     0.163 HD
ATOM      5  O   UNL     1      96.635  83.718  85.737  1.00  0.00    -0.275 OA
BRANCH   3   6
ATOM      6  C   UNL     1      95.200  85.828  86.995  1.00  0.00     0.151 C 
BRANCH   6   7
ATOM      7  C   UNL     1      95.091  87.247  87.426  1.00  0.00    -0.025 A 
ATOM      8  C   UNL     1      94.464  88.921  89.115  1.00  0.00     0.160 A 
ATOM      9  C   UNL     1      94.945  89.947  88.274  1.00  0.00     0.157 A 
ATOM     10  C   UNL     1      94.523  87.580  88.678  1.00  0.00     0.056 A 
ATOM     11  C   UNL     1      95.487  89.629  87.015  1.00  0.00     0.050 A 
ATOM     12  C   UNL     1      95.565  88.290  86.596  1.00  0.00     0.009 A 
BRANCH   8  13
ATOM     13  O   UNL     1      93.914  89.210  90.336  1.00  0.00    -0.493 OA
ATOM     14  C   UNL     1      94.597  88.593  91.444  1.00  0.00     0.278 C 
ENDBRANCH   8  13
BRANCH   9  15
ATOM     15  O   UNL     1      94.891  91.239  88.683  1.00  0.00    -0.504 OA
ATOM     16  H   UNL     1      94.017  91.428  89.034  1.00  0.00     0.293 HD
ENDBRANCH   9  15
ENDBRANCH   6   7
ENDBRANCH   3   6
ENDBRANCH   1   2
BRANCH   1  17
ATOM     17  C   UNL     1      97.273  83.542  83.040  1.00  0.00     0.010 C 
BRANCH  17  18
ATOM     18  C   UNL     1      96.736  82.640  81.894  1.00  0.00     0.001 C 
BRANCH  18  19
ATOM     19  C   UNL     1      97.578  81.356  81.674  1.00  0.00     0.000 C 
BRANCH  19  20
ATOM     20  C   UNL     1      97.781  81.036  80.164  1.00  0.00     0.003 C 
BRANCH  20  21
ATOM     21  C   UNL     1      97.572  82.249  79.199  1.00  0.00    -0.017 C 
ATOM     22  C   UNL     1      96.508  81.916  78.112  1.00  0.00     0.007 C 
ATOM     23  C   UNL     1      98.894  82.720  78.527  1.00  0.00     0.007 C 
ENDBRANCH  20  21
ENDBRANCH  19  20
ENDBRANCH  18  19
ENDBRANCH  17  18
ENDBRANCH   1  17
TORSDOF 10
ENDMDL
MODEL 9
REMARK VINA RESULT:    -5.107     24.315     27.008
REMARK INTER + INTRA:          -9.350
REMARK INTER:                  -7.743
REMARK INTRA:                  -1.607
REMARK UNBOUND:                -1.406
REMARK SMILES COc1cc(CNC(=O)CCCCCC(C)C)ccc1O
REMARK SMILES IDX 10 1 8 2 7 3 9 5 6 6 5 7 3 8 20 9 4 10 19 11 18 12 2 13 1 14
REMARK SMILES IDX 21 15 11 17 12 18 13 19 14 20 15 21 16 22 17 23
REMARK H PARENT 7 4 21 16
REMARK Flexibility Score: inf
ROOT
ATOM      1  C   UNL     1      80.259  65.552  72.368  1.00  0.00     0.100 C 
ENDROOT
BRANCH   1   2
ATOM      2  C   UNL     1      80.538  65.239  73.785  1.00  0.00     0.220 C 
ATOM      3  N   UNL     1      81.078  66.197  74.589  1.00  0.00    -0.352 N 
ATOM      4  H   UNL     1      81.377  67.035  74.110  1.00  0.00     0.163 HD
ATOM      5  O   UNL     1      80.231  64.106  74.229  1.00  0.00    -0.275 OA
BRANCH   3   6
ATOM      6  C   UNL     1      81.237  66.089  76.004  1.00  0.00     0.151 C 
BRANCH   6   7
ATOM      7  C   UNL     1      82.646  65.853  76.418  1.00  0.00    -0.025 A 
ATOM      8  C   UNL     1      84.868  66.723  77.012  1.00  0.00     0.160 A 
ATOM      9  C   UNL     1      85.311  65.409  77.270  1.00  0.00     0.157 A 
ATOM     10  C   UNL     1      83.545  66.936  76.570  1.00  0.00     0.056 A 
ATOM     11  C   UNL     1      84.434  64.323  77.097  1.00  0.00     0.050 A 
ATOM     12  C   UNL     1      83.110  64.543  76.679  1.00  0.00     0.009 A 
BRANCH   8  13
ATOM     13  O   UNL     1      85.712  67.793  77.156  1.00  0.00    -0.493 OA
ATOM     14  C   UNL     1      85.123  69.054  76.784  1.00  0.00     0.278 C 
ENDBRANCH   8  13
BRANCH   9  15
ATOM     15  O   UNL     1      86.582  65.193  77.694  1.00  0.00    -0.504 OA
ATOM     16  H   UNL     1      86.571  64.925  78.615  1.00  0.00     0.293 HD
ENDBRANCH   9  15
ENDBRANCH   6   7
ENDBRANCH   3   6
ENDBRANCH   1   2
BRANCH   1  17
ATOM     17  C   UNL     1      80.377  67.059  72.012  1.00  0.00     0.010 C 
BRANCH  17  18
ATOM     18  C   UNL     1      81.299  67.287  70.783  1.00  0.00     0.001 C 
BRANCH  18  19
ATOM     19  C   UNL     1      82.420  68.329  71.039  1.00  0.00     0.000 C 
BRANCH  19  20
ATOM     20  C   UNL     1      82.704  68.528  72.556  1.00  0.00     0.003 C 
BRANCH  20  21
ATOM     21  C   UNL     1      84.115  68.052  73.032  1.00  0.00    -0.017 C 
ATOM     22  C   UNL     1      85.242  68.760  72.224  1.00  0.00     0.007 C 
ATOM     23  C   UNL     1      84.291  66.507  72.951  1.00  0.00     0.007 C 
ENDBRANCH  20  21
ENDBRANCH  19  20
ENDBRANCH  18  19
ENDBRANCH  17  18
ENDBRANCH   1  17
TORSDOF 10
ENDMDL
MODEL 10
REMARK VINA RESULT:    -4.968     25.109     27.339
REMARK INTER + INTRA:          -9.134
REMARK INTER:                  -7.468
REMARK INTRA:                  -1.666
REMARK UNBOUND:                -1.406
REMARK SMILES COc1cc(CNC(=O)CCCCCC(C)C)ccc1O
REMARK SMILES IDX 10 1 8 2 7 3 9 5 6 6 5 7 3 8 20 9 4 10 19 11 18 12 2 13 1 14
REMARK SMILES IDX 21 15 11 17 12 18 13 19 14 20 15 21 16 22 17 23
REMARK H PARENT 7 4 21 16
REMARK Flexibility Score: inf
ROOT
ATOM      1  C   UNL     1      80.209  66.808  72.389  1.00  0.00     0.100 C 
ENDROOT
BRANCH   1   2
ATOM      2  C   UNL     1      80.417  66.129  73.685  1.00  0.00     0.220 C 
ATOM      3  N   UNL     1      81.173  66.734  74.644  1.00  0.00    -0.352 N 
ATOM      4  H   UNL     1      81.656  67.568  74.342  1.00  0.00     0.163 HD
ATOM      5  O   UNL     1      79.857  65.025  73.891  1.00  0.00    -0.275 OA
BRANCH   3   6
ATOM      6  C   UNL     1      81.313  66.278  75.990  1.00  0.00     0.151 C 
BRANCH   6   7
ATOM      7  C   UNL     1      82.729  66.205  76.438  1.00  0.00    -0.025 A 
ATOM      8  C   UNL     1      84.751  64.888  76.914  1.00  0.00     0.160 A 
ATOM      9  C   UNL     1      85.447  66.074  77.227  1.00  0.00     0.157 A 
ATOM     10  C   UNL     1      83.392  64.959  76.540  1.00  0.00     0.056 A 
ATOM     11  C   UNL     1      84.791  67.317  77.155  1.00  0.00     0.050 A 
ATOM     12  C   UNL     1      83.445  67.383  76.758  1.00  0.00     0.009 A 
BRANCH   8  13
ATOM     13  O   UNL     1      85.366  63.666  76.998  1.00  0.00    -0.493 OA
ATOM     14  C   UNL     1      85.052  62.938  78.200  1.00  0.00     0.278 C 
ENDBRANCH   8  13
BRANCH   9  15
ATOM     15  O   UNL     1      86.753  66.017  77.590  1.00  0.00    -0.504 OA
ATOM     16  H   UNL     1      87.286  66.483  76.943  1.00  0.00     0.293 HD
ENDBRANCH   9  15
ENDBRANCH   6   7
ENDBRANCH   3   6
ENDBRANCH   1   2
BRANCH   1  17
ATOM     17  C   UNL     1      80.551  65.938  71.150  1.00  0.00     0.010 C 
BRANCH  17  18
ATOM     18  C   UNL     1      81.965  66.264  70.594  1.00  0.00     0.001 C 
BRANCH  18  19
ATOM     19  C   UNL     1      82.411  67.725  70.864  1.00  0.00     0.000 C 
BRANCH  19  20
ATOM     20  C   UNL     1      83.866  67.805  71.411  1.00  0.00     0.003 C 
BRANCH  20  21
ATOM     21  C   UNL     1      84.026  67.424  72.919  1.00  0.00    -0.017 C 
ATOM     22  C   UNL     1      85.083  68.334  73.612  1.00  0.00     0.007 C 
ATOM     23  C   UNL     1      84.392  65.926  73.129  1.00  0.00     0.007 C 
ENDBRANCH  20  21
ENDBRANCH  19  20
ENDBRANCH  18  19
ENDBRANCH  17  18
ENDBRANCH   1  17
TORSDOF 10
ENDMDL
