MODEL 1
REMARK VINA RESULT:    -6.353      0.000      0.000
REMARK INTER + INTRA:         -11.116
REMARK INTER:                 -10.252
REMARK INTRA:                  -0.864
REMARK UNBOUND:                -0.864
REMARK SMILES COc1cc(CNC(=O)CCCCCCC(C)C)ccc1O
REMARK SMILES IDX 11 1 10 2 8 3 7 4 9 6 6 7 5 8 3 9 21 10 4 11 20 12 19 13
REMARK SMILES IDX 2 14 1 15 22 16 12 18 13 19 14 20 15 21 16 22 17 23 18 24
REMARK H PARENT 7 5 22 17
REMARK Flexibility Score: inf
ROOT
ATOM      1  C   UNL     1      91.351  94.303  74.733  1.00  0.00     0.010 C 
ENDROOT
BRANCH   1   2
ATOM      2  C   UNL     1      90.532  93.782  73.519  1.00  0.00     0.100 C 
BRANCH   2   3
ATOM      3  C   UNL     1      90.483  92.305  73.437  1.00  0.00     0.220 C 
ATOM      4  N   UNL     1      89.303  91.644  73.611  1.00  0.00    -0.352 N 
ATOM      5  H   UNL     1      88.517  92.237  73.836  1.00  0.00     0.163 HD
ATOM      6  O   UNL     1      91.542  91.682  73.180  1.00  0.00    -0.275 OA
BRANCH   4   7
ATOM      7  C   UNL     1      89.124  90.228  73.497  1.00  0.00     0.151 C 
BRANCH   7   8
ATOM      8  C   UNL     1      89.658  89.474  74.664  1.00  0.00    -0.025 A 
ATOM      9  C   UNL     1      89.901  89.207  77.097  1.00  0.00     0.160 A 
ATOM     10  C   UNL     1      90.635  88.018  76.895  1.00  0.00     0.157 A 
ATOM     11  C   UNL     1      89.435  89.935  75.982  1.00  0.00     0.056 A 
ATOM     12  C   UNL     1      90.897  87.570  75.588  1.00  0.00     0.050 A 
ATOM     13  C   UNL     1      90.403  88.286  74.480  1.00  0.00     0.009 A 
BRANCH   9  14
ATOM     14  O   UNL     1      89.675  89.673  78.364  1.00  0.00    -0.493 OA
ATOM     15  C   UNL     1      90.214  90.985  78.604  1.00  0.00     0.278 C 
ENDBRANCH   9  14
BRANCH  10  16
ATOM     16  O   UNL     1      91.098  87.297  77.951  1.00  0.00    -0.504 OA
ATOM     17  H   UNL     1      92.025  87.091  77.815  1.00  0.00     0.293 HD
ENDBRANCH  10  16
ENDBRANCH   7   8
ENDBRANCH   4   7
ENDBRANCH   2   3
ENDBRANCH   1   2
BRANCH   1  18
ATOM     18  C   UNL     1      91.254  93.350  75.958  1.00  0.00     0.001 C 
BRANCH  18  19
ATOM     19  C   UNL     1      92.576  93.234  76.768  1.00  0.00     0.000 C 
BRANCH  19  20
ATOM     20  C   UNL     1      93.505  94.456  76.524  1.00  0.00     0.000 C 
BRANCH  20  21
ATOM     21  C   UNL     1      94.970  94.082  76.166  1.00  0.00     0.003 C 
BRANCH  21  22
ATOM     22  C   UNL     1      95.958  95.293  76.117  1.00  0.00    -0.017 C 
ATOM     23  C   UNL     1      96.356  95.612  74.649  1.00  0.00     0.007 C 
ATOM     24  C   UNL     1      97.228  95.099  76.996  1.00  0.00     0.007 C 
ENDBRANCH  21  22
ENDBRANCH  20  21
ENDBRANCH  19  20
ENDBRANCH  18  19
ENDBRANCH   1  18
TORSDOF 11
ENDMDL
MODEL 2
REMARK VINA RESULT:    -6.322      1.592      2.128
REMARK INTER + INTRA:         -11.066
REMARK INTER:                 -10.409
REMARK INTRA:                  -0.657
REMARK UNBOUND:                -0.864
REMARK SMILES COc1cc(CNC(=O)CCCCCCC(C)C)ccc1O
REMARK SMILES IDX 11 1 10 2 8 3 7 4 9 6 6 7 5 8 3 9 21 10 4 11 20 12 19 13
REMARK SMILES IDX 2 14 1 15 22 16 12 18 13 19 14 20 15 21 16 22 17 23 18 24
REMARK H PARENT 7 5 22 17
REMARK Flexibility Score: inf
ROOT
ATOM      1  C   UNL     1      91.871  92.352  73.673  1.00  0.00     0.010 C 
ENDROOT
BRANCH   1   2
ATOM      2  C   UNL     1      91.076  91.520  72.629  1.00  0.00     0.100 C 
BRANCH   2   3
ATOM      3  C   UNL     1      90.196  90.499  73.241  1.00  0.00     0.220 C 
ATOM      4  N   UNL     1      90.733  89.434  73.903  1.00  0.00    -0.352 N 
ATOM      5  H   UNL     1      91.742  89.395  73.890  1.00  0.00     0.163 HD
ATOM      6  O   UNL     1      88.953  90.650  73.159  1.00  0.00    -0.275 OA
BRANCH   4   7
ATOM      7  C   UNL     1      89.984  88.420  74.581  1.00  0.00     0.151 C 
BRANCH   7   8
ATOM      8  C   UNL     1      89.931  88.617  76.056  1.00  0.00    -0.025 A 
ATOM      9  C   UNL     1      89.924  90.118  78.004  1.00  0.00     0.160 A 
ATOM     10  C   UNL     1      89.787  89.006  78.863  1.00  0.00     0.157 A 
ATOM     11  C   UNL     1      90.014  89.914  76.611  1.00  0.00     0.056 A 
ATOM     12  C   UNL     1      89.742  87.707  78.325  1.00  0.00     0.050 A 
ATOM     13  C   UNL     1      89.803  87.513  76.931  1.00  0.00     0.009 A 
BRANCH   9  14
ATOM     14  O   UNL     1      90.008  91.383  78.520  1.00  0.00    -0.493 OA
ATOM     15  C   UNL     1      91.058  92.177  77.939  1.00  0.00     0.278 C 
ENDBRANCH   9  14
BRANCH  10  16
ATOM     16  O   UNL     1      89.699  89.171  80.209  1.00  0.00    -0.504 OA
ATOM     17  H   UNL     1      88.961  88.659  80.547  1.00  0.00     0.293 HD
ENDBRANCH  10  16
ENDBRANCH   7   8
ENDBRANCH   4   7
ENDBRANCH   2   3
ENDBRANCH   1   2
BRANCH   1  18
ATOM     18  C   UNL     1      91.119  93.650  74.085  1.00  0.00     0.001 C 
BRANCH  18  19
ATOM     19  C   UNL     1      91.606  94.255  75.432  1.00  0.00     0.000 C 
BRANCH  19  20
ATOM     20  C   UNL     1      93.145  94.474  75.437  1.00  0.00     0.000 C 
BRANCH  20  21
ATOM     21  C   UNL     1      93.839  94.080  76.770  1.00  0.00     0.003 C 
BRANCH  21  22
ATOM     22  C   UNL     1      95.301  94.615  76.925  1.00  0.00    -0.017 C 
ATOM     23  C   UNL     1      96.299  93.695  76.167  1.00  0.00     0.007 C 
ATOM     24  C   UNL     1      95.746  94.799  78.406  1.00  0.00     0.007 C 
ENDBRANCH  21  22
ENDBRANCH  20  21
ENDBRANCH  19  20
ENDBRANCH  18  19
ENDBRANCH   1  18
TORSDOF 11
ENDMDL
MODEL 3
REMARK VINA RESULT:    -6.280      3.754      7.614
REMARK INTER + INTRA:         -10.999
REMARK INTER:                  -9.837
REMARK INTRA:                  -1.162
REMARK UNBOUND:                -0.864
REMARK SMILES COc1cc(CNC(=O)CCCCCCC(C)C)ccc1O
REMARK SMILES IDX 11 1 10 2 8 3 7 4 9 6 6 7 5 8 3 9 21 10 4 11 20 12 19 13
REMARK SMILES IDX 2 14 1 15 22 16 12 18 13 19 14 20 15 21 16 22 17 23 18 24
REMARK H PARENT 7 5 22 17
REMARK Flexibility Score: inf
ROOT
ATOM      1  C   UNL     1      90.484  92.710  77.238  1.00  0.00     0.010 C 
ENDROOT
BRANCH   1   2
ATOM      2  C   UNL     1      90.674  93.829  76.176  1.00  0.00     0.100 C 
BRANCH   2   3
ATOM      3  C   UNL     1      92.087  94.031  75.786  1.00  0.00     0.220 C 
ATOM      4  N   UNL     1      92.979  94.557  76.675  1.00  0.00    -0.352 N 
ATOM      5  H   UNL     1      92.581  94.822  77.564  1.00  0.00     0.163 HD
ATOM      6  O   UNL     1      92.449  93.687  74.634  1.00  0.00    -0.275 OA
BRANCH   4   7
ATOM      7  C   UNL     1      94.377  94.744  76.430  1.00  0.00     0.151 C 
BRANCH   7   8
ATOM      8  C   UNL     1      95.187  94.817  77.677  1.00  0.00    -0.025 A 
ATOM      9  C   UNL     1      97.103  95.727  78.922  1.00  0.00     0.160 A 
ATOM     10  C   UNL     1      96.710  94.997  80.065  1.00  0.00     0.157 A 
ATOM     11  C   UNL     1      96.351  95.617  77.733  1.00  0.00     0.056 A 
ATOM     12  C   UNL     1      95.576  94.167  80.010  1.00  0.00     0.050 A 
ATOM     13  C   UNL     1      94.812  94.085  78.829  1.00  0.00     0.009 A 
BRANCH   9  14
ATOM     14  O   UNL     1      98.227  96.507  78.953  1.00  0.00    -0.493 OA
ATOM     15  C   UNL     1      97.953  97.915  79.069  1.00  0.00     0.278 C 
ENDBRANCH   9  14
BRANCH  10  16
ATOM     16  O   UNL     1      97.416  95.083  81.223  1.00  0.00    -0.504 OA
ATOM     17  H   UNL     1      97.165  95.882  81.692  1.00  0.00     0.293 HD
ENDBRANCH  10  16
ENDBRANCH   7   8
ENDBRANCH   4   7
ENDBRANCH   2   3
ENDBRANCH   1   2
BRANCH   1  18
ATOM     18  C   UNL     1      90.425  91.295  76.595  1.00  0.00     0.001 C 
BRANCH  18  19
ATOM     19  C   UNL     1      89.134  91.037  75.768  1.00  0.00     0.000 C 
BRANCH  19  20
ATOM     20  C   UNL     1      89.453  90.355  74.408  1.00  0.00     0.000 C 
BRANCH  20  21
ATOM     21  C   UNL     1      90.773  90.840  73.746  1.00  0.00     0.003 C 
BRANCH  21  22
ATOM     22  C   UNL     1      90.581  91.595  72.391  1.00  0.00    -0.017 C 
ATOM     23  C   UNL     1      89.725  92.876  72.598  1.00  0.00     0.007 C 
ATOM     24  C   UNL     1      89.972  90.710  71.263  1.00  0.00     0.007 C 
ENDBRANCH  21  22
ENDBRANCH  20  21
ENDBRANCH  19  20
ENDBRANCH  18  19
ENDBRANCH   1  18
TORSDOF 11
ENDMDL
MODEL 4
REMARK VINA RESULT:    -6.239      4.620      8.256
REMARK INTER + INTRA:         -10.933
REMARK INTER:                 -10.083
REMARK INTRA:                  -0.850
REMARK UNBOUND:                -0.864
REMARK SMILES COc1cc(CNC(=O)CCCCCCC(C)C)ccc1O
REMARK SMILES IDX 11 1 10 2 8 3 7 4 9 6 6 7 5 8 3 9 21 10 4 11 20 12 19 13
REMARK SMILES IDX 2 14 1 15 22 16 12 18 13 19 14 20 15 21 16 22 17 23 18 24
REMARK H PARENT 7 5 22 17
REMARK Flexibility Score: inf
ROOT
ATOM      1  C   UNL     1      93.548  94.869  75.318  1.00  0.00     0.010 C 
ENDROOT
BRANCH   1   2
ATOM      2  C   UNL     1      94.815  94.030  74.994  1.00  0.00     0.100 C 
BRANCH   2   3
ATOM      3  C   UNL     1      95.951  94.314  75.899  1.00  0.00     0.220 C 
ATOM      4  N   UNL     1      96.087  95.545  76.470  1.00  0.00    -0.352 N 
ATOM      5  H   UNL     1      95.391  96.220  76.187  1.00  0.00     0.163 HD
ATOM      6  O   UNL     1      96.768  93.393  76.145  1.00  0.00    -0.275 OA
BRANCH   4   7
ATOM      7  C   UNL     1      97.108  95.916  77.402  1.00  0.00     0.151 C 
BRANCH   7   8
ATOM      8  C   UNL     1      96.689  95.766  78.822  1.00  0.00    -0.025 A 
ATOM      9  C   UNL     1      96.919  96.397  81.188  1.00  0.00     0.160 A 
ATOM     10  C   UNL     1      95.866  95.519  81.527  1.00  0.00     0.157 A 
ATOM     11  C   UNL     1      97.334  96.500  79.844  1.00  0.00     0.056 A 
ATOM     12  C   UNL     1      95.242  94.755  80.524  1.00  0.00     0.050 A 
ATOM     13  C   UNL     1      95.642  94.884  79.180  1.00  0.00     0.009 A 
BRANCH   9  14
ATOM     14  O   UNL     1      97.559  97.116  82.161  1.00  0.00    -0.493 OA
ATOM     15  C   UNL     1      96.951  98.392  82.434  1.00  0.00     0.278 C 
ENDBRANCH   9  14
BRANCH  10  16
ATOM     16  O   UNL     1      95.446  95.399  82.814  1.00  0.00    -0.504 OA
ATOM     17  H   UNL     1      95.934  96.013  83.368  1.00  0.00     0.293 HD
ENDBRANCH  10  16
ENDBRANCH   7   8
ENDBRANCH   4   7
ENDBRANCH   2   3
ENDBRANCH   1   2
BRANCH   1  18
ATOM     18  C   UNL     1      92.250  94.207  74.774  1.00  0.00     0.001 C 
BRANCH  18  19
ATOM     19  C   UNL     1      92.385  92.680  74.519  1.00  0.00     0.000 C 
BRANCH  19  20
ATOM     20  C   UNL     1      91.045  91.936  74.777  1.00  0.00     0.000 C 
BRANCH  20  21
ATOM     21  C   UNL     1      90.991  91.172  76.130  1.00  0.00     0.003 C 
BRANCH  21  22
ATOM     22  C   UNL     1      90.705  92.074  77.375  1.00  0.00    -0.017 C 
ATOM     23  C   UNL     1      90.377  91.198  78.617  1.00  0.00     0.007 C 
ATOM     24  C   UNL     1      89.584  93.128  77.139  1.00  0.00     0.007 C 
ENDBRANCH  21  22
ENDBRANCH  20  21
ENDBRANCH  19  20
ENDBRANCH  18  19
ENDBRANCH   1  18
TORSDOF 11
ENDMDL
MODEL 5
REMARK VINA RESULT:    -6.038     13.749     16.622
REMARK INTER + INTRA:         -10.609
REMARK INTER:                  -8.994
REMARK INTRA:                  -1.614
REMARK UNBOUND:                -0.864
REMARK SMILES COc1cc(CNC(=O)CCCCCCC(C)C)ccc1O
REMARK SMILES IDX 11 1 10 2 8 3 7 4 9 6 6 7 5 8 3 9 21 10 4 11 20 12 19 13
REMARK SMILES IDX 2 14 1 15 22 16 12 18 13 19 14 20 15 21 16 22 17 23 18 24
REMARK H PARENT 7 5 22 17
REMARK Flexibility Score: inf
ROOT
ATOM      1  C   UNL     1      81.938  85.915  87.465  1.00  0.00     0.010 C 
ENDROOT
BRANCH   1   2
ATOM      2  C   UNL     1      80.613  86.599  87.903  1.00  0.00     0.100 C 
BRANCH   2   3
ATOM      3  C   UNL     1      80.820  87.743  88.819  1.00  0.00     0.220 C 
ATOM      4  N   UNL     1      80.379  88.988  88.478  1.00  0.00    -0.352 N 
ATOM      5  H   UNL     1      79.959  89.049  87.562  1.00  0.00     0.163 HD
ATOM      6  O   UNL     1      81.386  87.536  89.921  1.00  0.00    -0.275 OA
BRANCH   4   7
ATOM      7  C   UNL     1      80.471  90.152  89.305  1.00  0.00     0.151 C 
BRANCH   7   8
ATOM      8  C   UNL     1      81.459  91.148  88.807  1.00  0.00    -0.025 A 
ATOM      9  C   UNL     1      83.379  91.712  87.377  1.00  0.00     0.160 A 
ATOM     10  C   UNL     1      83.319  93.051  87.821  1.00  0.00     0.157 A 
ATOM     11  C   UNL     1      82.462  90.769  87.886  1.00  0.00     0.056 A 
ATOM     12  C   UNL     1      82.351  93.433  88.766  1.00  0.00     0.050 A 
ATOM     13  C   UNL     1      81.420  92.492  89.249  1.00  0.00     0.009 A 
BRANCH   9  14
ATOM     14  O   UNL     1      84.342  91.322  86.487  1.00  0.00    -0.493 OA
ATOM     15  C   UNL     1      84.747  89.949  86.636  1.00  0.00     0.278 C 
ENDBRANCH   9  14
BRANCH  10  16
ATOM     16  O   UNL     1      84.191  93.981  87.348  1.00  0.00    -0.504 OA
ATOM     17  H   UNL     1      84.741  94.298  88.068  1.00  0.00     0.293 HD
ENDBRANCH  10  16
ENDBRANCH   7   8
ENDBRANCH   4   7
ENDBRANCH   2   3
ENDBRANCH   1   2
BRANCH   1  18
ATOM     18  C   UNL     1      82.023  85.733  85.923  1.00  0.00     0.001 C 
BRANCH  18  19
ATOM     19  C   UNL     1      80.646  85.814  85.206  1.00  0.00     0.000 C 
BRANCH  19  20
ATOM     20  C   UNL     1      80.707  86.734  83.953  1.00  0.00     0.000 C 
BRANCH  20  21
ATOM     21  C   UNL     1      79.802  87.993  84.043  1.00  0.00     0.003 C 
BRANCH  21  22
ATOM     22  C   UNL     1      80.373  89.143  84.936  1.00  0.00    -0.017 C 
ATOM     23  C   UNL     1      79.300  90.247  85.153  1.00  0.00     0.007 C 
ATOM     24  C   UNL     1      81.691  89.764  84.387  1.00  0.00     0.007 C 
ENDBRANCH  21  22
ENDBRANCH  20  21
ENDBRANCH  19  20
ENDBRANCH  18  19
ENDBRANCH   1  18
TORSDOF 11
ENDMDL
MODEL 6
REMARK VINA RESULT:    -5.874      3.117      5.346
REMARK INTER + INTRA:         -10.343
REMARK INTER:                  -9.612
REMARK INTRA:                  -0.731
REMARK UNBOUND:                -0.864
REMARK SMILES COc1cc(CNC(=O)CCCCCCC(C)C)ccc1O
REMARK SMILES IDX 11 1 10 2 8 3 7 4 9 6 6 7 5 8 3 9 21 10 4 11 20 12 19 13
REMARK SMILES IDX 2 14 1 15 22 16 12 18 13 19 14 20 15 21 16 22 17 23 18 24
REMARK H PARENT 7 5 22 17
REMARK Flexibility Score: inf
ROOT
ATOM      1  C   UNL     1      97.187  95.139  76.550  1.00  0.00     0.010 C 
ENDROOT
BRANCH   1   2
ATOM      2  C   UNL     1      96.241  93.930  76.312  1.00  0.00     0.100 C 
BRANCH   2   3
ATOM      3  C   UNL     1      95.031  93.958  77.164  1.00  0.00     0.220 C 
ATOM      4  N   UNL     1      93.808  93.669  76.633  1.00  0.00    -0.352 N 
ATOM      5  H   UNL     1      93.811  93.489  75.640  1.00  0.00     0.163 HD
ATOM      6  O   UNL     1      95.160  94.227  78.383  1.00  0.00    -0.275 OA
BRANCH   4   7
ATOM      7  C   UNL     1      92.582  93.608  77.370  1.00  0.00     0.151 C 
BRANCH   7   8
ATOM      8  C   UNL     1      91.597  92.653  76.790  1.00  0.00    -0.025 A 
ATOM      9  C   UNL     1      90.906  91.147  74.973  1.00  0.00     0.160 A 
ATOM     10  C   UNL     1      89.746  90.800  75.699  1.00  0.00     0.157 A 
ATOM     11  C   UNL     1      91.811  92.084  75.515  1.00  0.00     0.056 A 
ATOM     12  C   UNL     1      89.501  91.390  76.952  1.00  0.00     0.050 A 
ATOM     13  C   UNL     1      90.424  92.302  77.500  1.00  0.00     0.009 A 
BRANCH   9  14
ATOM     14  O   UNL     1      91.134  90.609  73.735  1.00  0.00    -0.493 OA
ATOM     15  C   UNL     1      90.772  91.481  72.649  1.00  0.00     0.278 C 
ENDBRANCH   9  14
BRANCH  10  16
ATOM     16  O   UNL     1      88.855  89.902  75.200  1.00  0.00    -0.504 OA
ATOM     17  H   UNL     1      88.222  89.668  75.883  1.00  0.00     0.293 HD
ENDBRANCH  10  16
ENDBRANCH   7   8
ENDBRANCH   4   7
ENDBRANCH   2   3
ENDBRANCH   1   2
BRANCH   1  18
ATOM     18  C   UNL     1      96.632  96.451  75.926  1.00  0.00     0.001 C 
BRANCH  18  19
ATOM     19  C   UNL     1      96.128  96.285  74.464  1.00  0.00     0.000 C 
BRANCH  19  20
ATOM     20  C   UNL     1      94.824  97.095  74.214  1.00  0.00     0.000 C 
BRANCH  20  21
ATOM     21  C   UNL     1      94.898  98.060  72.999  1.00  0.00     0.003 C 
BRANCH  21  22
ATOM     22  C   UNL     1      93.508  98.519  72.448  1.00  0.00    -0.017 C 
ATOM     23  C   UNL     1      93.511  98.513  70.893  1.00  0.00     0.007 C 
ATOM     24  C   UNL     1      93.049  99.906  72.986  1.00  0.00     0.007 C 
ENDBRANCH  21  22
ENDBRANCH  20  21
ENDBRANCH  19  20
ENDBRANCH  18  19
ENDBRANCH   1  18
TORSDOF 11
ENDMDL
MODEL 7
REMARK VINA RESULT:    -5.841      3.062      5.534
REMARK INTER + INTRA:         -10.291
REMARK INTER:                  -9.621
REMARK INTRA:                  -0.670
REMARK UNBOUND:                -0.864
REMARK SMILES COc1cc(CNC(=O)CCCCCCC(C)C)ccc1O
REMARK SMILES IDX 11 1 10 2 8 3 7 4 9 6 6 7 5 8 3 9 21 10 4 11 20 12 19 13
REMARK SMILES IDX 2 14 1 15 22 16 12 18 13 19 14 20 15 21 16 22 17 23 18 24
REMARK H PARENT 7 5 22 17
REMARK Flexibility Score: inf
ROOT
ATOM      1  C   UNL     1      97.327  95.203  76.492  1.00  0.00     0.010 C 
ENDROOT
BRANCH   1   2
ATOM      2  C   UNL     1      96.478  93.902  76.491  1.00  0.00     0.100 C 
BRANCH   2   3
ATOM      3  C   UNL     1      95.253  94.002  77.315  1.00  0.00     0.220 C 
ATOM      4  N   UNL     1      94.049  93.603  76.812  1.00  0.00    -0.352 N 
ATOM      5  H   UNL     1      94.076  93.291  75.852  1.00  0.00     0.163 HD
ATOM      6  O   UNL     1      95.351  94.437  78.489  1.00  0.00    -0.275 OA
BRANCH   4   7
ATOM      7  C   UNL     1      92.813  93.599  77.534  1.00  0.00     0.151 C 
BRANCH   7   8
ATOM      8  C   UNL     1      91.793  92.687  76.946  1.00  0.00    -0.025 A 
ATOM      9  C   UNL     1      91.060  91.202  75.127  1.00  0.00     0.160 A 
ATOM     10  C   UNL     1      89.875  90.914  75.838  1.00  0.00     0.157 A 
ATOM     11  C   UNL     1      92.000  92.100  75.677  1.00  0.00     0.056 A 
ATOM     12  C   UNL     1      89.639  91.522  77.084  1.00  0.00     0.050 A 
ATOM     13  C   UNL     1      90.595  92.395  77.640  1.00  0.00     0.009 A 
BRANCH   9  14
ATOM     14  O   UNL     1      91.281  90.646  73.896  1.00  0.00    -0.493 OA
ATOM     15  C   UNL     1      90.952  91.517  72.799  1.00  0.00     0.278 C 
ENDBRANCH   9  14
BRANCH  10  16
ATOM     16  O   UNL     1      88.951  90.054  75.332  1.00  0.00    -0.504 OA
ATOM     17  H   UNL     1      88.298  89.854  76.006  1.00  0.00     0.293 HD
ENDBRANCH  10  16
ENDBRANCH   7   8
ENDBRANCH   4   7
ENDBRANCH   2   3
ENDBRANCH   1   2
BRANCH   1  18
ATOM     18  C   UNL     1      96.731  96.294  75.557  1.00  0.00     0.001 C 
BRANCH  18  19
ATOM     19  C   UNL     1      96.636  95.858  74.067  1.00  0.00     0.000 C 
BRANCH  19  20
ATOM     20  C   UNL     1      97.366  96.861  73.131  1.00  0.00     0.000 C 
BRANCH  20  21
ATOM     21  C   UNL     1      98.301  96.192  72.085  1.00  0.00     0.003 C 
BRANCH  21  22
ATOM     22  C   UNL     1      97.625  95.892  70.707  1.00  0.00    -0.017 C 
ATOM     23  C   UNL     1      98.701  95.566  69.633  1.00  0.00     0.007 C 
ATOM     24  C   UNL     1      96.686  97.030  70.210  1.00  0.00     0.007 C 
ENDBRANCH  21  22
ENDBRANCH  20  21
ENDBRANCH  19  20
ENDBRANCH  18  19
ENDBRANCH   1  18
TORSDOF 11
ENDMDL
MODEL 8
REMARK VINA RESULT:    -5.793     24.240     26.945
REMARK INTER + INTRA:         -10.213
REMARK INTER:                  -7.961
REMARK INTRA:                  -2.252
REMARK UNBOUND:                -0.864
REMARK SMILES COc1cc(CNC(=O)CCCCCCC(C)C)ccc1O
REMARK SMILES IDX 11 1 10 2 8 3 7 4 9 6 6 7 5 8 3 9 21 10 4 11 20 12 19 13
REMARK SMILES IDX 2 14 1 15 22 16 12 18 13 19 14 20 15 21 16 22 17 23 18 24
REMARK H PARENT 7 5 22 17
REMARK Flexibility Score: inf
ROOT
ATOM      1  C   UNL     1      80.191  65.105  73.185  1.00  0.00     0.010 C 
ENDROOT
BRANCH   1   2
ATOM      2  C   UNL     1      80.196  66.277  74.205  1.00  0.00     0.100 C 
BRANCH   2   3
ATOM      3  C   UNL     1      81.150  66.078  75.319  1.00  0.00     0.220 C 
ATOM      4  N   UNL     1      81.827  64.900  75.445  1.00  0.00    -0.352 N 
ATOM      5  H   UNL     1      81.584  64.200  74.760  1.00  0.00     0.163 HD
ATOM      6  O   UNL     1      81.338  67.022  76.125  1.00  0.00    -0.275 OA
BRANCH   4   7
ATOM      7  C   UNL     1      82.812  64.616  76.444  1.00  0.00     0.151 C 
BRANCH   7   8
ATOM      8  C   UNL     1      84.183  65.048  76.054  1.00  0.00    -0.025 A 
ATOM      9  C   UNL     1      85.983  66.723  76.105  1.00  0.00     0.160 A 
ATOM     10  C   UNL     1      86.810  65.859  75.354  1.00  0.00     0.157 A 
ATOM     11  C   UNL     1      84.672  66.319  76.433  1.00  0.00     0.056 A 
ATOM     12  C   UNL     1      86.322  64.608  74.938  1.00  0.00     0.050 A 
ATOM     13  C   UNL     1      85.022  64.199  75.294  1.00  0.00     0.009 A 
BRANCH   9  14
ATOM     14  O   UNL     1      86.435  67.959  76.481  1.00  0.00    -0.493 OA
ATOM     15  C   UNL     1      85.388  68.863  76.878  1.00  0.00     0.278 C 
ENDBRANCH   9  14
BRANCH  10  16
ATOM     16  O   UNL     1      88.077  66.223  75.023  1.00  0.00    -0.504 OA
ATOM     17  H   UNL     1      88.055  67.050  74.536  1.00  0.00     0.293 HD
ENDBRANCH  10  16
ENDBRANCH   7   8
ENDBRANCH   4   7
ENDBRANCH   2   3
ENDBRANCH   1   2
BRANCH   1  18
ATOM     18  C   UNL     1      80.300  65.605  71.716  1.00  0.00     0.001 C 
BRANCH  18  19
ATOM     19  C   UNL     1      80.347  67.153  71.583  1.00  0.00     0.000 C 
BRANCH  19  20
ATOM     20  C   UNL     1      81.770  67.652  71.207  1.00  0.00     0.000 C 
BRANCH  20  21
ATOM     21  C   UNL     1      82.467  68.487  72.318  1.00  0.00     0.003 C 
BRANCH  21  22
ATOM     22  C   UNL     1      83.589  67.725  73.096  1.00  0.00    -0.017 C 
ATOM     23  C   UNL     1      84.898  68.564  73.123  1.00  0.00     0.007 C 
ATOM     24  C   UNL     1      83.869  66.295  72.549  1.00  0.00     0.007 C 
ENDBRANCH  21  22
ENDBRANCH  20  21
ENDBRANCH  19  20
ENDBRANCH  18  19
ENDBRANCH   1  18
TORSDOF 11
ENDMDL
MODEL 9
REMARK VINA RESULT:    -5.623      2.576      5.044
REMARK INTER + INTRA:          -9.939
REMARK INTER:                  -8.883
REMARK INTRA:                  -1.057
REMARK UNBOUND:                -0.864
REMARK SMILES COc1cc(CNC(=O)CCCCCCC(C)C)ccc1O
REMARK SMILES IDX 11 1 10 2 8 3 7 4 9 6 6 7 5 8 3 9 21 10 4 11 20 12 19 13
REMARK SMILES IDX 2 14 1 15 22 16 12 18 13 19 14 20 15 21 16 22 17 23 18 24
REMARK H PARENT 7 5 22 17
REMARK Flexibility Score: inf
ROOT
ATOM      1  C   UNL     1      96.088  95.573  75.289  1.00  0.00     0.010 C 
ENDROOT
BRANCH   1   2
ATOM      2  C   UNL     1      95.620  94.092  75.320  1.00  0.00     0.100 C 
BRANCH   2   3
ATOM      3  C   UNL     1      94.253  93.921  75.862  1.00  0.00     0.220 C 
ATOM      4  N   UNL     1      93.249  93.456  75.064  1.00  0.00    -0.352 N 
ATOM      5  H   UNL     1      93.515  93.293  74.104  1.00  0.00     0.163 HD
ATOM      6  O   UNL     1      94.047  94.190  77.071  1.00  0.00    -0.275 OA
BRANCH   4   7
ATOM      7  C   UNL     1      91.907  93.197  75.491  1.00  0.00     0.151 C 
BRANCH   7   8
ATOM      8  C   UNL     1      91.087  92.504  74.459  1.00  0.00    -0.025 A 
ATOM      9  C   UNL     1      90.253  90.425  73.445  1.00  0.00     0.160 A 
ATOM     10  C   UNL     1      89.491  91.177  72.525  1.00  0.00     0.157 A 
ATOM     11  C   UNL     1      91.059  91.093  74.391  1.00  0.00     0.056 A 
ATOM     12  C   UNL     1      89.541  92.582  72.557  1.00  0.00     0.050 A 
ATOM     13  C   UNL     1      90.324  93.243  73.524  1.00  0.00     0.009 A 
BRANCH   9  14
ATOM     14  O   UNL     1      90.242  89.057  73.397  1.00  0.00    -0.493 OA
ATOM     15  C   UNL     1      89.717  88.439  74.586  1.00  0.00     0.278 C 
ENDBRANCH   9  14
BRANCH  10  16
ATOM     16  O   UNL     1      88.707  90.560  71.601  1.00  0.00    -0.504 OA
ATOM     17  H   UNL     1      87.818  90.919  71.646  1.00  0.00     0.293 HD
ENDBRANCH  10  16
ENDBRANCH   7   8
ENDBRANCH   4   7
ENDBRANCH   2   3
ENDBRANCH   1   2
BRANCH   1  18
ATOM     18  C   UNL     1      94.997  96.521  74.713  1.00  0.00     0.001 C 
BRANCH  18  19
ATOM     19  C   UNL     1      95.551  97.890  74.225  1.00  0.00     0.000 C 
BRANCH  19  20
ATOM     20  C   UNL     1      95.901  97.858  72.711  1.00  0.00     0.000 C 
BRANCH  20  21
ATOM     21  C   UNL     1      97.337  98.349  72.378  1.00  0.00     0.003 C 
BRANCH  21  22
ATOM     22  C   UNL     1      98.422  97.223  72.357  1.00  0.00    -0.017 C 
ATOM     23  C   UNL     1      97.793  95.872  71.912  1.00  0.00     0.007 C 
ATOM     24  C   UNL     1      99.176  97.054  73.709  1.00  0.00     0.007 C 
ENDBRANCH  21  22
ENDBRANCH  20  21
ENDBRANCH  19  20
ENDBRANCH  18  19
ENDBRANCH   1  18
TORSDOF 11
ENDMDL
MODEL 10
REMARK VINA RESULT:    -5.593     25.058     27.269
REMARK INTER + INTRA:          -9.890
REMARK INTER:                  -8.005
REMARK INTRA:                  -1.886
REMARK UNBOUND:                -0.864
REMARK SMILES COc1cc(CNC(=O)CCCCCCC(C)C)ccc1O
REMARK SMILES IDX 11 1 10 2 8 3 7 4 9 6 6 7 5 8 3 9 21 10 4 11 20 12 19 13
REMARK SMILES IDX 2 14 1 15 22 16 12 18 13 19 14 20 15 21 16 22 17 23 18 24
REMARK H PARENT 7 5 22 17
REMARK Flexibility Score: inf
ROOT
ATOM      1  C   UNL     1      80.305  66.806  73.223  1.00  0.00     0.010 C 
ENDROOT
BRANCH   1   2
ATOM      2  C   UNL     1      80.939  67.798  72.209  1.00  0.00     0.100 C 
BRANCH   2   3
ATOM      3  C   UNL     1      82.418  67.737  72.178  1.00  0.00     0.220 C 
ATOM      4  N   UNL     1      83.126  67.596  73.336  1.00  0.00    -0.352 N 
ATOM      5  H   UNL     1      82.565  67.586  74.174  1.00  0.00     0.163 HD
ATOM      6  O   UNL     1      82.999  67.792  71.067  1.00  0.00    -0.275 OA
BRANCH   4   7
ATOM      7  C   UNL     1      84.549  67.468  73.423  1.00  0.00     0.151 C 
BRANCH   7   8
ATOM      8  C   UNL     1      85.034  67.245  74.813  1.00  0.00    -0.025 A 
ATOM      9  C   UNL     1      86.490  66.050  76.395  1.00  0.00     0.160 A 
ATOM     10  C   UNL     1      85.995  66.843  77.453  1.00  0.00     0.157 A 
ATOM     11  C   UNL     1      85.993  66.244  75.089  1.00  0.00     0.056 A 
ATOM     12  C   UNL     1      85.011  67.816  77.198  1.00  0.00     0.050 A 
ATOM     13  C   UNL     1      84.541  68.024  75.887  1.00  0.00     0.009 A 
BRANCH   9  14
ATOM     14  O   UNL     1      87.418  65.074  76.638  1.00  0.00    -0.493 OA
ATOM     15  C   UNL     1      86.886  63.739  76.570  1.00  0.00     0.278 C 
ENDBRANCH   9  14
BRANCH  10  16
ATOM     16  O   UNL     1      86.454  66.677  78.721  1.00  0.00    -0.504 OA
ATOM     17  H   UNL     1      87.161  66.027  78.723  1.00  0.00     0.293 HD
ENDBRANCH  10  16
ENDBRANCH   7   8
ENDBRANCH   4   7
ENDBRANCH   2   3
ENDBRANCH   1   2
BRANCH   1  18
ATOM     18  C   UNL     1      80.197  65.366  72.646  1.00  0.00     0.001 C 
BRANCH  18  19
ATOM     19  C   UNL     1      79.869  64.286  73.715  1.00  0.00     0.000 C 
BRANCH  19  20
ATOM     20  C   UNL     1      81.144  63.512  74.154  1.00  0.00     0.000 C 
BRANCH  20  21
ATOM     21  C   UNL     1      82.253  64.408  74.771  1.00  0.00     0.003 C 
BRANCH  21  22
ATOM     22  C   UNL     1      82.070  64.714  76.294  1.00  0.00    -0.017 C 
ATOM     23  C   UNL     1      81.672  66.202  76.505  1.00  0.00     0.007 C 
ATOM     24  C   UNL     1      83.314  64.355  77.158  1.00  0.00     0.007 C 
ENDBRANCH  21  22
ENDBRANCH  20  21
ENDBRANCH  19  20
ENDBRANCH  18  19
ENDBRANCH   1  18
TORSDOF 11
ENDMDL
