MODEL 1
REMARK VINA RESULT:    -8.001      0.000      0.000
REMARK INTER + INTRA:         -14.130
REMARK INTER:                 -13.615
REMARK INTRA:                  -0.515
REMARK UNBOUND:                -0.515
REMARK SMILES C=C(C)[C@]12C[C@@H](C)[C@@]34O[C@](Cc5ccccc5)(O[C@@H]1[C@@H]3C=C(COC(=O)Cc1ccc(O)cc1)C[C@]1(O)C(=O)C(C)=C[C@@H]41)O2
REMARK SMILES IDX 23 1 22 2 21 3 20 4 9 5 8 6 10 7 6 8 18 10 44 11 19 12 5 13
REMARK SMILES IDX 7 14 4 15 11 16 12 17 13 18 17 19 14 20 16 21 15 22 2 23
REMARK SMILES IDX 3 24 1 25 35 26 36 27 43 28 38 29 42 30 39 32 40 33 41 34
REMARK SMILES IDX 37 35 24 37 25 38 26 39 27 40 28 41 29 42 34 43 30 44 33 45
REMARK SMILES IDX 31 46 32 47
REMARK H PARENT 37 36 32 48
REMARK Flexibility Score: 90.00
ROOT
ATOM      1  C   UNL     1      92.565  78.536  84.798  1.00  0.00     0.264 C 
ENDROOT
BRANCH   1   2
ATOM      2  C   UNL     1      93.694  79.401  85.308  1.00  0.00    -0.033 C 
ATOM      3  C   UNL     1      94.830  79.497  84.586  1.00  0.00    -0.015 C 
BRANCH   3   4
ATOM      4  C   UNL     1      96.122  80.229  84.912  1.00  0.00     0.078 C 
ATOM      5  O   UNL     1      95.950  82.479  83.900  1.00  0.00    -0.319 OA
ATOM      6  C   UNL     1      96.058  81.778  85.178  1.00  0.00     0.095 CG0
ATOM      7  C   UNL     1      96.799  81.979  82.850  1.00  0.00     0.289 C 
ATOM      8  C   UNL     1      97.408  82.197  85.893  1.00  0.00     0.023 C 
ATOM      9  G   UNL     1      94.753  82.155  85.939  1.00  0.00     0.000 G0
ATOM     10  O   UNL     1      96.553  80.598  82.598  1.00  0.00    -0.320 OA
ATOM     11  O   UNL     1      98.183  82.068  83.183  1.00  0.00    -0.313 OA
ATOM     12  C   UNL     1      97.147  80.019  83.770  1.00  0.00     0.170 C 
ATOM     13  C   UNL     1      98.608  81.330  85.405  1.00  0.00     0.049 C 
ATOM     14  C   UNL     1      97.778  83.687  85.786  1.00  0.00     0.011 C 
ATOM     15  C   UNL     1      98.424  80.875  83.956  1.00  0.00     0.122 C 
BRANCH   7  16
ATOM     16  C   UNL     1      96.529  82.786  81.596  1.00  0.00     0.135 C 
BRANCH  16  17
ATOM     17  C   UNL     1      97.347  82.303  80.424  1.00  0.00    -0.040 A 
ATOM     18  C   UNL     1      97.377  80.945  80.107  1.00  0.00     0.004 A 
ATOM     19  C   UNL     1      98.073  83.215  79.659  1.00  0.00     0.004 A 
ATOM     20  C   UNL     1      98.134  80.499  79.022  1.00  0.00     0.000 A 
ATOM     21  C   UNL     1      98.829  82.768  78.575  1.00  0.00     0.000 A 
ATOM     22  C   UNL     1      98.859  81.411  78.257  1.00  0.00     0.000 A 
ENDBRANCH  16  17
ENDBRANCH   7  16
BRANCH  15  23
ATOM     23  C   UNL     1      99.638  80.198  83.409  1.00  0.00    -0.046 C 
ATOM     24  C   UNL     1     100.367  80.926  82.319  1.00  0.00     0.042 C 
ATOM     25  C   UNL     1     100.053  79.007  83.866  1.00  0.00     0.010 C 
ENDBRANCH  15  23
ENDBRANCH   3   4
BRANCH   2  26
ATOM     26  C   UNL     1      93.374  80.082  86.625  1.00  0.00     0.078 C 
BRANCH  26  27
ATOM     27  C   UNL     1      94.338  81.167  87.103  1.00  0.00     0.140 C 
ATOM     28  C   UNL     1      94.744  82.128  85.967  1.00  0.00     0.086 CG0
ATOM     29  C   UNL     1      93.704  82.103  88.110  1.00  0.00     0.190 C 
ATOM     30  C   UNL     1      94.606  83.488  86.593  1.00  0.00    -0.010 C 
ATOM     31  G   UNL     1      96.051  81.769  85.200  1.00  0.00     0.000 G0
ATOM     32  O   UNL     1      93.071  81.759  89.096  1.00  0.00    -0.291 OA
ATOM     33  C   UNL     1      94.001  83.511  87.783  1.00  0.00    -0.008 C 
ATOM     34  C   UNL     1      93.627  84.656  88.639  1.00  0.00     0.048 C 
BRANCH  27  35
ATOM     35  O   UNL     1      95.438  80.611  87.804  1.00  0.00    -0.381 OA
ATOM     36  H   UNL     1      96.072  81.323  87.993  1.00  0.00     0.212 HD
ENDBRANCH  27  35
ENDBRANCH  26  27
ENDBRANCH   2  26
ENDBRANCH   1   2
BRANCH   1  37
ATOM     37  O   UNL     1      91.337  79.044  85.272  1.00  0.00    -0.461 OA
BRANCH  37  38
ATOM     38  C   UNL     1      90.269  78.957  84.409  1.00  0.00     0.310 C 
ATOM     39  O   UNL     1      89.503  78.007  84.333  1.00  0.00    -0.252 OA
BRANCH  38  40
ATOM     40  C   UNL     1      90.191  80.214  83.575  1.00  0.00     0.158 C 
BRANCH  40  41
ATOM     41  C   UNL     1      88.989  81.062  83.901  1.00  0.00    -0.037 A 
ATOM     42  C   UNL     1      89.078  82.052  84.879  1.00  0.00     0.008 A 
ATOM     43  C   UNL     1      87.787  80.857  83.224  1.00  0.00     0.008 A 
ATOM     44  C   UNL     1      87.965  82.837  85.181  1.00  0.00     0.046 A 
ATOM     45  C   UNL     1      86.674  81.642  83.525  1.00  0.00     0.046 A 
ATOM     46  C   UNL     1      86.763  82.631  84.504  1.00  0.00     0.115 A 
BRANCH  46  47
ATOM     47  O   UNL     1      85.677  83.397  84.799  1.00  0.00    -0.508 OA
ATOM     48  H   UNL     1      85.871  83.928  85.590  1.00  0.00     0.293 HD
ENDBRANCH  46  47
ENDBRANCH  40  41
ENDBRANCH  38  40
ENDBRANCH  37  38
ENDBRANCH   1  37
TORSDOF 10
ENDMDL
MODEL 2
REMARK VINA RESULT:    -7.615     18.477     21.192
REMARK INTER + INTRA:         -13.472
REMARK INTER:                 -12.785
REMARK INTRA:                  -0.687
REMARK UNBOUND:                -0.515
REMARK SMILES C=C(C)[C@]12C[C@@H](C)[C@@]34O[C@](Cc5ccccc5)(O[C@@H]1[C@@H]3C=C(COC(=O)Cc1ccc(O)cc1)C[C@]1(O)C(=O)C(C)=C[C@@H]41)O2
REMARK SMILES IDX 23 1 22 2 21 3 20 4 9 5 8 6 10 7 6 8 18 10 44 11 19 12 5 13
REMARK SMILES IDX 7 14 4 15 11 16 12 17 13 18 17 19 14 20 16 21 15 22 2 23
REMARK SMILES IDX 3 24 1 25 35 26 36 27 43 28 38 29 42 30 39 32 40 33 41 34
REMARK SMILES IDX 37 35 24 37 25 38 26 39 27 40 28 41 29 42 34 43 30 44 33 45
REMARK SMILES IDX 31 46 32 47
REMARK H PARENT 37 36 32 48
REMARK Flexibility Score: 90.00
ROOT
ATOM      1  C   UNL     1      94.113  96.221  75.408  1.00  0.00     0.264 C 
ENDROOT
BRANCH   1   2
ATOM      2  C   UNL     1      94.808  97.403  74.772  1.00  0.00    -0.033 C 
ATOM      3  C   UNL     1      94.515  97.731  73.497  1.00  0.00    -0.015 C 
BRANCH   3   4
ATOM      4  C   UNL     1      95.121  98.811  72.614  1.00  0.00     0.078 C 
ATOM      5  O   UNL     1      93.725 100.833  72.889  1.00  0.00    -0.319 OA
ATOM      6  C   UNL     1      95.068 100.302  73.113  1.00  0.00     0.095 CG0
ATOM      7  C   UNL     1      93.131 100.492  71.622  1.00  0.00     0.289 C 
ATOM      8  C   UNL     1      96.110 101.132  72.255  1.00  0.00     0.023 C 
ATOM      9  G   UNL     1      95.263 100.377  74.656  1.00  0.00     0.000 G0
ATOM     10  O   UNL     1      93.063  99.080  71.446  1.00  0.00    -0.320 OA
ATOM     11  O   UNL     1      93.890 100.981  70.518  1.00  0.00    -0.313 OA
ATOM     12  C   UNL     1      94.451  98.787  71.219  1.00  0.00     0.170 C 
ATOM     13  C   UNL     1      96.219 100.582  70.800  1.00  0.00     0.049 C 
ATOM     14  C   UNL     1      95.868 102.651  72.209  1.00  0.00     0.011 C 
ATOM     15  C   UNL     1      94.900  99.970  70.326  1.00  0.00     0.122 C 
BRANCH   7  16
ATOM     16  C   UNL     1      91.736 101.083  71.577  1.00  0.00     0.135 C 
BRANCH  16  17
ATOM     17  C   UNL     1      91.333 101.477  70.178  1.00  0.00    -0.040 A 
ATOM     18  C   UNL     1      90.923 100.502  69.269  1.00  0.00     0.004 A 
ATOM     19  C   UNL     1      91.370 102.817  69.794  1.00  0.00     0.004 A 
ATOM     20  C   UNL     1      90.550 100.867  67.975  1.00  0.00     0.000 A 
ATOM     21  C   UNL     1      90.997 103.182  68.500  1.00  0.00     0.000 A 
ATOM     22  C   UNL     1      90.587 102.207  67.591  1.00  0.00     0.000 A 
ENDBRANCH  16  17
ENDBRANCH   7  16
BRANCH  15  23
ATOM     23  C   UNL     1      94.926  99.601  68.878  1.00  0.00    -0.046 C 
ATOM     24  C   UNL     1      95.608  98.310  68.536  1.00  0.00     0.042 C 
ATOM     25  C   UNL     1      94.372 100.381  67.938  1.00  0.00     0.010 C 
ENDBRANCH  15  23
ENDBRANCH   3   4
BRANCH   2  26
ATOM     26  C   UNL     1      95.783  98.095  75.706  1.00  0.00     0.078 C 
BRANCH  26  27
ATOM     27  C   UNL     1      96.357  99.434  75.249  1.00  0.00     0.140 C 
ATOM     28  C   UNL     1      95.274 100.365  74.667  1.00  0.00     0.086 CG0
ATOM     29  C   UNL     1      96.907 100.252  76.398  1.00  0.00     0.190 C 
ATOM     30  C   UNL     1      95.563 101.689  75.319  1.00  0.00    -0.010 C 
ATOM     31  G   UNL     1      95.071 100.302  73.125  1.00  0.00     0.000 G0
ATOM     32  O   UNL     1      97.665  99.839  77.262  1.00  0.00    -0.291 OA
ATOM     33  C   UNL     1      96.455 101.654  76.314  1.00  0.00    -0.008 C 
ATOM     34  C   UNL     1      96.914 102.729  77.217  1.00  0.00     0.048 C 
BRANCH  27  35
ATOM     35  O   UNL     1      97.476  99.254  74.396  1.00  0.00    -0.381 OA
ATOM     36  H   UNL     1      97.211  98.676  73.661  1.00  0.00     0.212 HD
ENDBRANCH  27  35
ENDBRANCH  26  27
ENDBRANCH   2  26
ENDBRANCH   1   2
BRANCH   1  37
ATOM     37  O   UNL     1      94.301  96.268  76.807  1.00  0.00    -0.461 OA
BRANCH  37  38
ATOM     38  C   UNL     1      93.390  95.569  77.566  1.00  0.00     0.310 C 
ATOM     39  O   UNL     1      93.669  94.863  78.524  1.00  0.00    -0.252 OA
BRANCH  38  40
ATOM     40  C   UNL     1      91.999  95.811  77.031  1.00  0.00     0.158 C 
BRANCH  40  41
ATOM     41  C   UNL     1      91.281  94.539  76.664  1.00  0.00    -0.037 A 
ATOM     42  C   UNL     1      91.292  94.087  75.344  1.00  0.00     0.008 A 
ATOM     43  C   UNL     1      90.604  93.812  77.643  1.00  0.00     0.008 A 
ATOM     44  C   UNL     1      90.626  92.909  75.004  1.00  0.00     0.046 A 
ATOM     45  C   UNL     1      89.939  92.633  77.304  1.00  0.00     0.046 A 
ATOM     46  C   UNL     1      89.949  92.182  75.984  1.00  0.00     0.115 A 
BRANCH  46  47
ATOM     47  O   UNL     1      89.300  91.034  75.652  1.00  0.00    -0.508 OA
ATOM     48  H   UNL     1      88.385  91.250  75.400  1.00  0.00     0.293 HD
ENDBRANCH  46  47
ENDBRANCH  40  41
ENDBRANCH  38  40
ENDBRANCH  37  38
ENDBRANCH   1  37
TORSDOF 10
ENDMDL
MODEL 3
REMARK VINA RESULT:    -7.333     19.524     22.277
REMARK INTER + INTRA:         -12.993
REMARK INTER:                 -12.157
REMARK INTRA:                  -0.836
REMARK UNBOUND:                -0.515
REMARK SMILES C=C(C)[C@]12C[C@@H](C)[C@@]34O[C@](Cc5ccccc5)(O[C@@H]1[C@@H]3C=C(COC(=O)Cc1ccc(O)cc1)C[C@]1(O)C(=O)C(C)=C[C@@H]41)O2
REMARK SMILES IDX 23 1 22 2 21 3 20 4 9 5 8 6 10 7 6 8 18 10 44 11 19 12 5 13
REMARK SMILES IDX 7 14 4 15 11 16 12 17 13 18 17 19 14 20 16 21 15 22 2 23
REMARK SMILES IDX 3 24 1 25 35 26 36 27 43 28 38 29 42 30 39 32 40 33 41 34
REMARK SMILES IDX 37 35 24 37 25 38 26 39 27 40 28 41 29 42 34 43 30 44 33 45
REMARK SMILES IDX 31 46 32 47
REMARK H PARENT 37 36 32 48
REMARK Flexibility Score: 90.00
ROOT
ATOM      1  C   UNL     1      93.948  96.734  74.098  1.00  0.00     0.264 C 
ENDROOT
BRANCH   1   2
ATOM      2  C   UNL     1      94.324  98.102  73.578  1.00  0.00    -0.033 C 
ATOM      3  C   UNL     1      93.569  98.672  72.616  1.00  0.00    -0.015 C 
BRANCH   3   4
ATOM      4  C   UNL     1      93.774  99.987  71.880  1.00  0.00     0.078 C 
ATOM      5  O   UNL     1      92.477 101.704  73.099  1.00  0.00    -0.319 OA
ATOM      6  C   UNL     1      93.834 101.314  72.722  1.00  0.00     0.095 CG0
ATOM      7  C   UNL     1      91.488 101.573  72.060  1.00  0.00     0.289 C 
ATOM      8  C   UNL     1      94.465 102.438  71.801  1.00  0.00     0.023 C 
ATOM      9  G   UNL     1      94.560 101.076  74.079  1.00  0.00     0.000 G0
ATOM     10  O   UNL     1      91.425 100.236  71.572  1.00  0.00    -0.320 OA
ATOM     11  O   UNL     1      91.783 102.384  70.925  1.00  0.00    -0.313 OA
ATOM     12  C   UNL     1      92.653 100.181  70.829  1.00  0.00     0.170 C 
ATOM     13  C   UNL     1      94.075 102.237  70.305  1.00  0.00     0.049 C 
ATOM     14  C   UNL     1      94.155 103.886  72.218  1.00  0.00     0.011 C 
ATOM     15  C   UNL     1      92.703 101.577  70.161  1.00  0.00     0.122 C 
BRANCH   7  16
ATOM     16  C   UNL     1      90.143 101.974  72.631  1.00  0.00     0.135 C 
BRANCH  16  17
ATOM     17  C   UNL     1      89.141 102.294  71.550  1.00  0.00    -0.040 A 
ATOM     18  C   UNL     1      88.570 101.266  70.801  1.00  0.00     0.004 A 
ATOM     19  C   UNL     1      88.786 103.619  71.300  1.00  0.00     0.004 A 
ATOM     20  C   UNL     1      87.643 101.562  69.802  1.00  0.00     0.000 A 
ATOM     21  C   UNL     1      87.858 103.916  70.300  1.00  0.00     0.000 A 
ATOM     22  C   UNL     1      87.288 102.887  69.552  1.00  0.00     0.000 A 
ENDBRANCH  16  17
ENDBRANCH   7  16
BRANCH  15  23
ATOM     23  C   UNL     1      92.230 101.539  68.744  1.00  0.00    -0.046 C 
ATOM     24  C   UNL     1      91.207 102.566  68.360  1.00  0.00     0.042 C 
ATOM     25  C   UNL     1      92.693 100.637  67.866  1.00  0.00     0.010 C 
ENDBRANCH  15  23
ENDBRANCH   3   4
BRANCH   2  26
ATOM     26  C   UNL     1      95.558  98.677  74.249  1.00  0.00     0.078 C 
BRANCH  26  27
ATOM     27  C   UNL     1      95.848 100.159  74.024  1.00  0.00     0.140 C 
ATOM     28  C   UNL     1      94.569 101.019  74.078  1.00  0.00     0.086 CG0
ATOM     29  C   UNL     1      96.690 100.760  75.130  1.00  0.00     0.190 C 
ATOM     30  C   UNL     1      94.963 102.180  74.947  1.00  0.00    -0.010 C 
ATOM     31  G   UNL     1      93.867 101.290  72.715  1.00  0.00     0.000 G0
ATOM     32  O   UNL     1      97.721 100.279  75.576  1.00  0.00    -0.291 OA
ATOM     33  C   UNL     1      96.136 102.053  75.575  1.00  0.00    -0.008 C 
ATOM     34  C   UNL     1      96.793 102.942  76.555  1.00  0.00     0.048 C 
BRANCH  27  35
ATOM     35  O   UNL     1      96.627 100.364  72.857  1.00  0.00    -0.381 OA
ATOM     36  H   UNL     1      96.425  99.654  72.225  1.00  0.00     0.212 HD
ENDBRANCH  27  35
ENDBRANCH  26  27
ENDBRANCH   2  26
ENDBRANCH   1   2
BRANCH   1  37
ATOM     37  O   UNL     1      94.036  96.731  75.507  1.00  0.00    -0.461 OA
BRANCH  37  38
ATOM     38  C   UNL     1      93.643  95.573  76.138  1.00  0.00     0.310 C 
ATOM     39  O   UNL     1      94.357  94.598  76.325  1.00  0.00    -0.252 OA
BRANCH  38  40
ATOM     40  C   UNL     1      92.198  95.695  76.560  1.00  0.00     0.158 C 
BRANCH  40  41
ATOM     41  C   UNL     1      91.398  94.449  76.282  1.00  0.00    -0.037 A 
ATOM     42  C   UNL     1      90.678  93.838  77.309  1.00  0.00     0.008 A 
ATOM     43  C   UNL     1      91.376  93.906  74.998  1.00  0.00     0.008 A 
ATOM     44  C   UNL     1      89.938  92.684  77.052  1.00  0.00     0.046 A 
ATOM     45  C   UNL     1      90.635  92.752  74.739  1.00  0.00     0.046 A 
ATOM     46  C   UNL     1      89.916  92.141  75.766  1.00  0.00     0.115 A 
BRANCH  46  47
ATOM     47  O   UNL     1      89.194  91.015  75.516  1.00  0.00    -0.508 OA
ATOM     48  H   UNL     1      88.314  91.108  75.921  1.00  0.00     0.293 HD
ENDBRANCH  46  47
ENDBRANCH  40  41
ENDBRANCH  38  40
ENDBRANCH  37  38
ENDBRANCH   1  37
TORSDOF 10
ENDMDL
MODEL 4
REMARK VINA RESULT:    -7.184     18.822     22.066
REMARK INTER + INTRA:         -12.738
REMARK INTER:                 -12.223
REMARK INTRA:                  -0.515
REMARK UNBOUND:                -0.515
REMARK SMILES C=C(C)[C@]12C[C@@H](C)[C@@]34O[C@](Cc5ccccc5)(O[C@@H]1[C@@H]3C=C(COC(=O)Cc1ccc(O)cc1)C[C@]1(O)C(=O)C(C)=C[C@@H]41)O2
REMARK SMILES IDX 23 1 22 2 21 3 20 4 9 5 8 6 10 7 6 8 18 10 44 11 19 12 5 13
REMARK SMILES IDX 7 14 4 15 11 16 12 17 13 18 17 19 14 20 16 21 15 22 2 23
REMARK SMILES IDX 3 24 1 25 35 26 36 27 43 28 38 29 42 30 39 32 40 33 41 34
REMARK SMILES IDX 37 35 24 37 25 38 26 39 27 40 28 41 29 42 34 43 30 44 33 45
REMARK SMILES IDX 31 46 32 47
REMARK H PARENT 37 36 32 48
REMARK Flexibility Score: 90.00
ROOT
ATOM      1  C   UNL     1      94.882  96.839  74.281  1.00  0.00     0.264 C 
ENDROOT
BRANCH   1   2
ATOM      2  C   UNL     1      94.829  97.511  72.929  1.00  0.00    -0.033 C 
ATOM      3  C   UNL     1      93.856  98.411  72.678  1.00  0.00    -0.015 C 
BRANCH   3   4
ATOM      4  C   UNL     1      93.541  99.159  71.392  1.00  0.00     0.078 C 
ATOM      5  O   UNL     1      94.728 101.326  71.511  1.00  0.00    -0.319 OA
ATOM      6  C   UNL     1      94.659 100.071  70.764  1.00  0.00     0.095 CG0
ATOM      7  C   UNL     1      93.456 101.907  71.857  1.00  0.00     0.289 C 
ATOM      8  C   UNL     1      94.244 100.375  69.266  1.00  0.00     0.023 C 
ATOM      9  G   UNL     1      96.065  99.431  70.951  1.00  0.00     0.000 G0
ATOM     10  O   UNL     1      92.664 101.002  72.621  1.00  0.00    -0.320 OA
ATOM     11  O   UNL     1      92.674 102.226  70.708  1.00  0.00    -0.313 OA
ATOM     12  C   UNL     1      92.300 100.061  71.599  1.00  0.00     0.170 C 
ATOM     13  C   UNL     1      92.695 100.464  69.108  1.00  0.00     0.049 C 
ATOM     14  C   UNL     1      94.892 101.622  68.640  1.00  0.00     0.011 C 
ATOM     15  C   UNL     1      92.025 100.979  70.383  1.00  0.00     0.122 C 
BRANCH   7  16
ATOM     16  C   UNL     1      93.712 103.167  72.659  1.00  0.00     0.135 C 
BRANCH  16  17
ATOM     17  C   UNL     1      94.862 103.003  73.621  1.00  0.00    -0.040 A 
ATOM     18  C   UNL     1      94.784 102.062  74.647  1.00  0.00     0.004 A 
ATOM     19  C   UNL     1      96.003 103.793  73.484  1.00  0.00     0.004 A 
ATOM     20  C   UNL     1      95.848 101.910  75.537  1.00  0.00     0.000 A 
ATOM     21  C   UNL     1      97.067 103.640  74.374  1.00  0.00     0.000 A 
ATOM     22  C   UNL     1      96.989 102.699  75.399  1.00  0.00     0.000 A 
ENDBRANCH  16  17
ENDBRANCH   7  16
BRANCH  15  23
ATOM     23  C   UNL     1      90.566 101.244  70.197  1.00  0.00    -0.046 C 
ATOM     24  C   UNL     1      89.648 100.081  70.429  1.00  0.00     0.042 C 
ATOM     25  C   UNL     1      90.104 102.452  69.843  1.00  0.00     0.010 C 
ENDBRANCH  15  23
ENDBRANCH   3   4
BRANCH   2  26
ATOM     26  C   UNL     1      95.939  97.063  71.997  1.00  0.00     0.078 C 
BRANCH  26  27
ATOM     27  C   UNL     1      96.160  97.885  70.728  1.00  0.00     0.140 C 
ATOM     28  C   UNL     1      96.056  99.402  70.990  1.00  0.00     0.086 CG0
ATOM     29  C   UNL     1      97.565  97.744  70.183  1.00  0.00     0.190 C 
ATOM     30  C   UNL     1      97.250  99.964  70.268  1.00  0.00    -0.010 C 
ATOM     31  G   UNL     1      94.656 100.042  70.764  1.00  0.00     0.000 G0
ATOM     32  O   UNL     1      98.154  96.688  70.006  1.00  0.00    -0.291 OA
ATOM     33  C   UNL     1      98.130  99.060  69.828  1.00  0.00    -0.008 C 
ATOM     34  C   UNL     1      99.435  99.249  69.161  1.00  0.00     0.048 C 
BRANCH  27  35
ATOM     35  O   UNL     1      95.338  97.430  69.666  1.00  0.00    -0.381 OA
ATOM     36  H   UNL     1      95.859  97.450  68.845  1.00  0.00     0.212 HD
ENDBRANCH  27  35
ENDBRANCH  26  27
ENDBRANCH   2  26
ENDBRANCH   1   2
BRANCH   1  37
ATOM     37  O   UNL     1      93.579  96.455  74.662  1.00  0.00    -0.461 OA
BRANCH  37  38
ATOM     38  C   UNL     1      93.468  95.788  75.861  1.00  0.00     0.310 C 
ATOM     39  O   UNL     1      94.383  95.209  76.430  1.00  0.00    -0.252 OA
BRANCH  38  40
ATOM     40  C   UNL     1      92.047  95.883  76.361  1.00  0.00     0.158 C 
BRANCH  40  41
ATOM     41  C   UNL     1      91.289  94.587  76.229  1.00  0.00    -0.037 A 
ATOM     42  C   UNL     1      91.196  93.957  74.988  1.00  0.00     0.008 A 
ATOM     43  C   UNL     1      90.681  94.018  77.347  1.00  0.00     0.008 A 
ATOM     44  C   UNL     1      90.494  92.758  74.865  1.00  0.00     0.046 A 
ATOM     45  C   UNL     1      89.979  92.818  77.225  1.00  0.00     0.046 A 
ATOM     46  C   UNL     1      89.885  92.188  75.985  1.00  0.00     0.115 A 
BRANCH  46  47
ATOM     47  O   UNL     1      89.200  91.019  75.865  1.00  0.00    -0.508 OA
ATOM     48  H   UNL     1      89.605  90.487  75.157  1.00  0.00     0.293 HD
ENDBRANCH  46  47
ENDBRANCH  40  41
ENDBRANCH  38  40
ENDBRANCH  37  38
ENDBRANCH   1  37
TORSDOF 10
ENDMDL
MODEL 5
REMARK VINA RESULT:    -6.992     18.848     21.926
REMARK INTER + INTRA:         -12.413
REMARK INTER:                 -11.963
REMARK INTRA:                  -0.450
REMARK UNBOUND:                -0.515
REMARK SMILES C=C(C)[C@]12C[C@@H](C)[C@@]34O[C@](Cc5ccccc5)(O[C@@H]1[C@@H]3C=C(COC(=O)Cc1ccc(O)cc1)C[C@]1(O)C(=O)C(C)=C[C@@H]41)O2
REMARK SMILES IDX 23 1 22 2 21 3 20 4 9 5 8 6 10 7 6 8 18 10 44 11 19 12 5 13
REMARK SMILES IDX 7 14 4 15 11 16 12 17 13 18 17 19 14 20 16 21 15 22 2 23
REMARK SMILES IDX 3 24 1 25 35 26 36 27 43 28 38 29 42 30 39 32 40 33 41 34
REMARK SMILES IDX 37 35 24 37 25 38 26 39 27 40 28 41 29 42 34 43 30 44 33 45
REMARK SMILES IDX 31 46 32 47
REMARK H PARENT 37 36 32 48
REMARK Flexibility Score: 90.00
ROOT
ATOM      1  C   UNL     1      95.057  97.026  75.440  1.00  0.00     0.264 C 
ENDROOT
BRANCH   1   2
ATOM      2  C   UNL     1      95.293  97.721  74.119  1.00  0.00    -0.033 C 
ATOM      3  C   UNL     1      94.264  98.345  73.509  1.00  0.00    -0.015 C 
BRANCH   3   4
ATOM      4  C   UNL     1      94.221  99.042  72.159  1.00  0.00     0.078 C 
ATOM      5  O   UNL     1      94.719 101.430  72.565  1.00  0.00    -0.319 OA
ATOM      6  C   UNL     1      95.219 100.230  71.898  1.00  0.00     0.095 CG0
ATOM      7  C   UNL     1      93.302 101.658  72.439  1.00  0.00     0.289 C 
ATOM      8  C   UNL     1      95.267 100.481  70.335  1.00  0.00     0.023 C 
ATOM      9  G   UNL     1      96.594  99.956  72.573  1.00  0.00     0.000 G0
ATOM     10  O   UNL     1      92.553 100.553  72.938  1.00  0.00    -0.320 OA
ATOM     11  O   UNL     1      92.896 101.818  71.082  1.00  0.00    -0.313 OA
ATOM     12  C   UNL     1      92.798  99.594  71.897  1.00  0.00     0.170 C 
ATOM     13  C   UNL     1      93.890 100.185  69.665  1.00  0.00     0.049 C 
ATOM     14  C   UNL     1      95.754 101.875  69.903  1.00  0.00     0.011 C 
ATOM     15  C   UNL     1      92.726 100.463  70.617  1.00  0.00     0.122 C 
BRANCH   7  16
ATOM     16  C   UNL     1      92.951 102.910  73.221  1.00  0.00     0.135 C 
BRANCH  16  17
ATOM     17  C   UNL     1      91.478 103.227  73.151  1.00  0.00    -0.040 A 
ATOM     18  C   UNL     1      91.005 104.141  72.210  1.00  0.00     0.004 A 
ATOM     19  C   UNL     1      90.590 102.606  74.028  1.00  0.00     0.004 A 
ATOM     20  C   UNL     1      89.643 104.434  72.145  1.00  0.00     0.000 A 
ATOM     21  C   UNL     1      89.227 102.899  73.963  1.00  0.00     0.000 A 
ATOM     22  C   UNL     1      88.754 103.812  73.022  1.00  0.00     0.000 A 
ENDBRANCH  16  17
ENDBRANCH   7  16
BRANCH  15  23
ATOM     23  C   UNL     1      91.397 100.360  69.943  1.00  0.00    -0.046 C 
ATOM     24  C   UNL     1      90.195 100.597  70.810  1.00  0.00     0.042 C 
ATOM     25  C   UNL     1      91.283 100.073  68.638  1.00  0.00     0.010 C 
ENDBRANCH  15  23
ENDBRANCH   3   4
BRANCH   2  26
ATOM     26  C   UNL     1      96.730  97.623  73.643  1.00  0.00     0.078 C 
BRANCH  26  27
ATOM     27  C   UNL     1      97.132  98.493  72.453  1.00  0.00     0.140 C 
ATOM     28  C   UNL     1      96.606  99.937  72.582  1.00  0.00     0.086 CG0
ATOM     29  C   UNL     1      98.630  98.698  72.365  1.00  0.00     0.190 C 
ATOM     30  C   UNL     1      97.799 100.778  72.220  1.00  0.00    -0.010 C 
ATOM     31  G   UNL     1      95.234 100.230  71.909  1.00  0.00     0.000 G0
ATOM     32  O   UNL     1      99.471  97.815  72.434  1.00  0.00    -0.291 OA
ATOM     33  C   UNL     1      98.956 100.116  72.119  1.00  0.00    -0.008 C 
ATOM     34  C   UNL     1     100.321 100.620  71.864  1.00  0.00     0.048 C 
BRANCH  27  35
ATOM     35  O   UNL     1      96.803  97.871  71.222  1.00  0.00    -0.381 OA
ATOM     36  H   UNL     1      95.863  97.621  71.246  1.00  0.00     0.212 HD
ENDBRANCH  27  35
ENDBRANCH  26  27
ENDBRANCH   2  26
ENDBRANCH   1   2
BRANCH   1  37
ATOM     37  O   UNL     1      93.699  96.652  75.534  1.00  0.00    -0.461 OA
BRANCH  37  38
ATOM     38  C   UNL     1      93.344  95.929  76.650  1.00  0.00     0.310 C 
ATOM     39  O   UNL     1      94.126  95.349  77.389  1.00  0.00    -0.252 OA
BRANCH  38  40
ATOM     40  C   UNL     1      91.844  95.965  76.817  1.00  0.00     0.158 C 
BRANCH  40  41
ATOM     41  C   UNL     1      91.186  94.646  76.507  1.00  0.00    -0.037 A 
ATOM     42  C   UNL     1      90.540  93.934  77.518  1.00  0.00     0.008 A 
ATOM     43  C   UNL     1      91.223  94.135  75.210  1.00  0.00     0.008 A 
ATOM     44  C   UNL     1      89.932  92.711  77.232  1.00  0.00     0.046 A 
ATOM     45  C   UNL     1      90.614  92.913  74.923  1.00  0.00     0.046 A 
ATOM     46  C   UNL     1      89.969  92.201  75.934  1.00  0.00     0.115 A 
BRANCH  46  47
ATOM     47  O   UNL     1      89.376  91.009  75.655  1.00  0.00    -0.508 OA
ATOM     48  H   UNL     1      89.687  90.344  76.294  1.00  0.00     0.293 HD
ENDBRANCH  46  47
ENDBRANCH  40  41
ENDBRANCH  38  40
ENDBRANCH  37  38
ENDBRANCH   1  37
TORSDOF 10
ENDMDL
MODEL 6
REMARK VINA RESULT:    -6.650     18.015     21.169
REMARK INTER + INTRA:         -11.830
REMARK INTER:                 -10.999
REMARK INTRA:                  -0.831
REMARK UNBOUND:                -0.515
REMARK SMILES C=C(C)[C@]12C[C@@H](C)[C@@]34O[C@](Cc5ccccc5)(O[C@@H]1[C@@H]3C=C(COC(=O)Cc1ccc(O)cc1)C[C@]1(O)C(=O)C(C)=C[C@@H]41)O2
REMARK SMILES IDX 23 1 22 2 21 3 20 4 9 5 8 6 10 7 6 8 18 10 44 11 19 12 5 13
REMARK SMILES IDX 7 14 4 15 11 16 12 17 13 18 17 19 14 20 16 21 15 22 2 23
REMARK SMILES IDX 3 24 1 25 35 26 36 27 43 28 38 29 42 30 39 32 40 33 41 34
REMARK SMILES IDX 37 35 24 37 25 38 26 39 27 40 28 41 29 42 34 43 30 44 33 45
REMARK SMILES IDX 31 46 32 47
REMARK H PARENT 37 36 32 48
REMARK Flexibility Score: 90.00
ROOT
ATOM      1  C   UNL     1      93.964  96.877  73.871  1.00  0.00     0.264 C 
ENDROOT
BRANCH   1   2
ATOM      2  C   UNL     1      94.509  97.987  73.001  1.00  0.00    -0.033 C 
ATOM      3  C   UNL     1      95.833  98.034  72.746  1.00  0.00    -0.015 C 
BRANCH   3   4
ATOM      4  C   UNL     1      96.631  99.074  71.976  1.00  0.00     0.078 C 
ATOM      5  O   UNL     1      96.801  98.269  69.643  1.00  0.00    -0.319 OA
ATOM      6  C   UNL     1      96.256  99.342  70.472  1.00  0.00     0.095 CG0
ATOM      7  C   UNL     1      98.142  97.859  69.973  1.00  0.00     0.289 C 
ATOM      8  C   UNL     1      96.919 100.718  70.050  1.00  0.00     0.023 C 
ATOM      9  G   UNL     1      94.716  99.250  70.261  1.00  0.00     0.000 G0
ATOM     10  O   UNL     1      98.235  97.435  71.330  1.00  0.00    -0.320 OA
ATOM     11  O   UNL     1      99.084  98.920  69.835  1.00  0.00    -0.313 OA
ATOM     12  C   UNL     1      98.135  98.704  71.996  1.00  0.00     0.170 C 
ATOM     13  C   UNL     1      98.276 100.947  70.784  1.00  0.00     0.049 C 
ATOM     14  C   UNL     1      97.116 100.921  68.538  1.00  0.00     0.011 C 
ATOM     15  C   UNL     1      98.985  99.627  71.089  1.00  0.00     0.122 C 
BRANCH   7  16
ATOM     16  C   UNL     1      98.530  96.718  69.052  1.00  0.00     0.135 C 
BRANCH  16  17
ATOM     17  C   UNL     1     100.026  96.558  68.947  1.00  0.00    -0.040 A 
ATOM     18  C   UNL     1     100.743  95.991  70.000  1.00  0.00     0.004 A 
ATOM     19  C   UNL     1     100.691  96.979  67.796  1.00  0.00     0.004 A 
ATOM     20  C   UNL     1     102.127  95.843  69.902  1.00  0.00     0.000 A 
ATOM     21  C   UNL     1     102.075  96.830  67.698  1.00  0.00     0.000 A 
ATOM     22  C   UNL     1     102.792  96.263  68.751  1.00  0.00     0.000 A 
ENDBRANCH  16  17
ENDBRANCH   7  16
BRANCH  15  23
ATOM     23  C   UNL     1     100.364  99.827  71.626  1.00  0.00    -0.046 C 
ATOM     24  C   UNL     1     101.476  99.805  70.620  1.00  0.00     0.042 C 
ATOM     25  C   UNL     1     100.596 100.016  72.934  1.00  0.00     0.010 C 
ENDBRANCH  15  23
ENDBRANCH   3   4
BRANCH   2  26
ATOM     26  C   UNL     1      93.436  98.937  72.505  1.00  0.00     0.078 C 
BRANCH  26  27
ATOM     27  C   UNL     1      93.826  99.914  71.398  1.00  0.00     0.140 C 
ATOM     28  C   UNL     1      94.687  99.245  70.307  1.00  0.00     0.086 CG0
ATOM     29  C   UNL     1      92.630 100.406  70.611  1.00  0.00     0.190 C 
ATOM     30  C   UNL     1      94.062  99.722  69.025  1.00  0.00    -0.010 C 
ATOM     31  G   UNL     1      96.230  99.353  70.489  1.00  0.00     0.000 G0
ATOM     32  O   UNL     1      91.595 100.842  71.094  1.00  0.00    -0.291 OA
ATOM     33  C   UNL     1      92.891 100.352  69.160  1.00  0.00    -0.008 C 
ATOM     34  C   UNL     1      91.968 100.875  68.132  1.00  0.00     0.048 C 
BRANCH  27  35
ATOM     35  O   UNL     1      94.393 101.100  71.929  1.00  0.00    -0.381 OA
ATOM     36  H   UNL     1      94.836 100.880  72.766  1.00  0.00     0.212 HD
ENDBRANCH  27  35
ENDBRANCH  26  27
ENDBRANCH   2  26
ENDBRANCH   1   2
BRANCH   1  37
ATOM     37  O   UNL     1      94.067  97.255  75.227  1.00  0.00    -0.461 OA
BRANCH  37  38
ATOM     38  C   UNL     1      93.804  96.271  76.153  1.00  0.00     0.310 C 
ATOM     39  O   UNL     1      94.621  95.462  76.570  1.00  0.00    -0.252 OA
BRANCH  38  40
ATOM     40  C   UNL     1      92.355  96.347  76.571  1.00  0.00     0.158 C 
BRANCH  40  41
ATOM     41  C   UNL     1      91.636  95.030  76.440  1.00  0.00    -0.037 A 
ATOM     42  C   UNL     1      91.059  94.435  77.562  1.00  0.00     0.008 A 
ATOM     43  C   UNL     1      91.546  94.405  75.196  1.00  0.00     0.008 A 
ATOM     44  C   UNL     1      90.393  93.215  77.441  1.00  0.00     0.046 A 
ATOM     45  C   UNL     1      90.880  93.185  75.074  1.00  0.00     0.046 A 
ATOM     46  C   UNL     1      90.304  92.590  76.196  1.00  0.00     0.115 A 
BRANCH  46  47
ATOM     47  O   UNL     1      89.655  91.400  76.078  1.00  0.00    -0.508 OA
ATOM     48  H   UNL     1      90.255  90.685  76.353  1.00  0.00     0.293 HD
ENDBRANCH  46  47
ENDBRANCH  40  41
ENDBRANCH  38  40
ENDBRANCH  37  38
ENDBRANCH   1  37
TORSDOF 10
ENDMDL
MODEL 7
REMARK VINA RESULT:    -6.373      3.371      7.496
REMARK INTER + INTRA:         -11.359
REMARK INTER:                 -10.708
REMARK INTRA:                  -0.651
REMARK UNBOUND:                -0.515
REMARK SMILES C=C(C)[C@]12C[C@@H](C)[C@@]34O[C@](Cc5ccccc5)(O[C@@H]1[C@@H]3C=C(COC(=O)Cc1ccc(O)cc1)C[C@]1(O)C(=O)C(C)=C[C@@H]41)O2
REMARK SMILES IDX 23 1 22 2 21 3 20 4 9 5 8 6 10 7 6 8 18 10 44 11 19 12 5 13
REMARK SMILES IDX 7 14 4 15 11 16 12 17 13 18 17 19 14 20 16 21 15 22 2 23
REMARK SMILES IDX 3 24 1 25 35 26 36 27 43 28 38 29 42 30 39 32 40 33 41 34
REMARK SMILES IDX 37 35 24 37 25 38 26 39 27 40 28 41 29 42 34 43 30 44 33 45
REMARK SMILES IDX 31 46 32 47
REMARK H PARENT 37 36 32 48
REMARK Flexibility Score: 90.00
ROOT
ATOM      1  C   UNL     1      96.943  79.754  82.139  1.00  0.00     0.264 C 
ENDROOT
BRANCH   1   2
ATOM      2  C   UNL     1      96.477  80.019  83.552  1.00  0.00    -0.033 C 
ATOM      3  C   UNL     1      97.267  79.661  84.585  1.00  0.00    -0.015 C 
BRANCH   3   4
ATOM      4  C   UNL     1      97.001  79.746  86.080  1.00  0.00     0.078 C 
ATOM      5  O   UNL     1      97.877  81.929  86.844  1.00  0.00    -0.319 OA
ATOM      6  C   UNL     1      96.649  81.149  86.698  1.00  0.00     0.095 CG0
ATOM      7  C   UNL     1      99.012  81.200  87.349  1.00  0.00     0.289 C 
ATOM      8  C   UNL     1      96.016  80.898  88.128  1.00  0.00     0.023 C 
ATOM      9  G   UNL     1      95.775  81.983  85.717  1.00  0.00     0.000 G0
ATOM     10  O   UNL     1      99.317  80.079  86.523  1.00  0.00    -0.320 OA
ATOM     11  O   UNL     1      98.780  80.667  88.651  1.00  0.00    -0.313 OA
ATOM     12  C   UNL     1      98.225  79.212  86.864  1.00  0.00     0.170 C 
ATOM     13  C   UNL     1      96.637  79.644  88.817  1.00  0.00     0.049 C 
ATOM     14  C   UNL     1      96.073  82.092  89.096  1.00  0.00     0.011 C 
ATOM     15  C   UNL     1      98.090  79.426  88.391  1.00  0.00     0.122 C 
BRANCH   7  16
ATOM     16  C   UNL     1     100.199  82.142  87.395  1.00  0.00     0.135 C 
BRANCH  16  17
ATOM     17  C   UNL     1     101.012  81.967  88.653  1.00  0.00    -0.040 A 
ATOM     18  C   UNL     1     102.008  80.993  88.711  1.00  0.00     0.004 A 
ATOM     19  C   UNL     1     100.768  82.782  89.758  1.00  0.00     0.004 A 
ATOM     20  C   UNL     1     102.760  80.832  89.876  1.00  0.00     0.000 A 
ATOM     21  C   UNL     1     101.521  82.622  90.922  1.00  0.00     0.000 A 
ATOM     22  C   UNL     1     102.516  81.647  90.981  1.00  0.00     0.000 A 
ENDBRANCH  16  17
ENDBRANCH   7  16
BRANCH  15  23
ATOM     23  C   UNL     1      98.760  78.343  89.172  1.00  0.00    -0.046 C 
ATOM     24  C   UNL     1      99.423  78.763  90.450  1.00  0.00     0.042 C 
ATOM     25  C   UNL     1      98.770  77.069  88.754  1.00  0.00     0.010 C 
ENDBRANCH  15  23
ENDBRANCH   3   4
BRANCH   2  26
ATOM     26  C   UNL     1      95.118  80.691  83.615  1.00  0.00     0.078 C 
BRANCH  26  27
ATOM     27  C   UNL     1      94.652  81.196  84.979  1.00  0.00     0.140 C 
ATOM     28  C   UNL     1      95.759  81.967  85.727  1.00  0.00     0.086 CG0
ATOM     29  C   UNL     1      93.552  82.230  84.870  1.00  0.00     0.190 C 
ATOM     30  C   UNL     1      95.051  83.193  86.234  1.00  0.00    -0.010 C 
ATOM     31  G   UNL     1      96.636  81.132  86.705  1.00  0.00     0.000 G0
ATOM     32  O   UNL     1      92.543  82.122  84.189  1.00  0.00    -0.291 OA
ATOM     33  C   UNL     1      93.820  83.384  85.749  1.00  0.00    -0.008 C 
ATOM     34  C   UNL     1      92.879  84.503  85.959  1.00  0.00     0.048 C 
BRANCH  27  35
ATOM     35  O   UNL     1      94.063  80.156  85.743  1.00  0.00    -0.381 OA
ATOM     36  H   UNL     1      93.101  80.295  85.761  1.00  0.00     0.212 HD
ENDBRANCH  27  35
ENDBRANCH  26  27
ENDBRANCH   2  26
ENDBRANCH   1   2
BRANCH   1  37
ATOM     37  O   UNL     1      96.929  80.962  81.410  1.00  0.00    -0.461 OA
BRANCH  37  38
ATOM     38  C   UNL     1      97.800  81.041  80.348  1.00  0.00     0.310 C 
ATOM     39  O   UNL     1      98.178  80.091  79.677  1.00  0.00    -0.252 OA
BRANCH  38  40
ATOM     40  C   UNL     1      98.214  82.478  80.141  1.00  0.00     0.158 C 
BRANCH  40  41
ATOM     41  C   UNL     1      97.715  83.052  78.840  1.00  0.00    -0.037 A 
ATOM     42  C   UNL     1      96.425  83.578  78.759  1.00  0.00     0.008 A 
ATOM     43  C   UNL     1      98.542  83.059  77.718  1.00  0.00     0.008 A 
ATOM     44  C   UNL     1      95.963  84.108  77.554  1.00  0.00     0.046 A 
ATOM     45  C   UNL     1      98.081  83.590  76.513  1.00  0.00     0.046 A 
ATOM     46  C   UNL     1      96.791  84.114  76.431  1.00  0.00     0.115 A 
BRANCH  46  47
ATOM     47  O   UNL     1      96.340  84.632  75.256  1.00  0.00    -0.508 OA
ATOM     48  H   UNL     1      96.703  85.528  75.146  1.00  0.00     0.293 HD
ENDBRANCH  46  47
ENDBRANCH  40  41
ENDBRANCH  38  40
ENDBRANCH  37  38
ENDBRANCH   1  37
TORSDOF 10
ENDMDL
MODEL 8
REMARK VINA RESULT:    -6.335     23.194     27.008
REMARK INTER + INTRA:         -11.294
REMARK INTER:                  -9.259
REMARK INTRA:                  -2.035
REMARK UNBOUND:                -0.515
REMARK SMILES C=C(C)[C@]12C[C@@H](C)[C@@]34O[C@](Cc5ccccc5)(O[C@@H]1[C@@H]3C=C(COC(=O)Cc1ccc(O)cc1)C[C@]1(O)C(=O)C(C)=C[C@@H]41)O2
REMARK SMILES IDX 23 1 22 2 21 3 20 4 9 5 8 6 10 7 6 8 18 10 44 11 19 12 5 13
REMARK SMILES IDX 7 14 4 15 11 16 12 17 13 18 17 19 14 20 16 21 15 22 2 23
REMARK SMILES IDX 3 24 1 25 35 26 36 27 43 28 38 29 42 30 39 32 40 33 41 34
REMARK SMILES IDX 37 35 24 37 25 38 26 39 27 40 28 41 29 42 34 43 30 44 33 45
REMARK SMILES IDX 31 46 32 47
REMARK H PARENT 37 36 32 48
REMARK Flexibility Score: 90.00
ROOT
ATOM      1  C   UNL     1      74.661  98.566  74.569  1.00  0.00     0.264 C 
ENDROOT
BRANCH   1   2
ATOM      2  C   UNL     1      74.035  97.268  75.022  1.00  0.00    -0.033 C 
ATOM      3  C   UNL     1      73.427  96.478  74.113  1.00  0.00    -0.015 C 
BRANCH   3   4
ATOM      4  C   UNL     1      72.666  95.178  74.319  1.00  0.00     0.078 C 
ATOM      5  O   UNL     1      74.284  93.336  73.998  1.00  0.00    -0.319 OA
ATOM      6  C   UNL     1      73.416  93.969  74.990  1.00  0.00     0.095 CG0
ATOM      7  C   UNL     1      73.704  93.168  72.690  1.00  0.00     0.289 C 
ATOM      8  C   UNL     1      72.321  92.929  75.467  1.00  0.00     0.023 C 
ATOM      9  G   UNL     1      74.391  94.468  76.096  1.00  0.00     0.000 G0
ATOM     10  O   UNL     1      73.281  94.416  72.148  1.00  0.00    -0.320 OA
ATOM     11  O   UNL     1      72.541  92.344  72.715  1.00  0.00    -0.313 OA
ATOM     12  C   UNL     1      72.124  94.664  72.962  1.00  0.00     0.170 C 
ATOM     13  C   UNL     1      71.089  92.916  74.511  1.00  0.00     0.049 C 
ATOM     14  C   UNL     1      72.821  91.489  75.672  1.00  0.00     0.011 C 
ATOM     15  C   UNL     1      71.485  93.259  73.073  1.00  0.00     0.122 C 
BRANCH   7  16
ATOM     16  C   UNL     1      74.747  92.543  71.785  1.00  0.00     0.135 C 
BRANCH  16  17
ATOM     17  C   UNL     1      74.124  91.689  70.709  1.00  0.00    -0.040 A 
ATOM     18  C   UNL     1      73.492  92.290  69.621  1.00  0.00     0.004 A 
ATOM     19  C   UNL     1      74.181  90.299  70.803  1.00  0.00     0.004 A 
ATOM     20  C   UNL     1      72.916  91.500  68.625  1.00  0.00     0.000 A 
ATOM     21  C   UNL     1      73.606  89.509  69.807  1.00  0.00     0.000 A 
ATOM     22  C   UNL     1      72.973  90.110  68.719  1.00  0.00     0.000 A 
ENDBRANCH  16  17
ENDBRANCH   7  16
BRANCH  15  23
ATOM     23  C   UNL     1      70.358  93.076  72.109  1.00  0.00    -0.046 C 
ATOM     24  C   UNL     1      69.794  94.329  71.506  1.00  0.00     0.042 C 
ATOM     25  C   UNL     1      69.877  91.863  71.801  1.00  0.00     0.010 C 
ENDBRANCH  15  23
ENDBRANCH   3   4
BRANCH   2  26
ATOM     26  C   UNL     1      74.192  97.017  76.510  1.00  0.00     0.078 C 
BRANCH  26  27
ATOM     27  C   UNL     1      73.866  95.614  77.019  1.00  0.00     0.140 C 
ATOM     28  C   UNL     1      74.402  94.513  76.080  1.00  0.00     0.086 CG0
ATOM     29  C   UNL     1      74.564  95.295  78.325  1.00  0.00     0.190 C 
ATOM     30  C   UNL     1      75.049  93.536  77.021  1.00  0.00    -0.010 C 
ATOM     31  G   UNL     1      73.410  93.992  75.000  1.00  0.00     0.000 G0
ATOM     32  O   UNL     1      74.583  96.016  79.312  1.00  0.00    -0.291 OA
ATOM     33  C   UNL     1      75.181  93.956  78.282  1.00  0.00    -0.008 C 
ATOM     34  C   UNL     1      75.831  93.306  79.439  1.00  0.00     0.048 C 
BRANCH  27  35
ATOM     35  O   UNL     1      72.490  95.482  77.330  1.00  0.00    -0.381 OA
ATOM     36  H   UNL     1      72.230  94.557  77.184  1.00  0.00     0.212 HD
ENDBRANCH  27  35
ENDBRANCH  26  27
ENDBRANCH   2  26
ENDBRANCH   1   2
BRANCH   1  37
ATOM     37  O   UNL     1      75.804  98.832  75.355  1.00  0.00    -0.461 OA
BRANCH  37  38
ATOM     38  C   UNL     1      76.803  99.557  74.748  1.00  0.00     0.310 C 
ATOM     39  O   UNL     1      76.631 100.564  74.076  1.00  0.00    -0.252 OA
BRANCH  38  40
ATOM     40  C   UNL     1      78.139  98.918  75.041  1.00  0.00     0.158 C 
BRANCH  40  41
ATOM     41  C   UNL     1      78.089  97.412  75.014  1.00  0.00    -0.037 A 
ATOM     42  C   UNL     1      78.071  96.737  73.794  1.00  0.00     0.008 A 
ATOM     43  C   UNL     1      78.059  96.693  76.209  1.00  0.00     0.008 A 
ATOM     44  C   UNL     1      78.023  95.342  73.769  1.00  0.00     0.046 A 
ATOM     45  C   UNL     1      78.012  95.299  76.184  1.00  0.00     0.046 A 
ATOM     46  C   UNL     1      77.994  94.624  74.964  1.00  0.00     0.115 A 
BRANCH  46  47
ATOM     47  O   UNL     1      77.947  93.264  74.939  1.00  0.00    -0.508 OA
ATOM     48  H   UNL     1      77.451  92.951  75.716  1.00  0.00     0.293 HD
ENDBRANCH  46  47
ENDBRANCH  40  41
ENDBRANCH  38  40
ENDBRANCH  37  38
ENDBRANCH   1  37
TORSDOF 10
ENDMDL
MODEL 9
REMARK VINA RESULT:    -6.305      6.695     12.271
REMARK INTER + INTRA:         -11.243
REMARK INTER:                 -10.613
REMARK INTRA:                  -0.630
REMARK UNBOUND:                -0.515
REMARK SMILES C=C(C)[C@]12C[C@@H](C)[C@@]34O[C@](Cc5ccccc5)(O[C@@H]1[C@@H]3C=C(COC(=O)Cc1ccc(O)cc1)C[C@]1(O)C(=O)C(C)=C[C@@H]41)O2
REMARK SMILES IDX 23 1 22 2 21 3 20 4 9 5 8 6 10 7 6 8 18 10 44 11 19 12 5 13
REMARK SMILES IDX 7 14 4 15 11 16 12 17 13 18 17 19 14 20 16 21 15 22 2 23
REMARK SMILES IDX 3 24 1 25 35 26 36 27 43 28 38 29 42 30 39 32 40 33 41 34
REMARK SMILES IDX 37 35 24 37 25 38 26 39 27 40 28 41 29 42 34 43 30 44 33 45
REMARK SMILES IDX 31 46 32 47
REMARK H PARENT 37 36 32 48
REMARK Flexibility Score: 90.00
ROOT
ATOM      1  C   UNL     1     100.419  79.271  77.006  1.00  0.00     0.264 C 
ENDROOT
BRANCH   1   2
ATOM      2  C   UNL     1     101.196  79.794  75.820  1.00  0.00    -0.033 C 
ATOM      3  C   UNL     1     100.540  80.084  74.678  1.00  0.00    -0.015 C 
BRANCH   3   4
ATOM      4  C   UNL     1     101.091  80.545  73.338  1.00  0.00     0.078 C 
ATOM      5  O   UNL     1     101.037  83.018  73.349  1.00  0.00    -0.319 OA
ATOM      6  C   UNL     1     101.939  81.869  73.293  1.00  0.00     0.095 CG0
ATOM      7  C   UNL     1      99.854  82.910  72.534  1.00  0.00     0.289 C 
ATOM      8  C   UNL     1     102.726  81.887  71.918  1.00  0.00     0.023 C 
ATOM      9  G   UNL     1     102.820  82.005  74.569  1.00  0.00     0.000 G0
ATOM     10  O   UNL     1      99.092  81.756  72.877  1.00  0.00    -0.320 OA
ATOM     11  O   UNL     1     100.159  82.772  71.149  1.00  0.00    -0.313 OA
ATOM     12  C   UNL     1      99.932  80.729  72.327  1.00  0.00     0.170 C 
ATOM     13  C   UNL     1     101.909  81.201  70.781  1.00  0.00     0.049 C 
ATOM     14  C   UNL     1     103.196  83.273  71.443  1.00  0.00     0.011 C 
ATOM     15  C   UNL     1     100.402  81.359  70.994  1.00  0.00     0.122 C 
BRANCH   7  16
ATOM     16  C   UNL     1      99.018  84.158  72.745  1.00  0.00     0.135 C 
BRANCH  16  17
ATOM     17  C   UNL     1      98.362  84.177  74.103  1.00  0.00    -0.040 A 
ATOM     18  C   UNL     1      97.082  84.710  74.252  1.00  0.00     0.004 A 
ATOM     19  C   UNL     1      99.037  83.662  75.209  1.00  0.00     0.004 A 
ATOM     20  C   UNL     1      96.476  84.728  75.508  1.00  0.00     0.000 A 
ATOM     21  C   UNL     1      98.431  83.680  76.466  1.00  0.00     0.000 A 
ATOM     22  C   UNL     1      97.151  84.213  76.615  1.00  0.00     0.000 A 
ENDBRANCH  16  17
ENDBRANCH   7  16
BRANCH  15  23
ATOM     23  C   UNL     1      99.604  80.869  69.829  1.00  0.00    -0.046 C 
ATOM     24  C   UNL     1      99.245  79.413  69.838  1.00  0.00     0.042 C 
ATOM     25  C   UNL     1      99.231  81.685  68.832  1.00  0.00     0.010 C 
ENDBRANCH  15  23
ENDBRANCH   3   4
BRANCH   2  26
ATOM     26  C   UNL     1     102.682  79.935  76.096  1.00  0.00     0.078 C 
BRANCH  26  27
ATOM     27  C   UNL     1     103.515  80.688  75.061  1.00  0.00     0.140 C 
ATOM     28  C   UNL     1     102.822  81.980  74.581  1.00  0.00     0.086 CG0
ATOM     29  C   UNL     1     104.816  81.211  75.634  1.00  0.00     0.190 C 
ATOM     30  C   UNL     1     103.920  83.005  74.627  1.00  0.00    -0.010 C 
ATOM     31  G   UNL     1     101.949  81.853  73.298  1.00  0.00     0.000 G0
ATOM     32  O   UNL     1     105.610  80.561  76.297  1.00  0.00    -0.291 OA
ATOM     33  C   UNL     1     105.043  82.614  75.237  1.00  0.00    -0.008 C 
ATOM     34  C   UNL     1     106.277  83.370  75.536  1.00  0.00     0.048 C 
BRANCH  27  35
ATOM     35  O   UNL     1     103.929  79.834  74.008  1.00  0.00    -0.381 OA
ATOM     36  H   UNL     1     103.137  79.450  73.596  1.00  0.00     0.212 HD
ENDBRANCH  27  35
ENDBRANCH  26  27
ENDBRANCH   2  26
ENDBRANCH   1   2
BRANCH   1  37
ATOM     37  O   UNL     1      99.760  80.345  77.642  1.00  0.00    -0.461 OA
BRANCH  37  38
ATOM     38  C   UNL     1      98.453  80.124  78.009  1.00  0.00     0.310 C 
ATOM     39  O   UNL     1      97.494  80.168  77.251  1.00  0.00    -0.252 OA
BRANCH  38  40
ATOM     40  C   UNL     1      98.388  79.821  79.486  1.00  0.00     0.158 C 
BRANCH  40  41
ATOM     41  C   UNL     1      97.791  80.945  80.292  1.00  0.00    -0.037 A 
ATOM     42  C   UNL     1      97.805  82.247  79.790  1.00  0.00     0.008 A 
ATOM     43  C   UNL     1      97.225  80.686  81.540  1.00  0.00     0.008 A 
ATOM     44  C   UNL     1      97.254  83.289  80.536  1.00  0.00     0.046 A 
ATOM     45  C   UNL     1      96.673  81.727  82.286  1.00  0.00     0.046 A 
ATOM     46  C   UNL     1      96.687  83.028  81.785  1.00  0.00     0.115 A 
BRANCH  46  47
ATOM     47  O   UNL     1      96.150  84.045  82.513  1.00  0.00    -0.508 OA
ATOM     48  H   UNL     1      95.579  83.669  83.205  1.00  0.00     0.293 HD
ENDBRANCH  46  47
ENDBRANCH  40  41
ENDBRANCH  38  40
ENDBRANCH  37  38
ENDBRANCH   1  37
TORSDOF 10
ENDMDL
MODEL 10
REMARK VINA RESULT:    -6.231     11.941     16.795
REMARK INTER + INTRA:         -11.116
REMARK INTER:                  -8.941
REMARK INTRA:                  -2.176
REMARK UNBOUND:                -0.515
REMARK SMILES C=C(C)[C@]12C[C@@H](C)[C@@]34O[C@](Cc5ccccc5)(O[C@@H]1[C@@H]3C=C(COC(=O)Cc1ccc(O)cc1)C[C@]1(O)C(=O)C(C)=C[C@@H]41)O2
REMARK SMILES IDX 23 1 22 2 21 3 20 4 9 5 8 6 10 7 6 8 18 10 44 11 19 12 5 13
REMARK SMILES IDX 7 14 4 15 11 16 12 17 13 18 17 19 14 20 16 21 15 22 2 23
REMARK SMILES IDX 3 24 1 25 35 26 36 27 43 28 38 29 42 30 39 32 40 33 41 34
REMARK SMILES IDX 37 35 24 37 25 38 26 39 27 40 28 41 29 42 34 43 30 44 33 45
REMARK SMILES IDX 31 46 32 47
REMARK H PARENT 37 36 32 48
REMARK Flexibility Score: 90.00
ROOT
ATOM      1  C   UNL     1      95.526  92.606  89.272  1.00  0.00     0.264 C 
ENDROOT
BRANCH   1   2
ATOM      2  C   UNL     1      95.290  93.783  90.190  1.00  0.00    -0.033 C 
ATOM      3  C   UNL     1      94.371  94.711  89.850  1.00  0.00    -0.015 C 
BRANCH   3   4
ATOM      4  C   UNL     1      94.004  96.008  90.552  1.00  0.00     0.078 C 
ATOM      5  O   UNL     1      92.125  95.497  92.076  1.00  0.00    -0.319 OA
ATOM      6  C   UNL     1      93.518  95.940  92.046  1.00  0.00     0.095 CG0
ATOM      7  C   UNL     1      91.269  96.092  91.083  1.00  0.00     0.289 C 
ATOM      8  C   UNL     1      93.616  97.401  92.650  1.00  0.00     0.023 C 
ATOM      9  G   UNL     1      94.292  94.839  92.830  1.00  0.00     0.000 G0
ATOM     10  O   UNL     1      91.761  95.856  89.767  1.00  0.00    -0.320 OA
ATOM     11  O   UNL     1      91.189  97.510  91.215  1.00  0.00    -0.313 OA
ATOM     12  C   UNL     1      92.893  96.739  89.759  1.00  0.00     0.170 C 
ATOM     13  C   UNL     1      93.329  98.487  91.569  1.00  0.00     0.049 C 
ATOM     14  C   UNL     1      92.738  97.667  93.885  1.00  0.00     0.011 C 
ATOM     15  C   UNL     1      92.353  97.983  90.506  1.00  0.00     0.122 C 
BRANCH   7  16
ATOM     16  C   UNL     1      89.885  95.493  91.229  1.00  0.00     0.135 C 
BRANCH  16  17
ATOM     17  C   UNL     1      89.336  95.667  92.623  1.00  0.00    -0.040 A 
ATOM     18  C   UNL     1      88.827  96.901  93.024  1.00  0.00     0.004 A 
ATOM     19  C   UNL     1      89.339  94.591  93.511  1.00  0.00     0.004 A 
ATOM     20  C   UNL     1      88.320  97.062  94.314  1.00  0.00     0.000 A 
ATOM     21  C   UNL     1      88.831  94.752  94.801  1.00  0.00     0.000 A 
ATOM     22  C   UNL     1      88.322  95.986  95.202  1.00  0.00     0.000 A 
ENDBRANCH  16  17
ENDBRANCH   7  16
BRANCH  15  23
ATOM     23  C   UNL     1      91.923  99.061  89.564  1.00  0.00    -0.046 C 
ATOM     24  C   UNL     1      93.020  99.878  88.949  1.00  0.00     0.042 C 
ATOM     25  C   UNL     1      90.631  99.285  89.285  1.00  0.00     0.010 C 
ENDBRANCH  15  23
ENDBRANCH   3   4
BRANCH   2  26
ATOM     26  C   UNL     1      96.158  93.751  91.434  1.00  0.00     0.078 C 
BRANCH  26  27
ATOM     27  C   UNL     1      95.816  94.738  92.549  1.00  0.00     0.140 C 
ATOM     28  C   UNL     1      94.298  94.821  92.810  1.00  0.00     0.086 CG0
ATOM     29  C   UNL     1      96.354  94.301  93.895  1.00  0.00     0.190 C 
ATOM     30  C   UNL     1      94.197  94.756  94.308  1.00  0.00    -0.010 C 
ATOM     31  G   UNL     1      93.530  95.935  92.041  1.00  0.00     0.000 G0
ATOM     32  O   UNL     1      97.498  93.930  94.114  1.00  0.00    -0.291 OA
ATOM     33  C   UNL     1      95.327  94.438  94.945  1.00  0.00    -0.008 C 
ATOM     34  C   UNL     1      95.577  94.207  96.383  1.00  0.00     0.048 C 
BRANCH  27  35
ATOM     35  O   UNL     1      96.430  95.998  92.332  1.00  0.00    -0.381 OA
ATOM     36  H   UNL     1      97.030  95.920  91.571  1.00  0.00     0.212 HD
ENDBRANCH  27  35
ENDBRANCH  26  27
ENDBRANCH   2  26
ENDBRANCH   1   2
BRANCH   1  37
ATOM     37  O   UNL     1      94.380  92.401  88.473  1.00  0.00    -0.461 OA
BRANCH  37  38
ATOM     38  C   UNL     1      94.036  91.092  88.228  1.00  0.00     0.310 C 
ATOM     39  O   UNL     1      94.774  90.253  87.729  1.00  0.00    -0.252 OA
BRANCH  38  40
ATOM     40  C   UNL     1      92.613  90.853  88.671  1.00  0.00     0.158 C 
BRANCH  40  41
ATOM     41  C   UNL     1      92.442  90.931  90.166  1.00  0.00    -0.037 A 
ATOM     42  C   UNL     1      92.947  89.916  90.979  1.00  0.00     0.008 A 
ATOM     43  C   UNL     1      91.778  92.016  90.737  1.00  0.00     0.008 A 
ATOM     44  C   UNL     1      92.788  89.987  92.364  1.00  0.00     0.046 A 
ATOM     45  C   UNL     1      91.619  92.087  92.122  1.00  0.00     0.046 A 
ATOM     46  C   UNL     1      92.124  91.073  92.935  1.00  0.00     0.115 A 
BRANCH  46  47
ATOM     47  O   UNL     1      91.968  91.142  94.285  1.00  0.00    -0.508 OA
ATOM     48  H   UNL     1      91.878  92.075  94.545  1.00  0.00     0.293 HD
ENDBRANCH  46  47
ENDBRANCH  40  41
ENDBRANCH  38  40
ENDBRANCH  37  38
ENDBRANCH   1  37
TORSDOF 10
ENDMDL
