MODEL 1
REMARK VINA RESULT:    -6.299      0.000      0.000
REMARK INTER + INTRA:         -11.041
REMARK INTER:                  -9.798
REMARK INTRA:                  -1.243
REMARK UNBOUND:                -1.243
REMARK SMILES COc1cc(CNC(=O)CCCC/C=C/C(C)C)ccc1O
REMARK SMILES IDX 10 1 8 2 7 3 9 5 6 6 5 7 3 8 21 9 4 10 20 11 19 12 2 13 1 14
REMARK SMILES IDX 22 15 11 17 12 18 13 19 14 20 15 21 16 22 17 23 18 24
REMARK H PARENT 7 4 22 16
REMARK Flexibility Score: inf
ROOT
ATOM      1  C   UNL     1      94.731  98.479  75.437  1.00  0.00     0.100 C 
ENDROOT
BRANCH   1   2
ATOM      2  C   UNL     1      95.279  98.515  76.806  1.00  0.00     0.220 C 
ATOM      3  N   UNL     1      95.664  97.365  77.428  1.00  0.00    -0.352 N 
ATOM      4  H   UNL     1      95.520  96.521  76.891  1.00  0.00     0.163 HD
ATOM      5  O   UNL     1      95.400  99.632  77.366  1.00  0.00    -0.275 OA
BRANCH   3   6
ATOM      6  C   UNL     1      96.234  97.297  78.736  1.00  0.00     0.151 C 
BRANCH   6   7
ATOM      7  C   UNL     1      95.777  96.084  79.468  1.00  0.00    -0.025 A 
ATOM      8  C   UNL     1      95.839  94.660  81.475  1.00  0.00     0.160 A 
ATOM      9  C   UNL     1      94.902  93.786  80.886  1.00  0.00     0.157 A 
ATOM     10  C   UNL     1      96.269  95.798  80.761  1.00  0.00     0.056 A 
ATOM     11  C   UNL     1      94.418  94.048  79.589  1.00  0.00     0.050 A 
ATOM     12  C   UNL     1      94.844  95.193  78.888  1.00  0.00     0.009 A 
BRANCH   8  13
ATOM     13  O   UNL     1      96.363  94.374  82.711  1.00  0.00    -0.493 OA
ATOM     14  C   UNL     1      97.446  95.238  83.103  1.00  0.00     0.278 C 
ENDBRANCH   8  13
BRANCH   9  15
ATOM     15  O   UNL     1      94.458  92.689  81.552  1.00  0.00    -0.504 OA
ATOM     16  H   UNL     1      94.555  92.827  82.497  1.00  0.00     0.293 HD
ENDBRANCH   9  15
ENDBRANCH   6   7
ENDBRANCH   3   6
ENDBRANCH   1   2
BRANCH   1  17
ATOM     17  C   UNL     1      93.231  98.081  75.431  1.00  0.00     0.010 C 
BRANCH  17  18
ATOM     18  C   UNL     1      92.986  96.635  75.949  1.00  0.00     0.005 C 
BRANCH  18  19
ATOM     19  C   UNL     1      91.950  96.589  77.105  1.00  0.00     0.027 C 
BRANCH  19  20
ATOM     20  C   UNL     1      91.343  95.274  77.243  1.00  0.00    -0.031 C 
ATOM     21  C   UNL     1      91.948  94.122  76.901  1.00  0.00    -0.028 C 
BRANCH  21  22
ATOM     22  C   UNL     1      91.325  92.809  77.067  1.00  0.00     0.005 C 
ATOM     23  C   UNL     1      90.029  92.875  77.922  1.00  0.00     0.012 C 
ATOM     24  C   UNL     1      91.042  92.171  75.682  1.00  0.00     0.012 C 
ENDBRANCH  21  22
ENDBRANCH  19  20
ENDBRANCH  18  19
ENDBRANCH  17  18
ENDBRANCH   1  17
TORSDOF 10
ENDMDL
MODEL 2
REMARK VINA RESULT:    -6.027      2.075      2.530
REMARK INTER + INTRA:         -10.618
REMARK INTER:                  -9.368
REMARK INTRA:                  -1.249
REMARK UNBOUND:                -1.243
REMARK SMILES COc1cc(CNC(=O)CCCC/C=C/C(C)C)ccc1O
REMARK SMILES IDX 10 1 8 2 7 3 9 5 6 6 5 7 3 8 21 9 4 10 20 11 19 12 2 13 1 14
REMARK SMILES IDX 22 15 11 17 12 18 13 19 14 20 15 21 16 22 17 23 18 24
REMARK H PARENT 7 4 22 16
REMARK Flexibility Score: inf
ROOT
ATOM      1  C   UNL     1      94.836  98.531  75.631  1.00  0.00     0.100 C 
ENDROOT
BRANCH   1   2
ATOM      2  C   UNL     1      95.242  99.191  76.887  1.00  0.00     0.220 C 
ATOM      3  N   UNL     1      95.863  98.483  77.871  1.00  0.00    -0.352 N 
ATOM      4  H   UNL     1      95.990  97.500  77.674  1.00  0.00     0.163 HD
ATOM      5  O   UNL     1      95.020 100.420  77.008  1.00  0.00    -0.275 OA
BRANCH   3   6
ATOM      6  C   UNL     1      96.323  99.034  79.106  1.00  0.00     0.151 C 
BRANCH   6   7
ATOM      7  C   UNL     1      95.895  98.206  80.266  1.00  0.00    -0.025 A 
ATOM      8  C   UNL     1      95.696  97.895  82.701  1.00  0.00     0.160 A 
ATOM      9  C   UNL     1      95.067  96.650  82.491  1.00  0.00     0.157 A 
ATOM     10  C   UNL     1      96.105  98.660  81.588  1.00  0.00     0.056 A 
ATOM     11  C   UNL     1      94.868  96.176  81.179  1.00  0.00     0.050 A 
ATOM     12  C   UNL     1      95.270  96.952  80.074  1.00  0.00     0.009 A 
BRANCH   8  13
ATOM     13  O   UNL     1      95.951  98.331  83.976  1.00  0.00    -0.493 OA
ATOM     14  C   UNL     1      96.707  99.554  84.039  1.00  0.00     0.278 C 
ENDBRANCH   8  13
BRANCH   9  15
ATOM     15  O   UNL     1      94.649  95.896  83.540  1.00  0.00    -0.504 OA
ATOM     16  H   UNL     1      95.032  96.235  84.352  1.00  0.00     0.293 HD
ENDBRANCH   9  15
ENDBRANCH   6   7
ENDBRANCH   3   6
ENDBRANCH   1   2
BRANCH   1  17
ATOM     17  C   UNL     1      93.789  97.413  75.885  1.00  0.00     0.010 C 
BRANCH  17  18
ATOM     18  C   UNL     1      94.395  95.984  75.792  1.00  0.00     0.005 C 
BRANCH  18  19
ATOM     19  C   UNL     1      94.139  95.149  77.076  1.00  0.00     0.027 C 
BRANCH  19  20
ATOM     20  C   UNL     1      92.769  95.278  77.549  1.00  0.00    -0.031 C 
ATOM     21  C   UNL     1      91.981  94.237  77.874  1.00  0.00    -0.028 C 
BRANCH  21  22
ATOM     22  C   UNL     1      90.612  94.391  78.366  1.00  0.00     0.005 C 
ATOM     23  C   UNL     1      89.766  95.336  77.469  1.00  0.00     0.012 C 
ATOM     24  C   UNL     1      89.933  93.004  78.503  1.00  0.00     0.012 C 
ENDBRANCH  21  22
ENDBRANCH  19  20
ENDBRANCH  18  19
ENDBRANCH  17  18
ENDBRANCH   1  17
TORSDOF 10
ENDMDL
MODEL 3
REMARK VINA RESULT:    -5.965     21.672     25.032
REMARK INTER + INTRA:         -10.521
REMARK INTER:                  -9.490
REMARK INTRA:                  -1.032
REMARK UNBOUND:                -1.243
REMARK SMILES COc1cc(CNC(=O)CCCC/C=C/C(C)C)ccc1O
REMARK SMILES IDX 10 1 8 2 7 3 9 5 6 6 5 7 3 8 21 9 4 10 20 11 19 12 2 13 1 14
REMARK SMILES IDX 22 15 11 17 12 18 13 19 14 20 15 21 16 22 17 23 18 24
REMARK H PARENT 7 4 22 16
REMARK Flexibility Score: inf
ROOT
ATOM      1  C   UNL     1      78.047  86.240  67.892  1.00  0.00     0.100 C 
ENDROOT
BRANCH   1   2
ATOM      2  C   UNL     1      77.585  85.752  66.579  1.00  0.00     0.220 C 
ATOM      3  N   UNL     1      77.933  84.509  66.141  1.00  0.00    -0.352 N 
ATOM      4  H   UNL     1      78.532  83.989  66.767  1.00  0.00     0.163 HD
ATOM      5  O   UNL     1      76.848  86.502  65.894  1.00  0.00    -0.275 OA
BRANCH   3   6
ATOM      6  C   UNL     1      77.513  83.933  64.904  1.00  0.00     0.151 C 
BRANCH   6   7
ATOM      7  C   UNL     1      76.310  83.075  65.081  1.00  0.00    -0.025 A 
ATOM      8  C   UNL     1      73.982  82.525  64.497  1.00  0.00     0.160 A 
ATOM      9  C   UNL     1      74.013  81.437  65.392  1.00  0.00     0.157 A 
ATOM     10  C   UNL     1      75.128  83.334  64.351  1.00  0.00     0.056 A 
ATOM     11  C   UNL     1      75.177  81.177  66.142  1.00  0.00     0.050 A 
ATOM     12  C   UNL     1      76.321  81.983  65.981  1.00  0.00     0.009 A 
BRANCH   8  13
ATOM     13  O   UNL     1      72.829  82.822  63.814  1.00  0.00    -0.493 OA
ATOM     14  C   UNL     1      71.949  83.722  64.512  1.00  0.00     0.278 C 
ENDBRANCH   8  13
BRANCH   9  15
ATOM     15  O   UNL     1      72.931  80.630  65.546  1.00  0.00    -0.504 OA
ATOM     16  H   UNL     1      72.397  80.946  66.279  1.00  0.00     0.293 HD
ENDBRANCH   9  15
ENDBRANCH   6   7
ENDBRANCH   3   6
ENDBRANCH   1   2
BRANCH   1  17
ATOM     17  C   UNL     1      78.179  85.083  68.919  1.00  0.00     0.010 C 
BRANCH  17  18
ATOM     18  C   UNL     1      77.535  85.418  70.294  1.00  0.00     0.005 C 
BRANCH  18  19
ATOM     19  C   UNL     1      76.025  85.059  70.343  1.00  0.00     0.027 C 
BRANCH  19  20
ATOM     20  C   UNL     1      75.184  86.242  70.428  1.00  0.00    -0.031 C 
ATOM     21  C   UNL     1      75.648  87.505  70.384  1.00  0.00    -0.028 C 
BRANCH  21  22
ATOM     22  C   UNL     1      74.781  88.681  70.452  1.00  0.00     0.005 C 
ATOM     23  C   UNL     1      73.677  88.538  71.537  1.00  0.00     0.012 C 
ATOM     24  C   UNL     1      75.627  89.958  70.689  1.00  0.00     0.012 C 
ENDBRANCH  21  22
ENDBRANCH  19  20
ENDBRANCH  18  19
ENDBRANCH  17  18
ENDBRANCH   1  17
TORSDOF 10
ENDMDL
MODEL 4
REMARK VINA RESULT:    -5.900      1.701      2.564
REMARK INTER + INTRA:         -10.419
REMARK INTER:                  -9.465
REMARK INTRA:                  -0.954
REMARK UNBOUND:                -1.243
REMARK SMILES COc1cc(CNC(=O)CCCC/C=C/C(C)C)ccc1O
REMARK SMILES IDX 10 1 8 2 7 3 9 5 6 6 5 7 3 8 21 9 4 10 20 11 19 12 2 13 1 14
REMARK SMILES IDX 22 15 11 17 12 18 13 19 14 20 15 21 16 22 17 23 18 24
REMARK H PARENT 7 4 22 16
REMARK Flexibility Score: inf
ROOT
ATOM      1  C   UNL     1      94.689 100.067  75.603  1.00  0.00     0.100 C 
ENDROOT
BRANCH   1   2
ATOM      2  C   UNL     1      95.773  99.350  76.301  1.00  0.00     0.220 C 
ATOM      3  N   UNL     1      95.586  98.871  77.562  1.00  0.00    -0.352 N 
ATOM      4  H   UNL     1      94.679  99.069  77.963  1.00  0.00     0.163 HD
ATOM      5  O   UNL     1      96.857  99.176  75.691  1.00  0.00    -0.275 OA
BRANCH   3   6
ATOM      6  C   UNL     1      96.557  98.139  78.310  1.00  0.00     0.151 C 
BRANCH   6   7
ATOM      7  C   UNL     1      95.996  97.641  79.595  1.00  0.00    -0.025 A 
ATOM      8  C   UNL     1      94.957  95.835  80.907  1.00  0.00     0.160 A 
ATOM      9  C   UNL     1      94.941  96.668  82.044  1.00  0.00     0.157 A 
ATOM     10  C   UNL     1      95.481  96.328  79.694  1.00  0.00     0.056 A 
ATOM     11  C   UNL     1      95.433  97.985  81.956  1.00  0.00     0.050 A 
ATOM     12  C   UNL     1      95.966  98.466  80.744  1.00  0.00     0.009 A 
BRANCH   8  13
ATOM     13  O   UNL     1      94.418  94.574  80.970  1.00  0.00    -0.493 OA
ATOM     14  C   UNL     1      95.129  93.593  80.193  1.00  0.00     0.278 C 
ENDBRANCH   8  13
BRANCH   9  15
ATOM     15  O   UNL     1      94.455  96.219  83.230  1.00  0.00    -0.504 OA
ATOM     16  H   UNL     1      95.083  96.416  83.929  1.00  0.00     0.293 HD
ENDBRANCH   9  15
ENDBRANCH   6   7
ENDBRANCH   3   6
ENDBRANCH   1   2
BRANCH   1  17
ATOM     17  C   UNL     1      93.788  99.095  74.793  1.00  0.00     0.010 C 
BRANCH  17  18
ATOM     18  C   UNL     1      92.944  98.156  75.700  1.00  0.00     0.005 C 
BRANCH  18  19
ATOM     19  C   UNL     1      93.531  96.721  75.774  1.00  0.00     0.027 C 
BRANCH  19  20
ATOM     20  C   UNL     1      92.711  95.835  76.586  1.00  0.00    -0.031 C 
ATOM     21  C   UNL     1      91.601  96.222  77.242  1.00  0.00    -0.028 C 
BRANCH  21  22
ATOM     22  C   UNL     1      90.781  95.309  78.038  1.00  0.00     0.005 C 
ATOM     23  C   UNL     1      89.489  94.876  77.291  1.00  0.00     0.012 C 
ATOM     24  C   UNL     1      91.614  94.073  78.464  1.00  0.00     0.012 C 
ENDBRANCH  21  22
ENDBRANCH  19  20
ENDBRANCH  18  19
ENDBRANCH  17  18
ENDBRANCH   1  17
TORSDOF 10
ENDMDL
MODEL 5
REMARK VINA RESULT:    -5.592     12.530     14.227
REMARK INTER + INTRA:          -9.941
REMARK INTER:                  -8.992
REMARK INTRA:                  -0.948
REMARK UNBOUND:                -1.243
REMARK SMILES COc1cc(CNC(=O)CCCC/C=C/C(C)C)ccc1O
REMARK SMILES IDX 10 1 8 2 7 3 9 5 6 6 5 7 3 8 21 9 4 10 20 11 19 12 2 13 1 14
REMARK SMILES IDX 22 15 11 17 12 18 13 19 14 20 15 21 16 22 17 23 18 24
REMARK H PARENT 7 4 22 16
REMARK Flexibility Score: inf
ROOT
ATOM      1  C   UNL     1      99.968  82.174  79.698  1.00  0.00     0.100 C 
ENDROOT
BRANCH   1   2
ATOM      2  C   UNL     1     100.040  81.747  81.109  1.00  0.00     0.220 C 
ATOM      3  N   UNL     1      98.994  81.968  81.953  1.00  0.00    -0.352 N 
ATOM      4  H   UNL     1      98.209  82.454  81.541  1.00  0.00     0.163 HD
ATOM      5  O   UNL     1     101.078  81.157  81.497  1.00  0.00    -0.275 OA
BRANCH   3   6
ATOM      6  C   UNL     1      98.951  81.566  83.322  1.00  0.00     0.151 C 
BRANCH   6   7
ATOM      7  C   UNL     1      98.430  82.654  84.195  1.00  0.00    -0.025 A 
ATOM      8  C   UNL     1      98.579  83.976  86.267  1.00  0.00     0.160 A 
ATOM      9  C   UNL     1      97.462  84.737  85.862  1.00  0.00     0.157 A 
ATOM     10  C   UNL     1      99.050  82.941  85.432  1.00  0.00     0.056 A 
ATOM     11  C   UNL     1      96.822  84.449  84.641  1.00  0.00     0.050 A 
ATOM     12  C   UNL     1      97.307  83.422  83.808  1.00  0.00     0.009 A 
BRANCH   8  13
ATOM     13  O   UNL     1      99.165  84.209  87.485  1.00  0.00    -0.493 OA
ATOM     14  C   UNL     1     100.357  83.436  87.720  1.00  0.00     0.278 C 
ENDBRANCH   8  13
BRANCH   9  15
ATOM     15  O   UNL     1      96.991  85.748  86.637  1.00  0.00    -0.504 OA
ATOM     16  H   UNL     1      97.683  86.401  86.766  1.00  0.00     0.293 HD
ENDBRANCH   9  15
ENDBRANCH   6   7
ENDBRANCH   3   6
ENDBRANCH   1   2
BRANCH   1  17
ATOM     17  C   UNL     1      98.840  83.217  79.473  1.00  0.00     0.010 C 
BRANCH  17  18
ATOM     18  C   UNL     1      97.720  82.701  78.526  1.00  0.00     0.005 C 
BRANCH  18  19
ATOM     19  C   UNL     1      97.491  83.643  77.313  1.00  0.00     0.027 C 
BRANCH  19  20
ATOM     20  C   UNL     1      98.737  84.205  76.814  1.00  0.00    -0.031 C 
ATOM     21  C   UNL     1      99.449  83.683  75.798  1.00  0.00    -0.028 C 
BRANCH  21  22
ATOM     22  C   UNL     1     100.689  84.276  75.300  1.00  0.00     0.005 C 
ATOM     23  C   UNL     1     100.466  85.693  74.702  1.00  0.00     0.012 C 
ATOM     24  C   UNL     1     101.756  84.312  76.424  1.00  0.00     0.012 C 
ENDBRANCH  21  22
ENDBRANCH  19  20
ENDBRANCH  18  19
ENDBRANCH  17  18
ENDBRANCH   1  17
TORSDOF 10
ENDMDL
MODEL 6
REMARK VINA RESULT:    -5.402      3.639      5.736
REMARK INTER + INTRA:          -9.644
REMARK INTER:                  -9.067
REMARK INTRA:                  -0.577
REMARK UNBOUND:                -1.243
REMARK SMILES COc1cc(CNC(=O)CCCC/C=C/C(C)C)ccc1O
REMARK SMILES IDX 10 1 8 2 7 3 9 5 6 6 5 7 3 8 21 9 4 10 20 11 19 12 2 13 1 14
REMARK SMILES IDX 22 15 11 17 12 18 13 19 14 20 15 21 16 22 17 23 18 24
REMARK H PARENT 7 4 22 16
REMARK Flexibility Score: inf
ROOT
ATOM      1  C   UNL     1      94.379 100.581  75.415  1.00  0.00     0.100 C 
ENDROOT
BRANCH   1   2
ATOM      2  C   UNL     1      94.778  99.176  75.200  1.00  0.00     0.220 C 
ATOM      3  N   UNL     1      94.357  98.200  76.052  1.00  0.00    -0.352 N 
ATOM      4  H   UNL     1      93.792  98.522  76.825  1.00  0.00     0.163 HD
ATOM      5  O   UNL     1      95.490  98.909  74.202  1.00  0.00    -0.275 OA
BRANCH   3   6
ATOM      6  C   UNL     1      94.660  96.811  75.913  1.00  0.00     0.151 C 
BRANCH   6   7
ATOM      7  C   UNL     1      93.791  95.973  76.785  1.00  0.00    -0.025 A 
ATOM      8  C   UNL     1      91.544  95.270  77.506  1.00  0.00     0.160 A 
ATOM      9  C   UNL     1      92.121  94.368  78.425  1.00  0.00     0.157 A 
ATOM     10  C   UNL     1      92.384  96.064  76.697  1.00  0.00     0.056 A 
ATOM     11  C   UNL     1      93.522  94.281  78.537  1.00  0.00     0.050 A 
ATOM     12  C   UNL     1      94.352  95.069  77.717  1.00  0.00     0.009 A 
BRANCH   8  13
ATOM     13  O   UNL     1      90.181  95.407  77.439  1.00  0.00    -0.493 OA
ATOM     14  C   UNL     1      89.542  94.486  76.536  1.00  0.00     0.278 C 
ENDBRANCH   8  13
BRANCH   9  15
ATOM     15  O   UNL     1      91.341  93.580  79.209  1.00  0.00    -0.504 OA
ATOM     16  H   UNL     1      91.522  93.767  80.132  1.00  0.00     0.293 HD
ENDBRANCH   9  15
ENDBRANCH   6   7
ENDBRANCH   3   6
ENDBRANCH   1   2
BRANCH   1  17
ATOM     17  C   UNL     1      92.921 100.840  74.951  1.00  0.00     0.010 C 
BRANCH  17  18
ATOM     18  C   UNL     1      92.492  99.929  73.767  1.00  0.00     0.005 C 
BRANCH  18  19
ATOM     19  C   UNL     1      92.227 100.735  72.467  1.00  0.00     0.027 C 
BRANCH  19  20
ATOM     20  C   UNL     1      91.043 100.266  71.764  1.00  0.00    -0.031 C 
ATOM     21  C   UNL     1      90.945  99.066  71.164  1.00  0.00    -0.028 C 
BRANCH  21  22
ATOM     22  C   UNL     1      89.737  98.607  70.479  1.00  0.00     0.005 C 
ATOM     23  C   UNL     1      89.647  97.057  70.417  1.00  0.00     0.012 C 
ATOM     24  C   UNL     1      88.477  99.208  71.155  1.00  0.00     0.012 C 
ENDBRANCH  21  22
ENDBRANCH  19  20
ENDBRANCH  18  19
ENDBRANCH  17  18
ENDBRANCH   1  17
TORSDOF 10
ENDMDL
MODEL 7
REMARK VINA RESULT:    -5.355     12.641     14.729
REMARK INTER + INTRA:          -9.571
REMARK INTER:                  -8.767
REMARK INTRA:                  -0.805
REMARK UNBOUND:                -1.243
REMARK SMILES COc1cc(CNC(=O)CCCC/C=C/C(C)C)ccc1O
REMARK SMILES IDX 10 1 8 2 7 3 9 5 6 6 5 7 3 8 21 9 4 10 20 11 19 12 2 13 1 14
REMARK SMILES IDX 22 15 11 17 12 18 13 19 14 20 15 21 16 22 17 23 18 24
REMARK H PARENT 7 4 22 16
REMARK Flexibility Score: inf
ROOT
ATOM      1  C   UNL     1      99.507  81.677  79.514  1.00  0.00     0.100 C 
ENDROOT
BRANCH   1   2
ATOM      2  C   UNL     1      99.498  81.123  80.881  1.00  0.00     0.220 C 
ATOM      3  N   UNL     1      98.844  81.771  81.886  1.00  0.00    -0.352 N 
ATOM      4  H   UNL     1      98.406  82.641  81.617  1.00  0.00     0.163 HD
ATOM      5  O   UNL     1     100.088  80.034  81.083  1.00  0.00    -0.275 OA
BRANCH   3   6
ATOM      6  C   UNL     1      98.749  81.304  83.232  1.00  0.00     0.151 C 
BRANCH   6   7
ATOM      7  C   UNL     1      97.839  82.157  84.044  1.00  0.00    -0.025 A 
ATOM      8  C   UNL     1      96.251  82.401  85.909  1.00  0.00     0.160 A 
ATOM      9  C   UNL     1      96.115  83.773  85.614  1.00  0.00     0.157 A 
ATOM     10  C   UNL     1      97.109  81.606  85.121  1.00  0.00     0.056 A 
ATOM     11  C   UNL     1      96.821  84.332  84.531  1.00  0.00     0.050 A 
ATOM     12  C   UNL     1      97.685  83.533  83.757  1.00  0.00     0.009 A 
BRANCH   8  13
ATOM     13  O   UNL     1      95.515  81.838  86.921  1.00  0.00    -0.493 OA
ATOM     14  C   UNL     1      95.604  80.403  86.983  1.00  0.00     0.278 C 
ENDBRANCH   8  13
BRANCH   9  15
ATOM     15  O   UNL     1      95.307  84.569  86.362  1.00  0.00    -0.504 OA
ATOM     16  H   UNL     1      94.655  84.987  85.795  1.00  0.00     0.293 HD
ENDBRANCH   9  15
ENDBRANCH   6   7
ENDBRANCH   3   6
ENDBRANCH   1   2
BRANCH   1  17
ATOM     17  C   UNL     1      98.952  83.126  79.480  1.00  0.00     0.010 C 
BRANCH  17  18
ATOM     18  C   UNL     1      97.530  83.215  78.858  1.00  0.00     0.005 C 
BRANCH  18  19
ATOM     19  C   UNL     1      97.498  84.094  77.578  1.00  0.00     0.027 C 
BRANCH  19  20
ATOM     20  C   UNL     1      98.387  83.587  76.544  1.00  0.00    -0.031 C 
ATOM     21  C   UNL     1      99.613  84.081  76.292  1.00  0.00    -0.028 C 
BRANCH  21  22
ATOM     22  C   UNL     1     100.499  83.542  75.260  1.00  0.00     0.005 C 
ATOM     23  C   UNL     1     101.948  84.088  75.383  1.00  0.00     0.012 C 
ATOM     24  C   UNL     1     100.486  81.992  75.299  1.00  0.00     0.012 C 
ENDBRANCH  21  22
ENDBRANCH  19  20
ENDBRANCH  18  19
ENDBRANCH  17  18
ENDBRANCH   1  17
TORSDOF 10
ENDMDL
MODEL 8
REMARK VINA RESULT:    -5.270     29.925     32.673
REMARK INTER + INTRA:          -9.439
REMARK INTER:                  -8.331
REMARK INTRA:                  -1.109
REMARK UNBOUND:                -1.243
REMARK SMILES COc1cc(CNC(=O)CCCC/C=C/C(C)C)ccc1O
REMARK SMILES IDX 10 1 8 2 7 3 9 5 6 6 5 7 3 8 21 9 4 10 20 11 19 12 2 13 1 14
REMARK SMILES IDX 22 15 11 17 12 18 13 19 14 20 15 21 16 22 17 23 18 24
REMARK H PARENT 7 4 22 16
REMARK Flexibility Score: inf
ROOT
ATOM      1  C   UNL     1      67.785  83.771  70.315  1.00  0.00     0.100 C 
ENDROOT
BRANCH   1   2
ATOM      2  C   UNL     1      66.412  83.269  70.112  1.00  0.00     0.220 C 
ATOM      3  N   UNL     1      65.945  82.218  70.843  1.00  0.00    -0.352 N 
ATOM      4  H   UNL     1      66.611  81.820  71.491  1.00  0.00     0.163 HD
ATOM      5  O   UNL     1      65.688  83.849  69.268  1.00  0.00    -0.275 OA
BRANCH   3   6
ATOM      6  C   UNL     1      64.627  81.678  70.745  1.00  0.00     0.151 C 
BRANCH   6   7
ATOM      7  C   UNL     1      63.811  82.008  71.946  1.00  0.00    -0.025 A 
ATOM      8  C   UNL     1      62.167  83.456  73.069  1.00  0.00     0.160 A 
ATOM      9  C   UNL     1      62.233  82.640  74.218  1.00  0.00     0.157 A 
ATOM     10  C   UNL     1      62.957  83.134  71.946  1.00  0.00     0.056 A 
ATOM     11  C   UNL     1      63.095  81.526  74.240  1.00  0.00     0.050 A 
ATOM     12  C   UNL     1      63.871  81.206  73.109  1.00  0.00     0.009 A 
BRANCH   8  13
ATOM     13  O   UNL     1      61.379  84.579  73.068  1.00  0.00    -0.493 OA
ATOM     14  C   UNL     1      60.127  84.416  72.376  1.00  0.00     0.278 C 
ENDBRANCH   8  13
BRANCH   9  15
ATOM     15  O   UNL     1      61.476  82.915  75.312  1.00  0.00    -0.504 OA
ATOM     16  H   UNL     1      61.967  83.487  75.907  1.00  0.00     0.293 HD
ENDBRANCH   9  15
ENDBRANCH   6   7
ENDBRANCH   3   6
ENDBRANCH   1   2
BRANCH   1  17
ATOM     17  C   UNL     1      68.033  84.177  71.793  1.00  0.00     0.010 C 
BRANCH  17  18
ATOM     18  C   UNL     1      66.874  85.022  72.391  1.00  0.00     0.005 C 
BRANCH  18  19
ATOM     19  C   UNL     1      67.242  85.641  73.767  1.00  0.00     0.027 C 
BRANCH  19  20
ATOM     20  C   UNL     1      66.480  85.048  74.855  1.00  0.00    -0.031 C 
ATOM     21  C   UNL     1      66.623  85.386  76.150  1.00  0.00    -0.028 C 
BRANCH  21  22
ATOM     22  C   UNL     1      65.831  84.790  77.226  1.00  0.00     0.005 C 
ATOM     23  C   UNL     1      65.133  83.474  76.785  1.00  0.00     0.012 C 
ATOM     24  C   UNL     1      66.719  84.553  78.476  1.00  0.00     0.012 C 
ENDBRANCH  21  22
ENDBRANCH  19  20
ENDBRANCH  18  19
ENDBRANCH  17  18
ENDBRANCH   1  17
TORSDOF 10
ENDMDL
MODEL 9
REMARK VINA RESULT:    -5.168     22.480     26.175
REMARK INTER + INTRA:          -9.281
REMARK INTER:                  -8.223
REMARK INTRA:                  -1.058
REMARK UNBOUND:                -1.243
REMARK SMILES COc1cc(CNC(=O)CCCC/C=C/C(C)C)ccc1O
REMARK SMILES IDX 10 1 8 2 7 3 9 5 6 6 5 7 3 8 21 9 4 10 20 11 19 12 2 13 1 14
REMARK SMILES IDX 22 15 11 17 12 18 13 19 14 20 15 21 16 22 17 23 18 24
REMARK H PARENT 7 4 22 16
REMARK Flexibility Score: inf
ROOT
ATOM      1  C   UNL     1      72.031  84.023  64.970  1.00  0.00     0.100 C 
ENDROOT
BRANCH   1   2
ATOM      2  C   UNL     1      73.381  83.426  64.993  1.00  0.00     0.220 C 
ATOM      3  N   UNL     1      73.807  82.721  66.078  1.00  0.00    -0.352 N 
ATOM      4  H   UNL     1      73.146  82.672  66.841  1.00  0.00     0.163 HD
ATOM      5  O   UNL     1      74.107  83.567  63.980  1.00  0.00    -0.275 OA
BRANCH   3   6
ATOM      6  C   UNL     1      75.078  82.080  66.186  1.00  0.00     0.151 C 
BRANCH   6   7
ATOM      7  C   UNL     1      76.070  82.945  66.881  1.00  0.00    -0.025 A 
ATOM      8  C   UNL     1      76.646  84.453  68.739  1.00  0.00     0.160 A 
ATOM      9  C   UNL     1      77.955  84.584  68.229  1.00  0.00     0.157 A 
ATOM     10  C   UNL     1      75.717  83.638  68.060  1.00  0.00     0.056 A 
ATOM     11  C   UNL     1      78.315  83.915  67.043  1.00  0.00     0.050 A 
ATOM     12  C   UNL     1      77.384  83.093  66.378  1.00  0.00     0.009 A 
BRANCH   8  13
ATOM     13  O   UNL     1      76.271  85.155  69.857  1.00  0.00    -0.493 OA
ATOM     14  C   UNL     1      76.178  84.354  71.049  1.00  0.00     0.278 C 
ENDBRANCH   8  13
BRANCH   9  15
ATOM     15  O   UNL     1      78.877  85.350  68.866  1.00  0.00    -0.504 OA
ATOM     16  H   UNL     1      79.223  84.873  69.623  1.00  0.00     0.293 HD
ENDBRANCH   9  15
ENDBRANCH   6   7
ENDBRANCH   3   6
ENDBRANCH   1   2
BRANCH   1  17
ATOM     17  C   UNL     1      70.936  82.952  64.717  1.00  0.00     0.010 C 
BRANCH  17  18
ATOM     18  C   UNL     1      69.845  82.929  65.824  1.00  0.00     0.005 C 
BRANCH  18  19
ATOM     19  C   UNL     1      70.348  82.269  67.136  1.00  0.00     0.027 C 
BRANCH  19  20
ATOM     20  C   UNL     1      70.004  83.055  68.311  1.00  0.00    -0.031 C 
ATOM     21  C   UNL     1      70.686  84.140  68.721  1.00  0.00    -0.028 C 
BRANCH  21  22
ATOM     22  C   UNL     1      70.310  84.927  69.895  1.00  0.00     0.005 C 
ATOM     23  C   UNL     1      70.144  84.049  71.166  1.00  0.00     0.012 C 
ATOM     24  C   UNL     1      71.343  86.058  70.136  1.00  0.00     0.012 C 
ENDBRANCH  21  22
ENDBRANCH  19  20
ENDBRANCH  18  19
ENDBRANCH  17  18
ENDBRANCH   1  17
TORSDOF 10
ENDMDL
MODEL 10
REMARK VINA RESULT:    -5.093      3.697      7.959
REMARK INTER + INTRA:          -9.164
REMARK INTER:                  -8.345
REMARK INTRA:                  -0.819
REMARK UNBOUND:                -1.243
REMARK SMILES COc1cc(CNC(=O)CCCC/C=C/C(C)C)ccc1O
REMARK SMILES IDX 10 1 8 2 7 3 9 5 6 6 5 7 3 8 21 9 4 10 20 11 19 12 2 13 1 14
REMARK SMILES IDX 22 15 11 17 12 18 13 19 14 20 15 21 16 22 17 23 18 24
REMARK H PARENT 7 4 22 16
REMARK Flexibility Score: inf
ROOT
ATOM      1  C   UNL     1      96.119  96.172  82.791  1.00  0.00     0.100 C 
ENDROOT
BRANCH   1   2
ATOM      2  C   UNL     1      95.750  95.062  81.891  1.00  0.00     0.220 C 
ATOM      3  N   UNL     1      96.004  95.141  80.555  1.00  0.00    -0.352 N 
ATOM      4  H   UNL     1      96.429  96.007  80.253  1.00  0.00     0.163 HD
ATOM      5  O   UNL     1      95.220  94.042  82.395  1.00  0.00    -0.275 OA
BRANCH   3   6
ATOM      6  C   UNL     1      95.716  94.113  79.607  1.00  0.00     0.151 C 
BRANCH   6   7
ATOM      7  C   UNL     1      94.461  94.395  78.860  1.00  0.00    -0.025 A 
ATOM      8  C   UNL     1      93.322  95.327  76.886  1.00  0.00     0.160 A 
ATOM      9  C   UNL     1      92.078  94.923  77.411  1.00  0.00     0.157 A 
ATOM     10  C   UNL     1      94.500  95.062  77.615  1.00  0.00     0.056 A 
ATOM     11  C   UNL     1      92.021  94.274  78.660  1.00  0.00     0.050 A 
ATOM     12  C   UNL     1      93.203  94.002  79.375  1.00  0.00     0.009 A 
BRANCH   8  13
ATOM     13  O   UNL     1      93.377  96.018  75.701  1.00  0.00    -0.493 OA
ATOM     14  C   UNL     1      93.438  97.447  75.858  1.00  0.00     0.278 C 
ENDBRANCH   8  13
BRANCH   9  15
ATOM     15  O   UNL     1      90.926  95.151  76.728  1.00  0.00    -0.504 OA
ATOM     16  H   UNL     1      90.241  94.561  77.049  1.00  0.00     0.293 HD
ENDBRANCH   9  15
ENDBRANCH   6   7
ENDBRANCH   3   6
ENDBRANCH   1   2
BRANCH   1  17
ATOM     17  C   UNL     1      95.031  97.279  82.810  1.00  0.00     0.010 C 
BRANCH  17  18
ATOM     18  C   UNL     1      95.629  98.713  82.882  1.00  0.00     0.005 C 
BRANCH  18  19
ATOM     19  C   UNL     1      96.986  98.750  83.634  1.00  0.00     0.027 C 
BRANCH  19  20
ATOM     20  C   UNL     1      96.811  98.819  85.077  1.00  0.00    -0.031 C 
ATOM     21  C   UNL     1      95.885  99.579  85.690  1.00  0.00    -0.028 C 
BRANCH  21  22
ATOM     22  C   UNL     1      95.713  99.618  87.142  1.00  0.00     0.005 C 
ATOM     23  C   UNL     1      94.563 100.569  87.574  1.00  0.00     0.012 C 
ATOM     24  C   UNL     1      95.484  98.187  87.694  1.00  0.00     0.012 C 
ENDBRANCH  21  22
ENDBRANCH  19  20
ENDBRANCH  18  19
ENDBRANCH  17  18
ENDBRANCH   1  17
TORSDOF 10
ENDMDL
