MODEL 1
REMARK VINA RESULT:    -6.370      0.000      0.000
REMARK INTER + INTRA:         -10.735
REMARK INTER:                  -9.908
REMARK INTRA:                  -0.827
REMARK UNBOUND:                -0.827
REMARK SMILES COc1cc(CNC(=O)CCCC/C=C/C(C)C)ccc1O
REMARK SMILES IDX 10 1 8 2 7 3 9 5 6 6 5 7 3 8 21 9 4 10 20 11 19 12 2 13 1 14
REMARK SMILES IDX 22 15 11 17 12 18 13 19 14 20 15 21 16 22 17 23 18 24
REMARK H PARENT 7 4 22 16
REMARK Flexibility Score: inf
ROOT
ATOM      1  C   UNL     1      96.329  81.316  76.735  1.00  0.00     0.100 C 
ENDROOT
BRANCH   1   2
ATOM      2  C   UNL     1      97.130  80.808  77.865  1.00  0.00     0.220 C 
ATOM      3  N   UNL     1      97.508  81.641  78.875  1.00  0.00    -0.352 N 
ATOM      4  H   UNL     1      97.219  82.603  78.765  1.00  0.00     0.163 HD
ATOM      5  O   UNL     1      97.430  79.590  77.877  1.00  0.00    -0.275 OA
BRANCH   3   6
ATOM      6  C   UNL     1      98.255  81.242  80.025  1.00  0.00     0.151 C 
BRANCH   6   7
ATOM      7  C   UNL     1      97.363  80.945  81.179  1.00  0.00    -0.025 A 
ATOM      8  C   UNL     1      95.928  81.733  83.018  1.00  0.00     0.160 A 
ATOM      9  C   UNL     1      95.645  80.397  83.371  1.00  0.00     0.157 A 
ATOM     10  C   UNL     1      96.785  81.995  81.929  1.00  0.00     0.056 A 
ATOM     11  C   UNL     1      96.230  79.341  82.645  1.00  0.00     0.050 A 
ATOM     12  C   UNL     1      97.075  79.612  81.551  1.00  0.00     0.009 A 
BRANCH   8  13
ATOM     13  O   UNL     1      95.414  82.765  83.762  1.00  0.00    -0.493 OA
ATOM     14  C   UNL     1      95.991  84.049  83.463  1.00  0.00     0.278 C 
ENDBRANCH   8  13
BRANCH   9  15
ATOM     15  O   UNL     1      94.814  80.111  84.406  1.00  0.00    -0.504 OA
ATOM     16  H   UNL     1      95.296  80.183  85.233  1.00  0.00     0.293 HD
ENDBRANCH   9  15
ENDBRANCH   6   7
ENDBRANCH   3   6
ENDBRANCH   1   2
BRANCH   1  17
ATOM     17  C   UNL     1      95.876  82.783  76.968  1.00  0.00     0.010 C 
BRANCH  17  18
ATOM     18  C   UNL     1      95.961  83.654  75.684  1.00  0.00     0.005 C 
BRANCH  18  19
ATOM     19  C   UNL     1      96.520  82.864  74.470  1.00  0.00     0.027 C 
BRANCH  19  20
ATOM     20  C   UNL     1      97.831  83.346  74.060  1.00  0.00    -0.031 C 
ATOM     21  C   UNL     1      98.632  82.708  73.188  1.00  0.00    -0.028 C 
BRANCH  21  22
ATOM     22  C   UNL     1      99.938  83.222  72.775  1.00  0.00     0.005 C 
ATOM     23  C   UNL     1      99.847  84.655  72.181  1.00  0.00     0.012 C 
ATOM     24  C   UNL     1     100.932  83.178  73.964  1.00  0.00     0.012 C 
ENDBRANCH  21  22
ENDBRANCH  19  20
ENDBRANCH  18  19
ENDBRANCH  17  18
ENDBRANCH   1  17
TORSDOF 10
ENDMDL
MODEL 2
REMARK VINA RESULT:    -6.335     24.120     26.609
REMARK INTER + INTRA:         -10.681
REMARK INTER:                  -9.984
REMARK INTRA:                  -0.696
REMARK UNBOUND:                -0.827
REMARK SMILES COc1cc(CNC(=O)CCCC/C=C/C(C)C)ccc1O
REMARK SMILES IDX 10 1 8 2 7 3 9 5 6 6 5 7 3 8 21 9 4 10 20 11 19 12 2 13 1 14
REMARK SMILES IDX 22 15 11 17 12 18 13 19 14 20 15 21 16 22 17 23 18 24
REMARK H PARENT 7 4 22 16
REMARK Flexibility Score: inf
ROOT
ATOM      1  C   UNL     1      77.286  85.360  68.239  1.00  0.00     0.100 C 
ENDROOT
BRANCH   1   2
ATOM      2  C   UNL     1      77.031  84.773  66.909  1.00  0.00     0.220 C 
ATOM      3  N   UNL     1      75.885  85.066  66.232  1.00  0.00    -0.352 N 
ATOM      4  H   UNL     1      75.245  85.677  66.721  1.00  0.00     0.163 HD
ATOM      5  O   UNL     1      77.906  84.022  66.416  1.00  0.00    -0.275 OA
BRANCH   3   6
ATOM      6  C   UNL     1      75.559  84.577  64.931  1.00  0.00     0.151 C 
BRANCH   6   7
ATOM      7  C   UNL     1      74.535  83.499  64.992  1.00  0.00    -0.025 A 
ATOM      8  C   UNL     1      72.238  82.719  64.569  1.00  0.00     0.160 A 
ATOM      9  C   UNL     1      72.574  81.450  65.083  1.00  0.00     0.157 A 
ATOM     10  C   UNL     1      73.219  83.732  64.531  1.00  0.00     0.056 A 
ATOM     11  C   UNL     1      73.876  81.209  65.565  1.00  0.00     0.050 A 
ATOM     12  C   UNL     1      74.852  82.223  65.511  1.00  0.00     0.009 A 
BRANCH   8  13
ATOM     13  O   UNL     1      70.954  82.978  64.160  1.00  0.00    -0.493 OA
ATOM     14  C   UNL     1      70.514  84.323  64.424  1.00  0.00     0.278 C 
ENDBRANCH   8  13
BRANCH   9  15
ATOM     15  O   UNL     1      71.656  80.450  65.123  1.00  0.00    -0.504 OA
ATOM     16  H   UNL     1      70.783  80.821  65.271  1.00  0.00     0.293 HD
ENDBRANCH   9  15
ENDBRANCH   6   7
ENDBRANCH   3   6
ENDBRANCH   1   2
BRANCH   1  17
ATOM     17  C   UNL     1      76.786  86.827  68.323  1.00  0.00     0.010 C 
BRANCH  17  18
ATOM     18  C   UNL     1      77.488  87.764  67.300  1.00  0.00     0.005 C 
BRANCH  18  19
ATOM     19  C   UNL     1      76.873  89.190  67.287  1.00  0.00     0.027 C 
BRANCH  19  20
ATOM     20  C   UNL     1      75.844  89.351  68.303  1.00  0.00    -0.031 C 
ATOM     21  C   UNL     1      75.573  90.512  68.927  1.00  0.00    -0.028 C 
BRANCH  21  22
ATOM     22  C   UNL     1      74.520  90.656  69.932  1.00  0.00     0.005 C 
ATOM     23  C   UNL     1      74.016  92.121  70.051  1.00  0.00     0.012 C 
ATOM     24  C   UNL     1      73.347  89.691  69.622  1.00  0.00     0.012 C 
ENDBRANCH  21  22
ENDBRANCH  19  20
ENDBRANCH  18  19
ENDBRANCH  17  18
ENDBRANCH   1  17
TORSDOF 10
ENDMDL
MODEL 3
REMARK VINA RESULT:    -6.319      1.492      2.184
REMARK INTER + INTRA:         -10.656
REMARK INTER:                  -9.833
REMARK INTRA:                  -0.823
REMARK UNBOUND:                -0.827
REMARK SMILES COc1cc(CNC(=O)CCCC/C=C/C(C)C)ccc1O
REMARK SMILES IDX 10 1 8 2 7 3 9 5 6 6 5 7 3 8 21 9 4 10 20 11 19 12 2 13 1 14
REMARK SMILES IDX 22 15 11 17 12 18 13 19 14 20 15 21 16 22 17 23 18 24
REMARK H PARENT 7 4 22 16
REMARK Flexibility Score: inf
ROOT
ATOM      1  C   UNL     1      96.709  80.902  76.539  1.00  0.00     0.100 C 
ENDROOT
BRANCH   1   2
ATOM      2  C   UNL     1      97.226  80.150  77.699  1.00  0.00     0.220 C 
ATOM      3  N   UNL     1      97.449  80.779  78.887  1.00  0.00    -0.352 N 
ATOM      4  H   UNL     1      97.258  81.771  78.887  1.00  0.00     0.163 HD
ATOM      5  O   UNL     1      97.430  78.919  77.563  1.00  0.00    -0.275 OA
BRANCH   3   6
ATOM      6  C   UNL     1      97.916  80.137  80.074  1.00  0.00     0.151 C 
BRANCH   6   7
ATOM      7  C   UNL     1      97.582  80.928  81.290  1.00  0.00    -0.025 A 
ATOM      8  C   UNL     1      97.827  81.318  83.709  1.00  0.00     0.160 A 
ATOM      9  C   UNL     1      96.972  82.435  83.616  1.00  0.00     0.157 A 
ATOM     10  C   UNL     1      98.122  80.574  82.547  1.00  0.00     0.056 A 
ATOM     11  C   UNL     1      96.411  82.788  82.373  1.00  0.00     0.050 A 
ATOM     12  C   UNL     1      96.721  82.047  81.216  1.00  0.00     0.009 A 
BRANCH   8  13
ATOM     13  O   UNL     1      98.323  80.931  84.928  1.00  0.00    -0.493 OA
ATOM     14  C   UNL     1      99.485  80.086  84.847  1.00  0.00     0.278 C 
ENDBRANCH   8  13
BRANCH   9  15
ATOM     15  O   UNL     1      96.678  83.180  84.712  1.00  0.00    -0.504 OA
ATOM     16  H   UNL     1      96.730  84.113  84.490  1.00  0.00     0.293 HD
ENDBRANCH   9  15
ENDBRANCH   6   7
ENDBRANCH   3   6
ENDBRANCH   1   2
BRANCH   1  17
ATOM     17  C   UNL     1      95.930  82.170  76.980  1.00  0.00     0.010 C 
BRANCH  17  18
ATOM     18  C   UNL     1      96.188  83.392  76.055  1.00  0.00     0.005 C 
BRANCH  18  19
ATOM     19  C   UNL     1      96.326  82.985  74.563  1.00  0.00     0.027 C 
BRANCH  19  20
ATOM     20  C   UNL     1      97.580  83.441  73.984  1.00  0.00    -0.031 C 
ATOM     21  C   UNL     1      98.524  82.623  73.483  1.00  0.00    -0.028 C 
BRANCH  21  22
ATOM     22  C   UNL     1      99.769  83.105  72.887  1.00  0.00     0.005 C 
ATOM     23  C   UNL     1     100.198  82.262  71.654  1.00  0.00     0.012 C 
ATOM     24  C   UNL     1      99.640  84.605  72.514  1.00  0.00     0.012 C 
ENDBRANCH  21  22
ENDBRANCH  19  20
ENDBRANCH  18  19
ENDBRANCH  17  18
ENDBRANCH   1  17
TORSDOF 10
ENDMDL
MODEL 4
REMARK VINA RESULT:    -6.215     13.352     16.642
REMARK INTER + INTRA:         -10.493
REMARK INTER:                  -9.777
REMARK INTRA:                  -0.716
REMARK UNBOUND:                -0.827
REMARK SMILES COc1cc(CNC(=O)CCCC/C=C/C(C)C)ccc1O
REMARK SMILES IDX 10 1 8 2 7 3 9 5 6 6 5 7 3 8 21 9 4 10 20 11 19 12 2 13 1 14
REMARK SMILES IDX 22 15 11 17 12 18 13 19 14 20 15 21 16 22 17 23 18 24
REMARK H PARENT 7 4 22 16
REMARK Flexibility Score: inf
ROOT
ATOM      1  C   UNL     1      94.002  93.952  76.615  1.00  0.00     0.100 C 
ENDROOT
BRANCH   1   2
ATOM      2  C   UNL     1      94.671  95.243  76.362  1.00  0.00     0.220 C 
ATOM      3  N   UNL     1      94.506  95.886  75.173  1.00  0.00    -0.352 N 
ATOM      4  H   UNL     1      93.927  95.401  74.502  1.00  0.00     0.163 HD
ATOM      5  O   UNL     1      95.371  95.736  77.280  1.00  0.00    -0.275 OA
BRANCH   3   6
ATOM      6  C   UNL     1      95.082  97.151  74.843  1.00  0.00     0.151 C 
BRANCH   6   7
ATOM      7  C   UNL     1      95.298  97.287  73.376  1.00  0.00    -0.025 A 
ATOM      8  C   UNL     1      95.064  98.594  71.303  1.00  0.00     0.160 A 
ATOM      9  C   UNL     1      95.718  97.572  70.584  1.00  0.00     0.157 A 
ATOM     10  C   UNL     1      94.858  98.441  72.690  1.00  0.00     0.056 A 
ATOM     11  C   UNL     1      96.144  96.407  71.251  1.00  0.00     0.050 A 
ATOM     12  C   UNL     1      95.945  96.268  72.639  1.00  0.00     0.009 A 
BRANCH   8  13
ATOM     13  O   UNL     1      94.589  99.701  70.646  1.00  0.00    -0.493 OA
ATOM     14  C   UNL     1      93.200  99.613  70.277  1.00  0.00     0.278 C 
ENDBRANCH   8  13
BRANCH   9  15
ATOM     15  O   UNL     1      95.944  97.693  69.250  1.00  0.00    -0.504 OA
ATOM     16  H   UNL     1      96.302  96.871  68.909  1.00  0.00     0.293 HD
ENDBRANCH   9  15
ENDBRANCH   6   7
ENDBRANCH   3   6
ENDBRANCH   1   2
BRANCH   1  17
ATOM     17  C   UNL     1      93.251  93.952  77.973  1.00  0.00     0.010 C 
BRANCH  17  18
ATOM     18  C   UNL     1      91.929  93.136  77.934  1.00  0.00     0.005 C 
BRANCH  18  19
ATOM     19  C   UNL     1      90.864  93.781  77.007  1.00  0.00     0.027 C 
BRANCH  19  20
ATOM     20  C   UNL     1      90.682  93.027  75.776  1.00  0.00    -0.031 C 
ATOM     21  C   UNL     1      90.881  91.701  75.664  1.00  0.00    -0.028 C 
BRANCH  21  22
ATOM     22  C   UNL     1      90.672  90.960  74.420  1.00  0.00     0.005 C 
ATOM     23  C   UNL     1      90.905  89.434  74.597  1.00  0.00     0.012 C 
ATOM     24  C   UNL     1      89.255  91.242  73.859  1.00  0.00     0.012 C 
ENDBRANCH  21  22
ENDBRANCH  19  20
ENDBRANCH  18  19
ENDBRANCH  17  18
ENDBRANCH   1  17
TORSDOF 10
ENDMDL
MODEL 5
REMARK VINA RESULT:    -6.214     20.692     22.766
REMARK INTER + INTRA:         -10.492
REMARK INTER:                  -8.605
REMARK INTRA:                  -1.888
REMARK UNBOUND:                -0.827
REMARK SMILES COc1cc(CNC(=O)CCCC/C=C/C(C)C)ccc1O
REMARK SMILES IDX 10 1 8 2 7 3 9 5 6 6 5 7 3 8 21 9 4 10 20 11 19 12 2 13 1 14
REMARK SMILES IDX 22 15 11 17 12 18 13 19 14 20 15 21 16 22 17 23 18 24
REMARK H PARENT 7 4 22 16
REMARK Flexibility Score: inf
ROOT
ATOM      1  C   UNL     1      88.160  99.296  66.312  1.00  0.00     0.100 C 
ENDROOT
BRANCH   1   2
ATOM      2  C   UNL     1      89.130  98.832  67.323  1.00  0.00     0.220 C 
ATOM      3  N   UNL     1      88.767  98.729  68.633  1.00  0.00    -0.352 N 
ATOM      4  H   UNL     1      87.818  99.012  68.836  1.00  0.00     0.163 HD
ATOM      5  O   UNL     1      90.281  98.517  66.939  1.00  0.00    -0.275 OA
BRANCH   3   6
ATOM      6  C   UNL     1      89.618  98.261  69.680  1.00  0.00     0.151 C 
BRANCH   6   7
ATOM      7  C   UNL     1      90.358  99.381  70.324  1.00  0.00    -0.025 A 
ATOM      8  C   UNL     1      90.380 101.658  71.260  1.00  0.00     0.160 A 
ATOM      9  C   UNL     1      91.749 101.518  71.569  1.00  0.00     0.157 A 
ATOM     10  C   UNL     1      89.698 100.590  70.640  1.00  0.00     0.056 A 
ATOM     11  C   UNL     1      92.424 100.326  71.242  1.00  0.00     0.050 A 
ATOM     12  C   UNL     1      91.733  99.261  70.633  1.00  0.00     0.009 A 
BRANCH   8  13
ATOM     13  O   UNL     1      89.734 102.841  71.517  1.00  0.00    -0.493 OA
ATOM     14  C   UNL     1      89.792 103.787  70.434  1.00  0.00     0.278 C 
ENDBRANCH   8  13
BRANCH   9  15
ATOM     15  O   UNL     1      92.431 102.522  72.178  1.00  0.00    -0.504 OA
ATOM     16  H   UNL     1      93.104 102.150  72.753  1.00  0.00     0.293 HD
ENDBRANCH   9  15
ENDBRANCH   6   7
ENDBRANCH   3   6
ENDBRANCH   1   2
BRANCH   1  17
ATOM     17  C   UNL     1      87.099 100.247  66.930  1.00  0.00     0.010 C 
BRANCH  17  18
ATOM     18  C   UNL     1      87.073 101.646  66.254  1.00  0.00     0.005 C 
BRANCH  18  19
ATOM     19  C   UNL     1      88.014 102.660  66.958  1.00  0.00     0.027 C 
BRANCH  19  20
ATOM     20  C   UNL     1      89.379 102.579  66.459  1.00  0.00    -0.031 C 
ATOM     21  C   UNL     1      90.433 102.195  67.200  1.00  0.00    -0.028 C 
BRANCH  21  22
ATOM     22  C   UNL     1      91.794 102.102  66.671  1.00  0.00     0.005 C 
ATOM     23  C   UNL     1      92.803 101.578  67.731  1.00  0.00     0.012 C 
ATOM     24  C   UNL     1      91.816 101.213  65.401  1.00  0.00     0.012 C 
ENDBRANCH  21  22
ENDBRANCH  19  20
ENDBRANCH  18  19
ENDBRANCH  17  18
ENDBRANCH   1  17
TORSDOF 10
ENDMDL
MODEL 6
REMARK VINA RESULT:    -6.209     14.894     16.808
REMARK INTER + INTRA:         -10.484
REMARK INTER:                  -9.911
REMARK INTRA:                  -0.573
REMARK UNBOUND:                -0.827
REMARK SMILES COc1cc(CNC(=O)CCCC/C=C/C(C)C)ccc1O
REMARK SMILES IDX 10 1 8 2 7 3 9 5 6 6 5 7 3 8 21 9 4 10 20 11 19 12 2 13 1 14
REMARK SMILES IDX 22 15 11 17 12 18 13 19 14 20 15 21 16 22 17 23 18 24
REMARK H PARENT 7 4 22 16
REMARK Flexibility Score: inf
ROOT
ATOM      1  C   UNL     1      93.561  99.173  73.514  1.00  0.00     0.100 C 
ENDROOT
BRANCH   1   2
ATOM      2  C   UNL     1      94.280  97.885  73.496  1.00  0.00     0.220 C 
ATOM      3  N   UNL     1      93.971  96.908  74.394  1.00  0.00    -0.352 N 
ATOM      4  H   UNL     1      93.250  97.153  75.059  1.00  0.00     0.163 HD
ATOM      5  O   UNL     1      95.160  97.710  72.619  1.00  0.00    -0.275 OA
BRANCH   3   6
ATOM      6  C   UNL     1      94.583  95.619  74.440  1.00  0.00     0.151 C 
BRANCH   6   7
ATOM      7  C   UNL     1      94.170  94.860  75.652  1.00  0.00    -0.025 A 
ATOM      8  C   UNL     1      92.646  93.268  76.750  1.00  0.00     0.160 A 
ATOM      9  C   UNL     1      93.379  93.391  77.948  1.00  0.00     0.157 A 
ATOM     10  C   UNL     1      93.046  94.004  75.615  1.00  0.00     0.056 A 
ATOM     11  C   UNL     1      94.490  94.256  78.006  1.00  0.00     0.050 A 
ATOM     12  C   UNL     1      94.889  94.978  76.864  1.00  0.00     0.009 A 
BRANCH   8  13
ATOM     13  O   UNL     1      91.525  92.478  76.707  1.00  0.00    -0.493 OA
ATOM     14  C   UNL     1      91.350  91.774  75.464  1.00  0.00     0.278 C 
ENDBRANCH   8  13
BRANCH   9  15
ATOM     15  O   UNL     1      93.028  92.686  79.054  1.00  0.00    -0.504 OA
ATOM     16  H   UNL     1      93.684  92.005  79.222  1.00  0.00     0.293 HD
ENDBRANCH   9  15
ENDBRANCH   6   7
ENDBRANCH   3   6
ENDBRANCH   1   2
BRANCH   1  17
ATOM     17  C   UNL     1      93.295  99.701  72.078  1.00  0.00     0.010 C 
BRANCH  17  18
ATOM     18  C   UNL     1      91.881  99.328  71.549  1.00  0.00     0.005 C 
BRANCH  18  19
ATOM     19  C   UNL     1      91.023 100.581  71.225  1.00  0.00     0.027 C 
BRANCH  19  20
ATOM     20  C   UNL     1      90.197 100.388  70.043  1.00  0.00    -0.031 C 
ATOM     21  C   UNL     1      89.664  99.207  69.678  1.00  0.00    -0.028 C 
BRANCH  21  22
ATOM     22  C   UNL     1      88.820  99.040  68.495  1.00  0.00     0.005 C 
ATOM     23  C   UNL     1      88.599 100.377  67.734  1.00  0.00     0.012 C 
ATOM     24  C   UNL     1      89.421  97.962  67.556  1.00  0.00     0.012 C 
ENDBRANCH  21  22
ENDBRANCH  19  20
ENDBRANCH  18  19
ENDBRANCH  17  18
ENDBRANCH   1  17
TORSDOF 10
ENDMDL
MODEL 7
REMARK VINA RESULT:    -6.108     20.309     22.490
REMARK INTER + INTRA:         -10.327
REMARK INTER:                  -8.898
REMARK INTRA:                  -1.429
REMARK UNBOUND:                -0.827
REMARK SMILES COc1cc(CNC(=O)CCCC/C=C/C(C)C)ccc1O
REMARK SMILES IDX 10 1 8 2 7 3 9 5 6 6 5 7 3 8 21 9 4 10 20 11 19 12 2 13 1 14
REMARK SMILES IDX 22 15 11 17 12 18 13 19 14 20 15 21 16 22 17 23 18 24
REMARK H PARENT 7 4 22 16
REMARK Flexibility Score: inf
ROOT
ATOM      1  C   UNL     1      87.905  99.299  66.265  1.00  0.00     0.100 C 
ENDROOT
BRANCH   1   2
ATOM      2  C   UNL     1      88.970  98.804  67.159  1.00  0.00     0.220 C 
ATOM      3  N   UNL     1      88.713  98.566  68.476  1.00  0.00    -0.352 N 
ATOM      4  H   UNL     1      87.769  98.777  68.771  1.00  0.00     0.163 HD
ATOM      5  O   UNL     1      90.103  98.587  66.666  1.00  0.00    -0.275 OA
BRANCH   3   6
ATOM      6  C   UNL     1      89.662  98.058  69.413  1.00  0.00     0.151 C 
BRANCH   6   7
ATOM      7  C   UNL     1      90.316  99.155  70.178  1.00  0.00    -0.025 A 
ATOM      8  C   UNL     1      92.331 100.121  71.211  1.00  0.00     0.160 A 
ATOM      9  C   UNL     1      91.583 101.246  71.619  1.00  0.00     0.157 A 
ATOM     10  C   UNL     1      91.691  99.087  70.498  1.00  0.00     0.056 A 
ATOM     11  C   UNL     1      90.207 101.318  71.324  1.00  0.00     0.050 A 
ATOM     12  C   UNL     1      89.580 100.286  70.601  1.00  0.00     0.009 A 
BRANCH   8  13
ATOM     13  O   UNL     1      93.655 100.016  71.553  1.00  0.00    -0.493 OA
ATOM     14  C   UNL     1      94.545  99.913  70.426  1.00  0.00     0.278 C 
ENDBRANCH   8  13
BRANCH   9  15
ATOM     15  O   UNL     1      92.172 102.265  72.296  1.00  0.00    -0.504 OA
ATOM     16  H   UNL     1      93.034 101.985  72.612  1.00  0.00     0.293 HD
ENDBRANCH   9  15
ENDBRANCH   6   7
ENDBRANCH   3   6
ENDBRANCH   1   2
BRANCH   1  17
ATOM     17  C   UNL     1      87.016 100.361  66.967  1.00  0.00     0.010 C 
BRANCH  17  18
ATOM     18  C   UNL     1      86.897 101.682  66.157  1.00  0.00     0.005 C 
BRANCH  18  19
ATOM     19  C   UNL     1      87.915 102.757  66.626  1.00  0.00     0.027 C 
BRANCH  19  20
ATOM     20  C   UNL     1      89.261 102.217  66.753  1.00  0.00    -0.031 C 
ATOM     21  C   UNL     1      90.342 102.729  66.137  1.00  0.00    -0.028 C 
BRANCH  21  22
ATOM     22  C   UNL     1      91.689 102.182  66.295  1.00  0.00     0.005 C 
ATOM     23  C   UNL     1      91.898 101.525  67.688  1.00  0.00     0.012 C 
ATOM     24  C   UNL     1      91.996 101.175  65.157  1.00  0.00     0.012 C 
ENDBRANCH  21  22
ENDBRANCH  19  20
ENDBRANCH  18  19
ENDBRANCH  17  18
ENDBRANCH   1  17
TORSDOF 10
ENDMDL
MODEL 8
REMARK VINA RESULT:    -5.883      3.408      8.034
REMARK INTER + INTRA:          -9.976
REMARK INTER:                  -8.939
REMARK INTRA:                  -1.037
REMARK UNBOUND:                -0.827
REMARK SMILES COc1cc(CNC(=O)CCCC/C=C/C(C)C)ccc1O
REMARK SMILES IDX 10 1 8 2 7 3 9 5 6 6 5 7 3 8 21 9 4 10 20 11 19 12 2 13 1 14
REMARK SMILES IDX 22 15 11 17 12 18 13 19 14 20 15 21 16 22 17 23 18 24
REMARK H PARENT 7 4 22 16
REMARK Flexibility Score: inf
ROOT
ATOM      1  C   UNL     1      97.128  77.932  76.641  1.00  0.00     0.100 C 
ENDROOT
BRANCH   1   2
ATOM      2  C   UNL     1      97.717  78.405  75.374  1.00  0.00     0.220 C 
ATOM      3  N   UNL     1      96.918  78.836  74.358  1.00  0.00    -0.352 N 
ATOM      4  H   UNL     1      95.926  78.779  74.542  1.00  0.00     0.163 HD
ATOM      5  O   UNL     1      98.968  78.419  75.271  1.00  0.00    -0.275 OA
BRANCH   3   6
ATOM      6  C   UNL     1      97.388  79.341  73.108  1.00  0.00     0.151 C 
BRANCH   6   7
ATOM      7  C   UNL     1      97.839  80.755  73.225  1.00  0.00    -0.025 A 
ATOM      8  C   UNL     1      97.429  83.065  73.972  1.00  0.00     0.160 A 
ATOM      9  C   UNL     1      98.690  83.451  73.473  1.00  0.00     0.157 A 
ATOM     10  C   UNL     1      97.015  81.723  73.841  1.00  0.00     0.056 A 
ATOM     11  C   UNL     1      99.515  82.501  72.838  1.00  0.00     0.050 A 
ATOM     12  C   UNL     1      99.098  81.161  72.723  1.00  0.00     0.009 A 
BRANCH   8  13
ATOM     13  O   UNL     1      96.595  84.000  74.531  1.00  0.00    -0.493 OA
ATOM     14  C   UNL     1      96.034  83.603  75.796  1.00  0.00     0.278 C 
ENDBRANCH   8  13
BRANCH   9  15
ATOM     15  O   UNL     1      99.125  84.732  73.594  1.00  0.00    -0.504 OA
ATOM     16  H   UNL     1      98.573  85.310  73.062  1.00  0.00     0.293 HD
ENDBRANCH   9  15
ENDBRANCH   6   7
ENDBRANCH   3   6
ENDBRANCH   1   2
BRANCH   1  17
ATOM     17  C   UNL     1      97.347  78.953  77.790  1.00  0.00     0.010 C 
BRANCH  17  18
ATOM     18  C   UNL     1      96.999  80.411  77.379  1.00  0.00     0.005 C 
BRANCH  18  19
ATOM     19  C   UNL     1      97.744  81.463  78.245  1.00  0.00     0.027 C 
BRANCH  19  20
ATOM     20  C   UNL     1      97.653  81.165  79.666  1.00  0.00    -0.031 C 
ATOM     21  C   UNL     1      97.021  81.944  80.563  1.00  0.00    -0.028 C 
BRANCH  21  22
ATOM     22  C   UNL     1      96.926  81.614  81.985  1.00  0.00     0.005 C 
ATOM     23  C   UNL     1      95.968  82.571  82.749  1.00  0.00     0.012 C 
ATOM     24  C   UNL     1      96.491  80.137  82.165  1.00  0.00     0.012 C 
ENDBRANCH  21  22
ENDBRANCH  19  20
ENDBRANCH  18  19
ENDBRANCH  17  18
ENDBRANCH   1  17
TORSDOF 10
ENDMDL
MODEL 9
REMARK VINA RESULT:    -5.873     13.655     17.087
REMARK INTER + INTRA:          -9.962
REMARK INTER:                  -9.170
REMARK INTRA:                  -0.792
REMARK UNBOUND:                -0.827
REMARK SMILES COc1cc(CNC(=O)CCCC/C=C/C(C)C)ccc1O
REMARK SMILES IDX 10 1 8 2 7 3 9 5 6 6 5 7 3 8 21 9 4 10 20 11 19 12 2 13 1 14
REMARK SMILES IDX 22 15 11 17 12 18 13 19 14 20 15 21 16 22 17 23 18 24
REMARK H PARENT 7 4 22 16
REMARK Flexibility Score: inf
ROOT
ATOM      1  C   UNL     1      93.433  94.467  75.923  1.00  0.00     0.100 C 
ENDROOT
BRANCH   1   2
ATOM      2  C   UNL     1      93.204  95.898  75.644  1.00  0.00     0.220 C 
ATOM      3  N   UNL     1      93.873  96.521  74.634  1.00  0.00    -0.352 N 
ATOM      4  H   UNL     1      94.529  95.938  74.133  1.00  0.00     0.163 HD
ATOM      5  O   UNL     1      92.364  96.511  76.347  1.00  0.00    -0.275 OA
BRANCH   3   6
ATOM      6  C   UNL     1      93.700  97.889  74.264  1.00  0.00     0.151 C 
BRANCH   6   7
ATOM      7  C   UNL     1      94.333  98.184  72.950  1.00  0.00    -0.025 A 
ATOM      8  C   UNL     1      96.125  97.777  71.311  1.00  0.00     0.160 A 
ATOM      9  C   UNL     1      95.542  98.721  70.439  1.00  0.00     0.157 A 
ATOM     10  C   UNL     1      95.517  97.520  72.557  1.00  0.00     0.056 A 
ATOM     11  C   UNL     1      94.373  99.405  70.825  1.00  0.00     0.050 A 
ATOM     12  C   UNL     1      93.767  99.133  72.067  1.00  0.00     0.009 A 
BRANCH   8  13
ATOM     13  O   UNL     1      97.299  97.156  70.967  1.00  0.00    -0.493 OA
ATOM     14  C   UNL     1      98.473  97.771  71.529  1.00  0.00     0.278 C 
ENDBRANCH   8  13
BRANCH   9  15
ATOM     15  O   UNL     1      96.095  98.982  69.226  1.00  0.00    -0.504 OA
ATOM     16  H   UNL     1      96.596  98.218  68.931  1.00  0.00     0.293 HD
ENDBRANCH   9  15
ENDBRANCH   6   7
ENDBRANCH   3   6
ENDBRANCH   1   2
BRANCH   1  17
ATOM     17  C   UNL     1      93.529  94.188  77.447  1.00  0.00     0.010 C 
BRANCH  17  18
ATOM     18  C   UNL     1      92.485  93.147  77.938  1.00  0.00     0.005 C 
BRANCH  18  19
ATOM     19  C   UNL     1      91.031  93.551  77.573  1.00  0.00     0.027 C 
BRANCH  19  20
ATOM     20  C   UNL     1      90.326  92.486  76.876  1.00  0.00    -0.031 C 
ATOM     21  C   UNL     1      90.724  91.956  75.705  1.00  0.00    -0.028 C 
BRANCH  21  22
ATOM     22  C   UNL     1      90.010  90.872  75.031  1.00  0.00     0.005 C 
ATOM     23  C   UNL     1      89.148  91.383  73.844  1.00  0.00     0.012 C 
ATOM     24  C   UNL     1      91.009  89.783  74.561  1.00  0.00     0.012 C 
ENDBRANCH  21  22
ENDBRANCH  19  20
ENDBRANCH  18  19
ENDBRANCH  17  18
ENDBRANCH   1  17
TORSDOF 10
ENDMDL
MODEL 10
REMARK VINA RESULT:    -5.819     19.318     21.255
REMARK INTER + INTRA:          -9.877
REMARK INTER:                  -8.326
REMARK INTRA:                  -1.552
REMARK UNBOUND:                -0.827
REMARK SMILES COc1cc(CNC(=O)CCCC/C=C/C(C)C)ccc1O
REMARK SMILES IDX 10 1 8 2 7 3 9 5 6 6 5 7 3 8 21 9 4 10 20 11 19 12 2 13 1 14
REMARK SMILES IDX 22 15 11 17 12 18 13 19 14 20 15 21 16 22 17 23 18 24
REMARK H PARENT 7 4 22 16
REMARK Flexibility Score: inf
ROOT
ATOM      1  C   UNL     1      82.579  65.585  76.325  1.00  0.00     0.100 C 
ENDROOT
BRANCH   1   2
ATOM      2  C   UNL     1      83.687  66.540  76.133  1.00  0.00     0.220 C 
ATOM      3  N   UNL     1      84.538  66.408  75.077  1.00  0.00    -0.352 N 
ATOM      4  H   UNL     1      84.357  65.613  74.480  1.00  0.00     0.163 HD
ATOM      5  O   UNL     1      83.806  67.482  76.953  1.00  0.00    -0.275 OA
BRANCH   3   6
ATOM      6  C   UNL     1      85.619  67.294  74.785  1.00  0.00     0.151 C 
BRANCH   6   7
ATOM      7  C   UNL     1      85.239  68.301  73.757  1.00  0.00    -0.025 A 
ATOM      8  C   UNL     1      85.056  70.650  73.042  1.00  0.00     0.160 A 
ATOM      9  C   UNL     1      84.537  70.232  71.799  1.00  0.00     0.157 A 
ATOM     10  C   UNL     1      85.400  69.682  74.009  1.00  0.00     0.056 A 
ATOM     11  C   UNL     1      84.353  68.859  71.541  1.00  0.00     0.050 A 
ATOM     12  C   UNL     1      84.710  67.899  72.508  1.00  0.00     0.009 A 
BRANCH   8  13
ATOM     13  O   UNL     1      85.176  71.987  73.323  1.00  0.00    -0.493 OA
ATOM     14  C   UNL     1      86.369  72.329  74.052  1.00  0.00     0.278 C 
ENDBRANCH   8  13
BRANCH   9  15
ATOM     15  O   UNL     1      84.209  71.137  70.842  1.00  0.00    -0.504 OA
ATOM     16  H   UNL     1      83.783  71.895  71.249  1.00  0.00     0.293 HD
ENDBRANCH   9  15
ENDBRANCH   6   7
ENDBRANCH   3   6
ENDBRANCH   1   2
BRANCH   1  17
ATOM     17  C   UNL     1      81.211  66.312  76.439  1.00  0.00     0.010 C 
BRANCH  17  18
ATOM     18  C   UNL     1      80.539  66.557  75.059  1.00  0.00     0.005 C 
BRANCH  18  19
ATOM     19  C   UNL     1      80.193  65.232  74.326  1.00  0.00     0.027 C 
BRANCH  19  20
ATOM     20  C   UNL     1      80.669  65.227  72.952  1.00  0.00    -0.031 C 
ATOM     21  C   UNL     1      81.295  66.263  72.364  1.00  0.00    -0.028 C 
BRANCH  21  22
ATOM     22  C   UNL     1      81.783  66.228  70.985  1.00  0.00     0.005 C 
ATOM     23  C   UNL     1      82.855  65.124  70.768  1.00  0.00     0.012 C 
ATOM     24  C   UNL     1      80.598  66.049  70.001  1.00  0.00     0.012 C 
ENDBRANCH  21  22
ENDBRANCH  19  20
ENDBRANCH  18  19
ENDBRANCH  17  18
ENDBRANCH   1  17
TORSDOF 10
ENDMDL
