MODEL 1
REMARK VINA RESULT:    -6.324      0.000      0.000
REMARK INTER + INTRA:         -10.718
REMARK INTER:                  -9.837
REMARK INTRA:                  -0.881
REMARK UNBOUND:                -0.881
REMARK SMILES CCCCC/C=C/C(=O)CCc1ccc(O)c(OC)c1
REMARK SMILES IDX 6 1 7 2 8 3 9 4 10 5 11 6 12 7 17 8 20 9 15 10 14 11 13 12
REMARK SMILES IDX 18 13 19 14 16 15 5 17 4 18 3 19 2 20 1 21
REMARK H PARENT 16 16
REMARK Flexibility Score: inf
ROOT
ATOM      1  C   UNL     1      92.104  96.221  77.342  1.00  0.00    -0.023 C 
ATOM      2  C   UNL     1      92.602  96.693  76.193  1.00  0.00     0.043 C 
ENDROOT
BRANCH   2   3
ATOM      3  C   UNL     1      94.045  97.044  76.098  1.00  0.00     0.155 C 
ATOM      4  O   UNL     1      94.541  97.480  75.061  1.00  0.00    -0.295 OA
BRANCH   3   5
ATOM      5  C   UNL     1      94.886  96.788  77.334  1.00  0.00     0.085 C 
BRANCH   5   6
ATOM      6  C   UNL     1      95.121  95.292  77.545  1.00  0.00     0.044 C 
BRANCH   6   7
ATOM      7  C   UNL     1      95.164  94.904  79.004  1.00  0.00    -0.044 A 
ATOM      8  C   UNL     1      94.927  95.499  81.317  1.00  0.00     0.160 A 
ATOM      9  C   UNL     1      94.887  95.859  79.969  1.00  0.00     0.054 A 
ATOM     10  C   UNL     1      95.243  94.191  81.681  1.00  0.00     0.157 A 
ATOM     11  C   UNL     1      95.521  93.241  80.698  1.00  0.00     0.050 A 
ATOM     12  C   UNL     1      95.481  93.600  79.350  1.00  0.00     0.008 A 
BRANCH   8  13
ATOM     13  O   UNL     1      94.655  96.437  82.267  1.00  0.00    -0.493 OA
ATOM     14  C   UNL     1      95.686  97.375  82.567  1.00  0.00     0.278 C 
ENDBRANCH   8  13
BRANCH  10  15
ATOM     15  O   UNL     1      95.285  93.828  82.993  1.00  0.00    -0.504 OA
ATOM     16  H   UNL     1      96.108  93.334  83.147  1.00  0.00     0.293 HD
ENDBRANCH  10  15
ENDBRANCH   6   7
ENDBRANCH   5   6
ENDBRANCH   3   5
ENDBRANCH   2   3
BRANCH   1  17
ATOM     17  C   UNL     1      90.662  95.844  77.518  1.00  0.00     0.027 C 
BRANCH  17  18
ATOM     18  C   UNL     1      90.473  94.503  78.235  1.00  0.00     0.004 C 
BRANCH  18  19
ATOM     19  C   UNL     1      89.993  93.377  77.314  1.00  0.00     0.000 C 
BRANCH  19  20
ATOM     20  C   UNL     1      91.149  92.456  76.920  1.00  0.00    -0.003 C 
ATOM     21  C   UNL     1      91.182  92.215  75.419  1.00  0.00     0.004 C 
ENDBRANCH  19  20
ENDBRANCH  18  19
ENDBRANCH  17  18
ENDBRANCH   1  17
TORSDOF 10
ENDMDL
MODEL 2
REMARK VINA RESULT:    -6.049      1.544      3.001
REMARK INTER + INTRA:         -10.290
REMARK INTER:                  -9.129
REMARK INTRA:                  -1.161
REMARK UNBOUND:                -0.881
REMARK SMILES CCCCC/C=C/C(=O)CCc1ccc(O)c(OC)c1
REMARK SMILES IDX 6 1 7 2 8 3 9 4 10 5 11 6 12 7 17 8 20 9 15 10 14 11 13 12
REMARK SMILES IDX 18 13 19 14 16 15 5 17 4 18 3 19 2 20 1 21
REMARK H PARENT 16 16
REMARK Flexibility Score: inf
ROOT
ATOM      1  C   UNL     1      94.440  95.971  76.566  1.00  0.00    -0.023 C 
ATOM      2  C   UNL     1      94.357  97.304  76.656  1.00  0.00     0.043 C 
ENDROOT
BRANCH   2   3
ATOM      3  C   UNL     1      95.598  98.125  76.671  1.00  0.00     0.155 C 
ATOM      4  O   UNL     1      95.869  98.908  75.763  1.00  0.00    -0.295 OA
BRANCH   3   5
ATOM      5  C   UNL     1      96.539  97.906  77.840  1.00  0.00     0.085 C 
BRANCH   5   6
ATOM      6  C   UNL     1      96.163  98.792  79.029  1.00  0.00     0.044 C 
BRANCH   6   7
ATOM      7  C   UNL     1      95.775  97.997  80.253  1.00  0.00    -0.044 A 
ATOM      8  C   UNL     1      95.121  95.916  81.254  1.00  0.00     0.160 A 
ATOM      9  C   UNL     1      95.480  96.649  80.123  1.00  0.00     0.054 A 
ATOM     10  C   UNL     1      95.062  96.539  82.500  1.00  0.00     0.157 A 
ATOM     11  C   UNL     1      95.362  97.897  82.615  1.00  0.00     0.050 A 
ATOM     12  C   UNL     1      95.720  98.631  81.484  1.00  0.00     0.008 A 
BRANCH   8  13
ATOM     13  O   UNL     1      94.831  94.591  81.128  1.00  0.00    -0.493 OA
ATOM     14  C   UNL     1      94.016  94.208  80.022  1.00  0.00     0.278 C 
ENDBRANCH   8  13
BRANCH  10  15
ATOM     15  O   UNL     1      94.714  95.834  83.612  1.00  0.00    -0.504 OA
ATOM     16  H   UNL     1      94.346  96.454  84.264  1.00  0.00     0.293 HD
ENDBRANCH  10  15
ENDBRANCH   6   7
ENDBRANCH   5   6
ENDBRANCH   3   5
ENDBRANCH   2   3
BRANCH   1  17
ATOM     17  C   UNL     1      93.236  95.074  76.545  1.00  0.00     0.027 C 
BRANCH  17  18
ATOM     18  C   UNL     1      91.911  95.844  76.562  1.00  0.00     0.004 C 
BRANCH  18  19
ATOM     19  C   UNL     1      91.152  95.731  77.888  1.00  0.00     0.000 C 
BRANCH  19  20
ATOM     20  C   UNL     1      89.953  94.790  77.758  1.00  0.00    -0.003 C 
ATOM     21  C   UNL     1      90.306  93.375  78.186  1.00  0.00     0.004 C 
ENDBRANCH  19  20
ENDBRANCH  18  19
ENDBRANCH  17  18
ENDBRANCH   1  17
TORSDOF 10
ENDMDL
MODEL 3
REMARK VINA RESULT:    -5.857     31.255     33.964
REMARK INTER + INTRA:          -9.992
REMARK INTER:                  -8.293
REMARK INTRA:                  -1.699
REMARK UNBOUND:                -0.881
REMARK SMILES CCCCC/C=C/C(=O)CCc1ccc(O)c(OC)c1
REMARK SMILES IDX 6 1 7 2 8 3 9 4 10 5 11 6 12 7 17 8 20 9 15 10 14 11 13 12
REMARK SMILES IDX 18 13 19 14 16 15 5 17 4 18 3 19 2 20 1 21
REMARK H PARENT 16 16
REMARK Flexibility Score: inf
ROOT
ATOM      1  C   UNL     1      62.005  83.905  69.491  1.00  0.00    -0.023 C 
ATOM      2  C   UNL     1      63.294  84.012  69.143  1.00  0.00     0.043 C 
ENDROOT
BRANCH   2   3
ATOM      3  C   UNL     1      64.112  82.786  68.940  1.00  0.00     0.155 C 
ATOM      4  O   UNL     1      64.830  82.640  67.953  1.00  0.00    -0.295 OA
BRANCH   3   5
ATOM      5  C   UNL     1      63.973  81.700  69.989  1.00  0.00     0.085 C 
BRANCH   5   6
ATOM      6  C   UNL     1      64.780  82.034  71.245  1.00  0.00     0.044 C 
BRANCH   6   7
ATOM      7  C   UNL     1      63.908  82.323  72.444  1.00  0.00    -0.044 A 
ATOM      8  C   UNL     1      63.225  83.806  74.202  1.00  0.00     0.160 A 
ATOM      9  C   UNL     1      64.031  83.540  73.095  1.00  0.00     0.054 A 
ATOM     10  C   UNL     1      62.308  82.852  74.644  1.00  0.00     0.157 A 
ATOM     11  C   UNL     1      62.197  81.631  73.977  1.00  0.00     0.050 A 
ATOM     12  C   UNL     1      63.003  81.365  72.870  1.00  0.00     0.008 A 
BRANCH   8  13
ATOM     13  O   UNL     1      63.343  85.002  74.845  1.00  0.00    -0.493 OA
ATOM     14  C   UNL     1      64.640  85.355  75.323  1.00  0.00     0.278 C 
ENDBRANCH   8  13
BRANCH  10  15
ATOM     15  O   UNL     1      61.515  83.101  75.723  1.00  0.00    -0.504 OA
ATOM     16  H   UNL     1      61.240  84.033  75.691  1.00  0.00     0.293 HD
ENDBRANCH  10  15
ENDBRANCH   6   7
ENDBRANCH   5   6
ENDBRANCH   3   5
ENDBRANCH   2   3
BRANCH   1  17
ATOM     17  C   UNL     1      61.114  85.093  69.714  1.00  0.00     0.027 C 
BRANCH  17  18
ATOM     18  C   UNL     1      59.925  84.788  70.631  1.00  0.00     0.004 C 
BRANCH  18  19
ATOM     19  C   UNL     1      60.333  84.331  72.035  1.00  0.00     0.000 C 
BRANCH  19  20
ATOM     20  C   UNL     1      59.955  85.375  73.087  1.00  0.00    -0.003 C 
ATOM     21  C   UNL     1      58.886  86.325  72.570  1.00  0.00     0.004 C 
ENDBRANCH  19  20
ENDBRANCH  18  19
ENDBRANCH  17  18
ENDBRANCH   1  17
TORSDOF 10
ENDMDL
MODEL 4
REMARK VINA RESULT:    -5.703     30.371     33.984
REMARK INTER + INTRA:          -9.752
REMARK INTER:                  -8.223
REMARK INTRA:                  -1.528
REMARK UNBOUND:                -0.881
REMARK SMILES CCCCC/C=C/C(=O)CCc1ccc(O)c(OC)c1
REMARK SMILES IDX 6 1 7 2 8 3 9 4 10 5 11 6 12 7 17 8 20 9 15 10 14 11 13 12
REMARK SMILES IDX 18 13 19 14 16 15 5 17 4 18 3 19 2 20 1 21
REMARK H PARENT 16 16
REMARK Flexibility Score: inf
ROOT
ATOM      1  C   UNL     1      62.349  84.787  72.941  1.00  0.00    -0.023 C 
ATOM      2  C   UNL     1      61.414  83.892  73.284  1.00  0.00     0.043 C 
ENDROOT
BRANCH   2   3
ATOM      3  C   UNL     1      61.783  82.718  74.122  1.00  0.00     0.155 C 
ATOM      4  O   UNL     1      61.841  82.788  75.348  1.00  0.00    -0.295 OA
BRANCH   3   5
ATOM      5  C   UNL     1      62.136  81.443  73.381  1.00  0.00     0.085 C 
BRANCH   5   6
ATOM      6  C   UNL     1      63.642  81.340  73.138  1.00  0.00     0.044 C 
BRANCH   6   7
ATOM      7  C   UNL     1      64.050  81.819  71.765  1.00  0.00    -0.044 A 
ATOM      8  C   UNL     1      65.734  82.658  70.276  1.00  0.00     0.160 A 
ATOM      9  C   UNL     1      65.359  82.216  71.545  1.00  0.00     0.054 A 
ATOM     10  C   UNL     1      64.797  82.696  69.244  1.00  0.00     0.157 A 
ATOM     11  C   UNL     1      63.482  82.293  69.482  1.00  0.00     0.050 A 
ATOM     12  C   UNL     1      63.106  81.852  70.751  1.00  0.00     0.008 A 
BRANCH   8  13
ATOM     13  O   UNL     1      67.021  83.049  70.057  1.00  0.00    -0.493 OA
ATOM     14  C   UNL     1      67.690  83.707  71.131  1.00  0.00     0.278 C 
ENDBRANCH   8  13
BRANCH  10  15
ATOM     15  O   UNL     1      65.151  83.125  68.001  1.00  0.00    -0.504 OA
ATOM     16  H   UNL     1      65.596  82.393  67.541  1.00  0.00     0.293 HD
ENDBRANCH  10  15
ENDBRANCH   6   7
ENDBRANCH   5   6
ENDBRANCH   3   5
ENDBRANCH   2   3
BRANCH   1  17
ATOM     17  C   UNL     1      62.058  85.995  72.100  1.00  0.00     0.027 C 
BRANCH  17  18
ATOM     18  C   UNL     1      60.671  85.956  71.450  1.00  0.00     0.004 C 
BRANCH  18  19
ATOM     19  C   UNL     1      60.634  85.182  70.128  1.00  0.00     0.000 C 
BRANCH  19  20
ATOM     20  C   UNL     1      59.352  84.357  70.008  1.00  0.00    -0.003 C 
ATOM     21  C   UNL     1      58.395  84.644  71.154  1.00  0.00     0.004 C 
ENDBRANCH  19  20
ENDBRANCH  18  19
ENDBRANCH  17  18
ENDBRANCH   1  17
TORSDOF 10
ENDMDL
MODEL 5
REMARK VINA RESULT:    -5.604     21.467     25.734
REMARK INTER + INTRA:          -9.597
REMARK INTER:                  -8.857
REMARK INTRA:                  -0.740
REMARK UNBOUND:                -0.881
REMARK SMILES CCCCC/C=C/C(=O)CCc1ccc(O)c(OC)c1
REMARK SMILES IDX 6 1 7 2 8 3 9 4 10 5 11 6 12 7 17 8 20 9 15 10 14 11 13 12
REMARK SMILES IDX 18 13 19 14 16 15 5 17 4 18 3 19 2 20 1 21
REMARK H PARENT 16 16
REMARK Flexibility Score: inf
ROOT
ATOM      1  C   UNL     1      77.004  84.460  68.761  1.00  0.00    -0.023 C 
ATOM      2  C   UNL     1      77.689  84.740  67.646  1.00  0.00     0.043 C 
ENDROOT
BRANCH   2   3
ATOM      3  C   UNL     1      77.578  83.843  66.463  1.00  0.00     0.155 C 
ATOM      4  O   UNL     1      77.951  84.195  65.345  1.00  0.00    -0.295 OA
BRANCH   3   5
ATOM      5  C   UNL     1      76.933  82.491  66.697  1.00  0.00     0.085 C 
BRANCH   5   6
ATOM      6  C   UNL     1      76.870  81.675  65.405  1.00  0.00     0.044 C 
BRANCH   6   7
ATOM      7  C   UNL     1      75.456  81.415  64.943  1.00  0.00    -0.044 A 
ATOM      8  C   UNL     1      73.096  81.422  65.380  1.00  0.00     0.160 A 
ATOM      9  C   UNL     1      74.402  81.662  65.808  1.00  0.00     0.054 A 
ATOM     10  C   UNL     1      72.861  80.940  64.093  1.00  0.00     0.157 A 
ATOM     11  C   UNL     1      73.933  80.696  63.233  1.00  0.00     0.050 A 
ATOM     12  C   UNL     1      75.239  80.936  63.661  1.00  0.00     0.008 A 
BRANCH   8  13
ATOM     13  O   UNL     1      72.058  81.664  66.230  1.00  0.00    -0.493 OA
ATOM     14  C   UNL     1      71.637  83.019  66.370  1.00  0.00     0.278 C 
ENDBRANCH   8  13
BRANCH  10  15
ATOM     15  O   UNL     1      71.590  80.702  63.664  1.00  0.00    -0.504 OA
ATOM     16  H   UNL     1      71.428  81.248  62.875  1.00  0.00     0.293 HD
ENDBRANCH  10  15
ENDBRANCH   6   7
ENDBRANCH   5   6
ENDBRANCH   3   5
ENDBRANCH   2   3
BRANCH   1  17
ATOM     17  C   UNL     1      77.062  85.313  69.995  1.00  0.00     0.027 C 
BRANCH  17  18
ATOM     18  C   UNL     1      75.865  86.260  70.129  1.00  0.00     0.004 C 
BRANCH  18  19
ATOM     19  C   UNL     1      76.080  87.618  69.453  1.00  0.00     0.000 C 
BRANCH  19  20
ATOM     20  C   UNL     1      75.837  88.767  70.433  1.00  0.00    -0.003 C 
ATOM     21  C   UNL     1      74.511  88.607  71.161  1.00  0.00     0.004 C 
ENDBRANCH  19  20
ENDBRANCH  18  19
ENDBRANCH  17  18
ENDBRANCH   1  17
TORSDOF 10
ENDMDL
MODEL 6
REMARK VINA RESULT:    -5.579      8.722     12.853
REMARK INTER + INTRA:          -9.559
REMARK INTER:                  -8.228
REMARK INTRA:                  -1.332
REMARK UNBOUND:                -0.881
REMARK SMILES CCCCC/C=C/C(=O)CCc1ccc(O)c(OC)c1
REMARK SMILES IDX 6 1 7 2 8 3 9 4 10 5 11 6 12 7 17 8 20 9 15 10 14 11 13 12
REMARK SMILES IDX 18 13 19 14 16 15 5 17 4 18 3 19 2 20 1 21
REMARK H PARENT 16 16
REMARK Flexibility Score: inf
ROOT
ATOM      1  C   UNL     1      88.998  99.705  71.032  1.00  0.00    -0.023 C 
ATOM      2  C   UNL     1      89.793  98.641  70.869  1.00  0.00     0.043 C 
ENDROOT
BRANCH   2   3
ATOM      3  C   UNL     1      89.365  97.525  69.981  1.00  0.00     0.155 C 
ATOM      4  O   UNL     1      89.766  96.375  70.146  1.00  0.00    -0.295 OA
BRANCH   3   5
ATOM      5  C   UNL     1      88.451  97.891  68.828  1.00  0.00     0.085 C 
BRANCH   5   6
ATOM      6  C   UNL     1      89.250  98.369  67.615  1.00  0.00     0.044 C 
BRANCH   6   7
ATOM      7  C   UNL     1      89.358  99.874  67.538  1.00  0.00    -0.044 A 
ATOM      8  C   UNL     1      90.623 101.837  66.991  1.00  0.00     0.160 A 
ATOM      9  C   UNL     1      90.525 100.448  67.062  1.00  0.00     0.054 A 
ATOM     10  C   UNL     1      89.554 102.635  67.397  1.00  0.00     0.157 A 
ATOM     11  C   UNL     1      88.385 102.041  67.876  1.00  0.00     0.050 A 
ATOM     12  C   UNL     1      88.287 100.652  67.947  1.00  0.00     0.008 A 
BRANCH   8  13
ATOM     13  O   UNL     1      91.770 102.404  66.522  1.00  0.00    -0.493 OA
ATOM     14  C   UNL     1      92.922 102.326  67.360  1.00  0.00     0.278 C 
ENDBRANCH   8  13
BRANCH  10  15
ATOM     15  O   UNL     1      89.638 103.992  67.333  1.00  0.00    -0.504 OA
ATOM     16  H   UNL     1      89.700 104.250  66.397  1.00  0.00     0.293 HD
ENDBRANCH  10  15
ENDBRANCH   6   7
ENDBRANCH   5   6
ENDBRANCH   3   5
ENDBRANCH   2   3
BRANCH   1  17
ATOM     17  C   UNL     1      89.356 100.870  71.909  1.00  0.00     0.027 C 
BRANCH  17  18
ATOM     18  C   UNL     1      90.497 101.721  71.343  1.00  0.00     0.004 C 
BRANCH  18  19
ATOM     19  C   UNL     1      91.891 101.183  71.684  1.00  0.00     0.000 C 
BRANCH  19  20
ATOM     20  C   UNL     1      92.133 101.194  73.194  1.00  0.00    -0.003 C 
ATOM     21  C   UNL     1      92.659  99.855  73.684  1.00  0.00     0.004 C 
ENDBRANCH  19  20
ENDBRANCH  18  19
ENDBRANCH  17  18
ENDBRANCH   1  17
TORSDOF 10
ENDMDL
MODEL 7
REMARK VINA RESULT:    -5.500     21.069     24.202
REMARK INTER + INTRA:          -9.436
REMARK INTER:                  -8.622
REMARK INTRA:                  -0.815
REMARK UNBOUND:                -0.881
REMARK SMILES CCCCC/C=C/C(=O)CCc1ccc(O)c(OC)c1
REMARK SMILES IDX 6 1 7 2 8 3 9 4 10 5 11 6 12 7 17 8 20 9 15 10 14 11 13 12
REMARK SMILES IDX 18 13 19 14 16 15 5 17 4 18 3 19 2 20 1 21
REMARK H PARENT 16 16
REMARK Flexibility Score: inf
ROOT
ATOM      1  C   UNL     1      74.571  81.846  66.070  1.00  0.00    -0.023 C 
ATOM      2  C   UNL     1      75.483  82.209  65.160  1.00  0.00     0.043 C 
ENDROOT
BRANCH   2   3
ATOM      3  C   UNL     1      76.918  82.305  65.545  1.00  0.00     0.155 C 
ATOM      4  O   UNL     1      77.577  81.313  65.847  1.00  0.00    -0.295 OA
BRANCH   3   5
ATOM      5  C   UNL     1      77.512  83.700  65.597  1.00  0.00     0.085 C 
BRANCH   5   6
ATOM      6  C   UNL     1      78.339  83.904  66.867  1.00  0.00     0.044 C 
BRANCH   6   7
ATOM      7  C   UNL     1      77.774  84.973  67.771  1.00  0.00    -0.044 A 
ATOM      8  C   UNL     1      76.513  85.591  69.718  1.00  0.00     0.160 A 
ATOM      9  C   UNL     1      77.034  84.602  68.883  1.00  0.00     0.054 A 
ATOM     10  C   UNL     1      76.737  86.937  69.430  1.00  0.00     0.157 A 
ATOM     11  C   UNL     1      77.483  87.295  68.307  1.00  0.00     0.050 A 
ATOM     12  C   UNL     1      78.005  86.306  67.472  1.00  0.00     0.008 A 
BRANCH   8  13
ATOM     13  O   UNL     1      75.785  85.228  70.811  1.00  0.00    -0.493 OA
ATOM     14  C   UNL     1      76.093  83.969  71.406  1.00  0.00     0.278 C 
ENDBRANCH   8  13
BRANCH  10  15
ATOM     15  O   UNL     1      76.233  87.911  70.238  1.00  0.00    -0.504 OA
ATOM     16  H   UNL     1      76.754  88.721  70.101  1.00  0.00     0.293 HD
ENDBRANCH  10  15
ENDBRANCH   6   7
ENDBRANCH   5   6
ENDBRANCH   3   5
ENDBRANCH   2   3
BRANCH   1  17
ATOM     17  C   UNL     1      73.107  81.726  65.762  1.00  0.00     0.027 C 
BRANCH  17  18
ATOM     18  C   UNL     1      72.266  82.843  66.390  1.00  0.00     0.004 C 
BRANCH  18  19
ATOM     19  C   UNL     1      70.821  82.430  66.688  1.00  0.00     0.000 C 
BRANCH  19  20
ATOM     20  C   UNL     1      70.308  83.100  67.963  1.00  0.00    -0.003 C 
ATOM     21  C   UNL     1      71.183  84.277  68.365  1.00  0.00     0.004 C 
ENDBRANCH  19  20
ENDBRANCH  18  19
ENDBRANCH  17  18
ENDBRANCH   1  17
TORSDOF 10
ENDMDL
MODEL 8
REMARK VINA RESULT:    -5.498     20.780     23.579
REMARK INTER + INTRA:          -9.433
REMARK INTER:                  -8.597
REMARK INTRA:                  -0.836
REMARK UNBOUND:                -0.881
REMARK SMILES CCCCC/C=C/C(=O)CCc1ccc(O)c(OC)c1
REMARK SMILES IDX 6 1 7 2 8 3 9 4 10 5 11 6 12 7 17 8 20 9 15 10 14 11 13 12
REMARK SMILES IDX 18 13 19 14 16 15 5 17 4 18 3 19 2 20 1 21
REMARK H PARENT 16 16
REMARK Flexibility Score: inf
ROOT
ATOM      1  C   UNL     1      76.063  82.687  66.864  1.00  0.00    -0.023 C 
ATOM      2  C   UNL     1      76.503  83.786  66.239  1.00  0.00     0.043 C 
ENDROOT
BRANCH   2   3
ATOM      3  C   UNL     1      77.366  84.757  66.964  1.00  0.00     0.155 C 
ATOM      4  O   UNL     1      77.692  85.833  66.467  1.00  0.00    -0.295 OA
BRANCH   3   5
ATOM      5  C   UNL     1      77.867  84.328  68.330  1.00  0.00     0.085 C 
BRANCH   5   6
ATOM      6  C   UNL     1      78.190  85.538  69.208  1.00  0.00     0.044 C 
BRANCH   6   7
ATOM      7  C   UNL     1      76.955  86.220  69.747  1.00  0.00    -0.044 A 
ATOM      8  C   UNL     1      75.741  88.233  70.228  1.00  0.00     0.160 A 
ATOM      9  C   UNL     1      76.882  87.604  69.730  1.00  0.00     0.054 A 
ATOM     10  C   UNL     1      74.689  87.471  70.735  1.00  0.00     0.157 A 
ATOM     11  C   UNL     1      74.778  86.079  70.745  1.00  0.00     0.050 A 
ATOM     12  C   UNL     1      75.919  85.449  70.248  1.00  0.00     0.008 A 
BRANCH   8  13
ATOM     13  O   UNL     1      75.666  89.593  70.212  1.00  0.00    -0.493 OA
ATOM     14  C   UNL     1      75.078  90.198  69.062  1.00  0.00     0.278 C 
ENDBRANCH   8  13
BRANCH  10  15
ATOM     15  O   UNL     1      73.569  88.074  71.223  1.00  0.00    -0.504 OA
ATOM     16  H   UNL     1      72.883  87.395  71.339  1.00  0.00     0.293 HD
ENDBRANCH  10  15
ENDBRANCH   6   7
ENDBRANCH   5   6
ENDBRANCH   3   5
ENDBRANCH   2   3
BRANCH   1  17
ATOM     17  C   UNL     1      75.189  81.661  66.203  1.00  0.00     0.027 C 
BRANCH  17  18
ATOM     18  C   UNL     1      75.757  81.156  64.872  1.00  0.00     0.004 C 
BRANCH  18  19
ATOM     19  C   UNL     1      74.687  80.906  63.804  1.00  0.00     0.000 C 
BRANCH  19  20
ATOM     20  C   UNL     1      73.314  80.684  64.440  1.00  0.00    -0.003 C 
ATOM     21  C   UNL     1      72.417  79.840  63.549  1.00  0.00     0.004 C 
ENDBRANCH  19  20
ENDBRANCH  18  19
ENDBRANCH  17  18
ENDBRANCH   1  17
TORSDOF 10
ENDMDL
MODEL 9
REMARK VINA RESULT:    -5.377      2.492      6.878
REMARK INTER + INTRA:          -9.245
REMARK INTER:                  -8.092
REMARK INTRA:                  -1.152
REMARK UNBOUND:                -0.881
REMARK SMILES CCCCC/C=C/C(=O)CCc1ccc(O)c(OC)c1
REMARK SMILES IDX 6 1 7 2 8 3 9 4 10 5 11 6 12 7 17 8 20 9 15 10 14 11 13 12
REMARK SMILES IDX 18 13 19 14 16 15 5 17 4 18 3 19 2 20 1 21
REMARK H PARENT 16 16
REMARK Flexibility Score: inf
ROOT
ATOM      1  C   UNL     1      94.855  95.412  79.134  1.00  0.00    -0.023 C 
ATOM      2  C   UNL     1      93.537  95.562  79.312  1.00  0.00     0.043 C 
ENDROOT
BRANCH   2   3
ATOM      3  C   UNL     1      92.583  94.735  78.524  1.00  0.00     0.155 C 
ATOM      4  O   UNL     1      91.841  93.915  79.059  1.00  0.00    -0.295 OA
BRANCH   3   5
ATOM      5  C   UNL     1      92.612  94.919  77.019  1.00  0.00     0.085 C 
BRANCH   5   6
ATOM      6  C   UNL     1      92.223  96.345  76.626  1.00  0.00     0.044 C 
BRANCH   6   7
ATOM      7  C   UNL     1      93.298  97.051  75.834  1.00  0.00    -0.044 A 
ATOM      8  C   UNL     1      94.052  98.979  74.620  1.00  0.00     0.160 A 
ATOM      9  C   UNL     1      93.058  98.327  75.351  1.00  0.00     0.054 A 
ATOM     10  C   UNL     1      95.271  98.346  74.381  1.00  0.00     0.157 A 
ATOM     11  C   UNL     1      95.497  97.059  74.873  1.00  0.00     0.050 A 
ATOM     12  C   UNL     1      94.503  96.408  75.605  1.00  0.00     0.008 A 
BRANCH   8  13
ATOM     13  O   UNL     1      93.818 100.234  74.145  1.00  0.00    -0.493 OA
ATOM     14  C   UNL     1      92.935 101.060  74.901  1.00  0.00     0.278 C 
ENDBRANCH   8  13
BRANCH  10  15
ATOM     15  O   UNL     1      96.249  98.971  73.669  1.00  0.00    -0.504 OA
ATOM     16  H   UNL     1      96.946  99.250  74.287  1.00  0.00     0.293 HD
ENDBRANCH  10  15
ENDBRANCH   6   7
ENDBRANCH   5   6
ENDBRANCH   3   5
ENDBRANCH   2   3
BRANCH   1  17
ATOM     17  C   UNL     1      95.881  96.207  79.889  1.00  0.00     0.027 C 
BRANCH  17  18
ATOM     18  C   UNL     1      95.339  96.807  81.191  1.00  0.00     0.004 C 
BRANCH  18  19
ATOM     19  C   UNL     1      95.554  95.911  82.415  1.00  0.00     0.000 C 
BRANCH  19  20
ATOM     20  C   UNL     1      96.970  95.333  82.435  1.00  0.00    -0.003 C 
ATOM     21  C   UNL     1      97.811  95.959  83.535  1.00  0.00     0.004 C 
ENDBRANCH  19  20
ENDBRANCH  18  19
ENDBRANCH  17  18
ENDBRANCH   1  17
TORSDOF 10
ENDMDL
MODEL 10
REMARK VINA RESULT:    -5.373      5.657      9.760
REMARK INTER + INTRA:          -9.239
REMARK INTER:                  -8.745
REMARK INTRA:                  -0.494
REMARK UNBOUND:                -0.881
REMARK SMILES CCCCC/C=C/C(=O)CCc1ccc(O)c(OC)c1
REMARK SMILES IDX 6 1 7 2 8 3 9 4 10 5 11 6 12 7 17 8 20 9 15 10 14 11 13 12
REMARK SMILES IDX 18 13 19 14 16 15 5 17 4 18 3 19 2 20 1 21
REMARK H PARENT 16 16
REMARK Flexibility Score: inf
ROOT
ATOM      1  C   UNL     1      93.736  97.825  75.717  1.00  0.00    -0.023 C 
ATOM      2  C   UNL     1      92.805  98.548  75.082  1.00  0.00     0.043 C 
ENDROOT
BRANCH   2   3
ATOM      3  C   UNL     1      93.214  99.664  74.187  1.00  0.00     0.155 C 
ATOM      4  O   UNL     1      94.348 100.137  74.218  1.00  0.00    -0.295 OA
BRANCH   3   5
ATOM      5  C   UNL     1      92.144 100.223  73.271  1.00  0.00     0.085 C 
BRANCH   5   6
ATOM      6  C   UNL     1      92.530 100.059  71.800  1.00  0.00     0.044 C 
BRANCH   6   7
ATOM      7  C   UNL     1      91.336 100.056  70.875  1.00  0.00    -0.044 A 
ATOM      8  C   UNL     1      89.448  98.916  69.929  1.00  0.00     0.160 A 
ATOM      9  C   UNL     1      90.552  98.918  70.783  1.00  0.00     0.054 A 
ATOM     10  C   UNL     1      89.145 100.052  69.179  1.00  0.00     0.157 A 
ATOM     11  C   UNL     1      89.945 101.191  69.283  1.00  0.00     0.050 A 
ATOM     12  C   UNL     1      91.048 101.192  70.137  1.00  0.00     0.008 A 
BRANCH   8  13
ATOM     13  O   UNL     1      88.675  97.798  69.836  1.00  0.00    -0.493 OA
ATOM     14  C   UNL     1      89.128  96.767  68.960  1.00  0.00     0.278 C 
ENDBRANCH   8  13
BRANCH  10  15
ATOM     15  O   UNL     1      88.070 100.063  68.342  1.00  0.00    -0.504 OA
ATOM     16  H   UNL     1      87.603  99.215  68.434  1.00  0.00     0.293 HD
ENDBRANCH  10  15
ENDBRANCH   6   7
ENDBRANCH   5   6
ENDBRANCH   3   5
ENDBRANCH   2   3
BRANCH   1  17
ATOM     17  C   UNL     1      93.405  96.685  76.635  1.00  0.00     0.027 C 
BRANCH  17  18
ATOM     18  C   UNL     1      91.920  96.309  76.617  1.00  0.00     0.004 C 
BRANCH  18  19
ATOM     19  C   UNL     1      91.470  95.523  77.852  1.00  0.00     0.000 C 
BRANCH  19  20
ATOM     20  C   UNL     1      90.096  94.887  77.632  1.00  0.00    -0.003 C 
ATOM     21  C   UNL     1      89.984  93.545  78.337  1.00  0.00     0.004 C 
ENDBRANCH  19  20
ENDBRANCH  18  19
ENDBRANCH  17  18
ENDBRANCH   1  17
TORSDOF 10
ENDMDL
