MODEL 1
REMARK VINA RESULT:    -5.827      0.000      0.000
REMARK INTER + INTRA:         -10.872
REMARK INTER:                  -9.744
REMARK INTRA:                  -1.128
REMARK UNBOUND:                -1.128
REMARK SMILES COc1cc(CNC(=O)CCCCCCCC(C)C)ccc1O
REMARK SMILES IDX 11 1 10 2 8 3 9 4 7 5 6 7 5 8 4 9 20 10 3 11 21 12 22 13
REMARK SMILES IDX 2 14 1 15 23 16 12 18 13 19 14 20 15 21 16 22 17 23 18 24
REMARK SMILES IDX 19 25
REMARK H PARENT 7 6 23 17
REMARK Flexibility Score: inf
ROOT
ATOM      1  C   UNL     1      76.068  86.733  66.778  1.00  0.00     0.010 C 
ENDROOT
BRANCH   1   2
ATOM      2  C   UNL     1      77.369  85.948  66.936  1.00  0.00     0.100 C 
BRANCH   2   3
ATOM      3  C   UNL     1      77.279  84.553  66.338  1.00  0.00     0.220 C 
ATOM      4  O   UNL     1      77.977  83.615  66.710  1.00  0.00    -0.275 OA
ATOM      5  N   UNL     1      76.327  84.491  65.332  1.00  0.00    -0.352 N 
ATOM      6  H   UNL     1      75.803  85.326  65.084  1.00  0.00     0.163 HD
BRANCH   5   7
ATOM      7  C   UNL     1      76.047  83.282  64.592  1.00  0.00     0.151 C 
BRANCH   7   8
ATOM      8  C   UNL     1      74.656  82.779  64.845  1.00  0.00    -0.025 A 
ATOM      9  C   UNL     1      73.713  83.623  65.419  1.00  0.00     0.056 A 
ATOM     10  C   UNL     1      74.325  81.474  64.501  1.00  0.00     0.009 A 
ATOM     11  C   UNL     1      72.420  83.155  65.654  1.00  0.00     0.160 A 
ATOM     12  C   UNL     1      73.031  81.005  64.737  1.00  0.00     0.050 A 
ATOM     13  C   UNL     1      72.079  81.845  65.313  1.00  0.00     0.157 A 
BRANCH  11  14
ATOM     14  O   UNL     1      71.499  83.985  66.219  1.00  0.00    -0.493 OA
ATOM     15  C   UNL     1      71.982  85.209  66.770  1.00  0.00     0.278 C 
ENDBRANCH  11  14
BRANCH  13  16
ATOM     16  O   UNL     1      70.820  81.377  65.537  1.00  0.00    -0.504 OA
ATOM     17  H   UNL     1      70.341  82.012  66.098  1.00  0.00     0.293 HD
ENDBRANCH  13  16
ENDBRANCH   7   8
ENDBRANCH   5   7
ENDBRANCH   2   3
ENDBRANCH   1   2
BRANCH   1  18
ATOM     18  C   UNL     1      76.233  88.033  65.986  1.00  0.00     0.001 C 
BRANCH  18  19
ATOM     19  C   UNL     1      76.949  89.172  66.720  1.00  0.00     0.000 C 
BRANCH  19  20
ATOM     20  C   UNL     1      76.485  89.344  68.169  1.00  0.00     0.000 C 
BRANCH  20  21
ATOM     21  C   UNL     1      75.501  90.503  68.361  1.00  0.00     0.000 C 
BRANCH  21  22
ATOM     22  C   UNL     1      74.740  90.438  69.690  1.00  0.00     0.003 C 
BRANCH  22  23
ATOM     23  C   UNL     1      73.279  89.971  69.538  1.00  0.00    -0.017 C 
ATOM     24  C   UNL     1      72.507  90.260  70.828  1.00  0.00     0.007 C 
ATOM     25  C   UNL     1      73.172  88.484  69.197  1.00  0.00     0.007 C 
ENDBRANCH  22  23
ENDBRANCH  21  22
ENDBRANCH  20  21
ENDBRANCH  19  20
ENDBRANCH  18  19
ENDBRANCH   1  18
TORSDOF 12
ENDMDL
MODEL 2
REMARK VINA RESULT:    -5.436     24.207     26.698
REMARK INTER + INTRA:         -10.219
REMARK INTER:                  -8.854
REMARK INTRA:                  -1.365
REMARK UNBOUND:                -1.128
REMARK SMILES COc1cc(CNC(=O)CCCCCCCC(C)C)ccc1O
REMARK SMILES IDX 11 1 10 2 8 3 9 4 7 5 6 7 5 8 4 9 20 10 3 11 21 12 22 13
REMARK SMILES IDX 2 14 1 15 23 16 12 18 13 19 14 20 15 21 16 22 17 23 18 24
REMARK SMILES IDX 19 25
REMARK H PARENT 7 6 23 17
REMARK Flexibility Score: inf
ROOT
ATOM      1  C   UNL     1      93.090  80.885  85.087  1.00  0.00     0.010 C 
ENDROOT
BRANCH   1   2
ATOM      2  C   UNL     1      93.731  81.968  85.952  1.00  0.00     0.100 C 
BRANCH   2   3
ATOM      3  C   UNL     1      94.960  82.578  85.300  1.00  0.00     0.220 C 
ATOM      4  O   UNL     1      95.903  83.040  85.937  1.00  0.00    -0.275 OA
ATOM      5  N   UNL     1      94.870  82.550  83.916  1.00  0.00    -0.352 N 
ATOM      6  H   UNL     1      94.043  82.156  83.475  1.00  0.00     0.163 HD
BRANCH   5   7
ATOM      7  C   UNL     1      95.902  83.075  83.052  1.00  0.00     0.151 C 
BRANCH   7   8
ATOM      8  C   UNL     1      96.417  82.037  82.098  1.00  0.00    -0.025 A 
ATOM      9  C   UNL     1      96.902  82.427  80.855  1.00  0.00     0.056 A 
ATOM     10  C   UNL     1      96.404  80.698  82.467  1.00  0.00     0.009 A 
ATOM     11  C   UNL     1      97.381  81.462  79.969  1.00  0.00     0.160 A 
ATOM     12  C   UNL     1      96.882  79.733  81.580  1.00  0.00     0.050 A 
ATOM     13  C   UNL     1      97.371  80.115  80.331  1.00  0.00     0.157 A 
BRANCH  11  14
ATOM     14  O   UNL     1      97.855  81.847  78.751  1.00  0.00    -0.493 OA
ATOM     15  C   UNL     1      96.893  82.058  77.718  1.00  0.00     0.278 C 
ENDBRANCH  11  14
BRANCH  13  16
ATOM     16  O   UNL     1      97.836  79.164  79.474  1.00  0.00    -0.504 OA
ATOM     17  H   UNL     1      98.602  79.520  78.991  1.00  0.00     0.293 HD
ENDBRANCH  13  16
ENDBRANCH   7   8
ENDBRANCH   5   7
ENDBRANCH   2   3
ENDBRANCH   1   2
BRANCH   1  18
ATOM     18  C   UNL     1      91.646  81.198  84.687  1.00  0.00     0.001 C 
BRANCH  18  19
ATOM     19  C   UNL     1      90.863  82.082  85.665  1.00  0.00     0.000 C 
BRANCH  19  20
ATOM     20  C   UNL     1      90.117  81.283  86.737  1.00  0.00     0.000 C 
BRANCH  20  21
ATOM     21  C   UNL     1      88.760  80.749  86.267  1.00  0.00     0.000 C 
BRANCH  21  22
ATOM     22  C   UNL     1      88.629  79.228  86.394  1.00  0.00     0.003 C 
BRANCH  22  23
ATOM     23  C   UNL     1      88.856  78.479  85.067  1.00  0.00    -0.017 C 
ATOM     24  C   UNL     1      90.265  77.882  85.043  1.00  0.00     0.007 C 
ATOM     25  C   UNL     1      88.658  79.378  83.845  1.00  0.00     0.007 C 
ENDBRANCH  22  23
ENDBRANCH  21  22
ENDBRANCH  20  21
ENDBRANCH  19  20
ENDBRANCH  18  19
ENDBRANCH   1  18
TORSDOF 12
ENDMDL
MODEL 3
REMARK VINA RESULT:    -5.379     24.936     26.642
REMARK INTER + INTRA:         -10.123
REMARK INTER:                  -9.311
REMARK INTRA:                  -0.812
REMARK UNBOUND:                -1.128
REMARK SMILES COc1cc(CNC(=O)CCCCCCCC(C)C)ccc1O
REMARK SMILES IDX 11 1 10 2 8 3 9 4 7 5 6 7 5 8 4 9 20 10 3 11 21 12 22 13
REMARK SMILES IDX 2 14 1 15 23 16 12 18 13 19 14 20 15 21 16 22 17 23 18 24
REMARK SMILES IDX 19 25
REMARK H PARENT 7 6 23 17
REMARK Flexibility Score: inf
ROOT
ATOM      1  C   UNL     1      91.177  83.493  89.615  1.00  0.00     0.010 C 
ENDROOT
BRANCH   1   2
ATOM      2  C   UNL     1      91.212  83.787  88.117  1.00  0.00     0.100 C 
BRANCH   2   3
ATOM      3  C   UNL     1      91.849  82.660  87.321  1.00  0.00     0.220 C 
ATOM      4  O   UNL     1      92.639  81.855  87.806  1.00  0.00    -0.275 OA
ATOM      5  N   UNL     1      91.432  82.672  85.998  1.00  0.00    -0.352 N 
ATOM      6  H   UNL     1      90.782  83.387  85.683  1.00  0.00     0.163 HD
BRANCH   5   7
ATOM      7  C   UNL     1      91.894  81.712  85.023  1.00  0.00     0.151 C 
BRANCH   7   8
ATOM      8  C   UNL     1      90.865  80.655  84.743  1.00  0.00    -0.025 A 
ATOM      9  C   UNL     1      89.553  81.027  84.477  1.00  0.00     0.056 A 
ATOM     10  C   UNL     1      91.235  79.316  84.754  1.00  0.00     0.009 A 
ATOM     11  C   UNL     1      88.597  80.045  84.218  1.00  0.00     0.160 A 
ATOM     12  C   UNL     1      90.278  78.334  84.495  1.00  0.00     0.050 A 
ATOM     13  C   UNL     1      88.959  78.698  84.227  1.00  0.00     0.157 A 
BRANCH  11  14
ATOM     14  O   UNL     1      87.311  80.414  83.958  1.00  0.00    -0.493 OA
ATOM     15  C   UNL     1      86.635  81.162  84.968  1.00  0.00     0.278 C 
ENDBRANCH  11  14
BRANCH  13  16
ATOM     16  O   UNL     1      88.034  77.730  83.975  1.00  0.00    -0.504 OA
ATOM     17  H   UNL     1      87.415  77.682  84.724  1.00  0.00     0.293 HD
ENDBRANCH  13  16
ENDBRANCH   7   8
ENDBRANCH   5   7
ENDBRANCH   2   3
ENDBRANCH   1   2
BRANCH   1  18
ATOM     18  C   UNL     1      91.051  84.750  90.481  1.00  0.00     0.001 C 
BRANCH  18  19
ATOM     19  C   UNL     1      91.908  85.944  90.047  1.00  0.00     0.000 C 
BRANCH  19  20
ATOM     20  C   UNL     1      93.410  85.708  90.225  1.00  0.00     0.000 C 
BRANCH  20  21
ATOM     21  C   UNL     1      94.280  86.703  89.448  1.00  0.00     0.000 C 
BRANCH  21  22
ATOM     22  C   UNL     1      94.519  88.015  90.202  1.00  0.00     0.003 C 
BRANCH  22  23
ATOM     23  C   UNL     1      93.910  89.245  89.501  1.00  0.00    -0.017 C 
ATOM     24  C   UNL     1      94.955  89.891  88.588  1.00  0.00     0.007 C 
ATOM     25  C   UNL     1      93.382  90.283  90.493  1.00  0.00     0.007 C 
ENDBRANCH  22  23
ENDBRANCH  21  22
ENDBRANCH  20  21
ENDBRANCH  19  20
ENDBRANCH  18  19
ENDBRANCH   1  18
TORSDOF 12
ENDMDL
MODEL 4
REMARK VINA RESULT:    -5.356      1.812      3.284
REMARK INTER + INTRA:         -10.085
REMARK INTER:                  -8.804
REMARK INTRA:                  -1.281
REMARK UNBOUND:                -1.128
REMARK SMILES COc1cc(CNC(=O)CCCCCCCC(C)C)ccc1O
REMARK SMILES IDX 11 1 10 2 8 3 9 4 7 5 6 7 5 8 4 9 20 10 3 11 21 12 22 13
REMARK SMILES IDX 2 14 1 15 23 16 12 18 13 19 14 20 15 21 16 22 17 23 18 24
REMARK SMILES IDX 19 25
REMARK H PARENT 7 6 23 17
REMARK Flexibility Score: inf
ROOT
ATOM      1  C   UNL     1      73.768  87.362  68.559  1.00  0.00     0.010 C 
ENDROOT
BRANCH   1   2
ATOM      2  C   UNL     1      74.527  86.276  69.319  1.00  0.00     0.100 C 
BRANCH   2   3
ATOM      3  C   UNL     1      75.110  85.221  68.393  1.00  0.00     0.220 C 
ATOM      4  O   UNL     1      75.795  84.283  68.788  1.00  0.00    -0.275 OA
ATOM      5  N   UNL     1      74.775  85.464  67.070  1.00  0.00    -0.352 N 
ATOM      6  H   UNL     1      74.210  86.277  66.836  1.00  0.00     0.163 HD
BRANCH   5   7
ATOM      7  C   UNL     1      75.209  84.616  65.983  1.00  0.00     0.151 C 
BRANCH   7   8
ATOM      8  C   UNL     1      74.235  83.506  65.715  1.00  0.00    -0.025 A 
ATOM      9  C   UNL     1      72.879  83.791  65.608  1.00  0.00     0.056 A 
ATOM     10  C   UNL     1      74.700  82.203  65.577  1.00  0.00     0.009 A 
ATOM     11  C   UNL     1      71.974  82.759  65.359  1.00  0.00     0.160 A 
ATOM     12  C   UNL     1      73.794  81.171  65.329  1.00  0.00     0.050 A 
ATOM     13  C   UNL     1      72.432  81.448  65.220  1.00  0.00     0.157 A 
BRANCH  11  14
ATOM     14  O   UNL     1      70.646  83.042  65.255  1.00  0.00    -0.493 OA
ATOM     15  C   UNL     1      69.980  83.470  66.442  1.00  0.00     0.278 C 
ENDBRANCH  11  14
BRANCH  13  16
ATOM     16  O   UNL     1      71.559  80.432  64.976  1.00  0.00    -0.504 OA
ATOM     17  H   UNL     1      71.798  80.003  64.136  1.00  0.00     0.293 HD
ENDBRANCH  13  16
ENDBRANCH   7   8
ENDBRANCH   5   7
ENDBRANCH   2   3
ENDBRANCH   1   2
BRANCH   1  18
ATOM     18  C   UNL     1      74.191  88.783  68.940  1.00  0.00     0.001 C 
BRANCH  18  19
ATOM     19  C   UNL     1      75.633  89.163  68.589  1.00  0.00     0.000 C 
BRANCH  19  20
ATOM     20  C   UNL     1      75.740  90.481  67.816  1.00  0.00     0.000 C 
BRANCH  20  21
ATOM     21  C   UNL     1      75.557  90.317  66.303  1.00  0.00     0.000 C 
BRANCH  21  22
ATOM     22  C   UNL     1      76.142  89.009  65.759  1.00  0.00     0.003 C 
BRANCH  22  23
ATOM     23  C   UNL     1      76.141  88.930  64.220  1.00  0.00    -0.017 C 
ATOM     24  C   UNL     1      75.224  90.012  63.647  1.00  0.00     0.007 C 
ATOM     25  C   UNL     1      75.702  87.558  63.705  1.00  0.00     0.007 C 
ENDBRANCH  22  23
ENDBRANCH  21  22
ENDBRANCH  20  21
ENDBRANCH  19  20
ENDBRANCH  18  19
ENDBRANCH   1  18
TORSDOF 12
ENDMDL
MODEL 5
REMARK VINA RESULT:    -5.089     25.405     27.193
REMARK INTER + INTRA:          -9.639
REMARK INTER:                  -8.367
REMARK INTRA:                  -1.272
REMARK UNBOUND:                -1.128
REMARK SMILES COc1cc(CNC(=O)CCCCCCCC(C)C)ccc1O
REMARK SMILES IDX 11 1 10 2 8 3 9 4 7 5 6 7 5 8 4 9 20 10 3 11 21 12 22 13
REMARK SMILES IDX 2 14 1 15 23 16 12 18 13 19 14 20 15 21 16 22 17 23 18 24
REMARK SMILES IDX 19 25
REMARK H PARENT 7 6 23 17
REMARK Flexibility Score: inf
ROOT
ATOM      1  C   UNL     1      93.041  84.623  87.902  1.00  0.00     0.010 C 
ENDROOT
BRANCH   1   2
ATOM      2  C   UNL     1      93.998  84.220  86.783  1.00  0.00     0.100 C 
BRANCH   2   3
ATOM      3  C   UNL     1      93.778  82.789  86.321  1.00  0.00     0.220 C 
ATOM      4  O   UNL     1      94.469  81.845  86.696  1.00  0.00    -0.275 OA
ATOM      5  N   UNL     1      92.718  82.698  85.431  1.00  0.00    -0.352 N 
ATOM      6  H   UNL     1      92.210  83.538  85.168  1.00  0.00     0.163 HD
BRANCH   5   7
ATOM      7  C   UNL     1      92.302  81.450  84.833  1.00  0.00     0.151 C 
BRANCH   7   8
ATOM      8  C   UNL     1      90.855  81.155  85.100  1.00  0.00    -0.025 A 
ATOM      9  C   UNL     1      90.235  80.100  84.441  1.00  0.00     0.056 A 
ATOM     10  C   UNL     1      90.149  81.941  86.003  1.00  0.00     0.009 A 
ATOM     11  C   UNL     1      88.890  79.827  84.689  1.00  0.00     0.160 A 
ATOM     12  C   UNL     1      88.803  81.667  86.251  1.00  0.00     0.050 A 
ATOM     13  C   UNL     1      88.173  80.610  85.594  1.00  0.00     0.157 A 
BRANCH  11  14
ATOM     14  O   UNL     1      88.286  78.792  84.040  1.00  0.00    -0.493 OA
ATOM     15  C   UNL     1      88.768  77.479  84.324  1.00  0.00     0.278 C 
ENDBRANCH  11  14
BRANCH  13  16
ATOM     16  O   UNL     1      86.860  80.352  85.845  1.00  0.00    -0.504 OA
ATOM     17  H   UNL     1      86.348  81.171  85.723  1.00  0.00     0.293 HD
ENDBRANCH  13  16
ENDBRANCH   7   8
ENDBRANCH   5   7
ENDBRANCH   2   3
ENDBRANCH   1   2
BRANCH   1  18
ATOM     18  C   UNL     1      93.750  84.971  89.215  1.00  0.00     0.001 C 
BRANCH  18  19
ATOM     19  C   UNL     1      93.191  86.181  89.971  1.00  0.00     0.000 C 
BRANCH  19  20
ATOM     20  C   UNL     1      94.221  86.854  90.881  1.00  0.00     0.000 C 
BRANCH  20  21
ATOM     21  C   UNL     1      95.662  86.722  90.374  1.00  0.00     0.000 C 
BRANCH  21  22
ATOM     22  C   UNL     1      96.341  88.071  90.118  1.00  0.00     0.003 C 
BRANCH  22  23
ATOM     23  C   UNL     1      96.228  88.548  88.657  1.00  0.00    -0.017 C 
ATOM     24  C   UNL     1      95.075  89.546  88.526  1.00  0.00     0.007 C 
ATOM     25  C   UNL     1      96.021  87.392  87.678  1.00  0.00     0.007 C 
ENDBRANCH  22  23
ENDBRANCH  21  22
ENDBRANCH  20  21
ENDBRANCH  19  20
ENDBRANCH  18  19
ENDBRANCH   1  18
TORSDOF 12
ENDMDL
MODEL 6
REMARK VINA RESULT:    -5.036      5.761     10.646
REMARK INTER + INTRA:          -9.549
REMARK INTER:                  -8.454
REMARK INTRA:                  -1.095
REMARK UNBOUND:                -1.128
REMARK SMILES COc1cc(CNC(=O)CCCCCCCC(C)C)ccc1O
REMARK SMILES IDX 11 1 10 2 8 3 9 4 7 5 6 7 5 8 4 9 20 10 3 11 21 12 22 13
REMARK SMILES IDX 2 14 1 15 23 16 12 18 13 19 14 20 15 21 16 22 17 23 18 24
REMARK SMILES IDX 19 25
REMARK H PARENT 7 6 23 17
REMARK Flexibility Score: inf
ROOT
ATOM      1  C   UNL     1      74.286  88.819  68.214  1.00  0.00     0.010 C 
ENDROOT
BRANCH   1   2
ATOM      2  C   UNL     1      75.248  89.842  68.814  1.00  0.00     0.100 C 
BRANCH   2   3
ATOM      3  C   UNL     1      74.573  91.173  69.099  1.00  0.00     0.220 C 
ATOM      4  O   UNL     1      74.075  91.876  68.224  1.00  0.00    -0.275 OA
ATOM      5  N   UNL     1      74.605  91.482  70.451  1.00  0.00    -0.352 N 
ATOM      6  H   UNL     1      75.051  90.842  71.102  1.00  0.00     0.163 HD
BRANCH   5   7
ATOM      7  C   UNL     1      74.039  92.697  70.990  1.00  0.00     0.151 C 
BRANCH   7   8
ATOM      8  C   UNL     1      75.097  93.710  71.321  1.00  0.00    -0.025 A 
ATOM      9  C   UNL     1      75.660  93.726  72.591  1.00  0.00     0.056 A 
ATOM     10  C   UNL     1      75.501  94.621  70.353  1.00  0.00     0.009 A 
ATOM     11  C   UNL     1      76.642  94.667  72.898  1.00  0.00     0.160 A 
ATOM     12  C   UNL     1      76.484  95.563  70.661  1.00  0.00     0.050 A 
ATOM     13  C   UNL     1      77.054  95.587  71.933  1.00  0.00     0.157 A 
BRANCH  11  14
ATOM     14  O   UNL     1      77.192  94.680  74.145  1.00  0.00    -0.493 OA
ATOM     15  C   UNL     1      77.335  93.422  74.803  1.00  0.00     0.278 C 
ENDBRANCH  11  14
BRANCH  13  16
ATOM     16  O   UNL     1      78.013  96.510  72.221  1.00  0.00    -0.504 OA
ATOM     17  H   UNL     1      78.760  96.393  71.608  1.00  0.00     0.293 HD
ENDBRANCH  13  16
ENDBRANCH   7   8
ENDBRANCH   5   7
ENDBRANCH   2   3
ENDBRANCH   1   2
BRANCH   1  18
ATOM     18  C   UNL     1      73.755  87.808  69.235  1.00  0.00     0.001 C 
BRANCH  18  19
ATOM     19  C   UNL     1      73.764  86.343  68.785  1.00  0.00     0.000 C 
BRANCH  19  20
ATOM     20  C   UNL     1      74.423  85.403  69.799  1.00  0.00     0.000 C 
BRANCH  20  21
ATOM     21  C   UNL     1      75.909  85.151  69.521  1.00  0.00     0.000 C 
BRANCH  21  22
ATOM     22  C   UNL     1      76.161  84.390  68.215  1.00  0.00     0.003 C 
BRANCH  22  23
ATOM     23  C   UNL     1      77.375  84.915  67.424  1.00  0.00    -0.017 C 
ATOM     24  C   UNL     1      77.293  86.438  67.301  1.00  0.00     0.007 C 
ATOM     25  C   UNL     1      77.480  84.292  66.031  1.00  0.00     0.007 C 
ENDBRANCH  22  23
ENDBRANCH  21  22
ENDBRANCH  20  21
ENDBRANCH  19  20
ENDBRANCH  18  19
ENDBRANCH   1  18
TORSDOF 12
ENDMDL
MODEL 7
REMARK VINA RESULT:    -5.024      2.568      4.153
REMARK INTER + INTRA:          -9.529
REMARK INTER:                  -8.579
REMARK INTRA:                  -0.951
REMARK UNBOUND:                -1.128
REMARK SMILES COc1cc(CNC(=O)CCCCCCCC(C)C)ccc1O
REMARK SMILES IDX 11 1 10 2 8 3 9 4 7 5 6 7 5 8 4 9 20 10 3 11 21 12 22 13
REMARK SMILES IDX 2 14 1 15 23 16 12 18 13 19 14 20 15 21 16 22 17 23 18 24
REMARK SMILES IDX 19 25
REMARK H PARENT 7 6 23 17
REMARK Flexibility Score: inf
ROOT
ATOM      1  C   UNL     1      76.509  83.352  65.299  1.00  0.00     0.010 C 
ENDROOT
BRANCH   1   2
ATOM      2  C   UNL     1      75.046  83.652  64.981  1.00  0.00     0.100 C 
BRANCH   2   3
ATOM      3  C   UNL     1      74.175  82.407  65.032  1.00  0.00     0.220 C 
ATOM      4  O   UNL     1      74.449  81.422  65.712  1.00  0.00    -0.275 OA
ATOM      5  N   UNL     1      73.059  82.532  64.218  1.00  0.00    -0.352 N 
ATOM      6  H   UNL     1      72.922  83.384  63.682  1.00  0.00     0.163 HD
BRANCH   5   7
ATOM      7  C   UNL     1      72.071  81.487  64.078  1.00  0.00     0.151 C 
BRANCH   7   8
ATOM      8  C   UNL     1      70.673  82.033  64.077  1.00  0.00    -0.025 A 
ATOM      9  C   UNL     1      70.181  82.665  65.212  1.00  0.00     0.056 A 
ATOM     10  C   UNL     1      69.885  81.900  62.940  1.00  0.00     0.009 A 
ATOM     11  C   UNL     1      68.881  83.172  65.210  1.00  0.00     0.160 A 
ATOM     12  C   UNL     1      68.585  82.407  62.939  1.00  0.00     0.050 A 
ATOM     13  C   UNL     1      68.083  83.043  64.073  1.00  0.00     0.157 A 
BRANCH  11  14
ATOM     14  O   UNL     1      68.401  83.791  66.325  1.00  0.00    -0.493 OA
ATOM     15  C   UNL     1      69.299  84.652  67.025  1.00  0.00     0.278 C 
ENDBRANCH  11  14
BRANCH  13  16
ATOM     16  O   UNL     1      66.813  83.534  64.059  1.00  0.00    -0.504 OA
ATOM     17  H   UNL     1      66.743  84.250  64.715  1.00  0.00     0.293 HD
ENDBRANCH  13  16
ENDBRANCH   7   8
ENDBRANCH   5   7
ENDBRANCH   2   3
ENDBRANCH   1   2
BRANCH   1  18
ATOM     18  C   UNL     1      76.904  83.697  66.738  1.00  0.00     0.001 C 
BRANCH  18  19
ATOM     19  C   UNL     1      77.328  85.149  66.980  1.00  0.00     0.000 C 
BRANCH  19  20
ATOM     20  C   UNL     1      76.794  85.725  68.294  1.00  0.00     0.000 C 
BRANCH  20  21
ATOM     21  C   UNL     1      76.455  87.217  68.214  1.00  0.00     0.000 C 
BRANCH  21  22
ATOM     22  C   UNL     1      77.316  87.981  67.202  1.00  0.00     0.003 C 
BRANCH  22  23
ATOM     23  C   UNL     1      76.492  88.756  66.156  1.00  0.00    -0.017 C 
ATOM     24  C   UNL     1      75.875  90.000  66.801  1.00  0.00     0.007 C 
ATOM     25  C   UNL     1      75.389  87.903  65.528  1.00  0.00     0.007 C 
ENDBRANCH  22  23
ENDBRANCH  21  22
ENDBRANCH  20  21
ENDBRANCH  19  20
ENDBRANCH  18  19
ENDBRANCH   1  18
TORSDOF 12
ENDMDL
MODEL 8
REMARK VINA RESULT:    -4.889     12.433     15.367
REMARK INTER + INTRA:          -9.304
REMARK INTER:                  -7.477
REMARK INTRA:                  -1.827
REMARK UNBOUND:                -1.128
REMARK SMILES COc1cc(CNC(=O)CCCCCCCC(C)C)ccc1O
REMARK SMILES IDX 11 1 10 2 8 3 9 4 7 5 6 7 5 8 4 9 20 10 3 11 21 12 22 13
REMARK SMILES IDX 2 14 1 15 23 16 12 18 13 19 14 20 15 21 16 22 17 23 18 24
REMARK SMILES IDX 19 25
REMARK H PARENT 7 6 23 17
REMARK Flexibility Score: inf
ROOT
ATOM      1  C   UNL     1      59.221  86.317  73.476  1.00  0.00     0.010 C 
ENDROOT
BRANCH   1   2
ATOM      2  C   UNL     1      59.588  86.187  74.953  1.00  0.00     0.100 C 
BRANCH   2   3
ATOM      3  C   UNL     1      61.031  85.755  75.154  1.00  0.00     0.220 C 
ATOM      4  O   UNL     1      61.954  86.546  75.323  1.00  0.00    -0.275 OA
ATOM      5  N   UNL     1      61.160  84.374  75.113  1.00  0.00    -0.352 N 
ATOM      6  H   UNL     1      60.338  83.798  74.956  1.00  0.00     0.163 HD
BRANCH   5   7
ATOM      7  C   UNL     1      62.429  83.701  75.269  1.00  0.00     0.151 C 
BRANCH   7   8
ATOM      8  C   UNL     1      62.940  83.157  73.967  1.00  0.00    -0.025 A 
ATOM      9  C   UNL     1      63.532  84.015  73.048  1.00  0.00     0.056 A 
ATOM     10  C   UNL     1      62.815  81.800  73.693  1.00  0.00     0.009 A 
ATOM     11  C   UNL     1      64.006  83.509  71.837  1.00  0.00     0.160 A 
ATOM     12  C   UNL     1      63.288  81.295  72.482  1.00  0.00     0.050 A 
ATOM     13  C   UNL     1      63.884  82.148  71.554  1.00  0.00     0.157 A 
BRANCH  11  14
ATOM     14  O   UNL     1      64.585  84.353  70.938  1.00  0.00    -0.493 OA
ATOM     15  C   UNL     1      65.925  84.765  71.207  1.00  0.00     0.278 C 
ENDBRANCH  11  14
BRANCH  13  16
ATOM     16  O   UNL     1      64.343  81.642  70.376  1.00  0.00    -0.504 OA
ATOM     17  H   UNL     1      63.673  81.043  70.006  1.00  0.00     0.293 HD
ENDBRANCH  13  16
ENDBRANCH   7   8
ENDBRANCH   5   7
ENDBRANCH   2   3
ENDBRANCH   1   2
BRANCH   1  18
ATOM     18  C   UNL     1      58.570  85.058  72.896  1.00  0.00     0.001 C 
BRANCH  18  19
ATOM     19  C   UNL     1      57.236  85.272  72.174  1.00  0.00     0.000 C 
BRANCH  19  20
ATOM     20  C   UNL     1      57.331  85.083  70.658  1.00  0.00     0.000 C 
BRANCH  20  21
ATOM     21  C   UNL     1      58.612  85.665  70.050  1.00  0.00     0.000 C 
BRANCH  21  22
ATOM     22  C   UNL     1      59.443  84.631  69.282  1.00  0.00     0.003 C 
BRANCH  22  23
ATOM     23  C   UNL     1      60.862  84.438  69.852  1.00  0.00    -0.017 C 
ATOM     24  C   UNL     1      61.434  85.791  70.283  1.00  0.00     0.007 C 
ATOM     25  C   UNL     1      61.810  83.775  68.852  1.00  0.00     0.007 C 
ENDBRANCH  22  23
ENDBRANCH  21  22
ENDBRANCH  20  21
ENDBRANCH  19  20
ENDBRANCH  18  19
ENDBRANCH   1  18
TORSDOF 12
ENDMDL
MODEL 9
REMARK VINA RESULT:    -4.717     25.315     27.103
REMARK INTER + INTRA:          -9.016
REMARK INTER:                  -8.160
REMARK INTRA:                  -0.856
REMARK UNBOUND:                -1.128
REMARK SMILES COc1cc(CNC(=O)CCCCCCCC(C)C)ccc1O
REMARK SMILES IDX 11 1 10 2 8 3 9 4 7 5 6 7 5 8 4 9 20 10 3 11 21 12 22 13
REMARK SMILES IDX 2 14 1 15 23 16 12 18 13 19 14 20 15 21 16 22 17 23 18 24
REMARK SMILES IDX 19 25
REMARK H PARENT 7 6 23 17
REMARK Flexibility Score: inf
ROOT
ATOM      1  C   UNL     1      91.172  83.296  89.839  1.00  0.00     0.010 C 
ENDROOT
BRANCH   1   2
ATOM      2  C   UNL     1      90.985  83.564  88.347  1.00  0.00     0.100 C 
BRANCH   2   3
ATOM      3  C   UNL     1      91.657  82.512  87.481  1.00  0.00     0.220 C 
ATOM      4  O   UNL     1      92.487  81.716  87.910  1.00  0.00    -0.275 OA
ATOM      5  N   UNL     1      91.219  82.578  86.167  1.00  0.00    -0.352 N 
ATOM      6  H   UNL     1      90.534  83.280  85.900  1.00  0.00     0.163 HD
BRANCH   5   7
ATOM      7  C   UNL     1      91.706  81.693  85.133  1.00  0.00     0.151 C 
BRANCH   7   8
ATOM      8  C   UNL     1      90.711  80.622  84.796  1.00  0.00    -0.025 A 
ATOM      9  C   UNL     1      91.138  79.308  84.648  1.00  0.00     0.056 A 
ATOM     10  C   UNL     1      89.371  80.955  84.635  1.00  0.00     0.009 A 
ATOM     11  C   UNL     1      90.213  78.312  84.334  1.00  0.00     0.160 A 
ATOM     12  C   UNL     1      88.446  79.959  84.320  1.00  0.00     0.050 A 
ATOM     13  C   UNL     1      88.866  78.638  84.170  1.00  0.00     0.157 A 
BRANCH  11  14
ATOM     14  O   UNL     1      90.636  77.025  84.189  1.00  0.00    -0.493 OA
ATOM     15  C   UNL     1      91.626  76.562  85.106  1.00  0.00     0.278 C 
ENDBRANCH  11  14
BRANCH  13  16
ATOM     16  O   UNL     1      87.953  77.674  83.864  1.00  0.00    -0.504 OA
ATOM     17  H   UNL     1      88.390  76.806  83.887  1.00  0.00     0.293 HD
ENDBRANCH  13  16
ENDBRANCH   7   8
ENDBRANCH   5   7
ENDBRANCH   2   3
ENDBRANCH   1   2
BRANCH   1  18
ATOM     18  C   UNL     1      91.378  84.568  90.666  1.00  0.00     0.001 C 
BRANCH  18  19
ATOM     19  C   UNL     1      92.114  85.710  89.957  1.00  0.00     0.000 C 
BRANCH  19  20
ATOM     20  C   UNL     1      93.638  85.606  90.062  1.00  0.00     0.000 C 
BRANCH  20  21
ATOM     21  C   UNL     1      94.375  86.236  88.876  1.00  0.00     0.000 C 
BRANCH  21  22
ATOM     22  C   UNL     1      95.587  87.077  89.293  1.00  0.00     0.003 C 
BRANCH  22  23
ATOM     23  C   UNL     1      95.429  88.578  88.982  1.00  0.00    -0.017 C 
ATOM     24  C   UNL     1      96.627  89.350  89.538  1.00  0.00     0.007 C 
ATOM     25  C   UNL     1      94.134  89.161  89.548  1.00  0.00     0.007 C 
ENDBRANCH  22  23
ENDBRANCH  21  22
ENDBRANCH  20  21
ENDBRANCH  19  20
ENDBRANCH  18  19
ENDBRANCH   1  18
TORSDOF 12
ENDMDL
MODEL 10
REMARK VINA RESULT:    -4.704      6.182     10.916
REMARK INTER + INTRA:          -8.994
REMARK INTER:                  -7.465
REMARK INTRA:                  -1.529
REMARK UNBOUND:                -1.128
REMARK SMILES COc1cc(CNC(=O)CCCCCCCC(C)C)ccc1O
REMARK SMILES IDX 11 1 10 2 8 3 9 4 7 5 6 7 5 8 4 9 20 10 3 11 21 12 22 13
REMARK SMILES IDX 2 14 1 15 23 16 12 18 13 19 14 20 15 21 16 22 17 23 18 24
REMARK SMILES IDX 19 25
REMARK H PARENT 7 6 23 17
REMARK Flexibility Score: inf
ROOT
ATOM      1  C   UNL     1      75.473  90.576  68.894  1.00  0.00     0.010 C 
ENDROOT
BRANCH   1   2
ATOM      2  C   UNL     1      75.187  91.271  67.564  1.00  0.00     0.100 C 
BRANCH   2   3
ATOM      3  C   UNL     1      74.790  92.727  67.745  1.00  0.00     0.220 C 
ATOM      4  O   UNL     1      73.705  93.077  68.200  1.00  0.00    -0.275 OA
ATOM      5  N   UNL     1      75.796  93.585  67.328  1.00  0.00    -0.352 N 
ATOM      6  H   UNL     1      76.659  93.202  66.953  1.00  0.00     0.163 HD
BRANCH   5   7
ATOM      7  C   UNL     1      75.671  95.024  67.384  1.00  0.00     0.151 C 
BRANCH   7   8
ATOM      8  C   UNL     1      76.555  95.622  68.440  1.00  0.00    -0.025 A 
ATOM      9  C   UNL     1      76.141  95.620  69.766  1.00  0.00     0.056 A 
ATOM     10  C   UNL     1      77.779  96.173  68.079  1.00  0.00     0.009 A 
ATOM     11  C   UNL     1      76.962  96.176  70.747  1.00  0.00     0.160 A 
ATOM     12  C   UNL     1      78.600  96.731  69.060  1.00  0.00     0.050 A 
ATOM     13  C   UNL     1      78.192  96.732  70.394  1.00  0.00     0.157 A 
BRANCH  11  14
ATOM     14  O   UNL     1      76.552  96.172  72.046  1.00  0.00    -0.493 OA
ATOM     15  C   UNL     1      76.299  94.901  72.642  1.00  0.00     0.278 C 
ENDBRANCH  11  14
BRANCH  13  16
ATOM     16  O   UNL     1      79.003  97.278  71.342  1.00  0.00    -0.504 OA
ATOM     17  H   UNL     1      78.561  98.055  71.727  1.00  0.00     0.293 HD
ENDBRANCH  13  16
ENDBRANCH   7   8
ENDBRANCH   5   7
ENDBRANCH   2   3
ENDBRANCH   1   2
BRANCH   1  18
ATOM     18  C   UNL     1      74.336  89.664  69.363  1.00  0.00     0.001 C 
BRANCH  18  19
ATOM     19  C   UNL     1      73.746  88.737  68.296  1.00  0.00     0.000 C 
BRANCH  19  20
ATOM     20  C   UNL     1      73.938  87.251  68.612  1.00  0.00     0.000 C 
BRANCH  20  21
ATOM     21  C   UNL     1      75.407  86.815  68.625  1.00  0.00     0.000 C 
BRANCH  21  22
ATOM     22  C   UNL     1      75.885  86.257  67.280  1.00  0.00     0.003 C 
BRANCH  22  23
ATOM     23  C   UNL     1      76.798  87.225  66.503  1.00  0.00    -0.017 C 
ATOM     24  C   UNL     1      77.537  88.139  67.484  1.00  0.00     0.007 C 
ATOM     25  C   UNL     1      76.027  88.075  65.492  1.00  0.00     0.007 C 
ENDBRANCH  22  23
ENDBRANCH  21  22
ENDBRANCH  20  21
ENDBRANCH  19  20
ENDBRANCH  18  19
ENDBRANCH   1  18
TORSDOF 12
ENDMDL
