MODEL 1
REMARK VINA RESULT:    -6.145      0.000      0.000
REMARK INTER + INTRA:         -11.177
REMARK INTER:                 -10.277
REMARK INTRA:                  -0.900
REMARK UNBOUND:                -0.900
REMARK SMILES COc1cc(CNC(=O)CCCCCCCC(C)C)ccc1O
REMARK SMILES IDX 11 1 10 2 8 3 9 4 7 5 6 7 5 8 4 9 20 10 3 11 21 12 22 13
REMARK SMILES IDX 2 14 1 15 23 16 12 18 13 19 14 20 15 21 16 22 17 23 18 24
REMARK SMILES IDX 19 25
REMARK H PARENT 7 6 23 17
REMARK Flexibility Score: inf
ROOT
ATOM      1  C   UNL     1      96.831  81.732  77.026  1.00  0.00     0.010 C 
ENDROOT
BRANCH   1   2
ATOM      2  C   UNL     1      97.788  82.008  78.185  1.00  0.00     0.100 C 
BRANCH   2   3
ATOM      3  C   UNL     1      97.565  81.065  79.355  1.00  0.00     0.220 C 
ATOM      4  O   UNL     1      97.448  79.849  79.228  1.00  0.00    -0.275 OA
ATOM      5  N   UNL     1      97.505  81.751  80.559  1.00  0.00    -0.352 N 
ATOM      6  H   UNL     1      97.601  82.763  80.565  1.00  0.00     0.163 HD
BRANCH   5   7
ATOM      7  C   UNL     1      97.292  81.093  81.827  1.00  0.00     0.151 C 
BRANCH   7   8
ATOM      8  C   UNL     1      96.481  81.935  82.768  1.00  0.00    -0.025 A 
ATOM      9  C   UNL     1      95.558  81.328  83.612  1.00  0.00     0.056 A 
ATOM     10  C   UNL     1      96.660  83.312  82.785  1.00  0.00     0.009 A 
ATOM     11  C   UNL     1      94.804  82.111  84.486  1.00  0.00     0.160 A 
ATOM     12  C   UNL     1      95.904  84.095  83.659  1.00  0.00     0.050 A 
ATOM     13  C   UNL     1      94.977  83.495  84.509  1.00  0.00     0.157 A 
BRANCH  11  14
ATOM     14  O   UNL     1      93.900  81.512  85.312  1.00  0.00    -0.493 OA
ATOM     15  C   UNL     1      92.617  81.217  84.762  1.00  0.00     0.278 C 
ENDBRANCH  11  14
BRANCH  13  16
ATOM     16  O   UNL     1      94.246  84.270  85.359  1.00  0.00    -0.504 OA
ATOM     17  H   UNL     1      94.259  83.867  86.244  1.00  0.00     0.293 HD
ENDBRANCH  13  16
ENDBRANCH   7   8
ENDBRANCH   5   7
ENDBRANCH   2   3
ENDBRANCH   1   2
BRANCH   1  18
ATOM     18  C   UNL     1      95.827  82.863  76.782  1.00  0.00     0.001 C 
BRANCH  18  19
ATOM     19  C   UNL     1      95.994  83.626  75.464  1.00  0.00     0.000 C 
BRANCH  19  20
ATOM     20  C   UNL     1      96.610  82.778  74.347  1.00  0.00     0.000 C 
BRANCH  20  21
ATOM     21  C   UNL     1      97.992  83.267  73.902  1.00  0.00     0.000 C 
BRANCH  21  22
ATOM     22  C   UNL     1      99.041  82.151  73.846  1.00  0.00     0.003 C 
BRANCH  22  23
ATOM     23  C   UNL     1     100.404  82.559  74.438  1.00  0.00    -0.017 C 
ATOM     24  C   UNL     1     100.842  83.903  73.852  1.00  0.00     0.007 C 
ATOM     25  C   UNL     1     101.489  81.511  74.188  1.00  0.00     0.007 C 
ENDBRANCH  22  23
ENDBRANCH  21  22
ENDBRANCH  20  21
ENDBRANCH  19  20
ENDBRANCH  18  19
ENDBRANCH   1  18
TORSDOF 12
ENDMDL
MODEL 2
REMARK VINA RESULT:    -6.093     20.414     22.737
REMARK INTER + INTRA:         -11.089
REMARK INTER:                  -9.051
REMARK INTRA:                  -2.038
REMARK UNBOUND:                -0.900
REMARK SMILES COc1cc(CNC(=O)CCCCCCCC(C)C)ccc1O
REMARK SMILES IDX 11 1 10 2 8 3 9 4 7 5 6 7 5 8 4 9 20 10 3 11 21 12 22 13
REMARK SMILES IDX 2 14 1 15 23 16 12 18 13 19 14 20 15 21 16 22 17 23 18 24
REMARK SMILES IDX 19 25
REMARK H PARENT 7 6 23 17
REMARK Flexibility Score: inf
ROOT
ATOM      1  C   UNL     1      87.676  99.996  67.375  1.00  0.00     0.010 C 
ENDROOT
BRANCH   1   2
ATOM      2  C   UNL     1      88.626  98.935  66.824  1.00  0.00     0.100 C 
BRANCH   2   3
ATOM      3  C   UNL     1      89.508  98.330  67.905  1.00  0.00     0.220 C 
ATOM      4  O   UNL     1      90.342  97.457  67.683  1.00  0.00    -0.275 OA
ATOM      5  N   UNL     1      89.241  98.882  69.148  1.00  0.00    -0.352 N 
ATOM      6  H   UNL     1      88.521  99.595  69.237  1.00  0.00     0.163 HD
BRANCH   5   7
ATOM      7  C   UNL     1      89.934  98.478  70.350  1.00  0.00     0.151 C 
BRANCH   7   8
ATOM      8  C   UNL     1      90.670  99.622  70.985  1.00  0.00    -0.025 A 
ATOM      9  C   UNL     1      90.034 100.847  71.143  1.00  0.00     0.056 A 
ATOM     10  C   UNL     1      91.982  99.444  71.407  1.00  0.00     0.009 A 
ATOM     11  C   UNL     1      90.718 101.910  71.732  1.00  0.00     0.160 A 
ATOM     12  C   UNL     1      92.667 100.507  71.996  1.00  0.00     0.050 A 
ATOM     13  C   UNL     1      92.036 101.740  72.159  1.00  0.00     0.157 A 
BRANCH  11  14
ATOM     14  O   UNL     1      90.091 103.109  71.885  1.00  0.00    -0.493 OA
ATOM     15  C   UNL     1      89.027 103.168  72.834  1.00  0.00     0.278 C 
ENDBRANCH  11  14
BRANCH  13  16
ATOM     16  O   UNL     1      92.715 102.770  72.736  1.00  0.00    -0.504 OA
ATOM     17  H   UNL     1      93.599 102.829  72.337  1.00  0.00     0.293 HD
ENDBRANCH  13  16
ENDBRANCH   7   8
ENDBRANCH   5   7
ENDBRANCH   2   3
ENDBRANCH   1   2
BRANCH   1  18
ATOM     18  C   UNL     1      86.925 100.766  66.286  1.00  0.00     0.001 C 
BRANCH  18  19
ATOM     19  C   UNL     1      86.890 102.289  66.454  1.00  0.00     0.000 C 
BRANCH  19  20
ATOM     20  C   UNL     1      88.191 102.974  66.024  1.00  0.00     0.000 C 
BRANCH  20  21
ATOM     21  C   UNL     1      89.094 103.359  67.201  1.00  0.00     0.000 C 
BRANCH  21  22
ATOM     22  C   UNL     1      90.588 103.198  66.897  1.00  0.00     0.003 C 
BRANCH  22  23
ATOM     23  C   UNL     1      91.018 101.733  66.688  1.00  0.00    -0.017 C 
ATOM     24  C   UNL     1      91.793 101.242  67.913  1.00  0.00     0.007 C 
ATOM     25  C   UNL     1      91.869 101.546  65.431  1.00  0.00     0.007 C 
ENDBRANCH  22  23
ENDBRANCH  21  22
ENDBRANCH  20  21
ENDBRANCH  19  20
ENDBRANCH  18  19
ENDBRANCH   1  18
TORSDOF 12
ENDMDL
MODEL 3
REMARK VINA RESULT:    -5.958      1.445      1.988
REMARK INTER + INTRA:         -10.864
REMARK INTER:                  -9.983
REMARK INTRA:                  -0.881
REMARK UNBOUND:                -0.900
REMARK SMILES COc1cc(CNC(=O)CCCCCCCC(C)C)ccc1O
REMARK SMILES IDX 11 1 10 2 8 3 9 4 7 5 6 7 5 8 4 9 20 10 3 11 21 12 22 13
REMARK SMILES IDX 2 14 1 15 23 16 12 18 13 19 14 20 15 21 16 22 17 23 18 24
REMARK SMILES IDX 19 25
REMARK H PARENT 7 6 23 17
REMARK Flexibility Score: inf
ROOT
ATOM      1  C   UNL     1      96.857  81.668  77.201  1.00  0.00     0.010 C 
ENDROOT
BRANCH   1   2
ATOM      2  C   UNL     1      97.868  81.923  78.317  1.00  0.00     0.100 C 
BRANCH   2   3
ATOM      3  C   UNL     1      97.644  81.021  79.519  1.00  0.00     0.220 C 
ATOM      4  O   UNL     1      97.456  79.811  79.427  1.00  0.00    -0.275 OA
ATOM      5  N   UNL     1      97.673  81.737  80.706  1.00  0.00    -0.352 N 
ATOM      6  H   UNL     1      97.824  82.742  80.683  1.00  0.00     0.163 HD
BRANCH   5   7
ATOM      7  C   UNL     1      97.479  81.120  81.998  1.00  0.00     0.151 C 
BRANCH   7   8
ATOM      8  C   UNL     1      96.590  81.942  82.886  1.00  0.00    -0.025 A 
ATOM      9  C   UNL     1      95.679  81.310  83.723  1.00  0.00     0.056 A 
ATOM     10  C   UNL     1      96.686  83.328  82.859  1.00  0.00     0.009 A 
ATOM     11  C   UNL     1      94.853  82.074  84.548  1.00  0.00     0.160 A 
ATOM     12  C   UNL     1      95.860  84.093  83.684  1.00  0.00     0.050 A 
ATOM     13  C   UNL     1      94.943  83.466  84.528  1.00  0.00     0.157 A 
BRANCH  11  14
ATOM     14  O   UNL     1      93.962  81.450  85.367  1.00  0.00    -0.493 OA
ATOM     15  C   UNL     1      94.497  80.591  86.373  1.00  0.00     0.278 C 
ENDBRANCH  11  14
BRANCH  13  16
ATOM     16  O   UNL     1      94.143  84.223  85.328  1.00  0.00    -0.504 OA
ATOM     17  H   UNL     1      94.662  84.540  86.087  1.00  0.00     0.293 HD
ENDBRANCH  13  16
ENDBRANCH   7   8
ENDBRANCH   5   7
ENDBRANCH   2   3
ENDBRANCH   1   2
BRANCH   1  18
ATOM     18  C   UNL     1      95.804  82.771  77.067  1.00  0.00     0.001 C 
BRANCH  18  19
ATOM     19  C   UNL     1      95.897  83.628  75.800  1.00  0.00     0.000 C 
BRANCH  19  20
ATOM     20  C   UNL     1      97.074  83.248  74.898  1.00  0.00     0.000 C 
BRANCH  20  21
ATOM     21  C   UNL     1      96.708  82.228  73.814  1.00  0.00     0.000 C 
BRANCH  21  22
ATOM     22  C   UNL     1      97.918  81.466  73.264  1.00  0.00     0.003 C 
BRANCH  22  23
ATOM     23  C   UNL     1      97.647  79.966  73.036  1.00  0.00    -0.017 C 
ATOM     24  C   UNL     1      96.549  79.792  71.984  1.00  0.00     0.007 C 
ATOM     25  C   UNL     1      97.247  79.241  74.321  1.00  0.00     0.007 C 
ENDBRANCH  22  23
ENDBRANCH  21  22
ENDBRANCH  20  21
ENDBRANCH  19  20
ENDBRANCH  18  19
ENDBRANCH   1  18
TORSDOF 12
ENDMDL
MODEL 4
REMARK VINA RESULT:    -5.859      3.665      9.853
REMARK INTER + INTRA:         -10.698
REMARK INTER:                  -9.833
REMARK INTRA:                  -0.865
REMARK UNBOUND:                -0.900
REMARK SMILES COc1cc(CNC(=O)CCCCCCCC(C)C)ccc1O
REMARK SMILES IDX 11 1 10 2 8 3 9 4 7 5 6 7 5 8 4 9 20 10 3 11 21 12 22 13
REMARK SMILES IDX 2 14 1 15 23 16 12 18 13 19 14 20 15 21 16 22 17 23 18 24
REMARK SMILES IDX 19 25
REMARK H PARENT 7 6 23 17
REMARK Flexibility Score: inf
ROOT
ATOM      1  C   UNL     1      96.994  81.368  77.589  1.00  0.00     0.010 C 
ENDROOT
BRANCH   1   2
ATOM      2  C   UNL     1      96.085  82.560  77.291  1.00  0.00     0.100 C 
BRANCH   2   3
ATOM      3  C   UNL     1      96.363  83.172  75.928  1.00  0.00     0.220 C 
ATOM      4  O   UNL     1      95.559  83.884  75.333  1.00  0.00    -0.275 OA
ATOM      5  N   UNL     1      97.618  82.817  75.456  1.00  0.00    -0.352 N 
ATOM      6  H   UNL     1      98.212  82.212  76.016  1.00  0.00     0.163 HD
BRANCH   5   7
ATOM      7  C   UNL     1      98.128  83.259  74.178  1.00  0.00     0.151 C 
BRANCH   7   8
ATOM      8  C   UNL     1      98.358  82.111  73.238  1.00  0.00    -0.025 A 
ATOM      9  C   UNL     1      97.419  81.090  73.158  1.00  0.00     0.056 A 
ATOM     10  C   UNL     1      99.508  82.082  72.459  1.00  0.00     0.009 A 
ATOM     11  C   UNL     1      97.633  80.024  72.284  1.00  0.00     0.160 A 
ATOM     12  C   UNL     1      99.722  81.014  71.586  1.00  0.00     0.050 A 
ATOM     13  C   UNL     1      98.785  79.985  71.498  1.00  0.00     0.157 A 
BRANCH  11  14
ATOM     14  O   UNL     1      96.710  79.024  72.208  1.00  0.00    -0.493 OA
ATOM     15  C   UNL     1      96.865  77.929  73.110  1.00  0.00     0.278 C 
ENDBRANCH  11  14
BRANCH  13  16
ATOM     16  O   UNL     1      99.004  78.950  70.642  1.00  0.00    -0.504 OA
ATOM     17  H   UNL     1      99.194  78.147  71.157  1.00  0.00     0.293 HD
ENDBRANCH  13  16
ENDBRANCH   7   8
ENDBRANCH   5   7
ENDBRANCH   2   3
ENDBRANCH   1   2
BRANCH   1  18
ATOM     18  C   UNL     1      97.941  81.604  78.768  1.00  0.00     0.001 C 
BRANCH  18  19
ATOM     19  C   UNL     1      97.269  81.909  80.111  1.00  0.00     0.000 C 
BRANCH  19  20
ATOM     20  C   UNL     1      97.004  80.659  80.953  1.00  0.00     0.000 C 
BRANCH  20  21
ATOM     21  C   UNL     1      97.243  80.871  82.452  1.00  0.00     0.000 C 
BRANCH  21  22
ATOM     22  C   UNL     1      97.124  82.336  82.884  1.00  0.00     0.003 C 
BRANCH  22  23
ATOM     23  C   UNL     1      95.678  82.768  83.198  1.00  0.00    -0.017 C 
ATOM     24  C   UNL     1      95.683  84.140  83.876  1.00  0.00     0.007 C 
ATOM     25  C   UNL     1      94.945  81.759  84.084  1.00  0.00     0.007 C 
ENDBRANCH  22  23
ENDBRANCH  21  22
ENDBRANCH  20  21
ENDBRANCH  19  20
ENDBRANCH  18  19
ENDBRANCH   1  18
TORSDOF 12
ENDMDL
MODEL 5
REMARK VINA RESULT:    -5.807      1.911      3.440
REMARK INTER + INTRA:         -10.611
REMARK INTER:                  -9.594
REMARK INTRA:                  -1.017
REMARK UNBOUND:                -0.900
REMARK SMILES COc1cc(CNC(=O)CCCCCCCC(C)C)ccc1O
REMARK SMILES IDX 11 1 10 2 8 3 9 4 7 5 6 7 5 8 4 9 20 10 3 11 21 12 22 13
REMARK SMILES IDX 2 14 1 15 23 16 12 18 13 19 14 20 15 21 16 22 17 23 18 24
REMARK SMILES IDX 19 25
REMARK H PARENT 7 6 23 17
REMARK Flexibility Score: inf
ROOT
ATOM      1  C   UNL     1      97.478  81.272  80.135  1.00  0.00     0.010 C 
ENDROOT
BRANCH   1   2
ATOM      2  C   UNL     1      96.609  82.404  80.680  1.00  0.00     0.100 C 
BRANCH   2   3
ATOM      3  C   UNL     1      96.627  82.467  82.198  1.00  0.00     0.220 C 
ATOM      4  O   UNL     1      97.001  83.453  82.827  1.00  0.00    -0.275 OA
ATOM      5  N   UNL     1      96.179  81.282  82.763  1.00  0.00    -0.352 N 
ATOM      6  H   UNL     1      95.899  80.513  82.160  1.00  0.00     0.163 HD
BRANCH   5   7
ATOM      7  C   UNL     1      96.103  81.075  84.191  1.00  0.00     0.151 C 
BRANCH   7   8
ATOM      8  C   UNL     1      94.835  81.628  84.772  1.00  0.00    -0.025 A 
ATOM      9  C   UNL     1      94.888  82.741  85.604  1.00  0.00     0.056 A 
ATOM     10  C   UNL     1      93.621  81.023  84.473  1.00  0.00     0.009 A 
ATOM     11  C   UNL     1      93.710  83.255  86.144  1.00  0.00     0.160 A 
ATOM     12  C   UNL     1      92.442  81.537  85.015  1.00  0.00     0.050 A 
ATOM     13  C   UNL     1      92.486  82.653  85.850  1.00  0.00     0.157 A 
BRANCH  11  14
ATOM     14  O   UNL     1      93.766  84.345  86.959  1.00  0.00    -0.493 OA
ATOM     15  C   UNL     1      94.929  85.165  86.865  1.00  0.00     0.278 C 
ENDBRANCH  11  14
BRANCH  13  16
ATOM     16  O   UNL     1      91.328  83.146  86.371  1.00  0.00    -0.504 OA
ATOM     17  H   UNL     1      90.675  82.427  86.428  1.00  0.00     0.293 HD
ENDBRANCH  13  16
ENDBRANCH   7   8
ENDBRANCH   5   7
ENDBRANCH   2   3
ENDBRANCH   1   2
BRANCH   1  18
ATOM     18  C   UNL     1      97.961  81.509  78.702  1.00  0.00     0.001 C 
BRANCH  18  19
ATOM     19  C   UNL     1      97.029  81.006  77.595  1.00  0.00     0.000 C 
BRANCH  19  20
ATOM     20  C   UNL     1      95.994  82.046  77.157  1.00  0.00     0.000 C 
BRANCH  20  21
ATOM     21  C   UNL     1      96.589  83.185  76.322  1.00  0.00     0.000 C 
BRANCH  21  22
ATOM     22  C   UNL     1      96.174  83.138  74.848  1.00  0.00     0.003 C 
BRANCH  22  23
ATOM     23  C   UNL     1      97.285  82.621  73.913  1.00  0.00    -0.017 C 
ATOM     24  C   UNL     1      96.934  81.214  73.421  1.00  0.00     0.007 C 
ATOM     25  C   UNL     1      98.657  82.601  74.588  1.00  0.00     0.007 C 
ENDBRANCH  22  23
ENDBRANCH  21  22
ENDBRANCH  20  21
ENDBRANCH  19  20
ENDBRANCH  18  19
ENDBRANCH   1  18
TORSDOF 12
ENDMDL
MODEL 6
REMARK VINA RESULT:    -5.804      2.988      6.041
REMARK INTER + INTRA:         -10.605
REMARK INTER:                  -9.641
REMARK INTRA:                  -0.964
REMARK UNBOUND:                -0.900
REMARK SMILES COc1cc(CNC(=O)CCCCCCCC(C)C)ccc1O
REMARK SMILES IDX 11 1 10 2 8 3 9 4 7 5 6 7 5 8 4 9 20 10 3 11 21 12 22 13
REMARK SMILES IDX 2 14 1 15 23 16 12 18 13 19 14 20 15 21 16 22 17 23 18 24
REMARK SMILES IDX 19 25
REMARK H PARENT 7 6 23 17
REMARK Flexibility Score: inf
ROOT
ATOM      1  C   UNL     1      97.334  82.088  83.095  1.00  0.00     0.010 C 
ENDROOT
BRANCH   1   2
ATOM      2  C   UNL     1      95.858  82.471  83.178  1.00  0.00     0.100 C 
BRANCH   2   3
ATOM      3  C   UNL     1      95.222  82.044  84.490  1.00  0.00     0.220 C 
ATOM      4  O   UNL     1      95.838  81.986  85.550  1.00  0.00    -0.275 OA
ATOM      5  N   UNL     1      93.881  81.729  84.327  1.00  0.00    -0.352 N 
ATOM      6  H   UNL     1      93.457  81.797  83.406  1.00  0.00     0.163 HD
BRANCH   5   7
ATOM      7  C   UNL     1      93.043  81.286  85.418  1.00  0.00     0.151 C 
BRANCH   7   8
ATOM      8  C   UNL     1      91.697  80.825  84.939  1.00  0.00    -0.025 A 
ATOM      9  C   UNL     1      91.512  79.494  84.585  1.00  0.00     0.056 A 
ATOM     10  C   UNL     1      90.649  81.734  84.855  1.00  0.00     0.009 A 
ATOM     11  C   UNL     1      90.261  79.065  84.140  1.00  0.00     0.160 A 
ATOM     12  C   UNL     1      89.398  81.305  84.409  1.00  0.00     0.050 A 
ATOM     13  C   UNL     1      89.204  79.972  84.051  1.00  0.00     0.157 A 
BRANCH  11  14
ATOM     14  O   UNL     1      90.084  77.760  83.793  1.00  0.00    -0.493 OA
ATOM     15  C   UNL     1      91.104  76.842  84.182  1.00  0.00     0.278 C 
ENDBRANCH  11  14
BRANCH  13  16
ATOM     16  O   UNL     1      87.978  79.565  83.619  1.00  0.00    -0.504 OA
ATOM     17  H   UNL     1      87.381  80.333  83.593  1.00  0.00     0.293 HD
ENDBRANCH  13  16
ENDBRANCH   7   8
ENDBRANCH   5   7
ENDBRANCH   2   3
ENDBRANCH   1   2
BRANCH   1  18
ATOM     18  C   UNL     1      97.563  80.606  82.785  1.00  0.00     0.001 C 
BRANCH  18  19
ATOM     19  C   UNL     1      96.667  80.009  81.694  1.00  0.00     0.000 C 
BRANCH  19  20
ATOM     20  C   UNL     1      97.413  79.719  80.389  1.00  0.00     0.000 C 
BRANCH  20  21
ATOM     21  C   UNL     1      98.140  80.942  79.818  1.00  0.00     0.000 C 
BRANCH  21  22
ATOM     22  C   UNL     1      97.189  82.034  79.318  1.00  0.00     0.003 C 
BRANCH  22  23
ATOM     23  C   UNL     1      97.231  82.233  77.791  1.00  0.00    -0.017 C 
ATOM     24  C   UNL     1      95.812  82.443  77.257  1.00  0.00     0.007 C 
ATOM     25  C   UNL     1      97.885  81.057  77.064  1.00  0.00     0.007 C 
ENDBRANCH  22  23
ENDBRANCH  21  22
ENDBRANCH  20  21
ENDBRANCH  19  20
ENDBRANCH  18  19
ENDBRANCH   1  18
TORSDOF 12
ENDMDL
MODEL 7
REMARK VINA RESULT:    -5.733     16.765     18.884
REMARK INTER + INTRA:         -10.487
REMARK INTER:                  -9.773
REMARK INTRA:                  -0.714
REMARK UNBOUND:                -0.900
REMARK SMILES COc1cc(CNC(=O)CCCCCCCC(C)C)ccc1O
REMARK SMILES IDX 11 1 10 2 8 3 9 4 7 5 6 7 5 8 4 9 20 10 3 11 21 12 22 13
REMARK SMILES IDX 2 14 1 15 23 16 12 18 13 19 14 20 15 21 16 22 17 23 18 24
REMARK SMILES IDX 19 25
REMARK H PARENT 7 6 23 17
REMARK Flexibility Score: inf
ROOT
ATOM      1  C   UNL     1      91.497  99.301  70.324  1.00  0.00     0.010 C 
ENDROOT
BRANCH   1   2
ATOM      2  C   UNL     1      92.027  99.528  71.738  1.00  0.00     0.100 C 
BRANCH   2   3
ATOM      3  C   UNL     1      93.514  99.237  71.853  1.00  0.00     0.220 C 
ATOM      4  O   UNL     1      94.320  99.485  70.960  1.00  0.00    -0.275 OA
ATOM      5  N   UNL     1      93.827  98.658  73.073  1.00  0.00    -0.352 N 
ATOM      6  H   UNL     1      93.089  98.480  73.748  1.00  0.00     0.163 HD
BRANCH   5   7
ATOM      7  C   UNL     1      95.172  98.274  73.436  1.00  0.00     0.151 C 
BRANCH   7   8
ATOM      8  C   UNL     1      95.187  97.261  74.543  1.00  0.00    -0.025 A 
ATOM      9  C   UNL     1      94.195  96.290  74.600  1.00  0.00     0.056 A 
ATOM     10  C   UNL     1      96.194  97.304  75.500  1.00  0.00     0.009 A 
ATOM     11  C   UNL     1      94.209  95.348  75.629  1.00  0.00     0.160 A 
ATOM     12  C   UNL     1      96.207  96.362  76.530  1.00  0.00     0.050 A 
ATOM     13  C   UNL     1      95.215  95.384  76.595  1.00  0.00     0.157 A 
BRANCH  11  14
ATOM     14  O   UNL     1      93.233  94.398  75.682  1.00  0.00    -0.493 OA
ATOM     15  C   UNL     1      91.909  94.844  75.972  1.00  0.00     0.278 C 
ENDBRANCH  11  14
BRANCH  13  16
ATOM     16  O   UNL     1      95.240  94.470  77.604  1.00  0.00    -0.504 OA
ATOM     17  H   UNL     1      95.207  94.938  78.456  1.00  0.00     0.293 HD
ENDBRANCH  13  16
ENDBRANCH   7   8
ENDBRANCH   5   7
ENDBRANCH   2   3
ENDBRANCH   1   2
BRANCH   1  18
ATOM     18  C   UNL     1      90.140  98.593  70.287  1.00  0.00     0.001 C 
BRANCH  18  19
ATOM     19  C   UNL     1      89.211  98.996  69.137  1.00  0.00     0.000 C 
BRANCH  19  20
ATOM     20  C   UNL     1      89.576  98.335  67.805  1.00  0.00     0.000 C 
BRANCH  20  21
ATOM     21  C   UNL     1      89.213  99.186  66.582  1.00  0.00     0.000 C 
BRANCH  21  22
ATOM     22  C   UNL     1      87.792  99.756  66.641  1.00  0.00     0.003 C 
BRANCH  22  23
ATOM     23  C   UNL     1      87.750 101.279  66.873  1.00  0.00    -0.017 C 
ATOM     24  C   UNL     1      86.576 101.887  66.101  1.00  0.00     0.007 C 
ATOM     25  C   UNL     1      89.050 101.970  66.460  1.00  0.00     0.007 C 
ENDBRANCH  22  23
ENDBRANCH  21  22
ENDBRANCH  20  21
ENDBRANCH  19  20
ENDBRANCH  18  19
ENDBRANCH   1  18
TORSDOF 12
ENDMDL
MODEL 8
REMARK VINA RESULT:    -5.643      4.092      9.631
REMARK INTER + INTRA:         -10.337
REMARK INTER:                  -8.764
REMARK INTRA:                  -1.572
REMARK UNBOUND:                -0.900
REMARK SMILES COc1cc(CNC(=O)CCCCCCCC(C)C)ccc1O
REMARK SMILES IDX 11 1 10 2 8 3 9 4 7 5 6 7 5 8 4 9 20 10 3 11 21 12 22 13
REMARK SMILES IDX 2 14 1 15 23 16 12 18 13 19 14 20 15 21 16 22 17 23 18 24
REMARK SMILES IDX 19 25
REMARK H PARENT 7 6 23 17
REMARK Flexibility Score: inf
ROOT
ATOM      1  C   UNL     1      97.011  81.910  77.504  1.00  0.00     0.010 C 
ENDROOT
BRANCH   1   2
ATOM      2  C   UNL     1      95.931  82.841  76.957  1.00  0.00     0.100 C 
BRANCH   2   3
ATOM      3  C   UNL     1      96.316  83.453  75.621  1.00  0.00     0.220 C 
ATOM      4  O   UNL     1      95.577  84.196  74.981  1.00  0.00    -0.275 OA
ATOM      5  N   UNL     1      97.587  83.058  75.227  1.00  0.00    -0.352 N 
ATOM      6  H   UNL     1      98.123  82.429  75.819  1.00  0.00     0.163 HD
BRANCH   5   7
ATOM      7  C   UNL     1      98.193  83.491  73.989  1.00  0.00     0.151 C 
BRANCH   7   8
ATOM      8  C   UNL     1      99.567  82.915  73.806  1.00  0.00    -0.025 A 
ATOM      9  C   UNL     1     100.364  83.359  72.758  1.00  0.00     0.056 A 
ATOM     10  C   UNL     1     100.027  81.943  74.686  1.00  0.00     0.009 A 
ATOM     11  C   UNL     1     101.641  82.823  72.588  1.00  0.00     0.160 A 
ATOM     12  C   UNL     1     101.304  81.407  74.515  1.00  0.00     0.050 A 
ATOM     13  C   UNL     1     102.111  81.846  73.466  1.00  0.00     0.157 A 
BRANCH  11  14
ATOM     14  O   UNL     1     102.420  83.261  71.559  1.00  0.00    -0.493 OA
ATOM     15  C   UNL     1     102.731  84.653  71.528  1.00  0.00     0.278 C 
ENDBRANCH  11  14
BRANCH  13  16
ATOM     16  O   UNL     1     103.356  81.316  73.310  1.00  0.00    -0.504 OA
ATOM     17  H   UNL     1     103.512  81.146  72.365  1.00  0.00     0.293 HD
ENDBRANCH  13  16
ENDBRANCH   7   8
ENDBRANCH   5   7
ENDBRANCH   2   3
ENDBRANCH   1   2
BRANCH   1  18
ATOM     18  C   UNL     1      96.745  80.430  77.214  1.00  0.00     0.001 C 
BRANCH  18  19
ATOM     19  C   UNL     1      97.976  79.518  77.235  1.00  0.00     0.000 C 
BRANCH  19  20
ATOM     20  C   UNL     1      99.072  80.002  78.188  1.00  0.00     0.000 C 
BRANCH  20  21
ATOM     21  C   UNL     1      98.927  79.454  79.612  1.00  0.00     0.000 C 
BRANCH  21  22
ATOM     22  C   UNL     1      98.583  80.533  80.645  1.00  0.00     0.003 C 
BRANCH  22  23
ATOM     23  C   UNL     1      97.073  80.651  80.930  1.00  0.00    -0.017 C 
ATOM     24  C   UNL     1      96.727  82.097  81.292  1.00  0.00     0.007 C 
ATOM     25  C   UNL     1      96.613  79.717  82.050  1.00  0.00     0.007 C 
ENDBRANCH  22  23
ENDBRANCH  21  22
ENDBRANCH  20  21
ENDBRANCH  19  20
ENDBRANCH  18  19
ENDBRANCH   1  18
TORSDOF 12
ENDMDL
MODEL 9
REMARK VINA RESULT:    -5.624     17.967     20.375
REMARK INTER + INTRA:         -10.305
REMARK INTER:                  -9.386
REMARK INTRA:                  -0.919
REMARK UNBOUND:                -0.900
REMARK SMILES COc1cc(CNC(=O)CCCCCCCC(C)C)ccc1O
REMARK SMILES IDX 11 1 10 2 8 3 9 4 7 5 6 7 5 8 4 9 20 10 3 11 21 12 22 13
REMARK SMILES IDX 2 14 1 15 23 16 12 18 13 19 14 20 15 21 16 22 17 23 18 24
REMARK SMILES IDX 19 25
REMARK H PARENT 7 6 23 17
REMARK Flexibility Score: inf
ROOT
ATOM      1  C   UNL     1      89.860 100.290  70.029  1.00  0.00     0.010 C 
ENDROOT
BRANCH   1   2
ATOM      2  C   UNL     1      90.390 101.134  71.186  1.00  0.00     0.100 C 
BRANCH   2   3
ATOM      3  C   UNL     1      91.909 101.175  71.224  1.00  0.00     0.220 C 
ATOM      4  O   UNL     1      92.604 101.327  70.224  1.00  0.00    -0.275 OA
ATOM      5  N   UNL     1      92.391 101.012  72.514  1.00  0.00    -0.352 N 
ATOM      6  H   UNL     1      91.738 100.881  73.282  1.00  0.00     0.163 HD
BRANCH   5   7
ATOM      7  C   UNL     1      93.802 101.003  72.828  1.00  0.00     0.151 C 
BRANCH   7   8
ATOM      8  C   UNL     1      94.323  99.610  73.028  1.00  0.00    -0.025 A 
ATOM      9  C   UNL     1      93.551  98.677  73.711  1.00  0.00     0.056 A 
ATOM     10  C   UNL     1      95.574  99.266  72.529  1.00  0.00     0.009 A 
ATOM     11  C   UNL     1      94.036  97.383  73.896  1.00  0.00     0.160 A 
ATOM     12  C   UNL     1      96.059  97.971  72.715  1.00  0.00     0.050 A 
ATOM     13  C   UNL     1      95.291  97.029  73.399  1.00  0.00     0.157 A 
BRANCH  11  14
ATOM     14  O   UNL     1      93.276  96.472  74.567  1.00  0.00    -0.493 OA
ATOM     15  C   UNL     1      93.732  96.074  75.859  1.00  0.00     0.278 C 
ENDBRANCH  11  14
BRANCH  13  16
ATOM     16  O   UNL     1      95.775  95.769  73.573  1.00  0.00    -0.504 OA
ATOM     17  H   UNL     1      95.028  95.152  73.659  1.00  0.00     0.293 HD
ENDBRANCH  13  16
ENDBRANCH   7   8
ENDBRANCH   5   7
ENDBRANCH   2   3
ENDBRANCH   1   2
BRANCH   1  18
ATOM     18  C   UNL     1      89.780  98.795  70.351  1.00  0.00     0.001 C 
BRANCH  18  19
ATOM     19  C   UNL     1      89.503  97.873  69.158  1.00  0.00     0.000 C 
BRANCH  19  20
ATOM     20  C   UNL     1      90.108  98.382  67.847  1.00  0.00     0.000 C 
BRANCH  20  21
ATOM     21  C   UNL     1      89.060  98.709  66.778  1.00  0.00     0.000 C 
BRANCH  21  22
ATOM     22  C   UNL     1      89.015 100.195  66.407  1.00  0.00     0.003 C 
BRANCH  22  23
ATOM     23  C   UNL     1      87.729 100.906  66.872  1.00  0.00    -0.017 C 
ATOM     24  C   UNL     1      86.504 100.165  66.330  1.00  0.00     0.007 C 
ATOM     25  C   UNL     1      87.678 102.371  66.435  1.00  0.00     0.007 C 
ENDBRANCH  22  23
ENDBRANCH  21  22
ENDBRANCH  20  21
ENDBRANCH  19  20
ENDBRANCH  18  19
ENDBRANCH   1  18
TORSDOF 12
ENDMDL
MODEL 10
REMARK VINA RESULT:    -5.514     31.939     34.253
REMARK INTER + INTRA:         -10.121
REMARK INTER:                  -8.128
REMARK INTRA:                  -1.993
REMARK UNBOUND:                -0.900
REMARK SMILES COc1cc(CNC(=O)CCCCCCCC(C)C)ccc1O
REMARK SMILES IDX 11 1 10 2 8 3 9 4 7 5 6 7 5 8 4 9 20 10 3 11 21 12 22 13
REMARK SMILES IDX 2 14 1 15 23 16 12 18 13 19 14 20 15 21 16 22 17 23 18 24
REMARK SMILES IDX 19 25
REMARK H PARENT 7 6 23 17
REMARK Flexibility Score: inf
ROOT
ATOM      1  C   UNL     1      62.302  83.541  73.984  1.00  0.00     0.010 C 
ENDROOT
BRANCH   1   2
ATOM      2  C   UNL     1      61.261  83.833  72.905  1.00  0.00     0.100 C 
BRANCH   2   3
ATOM      3  C   UNL     1      61.791  84.764  71.827  1.00  0.00     0.220 C 
ATOM      4  O   UNL     1      61.092  85.219  70.926  1.00  0.00    -0.275 OA
ATOM      5  N   UNL     1      63.145  85.015  71.991  1.00  0.00    -0.352 N 
ATOM      6  H   UNL     1      63.646  84.583  72.763  1.00  0.00     0.163 HD
BRANCH   5   7
ATOM      7  C   UNL     1      63.899  85.863  71.096  1.00  0.00     0.151 C 
BRANCH   7   8
ATOM      8  C   UNL     1      65.344  85.462  71.027  1.00  0.00    -0.025 A 
ATOM      9  C   UNL     1      65.853  84.927  69.850  1.00  0.00     0.056 A 
ATOM     10  C   UNL     1      66.157  85.631  72.141  1.00  0.00     0.009 A 
ATOM     11  C   UNL     1      67.196  84.555  69.786  1.00  0.00     0.160 A 
ATOM     12  C   UNL     1      67.500  85.258  72.077  1.00  0.00     0.050 A 
ATOM     13  C   UNL     1      68.020  84.720  70.900  1.00  0.00     0.157 A 
BRANCH  11  14
ATOM     14  O   UNL     1      67.692  84.029  68.631  1.00  0.00    -0.493 OA
ATOM     15  C   UNL     1      67.581  84.830  67.455  1.00  0.00     0.278 C 
ENDBRANCH  11  14
BRANCH  13  16
ATOM     16  O   UNL     1      69.333  84.361  70.850  1.00  0.00    -0.504 OA
ATOM     17  H   UNL     1      69.847  85.095  70.472  1.00  0.00     0.293 HD
ENDBRANCH  13  16
ENDBRANCH   7   8
ENDBRANCH   5   7
ENDBRANCH   2   3
ENDBRANCH   1   2
BRANCH   1  18
ATOM     18  C   UNL     1      62.731  82.073  74.037  1.00  0.00     0.001 C 
BRANCH  18  19
ATOM     19  C   UNL     1      62.699  81.323  72.701  1.00  0.00     0.000 C 
BRANCH  19  20
ATOM     20  C   UNL     1      64.042  81.339  71.965  1.00  0.00     0.000 C 
BRANCH  20  21
ATOM     21  C   UNL     1      63.935  81.812  70.511  1.00  0.00     0.000 C 
BRANCH  21  22
ATOM     22  C   UNL     1      62.497  81.821  69.981  1.00  0.00     0.003 C 
BRANCH  22  23
ATOM     23  C   UNL     1      62.408  81.987  68.451  1.00  0.00    -0.017 C 
ATOM     24  C   UNL     1      63.384  81.025  67.769  1.00  0.00     0.007 C 
ATOM     25  C   UNL     1      62.698  83.419  67.999  1.00  0.00     0.007 C 
ENDBRANCH  22  23
ENDBRANCH  21  22
ENDBRANCH  20  21
ENDBRANCH  19  20
ENDBRANCH  18  19
ENDBRANCH   1  18
TORSDOF 12
ENDMDL
