MODEL 1
REMARK VINA RESULT:    -6.427      0.000      0.000
REMARK INTER + INTRA:         -10.617
REMARK INTER:                  -9.997
REMARK INTRA:                  -0.621
REMARK UNBOUND:                -0.621
REMARK SMILES COc1cc(CNC(=O)CCCC/C=C/C(C)C)ccc1O
REMARK SMILES IDX 10 1 8 2 7 3 9 5 6 6 5 7 3 8 21 9 4 10 20 11 19 12 2 13 1 14
REMARK SMILES IDX 22 15 11 17 12 18 13 19 14 20 15 21 16 22 17 23 18 24
REMARK H PARENT 7 4 22 16
REMARK Flexibility Score: inf
ROOT
ATOM      1  C   UNL     1      92.409  99.767  74.056  1.00  0.00     0.100 C 
ENDROOT
BRANCH   1   2
ATOM      2  C   UNL     1      93.284  99.165  75.079  1.00  0.00     0.220 C 
ATOM      3  N   UNL     1      93.391  97.811  75.189  1.00  0.00    -0.352 N 
ATOM      4  H   UNL     1      92.817  97.285  74.544  1.00  0.00     0.163 HD
ATOM      5  O   UNL     1      93.941  99.933  75.824  1.00  0.00    -0.275 OA
BRANCH   3   6
ATOM      6  C   UNL     1      94.232  97.132  76.121  1.00  0.00     0.151 C 
BRANCH   6   7
ATOM      7  C   UNL     1      93.461  96.167  76.952  1.00  0.00    -0.025 A 
ATOM      8  C   UNL     1      93.393  94.477  78.741  1.00  0.00     0.160 A 
ATOM      9  C   UNL     1      92.002  94.337  78.556  1.00  0.00     0.157 A 
ATOM     10  C   UNL     1      94.109  95.388  77.937  1.00  0.00     0.056 A 
ATOM     11  C   UNL     1      91.345  95.092  77.565  1.00  0.00     0.050 A 
ATOM     12  C   UNL     1      92.066  96.008  76.774  1.00  0.00     0.009 A 
BRANCH   8  13
ATOM     13  O   UNL     1      94.047  93.697  79.660  1.00  0.00    -0.493 OA
ATOM     14  C   UNL     1      95.475  93.878  79.674  1.00  0.00     0.278 C 
ENDBRANCH   8  13
BRANCH   9  15
ATOM     15  O   UNL     1      91.281  93.478  79.323  1.00  0.00    -0.504 OA
ATOM     16  H   UNL     1      91.864  92.811  79.692  1.00  0.00     0.293 HD
ENDBRANCH   9  15
ENDBRANCH   6   7
ENDBRANCH   3   6
ENDBRANCH   1   2
BRANCH   1  17
ATOM     17  C   UNL     1      93.223 100.294  72.844  1.00  0.00     0.010 C 
BRANCH  17  18
ATOM     18  C   UNL     1      92.456 100.163  71.497  1.00  0.00     0.005 C 
BRANCH  18  19
ATOM     19  C   UNL     1      91.008  99.637  71.690  1.00  0.00     0.027 C 
BRANCH  19  20
ATOM     20  C   UNL     1      90.358  99.347  70.422  1.00  0.00    -0.031 C 
ATOM     21  C   UNL     1      89.029  99.199  70.270  1.00  0.00    -0.028 C 
BRANCH  21  22
ATOM     22  C   UNL     1      88.394  98.927  68.981  1.00  0.00     0.005 C 
ATOM     23  C   UNL     1      88.734 100.008  67.917  1.00  0.00     0.012 C 
ATOM     24  C   UNL     1      88.787  97.514  68.477  1.00  0.00     0.012 C 
ENDBRANCH  21  22
ENDBRANCH  19  20
ENDBRANCH  18  19
ENDBRANCH  17  18
ENDBRANCH   1  17
TORSDOF 10
ENDMDL
MODEL 2
REMARK VINA RESULT:    -5.908     28.733     31.046
REMARK INTER + INTRA:          -9.809
REMARK INTER:                  -9.246
REMARK INTRA:                  -0.563
REMARK UNBOUND:                -0.621
REMARK SMILES COc1cc(CNC(=O)CCCC/C=C/C(C)C)ccc1O
REMARK SMILES IDX 10 1 8 2 7 3 9 5 6 6 5 7 3 8 21 9 4 10 20 11 19 12 2 13 1 14
REMARK SMILES IDX 22 15 11 17 12 18 13 19 14 20 15 21 16 22 17 23 18 24
REMARK H PARENT 7 4 22 16
REMARK Flexibility Score: inf
ROOT
ATOM      1  C   UNL     1      63.684  81.184  73.329  1.00  0.00     0.100 C 
ENDROOT
BRANCH   1   2
ATOM      2  C   UNL     1      62.818  81.973  74.226  1.00  0.00     0.220 C 
ATOM      3  N   UNL     1      63.363  82.793  75.168  1.00  0.00    -0.352 N 
ATOM      4  H   UNL     1      64.373  82.787  75.206  1.00  0.00     0.163 HD
ATOM      5  O   UNL     1      61.575  81.884  74.079  1.00  0.00    -0.275 OA
BRANCH   3   6
ATOM      6  C   UNL     1      62.615  83.620  76.061  1.00  0.00     0.151 C 
BRANCH   6   7
ATOM      7  C   UNL     1      63.374  83.903  77.309  1.00  0.00    -0.025 A 
ATOM      8  C   UNL     1      63.396  84.485  79.701  1.00  0.00     0.160 A 
ATOM      9  C   UNL     1      64.805  84.425  79.704  1.00  0.00     0.157 A 
ATOM     10  C   UNL     1      62.695  84.226  78.505  1.00  0.00     0.056 A 
ATOM     11  C   UNL     1      65.497  84.123  78.515  1.00  0.00     0.050 A 
ATOM     12  C   UNL     1      64.788  83.854  77.328  1.00  0.00     0.009 A 
BRANCH   8  13
ATOM     13  O   UNL     1      62.721  84.844  80.841  1.00  0.00    -0.493 OA
ATOM     14  C   UNL     1      62.110  86.146  80.776  1.00  0.00     0.278 C 
ENDBRANCH   8  13
BRANCH   9  15
ATOM     15  O   UNL     1      65.509  84.656  80.842  1.00  0.00    -0.504 OA
ATOM     16  H   UNL     1      65.988  83.862  81.090  1.00  0.00     0.293 HD
ENDBRANCH   9  15
ENDBRANCH   6   7
ENDBRANCH   3   6
ENDBRANCH   1   2
BRANCH   1  17
ATOM     17  C   UNL     1      63.800  81.836  71.926  1.00  0.00     0.010 C 
BRANCH  17  18
ATOM     18  C   UNL     1      65.114  81.453  71.188  1.00  0.00     0.005 C 
BRANCH  18  19
ATOM     19  C   UNL     1      65.762  82.666  70.467  1.00  0.00     0.027 C 
BRANCH  19  20
ATOM     20  C   UNL     1      66.878  83.217  71.221  1.00  0.00    -0.031 C 
ATOM     21  C   UNL     1      67.886  83.921  70.674  1.00  0.00    -0.028 C 
BRANCH  21  22
ATOM     22  C   UNL     1      68.988  84.483  71.454  1.00  0.00     0.005 C 
ATOM     23  C   UNL     1      70.372  83.963  70.978  1.00  0.00     0.012 C 
ATOM     24  C   UNL     1      68.936  86.033  71.416  1.00  0.00     0.012 C 
ENDBRANCH  21  22
ENDBRANCH  19  20
ENDBRANCH  18  19
ENDBRANCH  17  18
ENDBRANCH   1  17
TORSDOF 10
ENDMDL
MODEL 3
REMARK VINA RESULT:    -5.858      5.981      7.540
REMARK INTER + INTRA:          -9.733
REMARK INTER:                  -8.404
REMARK INTRA:                  -1.328
REMARK UNBOUND:                -0.621
REMARK SMILES COc1cc(CNC(=O)CCCC/C=C/C(C)C)ccc1O
REMARK SMILES IDX 10 1 8 2 7 3 9 5 6 6 5 7 3 8 21 9 4 10 20 11 19 12 2 13 1 14
REMARK SMILES IDX 22 15 11 17 12 18 13 19 14 20 15 21 16 22 17 23 18 24
REMARK H PARENT 7 4 22 16
REMARK Flexibility Score: inf
ROOT
ATOM      1  C   UNL     1      89.456  98.987  71.202  1.00  0.00     0.100 C 
ENDROOT
BRANCH   1   2
ATOM      2  C   UNL     1      90.416 100.104  71.294  1.00  0.00     0.220 C 
ATOM      3  N   UNL     1      91.733  99.864  71.547  1.00  0.00    -0.352 N 
ATOM      4  H   UNL     1      91.971  98.892  71.684  1.00  0.00     0.163 HD
ATOM      5  O   UNL     1      89.988 101.269  71.110  1.00  0.00    -0.275 OA
BRANCH   3   6
ATOM      6  C   UNL     1      92.745 100.869  71.624  1.00  0.00     0.151 C 
BRANCH   6   7
ATOM      7  C   UNL     1      93.875 100.578  70.700  1.00  0.00    -0.025 A 
ATOM      8  C   UNL     1      95.729  99.118  69.999  1.00  0.00     0.160 A 
ATOM      9  C   UNL     1      96.022  99.998  68.936  1.00  0.00     0.157 A 
ATOM     10  C   UNL     1      94.662  99.417  70.871  1.00  0.00     0.056 A 
ATOM     11  C   UNL     1      95.258 101.170  68.765  1.00  0.00     0.050 A 
ATOM     12  C   UNL     1      94.186 101.454  69.634  1.00  0.00     0.009 A 
BRANCH   8  13
ATOM     13  O   UNL     1      96.511  98.011  70.210  1.00  0.00    -0.493 OA
ATOM     14  C   UNL     1      96.478  97.517  71.562  1.00  0.00     0.278 C 
ENDBRANCH   8  13
BRANCH   9  15
ATOM     15  O   UNL     1      97.034  99.733  68.071  1.00  0.00    -0.504 OA
ATOM     16  H   UNL     1      97.735 100.379  68.190  1.00  0.00     0.293 HD
ENDBRANCH   9  15
ENDBRANCH   6   7
ENDBRANCH   3   6
ENDBRANCH   1   2
BRANCH   1  17
ATOM     17  C   UNL     1      89.928  97.908  70.192  1.00  0.00     0.010 C 
BRANCH  17  18
ATOM     18  C   UNL     1      88.786  97.406  69.265  1.00  0.00     0.005 C 
BRANCH  18  19
ATOM     19  C   UNL     1      88.925  97.940  67.813  1.00  0.00     0.027 C 
BRANCH  19  20
ATOM     20  C   UNL     1      88.861  99.392  67.756  1.00  0.00    -0.031 C 
ATOM     21  C   UNL     1      89.884 100.180  67.377  1.00  0.00    -0.028 C 
BRANCH  21  22
ATOM     22  C   UNL     1      89.792 101.638  67.308  1.00  0.00     0.005 C 
ATOM     23  C   UNL     1      88.522 102.182  68.020  1.00  0.00     0.012 C 
ATOM     24  C   UNL     1      91.074 102.285  67.893  1.00  0.00     0.012 C 
ENDBRANCH  21  22
ENDBRANCH  19  20
ENDBRANCH  18  19
ENDBRANCH  17  18
ENDBRANCH   1  17
TORSDOF 10
ENDMDL
MODEL 4
REMARK VINA RESULT:    -5.815      4.130      5.981
REMARK INTER + INTRA:          -9.665
REMARK INTER:                  -8.748
REMARK INTRA:                  -0.917
REMARK UNBOUND:                -0.621
REMARK SMILES COc1cc(CNC(=O)CCCC/C=C/C(C)C)ccc1O
REMARK SMILES IDX 10 1 8 2 7 3 9 5 6 6 5 7 3 8 21 9 4 10 20 11 19 12 2 13 1 14
REMARK SMILES IDX 22 15 11 17 12 18 13 19 14 20 15 21 16 22 17 23 18 24
REMARK H PARENT 7 4 22 16
REMARK Flexibility Score: inf
ROOT
ATOM      1  C   UNL     1      88.857  98.561  70.986  1.00  0.00     0.100 C 
ENDROOT
BRANCH   1   2
ATOM      2  C   UNL     1      89.793  99.660  71.288  1.00  0.00     0.220 C 
ATOM      3  N   UNL     1      91.139  99.465  71.207  1.00  0.00    -0.352 N 
ATOM      4  H   UNL     1      91.419  98.527  70.955  1.00  0.00     0.163 HD
ATOM      5  O   UNL     1      89.314 100.779  71.596  1.00  0.00    -0.275 OA
BRANCH   3   6
ATOM      6  C   UNL     1      92.125 100.469  71.447  1.00  0.00     0.151 C 
BRANCH   6   7
ATOM      7  C   UNL     1      93.039 100.084  72.557  1.00  0.00    -0.025 A 
ATOM      8  C   UNL     1      95.316  99.645  73.386  1.00  0.00     0.160 A 
ATOM      9  C   UNL     1      94.797  99.370  74.668  1.00  0.00     0.157 A 
ATOM     10  C   UNL     1      94.433  99.997  72.343  1.00  0.00     0.056 A 
ATOM     11  C   UNL     1      93.408  99.434  74.892  1.00  0.00     0.050 A 
ATOM     12  C   UNL     1      92.535  99.797  73.848  1.00  0.00     0.009 A 
BRANCH   8  13
ATOM     13  O   UNL     1      96.661  99.520  73.146  1.00  0.00    -0.493 OA
ATOM     14  C   UNL     1      97.226 100.609  72.393  1.00  0.00     0.278 C 
ENDBRANCH   8  13
BRANCH   9  15
ATOM     15  O   UNL     1      95.621  99.041  75.696  1.00  0.00    -0.504 OA
ATOM     16  H   UNL     1      96.080  99.826  76.003  1.00  0.00     0.293 HD
ENDBRANCH   9  15
ENDBRANCH   6   7
ENDBRANCH   3   6
ENDBRANCH   1   2
BRANCH   1  17
ATOM     17  C   UNL     1      89.548  97.424  70.186  1.00  0.00     0.010 C 
BRANCH  17  18
ATOM     18  C   UNL     1      89.387  97.583  68.648  1.00  0.00     0.005 C 
BRANCH  18  19
ATOM     19  C   UNL     1      88.076  98.319  68.264  1.00  0.00     0.027 C 
BRANCH  19  20
ATOM     20  C   UNL     1      88.311  99.712  67.916  1.00  0.00    -0.031 C 
ATOM     21  C   UNL     1      89.519 100.222  67.615  1.00  0.00    -0.028 C 
BRANCH  21  22
ATOM     22  C   UNL     1      89.730 101.623  67.249  1.00  0.00     0.005 C 
ATOM     23  C   UNL     1      88.866 102.591  68.103  1.00  0.00     0.012 C 
ATOM     24  C   UNL     1      91.235 101.984  67.356  1.00  0.00     0.012 C 
ENDBRANCH  21  22
ENDBRANCH  19  20
ENDBRANCH  18  19
ENDBRANCH  17  18
ENDBRANCH   1  17
TORSDOF 10
ENDMDL
MODEL 5
REMARK VINA RESULT:    -5.749     22.764     25.699
REMARK INTER + INTRA:          -9.563
REMARK INTER:                  -8.915
REMARK INTRA:                  -0.647
REMARK UNBOUND:                -0.621
REMARK SMILES COc1cc(CNC(=O)CCCC/C=C/C(C)C)ccc1O
REMARK SMILES IDX 10 1 8 2 7 3 9 5 6 6 5 7 3 8 21 9 4 10 20 11 19 12 2 13 1 14
REMARK SMILES IDX 22 15 11 17 12 18 13 19 14 20 15 21 16 22 17 23 18 24
REMARK H PARENT 7 4 22 16
REMARK Flexibility Score: inf
ROOT
ATOM      1  C   UNL     1      70.345  85.297  70.784  1.00  0.00     0.100 C 
ENDROOT
BRANCH   1   2
ATOM      2  C   UNL     1      71.172  84.949  69.613  1.00  0.00     0.220 C 
ATOM      3  N   UNL     1      72.238  85.723  69.264  1.00  0.00    -0.352 N 
ATOM      4  H   UNL     1      72.383  86.536  69.846  1.00  0.00     0.163 HD
ATOM      5  O   UNL     1      70.880  83.912  68.968  1.00  0.00    -0.275 OA
BRANCH   3   6
ATOM      6  C   UNL     1      73.117  85.456  68.171  1.00  0.00     0.151 C 
BRANCH   6   7
ATOM      7  C   UNL     1      74.543  85.493  68.596  1.00  0.00    -0.025 A 
ATOM      8  C   UNL     1      76.937  85.384  68.029  1.00  0.00     0.160 A 
ATOM      9  C   UNL     1      77.268  85.580  69.386  1.00  0.00     0.157 A 
ATOM     10  C   UNL     1      75.580  85.340  67.647  1.00  0.00     0.056 A 
ATOM     11  C   UNL     1      76.246  85.714  70.345  1.00  0.00     0.050 A 
ATOM     12  C   UNL     1      74.893  85.680  69.953  1.00  0.00     0.009 A 
BRANCH   8  13
ATOM     13  O   UNL     1      77.928  85.187  67.100  1.00  0.00    -0.493 OA
ATOM     14  C   UNL     1      78.266  83.805  66.887  1.00  0.00     0.278 C 
ENDBRANCH   8  13
BRANCH   9  15
ATOM     15  O   UNL     1      78.565  85.641  69.784  1.00  0.00    -0.504 OA
ATOM     16  H   UNL     1      79.108  85.121  69.188  1.00  0.00     0.293 HD
ENDBRANCH   9  15
ENDBRANCH   6   7
ENDBRANCH   3   6
ENDBRANCH   1   2
BRANCH   1  17
ATOM     17  C   UNL     1      69.839  84.030  71.525  1.00  0.00     0.010 C 
BRANCH  17  18
ATOM     18  C   UNL     1      68.293  83.999  71.684  1.00  0.00     0.005 C 
BRANCH  18  19
ATOM     19  C   UNL     1      67.565  83.773  70.331  1.00  0.00     0.027 C 
BRANCH  19  20
ATOM     20  C   UNL     1      66.557  82.727  70.420  1.00  0.00    -0.031 C 
ATOM     21  C   UNL     1      65.516  82.750  71.272  1.00  0.00    -0.028 C 
BRANCH  21  22
ATOM     22  C   UNL     1      64.504  81.696  71.331  1.00  0.00     0.005 C 
ATOM     23  C   UNL     1      64.023  81.421  72.782  1.00  0.00     0.012 C 
ATOM     24  C   UNL     1      63.308  82.050  70.410  1.00  0.00     0.012 C 
ENDBRANCH  21  22
ENDBRANCH  19  20
ENDBRANCH  18  19
ENDBRANCH  17  18
ENDBRANCH   1  17
TORSDOF 10
ENDMDL
MODEL 6
REMARK VINA RESULT:    -5.719     29.706     32.810
REMARK INTER + INTRA:          -9.516
REMARK INTER:                  -7.494
REMARK INTRA:                  -2.022
REMARK UNBOUND:                -0.621
REMARK SMILES COc1cc(CNC(=O)CCCC/C=C/C(C)C)ccc1O
REMARK SMILES IDX 10 1 8 2 7 3 9 5 6 6 5 7 3 8 21 9 4 10 20 11 19 12 2 13 1 14
REMARK SMILES IDX 22 15 11 17 12 18 13 19 14 20 15 21 16 22 17 23 18 24
REMARK H PARENT 7 4 22 16
REMARK Flexibility Score: inf
ROOT
ATOM      1  C   UNL     1      61.575  84.640  74.040  1.00  0.00     0.100 C 
ENDROOT
BRANCH   1   2
ATOM      2  C   UNL     1      61.011  84.468  72.687  1.00  0.00     0.220 C 
ATOM      3  N   UNL     1      61.727  84.834  71.587  1.00  0.00    -0.352 N 
ATOM      4  H   UNL     1      62.632  85.241  71.783  1.00  0.00     0.163 HD
ATOM      5  O   UNL     1      59.871  83.954  72.582  1.00  0.00    -0.275 OA
BRANCH   3   6
ATOM      6  C   UNL     1      61.286  84.680  70.238  1.00  0.00     0.151 C 
BRANCH   6   7
ATOM      7  C   UNL     1      62.407  84.297  69.337  1.00  0.00    -0.025 A 
ATOM      8  C   UNL     1      64.495  84.881  68.170  1.00  0.00     0.160 A 
ATOM      9  C   UNL     1      64.563  83.577  67.637  1.00  0.00     0.157 A 
ATOM     10  C   UNL     1      63.419  85.229  69.012  1.00  0.00     0.056 A 
ATOM     11  C   UNL     1      63.551  82.643  67.936  1.00  0.00     0.050 A 
ATOM     12  C   UNL     1      62.487  82.996  68.787  1.00  0.00     0.009 A 
BRANCH   8  13
ATOM     13  O   UNL     1      65.442  85.813  67.829  1.00  0.00    -0.493 OA
ATOM     14  C   UNL     1      66.156  86.362  68.952  1.00  0.00     0.278 C 
ENDBRANCH   8  13
BRANCH   9  15
ATOM     15  O   UNL     1      65.593  83.206  66.833  1.00  0.00    -0.504 OA
ATOM     16  H   UNL     1      65.597  83.752  66.044  1.00  0.00     0.293 HD
ENDBRANCH   9  15
ENDBRANCH   6   7
ENDBRANCH   3   6
ENDBRANCH   1   2
BRANCH   1  17
ATOM     17  C   UNL     1      61.510  83.324  74.859  1.00  0.00     0.010 C 
BRANCH  17  18
ATOM     18  C   UNL     1      62.832  82.508  74.799  1.00  0.00     0.005 C 
BRANCH  18  19
ATOM     19  C   UNL     1      62.758  81.338  73.780  1.00  0.00     0.027 C 
BRANCH  19  20
ATOM     20  C   UNL     1      63.733  81.482  72.710  1.00  0.00    -0.031 C 
ATOM     21  C   UNL     1      64.218  82.662  72.283  1.00  0.00    -0.028 C 
BRANCH  21  22
ATOM     22  C   UNL     1      65.213  82.782  71.217  1.00  0.00     0.005 C 
ATOM     23  C   UNL     1      66.377  83.736  71.603  1.00  0.00     0.012 C 
ATOM     24  C   UNL     1      65.753  81.381  70.828  1.00  0.00     0.012 C 
ENDBRANCH  21  22
ENDBRANCH  19  20
ENDBRANCH  18  19
ENDBRANCH  17  18
ENDBRANCH   1  17
TORSDOF 10
ENDMDL
MODEL 7
REMARK VINA RESULT:    -5.697     15.384     18.232
REMARK INTER + INTRA:          -9.482
REMARK INTER:                  -8.790
REMARK INTRA:                  -0.692
REMARK UNBOUND:                -0.621
REMARK SMILES COc1cc(CNC(=O)CCCC/C=C/C(C)C)ccc1O
REMARK SMILES IDX 10 1 8 2 7 3 9 5 6 6 5 7 3 8 21 9 4 10 20 11 19 12 2 13 1 14
REMARK SMILES IDX 22 15 11 17 12 18 13 19 14 20 15 21 16 22 17 23 18 24
REMARK H PARENT 7 4 22 16
REMARK Flexibility Score: inf
ROOT
ATOM      1  C   UNL     1      97.761  82.824  79.528  1.00  0.00     0.100 C 
ENDROOT
BRANCH   1   2
ATOM      2  C   UNL     1      97.938  83.600  78.286  1.00  0.00     0.220 C 
ATOM      3  N   UNL     1      98.773  83.155  77.305  1.00  0.00    -0.352 N 
ATOM      4  H   UNL     1      99.255  82.292  77.515  1.00  0.00     0.163 HD
ATOM      5  O   UNL     1      97.284  84.662  78.152  1.00  0.00    -0.275 OA
BRANCH   3   6
ATOM      6  C   UNL     1      98.990  83.814  76.057  1.00  0.00     0.151 C 
BRANCH   6   7
ATOM      7  C   UNL     1     100.441  83.980  75.771  1.00  0.00    -0.025 A 
ATOM      8  C   UNL     1     102.253  85.108  74.545  1.00  0.00     0.160 A 
ATOM      9  C   UNL     1     103.205  84.323  75.228  1.00  0.00     0.157 A 
ATOM     10  C   UNL     1     100.882  84.928  74.820  1.00  0.00     0.056 A 
ATOM     11  C   UNL     1     102.780  83.360  76.164  1.00  0.00     0.050 A 
ATOM     12  C   UNL     1     101.409  83.196  76.442  1.00  0.00     0.009 A 
BRANCH   8  13
ATOM     13  O   UNL     1     102.659  86.000  73.585  1.00  0.00    -0.493 OA
ATOM     14  C   UNL     1     102.001  85.835  72.315  1.00  0.00     0.278 C 
ENDBRANCH   8  13
BRANCH   9  15
ATOM     15  O   UNL     1     104.534  84.481  74.995  1.00  0.00    -0.504 OA
ATOM     16  H   UNL     1     104.996  84.582  75.831  1.00  0.00     0.293 HD
ENDBRANCH   9  15
ENDBRANCH   6   7
ENDBRANCH   3   6
ENDBRANCH   1   2
BRANCH   1  17
ATOM     17  C   UNL     1      98.790  83.237  80.614  1.00  0.00     0.010 C 
BRANCH  17  18
ATOM     18  C   UNL     1      99.462  82.017  81.306  1.00  0.00     0.005 C 
BRANCH  18  19
ATOM     19  C   UNL     1      98.892  81.757  82.726  1.00  0.00     0.027 C 
BRANCH  19  20
ATOM     20  C   UNL     1      98.015  82.830  83.170  1.00  0.00    -0.031 C 
ATOM     21  C   UNL     1      97.526  82.940  84.418  1.00  0.00    -0.028 C 
BRANCH  21  22
ATOM     22  C   UNL     1      96.662  84.039  84.847  1.00  0.00     0.005 C 
ATOM     23  C   UNL     1      95.822  83.672  86.102  1.00  0.00     0.012 C 
ATOM     24  C   UNL     1      97.504  85.317  85.099  1.00  0.00     0.012 C 
ENDBRANCH  21  22
ENDBRANCH  19  20
ENDBRANCH  18  19
ENDBRANCH  17  18
ENDBRANCH   1  17
TORSDOF 10
ENDMDL
MODEL 8
REMARK VINA RESULT:    -5.651     17.278     19.177
REMARK INTER + INTRA:          -9.411
REMARK INTER:                  -8.047
REMARK INTRA:                  -1.363
REMARK UNBOUND:                -0.621
REMARK SMILES COc1cc(CNC(=O)CCCC/C=C/C(C)C)ccc1O
REMARK SMILES IDX 10 1 8 2 7 3 9 5 6 6 5 7 3 8 21 9 4 10 20 11 19 12 2 13 1 14
REMARK SMILES IDX 22 15 11 17 12 18 13 19 14 20 15 21 16 22 17 23 18 24
REMARK H PARENT 7 4 22 16
REMARK Flexibility Score: inf
ROOT
ATOM      1  C   UNL     1      91.852  83.560  89.751  1.00  0.00     0.100 C 
ENDROOT
BRANCH   1   2
ATOM      2  C   UNL     1      92.047  84.889  90.363  1.00  0.00     0.220 C 
ATOM      3  N   UNL     1      93.269  85.257  90.841  1.00  0.00    -0.352 N 
ATOM      4  H   UNL     1      93.988  84.552  90.761  1.00  0.00     0.163 HD
ATOM      5  O   UNL     1      91.066  85.670  90.406  1.00  0.00    -0.275 OA
BRANCH   3   6
ATOM      6  C   UNL     1      93.568  86.528  91.420  1.00  0.00     0.151 C 
BRANCH   6   7
ATOM      7  C   UNL     1      94.429  87.348  90.524  1.00  0.00    -0.025 A 
ATOM      8  C   UNL     1      95.512  89.494  89.993  1.00  0.00     0.160 A 
ATOM      9  C   UNL     1      96.083  88.920  88.838  1.00  0.00     0.157 A 
ATOM     10  C   UNL     1      94.689  88.704  90.823  1.00  0.00     0.056 A 
ATOM     11  C   UNL     1      95.816  87.574  88.517  1.00  0.00     0.050 A 
ATOM     12  C   UNL     1      95.003  86.790  89.358  1.00  0.00     0.009 A 
BRANCH   8  13
ATOM     13  O   UNL     1      95.715  90.821  90.274  1.00  0.00    -0.493 OA
ATOM     14  C   UNL     1      94.587  91.664  89.975  1.00  0.00     0.278 C 
ENDBRANCH   8  13
BRANCH   9  15
ATOM     15  O   UNL     1      96.890  89.649  88.024  1.00  0.00    -0.504 OA
ATOM     16  H   UNL     1      96.373  90.329  87.585  1.00  0.00     0.293 HD
ENDBRANCH   9  15
ENDBRANCH   6   7
ENDBRANCH   3   6
ENDBRANCH   1   2
BRANCH   1  17
ATOM     17  C   UNL     1      91.758  83.650  88.204  1.00  0.00     0.010 C 
BRANCH  17  18
ATOM     18  C   UNL     1      93.081  84.130  87.544  1.00  0.00     0.005 C 
BRANCH  18  19
ATOM     19  C   UNL     1      94.112  82.980  87.385  1.00  0.00     0.027 C 
BRANCH  19  20
ATOM     20  C   UNL     1      95.204  83.343  86.495  1.00  0.00    -0.031 C 
ATOM     21  C   UNL     1      96.029  84.387  86.696  1.00  0.00    -0.028 C 
BRANCH  21  22
ATOM     22  C   UNL     1      97.133  84.722  85.798  1.00  0.00     0.005 C 
ATOM     23  C   UNL     1      98.503  84.224  86.336  1.00  0.00     0.012 C 
ATOM     24  C   UNL     1      96.859  84.160  84.379  1.00  0.00     0.012 C 
ENDBRANCH  21  22
ENDBRANCH  19  20
ENDBRANCH  18  19
ENDBRANCH  17  18
ENDBRANCH   1  17
TORSDOF 10
ENDMDL
MODEL 9
REMARK VINA RESULT:    -5.598     15.498     17.829
REMARK INTER + INTRA:          -9.328
REMARK INTER:                  -8.487
REMARK INTRA:                  -0.841
REMARK UNBOUND:                -0.621
REMARK SMILES COc1cc(CNC(=O)CCCC/C=C/C(C)C)ccc1O
REMARK SMILES IDX 10 1 8 2 7 3 9 5 6 6 5 7 3 8 21 9 4 10 20 11 19 12 2 13 1 14
REMARK SMILES IDX 22 15 11 17 12 18 13 19 14 20 15 21 16 22 17 23 18 24
REMARK H PARENT 7 4 22 16
REMARK Flexibility Score: inf
ROOT
ATOM      1  C   UNL     1     100.129  80.656  80.990  1.00  0.00     0.100 C 
ENDROOT
BRANCH   1   2
ATOM      2  C   UNL     1      99.090  81.691  81.154  1.00  0.00     0.220 C 
ATOM      3  N   UNL     1      98.766  82.155  82.393  1.00  0.00    -0.352 N 
ATOM      4  H   UNL     1      99.268  81.721  83.156  1.00  0.00     0.163 HD
ATOM      5  O   UNL     1      98.537  82.143  80.123  1.00  0.00    -0.275 OA
BRANCH   3   6
ATOM      6  C   UNL     1      97.801  83.174  82.656  1.00  0.00     0.151 C 
BRANCH   6   7
ATOM      7  C   UNL     1      97.852  83.623  84.074  1.00  0.00    -0.025 A 
ATOM      8  C   UNL     1      97.067  85.122  85.862  1.00  0.00     0.160 A 
ATOM      9  C   UNL     1      97.922  84.478  86.780  1.00  0.00     0.157 A 
ATOM     10  C   UNL     1      97.041  84.691  84.519  1.00  0.00     0.056 A 
ATOM     11  C   UNL     1      98.751  83.424  86.346  1.00  0.00     0.050 A 
ATOM     12  C   UNL     1      98.710  82.993  85.006  1.00  0.00     0.009 A 
BRANCH   8  13
ATOM     13  O   UNL     1      96.307  86.191  86.264  1.00  0.00    -0.493 OA
ATOM     14  C   UNL     1      95.030  85.827  86.820  1.00  0.00     0.278 C 
ENDBRANCH   8  13
BRANCH   9  15
ATOM     15  O   UNL     1      97.961  84.860  88.082  1.00  0.00    -0.504 OA
ATOM     16  H   UNL     1      98.819  85.245  88.278  1.00  0.00     0.293 HD
ENDBRANCH   9  15
ENDBRANCH   6   7
ENDBRANCH   3   6
ENDBRANCH   1   2
BRANCH   1  17
ATOM     17  C   UNL     1     100.719  80.659  79.554  1.00  0.00     0.010 C 
BRANCH  17  18
ATOM     18  C   UNL     1     101.880  81.678  79.379  1.00  0.00     0.005 C 
BRANCH  18  19
ATOM     19  C   UNL     1     101.976  82.219  77.927  1.00  0.00     0.027 C 
BRANCH  19  20
ATOM     20  C   UNL     1     100.669  82.343  77.300  1.00  0.00    -0.031 C 
ATOM     21  C   UNL     1     100.030  83.512  77.108  1.00  0.00    -0.028 C 
BRANCH  21  22
ATOM     22  C   UNL     1      98.724  83.614  76.457  1.00  0.00     0.005 C 
ATOM     23  C   UNL     1      98.209  82.239  75.948  1.00  0.00     0.012 C 
ATOM     24  C   UNL     1      97.697  84.268  77.418  1.00  0.00     0.012 C 
ENDBRANCH  21  22
ENDBRANCH  19  20
ENDBRANCH  18  19
ENDBRANCH  17  18
ENDBRANCH   1  17
TORSDOF 10
ENDMDL
MODEL 10
REMARK VINA RESULT:    -5.489     15.437     18.520
REMARK INTER + INTRA:          -9.158
REMARK INTER:                  -8.361
REMARK INTRA:                  -0.797
REMARK UNBOUND:                -0.621
REMARK SMILES COc1cc(CNC(=O)CCCC/C=C/C(C)C)ccc1O
REMARK SMILES IDX 10 1 8 2 7 3 9 5 6 6 5 7 3 8 21 9 4 10 20 11 19 12 2 13 1 14
REMARK SMILES IDX 22 15 11 17 12 18 13 19 14 20 15 21 16 22 17 23 18 24
REMARK H PARENT 7 4 22 16
REMARK Flexibility Score: inf
ROOT
ATOM      1  C   UNL     1      97.824  82.606  79.711  1.00  0.00     0.100 C 
ENDROOT
BRANCH   1   2
ATOM      2  C   UNL     1      97.869  83.265  78.391  1.00  0.00     0.220 C 
ATOM      3  N   UNL     1      98.614  82.737  77.380  1.00  0.00    -0.352 N 
ATOM      4  H   UNL     1      99.128  81.900  77.621  1.00  0.00     0.163 HD
ATOM      5  O   UNL     1      97.188  84.305  78.225  1.00  0.00    -0.275 OA
BRANCH   3   6
ATOM      6  C   UNL     1      98.699  83.278  76.061  1.00  0.00     0.151 C 
BRANCH   6   7
ATOM      7  C   UNL     1     100.058  83.816  75.778  1.00  0.00    -0.025 A 
ATOM      8  C   UNL     1     102.506  83.578  75.882  1.00  0.00     0.160 A 
ATOM      9  C   UNL     1     102.655  84.819  75.229  1.00  0.00     0.157 A 
ATOM     10  C   UNL     1     101.210  83.090  76.152  1.00  0.00     0.056 A 
ATOM     11  C   UNL     1     101.515  85.564  74.868  1.00  0.00     0.050 A 
ATOM     12  C   UNL     1     100.226  85.063  75.132  1.00  0.00     0.009 A 
BRANCH   8  13
ATOM     13  O   UNL     1     103.613  82.880  76.294  1.00  0.00    -0.493 OA
ATOM     14  C   UNL     1     103.361  81.968  77.379  1.00  0.00     0.278 C 
ENDBRANCH   8  13
BRANCH   9  15
ATOM     15  O   UNL     1     103.888  85.311  74.943  1.00  0.00    -0.504 OA
ATOM     16  H   UNL     1     103.923  85.573  74.019  1.00  0.00     0.293 HD
ENDBRANCH   9  15
ENDBRANCH   6   7
ENDBRANCH   3   6
ENDBRANCH   1   2
BRANCH   1  17
ATOM     17  C   UNL     1      98.911  83.165  80.668  1.00  0.00     0.010 C 
BRANCH  17  18
ATOM     18  C   UNL     1      99.789  82.051  81.303  1.00  0.00     0.005 C 
BRANCH  18  19
ATOM     19  C   UNL     1      99.079  81.340  82.486  1.00  0.00     0.027 C 
BRANCH  19  20
ATOM     20  C   UNL     1      98.328  82.273  83.313  1.00  0.00    -0.031 C 
ATOM     21  C   UNL     1      97.558  81.909  84.355  1.00  0.00    -0.028 C 
BRANCH  21  22
ATOM     22  C   UNL     1      96.827  82.866  85.185  1.00  0.00     0.005 C 
ATOM     23  C   UNL     1      97.348  82.896  86.648  1.00  0.00     0.012 C 
ATOM     24  C   UNL     1      96.882  84.279  84.549  1.00  0.00     0.012 C 
ENDBRANCH  21  22
ENDBRANCH  19  20
ENDBRANCH  18  19
ENDBRANCH  17  18
ENDBRANCH   1  17
TORSDOF 10
ENDMDL
