MODEL 1
REMARK VINA RESULT:    -5.865      0.000      0.000
REMARK INTER + INTRA:         -10.167
REMARK INTER:                  -9.466
REMARK INTRA:                  -0.701
REMARK UNBOUND:                -0.701
REMARK SMILES CCCCCCCCC(=O)NCc1ccc(O)c(OC)c1
REMARK SMILES IDX 7 1 6 2 5 3 4 4 3 5 2 6 1 7 8 8 9 9 10 10 11 11 12 13 13 14
REMARK SMILES IDX 21 15 14 16 18 17 15 18 16 19 19 20 20 21 17 22
REMARK H PARENT 11 12 17 23
REMARK Flexibility Score: inf
ROOT
ATOM      1  C   UNL     1      92.866  82.298  85.688  1.00  0.00     0.010 C 
ENDROOT
BRANCH   1   2
ATOM      2  C   UNL     1      92.334  81.801  84.313  1.00  0.00     0.001 C 
BRANCH   2   3
ATOM      3  C   UNL     1      90.793  81.572  84.325  1.00  0.00     0.000 C 
BRANCH   3   4
ATOM      4  C   UNL     1      90.378  80.090  84.100  1.00  0.00    -0.000 C 
BRANCH   4   5
ATOM      5  C   UNL     1      91.498  79.087  84.497  1.00  0.00    -0.000 C 
BRANCH   5   6
ATOM      6  C   UNL     1      91.085  77.609  84.260  1.00  0.00    -0.003 C 
ATOM      7  C   UNL     1      89.565  77.379  84.411  1.00  0.00     0.004 C 
ENDBRANCH   5   6
ENDBRANCH   4   5
ENDBRANCH   3   4
ENDBRANCH   2   3
ENDBRANCH   1   2
BRANCH   1   8
ATOM      8  C   UNL     1      93.133  83.828  85.744  1.00  0.00     0.100 C 
BRANCH   8   9
ATOM      9  C   UNL     1      94.481  84.160  85.223  1.00  0.00     0.220 C 
ATOM     10  O   UNL     1      95.349  84.565  86.033  1.00  0.00    -0.275 OA
ATOM     11  N   UNL     1      94.772  83.999  83.898  1.00  0.00    -0.352 N 
ATOM     12  H   UNL     1      93.979  83.753  83.324  1.00  0.00     0.163 HD
BRANCH  11  13
ATOM     13  C   UNL     1      96.064  84.149  83.302  1.00  0.00     0.151 C 
BRANCH  13  14
ATOM     14  C   UNL     1      96.457  83.013  82.427  1.00  0.00    -0.025 A 
ATOM     15  C   UNL     1      96.994  83.258  81.140  1.00  0.00     0.056 A 
ATOM     16  C   UNL     1      96.300  81.675  82.857  1.00  0.00     0.009 A 
ATOM     17  C   UNL     1      97.389  82.188  80.304  1.00  0.00     0.160 A 
ATOM     18  C   UNL     1      96.691  80.607  82.030  1.00  0.00     0.050 A 
ATOM     19  C   UNL     1      97.228  80.858  80.753  1.00  0.00     0.157 A 
BRANCH  17  20
ATOM     20  O   UNL     1      97.870  82.426  79.041  1.00  0.00    -0.493 OA
ATOM     21  C   UNL     1      96.994  83.215  78.216  1.00  0.00     0.278 C 
ENDBRANCH  17  20
BRANCH  19  22
ATOM     22  O   UNL     1      97.577  79.820  79.951  1.00  0.00    -0.504 OA
ATOM     23  H   UNL     1      97.289  78.996  80.351  1.00  0.00     0.293 HD
ENDBRANCH  19  22
ENDBRANCH  13  14
ENDBRANCH  11  13
ENDBRANCH   8   9
ENDBRANCH   1   8
TORSDOF 11
ENDMDL
MODEL 2
REMARK VINA RESULT:    -5.858     15.240     17.427
REMARK INTER + INTRA:         -10.155
REMARK INTER:                  -9.510
REMARK INTRA:                  -0.645
REMARK UNBOUND:                -0.701
REMARK SMILES CCCCCCCCC(=O)NCc1ccc(O)c(OC)c1
REMARK SMILES IDX 7 1 6 2 5 3 4 4 3 5 2 6 1 7 8 8 9 9 10 10 11 11 12 13 13 14
REMARK SMILES IDX 21 15 14 16 18 17 15 18 16 19 19 20 20 21 17 22
REMARK H PARENT 11 12 17 23
REMARK Flexibility Score: inf
ROOT
ATOM      1  C   UNL     1      92.180  95.092  77.668  1.00  0.00     0.010 C 
ENDROOT
BRANCH   1   2
ATOM      2  C   UNL     1      90.744  94.799  77.144  1.00  0.00     0.001 C 
BRANCH   2   3
ATOM      3  C   UNL     1      90.171  93.467  77.710  1.00  0.00     0.000 C 
BRANCH   3   4
ATOM      4  C   UNL     1      89.896  92.390  76.623  1.00  0.00    -0.000 C 
BRANCH   4   5
ATOM      5  C   UNL     1      90.611  92.700  75.277  1.00  0.00    -0.000 C 
BRANCH   5   6
ATOM      6  C   UNL     1      89.969  91.957  74.075  1.00  0.00    -0.003 C 
ATOM      7  C   UNL     1      90.595  90.567  73.825  1.00  0.00     0.004 C 
ENDBRANCH   5   6
ENDBRANCH   4   5
ENDBRANCH   3   4
ENDBRANCH   2   3
ENDBRANCH   1   2
BRANCH   1   8
ATOM      8  C   UNL     1      93.271  95.069  76.562  1.00  0.00     0.100 C 
BRANCH   8   9
ATOM      9  C   UNL     1      93.715  96.441  76.214  1.00  0.00     0.220 C 
ATOM     10  O   UNL     1      93.730  97.309  77.119  1.00  0.00    -0.275 OA
ATOM     11  N   UNL     1      94.125  96.737  74.946  1.00  0.00    -0.352 N 
ATOM     12  H   UNL     1      93.991  95.991  74.279  1.00  0.00     0.163 HD
BRANCH  11  13
ATOM     13  C   UNL     1      94.706  97.974  74.522  1.00  0.00     0.151 C 
BRANCH  13  14
ATOM     14  C   UNL     1      94.902  98.074  73.051  1.00  0.00    -0.025 A 
ATOM     15  C   UNL     1      94.315  99.137  72.325  1.00  0.00     0.056 A 
ATOM     16  C   UNL     1      95.672  97.114  72.354  1.00  0.00     0.009 A 
ATOM     17  C   UNL     1      94.507  99.255  70.929  1.00  0.00     0.160 A 
ATOM     18  C   UNL     1      95.868  97.226  70.966  1.00  0.00     0.050 A 
ATOM     19  C   UNL     1      95.282  98.288  70.250  1.00  0.00     0.157 A 
BRANCH  17  20
ATOM     20  O   UNL     1      93.902 100.262  70.220  1.00  0.00    -0.493 OA
ATOM     21  C   UNL     1      92.465 100.230  70.263  1.00  0.00     0.278 C 
ENDBRANCH  17  20
BRANCH  19  22
ATOM     22  O   UNL     1      95.455  98.372  68.906  1.00  0.00    -0.504 OA
ATOM     23  H   UNL     1      94.980  97.655  68.477  1.00  0.00     0.293 HD
ENDBRANCH  19  22
ENDBRANCH  13  14
ENDBRANCH  11  13
ENDBRANCH   8   9
ENDBRANCH   1   8
TORSDOF 11
ENDMDL
MODEL 3
REMARK VINA RESULT:    -5.627      2.482      4.359
REMARK INTER + INTRA:          -9.783
REMARK INTER:                  -9.200
REMARK INTRA:                  -0.582
REMARK UNBOUND:                -0.701
REMARK SMILES CCCCCCCCC(=O)NCc1ccc(O)c(OC)c1
REMARK SMILES IDX 7 1 6 2 5 3 4 4 3 5 2 6 1 7 8 8 9 9 10 10 11 11 12 13 13 14
REMARK SMILES IDX 21 15 14 16 18 17 15 18 16 19 19 20 20 21 17 22
REMARK H PARENT 11 12 17 23
REMARK Flexibility Score: inf
ROOT
ATOM      1  C   UNL     1      96.145  81.970  84.249  1.00  0.00     0.010 C 
ENDROOT
BRANCH   1   2
ATOM      2  C   UNL     1      94.758  81.594  84.845  1.00  0.00     0.001 C 
BRANCH   2   3
ATOM      3  C   UNL     1      93.612  82.478  84.270  1.00  0.00     0.000 C 
BRANCH   3   4
ATOM      4  C   UNL     1      92.188  81.918  84.551  1.00  0.00    -0.000 C 
BRANCH   4   5
ATOM      5  C   UNL     1      92.202  80.414  84.948  1.00  0.00    -0.000 C 
BRANCH   5   6
ATOM      6  C   UNL     1      91.277  79.552  84.048  1.00  0.00    -0.003 C 
ATOM      7  C   UNL     1      91.495  78.035  84.242  1.00  0.00     0.004 C 
ENDBRANCH   5   6
ENDBRANCH   4   5
ENDBRANCH   3   4
ENDBRANCH   2   3
ENDBRANCH   1   2
BRANCH   1   8
ATOM      8  C   UNL     1      96.064  82.849  82.970  1.00  0.00     0.100 C 
BRANCH   8   9
ATOM      9  C   UNL     1      97.155  82.523  82.021  1.00  0.00     0.220 C 
ATOM     10  O   UNL     1      98.185  81.962  82.467  1.00  0.00    -0.275 OA
ATOM     11  N   UNL     1      97.024  82.802  80.690  1.00  0.00    -0.352 N 
ATOM     12  H   UNL     1      96.197  83.330  80.454  1.00  0.00     0.163 HD
BRANCH  11  13
ATOM     13  C   UNL     1      97.938  82.412  79.660  1.00  0.00     0.151 C 
BRANCH  13  14
ATOM     14  C   UNL     1      97.640  83.013  78.333  1.00  0.00    -0.025 A 
ATOM     15  C   UNL     1      98.514  82.797  77.241  1.00  0.00     0.056 A 
ATOM     16  C   UNL     1      96.489  83.810  78.138  1.00  0.00     0.009 A 
ATOM     17  C   UNL     1      98.235  83.348  75.969  1.00  0.00     0.160 A 
ATOM     18  C   UNL     1      96.205  84.360  76.875  1.00  0.00     0.050 A 
ATOM     19  C   UNL     1      97.078  84.139  75.792  1.00  0.00     0.157 A 
BRANCH  17  20
ATOM     20  O   UNL     1      99.106  83.173  74.923  1.00  0.00    -0.493 OA
ATOM     21  C   UNL     1      99.993  82.051  75.077  1.00  0.00     0.278 C 
ENDBRANCH  17  20
BRANCH  19  22
ATOM     22  O   UNL     1      96.810  84.697  74.584  1.00  0.00    -0.504 OA
ATOM     23  H   UNL     1      95.901  84.507  74.339  1.00  0.00     0.293 HD
ENDBRANCH  19  22
ENDBRANCH  13  14
ENDBRANCH  11  13
ENDBRANCH   8   9
ENDBRANCH   1   8
TORSDOF 11
ENDMDL
MODEL 4
REMARK VINA RESULT:    -5.586      2.768      7.141
REMARK INTER + INTRA:          -9.716
REMARK INTER:                  -8.844
REMARK INTRA:                  -0.872
REMARK UNBOUND:                -0.701
REMARK SMILES CCCCCCCCC(=O)NCc1ccc(O)c(OC)c1
REMARK SMILES IDX 7 1 6 2 5 3 4 4 3 5 2 6 1 7 8 8 9 9 10 10 11 11 12 13 13 14
REMARK SMILES IDX 21 15 14 16 18 17 15 18 16 19 19 20 20 21 17 22
REMARK H PARENT 11 12 17 23
REMARK Flexibility Score: inf
ROOT
ATOM      1  C   UNL     1      96.971  80.007  81.309  1.00  0.00     0.010 C 
ENDROOT
BRANCH   1   2
ATOM      2  C   UNL     1      97.119  81.408  81.969  1.00  0.00     0.001 C 
BRANCH   2   3
ATOM      3  C   UNL     1      97.907  82.404  81.068  1.00  0.00     0.000 C 
BRANCH   3   4
ATOM      4  C   UNL     1      96.997  83.300  80.181  1.00  0.00    -0.000 C 
BRANCH   4   5
ATOM      5  C   UNL     1      97.436  83.309  78.689  1.00  0.00    -0.000 C 
BRANCH   5   6
ATOM      6  C   UNL     1      96.290  83.738  77.733  1.00  0.00    -0.003 C 
ATOM      7  C   UNL     1      96.803  84.436  76.455  1.00  0.00     0.004 C 
ENDBRANCH   5   6
ENDBRANCH   4   5
ENDBRANCH   3   4
ENDBRANCH   2   3
ENDBRANCH   1   2
BRANCH   1   8
ATOM      8  C   UNL     1      97.282  78.823  82.267  1.00  0.00     0.100 C 
BRANCH   8   9
ATOM      9  C   UNL     1      96.599  78.992  83.573  1.00  0.00     0.220 C 
ATOM     10  O   UNL     1      97.305  79.087  84.606  1.00  0.00    -0.275 OA
ATOM     11  N   UNL     1      95.238  79.071  83.638  1.00  0.00    -0.352 N 
ATOM     12  H   UNL     1      94.767  78.896  82.763  1.00  0.00     0.163 HD
BRANCH  11  13
ATOM     13  C   UNL     1      94.473  79.372  84.810  1.00  0.00     0.151 C 
BRANCH  13  14
ATOM     14  C   UNL     1      94.071  80.800  84.915  1.00  0.00    -0.025 A 
ATOM     15  C   UNL     1      95.019  81.781  85.291  1.00  0.00     0.056 A 
ATOM     16  C   UNL     1      92.742  81.202  84.647  1.00  0.00     0.009 A 
ATOM     17  C   UNL     1      94.656  83.145  85.378  1.00  0.00     0.160 A 
ATOM     18  C   UNL     1      92.375  82.557  84.731  1.00  0.00     0.050 A 
ATOM     19  C   UNL     1      93.324  83.528  85.102  1.00  0.00     0.157 A 
BRANCH  17  20
ATOM     20  O   UNL     1      95.566  84.088  85.783  1.00  0.00    -0.493 OA
ATOM     21  C   UNL     1      96.498  84.485  84.762  1.00  0.00     0.278 C 
ENDBRANCH  17  20
BRANCH  19  22
ATOM     22  O   UNL     1      92.953  84.830  85.207  1.00  0.00    -0.504 OA
ATOM     23  H   UNL     1      93.060  85.121  86.116  1.00  0.00     0.293 HD
ENDBRANCH  19  22
ENDBRANCH  13  14
ENDBRANCH  11  13
ENDBRANCH   8   9
ENDBRANCH   1   8
TORSDOF 11
ENDMDL
MODEL 5
REMARK VINA RESULT:    -5.570     16.273     18.716
REMARK INTER + INTRA:          -9.691
REMARK INTER:                  -8.906
REMARK INTRA:                  -0.785
REMARK UNBOUND:                -0.701
REMARK SMILES CCCCCCCCC(=O)NCc1ccc(O)c(OC)c1
REMARK SMILES IDX 7 1 6 2 5 3 4 4 3 5 2 6 1 7 8 8 9 9 10 10 11 11 12 13 13 14
REMARK SMILES IDX 21 15 14 16 18 17 15 18 16 19 19 20 20 21 17 22
REMARK H PARENT 11 12 17 23
REMARK Flexibility Score: inf
ROOT
ATOM      1  C   UNL     1      93.583  97.457  76.891  1.00  0.00     0.010 C 
ENDROOT
BRANCH   1   2
ATOM      2  C   UNL     1      93.549  96.291  77.922  1.00  0.00     0.001 C 
BRANCH   2   3
ATOM      3  C   UNL     1      92.493  95.209  77.552  1.00  0.00     0.000 C 
BRANCH   3   4
ATOM      4  C   UNL     1      91.252  95.773  76.803  1.00  0.00    -0.000 C 
BRANCH   4   5
ATOM      5  C   UNL     1      90.120  94.720  76.639  1.00  0.00    -0.000 C 
BRANCH   5   6
ATOM      6  C   UNL     1      90.009  94.185  75.186  1.00  0.00    -0.003 C 
ATOM      7  C   UNL     1      90.778  92.862  74.974  1.00  0.00     0.004 C 
ENDBRANCH   5   6
ENDBRANCH   4   5
ENDBRANCH   3   4
ENDBRANCH   2   3
ENDBRANCH   1   2
BRANCH   1   8
ATOM      8  C   UNL     1      94.995  98.071  76.681  1.00  0.00     0.100 C 
BRANCH   8   9
ATOM      9  C   UNL     1      95.476  97.858  75.295  1.00  0.00     0.220 C 
ATOM     10  O   UNL     1      96.670  98.135  75.030  1.00  0.00    -0.275 OA
ATOM     11  N   UNL     1      94.642  97.345  74.342  1.00  0.00    -0.352 N 
ATOM     12  H   UNL     1      93.683  97.240  74.640  1.00  0.00     0.163 HD
BRANCH  11  13
ATOM     13  C   UNL     1      95.023  96.964  73.016  1.00  0.00     0.151 C 
BRANCH  13  14
ATOM     14  C   UNL     1      94.665  97.966  71.977  1.00  0.00    -0.025 A 
ATOM     15  C   UNL     1      93.520  98.782  72.139  1.00  0.00     0.056 A 
ATOM     16  C   UNL     1      95.453  98.119  70.813  1.00  0.00     0.009 A 
ATOM     17  C   UNL     1      93.177  99.751  71.168  1.00  0.00     0.160 A 
ATOM     18  C   UNL     1      95.118  99.081  69.844  1.00  0.00     0.050 A 
ATOM     19  C   UNL     1      93.980  99.892  70.013  1.00  0.00     0.157 A 
BRANCH  17  20
ATOM     20  O   UNL     1      92.044 100.512  71.306  1.00  0.00    -0.493 OA
ATOM     21  C   UNL     1      90.846  99.877  70.824  1.00  0.00     0.278 C 
ENDBRANCH  17  20
BRANCH  19  22
ATOM     22  O   UNL     1      93.649 100.800  69.058  1.00  0.00    -0.504 OA
ATOM     23  H   UNL     1      94.071 100.560  68.230  1.00  0.00     0.293 HD
ENDBRANCH  19  22
ENDBRANCH  13  14
ENDBRANCH  11  13
ENDBRANCH   8   9
ENDBRANCH   1   8
TORSDOF 11
ENDMDL
MODEL 6
REMARK VINA RESULT:    -5.550     14.629     16.903
REMARK INTER + INTRA:          -9.658
REMARK INTER:                  -9.031
REMARK INTRA:                  -0.627
REMARK UNBOUND:                -0.701
REMARK SMILES CCCCCCCCC(=O)NCc1ccc(O)c(OC)c1
REMARK SMILES IDX 7 1 6 2 5 3 4 4 3 5 2 6 1 7 8 8 9 9 10 10 11 11 12 13 13 14
REMARK SMILES IDX 21 15 14 16 18 17 15 18 16 19 19 20 20 21 17 22
REMARK H PARENT 11 12 17 23
REMARK Flexibility Score: inf
ROOT
ATOM      1  C   UNL     1      92.274  95.215  77.302  1.00  0.00     0.010 C 
ENDROOT
BRANCH   1   2
ATOM      2  C   UNL     1      90.787  94.958  76.923  1.00  0.00     0.001 C 
BRANCH   2   3
ATOM      3  C   UNL     1      90.196  93.722  77.662  1.00  0.00     0.000 C 
BRANCH   3   4
ATOM      4  C   UNL     1      89.875  92.525  76.724  1.00  0.00    -0.000 C 
BRANCH   4   5
ATOM      5  C   UNL     1      90.627  92.609  75.365  1.00  0.00    -0.000 C 
BRANCH   5   6
ATOM      6  C   UNL     1      89.750  92.149  74.169  1.00  0.00    -0.003 C 
ATOM      7  C   UNL     1      90.087  90.719  73.693  1.00  0.00     0.004 C 
ENDBRANCH   5   6
ENDBRANCH   4   5
ENDBRANCH   3   4
ENDBRANCH   2   3
ENDBRANCH   1   2
BRANCH   1   8
ATOM      8  C   UNL     1      93.256  95.120  76.101  1.00  0.00     0.100 C 
BRANCH   8   9
ATOM      9  C   UNL     1      94.016  96.381  75.924  1.00  0.00     0.220 C 
ATOM     10  O   UNL     1      94.237  97.089  76.935  1.00  0.00    -0.275 OA
ATOM     11  N   UNL     1      94.485  96.741  74.693  1.00  0.00    -0.352 N 
ATOM     12  H   UNL     1      94.176  96.146  73.938  1.00  0.00     0.163 HD
BRANCH  11  13
ATOM     13  C   UNL     1      95.345  97.851  74.418  1.00  0.00     0.151 C 
BRANCH  13  14
ATOM     14  C   UNL     1      96.072  97.743  73.126  1.00  0.00    -0.025 A 
ATOM     15  C   UNL     1      97.424  98.154  73.032  1.00  0.00     0.056 A 
ATOM     16  C   UNL     1      95.432  97.236  71.972  1.00  0.00     0.009 A 
ATOM     17  C   UNL     1      98.133  98.041  71.814  1.00  0.00     0.160 A 
ATOM     18  C   UNL     1      96.133  97.120  70.758  1.00  0.00     0.050 A 
ATOM     19  C   UNL     1      97.478  97.527  70.673  1.00  0.00     0.157 A 
BRANCH  17  20
ATOM     20  O   UNL     1      99.430  98.478  71.715  1.00  0.00    -0.493 OA
ATOM     21  C   UNL     1     100.393  97.615  72.345  1.00  0.00     0.278 C 
ENDBRANCH  17  20
BRANCH  19  22
ATOM     22  O   UNL     1      98.137  97.437  69.489  1.00  0.00    -0.504 OA
ATOM     23  H   UNL     1      97.774  98.076  68.871  1.00  0.00     0.293 HD
ENDBRANCH  19  22
ENDBRANCH  13  14
ENDBRANCH  11  13
ENDBRANCH   8   9
ENDBRANCH   1   8
TORSDOF 11
ENDMDL
MODEL 7
REMARK VINA RESULT:    -5.261      5.815      9.526
REMARK INTER + INTRA:          -9.191
REMARK INTER:                  -8.471
REMARK INTRA:                  -0.721
REMARK UNBOUND:                -0.701
REMARK SMILES CCCCCCCCC(=O)NCc1ccc(O)c(OC)c1
REMARK SMILES IDX 7 1 6 2 5 3 4 4 3 5 2 6 1 7 8 8 9 9 10 10 11 11 12 13 13 14
REMARK SMILES IDX 21 15 14 16 18 17 15 18 16 19 19 20 20 21 17 22
REMARK H PARENT 11 12 17 23
REMARK Flexibility Score: inf
ROOT
ATOM      1  C   UNL     1      96.313  83.369  78.113  1.00  0.00     0.010 C 
ENDROOT
BRANCH   1   2
ATOM      2  C   UNL     1      97.160  83.489  79.413  1.00  0.00     0.001 C 
BRANCH   2   3
ATOM      3  C   UNL     1      97.741  82.118  79.867  1.00  0.00     0.000 C 
BRANCH   3   4
ATOM      4  C   UNL     1      97.061  81.539  81.139  1.00  0.00    -0.000 C 
BRANCH   4   5
ATOM      5  C   UNL     1      97.315  82.409  82.404  1.00  0.00    -0.000 C 
BRANCH   5   6
ATOM      6  C   UNL     1      96.000  82.938  83.036  1.00  0.00    -0.003 C 
ATOM      7  C   UNL     1      95.989  84.474  83.201  1.00  0.00     0.004 C 
ENDBRANCH   5   6
ENDBRANCH   4   5
ENDBRANCH   3   4
ENDBRANCH   2   3
ENDBRANCH   1   2
BRANCH   1   8
ATOM      8  C   UNL     1      96.777  84.314  76.969  1.00  0.00     0.100 C 
BRANCH   8   9
ATOM      9  C   UNL     1      97.423  83.555  75.871  1.00  0.00     0.220 C 
ATOM     10  O   UNL     1      98.067  82.518  76.162  1.00  0.00    -0.275 OA
ATOM     11  N   UNL     1      97.291  83.964  74.575  1.00  0.00    -0.352 N 
ATOM     12  H   UNL     1      96.829  84.854  74.463  1.00  0.00     0.163 HD
BRANCH  11  13
ATOM     13  C   UNL     1      97.743  83.246  73.422  1.00  0.00     0.151 C 
BRANCH  13  14
ATOM     14  C   UNL     1      98.923  83.860  72.756  1.00  0.00    -0.025 A 
ATOM     15  C   UNL     1      99.658  83.128  71.793  1.00  0.00     0.056 A 
ATOM     16  C   UNL     1      99.334  85.176  73.073  1.00  0.00     0.009 A 
ATOM     17  C   UNL     1     100.771  83.705  71.139  1.00  0.00     0.160 A 
ATOM     18  C   UNL     1     100.439  85.755  72.425  1.00  0.00     0.050 A 
ATOM     19  C   UNL     1     101.164  85.022  71.466  1.00  0.00     0.157 A 
BRANCH  17  20
ATOM     20  O   UNL     1     101.507  82.980  70.236  1.00  0.00    -0.493 OA
ATOM     21  C   UNL     1     102.192  81.850  70.807  1.00  0.00     0.278 C 
ENDBRANCH  17  20
BRANCH  19  22
ATOM     22  O   UNL     1     102.247  85.581  70.866  1.00  0.00    -0.504 OA
ATOM     23  H   UNL     1     101.962  86.304  70.302  1.00  0.00     0.293 HD
ENDBRANCH  19  22
ENDBRANCH  13  14
ENDBRANCH  11  13
ENDBRANCH   8   9
ENDBRANCH   1   8
TORSDOF 11
ENDMDL
MODEL 8
REMARK VINA RESULT:    -5.230     25.240     26.927
REMARK INTER + INTRA:          -9.142
REMARK INTER:                  -7.700
REMARK INTRA:                  -1.442
REMARK UNBOUND:                -0.701
REMARK SMILES CCCCCCCCC(=O)NCc1ccc(O)c(OC)c1
REMARK SMILES IDX 7 1 6 2 5 3 4 4 3 5 2 6 1 7 8 8 9 9 10 10 11 11 12 13 13 14
REMARK SMILES IDX 21 15 14 16 18 17 15 18 16 19 19 20 20 21 17 22
REMARK H PARENT 11 12 17 23
REMARK Flexibility Score: inf
ROOT
ATOM      1  C   UNL     1      76.176  89.156  67.635  1.00  0.00     0.010 C 
ENDROOT
BRANCH   1   2
ATOM      2  C   UNL     1      76.154  88.274  68.917  1.00  0.00     0.001 C 
BRANCH   2   3
ATOM      3  C   UNL     1      76.964  86.957  68.741  1.00  0.00     0.000 C 
BRANCH   3   4
ATOM      4  C   UNL     1      76.212  85.687  69.231  1.00  0.00    -0.000 C 
BRANCH   4   5
ATOM      5  C   UNL     1      76.484  84.445  68.336  1.00  0.00    -0.000 C 
BRANCH   5   6
ATOM      6  C   UNL     1      77.514  84.735  67.211  1.00  0.00    -0.003 C 
ATOM      7  C   UNL     1      77.292  83.864  65.955  1.00  0.00     0.004 C 
ENDBRANCH   5   6
ENDBRANCH   4   5
ENDBRANCH   3   4
ENDBRANCH   2   3
ENDBRANCH   1   2
BRANCH   1   8
ATOM      8  C   UNL     1      76.700  88.416  66.372  1.00  0.00     0.100 C 
BRANCH   8   9
ATOM      9  C   UNL     1      75.583  87.992  65.494  1.00  0.00     0.220 C 
ATOM     10  O   UNL     1      74.582  88.741  65.400  1.00  0.00    -0.275 OA
ATOM     11  N   UNL     1      75.661  86.827  64.786  1.00  0.00    -0.352 N 
ATOM     12  H   UNL     1      76.468  86.260  65.002  1.00  0.00     0.163 HD
BRANCH  11  13
ATOM     13  C   UNL     1      74.720  86.380  63.805  1.00  0.00     0.151 C 
BRANCH  13  14
ATOM     14  C   UNL     1      74.056  85.095  64.150  1.00  0.00    -0.025 A 
ATOM     15  C   UNL     1      73.134  85.035  65.223  1.00  0.00     0.056 A 
ATOM     16  C   UNL     1      74.332  83.915  63.421  1.00  0.00     0.009 A 
ATOM     17  C   UNL     1      72.482  83.825  65.552  1.00  0.00     0.160 A 
ATOM     18  C   UNL     1      73.686  82.708  63.743  1.00  0.00     0.050 A 
ATOM     19  C   UNL     1      72.768  82.657  64.809  1.00  0.00     0.157 A 
BRANCH  17  20
ATOM     20  O   UNL     1      71.621  83.759  66.618  1.00  0.00    -0.493 OA
ATOM     21  C   UNL     1      70.307  84.276  66.346  1.00  0.00     0.278 C 
ENDBRANCH  17  20
BRANCH  19  22
ATOM     22  O   UNL     1      72.170  81.481  65.129  1.00  0.00    -0.504 OA
ATOM     23  H   UNL     1      71.587  81.213  64.415  1.00  0.00     0.293 HD
ENDBRANCH  19  22
ENDBRANCH  13  14
ENDBRANCH  11  13
ENDBRANCH   8   9
ENDBRANCH   1   8
TORSDOF 11
ENDMDL
MODEL 9
REMARK VINA RESULT:    -5.223      3.099      5.273
REMARK INTER + INTRA:          -9.130
REMARK INTER:                  -8.541
REMARK INTRA:                  -0.590
REMARK UNBOUND:                -0.701
REMARK SMILES CCCCCCCCC(=O)NCc1ccc(O)c(OC)c1
REMARK SMILES IDX 7 1 6 2 5 3 4 4 3 5 2 6 1 7 8 8 9 9 10 10 11 11 12 13 13 14
REMARK SMILES IDX 21 15 14 16 18 17 15 18 16 19 19 20 20 21 17 22
REMARK H PARENT 11 12 17 23
REMARK Flexibility Score: inf
ROOT
ATOM      1  C   UNL     1      96.063  82.002  84.252  1.00  0.00     0.010 C 
ENDROOT
BRANCH   1   2
ATOM      2  C   UNL     1      94.669  81.612  84.823  1.00  0.00     0.001 C 
BRANCH   2   3
ATOM      3  C   UNL     1      93.557  82.616  84.399  1.00  0.00     0.000 C 
BRANCH   3   4
ATOM      4  C   UNL     1      93.310  83.752  85.432  1.00  0.00    -0.000 C 
BRANCH   4   5
ATOM      5  C   UNL     1      93.738  83.355  86.873  1.00  0.00    -0.000 C 
BRANCH   5   6
ATOM      6  C   UNL     1      93.559  84.515  87.889  1.00  0.00    -0.003 C 
ATOM      7  C   UNL     1      93.621  84.042  89.358  1.00  0.00     0.004 C 
ENDBRANCH   5   6
ENDBRANCH   4   5
ENDBRANCH   3   4
ENDBRANCH   2   3
ENDBRANCH   1   2
BRANCH   1   8
ATOM      8  C   UNL     1      95.995  82.874  82.967  1.00  0.00     0.100 C 
BRANCH   8   9
ATOM      9  C   UNL     1      97.090  82.537  82.026  1.00  0.00     0.220 C 
ATOM     10  O   UNL     1      98.112  81.970  82.482  1.00  0.00    -0.275 OA
ATOM     11  N   UNL     1      96.971  82.812  80.694  1.00  0.00    -0.352 N 
ATOM     12  H   UNL     1      96.149  83.345  80.450  1.00  0.00     0.163 HD
BRANCH  11  13
ATOM     13  C   UNL     1      97.889  82.411  79.673  1.00  0.00     0.151 C 
BRANCH  13  14
ATOM     14  C   UNL     1      97.629  83.039  78.350  1.00  0.00    -0.025 A 
ATOM     15  C   UNL     1      98.591  82.948  77.316  1.00  0.00     0.056 A 
ATOM     16  C   UNL     1      96.425  83.738  78.102  1.00  0.00     0.009 A 
ATOM     17  C   UNL     1      98.350  83.526  76.048  1.00  0.00     0.160 A 
ATOM     18  C   UNL     1      96.179  84.313  76.842  1.00  0.00     0.050 A 
ATOM     19  C   UNL     1      97.139  84.217  75.818  1.00  0.00     0.157 A 
BRANCH  17  20
ATOM     20  O   UNL     1      99.302  83.473  75.061  1.00  0.00    -0.493 OA
ATOM     21  C   UNL     1     100.277  82.430  75.239  1.00  0.00     0.278 C 
ENDBRANCH  17  20
BRANCH  19  22
ATOM     22  O   UNL     1      96.904  84.799  74.614  1.00  0.00    -0.504 OA
ATOM     23  H   UNL     1      96.036  84.540  74.297  1.00  0.00     0.293 HD
ENDBRANCH  19  22
ENDBRANCH  13  14
ENDBRANCH  11  13
ENDBRANCH   8   9
ENDBRANCH   1   8
TORSDOF 11
ENDMDL
MODEL 10
REMARK VINA RESULT:    -5.209     16.880     19.260
REMARK INTER + INTRA:          -9.108
REMARK INTER:                  -8.519
REMARK INTRA:                  -0.589
REMARK UNBOUND:                -0.701
REMARK SMILES CCCCCCCCC(=O)NCc1ccc(O)c(OC)c1
REMARK SMILES IDX 7 1 6 2 5 3 4 4 3 5 2 6 1 7 8 8 9 9 10 10 11 11 12 13 13 14
REMARK SMILES IDX 21 15 14 16 18 17 15 18 16 19 19 20 20 21 17 22
REMARK H PARENT 11 12 17 23
REMARK Flexibility Score: inf
ROOT
ATOM      1  C   UNL     1      94.249  96.161  76.217  1.00  0.00     0.010 C 
ENDROOT
BRANCH   1   2
ATOM      2  C   UNL     1      93.539  95.160  77.173  1.00  0.00     0.001 C 
BRANCH   2   3
ATOM      3  C   UNL     1      92.004  95.406  77.249  1.00  0.00     0.000 C 
BRANCH   3   4
ATOM      4  C   UNL     1      91.208  94.217  77.857  1.00  0.00    -0.000 C 
BRANCH   4   5
ATOM      5  C   UNL     1      90.250  93.548  76.830  1.00  0.00    -0.000 C 
BRANCH   5   6
ATOM      6  C   UNL     1      90.075  94.394  75.540  1.00  0.00    -0.003 C 
ATOM      7  C   UNL     1      90.042  93.534  74.258  1.00  0.00     0.004 C 
ENDBRANCH   5   6
ENDBRANCH   4   5
ENDBRANCH   3   4
ENDBRANCH   2   3
ENDBRANCH   1   2
BRANCH   1   8
ATOM      8  C   UNL     1      93.911  95.945  74.715  1.00  0.00     0.100 C 
BRANCH   8   9
ATOM      9  C   UNL     1      94.474  97.029  73.874  1.00  0.00     0.220 C 
ATOM     10  O   UNL     1      94.964  96.725  72.760  1.00  0.00    -0.275 OA
ATOM     11  N   UNL     1      94.429  98.328  74.294  1.00  0.00    -0.352 N 
ATOM     12  H   UNL     1      94.093  98.449  75.238  1.00  0.00     0.163 HD
BRANCH  11  13
ATOM     13  C   UNL     1      94.806  99.470  73.520  1.00  0.00     0.151 C 
BRANCH  13  14
ATOM     14  C   UNL     1      93.654 100.280  73.042  1.00  0.00    -0.025 A 
ATOM     15  C   UNL     1      92.974  99.920  71.853  1.00  0.00     0.056 A 
ATOM     16  C   UNL     1      93.219 101.419  73.758  1.00  0.00     0.009 A 
ATOM     17  C   UNL     1      91.866 100.671  71.396  1.00  0.00     0.160 A 
ATOM     18  C   UNL     1      92.117 102.169  73.309  1.00  0.00     0.050 A 
ATOM     19  C   UNL     1      91.444 101.804  72.128  1.00  0.00     0.157 A 
BRANCH  17  20
ATOM     20  O   UNL     1      91.235 100.345  70.222  1.00  0.00    -0.493 OA
ATOM     21  C   UNL     1      89.900  99.837  70.392  1.00  0.00     0.278 C 
ENDBRANCH  17  20
BRANCH  19  22
ATOM     22  O   UNL     1      90.399 102.550  71.688  1.00  0.00    -0.504 OA
ATOM     23  H   UNL     1      90.347 102.495  70.731  1.00  0.00     0.293 HD
ENDBRANCH  19  22
ENDBRANCH  13  14
ENDBRANCH  11  13
ENDBRANCH   8   9
ENDBRANCH   1   8
TORSDOF 11
ENDMDL
