MODEL 1
REMARK VINA RESULT:    -5.542      0.000      0.000
REMARK INTER + INTRA:         -10.416
REMARK INTER:                  -9.105
REMARK INTRA:                  -1.311
REMARK UNBOUND:                -1.311
REMARK SMILES CCCCC[C@H](O)CC(=O)CCc1ccc(O)c(OC)c1
REMARK SMILES IDX 8 1 6 2 7 3 5 5 4 6 3 7 2 8 1 9 9 10 10 11 11 12 12 13 13 14
REMARK SMILES IDX 21 15 14 16 18 17 15 18 16 19 19 20 20 21 17 22
REMARK H PARENT 7 4 17 23
REMARK Flexibility Score: inf
ROOT
ATOM      1  C   UNL     1      98.744  78.136  81.203  1.00  0.00     0.107 C 
ENDROOT
BRANCH   1   2
ATOM      2  C   UNL     1      97.220  78.172  81.338  1.00  0.00     0.121 C 
BRANCH   2   3
ATOM      3  O   UNL     1      96.689  76.859  81.178  1.00  0.00    -0.393 OA
ATOM      4  H   UNL     1      96.861  76.366  81.999  1.00  0.00     0.210 HD
ENDBRANCH   2   3
BRANCH   2   5
ATOM      5  C   UNL     1      96.750  78.746  82.681  1.00  0.00     0.032 C 
BRANCH   5   6
ATOM      6  C   UNL     1      96.067  80.109  82.518  1.00  0.00     0.003 C 
BRANCH   6   7
ATOM      7  C   UNL     1      97.051  81.284  82.508  1.00  0.00    -0.000 C 
BRANCH   7   8
ATOM      8  C   UNL     1      96.444  82.587  81.992  1.00  0.00    -0.003 C 
ATOM      9  C   UNL     1      96.393  83.645  83.083  1.00  0.00     0.004 C 
ENDBRANCH   7   8
ENDBRANCH   6   7
ENDBRANCH   5   6
ENDBRANCH   2   5
ENDBRANCH   1   2
BRANCH   1  10
ATOM     10  C   UNL     1      99.269  79.076  80.130  1.00  0.00     0.135 C 
ATOM     11  O   UNL     1     100.478  79.242  79.970  1.00  0.00    -0.300 OA
BRANCH  10  12
ATOM     12  C   UNL     1      98.230  79.753  79.249  1.00  0.00     0.080 C 
BRANCH  12  13
ATOM     13  C   UNL     1      98.385  81.273  79.172  1.00  0.00     0.043 C 
BRANCH  13  14
ATOM     14  C   UNL     1      97.616  81.890  78.028  1.00  0.00    -0.044 A 
ATOM     15  C   UNL     1      98.209  82.007  76.771  1.00  0.00     0.054 A 
ATOM     16  C   UNL     1      96.312  82.343  78.229  1.00  0.00     0.008 A 
ATOM     17  C   UNL     1      97.497  82.576  75.715  1.00  0.00     0.160 A 
ATOM     18  C   UNL     1      95.600  82.912  77.173  1.00  0.00     0.050 A 
ATOM     19  C   UNL     1      96.193  83.029  75.916  1.00  0.00     0.157 A 
BRANCH  17  20
ATOM     20  O   UNL     1      98.087  82.685  74.491  1.00  0.00    -0.493 OA
ATOM     21  C   UNL     1      99.478  82.380  74.413  1.00  0.00     0.278 C 
ENDBRANCH  17  20
BRANCH  19  22
ATOM     22  O   UNL     1      95.488  83.586  74.893  1.00  0.00    -0.504 OA
ATOM     23  H   UNL     1      95.757  84.515  74.791  1.00  0.00     0.293 HD
ENDBRANCH  19  22
ENDBRANCH  13  14
ENDBRANCH  12  13
ENDBRANCH  10  12
ENDBRANCH   1  10
TORSDOF 12
ENDMDL
MODEL 2
REMARK VINA RESULT:    -5.401     13.090     14.870
REMARK INTER + INTRA:         -10.185
REMARK INTER:                  -9.222
REMARK INTRA:                  -0.963
REMARK UNBOUND:                -1.311
REMARK SMILES CCCCC[C@H](O)CC(=O)CCc1ccc(O)c(OC)c1
REMARK SMILES IDX 8 1 6 2 7 3 5 5 4 6 3 7 2 8 1 9 9 10 10 11 11 12 12 13 13 14
REMARK SMILES IDX 21 15 14 16 18 17 15 18 16 19 19 20 20 21 17 22
REMARK H PARENT 7 4 17 23
REMARK Flexibility Score: inf
ROOT
ATOM      1  C   UNL     1      95.764  96.060  81.081  1.00  0.00     0.107 C 
ENDROOT
BRANCH   1   2
ATOM      2  C   UNL     1      97.163  96.681  81.082  1.00  0.00     0.121 C 
BRANCH   2   3
ATOM      3  O   UNL     1      97.189  97.815  80.218  1.00  0.00    -0.393 OA
ATOM      4  H   UNL     1      97.926  97.696  79.594  1.00  0.00     0.210 HD
ENDBRANCH   2   3
BRANCH   2   5
ATOM      5  C   UNL     1      97.632  97.101  82.480  1.00  0.00     0.032 C 
BRANCH   5   6
ATOM      6  C   UNL     1      99.159  97.211  82.567  1.00  0.00     0.003 C 
BRANCH   6   7
ATOM      7  C   UNL     1      99.885  95.933  82.135  1.00  0.00    -0.000 C 
BRANCH   7   8
ATOM      8  C   UNL     1      99.606  94.735  83.040  1.00  0.00    -0.003 C 
ATOM      9  C   UNL     1      98.893  93.623  82.284  1.00  0.00     0.004 C 
ENDBRANCH   7   8
ENDBRANCH   6   7
ENDBRANCH   5   6
ENDBRANCH   2   5
ENDBRANCH   1   2
BRANCH   1  10
ATOM     10  C   UNL     1      95.738  94.650  80.513  1.00  0.00     0.135 C 
ATOM     11  O   UNL     1      95.630  93.672  81.253  1.00  0.00    -0.300 OA
BRANCH  10  12
ATOM     12  C   UNL     1      95.807  94.523  78.999  1.00  0.00     0.080 C 
BRANCH  12  13
ATOM     13  C   UNL     1      94.912  93.418  78.434  1.00  0.00     0.043 C 
BRANCH  13  14
ATOM     14  C   UNL     1      93.566  93.925  77.973  1.00  0.00    -0.044 A 
ATOM     15  C   UNL     1      92.447  93.096  78.043  1.00  0.00     0.054 A 
ATOM     16  C   UNL     1      93.442  95.223  77.477  1.00  0.00     0.008 A 
ATOM     17  C   UNL     1      91.204  93.565  77.618  1.00  0.00     0.160 A 
ATOM     18  C   UNL     1      92.199  95.693  77.052  1.00  0.00     0.050 A 
ATOM     19  C   UNL     1      91.080  94.863  77.122  1.00  0.00     0.157 A 
BRANCH  17  20
ATOM     20  O   UNL     1      90.118  92.746  77.691  1.00  0.00    -0.493 OA
ATOM     21  C   UNL     1      90.014  91.718  76.708  1.00  0.00     0.278 C 
ENDBRANCH  17  20
BRANCH  19  22
ATOM     22  O   UNL     1      89.872  95.333  76.704  1.00  0.00    -0.504 OA
ATOM     23  H   UNL     1      89.876  95.398  75.734  1.00  0.00     0.293 HD
ENDBRANCH  19  22
ENDBRANCH  13  14
ENDBRANCH  12  13
ENDBRANCH  10  12
ENDBRANCH   1  10
TORSDOF 12
ENDMDL
MODEL 3
REMARK VINA RESULT:    -5.372      2.182      7.689
REMARK INTER + INTRA:         -10.137
REMARK INTER:                  -9.187
REMARK INTRA:                  -0.950
REMARK UNBOUND:                -1.311
REMARK SMILES CCCCC[C@H](O)CC(=O)CCc1ccc(O)c(OC)c1
REMARK SMILES IDX 8 1 6 2 7 3 5 5 4 6 3 7 2 8 1 9 9 10 10 11 11 12 12 13 13 14
REMARK SMILES IDX 21 15 14 16 18 17 15 18 16 19 19 20 20 21 17 22
REMARK H PARENT 7 4 17 23
REMARK Flexibility Score: inf
ROOT
ATOM      1  C   UNL     1      97.187  82.092  76.287  1.00  0.00     0.107 C 
ENDROOT
BRANCH   1   2
ATOM      2  C   UNL     1      96.360  82.935  75.312  1.00  0.00     0.121 C 
BRANCH   2   3
ATOM      3  O   UNL     1      96.303  84.284  75.768  1.00  0.00    -0.393 OA
ATOM      4  H   UNL     1      95.514  84.375  76.331  1.00  0.00     0.210 HD
ENDBRANCH   2   3
BRANCH   2   5
ATOM      5  C   UNL     1      96.909  82.908  73.881  1.00  0.00     0.032 C 
BRANCH   5   6
ATOM      6  C   UNL     1      97.501  81.541  73.515  1.00  0.00     0.003 C 
BRANCH   6   7
ATOM      7  C   UNL     1      98.941  81.622  73.000  1.00  0.00    -0.000 C 
BRANCH   7   8
ATOM      8  C   UNL     1      99.513  83.039  73.000  1.00  0.00    -0.003 C 
ATOM      9  C   UNL     1     100.476  83.248  74.158  1.00  0.00     0.004 C 
ENDBRANCH   7   8
ENDBRANCH   6   7
ENDBRANCH   5   6
ENDBRANCH   2   5
ENDBRANCH   1   2
BRANCH   1  10
ATOM     10  C   UNL     1      96.767  82.274  77.736  1.00  0.00     0.135 C 
ATOM     11  O   UNL     1      95.625  82.634  78.024  1.00  0.00    -0.300 OA
BRANCH  10  12
ATOM     12  C   UNL     1      97.808  81.945  78.795  1.00  0.00     0.080 C 
BRANCH  12  13
ATOM     13  C   UNL     1      97.451  80.731  79.654  1.00  0.00     0.043 C 
BRANCH  13  14
ATOM     14  C   UNL     1      96.898  81.107  81.008  1.00  0.00    -0.044 A 
ATOM     15  C   UNL     1      96.565  80.111  81.926  1.00  0.00     0.054 A 
ATOM     16  C   UNL     1      96.720  82.450  81.340  1.00  0.00     0.008 A 
ATOM     17  C   UNL     1      96.055  80.459  83.177  1.00  0.00     0.160 A 
ATOM     18  C   UNL     1      96.211  82.798  82.591  1.00  0.00     0.050 A 
ATOM     19  C   UNL     1      95.878  81.802  83.510  1.00  0.00     0.157 A 
BRANCH  17  20
ATOM     20  O   UNL     1      95.733  79.478  84.066  1.00  0.00    -0.493 OA
ATOM     21  C   UNL     1      96.185  78.158  83.766  1.00  0.00     0.278 C 
ENDBRANCH  17  20
BRANCH  19  22
ATOM     22  O   UNL     1      95.381  82.154  84.728  1.00  0.00    -0.504 OA
ATOM     23  H   UNL     1      94.448  82.410  84.628  1.00  0.00     0.293 HD
ENDBRANCH  19  22
ENDBRANCH  13  14
ENDBRANCH  12  13
ENDBRANCH  10  12
ENDBRANCH   1  10
TORSDOF 12
ENDMDL
MODEL 4
REMARK VINA RESULT:    -5.355     23.881     26.560
REMARK INTER + INTRA:         -10.109
REMARK INTER:                  -9.247
REMARK INTRA:                  -0.862
REMARK UNBOUND:                -1.311
REMARK SMILES CCCCC[C@H](O)CC(=O)CCc1ccc(O)c(OC)c1
REMARK SMILES IDX 8 1 6 2 7 3 5 5 4 6 3 7 2 8 1 9 9 10 10 11 11 12 12 13 13 14
REMARK SMILES IDX 21 15 14 16 18 17 15 18 16 19 19 20 20 21 17 22
REMARK H PARENT 7 4 17 23
REMARK Flexibility Score: inf
ROOT
ATOM      1  C   UNL     1      75.718  83.502  65.911  1.00  0.00     0.107 C 
ENDROOT
BRANCH   1   2
ATOM      2  C   UNL     1      75.902  82.523  64.749  1.00  0.00     0.121 C 
BRANCH   2   3
ATOM      3  O   UNL     1      76.713  81.427  65.165  1.00  0.00    -0.393 OA
ATOM      4  H   UNL     1      76.139  80.790  65.624  1.00  0.00     0.210 HD
ENDBRANCH   2   3
BRANCH   2   5
ATOM      5  C   UNL     1      74.575  81.990  64.198  1.00  0.00     0.032 C 
BRANCH   5   6
ATOM      6  C   UNL     1      73.633  81.522  65.314  1.00  0.00     0.003 C 
BRANCH   6   7
ATOM      7  C   UNL     1      72.186  81.984  65.120  1.00  0.00    -0.000 C 
BRANCH   7   8
ATOM      8  C   UNL     1      71.233  80.859  64.719  1.00  0.00    -0.003 C 
ATOM      9  C   UNL     1      71.550  80.334  63.327  1.00  0.00     0.004 C 
ENDBRANCH   7   8
ENDBRANCH   6   7
ENDBRANCH   5   6
ENDBRANCH   2   5
ENDBRANCH   1   2
BRANCH   1  10
ATOM     10  C   UNL     1      77.023  84.131  66.373  1.00  0.00     0.135 C 
ATOM     11  O   UNL     1      77.992  83.433  66.670  1.00  0.00    -0.300 OA
BRANCH  10  12
ATOM     12  C   UNL     1      77.074  85.651  66.402  1.00  0.00     0.080 C 
BRANCH  12  13
ATOM     13  C   UNL     1      77.221  86.234  67.809  1.00  0.00     0.043 C 
BRANCH  13  14
ATOM     14  C   UNL     1      76.036  87.070  68.230  1.00  0.00    -0.044 A 
ATOM     15  C   UNL     1      76.125  88.462  68.223  1.00  0.00     0.054 A 
ATOM     16  C   UNL     1      74.851  86.449  68.626  1.00  0.00     0.008 A 
ATOM     17  C   UNL     1      75.029  89.233  68.611  1.00  0.00     0.160 A 
ATOM     18  C   UNL     1      73.755  87.220  69.014  1.00  0.00     0.050 A 
ATOM     19  C   UNL     1      73.844  88.612  69.007  1.00  0.00     0.157 A 
BRANCH  17  20
ATOM     20  O   UNL     1      75.128  90.591  68.600  1.00  0.00    -0.493 OA
ATOM     21  C   UNL     1      75.340  91.216  67.335  1.00  0.00     0.278 C 
ENDBRANCH  17  20
BRANCH  19  22
ATOM     22  O   UNL     1      72.768  89.354  69.388  1.00  0.00    -0.504 OA
ATOM     23  H   UNL     1      72.023  89.160  68.794  1.00  0.00     0.293 HD
ENDBRANCH  19  22
ENDBRANCH  13  14
ENDBRANCH  12  13
ENDBRANCH  10  12
ENDBRANCH   1  10
TORSDOF 12
ENDMDL
MODEL 5
REMARK VINA RESULT:    -5.245     24.499     27.038
REMARK INTER + INTRA:          -9.929
REMARK INTER:                  -8.888
REMARK INTRA:                  -1.041
REMARK UNBOUND:                -1.311
REMARK SMILES CCCCC[C@H](O)CC(=O)CCc1ccc(O)c(OC)c1
REMARK SMILES IDX 8 1 6 2 7 3 5 5 4 6 3 7 2 8 1 9 9 10 10 11 11 12 12 13 13 14
REMARK SMILES IDX 21 15 14 16 18 17 15 18 16 19 19 20 20 21 17 22
REMARK H PARENT 7 4 17 23
REMARK Flexibility Score: inf
ROOT
ATOM      1  C   UNL     1      74.627  82.660  64.277  1.00  0.00     0.107 C 
ENDROOT
BRANCH   1   2
ATOM      2  C   UNL     1      73.936  81.309  64.481  1.00  0.00     0.121 C 
BRANCH   2   3
ATOM      3  O   UNL     1      73.562  81.160  65.849  1.00  0.00    -0.393 OA
ATOM      4  H   UNL     1      74.177  81.691  66.385  1.00  0.00     0.210 HD
ENDBRANCH   2   3
BRANCH   2   5
ATOM      5  C   UNL     1      72.696  81.130  63.597  1.00  0.00     0.032 C 
BRANCH   5   6
ATOM      6  C   UNL     1      71.433  80.858  64.423  1.00  0.00     0.003 C 
BRANCH   6   7
ATOM      7  C   UNL     1      70.486  82.060  64.496  1.00  0.00    -0.000 C 
BRANCH   7   8
ATOM      8  C   UNL     1      70.049  82.409  65.918  1.00  0.00    -0.003 C 
ATOM      9  C   UNL     1      70.332  83.867  66.243  1.00  0.00     0.004 C 
ENDBRANCH   7   8
ENDBRANCH   6   7
ENDBRANCH   5   6
ENDBRANCH   2   5
ENDBRANCH   1   2
BRANCH   1  10
ATOM     10  C   UNL     1      76.020  82.713  64.881  1.00  0.00     0.135 C 
ATOM     11  O   UNL     1      76.580  81.689  65.273  1.00  0.00    -0.300 OA
BRANCH  10  12
ATOM     12  C   UNL     1      76.691  84.078  64.930  1.00  0.00     0.080 C 
BRANCH  12  13
ATOM     13  C   UNL     1      77.348  84.392  66.275  1.00  0.00     0.043 C 
BRANCH  13  14
ATOM     14  C   UNL     1      76.712  85.564  66.985  1.00  0.00    -0.044 A 
ATOM     15  C   UNL     1      75.597  85.366  67.799  1.00  0.00     0.054 A 
ATOM     16  C   UNL     1      77.241  86.845  66.826  1.00  0.00     0.008 A 
ATOM     17  C   UNL     1      75.012  86.449  68.454  1.00  0.00     0.160 A 
ATOM     18  C   UNL     1      76.656  87.929  67.481  1.00  0.00     0.050 A 
ATOM     19  C   UNL     1      75.541  87.730  68.295  1.00  0.00     0.157 A 
BRANCH  17  20
ATOM     20  O   UNL     1      73.922  86.244  69.246  1.00  0.00    -0.493 OA
ATOM     21  C   UNL     1      72.663  86.098  68.592  1.00  0.00     0.278 C 
ENDBRANCH  17  20
BRANCH  19  22
ATOM     22  O   UNL     1      74.978  88.796  68.930  1.00  0.00    -0.504 OA
ATOM     23  H   UNL     1      74.780  88.548  69.850  1.00  0.00     0.293 HD
ENDBRANCH  19  22
ENDBRANCH  13  14
ENDBRANCH  12  13
ENDBRANCH  10  12
ENDBRANCH   1  10
TORSDOF 12
ENDMDL
MODEL 6
REMARK VINA RESULT:    -5.204      3.124      7.960
REMARK INTER + INTRA:          -9.861
REMARK INTER:                  -9.125
REMARK INTRA:                  -0.736
REMARK UNBOUND:                -1.311
REMARK SMILES CCCCC[C@H](O)CC(=O)CCc1ccc(O)c(OC)c1
REMARK SMILES IDX 8 1 6 2 7 3 5 5 4 6 3 7 2 8 1 9 9 10 10 11 11 12 12 13 13 14
REMARK SMILES IDX 21 15 14 16 18 17 15 18 16 19 19 20 20 21 17 22
REMARK H PARENT 7 4 17 23
REMARK Flexibility Score: inf
ROOT
ATOM      1  C   UNL     1      97.798  81.564  76.181  1.00  0.00     0.107 C 
ENDROOT
BRANCH   1   2
ATOM      2  C   UNL     1      97.011  82.225  75.047  1.00  0.00     0.121 C 
BRANCH   2   3
ATOM      3  O   UNL     1      97.336  83.611  74.977  1.00  0.00    -0.393 OA
ATOM      4  H   UNL     1      97.660  83.797  74.079  1.00  0.00     0.210 HD
ENDBRANCH   2   3
BRANCH   2   5
ATOM      5  C   UNL     1      97.269  81.577  73.681  1.00  0.00     0.032 C 
BRANCH   5   6
ATOM      6  C   UNL     1      97.198  80.047  73.746  1.00  0.00     0.003 C 
BRANCH   6   7
ATOM      7  C   UNL     1      96.605  79.413  72.483  1.00  0.00    -0.000 C 
BRANCH   7   8
ATOM      8  C   UNL     1      97.262  79.893  71.191  1.00  0.00    -0.003 C 
ATOM      9  C   UNL     1      97.638  78.725  70.293  1.00  0.00     0.004 C 
ENDBRANCH   7   8
ENDBRANCH   6   7
ENDBRANCH   5   6
ENDBRANCH   2   5
ENDBRANCH   1   2
BRANCH   1  10
ATOM     10  C   UNL     1      97.315  81.978  77.561  1.00  0.00     0.135 C 
ATOM     11  O   UNL     1      96.232  82.543  77.709  1.00  0.00    -0.300 OA
BRANCH  10  12
ATOM     12  C   UNL     1      98.214  81.619  78.735  1.00  0.00     0.080 C 
BRANCH  12  13
ATOM     13  C   UNL     1      97.557  80.679  79.747  1.00  0.00     0.043 C 
BRANCH  13  14
ATOM     14  C   UNL     1      97.341  81.320  81.097  1.00  0.00    -0.044 A 
ATOM     15  C   UNL     1      97.987  80.810  82.223  1.00  0.00     0.054 A 
ATOM     16  C   UNL     1      96.494  82.422  81.217  1.00  0.00     0.008 A 
ATOM     17  C   UNL     1      97.787  81.404  83.470  1.00  0.00     0.160 A 
ATOM     18  C   UNL     1      96.295  83.016  82.464  1.00  0.00     0.050 A 
ATOM     19  C   UNL     1      96.941  82.507  83.590  1.00  0.00     0.157 A 
BRANCH  17  20
ATOM     20  O   UNL     1      98.424  80.897  84.562  1.00  0.00    -0.493 OA
ATOM     21  C   UNL     1      99.496  79.988  84.324  1.00  0.00     0.278 C 
ENDBRANCH  17  20
BRANCH  19  22
ATOM     22  O   UNL     1      96.738  83.095  84.801  1.00  0.00    -0.504 OA
ATOM     23  H   UNL     1      95.842  82.878  85.113  1.00  0.00     0.293 HD
ENDBRANCH  19  22
ENDBRANCH  13  14
ENDBRANCH  12  13
ENDBRANCH  10  12
ENDBRANCH   1  10
TORSDOF 12
ENDMDL
MODEL 7
REMARK VINA RESULT:    -5.180     24.294     26.250
REMARK INTER + INTRA:          -9.821
REMARK INTER:                  -8.599
REMARK INTRA:                  -1.222
REMARK UNBOUND:                -1.311
REMARK SMILES CCCCC[C@H](O)CC(=O)CCc1ccc(O)c(OC)c1
REMARK SMILES IDX 8 1 6 2 7 3 5 5 4 6 3 7 2 8 1 9 9 10 10 11 11 12 12 13 13 14
REMARK SMILES IDX 21 15 14 16 18 17 15 18 16 19 19 20 20 21 17 22
REMARK H PARENT 7 4 17 23
REMARK Flexibility Score: inf
ROOT
ATOM      1  C   UNL     1      75.860  86.875  64.917  1.00  0.00     0.107 C 
ENDROOT
BRANCH   1   2
ATOM      2  C   UNL     1      75.650  85.793  65.979  1.00  0.00     0.121 C 
BRANCH   2   3
ATOM      3  O   UNL     1      74.306  85.320  65.929  1.00  0.00    -0.393 OA
ATOM      4  H   UNL     1      74.186  84.854  65.083  1.00  0.00     0.210 HD
ENDBRANCH   2   3
BRANCH   2   5
ATOM      5  C   UNL     1      76.609  84.606  65.825  1.00  0.00     0.032 C 
BRANCH   5   6
ATOM      6  C   UNL     1      77.291  84.240  67.149  1.00  0.00     0.003 C 
BRANCH   6   7
ATOM      7  C   UNL     1      77.037  85.260  68.264  1.00  0.00    -0.000 C 
BRANCH   7   8
ATOM      8  C   UNL     1      76.352  84.666  69.493  1.00  0.00    -0.003 C 
ATOM      9  C   UNL     1      74.912  85.142  69.609  1.00  0.00     0.004 C 
ENDBRANCH   7   8
ENDBRANCH   6   7
ENDBRANCH   5   6
ENDBRANCH   2   5
ENDBRANCH   1   2
BRANCH   1  10
ATOM     10  C   UNL     1      76.337  88.195  65.498  1.00  0.00     0.135 C 
ATOM     11  O   UNL     1      76.202  89.247  64.874  1.00  0.00    -0.300 OA
BRANCH  10  12
ATOM     12  C   UNL     1      76.941  88.148  66.894  1.00  0.00     0.080 C 
BRANCH  12  13
ATOM     13  C   UNL     1      76.833  89.470  67.655  1.00  0.00     0.043 C 
BRANCH  13  14
ATOM     14  C   UNL     1      75.558  89.590  68.456  1.00  0.00    -0.044 A 
ATOM     15  C   UNL     1      75.316  90.734  69.217  1.00  0.00     0.054 A 
ATOM     16  C   UNL     1      74.621  88.556  68.434  1.00  0.00     0.008 A 
ATOM     17  C   UNL     1      74.138  90.843  69.955  1.00  0.00     0.160 A 
ATOM     18  C   UNL     1      73.443  88.666  69.172  1.00  0.00     0.050 A 
ATOM     19  C   UNL     1      73.201  89.809  69.933  1.00  0.00     0.157 A 
BRANCH  17  20
ATOM     20  O   UNL     1      73.913  91.965  70.695  1.00  0.00    -0.493 OA
ATOM     21  C   UNL     1      74.411  93.196  70.174  1.00  0.00     0.278 C 
ENDBRANCH  17  20
BRANCH  19  22
ATOM     22  O   UNL     1      72.047  89.905  70.650  1.00  0.00    -0.504 OA
ATOM     23  H   UNL     1      71.304  90.042  70.037  1.00  0.00     0.293 HD
ENDBRANCH  19  22
ENDBRANCH  13  14
ENDBRANCH  12  13
ENDBRANCH  10  12
ENDBRANCH   1  10
TORSDOF 12
ENDMDL
MODEL 8
REMARK VINA RESULT:    -5.080     20.023     23.953
REMARK INTER + INTRA:          -9.657
REMARK INTER:                  -8.480
REMARK INTRA:                  -1.177
REMARK UNBOUND:                -1.311
REMARK SMILES CCCCC[C@H](O)CC(=O)CCc1ccc(O)c(OC)c1
REMARK SMILES IDX 8 1 6 2 7 3 5 5 4 6 3 7 2 8 1 9 9 10 10 11 11 12 12 13 13 14
REMARK SMILES IDX 21 15 14 16 18 17 15 18 16 19 19 20 20 21 17 22
REMARK H PARENT 7 4 17 23
REMARK Flexibility Score: inf
ROOT
ATOM      1  C   UNL     1      88.146  99.432  67.682  1.00  0.00     0.107 C 
ENDROOT
BRANCH   1   2
ATOM      2  C   UNL     1      87.466 100.058  66.462  1.00  0.00     0.121 C 
BRANCH   2   3
ATOM      3  O   UNL     1      86.148  99.533  66.321  1.00  0.00    -0.393 OA
ATOM      4  H   UNL     1      85.609  99.882  67.053  1.00  0.00     0.210 HD
ENDBRANCH   2   3
BRANCH   2   5
ATOM      5  C   UNL     1      87.395 101.588  66.533  1.00  0.00     0.032 C 
BRANCH   5   6
ATOM      6  C   UNL     1      88.778 102.236  66.390  1.00  0.00     0.003 C 
BRANCH   6   7
ATOM      7  C   UNL     1      89.222 102.999  67.642  1.00  0.00    -0.000 C 
BRANCH   7   8
ATOM      8  C   UNL     1      89.029 104.511  67.537  1.00  0.00    -0.003 C 
ATOM      9  C   UNL     1      88.990 104.966  66.087  1.00  0.00     0.004 C 
ENDBRANCH   7   8
ENDBRANCH   6   7
ENDBRANCH   5   6
ENDBRANCH   2   5
ENDBRANCH   1   2
BRANCH   1  10
ATOM     10  C   UNL     1      89.456  98.739  67.343  1.00  0.00     0.135 C 
ATOM     11  O   UNL     1      89.865  98.690  66.183  1.00  0.00    -0.300 OA
BRANCH  10  12
ATOM     12  C   UNL     1      90.241  98.158  68.509  1.00  0.00     0.080 C 
BRANCH  12  13
ATOM     13  C   UNL     1      89.654  98.504  69.879  1.00  0.00     0.043 C 
BRANCH  13  14
ATOM     14  C   UNL     1      90.439  99.569  70.607  1.00  0.00    -0.044 A 
ATOM     15  C   UNL     1      91.697  99.273  71.132  1.00  0.00     0.054 A 
ATOM     16  C   UNL     1      89.905 100.849  70.755  1.00  0.00     0.008 A 
ATOM     17  C   UNL     1      92.421 100.258  71.804  1.00  0.00     0.160 A 
ATOM     18  C   UNL     1      90.629 101.835  71.427  1.00  0.00     0.050 A 
ATOM     19  C   UNL     1      91.887 101.538  71.952  1.00  0.00     0.157 A 
BRANCH  17  20
ATOM     20  O   UNL     1      93.648  99.957  72.313  1.00  0.00    -0.493 OA
ATOM     21  C   UNL     1      93.687  99.068  73.428  1.00  0.00     0.278 C 
ENDBRANCH  17  20
BRANCH  19  22
ATOM     22  O   UNL     1      92.585 102.508  72.606  1.00  0.00    -0.504 OA
ATOM     23  H   UNL     1      93.222 102.088  73.209  1.00  0.00     0.293 HD
ENDBRANCH  19  22
ENDBRANCH  13  14
ENDBRANCH  12  13
ENDBRANCH  10  12
ENDBRANCH   1  10
TORSDOF 12
ENDMDL
MODEL 9
REMARK VINA RESULT:    -5.027     13.261     17.024
REMARK INTER + INTRA:          -9.570
REMARK INTER:                  -8.637
REMARK INTRA:                  -0.933
REMARK UNBOUND:                -1.311
REMARK SMILES CCCCC[C@H](O)CC(=O)CCc1ccc(O)c(OC)c1
REMARK SMILES IDX 8 1 6 2 7 3 5 5 4 6 3 7 2 8 1 9 9 10 10 11 11 12 12 13 13 14
REMARK SMILES IDX 21 15 14 16 18 17 15 18 16 19 19 20 20 21 17 22
REMARK H PARENT 7 4 17 23
REMARK Flexibility Score: inf
ROOT
ATOM      1  C   UNL     1      95.648  96.878  73.004  1.00  0.00     0.107 C 
ENDROOT
BRANCH   1   2
ATOM      2  C   UNL     1      96.540  98.099  73.243  1.00  0.00     0.121 C 
BRANCH   2   3
ATOM      3  O   UNL     1      96.083  98.814  74.389  1.00  0.00    -0.393 OA
ATOM      4  H   UNL     1      95.424  99.465  74.090  1.00  0.00     0.210 HD
ENDBRANCH   2   3
BRANCH   2   5
ATOM      5  C   UNL     1      98.018  97.736  73.431  1.00  0.00     0.032 C 
BRANCH   5   6
ATOM      6  C   UNL     1      98.798  97.792  72.112  1.00  0.00     0.003 C 
BRANCH   6   7
ATOM      7  C   UNL     1      97.949  98.259  70.925  1.00  0.00    -0.000 C 
BRANCH   7   8
ATOM      8  C   UNL     1      97.787  97.202  69.835  1.00  0.00    -0.003 C 
ATOM      9  C   UNL     1      96.531  97.443  69.011  1.00  0.00     0.004 C 
ENDBRANCH   7   8
ENDBRANCH   6   7
ENDBRANCH   5   6
ENDBRANCH   2   5
ENDBRANCH   1   2
BRANCH   1  10
ATOM     10  C   UNL     1      94.614  96.672  74.099  1.00  0.00     0.135 C 
ATOM     11  O   UNL     1      93.638  97.416  74.195  1.00  0.00    -0.300 OA
BRANCH  10  12
ATOM     12  C   UNL     1      94.827  95.484  75.024  1.00  0.00     0.080 C 
BRANCH  12  13
ATOM     13  C   UNL     1      95.515  95.846  76.342  1.00  0.00     0.043 C 
BRANCH  13  14
ATOM     14  C   UNL     1      95.208  94.875  77.457  1.00  0.00    -0.044 A 
ATOM     15  C   UNL     1      93.924  94.346  77.588  1.00  0.00     0.054 A 
ATOM     16  C   UNL     1      96.210  94.506  78.355  1.00  0.00     0.008 A 
ATOM     17  C   UNL     1      93.643  93.448  78.617  1.00  0.00     0.160 A 
ATOM     18  C   UNL     1      95.928  93.608  79.385  1.00  0.00     0.050 A 
ATOM     19  C   UNL     1      94.644  93.079  79.516  1.00  0.00     0.157 A 
BRANCH  17  20
ATOM     20  O   UNL     1      92.385  92.938  78.736  1.00  0.00    -0.493 OA
ATOM     21  C   UNL     1      91.411  93.391  77.798  1.00  0.00     0.278 C 
ENDBRANCH  17  20
BRANCH  19  22
ATOM     22  O   UNL     1      94.381  92.203  80.525  1.00  0.00    -0.504 OA
ATOM     23  H   UNL     1      93.894  92.667  81.228  1.00  0.00     0.293 HD
ENDBRANCH  19  22
ENDBRANCH  13  14
ENDBRANCH  12  13
ENDBRANCH  10  12
ENDBRANCH   1  10
TORSDOF 12
ENDMDL
MODEL 10
REMARK VINA RESULT:    -4.950     23.782     26.684
REMARK INTER + INTRA:          -9.444
REMARK INTER:                  -7.762
REMARK INTRA:                  -1.681
REMARK UNBOUND:                -1.311
REMARK SMILES CCCCC[C@H](O)CC(=O)CCc1ccc(O)c(OC)c1
REMARK SMILES IDX 8 1 6 2 7 3 5 5 4 6 3 7 2 8 1 9 9 10 10 11 11 12 12 13 13 14
REMARK SMILES IDX 21 15 14 16 18 17 15 18 16 19 19 20 20 21 17 22
REMARK H PARENT 7 4 17 23
REMARK Flexibility Score: inf
ROOT
ATOM      1  C   UNL     1      75.676  86.602  63.801  1.00  0.00     0.107 C 
ENDROOT
BRANCH   1   2
ATOM      2  C   UNL     1      75.126  85.399  64.570  1.00  0.00     0.121 C 
BRANCH   2   3
ATOM      3  O   UNL     1      73.749  85.210  64.252  1.00  0.00    -0.393 OA
ATOM      4  H   UNL     1      73.446  84.405  64.707  1.00  0.00     0.210 HD
ENDBRANCH   2   3
BRANCH   2   5
ATOM      5  C   UNL     1      75.892  84.101  64.283  1.00  0.00     0.032 C 
BRANCH   5   6
ATOM      6  C   UNL     1      76.094  83.259  65.549  1.00  0.00     0.003 C 
BRANCH   6   7
ATOM      7  C   UNL     1      74.908  82.343  65.863  1.00  0.00    -0.000 C 
BRANCH   7   8
ATOM      8  C   UNL     1      74.356  81.613  64.639  1.00  0.00    -0.003 C 
ATOM      9  C   UNL     1      72.886  81.268  64.816  1.00  0.00     0.004 C 
ENDBRANCH   7   8
ENDBRANCH   6   7
ENDBRANCH   5   6
ENDBRANCH   2   5
ENDBRANCH   1   2
BRANCH   1  10
ATOM     10  C   UNL     1      75.247  87.934  64.393  1.00  0.00     0.135 C 
ATOM     11  O   UNL     1      74.056  88.232  64.486  1.00  0.00    -0.300 OA
BRANCH  10  12
ATOM     12  C   UNL     1      76.356  88.845  64.899  1.00  0.00     0.080 C 
BRANCH  12  13
ATOM     13  C   UNL     1      76.311  89.088  66.409  1.00  0.00     0.043 C 
BRANCH  13  14
ATOM     14  C   UNL     1      76.262  87.811  67.213  1.00  0.00    -0.044 A 
ATOM     15  C   UNL     1      75.109  87.478  67.924  1.00  0.00     0.054 A 
ATOM     16  C   UNL     1      77.370  86.965  67.245  1.00  0.00     0.008 A 
ATOM     17  C   UNL     1      75.065  86.298  68.666  1.00  0.00     0.160 A 
ATOM     18  C   UNL     1      77.326  85.784  67.987  1.00  0.00     0.050 A 
ATOM     19  C   UNL     1      76.173  85.451  68.698  1.00  0.00     0.157 A 
BRANCH  17  20
ATOM     20  O   UNL     1      73.933  85.983  69.357  1.00  0.00    -0.493 OA
ATOM     21  C   UNL     1      72.692  86.128  68.668  1.00  0.00     0.278 C 
ENDBRANCH  17  20
BRANCH  19  22
ATOM     22  O   UNL     1      76.141  84.296  69.419  1.00  0.00    -0.504 OA
ATOM     23  H   UNL     1      76.766  84.369  70.161  1.00  0.00     0.293 HD
ENDBRANCH  19  22
ENDBRANCH  13  14
ENDBRANCH  12  13
ENDBRANCH  10  12
ENDBRANCH   1  10
TORSDOF 12
ENDMDL
