MODEL 1
REMARK VINA RESULT:    -6.083      0.000      0.000
REMARK INTER + INTRA:         -10.189
REMARK INTER:                  -9.817
REMARK INTRA:                  -0.372
REMARK UNBOUND:                -0.372
REMARK SMILES CCCCCCCCC(=O)NCc1ccc(O)c(OC)c1
REMARK SMILES IDX 7 1 6 2 5 3 4 4 3 5 2 6 1 7 8 8 9 9 10 10 11 11 12 13 13 14
REMARK SMILES IDX 21 15 14 16 18 17 15 18 16 19 19 20 20 21 17 22
REMARK H PARENT 11 12 17 23
REMARK Flexibility Score: inf
ROOT
ATOM      1  C   UNL     1      94.589  96.894  76.088  1.00  0.00     0.010 C 
ENDROOT
BRANCH   1   2
ATOM      2  C   UNL     1      94.046  97.143  74.651  1.00  0.00     0.001 C 
BRANCH   2   3
ATOM      3  C   UNL     1      95.156  97.000  73.569  1.00  0.00     0.000 C 
BRANCH   3   4
ATOM      4  C   UNL     1      95.849  98.343  73.201  1.00  0.00    -0.000 C 
BRANCH   4   5
ATOM      5  C   UNL     1      95.837  98.625  71.671  1.00  0.00    -0.000 C 
BRANCH   5   6
ATOM      6  C   UNL     1      95.524  97.355  70.834  1.00  0.00    -0.003 C 
ATOM      7  C   UNL     1      96.408  97.237  69.572  1.00  0.00     0.004 C 
ENDBRANCH   5   6
ENDBRANCH   4   5
ENDBRANCH   3   4
ENDBRANCH   2   3
ENDBRANCH   1   2
BRANCH   1   8
ATOM      8  C   UNL     1      93.534  97.118  77.207  1.00  0.00     0.100 C 
BRANCH   8   9
ATOM      9  C   UNL     1      92.809  95.864  77.524  1.00  0.00     0.220 C 
ATOM     10  O   UNL     1      93.343  95.052  78.317  1.00  0.00    -0.275 OA
ATOM     11  N   UNL     1      91.578  95.619  76.985  1.00  0.00    -0.352 N 
ATOM     12  H   UNL     1      91.283  96.294  76.296  1.00  0.00     0.163 HD
BRANCH  11  13
ATOM     13  C   UNL     1      90.723  94.522  77.320  1.00  0.00     0.151 C 
BRANCH  13  14
ATOM     14  C   UNL     1      90.502  93.568  76.201  1.00  0.00    -0.025 A 
ATOM     15  C   UNL     1      89.943  92.292  76.452  1.00  0.00     0.056 A 
ATOM     16  C   UNL     1      90.847  93.913  74.873  1.00  0.00     0.009 A 
ATOM     17  C   UNL     1      89.712  91.381  75.395  1.00  0.00     0.160 A 
ATOM     18  C   UNL     1      90.618  93.012  73.818  1.00  0.00     0.050 A 
ATOM     19  C   UNL     1      90.059  91.745  74.075  1.00  0.00     0.157 A 
BRANCH  17  20
ATOM     20  O   UNL     1      89.210  90.129  75.646  1.00  0.00    -0.493 OA
ATOM     21  C   UNL     1      90.148  89.062  75.421  1.00  0.00     0.278 C 
ENDBRANCH  17  20
BRANCH  19  22
ATOM     22  O   UNL     1      89.868  90.872  73.053  1.00  0.00    -0.504 OA
ATOM     23  H   UNL     1      90.714  90.652  72.657  1.00  0.00     0.293 HD
ENDBRANCH  19  22
ENDBRANCH  13  14
ENDBRANCH  11  13
ENDBRANCH   8   9
ENDBRANCH   1   8
TORSDOF 11
ENDMDL
MODEL 2
REMARK VINA RESULT:    -6.034     26.823     31.420
REMARK INTER + INTRA:         -10.110
REMARK INTER:                  -9.506
REMARK INTRA:                  -0.605
REMARK UNBOUND:                -0.372
REMARK SMILES CCCCCCCCC(=O)NCc1ccc(O)c(OC)c1
REMARK SMILES IDX 7 1 6 2 5 3 4 4 3 5 2 6 1 7 8 8 9 9 10 10 11 11 12 13 13 14
REMARK SMILES IDX 21 15 14 16 18 17 15 18 16 19 19 20 20 21 17 22
REMARK H PARENT 11 12 17 23
REMARK Flexibility Score: inf
ROOT
ATOM      1  C   UNL     1      79.065  65.219  70.202  1.00  0.00     0.010 C 
ENDROOT
BRANCH   1   2
ATOM      2  C   UNL     1      78.326  64.036  69.512  1.00  0.00     0.001 C 
BRANCH   2   3
ATOM      3  C   UNL     1      78.323  64.168  67.960  1.00  0.00     0.000 C 
BRANCH   3   4
ATOM      4  C   UNL     1      77.040  63.606  67.286  1.00  0.00    -0.000 C 
BRANCH   4   5
ATOM      5  C   UNL     1      76.451  64.571  66.218  1.00  0.00    -0.000 C 
BRANCH   5   6
ATOM      6  C   UNL     1      75.049  65.110  66.610  1.00  0.00    -0.003 C 
ATOM      7  C   UNL     1      74.646  64.740  68.054  1.00  0.00     0.004 C 
ENDBRANCH   5   6
ENDBRANCH   4   5
ENDBRANCH   3   4
ENDBRANCH   2   3
ENDBRANCH   1   2
BRANCH   1   8
ATOM      8  C   UNL     1      80.530  64.894  70.608  1.00  0.00     0.100 C 
BRANCH   8   9
ATOM      9  C   UNL     1      80.891  65.543  71.891  1.00  0.00     0.220 C 
ATOM     10  O   UNL     1      79.998  66.162  72.517  1.00  0.00    -0.275 OA
ATOM     11  N   UNL     1      82.159  65.440  72.388  1.00  0.00    -0.352 N 
ATOM     12  H   UNL     1      82.817  64.997  71.764  1.00  0.00     0.163 HD
BRANCH  11  13
ATOM     13  C   UNL     1      82.593  65.898  73.673  1.00  0.00     0.151 C 
BRANCH  13  14
ATOM     14  C   UNL     1      83.536  67.046  73.615  1.00  0.00    -0.025 A 
ATOM     15  C   UNL     1      84.385  67.327  74.713  1.00  0.00     0.056 A 
ATOM     16  C   UNL     1      83.600  67.877  72.473  1.00  0.00     0.009 A 
ATOM     17  C   UNL     1      85.298  68.405  74.666  1.00  0.00     0.160 A 
ATOM     18  C   UNL     1      84.507  68.950  72.420  1.00  0.00     0.050 A 
ATOM     19  C   UNL     1      85.351  69.222  73.514  1.00  0.00     0.157 A 
BRANCH  17  20
ATOM     20  O   UNL     1      86.090  68.700  75.747  1.00  0.00    -0.493 OA
ATOM     21  C   UNL     1      87.271  67.886  75.852  1.00  0.00     0.278 C 
ENDBRANCH  17  20
BRANCH  19  22
ATOM     22  O   UNL     1      86.204  70.277  73.464  1.00  0.00    -0.504 OA
ATOM     23  H   UNL     1      86.469  70.517  74.355  1.00  0.00     0.293 HD
ENDBRANCH  19  22
ENDBRANCH  13  14
ENDBRANCH  11  13
ENDBRANCH   8   9
ENDBRANCH   1   8
TORSDOF 11
ENDMDL
MODEL 3
REMARK VINA RESULT:    -5.978     27.433     31.500
REMARK INTER + INTRA:         -10.019
REMARK INTER:                  -9.191
REMARK INTRA:                  -0.828
REMARK UNBOUND:                -0.372
REMARK SMILES CCCCCCCCC(=O)NCc1ccc(O)c(OC)c1
REMARK SMILES IDX 7 1 6 2 5 3 4 4 3 5 2 6 1 7 8 8 9 9 10 10 11 11 12 13 13 14
REMARK SMILES IDX 21 15 14 16 18 17 15 18 16 19 19 20 20 21 17 22
REMARK H PARENT 11 12 17 23
REMARK Flexibility Score: inf
ROOT
ATOM      1  C   UNL     1      79.413  65.564  69.934  1.00  0.00     0.010 C 
ENDROOT
BRANCH   1   2
ATOM      2  C   UNL     1      78.747  64.171  69.742  1.00  0.00     0.001 C 
BRANCH   2   3
ATOM      3  C   UNL     1      78.787  63.697  68.259  1.00  0.00     0.000 C 
BRANCH   3   4
ATOM      4  C   UNL     1      77.399  63.716  67.558  1.00  0.00    -0.000 C 
BRANCH   4   5
ATOM      5  C   UNL     1      76.267  64.251  68.481  1.00  0.00    -0.000 C 
BRANCH   5   6
ATOM      6  C   UNL     1      75.719  65.626  68.014  1.00  0.00    -0.003 C 
ATOM      7  C   UNL     1      76.156  65.992  66.579  1.00  0.00     0.004 C 
ENDBRANCH   5   6
ENDBRANCH   4   5
ENDBRANCH   3   4
ENDBRANCH   2   3
ENDBRANCH   1   2
BRANCH   1   8
ATOM      8  C   UNL     1      79.780  65.889  71.409  1.00  0.00     0.100 C 
BRANCH   8   9
ATOM      9  C   UNL     1      81.142  65.408  71.745  1.00  0.00     0.220 C 
ATOM     10  O   UNL     1      81.932  65.153  70.805  1.00  0.00    -0.275 OA
ATOM     11  N   UNL     1      81.529  65.275  73.048  1.00  0.00    -0.352 N 
ATOM     12  H   UNL     1      80.790  65.422  73.720  1.00  0.00     0.163 HD
BRANCH  11  13
ATOM     13  C   UNL     1      82.849  64.959  73.499  1.00  0.00     0.151 C 
BRANCH  13  14
ATOM     14  C   UNL     1      83.658  66.149  73.875  1.00  0.00    -0.025 A 
ATOM     15  C   UNL     1      84.279  66.933  72.874  1.00  0.00     0.056 A 
ATOM     16  C   UNL     1      83.823  66.517  75.230  1.00  0.00     0.009 A 
ATOM     17  C   UNL     1      85.036  68.078  73.215  1.00  0.00     0.160 A 
ATOM     18  C   UNL     1      84.574  67.655  75.576  1.00  0.00     0.050 A 
ATOM     19  C   UNL     1      85.188  68.432  74.574  1.00  0.00     0.157 A 
BRANCH  17  20
ATOM     20  O   UNL     1      85.673  68.812  72.246  1.00  0.00    -0.493 OA
ATOM     21  C   UNL     1      86.876  68.205  71.743  1.00  0.00     0.278 C 
ENDBRANCH  17  20
BRANCH  19  22
ATOM     22  O   UNL     1      85.933  69.512  74.920  1.00  0.00    -0.504 OA
ATOM     23  H   UNL     1      85.377  70.156  75.365  1.00  0.00     0.293 HD
ENDBRANCH  19  22
ENDBRANCH  13  14
ENDBRANCH  11  13
ENDBRANCH   8   9
ENDBRANCH   1   8
TORSDOF 11
ENDMDL
MODEL 4
REMARK VINA RESULT:    -5.874      4.534      5.914
REMARK INTER + INTRA:          -9.851
REMARK INTER:                  -9.412
REMARK INTRA:                  -0.439
REMARK UNBOUND:                -0.372
REMARK SMILES CCCCCCCCC(=O)NCc1ccc(O)c(OC)c1
REMARK SMILES IDX 7 1 6 2 5 3 4 4 3 5 2 6 1 7 8 8 9 9 10 10 11 11 12 13 13 14
REMARK SMILES IDX 21 15 14 16 18 17 15 18 16 19 19 20 20 21 17 22
REMARK H PARENT 11 12 17 23
REMARK Flexibility Score: inf
ROOT
ATOM      1  C   UNL     1      93.232  99.685  71.922  1.00  0.00     0.010 C 
ENDROOT
BRANCH   1   2
ATOM      2  C   UNL     1      92.259 100.040  70.761  1.00  0.00     0.001 C 
BRANCH   2   3
ATOM      3  C   UNL     1      90.878 100.537  71.281  1.00  0.00     0.000 C 
BRANCH   3   4
ATOM      4  C   UNL     1      89.671 100.015  70.451  1.00  0.00    -0.000 C 
BRANCH   4   5
ATOM      5  C   UNL     1      89.049 101.113  69.541  1.00  0.00    -0.000 C 
BRANCH   5   6
ATOM      6  C   UNL     1      87.829 101.812  70.200  1.00  0.00    -0.003 C 
ATOM      7  C   UNL     1      86.744 102.214  69.177  1.00  0.00     0.004 C 
ENDBRANCH   5   6
ENDBRANCH   4   5
ENDBRANCH   3   4
ENDBRANCH   2   3
ENDBRANCH   1   2
BRANCH   1   8
ATOM      8  C   UNL     1      94.244  98.558  71.574  1.00  0.00     0.100 C 
BRANCH   8   9
ATOM      9  C   UNL     1      94.878  98.004  72.794  1.00  0.00     0.220 C 
ATOM     10  O   UNL     1      96.126  98.070  72.899  1.00  0.00    -0.275 OA
ATOM     11  N   UNL     1      94.114  97.465  73.789  1.00  0.00    -0.352 N 
ATOM     12  H   UNL     1      93.133  97.383  73.565  1.00  0.00     0.163 HD
BRANCH  11  13
ATOM     13  C   UNL     1      94.591  97.030  75.067  1.00  0.00     0.151 C 
BRANCH  13  14
ATOM     14  C   UNL     1      93.653  96.124  75.782  1.00  0.00    -0.025 A 
ATOM     15  C   UNL     1      92.875  95.188  75.059  1.00  0.00     0.056 A 
ATOM     16  C   UNL     1      93.518  96.181  77.188  1.00  0.00     0.009 A 
ATOM     17  C   UNL     1      91.992  94.309  75.726  1.00  0.00     0.160 A 
ATOM     18  C   UNL     1      92.642  95.309  77.859  1.00  0.00     0.050 A 
ATOM     19  C   UNL     1      91.873  94.378  77.133  1.00  0.00     0.157 A 
BRANCH  17  20
ATOM     20  O   UNL     1      91.209  93.432  75.020  1.00  0.00    -0.493 OA
ATOM     21  C   UNL     1      89.939  93.972  74.615  1.00  0.00     0.278 C 
ENDBRANCH  17  20
BRANCH  19  22
ATOM     22  O   UNL     1      91.011  93.559  77.787  1.00  0.00    -0.504 OA
ATOM     23  H   UNL     1      91.013  93.773  78.722  1.00  0.00     0.293 HD
ENDBRANCH  19  22
ENDBRANCH  13  14
ENDBRANCH  11  13
ENDBRANCH   8   9
ENDBRANCH   1   8
TORSDOF 11
ENDMDL
MODEL 5
REMARK VINA RESULT:    -5.821      4.311      9.101
REMARK INTER + INTRA:          -9.766
REMARK INTER:                  -9.271
REMARK INTRA:                  -0.495
REMARK UNBOUND:                -0.372
REMARK SMILES CCCCCCCCC(=O)NCc1ccc(O)c(OC)c1
REMARK SMILES IDX 7 1 6 2 5 3 4 4 3 5 2 6 1 7 8 8 9 9 10 10 11 11 12 13 13 14
REMARK SMILES IDX 21 15 14 16 18 17 15 18 16 19 19 20 20 21 17 22
REMARK H PARENT 11 12 17 23
REMARK Flexibility Score: inf
ROOT
ATOM      1  C   UNL     1      92.279  95.432  76.603  1.00  0.00     0.010 C 
ENDROOT
BRANCH   1   2
ATOM      2  C   UNL     1      91.409  94.588  77.579  1.00  0.00     0.001 C 
BRANCH   2   3
ATOM      3  C   UNL     1      90.108  94.062  76.904  1.00  0.00     0.000 C 
BRANCH   3   4
ATOM      4  C   UNL     1      90.217  92.600  76.388  1.00  0.00    -0.000 C 
BRANCH   4   5
ATOM      5  C   UNL     1      90.496  92.522  74.860  1.00  0.00    -0.000 C 
BRANCH   5   6
ATOM      6  C   UNL     1      90.354  91.080  74.301  1.00  0.00    -0.003 C 
ATOM      7  C   UNL     1      88.885  90.674  74.054  1.00  0.00     0.004 C 
ENDBRANCH   5   6
ENDBRANCH   4   5
ENDBRANCH   3   4
ENDBRANCH   2   3
ENDBRANCH   1   2
BRANCH   1   8
ATOM      8  C   UNL     1      92.344  96.943  76.963  1.00  0.00     0.100 C 
BRANCH   8   9
ATOM      9  C   UNL     1      93.746  97.408  77.089  1.00  0.00     0.220 C 
ATOM     10  O   UNL     1      94.292  97.929  76.087  1.00  0.00    -0.275 OA
ATOM     11  N   UNL     1      94.411  97.296  78.276  1.00  0.00    -0.352 N 
ATOM     12  H   UNL     1      93.910  96.785  78.989  1.00  0.00     0.163 HD
BRANCH  11  13
ATOM     13  C   UNL     1      95.707  97.831  78.563  1.00  0.00     0.151 C 
BRANCH  13  14
ATOM     14  C   UNL     1      96.285  97.352  79.847  1.00  0.00    -0.025 A 
ATOM     15  C   UNL     1      96.734  98.280  80.816  1.00  0.00     0.056 A 
ATOM     16  C   UNL     1      96.400  95.969  80.121  1.00  0.00     0.009 A 
ATOM     17  C   UNL     1      97.270  97.840  82.048  1.00  0.00     0.160 A 
ATOM     18  C   UNL     1      96.931  95.525  81.345  1.00  0.00     0.050 A 
ATOM     19  C   UNL     1      97.373  96.455  82.306  1.00  0.00     0.157 A 
BRANCH  17  20
ATOM     20  O   UNL     1      97.743  98.741  82.969  1.00  0.00    -0.493 OA
ATOM     21  C   UNL     1      98.145 100.002  82.406  1.00  0.00     0.278 C 
ENDBRANCH  17  20
BRANCH  19  22
ATOM     22  O   UNL     1      97.910  96.015  83.474  1.00  0.00    -0.504 OA
ATOM     23  H   UNL     1      98.311  96.753  83.939  1.00  0.00     0.293 HD
ENDBRANCH  19  22
ENDBRANCH  13  14
ENDBRANCH  11  13
ENDBRANCH   8   9
ENDBRANCH   1   8
TORSDOF 11
ENDMDL
MODEL 6
REMARK VINA RESULT:    -5.696      3.569      7.858
REMARK INTER + INTRA:          -9.565
REMARK INTER:                  -8.948
REMARK INTRA:                  -0.617
REMARK UNBOUND:                -0.372
REMARK SMILES CCCCCCCCC(=O)NCc1ccc(O)c(OC)c1
REMARK SMILES IDX 7 1 6 2 5 3 4 4 3 5 2 6 1 7 8 8 9 9 10 10 11 11 12 13 13 14
REMARK SMILES IDX 21 15 14 16 18 17 15 18 16 19 19 20 20 21 17 22
REMARK H PARENT 11 12 17 23
REMARK Flexibility Score: inf
ROOT
ATOM      1  C   UNL     1      93.500  95.510  77.424  1.00  0.00     0.010 C 
ENDROOT
BRANCH   1   2
ATOM      2  C   UNL     1      92.287  94.852  78.142  1.00  0.00     0.001 C 
BRANCH   2   3
ATOM      3  C   UNL     1      91.075  94.651  77.186  1.00  0.00     0.000 C 
BRANCH   3   4
ATOM      4  C   UNL     1      90.189  93.425  77.546  1.00  0.00    -0.000 C 
BRANCH   4   5
ATOM      5  C   UNL     1      89.999  92.449  76.350  1.00  0.00    -0.000 C 
BRANCH   5   6
ATOM      6  C   UNL     1      90.760  92.911  75.078  1.00  0.00    -0.003 C 
ATOM      7  C   UNL     1      89.828  93.520  74.008  1.00  0.00     0.004 C 
ENDBRANCH   5   6
ENDBRANCH   4   5
ENDBRANCH   3   4
ENDBRANCH   2   3
ENDBRANCH   1   2
BRANCH   1   8
ATOM      8  C   UNL     1      93.310  97.023  77.124  1.00  0.00     0.100 C 
BRANCH   8   9
ATOM      9  C   UNL     1      94.484  97.585  76.414  1.00  0.00     0.220 C 
ATOM     10  O   UNL     1      95.279  98.309  77.059  1.00  0.00    -0.275 OA
ATOM     11  N   UNL     1      94.703  97.293  75.098  1.00  0.00    -0.352 N 
ATOM     12  H   UNL     1      93.959  96.775  74.655  1.00  0.00     0.163 HD
BRANCH  11  13
ATOM     13  C   UNL     1      95.865  97.655  74.345  1.00  0.00     0.151 C 
BRANCH  13  14
ATOM     14  C   UNL     1      95.589  97.930  72.909  1.00  0.00    -0.025 A 
ATOM     15  C   UNL     1      96.359  97.302  71.902  1.00  0.00     0.056 A 
ATOM     16  C   UNL     1      94.561  98.823  72.526  1.00  0.00     0.009 A 
ATOM     17  C   UNL     1      96.096  97.541  70.533  1.00  0.00     0.160 A 
ATOM     18  C   UNL     1      94.294  99.064  71.166  1.00  0.00     0.050 A 
ATOM     19  C   UNL     1      95.063  98.433  70.169  1.00  0.00     0.157 A 
BRANCH  17  20
ATOM     20  O   UNL     1      96.871  96.963  69.559  1.00  0.00    -0.493 OA
ATOM     21  C   UNL     1      98.248  97.379  69.579  1.00  0.00     0.278 C 
ENDBRANCH  17  20
BRANCH  19  22
ATOM     22  O   UNL     1      94.816  98.694  68.860  1.00  0.00    -0.504 OA
ATOM     23  H   UNL     1      95.423  98.189  68.313  1.00  0.00     0.293 HD
ENDBRANCH  19  22
ENDBRANCH  13  14
ENDBRANCH  11  13
ENDBRANCH   8   9
ENDBRANCH   1   8
TORSDOF 11
ENDMDL
MODEL 7
REMARK VINA RESULT:    -5.687      4.124      8.321
REMARK INTER + INTRA:          -9.550
REMARK INTER:                  -8.754
REMARK INTRA:                  -0.796
REMARK UNBOUND:                -0.372
REMARK SMILES CCCCCCCCC(=O)NCc1ccc(O)c(OC)c1
REMARK SMILES IDX 7 1 6 2 5 3 4 4 3 5 2 6 1 7 8 8 9 9 10 10 11 11 12 13 13 14
REMARK SMILES IDX 21 15 14 16 18 17 15 18 16 19 19 20 20 21 17 22
REMARK H PARENT 11 12 17 23
REMARK Flexibility Score: inf
ROOT
ATOM      1  C   UNL     1      94.480  97.382  76.449  1.00  0.00     0.010 C 
ENDROOT
BRANCH   1   2
ATOM      2  C   UNL     1      93.401  97.044  77.517  1.00  0.00     0.001 C 
BRANCH   2   3
ATOM      3  C   UNL     1      93.432  95.543  77.931  1.00  0.00     0.000 C 
BRANCH   3   4
ATOM      4  C   UNL     1      92.082  94.803  77.709  1.00  0.00    -0.000 C 
BRANCH   4   5
ATOM      5  C   UNL     1      91.084  95.624  76.843  1.00  0.00    -0.000 C 
BRANCH   5   6
ATOM      6  C   UNL     1      89.933  94.751  76.273  1.00  0.00    -0.003 C 
ATOM      7  C   UNL     1      90.330  94.002  74.982  1.00  0.00     0.004 C 
ENDBRANCH   5   6
ENDBRANCH   4   5
ENDBRANCH   3   4
ENDBRANCH   2   3
ENDBRANCH   1   2
BRANCH   1   8
ATOM      8  C   UNL     1      94.210  96.745  75.057  1.00  0.00     0.100 C 
BRANCH   8   9
ATOM      9  C   UNL     1      95.125  97.290  74.026  1.00  0.00     0.220 C 
ATOM     10  O   UNL     1      95.964  98.155  74.374  1.00  0.00    -0.275 OA
ATOM     11  N   UNL     1      95.070  96.837  72.739  1.00  0.00    -0.352 N 
ATOM     12  H   UNL     1      94.303  96.208  72.551  1.00  0.00     0.163 HD
BRANCH  11  13
ATOM     13  C   UNL     1      95.984  97.179  71.693  1.00  0.00     0.151 C 
BRANCH  13  14
ATOM     14  C   UNL     1      95.400  98.062  70.648  1.00  0.00    -0.025 A 
ATOM     15  C   UNL     1      94.568  99.146  71.016  1.00  0.00     0.056 A 
ATOM     16  C   UNL     1      95.660  97.835  69.277  1.00  0.00     0.009 A 
ATOM     17  C   UNL     1      94.020 100.004  70.035  1.00  0.00     0.160 A 
ATOM     18  C   UNL     1      95.119  98.686  68.297  1.00  0.00     0.050 A 
ATOM     19  C   UNL     1      94.294  99.764  68.670  1.00  0.00     0.157 A 
BRANCH  17  20
ATOM     20  O   UNL     1      93.180 101.029  70.391  1.00  0.00    -0.493 OA
ATOM     21  C   UNL     1      91.864 100.602  70.785  1.00  0.00     0.278 C 
ENDBRANCH  17  20
BRANCH  19  22
ATOM     22  O   UNL     1      93.754 100.563  67.714  1.00  0.00    -0.504 OA
ATOM     23  H   UNL     1      93.457 100.025  66.977  1.00  0.00     0.293 HD
ENDBRANCH  19  22
ENDBRANCH  13  14
ENDBRANCH  11  13
ENDBRANCH   8   9
ENDBRANCH   1   8
TORSDOF 11
ENDMDL
MODEL 8
REMARK VINA RESULT:    -5.647      3.599      5.741
REMARK INTER + INTRA:          -9.486
REMARK INTER:                  -9.395
REMARK INTRA:                  -0.091
REMARK UNBOUND:                -0.372
REMARK SMILES CCCCCCCCC(=O)NCc1ccc(O)c(OC)c1
REMARK SMILES IDX 7 1 6 2 5 3 4 4 3 5 2 6 1 7 8 8 9 9 10 10 11 11 12 13 13 14
REMARK SMILES IDX 21 15 14 16 18 17 15 18 16 19 19 20 20 21 17 22
REMARK H PARENT 11 12 17 23
REMARK Flexibility Score: inf
ROOT
ATOM      1  C   UNL     1      95.932  95.388  79.523  1.00  0.00     0.010 C 
ENDROOT
BRANCH   1   2
ATOM      2  C   UNL     1      96.752  96.690  79.291  1.00  0.00     0.001 C 
BRANCH   2   3
ATOM      3  C   UNL     1      97.516  97.141  80.571  1.00  0.00     0.000 C 
BRANCH   3   4
ATOM      4  C   UNL     1      97.136  98.567  81.059  1.00  0.00    -0.000 C 
BRANCH   4   5
ATOM      5  C   UNL     1      97.055  98.670  82.609  1.00  0.00    -0.000 C 
BRANCH   5   6
ATOM      6  C   UNL     1      96.162  99.849  83.082  1.00  0.00    -0.003 C 
ATOM      7  C   UNL     1      94.969 100.115  82.138  1.00  0.00     0.004 C 
ENDBRANCH   5   6
ENDBRANCH   4   5
ENDBRANCH   3   4
ENDBRANCH   2   3
ENDBRANCH   1   2
BRANCH   1   8
ATOM      8  C   UNL     1      95.595  94.616  78.217  1.00  0.00     0.100 C 
BRANCH   8   9
ATOM      9  C   UNL     1      94.396  95.180  77.551  1.00  0.00     0.220 C 
ATOM     10  O   UNL     1      94.564  95.982  76.601  1.00  0.00    -0.275 OA
ATOM     11  N   UNL     1      93.143  94.809  77.948  1.00  0.00    -0.352 N 
ATOM     12  H   UNL     1      93.122  94.229  78.774  1.00  0.00     0.163 HD
BRANCH  11  13
ATOM     13  C   UNL     1      91.920  95.169  77.300  1.00  0.00     0.151 C 
BRANCH  13  14
ATOM     14  C   UNL     1      91.119  94.005  76.835  1.00  0.00    -0.025 A 
ATOM     15  C   UNL     1      91.153  93.614  75.475  1.00  0.00     0.056 A 
ATOM     16  C   UNL     1      90.311  93.273  77.735  1.00  0.00     0.009 A 
ATOM     17  C   UNL     1      90.411  92.499  75.022  1.00  0.00     0.160 A 
ATOM     18  C   UNL     1      89.572  92.162  77.292  1.00  0.00     0.050 A 
ATOM     19  C   UNL     1      89.613  91.777  75.938  1.00  0.00     0.157 A 
BRANCH  17  20
ATOM     20  O   UNL     1      90.413  92.147  73.696  1.00  0.00    -0.493 OA
ATOM     21  C   UNL     1      90.864  90.805  73.443  1.00  0.00     0.278 C 
ENDBRANCH  17  20
BRANCH  19  22
ATOM     22  O   UNL     1      88.874  90.720  75.514  1.00  0.00    -0.504 OA
ATOM     23  H   UNL     1      89.313  90.301  74.769  1.00  0.00     0.293 HD
ENDBRANCH  19  22
ENDBRANCH  13  14
ENDBRANCH  11  13
ENDBRANCH   8   9
ENDBRANCH   1   8
TORSDOF 11
ENDMDL
MODEL 9
REMARK VINA RESULT:    -5.635      5.162      8.282
REMARK INTER + INTRA:          -9.466
REMARK INTER:                  -8.711
REMARK INTRA:                  -0.755
REMARK UNBOUND:                -0.372
REMARK SMILES CCCCCCCCC(=O)NCc1ccc(O)c(OC)c1
REMARK SMILES IDX 7 1 6 2 5 3 4 4 3 5 2 6 1 7 8 8 9 9 10 10 11 11 12 13 13 14
REMARK SMILES IDX 21 15 14 16 18 17 15 18 16 19 19 20 20 21 17 22
REMARK H PARENT 11 12 17 23
REMARK Flexibility Score: inf
ROOT
ATOM      1  C   UNL     1      94.061  97.382  74.708  1.00  0.00     0.010 C 
ENDROOT
BRANCH   1   2
ATOM      2  C   UNL     1      94.505  96.478  75.894  1.00  0.00     0.001 C 
BRANCH   2   3
ATOM      3  C   UNL     1      93.509  95.309  76.148  1.00  0.00     0.000 C 
BRANCH   3   4
ATOM      4  C   UNL     1      92.504  95.077  74.985  1.00  0.00    -0.000 C 
BRANCH   4   5
ATOM      5  C   UNL     1      91.250  94.269  75.426  1.00  0.00    -0.000 C 
BRANCH   5   6
ATOM      6  C   UNL     1      90.682  94.749  76.789  1.00  0.00    -0.003 C 
ATOM      7  C   UNL     1      89.986  93.620  77.580  1.00  0.00     0.004 C 
ENDBRANCH   5   6
ENDBRANCH   4   5
ENDBRANCH   3   4
ENDBRANCH   2   3
ENDBRANCH   1   2
BRANCH   1   8
ATOM      8  C   UNL     1      94.826  97.104  73.383  1.00  0.00     0.100 C 
BRANCH   8   9
ATOM      9  C   UNL     1      94.639  98.206  72.410  1.00  0.00     0.220 C 
ATOM     10  O   UNL     1      94.953  98.003  71.213  1.00  0.00    -0.275 OA
ATOM     11  N   UNL     1      94.111  99.401  72.808  1.00  0.00    -0.352 N 
ATOM     12  H   UNL     1      93.975  99.486  73.804  1.00  0.00     0.163 HD
BRANCH  11  13
ATOM     13  C   UNL     1      93.752 100.485  71.945  1.00  0.00     0.151 C 
BRANCH  13  14
ATOM     14  C   UNL     1      92.294 100.577  71.669  1.00  0.00    -0.025 A 
ATOM     15  C   UNL     1      91.489 101.494  72.386  1.00  0.00     0.056 A 
ATOM     16  C   UNL     1      91.685  99.752  70.695  1.00  0.00     0.009 A 
ATOM     17  C   UNL     1      90.105 101.605  72.123  1.00  0.00     0.160 A 
ATOM     18  C   UNL     1      90.308  99.858  70.427  1.00  0.00     0.050 A 
ATOM     19  C   UNL     1      89.515 100.776  71.142  1.00  0.00     0.157 A 
BRANCH  17  20
ATOM     20  O   UNL     1      89.319 102.465  72.848  1.00  0.00    -0.493 OA
ATOM     21  C   UNL     1      89.332 102.221  74.266  1.00  0.00     0.278 C 
ENDBRANCH  17  20
BRANCH  19  22
ATOM     22  O   UNL     1      88.182 100.851  70.896  1.00  0.00    -0.504 OA
ATOM     23  H   UNL     1      87.696 100.646  71.699  1.00  0.00     0.293 HD
ENDBRANCH  19  22
ENDBRANCH  13  14
ENDBRANCH  11  13
ENDBRANCH   8   9
ENDBRANCH   1   8
TORSDOF 11
ENDMDL
MODEL 10
REMARK VINA RESULT:    -5.576     18.830     21.086
REMARK INTER + INTRA:          -9.371
REMARK INTER:                  -7.517
REMARK INTRA:                  -1.854
REMARK UNBOUND:                -0.372
REMARK SMILES CCCCCCCCC(=O)NCc1ccc(O)c(OC)c1
REMARK SMILES IDX 7 1 6 2 5 3 4 4 3 5 2 6 1 7 8 8 9 9 10 10 11 11 12 13 13 14
REMARK SMILES IDX 21 15 14 16 18 17 15 18 16 19 19 20 20 21 17 22
REMARK H PARENT 11 12 17 23
REMARK Flexibility Score: inf
ROOT
ATOM      1  C   UNL     1      76.565  83.189  65.367  1.00  0.00     0.010 C 
ENDROOT
BRANCH   1   2
ATOM      2  C   UNL     1      76.449  83.595  63.870  1.00  0.00     0.001 C 
BRANCH   2   3
ATOM      3  C   UNL     1      75.078  84.256  63.543  1.00  0.00     0.000 C 
BRANCH   3   4
ATOM      4  C   UNL     1      75.112  85.811  63.555  1.00  0.00    -0.000 C 
BRANCH   4   5
ATOM      5  C   UNL     1      74.970  86.402  64.987  1.00  0.00    -0.000 C 
BRANCH   5   6
ATOM      6  C   UNL     1      75.635  87.798  65.123  1.00  0.00    -0.003 C 
ATOM      7  C   UNL     1      74.633  88.960  64.948  1.00  0.00     0.004 C 
ENDBRANCH   5   6
ENDBRANCH   4   5
ENDBRANCH   3   4
ENDBRANCH   2   3
ENDBRANCH   1   2
BRANCH   1   8
ATOM      8  C   UNL     1      77.663  83.965  66.147  1.00  0.00     0.100 C 
BRANCH   8   9
ATOM      9  C   UNL     1      77.107  84.613  67.360  1.00  0.00     0.220 C 
ATOM     10  O   UNL     1      76.269  83.978  68.043  1.00  0.00    -0.275 OA
ATOM     11  N   UNL     1      77.525  85.858  67.734  1.00  0.00    -0.352 N 
ATOM     12  H   UNL     1      78.134  86.312  67.069  1.00  0.00     0.163 HD
BRANCH  11  13
ATOM     13  C   UNL     1      77.174  86.526  68.950  1.00  0.00     0.151 C 
BRANCH  13  14
ATOM     14  C   UNL     1      76.099  87.542  68.788  1.00  0.00    -0.025 A 
ATOM     15  C   UNL     1      74.743  87.141  68.732  1.00  0.00     0.056 A 
ATOM     16  C   UNL     1      76.408  88.918  68.685  1.00  0.00     0.009 A 
ATOM     17  C   UNL     1      73.709  88.096  68.597  1.00  0.00     0.160 A 
ATOM     18  C   UNL     1      75.385  89.873  68.550  1.00  0.00     0.050 A 
ATOM     19  C   UNL     1      74.037  89.467  68.498  1.00  0.00     0.157 A 
BRANCH  17  20
ATOM     20  O   UNL     1      72.398  87.702  68.500  1.00  0.00    -0.493 OA
ATOM     21  C   UNL     1      72.136  86.787  67.422  1.00  0.00     0.278 C 
ENDBRANCH  17  20
BRANCH  19  22
ATOM     22  O   UNL     1      73.058  90.394  68.341  1.00  0.00    -0.504 OA
ATOM     23  H   UNL     1      73.455  91.256  68.193  1.00  0.00     0.293 HD
ENDBRANCH  19  22
ENDBRANCH  13  14
ENDBRANCH  11  13
ENDBRANCH   8   9
ENDBRANCH   1   8
TORSDOF 11
ENDMDL
