MODEL 1
REMARK VINA RESULT:    -6.613      0.000      0.000
REMARK INTER + INTRA:         -11.535
REMARK INTER:                 -10.673
REMARK INTRA:                  -0.862
REMARK UNBOUND:                -0.862
REMARK SMILES COc1cc(CNC(=O)CCCCC/C=C/C(C)C)ccc1O
REMARK SMILES IDX 11 1 10 2 8 3 7 4 9 6 6 7 5 8 3 9 22 10 4 11 21 12 20 13
REMARK SMILES IDX 2 14 1 15 23 16 12 18 13 19 14 20 15 21 16 22 17 23 18 24
REMARK SMILES IDX 19 25
REMARK H PARENT 7 5 23 17
REMARK Flexibility Score: inf
ROOT
ATOM      1  C   UNL     1      92.500  95.465  75.847  1.00  0.00     0.010 C 
ENDROOT
BRANCH   1   2
ATOM      2  C   UNL     1      92.914  96.545  76.880  1.00  0.00     0.100 C 
BRANCH   2   3
ATOM      3  C   UNL     1      94.325  96.463  77.301  1.00  0.00     0.220 C 
ATOM      4  N   UNL     1      95.092  97.587  77.322  1.00  0.00    -0.352 N 
ATOM      5  H   UNL     1      94.637  98.415  76.964  1.00  0.00     0.163 HD
ATOM      6  O   UNL     1      94.772  95.351  77.671  1.00  0.00    -0.275 OA
BRANCH   4   7
ATOM      7  C   UNL     1      96.435  97.666  77.797  1.00  0.00     0.151 C 
BRANCH   7   8
ATOM      8  C   UNL     1      96.511  97.876  79.267  1.00  0.00    -0.025 A 
ATOM      9  C   UNL     1      97.324  97.188  81.483  1.00  0.00     0.160 A 
ATOM     10  C   UNL     1      96.607  98.250  82.075  1.00  0.00     0.157 A 
ATOM     11  C   UNL     1      97.264  97.003  80.087  1.00  0.00     0.056 A 
ATOM     12  C   UNL     1      95.868  99.134  81.267  1.00  0.00     0.050 A 
ATOM     13  C   UNL     1      95.829  98.955  79.872  1.00  0.00     0.009 A 
BRANCH   9  14
ATOM     14  O   UNL     1      98.116  96.375  82.250  1.00  0.00    -0.493 OA
ATOM     15  C   UNL     1      97.474  95.161  82.675  1.00  0.00     0.278 C 
ENDBRANCH   9  14
BRANCH  10  16
ATOM     16  O   UNL     1      96.615  98.445  83.418  1.00  0.00    -0.504 OA
ATOM     17  H   UNL     1      96.461  99.374  83.606  1.00  0.00     0.293 HD
ENDBRANCH  10  16
ENDBRANCH   7   8
ENDBRANCH   4   7
ENDBRANCH   2   3
ENDBRANCH   1   2
BRANCH   1  18
ATOM     18  C   UNL     1      91.069  94.939  76.130  1.00  0.00     0.001 C 
BRANCH  18  19
ATOM     19  C   UNL     1      90.906  94.301  77.533  1.00  0.00     0.004 C 
BRANCH  19  20
ATOM     20  C   UNL     1      89.943  93.081  77.492  1.00  0.00     0.027 C 
BRANCH  20  21
ATOM     21  C   UNL     1      89.875  92.434  76.193  1.00  0.00    -0.031 C 
ATOM     22  C   UNL     1      89.695  91.108  76.059  1.00  0.00    -0.028 C 
BRANCH  22  23
ATOM     23  C   UNL     1      89.617  90.428  74.769  1.00  0.00     0.005 C 
ATOM     24  C   UNL     1      90.521  91.142  73.729  1.00  0.00     0.012 C 
ATOM     25  C   UNL     1      89.978  88.926  74.930  1.00  0.00     0.012 C 
ENDBRANCH  22  23
ENDBRANCH  20  21
ENDBRANCH  19  20
ENDBRANCH  18  19
ENDBRANCH   1  18
TORSDOF 11
ENDMDL
MODEL 2
REMARK VINA RESULT:    -6.496     11.715     13.774
REMARK INTER + INTRA:         -11.345
REMARK INTER:                 -10.598
REMARK INTRA:                  -0.747
REMARK UNBOUND:                -0.862
REMARK SMILES COc1cc(CNC(=O)CCCCC/C=C/C(C)C)ccc1O
REMARK SMILES IDX 11 1 10 2 8 3 7 4 9 6 6 7 5 8 3 9 22 10 4 11 21 12 20 13
REMARK SMILES IDX 2 14 1 15 23 16 12 18 13 19 14 20 15 21 16 22 17 23 18 24
REMARK SMILES IDX 19 25
REMARK H PARENT 7 5 23 17
REMARK Flexibility Score: inf
ROOT
ATOM      1  C   UNL     1      98.084  82.420  78.775  1.00  0.00     0.010 C 
ENDROOT
BRANCH   1   2
ATOM      2  C   UNL     1      97.196  83.151  79.815  1.00  0.00     0.100 C 
BRANCH   2   3
ATOM      3  C   UNL     1      97.077  82.446  81.105  1.00  0.00     0.220 C 
ATOM      4  N   UNL     1      97.293  83.120  82.268  1.00  0.00    -0.352 N 
ATOM      5  H   UNL     1      97.601  84.076  82.151  1.00  0.00     0.163 HD
ATOM      6  O   UNL     1      96.737  81.239  81.095  1.00  0.00    -0.275 OA
BRANCH   4   7
ATOM      7  C   UNL     1      97.118  82.587  83.580  1.00  0.00     0.151 C 
BRANCH   7   8
ATOM      8  C   UNL     1      95.815  82.970  84.184  1.00  0.00    -0.025 A 
ATOM      9  C   UNL     1      94.465  84.498  85.559  1.00  0.00     0.160 A 
ATOM     10  C   UNL     1      93.339  83.665  85.377  1.00  0.00     0.157 A 
ATOM     11  C   UNL     1      95.694  84.140  84.969  1.00  0.00     0.056 A 
ATOM     12  C   UNL     1      93.443  82.508  84.584  1.00  0.00     0.050 A 
ATOM     13  C   UNL     1      94.670  82.168  83.983  1.00  0.00     0.009 A 
BRANCH   9  14
ATOM     14  O   UNL     1      94.352  85.672  86.256  1.00  0.00    -0.493 OA
ATOM     15  C   UNL     1      94.327  86.846  85.428  1.00  0.00     0.278 C 
ENDBRANCH   9  14
BRANCH  10  16
ATOM     16  O   UNL     1      92.145  83.958  85.950  1.00  0.00    -0.504 OA
ATOM     17  H   UNL     1      92.179  84.842  86.325  1.00  0.00     0.293 HD
ENDBRANCH  10  16
ENDBRANCH   7   8
ENDBRANCH   4   7
ENDBRANCH   2   3
ENDBRANCH   1   2
BRANCH   1  18
ATOM     18  C   UNL     1      97.938  83.056  77.369  1.00  0.00     0.001 C 
BRANCH  18  19
ATOM     19  C   UNL     1      96.640  83.884  77.192  1.00  0.00     0.004 C 
BRANCH  19  20
ATOM     20  C   UNL     1      96.686  84.739  75.894  1.00  0.00     0.027 C 
BRANCH  20  21
ATOM     21  C   UNL     1      97.848  84.475  75.062  1.00  0.00    -0.031 C 
ATOM     22  C   UNL     1      97.767  83.775  73.917  1.00  0.00    -0.028 C 
BRANCH  22  23
ATOM     23  C   UNL     1      98.914  83.498  73.055  1.00  0.00     0.005 C 
ATOM     24  C   UNL     1      98.567  82.375  72.041  1.00  0.00     0.012 C 
ATOM     25  C   UNL     1      99.386  84.800  72.354  1.00  0.00     0.012 C 
ENDBRANCH  22  23
ENDBRANCH  20  21
ENDBRANCH  19  20
ENDBRANCH  18  19
ENDBRANCH   1  18
TORSDOF 11
ENDMDL
MODEL 3
REMARK VINA RESULT:    -6.407     12.675     15.881
REMARK INTER + INTRA:         -11.203
REMARK INTER:                 -10.348
REMARK INTRA:                  -0.855
REMARK UNBOUND:                -0.862
REMARK SMILES COc1cc(CNC(=O)CCCCC/C=C/C(C)C)ccc1O
REMARK SMILES IDX 11 1 10 2 8 3 7 4 9 6 6 7 5 8 3 9 22 10 4 11 21 12 20 13
REMARK SMILES IDX 2 14 1 15 23 16 12 18 13 19 14 20 15 21 16 22 17 23 18 24
REMARK SMILES IDX 19 25
REMARK H PARENT 7 5 23 17
REMARK Flexibility Score: inf
ROOT
ATOM      1  C   UNL     1      97.334  82.331  82.685  1.00  0.00     0.010 C 
ENDROOT
BRANCH   1   2
ATOM      2  C   UNL     1      96.395  83.551  82.499  1.00  0.00     0.100 C 
BRANCH   2   3
ATOM      3  C   UNL     1      95.417  83.727  83.589  1.00  0.00     0.220 C 
ATOM      4  N   UNL     1      94.419  82.816  83.758  1.00  0.00    -0.352 N 
ATOM      5  H   UNL     1      94.381  82.096  83.049  1.00  0.00     0.163 HD
ATOM      6  O   UNL     1      95.559  84.702  84.364  1.00  0.00    -0.275 OA
BRANCH   4   7
ATOM      7  C   UNL     1      93.470  82.814  84.823  1.00  0.00     0.151 C 
BRANCH   7   8
ATOM      8  C   UNL     1      92.442  81.752  84.672  1.00  0.00    -0.025 A 
ATOM      9  C   UNL     1      90.105  81.077  84.308  1.00  0.00     0.160 A 
ATOM     10  C   UNL     1      90.477  79.721  84.436  1.00  0.00     0.157 A 
ATOM     11  C   UNL     1      91.087  82.081  84.436  1.00  0.00     0.056 A 
ATOM     12  C   UNL     1      91.825  79.381  84.654  1.00  0.00     0.050 A 
ATOM     13  C   UNL     1      92.802  80.389  84.760  1.00  0.00     0.009 A 
BRANCH   9  14
ATOM     14  O   UNL     1      88.812  81.415  84.009  1.00  0.00    -0.493 OA
ATOM     15  C   UNL     1      88.141  82.148  85.048  1.00  0.00     0.278 C 
ENDBRANCH   9  14
BRANCH  10  16
ATOM     16  O   UNL     1      89.559  78.727  84.349  1.00  0.00    -0.504 OA
ATOM     17  H   UNL     1      88.956  78.911  83.624  1.00  0.00     0.293 HD
ENDBRANCH  10  16
ENDBRANCH   7   8
ENDBRANCH   4   7
ENDBRANCH   2   3
ENDBRANCH   1   2
BRANCH   1  18
ATOM     18  C   UNL     1      96.782  81.082  81.951  1.00  0.00     0.001 C 
BRANCH  18  19
ATOM     19  C   UNL     1      97.466  80.808  80.588  1.00  0.00     0.004 C 
BRANCH  19  20
ATOM     20  C   UNL     1      98.623  81.811  80.322  1.00  0.00     0.027 C 
BRANCH  20  21
ATOM     21  C   UNL     1      98.488  82.541  79.072  1.00  0.00    -0.031 C 
ATOM     22  C   UNL     1      97.448  82.354  78.240  1.00  0.00    -0.028 C 
BRANCH  22  23
ATOM     23  C   UNL     1      97.280  83.075  76.981  1.00  0.00     0.005 C 
ATOM     24  C   UNL     1      96.325  84.283  77.175  1.00  0.00     0.012 C 
ATOM     25  C   UNL     1      98.663  83.502  76.418  1.00  0.00     0.012 C 
ENDBRANCH  22  23
ENDBRANCH  20  21
ENDBRANCH  19  20
ENDBRANCH  18  19
ENDBRANCH   1  18
TORSDOF 11
ENDMDL
MODEL 4
REMARK VINA RESULT:    -6.344     12.691     15.262
REMARK INTER + INTRA:         -11.101
REMARK INTER:                 -10.487
REMARK INTRA:                  -0.613
REMARK UNBOUND:                -0.862
REMARK SMILES COc1cc(CNC(=O)CCCCC/C=C/C(C)C)ccc1O
REMARK SMILES IDX 11 1 10 2 8 3 7 4 9 6 6 7 5 8 3 9 22 10 4 11 21 12 20 13
REMARK SMILES IDX 2 14 1 15 23 16 12 18 13 19 14 20 15 21 16 22 17 23 18 24
REMARK SMILES IDX 19 25
REMARK H PARENT 7 5 23 17
REMARK Flexibility Score: inf
ROOT
ATOM      1  C   UNL     1      97.568  82.711  80.522  1.00  0.00     0.010 C 
ENDROOT
BRANCH   1   2
ATOM      2  C   UNL     1      96.541  83.532  81.345  1.00  0.00     0.100 C 
BRANCH   2   3
ATOM      3  C   UNL     1      96.372  83.063  82.733  1.00  0.00     0.220 C 
ATOM      4  N   UNL     1      95.180  83.239  83.368  1.00  0.00    -0.352 N 
ATOM      5  H   UNL     1      94.496  83.765  82.841  1.00  0.00     0.163 HD
ATOM      6  O   UNL     1      97.331  82.471  83.283  1.00  0.00    -0.275 OA
BRANCH   4   7
ATOM      7  C   UNL     1      94.852  82.751  84.667  1.00  0.00     0.151 C 
BRANCH   7   8
ATOM      8  C   UNL     1      93.572  81.997  84.689  1.00  0.00    -0.025 A 
ATOM      9  C   UNL     1      92.350  79.863  84.713  1.00  0.00     0.160 A 
ATOM     10  C   UNL     1      91.125  80.565  84.675  1.00  0.00     0.157 A 
ATOM     11  C   UNL     1      93.562  80.583  84.710  1.00  0.00     0.056 A 
ATOM     12  C   UNL     1      91.123  81.972  84.671  1.00  0.00     0.050 A 
ATOM     13  C   UNL     1      92.337  82.683  84.688  1.00  0.00     0.009 A 
BRANCH   9  14
ATOM     14  O   UNL     1      92.362  78.496  84.806  1.00  0.00    -0.493 OA
ATOM     15  C   UNL     1      93.600  77.891  84.399  1.00  0.00     0.278 C 
ENDBRANCH   9  14
BRANCH  10  16
ATOM     16  O   UNL     1      89.938  79.909  84.648  1.00  0.00    -0.504 OA
ATOM     17  H   UNL     1      89.530  80.022  83.786  1.00  0.00     0.293 HD
ENDBRANCH  10  16
ENDBRANCH   7   8
ENDBRANCH   4   7
ENDBRANCH   2   3
ENDBRANCH   1   2
BRANCH   1  18
ATOM     18  C   UNL     1      97.680  83.248  79.073  1.00  0.00     0.001 C 
BRANCH  18  19
ATOM     19  C   UNL     1      96.310  83.475  78.384  1.00  0.00     0.004 C 
BRANCH  19  20
ATOM     20  C   UNL     1      96.446  84.401  77.143  1.00  0.00     0.027 C 
BRANCH  20  21
ATOM     21  C   UNL     1      97.538  84.035  76.258  1.00  0.00    -0.031 C 
ATOM     22  C   UNL     1      97.590  84.437  74.976  1.00  0.00    -0.028 C 
BRANCH  22  23
ATOM     23  C   UNL     1      98.676  84.090  74.062  1.00  0.00     0.005 C 
ATOM     24  C   UNL     1      98.166  83.116  72.966  1.00  0.00     0.012 C 
ATOM     25  C   UNL     1      99.303  85.377  73.461  1.00  0.00     0.012 C 
ENDBRANCH  22  23
ENDBRANCH  20  21
ENDBRANCH  19  20
ENDBRANCH  18  19
ENDBRANCH   1  18
TORSDOF 11
ENDMDL
MODEL 5
REMARK VINA RESULT:    -6.082     13.051     15.670
REMARK INTER + INTRA:         -10.678
REMARK INTER:                 -10.126
REMARK INTRA:                  -0.552
REMARK UNBOUND:                -0.862
REMARK SMILES COc1cc(CNC(=O)CCCCC/C=C/C(C)C)ccc1O
REMARK SMILES IDX 11 1 10 2 8 3 7 4 9 6 6 7 5 8 3 9 22 10 4 11 21 12 20 13
REMARK SMILES IDX 2 14 1 15 23 16 12 18 13 19 14 20 15 21 16 22 17 23 18 24
REMARK SMILES IDX 19 25
REMARK H PARENT 7 5 23 17
REMARK Flexibility Score: inf
ROOT
ATOM      1  C   UNL     1      97.024  83.219  80.389  1.00  0.00     0.010 C 
ENDROOT
BRANCH   1   2
ATOM      2  C   UNL     1      97.317  81.806  80.955  1.00  0.00     0.100 C 
BRANCH   2   3
ATOM      3  C   UNL     1      97.137  81.694  82.415  1.00  0.00     0.220 C 
ATOM      4  N   UNL     1      95.896  81.830  82.958  1.00  0.00    -0.352 N 
ATOM      5  H   UNL     1      95.172  82.079  82.297  1.00  0.00     0.163 HD
ATOM      6  O   UNL     1      98.141  81.434  83.120  1.00  0.00    -0.275 OA
BRANCH   4   7
ATOM      7  C   UNL     1      95.569  81.651  84.335  1.00  0.00     0.151 C 
BRANCH   7   8
ATOM      8  C   UNL     1      94.336  80.845  84.529  1.00  0.00    -0.025 A 
ATOM      9  C   UNL     1      91.943  80.700  85.079  1.00  0.00     0.160 A 
ATOM     10  C   UNL     1      92.000  79.295  84.951  1.00  0.00     0.157 A 
ATOM     11  C   UNL     1      93.111  81.462  84.877  1.00  0.00     0.056 A 
ATOM     12  C   UNL     1      93.208  78.671  84.590  1.00  0.00     0.050 A 
ATOM     13  C   UNL     1      94.365  79.441  84.370  1.00  0.00     0.009 A 
BRANCH   9  14
ATOM     14  O   UNL     1      90.753  81.323  85.345  1.00  0.00    -0.493 OA
ATOM     15  C   UNL     1      90.201  82.037  84.226  1.00  0.00     0.278 C 
ENDBRANCH   9  14
BRANCH  10  16
ATOM     16  O   UNL     1      90.905  78.522  85.166  1.00  0.00    -0.504 OA
ATOM     17  H   UNL     1      90.697  78.034  84.366  1.00  0.00     0.293 HD
ENDBRANCH  10  16
ENDBRANCH   7   8
ENDBRANCH   4   7
ENDBRANCH   2   3
ENDBRANCH   1   2
BRANCH   1  18
ATOM     18  C   UNL     1      97.574  83.370  78.948  1.00  0.00     0.001 C 
BRANCH  18  19
ATOM     19  C   UNL     1      96.489  83.231  77.850  1.00  0.00     0.004 C 
BRANCH  19  20
ATOM     20  C   UNL     1      96.657  84.314  76.747  1.00  0.00     0.027 C 
BRANCH  20  21
ATOM     21  C   UNL     1      97.232  83.807  75.513  1.00  0.00    -0.031 C 
ATOM     22  C   UNL     1      97.518  84.608  74.471  1.00  0.00    -0.028 C 
BRANCH  22  23
ATOM     23  C   UNL     1      98.101  84.130  73.219  1.00  0.00     0.005 C 
ATOM     24  C   UNL     1      99.242  85.077  72.762  1.00  0.00     0.012 C 
ATOM     25  C   UNL     1      98.580  82.661  73.376  1.00  0.00     0.012 C 
ENDBRANCH  22  23
ENDBRANCH  20  21
ENDBRANCH  19  20
ENDBRANCH  18  19
ENDBRANCH   1  18
TORSDOF 11
ENDMDL
MODEL 6
REMARK VINA RESULT:    -6.002     17.023     19.998
REMARK INTER + INTRA:         -10.548
REMARK INTER:                  -9.675
REMARK INTRA:                  -0.873
REMARK UNBOUND:                -0.862
REMARK SMILES COc1cc(CNC(=O)CCCCC/C=C/C(C)C)ccc1O
REMARK SMILES IDX 11 1 10 2 8 3 7 4 9 6 6 7 5 8 3 9 22 10 4 11 21 12 20 13
REMARK SMILES IDX 2 14 1 15 23 16 12 18 13 19 14 20 15 21 16 22 17 23 18 24
REMARK SMILES IDX 19 25
REMARK H PARENT 7 5 23 17
REMARK Flexibility Score: inf
ROOT
ATOM      1  C   UNL     1      73.985  90.848  69.953  1.00  0.00     0.010 C 
ENDROOT
BRANCH   1   2
ATOM      2  C   UNL     1      73.400  90.503  71.348  1.00  0.00     0.100 C 
BRANCH   2   3
ATOM      3  C   UNL     1      73.317  91.655  72.265  1.00  0.00     0.220 C 
ATOM      4  N   UNL     1      74.242  92.651  72.188  1.00  0.00    -0.352 N 
ATOM      5  H   UNL     1      74.988  92.484  71.527  1.00  0.00     0.163 HD
ATOM      6  O   UNL     1      72.361  91.703  73.074  1.00  0.00    -0.275 OA
BRANCH   4   7
ATOM      7  C   UNL     1      74.223  93.861  72.944  1.00  0.00     0.151 C 
BRANCH   7   8
ATOM      8  C   UNL     1      75.428  94.020  73.798  1.00  0.00    -0.025 A 
ATOM      9  C   UNL     1      77.787  94.662  74.066  1.00  0.00     0.160 A 
ATOM     10  C   UNL     1      77.739  94.270  75.422  1.00  0.00     0.157 A 
ATOM     11  C   UNL     1      76.636  94.526  73.264  1.00  0.00     0.056 A 
ATOM     12  C   UNL     1      76.538  93.782  75.969  1.00  0.00     0.050 A 
ATOM     13  C   UNL     1      75.388  93.668  75.166  1.00  0.00     0.009 A 
BRANCH   9  14
ATOM     14  O   UNL     1      78.925  95.220  73.547  1.00  0.00    -0.493 OA
ATOM     15  C   UNL     1      78.683  96.275  72.600  1.00  0.00     0.278 C 
ENDBRANCH   9  14
BRANCH  10  16
ATOM     16  O   UNL     1      78.832  94.359  76.220  1.00  0.00    -0.504 OA
ATOM     17  H   UNL     1      79.563  93.886  75.815  1.00  0.00     0.293 HD
ENDBRANCH  10  16
ENDBRANCH   7   8
ENDBRANCH   4   7
ENDBRANCH   2   3
ENDBRANCH   1   2
BRANCH   1  18
ATOM     18  C   UNL     1      75.336  90.126  69.719  1.00  0.00     0.001 C 
BRANCH  18  19
ATOM     19  C   UNL     1      75.325  89.161  68.507  1.00  0.00     0.004 C 
BRANCH  19  20
ATOM     20  C   UNL     1      74.298  88.011  68.706  1.00  0.00     0.027 C 
BRANCH  20  21
ATOM     21  C   UNL     1      74.906  86.739  69.058  1.00  0.00    -0.031 C 
ATOM     22  C   UNL     1      76.208  86.481  68.845  1.00  0.00    -0.028 C 
BRANCH  22  23
ATOM     23  C   UNL     1      76.850  85.216  69.192  1.00  0.00     0.005 C 
ATOM     24  C   UNL     1      75.927  84.381  70.118  1.00  0.00     0.012 C 
ATOM     25  C   UNL     1      77.247  84.444  67.904  1.00  0.00     0.012 C 
ENDBRANCH  22  23
ENDBRANCH  20  21
ENDBRANCH  19  20
ENDBRANCH  18  19
ENDBRANCH   1  18
TORSDOF 11
ENDMDL
MODEL 7
REMARK VINA RESULT:    -5.977     12.695     13.961
REMARK INTER + INTRA:         -10.508
REMARK INTER:                 -10.010
REMARK INTRA:                  -0.498
REMARK UNBOUND:                -0.862
REMARK SMILES COc1cc(CNC(=O)CCCCC/C=C/C(C)C)ccc1O
REMARK SMILES IDX 11 1 10 2 8 3 7 4 9 6 6 7 5 8 3 9 22 10 4 11 21 12 20 13
REMARK SMILES IDX 2 14 1 15 23 16 12 18 13 19 14 20 15 21 16 22 17 23 18 24
REMARK SMILES IDX 19 25
REMARK H PARENT 7 5 23 17
REMARK Flexibility Score: inf
ROOT
ATOM      1  C   UNL     1      97.710  83.200  77.799  1.00  0.00     0.010 C 
ENDROOT
BRANCH   1   2
ATOM      2  C   UNL     1      96.713  83.569  78.928  1.00  0.00     0.100 C 
BRANCH   2   3
ATOM      3  C   UNL     1      96.996  82.912  80.218  1.00  0.00     0.220 C 
ATOM      4  N   UNL     1      96.699  83.550  81.384  1.00  0.00    -0.352 N 
ATOM      5  H   UNL     1      96.359  84.495  81.272  1.00  0.00     0.163 HD
ATOM      6  O   UNL     1      97.471  81.751  80.203  1.00  0.00    -0.275 OA
BRANCH   4   7
ATOM      7  C   UNL     1      96.830  82.993  82.690  1.00  0.00     0.151 C 
BRANCH   7   8
ATOM      8  C   UNL     1      95.762  83.450  83.617  1.00  0.00    -0.025 A 
ATOM      9  C   UNL     1      93.667  83.030  84.835  1.00  0.00     0.160 A 
ATOM     10  C   UNL     1      93.699  84.347  85.342  1.00  0.00     0.157 A 
ATOM     11  C   UNL     1      94.692  82.595  83.970  1.00  0.00     0.056 A 
ATOM     12  C   UNL     1      94.768  85.200  85.011  1.00  0.00     0.050 A 
ATOM     13  C   UNL     1      95.797  84.752  84.163  1.00  0.00     0.009 A 
BRANCH   9  14
ATOM     14  O   UNL     1      92.679  82.163  85.220  1.00  0.00    -0.493 OA
ATOM     15  C   UNL     1      93.075  81.241  86.249  1.00  0.00     0.278 C 
ENDBRANCH   9  14
BRANCH  10  16
ATOM     16  O   UNL     1      92.718  84.813  86.154  1.00  0.00    -0.504 OA
ATOM     17  H   UNL     1      92.985  85.658  86.525  1.00  0.00     0.293 HD
ENDBRANCH  10  16
ENDBRANCH   7   8
ENDBRANCH   4   7
ENDBRANCH   2   3
ENDBRANCH   1   2
BRANCH   1  18
ATOM     18  C   UNL     1      97.364  83.941  76.483  1.00  0.00     0.001 C 
BRANCH  18  19
ATOM     19  C   UNL     1      97.904  83.238  75.212  1.00  0.00     0.004 C 
BRANCH  19  20
ATOM     20  C   UNL     1      97.593  84.064  73.932  1.00  0.00     0.027 C 
BRANCH  20  21
ATOM     21  C   UNL     1      98.623  83.971  72.912  1.00  0.00    -0.031 C 
ATOM     22  C   UNL     1      99.326  85.041  72.501  1.00  0.00    -0.028 C 
BRANCH  22  23
ATOM     23  C   UNL     1     100.372  84.980  71.482  1.00  0.00     0.005 C 
ATOM     24  C   UNL     1     101.670  85.653  72.003  1.00  0.00     0.012 C 
ATOM     25  C   UNL     1     100.606  83.510  71.040  1.00  0.00     0.012 C 
ENDBRANCH  22  23
ENDBRANCH  20  21
ENDBRANCH  19  20
ENDBRANCH  18  19
ENDBRANCH   1  18
TORSDOF 11
ENDMDL
MODEL 8
REMARK VINA RESULT:    -5.858     12.797     14.378
REMARK INTER + INTRA:         -10.316
REMARK INTER:                  -9.525
REMARK INTRA:                  -0.792
REMARK UNBOUND:                -0.862
REMARK SMILES COc1cc(CNC(=O)CCCCC/C=C/C(C)C)ccc1O
REMARK SMILES IDX 11 1 10 2 8 3 7 4 9 6 6 7 5 8 3 9 22 10 4 11 21 12 20 13
REMARK SMILES IDX 2 14 1 15 23 16 12 18 13 19 14 20 15 21 16 22 17 23 18 24
REMARK SMILES IDX 19 25
REMARK H PARENT 7 5 23 17
REMARK Flexibility Score: inf
ROOT
ATOM      1  C   UNL     1      98.867  81.848  78.846  1.00  0.00     0.010 C 
ENDROOT
BRANCH   1   2
ATOM      2  C   UNL     1      99.010  82.526  80.233  1.00  0.00     0.100 C 
BRANCH   2   3
ATOM      3  C   UNL     1      98.424  81.751  81.343  1.00  0.00     0.220 C 
ATOM      4  N   UNL     1      97.100  81.879  81.633  1.00  0.00    -0.352 N 
ATOM      5  H   UNL     1      96.614  82.578  81.089  1.00  0.00     0.163 HD
ATOM      6  O   UNL     1      99.164  80.957  81.970  1.00  0.00    -0.275 OA
BRANCH   4   7
ATOM      7  C   UNL     1      96.389  81.122  82.611  1.00  0.00     0.151 C 
BRANCH   7   8
ATOM      8  C   UNL     1      95.905  81.957  83.741  1.00  0.00    -0.025 A 
ATOM      9  C   UNL     1      94.076  82.750  85.181  1.00  0.00     0.160 A 
ATOM     10  C   UNL     1      94.980  83.594  85.863  1.00  0.00     0.157 A 
ATOM     11  C   UNL     1      94.543  81.946  84.121  1.00  0.00     0.056 A 
ATOM     12  C   UNL     1      96.341  83.600  85.504  1.00  0.00     0.050 A 
ATOM     13  C   UNL     1      96.802  82.780  84.458  1.00  0.00     0.009 A 
BRANCH   9  14
ATOM     14  O   UNL     1      92.768  82.671  85.579  1.00  0.00    -0.493 OA
ATOM     15  C   UNL     1      91.865  82.238  84.549  1.00  0.00     0.278 C 
ENDBRANCH   9  14
BRANCH  10  16
ATOM     16  O   UNL     1      94.566  84.404  86.869  1.00  0.00    -0.504 OA
ATOM     17  H   UNL     1      95.150  85.165  86.928  1.00  0.00     0.293 HD
ENDBRANCH  10  16
ENDBRANCH   7   8
ENDBRANCH   4   7
ENDBRANCH   2   3
ENDBRANCH   1   2
BRANCH   1  18
ATOM     18  C   UNL     1      97.469  82.118  78.233  1.00  0.00     0.001 C 
BRANCH  18  19
ATOM     19  C   UNL     1      96.984  83.580  78.407  1.00  0.00     0.004 C 
BRANCH  19  20
ATOM     20  C   UNL     1      96.417  84.151  77.077  1.00  0.00     0.027 C 
BRANCH  20  21
ATOM     21  C   UNL     1      97.393  84.208  76.002  1.00  0.00    -0.031 C 
ATOM     22  C   UNL     1      97.034  84.333  74.712  1.00  0.00    -0.028 C 
BRANCH  22  23
ATOM     23  C   UNL     1      97.989  84.398  73.609  1.00  0.00     0.005 C 
ATOM     24  C   UNL     1      99.339  84.985  74.100  1.00  0.00     0.012 C 
ATOM     25  C   UNL     1      98.157  82.997  72.961  1.00  0.00     0.012 C 
ENDBRANCH  22  23
ENDBRANCH  20  21
ENDBRANCH  19  20
ENDBRANCH  18  19
ENDBRANCH   1  18
TORSDOF 11
ENDMDL
MODEL 9
REMARK VINA RESULT:    -5.764      2.287      3.547
REMARK INTER + INTRA:         -10.164
REMARK INTER:                  -9.482
REMARK INTRA:                  -0.681
REMARK UNBOUND:                -0.862
REMARK SMILES COc1cc(CNC(=O)CCCCC/C=C/C(C)C)ccc1O
REMARK SMILES IDX 11 1 10 2 8 3 7 4 9 6 6 7 5 8 3 9 22 10 4 11 21 12 20 13
REMARK SMILES IDX 2 14 1 15 23 16 12 18 13 19 14 20 15 21 16 22 17 23 18 24
REMARK SMILES IDX 19 25
REMARK H PARENT 7 5 23 17
REMARK Flexibility Score: inf
ROOT
ATOM      1  C   UNL     1      94.500  95.924  78.427  1.00  0.00     0.010 C 
ENDROOT
BRANCH   1   2
ATOM      2  C   UNL     1      95.643  95.283  79.257  1.00  0.00     0.100 C 
BRANCH   2   3
ATOM      3  C   UNL     1      96.537  96.262  79.904  1.00  0.00     0.220 C 
ATOM      4  N   UNL     1      96.295  96.660  81.183  1.00  0.00    -0.352 N 
ATOM      5  H   UNL     1      95.443  96.292  81.585  1.00  0.00     0.163 HD
ATOM      6  O   UNL     1      97.531  96.675  79.261  1.00  0.00    -0.275 OA
BRANCH   4   7
ATOM      7  C   UNL     1      97.129  97.521  81.956  1.00  0.00     0.151 C 
BRANCH   7   8
ATOM      8  C   UNL     1      96.572  98.892  82.087  1.00  0.00    -0.025 A 
ATOM      9  C   UNL     1      95.560 100.665  83.458  1.00  0.00     0.160 A 
ATOM     10  C   UNL     1      95.460 101.490  82.317  1.00  0.00     0.157 A 
ATOM     11  C   UNL     1      96.106  99.371  83.333  1.00  0.00     0.056 A 
ATOM     12  C   UNL     1      95.935 101.030  81.075  1.00  0.00     0.050 A 
ATOM     13  C   UNL     1      96.497  99.745  80.963  1.00  0.00     0.009 A 
BRANCH   9  14
ATOM     14  O   UNL     1      95.182 101.135  84.688  1.00  0.00    -0.493 OA
ATOM     15  C   UNL     1      95.439 100.225  85.770  1.00  0.00     0.278 C 
ENDBRANCH   9  14
BRANCH  10  16
ATOM     16  O   UNL     1      94.915 102.730  82.389  1.00  0.00    -0.504 OA
ATOM     17  H   UNL     1      95.349 103.230  83.084  1.00  0.00     0.293 HD
ENDBRANCH  10  16
ENDBRANCH   7   8
ENDBRANCH   4   7
ENDBRANCH   2   3
ENDBRANCH   1   2
BRANCH   1  18
ATOM     18  C   UNL     1      93.699  94.847  77.654  1.00  0.00     0.001 C 
BRANCH  18  19
ATOM     19  C   UNL     1      92.178  94.869  77.950  1.00  0.00     0.004 C 
BRANCH  19  20
ATOM     20  C   UNL     1      91.384  95.531  76.789  1.00  0.00     0.027 C 
BRANCH  20  21
ATOM     21  C   UNL     1      90.489  94.618  76.097  1.00  0.00    -0.031 C 
ATOM     22  C   UNL     1      90.825  93.342  75.837  1.00  0.00    -0.028 C 
BRANCH  22  23
ATOM     23  C   UNL     1      89.947  92.399  75.150  1.00  0.00     0.005 C 
ATOM     24  C   UNL     1      90.615  91.899  73.841  1.00  0.00     0.012 C 
ATOM     25  C   UNL     1      89.564  91.232  76.100  1.00  0.00     0.012 C 
ENDBRANCH  22  23
ENDBRANCH  20  21
ENDBRANCH  19  20
ENDBRANCH  18  19
ENDBRANCH   1  18
TORSDOF 11
ENDMDL
MODEL 10
REMARK VINA RESULT:    -5.686      5.996      9.083
REMARK INTER + INTRA:         -10.039
REMARK INTER:                  -9.004
REMARK INTRA:                  -1.034
REMARK UNBOUND:                -0.862
REMARK SMILES COc1cc(CNC(=O)CCCCC/C=C/C(C)C)ccc1O
REMARK SMILES IDX 11 1 10 2 8 3 7 4 9 6 6 7 5 8 3 9 22 10 4 11 21 12 20 13
REMARK SMILES IDX 2 14 1 15 23 16 12 18 13 19 14 20 15 21 16 22 17 23 18 24
REMARK SMILES IDX 19 25
REMARK H PARENT 7 5 23 17
REMARK Flexibility Score: inf
ROOT
ATOM      1  C   UNL     1      95.404  97.897  76.348  1.00  0.00     0.010 C 
ENDROOT
BRANCH   1   2
ATOM      2  C   UNL     1      94.172  98.099  75.428  1.00  0.00     0.100 C 
BRANCH   2   3
ATOM      3  C   UNL     1      94.485  98.058  73.988  1.00  0.00     0.220 C 
ATOM      4  N   UNL     1      94.392  99.193  73.241  1.00  0.00    -0.352 N 
ATOM      5  H   UNL     1      94.032  99.996  73.738  1.00  0.00     0.163 HD
ATOM      6  O   UNL     1      94.872  96.973  73.492  1.00  0.00    -0.275 OA
BRANCH   4   7
ATOM      7  C   UNL     1      94.757  99.315  71.867  1.00  0.00     0.151 C 
BRANCH   7   8
ATOM      8  C   UNL     1      93.618  99.732  71.008  1.00  0.00    -0.025 A 
ATOM      9  C   UNL     1      92.760 100.609  68.877  1.00  0.00     0.160 A 
ATOM     10  C   UNL     1      91.446 100.577  69.394  1.00  0.00     0.157 A 
ATOM     11  C   UNL     1      93.835 100.196  69.690  1.00  0.00     0.056 A 
ATOM     12  C   UNL     1      91.217 100.101  70.698  1.00  0.00     0.050 A 
ATOM     13  C   UNL     1      92.294  99.672  71.496  1.00  0.00     0.009 A 
BRANCH   9  14
ATOM     14  O   UNL     1      92.985 100.988  67.580  1.00  0.00    -0.493 OA
ATOM     15  C   UNL     1      94.369 101.212  67.264  1.00  0.00     0.278 C 
ENDBRANCH   9  14
BRANCH  10  16
ATOM     16  O   UNL     1      90.387 100.992  68.655  1.00  0.00    -0.504 OA
ATOM     17  H   UNL     1      90.698 101.548  67.936  1.00  0.00     0.293 HD
ENDBRANCH  10  16
ENDBRANCH   7   8
ENDBRANCH   4   7
ENDBRANCH   2   3
ENDBRANCH   1   2
BRANCH   1  18
ATOM     18  C   UNL     1      95.009  97.179  77.663  1.00  0.00     0.001 C 
BRANCH  18  19
ATOM     19  C   UNL     1      94.722  95.667  77.486  1.00  0.00     0.004 C 
BRANCH  19  20
ATOM     20  C   UNL     1      93.594  95.188  78.442  1.00  0.00     0.027 C 
BRANCH  20  21
ATOM     21  C   UNL     1      92.336  94.911  77.770  1.00  0.00    -0.031 C 
ATOM     22  C   UNL     1      92.166  95.112  76.451  1.00  0.00    -0.028 C 
BRANCH  22  23
ATOM     23  C   UNL     1      90.917  94.839  75.745  1.00  0.00     0.005 C 
ATOM     24  C   UNL     1      91.073  93.587  74.840  1.00  0.00     0.012 C 
ATOM     25  C   UNL     1      89.749  94.693  76.757  1.00  0.00     0.012 C 
ENDBRANCH  22  23
ENDBRANCH  20  21
ENDBRANCH  19  20
ENDBRANCH  18  19
ENDBRANCH   1  18
TORSDOF 11
ENDMDL
