MODEL 1
REMARK VINA RESULT:    -5.966      0.000      0.000
REMARK INTER + INTRA:         -10.279
REMARK INTER:                  -9.279
REMARK INTRA:                  -0.999
REMARK UNBOUND:                -0.999
REMARK SMILES COc1cc(CNC(=O)CCCC/C=C/C(C)C)ccc1O
REMARK SMILES IDX 10 1 8 2 7 3 9 5 6 6 5 7 3 8 21 9 4 10 20 11 19 12 2 13 1 14
REMARK SMILES IDX 22 15 11 17 12 18 13 19 14 20 15 21 16 22 17 23 18 24
REMARK H PARENT 7 4 22 16
REMARK Flexibility Score: inf
ROOT
ATOM      1  C   UNL     1      97.450  80.497  77.624  1.00  0.00     0.100 C 
ENDROOT
BRANCH   1   2
ATOM      2  C   UNL     1      97.674  80.042  79.010  1.00  0.00     0.220 C 
ATOM      3  N   UNL     1      98.009  80.933  79.985  1.00  0.00    -0.352 N 
ATOM      4  H   UNL     1      98.108  81.889  79.673  1.00  0.00     0.163 HD
ATOM      5  O   UNL     1      97.523  78.823  79.264  1.00  0.00    -0.275 OA
BRANCH   3   6
ATOM      6  C   UNL     1      98.214  80.600  81.358  1.00  0.00     0.151 C 
BRANCH   6   7
ATOM      7  C   UNL     1      97.352  81.419  82.254  1.00  0.00    -0.025 A 
ATOM      8  C   UNL     1      96.438  81.875  84.494  1.00  0.00     0.160 A 
ATOM      9  C   UNL     1      95.729  82.981  83.980  1.00  0.00     0.157 A 
ATOM     10  C   UNL     1      97.240  81.104  83.627  1.00  0.00     0.056 A 
ATOM     11  C   UNL     1      95.815  83.295  82.609  1.00  0.00     0.050 A 
ATOM     12  C   UNL     1      96.628  82.526  81.754  1.00  0.00     0.009 A 
BRANCH   8  13
ATOM     13  O   UNL     1      96.305  81.526  85.814  1.00  0.00    -0.493 OA
ATOM     14  C   UNL     1      95.212  80.627  86.076  1.00  0.00     0.278 C 
ENDBRANCH   8  13
BRANCH   9  15
ATOM     15  O   UNL     1      94.958  83.751  84.790  1.00  0.00    -0.504 OA
ATOM     16  H   UNL     1      95.414  83.898  85.622  1.00  0.00     0.293 HD
ENDBRANCH   9  15
ENDBRANCH   6   7
ENDBRANCH   3   6
ENDBRANCH   1   2
BRANCH   1  17
ATOM     17  C   UNL     1      97.266  82.037  77.550  1.00  0.00     0.010 C 
BRANCH  17  18
ATOM     18  C   UNL     1      95.845  82.454  77.077  1.00  0.00     0.005 C 
BRANCH  18  19
ATOM     19  C   UNL     1      95.876  83.262  75.752  1.00  0.00     0.027 C 
BRANCH  19  20
ATOM     20  C   UNL     1      97.201  83.274  75.150  1.00  0.00    -0.031 C 
ATOM     21  C   UNL     1      97.499  82.704  73.968  1.00  0.00    -0.028 C 
BRANCH  21  22
ATOM     22  C   UNL     1      98.834  82.745  73.371  1.00  0.00     0.005 C 
ATOM     23  C   UNL     1      99.219  84.170  72.887  1.00  0.00     0.012 C 
ATOM     24  C   UNL     1      99.885  82.198  74.372  1.00  0.00     0.012 C 
ENDBRANCH  21  22
ENDBRANCH  19  20
ENDBRANCH  18  19
ENDBRANCH  17  18
ENDBRANCH   1  17
TORSDOF 10
ENDMDL
MODEL 2
REMARK VINA RESULT:    -5.961     24.582     27.248
REMARK INTER + INTRA:         -10.271
REMARK INTER:                  -9.053
REMARK INTRA:                  -1.218
REMARK UNBOUND:                -0.999
REMARK SMILES COc1cc(CNC(=O)CCCC/C=C/C(C)C)ccc1O
REMARK SMILES IDX 10 1 8 2 7 3 9 5 6 6 5 7 3 8 21 9 4 10 20 11 19 12 2 13 1 14
REMARK SMILES IDX 22 15 11 17 12 18 13 19 14 20 15 21 16 22 17 23 18 24
REMARK H PARENT 7 4 22 16
REMARK Flexibility Score: inf
ROOT
ATOM      1  C   UNL     1      77.562  83.661  66.672  1.00  0.00     0.100 C 
ENDROOT
BRANCH   1   2
ATOM      2  C   UNL     1      76.734  83.388  65.481  1.00  0.00     0.220 C 
ATOM      3  N   UNL     1      76.061  82.209  65.363  1.00  0.00    -0.352 N 
ATOM      4  H   UNL     1      76.200  81.561  66.125  1.00  0.00     0.163 HD
ATOM      5  O   UNL     1      76.652  84.278  64.600  1.00  0.00    -0.275 OA
BRANCH   3   6
ATOM      6  C   UNL     1      75.211  81.862  64.269  1.00  0.00     0.151 C 
BRANCH   6   7
ATOM      7  C   UNL     1      73.774  81.949  64.645  1.00  0.00    -0.025 A 
ATOM      8  C   UNL     1      71.926  83.167  65.725  1.00  0.00     0.160 A 
ATOM      9  C   UNL     1      71.032  82.142  65.353  1.00  0.00     0.157 A 
ATOM     10  C   UNL     1      73.287  83.061  65.370  1.00  0.00     0.056 A 
ATOM     11  C   UNL     1      71.507  81.018  64.648  1.00  0.00     0.050 A 
ATOM     12  C   UNL     1      72.865  80.926  64.287  1.00  0.00     0.009 A 
BRANCH   8  13
ATOM     13  O   UNL     1      71.482  84.231  66.469  1.00  0.00    -0.493 OA
ATOM     14  C   UNL     1      71.407  85.468  65.737  1.00  0.00     0.278 C 
ENDBRANCH   8  13
BRANCH   9  15
ATOM     15  O   UNL     1      69.713  82.220  65.668  1.00  0.00    -0.504 OA
ATOM     16  H   UNL     1      69.460  83.141  65.763  1.00  0.00     0.293 HD
ENDBRANCH   9  15
ENDBRANCH   6   7
ENDBRANCH   3   6
ENDBRANCH   1   2
BRANCH   1  17
ATOM     17  C   UNL     1      76.968  84.810  67.531  1.00  0.00     0.010 C 
BRANCH  17  18
ATOM     18  C   UNL     1      75.725  84.369  68.353  1.00  0.00     0.005 C 
BRANCH  18  19
ATOM     19  C   UNL     1      74.579  85.416  68.298  1.00  0.00     0.027 C 
BRANCH  19  20
ATOM     20  C   UNL     1      75.046  86.714  67.837  1.00  0.00    -0.031 C 
ATOM     21  C   UNL     1      74.997  87.841  68.571  1.00  0.00    -0.028 C 
BRANCH  21  22
ATOM     22  C   UNL     1      75.490  89.132  68.094  1.00  0.00     0.005 C 
ATOM     23  C   UNL     1      75.348  90.250  69.164  1.00  0.00     0.012 C 
ATOM     24  C   UNL     1      76.962  89.003  67.623  1.00  0.00     0.012 C 
ENDBRANCH  21  22
ENDBRANCH  19  20
ENDBRANCH  18  19
ENDBRANCH  17  18
ENDBRANCH   1  17
TORSDOF 10
ENDMDL
MODEL 3
REMARK VINA RESULT:    -5.893      3.248      9.276
REMARK INTER + INTRA:         -10.165
REMARK INTER:                  -9.587
REMARK INTRA:                  -0.578
REMARK UNBOUND:                -0.999
REMARK SMILES COc1cc(CNC(=O)CCCC/C=C/C(C)C)ccc1O
REMARK SMILES IDX 10 1 8 2 7 3 9 5 6 6 5 7 3 8 21 9 4 10 20 11 19 12 2 13 1 14
REMARK SMILES IDX 22 15 11 17 12 18 13 19 14 20 15 21 16 22 17 23 18 24
REMARK H PARENT 7 4 22 16
REMARK Flexibility Score: inf
ROOT
ATOM      1  C   UNL     1      96.517  82.192  82.727  1.00  0.00     0.100 C 
ENDROOT
BRANCH   1   2
ATOM      2  C   UNL     1      96.947  81.434  81.536  1.00  0.00     0.220 C 
ATOM      3  N   UNL     1      97.627  82.053  80.531  1.00  0.00    -0.352 N 
ATOM      4  H   UNL     1      97.779  83.043  80.666  1.00  0.00     0.163 HD
ATOM      5  O   UNL     1      96.688  80.207  81.490  1.00  0.00    -0.275 OA
BRANCH   3   6
ATOM      6  C   UNL     1      98.113  81.404  79.356  1.00  0.00     0.151 C 
BRANCH   6   7
ATOM      7  C   UNL     1      97.480  81.954  78.126  1.00  0.00    -0.025 A 
ATOM      8  C   UNL     1      97.566  82.409  75.708  1.00  0.00     0.160 A 
ATOM      9  C   UNL     1      96.278  82.980  75.769  1.00  0.00     0.157 A 
ATOM     10  C   UNL     1      98.155  81.904  76.886  1.00  0.00     0.056 A 
ATOM     11  C   UNL     1      95.600  83.055  77.002  1.00  0.00     0.050 A 
ATOM     12  C   UNL     1      96.192  82.537  78.171  1.00  0.00     0.009 A 
BRANCH   8  13
ATOM     13  O   UNL     1      98.256  82.394  74.523  1.00  0.00    -0.493 OA
ATOM     14  C   UNL     1      98.147  81.156  73.796  1.00  0.00     0.278 C 
ENDBRANCH   8  13
BRANCH   9  15
ATOM     15  O   UNL     1      95.677  83.464  74.651  1.00  0.00    -0.504 OA
ATOM     16  H   UNL     1      96.335  83.595  73.965  1.00  0.00     0.293 HD
ENDBRANCH   9  15
ENDBRANCH   6   7
ENDBRANCH   3   6
ENDBRANCH   1   2
BRANCH   1  17
ATOM     17  C   UNL     1      95.799  81.280  83.758  1.00  0.00     0.010 C 
BRANCH  17  18
ATOM     18  C   UNL     1      94.326  81.704  84.019  1.00  0.00     0.005 C 
BRANCH  18  19
ATOM     19  C   UNL     1      93.853  81.346  85.453  1.00  0.00     0.027 C 
BRANCH  19  20
ATOM     20  C   UNL     1      92.407  81.431  85.590  1.00  0.00    -0.031 C 
ATOM     21  C   UNL     1      91.533  80.835  84.759  1.00  0.00    -0.028 C 
BRANCH  21  22
ATOM     22  C   UNL     1      90.082  80.917  84.927  1.00  0.00     0.005 C 
ATOM     23  C   UNL     1      89.326  79.894  84.034  1.00  0.00     0.012 C 
ATOM     24  C   UNL     1      89.704  80.734  86.420  1.00  0.00     0.012 C 
ENDBRANCH  21  22
ENDBRANCH  19  20
ENDBRANCH  18  19
ENDBRANCH  17  18
ENDBRANCH   1  17
TORSDOF 10
ENDMDL
MODEL 4
REMARK VINA RESULT:    -5.671      2.610      9.055
REMARK INTER + INTRA:          -9.819
REMARK INTER:                  -9.028
REMARK INTRA:                  -0.791
REMARK UNBOUND:                -0.999
REMARK SMILES COc1cc(CNC(=O)CCCC/C=C/C(C)C)ccc1O
REMARK SMILES IDX 10 1 8 2 7 3 9 5 6 6 5 7 3 8 21 9 4 10 20 11 19 12 2 13 1 14
REMARK SMILES IDX 22 15 11 17 12 18 13 19 14 20 15 21 16 22 17 23 18 24
REMARK H PARENT 7 4 22 16
REMARK Flexibility Score: inf
ROOT
ATOM      1  C   UNL     1      96.391  82.005  82.536  1.00  0.00     0.100 C 
ENDROOT
BRANCH   1   2
ATOM      2  C   UNL     1      97.000  81.302  81.391  1.00  0.00     0.220 C 
ATOM      3  N   UNL     1      97.464  82.000  80.318  1.00  0.00    -0.352 N 
ATOM      4  H   UNL     1      97.332  83.001  80.371  1.00  0.00     0.163 HD
ATOM      5  O   UNL     1      97.097  80.052  81.448  1.00  0.00    -0.275 OA
BRANCH   3   6
ATOM      6  C   UNL     1      98.096  81.419  79.177  1.00  0.00     0.151 C 
BRANCH   6   7
ATOM      7  C   UNL     1      97.525  81.944  77.907  1.00  0.00    -0.025 A 
ATOM      8  C   UNL     1      97.723  82.336  75.485  1.00  0.00     0.160 A 
ATOM      9  C   UNL     1      96.441  82.924  75.474  1.00  0.00     0.157 A 
ATOM     10  C   UNL     1      98.253  81.854  76.700  1.00  0.00     0.056 A 
ATOM     11  C   UNL     1      95.711  83.038  76.673  1.00  0.00     0.050 A 
ATOM     12  C   UNL     1      96.244  82.544  77.880  1.00  0.00     0.009 A 
BRANCH   8  13
ATOM     13  O   UNL     1      98.465  82.282  74.332  1.00  0.00    -0.493 OA
ATOM     14  C   UNL     1      99.753  82.916  74.433  1.00  0.00     0.278 C 
ENDBRANCH   8  13
BRANCH   9  15
ATOM     15  O   UNL     1      95.897  83.385  74.319  1.00  0.00    -0.504 OA
ATOM     16  H   UNL     1      96.586  83.491  73.659  1.00  0.00     0.293 HD
ENDBRANCH   9  15
ENDBRANCH   6   7
ENDBRANCH   3   6
ENDBRANCH   1   2
BRANCH   1  17
ATOM     17  C   UNL     1      96.314  81.096  83.792  1.00  0.00     0.010 C 
BRANCH  17  18
ATOM     18  C   UNL     1      94.861  80.662  84.136  1.00  0.00     0.005 C 
BRANCH  18  19
ATOM     19  C   UNL     1      94.596  80.648  85.666  1.00  0.00     0.027 C 
BRANCH  19  20
ATOM     20  C   UNL     1      94.847  81.945  86.277  1.00  0.00    -0.031 C 
ATOM     21  C   UNL     1      94.260  83.091  85.886  1.00  0.00    -0.028 C 
BRANCH  21  22
ATOM     22  C   UNL     1      94.513  84.381  86.527  1.00  0.00     0.005 C 
ATOM     23  C   UNL     1      95.511  84.264  87.713  1.00  0.00     0.012 C 
ATOM     24  C   UNL     1      95.014  85.410  85.482  1.00  0.00     0.012 C 
ENDBRANCH  21  22
ENDBRANCH  19  20
ENDBRANCH  18  19
ENDBRANCH  17  18
ENDBRANCH   1  17
TORSDOF 10
ENDMDL
MODEL 5
REMARK VINA RESULT:    -5.631     12.603     14.679
REMARK INTER + INTRA:          -9.757
REMARK INTER:                  -9.211
REMARK INTRA:                  -0.547
REMARK UNBOUND:                -0.999
REMARK SMILES COc1cc(CNC(=O)CCCC/C=C/C(C)C)ccc1O
REMARK SMILES IDX 10 1 8 2 7 3 9 5 6 6 5 7 3 8 21 9 4 10 20 11 19 12 2 13 1 14
REMARK SMILES IDX 22 15 11 17 12 18 13 19 14 20 15 21 16 22 17 23 18 24
REMARK H PARENT 7 4 22 16
REMARK Flexibility Score: inf
ROOT
ATOM      1  C   UNL     1      95.339  96.348  73.278  1.00  0.00     0.100 C 
ENDROOT
BRANCH   1   2
ATOM      2  C   UNL     1      96.092  96.522  74.535  1.00  0.00     0.220 C 
ATOM      3  N   UNL     1      95.543  96.153  75.726  1.00  0.00    -0.352 N 
ATOM      4  H   UNL     1      94.602  95.789  75.668  1.00  0.00     0.163 HD
ATOM      5  O   UNL     1      97.252  96.993  74.470  1.00  0.00    -0.275 OA
BRANCH   3   6
ATOM      6  C   UNL     1      96.198  96.250  76.991  1.00  0.00     0.151 C 
BRANCH   6   7
ATOM      7  C   UNL     1      95.744  95.184  77.925  1.00  0.00    -0.025 A 
ATOM      8  C   UNL     1      93.988  93.644  78.706  1.00  0.00     0.160 A 
ATOM      9  C   UNL     1      94.868  93.137  79.686  1.00  0.00     0.157 A 
ATOM     10  C   UNL     1      94.433  94.663  77.838  1.00  0.00     0.056 A 
ATOM     11  C   UNL     1      96.171  93.661  79.798  1.00  0.00     0.050 A 
ATOM     12  C   UNL     1      96.610  94.670  78.919  1.00  0.00     0.009 A 
BRANCH   8  13
ATOM     13  O   UNL     1      92.698  93.184  78.636  1.00  0.00    -0.493 OA
ATOM     14  C   UNL     1      91.978  93.631  77.473  1.00  0.00     0.278 C 
ENDBRANCH   8  13
BRANCH   9  15
ATOM     15  O   UNL     1      94.475  92.148  80.529  1.00  0.00    -0.504 OA
ATOM     16  H   UNL     1      95.147  92.014  81.201  1.00  0.00     0.293 HD
ENDBRANCH   9  15
ENDBRANCH   6   7
ENDBRANCH   3   6
ENDBRANCH   1   2
BRANCH   1  17
ATOM     17  C   UNL     1      95.962  97.171  72.119  1.00  0.00     0.010 C 
BRANCH  17  18
ATOM     18  C   UNL     1      96.217  96.321  70.842  1.00  0.00     0.005 C 
BRANCH  18  19
ATOM     19  C   UNL     1      97.114  97.059  69.811  1.00  0.00     0.027 C 
BRANCH  19  20
ATOM     20  C   UNL     1      98.435  96.457  69.706  1.00  0.00    -0.031 C 
ATOM     21  C   UNL     1      99.479  97.031  69.081  1.00  0.00    -0.028 C 
BRANCH  21  22
ATOM     22  C   UNL     1     100.804  96.416  69.004  1.00  0.00     0.005 C 
ATOM     23  C   UNL     1     100.864  95.051  69.744  1.00  0.00     0.012 C 
ATOM     24  C   UNL     1     101.239  96.263  67.524  1.00  0.00     0.012 C 
ENDBRANCH  21  22
ENDBRANCH  19  20
ENDBRANCH  18  19
ENDBRANCH  17  18
ENDBRANCH   1  17
TORSDOF 10
ENDMDL
MODEL 6
REMARK VINA RESULT:    -5.564     19.900     21.574
REMARK INTER + INTRA:          -9.653
REMARK INTER:                  -8.193
REMARK INTRA:                  -1.460
REMARK UNBOUND:                -0.999
REMARK SMILES COc1cc(CNC(=O)CCCC/C=C/C(C)C)ccc1O
REMARK SMILES IDX 10 1 8 2 7 3 9 5 6 6 5 7 3 8 21 9 4 10 20 11 19 12 2 13 1 14
REMARK SMILES IDX 22 15 11 17 12 18 13 19 14 20 15 21 16 22 17 23 18 24
REMARK H PARENT 7 4 22 16
REMARK Flexibility Score: inf
ROOT
ATOM      1  C   UNL     1      82.015  65.455  76.327  1.00  0.00     0.100 C 
ENDROOT
BRANCH   1   2
ATOM      2  C   UNL     1      83.357  65.833  75.843  1.00  0.00     0.220 C 
ATOM      3  N   UNL     1      83.684  67.144  75.662  1.00  0.00    -0.352 N 
ATOM      4  H   UNL     1      82.940  67.799  75.860  1.00  0.00     0.163 HD
ATOM      5  O   UNL     1      84.189  64.918  75.629  1.00  0.00    -0.275 OA
BRANCH   3   6
ATOM      6  C   UNL     1      84.961  67.614  75.230  1.00  0.00     0.151 C 
BRANCH   6   7
ATOM      7  C   UNL     1      84.838  68.547  74.078  1.00  0.00    -0.025 A 
ATOM      8  C   UNL     1      85.346  70.719  73.034  1.00  0.00     0.160 A 
ATOM      9  C   UNL     1      84.631  70.332  71.881  1.00  0.00     0.157 A 
ATOM     10  C   UNL     1      85.441  69.825  74.121  1.00  0.00     0.056 A 
ATOM     11  C   UNL     1      84.009  69.069  71.831  1.00  0.00     0.050 A 
ATOM     12  C   UNL     1      84.119  68.179  72.917  1.00  0.00     0.009 A 
BRANCH   8  13
ATOM     13  O   UNL     1      85.898  71.972  73.113  1.00  0.00    -0.493 OA
ATOM     14  C   UNL     1      85.138  72.898  73.910  1.00  0.00     0.278 C 
ENDBRANCH   8  13
BRANCH   9  15
ATOM     15  O   UNL     1      84.532  71.164  70.812  1.00  0.00    -0.504 OA
ATOM     16  H   UNL     1      84.049  71.954  71.064  1.00  0.00     0.293 HD
ENDBRANCH   9  15
ENDBRANCH   6   7
ENDBRANCH   3   6
ENDBRANCH   1   2
BRANCH   1  17
ATOM     17  C   UNL     1      81.399  64.314  75.473  1.00  0.00     0.010 C 
BRANCH  17  18
ATOM     18  C   UNL     1      80.209  64.792  74.594  1.00  0.00     0.005 C 
BRANCH  18  19
ATOM     19  C   UNL     1      80.533  66.098  73.820  1.00  0.00     0.027 C 
BRANCH  19  20
ATOM     20  C   UNL     1      81.352  65.848  72.643  1.00  0.00    -0.031 C 
ATOM     21  C   UNL     1      80.884  65.849  71.382  1.00  0.00    -0.028 C 
BRANCH  21  22
ATOM     22  C   UNL     1      81.730  65.614  70.212  1.00  0.00     0.005 C 
ATOM     23  C   UNL     1      81.697  66.804  69.213  1.00  0.00     0.012 C 
ATOM     24  C   UNL     1      83.183  65.304  70.655  1.00  0.00     0.012 C 
ENDBRANCH  21  22
ENDBRANCH  19  20
ENDBRANCH  18  19
ENDBRANCH  17  18
ENDBRANCH   1  17
TORSDOF 10
ENDMDL
MODEL 7
REMARK VINA RESULT:    -5.414     13.725     15.616
REMARK INTER + INTRA:          -9.421
REMARK INTER:                  -8.678
REMARK INTRA:                  -0.743
REMARK UNBOUND:                -0.999
REMARK SMILES COc1cc(CNC(=O)CCCC/C=C/C(C)C)ccc1O
REMARK SMILES IDX 10 1 8 2 7 3 9 5 6 6 5 7 3 8 21 9 4 10 20 11 19 12 2 13 1 14
REMARK SMILES IDX 22 15 11 17 12 18 13 19 14 20 15 21 16 22 17 23 18 24
REMARK H PARENT 7 4 22 16
REMARK Flexibility Score: inf
ROOT
ATOM      1  C   UNL     1      95.660  96.489  73.434  1.00  0.00     0.100 C 
ENDROOT
BRANCH   1   2
ATOM      2  C   UNL     1      96.338  96.657  74.734  1.00  0.00     0.220 C 
ATOM      3  N   UNL     1      95.763  96.195  75.879  1.00  0.00    -0.352 N 
ATOM      4  H   UNL     1      94.856  95.767  75.758  1.00  0.00     0.163 HD
ATOM      5  O   UNL     1      97.463  97.214  74.747  1.00  0.00    -0.275 OA
BRANCH   3   6
ATOM      6  C   UNL     1      96.350  96.280  77.178  1.00  0.00     0.151 C 
BRANCH   6   7
ATOM      7  C   UNL     1      95.851  95.202  78.075  1.00  0.00    -0.025 A 
ATOM      8  C   UNL     1      94.079  93.620  78.719  1.00  0.00     0.160 A 
ATOM      9  C   UNL     1      94.891  93.133  79.764  1.00  0.00     0.157 A 
ATOM     10  C   UNL     1      94.564  94.650  77.887  1.00  0.00     0.056 A 
ATOM     11  C   UNL     1      96.169  93.688  79.976  1.00  0.00     0.050 A 
ATOM     12  C   UNL     1      96.650  94.708  79.132  1.00  0.00     0.009 A 
BRANCH   8  13
ATOM     13  O   UNL     1      92.809  93.129  78.550  1.00  0.00    -0.493 OA
ATOM     14  C   UNL     1      92.214  93.463  77.282  1.00  0.00     0.278 C 
ENDBRANCH   8  13
BRANCH   9  15
ATOM     15  O   UNL     1      94.459  92.133  80.575  1.00  0.00    -0.504 OA
ATOM     16  H   UNL     1      94.404  91.316  80.074  1.00  0.00     0.293 HD
ENDBRANCH   9  15
ENDBRANCH   6   7
ENDBRANCH   3   6
ENDBRANCH   1   2
BRANCH   1  17
ATOM     17  C   UNL     1      96.290  97.389  72.338  1.00  0.00     0.010 C 
BRANCH  17  18
ATOM     18  C   UNL     1      95.927  96.931  70.897  1.00  0.00     0.005 C 
BRANCH  18  19
ATOM     19  C   UNL     1      95.806  98.124  69.911  1.00  0.00     0.027 C 
BRANCH  19  20
ATOM     20  C   UNL     1      94.896  99.149  70.402  1.00  0.00    -0.031 C 
ATOM     21  C   UNL     1      93.562  98.997  70.488  1.00  0.00    -0.028 C 
BRANCH  21  22
ATOM     22  C   UNL     1      92.668 100.034  71.004  1.00  0.00     0.005 C 
ATOM     23  C   UNL     1      91.172  99.633  70.888  1.00  0.00     0.012 C 
ATOM     24  C   UNL     1      93.036 100.379  72.470  1.00  0.00     0.012 C 
ENDBRANCH  21  22
ENDBRANCH  19  20
ENDBRANCH  18  19
ENDBRANCH  17  18
ENDBRANCH   1  17
TORSDOF 10
ENDMDL
MODEL 8
REMARK VINA RESULT:    -5.370      5.660      8.550
REMARK INTER + INTRA:          -9.352
REMARK INTER:                  -8.788
REMARK INTRA:                  -0.564
REMARK UNBOUND:                -0.999
REMARK SMILES COc1cc(CNC(=O)CCCC/C=C/C(C)C)ccc1O
REMARK SMILES IDX 10 1 8 2 7 3 9 5 6 6 5 7 3 8 21 9 4 10 20 11 19 12 2 13 1 14
REMARK SMILES IDX 22 15 11 17 12 18 13 19 14 20 15 21 16 22 17 23 18 24
REMARK H PARENT 7 4 22 16
REMARK Flexibility Score: inf
ROOT
ATOM      1  C   UNL     1      94.861  83.326  85.868  1.00  0.00     0.100 C 
ENDROOT
BRANCH   1   2
ATOM      2  C   UNL     1      95.506  84.085  86.956  1.00  0.00     0.220 C 
ATOM      3  N   UNL     1      95.610  85.442  86.885  1.00  0.00    -0.352 N 
ATOM      4  H   UNL     1      95.241  85.854  86.039  1.00  0.00     0.163 HD
ATOM      5  O   UNL     1      95.929  83.450  87.952  1.00  0.00    -0.275 OA
BRANCH   3   6
ATOM      6  C   UNL     1      96.186  86.270  87.896  1.00  0.00     0.151 C 
BRANCH   6   7
ATOM      7  C   UNL     1      95.139  86.936  88.718  1.00  0.00    -0.025 A 
ATOM      8  C   UNL     1      94.178  88.984  89.690  1.00  0.00     0.160 A 
ATOM      9  C   UNL     1      93.140  88.224  90.267  1.00  0.00     0.157 A 
ATOM     10  C   UNL     1      95.167  88.334  88.923  1.00  0.00     0.056 A 
ATOM     11  C   UNL     1      93.109  86.827  90.088  1.00  0.00     0.050 A 
ATOM     12  C   UNL     1      94.095  86.188  89.311  1.00  0.00     0.009 A 
BRANCH   8  13
ATOM     13  O   UNL     1      94.249  90.335  89.916  1.00  0.00    -0.493 OA
ATOM     14  C   UNL     1      95.275  91.004  89.160  1.00  0.00     0.278 C 
ENDBRANCH   8  13
BRANCH   9  15
ATOM     15  O   UNL     1      92.164  88.821  91.000  1.00  0.00    -0.504 OA
ATOM     16  H   UNL     1      91.313  88.671  90.582  1.00  0.00     0.293 HD
ENDBRANCH   9  15
ENDBRANCH   6   7
ENDBRANCH   3   6
ENDBRANCH   1   2
BRANCH   1  17
ATOM     17  C   UNL     1      95.843  83.060  84.695  1.00  0.00     0.010 C 
BRANCH  17  18
ATOM     18  C   UNL     1      95.199  82.243  83.540  1.00  0.00     0.005 C 
BRANCH  18  19
ATOM     19  C   UNL     1      95.749  80.792  83.466  1.00  0.00     0.027 C 
BRANCH  19  20
ATOM     20  C   UNL     1      96.401  80.519  82.194  1.00  0.00    -0.031 C 
ATOM     21  C   UNL     1      97.099  81.429  81.492  1.00  0.00    -0.028 C 
BRANCH  21  22
ATOM     22  C   UNL     1      97.764  81.126  80.224  1.00  0.00     0.005 C 
ATOM     23  C   UNL     1      97.712  79.612  79.879  1.00  0.00     0.012 C 
ATOM     24  C   UNL     1      97.151  81.976  79.081  1.00  0.00     0.012 C 
ENDBRANCH  21  22
ENDBRANCH  19  20
ENDBRANCH  18  19
ENDBRANCH  17  18
ENDBRANCH   1  17
TORSDOF 10
ENDMDL
MODEL 9
REMARK VINA RESULT:    -5.322     22.269     25.510
REMARK INTER + INTRA:          -9.278
REMARK INTER:                  -7.739
REMARK INTRA:                  -1.539
REMARK UNBOUND:                -0.999
REMARK SMILES COc1cc(CNC(=O)CCCC/C=C/C(C)C)ccc1O
REMARK SMILES IDX 10 1 8 2 7 3 9 5 6 6 5 7 3 8 21 9 4 10 20 11 19 12 2 13 1 14
REMARK SMILES IDX 22 15 11 17 12 18 13 19 14 20 15 21 16 22 17 23 18 24
REMARK H PARENT 7 4 22 16
REMARK Flexibility Score: inf
ROOT
ATOM      1  C   UNL     1      89.004 106.122  68.346  1.00  0.00     0.100 C 
ENDROOT
BRANCH   1   2
ATOM      2  C   UNL     1      87.932 105.293  67.761  1.00  0.00     0.220 C 
ATOM      3  N   UNL     1      88.170 104.536  66.653  1.00  0.00    -0.352 N 
ATOM      4  H   UNL     1      89.105 104.615  66.276  1.00  0.00     0.163 HD
ATOM      5  O   UNL     1      86.811 105.290  68.324  1.00  0.00    -0.275 OA
BRANCH   3   6
ATOM      6  C   UNL     1      87.213 103.678  66.030  1.00  0.00     0.151 C 
BRANCH   6   7
ATOM      7  C   UNL     1      87.570 102.244  66.204  1.00  0.00    -0.025 A 
ATOM      8  C   UNL     1      89.277 100.500  66.531  1.00  0.00     0.160 A 
ATOM      9  C   UNL     1      88.267  99.515  66.557  1.00  0.00     0.157 A 
ATOM     10  C   UNL     1      88.920 101.852  66.353  1.00  0.00     0.056 A 
ATOM     11  C   UNL     1      86.919  99.888  66.391  1.00  0.00     0.050 A 
ATOM     12  C   UNL     1      86.571 101.243  66.225  1.00  0.00     0.009 A 
BRANCH   8  13
ATOM     13  O   UNL     1      90.596 100.134  66.626  1.00  0.00    -0.493 OA
ATOM     14  C   UNL     1      91.519 101.146  66.182  1.00  0.00     0.278 C 
ENDBRANCH   8  13
BRANCH   9  15
ATOM     15  O   UNL     1      88.576  98.206  66.739  1.00  0.00    -0.504 OA
ATOM     16  H   UNL     1      88.339  97.708  65.954  1.00  0.00     0.293 HD
ENDBRANCH   9  15
ENDBRANCH   6   7
ENDBRANCH   3   6
ENDBRANCH   1   2
BRANCH   1  17
ATOM     17  C   UNL     1      90.338 105.337  68.458  1.00  0.00     0.010 C 
BRANCH  17  18
ATOM     18  C   UNL     1      90.485 104.585  69.811  1.00  0.00     0.005 C 
BRANCH  18  19
ATOM     19  C   UNL     1      89.615 103.301  69.871  1.00  0.00     0.027 C 
BRANCH  19  20
ATOM     20  C   UNL     1      90.421 102.090  69.838  1.00  0.00    -0.031 C 
ATOM     21  C   UNL     1      89.965 100.868  70.169  1.00  0.00    -0.028 C 
BRANCH  21  22
ATOM     22  C   UNL     1      90.790  99.661  70.109  1.00  0.00     0.005 C 
ATOM     23  C   UNL     1      91.816  99.591  71.274  1.00  0.00     0.012 C 
ATOM     24  C   UNL     1      89.890  98.398  70.088  1.00  0.00     0.012 C 
ENDBRANCH  21  22
ENDBRANCH  19  20
ENDBRANCH  18  19
ENDBRANCH  17  18
ENDBRANCH   1  17
TORSDOF 10
ENDMDL
MODEL 10
REMARK VINA RESULT:    -5.318     23.807     25.489
REMARK INTER + INTRA:          -9.272
REMARK INTER:                  -8.552
REMARK INTRA:                  -0.720
REMARK UNBOUND:                -0.999
REMARK SMILES COc1cc(CNC(=O)CCCC/C=C/C(C)C)ccc1O
REMARK SMILES IDX 10 1 8 2 7 3 9 5 6 6 5 7 3 8 21 9 4 10 20 11 19 12 2 13 1 14
REMARK SMILES IDX 22 15 11 17 12 18 13 19 14 20 15 21 16 22 17 23 18 24
REMARK H PARENT 7 4 22 16
REMARK Flexibility Score: inf
ROOT
ATOM      1  C   UNL     1      74.273  90.148  69.345  1.00  0.00     0.100 C 
ENDROOT
BRANCH   1   2
ATOM      2  C   UNL     1      73.858  91.265  70.215  1.00  0.00     0.220 C 
ATOM      3  N   UNL     1      74.680  92.334  70.408  1.00  0.00    -0.352 N 
ATOM      4  H   UNL     1      75.573  92.276  69.937  1.00  0.00     0.163 HD
ATOM      5  O   UNL     1      72.723  91.210  70.748  1.00  0.00    -0.275 OA
BRANCH   3   6
ATOM      6  C   UNL     1      74.360  93.476  71.203  1.00  0.00     0.151 C 
BRANCH   6   7
ATOM      7  C   UNL     1      75.580  94.087  71.797  1.00  0.00    -0.025 A 
ATOM      8  C   UNL     1      77.284  95.864  71.803  1.00  0.00     0.160 A 
ATOM      9  C   UNL     1      77.894  95.277  72.931  1.00  0.00     0.157 A 
ATOM     10  C   UNL     1      76.136  95.264  71.246  1.00  0.00     0.056 A 
ATOM     11  C   UNL     1      77.362  94.094  73.480  1.00  0.00     0.050 A 
ATOM     12  C   UNL     1      76.208  93.508  72.924  1.00  0.00     0.009 A 
BRANCH   8  13
ATOM     13  O   UNL     1      77.836  96.979  71.225  1.00  0.00    -0.493 OA
ATOM     14  C   UNL     1      77.532  97.127  69.826  1.00  0.00     0.278 C 
ENDBRANCH   8  13
BRANCH   9  15
ATOM     15  O   UNL     1      78.993  95.838  73.499  1.00  0.00    -0.504 OA
ATOM     16  H   UNL     1      79.763  95.296  73.311  1.00  0.00     0.293 HD
ENDBRANCH   9  15
ENDBRANCH   6   7
ENDBRANCH   3   6
ENDBRANCH   1   2
BRANCH   1  17
ATOM     17  C   UNL     1      75.783  90.226  68.994  1.00  0.00     0.010 C 
BRANCH  17  18
ATOM     18  C   UNL     1      76.093  89.749  67.547  1.00  0.00     0.005 C 
BRANCH  18  19
ATOM     19  C   UNL     1      77.375  88.875  67.475  1.00  0.00     0.027 C 
BRANCH  19  20
ATOM     20  C   UNL     1      77.066  87.467  67.280  1.00  0.00    -0.031 C 
ATOM     21  C   UNL     1      76.635  86.644  68.254  1.00  0.00    -0.028 C 
BRANCH  21  22
ATOM     22  C   UNL     1      76.311  85.236  68.030  1.00  0.00     0.005 C 
ATOM     23  C   UNL     1      77.416  84.499  67.222  1.00  0.00     0.012 C 
ATOM     24  C   UNL     1      76.048  84.525  69.383  1.00  0.00     0.012 C 
ENDBRANCH  21  22
ENDBRANCH  19  20
ENDBRANCH  18  19
ENDBRANCH  17  18
ENDBRANCH   1  17
TORSDOF 10
ENDMDL
