MODEL 1
REMARK VINA RESULT:    -7.261      0.000      0.000
REMARK INTER + INTRA:          -8.933
REMARK INTER:                  -8.534
REMARK INTRA:                  -0.399
REMARK UNBOUND:                -0.399
REMARK SMILES O=C(/C=C/C=C/c1ccc2c(c1)OCO2)N1CCCCC1
REMARK SMILES IDX 3 1 4 2 2 3 1 4 16 5 17 6 21 7 18 8 20 9 19 10 5 11 6 12
REMARK SMILES IDX 7 13 12 14 8 15 11 16 9 17 13 18 10 19 14 20 15 21
REMARK H PARENT
REMARK Flexibility Score: inf
ROOT
ATOM      1  C   UNL     1      98.980  82.930  81.087  1.00  0.00     0.071 C 
ATOM      2  C   UNL     1      99.038  82.124  82.145  1.00  0.00     0.006 C 
ENDROOT
BRANCH   1   3
ATOM      3  C   UNL     1      99.805  82.593  79.910  1.00  0.00     0.246 C 
ATOM      4  O   UNL     1     100.816  81.916  80.099  1.00  0.00    -0.270 OA
ATOM      5  N   UNL     1      99.388  83.067  78.667  1.00  0.00    -0.339 N 
ATOM      6  C   UNL     1     100.190  82.752  77.481  1.00  0.00     0.120 C 
ATOM      7  C   UNL     1      98.214  83.914  78.409  1.00  0.00     0.120 C 
ATOM      8  C   UNL     1      99.338  82.126  76.382  1.00  0.00     0.022 C 
ATOM      9  C   UNL     1      97.334  83.320  77.309  1.00  0.00     0.022 C 
ATOM     10  C   UNL     1      98.139  83.009  76.050  1.00  0.00     0.004 C 
ENDBRANCH   1   3
BRANCH   2  11
ATOM     11  C   UNL     1      98.267  82.371  83.345  1.00  0.00     0.001 C 
ATOM     12  C   UNL     1      97.712  83.563  83.619  1.00  0.00     0.008 C 
BRANCH  12  13
ATOM     13  C   UNL     1      96.926  83.871  84.826  1.00  0.00    -0.022 A 
ATOM     14  C   UNL     1      96.859  85.184  85.271  1.00  0.00     0.058 A 
ATOM     15  C   UNL     1      96.269  82.832  85.490  1.00  0.00     0.012 A 
ATOM     16  C   UNL     1      96.111  85.423  86.406  1.00  0.00     0.166 A 
ATOM     17  C   UNL     1      95.518  83.103  86.636  1.00  0.00     0.051 A 
ATOM     18  O   UNL     1      95.924  86.635  86.998  1.00  0.00    -0.454 OA
ATOM     19  C   UNL     1      95.458  84.411  87.070  1.00  0.00     0.165 A 
ATOM     20  C   UNL     1      95.081  86.270  88.109  1.00  0.00     0.468 C 
ATOM     21  O   UNL     1      94.781  84.860  88.161  1.00  0.00    -0.454 OA
ENDBRANCH  12  13
ENDBRANCH   2  11
TORSDOF 3
ENDMDL
MODEL 2
REMARK VINA RESULT:    -7.148      2.782      8.689
REMARK INTER + INTRA:          -8.800
REMARK INTER:                  -8.524
REMARK INTRA:                  -0.276
REMARK UNBOUND:                -0.399
REMARK SMILES O=C(/C=C/C=C/c1ccc2c(c1)OCO2)N1CCCCC1
REMARK SMILES IDX 3 1 4 2 2 3 1 4 16 5 17 6 21 7 18 8 20 9 19 10 5 11 6 12
REMARK SMILES IDX 7 13 12 14 8 15 11 16 9 17 13 18 10 19 14 20 15 21
REMARK H PARENT
REMARK Flexibility Score: inf
ROOT
ATOM      1  C   UNL     1      98.542  83.209  85.235  1.00  0.00     0.071 C 
ATOM      2  C   UNL     1      98.063  82.305  84.382  1.00  0.00     0.006 C 
ENDROOT
BRANCH   1   3
ATOM      3  C   UNL     1      98.067  83.167  86.632  1.00  0.00     0.246 C 
ATOM      4  O   UNL     1      98.755  82.555  87.450  1.00  0.00    -0.270 OA
ATOM      5  N   UNL     1      96.870  83.817  86.931  1.00  0.00    -0.339 N 
ATOM      6  C   UNL     1      96.369  83.788  88.308  1.00  0.00     0.120 C 
ATOM      7  C   UNL     1      96.000  84.518  85.975  1.00  0.00     0.120 C 
ATOM      8  C   UNL     1      96.071  85.192  88.822  1.00  0.00     0.022 C 
ATOM      9  C   UNL     1      95.674  85.931  86.457  1.00  0.00     0.022 C 
ATOM     10  C   UNL     1      95.123  85.929  87.881  1.00  0.00     0.004 C 
ENDBRANCH   1   3
BRANCH   2  11
ATOM     11  C   UNL     1      98.469  82.267  82.994  1.00  0.00     0.001 C 
ATOM     12  C   UNL     1      98.026  83.148  82.082  1.00  0.00     0.008 C 
BRANCH  12  13
ATOM     13  C   UNL     1      98.399  83.149  80.658  1.00  0.00    -0.022 A 
ATOM     14  C   UNL     1      97.447  83.499  79.710  1.00  0.00     0.058 A 
ATOM     15  C   UNL     1      99.703  82.798  80.299  1.00  0.00     0.012 A 
ATOM     16  C   UNL     1      97.845  83.486  78.389  1.00  0.00     0.166 A 
ATOM     17  C   UNL     1     100.079  82.793  78.954  1.00  0.00     0.051 A 
ATOM     18  O   UNL     1      97.064  83.795  77.317  1.00  0.00    -0.454 OA
ATOM     19  C   UNL     1      99.125  83.142  78.020  1.00  0.00     0.165 A 
ATOM     20  C   UNL     1      97.997  83.607  76.234  1.00  0.00     0.468 C 
ATOM     21  O   UNL     1      99.307  83.193  76.673  1.00  0.00    -0.454 OA
ENDBRANCH  12  13
ENDBRANCH   2  11
TORSDOF 3
ENDMDL
MODEL 3
REMARK VINA RESULT:    -7.009     16.794     18.306
REMARK INTER + INTRA:          -8.637
REMARK INTER:                  -8.235
REMARK INTRA:                  -0.401
REMARK UNBOUND:                -0.399
REMARK SMILES O=C(/C=C/C=C/c1ccc2c(c1)OCO2)N1CCCCC1
REMARK SMILES IDX 3 1 4 2 2 3 1 4 16 5 17 6 21 7 18 8 20 9 19 10 5 11 6 12
REMARK SMILES IDX 7 13 12 14 8 15 11 16 9 17 13 18 10 19 14 20 15 21
REMARK H PARENT
REMARK Flexibility Score: inf
ROOT
ATOM      1  C   UNL     1      91.834  99.660  72.591  1.00  0.00     0.071 C 
ATOM      2  C   UNL     1      92.449 100.284  73.594  1.00  0.00     0.006 C 
ENDROOT
BRANCH   1   3
ATOM      3  C   UNL     1      91.296 100.480  71.488  1.00  0.00     0.246 C 
ATOM      4  O   UNL     1      91.893 101.520  71.208  1.00  0.00    -0.270 OA
ATOM      5  N   UNL     1      90.147 100.026  70.842  1.00  0.00    -0.339 N 
ATOM      6  C   UNL     1      89.586 100.822  69.746  1.00  0.00     0.120 C 
ATOM      7  C   UNL     1      89.382  98.816  71.177  1.00  0.00     0.120 C 
ATOM      8  C   UNL     1      89.385  99.980  68.491  1.00  0.00     0.022 C 
ATOM      9  C   UNL     1      89.156  97.945  69.941  1.00  0.00     0.022 C 
ATOM     10  C   UNL     1      88.546  98.742  68.792  1.00  0.00     0.004 C 
ENDBRANCH   1   3
BRANCH   2  11
ATOM     11  C   UNL     1      93.009  99.567  74.719  1.00  0.00     0.001 C 
ATOM     12  C   UNL     1      92.766  98.265  74.945  1.00  0.00     0.008 C 
BRANCH  12  13
ATOM     13  C   UNL     1      93.302  97.490  76.076  1.00  0.00    -0.022 A 
ATOM     14  C   UNL     1      92.488  96.555  76.700  1.00  0.00     0.058 A 
ATOM     15  C   UNL     1      94.617  97.717  76.491  1.00  0.00     0.012 A 
ATOM     16  C   UNL     1      93.035  95.853  77.755  1.00  0.00     0.166 A 
ATOM     17  C   UNL     1      95.145  96.993  77.562  1.00  0.00     0.051 A 
ATOM     18  O   UNL     1      92.402  94.900  78.493  1.00  0.00    -0.454 OA
ATOM     19  C   UNL     1      94.328  96.066  78.174  1.00  0.00     0.165 A 
ATOM     20  C   UNL     1      93.443  94.537  79.423  1.00  0.00     0.468 C 
ATOM     21  O   UNL     1      94.668  95.273  79.227  1.00  0.00    -0.454 OA
ENDBRANCH  12  13
ENDBRANCH   2  11
TORSDOF 3
ENDMDL
MODEL 4
REMARK VINA RESULT:    -6.999     23.925     26.133
REMARK INTER + INTRA:          -8.625
REMARK INTER:                  -8.189
REMARK INTRA:                  -0.436
REMARK UNBOUND:                -0.399
REMARK SMILES O=C(/C=C/C=C/c1ccc2c(c1)OCO2)N1CCCCC1
REMARK SMILES IDX 3 1 4 2 2 3 1 4 16 5 17 6 21 7 18 8 20 9 19 10 5 11 6 12
REMARK SMILES IDX 7 13 12 14 8 15 11 16 9 17 13 18 10 19 14 20 15 21
REMARK H PARENT
REMARK Flexibility Score: inf
ROOT
ATOM      1  C   UNL     1      75.785  91.805  71.172  1.00  0.00     0.071 C 
ATOM      2  C   UNL     1      74.873  90.898  71.515  1.00  0.00     0.006 C 
ENDROOT
BRANCH   1   3
ATOM      3  C   UNL     1      75.598  93.192  71.643  1.00  0.00     0.246 C 
ATOM      4  O   UNL     1      74.671  93.839  71.156  1.00  0.00    -0.270 OA
ATOM      5  N   UNL     1      76.486  93.677  72.603  1.00  0.00    -0.339 N 
ATOM      6  C   UNL     1      76.329  95.052  73.087  1.00  0.00     0.120 C 
ATOM      7  C   UNL     1      77.630  92.951  73.174  1.00  0.00     0.120 C 
ATOM      8  C   UNL     1      76.259  95.102  74.609  1.00  0.00     0.022 C 
ATOM      9  C   UNL     1      77.598  92.982  74.702  1.00  0.00     0.022 C 
ATOM     10  C   UNL     1      77.463  94.405  75.235  1.00  0.00     0.004 C 
ENDBRANCH   1   3
BRANCH   2  11
ATOM     11  C   UNL     1      74.969  89.515  71.101  1.00  0.00     0.001 C 
ATOM     12  C   UNL     1      76.048  89.017  70.475  1.00  0.00     0.008 C 
BRANCH  12  13
ATOM     13  C   UNL     1      76.195  87.623  70.025  1.00  0.00    -0.022 A 
ATOM     14  C   UNL     1      77.383  87.227  69.427  1.00  0.00     0.058 A 
ATOM     15  C   UNL     1      75.132  86.735  70.214  1.00  0.00     0.012 A 
ATOM     16  C   UNL     1      77.473  85.911  69.023  1.00  0.00     0.166 A 
ATOM     17  C   UNL     1      75.251  85.407  69.795  1.00  0.00     0.051 A 
ATOM     18  O   UNL     1      78.548  85.333  68.419  1.00  0.00    -0.454 OA
ATOM     19  C   UNL     1      76.436  85.025  69.202  1.00  0.00     0.165 A 
ATOM     20  C   UNL     1      78.070  83.985  68.238  1.00  0.00     0.468 C 
ATOM     21  O   UNL     1      76.730  83.782  68.733  1.00  0.00    -0.454 OA
ENDBRANCH  12  13
ENDBRANCH   2  11
TORSDOF 3
ENDMDL
MODEL 5
REMARK VINA RESULT:    -6.908      2.728      8.819
REMARK INTER + INTRA:          -8.518
REMARK INTER:                  -8.118
REMARK INTRA:                  -0.400
REMARK UNBOUND:                -0.399
REMARK SMILES O=C(/C=C/C=C/c1ccc2c(c1)OCO2)N1CCCCC1
REMARK SMILES IDX 3 1 4 2 2 3 1 4 16 5 17 6 21 7 18 8 20 9 19 10 5 11 6 12
REMARK SMILES IDX 7 13 12 14 8 15 11 16 9 17 13 18 10 19 14 20 15 21
REMARK H PARENT
REMARK Flexibility Score: inf
ROOT
ATOM      1  C   UNL     1      97.684  82.478  83.998  1.00  0.00     0.071 C 
ATOM      2  C   UNL     1      98.883  82.280  83.454  1.00  0.00     0.006 C 
ENDROOT
BRANCH   1   3
ATOM      3  C   UNL     1      97.544  82.296  85.457  1.00  0.00     0.246 C 
ATOM      4  O   UNL     1      98.122  81.336  85.968  1.00  0.00    -0.270 OA
ATOM      5  N   UNL     1      96.766  83.217  86.155  1.00  0.00    -0.339 N 
ATOM      6  C   UNL     1      96.605  83.059  87.603  1.00  0.00     0.120 C 
ATOM      7  C   UNL     1      96.026  84.347  85.573  1.00  0.00     0.120 C 
ATOM      8  C   UNL     1      96.961  84.342  88.347  1.00  0.00     0.022 C 
ATOM      9  C   UNL     1      96.354  85.654  86.296  1.00  0.00     0.022 C 
ATOM     10  C   UNL     1      96.167  85.527  87.805  1.00  0.00     0.004 C 
ENDBRANCH   1   3
BRANCH   2  11
ATOM     11  C   UNL     1      99.118  82.434  82.034  1.00  0.00     0.001 C 
ATOM     12  C   UNL     1      98.240  83.031  81.212  1.00  0.00     0.008 C 
BRANCH  12  13
ATOM     13  C   UNL     1      98.425  83.207  79.762  1.00  0.00    -0.022 A 
ATOM     14  C   UNL     1      99.682  82.999  79.211  1.00  0.00     0.058 A 
ATOM     15  C   UNL     1      97.329  83.577  78.979  1.00  0.00     0.012 A 
ATOM     16  C   UNL     1      99.806  83.176  77.848  1.00  0.00     0.166 A 
ATOM     17  C   UNL     1      97.482  83.749  77.601  1.00  0.00     0.051 A 
ATOM     18  O   UNL     1     100.948  83.022  77.124  1.00  0.00    -0.454 OA
ATOM     19  C   UNL     1      98.735  83.540  77.064  1.00  0.00     0.165 A 
ATOM     20  C   UNL     1     100.476  83.331  75.797  1.00  0.00     0.468 C 
ATOM     21  O   UNL     1      99.073  83.661  75.752  1.00  0.00    -0.454 OA
ENDBRANCH  12  13
ENDBRANCH   2  11
TORSDOF 3
ENDMDL
MODEL 6
REMARK VINA RESULT:    -6.884     25.194     26.178
REMARK INTER + INTRA:          -8.490
REMARK INTER:                  -8.113
REMARK INTRA:                  -0.377
REMARK UNBOUND:                -0.399
REMARK SMILES O=C(/C=C/C=C/c1ccc2c(c1)OCO2)N1CCCCC1
REMARK SMILES IDX 3 1 4 2 2 3 1 4 16 5 17 6 21 7 18 8 20 9 19 10 5 11 6 12
REMARK SMILES IDX 7 13 12 14 8 15 11 16 9 17 13 18 10 19 14 20 15 21
REMARK H PARENT
REMARK Flexibility Score: inf
ROOT
ATOM      1  C   UNL     1      77.328  85.490  67.754  1.00  0.00     0.071 C 
ATOM      2  C   UNL     1      76.894  85.556  69.011  1.00  0.00     0.006 C 
ENDROOT
BRANCH   1   3
ATOM      3  C   UNL     1      77.627  84.159  67.191  1.00  0.00     0.246 C 
ATOM      4  O   UNL     1      78.726  83.665  67.449  1.00  0.00    -0.270 OA
ATOM      5  N   UNL     1      76.650  83.553  66.403  1.00  0.00    -0.339 N 
ATOM      6  C   UNL     1      76.920  82.232  65.825  1.00  0.00     0.120 C 
ATOM      7  C   UNL     1      75.348  84.129  66.037  1.00  0.00     0.120 C 
ATOM      8  C   UNL     1      75.810  81.242  66.157  1.00  0.00     0.022 C 
ATOM      9  C   UNL     1      74.207  83.162  66.352  1.00  0.00     0.022 C 
ATOM     10  C   UNL     1      74.448  81.786  65.738  1.00  0.00     0.004 C 
ENDBRANCH   1   3
BRANCH   2  11
ATOM     11  C   UNL     1      76.575  86.815  69.651  1.00  0.00     0.001 C 
ATOM     12  C   UNL     1      75.335  87.129  70.060  1.00  0.00     0.008 C 
BRANCH  12  13
ATOM     13  C   UNL     1      74.955  88.396  70.707  1.00  0.00    -0.022 A 
ATOM     14  C   UNL     1      75.757  89.514  70.526  1.00  0.00     0.058 A 
ATOM     15  C   UNL     1      73.796  88.437  71.486  1.00  0.00     0.012 A 
ATOM     16  C   UNL     1      75.360  90.678  71.152  1.00  0.00     0.166 A 
ATOM     17  C   UNL     1      73.417  89.629  72.109  1.00  0.00     0.051 A 
ATOM     18  O   UNL     1      76.008  91.874  71.099  1.00  0.00    -0.454 OA
ATOM     19  C   UNL     1      74.221  90.734  71.922  1.00  0.00     0.165 A 
ATOM     20  C   UNL     1      75.148  92.689  71.922  1.00  0.00     0.468 C 
ATOM     21  O   UNL     1      74.013  91.972  72.448  1.00  0.00    -0.454 OA
ENDBRANCH  12  13
ENDBRANCH   2  11
TORSDOF 3
ENDMDL
MODEL 7
REMARK VINA RESULT:    -6.716      2.700      3.332
REMARK INTER + INTRA:          -8.292
REMARK INTER:                  -7.978
REMARK INTRA:                  -0.314
REMARK UNBOUND:                -0.399
REMARK SMILES O=C(/C=C/C=C/c1ccc2c(c1)OCO2)N1CCCCC1
REMARK SMILES IDX 3 1 4 2 2 3 1 4 16 5 17 6 21 7 18 8 20 9 19 10 5 11 6 12
REMARK SMILES IDX 7 13 12 14 8 15 11 16 9 17 13 18 10 19 14 20 15 21
REMARK H PARENT
REMARK Flexibility Score: inf
ROOT
ATOM      1  C   UNL     1      98.713  83.156  79.832  1.00  0.00     0.071 C 
ATOM      2  C   UNL     1      97.864  83.396  80.829  1.00  0.00     0.006 C 
ENDROOT
BRANCH   1   3
ATOM      3  C   UNL     1      98.299  83.524  78.463  1.00  0.00     0.246 C 
ATOM      4  O   UNL     1      97.151  83.943  78.309  1.00  0.00    -0.270 OA
ATOM      5  N   UNL     1      99.230  83.367  77.438  1.00  0.00    -0.339 N 
ATOM      6  C   UNL     1      98.846  83.719  76.068  1.00  0.00     0.120 C 
ATOM      7  C   UNL     1     100.592  82.828  77.576  1.00  0.00     0.120 C 
ATOM      8  C   UNL     1      99.846  84.684  75.439  1.00  0.00     0.022 C 
ATOM      9  C   UNL     1     101.624  83.768  76.953  1.00  0.00     0.022 C 
ATOM     10  C   UNL     1     101.264  84.128  75.515  1.00  0.00     0.004 C 
ENDBRANCH   1   3
BRANCH   2  11
ATOM     11  C   UNL     1      98.179  83.071  82.203  1.00  0.00     0.001 C 
ATOM     12  C   UNL     1      97.454  83.519  83.241  1.00  0.00     0.008 C 
BRANCH  12  13
ATOM     13  C   UNL     1      97.735  83.225  84.657  1.00  0.00    -0.022 A 
ATOM     14  C   UNL     1      99.004  82.793  85.018  1.00  0.00     0.058 A 
ATOM     15  C   UNL     1      96.716  83.391  85.598  1.00  0.00     0.012 A 
ATOM     16  C   UNL     1      99.218  82.531  86.356  1.00  0.00     0.166 A 
ATOM     17  C   UNL     1      96.961  83.119  86.946  1.00  0.00     0.051 A 
ATOM     18  O   UNL     1     100.386  82.100  86.907  1.00  0.00    -0.454 OA
ATOM     19  C   UNL     1      98.225  82.690  87.294  1.00  0.00     0.165 A 
ATOM     20  C   UNL     1     100.015  82.005  88.297  1.00  0.00     0.468 C 
ATOM     21  O   UNL     1      98.645  82.378  88.550  1.00  0.00    -0.454 OA
ENDBRANCH  12  13
ENDBRANCH   2  11
TORSDOF 3
ENDMDL
MODEL 8
REMARK VINA RESULT:    -6.674     24.279     25.595
REMARK INTER + INTRA:          -8.243
REMARK INTER:                  -7.858
REMARK INTRA:                  -0.385
REMARK UNBOUND:                -0.399
REMARK SMILES O=C(/C=C/C=C/c1ccc2c(c1)OCO2)N1CCCCC1
REMARK SMILES IDX 3 1 4 2 2 3 1 4 16 5 17 6 21 7 18 8 20 9 19 10 5 11 6 12
REMARK SMILES IDX 7 13 12 14 8 15 11 16 9 17 13 18 10 19 14 20 15 21
REMARK H PARENT
REMARK Flexibility Score: inf
ROOT
ATOM      1  C   UNL     1      75.550  87.987  70.257  1.00  0.00     0.071 C 
ATOM      2  C   UNL     1      74.638  88.687  70.928  1.00  0.00     0.006 C 
ENDROOT
BRANCH   1   3
ATOM      3  C   UNL     1      75.328  86.537  70.089  1.00  0.00     0.246 C 
ATOM      4  O   UNL     1      74.196  86.105  70.312  1.00  0.00    -0.270 OA
ATOM      5  N   UNL     1      76.412  85.754  69.696  1.00  0.00    -0.339 N 
ATOM      6  C   UNL     1      76.223  84.311  69.526  1.00  0.00     0.120 C 
ATOM      7  C   UNL     1      77.786  86.226  69.465  1.00  0.00     0.120 C 
ATOM      8  C   UNL     1      76.702  83.843  68.156  1.00  0.00     0.022 C 
ATOM      9  C   UNL     1      78.304  85.774  68.100  1.00  0.00     0.022 C 
ATOM     10  C   UNL     1      78.145  84.268  67.907  1.00  0.00     0.004 C 
ENDBRANCH   1   3
BRANCH   2  11
ATOM     11  C   UNL     1      74.768  90.112  71.145  1.00  0.00     0.001 C 
ATOM     12  C   UNL     1      75.954  90.743  71.139  1.00  0.00     0.008 C 
BRANCH  12  13
ATOM     13  C   UNL     1      76.143  92.186  71.361  1.00  0.00    -0.022 A 
ATOM     14  C   UNL     1      77.159  92.612  72.206  1.00  0.00     0.058 A 
ATOM     15  C   UNL     1      75.295  93.089  70.715  1.00  0.00     0.012 A 
ATOM     16  C   UNL     1      77.298  93.973  72.383  1.00  0.00     0.166 A 
ATOM     17  C   UNL     1      75.458  94.462  70.911  1.00  0.00     0.051 A 
ATOM     18  O   UNL     1      78.226  94.586  73.168  1.00  0.00    -0.454 OA
ATOM     19  C   UNL     1      76.470  94.874  71.753  1.00  0.00     0.165 A 
ATOM     20  C   UNL     1      77.890  95.972  72.960  1.00  0.00     0.468 C 
ATOM     21  O   UNL     1      76.776  96.163  72.063  1.00  0.00    -0.454 OA
ENDBRANCH  12  13
ENDBRANCH   2  11
TORSDOF 3
ENDMDL
MODEL 9
REMARK VINA RESULT:    -6.629      3.206      8.801
REMARK INTER + INTRA:          -8.191
REMARK INTER:                  -8.225
REMARK INTRA:                   0.034
REMARK UNBOUND:                -0.399
REMARK SMILES O=C(/C=C/C=C/c1ccc2c(c1)OCO2)N1CCCCC1
REMARK SMILES IDX 3 1 4 2 2 3 1 4 16 5 17 6 21 7 18 8 20 9 19 10 5 11 6 12
REMARK SMILES IDX 7 13 12 14 8 15 11 16 9 17 13 18 10 19 14 20 15 21
REMARK H PARENT
REMARK Flexibility Score: inf
ROOT
ATOM      1  C   UNL     1      96.616  83.482  85.149  1.00  0.00     0.071 C 
ATOM      2  C   UNL     1      97.655  83.038  84.444  1.00  0.00     0.006 C 
ENDROOT
BRANCH   1   3
ATOM      3  C   UNL     1      96.553  83.140  86.584  1.00  0.00     0.246 C 
ATOM      4  O   UNL     1      95.561  82.525  86.978  1.00  0.00    -0.270 OA
ATOM      5  N   UNL     1      97.614  83.538  87.395  1.00  0.00    -0.339 N 
ATOM      6  C   UNL     1      97.576  83.217  88.825  1.00  0.00     0.120 C 
ATOM      7  C   UNL     1      98.791  84.311  86.969  1.00  0.00     0.120 C 
ATOM      8  C   UNL     1      98.847  82.501  89.269  1.00  0.00     0.022 C 
ATOM      9  C   UNL     1     100.087  83.626  87.400  1.00  0.00     0.022 C 
ATOM     10  C   UNL     1     100.087  83.305  88.892  1.00  0.00     0.004 C 
ENDBRANCH   1   3
BRANCH   2  11
ATOM     11  C   UNL     1      97.805  83.321  83.033  1.00  0.00     0.001 C 
ATOM     12  C   UNL     1      98.548  82.559  82.214  1.00  0.00     0.008 C 
BRANCH  12  13
ATOM     13  C   UNL     1      98.741  82.806  80.775  1.00  0.00    -0.022 A 
ATOM     14  C   UNL     1      97.691  83.328  80.032  1.00  0.00     0.058 A 
ATOM     15  C   UNL     1      99.977  82.508  80.196  1.00  0.00     0.012 A 
ATOM     16  C   UNL     1      97.920  83.542  78.688  1.00  0.00     0.166 A 
ATOM     17  C   UNL     1     100.182  82.734  78.833  1.00  0.00     0.051 A 
ATOM     18  O   UNL     1      97.023  84.044  77.796  1.00  0.00    -0.454 OA
ATOM     19  C   UNL     1      99.132  83.254  78.104  1.00  0.00     0.165 A 
ATOM     20  C   UNL     1      97.806  84.037  76.585  1.00  0.00     0.468 C 
ATOM     21  O   UNL     1      99.146  83.537  76.774  1.00  0.00    -0.454 OA
ENDBRANCH  12  13
ENDBRANCH   2  11
TORSDOF 3
ENDMDL
MODEL 10
REMARK VINA RESULT:    -6.551     24.815     26.732
REMARK INTER + INTRA:          -8.098
REMARK INTER:                  -7.734
REMARK INTRA:                  -0.364
REMARK UNBOUND:                -0.399
REMARK SMILES O=C(/C=C/C=C/c1ccc2c(c1)OCO2)N1CCCCC1
REMARK SMILES IDX 3 1 4 2 2 3 1 4 16 5 17 6 21 7 18 8 20 9 19 10 5 11 6 12
REMARK SMILES IDX 7 13 12 14 8 15 11 16 9 17 13 18 10 19 14 20 15 21
REMARK H PARENT
REMARK Flexibility Score: inf
ROOT
ATOM      1  C   UNL     1      74.926  89.940  70.585  1.00  0.00     0.071 C 
ATOM      2  C   UNL     1      75.471  88.753  70.848  1.00  0.00     0.006 C 
ENDROOT
BRANCH   1   3
ATOM      3  C   UNL     1      74.414  90.736  71.718  1.00  0.00     0.246 C 
ATOM      4  O   UNL     1      73.402  90.326  72.289  1.00  0.00    -0.270 OA
ATOM      5  N   UNL     1      75.104  91.897  72.061  1.00  0.00    -0.339 N 
ATOM      6  C   UNL     1      74.616  92.711  73.179  1.00  0.00     0.120 C 
ATOM      7  C   UNL     1      76.286  92.440  71.375  1.00  0.00     0.120 C 
ATOM      8  C   UNL     1      75.720  92.980  74.196  1.00  0.00     0.022 C 
ATOM      9  C   UNL     1      77.416  92.727  72.364  1.00  0.00     0.022 C 
ATOM     10  C   UNL     1      76.942  93.598  73.525  1.00  0.00     0.004 C 
ENDBRANCH   1   3
BRANCH   2  11
ATOM     11  C   UNL     1      76.000  87.901  69.804  1.00  0.00     0.001 C 
ATOM     12  C   UNL     1      75.985  86.561  69.883  1.00  0.00     0.008 C 
BRANCH  12  13
ATOM     13  C   UNL     1      76.516  85.649  68.857  1.00  0.00    -0.022 A 
ATOM     14  C   UNL     1      75.727  84.595  68.416  1.00  0.00     0.058 A 
ATOM     15  C   UNL     1      77.801  85.869  68.354  1.00  0.00     0.012 A 
ATOM     16  C   UNL     1      76.269  83.768  67.453  1.00  0.00     0.166 A 
ATOM     17  C   UNL     1      78.325  85.016  67.380  1.00  0.00     0.051 A 
ATOM     18  O   UNL     1      75.658  82.686  66.895  1.00  0.00    -0.454 OA
ATOM     19  C   UNL     1      77.532  83.972  66.948  1.00  0.00     0.165 A 
ATOM     20  C   UNL     1      76.680  82.233  65.984  1.00  0.00     0.468 C 
ATOM     21  O   UNL     1      77.872  83.045  66.012  1.00  0.00    -0.454 OA
ENDBRANCH  12  13
ENDBRANCH   2  11
TORSDOF 3
ENDMDL
