MODEL 1
REMARK VINA RESULT:    -6.478      0.000      0.000
REMARK INTER + INTRA:         -11.499
REMARK INTER:                 -10.454
REMARK INTRA:                  -1.045
REMARK UNBOUND:                -1.045
REMARK SMILES CCCCCCCCC(=O)NCc1ccc(O)c(OC)c1
REMARK SMILES IDX 7 1 6 2 5 3 4 4 3 5 2 6 1 7 8 8 9 9 10 10 11 11 12 13 13 14
REMARK SMILES IDX 21 15 14 16 18 17 15 18 16 19 19 20 20 21 17 22
REMARK H PARENT 11 12 17 23
REMARK Flexibility Score: inf
ROOT
ATOM      1  C   UNL     1      90.705  94.527  77.125  1.00  0.00     0.010 C 
ENDROOT
BRANCH   1   2
ATOM      2  C   UNL     1      91.093  93.154  77.746  1.00  0.00     0.001 C 
BRANCH   2   3
ATOM      3  C   UNL     1      89.885  92.174  77.810  1.00  0.00     0.000 C 
BRANCH   3   4
ATOM      4  C   UNL     1      89.670  91.359  76.503  1.00  0.00    -0.000 C 
BRANCH   4   5
ATOM      5  C   UNL     1      90.967  91.230  75.656  1.00  0.00    -0.000 C 
BRANCH   5   6
ATOM      6  C   UNL     1      90.689  90.727  74.213  1.00  0.00    -0.003 C 
ATOM      7  C   UNL     1      89.354  91.253  73.641  1.00  0.00     0.004 C 
ENDBRANCH   5   6
ENDBRANCH   4   5
ENDBRANCH   3   4
ENDBRANCH   2   3
ENDBRANCH   1   2
BRANCH   1   8
ATOM      8  C   UNL     1      91.564  94.926  75.893  1.00  0.00     0.100 C 
BRANCH   8   9
ATOM      9  C   UNL     1      93.010  94.741  76.161  1.00  0.00     0.220 C 
ATOM     10  O   UNL     1      93.640  93.900  75.475  1.00  0.00    -0.275 OA
ATOM     11  N   UNL     1      93.642  95.490  77.112  1.00  0.00    -0.352 N 
ATOM     12  H   UNL     1      93.026  96.071  77.662  1.00  0.00     0.163 HD
BRANCH  11  13
ATOM     13  C   UNL     1      95.050  95.506  77.365  1.00  0.00     0.151 C 
BRANCH  13  14
ATOM     14  C   UNL     1      95.444  94.805  78.616  1.00  0.00    -0.025 A 
ATOM     15  C   UNL     1      95.789  95.547  79.771  1.00  0.00     0.056 A 
ATOM     16  C   UNL     1      95.484  93.392  78.676  1.00  0.00     0.009 A 
ATOM     17  C   UNL     1      96.149  94.894  80.972  1.00  0.00     0.160 A 
ATOM     18  C   UNL     1      95.840  92.737  79.868  1.00  0.00     0.050 A 
ATOM     19  C   UNL     1      96.180  93.482  81.014  1.00  0.00     0.157 A 
BRANCH  17  20
ATOM     20  O   UNL     1      96.524  95.616  82.077  1.00  0.00    -0.493 OA
ATOM     21  C   UNL     1      96.202  97.016  82.003  1.00  0.00     0.278 C 
ENDBRANCH  17  20
BRANCH  19  22
ATOM     22  O   UNL     1      96.548  92.841  82.152  1.00  0.00    -0.504 OA
ATOM     23  H   UNL     1      95.773  92.459  82.570  1.00  0.00     0.293 HD
ENDBRANCH  19  22
ENDBRANCH  13  14
ENDBRANCH  11  13
ENDBRANCH   8   9
ENDBRANCH   1   8
TORSDOF 11
ENDMDL
MODEL 2
REMARK VINA RESULT:    -5.788      2.706      4.887
REMARK INTER + INTRA:         -10.385
REMARK INTER:                  -9.556
REMARK INTRA:                  -0.829
REMARK UNBOUND:                -1.045
REMARK SMILES CCCCCCCCC(=O)NCc1ccc(O)c(OC)c1
REMARK SMILES IDX 7 1 6 2 5 3 4 4 3 5 2 6 1 7 8 8 9 9 10 10 11 11 12 13 13 14
REMARK SMILES IDX 21 15 14 16 18 17 15 18 16 19 19 20 20 21 17 22
REMARK H PARENT 11 12 17 23
REMARK Flexibility Score: inf
ROOT
ATOM      1  C   UNL     1      91.804  94.381  77.528  1.00  0.00     0.010 C 
ENDROOT
BRANCH   1   2
ATOM      2  C   UNL     1      90.433  93.888  76.981  1.00  0.00     0.001 C 
BRANCH   2   3
ATOM      3  C   UNL     1      89.994  92.539  77.622  1.00  0.00     0.000 C 
BRANCH   3   4
ATOM      4  C   UNL     1      89.878  91.369  76.604  1.00  0.00    -0.000 C 
BRANCH   4   5
ATOM      5  C   UNL     1      90.253  91.795  75.156  1.00  0.00    -0.000 C 
BRANCH   5   6
ATOM      6  C   UNL     1      89.546  90.929  74.079  1.00  0.00    -0.003 C 
ATOM      7  C   UNL     1      88.661  91.762  73.125  1.00  0.00     0.004 C 
ENDBRANCH   5   6
ENDBRANCH   4   5
ENDBRANCH   3   4
ENDBRANCH   2   3
ENDBRANCH   1   2
BRANCH   1   8
ATOM      8  C   UNL     1      92.604  93.292  78.296  1.00  0.00     0.100 C 
BRANCH   8   9
ATOM      9  C   UNL     1      94.026  93.679  78.457  1.00  0.00     0.220 C 
ATOM     10  O   UNL     1      94.797  92.882  79.044  1.00  0.00    -0.275 OA
ATOM     11  N   UNL     1      94.484  94.862  77.951  1.00  0.00    -0.352 N 
ATOM     12  H   UNL     1      93.765  95.463  77.577  1.00  0.00     0.163 HD
BRANCH  11  13
ATOM     13  C   UNL     1      95.852  95.282  77.917  1.00  0.00     0.151 C 
BRANCH  13  14
ATOM     14  C   UNL     1      96.178  96.177  76.775  1.00  0.00    -0.025 A 
ATOM     15  C   UNL     1      95.268  96.320  75.700  1.00  0.00     0.056 A 
ATOM     16  C   UNL     1      97.395  96.896  76.739  1.00  0.00     0.009 A 
ATOM     17  C   UNL     1      95.557  97.181  74.616  1.00  0.00     0.160 A 
ATOM     18  C   UNL     1      97.687  97.755  75.665  1.00  0.00     0.050 A 
ATOM     19  C   UNL     1      96.777  97.894  74.599  1.00  0.00     0.157 A 
BRANCH  17  20
ATOM     20  O   UNL     1      94.693  97.285  73.555  1.00  0.00    -0.493 OA
ATOM     21  C   UNL     1      93.665  98.277  73.727  1.00  0.00     0.278 C 
ENDBRANCH  17  20
BRANCH  19  22
ATOM     22  O   UNL     1      97.080  98.704  73.553  1.00  0.00    -0.504 OA
ATOM     23  H   UNL     1      96.546  99.501  73.600  1.00  0.00     0.293 HD
ENDBRANCH  19  22
ENDBRANCH  13  14
ENDBRANCH  11  13
ENDBRANCH   8   9
ENDBRANCH   1   8
TORSDOF 11
ENDMDL
MODEL 3
REMARK VINA RESULT:    -5.593     10.310     12.802
REMARK INTER + INTRA:         -10.071
REMARK INTER:                  -9.220
REMARK INTRA:                  -0.850
REMARK UNBOUND:                -1.045
REMARK SMILES CCCCCCCCC(=O)NCc1ccc(O)c(OC)c1
REMARK SMILES IDX 7 1 6 2 5 3 4 4 3 5 2 6 1 7 8 8 9 9 10 10 11 11 12 13 13 14
REMARK SMILES IDX 21 15 14 16 18 17 15 18 16 19 19 20 20 21 17 22
REMARK H PARENT 11 12 17 23
REMARK Flexibility Score: inf
ROOT
ATOM      1  C   UNL     1      88.555  99.935  66.725  1.00  0.00     0.010 C 
ENDROOT
BRANCH   1   2
ATOM      2  C   UNL     1      87.041 100.040  66.384  1.00  0.00     0.001 C 
BRANCH   2   3
ATOM      3  C   UNL     1      86.577 101.516  66.208  1.00  0.00     0.000 C 
BRANCH   3   4
ATOM      4  C   UNL     1      87.740 102.547  66.243  1.00  0.00    -0.000 C 
BRANCH   4   5
ATOM      5  C   UNL     1      87.240 104.019  66.196  1.00  0.00    -0.000 C 
BRANCH   5   6
ATOM      6  C   UNL     1      85.731 104.124  65.844  1.00  0.00    -0.003 C 
ATOM      7  C   UNL     1      84.915 104.875  66.918  1.00  0.00     0.004 C 
ENDBRANCH   5   6
ENDBRANCH   4   5
ENDBRANCH   3   4
ENDBRANCH   2   3
ENDBRANCH   1   2
BRANCH   1   8
ATOM      8  C   UNL     1      89.114  98.486  66.670  1.00  0.00     0.100 C 
BRANCH   8   9
ATOM      9  C   UNL     1      89.602  98.045  67.999  1.00  0.00     0.220 C 
ATOM     10  O   UNL     1      90.333  97.028  68.058  1.00  0.00    -0.275 OA
ATOM     11  N   UNL     1      89.284  98.751  69.124  1.00  0.00    -0.352 N 
ATOM     12  H   UNL     1      88.622  99.498  68.975  1.00  0.00     0.163 HD
BRANCH  11  13
ATOM     13  C   UNL     1      89.804  98.512  70.436  1.00  0.00     0.151 C 
BRANCH  13  14
ATOM     14  C   UNL     1      90.553  99.664  71.005  1.00  0.00    -0.025 A 
ATOM     15  C   UNL     1      89.919 100.920  71.159  1.00  0.00     0.056 A 
ATOM     16  C   UNL     1      91.905  99.530  71.397  1.00  0.00     0.009 A 
ATOM     17  C   UNL     1      90.613 102.019  71.714  1.00  0.00     0.160 A 
ATOM     18  C   UNL     1      92.600 100.619  71.951  1.00  0.00     0.050 A 
ATOM     19  C   UNL     1      91.962 101.865  72.104  1.00  0.00     0.157 A 
BRANCH  17  20
ATOM     20  O   UNL     1      90.009 103.247  71.824  1.00  0.00    -0.493 OA
ATOM     21  C   UNL     1      89.149 103.380  72.969  1.00  0.00     0.278 C 
ENDBRANCH  17  20
BRANCH  19  22
ATOM     22  O   UNL     1      92.651 102.918  72.614  1.00  0.00    -0.504 OA
ATOM     23  H   UNL     1      93.388 103.128  72.036  1.00  0.00     0.293 HD
ENDBRANCH  19  22
ENDBRANCH  13  14
ENDBRANCH  11  13
ENDBRANCH   8   9
ENDBRANCH   1   8
TORSDOF 11
ENDMDL
MODEL 4
REMARK VINA RESULT:    -5.508      1.759      2.438
REMARK INTER + INTRA:          -9.934
REMARK INTER:                  -8.854
REMARK INTRA:                  -1.080
REMARK UNBOUND:                -1.045
REMARK SMILES CCCCCCCCC(=O)NCc1ccc(O)c(OC)c1
REMARK SMILES IDX 7 1 6 2 5 3 4 4 3 5 2 6 1 7 8 8 9 9 10 10 11 11 12 13 13 14
REMARK SMILES IDX 21 15 14 16 18 17 15 18 16 19 19 20 20 21 17 22
REMARK H PARENT 11 12 17 23
REMARK Flexibility Score: inf
ROOT
ATOM      1  C   UNL     1      91.785  96.100  76.888  1.00  0.00     0.010 C 
ENDROOT
BRANCH   1   2
ATOM      2  C   UNL     1      90.763  95.010  76.454  1.00  0.00     0.001 C 
BRANCH   2   3
ATOM      3  C   UNL     1      90.592  93.900  77.533  1.00  0.00     0.000 C 
BRANCH   3   4
ATOM      4  C   UNL     1      91.371  92.593  77.217  1.00  0.00    -0.000 C 
BRANCH   4   5
ATOM      5  C   UNL     1      91.823  92.508  75.731  1.00  0.00    -0.000 C 
BRANCH   5   6
ATOM      6  C   UNL     1      91.032  91.440  74.928  1.00  0.00    -0.003 C 
ATOM      7  C   UNL     1      90.023  90.660  75.799  1.00  0.00     0.004 C 
ENDBRANCH   5   6
ENDBRANCH   4   5
ENDBRANCH   3   4
ENDBRANCH   2   3
ENDBRANCH   1   2
BRANCH   1   8
ATOM      8  C   UNL     1      93.170  95.976  76.193  1.00  0.00     0.100 C 
BRANCH   8   9
ATOM      9  C   UNL     1      94.065  95.053  76.932  1.00  0.00     0.220 C 
ATOM     10  O   UNL     1      94.809  94.289  76.272  1.00  0.00    -0.275 OA
ATOM     11  N   UNL     1      94.094  95.061  78.297  1.00  0.00    -0.352 N 
ATOM     12  H   UNL     1      93.396  95.650  78.727  1.00  0.00     0.163 HD
BRANCH  11  13
ATOM     13  C   UNL     1      95.008  94.326  79.118  1.00  0.00     0.151 C 
BRANCH  13  14
ATOM     14  C   UNL     1      96.274  95.051  79.406  1.00  0.00    -0.025 A 
ATOM     15  C   UNL     1      96.384  95.861  80.562  1.00  0.00     0.056 A 
ATOM     16  C   UNL     1      97.384  94.949  78.537  1.00  0.00     0.009 A 
ATOM     17  C   UNL     1      97.587  96.543  80.858  1.00  0.00     0.160 A 
ATOM     18  C   UNL     1      98.584  95.624  78.826  1.00  0.00     0.050 A 
ATOM     19  C   UNL     1      98.687  96.426  79.979  1.00  0.00     0.157 A 
BRANCH  17  20
ATOM     20  O   UNL     1      97.677  97.361  81.956  1.00  0.00    -0.493 OA
ATOM     21  C   UNL     1      96.725  97.063  82.992  1.00  0.00     0.278 C 
ENDBRANCH  17  20
BRANCH  19  22
ATOM     22  O   UNL     1      99.840  97.095  80.236  1.00  0.00    -0.504 OA
ATOM     23  H   UNL     1     100.563  96.682  79.756  1.00  0.00     0.293 HD
ENDBRANCH  19  22
ENDBRANCH  13  14
ENDBRANCH  11  13
ENDBRANCH   8   9
ENDBRANCH   1   8
TORSDOF 11
ENDMDL
MODEL 5
REMARK VINA RESULT:    -5.411     10.130     12.603
REMARK INTER + INTRA:          -9.777
REMARK INTER:                  -9.063
REMARK INTRA:                  -0.714
REMARK UNBOUND:                -1.045
REMARK SMILES CCCCCCCCC(=O)NCc1ccc(O)c(OC)c1
REMARK SMILES IDX 7 1 6 2 5 3 4 4 3 5 2 6 1 7 8 8 9 9 10 10 11 11 12 13 13 14
REMARK SMILES IDX 21 15 14 16 18 17 15 18 16 19 19 20 20 21 17 22
REMARK H PARENT 11 12 17 23
REMARK Flexibility Score: inf
ROOT
ATOM      1  C   UNL     1      88.508  99.934  66.699  1.00  0.00     0.010 C 
ENDROOT
BRANCH   1   2
ATOM      2  C   UNL     1      87.000 100.014  66.326  1.00  0.00     0.001 C 
BRANCH   2   3
ATOM      3  C   UNL     1      86.493 101.483  66.237  1.00  0.00     0.000 C 
BRANCH   3   4
ATOM      4  C   UNL     1      87.632 102.542  66.245  1.00  0.00    -0.000 C 
BRANCH   4   5
ATOM      5  C   UNL     1      87.129 103.962  66.628  1.00  0.00    -0.000 C 
BRANCH   5   6
ATOM      6  C   UNL     1      85.987 104.460  65.701  1.00  0.00    -0.003 C 
ATOM      7  C   UNL     1      86.235 105.884  65.156  1.00  0.00     0.004 C 
ENDBRANCH   5   6
ENDBRANCH   4   5
ENDBRANCH   3   4
ENDBRANCH   2   3
ENDBRANCH   1   2
BRANCH   1   8
ATOM      8  C   UNL     1      89.102  98.500  66.615  1.00  0.00     0.100 C 
BRANCH   8   9
ATOM      9  C   UNL     1      89.603  98.045  67.934  1.00  0.00     0.220 C 
ATOM     10  O   UNL     1      90.364  97.048  67.970  1.00  0.00    -0.275 OA
ATOM     11  N   UNL     1      89.265  98.716  69.074  1.00  0.00    -0.352 N 
ATOM     12  H   UNL     1      88.582  99.447  68.941  1.00  0.00     0.163 HD
BRANCH  11  13
ATOM     13  C   UNL     1      89.793  98.463  70.380  1.00  0.00     0.151 C 
BRANCH  13  14
ATOM     14  C   UNL     1      90.526  99.617  70.966  1.00  0.00    -0.025 A 
ATOM     15  C   UNL     1      91.855  99.458  71.425  1.00  0.00     0.056 A 
ATOM     16  C   UNL     1      89.913 100.886  71.078  1.00  0.00     0.009 A 
ATOM     17  C   UNL     1      92.571 100.549  71.968  1.00  0.00     0.160 A 
ATOM     18  C   UNL     1      90.620 101.977  71.616  1.00  0.00     0.050 A 
ATOM     19  C   UNL     1      91.943 101.811  72.069  1.00  0.00     0.157 A 
BRANCH  17  20
ATOM     20  O   UNL     1      93.844 100.383  72.452  1.00  0.00    -0.493 OA
ATOM     21  C   UNL     1      94.075  99.106  73.074  1.00  0.00     0.278 C 
ENDBRANCH  17  20
BRANCH  19  22
ATOM     22  O   UNL     1      92.607 102.863  72.612  1.00  0.00    -0.504 OA
ATOM     23  H   UNL     1      92.051 103.288  73.269  1.00  0.00     0.293 HD
ENDBRANCH  19  22
ENDBRANCH  13  14
ENDBRANCH  11  13
ENDBRANCH   8   9
ENDBRANCH   1   8
TORSDOF 11
ENDMDL
MODEL 6
REMARK VINA RESULT:    -5.397     10.074     12.696
REMARK INTER + INTRA:          -9.754
REMARK INTER:                  -8.444
REMARK INTRA:                  -1.310
REMARK UNBOUND:                -1.045
REMARK SMILES CCCCCCCCC(=O)NCc1ccc(O)c(OC)c1
REMARK SMILES IDX 7 1 6 2 5 3 4 4 3 5 2 6 1 7 8 8 9 9 10 10 11 11 12 13 13 14
REMARK SMILES IDX 21 15 14 16 18 17 15 18 16 19 19 20 20 21 17 22
REMARK H PARENT 11 12 17 23
REMARK Flexibility Score: inf
ROOT
ATOM      1  C   UNL     1      87.278 100.517  66.919  1.00  0.00     0.010 C 
ENDROOT
BRANCH   1   2
ATOM      2  C   UNL     1      87.708 101.899  66.346  1.00  0.00     0.001 C 
BRANCH   2   3
ATOM      3  C   UNL     1      88.854 102.549  67.175  1.00  0.00     0.000 C 
BRANCH   3   4
ATOM      4  C   UNL     1      89.539 103.750  66.464  1.00  0.00    -0.000 C 
BRANCH   4   5
ATOM      5  C   UNL     1      90.837 103.341  65.711  1.00  0.00    -0.000 C 
BRANCH   5   6
ATOM      6  C   UNL     1      91.361 101.944  66.142  1.00  0.00    -0.003 C 
ATOM      7  C   UNL     1      92.045 101.177  64.989  1.00  0.00     0.004 C 
ENDBRANCH   5   6
ENDBRANCH   4   5
ENDBRANCH   3   4
ENDBRANCH   2   3
ENDBRANCH   1   2
BRANCH   1   8
ATOM      8  C   UNL     1      87.980  99.308  66.239  1.00  0.00     0.100 C 
BRANCH   8   9
ATOM      9  C   UNL     1      89.042  98.743  67.106  1.00  0.00     0.220 C 
ATOM     10  O   UNL     1      90.216  98.715  66.667  1.00  0.00    -0.275 OA
ATOM     11  N   UNL     1      88.746  98.293  68.361  1.00  0.00    -0.352 N 
ATOM     12  H   UNL     1      87.761  98.282  68.579  1.00  0.00     0.163 HD
BRANCH  11  13
ATOM     13  C   UNL     1      89.697  97.860  69.339  1.00  0.00     0.151 C 
BRANCH  13  14
ATOM     14  C   UNL     1      90.321  98.972  70.104  1.00  0.00    -0.025 A 
ATOM     15  C   UNL     1      91.718  98.983  70.333  1.00  0.00     0.056 A 
ATOM     16  C   UNL     1      89.537 100.030  70.619  1.00  0.00     0.009 A 
ATOM     17  C   UNL     1      92.328 100.043  71.044  1.00  0.00     0.160 A 
ATOM     18  C   UNL     1      90.137 101.087  71.326  1.00  0.00     0.050 A 
ATOM     19  C   UNL     1      91.528 101.093  71.547  1.00  0.00     0.157 A 
BRANCH  17  20
ATOM     20  O   UNL     1      93.676 100.030  71.301  1.00  0.00    -0.493 OA
ATOM     21  C   UNL     1      94.499 100.158  70.128  1.00  0.00     0.278 C 
ENDBRANCH  17  20
BRANCH  19  22
ATOM     22  O   UNL     1      92.095 102.104  72.255  1.00  0.00    -0.504 OA
ATOM     23  H   UNL     1      91.593 102.251  73.060  1.00  0.00     0.293 HD
ENDBRANCH  19  22
ENDBRANCH  13  14
ENDBRANCH  11  13
ENDBRANCH   8   9
ENDBRANCH   1   8
TORSDOF 11
ENDMDL
MODEL 7
REMARK VINA RESULT:    -5.294      2.945      4.693
REMARK INTER + INTRA:          -9.588
REMARK INTER:                  -8.585
REMARK INTRA:                  -1.003
REMARK UNBOUND:                -1.045
REMARK SMILES CCCCCCCCC(=O)NCc1ccc(O)c(OC)c1
REMARK SMILES IDX 7 1 6 2 5 3 4 4 3 5 2 6 1 7 8 8 9 9 10 10 11 11 12 13 13 14
REMARK SMILES IDX 21 15 14 16 18 17 15 18 16 19 19 20 20 21 17 22
REMARK H PARENT 11 12 17 23
REMARK Flexibility Score: inf
ROOT
ATOM      1  C   UNL     1      93.697  94.848  78.272  1.00  0.00     0.010 C 
ENDROOT
BRANCH   1   2
ATOM      2  C   UNL     1      92.804  95.248  77.063  1.00  0.00     0.001 C 
BRANCH   2   3
ATOM      3  C   UNL     1      92.939  94.250  75.875  1.00  0.00     0.000 C 
BRANCH   3   4
ATOM      4  C   UNL     1      94.107  94.584  74.905  1.00  0.00    -0.000 C 
BRANCH   4   5
ATOM      5  C   UNL     1      94.295  96.114  74.697  1.00  0.00    -0.000 C 
BRANCH   5   6
ATOM      6  C   UNL     1      95.758  96.492  74.342  1.00  0.00    -0.003 C 
ATOM      7  C   UNL     1      96.369  97.515  75.325  1.00  0.00     0.004 C 
ENDBRANCH   5   6
ENDBRANCH   4   5
ENDBRANCH   3   4
ENDBRANCH   2   3
ENDBRANCH   1   2
BRANCH   1   8
ATOM      8  C   UNL     1      93.751  93.317  78.536  1.00  0.00     0.100 C 
BRANCH   8   9
ATOM      9  C   UNL     1      94.997  92.935  79.243  1.00  0.00     0.220 C 
ATOM     10  O   UNL     1      95.923  92.413  78.577  1.00  0.00    -0.275 OA
ATOM     11  N   UNL     1      95.137  93.174  80.580  1.00  0.00    -0.352 N 
ATOM     12  H   UNL     1      94.302  93.516  81.033  1.00  0.00     0.163 HD
BRANCH  11  13
ATOM     13  C   UNL     1      96.333  92.983  81.342  1.00  0.00     0.151 C 
BRANCH  13  14
ATOM     14  C   UNL     1      97.240  94.161  81.344  1.00  0.00    -0.025 A 
ATOM     15  C   UNL     1      96.718  95.462  81.148  1.00  0.00     0.056 A 
ATOM     16  C   UNL     1      98.632  94.006  81.536  1.00  0.00     0.009 A 
ATOM     17  C   UNL     1      97.566  96.594  81.164  1.00  0.00     0.160 A 
ATOM     18  C   UNL     1      99.481  95.128  81.554  1.00  0.00     0.050 A 
ATOM     19  C   UNL     1      98.954  96.420  81.362  1.00  0.00     0.157 A 
BRANCH  17  20
ATOM     20  O   UNL     1      97.064  97.850  80.932  1.00  0.00    -0.493 OA
ATOM     21  C   UNL     1      96.322  98.400  82.035  1.00  0.00     0.278 C 
ENDBRANCH  17  20
BRANCH  19  22
ATOM     22  O   UNL     1      99.785  97.493  81.353  1.00  0.00    -0.504 OA
ATOM     23  H   UNL     1      99.845  97.845  80.462  1.00  0.00     0.293 HD
ENDBRANCH  19  22
ENDBRANCH  13  14
ENDBRANCH  11  13
ENDBRANCH   8   9
ENDBRANCH   1   8
TORSDOF 11
ENDMDL
MODEL 8
REMARK VINA RESULT:    -5.278      2.648      3.892
REMARK INTER + INTRA:          -9.563
REMARK INTER:                  -8.683
REMARK INTRA:                  -0.881
REMARK UNBOUND:                -1.045
REMARK SMILES CCCCCCCCC(=O)NCc1ccc(O)c(OC)c1
REMARK SMILES IDX 7 1 6 2 5 3 4 4 3 5 2 6 1 7 8 8 9 9 10 10 11 11 12 13 13 14
REMARK SMILES IDX 21 15 14 16 18 17 15 18 16 19 19 20 20 21 17 22
REMARK H PARENT 11 12 17 23
REMARK Flexibility Score: inf
ROOT
ATOM      1  C   UNL     1      94.948  93.413  78.237  1.00  0.00     0.010 C 
ENDROOT
BRANCH   1   2
ATOM      2  C   UNL     1      93.398  93.299  78.299  1.00  0.00     0.001 C 
BRANCH   2   3
ATOM      3  C   UNL     1      92.690  94.522  77.645  1.00  0.00     0.000 C 
BRANCH   3   4
ATOM      4  C   UNL     1      91.191  94.276  77.313  1.00  0.00    -0.000 C 
BRANCH   4   5
ATOM      5  C   UNL     1      90.702  92.868  77.758  1.00  0.00    -0.000 C 
BRANCH   5   6
ATOM      6  C   UNL     1      90.184  92.014  76.570  1.00  0.00    -0.003 C 
ATOM      7  C   UNL     1      91.243  91.823  75.462  1.00  0.00     0.004 C 
ENDBRANCH   5   6
ENDBRANCH   4   5
ENDBRANCH   3   4
ENDBRANCH   2   3
ENDBRANCH   1   2
BRANCH   1   8
ATOM      8  C   UNL     1      95.457  94.750  77.628  1.00  0.00     0.100 C 
BRANCH   8   9
ATOM      9  C   UNL     1      96.065  95.619  78.664  1.00  0.00     0.220 C 
ATOM     10  O   UNL     1      96.878  96.501  78.299  1.00  0.00    -0.275 OA
ATOM     11  N   UNL     1      95.722  95.476  79.978  1.00  0.00    -0.352 N 
ATOM     12  H   UNL     1      95.129  94.682  80.171  1.00  0.00     0.163 HD
BRANCH  11  13
ATOM     13  C   UNL     1      96.128  96.337  81.047  1.00  0.00     0.151 C 
BRANCH  13  14
ATOM     14  C   UNL     1      97.289  95.826  81.823  1.00  0.00    -0.025 A 
ATOM     15  C   UNL     1      97.843  96.602  82.869  1.00  0.00     0.056 A 
ATOM     16  C   UNL     1      97.861  94.567  81.531  1.00  0.00     0.009 A 
ATOM     17  C   UNL     1      98.936  96.122  83.627  1.00  0.00     0.160 A 
ATOM     18  C   UNL     1      98.947  94.083  82.281  1.00  0.00     0.050 A 
ATOM     19  C   UNL     1      99.492  94.859  83.323  1.00  0.00     0.157 A 
BRANCH  17  20
ATOM     20  O   UNL     1      99.499  96.894  84.612  1.00  0.00    -0.493 OA
ATOM     21  C   UNL     1     100.257  98.014  84.123  1.00  0.00     0.278 C 
ENDBRANCH  17  20
BRANCH  19  22
ATOM     22  O   UNL     1     100.558  94.396  84.024  1.00  0.00    -0.504 OA
ATOM     23  H   UNL     1     101.361  94.809  83.696  1.00  0.00     0.293 HD
ENDBRANCH  19  22
ENDBRANCH  13  14
ENDBRANCH  11  13
ENDBRANCH   8   9
ENDBRANCH   1   8
TORSDOF 11
ENDMDL
MODEL 9
REMARK VINA RESULT:    -5.276     12.105     14.702
REMARK INTER + INTRA:          -9.559
REMARK INTER:                  -8.812
REMARK INTRA:                  -0.746
REMARK UNBOUND:                -1.045
REMARK SMILES CCCCCCCCC(=O)NCc1ccc(O)c(OC)c1
REMARK SMILES IDX 7 1 6 2 5 3 4 4 3 5 2 6 1 7 8 8 9 9 10 10 11 11 12 13 13 14
REMARK SMILES IDX 21 15 14 16 18 17 15 18 16 19 19 20 20 21 17 22
REMARK H PARENT 11 12 17 23
REMARK Flexibility Score: inf
ROOT
ATOM      1  C   UNL     1      97.901  80.805  78.991  1.00  0.00     0.010 C 
ENDROOT
BRANCH   1   2
ATOM      2  C   UNL     1      98.155  80.836  80.525  1.00  0.00     0.001 C 
BRANCH   2   3
ATOM      3  C   UNL     1      97.068  80.051  81.318  1.00  0.00     0.000 C 
BRANCH   3   4
ATOM      4  C   UNL     1      96.279  80.926  82.333  1.00  0.00    -0.000 C 
BRANCH   4   5
ATOM      5  C   UNL     1      96.312  82.438  81.974  1.00  0.00    -0.000 C 
BRANCH   5   6
ATOM      6  C   UNL     1      96.830  83.317  83.145  1.00  0.00    -0.003 C 
ATOM      7  C   UNL     1      95.692  84.032  83.908  1.00  0.00     0.004 C 
ENDBRANCH   5   6
ENDBRANCH   4   5
ENDBRANCH   3   4
ENDBRANCH   2   3
ENDBRANCH   1   2
BRANCH   1   8
ATOM      8  C   UNL     1      97.175  82.067  78.447  1.00  0.00     0.100 C 
BRANCH   8   9
ATOM      9  C   UNL     1      96.867  81.932  77.003  1.00  0.00     0.220 C 
ATOM     10  O   UNL     1      96.429  80.833  76.588  1.00  0.00    -0.275 OA
ATOM     11  N   UNL     1      97.031  82.992  76.157  1.00  0.00    -0.352 N 
ATOM     12  H   UNL     1      97.470  83.798  76.577  1.00  0.00     0.163 HD
BRANCH  11  13
ATOM     13  C   UNL     1      96.639  83.031  74.781  1.00  0.00     0.151 C 
BRANCH  13  14
ATOM     14  C   UNL     1      97.728  82.669  73.835  1.00  0.00    -0.025 A 
ATOM     15  C   UNL     1      97.787  81.367  73.281  1.00  0.00     0.056 A 
ATOM     16  C   UNL     1      98.721  83.608  73.475  1.00  0.00     0.009 A 
ATOM     17  C   UNL     1      98.806  81.013  72.367  1.00  0.00     0.160 A 
ATOM     18  C   UNL     1      99.737  83.263  72.566  1.00  0.00     0.050 A 
ATOM     19  C   UNL     1      99.787  81.967  72.017  1.00  0.00     0.157 A 
BRANCH  17  20
ATOM     20  O   UNL     1      98.885  79.739  71.864  1.00  0.00    -0.493 OA
ATOM     21  C   UNL     1      97.879  79.429  70.884  1.00  0.00     0.278 C 
ENDBRANCH  17  20
BRANCH  19  22
ATOM     22  O   UNL     1     100.788  81.635  71.161  1.00  0.00    -0.504 OA
ATOM     23  H   UNL     1     100.429  81.118  70.435  1.00  0.00     0.293 HD
ENDBRANCH  19  22
ENDBRANCH  13  14
ENDBRANCH  11  13
ENDBRANCH   8   9
ENDBRANCH   1   8
TORSDOF 11
ENDMDL
MODEL 10
REMARK VINA RESULT:    -5.251      6.523     10.190
REMARK INTER + INTRA:          -9.519
REMARK INTER:                  -8.804
REMARK INTRA:                  -0.716
REMARK UNBOUND:                -1.045
REMARK SMILES CCCCCCCCC(=O)NCc1ccc(O)c(OC)c1
REMARK SMILES IDX 7 1 6 2 5 3 4 4 3 5 2 6 1 7 8 8 9 9 10 10 11 11 12 13 13 14
REMARK SMILES IDX 21 15 14 16 18 17 15 18 16 19 19 20 20 21 17 22
REMARK H PARENT 11 12 17 23
REMARK Flexibility Score: inf
ROOT
ATOM      1  C   UNL     1      94.741  96.366  73.832  1.00  0.00     0.010 C 
ENDROOT
BRANCH   1   2
ATOM      2  C   UNL     1      95.343  96.296  75.265  1.00  0.00     0.001 C 
BRANCH   2   3
ATOM      3  C   UNL     1      94.423  95.521  76.254  1.00  0.00     0.000 C 
BRANCH   3   4
ATOM      4  C   UNL     1      93.554  94.426  75.574  1.00  0.00    -0.000 C 
BRANCH   4   5
ATOM      5  C   UNL     1      92.814  93.522  76.601  1.00  0.00    -0.000 C 
BRANCH   5   6
ATOM      6  C   UNL     1      91.874  94.329  77.536  1.00  0.00    -0.003 C 
ATOM      7  C   UNL     1      90.665  94.938  76.791  1.00  0.00     0.004 C 
ENDBRANCH   5   6
ENDBRANCH   4   5
ENDBRANCH   3   4
ENDBRANCH   2   3
ENDBRANCH   1   2
BRANCH   1   8
ATOM      8  C   UNL     1      95.219  97.594  73.008  1.00  0.00     0.100 C 
BRANCH   8   9
ATOM      9  C   UNL     1      94.116  98.562  72.794  1.00  0.00     0.220 C 
ATOM     10  O   UNL     1      93.354  98.818  73.757  1.00  0.00    -0.275 OA
ATOM     11  N   UNL     1      93.958  99.178  71.586  1.00  0.00    -0.352 N 
ATOM     12  H   UNL     1      94.570  98.836  70.859  1.00  0.00     0.163 HD
BRANCH  11  13
ATOM     13  C   UNL     1      93.029 100.228  71.298  1.00  0.00     0.151 C 
BRANCH  13  14
ATOM     14  C   UNL     1      91.833  99.780  70.536  1.00  0.00    -0.025 A 
ATOM     15  C   UNL     1      91.693 100.117  69.168  1.00  0.00     0.056 A 
ATOM     16  C   UNL     1      90.818  99.017  71.158  1.00  0.00     0.009 A 
ATOM     17  C   UNL     1      90.570  99.684  68.426  1.00  0.00     0.160 A 
ATOM     18  C   UNL     1      89.700  98.582  70.426  1.00  0.00     0.050 A 
ATOM     19  C   UNL     1      89.568  98.919  69.065  1.00  0.00     0.157 A 
BRANCH  17  20
ATOM     20  O   UNL     1      90.415 100.047  67.112  1.00  0.00    -0.493 OA
ATOM     21  C   UNL     1      89.936 101.391  66.925  1.00  0.00     0.278 C 
ENDBRANCH  17  20
BRANCH  19  22
ATOM     22  O   UNL     1      88.471  98.517  68.373  1.00  0.00    -0.504 OA
ATOM     23  H   UNL     1      88.017  97.829  68.865  1.00  0.00     0.293 HD
ENDBRANCH  19  22
ENDBRANCH  13  14
ENDBRANCH  11  13
ENDBRANCH   8   9
ENDBRANCH   1   8
TORSDOF 11
ENDMDL
