MODEL 1
REMARK VINA RESULT:    -7.873      0.000      0.000
REMARK INTER + INTRA:         -13.928
REMARK INTER:                 -13.396
REMARK INTRA:                  -0.532
REMARK UNBOUND:                -0.532
REMARK SMILES C=C(C)[C@]12C[C@@H](C)[C@@]34O[C@](Cc5ccccc5)(O[C@@H]1[C@@H]3C=C(COC(=O)Cc1ccc(O)cc1)C[C@]1(O)C(=O)C(C)=C[C@@H]41)O2
REMARK SMILES IDX 23 1 22 2 21 3 20 4 9 5 8 6 10 7 6 8 18 10 44 11 19 12 5 13
REMARK SMILES IDX 7 14 4 15 11 16 12 17 13 18 17 19 14 20 16 21 15 22 2 23
REMARK SMILES IDX 3 24 1 25 35 26 36 27 43 28 38 29 42 30 39 32 40 33 41 34
REMARK SMILES IDX 37 35 24 37 25 38 26 39 27 40 28 41 29 42 34 43 30 44 33 45
REMARK SMILES IDX 31 46 32 47
REMARK H PARENT 37 36 32 48
REMARK Flexibility Score: 90.00
ROOT
ATOM      1  C   UNL     1      94.351  98.635  74.699  1.00  0.00     0.264 C 
ENDROOT
BRANCH   1   2
ATOM      2  C   UNL     1      93.854  99.983  74.230  1.00  0.00    -0.033 C 
ATOM      3  C   UNL     1      93.356 100.104  72.982  1.00  0.00    -0.015 C 
BRANCH   3   4
ATOM      4  C   UNL     1      92.869 101.346  72.253  1.00  0.00     0.078 C 
ATOM      5  O   UNL     1      90.432 101.503  72.645  1.00  0.00    -0.319 OA
ATOM      6  C   UNL     1      91.702 102.182  72.896  1.00  0.00     0.095 CG0
ATOM      7  C   UNL     1      90.271 100.973  71.315  1.00  0.00     0.289 C 
ATOM      8  C   UNL     1      91.685 103.602  72.192  1.00  0.00     0.023 C 
ATOM      9  G   UNL     1      91.829 102.207  74.447  1.00  0.00     0.000 G0
ATOM     10  O   UNL     1      91.312 100.056  70.993  1.00  0.00    -0.320 OA
ATOM     11  O   UNL     1      90.328 101.988  70.316  1.00  0.00    -0.313 OA
ATOM     12  C   UNL     1      92.407 100.970  70.823  1.00  0.00     0.170 C 
ATOM     13  C   UNL     1      92.121 103.505  70.698  1.00  0.00     0.049 C 
ATOM     14  C   UNL     1      90.356 104.370  72.286  1.00  0.00     0.011 C 
ATOM     15  C   UNL     1      91.742 102.156  70.084  1.00  0.00     0.122 C 
BRANCH   7  16
ATOM     16  C   UNL     1      88.929 100.271  71.245  1.00  0.00     0.135 C 
BRANCH  16  17
ATOM     17  C   UNL     1      88.913  99.185  70.197  1.00  0.00    -0.040 A 
ATOM     18  C   UNL     1      89.269  97.881  70.539  1.00  0.00     0.004 A 
ATOM     19  C   UNL     1      88.540  99.487  68.888  1.00  0.00     0.004 A 
ATOM     20  C   UNL     1      89.253  96.877  69.570  1.00  0.00     0.000 A 
ATOM     21  C   UNL     1      88.524  98.483  67.919  1.00  0.00     0.000 A 
ATOM     22  C   UNL     1      88.881  97.179  68.260  1.00  0.00     0.000 A 
ENDBRANCH  16  17
ENDBRANCH   7  16
BRANCH  15  23
ATOM     23  C   UNL     1      91.986 102.108  68.611  1.00  0.00    -0.046 C 
ATOM     24  C   UNL     1      93.420 102.157  68.175  1.00  0.00     0.042 C 
ATOM     25  C   UNL     1      90.980 102.026  67.728  1.00  0.00     0.010 C 
ENDBRANCH  15  23
ENDBRANCH   3   4
BRANCH   2  26
ATOM     26  C   UNL     1      93.984 101.066  75.284  1.00  0.00     0.078 C 
BRANCH  26  27
ATOM     27  C   UNL     1      93.257 102.384  75.024  1.00  0.00     0.140 C 
ATOM     28  C   UNL     1      91.841 102.166  74.451  1.00  0.00     0.086 CG0
ATOM     29  C   UNL     1      92.976 103.153  76.298  1.00  0.00     0.190 C 
ATOM     30  C   UNL     1      90.987 103.100  75.263  1.00  0.00    -0.010 C 
ATOM     31  G   UNL     1      91.721 102.176  72.899  1.00  0.00     0.000 G0
ATOM     32  O   UNL     1      93.792 103.387  77.178  1.00  0.00    -0.291 OA
ATOM     33  C   UNL     1      91.587 103.647  76.324  1.00  0.00    -0.008 C 
ATOM     34  C   UNL     1      91.041 104.532  77.374  1.00  0.00     0.048 C 
BRANCH  27  35
ATOM     35  O   UNL     1      94.053 103.274  74.260  1.00  0.00    -0.381 OA
ATOM     36  H   UNL     1      94.374 102.801  73.474  1.00  0.00     0.212 HD
ENDBRANCH  27  35
ENDBRANCH  26  27
ENDBRANCH   2  26
ENDBRANCH   1   2
BRANCH   1  37
ATOM     37  O   UNL     1      93.795  98.348  75.965  1.00  0.00    -0.461 OA
BRANCH  37  38
ATOM     38  C   UNL     1      94.353  97.292  76.648  1.00  0.00     0.310 C 
ATOM     39  O   UNL     1      95.099  97.394  77.612  1.00  0.00    -0.252 OA
BRANCH  38  40
ATOM     40  C   UNL     1      93.901  95.994  76.024  1.00  0.00     0.158 C 
BRANCH  40  41
ATOM     41  C   UNL     1      92.721  95.381  76.732  1.00  0.00    -0.037 A 
ATOM     42  C   UNL     1      91.516  96.079  76.813  1.00  0.00     0.008 A 
ATOM     43  C   UNL     1      92.832  94.115  77.307  1.00  0.00     0.008 A 
ATOM     44  C   UNL     1      90.423  95.512  77.470  1.00  0.00     0.046 A 
ATOM     45  C   UNL     1      91.740  93.547  77.963  1.00  0.00     0.046 A 
ATOM     46  C   UNL     1      90.536  94.245  78.045  1.00  0.00     0.115 A 
BRANCH  46  47
ATOM     47  O   UNL     1      89.470  93.692  78.685  1.00  0.00    -0.508 OA
ATOM     48  H   UNL     1      88.674  94.213  78.481  1.00  0.00     0.293 HD
ENDBRANCH  46  47
ENDBRANCH  40  41
ENDBRANCH  38  40
ENDBRANCH  37  38
ENDBRANCH   1  37
TORSDOF 10
ENDMDL
MODEL 2
REMARK VINA RESULT:    -7.388     20.446     24.613
REMARK INTER + INTRA:         -13.103
REMARK INTER:                 -11.361
REMARK INTRA:                  -1.742
REMARK UNBOUND:                -0.532
REMARK SMILES C=C(C)[C@]12C[C@@H](C)[C@@]34O[C@](Cc5ccccc5)(O[C@@H]1[C@@H]3C=C(COC(=O)Cc1ccc(O)cc1)C[C@]1(O)C(=O)C(C)=C[C@@H]41)O2
REMARK SMILES IDX 23 1 22 2 21 3 20 4 9 5 8 6 10 7 6 8 18 10 44 11 19 12 5 13
REMARK SMILES IDX 7 14 4 15 11 16 12 17 13 18 17 19 14 20 16 21 15 22 2 23
REMARK SMILES IDX 3 24 1 25 35 26 36 27 43 28 38 29 42 30 39 32 40 33 41 34
REMARK SMILES IDX 37 35 24 37 25 38 26 39 27 40 28 41 29 42 34 43 30 44 33 45
REMARK SMILES IDX 31 46 32 47
REMARK H PARENT 37 36 32 48
REMARK Flexibility Score: 90.00
ROOT
ATOM      1  C   UNL     1      71.611  82.922  65.292  1.00  0.00     0.264 C 
ENDROOT
BRANCH   1   2
ATOM      2  C   UNL     1      71.876  83.715  66.550  1.00  0.00    -0.033 C 
ATOM      3  C   UNL     1      73.140  84.084  66.843  1.00  0.00    -0.015 C 
BRANCH   3   4
ATOM      4  C   UNL     1      73.675  84.809  68.067  1.00  0.00     0.078 C 
ATOM      5  O   UNL     1      73.724  87.219  67.513  1.00  0.00    -0.319 OA
ATOM      6  C   UNL     1      73.104  86.237  68.400  1.00  0.00     0.095 CG0
ATOM      7  C   UNL     1      75.140  87.056  67.309  1.00  0.00     0.289 C 
ATOM      8  C   UNL     1      73.490  86.570  69.900  1.00  0.00     0.023 C 
ATOM      9  G   UNL     1      71.585  86.316  68.067  1.00  0.00     0.000 G0
ATOM     10  O   UNL     1      75.443  85.765  66.789  1.00  0.00    -0.320 OA
ATOM     11  O   UNL     1      75.879  87.166  68.523  1.00  0.00    -0.313 OA
ATOM     12  C   UNL     1      75.212  84.963  67.958  1.00  0.00     0.170 C 
ATOM     13  C   UNL     1      74.862  85.942  70.291  1.00  0.00     0.049 C 
ATOM     14  C   UNL     1      73.490  88.064  70.267  1.00  0.00     0.011 C 
ATOM     15  C   UNL     1      75.802  85.842  69.089  1.00  0.00     0.122 C 
BRANCH   7  16
ATOM     16  C   UNL     1      75.605  88.122  66.336  1.00  0.00     0.135 C 
BRANCH  16  17
ATOM     17  C   UNL     1      74.969  89.461  66.617  1.00  0.00    -0.040 A 
ATOM     18  C   UNL     1      73.918  89.915  65.822  1.00  0.00     0.004 A 
ATOM     19  C   UNL     1      75.434  90.244  67.674  1.00  0.00     0.004 A 
ATOM     20  C   UNL     1      73.330  91.153  66.082  1.00  0.00     0.000 A 
ATOM     21  C   UNL     1      74.846  91.483  67.934  1.00  0.00     0.000 A 
ATOM     22  C   UNL     1      73.794  91.936  67.138  1.00  0.00     0.000 A 
ENDBRANCH  16  17
ENDBRANCH   7  16
BRANCH  15  23
ATOM     23  C   UNL     1      77.181  85.413  69.472  1.00  0.00    -0.046 C 
ATOM     24  C   UNL     1      77.277  84.406  70.580  1.00  0.00     0.042 C 
ATOM     25  C   UNL     1      78.271  85.900  68.861  1.00  0.00     0.010 C 
ENDBRANCH  15  23
ENDBRANCH   3   4
BRANCH   2  26
ATOM     26  C   UNL     1      70.618  84.009  67.345  1.00  0.00     0.078 C 
BRANCH  26  27
ATOM     27  C   UNL     1      70.725  85.043  68.464  1.00  0.00     0.140 C 
ATOM     28  C   UNL     1      71.565  86.268  68.049  1.00  0.00     0.086 CG0
ATOM     29  C   UNL     1      69.388  85.666  68.808  1.00  0.00     0.190 C 
ATOM     30  C   UNL     1      70.738  87.434  68.517  1.00  0.00    -0.010 C 
ATOM     31  G   UNL     1      73.079  86.214  68.405  1.00  0.00     0.000 G0
ATOM     32  O   UNL     1      68.353  85.051  69.016  1.00  0.00    -0.291 OA
ATOM     33  C   UNL     1      69.501  87.132  68.922  1.00  0.00    -0.008 C 
ATOM     34  C   UNL     1      68.403  88.016  69.363  1.00  0.00     0.048 C 
BRANCH  27  35
ATOM     35  O   UNL     1      71.143  84.448  69.681  1.00  0.00    -0.381 OA
ATOM     36  H   UNL     1      70.353  84.156  70.168  1.00  0.00     0.212 HD
ENDBRANCH  27  35
ENDBRANCH  26  27
ENDBRANCH   2  26
ENDBRANCH   1   2
BRANCH   1  37
ATOM     37  O   UNL     1      72.841  82.527  64.721  1.00  0.00    -0.461 OA
BRANCH  37  38
ATOM     38  C   UNL     1      73.094  81.175  64.697  1.00  0.00     0.310 C 
ATOM     39  O   UNL     1      72.367  80.316  65.176  1.00  0.00    -0.252 OA
BRANCH  38  40
ATOM     40  C   UNL     1      74.403  80.920  63.990  1.00  0.00     0.158 C 
BRANCH  40  41
ATOM     41  C   UNL     1      75.532  81.766  64.519  1.00  0.00    -0.037 A 
ATOM     42  C   UNL     1      76.064  82.790  63.734  1.00  0.00     0.008 A 
ATOM     43  C   UNL     1      76.045  81.527  65.793  1.00  0.00     0.008 A 
ATOM     44  C   UNL     1      77.109  83.573  64.224  1.00  0.00     0.046 A 
ATOM     45  C   UNL     1      77.090  82.311  66.284  1.00  0.00     0.046 A 
ATOM     46  C   UNL     1      77.622  83.333  65.499  1.00  0.00     0.115 A 
BRANCH  46  47
ATOM     47  O   UNL     1      78.642  84.097  65.976  1.00  0.00    -0.508 OA
ATOM     48  H   UNL     1      78.677  84.008  66.944  1.00  0.00     0.293 HD
ENDBRANCH  46  47
ENDBRANCH  40  41
ENDBRANCH  38  40
ENDBRANCH  37  38
ENDBRANCH   1  37
TORSDOF 10
ENDMDL
MODEL 3
REMARK VINA RESULT:    -7.354     20.853     25.090
REMARK INTER + INTRA:         -13.044
REMARK INTER:                 -11.079
REMARK INTRA:                  -1.965
REMARK UNBOUND:                -0.532
REMARK SMILES C=C(C)[C@]12C[C@@H](C)[C@@]34O[C@](Cc5ccccc5)(O[C@@H]1[C@@H]3C=C(COC(=O)Cc1ccc(O)cc1)C[C@]1(O)C(=O)C(C)=C[C@@H]41)O2
REMARK SMILES IDX 23 1 22 2 21 3 20 4 9 5 8 6 10 7 6 8 18 10 44 11 19 12 5 13
REMARK SMILES IDX 7 14 4 15 11 16 12 17 13 18 17 19 14 20 16 21 15 22 2 23
REMARK SMILES IDX 3 24 1 25 35 26 36 27 43 28 38 29 42 30 39 32 40 33 41 34
REMARK SMILES IDX 37 35 24 37 25 38 26 39 27 40 28 41 29 42 34 43 30 44 33 45
REMARK SMILES IDX 31 46 32 47
REMARK H PARENT 37 36 32 48
REMARK Flexibility Score: 90.00
ROOT
ATOM      1  C   UNL     1      75.563  83.058  65.676  1.00  0.00     0.264 C 
ENDROOT
BRANCH   1   2
ATOM      2  C   UNL     1      74.503  84.133  65.733  1.00  0.00    -0.033 C 
ATOM      3  C   UNL     1      73.257  83.808  66.136  1.00  0.00    -0.015 C 
BRANCH   3   4
ATOM      4  C   UNL     1      72.009  84.675  66.208  1.00  0.00     0.078 C 
ATOM      5  O   UNL     1      71.911  85.608  68.496  1.00  0.00    -0.319 OA
ATOM      6  C   UNL     1      72.052  85.977  67.088  1.00  0.00     0.095 CG0
ATOM      7  C   UNL     1      70.916  84.603  68.771  1.00  0.00     0.289 C 
ATOM      8  C   UNL     1      70.828  86.887  66.660  1.00  0.00     0.023 C 
ATOM      9  G   UNL     1      73.450  86.656  67.004  1.00  0.00     0.000 G0
ATOM     10  O   UNL     1      71.174  83.406  68.043  1.00  0.00    -0.320 OA
ATOM     11  O   UNL     1      69.607  85.015  68.384  1.00  0.00    -0.313 OA
ATOM     12  C   UNL     1      70.814  83.834  66.720  1.00  0.00     0.170 C 
ATOM     13  C   UNL     1      69.600  86.027  66.230  1.00  0.00     0.049 C 
ATOM     14  C   UNL     1      70.382  87.929  67.700  1.00  0.00     0.011 C 
ATOM     15  C   UNL     1      69.552  84.694  66.978  1.00  0.00     0.122 C 
BRANCH   7  16
ATOM     16  C   UNL     1      70.934  84.312  70.259  1.00  0.00     0.135 C 
BRANCH  16  17
ATOM     17  C   UNL     1      69.750  84.919  70.968  1.00  0.00    -0.040 A 
ATOM     18  C   UNL     1      69.698  86.295  71.190  1.00  0.00     0.004 A 
ATOM     19  C   UNL     1      68.706  84.103  71.403  1.00  0.00     0.004 A 
ATOM     20  C   UNL     1      68.602  86.856  71.846  1.00  0.00     0.000 A 
ATOM     21  C   UNL     1      67.610  84.664  72.060  1.00  0.00     0.000 A 
ATOM     22  C   UNL     1      67.558  86.039  72.281  1.00  0.00     0.000 A 
ENDBRANCH  16  17
ENDBRANCH   7  16
BRANCH  15  23
ATOM     23  C   UNL     1      68.292  83.934  66.718  1.00  0.00    -0.046 C 
ATOM     24  C   UNL     1      67.368  83.766  67.888  1.00  0.00     0.042 C 
ATOM     25  C   UNL     1      68.004  83.431  65.509  1.00  0.00     0.010 C 
ENDBRANCH  15  23
ENDBRANCH   3   4
BRANCH   2  26
ATOM     26  C   UNL     1      75.015  85.498  65.315  1.00  0.00     0.078 C 
BRANCH  26  27
ATOM     27  C   UNL     1      74.110  86.698  65.590  1.00  0.00     0.140 C 
ATOM     28  C   UNL     1      73.471  86.637  66.993  1.00  0.00     0.086 CG0
ATOM     29  C   UNL     1      74.876  88.003  65.638  1.00  0.00     0.190 C 
ATOM     30  C   UNL     1      73.666  88.029  67.526  1.00  0.00    -0.010 C 
ATOM     31  G   UNL     1      72.064  85.976  67.077  1.00  0.00     0.000 G0
ATOM     32  O   UNL     1      75.688  88.378  64.805  1.00  0.00    -0.291 OA
ATOM     33  C   UNL     1      74.472  88.812  66.803  1.00  0.00    -0.008 C 
ATOM     34  C   UNL     1      74.948  90.186  67.063  1.00  0.00     0.048 C 
BRANCH  27  35
ATOM     35  O   UNL     1      73.175  86.892  64.542  1.00  0.00    -0.381 OA
ATOM     36  H   UNL     1      72.296  86.625  64.862  1.00  0.00     0.212 HD
ENDBRANCH  27  35
ENDBRANCH  26  27
ENDBRANCH   2  26
ENDBRANCH   1   2
BRANCH   1  37
ATOM     37  O   UNL     1      76.245  83.010  66.911  1.00  0.00    -0.461 OA
BRANCH  37  38
ATOM     38  C   UNL     1      77.533  83.496  66.914  1.00  0.00     0.310 C 
ATOM     39  O   UNL     1      78.218  83.674  65.917  1.00  0.00    -0.252 OA
BRANCH  38  40
ATOM     40  C   UNL     1      77.963  83.773  68.334  1.00  0.00     0.158 C 
BRANCH  40  41
ATOM     41  C   UNL     1      77.294  84.987  68.925  1.00  0.00    -0.037 A 
ATOM     42  C   UNL     1      77.783  86.262  68.640  1.00  0.00     0.008 A 
ATOM     43  C   UNL     1      76.184  84.836  69.756  1.00  0.00     0.008 A 
ATOM     44  C   UNL     1      77.164  87.386  69.188  1.00  0.00     0.046 A 
ATOM     45  C   UNL     1      75.564  85.960  70.304  1.00  0.00     0.046 A 
ATOM     46  C   UNL     1      76.054  87.234  70.020  1.00  0.00     0.115 A 
BRANCH  46  47
ATOM     47  O   UNL     1      75.450  88.330  70.554  1.00  0.00    -0.508 OA
ATOM     48  H   UNL     1      74.543  88.391  70.207  1.00  0.00     0.293 HD
ENDBRANCH  46  47
ENDBRANCH  40  41
ENDBRANCH  38  40
ENDBRANCH  37  38
ENDBRANCH   1  37
TORSDOF 10
ENDMDL
MODEL 4
REMARK VINA RESULT:    -7.124     18.486     22.644
REMARK INTER + INTRA:         -12.654
REMARK INTER:                 -10.620
REMARK INTRA:                  -2.034
REMARK UNBOUND:                -0.532
REMARK SMILES C=C(C)[C@]12C[C@@H](C)[C@@]34O[C@](Cc5ccccc5)(O[C@@H]1[C@@H]3C=C(COC(=O)Cc1ccc(O)cc1)C[C@]1(O)C(=O)C(C)=C[C@@H]41)O2
REMARK SMILES IDX 23 1 22 2 21 3 20 4 9 5 8 6 10 7 6 8 18 10 44 11 19 12 5 13
REMARK SMILES IDX 7 14 4 15 11 16 12 17 13 18 17 19 14 20 16 21 15 22 2 23
REMARK SMILES IDX 3 24 1 25 35 26 36 27 43 28 38 29 42 30 39 32 40 33 41 34
REMARK SMILES IDX 37 35 24 37 25 38 26 39 27 40 28 41 29 42 34 43 30 44 33 45
REMARK SMILES IDX 31 46 32 47
REMARK H PARENT 37 36 32 48
REMARK Flexibility Score: 90.00
ROOT
ATOM      1  C   UNL     1     105.324  81.426  78.056  1.00  0.00     0.264 C 
ENDROOT
BRANCH   1   2
ATOM      2  C   UNL     1     104.182  81.353  79.043  1.00  0.00    -0.033 C 
ATOM      3  C   UNL     1     102.926  81.603  78.618  1.00  0.00    -0.015 C 
BRANCH   3   4
ATOM      4  C   UNL     1     101.633  81.669  79.414  1.00  0.00     0.078 C 
ATOM      5  O   UNL     1     100.627  79.410  79.342  1.00  0.00    -0.319 OA
ATOM      6  C   UNL     1     101.201  80.405  80.246  1.00  0.00     0.095 CG0
ATOM      7  C   UNL     1      99.735  79.933  78.339  1.00  0.00     0.289 C 
ATOM      8  C   UNL     1     100.097  80.868  81.284  1.00  0.00     0.023 C 
ATOM      9  G   UNL     1     102.443  79.698  80.863  1.00  0.00     0.000 G0
ATOM     10  O   UNL     1     100.380  80.915  77.534  1.00  0.00    -0.320 OA
ATOM     11  O   UNL     1      98.602  80.584  78.907  1.00  0.00    -0.313 OA
ATOM     12  C   UNL     1     100.451  82.001  78.471  1.00  0.00     0.170 C 
ATOM     13  C   UNL     1      99.215  82.017  80.706  1.00  0.00     0.049 C 
ATOM     14  C   UNL     1      99.189  79.751  81.826  1.00  0.00     0.011 C 
ATOM     15  C   UNL     1      99.080  81.916  79.186  1.00  0.00     0.122 C 
BRANCH   7  16
ATOM     16  C   UNL     1      99.272  78.781  77.469  1.00  0.00     0.135 C 
BRANCH  16  17
ATOM     17  C   UNL     1      99.363  79.108  76.000  1.00  0.00    -0.040 A 
ATOM     18  C   UNL     1      98.571  80.120  75.459  1.00  0.00     0.004 A 
ATOM     19  C   UNL     1     100.241  78.397  75.182  1.00  0.00     0.004 A 
ATOM     20  C   UNL     1      98.656  80.422  74.100  1.00  0.00     0.000 A 
ATOM     21  C   UNL     1     100.327  78.699  73.822  1.00  0.00     0.000 A 
ATOM     22  C   UNL     1      99.534  79.711  73.282  1.00  0.00     0.000 A 
ENDBRANCH  16  17
ENDBRANCH   7  16
BRANCH  15  23
ATOM     23  C   UNL     1      98.096  82.894  78.631  1.00  0.00    -0.046 C 
ATOM     24  C   UNL     1      97.145  83.507  79.616  1.00  0.00     0.042 C 
ATOM     25  C   UNL     1      98.064  83.207  77.327  1.00  0.00     0.010 C 
ENDBRANCH  15  23
ENDBRANCH   3   4
BRANCH   2  26
ATOM     26  C   UNL     1     104.628  80.980  80.445  1.00  0.00     0.078 C 
BRANCH  26  27
ATOM     27  C   UNL     1     103.537  80.655  81.462  1.00  0.00     0.140 C 
ATOM     28  C   UNL     1     102.456  79.721  80.880  1.00  0.00     0.086 CG0
ATOM     29  C   UNL     1     104.058  79.856  82.637  1.00  0.00     0.190 C 
ATOM     30  C   UNL     1     102.265  78.692  81.959  1.00  0.00    -0.010 C 
ATOM     31  G   UNL     1     101.209  80.417  80.260  1.00  0.00     0.000 G0
ATOM     32  O   UNL     1     105.056  80.125  83.290  1.00  0.00    -0.291 OA
ATOM     33  C   UNL     1     103.166  78.723  82.945  1.00  0.00    -0.008 C 
ATOM     34  C   UNL     1     103.334  77.827  84.108  1.00  0.00     0.048 C 
BRANCH  27  35
ATOM     35  O   UNL     1     103.016  81.832  82.058  1.00  0.00    -0.381 OA
ATOM     36  H   UNL     1     102.526  82.328  81.380  1.00  0.00     0.212 HD
ENDBRANCH  27  35
ENDBRANCH  26  27
ENDBRANCH   2  26
ENDBRANCH   1   2
BRANCH   1  37
ATOM     37  O   UNL     1     104.837  81.157  76.759  1.00  0.00    -0.461 OA
BRANCH  37  38
ATOM     38  C   UNL     1     105.238  82.024  75.768  1.00  0.00     0.310 C 
ATOM     39  O   UNL     1     106.274  82.673  75.780  1.00  0.00    -0.252 OA
BRANCH  38  40
ATOM     40  C   UNL     1     104.203  82.046  74.669  1.00  0.00     0.158 C 
BRANCH  40  41
ATOM     41  C   UNL     1     103.085  83.021  74.935  1.00  0.00    -0.037 A 
ATOM     42  C   UNL     1     103.376  84.311  75.380  1.00  0.00     0.008 A 
ATOM     43  C   UNL     1     101.760  82.635  74.735  1.00  0.00     0.008 A 
ATOM     44  C   UNL     1     102.341  85.214  75.627  1.00  0.00     0.046 A 
ATOM     45  C   UNL     1     100.725  83.538  74.981  1.00  0.00     0.046 A 
ATOM     46  C   UNL     1     101.016  84.827  75.427  1.00  0.00     0.115 A 
BRANCH  46  47
ATOM     47  O   UNL     1     100.007  85.708  75.668  1.00  0.00    -0.508 OA
ATOM     48  H   UNL     1      99.303  85.254  76.164  1.00  0.00     0.293 HD
ENDBRANCH  46  47
ENDBRANCH  40  41
ENDBRANCH  38  40
ENDBRANCH  37  38
ENDBRANCH   1  37
TORSDOF 10
ENDMDL
MODEL 5
REMARK VINA RESULT:    -7.090     21.562     25.693
REMARK INTER + INTRA:         -12.596
REMARK INTER:                 -10.720
REMARK INTRA:                  -1.876
REMARK UNBOUND:                -0.532
REMARK SMILES C=C(C)[C@]12C[C@@H](C)[C@@]34O[C@](Cc5ccccc5)(O[C@@H]1[C@@H]3C=C(COC(=O)Cc1ccc(O)cc1)C[C@]1(O)C(=O)C(C)=C[C@@H]41)O2
REMARK SMILES IDX 23 1 22 2 21 3 20 4 9 5 8 6 10 7 6 8 18 10 44 11 19 12 5 13
REMARK SMILES IDX 7 14 4 15 11 16 12 17 13 18 17 19 14 20 16 21 15 22 2 23
REMARK SMILES IDX 3 24 1 25 35 26 36 27 43 28 38 29 42 30 39 32 40 33 41 34
REMARK SMILES IDX 37 35 24 37 25 38 26 39 27 40 28 41 29 42 34 43 30 44 33 45
REMARK SMILES IDX 31 46 32 47
REMARK H PARENT 37 36 32 48
REMARK Flexibility Score: 90.00
ROOT
ATOM      1  C   UNL     1      72.780  84.073  64.820  1.00  0.00     0.264 C 
ENDROOT
BRANCH   1   2
ATOM      2  C   UNL     1      72.556  85.160  65.845  1.00  0.00    -0.033 C 
ATOM      3  C   UNL     1      71.334  85.304  66.399  1.00  0.00    -0.015 C 
BRANCH   3   4
ATOM      4  C   UNL     1      70.837  86.351  67.382  1.00  0.00     0.078 C 
ATOM      5  O   UNL     1      71.163  85.423  69.651  1.00  0.00    -0.319 OA
ATOM      6  C   UNL     1      71.584  86.501  68.758  1.00  0.00     0.095 CG0
ATOM      7  C   UNL     1      69.752  85.132  69.642  1.00  0.00     0.289 C 
ATOM      8  C   UNL     1      71.162  87.894  69.383  1.00  0.00     0.023 C 
ATOM      9  G   UNL     1      73.115  86.284  68.582  1.00  0.00     0.000 G0
ATOM     10  O   UNL     1      69.300  84.799  68.333  1.00  0.00    -0.320 OA
ATOM     11  O   UNL     1      68.966  86.250  70.048  1.00  0.00    -0.313 OA
ATOM     12  C   UNL     1      69.346  86.095  67.714  1.00  0.00     0.170 C 
ATOM     13  C   UNL     1      69.693  88.266  69.014  1.00  0.00     0.049 C 
ATOM     14  C   UNL     1      71.352  88.020  70.905  1.00  0.00     0.011 C 
ATOM     15  C   UNL     1      68.821  87.021  68.838  1.00  0.00     0.122 C 
BRANCH   7  16
ATOM     16  C   UNL     1      69.501  83.970  70.583  1.00  0.00     0.135 C 
BRANCH  16  17
ATOM     17  C   UNL     1      68.073  83.932  71.067  1.00  0.00    -0.040 A 
ATOM     18  C   UNL     1      67.120  83.191  70.369  1.00  0.00     0.004 A 
ATOM     19  C   UNL     1      67.707  84.638  72.213  1.00  0.00     0.004 A 
ATOM     20  C   UNL     1      65.799  83.155  70.818  1.00  0.00     0.000 A 
ATOM     21  C   UNL     1      66.386  84.602  72.661  1.00  0.00     0.000 A 
ATOM     22  C   UNL     1      65.433  83.861  71.963  1.00  0.00     0.000 A 
ENDBRANCH  16  17
ENDBRANCH   7  16
BRANCH  15  23
ATOM     23  C   UNL     1      67.375  87.354  68.662  1.00  0.00    -0.046 C 
ATOM     24  C   UNL     1      67.034  88.224  67.489  1.00  0.00     0.042 C 
ATOM     25  C   UNL     1      66.436  86.901  69.505  1.00  0.00     0.010 C 
ENDBRANCH  15  23
ENDBRANCH   3   4
BRANCH   2  26
ATOM     26  C   UNL     1      73.803  85.976  66.129  1.00  0.00     0.078 C 
BRANCH  26  27
ATOM     27  C   UNL     1      73.744  86.957  67.299  1.00  0.00     0.140 C 
ATOM     28  C   UNL     1      73.129  86.322  68.563  1.00  0.00     0.086 CG0
ATOM     29  C   UNL     1      75.119  87.370  67.779  1.00  0.00     0.190 C 
ATOM     30  C   UNL     1      74.067  86.744  69.659  1.00  0.00    -0.010 C 
ATOM     31  G   UNL     1      71.596  86.518  68.752  1.00  0.00     0.000 G0
ATOM     32  O   UNL     1      76.033  87.754  67.065  1.00  0.00    -0.291 OA
ATOM     33  C   UNL     1      75.207  87.310  69.251  1.00  0.00    -0.008 C 
ATOM     34  C   UNL     1      76.376  87.765  70.031  1.00  0.00     0.048 C 
BRANCH  27  35
ATOM     35  O   UNL     1      73.137  88.181  66.919  1.00  0.00    -0.381 OA
ATOM     36  H   UNL     1      73.826  88.865  66.879  1.00  0.00     0.212 HD
ENDBRANCH  27  35
ENDBRANCH  26  27
ENDBRANCH   2  26
ENDBRANCH   1   2
BRANCH   1  37
ATOM     37  O   UNL     1      74.062  83.513  65.006  1.00  0.00    -0.461 OA
BRANCH  37  38
ATOM     38  C   UNL     1      74.109  82.304  65.661  1.00  0.00     0.310 C 
ATOM     39  O   UNL     1      73.133  81.682  66.056  1.00  0.00    -0.252 OA
BRANCH  38  40
ATOM     40  C   UNL     1      75.546  81.869  65.815  1.00  0.00     0.158 C 
BRANCH  40  41
ATOM     41  C   UNL     1      76.357  82.809  66.669  1.00  0.00    -0.037 A 
ATOM     42  C   UNL     1      75.855  83.246  67.895  1.00  0.00     0.008 A 
ATOM     43  C   UNL     1      77.608  83.244  66.234  1.00  0.00     0.008 A 
ATOM     44  C   UNL     1      76.605  84.118  68.686  1.00  0.00     0.046 A 
ATOM     45  C   UNL     1      78.359  84.115  67.024  1.00  0.00     0.046 A 
ATOM     46  C   UNL     1      77.857  84.552  68.250  1.00  0.00     0.115 A 
BRANCH  46  47
ATOM     47  O   UNL     1      78.588  85.402  69.021  1.00  0.00    -0.508 OA
ATOM     48  H   UNL     1      79.438  84.980  69.238  1.00  0.00     0.293 HD
ENDBRANCH  46  47
ENDBRANCH  40  41
ENDBRANCH  38  40
ENDBRANCH  37  38
ENDBRANCH   1  37
TORSDOF 10
ENDMDL
MODEL 6
REMARK VINA RESULT:    -6.722     19.756     23.428
REMARK INTER + INTRA:         -11.970
REMARK INTER:                 -11.408
REMARK INTRA:                  -0.562
REMARK UNBOUND:                -0.532
REMARK SMILES C=C(C)[C@]12C[C@@H](C)[C@@]34O[C@](Cc5ccccc5)(O[C@@H]1[C@@H]3C=C(COC(=O)Cc1ccc(O)cc1)C[C@]1(O)C(=O)C(C)=C[C@@H]41)O2
REMARK SMILES IDX 23 1 22 2 21 3 20 4 9 5 8 6 10 7 6 8 18 10 44 11 19 12 5 13
REMARK SMILES IDX 7 14 4 15 11 16 12 17 13 18 17 19 14 20 16 21 15 22 2 23
REMARK SMILES IDX 3 24 1 25 35 26 36 27 43 28 38 29 42 30 39 32 40 33 41 34
REMARK SMILES IDX 37 35 24 37 25 38 26 39 27 40 28 41 29 42 34 43 30 44 33 45
REMARK SMILES IDX 31 46 32 47
REMARK H PARENT 37 36 32 48
REMARK Flexibility Score: 90.00
ROOT
ATOM      1  C   UNL     1      97.901  82.800  86.517  1.00  0.00     0.264 C 
ENDROOT
BRANCH   1   2
ATOM      2  C   UNL     1      96.557  83.388  86.883  1.00  0.00    -0.033 C 
ATOM      3  C   UNL     1      95.500  82.565  87.043  1.00  0.00    -0.015 C 
BRANCH   3   4
ATOM      4  C   UNL     1      94.047  82.907  87.333  1.00  0.00     0.078 C 
ATOM      5  O   UNL     1      93.768  82.848  89.789  1.00  0.00    -0.319 OA
ATOM      6  C   UNL     1      93.716  83.735  88.629  1.00  0.00     0.095 CG0
ATOM      7  C   UNL     1      93.159  81.555  89.603  1.00  0.00     0.289 C 
ATOM      8  C   UNL     1      92.247  84.306  88.471  1.00  0.00     0.023 C 
ATOM      9  G   UNL     1      94.820  84.797  88.903  1.00  0.00     0.000 G0
ATOM     10  O   UNL     1      93.749  80.858  88.510  1.00  0.00    -0.320 OA
ATOM     11  O   UNL     1      91.770  81.649  89.296  1.00  0.00    -0.313 OA
ATOM     12  C   UNL     1      93.207  81.608  87.412  1.00  0.00     0.170 C 
ATOM     13  C   UNL     1      91.336  83.328  87.667  1.00  0.00     0.049 C 
ATOM     14  C   UNL     1      91.544  84.694  89.784  1.00  0.00     0.011 C 
ATOM     15  C   UNL     1      91.752  81.870  87.871  1.00  0.00     0.122 C 
BRANCH   7  16
ATOM     16  C   UNL     1      93.341  80.757  90.879  1.00  0.00     0.135 C 
BRANCH  16  17
ATOM     17  C   UNL     1      92.083  80.023  91.272  1.00  0.00    -0.040 A 
ATOM     18  C   UNL     1      91.343  80.448  92.375  1.00  0.00     0.004 A 
ATOM     19  C   UNL     1      91.662  78.919  90.531  1.00  0.00     0.004 A 
ATOM     20  C   UNL     1      90.179  79.768  92.737  1.00  0.00     0.000 A 
ATOM     21  C   UNL     1      90.498  78.240  90.894  1.00  0.00     0.000 A 
ATOM     22  C   UNL     1      89.758  78.665  91.997  1.00  0.00     0.000 A 
ENDBRANCH  16  17
ENDBRANCH   7  16
BRANCH  15  23
ATOM     23  C   UNL     1      90.787  80.908  87.258  1.00  0.00    -0.046 C 
ATOM     24  C   UNL     1      91.164  80.360  85.914  1.00  0.00     0.042 C 
ATOM     25  C   UNL     1      89.650  80.554  87.875  1.00  0.00     0.010 C 
ENDBRANCH  15  23
ENDBRANCH   3   4
BRANCH   2  26
ATOM     26  C   UNL     1      96.589  84.897  87.035  1.00  0.00     0.078 C 
BRANCH  26  27
ATOM     27  C   UNL     1      95.355  85.563  87.640  1.00  0.00     0.140 C 
ATOM     28  C   UNL     1      94.826  84.802  88.873  1.00  0.00     0.086 CG0
ATOM     29  C   UNL     1      95.655  86.934  88.208  1.00  0.00     0.190 C 
ATOM     30  C   UNL     1      94.578  85.893  89.878  1.00  0.00    -0.010 C 
ATOM     31  G   UNL     1      93.714  83.746  88.603  1.00  0.00     0.000 G0
ATOM     32  O   UNL     1      96.268  87.821  87.631  1.00  0.00    -0.291 OA
ATOM     33  C   UNL     1      95.057  87.096  89.546  1.00  0.00    -0.008 C 
ATOM     34  C   UNL     1      95.069  88.359  90.313  1.00  0.00     0.048 C 
BRANCH  27  35
ATOM     35  O   UNL     1      94.366  85.815  86.655  1.00  0.00    -0.381 OA
ATOM     36  H   UNL     1      94.367  86.767  86.455  1.00  0.00     0.212 HD
ENDBRANCH  27  35
ENDBRANCH  26  27
ENDBRANCH   2  26
ENDBRANCH   1   2
BRANCH   1  37
ATOM     37  O   UNL     1      97.752  81.965  85.388  1.00  0.00    -0.461 OA
BRANCH  37  38
ATOM     38  C   UNL     1      98.904  81.667  84.697  1.00  0.00     0.310 C 
ATOM     39  O   UNL     1     100.028  82.028  85.017  1.00  0.00    -0.252 OA
BRANCH  38  40
ATOM     40  C   UNL     1      98.564  80.830  83.488  1.00  0.00     0.158 C 
BRANCH  40  41
ATOM     41  C   UNL     1      98.788  81.556  82.188  1.00  0.00    -0.037 A 
ATOM     42  C   UNL     1      99.561  80.970  81.185  1.00  0.00     0.008 A 
ATOM     43  C   UNL     1      98.225  82.816  81.985  1.00  0.00     0.008 A 
ATOM     44  C   UNL     1      99.769  81.643  79.981  1.00  0.00     0.046 A 
ATOM     45  C   UNL     1      98.433  83.489  80.781  1.00  0.00     0.046 A 
ATOM     46  C   UNL     1      99.205  82.903  79.779  1.00  0.00     0.115 A 
BRANCH  46  47
ATOM     47  O   UNL     1      99.409  83.560  78.605  1.00  0.00    -0.508 OA
ATOM     48  H   UNL     1     100.365  83.598  78.427  1.00  0.00     0.293 HD
ENDBRANCH  46  47
ENDBRANCH  40  41
ENDBRANCH  38  40
ENDBRANCH  37  38
ENDBRANCH   1  37
TORSDOF 10
ENDMDL
MODEL 7
REMARK VINA RESULT:    -6.506     27.744     31.724
REMARK INTER + INTRA:         -11.603
REMARK INTER:                  -9.199
REMARK INTRA:                  -2.404
REMARK UNBOUND:                -0.532
REMARK SMILES C=C(C)[C@]12C[C@@H](C)[C@@]34O[C@](Cc5ccccc5)(O[C@@H]1[C@@H]3C=C(COC(=O)Cc1ccc(O)cc1)C[C@]1(O)C(=O)C(C)=C[C@@H]41)O2
REMARK SMILES IDX 23 1 22 2 21 3 20 4 9 5 8 6 10 7 6 8 18 10 44 11 19 12 5 13
REMARK SMILES IDX 7 14 4 15 11 16 12 17 13 18 17 19 14 20 16 21 15 22 2 23
REMARK SMILES IDX 3 24 1 25 35 26 36 27 43 28 38 29 42 30 39 32 40 33 41 34
REMARK SMILES IDX 37 35 24 37 25 38 26 39 27 40 28 41 29 42 34 43 30 44 33 45
REMARK SMILES IDX 31 46 32 47
REMARK H PARENT 37 36 32 48
REMARK Flexibility Score: 90.00
ROOT
ATOM      1  C   UNL     1      66.674  88.436  72.273  1.00  0.00     0.264 C 
ENDROOT
BRANCH   1   2
ATOM      2  C   UNL     1      66.607  86.938  72.085  1.00  0.00    -0.033 C 
ATOM      3  C   UNL     1      65.434  86.301  72.277  1.00  0.00    -0.015 C 
BRANCH   3   4
ATOM      4  C   UNL     1      65.123  84.814  72.227  1.00  0.00     0.078 C 
ATOM      5  O   UNL     1      64.393  84.308  69.919  1.00  0.00    -0.319 OA
ATOM      6  C   UNL     1      65.438  84.028  70.901  1.00  0.00     0.095 CG0
ATOM      7  C   UNL     1      63.048  84.310  70.435  1.00  0.00     0.289 C 
ATOM      8  C   UNL     1      65.431  82.482  71.247  1.00  0.00     0.023 C 
ATOM      9  G   UNL     1      66.744  84.559  70.240  1.00  0.00     0.000 G0
ATOM     10  O   UNL     1      62.900  85.254  71.492  1.00  0.00    -0.320 OA
ATOM     11  O   UNL     1      62.678  83.049  70.989  1.00  0.00    -0.313 OA
ATOM     12  C   UNL     1      63.623  84.579  72.534  1.00  0.00     0.170 C 
ATOM     13  C   UNL     1      64.398  82.151  72.367  1.00  0.00     0.049 C 
ATOM     14  C   UNL     1      65.207  81.538  70.053  1.00  0.00     0.011 C 
ATOM     15  C   UNL     1      63.201  83.103  72.333  1.00  0.00     0.122 C 
BRANCH   7  16
ATOM     16  C   UNL     1      62.105  84.658  69.300  1.00  0.00     0.135 C 
BRANCH  16  17
ATOM     17  C   UNL     1      60.890  85.410  69.785  1.00  0.00    -0.040 A 
ATOM     18  C   UNL     1      60.805  86.790  69.603  1.00  0.00     0.004 A 
ATOM     19  C   UNL     1      59.852  84.724  70.414  1.00  0.00     0.004 A 
ATOM     20  C   UNL     1      59.681  87.485  70.050  1.00  0.00     0.000 A 
ATOM     21  C   UNL     1      58.728  85.419  70.862  1.00  0.00     0.000 A 
ATOM     22  C   UNL     1      58.643  86.799  70.680  1.00  0.00     0.000 A 
ENDBRANCH  16  17
ENDBRANCH   7  16
BRANCH  15  23
ATOM     23  C   UNL     1      62.117  82.696  73.276  1.00  0.00    -0.046 C 
ATOM     24  C   UNL     1      62.198  81.298  73.814  1.00  0.00     0.042 C 
ATOM     25  C   UNL     1      61.126  83.532  73.622  1.00  0.00     0.010 C 
ENDBRANCH  15  23
ENDBRANCH   3   4
BRANCH   2  26
ATOM     26  C   UNL     1      67.936  86.329  71.678  1.00  0.00     0.078 C 
BRANCH  26  27
ATOM     27  C   UNL     1      67.924  84.874  71.214  1.00  0.00     0.140 C 
ATOM     28  C   UNL     1      66.752  84.577  70.256  1.00  0.00     0.086 CG0
ATOM     29  C   UNL     1      69.131  84.525  70.369  1.00  0.00     0.190 C 
ATOM     30  C   UNL     1      67.397  83.799  69.143  1.00  0.00    -0.010 C 
ATOM     31  G   UNL     1      65.450  84.032  70.913  1.00  0.00     0.000 G0
ATOM     32  O   UNL     1      70.292  84.776  70.654  1.00  0.00    -0.291 OA
ATOM     33  C   UNL     1      68.733  83.775  69.162  1.00  0.00    -0.008 C 
ATOM     34  C   UNL     1      69.688  83.188  68.199  1.00  0.00     0.048 C 
BRANCH  27  35
ATOM     35  O   UNL     1      68.008  83.979  72.310  1.00  0.00    -0.381 OA
ATOM     36  H   UNL     1      67.115  83.856  72.675  1.00  0.00     0.212 HD
ENDBRANCH  27  35
ENDBRANCH  26  27
ENDBRANCH   2  26
ENDBRANCH   1   2
BRANCH   1  37
ATOM     37  O   UNL     1      65.365  88.964  72.284  1.00  0.00    -0.461 OA
BRANCH  37  38
ATOM     38  C   UNL     1      65.059  89.851  71.277  1.00  0.00     0.310 C 
ATOM     39  O   UNL     1      65.689  90.868  71.023  1.00  0.00    -0.252 OA
BRANCH  38  40
ATOM     40  C   UNL     1      63.831  89.374  70.541  1.00  0.00     0.158 C 
BRANCH  40  41
ATOM     41  C   UNL     1      64.145  88.797  69.185  1.00  0.00    -0.037 A 
ATOM     42  C   UNL     1      63.958  89.568  68.038  1.00  0.00     0.008 A 
ATOM     43  C   UNL     1      64.623  87.491  69.077  1.00  0.00     0.008 A 
ATOM     44  C   UNL     1      64.248  89.033  66.783  1.00  0.00     0.046 A 
ATOM     45  C   UNL     1      64.914  86.956  67.821  1.00  0.00     0.046 A 
ATOM     46  C   UNL     1      64.726  87.726  66.675  1.00  0.00     0.115 A 
BRANCH  46  47
ATOM     47  O   UNL     1      65.009  87.205  65.450  1.00  0.00    -0.508 OA
ATOM     48  H   UNL     1      64.233  86.714  65.129  1.00  0.00     0.293 HD
ENDBRANCH  46  47
ENDBRANCH  40  41
ENDBRANCH  38  40
ENDBRANCH  37  38
ENDBRANCH   1  37
TORSDOF 10
ENDMDL
MODEL 8
REMARK VINA RESULT:    -6.502     27.321     31.021
REMARK INTER + INTRA:         -11.595
REMARK INTER:                 -10.697
REMARK INTRA:                  -0.898
REMARK UNBOUND:                -0.532
REMARK SMILES C=C(C)[C@]12C[C@@H](C)[C@@]34O[C@](Cc5ccccc5)(O[C@@H]1[C@@H]3C=C(COC(=O)Cc1ccc(O)cc1)C[C@]1(O)C(=O)C(C)=C[C@@H]41)O2
REMARK SMILES IDX 23 1 22 2 21 3 20 4 9 5 8 6 10 7 6 8 18 10 44 11 19 12 5 13
REMARK SMILES IDX 7 14 4 15 11 16 12 17 13 18 17 19 14 20 16 21 15 22 2 23
REMARK SMILES IDX 3 24 1 25 35 26 36 27 43 28 38 29 42 30 39 32 40 33 41 34
REMARK SMILES IDX 37 35 24 37 25 38 26 39 27 40 28 41 29 42 34 43 30 44 33 45
REMARK SMILES IDX 31 46 32 47
REMARK H PARENT 37 36 32 48
REMARK Flexibility Score: 90.00
ROOT
ATOM      1  C   UNL     1      67.453  88.316  73.099  1.00  0.00     0.264 C 
ENDROOT
BRANCH   1   2
ATOM      2  C   UNL     1      67.224  86.914  72.583  1.00  0.00    -0.033 C 
ATOM      3  C   UNL     1      66.035  86.316  72.804  1.00  0.00    -0.015 C 
BRANCH   3   4
ATOM      4  C   UNL     1      65.586  84.905  72.461  1.00  0.00     0.078 C 
ATOM      5  O   UNL     1      64.507  85.013  70.238  1.00  0.00    -0.319 OA
ATOM      6  C   UNL     1      65.646  84.445  70.957  1.00  0.00     0.095 CG0
ATOM      7  C   UNL     1      63.250  84.967  70.940  1.00  0.00     0.289 C 
ATOM      8  C   UNL     1      65.544  82.865  70.935  1.00  0.00     0.023 C 
ATOM      9  G   UNL     1      66.893  85.045  70.245  1.00  0.00     0.000 G0
ATOM     10  O   UNL     1      63.334  85.634  72.196  1.00  0.00    -0.320 OA
ATOM     11  O   UNL     1      62.845  83.633  71.239  1.00  0.00    -0.313 OA
ATOM     12  C   UNL     1      64.126  84.688  72.931  1.00  0.00     0.170 C 
ATOM     13  C   UNL     1      64.646  82.332  72.093  1.00  0.00     0.049 C 
ATOM     14  C   UNL     1      65.076  82.251  69.604  1.00  0.00     0.011 C 
ATOM     15  C   UNL     1      63.548  83.331  72.462  1.00  0.00     0.122 C 
BRANCH   7  16
ATOM     16  C   UNL     1      62.198  85.631  70.075  1.00  0.00     0.135 C 
BRANCH  16  17
ATOM     17  C   UNL     1      60.805  85.419  70.613  1.00  0.00    -0.040 A 
ATOM     18  C   UNL     1      59.948  84.511  69.992  1.00  0.00     0.004 A 
ATOM     19  C   UNL     1      60.375  86.130  71.732  1.00  0.00     0.004 A 
ATOM     20  C   UNL     1      58.660  84.314  70.490  1.00  0.00     0.000 A 
ATOM     21  C   UNL     1      59.087  85.934  72.231  1.00  0.00     0.000 A 
ATOM     22  C   UNL     1      58.230  85.026  71.610  1.00  0.00     0.000 A 
ENDBRANCH  16  17
ENDBRANCH   7  16
BRANCH  15  23
ATOM     23  C   UNL     1      62.568  82.770  73.441  1.00  0.00    -0.046 C 
ATOM     24  C   UNL     1      62.651  81.293  73.688  1.00  0.00     0.042 C 
ATOM     25  C   UNL     1      61.665  83.543  74.063  1.00  0.00     0.010 C 
ENDBRANCH  15  23
ENDBRANCH   3   4
BRANCH   2  26
ATOM     26  C   UNL     1      68.422  86.349  71.842  1.00  0.00     0.078 C 
BRANCH  26  27
ATOM     27  C   UNL     1      68.218  85.041  71.080  1.00  0.00     0.140 C 
ATOM     28  C   UNL     1      66.911  85.041  70.260  1.00  0.00     0.086 CG0
ATOM     29  C   UNL     1      69.271  84.820  70.015  1.00  0.00     0.190 C 
ATOM     30  C   UNL     1      67.337  84.499  68.924  1.00  0.00    -0.010 C 
ATOM     31  G   UNL     1      65.659  84.441  70.963  1.00  0.00     0.000 G0
ATOM     32  O   UNL     1      70.477  84.929  70.179  1.00  0.00    -0.291 OA
ATOM     33  C   UNL     1      68.657  84.390  68.745  1.00  0.00    -0.008 C 
ATOM     34  C   UNL     1      69.424  83.980  67.551  1.00  0.00     0.048 C 
BRANCH  27  35
ATOM     35  O   UNL     1      68.358  83.917  71.933  1.00  0.00    -0.381 OA
ATOM     36  H   UNL     1      67.645  83.942  72.593  1.00  0.00     0.212 HD
ENDBRANCH  27  35
ENDBRANCH  26  27
ENDBRANCH   2  26
ENDBRANCH   1   2
BRANCH   1  37
ATOM     37  O   UNL     1      66.214  88.888  73.461  1.00  0.00    -0.461 OA
BRANCH  37  38
ATOM     38  C   UNL     1      65.832  88.731  74.773  1.00  0.00     0.310 C 
ATOM     39  O   UNL     1      64.679  88.775  75.179  1.00  0.00    -0.252 OA
BRANCH  38  40
ATOM     40  C   UNL     1      67.054  88.497  75.629  1.00  0.00     0.158 C 
BRANCH  40  41
ATOM     41  C   UNL     1      66.864  87.391  76.634  1.00  0.00    -0.037 A 
ATOM     42  C   UNL     1      67.044  86.061  76.250  1.00  0.00     0.008 A 
ATOM     43  C   UNL     1      66.509  87.695  77.948  1.00  0.00     0.008 A 
ATOM     44  C   UNL     1      66.868  85.037  77.181  1.00  0.00     0.046 A 
ATOM     45  C   UNL     1      66.333  86.670  78.879  1.00  0.00     0.046 A 
ATOM     46  C   UNL     1      66.512  85.342  78.495  1.00  0.00     0.115 A 
BRANCH  46  47
ATOM     47  O   UNL     1      66.340  84.342  79.402  1.00  0.00    -0.508 OA
ATOM     48  H   UNL     1      67.103  84.329  80.006  1.00  0.00     0.293 HD
ENDBRANCH  46  47
ENDBRANCH  40  41
ENDBRANCH  38  40
ENDBRANCH  37  38
ENDBRANCH   1  37
TORSDOF 10
ENDMDL
MODEL 9
REMARK VINA RESULT:    -6.036     18.085     23.393
REMARK INTER + INTRA:         -10.802
REMARK INTER:                  -9.533
REMARK INTRA:                  -1.270
REMARK UNBOUND:                -0.532
REMARK SMILES C=C(C)[C@]12C[C@@H](C)[C@@]34O[C@](Cc5ccccc5)(O[C@@H]1[C@@H]3C=C(COC(=O)Cc1ccc(O)cc1)C[C@]1(O)C(=O)C(C)=C[C@@H]41)O2
REMARK SMILES IDX 23 1 22 2 21 3 20 4 9 5 8 6 10 7 6 8 18 10 44 11 19 12 5 13
REMARK SMILES IDX 7 14 4 15 11 16 12 17 13 18 17 19 14 20 16 21 15 22 2 23
REMARK SMILES IDX 3 24 1 25 35 26 36 27 43 28 38 29 42 30 39 32 40 33 41 34
REMARK SMILES IDX 37 35 24 37 25 38 26 39 27 40 28 41 29 42 34 43 30 44 33 45
REMARK SMILES IDX 31 46 32 47
REMARK H PARENT 37 36 32 48
REMARK Flexibility Score: 90.00
ROOT
ATOM      1  C   UNL     1     105.024  81.707  77.711  1.00  0.00     0.264 C 
ENDROOT
BRANCH   1   2
ATOM      2  C   UNL     1     104.312  80.880  78.757  1.00  0.00    -0.033 C 
ATOM      3  C   UNL     1     103.171  81.348  79.303  1.00  0.00    -0.015 C 
BRANCH   3   4
ATOM      4  C   UNL     1     102.317  80.754  80.412  1.00  0.00     0.078 C 
ATOM      5  O   UNL     1     100.560  79.398  79.320  1.00  0.00    -0.319 OA
ATOM      6  C   UNL     1     101.720  79.313  80.206  1.00  0.00     0.095 CG0
ATOM      7  C   UNL     1      99.670  80.501  79.576  1.00  0.00     0.289 C 
ATOM      8  C   UNL     1     101.257  78.779  81.624  1.00  0.00     0.023 C 
ATOM      9  G   UNL     1     102.725  78.402  79.443  1.00  0.00     0.000 G0
ATOM     10  O   UNL     1     100.354  81.748  79.499  1.00  0.00    -0.320 OA
ATOM     11  O   UNL     1      99.107  80.451  80.885  1.00  0.00    -0.313 OA
ATOM     12  C   UNL     1     101.120  81.690  80.713  1.00  0.00     0.170 C 
ATOM     13  C   UNL     1     100.745  79.938  82.533  1.00  0.00     0.049 C 
ATOM     14  C   UNL     1     100.210  77.652  81.597  1.00  0.00     0.011 C 
ATOM     15  C   UNL     1     100.117  81.065  81.713  1.00  0.00     0.122 C 
BRANCH   7  16
ATOM     16  C   UNL     1      98.557  80.462  78.547  1.00  0.00     0.135 C 
BRANCH  16  17
ATOM     17  C   UNL     1      98.298  81.819  77.942  1.00  0.00    -0.040 A 
ATOM     18  C   UNL     1      97.670  82.810  78.695  1.00  0.00     0.004 A 
ATOM     19  C   UNL     1      98.686  82.081  76.628  1.00  0.00     0.004 A 
ATOM     20  C   UNL     1      97.431  84.066  78.135  1.00  0.00     0.000 A 
ATOM     21  C   UNL     1      98.446  83.336  76.068  1.00  0.00     0.000 A 
ATOM     22  C   UNL     1      97.819  84.328  76.821  1.00  0.00     0.000 A 
ENDBRANCH  16  17
ENDBRANCH   7  16
BRANCH  15  23
ATOM     23  C   UNL     1      99.459  82.099  82.567  1.00  0.00    -0.046 C 
ATOM     24  C   UNL     1      99.490  81.852  84.047  1.00  0.00     0.042 C 
ATOM     25  C   UNL     1      98.873  83.185  82.043  1.00  0.00     0.010 C 
ENDBRANCH  15  23
ENDBRANCH   3   4
BRANCH   2  26
ATOM     26  C   UNL     1     105.012  79.568  79.056  1.00  0.00     0.078 C 
BRANCH  26  27
ATOM     27  C   UNL     1     104.241  78.537  79.878  1.00  0.00     0.140 C 
ATOM     28  C   UNL     1     102.768  78.422  79.436  1.00  0.00     0.086 CG0
ATOM     29  C   UNL     1     104.754  77.128  79.670  1.00  0.00     0.190 C 
ATOM     30  C   UNL     1     102.541  76.937  79.358  1.00  0.00    -0.010 C 
ATOM     31  G   UNL     1     101.749  79.310  80.208  1.00  0.00     0.000 G0
ATOM     32  O   UNL     1     105.927  76.787  79.718  1.00  0.00    -0.291 OA
ATOM     33  C   UNL     1     103.640  76.185  79.457  1.00  0.00    -0.008 C 
ATOM     34  C   UNL     1     103.804  74.720  79.345  1.00  0.00     0.048 C 
BRANCH  27  35
ATOM     35  O   UNL     1     104.406  78.755  81.269  1.00  0.00    -0.381 OA
ATOM     36  H   UNL     1     103.865  79.521  81.526  1.00  0.00     0.212 HD
ENDBRANCH  27  35
ENDBRANCH  26  27
ENDBRANCH   2  26
ENDBRANCH   1   2
BRANCH   1  37
ATOM     37  O   UNL     1     104.076  82.230  76.805  1.00  0.00    -0.461 OA
BRANCH  37  38
ATOM     38  C   UNL     1     103.989  81.599  75.585  1.00  0.00     0.310 C 
ATOM     39  O   UNL     1     104.901  80.991  75.043  1.00  0.00    -0.252 OA
BRANCH  38  40
ATOM     40  C   UNL     1     102.598  81.774  75.025  1.00  0.00     0.158 C 
BRANCH  40  41
ATOM     41  C   UNL     1     102.415  83.084  74.305  1.00  0.00    -0.037 A 
ATOM     42  C   UNL     1     101.798  84.156  74.952  1.00  0.00     0.008 A 
ATOM     43  C   UNL     1     102.861  83.227  72.992  1.00  0.00     0.008 A 
ATOM     44  C   UNL     1     101.627  85.369  74.285  1.00  0.00     0.046 A 
ATOM     45  C   UNL     1     102.691  84.441  72.324  1.00  0.00     0.046 A 
ATOM     46  C   UNL     1     102.074  85.511  72.971  1.00  0.00     0.115 A 
BRANCH  46  47
ATOM     47  O   UNL     1     101.908  86.695  72.320  1.00  0.00    -0.508 OA
ATOM     48  H   UNL     1     102.737  87.202  72.370  1.00  0.00     0.293 HD
ENDBRANCH  46  47
ENDBRANCH  40  41
ENDBRANCH  38  40
ENDBRANCH  37  38
ENDBRANCH   1  37
TORSDOF 10
ENDMDL
MODEL 10
REMARK VINA RESULT:    -5.978     15.786     19.701
REMARK INTER + INTRA:         -10.705
REMARK INTER:                  -9.960
REMARK INTRA:                  -0.744
REMARK UNBOUND:                -0.532
REMARK SMILES C=C(C)[C@]12C[C@@H](C)[C@@]34O[C@](Cc5ccccc5)(O[C@@H]1[C@@H]3C=C(COC(=O)Cc1ccc(O)cc1)C[C@]1(O)C(=O)C(C)=C[C@@H]41)O2
REMARK SMILES IDX 23 1 22 2 21 3 20 4 9 5 8 6 10 7 6 8 18 10 44 11 19 12 5 13
REMARK SMILES IDX 7 14 4 15 11 16 12 17 13 18 17 19 14 20 16 21 15 22 2 23
REMARK SMILES IDX 3 24 1 25 35 26 36 27 43 28 38 29 42 30 39 32 40 33 41 34
REMARK SMILES IDX 37 35 24 37 25 38 26 39 27 40 28 41 29 42 34 43 30 44 33 45
REMARK SMILES IDX 31 46 32 47
REMARK H PARENT 37 36 32 48
REMARK Flexibility Score: 90.00
ROOT
ATOM      1  C   UNL     1      75.239  90.451  66.544  1.00  0.00     0.264 C 
ENDROOT
BRANCH   1   2
ATOM      2  C   UNL     1      74.768  91.527  67.494  1.00  0.00    -0.033 C 
ATOM      3  C   UNL     1      74.718  91.263  68.816  1.00  0.00    -0.015 C 
BRANCH   3   4
ATOM      4  C   UNL     1      74.217  92.135  69.956  1.00  0.00     0.078 C 
ATOM      5  O   UNL     1      76.171  93.373  70.830  1.00  0.00    -0.319 OA
ATOM      6  C   UNL     1      74.880  93.546  70.167  1.00  0.00     0.095 CG0
ATOM      7  C   UNL     1      76.186  92.418  71.909  1.00  0.00     0.289 C 
ATOM      8  C   UNL     1      73.921  94.392  71.102  1.00  0.00     0.023 C 
ATOM      9  G   UNL     1      75.231  94.202  68.800  1.00  0.00     0.000 G0
ATOM     10  O   UNL     1      75.760  91.132  71.467  1.00  0.00    -0.320 OA
ATOM     11  O   UNL     1      75.297  92.777  72.963  1.00  0.00    -0.313 OA
ATOM     12  C   UNL     1      74.355  91.376  71.299  1.00  0.00     0.170 C 
ATOM     13  C   UNL     1      73.182  93.486  72.134  1.00  0.00     0.049 C 
ATOM     14  C   UNL     1      74.584  95.568  71.839  1.00  0.00     0.011 C 
ATOM     15  C   UNL     1      74.022  92.268  72.521  1.00  0.00     0.122 C 
BRANCH   7  16
ATOM     16  C   UNL     1      77.600  92.333  72.448  1.00  0.00     0.135 C 
BRANCH  16  17
ATOM     17  C   UNL     1      77.837  93.311  73.572  1.00  0.00    -0.040 A 
ATOM     18  C   UNL     1      77.703  92.898  74.897  1.00  0.00     0.004 A 
ATOM     19  C   UNL     1      78.191  94.629  73.284  1.00  0.00     0.004 A 
ATOM     20  C   UNL     1      77.923  93.803  75.936  1.00  0.00     0.000 A 
ATOM     21  C   UNL     1      78.411  95.534  74.323  1.00  0.00     0.000 A 
ATOM     22  C   UNL     1      78.276  95.121  75.648  1.00  0.00     0.000 A 
ENDBRANCH  16  17
ENDBRANCH   7  16
BRANCH  15  23
ATOM     23  C   UNL     1      73.415  91.484  73.639  1.00  0.00    -0.046 C 
ATOM     24  C   UNL     1      73.601  92.045  75.017  1.00  0.00     0.042 C 
ATOM     25  C   UNL     1      72.742  90.344  73.422  1.00  0.00     0.010 C 
ENDBRANCH  15  23
ENDBRANCH   3   4
BRANCH   2  26
ATOM     26  C   UNL     1      74.406  92.823  66.794  1.00  0.00     0.078 C 
BRANCH  26  27
ATOM     27  C   UNL     1      74.150  94.045  67.675  1.00  0.00     0.140 C 
ATOM     28  C   UNL     1      75.211  94.197  68.784  1.00  0.00     0.086 CG0
ATOM     29  C   UNL     1      74.286  95.347  66.914  1.00  0.00     0.190 C 
ATOM     30  C   UNL     1      75.570  95.656  68.728  1.00  0.00    -0.010 C 
ATOM     31  G   UNL     1      74.866  93.548  70.156  1.00  0.00     0.000 G0
ATOM     32  O   UNL     1      73.766  95.595  65.837  1.00  0.00    -0.291 OA
ATOM     33  C   UNL     1      75.089  96.323  67.675  1.00  0.00    -0.008 C 
ATOM     34  C   UNL     1      75.302  97.724  67.258  1.00  0.00     0.048 C 
BRANCH  27  35
ATOM     35  O   UNL     1      72.815  94.069  68.152  1.00  0.00    -0.381 OA
ATOM     36  H   UNL     1      72.247  94.440  67.455  1.00  0.00     0.212 HD
ENDBRANCH  27  35
ENDBRANCH  26  27
ENDBRANCH   2  26
ENDBRANCH   1   2
BRANCH   1  37
ATOM     37  O   UNL     1      75.370  89.233  67.246  1.00  0.00    -0.461 OA
BRANCH  37  38
ATOM     38  C   UNL     1      74.817  88.124  66.647  1.00  0.00     0.310 C 
ATOM     39  O   UNL     1      73.637  88.001  66.351  1.00  0.00    -0.252 OA
BRANCH  38  40
ATOM     40  C   UNL     1      75.892  87.090  66.414  1.00  0.00     0.158 C 
BRANCH  40  41
ATOM     41  C   UNL     1      76.344  86.415  67.684  1.00  0.00    -0.037 A 
ATOM     42  C   UNL     1      77.490  86.863  68.341  1.00  0.00     0.008 A 
ATOM     43  C   UNL     1      75.617  85.344  68.201  1.00  0.00     0.008 A 
ATOM     44  C   UNL     1      77.909  86.238  69.516  1.00  0.00     0.046 A 
ATOM     45  C   UNL     1      76.036  84.719  69.377  1.00  0.00     0.046 A 
ATOM     46  C   UNL     1      77.181  85.166  70.034  1.00  0.00     0.115 A 
BRANCH  46  47
ATOM     47  O   UNL     1      77.590  84.556  71.180  1.00  0.00    -0.508 OA
ATOM     48  H   UNL     1      77.136  83.700  71.261  1.00  0.00     0.293 HD
ENDBRANCH  46  47
ENDBRANCH  40  41
ENDBRANCH  38  40
ENDBRANCH  37  38
ENDBRANCH   1  37
TORSDOF 10
ENDMDL
