MODEL 1
REMARK VINA RESULT:    -7.378      0.000      0.000
REMARK INTER + INTRA:          -8.994
REMARK INTER:                  -8.672
REMARK INTRA:                  -0.323
REMARK UNBOUND:                -0.323
REMARK SMILES O=C(/C=C/C=C/c1ccc2c(c1)OCO2)N1CCCCC1
REMARK SMILES IDX 3 1 4 2 2 3 1 4 16 5 17 6 21 7 18 8 20 9 19 10 5 11 6 12
REMARK SMILES IDX 7 13 12 14 8 15 11 16 9 17 13 18 10 19 14 20 15 21
REMARK H PARENT
REMARK Flexibility Score: inf
ROOT
ATOM      1  C   UNL     1      95.742  96.302  73.081  1.00  0.00     0.071 C 
ATOM      2  C   UNL     1      95.235  96.244  74.311  1.00  0.00     0.006 C 
ENDROOT
BRANCH   1   3
ATOM      3  C   UNL     1      96.720  97.368  72.783  1.00  0.00     0.246 C 
ATOM      4  O   UNL     1      97.513  97.677  73.672  1.00  0.00    -0.270 OA
ATOM      5  N   UNL     1      96.675  97.955  71.519  1.00  0.00    -0.339 N 
ATOM      6  C   UNL     1      97.630  99.020  71.196  1.00  0.00     0.120 C 
ATOM      7  C   UNL     1      95.715  97.644  70.450  1.00  0.00     0.120 C 
ATOM      8  C   UNL     1      98.382  98.720  69.903  1.00  0.00     0.022 C 
ATOM      9  C   UNL     1      96.432  97.341  69.134  1.00  0.00     0.022 C 
ATOM     10  C   UNL     1      97.412  98.449  68.758  1.00  0.00     0.004 C 
ENDBRANCH   1   3
BRANCH   2  11
ATOM     11  C   UNL     1      94.271  95.236  74.698  1.00  0.00     0.001 C 
ATOM     12  C   UNL     1      93.302  95.465  75.599  1.00  0.00     0.008 C 
BRANCH  12  13
ATOM     13  C   UNL     1      92.302  94.476  76.035  1.00  0.00    -0.022 A 
ATOM     14  C   UNL     1      92.294  93.219  75.445  1.00  0.00     0.058 A 
ATOM     15  C   UNL     1      91.389  94.829  77.031  1.00  0.00     0.012 A 
ATOM     16  C   UNL     1      91.339  92.326  75.887  1.00  0.00     0.166 A 
ATOM     17  C   UNL     1      90.432  93.906  77.459  1.00  0.00     0.051 A 
ATOM     18  O   UNL     1      91.167  91.053  75.435  1.00  0.00    -0.454 OA
ATOM     19  C   UNL     1      90.433  92.660  76.867  1.00  0.00     0.165 A 
ATOM     20  C   UNL     1      90.052  90.624  76.242  1.00  0.00     0.468 C 
ATOM     21  O   UNL     1      89.580  91.639  77.153  1.00  0.00    -0.454 OA
ENDBRANCH  12  13
ENDBRANCH   2  11
TORSDOF 3
ENDMDL
MODEL 2
REMARK VINA RESULT:    -7.214     13.873     15.476
REMARK INTER + INTRA:          -8.802
REMARK INTER:                  -8.414
REMARK INTRA:                  -0.388
REMARK UNBOUND:                -0.323
REMARK SMILES O=C(/C=C/C=C/c1ccc2c(c1)OCO2)N1CCCCC1
REMARK SMILES IDX 3 1 4 2 2 3 1 4 16 5 17 6 21 7 18 8 20 9 19 10 5 11 6 12
REMARK SMILES IDX 7 13 12 14 8 15 11 16 9 17 13 18 10 19 14 20 15 21
REMARK H PARENT
REMARK Flexibility Score: inf
ROOT
ATOM      1  C   UNL     1      97.433  80.612  78.460  1.00  0.00     0.071 C 
ATOM      2  C   UNL     1      98.112  80.861  79.578  1.00  0.00     0.006 C 
ENDROOT
BRANCH   1   3
ATOM      3  C   UNL     1      98.196  80.445  77.206  1.00  0.00     0.246 C 
ATOM      4  O   UNL     1      98.917  79.451  77.108  1.00  0.00    -0.270 OA
ATOM      5  N   UNL     1      98.052  81.422  76.223  1.00  0.00    -0.339 N 
ATOM      6  C   UNL     1      98.801  81.285  74.970  1.00  0.00     0.120 C 
ATOM      7  C   UNL     1      97.237  82.642  76.322  1.00  0.00     0.120 C 
ATOM      8  C   UNL     1      97.882  81.387  73.758  1.00  0.00     0.022 C 
ATOM      9  C   UNL     1      96.303  82.782  75.120  1.00  0.00     0.022 C 
ATOM     10  C   UNL     1      97.061  82.672  73.801  1.00  0.00     0.004 C 
ENDBRANCH   1   3
BRANCH   2  11
ATOM     11  C   UNL     1      97.453  81.041  80.854  1.00  0.00     0.001 C 
ATOM     12  C   UNL     1      96.903  82.207  81.230  1.00  0.00     0.008 C 
BRANCH  12  13
ATOM     13  C   UNL     1      96.230  82.447  82.517  1.00  0.00    -0.022 A 
ATOM     14  C   UNL     1      96.109  83.748  82.985  1.00  0.00     0.058 A 
ATOM     15  C   UNL     1      95.730  81.356  83.234  1.00  0.00     0.012 A 
ATOM     16  C   UNL     1      95.470  83.922  84.195  1.00  0.00     0.166 A 
ATOM     17  C   UNL     1      95.087  81.561  84.457  1.00  0.00     0.051 A 
ATOM     18  O   UNL     1      95.254  85.112  84.820  1.00  0.00    -0.454 OA
ATOM     19  C   UNL     1      94.972  82.858  84.912  1.00  0.00     0.165 A 
ATOM     20  C   UNL     1      94.565  84.677  86.010  1.00  0.00     0.468 C 
ATOM     21  O   UNL     1      94.383  83.248  86.075  1.00  0.00    -0.454 OA
ENDBRANCH  12  13
ENDBRANCH   2  11
TORSDOF 3
ENDMDL
MODEL 3
REMARK VINA RESULT:    -7.176     13.193     15.518
REMARK INTER + INTRA:          -8.757
REMARK INTER:                  -8.639
REMARK INTRA:                  -0.118
REMARK UNBOUND:                -0.323
REMARK SMILES O=C(/C=C/C=C/c1ccc2c(c1)OCO2)N1CCCCC1
REMARK SMILES IDX 3 1 4 2 2 3 1 4 16 5 17 6 21 7 18 8 20 9 19 10 5 11 6 12
REMARK SMILES IDX 7 13 12 14 8 15 11 16 9 17 13 18 10 19 14 20 15 21
REMARK H PARENT
REMARK Flexibility Score: inf
ROOT
ATOM      1  C   UNL     1      96.220  82.108  77.205  1.00  0.00     0.071 C 
ATOM      2  C   UNL     1      97.198  82.142  78.109  1.00  0.00     0.006 C 
ENDROOT
BRANCH   1   3
ATOM      3  C   UNL     1      96.418  82.844  75.940  1.00  0.00     0.246 C 
ATOM      4  O   UNL     1      95.691  83.815  75.727  1.00  0.00    -0.270 OA
ATOM      5  N   UNL     1      97.409  82.388  75.071  1.00  0.00    -0.339 N 
ATOM      6  C   UNL     1      97.625  83.095  73.805  1.00  0.00     0.120 C 
ATOM      7  C   UNL     1      98.264  81.209  75.271  1.00  0.00     0.120 C 
ATOM      8  C   UNL     1      99.088  83.487  73.629  1.00  0.00     0.022 C 
ATOM      9  C   UNL     1      99.741  81.561  75.098  1.00  0.00     0.022 C 
ATOM     10  C   UNL     1     100.000  82.274  73.774  1.00  0.00     0.004 C 
ENDBRANCH   1   3
BRANCH   2  11
ATOM     11  C   UNL     1      97.096  81.453  79.378  1.00  0.00     0.001 C 
ATOM     12  C   UNL     1      96.702  82.064  80.507  1.00  0.00     0.008 C 
BRANCH  12  13
ATOM     13  C   UNL     1      96.589  81.414  81.823  1.00  0.00    -0.022 A 
ATOM     14  C   UNL     1      96.429  82.202  82.954  1.00  0.00     0.058 A 
ATOM     15  C   UNL     1      96.647  80.020  81.897  1.00  0.00     0.012 A 
ATOM     16  C   UNL     1      96.328  81.547  84.165  1.00  0.00     0.166 A 
ATOM     17  C   UNL     1      96.542  79.383  83.136  1.00  0.00     0.051 A 
ATOM     18  O   UNL     1      96.169  82.138  85.381  1.00  0.00    -0.454 OA
ATOM     19  C   UNL     1      96.383  80.175  84.254  1.00  0.00     0.165 A 
ATOM     20  C   UNL     1      96.130  80.984  86.244  1.00  0.00     0.468 C 
ATOM     21  O   UNL     1      96.265  79.735  85.536  1.00  0.00    -0.454 OA
ENDBRANCH  12  13
ENDBRANCH   2  11
TORSDOF 3
ENDMDL
MODEL 4
REMARK VINA RESULT:    -7.031     14.117     17.495
REMARK INTER + INTRA:          -8.587
REMARK INTER:                  -8.236
REMARK INTRA:                  -0.351
REMARK UNBOUND:                -0.323
REMARK SMILES O=C(/C=C/C=C/c1ccc2c(c1)OCO2)N1CCCCC1
REMARK SMILES IDX 3 1 4 2 2 3 1 4 16 5 17 6 21 7 18 8 20 9 19 10 5 11 6 12
REMARK SMILES IDX 7 13 12 14 8 15 11 16 9 17 13 18 10 19 14 20 15 21
REMARK H PARENT
REMARK Flexibility Score: inf
ROOT
ATOM      1  C   UNL     1      96.665  81.517  82.423  1.00  0.00     0.071 C 
ATOM      2  C   UNL     1      97.468  80.870  81.580  1.00  0.00     0.006 C 
ENDROOT
BRANCH   1   3
ATOM      3  C   UNL     1      96.942  81.406  83.869  1.00  0.00     0.246 C 
ATOM      4  O   UNL     1      98.097  81.612  84.245  1.00  0.00    -0.270 OA
ATOM      5  N   UNL     1      95.882  81.072  84.711  1.00  0.00    -0.339 N 
ATOM      6  C   UNL     1      96.128  80.950  86.151  1.00  0.00     0.120 C 
ATOM      7  C   UNL     1      94.503  80.776  84.295  1.00  0.00     0.120 C 
ATOM      8  C   UNL     1      95.155  81.804  86.956  1.00  0.00     0.022 C 
ATOM      9  C   UNL     1      93.495  81.611  85.084  1.00  0.00     0.022 C 
ATOM     10  C   UNL     1      93.710  81.480  86.589  1.00  0.00     0.004 C 
ENDBRANCH   1   3
BRANCH   2  11
ATOM     11  C   UNL     1      97.276  80.917  80.146  1.00  0.00     0.001 C 
ATOM     12  C   UNL     1      97.348  82.058  79.441  1.00  0.00     0.008 C 
BRANCH  12  13
ATOM     13  C   UNL     1      97.154  82.164  77.985  1.00  0.00    -0.022 A 
ATOM     14  C   UNL     1      98.154  81.710  77.136  1.00  0.00     0.058 A 
ATOM     15  C   UNL     1      95.968  82.719  77.498  1.00  0.00     0.012 A 
ATOM     16  C   UNL     1      97.926  81.830  75.780  1.00  0.00     0.166 A 
ATOM     17  C   UNL     1      95.764  82.828  76.121  1.00  0.00     0.051 A 
ATOM     18  O   UNL     1      98.779  81.447  74.790  1.00  0.00    -0.454 OA
ATOM     19  C   UNL     1      96.763  82.374  75.286  1.00  0.00     0.165 A 
ATOM     20  C   UNL     1      98.021  81.811  73.619  1.00  0.00     0.468 C 
ATOM     21  O   UNL     1      96.741  82.400  73.926  1.00  0.00    -0.454 OA
ENDBRANCH  12  13
ENDBRANCH   2  11
TORSDOF 3
ENDMDL
MODEL 5
REMARK VINA RESULT:    -6.978      4.362      5.408
REMARK INTER + INTRA:          -8.525
REMARK INTER:                  -8.174
REMARK INTRA:                  -0.351
REMARK UNBOUND:                -0.323
REMARK SMILES O=C(/C=C/C=C/c1ccc2c(c1)OCO2)N1CCCCC1
REMARK SMILES IDX 3 1 4 2 2 3 1 4 16 5 17 6 21 7 18 8 20 9 19 10 5 11 6 12
REMARK SMILES IDX 7 13 12 14 8 15 11 16 9 17 13 18 10 19 14 20 15 21
REMARK H PARENT
REMARK Flexibility Score: inf
ROOT
ATOM      1  C   UNL     1      92.650  99.328  72.325  1.00  0.00     0.071 C 
ATOM      2  C   UNL     1      93.843  98.888  72.721  1.00  0.00     0.006 C 
ENDROOT
BRANCH   1   3
ATOM      3  C   UNL     1      92.553  99.974  71.001  1.00  0.00     0.246 C 
ATOM      4  O   UNL     1      93.548 100.569  70.583  1.00  0.00    -0.270 OA
ATOM      5  N   UNL     1      91.344  99.873  70.315  1.00  0.00    -0.339 N 
ATOM      6  C   UNL     1      91.215 100.509  69.001  1.00  0.00     0.120 C 
ATOM      7  C   UNL     1      90.123  99.212  70.800  1.00  0.00     0.120 C 
ATOM      8  C   UNL     1      90.716  99.523  67.951  1.00  0.00     0.022 C 
ATOM      9  C   UNL     1      89.588  98.216  69.772  1.00  0.00     0.022 C 
ATOM     10  C   UNL     1      89.417  98.859  68.399  1.00  0.00     0.004 C 
ENDBRANCH   1   3
BRANCH   2  11
ATOM     11  C   UNL     1      94.038  98.242  74.002  1.00  0.00     0.001 C 
ATOM     12  C   UNL     1      93.685  96.968  74.234  1.00  0.00     0.008 C 
BRANCH  12  13
ATOM     13  C   UNL     1      93.853  96.265  75.517  1.00  0.00    -0.022 A 
ATOM     14  C   UNL     1      95.135  95.992  75.975  1.00  0.00     0.058 A 
ATOM     15  C   UNL     1      92.717  95.893  76.240  1.00  0.00     0.012 A 
ATOM     16  C   UNL     1      95.241  95.333  77.183  1.00  0.00     0.166 A 
ATOM     17  C   UNL     1      92.853  95.226  77.459  1.00  0.00     0.051 A 
ATOM     18  O   UNL     1      96.402  94.975  77.797  1.00  0.00    -0.454 OA
ATOM     19  C   UNL     1      94.131  94.960  77.905  1.00  0.00     0.165 A 
ATOM     20  C   UNL     1      95.897  94.336  78.987  1.00  0.00     0.468 C 
ATOM     21  O   UNL     1      94.457  94.322  79.063  1.00  0.00    -0.454 OA
ENDBRANCH  12  13
ENDBRANCH   2  11
TORSDOF 3
ENDMDL
MODEL 6
REMARK VINA RESULT:    -6.716     15.209     16.288
REMARK INTER + INTRA:          -8.216
REMARK INTER:                  -7.826
REMARK INTRA:                  -0.390
REMARK UNBOUND:                -0.323
REMARK SMILES O=C(/C=C/C=C/c1ccc2c(c1)OCO2)N1CCCCC1
REMARK SMILES IDX 3 1 4 2 2 3 1 4 16 5 17 6 21 7 18 8 20 9 19 10 5 11 6 12
REMARK SMILES IDX 7 13 12 14 8 15 11 16 9 17 13 18 10 19 14 20 15 21
REMARK H PARENT
REMARK Flexibility Score: inf
ROOT
ATOM      1  C   UNL     1      97.663  80.958  77.337  1.00  0.00     0.071 C 
ATOM      2  C   UNL     1      97.753  82.017  78.139  1.00  0.00     0.006 C 
ENDROOT
BRANCH   1   3
ATOM      3  C   UNL     1      98.444  80.968  76.084  1.00  0.00     0.246 C 
ATOM      4  O   UNL     1      97.993  81.617  75.139  1.00  0.00    -0.270 OA
ATOM      5  N   UNL     1      99.632  80.240  76.052  1.00  0.00    -0.339 N 
ATOM      6  C   UNL     1     100.425  80.226  74.820  1.00  0.00     0.120 C 
ATOM      7  C   UNL     1     100.177  79.418  77.143  1.00  0.00     0.120 C 
ATOM      8  C   UNL     1     101.874  80.623  75.085  1.00  0.00     0.022 C 
ATOM      9  C   UNL     1     101.632  79.784  77.438  1.00  0.00     0.022 C 
ATOM     10  C   UNL     1     102.488  79.751  76.175  1.00  0.00     0.004 C 
ENDBRANCH   1   3
BRANCH   2  11
ATOM     11  C   UNL     1      97.026  82.100  79.389  1.00  0.00     0.001 C 
ATOM     12  C   UNL     1      97.389  81.418  80.487  1.00  0.00     0.008 C 
BRANCH  12  13
ATOM     13  C   UNL     1      96.683  81.459  81.778  1.00  0.00    -0.022 A 
ATOM     14  C   UNL     1      96.421  82.689  82.366  1.00  0.00     0.058 A 
ATOM     15  C   UNL     1      96.296  80.258  82.377  1.00  0.00     0.012 A 
ATOM     16  C   UNL     1      95.756  82.676  83.575  1.00  0.00     0.166 A 
ATOM     17  C   UNL     1      95.624  80.274  83.602  1.00  0.00     0.051 A 
ATOM     18  O   UNL     1      95.410  83.771  84.307  1.00  0.00    -0.454 OA
ATOM     19  C   UNL     1      95.369  81.501  84.177  1.00  0.00     0.165 A 
ATOM     20  C   UNL     1      94.760  83.152  85.436  1.00  0.00     0.468 C 
ATOM     21  O   UNL     1      94.731  81.712  85.361  1.00  0.00    -0.454 OA
ENDBRANCH  12  13
ENDBRANCH   2  11
TORSDOF 3
ENDMDL
MODEL 7
REMARK VINA RESULT:    -6.665     14.433     17.942
REMARK INTER + INTRA:          -8.157
REMARK INTER:                  -7.827
REMARK INTRA:                  -0.329
REMARK UNBOUND:                -0.323
REMARK SMILES O=C(/C=C/C=C/c1ccc2c(c1)OCO2)N1CCCCC1
REMARK SMILES IDX 3 1 4 2 2 3 1 4 16 5 17 6 21 7 18 8 20 9 19 10 5 11 6 12
REMARK SMILES IDX 7 13 12 14 8 15 11 16 9 17 13 18 10 19 14 20 15 21
REMARK H PARENT
REMARK Flexibility Score: inf
ROOT
ATOM      1  C   UNL     1      95.192  82.445  83.879  1.00  0.00     0.071 C 
ATOM      2  C   UNL     1      96.402  82.209  83.375  1.00  0.00     0.006 C 
ENDROOT
BRANCH   1   3
ATOM      3  C   UNL     1      95.009  82.313  85.338  1.00  0.00     0.246 C 
ATOM      4  O   UNL     1      95.931  82.688  86.063  1.00  0.00    -0.270 OA
ATOM      5  N   UNL     1      93.810  81.768  85.796  1.00  0.00    -0.339 N 
ATOM      6  C   UNL     1      93.602  81.619  87.240  1.00  0.00     0.120 C 
ATOM      7  C   UNL     1      92.708  81.268  84.961  1.00  0.00     0.120 C 
ATOM      8  C   UNL     1      92.292  82.261  87.683  1.00  0.00     0.022 C 
ATOM      9  C   UNL     1      91.374  81.887  85.378  1.00  0.00     0.022 C 
ATOM     10  C   UNL     1      91.118  81.721  86.873  1.00  0.00     0.004 C 
ENDBRANCH   1   3
BRANCH   2  11
ATOM     11  C   UNL     1      96.679  82.313  81.958  1.00  0.00     0.001 C 
ATOM     12  C   UNL     1      97.219  81.309  81.248  1.00  0.00     0.008 C 
BRANCH  12  13
ATOM     13  C   UNL     1      97.528  81.364  79.809  1.00  0.00    -0.022 A 
ATOM     14  C   UNL     1      96.743  82.152  78.979  1.00  0.00     0.058 A 
ATOM     15  C   UNL     1      98.605  80.620  79.319  1.00  0.00     0.012 A 
ATOM     16  C   UNL     1      97.072  82.171  77.639  1.00  0.00     0.166 A 
ATOM     17  C   UNL     1      98.916  80.658  77.958  1.00  0.00     0.051 A 
ATOM     18  O   UNL     1      96.428  82.876  76.669  1.00  0.00    -0.454 OA
ATOM     19  C   UNL     1      98.130  81.444  77.142  1.00  0.00     0.165 A 
ATOM     20  C   UNL     1      97.198  82.511  75.506  1.00  0.00     0.468 C 
ATOM     21  O   UNL     1      98.280  81.603  75.799  1.00  0.00    -0.454 OA
ENDBRANCH  12  13
ENDBRANCH   2  11
TORSDOF 3
ENDMDL
MODEL 8
REMARK VINA RESULT:    -6.644      3.524      8.873
REMARK INTER + INTRA:          -8.131
REMARK INTER:                  -7.776
REMARK INTRA:                  -0.356
REMARK UNBOUND:                -0.323
REMARK SMILES O=C(/C=C/C=C/c1ccc2c(c1)OCO2)N1CCCCC1
REMARK SMILES IDX 3 1 4 2 2 3 1 4 16 5 17 6 21 7 18 8 20 9 19 10 5 11 6 12
REMARK SMILES IDX 7 13 12 14 8 15 11 16 9 17 13 18 10 19 14 20 15 21
REMARK H PARENT
REMARK Flexibility Score: inf
ROOT
ATOM      1  C   UNL     1      93.583  95.195  76.277  1.00  0.00     0.071 C 
ATOM      2  C   UNL     1      94.376  95.010  75.223  1.00  0.00     0.006 C 
ENDROOT
BRANCH   1   3
ATOM      3  C   UNL     1      93.534  94.136  77.304  1.00  0.00     0.246 C 
ATOM      4  O   UNL     1      92.742  93.209  77.128  1.00  0.00    -0.270 OA
ATOM      5  N   UNL     1      94.380  94.259  78.404  1.00  0.00    -0.339 N 
ATOM      6  C   UNL     1      94.350  93.225  79.444  1.00  0.00     0.120 C 
ATOM      7  C   UNL     1      95.304  95.372  78.671  1.00  0.00     0.120 C 
ATOM      8  C   UNL     1      95.745  92.677  79.725  1.00  0.00     0.022 C 
ATOM      9  C   UNL     1      96.715  94.862  78.961  1.00  0.00     0.022 C 
ATOM     10  C   UNL     1      96.717  93.804  80.061  1.00  0.00     0.004 C 
ENDBRANCH   1   3
BRANCH   2  11
ATOM     11  C   UNL     1      94.491  95.991  74.165  1.00  0.00     0.001 C 
ATOM     12  C   UNL     1      95.514  96.005  73.295  1.00  0.00     0.008 C 
BRANCH  12  13
ATOM     13  C   UNL     1      95.684  96.982  72.207  1.00  0.00    -0.022 A 
ATOM     14  C   UNL     1      96.323  96.589  71.039  1.00  0.00     0.058 A 
ATOM     15  C   UNL     1      95.196  98.280  72.380  1.00  0.00     0.012 A 
ATOM     16  C   UNL     1      96.458  97.540  70.049  1.00  0.00     0.166 A 
ATOM     17  C   UNL     1      95.346  99.223  71.360  1.00  0.00     0.051 A 
ATOM     18  O   UNL     1      97.052  97.352  68.838  1.00  0.00    -0.454 OA
ATOM     19  C   UNL     1      95.983  98.822  70.204  1.00  0.00     0.165 A 
ATOM     20  C   UNL     1      96.897  98.660  68.250  1.00  0.00     0.468 C 
ATOM     21  O   UNL     1      96.219  99.598  69.112  1.00  0.00    -0.454 OA
ENDBRANCH  12  13
ENDBRANCH   2  11
TORSDOF 3
ENDMDL
MODEL 9
REMARK VINA RESULT:    -6.553     14.021     17.688
REMARK INTER + INTRA:          -8.025
REMARK INTER:                  -7.693
REMARK INTRA:                  -0.332
REMARK UNBOUND:                -0.323
REMARK SMILES O=C(/C=C/C=C/c1ccc2c(c1)OCO2)N1CCCCC1
REMARK SMILES IDX 3 1 4 2 2 3 1 4 16 5 17 6 21 7 18 8 20 9 19 10 5 11 6 12
REMARK SMILES IDX 7 13 12 14 8 15 11 16 9 17 13 18 10 19 14 20 15 21
REMARK H PARENT
REMARK Flexibility Score: inf
ROOT
ATOM      1  C   UNL     1      97.130  81.241  81.251  1.00  0.00     0.071 C 
ATOM      2  C   UNL     1      96.659  81.999  80.262  1.00  0.00     0.006 C 
ENDROOT
BRANCH   1   3
ATOM      3  C   UNL     1      96.420  81.266  82.545  1.00  0.00     0.246 C 
ATOM      4  O   UNL     1      95.909  82.331  82.893  1.00  0.00    -0.270 OA
ATOM      5  N   UNL     1      96.380  80.086  83.286  1.00  0.00    -0.339 N 
ATOM      6  C   UNL     1      95.686  80.081  84.578  1.00  0.00     0.120 C 
ATOM      7  C   UNL     1      97.015  78.811  82.925  1.00  0.00     0.120 C 
ATOM      8  C   UNL     1      94.658  78.957  84.654  1.00  0.00     0.022 C 
ATOM      9  C   UNL     1      96.016  77.656  82.993  1.00  0.00     0.022 C 
ATOM     10  C   UNL     1      95.299  77.609  84.339  1.00  0.00     0.004 C 
ENDBRANCH   1   3
BRANCH   2  11
ATOM     11  C   UNL     1      97.287  82.043  78.959  1.00  0.00     0.001 C 
ATOM     12  C   UNL     1      96.610  82.331  77.836  1.00  0.00     0.008 C 
BRANCH  12  13
ATOM     13  C   UNL     1      97.196  82.380  76.486  1.00  0.00    -0.022 A 
ATOM     14  C   UNL     1      98.503  81.950  76.300  1.00  0.00     0.058 A 
ATOM     15  C   UNL     1      96.420  82.859  75.427  1.00  0.00     0.012 A 
ATOM     16  C   UNL     1      99.008  82.015  75.018  1.00  0.00     0.166 A 
ATOM     17  C   UNL     1      96.956  82.914  74.139  1.00  0.00     0.051 A 
ATOM     18  O   UNL     1     100.260  81.644  74.633  1.00  0.00    -0.454 OA
ATOM     19  C   UNL     1      98.256  82.484  73.966  1.00  0.00     0.165 A 
ATOM     20  C   UNL     1     100.211  81.932  73.221  1.00  0.00     0.468 C 
ATOM     21  O   UNL     1      98.942  82.466  72.790  1.00  0.00    -0.454 OA
ENDBRANCH  12  13
ENDBRANCH   2  11
TORSDOF 3
ENDMDL
MODEL 10
REMARK VINA RESULT:    -6.501      5.982      7.783
REMARK INTER + INTRA:          -7.964
REMARK INTER:                  -7.614
REMARK INTRA:                  -0.349
REMARK UNBOUND:                -0.323
REMARK SMILES O=C(/C=C/C=C/c1ccc2c(c1)OCO2)N1CCCCC1
REMARK SMILES IDX 3 1 4 2 2 3 1 4 16 5 17 6 21 7 18 8 20 9 19 10 5 11 6 12
REMARK SMILES IDX 7 13 12 14 8 15 11 16 9 17 13 18 10 19 14 20 15 21
REMARK H PARENT
REMARK Flexibility Score: inf
ROOT
ATOM      1  C   UNL     1      96.945  94.309  81.011  1.00  0.00     0.071 C 
ATOM      2  C   UNL     1      96.573  94.556  79.757  1.00  0.00     0.006 C 
ENDROOT
BRANCH   1   3
ATOM      3  C   UNL     1      98.144  94.998  81.529  1.00  0.00     0.246 C 
ATOM      4  O   UNL     1      99.240  94.489  81.290  1.00  0.00    -0.270 OA
ATOM      5  N   UNL     1      97.955  96.172  82.255  1.00  0.00    -0.339 N 
ATOM      6  C   UNL     1      99.127  96.876  82.787  1.00  0.00     0.120 C 
ATOM      7  C   UNL     1      96.663  96.784  82.599  1.00  0.00     0.120 C 
ATOM      8  C   UNL     1      99.129  98.344  82.374  1.00  0.00     0.022 C 
ATOM      9  C   UNL     1      96.628  98.260  82.203  1.00  0.00     0.022 C 
ATOM     10  C   UNL     1      97.822  99.024  82.767  1.00  0.00     0.004 C 
ENDBRANCH   1   3
BRANCH   2  11
ATOM     11  C   UNL     1      95.412  93.929  79.160  1.00  0.00     0.001 C 
ATOM     12  C   UNL     1      94.779  94.439  78.092  1.00  0.00     0.008 C 
BRANCH  12  13
ATOM     13  C   UNL     1      93.592  93.848  77.452  1.00  0.00    -0.022 A 
ATOM     14  C   UNL     1      92.563  93.366  78.250  1.00  0.00     0.058 A 
ATOM     15  C   UNL     1      93.534  93.788  76.057  1.00  0.00     0.012 A 
ATOM     16  C   UNL     1      91.472  92.822  77.604  1.00  0.00     0.166 A 
ATOM     17  C   UNL     1      92.417  93.231  75.430  1.00  0.00     0.051 A 
ATOM     18  O   UNL     1      90.369  92.298  78.206  1.00  0.00    -0.454 OA
ATOM     19  C   UNL     1      91.400  92.756  76.232  1.00  0.00     0.165 A 
ATOM     20  C   UNL     1      89.595  91.896  77.057  1.00  0.00     0.468 C 
ATOM     21  O   UNL     1      90.243  92.183  75.801  1.00  0.00    -0.454 OA
ENDBRANCH  12  13
ENDBRANCH   2  11
TORSDOF 3
ENDMDL
