MODEL 1
REMARK VINA RESULT:    -6.609      0.000      0.000
REMARK INTER + INTRA:         -12.231
REMARK INTER:                 -11.053
REMARK INTRA:                  -1.178
REMARK UNBOUND:                -1.178
REMARK SMILES COc1cc(CNC(=O)CCCCCCCC(C)C)ccc1O
REMARK SMILES IDX 11 1 10 2 8 3 9 4 7 5 6 7 5 8 4 9 20 10 3 11 21 12 22 13
REMARK SMILES IDX 2 14 1 15 23 16 12 18 13 19 14 20 15 21 16 22 17 23 18 24
REMARK SMILES IDX 19 25
REMARK H PARENT 7 6 23 17
REMARK Flexibility Score: inf
ROOT
ATOM      1  C   UNL     1      89.862  92.387  77.114  1.00  0.00     0.010 C 
ENDROOT
BRANCH   1   2
ATOM      2  C   UNL     1      91.267  92.544  77.691  1.00  0.00     0.100 C 
BRANCH   2   3
ATOM      3  C   UNL     1      92.083  93.590  76.950  1.00  0.00     0.220 C 
ATOM      4  O   UNL     1      91.587  94.582  76.423  1.00  0.00    -0.275 OA
ATOM      5  N   UNL     1      93.433  93.274  76.944  1.00  0.00    -0.352 N 
ATOM      6  H   UNL     1      93.751  92.422  77.399  1.00  0.00     0.163 HD
BRANCH   5   7
ATOM      7  C   UNL     1      94.428  94.099  76.300  1.00  0.00     0.151 C 
BRANCH   7   8
ATOM      8  C   UNL     1      95.400  94.680  77.285  1.00  0.00    -0.025 A 
ATOM      9  C   UNL     1      95.370  94.259  78.610  1.00  0.00     0.056 A 
ATOM     10  C   UNL     1      96.320  95.632  76.864  1.00  0.00     0.009 A 
ATOM     11  C   UNL     1      96.273  94.799  79.526  1.00  0.00     0.160 A 
ATOM     12  C   UNL     1      97.223  96.172  77.780  1.00  0.00     0.050 A 
ATOM     13  C   UNL     1      97.200  95.756  79.111  1.00  0.00     0.157 A 
BRANCH  11  14
ATOM     14  O   UNL     1      96.241  94.385  80.823  1.00  0.00    -0.493 OA
ATOM     15  C   UNL     1      95.292  95.017  81.681  1.00  0.00     0.278 C 
ENDBRANCH  11  14
BRANCH  13  16
ATOM     16  O   UNL     1      98.087  96.290  79.996  1.00  0.00    -0.504 OA
ATOM     17  H   UNL     1      98.969  95.918  79.823  1.00  0.00     0.293 HD
ENDBRANCH  13  16
ENDBRANCH   7   8
ENDBRANCH   5   7
ENDBRANCH   2   3
ENDBRANCH   1   2
BRANCH   1  18
ATOM     18  C   UNL     1      89.482  90.933  76.818  1.00  0.00     0.001 C 
BRANCH  18  19
ATOM     19  C   UNL     1      88.740  90.696  75.499  1.00  0.00     0.000 C 
BRANCH  19  20
ATOM     20  C   UNL     1      89.148  89.395  74.801  1.00  0.00     0.000 C 
BRANCH  20  21
ATOM     21  C   UNL     1      90.150  89.603  73.660  1.00  0.00     0.000 C 
BRANCH  21  22
ATOM     22  C   UNL     1      91.114  90.769  73.905  1.00  0.00     0.003 C 
BRANCH  22  23
ATOM     23  C   UNL     1      91.035  91.867  72.826  1.00  0.00    -0.017 C 
ATOM     24  C   UNL     1      90.357  93.112  73.404  1.00  0.00     0.007 C 
ATOM     25  C   UNL     1      90.286  91.407  71.575  1.00  0.00     0.007 C 
ENDBRANCH  22  23
ENDBRANCH  21  22
ENDBRANCH  20  21
ENDBRANCH  19  20
ENDBRANCH  18  19
ENDBRANCH   1  18
TORSDOF 12
ENDMDL
MODEL 2
REMARK VINA RESULT:    -6.563      1.888      3.239
REMARK INTER + INTRA:         -12.153
REMARK INTER:                 -10.493
REMARK INTRA:                  -1.660
REMARK UNBOUND:                -1.178
REMARK SMILES COc1cc(CNC(=O)CCCCCCCC(C)C)ccc1O
REMARK SMILES IDX 11 1 10 2 8 3 9 4 7 5 6 7 5 8 4 9 20 10 3 11 21 12 22 13
REMARK SMILES IDX 2 14 1 15 23 16 12 18 13 19 14 20 15 21 16 22 17 23 18 24
REMARK SMILES IDX 19 25
REMARK H PARENT 7 6 23 17
REMARK Flexibility Score: inf
ROOT
ATOM      1  C   UNL     1      92.701  94.577  75.914  1.00  0.00     0.010 C 
ENDROOT
BRANCH   1   2
ATOM      2  C   UNL     1      93.881  94.614  74.945  1.00  0.00     0.100 C 
BRANCH   2   3
ATOM      3  C   UNL     1      95.219  94.512  75.659  1.00  0.00     0.220 C 
ATOM      4  O   UNL     1      95.997  93.576  75.502  1.00  0.00    -0.275 OA
ATOM      5  N   UNL     1      95.431  95.595  76.500  1.00  0.00    -0.352 N 
ATOM      6  H   UNL     1      94.722  96.320  76.574  1.00  0.00     0.163 HD
BRANCH   5   7
ATOM      7  C   UNL     1      96.623  95.741  77.303  1.00  0.00     0.151 C 
BRANCH   7   8
ATOM      8  C   UNL     1      96.328  95.626  78.771  1.00  0.00    -0.025 A 
ATOM      9  C   UNL     1      96.679  96.664  79.626  1.00  0.00     0.056 A 
ATOM     10  C   UNL     1      95.709  94.482  79.259  1.00  0.00     0.009 A 
ATOM     11  C   UNL     1      96.405  96.556  80.989  1.00  0.00     0.160 A 
ATOM     12  C   UNL     1      95.436  94.374  80.623  1.00  0.00     0.050 A 
ATOM     13  C   UNL     1      95.784  95.411  81.489  1.00  0.00     0.157 A 
BRANCH  11  14
ATOM     14  O   UNL     1      96.751  97.575  81.825  1.00  0.00    -0.493 OA
ATOM     15  C   UNL     1      96.140  98.843  81.587  1.00  0.00     0.278 C 
ENDBRANCH  11  14
BRANCH  13  16
ATOM     16  O   UNL     1      95.511  95.294  82.818  1.00  0.00    -0.504 OA
ATOM     17  H   UNL     1      96.315  95.501  83.325  1.00  0.00     0.293 HD
ENDBRANCH  13  16
ENDBRANCH   7   8
ENDBRANCH   5   7
ENDBRANCH   2   3
ENDBRANCH   1   2
BRANCH   1  18
ATOM     18  C   UNL     1      92.459  93.196  76.529  1.00  0.00     0.001 C 
BRANCH  18  19
ATOM     19  C   UNL     1      91.194  93.061  77.384  1.00  0.00     0.000 C 
BRANCH  19  20
ATOM     20  C   UNL     1      90.555  91.672  77.304  1.00  0.00     0.000 C 
BRANCH  20  21
ATOM     21  C   UNL     1      90.835  90.947  75.983  1.00  0.00     0.000 C 
BRANCH  21  22
ATOM     22  C   UNL     1      89.748  91.171  74.927  1.00  0.00     0.003 C 
BRANCH  22  23
ATOM     23  C   UNL     1      90.280  91.790  73.620  1.00  0.00    -0.017 C 
ATOM     24  C   UNL     1      91.780  91.512  73.489  1.00  0.00     0.007 C 
ATOM     25  C   UNL     1      90.028  93.297  73.539  1.00  0.00     0.007 C 
ENDBRANCH  22  23
ENDBRANCH  21  22
ENDBRANCH  20  21
ENDBRANCH  19  20
ENDBRANCH  18  19
ENDBRANCH   1  18
TORSDOF 12
ENDMDL
MODEL 3
REMARK VINA RESULT:    -6.134      2.481      8.644
REMARK INTER + INTRA:         -11.436
REMARK INTER:                 -10.377
REMARK INTRA:                  -1.059
REMARK UNBOUND:                -1.178
REMARK SMILES COc1cc(CNC(=O)CCCCCCCC(C)C)ccc1O
REMARK SMILES IDX 11 1 10 2 8 3 9 4 7 5 6 7 5 8 4 9 20 10 3 11 21 12 22 13
REMARK SMILES IDX 2 14 1 15 23 16 12 18 13 19 14 20 15 21 16 22 17 23 18 24
REMARK SMILES IDX 19 25
REMARK H PARENT 7 6 23 17
REMARK Flexibility Score: inf
ROOT
ATOM      1  C   UNL     1      96.300  95.328  77.863  1.00  0.00     0.010 C 
ENDROOT
BRANCH   1   2
ATOM      2  C   UNL     1      96.597  94.157  76.929  1.00  0.00     0.100 C 
BRANCH   2   3
ATOM      3  C   UNL     1      95.625  94.085  75.763  1.00  0.00     0.220 C 
ATOM      4  O   UNL     1      95.937  94.361  74.608  1.00  0.00    -0.275 OA
ATOM      5  N   UNL     1      94.363  93.683  76.175  1.00  0.00    -0.352 N 
ATOM      6  H   UNL     1      94.195  93.486  77.158  1.00  0.00     0.163 HD
BRANCH   5   7
ATOM      7  C   UNL     1      93.250  93.541  75.265  1.00  0.00     0.151 C 
BRANCH   7   8
ATOM      8  C   UNL     1      92.199  92.615  75.804  1.00  0.00    -0.025 A 
ATOM      9  C   UNL     1      91.677  91.619  74.988  1.00  0.00     0.056 A 
ATOM     10  C   UNL     1      91.759  92.763  77.114  1.00  0.00     0.009 A 
ATOM     11  C   UNL     1      90.700  90.758  75.489  1.00  0.00     0.160 A 
ATOM     12  C   UNL     1      90.781  91.902  77.614  1.00  0.00     0.050 A 
ATOM     13  C   UNL     1      90.251  90.900  76.802  1.00  0.00     0.157 A 
BRANCH  11  14
ATOM     14  O   UNL     1      90.190  89.783  74.685  1.00  0.00    -0.493 OA
ATOM     15  C   UNL     1      89.274  90.193  73.671  1.00  0.00     0.278 C 
ENDBRANCH  11  14
BRANCH  13  16
ATOM     16  O   UNL     1      89.299  90.065  77.302  1.00  0.00    -0.504 OA
ATOM     17  H   UNL     1      88.540  90.049  76.694  1.00  0.00     0.293 HD
ENDBRANCH  13  16
ENDBRANCH   7   8
ENDBRANCH   5   7
ENDBRANCH   2   3
ENDBRANCH   1   2
BRANCH   1  18
ATOM     18  C   UNL     1      95.308  94.983  78.978  1.00  0.00     0.001 C 
BRANCH  18  19
ATOM     19  C   UNL     1      95.710  93.817  79.887  1.00  0.00     0.000 C 
BRANCH  19  20
ATOM     20  C   UNL     1      96.310  94.269  81.222  1.00  0.00     0.000 C 
BRANCH  20  21
ATOM     21  C   UNL     1      95.508  95.382  81.905  1.00  0.00     0.000 C 
BRANCH  21  22
ATOM     22  C   UNL     1      96.368  96.578  82.327  1.00  0.00     0.003 C 
BRANCH  22  23
ATOM     23  C   UNL     1      96.263  97.779  81.366  1.00  0.00    -0.017 C 
ATOM     24  C   UNL     1      97.447  97.769  80.395  1.00  0.00     0.007 C 
ATOM     25  C   UNL     1      96.215  99.117  82.103  1.00  0.00     0.007 C 
ENDBRANCH  22  23
ENDBRANCH  21  22
ENDBRANCH  20  21
ENDBRANCH  19  20
ENDBRANCH  18  19
ENDBRANCH   1  18
TORSDOF 12
ENDMDL
MODEL 4
REMARK VINA RESULT:    -5.966     14.058     16.742
REMARK INTER + INTRA:         -11.155
REMARK INTER:                  -9.088
REMARK INTRA:                  -2.067
REMARK UNBOUND:                -1.178
REMARK SMILES COc1cc(CNC(=O)CCCCCCCC(C)C)ccc1O
REMARK SMILES IDX 11 1 10 2 8 3 9 4 7 5 6 7 5 8 4 9 20 10 3 11 21 12 22 13
REMARK SMILES IDX 2 14 1 15 23 16 12 18 13 19 14 20 15 21 16 22 17 23 18 24
REMARK SMILES IDX 19 25
REMARK H PARENT 7 6 23 17
REMARK Flexibility Score: inf
ROOT
ATOM      1  C   UNL     1      79.822  86.776  84.634  1.00  0.00     0.010 C 
ENDROOT
BRANCH   1   2
ATOM      2  C   UNL     1      80.973  85.800  84.868  1.00  0.00     0.100 C 
BRANCH   2   3
ATOM      3  C   UNL     1      81.502  85.860  86.291  1.00  0.00     0.220 C 
ATOM      4  O   UNL     1      82.636  85.508  86.604  1.00  0.00    -0.275 OA
ATOM      5  N   UNL     1      80.547  86.350  87.170  1.00  0.00    -0.352 N 
ATOM      6  H   UNL     1      79.628  86.607  86.820  1.00  0.00     0.163 HD
BRANCH   5   7
ATOM      7  C   UNL     1      80.790  86.502  88.586  1.00  0.00     0.151 C 
BRANCH   7   8
ATOM      8  C   UNL     1      80.912  87.944  88.984  1.00  0.00    -0.025 A 
ATOM      9  C   UNL     1      82.122  88.424  89.469  1.00  0.00     0.056 A 
ATOM     10  C   UNL     1      79.812  88.784  88.862  1.00  0.00     0.009 A 
ATOM     11  C   UNL     1      82.234  89.765  89.838  1.00  0.00     0.160 A 
ATOM     12  C   UNL     1      79.924  90.125  89.233  1.00  0.00     0.050 A 
ATOM     13  C   UNL     1      81.135  90.616  89.720  1.00  0.00     0.157 A 
BRANCH  11  14
ATOM     14  O   UNL     1      83.423  90.232  90.314  1.00  0.00    -0.493 OA
ATOM     15  C   UNL     1      83.829  89.775  91.603  1.00  0.00     0.278 C 
ENDBRANCH  11  14
BRANCH  13  16
ATOM     16  O   UNL     1      81.233  91.926  90.077  1.00  0.00    -0.504 OA
ATOM     17  H   UNL     1      80.362  92.237  90.380  1.00  0.00     0.293 HD
ENDBRANCH  13  16
ENDBRANCH   7   8
ENDBRANCH   5   7
ENDBRANCH   2   3
ENDBRANCH   1   2
BRANCH   1  18
ATOM     18  C   UNL     1      80.250  88.064  83.924  1.00  0.00     0.001 C 
BRANCH  18  19
ATOM     19  C   UNL     1      80.046  89.359  84.717  1.00  0.00     0.000 C 
BRANCH  19  20
ATOM     20  C   UNL     1      81.200  89.671  85.673  1.00  0.00     0.000 C 
BRANCH  20  21
ATOM     21  C   UNL     1      82.563  89.194  85.160  1.00  0.00     0.000 C 
BRANCH  21  22
ATOM     22  C   UNL     1      83.470  90.338  84.694  1.00  0.00     0.003 C 
BRANCH  22  23
ATOM     23  C   UNL     1      84.190  91.060  85.850  1.00  0.00    -0.017 C 
ATOM     24  C   UNL     1      85.377  91.857  85.303  1.00  0.00     0.007 C 
ATOM     25  C   UNL     1      84.675  90.094  86.932  1.00  0.00     0.007 C 
ENDBRANCH  22  23
ENDBRANCH  21  22
ENDBRANCH  20  21
ENDBRANCH  19  20
ENDBRANCH  18  19
ENDBRANCH   1  18
TORSDOF 12
ENDMDL
MODEL 5
REMARK VINA RESULT:    -5.791      3.267      5.793
REMARK INTER + INTRA:         -10.863
REMARK INTER:                  -9.732
REMARK INTRA:                  -1.132
REMARK UNBOUND:                -1.178
REMARK SMILES COc1cc(CNC(=O)CCCCCCCC(C)C)ccc1O
REMARK SMILES IDX 11 1 10 2 8 3 9 4 7 5 6 7 5 8 4 9 20 10 3 11 21 12 22 13
REMARK SMILES IDX 2 14 1 15 23 16 12 18 13 19 14 20 15 21 16 22 17 23 18 24
REMARK SMILES IDX 19 25
REMARK H PARENT 7 6 23 17
REMARK Flexibility Score: inf
ROOT
ATOM      1  C   UNL     1      96.010  94.925  77.966  1.00  0.00     0.010 C 
ENDROOT
BRANCH   1   2
ATOM      2  C   UNL     1      95.137  94.241  79.016  1.00  0.00     0.100 C 
BRANCH   2   3
ATOM      3  C   UNL     1      95.671  94.431  80.426  1.00  0.00     0.220 C 
ATOM      4  O   UNL     1      95.171  93.899  81.413  1.00  0.00    -0.275 OA
ATOM      5  N   UNL     1      96.772  95.275  80.445  1.00  0.00    -0.352 N 
ATOM      6  H   UNL     1      97.109  95.678  79.575  1.00  0.00     0.163 HD
BRANCH   5   7
ATOM      7  C   UNL     1      97.466  95.629  81.661  1.00  0.00     0.151 C 
BRANCH   7   8
ATOM      8  C   UNL     1      97.023  96.961  82.193  1.00  0.00    -0.025 A 
ATOM      9  C   UNL     1      97.128  97.227  83.553  1.00  0.00     0.056 A 
ATOM     10  C   UNL     1      96.513  97.913  81.320  1.00  0.00     0.009 A 
ATOM     11  C   UNL     1      96.716  98.465  84.047  1.00  0.00     0.160 A 
ATOM     12  C   UNL     1      96.100  99.151  81.815  1.00  0.00     0.050 A 
ATOM     13  C   UNL     1      96.201  99.427  83.178  1.00  0.00     0.157 A 
BRANCH  11  14
ATOM     14  O   UNL     1      96.820  98.722  85.381  1.00  0.00    -0.493 OA
ATOM     15  C   UNL     1      96.462  97.668  86.274  1.00  0.00     0.278 C 
ENDBRANCH  11  14
BRANCH  13  16
ATOM     16  O   UNL     1      95.797 100.639  83.649  1.00  0.00    -0.504 OA
ATOM     17  H   UNL     1      96.148 100.764  84.547  1.00  0.00     0.293 HD
ENDBRANCH  13  16
ENDBRANCH   7   8
ENDBRANCH   5   7
ENDBRANCH   2   3
ENDBRANCH   1   2
BRANCH   1  18
ATOM     18  C   UNL     1      95.883  94.308  76.571  1.00  0.00     0.001 C 
BRANCH  18  19
ATOM     19  C   UNL     1      95.294  95.222  75.491  1.00  0.00     0.000 C 
BRANCH  19  20
ATOM     20  C   UNL     1      93.765  95.168  75.421  1.00  0.00     0.000 C 
BRANCH  20  21
ATOM     21  C   UNL     1      93.187  93.791  75.764  1.00  0.00     0.000 C 
BRANCH  21  22
ATOM     22  C   UNL     1      92.154  93.831  76.896  1.00  0.00     0.003 C 
BRANCH  22  23
ATOM     23  C   UNL     1      90.725  93.485  76.435  1.00  0.00    -0.017 C 
ATOM     24  C   UNL     1      89.930  94.773  76.203  1.00  0.00     0.007 C 
ATOM     25  C   UNL     1      89.985  92.597  77.436  1.00  0.00     0.007 C 
ENDBRANCH  22  23
ENDBRANCH  21  22
ENDBRANCH  20  21
ENDBRANCH  19  20
ENDBRANCH  18  19
ENDBRANCH   1  18
TORSDOF 12
ENDMDL
MODEL 6
REMARK VINA RESULT:    -5.369     15.519     18.292
REMARK INTER + INTRA:         -10.156
REMARK INTER:                  -8.603
REMARK INTRA:                  -1.554
REMARK UNBOUND:                -1.178
REMARK SMILES COc1cc(CNC(=O)CCCCCCCC(C)C)ccc1O
REMARK SMILES IDX 11 1 10 2 8 3 9 4 7 5 6 7 5 8 4 9 20 10 3 11 21 12 22 13
REMARK SMILES IDX 2 14 1 15 23 16 12 18 13 19 14 20 15 21 16 22 17 23 18 24
REMARK SMILES IDX 19 25
REMARK H PARENT 7 6 23 17
REMARK Flexibility Score: inf
ROOT
ATOM      1  C   UNL     1      83.304  91.380  87.325  1.00  0.00     0.010 C 
ENDROOT
BRANCH   1   2
ATOM      2  C   UNL     1      84.228  90.647  88.295  1.00  0.00     0.100 C 
BRANCH   2   3
ATOM      3  C   UNL     1      83.503  90.188  89.550  1.00  0.00     0.220 C 
ATOM      4  O   UNL     1      83.245  90.934  90.490  1.00  0.00    -0.275 OA
ATOM      5  N   UNL     1      83.188  88.839  89.491  1.00  0.00    -0.352 N 
ATOM      6  H   UNL     1      83.453  88.296  88.673  1.00  0.00     0.163 HD
BRANCH   5   7
ATOM      7  C   UNL     1      82.504  88.147  90.559  1.00  0.00     0.151 C 
BRANCH   7   8
ATOM      8  C   UNL     1      81.018  88.122  90.350  1.00  0.00    -0.025 A 
ATOM      9  C   UNL     1      80.196  88.891  91.165  1.00  0.00     0.056 A 
ATOM     10  C   UNL     1      80.479  87.330  89.343  1.00  0.00     0.009 A 
ATOM     11  C   UNL     1      78.815  88.868  90.971  1.00  0.00     0.160 A 
ATOM     12  C   UNL     1      79.097  87.307  89.150  1.00  0.00     0.050 A 
ATOM     13  C   UNL     1      78.265  88.075  89.963  1.00  0.00     0.157 A 
BRANCH  11  14
ATOM     14  O   UNL     1      78.012  89.623  91.773  1.00  0.00    -0.493 OA
ATOM     15  C   UNL     1      77.614  89.048  93.017  1.00  0.00     0.278 C 
ENDBRANCH  11  14
BRANCH  13  16
ATOM     16  O   UNL     1      76.918  88.045  89.764  1.00  0.00    -0.504 OA
ATOM     17  H   UNL     1      76.626  88.915  89.443  1.00  0.00     0.293 HD
ENDBRANCH  13  16
ENDBRANCH   7   8
ENDBRANCH   5   7
ENDBRANCH   2   3
ENDBRANCH   1   2
BRANCH   1  18
ATOM     18  C   UNL     1      81.823  91.040  87.518  1.00  0.00     0.001 C 
BRANCH  18  19
ATOM     19  C   UNL     1      81.290  89.887  86.660  1.00  0.00     0.000 C 
BRANCH  19  20
ATOM     20  C   UNL     1      81.893  89.851  85.253  1.00  0.00     0.000 C 
BRANCH  20  21
ATOM     21  C   UNL     1      80.906  89.380  84.179  1.00  0.00     0.000 C 
BRANCH  21  22
ATOM     22  C   UNL     1      79.741  88.560  84.743  1.00  0.00     0.003 C 
BRANCH  22  23
ATOM     23  C   UNL     1      79.762  87.082  84.307  1.00  0.00    -0.017 C 
ATOM     24  C   UNL     1      80.639  86.271  85.265  1.00  0.00     0.007 C 
ATOM     25  C   UNL     1      80.265  86.901  82.874  1.00  0.00     0.007 C 
ENDBRANCH  22  23
ENDBRANCH  21  22
ENDBRANCH  20  21
ENDBRANCH  19  20
ENDBRANCH  18  19
ENDBRANCH   1  18
TORSDOF 12
ENDMDL
MODEL 7
REMARK VINA RESULT:    -5.314      2.914      5.460
REMARK INTER + INTRA:         -10.065
REMARK INTER:                  -8.888
REMARK INTRA:                  -1.178
REMARK UNBOUND:                -1.178
REMARK SMILES COc1cc(CNC(=O)CCCCCCCC(C)C)ccc1O
REMARK SMILES IDX 11 1 10 2 8 3 9 4 7 5 6 7 5 8 4 9 20 10 3 11 21 12 22 13
REMARK SMILES IDX 2 14 1 15 23 16 12 18 13 19 14 20 15 21 16 22 17 23 18 24
REMARK SMILES IDX 19 25
REMARK H PARENT 7 6 23 17
REMARK Flexibility Score: inf
ROOT
ATOM      1  C   UNL     1      96.145  94.861  77.450  1.00  0.00     0.010 C 
ENDROOT
BRANCH   1   2
ATOM      2  C   UNL     1      95.706  93.666  78.294  1.00  0.00     0.100 C 
BRANCH   2   3
ATOM      3  C   UNL     1      95.475  94.038  79.749  1.00  0.00     0.220 C 
ATOM      4  O   UNL     1      95.171  93.221  80.613  1.00  0.00    -0.275 OA
ATOM      5  N   UNL     1      95.643  95.399  79.959  1.00  0.00    -0.352 N 
ATOM      6  H   UNL     1      95.885  96.002  79.178  1.00  0.00     0.163 HD
BRANCH   5   7
ATOM      7  C   UNL     1      95.473  96.018  81.254  1.00  0.00     0.151 C 
BRANCH   7   8
ATOM      8  C   UNL     1      96.788  96.390  81.874  1.00  0.00    -0.025 A 
ATOM      9  C   UNL     1      96.811  96.994  83.126  1.00  0.00     0.056 A 
ATOM     10  C   UNL     1      97.969  96.127  81.191  1.00  0.00     0.009 A 
ATOM     11  C   UNL     1      98.034  97.340  83.702  1.00  0.00     0.160 A 
ATOM     12  C   UNL     1      99.192  96.474  81.768  1.00  0.00     0.050 A 
ATOM     13  C   UNL     1      99.224  97.081  83.023  1.00  0.00     0.157 A 
BRANCH  11  14
ATOM     14  O   UNL     1      98.052  97.933  84.929  1.00  0.00    -0.493 OA
ATOM     15  C   UNL     1      97.097  97.475  85.884  1.00  0.00     0.278 C 
ENDBRANCH  11  14
BRANCH  13  16
ATOM     16  O   UNL     1     100.424  97.413  83.576  1.00  0.00    -0.504 OA
ATOM     17  H   UNL     1     100.633  98.335  83.346  1.00  0.00     0.293 HD
ENDBRANCH  13  16
ENDBRANCH   7   8
ENDBRANCH   5   7
ENDBRANCH   2   3
ENDBRANCH   1   2
BRANCH   1  18
ATOM     18  C   UNL     1      95.852  94.695  75.957  1.00  0.00     0.001 C 
BRANCH  18  19
ATOM     19  C   UNL     1      95.149  95.877  75.282  1.00  0.00     0.000 C 
BRANCH  19  20
ATOM     20  C   UNL     1      93.686  95.591  74.929  1.00  0.00     0.000 C 
BRANCH  20  21
ATOM     21  C   UNL     1      93.264  94.144  75.209  1.00  0.00     0.000 C 
BRANCH  21  22
ATOM     22  C   UNL     1      91.745  93.941  75.185  1.00  0.00     0.003 C 
BRANCH  22  23
ATOM     23  C   UNL     1      91.228  93.036  76.321  1.00  0.00    -0.017 C 
ATOM     24  C   UNL     1      89.832  93.493  76.750  1.00  0.00     0.007 C 
ATOM     25  C   UNL     1      92.161  93.027  77.533  1.00  0.00     0.007 C 
ENDBRANCH  22  23
ENDBRANCH  21  22
ENDBRANCH  20  21
ENDBRANCH  19  20
ENDBRANCH  18  19
ENDBRANCH   1  18
TORSDOF 12
ENDMDL
MODEL 8
REMARK VINA RESULT:    -5.147     14.319     17.252
REMARK INTER + INTRA:          -9.785
REMARK INTER:                  -8.794
REMARK INTRA:                  -0.992
REMARK UNBOUND:                -1.178
REMARK SMILES COc1cc(CNC(=O)CCCCCCCC(C)C)ccc1O
REMARK SMILES IDX 11 1 10 2 8 3 9 4 7 5 6 7 5 8 4 9 20 10 3 11 21 12 22 13
REMARK SMILES IDX 2 14 1 15 23 16 12 18 13 19 14 20 15 21 16 22 17 23 18 24
REMARK SMILES IDX 19 25
REMARK H PARENT 7 6 23 17
REMARK Flexibility Score: inf
ROOT
ATOM      1  C   UNL     1      82.997  94.457  88.887  1.00  0.00     0.010 C 
ENDROOT
BRANCH   1   2
ATOM      2  C   UNL     1      82.610  93.002  88.633  1.00  0.00     0.100 C 
BRANCH   2   3
ATOM      3  C   UNL     1      83.332  92.412  87.434  1.00  0.00     0.220 C 
ATOM      4  O   UNL     1      84.279  92.963  86.879  1.00  0.00    -0.275 OA
ATOM      5  N   UNL     1      82.781  91.197  87.054  1.00  0.00    -0.352 N 
ATOM      6  H   UNL     1      81.988  90.823  87.568  1.00  0.00     0.163 HD
BRANCH   5   7
ATOM      7  C   UNL     1      83.276  90.428  85.936  1.00  0.00     0.151 C 
BRANCH   7   8
ATOM      8  C   UNL     1      82.278  89.407  85.471  1.00  0.00    -0.025 A 
ATOM      9  C   UNL     1      82.604  88.057  85.515  1.00  0.00     0.056 A 
ATOM     10  C   UNL     1      81.038  89.823  85.002  1.00  0.00     0.009 A 
ATOM     11  C   UNL     1      81.677  87.109  85.083  1.00  0.00     0.160 A 
ATOM     12  C   UNL     1      80.111  88.874  84.569  1.00  0.00     0.050 A 
ATOM     13  C   UNL     1      80.430  87.517  84.609  1.00  0.00     0.157 A 
BRANCH  11  14
ATOM     14  O   UNL     1      82.001  85.786  85.126  1.00  0.00    -0.493 OA
ATOM     15  C   UNL     1      82.620  85.310  86.320  1.00  0.00     0.278 C 
ENDBRANCH  11  14
BRANCH  13  16
ATOM     16  O   UNL     1      79.516  86.601  84.185  1.00  0.00    -0.504 OA
ATOM     17  H   UNL     1      79.932  85.722  84.169  1.00  0.00     0.293 HD
ENDBRANCH  13  16
ENDBRANCH   7   8
ENDBRANCH   5   7
ENDBRANCH   2   3
ENDBRANCH   1   2
BRANCH   1  18
ATOM     18  C   UNL     1      81.912  95.458  88.482  1.00  0.00     0.001 C 
BRANCH  18  19
ATOM     19  C   UNL     1      82.281  96.414  87.342  1.00  0.00     0.000 C 
BRANCH  19  20
ATOM     20  C   UNL     1      81.078  97.175  86.777  1.00  0.00     0.000 C 
BRANCH  20  21
ATOM     21  C   UNL     1      81.021  98.640  87.221  1.00  0.00     0.000 C 
BRANCH  21  22
ATOM     22  C   UNL     1      82.211  99.058  88.091  1.00  0.00     0.003 C 
BRANCH  22  23
ATOM     23  C   UNL     1      81.803  99.559  89.491  1.00  0.00    -0.017 C 
ATOM     24  C   UNL     1      82.042  98.456  90.525  1.00  0.00     0.007 C 
ATOM     25  C   UNL     1      80.343 100.010  89.549  1.00  0.00     0.007 C 
ENDBRANCH  22  23
ENDBRANCH  21  22
ENDBRANCH  20  21
ENDBRANCH  19  20
ENDBRANCH  18  19
ENDBRANCH   1  18
TORSDOF 12
ENDMDL
MODEL 9
REMARK VINA RESULT:    -5.142     13.453     15.052
REMARK INTER + INTRA:          -9.777
REMARK INTER:                  -7.693
REMARK INTRA:                  -2.084
REMARK UNBOUND:                -1.178
REMARK SMILES COc1cc(CNC(=O)CCCCCCCC(C)C)ccc1O
REMARK SMILES IDX 11 1 10 2 8 3 9 4 7 5 6 7 5 8 4 9 20 10 3 11 21 12 22 13
REMARK SMILES IDX 2 14 1 15 23 16 12 18 13 19 14 20 15 21 16 22 17 23 18 24
REMARK SMILES IDX 19 25
REMARK H PARENT 7 6 23 17
REMARK Flexibility Score: inf
ROOT
ATOM      1  C   UNL     1     100.978  79.837  81.728  1.00  0.00     0.010 C 
ENDROOT
BRANCH   1   2
ATOM      2  C   UNL     1     100.071  78.673  81.335  1.00  0.00     0.100 C 
BRANCH   2   3
ATOM      3  C   UNL     1      99.727  78.682  79.854  1.00  0.00     0.220 C 
ATOM      4  O   UNL     1     100.535  78.398  78.974  1.00  0.00    -0.275 OA
ATOM      5  N   UNL     1      98.408  79.053  79.639  1.00  0.00    -0.352 N 
ATOM      6  H   UNL     1      97.815  79.281  80.433  1.00  0.00     0.163 HD
BRANCH   5   7
ATOM      7  C   UNL     1      97.827  79.149  78.320  1.00  0.00     0.151 C 
BRANCH   7   8
ATOM      8  C   UNL     1      97.829  80.560  77.807  1.00  0.00    -0.025 A 
ATOM      9  C   UNL     1      98.974  81.072  77.208  1.00  0.00     0.056 A 
ATOM     10  C   UNL     1      96.687  81.340  77.938  1.00  0.00     0.009 A 
ATOM     11  C   UNL     1      98.976  82.383  76.732  1.00  0.00     0.160 A 
ATOM     12  C   UNL     1      96.689  82.652  77.462  1.00  0.00     0.050 A 
ATOM     13  C   UNL     1      97.833  83.174  76.859  1.00  0.00     0.157 A 
BRANCH  11  14
ATOM     14  O   UNL     1     100.100  82.882  76.145  1.00  0.00    -0.493 OA
ATOM     15  C   UNL     1     100.417  82.401  74.840  1.00  0.00     0.278 C 
ENDBRANCH  11  14
BRANCH  13  16
ATOM     16  O   UNL     1      97.823  84.455  76.397  1.00  0.00    -0.504 OA
ATOM     17  H   UNL     1      97.499  84.458  75.480  1.00  0.00     0.293 HD
ENDBRANCH  13  16
ENDBRANCH   7   8
ENDBRANCH   5   7
ENDBRANCH   2   3
ENDBRANCH   1   2
BRANCH   1  18
ATOM     18  C   UNL     1     100.641  81.145  81.006  1.00  0.00     0.001 C 
BRANCH  18  19
ATOM     19  C   UNL     1      99.640  82.059  81.720  1.00  0.00     0.000 C 
BRANCH  19  20
ATOM     20  C   UNL     1      98.580  82.644  80.782  1.00  0.00     0.000 C 
BRANCH  20  21
ATOM     21  C   UNL     1      97.143  82.367  81.239  1.00  0.00     0.000 C 
BRANCH  21  22
ATOM     22  C   UNL     1      96.952  82.496  82.754  1.00  0.00     0.003 C 
BRANCH  22  23
ATOM     23  C   UNL     1      96.314  81.251  83.401  1.00  0.00    -0.017 C 
ATOM     24  C   UNL     1      96.555  81.272  84.912  1.00  0.00     0.007 C 
ATOM     25  C   UNL     1      96.849  79.945  82.813  1.00  0.00     0.007 C 
ENDBRANCH  22  23
ENDBRANCH  21  22
ENDBRANCH  20  21
ENDBRANCH  19  20
ENDBRANCH  18  19
ENDBRANCH   1  18
TORSDOF 12
ENDMDL
MODEL 10
REMARK VINA RESULT:    -5.064     11.816     14.398
REMARK INTER + INTRA:          -9.647
REMARK INTER:                  -8.722
REMARK INTRA:                  -0.925
REMARK UNBOUND:                -1.178
REMARK SMILES COc1cc(CNC(=O)CCCCCCCC(C)C)ccc1O
REMARK SMILES IDX 11 1 10 2 8 3 9 4 7 5 6 7 5 8 4 9 20 10 3 11 21 12 22 13
REMARK SMILES IDX 2 14 1 15 23 16 12 18 13 19 14 20 15 21 16 22 17 23 18 24
REMARK SMILES IDX 19 25
REMARK H PARENT 7 6 23 17
REMARK Flexibility Score: inf
ROOT
ATOM      1  C   UNL     1      93.934  85.254  87.668  1.00  0.00     0.010 C 
ENDROOT
BRANCH   1   2
ATOM      2  C   UNL     1      93.673  84.994  86.186  1.00  0.00     0.100 C 
BRANCH   2   3
ATOM      3  C   UNL     1      94.853  85.387  85.313  1.00  0.00     0.220 C 
ATOM      4  O   UNL     1      95.374  86.498  85.345  1.00  0.00    -0.275 OA
ATOM      5  N   UNL     1      95.245  84.344  84.487  1.00  0.00    -0.352 N 
ATOM      6  H   UNL     1      94.745  83.460  84.523  1.00  0.00     0.163 HD
BRANCH   5   7
ATOM      7  C   UNL     1      96.340  84.456  83.551  1.00  0.00     0.151 C 
BRANCH   7   8
ATOM      8  C   UNL     1      96.717  83.125  82.967  1.00  0.00    -0.025 A 
ATOM      9  C   UNL     1      97.532  83.074  81.842  1.00  0.00     0.056 A 
ATOM     10  C   UNL     1      96.248  81.958  83.558  1.00  0.00     0.009 A 
ATOM     11  C   UNL     1      97.882  81.837  81.300  1.00  0.00     0.160 A 
ATOM     12  C   UNL     1      96.598  80.721  83.015  1.00  0.00     0.050 A 
ATOM     13  C   UNL     1      97.415  80.660  81.886  1.00  0.00     0.157 A 
BRANCH  11  14
ATOM     14  O   UNL     1      98.681  81.791  80.197  1.00  0.00    -0.493 OA
ATOM     15  C   UNL     1      98.343  82.658  79.116  1.00  0.00     0.278 C 
ENDBRANCH  11  14
BRANCH  13  16
ATOM     16  O   UNL     1      97.751  79.447  81.367  1.00  0.00    -0.504 OA
ATOM     17  H   UNL     1      96.969  78.869  81.382  1.00  0.00     0.293 HD
ENDBRANCH  13  16
ENDBRANCH   7   8
ENDBRANCH   5   7
ENDBRANCH   2   3
ENDBRANCH   1   2
BRANCH   1  18
ATOM     18  C   UNL     1      92.812  84.754  88.583  1.00  0.00     0.001 C 
BRANCH  18  19
ATOM     19  C   UNL     1      91.996  85.843  89.288  1.00  0.00     0.000 C 
BRANCH  19  20
ATOM     20  C   UNL     1      92.648  87.227  89.221  1.00  0.00     0.000 C 
BRANCH  20  21
ATOM     21  C   UNL     1      93.753  87.431  90.263  1.00  0.00     0.000 C 
BRANCH  21  22
ATOM     22  C   UNL     1      94.808  88.456  89.835  1.00  0.00     0.003 C 
BRANCH  22  23
ATOM     23  C   UNL     1      94.420  89.244  88.568  1.00  0.00    -0.017 C 
ATOM     24  C   UNL     1      95.573  89.206  87.562  1.00  0.00     0.007 C 
ATOM     25  C   UNL     1      94.049  90.696  88.871  1.00  0.00     0.007 C 
ENDBRANCH  22  23
ENDBRANCH  21  22
ENDBRANCH  20  21
ENDBRANCH  19  20
ENDBRANCH  18  19
ENDBRANCH   1  18
TORSDOF 12
ENDMDL
