MODEL 1
REMARK VINA RESULT:    -6.907      0.000      0.000
REMARK INTER + INTRA:         -11.219
REMARK INTER:                 -10.743
REMARK INTRA:                  -0.476
REMARK UNBOUND:                -0.476
REMARK SMILES COc1cc(CNC(=O)CCCCCC(C)C)ccc1O
REMARK SMILES IDX 10 1 8 2 7 3 9 5 6 6 5 7 3 8 20 9 4 10 19 11 18 12 2 13 1 14
REMARK SMILES IDX 21 15 11 17 12 18 13 19 14 20 15 21 16 22 17 23
REMARK H PARENT 7 4 21 16
REMARK Flexibility Score: inf
ROOT
ATOM      1  C   UNL     1      93.643  82.015  84.330  1.00  0.00     0.100 C 
ENDROOT
BRANCH   1   2
ATOM      2  C   UNL     1      92.600  80.985  84.513  1.00  0.00     0.220 C 
ATOM      3  N   UNL     1      91.298  81.366  84.647  1.00  0.00    -0.352 N 
ATOM      4  H   UNL     1      91.155  82.361  84.744  1.00  0.00     0.163 HD
ATOM      5  O   UNL     1      92.931  79.774  84.498  1.00  0.00    -0.275 OA
BRANCH   3   6
ATOM      6  C   UNL     1      90.179  80.480  84.656  1.00  0.00     0.151 C 
BRANCH   6   7
ATOM      7  C   UNL     1      88.916  81.129  84.212  1.00  0.00    -0.025 A 
ATOM      8  C   UNL     1      87.384  83.052  84.235  1.00  0.00     0.160 A 
ATOM      9  C   UNL     1      86.544  82.392  83.313  1.00  0.00     0.157 A 
ATOM     10  C   UNL     1      88.554  82.409  84.693  1.00  0.00     0.056 A 
ATOM     11  C   UNL     1      86.882  81.107  82.848  1.00  0.00     0.050 A 
ATOM     12  C   UNL     1      88.060  80.483  83.289  1.00  0.00     0.009 A 
BRANCH   8  13
ATOM     13  O   UNL     1      87.063  84.295  84.715  1.00  0.00    -0.493 OA
ATOM     14  C   UNL     1      86.323  84.268  85.950  1.00  0.00     0.278 C 
ENDBRANCH   8  13
BRANCH   9  15
ATOM     15  O   UNL     1      85.416  83.000  82.868  1.00  0.00    -0.504 OA
ATOM     16  H   UNL     1      84.665  82.695  83.381  1.00  0.00     0.293 HD
ENDBRANCH   9  15
ENDBRANCH   6   7
ENDBRANCH   3   6
ENDBRANCH   1   2
BRANCH   1  17
ATOM     17  C   UNL     1      95.011  81.659  84.971  1.00  0.00     0.010 C 
BRANCH  17  18
ATOM     18  C   UNL     1      96.051  81.228  83.899  1.00  0.00     0.001 C 
BRANCH  18  19
ATOM     19  C   UNL     1      97.002  82.376  83.467  1.00  0.00     0.000 C 
BRANCH  19  20
ATOM     20  C   UNL     1      96.571  83.020  82.118  1.00  0.00     0.003 C 
BRANCH  20  21
ATOM     21  C   UNL     1      97.413  82.579  80.877  1.00  0.00    -0.017 C 
ATOM     22  C   UNL     1      96.967  83.352  79.600  1.00  0.00     0.007 C 
ATOM     23  C   UNL     1      97.355  81.045  80.621  1.00  0.00     0.007 C 
ENDBRANCH  20  21
ENDBRANCH  19  20
ENDBRANCH  18  19
ENDBRANCH  17  18
ENDBRANCH   1  17
TORSDOF 10
ENDMDL
MODEL 2
REMARK VINA RESULT:    -6.590     21.412     24.802
REMARK INTER + INTRA:         -10.727
REMARK INTER:                  -9.938
REMARK INTRA:                  -0.789
REMARK UNBOUND:                -0.476
REMARK SMILES COc1cc(CNC(=O)CCCCCC(C)C)ccc1O
REMARK SMILES IDX 10 1 8 2 7 3 9 5 6 6 5 7 3 8 20 9 4 10 19 11 18 12 2 13 1 14
REMARK SMILES IDX 21 15 11 17 12 18 13 19 14 20 15 21 16 22 17 23
REMARK H PARENT 7 4 21 16
REMARK Flexibility Score: inf
ROOT
ATOM      1  C   UNL     1      79.046  64.756  69.964  1.00  0.00     0.100 C 
ENDROOT
BRANCH   1   2
ATOM      2  C   UNL     1      80.523  64.704  69.954  1.00  0.00     0.220 C 
ATOM      3  N   UNL     1      81.234  65.789  70.374  1.00  0.00    -0.352 N 
ATOM      4  H   UNL     1      80.683  66.618  70.544  1.00  0.00     0.163 HD
ATOM      5  O   UNL     1      81.093  63.645  69.597  1.00  0.00    -0.275 OA
BRANCH   3   6
ATOM      6  C   UNL     1      82.646  65.817  70.579  1.00  0.00     0.151 C 
BRANCH   6   7
ATOM      7  C   UNL     1      83.029  66.222  71.959  1.00  0.00    -0.025 A 
ATOM      8  C   UNL     1      84.151  67.787  73.488  1.00  0.00     0.160 A 
ATOM      9  C   UNL     1      83.701  67.030  74.590  1.00  0.00     0.157 A 
ATOM     10  C   UNL     1      83.828  67.368  72.179  1.00  0.00     0.056 A 
ATOM     11  C   UNL     1      82.928  65.873  74.381  1.00  0.00     0.050 A 
ATOM     12  C   UNL     1      82.589  65.475  73.077  1.00  0.00     0.009 A 
BRANCH   8  13
ATOM     13  O   UNL     1      84.921  68.906  73.669  1.00  0.00    -0.493 OA
ATOM     14  C   UNL     1      85.495  69.420  72.452  1.00  0.00     0.278 C 
ENDBRANCH   8  13
BRANCH   9  15
ATOM     15  O   UNL     1      84.007  67.423  75.852  1.00  0.00    -0.504 OA
ATOM     16  H   UNL     1      83.261  67.251  76.431  1.00  0.00     0.293 HD
ENDBRANCH   9  15
ENDBRANCH   6   7
ENDBRANCH   3   6
ENDBRANCH   1   2
BRANCH   1  17
ATOM     17  C   UNL     1      78.396  64.710  68.555  1.00  0.00     0.010 C 
BRANCH  17  18
ATOM     18  C   UNL     1      77.724  63.337  68.279  1.00  0.00     0.001 C 
BRANCH  18  19
ATOM     19  C   UNL     1      76.961  63.286  66.929  1.00  0.00     0.000 C 
BRANCH  19  20
ATOM     20  C   UNL     1      75.417  63.284  67.126  1.00  0.00     0.003 C 
BRANCH  20  21
ATOM     21  C   UNL     1      74.762  64.700  67.219  1.00  0.00    -0.017 C 
ATOM     22  C   UNL     1      75.590  65.749  66.419  1.00  0.00     0.007 C 
ATOM     23  C   UNL     1      74.566  65.181  68.686  1.00  0.00     0.007 C 
ENDBRANCH  20  21
ENDBRANCH  19  20
ENDBRANCH  18  19
ENDBRANCH  17  18
ENDBRANCH   1  17
TORSDOF 10
ENDMDL
MODEL 3
REMARK VINA RESULT:    -6.239     20.161     23.513
REMARK INTER + INTRA:         -10.181
REMARK INTER:                  -9.576
REMARK INTRA:                  -0.605
REMARK UNBOUND:                -0.476
REMARK SMILES COc1cc(CNC(=O)CCCCCC(C)C)ccc1O
REMARK SMILES IDX 10 1 8 2 7 3 9 5 6 6 5 7 3 8 20 9 4 10 19 11 18 12 2 13 1 14
REMARK SMILES IDX 21 15 11 17 12 18 13 19 14 20 15 21 16 22 17 23
REMARK H PARENT 7 4 21 16
REMARK Flexibility Score: inf
ROOT
ATOM      1  C   UNL     1      80.789  65.658  70.052  1.00  0.00     0.100 C 
ENDROOT
BRANCH   1   2
ATOM      2  C   UNL     1      81.594  65.449  71.274  1.00  0.00     0.220 C 
ATOM      3  N   UNL     1      81.448  66.302  72.326  1.00  0.00    -0.352 N 
ATOM      4  H   UNL     1      80.878  67.115  72.138  1.00  0.00     0.163 HD
ATOM      5  O   UNL     1      82.367  64.461  71.332  1.00  0.00    -0.275 OA
BRANCH   3   6
ATOM      6  C   UNL     1      82.027  66.120  73.618  1.00  0.00     0.151 C 
BRANCH   6   7
ATOM      7  C   UNL     1      83.204  66.997  73.860  1.00  0.00    -0.025 A 
ATOM      8  C   UNL     1      84.739  68.763  73.103  1.00  0.00     0.160 A 
ATOM      9  C   UNL     1      85.405  68.713  74.345  1.00  0.00     0.157 A 
ATOM     10  C   UNL     1      83.655  67.892  72.861  1.00  0.00     0.056 A 
ATOM     11  C   UNL     1      84.982  67.808  75.336  1.00  0.00     0.050 A 
ATOM     12  C   UNL     1      83.887  66.961  75.098  1.00  0.00     0.009 A 
BRANCH   8  13
ATOM     13  O   UNL     1      85.147  69.623  72.117  1.00  0.00    -0.493 OA
ATOM     14  C   UNL     1      84.343  70.814  72.014  1.00  0.00     0.278 C 
ENDBRANCH   8  13
BRANCH   9  15
ATOM     15  O   UNL     1      86.450  69.545  74.587  1.00  0.00    -0.504 OA
ATOM     16  H   UNL     1      86.122  70.379  74.931  1.00  0.00     0.293 HD
ENDBRANCH   9  15
ENDBRANCH   6   7
ENDBRANCH   3   6
ENDBRANCH   1   2
BRANCH   1  17
ATOM     17  C   UNL     1      79.319  65.172  70.165  1.00  0.00     0.010 C 
BRANCH  17  18
ATOM     18  C   UNL     1      79.075  63.888  69.325  1.00  0.00     0.001 C 
BRANCH  18  19
ATOM     19  C   UNL     1      77.626  63.774  68.782  1.00  0.00     0.000 C 
BRANCH  19  20
ATOM     20  C   UNL     1      76.947  65.165  68.620  1.00  0.00     0.003 C 
BRANCH  20  21
ATOM     21  C   UNL     1      75.888  65.253  67.473  1.00  0.00    -0.017 C 
ATOM     22  C   UNL     1      74.519  64.674  67.935  1.00  0.00     0.007 C 
ATOM     23  C   UNL     1      76.353  64.547  66.166  1.00  0.00     0.007 C 
ENDBRANCH  20  21
ENDBRANCH  19  20
ENDBRANCH  18  19
ENDBRANCH  17  18
ENDBRANCH   1  17
TORSDOF 10
ENDMDL
MODEL 4
REMARK VINA RESULT:    -6.187      4.713      7.865
REMARK INTER + INTRA:         -10.099
REMARK INTER:                  -9.613
REMARK INTRA:                  -0.486
REMARK UNBOUND:                -0.476
REMARK SMILES COc1cc(CNC(=O)CCCCCC(C)C)ccc1O
REMARK SMILES IDX 10 1 8 2 7 3 9 5 6 6 5 7 3 8 20 9 4 10 19 11 18 12 2 13 1 14
REMARK SMILES IDX 21 15 11 17 12 18 13 19 14 20 15 21 16 22 17 23
REMARK H PARENT 7 4 21 16
REMARK Flexibility Score: inf
ROOT
ATOM      1  C   UNL     1      97.608  83.453  78.625  1.00  0.00     0.100 C 
ENDROOT
BRANCH   1   2
ATOM      2  C   UNL     1      97.376  82.620  79.823  1.00  0.00     0.220 C 
ATOM      3  N   UNL     1      97.028  83.218  80.998  1.00  0.00    -0.352 N 
ATOM      4  H   UNL     1      97.083  84.226  80.993  1.00  0.00     0.163 HD
ATOM      5  O   UNL     1      97.465  81.372  79.723  1.00  0.00    -0.275 OA
BRANCH   3   6
ATOM      6  C   UNL     1      96.610  82.530  82.177  1.00  0.00     0.151 C 
BRANCH   6   7
ATOM      7  C   UNL     1      95.985  83.428  83.186  1.00  0.00    -0.025 A 
ATOM      8  C   UNL     1      94.671  83.739  85.241  1.00  0.00     0.160 A 
ATOM      9  C   UNL     1      94.853  85.135  85.144  1.00  0.00     0.157 A 
ATOM     10  C   UNL     1      95.222  82.896  84.252  1.00  0.00     0.056 A 
ATOM     11  C   UNL     1      95.588  85.676  84.073  1.00  0.00     0.050 A 
ATOM     12  C   UNL     1      96.154  84.830  83.105  1.00  0.00     0.009 A 
BRANCH   8  13
ATOM     13  O   UNL     1      93.942  83.193  86.265  1.00  0.00    -0.493 OA
ATOM     14  C   UNL     1      92.675  82.647  85.851  1.00  0.00     0.278 C 
ENDBRANCH   8  13
BRANCH   9  15
ATOM     15  O   UNL     1      94.326  85.954  86.088  1.00  0.00    -0.504 OA
ATOM     16  H   UNL     1      93.389  85.769  86.186  1.00  0.00     0.293 HD
ENDBRANCH   9  15
ENDBRANCH   6   7
ENDBRANCH   3   6
ENDBRANCH   1   2
BRANCH   1  17
ATOM     17  C   UNL     1      96.357  83.639  77.725  1.00  0.00     0.010 C 
BRANCH  17  18
ATOM     18  C   UNL     1      96.644  84.595  76.535  1.00  0.00     0.001 C 
BRANCH  18  19
ATOM     19  C   UNL     1      97.784  84.097  75.606  1.00  0.00     0.000 C 
BRANCH  19  20
ATOM     20  C   UNL     1      97.289  83.840  74.153  1.00  0.00     0.003 C 
BRANCH  20  21
ATOM     21  C   UNL     1      98.406  83.874  73.060  1.00  0.00    -0.017 C 
ATOM     22  C   UNL     1      99.424  82.714  73.271  1.00  0.00     0.007 C 
ATOM     23  C   UNL     1      99.154  85.237  73.002  1.00  0.00     0.007 C 
ENDBRANCH  20  21
ENDBRANCH  19  20
ENDBRANCH  18  19
ENDBRANCH  17  18
ENDBRANCH   1  17
TORSDOF 10
ENDMDL
MODEL 5
REMARK VINA RESULT:    -6.063      3.639      5.649
REMARK INTER + INTRA:          -9.907
REMARK INTER:                  -9.142
REMARK INTRA:                  -0.764
REMARK UNBOUND:                -0.476
REMARK SMILES COc1cc(CNC(=O)CCCCCC(C)C)ccc1O
REMARK SMILES IDX 10 1 8 2 7 3 9 5 6 6 5 7 3 8 20 9 4 10 19 11 18 12 2 13 1 14
REMARK SMILES IDX 21 15 11 17 12 18 13 19 14 20 15 21 16 22 17 23
REMARK H PARENT 7 4 21 16
REMARK Flexibility Score: inf
ROOT
ATOM      1  C   UNL     1      93.276  78.612  85.015  1.00  0.00     0.100 C 
ENDROOT
BRANCH   1   2
ATOM      2  C   UNL     1      92.566  79.764  85.609  1.00  0.00     0.220 C 
ATOM      3  N   UNL     1      91.877  80.616  84.798  1.00  0.00    -0.352 N 
ATOM      4  H   UNL     1      92.015  80.466  83.809  1.00  0.00     0.163 HD
ATOM      5  O   UNL     1      92.578  79.910  86.856  1.00  0.00    -0.275 OA
BRANCH   3   6
ATOM      6  C   UNL     1      91.013  81.659  85.248  1.00  0.00     0.151 C 
BRANCH   6   7
ATOM      7  C   UNL     1      89.635  81.555  84.697  1.00  0.00    -0.025 A 
ATOM      8  C   UNL     1      87.389  82.504  84.375  1.00  0.00     0.160 A 
ATOM      9  C   UNL     1      87.032  81.387  83.590  1.00  0.00     0.157 A 
ATOM     10  C   UNL     1      88.681  82.572  84.939  1.00  0.00     0.056 A 
ATOM     11  C   UNL     1      87.964  80.357  83.365  1.00  0.00     0.050 A 
ATOM     12  C   UNL     1      89.257  80.443  83.909  1.00  0.00     0.009 A 
BRANCH   8  13
ATOM     13  O   UNL     1      86.490  83.508  84.622  1.00  0.00    -0.493 OA
ATOM     14  C   UNL     1      86.821  84.316  85.768  1.00  0.00     0.278 C 
ENDBRANCH   8  13
BRANCH   9  15
ATOM     15  O   UNL     1      85.792  81.311  83.045  1.00  0.00    -0.504 OA
ATOM     16  H   UNL     1      85.169  81.785  83.600  1.00  0.00     0.293 HD
ENDBRANCH   9  15
ENDBRANCH   6   7
ENDBRANCH   3   6
ENDBRANCH   1   2
BRANCH   1  17
ATOM     17  C   UNL     1      92.413  77.762  84.045  1.00  0.00     0.010 C 
BRANCH  17  18
ATOM     18  C   UNL     1      93.214  76.563  83.466  1.00  0.00     0.001 C 
BRANCH  18  19
ATOM     19  C   UNL     1      92.341  75.578  82.644  1.00  0.00     0.000 C 
BRANCH  19  20
ATOM     20  C   UNL     1      90.944  75.350  83.290  1.00  0.00     0.003 C 
BRANCH  20  21
ATOM     21  C   UNL     1      90.706  73.913  83.860  1.00  0.00    -0.017 C 
ATOM     22  C   UNL     1      89.930  73.032  82.838  1.00  0.00     0.007 C 
ATOM     23  C   UNL     1      89.965  73.921  85.229  1.00  0.00     0.007 C 
ENDBRANCH  20  21
ENDBRANCH  19  20
ENDBRANCH  18  19
ENDBRANCH  17  18
ENDBRANCH   1  17
TORSDOF 10
ENDMDL
MODEL 6
REMARK VINA RESULT:    -5.763      7.670     13.040
REMARK INTER + INTRA:          -9.441
REMARK INTER:                  -8.825
REMARK INTRA:                  -0.616
REMARK UNBOUND:                -0.476
REMARK SMILES COc1cc(CNC(=O)CCCCCC(C)C)ccc1O
REMARK SMILES IDX 10 1 8 2 7 3 9 5 6 6 5 7 3 8 20 9 4 10 19 11 18 12 2 13 1 14
REMARK SMILES IDX 21 15 11 17 12 18 13 19 14 20 15 21 16 22 17 23
REMARK H PARENT 7 4 21 16
REMARK Flexibility Score: inf
ROOT
ATOM      1  C   UNL     1      96.350  83.961  77.765  1.00  0.00     0.100 C 
ENDROOT
BRANCH   1   2
ATOM      2  C   UNL     1      96.717  84.166  76.349  1.00  0.00     0.220 C 
ATOM      3  N   UNL     1      97.557  83.282  75.740  1.00  0.00    -0.352 N 
ATOM      4  H   UNL     1      97.981  82.604  76.358  1.00  0.00     0.163 HD
ATOM      5  O   UNL     1      96.213  85.130  75.723  1.00  0.00    -0.275 OA
BRANCH   3   6
ATOM      6  C   UNL     1      97.855  83.260  74.344  1.00  0.00     0.151 C 
BRANCH   6   7
ATOM      7  C   UNL     1      99.114  83.976  74.004  1.00  0.00    -0.025 A 
ATOM      8  C   UNL     1     100.584  85.032  72.339  1.00  0.00     0.160 A 
ATOM      9  C   UNL     1     101.479  85.400  73.366  1.00  0.00     0.157 A 
ATOM     10  C   UNL     1      99.417  84.307  72.662  1.00  0.00     0.056 A 
ATOM     11  C   UNL     1     101.201  85.053  74.701  1.00  0.00     0.050 A 
ATOM     12  C   UNL     1     100.025  84.352  75.019  1.00  0.00     0.009 A 
BRANCH   8  13
ATOM     13  O   UNL     1     100.846  85.343  71.031  1.00  0.00    -0.493 OA
ATOM     14  C   UNL     1     101.201  84.205  70.222  1.00  0.00     0.278 C 
ENDBRANCH   8  13
BRANCH   9  15
ATOM     15  O   UNL     1     102.605  86.095  73.066  1.00  0.00    -0.504 OA
ATOM     16  H   UNL     1     102.416  87.036  73.091  1.00  0.00     0.293 HD
ENDBRANCH   9  15
ENDBRANCH   6   7
ENDBRANCH   3   6
ENDBRANCH   1   2
BRANCH   1  17
ATOM     17  C   UNL     1      97.468  83.315  78.628  1.00  0.00     0.010 C 
BRANCH  17  18
ATOM     18  C   UNL     1      97.013  83.115  80.099  1.00  0.00     0.001 C 
BRANCH  18  19
ATOM     19  C   UNL     1      97.859  82.068  80.870  1.00  0.00     0.000 C 
BRANCH  19  20
ATOM     20  C   UNL     1      96.987  80.915  81.447  1.00  0.00     0.003 C 
BRANCH  20  21
ATOM     21  C   UNL     1      96.749  80.977  82.991  1.00  0.00    -0.017 C 
ATOM     22  C   UNL     1      95.616  81.988  83.338  1.00  0.00     0.007 C 
ATOM     23  C   UNL     1      98.039  81.327  83.788  1.00  0.00     0.007 C 
ENDBRANCH  20  21
ENDBRANCH  19  20
ENDBRANCH  18  19
ENDBRANCH  17  18
ENDBRANCH   1  17
TORSDOF 10
ENDMDL
MODEL 7
REMARK VINA RESULT:    -5.754      7.480     13.244
REMARK INTER + INTRA:          -9.427
REMARK INTER:                  -8.694
REMARK INTRA:                  -0.732
REMARK UNBOUND:                -0.476
REMARK SMILES COc1cc(CNC(=O)CCCCCC(C)C)ccc1O
REMARK SMILES IDX 10 1 8 2 7 3 9 5 6 6 5 7 3 8 20 9 4 10 19 11 18 12 2 13 1 14
REMARK SMILES IDX 21 15 11 17 12 18 13 19 14 20 15 21 16 22 17 23
REMARK H PARENT 7 4 21 16
REMARK Flexibility Score: inf
ROOT
ATOM      1  C   UNL     1      96.592  83.560  77.952  1.00  0.00     0.100 C 
ENDROOT
BRANCH   1   2
ATOM      2  C   UNL     1      97.039  84.167  76.681  1.00  0.00     0.220 C 
ATOM      3  N   UNL     1      98.333  84.011  76.283  1.00  0.00    -0.352 N 
ATOM      4  H   UNL     1      98.941  83.589  76.970  1.00  0.00     0.163 HD
ATOM      5  O   UNL     1      96.204  84.780  75.972  1.00  0.00    -0.275 OA
BRANCH   3   6
ATOM      6  C   UNL     1      98.853  84.391  75.009  1.00  0.00     0.151 C 
BRANCH   6   7
ATOM      7  C   UNL     1     100.337  84.324  74.939  1.00  0.00    -0.025 A 
ATOM      8  C   UNL     1     102.499  85.387  74.444  1.00  0.00     0.160 A 
ATOM      9  C   UNL     1     103.168  84.220  74.870  1.00  0.00     0.157 A 
ATOM     10  C   UNL     1     101.088  85.425  74.463  1.00  0.00     0.056 A 
ATOM     11  C   UNL     1     102.430  83.109  75.320  1.00  0.00     0.050 A 
ATOM     12  C   UNL     1     101.026  83.163  75.360  1.00  0.00     0.009 A 
BRANCH   8  13
ATOM     13  O   UNL     1     103.198  86.471  73.983  1.00  0.00    -0.493 OA
ATOM     14  C   UNL     1     103.320  86.519  72.549  1.00  0.00     0.278 C 
ENDBRANCH   8  13
BRANCH   9  15
ATOM     15  O   UNL     1     104.523  84.172  74.853  1.00  0.00    -0.504 OA
ATOM     16  H   UNL     1     104.816  83.651  74.102  1.00  0.00     0.293 HD
ENDBRANCH   9  15
ENDBRANCH   6   7
ENDBRANCH   3   6
ENDBRANCH   1   2
BRANCH   1  17
ATOM     17  C   UNL     1      97.732  83.313  78.977  1.00  0.00     0.010 C 
BRANCH  17  18
ATOM     18  C   UNL     1      97.858  81.808  79.342  1.00  0.00     0.001 C 
BRANCH  18  19
ATOM     19  C   UNL     1      97.179  81.440  80.687  1.00  0.00     0.000 C 
BRANCH  19  20
ATOM     20  C   UNL     1      97.812  82.195  81.892  1.00  0.00     0.003 C 
BRANCH  20  21
ATOM     21  C   UNL     1      96.794  82.686  82.972  1.00  0.00    -0.017 C 
ATOM     22  C   UNL     1      95.759  81.573  83.307  1.00  0.00     0.007 C 
ATOM     23  C   UNL     1      96.058  83.993  82.558  1.00  0.00     0.007 C 
ENDBRANCH  20  21
ENDBRANCH  19  20
ENDBRANCH  18  19
ENDBRANCH  17  18
ENDBRANCH   1  17
TORSDOF 10
ENDMDL
MODEL 8
REMARK VINA RESULT:    -5.683      7.389     13.045
REMARK INTER + INTRA:          -9.315
REMARK INTER:                  -8.618
REMARK INTRA:                  -0.698
REMARK UNBOUND:                -0.476
REMARK SMILES COc1cc(CNC(=O)CCCCCC(C)C)ccc1O
REMARK SMILES IDX 10 1 8 2 7 3 9 5 6 6 5 7 3 8 20 9 4 10 19 11 18 12 2 13 1 14
REMARK SMILES IDX 21 15 11 17 12 18 13 19 14 20 15 21 16 22 17 23
REMARK H PARENT 7 4 21 16
REMARK Flexibility Score: inf
ROOT
ATOM      1  C   UNL     1      96.439  83.592  77.759  1.00  0.00     0.100 C 
ENDROOT
BRANCH   1   2
ATOM      2  C   UNL     1      96.916  84.232  76.516  1.00  0.00     0.220 C 
ATOM      3  N   UNL     1      98.222  84.094  76.150  1.00  0.00    -0.352 N 
ATOM      4  H   UNL     1      98.814  83.661  76.845  1.00  0.00     0.163 HD
ATOM      5  O   UNL     1      96.097  84.856  75.798  1.00  0.00    -0.275 OA
BRANCH   3   6
ATOM      6  C   UNL     1      98.774  84.508  74.900  1.00  0.00     0.151 C 
BRANCH   6   7
ATOM      7  C   UNL     1     100.261  84.470  74.876  1.00  0.00    -0.025 A 
ATOM      8  C   UNL     1     102.365  83.217  75.098  1.00  0.00     0.160 A 
ATOM      9  C   UNL     1     103.091  84.380  74.765  1.00  0.00     0.157 A 
ATOM     10  C   UNL     1     100.957  83.273  75.170  1.00  0.00     0.056 A 
ATOM     11  C   UNL     1     102.410  85.582  74.497  1.00  0.00     0.050 A 
ATOM     12  C   UNL     1     101.006  85.626  74.547  1.00  0.00     0.009 A 
BRANCH   8  13
ATOM     13  O   UNL     1     103.010  82.041  75.381  1.00  0.00    -0.493 OA
ATOM     14  C   UNL     1     103.103  81.753  76.790  1.00  0.00     0.278 C 
ENDBRANCH   8  13
BRANCH   9  15
ATOM     15  O   UNL     1     104.445  84.338  74.695  1.00  0.00    -0.504 OA
ATOM     16  H   UNL     1     104.819  84.744  75.481  1.00  0.00     0.293 HD
ENDBRANCH   9  15
ENDBRANCH   6   7
ENDBRANCH   3   6
ENDBRANCH   1   2
BRANCH   1  17
ATOM     17  C   UNL     1      97.507  83.503  78.882  1.00  0.00     0.010 C 
BRANCH  17  18
ATOM     18  C   UNL     1      97.768  82.033  79.309  1.00  0.00     0.001 C 
BRANCH  18  19
ATOM     19  C   UNL     1      97.075  81.646  80.642  1.00  0.00     0.000 C 
BRANCH  19  20
ATOM     20  C   UNL     1      97.803  82.246  81.880  1.00  0.00     0.003 C 
BRANCH  20  21
ATOM     21  C   UNL     1      96.866  82.655  83.063  1.00  0.00    -0.017 C 
ATOM     22  C   UNL     1      95.882  81.501  83.417  1.00  0.00     0.007 C 
ATOM     23  C   UNL     1      96.073  83.965  82.781  1.00  0.00     0.007 C 
ENDBRANCH  20  21
ENDBRANCH  19  20
ENDBRANCH  18  19
ENDBRANCH  17  18
ENDBRANCH   1  17
TORSDOF 10
ENDMDL
MODEL 9
REMARK VINA RESULT:    -5.599      5.297      7.591
REMARK INTER + INTRA:          -9.185
REMARK INTER:                  -8.502
REMARK INTRA:                  -0.682
REMARK UNBOUND:                -0.476
REMARK SMILES COc1cc(CNC(=O)CCCCCC(C)C)ccc1O
REMARK SMILES IDX 10 1 8 2 7 3 9 5 6 6 5 7 3 8 20 9 4 10 19 11 18 12 2 13 1 14
REMARK SMILES IDX 21 15 11 17 12 18 13 19 14 20 15 21 16 22 17 23
REMARK H PARENT 7 4 21 16
REMARK Flexibility Score: inf
ROOT
ATOM      1  C   UNL     1      97.864  83.475  79.055  1.00  0.00     0.100 C 
ENDROOT
BRANCH   1   2
ATOM      2  C   UNL     1      97.947  82.511  80.171  1.00  0.00     0.220 C 
ATOM      3  N   UNL     1      96.867  82.332  80.984  1.00  0.00    -0.352 N 
ATOM      4  H   UNL     1      96.112  82.987  80.837  1.00  0.00     0.163 HD
ATOM      5  O   UNL     1      99.000  81.844  80.323  1.00  0.00    -0.275 OA
BRANCH   3   6
ATOM      6  C   UNL     1      96.750  81.320  81.983  1.00  0.00     0.151 C 
BRANCH   6   7
ATOM      7  C   UNL     1      95.967  81.758  83.170  1.00  0.00    -0.025 A 
ATOM      8  C   UNL     1      95.049  83.557  84.573  1.00  0.00     0.160 A 
ATOM      9  C   UNL     1      94.420  82.595  85.392  1.00  0.00     0.157 A 
ATOM     10  C   UNL     1      95.833  83.132  83.479  1.00  0.00     0.056 A 
ATOM     11  C   UNL     1      94.568  81.224  85.109  1.00  0.00     0.050 A 
ATOM     12  C   UNL     1      95.331  80.809  84.004  1.00  0.00     0.009 A 
BRANCH   8  13
ATOM     13  O   UNL     1      94.933  84.895  84.843  1.00  0.00    -0.493 OA
ATOM     14  C   UNL     1      95.713  85.734  83.969  1.00  0.00     0.278 C 
ENDBRANCH   8  13
BRANCH   9  15
ATOM     15  O   UNL     1      93.666  82.992  86.447  1.00  0.00    -0.504 OA
ATOM     16  H   UNL     1      93.089  83.710  86.176  1.00  0.00     0.293 HD
ENDBRANCH   9  15
ENDBRANCH   6   7
ENDBRANCH   3   6
ENDBRANCH   1   2
BRANCH   1  17
ATOM     17  C   UNL     1      96.929  83.032  77.897  1.00  0.00     0.010 C 
BRANCH  17  18
ATOM     18  C   UNL     1      96.398  84.250  77.092  1.00  0.00     0.001 C 
BRANCH  18  19
ATOM     19  C   UNL     1      96.964  84.328  75.649  1.00  0.00     0.000 C 
BRANCH  19  20
ATOM     20  C   UNL     1      97.873  83.112  75.307  1.00  0.00     0.003 C 
BRANCH  20  21
ATOM     21  C   UNL     1      99.068  83.430  74.350  1.00  0.00    -0.017 C 
ATOM     22  C   UNL     1     100.090  84.384  75.036  1.00  0.00     0.007 C 
ATOM     23  C   UNL     1      98.609  84.029  72.989  1.00  0.00     0.007 C 
ENDBRANCH  20  21
ENDBRANCH  19  20
ENDBRANCH  18  19
ENDBRANCH  17  18
ENDBRANCH   1  17
TORSDOF 10
ENDMDL
MODEL 10
REMARK VINA RESULT:    -5.548      4.432      7.235
REMARK INTER + INTRA:          -9.105
REMARK INTER:                  -8.445
REMARK INTRA:                  -0.660
REMARK UNBOUND:                -0.476
REMARK SMILES COc1cc(CNC(=O)CCCCCC(C)C)ccc1O
REMARK SMILES IDX 10 1 8 2 7 3 9 5 6 6 5 7 3 8 20 9 4 10 19 11 18 12 2 13 1 14
REMARK SMILES IDX 21 15 11 17 12 18 13 19 14 20 15 21 16 22 17 23
REMARK H PARENT 7 4 21 16
REMARK Flexibility Score: inf
ROOT
ATOM      1  C   UNL     1      91.487  78.433  84.437  1.00  0.00     0.100 C 
ENDROOT
BRANCH   1   2
ATOM      2  C   UNL     1      91.043  79.842  84.419  1.00  0.00     0.220 C 
ATOM      3  N   UNL     1      91.770  80.782  85.087  1.00  0.00    -0.352 N 
ATOM      4  H   UNL     1      92.508  80.413  85.671  1.00  0.00     0.163 HD
ATOM      5  O   UNL     1      90.027  80.152  83.751  1.00  0.00    -0.275 OA
BRANCH   3   6
ATOM      6  C   UNL     1      91.557  82.192  85.013  1.00  0.00     0.151 C 
BRANCH   6   7
ATOM      7  C   UNL     1      92.823  82.973  84.995  1.00  0.00    -0.025 A 
ATOM      8  C   UNL     1      94.151  84.899  85.754  1.00  0.00     0.160 A 
ATOM      9  C   UNL     1      95.255  84.426  85.015  1.00  0.00     0.157 A 
ATOM     10  C   UNL     1      92.936  84.181  85.724  1.00  0.00     0.056 A 
ATOM     11  C   UNL     1      95.146  83.241  84.265  1.00  0.00     0.050 A 
ATOM     12  C   UNL     1      93.941  82.517  84.259  1.00  0.00     0.009 A 
BRANCH   8  13
ATOM     13  O   UNL     1      94.230  86.062  86.475  1.00  0.00    -0.493 OA
ATOM     14  C   UNL     1      93.410  86.070  87.659  1.00  0.00     0.278 C 
ENDBRANCH   8  13
BRANCH   9  15
ATOM     15  O   UNL     1      96.426  85.110  85.034  1.00  0.00    -0.504 OA
ATOM     16  H   UNL     1      97.160  84.491  85.030  1.00  0.00     0.293 HD
ENDBRANCH   9  15
ENDBRANCH   6   7
ENDBRANCH   3   6
ENDBRANCH   1   2
BRANCH   1  17
ATOM     17  C   UNL     1      90.377  77.409  84.077  1.00  0.00     0.010 C 
BRANCH  17  18
ATOM     18  C   UNL     1      90.975  76.030  83.686  1.00  0.00     0.001 C 
BRANCH  18  19
ATOM     19  C   UNL     1      92.388  76.128  83.052  1.00  0.00     0.000 C 
BRANCH  19  20
ATOM     20  C   UNL     1      92.507  75.287  81.748  1.00  0.00     0.003 C 
BRANCH  20  21
ATOM     21  C   UNL     1      91.177  75.130  80.940  1.00  0.00    -0.017 C 
ATOM     22  C   UNL     1      90.687  73.652  80.959  1.00  0.00     0.007 C 
ATOM     23  C   UNL     1      91.298  75.633  79.473  1.00  0.00     0.007 C 
ENDBRANCH  20  21
ENDBRANCH  19  20
ENDBRANCH  18  19
ENDBRANCH  17  18
ENDBRANCH   1  17
TORSDOF 10
ENDMDL
