MODEL 1
REMARK VINA RESULT:    -7.610      0.000      0.000
REMARK INTER + INTRA:          -9.332
REMARK INTER:                  -8.945
REMARK INTRA:                  -0.387
REMARK UNBOUND:                -0.387
REMARK SMILES O=C(/C=C/C=C/c1ccc2c(c1)OCO2)N1CCCCC1
REMARK SMILES IDX 3 1 4 2 2 3 1 4 16 5 17 6 21 7 18 8 20 9 19 10 5 11 6 12
REMARK SMILES IDX 7 13 12 14 8 15 11 16 9 17 13 18 10 19 14 20 15 21
REMARK H PARENT
REMARK Flexibility Score: inf
ROOT
ATOM      1  C   UNL     1      97.509  83.906  76.823  1.00  0.00     0.071 C 
ATOM      2  C   UNL     1      96.394  83.961  77.549  1.00  0.00     0.006 C 
ENDROOT
BRANCH   1   3
ATOM      3  C   UNL     1      97.442  84.340  75.413  1.00  0.00     0.246 C 
ATOM      4  O   UNL     1      96.337  84.650  74.965  1.00  0.00    -0.270 OA
ATOM      5  N   UNL     1      98.629  84.364  74.684  1.00  0.00    -0.339 N 
ATOM      6  C   UNL     1      98.593  84.785  73.280  1.00  0.00     0.120 C 
ATOM      7  C   UNL     1      99.956  83.959  75.170  1.00  0.00     0.120 C 
ATOM      8  C   UNL     1      99.601  85.897  73.005  1.00  0.00     0.022 C 
ATOM      9  C   UNL     1     100.997  85.048  74.909  1.00  0.00     0.022 C 
ATOM     10  C   UNL     1     101.001  85.486  73.447  1.00  0.00     0.004 C 
ENDBRANCH   1   3
BRANCH   2  11
ATOM     11  C   UNL     1      96.360  83.557  78.939  1.00  0.00     0.001 C 
ATOM     12  C   UNL     1      97.460  83.187  79.615  1.00  0.00     0.008 C 
BRANCH  12  13
ATOM     13  C   UNL     1      97.481  82.760  81.024  1.00  0.00    -0.022 A 
ATOM     14  C   UNL     1      96.590  83.338  81.918  1.00  0.00     0.058 A 
ATOM     15  C   UNL     1      98.398  81.785  81.423  1.00  0.00     0.012 A 
ATOM     16  C   UNL     1      96.648  82.906  83.227  1.00  0.00     0.166 A 
ATOM     17  C   UNL     1      98.435  81.366  82.755  1.00  0.00     0.051 A 
ATOM     18  O   UNL     1      95.864  83.348  84.249  1.00  0.00    -0.454 OA
ATOM     19  C   UNL     1      97.546  81.946  83.635  1.00  0.00     0.165 A 
ATOM     20  C   UNL     1      96.370  82.558  85.345  1.00  0.00     0.468 C 
ATOM     21  O   UNL     1      97.437  81.666  84.962  1.00  0.00    -0.454 OA
ENDBRANCH  12  13
ENDBRANCH   2  11
TORSDOF 3
ENDMDL
MODEL 2
REMARK VINA RESULT:    -7.481      3.096      9.354
REMARK INTER + INTRA:          -9.180
REMARK INTER:                  -8.779
REMARK INTRA:                  -0.401
REMARK UNBOUND:                -0.387
REMARK SMILES O=C(/C=C/C=C/c1ccc2c(c1)OCO2)N1CCCCC1
REMARK SMILES IDX 3 1 4 2 2 3 1 4 16 5 17 6 21 7 18 8 20 9 19 10 5 11 6 12
REMARK SMILES IDX 7 13 12 14 8 15 11 16 9 17 13 18 10 19 14 20 15 21
REMARK H PARENT
REMARK Flexibility Score: inf
ROOT
ATOM      1  C   UNL     1      96.230  82.838  82.822  1.00  0.00     0.071 C 
ATOM      2  C   UNL     1      97.433  82.507  82.357  1.00  0.00     0.006 C 
ENDROOT
BRANCH   1   3
ATOM      3  C   UNL     1      96.034  82.867  84.285  1.00  0.00     0.246 C 
ATOM      4  O   UNL     1      96.879  83.457  84.961  1.00  0.00    -0.270 OA
ATOM      5  N   UNL     1      94.912  82.223  84.804  1.00  0.00    -0.339 N 
ATOM      6  C   UNL     1      94.694  82.230  86.253  1.00  0.00     0.120 C 
ATOM      7  C   UNL     1      93.909  81.472  84.035  1.00  0.00     0.120 C 
ATOM      8  C   UNL     1      93.298  82.733  86.604  1.00  0.00     0.022 C 
ATOM      9  C   UNL     1      92.493  81.946  84.362  1.00  0.00     0.022 C 
ATOM     10  C   UNL     1      92.228  81.936  85.865  1.00  0.00     0.004 C 
ENDBRANCH   1   3
BRANCH   2  11
ATOM     11  C   UNL     1      97.722  82.451  80.940  1.00  0.00     0.001 C 
ATOM     12  C   UNL     1      97.102  83.232  80.041  1.00  0.00     0.008 C 
BRANCH  12  13
ATOM     13  C   UNL     1      97.351  83.210  78.590  1.00  0.00    -0.022 A 
ATOM     14  C   UNL     1      96.610  84.045  77.764  1.00  0.00     0.058 A 
ATOM     15  C   UNL     1      98.328  82.349  78.083  1.00  0.00     0.012 A 
ATOM     16  C   UNL     1      96.879  83.988  76.412  1.00  0.00     0.166 A 
ATOM     17  C   UNL     1      98.580  82.313  76.709  1.00  0.00     0.051 A 
ATOM     18  O   UNL     1      96.264  84.722  75.445  1.00  0.00    -0.454 OA
ATOM     19  C   UNL     1      97.838  83.146  75.898  1.00  0.00     0.165 A 
ATOM     20  C   UNL     1      96.943  84.246  74.265  1.00  0.00     0.468 C 
ATOM     21  O   UNL     1      97.943  83.246  74.545  1.00  0.00    -0.454 OA
ENDBRANCH  12  13
ENDBRANCH   2  11
TORSDOF 3
ENDMDL
MODEL 3
REMARK VINA RESULT:    -7.328      2.331      3.406
REMARK INTER + INTRA:          -9.000
REMARK INTER:                  -8.699
REMARK INTRA:                  -0.301
REMARK UNBOUND:                -0.387
REMARK SMILES O=C(/C=C/C=C/c1ccc2c(c1)OCO2)N1CCCCC1
REMARK SMILES IDX 3 1 4 2 2 3 1 4 16 5 17 6 21 7 18 8 20 9 19 10 5 11 6 12
REMARK SMILES IDX 7 13 12 14 8 15 11 16 9 17 13 18 10 19 14 20 15 21
REMARK H PARENT
REMARK Flexibility Score: inf
ROOT
ATOM      1  C   UNL     1      97.415  83.124  78.546  1.00  0.00     0.071 C 
ATOM      2  C   UNL     1      97.675  82.982  79.845  1.00  0.00     0.006 C 
ENDROOT
BRANCH   1   3
ATOM      3  C   UNL     1      98.494  82.825  77.585  1.00  0.00     0.246 C 
ATOM      4  O   UNL     1      99.354  82.013  77.929  1.00  0.00    -0.270 OA
ATOM      5  N   UNL     1      98.471  83.483  76.356  1.00  0.00    -0.339 N 
ATOM      6  C   UNL     1      99.533  83.210  75.383  1.00  0.00     0.120 C 
ATOM      7  C   UNL     1      97.489  84.490  75.928  1.00  0.00     0.120 C 
ATOM      8  C   UNL     1      98.958  82.820  74.026  1.00  0.00     0.022 C 
ATOM      9  C   UNL     1      96.891  84.136  74.567  1.00  0.00     0.022 C 
ATOM     10  C   UNL     1      97.975  83.874  73.525  1.00  0.00     0.004 C 
ENDBRANCH   1   3
BRANCH   2  11
ATOM     11  C   UNL     1      96.681  83.252  80.862  1.00  0.00     0.001 C 
ATOM     12  C   UNL     1      96.888  82.999  82.165  1.00  0.00     0.008 C 
BRANCH  12  13
ATOM     13  C   UNL     1      95.911  83.246  83.238  1.00  0.00    -0.022 A 
ATOM     14  C   UNL     1      95.867  84.498  83.837  1.00  0.00     0.058 A 
ATOM     15  C   UNL     1      95.054  82.213  83.626  1.00  0.00     0.012 A 
ATOM     16  C   UNL     1      94.935  84.681  84.838  1.00  0.00     0.166 A 
ATOM     17  C   UNL     1      94.120  82.426  84.642  1.00  0.00     0.051 A 
ATOM     18  O   UNL     1      94.737  85.828  85.544  1.00  0.00    -0.454 OA
ATOM     19  C   UNL     1      94.085  83.673  85.230  1.00  0.00     0.165 A 
ATOM     20  C   UNL     1      93.667  85.428  86.423  1.00  0.00     0.468 C 
ATOM     21  O   UNL     1      93.247  84.062  86.230  1.00  0.00    -0.454 OA
ENDBRANCH  12  13
ENDBRANCH   2  11
TORSDOF 3
ENDMDL
MODEL 4
REMARK VINA RESULT:    -7.057     12.976     15.062
REMARK INTER + INTRA:          -8.681
REMARK INTER:                  -8.333
REMARK INTRA:                  -0.348
REMARK UNBOUND:                -0.387
REMARK SMILES O=C(/C=C/C=C/c1ccc2c(c1)OCO2)N1CCCCC1
REMARK SMILES IDX 3 1 4 2 2 3 1 4 16 5 17 6 21 7 18 8 20 9 19 10 5 11 6 12
REMARK SMILES IDX 7 13 12 14 8 15 11 16 9 17 13 18 10 19 14 20 15 21
REMARK H PARENT
REMARK Flexibility Score: inf
ROOT
ATOM      1  C   UNL     1      94.448  98.289  74.610  1.00  0.00     0.071 C 
ATOM      2  C   UNL     1      94.686  97.044  74.202  1.00  0.00     0.006 C 
ENDROOT
BRANCH   1   3
ATOM      3  C   UNL     1      95.358  99.357  74.150  1.00  0.00     0.246 C 
ATOM      4  O   UNL     1      96.302  99.656  74.883  1.00  0.00    -0.270 OA
ATOM      5  N   UNL     1      95.087  99.957  72.921  1.00  0.00    -0.339 N 
ATOM      6  C   UNL     1      95.969 101.024  72.440  1.00  0.00     0.120 C 
ATOM      7  C   UNL     1      93.947  99.658  72.041  1.00  0.00     0.120 C 
ATOM      8  C   UNL     1      96.473 100.737  71.030  1.00  0.00     0.022 C 
ATOM      9  C   UNL     1      94.411  99.368  70.614  1.00  0.00     0.022 C 
ATOM     10  C   UNL     1      95.310 100.478  70.077  1.00  0.00     0.004 C 
ENDBRANCH   1   3
BRANCH   2  11
ATOM     11  C   UNL     1      93.851  95.931  74.600  1.00  0.00     0.001 C 
ATOM     12  C   UNL     1      92.830  96.061  75.462  1.00  0.00     0.008 C 
BRANCH  12  13
ATOM     13  C   UNL     1      91.955  94.963  75.907  1.00  0.00    -0.022 A 
ATOM     14  C   UNL     1      91.612  93.965  75.005  1.00  0.00     0.058 A 
ATOM     15  C   UNL     1      91.493  94.956  77.226  1.00  0.00     0.012 A 
ATOM     16  C   UNL     1      90.791  92.957  75.468  1.00  0.00     0.166 A 
ATOM     17  C   UNL     1      90.663  93.924  77.668  1.00  0.00     0.051 A 
ATOM     18  O   UNL     1      90.344  91.895  74.743  1.00  0.00    -0.454 OA
ATOM     19  C   UNL     1      90.329  92.937  76.764  1.00  0.00     0.165 A 
ATOM     20  C   UNL     1      89.549  91.205  75.729  1.00  0.00     0.468 C 
ATOM     21  O   UNL     1      89.535  91.860  77.013  1.00  0.00    -0.454 OA
ENDBRANCH  12  13
ENDBRANCH   2  11
TORSDOF 3
ENDMDL
MODEL 5
REMARK VINA RESULT:    -7.022     12.986     14.931
REMARK INTER + INTRA:          -8.641
REMARK INTER:                  -8.235
REMARK INTRA:                  -0.406
REMARK UNBOUND:                -0.387
REMARK SMILES O=C(/C=C/C=C/c1ccc2c(c1)OCO2)N1CCCCC1
REMARK SMILES IDX 3 1 4 2 2 3 1 4 16 5 17 6 21 7 18 8 20 9 19 10 5 11 6 12
REMARK SMILES IDX 7 13 12 14 8 15 11 16 9 17 13 18 10 19 14 20 15 21
REMARK H PARENT
REMARK Flexibility Score: inf
ROOT
ATOM      1  C   UNL     1      94.497  98.173  75.269  1.00  0.00     0.071 C 
ATOM      2  C   UNL     1      94.557  97.059  74.542  1.00  0.00     0.006 C 
ENDROOT
BRANCH   1   3
ATOM      3  C   UNL     1      95.450  99.257  74.960  1.00  0.00     0.246 C 
ATOM      4  O   UNL     1      95.344  99.812  73.865  1.00  0.00    -0.270 OA
ATOM      5  N   UNL     1      96.406  99.576  75.923  1.00  0.00    -0.339 N 
ATOM      6  C   UNL     1      97.369 100.645  75.642  1.00  0.00     0.120 C 
ATOM      7  C   UNL     1      96.590  98.907  77.219  1.00  0.00     0.120 C 
ATOM      8  C   UNL     1      97.388 101.685  76.757  1.00  0.00     0.022 C 
ATOM      9  C   UNL     1      96.618  99.919  78.365  1.00  0.00     0.022 C 
ATOM     10  C   UNL     1      97.634 101.029  78.112  1.00  0.00     0.004 C 
ENDBRANCH   1   3
BRANCH   2  11
ATOM     11  C   UNL     1      93.666  95.941  74.770  1.00  0.00     0.001 C 
ATOM     12  C   UNL     1      92.810  95.894  75.803  1.00  0.00     0.008 C 
BRANCH  12  13
ATOM     13  C   UNL     1      91.889  94.780  76.086  1.00  0.00    -0.022 A 
ATOM     14  C   UNL     1      91.614  93.860  75.084  1.00  0.00     0.058 A 
ATOM     15  C   UNL     1      91.316  94.681  77.357  1.00  0.00     0.012 A 
ATOM     16  C   UNL     1      90.745  92.834  75.398  1.00  0.00     0.166 A 
ATOM     17  C   UNL     1      90.440  93.633  77.647  1.00  0.00     0.051 A 
ATOM     18  O   UNL     1      90.350  91.838  74.558  1.00  0.00    -0.454 OA
ATOM     19  C   UNL     1      90.174  92.723  76.645  1.00  0.00     0.165 A 
ATOM     20  C   UNL     1      89.467  91.089  75.416  1.00  0.00     0.468 C 
ATOM     21  O   UNL     1      89.350  91.645  76.742  1.00  0.00    -0.454 OA
ENDBRANCH  12  13
ENDBRANCH   2  11
TORSDOF 3
ENDMDL
MODEL 6
REMARK VINA RESULT:    -6.831      1.847      2.634
REMARK INTER + INTRA:          -8.415
REMARK INTER:                  -8.054
REMARK INTRA:                  -0.361
REMARK UNBOUND:                -0.387
REMARK SMILES O=C(/C=C/C=C/c1ccc2c(c1)OCO2)N1CCCCC1
REMARK SMILES IDX 3 1 4 2 2 3 1 4 16 5 17 6 21 7 18 8 20 9 19 10 5 11 6 12
REMARK SMILES IDX 7 13 12 14 8 15 11 16 9 17 13 18 10 19 14 20 15 21
REMARK H PARENT
REMARK Flexibility Score: inf
ROOT
ATOM      1  C   UNL     1      98.794  82.275  77.831  1.00  0.00     0.071 C 
ATOM      2  C   UNL     1      97.545  82.457  78.255  1.00  0.00     0.006 C 
ENDROOT
BRANCH   1   3
ATOM      3  C   UNL     1      98.994  81.711  76.482  1.00  0.00     0.246 C 
ATOM      4  O   UNL     1      99.013  80.484  76.374  1.00  0.00    -0.270 OA
ATOM      5  N   UNL     1      99.154  82.603  75.422  1.00  0.00    -0.339 N 
ATOM      6  C   UNL     1      99.360  82.073  74.071  1.00  0.00     0.120 C 
ATOM      7  C   UNL     1      99.183  84.070  75.518  1.00  0.00     0.120 C 
ATOM      8  C   UNL     1      98.367  82.671  73.081  1.00  0.00     0.022 C 
ATOM      9  C   UNL     1      98.201  84.708  74.536  1.00  0.00     0.022 C 
ATOM     10  C   UNL     1      98.412  84.195  73.114  1.00  0.00     0.004 C 
ENDBRANCH   1   3
BRANCH   2  11
ATOM     11  C   UNL     1      97.248  83.003  79.563  1.00  0.00     0.001 C 
ATOM     12  C   UNL     1      97.216  82.250  80.674  1.00  0.00     0.008 C 
BRANCH  12  13
ATOM     13  C   UNL     1      96.912  82.752  82.025  1.00  0.00    -0.022 A 
ATOM     14  C   UNL     1      97.360  82.037  83.128  1.00  0.00     0.058 A 
ATOM     15  C   UNL     1      96.181  83.935  82.160  1.00  0.00     0.012 A 
ATOM     16  C   UNL     1      97.051  82.547  84.372  1.00  0.00     0.166 A 
ATOM     17  C   UNL     1      95.882  84.428  83.432  1.00  0.00     0.051 A 
ATOM     18  O   UNL     1      97.396  81.996  85.568  1.00  0.00    -0.454 OA
ATOM     19  C   UNL     1      96.331  83.711  84.520  1.00  0.00     0.165 A 
ATOM     20  C   UNL     1      96.813  82.944  86.486  1.00  0.00     0.468 C 
ATOM     21  O   UNL     1      96.136  84.035  85.828  1.00  0.00    -0.454 OA
ENDBRANCH  12  13
ENDBRANCH   2  11
TORSDOF 3
ENDMDL
MODEL 7
REMARK VINA RESULT:    -6.778     17.852     20.737
REMARK INTER + INTRA:          -8.353
REMARK INTER:                  -8.011
REMARK INTRA:                  -0.342
REMARK UNBOUND:                -0.387
REMARK SMILES O=C(/C=C/C=C/c1ccc2c(c1)OCO2)N1CCCCC1
REMARK SMILES IDX 3 1 4 2 2 3 1 4 16 5 17 6 21 7 18 8 20 9 19 10 5 11 6 12
REMARK SMILES IDX 7 13 12 14 8 15 11 16 9 17 13 18 10 19 14 20 15 21
REMARK H PARENT
REMARK Flexibility Score: inf
ROOT
ATOM      1  C   UNL     1      86.736  70.102  71.634  1.00  0.00     0.071 C 
ATOM      2  C   UNL     1      87.851  70.303  70.935  1.00  0.00     0.006 C 
ENDROOT
BRANCH   1   3
ATOM      3  C   UNL     1      86.851  69.440  72.949  1.00  0.00     0.246 C 
ATOM      4  O   UNL     1      87.720  69.852  73.719  1.00  0.00    -0.270 OA
ATOM      5  N   UNL     1      85.974  68.393  73.229  1.00  0.00    -0.339 N 
ATOM      6  C   UNL     1      86.068  67.713  74.524  1.00  0.00     0.120 C 
ATOM      7  C   UNL     1      84.956  67.846  72.319  1.00  0.00     0.120 C 
ATOM      8  C   UNL     1      84.717  67.673  75.231  1.00  0.00     0.022 C 
ATOM      9  C   UNL     1      83.586  67.786  72.994  1.00  0.00     0.022 C 
ATOM     10  C   UNL     1      83.649  67.057  74.333  1.00  0.00     0.004 C 
ENDBRANCH   1   3
BRANCH   2  11
ATOM     11  C   UNL     1      87.840  70.943  69.636  1.00  0.00     0.001 C 
ATOM     12  C   UNL     1      88.683  71.935  69.308  1.00  0.00     0.008 C 
BRANCH  12  13
ATOM     13  C   UNL     1      88.709  72.625  68.007  1.00  0.00    -0.022 A 
ATOM     14  C   UNL     1      89.888  73.222  67.583  1.00  0.00     0.058 A 
ATOM     15  C   UNL     1      87.545  72.660  67.235  1.00  0.00     0.012 A 
ATOM     16  C   UNL     1      89.863  73.856  66.357  1.00  0.00     0.166 A 
ATOM     17  C   UNL     1      87.548  73.309  65.998  1.00  0.00     0.051 A 
ATOM     18  O   UNL     1      90.910  74.498  65.769  1.00  0.00    -0.454 OA
ATOM     19  C   UNL     1      88.725  73.899  65.586  1.00  0.00     0.165 A 
ATOM     20  C   UNL     1      90.302  74.949  64.542  1.00  0.00     0.468 C 
ATOM     21  O   UNL     1      88.915  74.572  64.419  1.00  0.00    -0.454 OA
ENDBRANCH  12  13
ENDBRANCH   2  11
TORSDOF 3
ENDMDL
MODEL 8
REMARK VINA RESULT:    -6.661      3.025      9.310
REMARK INTER + INTRA:          -8.216
REMARK INTER:                  -7.837
REMARK INTRA:                  -0.379
REMARK UNBOUND:                -0.387
REMARK SMILES O=C(/C=C/C=C/c1ccc2c(c1)OCO2)N1CCCCC1
REMARK SMILES IDX 3 1 4 2 2 3 1 4 16 5 17 6 21 7 18 8 20 9 19 10 5 11 6 12
REMARK SMILES IDX 7 13 12 14 8 15 11 16 9 17 13 18 10 19 14 20 15 21
REMARK H PARENT
REMARK Flexibility Score: inf
ROOT
ATOM      1  C   UNL     1      96.311  81.712  82.643  1.00  0.00     0.071 C 
ATOM      2  C   UNL     1      97.269  81.793  81.722  1.00  0.00     0.006 C 
ENDROOT
BRANCH   1   3
ATOM      3  C   UNL     1      96.578  80.912  83.855  1.00  0.00     0.246 C 
ATOM      4  O   UNL     1      96.591  79.686  83.736  1.00  0.00    -0.270 OA
ATOM      5  N   UNL     1      96.793  81.595  85.051  1.00  0.00    -0.339 N 
ATOM      6  C   UNL     1      97.056  80.827  86.271  1.00  0.00     0.120 C 
ATOM      7  C   UNL     1      96.741  83.052  85.240  1.00  0.00     0.120 C 
ATOM      8  C   UNL     1      98.330  81.299  86.963  1.00  0.00     0.022 C 
ATOM      9  C   UNL     1      98.002  83.565  85.936  1.00  0.00     0.022 C 
ATOM     10  C   UNL     1      98.284  82.801  87.227  1.00  0.00     0.004 C 
ENDBRANCH   1   3
BRANCH   2  11
ATOM     11  C   UNL     1      97.100  82.553  80.501  1.00  0.00     0.001 C 
ATOM     12  C   UNL     1      97.495  82.098  79.302  1.00  0.00     0.008 C 
BRANCH  12  13
ATOM     13  C   UNL     1      97.356  82.831  78.032  1.00  0.00    -0.022 A 
ATOM     14  C   UNL     1      98.088  82.417  76.928  1.00  0.00     0.058 A 
ATOM     15  C   UNL     1      96.489  83.926  77.974  1.00  0.00     0.012 A 
ATOM     16  C   UNL     1      97.923  83.135  75.762  1.00  0.00     0.166 A 
ATOM     17  C   UNL     1      96.342  84.635  76.780  1.00  0.00     0.051 A 
ATOM     18  O   UNL     1      98.549  82.889  74.578  1.00  0.00    -0.454 OA
ATOM     19  C   UNL     1      97.073  84.215  75.689  1.00  0.00     0.165 A 
ATOM     20  C   UNL     1      97.997  83.935  73.753  1.00  0.00     0.468 C 
ATOM     21  O   UNL     1      97.060  84.781  74.452  1.00  0.00    -0.454 OA
ENDBRANCH  12  13
ENDBRANCH   2  11
TORSDOF 3
ENDMDL
MODEL 9
REMARK VINA RESULT:    -6.595      3.336      9.486
REMARK INTER + INTRA:          -8.138
REMARK INTER:                  -7.763
REMARK INTRA:                  -0.375
REMARK UNBOUND:                -0.387
REMARK SMILES O=C(/C=C/C=C/c1ccc2c(c1)OCO2)N1CCCCC1
REMARK SMILES IDX 3 1 4 2 2 3 1 4 16 5 17 6 21 7 18 8 20 9 19 10 5 11 6 12
REMARK SMILES IDX 7 13 12 14 8 15 11 16 9 17 13 18 10 19 14 20 15 21
REMARK H PARENT
REMARK Flexibility Score: inf
ROOT
ATOM      1  C   UNL     1      96.400  81.697  82.672  1.00  0.00     0.071 C 
ATOM      2  C   UNL     1      96.774  82.913  82.279  1.00  0.00     0.006 C 
ENDROOT
BRANCH   1   3
ATOM      3  C   UNL     1      96.505  81.368  84.108  1.00  0.00     0.246 C 
ATOM      4  O   UNL     1      96.805  82.280  84.880  1.00  0.00    -0.270 OA
ATOM      5  N   UNL     1      96.262  80.050  84.492  1.00  0.00    -0.339 N 
ATOM      6  C   UNL     1      96.364  79.692  85.910  1.00  0.00     0.120 C 
ATOM      7  C   UNL     1      95.947  78.928  83.596  1.00  0.00     0.120 C 
ATOM      8  C   UNL     1      95.104  78.986  86.398  1.00  0.00     0.022 C 
ATOM      9  C   UNL     1      94.689  78.191  84.055  1.00  0.00     0.022 C 
ATOM     10  C   UNL     1      94.779  77.781  85.522  1.00  0.00     0.004 C 
ENDBRANCH   1   3
BRANCH   2  11
ATOM     11  C   UNL     1      96.709  83.328  80.894  1.00  0.00     0.001 C 
ATOM     12  C   UNL     1      97.489  82.797  79.939  1.00  0.00     0.008 C 
BRANCH  12  13
ATOM     13  C   UNL     1      97.469  83.186  78.519  1.00  0.00    -0.022 A 
ATOM     14  C   UNL     1      98.516  82.794  77.696  1.00  0.00     0.058 A 
ATOM     15  C   UNL     1      96.396  83.942  78.038  1.00  0.00     0.012 A 
ATOM     16  C   UNL     1      98.452  83.183  76.374  1.00  0.00     0.166 A 
ATOM     17  C   UNL     1      96.358  84.322  76.695  1.00  0.00     0.051 A 
ATOM     18  O   UNL     1      99.375  82.900  75.413  1.00  0.00    -0.454 OA
ATOM     19  C   UNL     1      97.402  83.927  75.886  1.00  0.00     0.165 A 
ATOM     20  C   UNL     1      98.788  83.550  74.268  1.00  0.00     0.468 C 
ATOM     21  O   UNL     1      97.536  84.203  74.560  1.00  0.00    -0.454 OA
ENDBRANCH  12  13
ENDBRANCH   2  11
TORSDOF 3
ENDMDL
MODEL 10
REMARK VINA RESULT:    -6.582      9.225     11.625
REMARK INTER + INTRA:          -8.123
REMARK INTER:                  -7.718
REMARK INTRA:                  -0.404
REMARK UNBOUND:                -0.387
REMARK SMILES O=C(/C=C/C=C/c1ccc2c(c1)OCO2)N1CCCCC1
REMARK SMILES IDX 3 1 4 2 2 3 1 4 16 5 17 6 21 7 18 8 20 9 19 10 5 11 6 12
REMARK SMILES IDX 7 13 12 14 8 15 11 16 9 17 13 18 10 19 14 20 15 21
REMARK H PARENT
REMARK Flexibility Score: inf
ROOT
ATOM      1  C   UNL     1      90.837  75.605  83.307  1.00  0.00     0.071 C 
ATOM      2  C   UNL     1      90.010  76.329  84.059  1.00  0.00     0.006 C 
ENDROOT
BRANCH   1   3
ATOM      3  C   UNL     1      90.470  74.203  83.024  1.00  0.00     0.246 C 
ATOM      4  O   UNL     1      90.047  73.525  83.961  1.00  0.00    -0.270 OA
ATOM      5  N   UNL     1      90.633  73.739  81.720  1.00  0.00    -0.339 N 
ATOM      6  C   UNL     1      90.282  72.350  81.409  1.00  0.00     0.120 C 
ATOM      7  C   UNL     1      91.177  74.504  80.587  1.00  0.00     0.120 C 
ATOM      8  C   UNL     1      89.322  72.268  80.227  1.00  0.00     0.022 C 
ATOM      9  C   UNL     1      90.243  74.443  79.379  1.00  0.00     0.022 C 
ATOM     10  C   UNL     1      89.883  73.005  79.015  1.00  0.00     0.004 C 
ENDBRANCH   1   3
BRANCH   2  11
ATOM     11  C   UNL     1      90.284  77.711  84.391  1.00  0.00     0.001 C 
ATOM     12  C   UNL     1      91.390  78.352  83.980  1.00  0.00     0.008 C 
BRANCH  12  13
ATOM     13  C   UNL     1      91.721  79.752  84.295  1.00  0.00    -0.022 A 
ATOM     14  C   UNL     1      92.974  80.050  84.812  1.00  0.00     0.058 A 
ATOM     15  C   UNL     1      90.763  80.743  84.065  1.00  0.00     0.012 A 
ATOM     16  C   UNL     1      93.238  81.375  85.090  1.00  0.00     0.166 A 
ATOM     17  C   UNL     1      91.056  82.077  84.357  1.00  0.00     0.051 A 
ATOM     18  O   UNL     1      94.400  81.868  85.600  1.00  0.00    -0.454 OA
ATOM     19  C   UNL     1      92.304  82.362  84.869  1.00  0.00     0.165 A 
ATOM     20  C   UNL     1      94.093  83.275  85.674  1.00  0.00     0.468 C 
ATOM     21  O   UNL     1      92.765  83.596  85.212  1.00  0.00    -0.454 OA
ENDBRANCH  12  13
ENDBRANCH   2  11
TORSDOF 3
ENDMDL
