MODEL 1
REMARK VINA RESULT:    -6.422      0.000      0.000
REMARK INTER + INTRA:         -11.166
REMARK INTER:                 -10.364
REMARK INTRA:                  -0.802
REMARK UNBOUND:                -0.802
REMARK SMILES COc1cc(CNC(=O)CCCCCCC(C)C)ccc1O
REMARK SMILES IDX 11 1 10 2 8 3 7 4 9 6 6 7 5 8 3 9 21 10 4 11 20 12 19 13
REMARK SMILES IDX 2 14 1 15 22 16 12 18 13 19 14 20 15 21 16 22 17 23 18 24
REMARK H PARENT 7 5 22 17
REMARK Flexibility Score: inf
ROOT
ATOM      1  C   UNL     1      94.084  98.506  75.501  1.00  0.00     0.010 C 
ENDROOT
BRANCH   1   2
ATOM      2  C   UNL     1      92.918  99.435  75.064  1.00  0.00     0.100 C 
BRANCH   2   3
ATOM      3  C   UNL     1      92.971  99.806  73.632  1.00  0.00     0.220 C 
ATOM      4  N   UNL     1      91.820  99.934  72.910  1.00  0.00    -0.352 N 
ATOM      5  H   UNL     1      90.977  99.715  73.420  1.00  0.00     0.163 HD
ATOM      6  O   UNL     1      94.091 100.021  73.107  1.00  0.00    -0.275 OA
BRANCH   4   7
ATOM      7  C   UNL     1      91.745 100.342  71.540  1.00  0.00     0.151 C 
BRANCH   7   8
ATOM      8  C   UNL     1      90.686  99.630  70.773  1.00  0.00    -0.025 A 
ATOM      9  C   UNL     1      89.072  99.575  68.918  1.00  0.00     0.160 A 
ATOM     10  C   UNL     1      88.698  98.262  69.279  1.00  0.00     0.157 A 
ATOM     11  C   UNL     1      90.048 100.254  69.678  1.00  0.00     0.056 A 
ATOM     12  C   UNL     1      89.298  97.644  70.391  1.00  0.00     0.050 A 
ATOM     13  C   UNL     1      90.293  98.318  71.127  1.00  0.00     0.009 A 
BRANCH   9  14
ATOM     14  O   UNL     1      88.467 100.200  67.862  1.00  0.00    -0.493 OA
ATOM     15  C   UNL     1      89.084 101.447  67.494  1.00  0.00     0.278 C 
ENDBRANCH   9  14
BRANCH  10  16
ATOM     16  O   UNL     1      87.760  97.585  68.567  1.00  0.00    -0.504 OA
ATOM     17  H   UNL     1      88.136  97.306  67.728  1.00  0.00     0.293 HD
ENDBRANCH  10  16
ENDBRANCH   7   8
ENDBRANCH   4   7
ENDBRANCH   2   3
ENDBRANCH   1   2
BRANCH   1  18
ATOM     18  C   UNL     1      93.593  97.327  76.389  1.00  0.00     0.001 C 
BRANCH  18  19
ATOM     19  C   UNL     1      94.296  95.975  76.081  1.00  0.00     0.000 C 
BRANCH  19  20
ATOM     20  C   UNL     1      93.998  94.913  77.175  1.00  0.00     0.000 C 
BRANCH  20  21
ATOM     21  C   UNL     1      93.004  95.388  78.271  1.00  0.00     0.003 C 
BRANCH  21  22
ATOM     22  C   UNL     1      91.577  94.756  78.173  1.00  0.00    -0.017 C 
ATOM     23  C   UNL     1      91.617  93.450  77.330  1.00  0.00     0.007 C 
ATOM     24  C   UNL     1      90.498  95.730  77.615  1.00  0.00     0.007 C 
ENDBRANCH  21  22
ENDBRANCH  20  21
ENDBRANCH  19  20
ENDBRANCH  18  19
ENDBRANCH   1  18
TORSDOF 11
ENDMDL
MODEL 2
REMARK VINA RESULT:    -5.700     18.174     21.175
REMARK INTER + INTRA:         -10.001
REMARK INTER:                  -9.484
REMARK INTRA:                  -0.517
REMARK UNBOUND:                -0.802
REMARK SMILES COc1cc(CNC(=O)CCCCCCC(C)C)ccc1O
REMARK SMILES IDX 11 1 10 2 8 3 7 4 9 6 6 7 5 8 3 9 21 10 4 11 20 12 19 13
REMARK SMILES IDX 2 14 1 15 22 16 12 18 13 19 14 20 15 21 16 22 17 23 18 24
REMARK H PARENT 7 5 22 17
REMARK Flexibility Score: inf
ROOT
ATOM      1  C   UNL     1      97.662  83.993  84.611  1.00  0.00     0.010 C 
ENDROOT
BRANCH   1   2
ATOM      2  C   UNL     1      96.345  84.275  85.386  1.00  0.00     0.100 C 
BRANCH   2   3
ATOM      3  C   UNL     1      95.862  83.110  86.162  1.00  0.00     0.220 C 
ATOM      4  N   UNL     1      94.562  83.046  86.572  1.00  0.00    -0.352 N 
ATOM      5  H   UNL     1      94.007  83.857  86.341  1.00  0.00     0.163 HD
ATOM      6  O   UNL     1      96.665  82.178  86.410  1.00  0.00    -0.275 OA
BRANCH   4   7
ATOM      7  C   UNL     1      93.971  81.948  87.274  1.00  0.00     0.151 C 
BRANCH   7   8
ATOM      8  C   UNL     1      92.630  81.569  86.748  1.00  0.00    -0.025 A 
ATOM      9  C   UNL     1      91.145  79.915  85.697  1.00  0.00     0.160 A 
ATOM     10  C   UNL     1      90.068  80.823  85.784  1.00  0.00     0.157 A 
ATOM     11  C   UNL     1      92.420  80.301  86.161  1.00  0.00     0.056 A 
ATOM     12  C   UNL     1      90.273  82.103  86.331  1.00  0.00     0.050 A 
ATOM     13  C   UNL     1      91.542  82.471  86.820  1.00  0.00     0.009 A 
BRANCH   9  14
ATOM     14  O   UNL     1      90.965  78.682  85.130  1.00  0.00    -0.493 OA
ATOM     15  C   UNL     1      91.950  77.711  85.530  1.00  0.00     0.278 C 
ENDBRANCH   9  14
BRANCH  10  16
ATOM     16  O   UNL     1      88.829  80.479  85.343  1.00  0.00    -0.504 OA
ATOM     17  H   UNL     1      88.185  81.106  85.680  1.00  0.00     0.293 HD
ENDBRANCH  10  16
ENDBRANCH   7   8
ENDBRANCH   4   7
ENDBRANCH   2   3
ENDBRANCH   1   2
BRANCH   1  18
ATOM     18  C   UNL     1      97.396  83.422  83.189  1.00  0.00     0.001 C 
BRANCH  18  19
ATOM     19  C   UNL     1      98.631  82.724  82.553  1.00  0.00     0.000 C 
BRANCH  19  20
ATOM     20  C   UNL     1      98.866  83.198  81.091  1.00  0.00     0.000 C 
BRANCH  20  21
ATOM     21  C   UNL     1      98.724  82.074  80.027  1.00  0.00     0.003 C 
BRANCH  21  22
ATOM     22  C   UNL     1      98.522  82.586  78.564  1.00  0.00    -0.017 C 
ATOM     23  C   UNL     1      99.879  83.034  77.952  1.00  0.00     0.007 C 
ATOM     24  C   UNL     1      97.466  83.724  78.440  1.00  0.00     0.007 C 
ENDBRANCH  21  22
ENDBRANCH  20  21
ENDBRANCH  19  20
ENDBRANCH  18  19
ENDBRANCH   1  18
TORSDOF 11
ENDMDL
MODEL 3
REMARK VINA RESULT:    -5.660     20.676     23.284
REMARK INTER + INTRA:          -9.936
REMARK INTER:                  -8.872
REMARK INTRA:                  -1.065
REMARK UNBOUND:                -0.802
REMARK SMILES COc1cc(CNC(=O)CCCCCCC(C)C)ccc1O
REMARK SMILES IDX 11 1 10 2 8 3 7 4 9 6 6 7 5 8 3 9 21 10 4 11 20 12 19 13
REMARK SMILES IDX 2 14 1 15 22 16 12 18 13 19 14 20 15 21 16 22 17 23 18 24
REMARK H PARENT 7 5 22 17
REMARK Flexibility Score: inf
ROOT
ATOM      1  C   UNL     1      77.591  83.599  67.519  1.00  0.00     0.010 C 
ENDROOT
BRANCH   1   2
ATOM      2  C   UNL     1      77.697  84.722  66.452  1.00  0.00     0.100 C 
BRANCH   2   3
ATOM      3  C   UNL     1      77.118  84.342  65.143  1.00  0.00     0.220 C 
ATOM      4  N   UNL     1      75.779  84.473  64.918  1.00  0.00    -0.352 N 
ATOM      5  H   UNL     1      75.248  84.796  65.713  1.00  0.00     0.163 HD
ATOM      6  O   UNL     1      77.888  83.923  64.244  1.00  0.00    -0.275 OA
BRANCH   4   7
ATOM      7  C   UNL     1      75.118  84.194  63.679  1.00  0.00     0.151 C 
BRANCH   7   8
ATOM      8  C   UNL     1      74.308  82.945  63.715  1.00  0.00    -0.025 A 
ATOM      9  C   UNL     1      72.117  81.828  63.704  1.00  0.00     0.160 A 
ATOM     10  C   UNL     1      72.757  80.569  63.739  1.00  0.00     0.157 A 
ATOM     11  C   UNL     1      72.896  83.004  63.711  1.00  0.00     0.056 A 
ATOM     12  C   UNL     1      74.161  80.498  63.782  1.00  0.00     0.050 A 
ATOM     13  C   UNL     1      74.932  81.677  63.760  1.00  0.00     0.009 A 
BRANCH   9  14
ATOM     14  O   UNL     1      70.751  81.909  63.702  1.00  0.00    -0.493 OA
ATOM     15  C   UNL     1      70.219  82.755  64.737  1.00  0.00     0.278 C 
ENDBRANCH   9  14
BRANCH  10  16
ATOM     16  O   UNL     1      72.032  79.419  63.734  1.00  0.00    -0.504 OA
ATOM     17  H   UNL     1      72.223  78.925  62.934  1.00  0.00     0.293 HD
ENDBRANCH  10  16
ENDBRANCH   7   8
ENDBRANCH   4   7
ENDBRANCH   2   3
ENDBRANCH   1   2
BRANCH   1  18
ATOM     18  C   UNL     1      76.417  83.841  68.511  1.00  0.00     0.001 C 
BRANCH  18  19
ATOM     19  C   UNL     1      76.868  83.976  69.993  1.00  0.00     0.000 C 
BRANCH  19  20
ATOM     20  C   UNL     1      75.888  84.865  70.810  1.00  0.00     0.000 C 
BRANCH  20  21
ATOM     21  C   UNL     1      75.382  86.121  70.049  1.00  0.00     0.003 C 
BRANCH  21  22
ATOM     22  C   UNL     1      76.369  87.334  70.067  1.00  0.00    -0.017 C 
ATOM     23  C   UNL     1      75.594  88.663  70.285  1.00  0.00     0.007 C 
ATOM     24  C   UNL     1      77.267  87.428  68.798  1.00  0.00     0.007 C 
ENDBRANCH  21  22
ENDBRANCH  20  21
ENDBRANCH  19  20
ENDBRANCH  18  19
ENDBRANCH   1  18
TORSDOF 11
ENDMDL
MODEL 4
REMARK VINA RESULT:    -5.628     17.277     20.409
REMARK INTER + INTRA:          -9.885
REMARK INTER:                  -8.853
REMARK INTRA:                  -1.032
REMARK UNBOUND:                -0.802
REMARK SMILES COc1cc(CNC(=O)CCCCCCC(C)C)ccc1O
REMARK SMILES IDX 11 1 10 2 8 3 7 4 9 6 6 7 5 8 3 9 21 10 4 11 20 12 19 13
REMARK SMILES IDX 2 14 1 15 22 16 12 18 13 19 14 20 15 21 16 22 17 23 18 24
REMARK H PARENT 7 5 22 17
REMARK Flexibility Score: inf
ROOT
ATOM      1  C   UNL     1      98.518  82.661  78.966  1.00  0.00     0.010 C 
ENDROOT
BRANCH   1   2
ATOM      2  C   UNL     1      99.366  83.151  80.172  1.00  0.00     0.100 C 
BRANCH   2   3
ATOM      3  C   UNL     1      99.402  82.183  81.292  1.00  0.00     0.220 C 
ATOM      4  N   UNL     1      99.517  82.622  82.579  1.00  0.00    -0.352 N 
ATOM      5  H   UNL     1      99.616  83.622  82.675  1.00  0.00     0.163 HD
ATOM      6  O   UNL     1      99.300  80.959  81.033  1.00  0.00    -0.275 OA
BRANCH   4   7
ATOM      7  C   UNL     1      99.505  81.787  83.741  1.00  0.00     0.151 C 
BRANCH   7   8
ATOM      8  C   UNL     1      98.292  81.974  84.585  1.00  0.00    -0.025 A 
ATOM      9  C   UNL     1      96.589  83.450  85.569  1.00  0.00     0.160 A 
ATOM     10  C   UNL     1      95.956  82.332  86.155  1.00  0.00     0.157 A 
ATOM     11  C   UNL     1      97.761  83.265  84.805  1.00  0.00     0.056 A 
ATOM     12  C   UNL     1      96.497  81.047  85.975  1.00  0.00     0.050 A 
ATOM     13  C   UNL     1      97.651  80.866  85.187  1.00  0.00     0.009 A 
BRANCH   9  14
ATOM     14  O   UNL     1      96.093  84.709  85.770  1.00  0.00    -0.493 OA
ATOM     15  C   UNL     1      97.025  85.758  85.446  1.00  0.00     0.278 C 
ENDBRANCH   9  14
BRANCH  10  16
ATOM     16  O   UNL     1      94.827  82.481  86.897  1.00  0.00    -0.504 OA
ATOM     17  H   UNL     1      94.835  83.343  87.321  1.00  0.00     0.293 HD
ENDBRANCH  10  16
ENDBRANCH   7   8
ENDBRANCH   4   7
ENDBRANCH   2   3
ENDBRANCH   1   2
BRANCH   1  18
ATOM     18  C   UNL     1      97.440  83.700  78.546  1.00  0.00     0.001 C 
BRANCH  18  19
ATOM     19  C   UNL     1      97.691  84.334  77.148  1.00  0.00     0.000 C 
BRANCH  19  20
ATOM     20  C   UNL     1      98.700  83.496  76.314  1.00  0.00     0.000 C 
BRANCH  20  21
ATOM     21  C   UNL     1      99.850  84.328  75.682  1.00  0.00     0.003 C 
BRANCH  21  22
ATOM     22  C   UNL     1     101.189  84.304  76.489  1.00  0.00    -0.017 C 
ATOM     23  C   UNL     1     102.320  85.009  75.688  1.00  0.00     0.007 C 
ATOM     24  C   UNL     1     101.635  82.875  76.919  1.00  0.00     0.007 C 
ENDBRANCH  21  22
ENDBRANCH  20  21
ENDBRANCH  19  20
ENDBRANCH  18  19
ENDBRANCH   1  18
TORSDOF 11
ENDMDL
MODEL 5
REMARK VINA RESULT:    -5.613     21.830     24.640
REMARK INTER + INTRA:          -9.860
REMARK INTER:                  -9.200
REMARK INTRA:                  -0.660
REMARK UNBOUND:                -0.802
REMARK SMILES COc1cc(CNC(=O)CCCCCCC(C)C)ccc1O
REMARK SMILES IDX 11 1 10 2 8 3 7 4 9 6 6 7 5 8 3 9 21 10 4 11 20 12 19 13
REMARK SMILES IDX 2 14 1 15 22 16 12 18 13 19 14 20 15 21 16 22 17 23 18 24
REMARK H PARENT 7 5 22 17
REMARK Flexibility Score: inf
ROOT
ATOM      1  C   UNL     1      71.181  83.121  66.834  1.00  0.00     0.010 C 
ENDROOT
BRANCH   1   2
ATOM      2  C   UNL     1      71.633  81.794  66.164  1.00  0.00     0.100 C 
BRANCH   2   3
ATOM      3  C   UNL     1      72.993  81.865  65.585  1.00  0.00     0.220 C 
ATOM      4  N   UNL     1      74.091  81.789  66.392  1.00  0.00    -0.352 N 
ATOM      5  H   UNL     1      73.885  81.730  67.378  1.00  0.00     0.163 HD
ATOM      6  O   UNL     1      73.112  81.971  64.339  1.00  0.00    -0.275 OA
BRANCH   4   7
ATOM      7  C   UNL     1      75.449  81.789  65.941  1.00  0.00     0.151 C 
BRANCH   7   8
ATOM      8  C   UNL     1      76.313  82.752  66.677  1.00  0.00    -0.025 A 
ATOM      9  C   UNL     1      76.640  84.325  68.539  1.00  0.00     0.160 A 
ATOM     10  C   UNL     1      77.966  84.557  68.113  1.00  0.00     0.157 A 
ATOM     11  C   UNL     1      75.819  83.441  67.809  1.00  0.00     0.056 A 
ATOM     12  C   UNL     1      78.457  83.908  66.965  1.00  0.00     0.050 A 
ATOM     13  C   UNL     1      77.640  83.003  66.258  1.00  0.00     0.009 A 
BRANCH   9  14
ATOM     14  O   UNL     1      76.141  84.982  69.631  1.00  0.00    -0.493 OA
ATOM     15  C   UNL     1      76.296  84.257  70.865  1.00  0.00     0.278 C 
ENDBRANCH   9  14
BRANCH  10  16
ATOM     16  O   UNL     1      78.779  85.405  68.796  1.00  0.00    -0.504 OA
ATOM     17  H   UNL     1      78.251  85.948  69.387  1.00  0.00     0.293 HD
ENDBRANCH  10  16
ENDBRANCH   7   8
ENDBRANCH   4   7
ENDBRANCH   2   3
ENDBRANCH   1   2
BRANCH   1  18
ATOM     18  C   UNL     1      70.177  82.880  67.997  1.00  0.00     0.001 C 
BRANCH  18  19
ATOM     19  C   UNL     1      70.266  83.939  69.131  1.00  0.00     0.000 C 
BRANCH  19  20
ATOM     20  C   UNL     1      69.777  83.364  70.490  1.00  0.00     0.000 C 
BRANCH  20  21
ATOM     21  C   UNL     1      69.372  84.445  71.531  1.00  0.00     0.003 C 
BRANCH  21  22
ATOM     22  C   UNL     1      67.834  84.708  71.631  1.00  0.00    -0.017 C 
ATOM     23  C   UNL     1      67.448  85.133  73.075  1.00  0.00     0.007 C 
ATOM     24  C   UNL     1      66.962  83.505  71.165  1.00  0.00     0.007 C 
ENDBRANCH  21  22
ENDBRANCH  20  21
ENDBRANCH  19  20
ENDBRANCH  18  19
ENDBRANCH   1  18
TORSDOF 11
ENDMDL
MODEL 6
REMARK VINA RESULT:    -5.552     29.674     32.436
REMARK INTER + INTRA:          -9.762
REMARK INTER:                  -7.631
REMARK INTRA:                  -2.131
REMARK UNBOUND:                -0.802
REMARK SMILES COc1cc(CNC(=O)CCCCCCC(C)C)ccc1O
REMARK SMILES IDX 11 1 10 2 8 3 7 4 9 6 6 7 5 8 3 9 21 10 4 11 20 12 19 13
REMARK SMILES IDX 2 14 1 15 22 16 12 18 13 19 14 20 15 21 16 22 17 23 18 24
REMARK H PARENT 7 5 22 17
REMARK Flexibility Score: inf
ROOT
ATOM      1  C   UNL     1      59.523  85.178  71.303  1.00  0.00     0.010 C 
ENDROOT
BRANCH   1   2
ATOM      2  C   UNL     1      59.547  85.484  72.826  1.00  0.00     0.100 C 
BRANCH   2   3
ATOM      3  C   UNL     1      60.612  84.756  73.552  1.00  0.00     0.220 C 
ATOM      4  N   UNL     1      61.056  83.549  73.096  1.00  0.00    -0.352 N 
ATOM      5  H   UNL     1      60.573  83.204  72.280  1.00  0.00     0.163 HD
ATOM      6  O   UNL     1      61.110  85.283  74.577  1.00  0.00    -0.275 OA
BRANCH   4   7
ATOM      7  C   UNL     1      62.116  82.784  73.680  1.00  0.00     0.151 C 
BRANCH   7   8
ATOM      8  C   UNL     1      63.353  82.768  72.852  1.00  0.00    -0.025 A 
ATOM      9  C   UNL     1      65.369  83.900  72.014  1.00  0.00     0.160 A 
ATOM     10  C   UNL     1      65.735  82.731  71.311  1.00  0.00     0.157 A 
ATOM     11  C   UNL     1      64.173  83.916  72.762  1.00  0.00     0.056 A 
ATOM     12  C   UNL     1      64.907  81.595  71.362  1.00  0.00     0.050 A 
ATOM     13  C   UNL     1      63.730  81.609  72.135  1.00  0.00     0.009 A 
BRANCH   9  14
ATOM     14  O   UNL     1      66.147  85.023  71.940  1.00  0.00    -0.493 OA
ATOM     15  C   UNL     1      66.839  85.331  73.163  1.00  0.00     0.278 C 
ENDBRANCH   9  14
BRANCH  10  16
ATOM     16  O   UNL     1      66.881  82.688  70.581  1.00  0.00    -0.504 OA
ATOM     17  H   UNL     1      67.581  83.139  71.059  1.00  0.00     0.293 HD
ENDBRANCH  10  16
ENDBRANCH   7   8
ENDBRANCH   4   7
ENDBRANCH   2   3
ENDBRANCH   1   2
BRANCH   1  18
ATOM     18  C   UNL     1      60.131  86.336  70.462  1.00  0.00     0.001 C 
BRANCH  18  19
ATOM     19  C   UNL     1      61.100  85.857  69.344  1.00  0.00     0.000 C 
BRANCH  19  20
ATOM     20  C   UNL     1      62.194  84.906  69.905  1.00  0.00     0.000 C 
BRANCH  20  21
ATOM     21  C   UNL     1      62.097  83.445  69.383  1.00  0.00     0.003 C 
BRANCH  21  22
ATOM     22  C   UNL     1      63.031  83.124  68.170  1.00  0.00    -0.017 C 
ATOM     23  C   UNL     1      63.383  81.610  68.140  1.00  0.00     0.007 C 
ATOM     24  C   UNL     1      64.327  83.986  68.133  1.00  0.00     0.007 C 
ENDBRANCH  21  22
ENDBRANCH  20  21
ENDBRANCH  19  20
ENDBRANCH  18  19
ENDBRANCH   1  18
TORSDOF 11
ENDMDL
MODEL 7
REMARK VINA RESULT:    -5.512     17.192     20.754
REMARK INTER + INTRA:          -9.697
REMARK INTER:                  -8.670
REMARK INTRA:                  -1.027
REMARK UNBOUND:                -0.802
REMARK SMILES COc1cc(CNC(=O)CCCCCCC(C)C)ccc1O
REMARK SMILES IDX 11 1 10 2 8 3 7 4 9 6 6 7 5 8 3 9 21 10 4 11 20 12 19 13
REMARK SMILES IDX 2 14 1 15 22 16 12 18 13 19 14 20 15 21 16 22 17 23 18 24
REMARK H PARENT 7 5 22 17
REMARK Flexibility Score: inf
ROOT
ATOM      1  C   UNL     1     101.590  81.122  80.838  1.00  0.00     0.010 C 
ENDROOT
BRANCH   1   2
ATOM      2  C   UNL     1     101.011  82.385  81.534  1.00  0.00     0.100 C 
BRANCH   2   3
ATOM      3  C   UNL     1      99.659  82.173  82.099  1.00  0.00     0.220 C 
ATOM      4  N   UNL     1      98.983  83.210  82.673  1.00  0.00    -0.352 N 
ATOM      5  H   UNL     1      99.495  84.078  82.710  1.00  0.00     0.163 HD
ATOM      6  O   UNL     1      99.144  81.032  82.015  1.00  0.00    -0.275 OA
BRANCH   4   7
ATOM      7  C   UNL     1      97.653  83.138  83.198  1.00  0.00     0.151 C 
BRANCH   7   8
ATOM      8  C   UNL     1      97.528  83.722  84.562  1.00  0.00    -0.025 A 
ATOM      9  C   UNL     1      98.382  83.981  86.854  1.00  0.00     0.160 A 
ATOM     10  C   UNL     1      97.323  84.867  87.150  1.00  0.00     0.157 A 
ATOM     11  C   UNL     1      98.466  83.402  85.570  1.00  0.00     0.056 A 
ATOM     12  C   UNL     1      96.362  85.163  86.167  1.00  0.00     0.050 A 
ATOM     13  C   UNL     1      96.468  84.604  84.879  1.00  0.00     0.009 A 
BRANCH   9  14
ATOM     14  O   UNL     1      99.300  83.655  87.815  1.00  0.00    -0.493 OA
ATOM     15  C   UNL     1     100.562  84.331  87.664  1.00  0.00     0.278 C 
ENDBRANCH   9  14
BRANCH  10  16
ATOM     16  O   UNL     1      97.217  85.438  88.379  1.00  0.00    -0.504 OA
ATOM     17  H   UNL     1      97.018  84.760  89.030  1.00  0.00     0.293 HD
ENDBRANCH  10  16
ENDBRANCH   7   8
ENDBRANCH   4   7
ENDBRANCH   2   3
ENDBRANCH   1   2
BRANCH   1  18
ATOM     18  C   UNL     1     101.836  81.348  79.320  1.00  0.00     0.001 C 
BRANCH  18  19
ATOM     19  C   UNL     1     100.784  82.274  78.646  1.00  0.00     0.000 C 
BRANCH  19  20
ATOM     20  C   UNL     1      99.683  81.453  77.918  1.00  0.00     0.000 C 
BRANCH  20  21
ATOM     21  C   UNL     1      98.550  82.316  77.297  1.00  0.00     0.003 C 
BRANCH  21  22
ATOM     22  C   UNL     1      98.239  83.637  78.074  1.00  0.00    -0.017 C 
ATOM     23  C   UNL     1      97.291  83.352  79.272  1.00  0.00     0.007 C 
ATOM     24  C   UNL     1      97.658  84.769  77.176  1.00  0.00     0.007 C 
ENDBRANCH  21  22
ENDBRANCH  20  21
ENDBRANCH  19  20
ENDBRANCH  18  19
ENDBRANCH   1  18
TORSDOF 11
ENDMDL
MODEL 8
REMARK VINA RESULT:    -5.501     15.635     18.275
REMARK INTER + INTRA:          -9.679
REMARK INTER:                  -8.970
REMARK INTRA:                  -0.709
REMARK UNBOUND:                -0.802
REMARK SMILES COc1cc(CNC(=O)CCCCCCC(C)C)ccc1O
REMARK SMILES IDX 11 1 10 2 8 3 7 4 9 6 6 7 5 8 3 9 21 10 4 11 20 12 19 13
REMARK SMILES IDX 2 14 1 15 22 16 12 18 13 19 14 20 15 21 16 22 17 23 18 24
REMARK H PARENT 7 5 22 17
REMARK Flexibility Score: inf
ROOT
ATOM      1  C   UNL     1      75.791  88.530  70.316  1.00  0.00     0.010 C 
ENDROOT
BRANCH   1   2
ATOM      2  C   UNL     1      74.505  88.607  71.185  1.00  0.00     0.100 C 
BRANCH   2   3
ATOM      3  C   UNL     1      74.177  89.982  71.623  1.00  0.00     0.220 C 
ATOM      4  N   UNL     1      74.985  91.026  71.279  1.00  0.00    -0.352 N 
ATOM      5  H   UNL     1      75.811  90.767  70.760  1.00  0.00     0.163 HD
ATOM      6  O   UNL     1      73.132  90.167  72.293  1.00  0.00    -0.275 OA
BRANCH   4   7
ATOM      7  C   UNL     1      74.739  92.401  71.595  1.00  0.00     0.151 C 
BRANCH   7   8
ATOM      8  C   UNL     1      75.760  92.985  72.507  1.00  0.00    -0.025 A 
ATOM      9  C   UNL     1      77.960  94.030  72.852  1.00  0.00     0.160 A 
ATOM     10  C   UNL     1      77.693  94.140  74.234  1.00  0.00     0.157 A 
ATOM     11  C   UNL     1      77.001  93.437  72.003  1.00  0.00     0.056 A 
ATOM     12  C   UNL     1      76.478  93.658  74.753  1.00  0.00     0.050 A 
ATOM     13  C   UNL     1      75.513  93.094  73.896  1.00  0.00     0.009 A 
BRANCH   9  14
ATOM     14  O   UNL     1      79.155  94.459  72.342  1.00  0.00    -0.493 OA
ATOM     15  C   UNL     1      79.032  95.567  71.432  1.00  0.00     0.278 C 
ENDBRANCH   9  14
BRANCH  10  16
ATOM     16  O   UNL     1      78.599  94.705  75.075  1.00  0.00    -0.504 OA
ATOM     17  H   UNL     1      78.818  95.586  74.763  1.00  0.00     0.293 HD
ENDBRANCH  10  16
ENDBRANCH   7   8
ENDBRANCH   4   7
ENDBRANCH   2   3
ENDBRANCH   1   2
BRANCH   1  18
ATOM     18  C   UNL     1      76.063  87.089  69.797  1.00  0.00     0.001 C 
BRANCH  18  19
ATOM     19  C   UNL     1      77.571  86.771  69.591  1.00  0.00     0.000 C 
BRANCH  19  20
ATOM     20  C   UNL     1      77.916  85.322  70.034  1.00  0.00     0.000 C 
BRANCH  20  21
ATOM     21  C   UNL     1      76.992  84.232  69.423  1.00  0.00     0.003 C 
BRANCH  21  22
ATOM     22  C   UNL     1      77.029  84.148  67.862  1.00  0.00    -0.017 C 
ATOM     23  C   UNL     1      75.858  83.271  67.337  1.00  0.00     0.007 C 
ATOM     24  C   UNL     1      78.387  83.640  67.295  1.00  0.00     0.007 C 
ENDBRANCH  21  22
ENDBRANCH  20  21
ENDBRANCH  19  20
ENDBRANCH  18  19
ENDBRANCH   1  18
TORSDOF 11
ENDMDL
MODEL 9
REMARK VINA RESULT:    -5.274     30.228     32.802
REMARK INTER + INTRA:          -9.313
REMARK INTER:                  -7.927
REMARK INTRA:                  -1.386
REMARK UNBOUND:                -0.802
REMARK SMILES COc1cc(CNC(=O)CCCCCCC(C)C)ccc1O
REMARK SMILES IDX 11 1 10 2 8 3 7 4 9 6 6 7 5 8 3 9 21 10 4 11 20 12 19 13
REMARK SMILES IDX 2 14 1 15 22 16 12 18 13 19 14 20 15 21 16 22 17 23 18 24
REMARK H PARENT 7 5 22 17
REMARK Flexibility Score: inf
ROOT
ATOM      1  C   UNL     1      63.127  83.980  68.313  1.00  0.00     0.010 C 
ENDROOT
BRANCH   1   2
ATOM      2  C   UNL     1      64.663  83.973  68.547  1.00  0.00     0.100 C 
BRANCH   2   3
ATOM      3  C   UNL     1      65.052  83.411  69.860  1.00  0.00     0.220 C 
ATOM      4  N   UNL     1      64.443  82.286  70.336  1.00  0.00    -0.352 N 
ATOM      5  H   UNL     1      63.706  81.925  69.748  1.00  0.00     0.163 HD
ATOM      6  O   UNL     1      65.966  83.976  70.509  1.00  0.00    -0.275 OA
BRANCH   4   7
ATOM      7  C   UNL     1      64.775  81.622  71.560  1.00  0.00     0.151 C 
BRANCH   7   8
ATOM      8  C   UNL     1      63.902  82.020  72.698  1.00  0.00    -0.025 A 
ATOM      9  C   UNL     1      63.557  83.291  74.775  1.00  0.00     0.160 A 
ATOM     10  C   UNL     1      62.229  82.816  74.848  1.00  0.00     0.157 A 
ATOM     11  C   UNL     1      64.388  82.875  73.713  1.00  0.00     0.056 A 
ATOM     12  C   UNL     1      61.746  81.934  73.865  1.00  0.00     0.050 A 
ATOM     13  C   UNL     1      62.572  81.546  72.791  1.00  0.00     0.009 A 
BRANCH   9  14
ATOM     14  O   UNL     1      64.050  84.118  75.748  1.00  0.00    -0.493 OA
ATOM     15  C   UNL     1      65.005  83.485  76.618  1.00  0.00     0.278 C 
ENDBRANCH   9  14
BRANCH  10  16
ATOM     16  O   UNL     1      61.408  83.199  75.860  1.00  0.00    -0.504 OA
ATOM     17  H   UNL     1      61.222  84.138  75.784  1.00  0.00     0.293 HD
ENDBRANCH  10  16
ENDBRANCH   7   8
ENDBRANCH   4   7
ENDBRANCH   2   3
ENDBRANCH   1   2
BRANCH   1  18
ATOM     18  C   UNL     1      62.403  85.033  69.199  1.00  0.00     0.001 C 
BRANCH  18  19
ATOM     19  C   UNL     1      61.494  84.411  70.296  1.00  0.00     0.000 C 
BRANCH  19  20
ATOM     20  C   UNL     1      59.987  84.596  69.963  1.00  0.00     0.000 C 
BRANCH  20  21
ATOM     21  C   UNL     1      59.374  85.921  70.497  1.00  0.00     0.003 C 
BRANCH  21  22
ATOM     22  C   UNL     1      60.021  86.449  71.820  1.00  0.00    -0.017 C 
ATOM     23  C   UNL     1      59.103  86.137  73.035  1.00  0.00     0.007 C 
ATOM     24  C   UNL     1      60.377  87.964  71.780  1.00  0.00     0.007 C 
ENDBRANCH  21  22
ENDBRANCH  20  21
ENDBRANCH  19  20
ENDBRANCH  18  19
ENDBRANCH   1  18
TORSDOF 11
ENDMDL
MODEL 10
REMARK VINA RESULT:    -5.270      1.131      2.240
REMARK INTER + INTRA:          -9.307
REMARK INTER:                  -8.573
REMARK INTRA:                  -0.734
REMARK UNBOUND:                -0.802
REMARK SMILES COc1cc(CNC(=O)CCCCCCC(C)C)ccc1O
REMARK SMILES IDX 11 1 10 2 8 3 7 4 9 6 6 7 5 8 3 9 21 10 4 11 20 12 19 13
REMARK SMILES IDX 2 14 1 15 22 16 12 18 13 19 14 20 15 21 16 22 17 23 18 24
REMARK H PARENT 7 5 22 17
REMARK Flexibility Score: inf
ROOT
ATOM      1  C   UNL     1      94.186  98.445  75.345  1.00  0.00     0.010 C 
ENDROOT
BRANCH   1   2
ATOM      2  C   UNL     1      93.362  99.761  75.298  1.00  0.00     0.100 C 
BRANCH   2   3
ATOM      3  C   UNL     1      93.423 100.442  73.985  1.00  0.00     0.220 C 
ATOM      4  N   UNL     1      92.294 100.588  73.231  1.00  0.00    -0.352 N 
ATOM      5  H   UNL     1      91.468 100.163  73.625  1.00  0.00     0.163 HD
ATOM      6  O   UNL     1      94.525 100.900  73.595  1.00  0.00    -0.275 OA
BRANCH   4   7
ATOM      7  C   UNL     1      92.221 101.276  71.978  1.00  0.00     0.151 C 
BRANCH   7   8
ATOM      8  C   UNL     1      91.170 100.735  71.073  1.00  0.00    -0.025 A 
ATOM      9  C   UNL     1      90.108  98.825  69.945  1.00  0.00     0.160 A 
ATOM     10  C   UNL     1      89.144  99.691  69.383  1.00  0.00     0.157 A 
ATOM     11  C   UNL     1      91.123  99.356  70.769  1.00  0.00     0.056 A 
ATOM     12  C   UNL     1      89.204 101.071  69.646  1.00  0.00     0.050 A 
ATOM     13  C   UNL     1      90.203 101.590  70.493  1.00  0.00     0.009 A 
BRANCH   9  14
ATOM     14  O   UNL     1      90.082  97.487  69.664  1.00  0.00    -0.493 OA
ATOM     15  C   UNL     1      89.583  96.677  70.744  1.00  0.00     0.278 C 
ENDBRANCH   9  14
BRANCH  10  16
ATOM     16  O   UNL     1      88.156  99.208  68.585  1.00  0.00    -0.504 OA
ATOM     17  H   UNL     1      87.303  99.484  68.929  1.00  0.00     0.293 HD
ENDBRANCH  10  16
ENDBRANCH   7   8
ENDBRANCH   4   7
ENDBRANCH   2   3
ENDBRANCH   1   2
BRANCH   1  18
ATOM     18  C   UNL     1      93.294  97.204  75.634  1.00  0.00     0.001 C 
BRANCH  18  19
ATOM     19  C   UNL     1      94.002  96.106  76.476  1.00  0.00     0.000 C 
BRANCH  19  20
ATOM     20  C   UNL     1      93.000  95.362  77.404  1.00  0.00     0.000 C 
BRANCH  20  21
ATOM     21  C   UNL     1      91.516  95.776  77.201  1.00  0.00     0.003 C 
BRANCH  21  22
ATOM     22  C   UNL     1      90.551  94.591  76.870  1.00  0.00    -0.017 C 
ATOM     23  C   UNL     1      89.153  94.836  77.505  1.00  0.00     0.007 C 
ATOM     24  C   UNL     1      91.104  93.197  77.291  1.00  0.00     0.007 C 
ENDBRANCH  21  22
ENDBRANCH  20  21
ENDBRANCH  19  20
ENDBRANCH  18  19
ENDBRANCH   1  18
TORSDOF 11
ENDMDL
