MODEL 1
REMARK VINA RESULT:    -7.596      0.000      0.000
REMARK INTER + INTRA:          -9.302
REMARK INTER:                  -8.928
REMARK INTRA:                  -0.375
REMARK UNBOUND:                -0.375
REMARK SMILES O=C(/C=C/C=C/c1ccc2c(c1)OCO2)N1CCCCC1
REMARK SMILES IDX 3 1 4 2 2 3 1 4 16 5 17 6 21 7 18 8 20 9 19 10 5 11 6 12
REMARK SMILES IDX 7 13 12 14 8 15 11 16 9 17 13 18 10 19 14 20 15 21
REMARK H PARENT
REMARK Flexibility Score: inf
ROOT
ATOM      1  C   UNL     1      97.482  83.799  76.781  1.00  0.00     0.071 C 
ATOM      2  C   UNL     1      96.428  84.026  77.563  1.00  0.00     0.006 C 
ENDROOT
BRANCH   1   3
ATOM      3  C   UNL     1      97.441  84.305  75.394  1.00  0.00     0.246 C 
ATOM      4  O   UNL     1      96.348  84.660  74.951  1.00  0.00    -0.270 OA
ATOM      5  N   UNL     1      98.637  84.343  74.680  1.00  0.00    -0.339 N 
ATOM      6  C   UNL     1      98.626  84.835  73.299  1.00  0.00     0.120 C 
ATOM      7  C   UNL     1      99.950  83.887  75.160  1.00  0.00     0.120 C 
ATOM      8  C   UNL     1      99.659  85.938  73.093  1.00  0.00     0.022 C 
ATOM      9  C   UNL     1     101.015  84.966  74.967  1.00  0.00     0.022 C 
ATOM     10  C   UNL     1     101.046  85.477  73.529  1.00  0.00     0.004 C 
ENDBRANCH   1   3
BRANCH   2  11
ATOM     11  C   UNL     1      96.376  83.570  78.935  1.00  0.00     0.001 C 
ATOM     12  C   UNL     1      97.179  82.604  79.411  1.00  0.00     0.008 C 
BRANCH  12  13
ATOM     13  C   UNL     1      97.162  82.097  80.793  1.00  0.00    -0.022 A 
ATOM     14  C   UNL     1      97.115  83.002  81.845  1.00  0.00     0.058 A 
ATOM     15  C   UNL     1      97.193  80.717  81.009  1.00  0.00     0.012 A 
ATOM     16  C   UNL     1      97.101  82.479  83.121  1.00  0.00     0.166 A 
ATOM     17  C   UNL     1      97.177  80.214  82.312  1.00  0.00     0.051 A 
ATOM     18  O   UNL     1      97.058  83.196  84.277  1.00  0.00    -0.454 OA
ATOM     19  C   UNL     1      97.131  81.122  83.349  1.00  0.00     0.165 A 
ATOM     20  C   UNL     1      97.065  82.139  85.258  1.00  0.00     0.468 C 
ATOM     21  O   UNL     1      97.111  80.820  84.676  1.00  0.00    -0.454 OA
ENDBRANCH  12  13
ENDBRANCH   2  11
TORSDOF 3
ENDMDL
MODEL 2
REMARK VINA RESULT:    -7.278     12.910     14.826
REMARK INTER + INTRA:          -8.930
REMARK INTER:                  -8.609
REMARK INTRA:                  -0.321
REMARK UNBOUND:                -0.375
REMARK SMILES O=C(/C=C/C=C/c1ccc2c(c1)OCO2)N1CCCCC1
REMARK SMILES IDX 3 1 4 2 2 3 1 4 16 5 17 6 21 7 18 8 20 9 19 10 5 11 6 12
REMARK SMILES IDX 7 13 12 14 8 15 11 16 9 17 13 18 10 19 14 20 15 21
REMARK H PARENT
REMARK Flexibility Score: inf
ROOT
ATOM      1  C   UNL     1      95.706  97.039  73.183  1.00  0.00     0.071 C 
ATOM      2  C   UNL     1      94.702  97.196  74.044  1.00  0.00     0.006 C 
ENDROOT
BRANCH   1   3
ATOM      3  C   UNL     1      96.457  98.240  72.767  1.00  0.00     0.246 C 
ATOM      4  O   UNL     1      97.260  98.716  73.570  1.00  0.00    -0.270 OA
ATOM      5  N   UNL     1      96.204  98.756  71.497  1.00  0.00    -0.339 N 
ATOM      6  C   UNL     1      96.931  99.951  71.057  1.00  0.00     0.120 C 
ATOM      7  C   UNL     1      95.223  98.243  70.529  1.00  0.00     0.120 C 
ATOM      8  C   UNL     1      97.609  99.726  69.710  1.00  0.00     0.022 C 
ATOM      9  C   UNL     1      95.865  98.008  69.162  1.00  0.00     0.022 C 
ATOM     10  C   UNL     1      96.606  99.246  68.666  1.00  0.00     0.004 C 
ENDBRANCH   1   3
BRANCH   2  11
ATOM     11  C   UNL     1      93.908  96.079  74.511  1.00  0.00     0.001 C 
ATOM     12  C   UNL     1      92.861  96.228  75.340  1.00  0.00     0.008 C 
BRANCH  12  13
ATOM     13  C   UNL     1      92.026  95.129  75.851  1.00  0.00    -0.022 A 
ATOM     14  C   UNL     1      91.578  94.155  74.969  1.00  0.00     0.058 A 
ATOM     15  C   UNL     1      91.707  95.096  77.211  1.00  0.00     0.012 A 
ATOM     16  C   UNL     1      90.798  93.145  75.495  1.00  0.00     0.166 A 
ATOM     17  C   UNL     1      90.916  94.062  77.716  1.00  0.00     0.051 A 
ATOM     18  O   UNL     1      90.264  92.104  74.799  1.00  0.00    -0.454 OA
ATOM     19  C   UNL     1      90.476  93.099  76.832  1.00  0.00     0.165 A 
ATOM     20  C   UNL     1      89.570  91.399  75.848  1.00  0.00     0.468 C 
ATOM     21  O   UNL     1      89.700  92.024  77.141  1.00  0.00    -0.454 OA
ENDBRANCH  12  13
ENDBRANCH   2  11
TORSDOF 3
ENDMDL
MODEL 3
REMARK VINA RESULT:    -7.269      3.248      9.407
REMARK INTER + INTRA:          -8.918
REMARK INTER:                  -8.511
REMARK INTRA:                  -0.408
REMARK UNBOUND:                -0.375
REMARK SMILES O=C(/C=C/C=C/c1ccc2c(c1)OCO2)N1CCCCC1
REMARK SMILES IDX 3 1 4 2 2 3 1 4 16 5 17 6 21 7 18 8 20 9 19 10 5 11 6 12
REMARK SMILES IDX 7 13 12 14 8 15 11 16 9 17 13 18 10 19 14 20 15 21
REMARK H PARENT
REMARK Flexibility Score: inf
ROOT
ATOM      1  C   UNL     1      96.339  81.722  82.980  1.00  0.00     0.071 C 
ATOM      2  C   UNL     1      96.653  82.940  82.541  1.00  0.00     0.006 C 
ENDROOT
BRANCH   1   3
ATOM      3  C   UNL     1      96.272  81.506  84.439  1.00  0.00     0.246 C 
ATOM      4  O   UNL     1      97.337  81.439  85.054  1.00  0.00    -0.270 OA
ATOM      5  N   UNL     1      95.011  81.386  85.020  1.00  0.00    -0.339 N 
ATOM      6  C   UNL     1      94.913  81.164  86.466  1.00  0.00     0.120 C 
ATOM      7  C   UNL     1      93.722  81.415  84.314  1.00  0.00     0.120 C 
ATOM      8  C   UNL     1      93.991  82.185  87.125  1.00  0.00     0.022 C 
ATOM      9  C   UNL     1      92.766  82.425  84.948  1.00  0.00     0.022 C 
ATOM     10  C   UNL     1      92.623  82.200  86.450  1.00  0.00     0.004 C 
ENDBRANCH   1   3
BRANCH   2  11
ATOM     11  C   UNL     1      96.744  83.250  81.130  1.00  0.00     0.001 C 
ATOM     12  C   UNL     1      97.263  82.398  80.231  1.00  0.00     0.008 C 
BRANCH  12  13
ATOM     13  C   UNL     1      97.386  82.665  78.788  1.00  0.00    -0.022 A 
ATOM     14  C   UNL     1      96.691  83.732  78.237  1.00  0.00     0.058 A 
ATOM     15  C   UNL     1      98.201  81.835  78.013  1.00  0.00     0.012 A 
ATOM     16  C   UNL     1      96.839  83.942  76.881  1.00  0.00     0.166 A 
ATOM     17  C   UNL     1      98.332  82.071  76.643  1.00  0.00     0.051 A 
ATOM     18  O   UNL     1      96.243  84.930  76.157  1.00  0.00    -0.454 OA
ATOM     19  C   UNL     1      97.638  83.134  76.105  1.00  0.00     0.165 A 
ATOM     20  C   UNL     1      96.757  84.651  74.838  1.00  0.00     0.468 C 
ATOM     21  O   UNL     1      97.643  83.514  74.798  1.00  0.00    -0.454 OA
ENDBRANCH  12  13
ENDBRANCH   2  11
TORSDOF 3
ENDMDL
MODEL 4
REMARK VINA RESULT:    -6.927     10.717     13.035
REMARK INTER + INTRA:          -8.517
REMARK INTER:                  -8.141
REMARK INTRA:                  -0.376
REMARK UNBOUND:                -0.375
REMARK SMILES O=C(/C=C/C=C/c1ccc2c(c1)OCO2)N1CCCCC1
REMARK SMILES IDX 3 1 4 2 2 3 1 4 16 5 17 6 21 7 18 8 20 9 19 10 5 11 6 12
REMARK SMILES IDX 7 13 12 14 8 15 11 16 9 17 13 18 10 19 14 20 15 21
REMARK H PARENT
REMARK Flexibility Score: inf
ROOT
ATOM      1  C   UNL     1      91.420  76.853  83.590  1.00  0.00     0.071 C 
ATOM      2  C   UNL     1      91.772  78.043  84.074  1.00  0.00     0.006 C 
ENDROOT
BRANCH   1   3
ATOM      3  C   UNL     1      92.360  75.727  83.763  1.00  0.00     0.246 C 
ATOM      4  O   UNL     1      93.559  75.957  83.603  1.00  0.00    -0.270 OA
ATOM      5  N   UNL     1      91.827  74.481  84.091  1.00  0.00    -0.339 N 
ATOM      6  C   UNL     1      92.735  73.343  84.264  1.00  0.00     0.120 C 
ATOM      7  C   UNL     1      90.401  74.159  84.245  1.00  0.00     0.120 C 
ATOM      8  C   UNL     1      92.509  72.649  85.603  1.00  0.00     0.022 C 
ATOM      9  C   UNL     1      90.133  73.458  85.577  1.00  0.00     0.022 C 
ATOM     10  C   UNL     1      91.046  72.250  85.771  1.00  0.00     0.004 C 
ENDBRANCH   1   3
BRANCH   2  11
ATOM     11  C   UNL     1      90.919  79.206  83.953  1.00  0.00     0.001 C 
ATOM     12  C   UNL     1      89.616  79.189  84.279  1.00  0.00     0.008 C 
BRANCH  12  13
ATOM     13  C   UNL     1      88.703  80.338  84.168  1.00  0.00    -0.022 A 
ATOM     14  C   UNL     1      88.855  81.409  85.038  1.00  0.00     0.058 A 
ATOM     15  C   UNL     1      87.707  80.319  83.188  1.00  0.00     0.012 A 
ATOM     16  C   UNL     1      87.975  82.462  84.895  1.00  0.00     0.166 A 
ATOM     17  C   UNL     1      86.830  81.399  83.065  1.00  0.00     0.051 A 
ATOM     18  O   UNL     1      87.959  83.597  85.647  1.00  0.00    -0.454 OA
ATOM     19  C   UNL     1      86.989  82.458  83.935  1.00  0.00     0.165 A 
ATOM     20  C   UNL     1      86.853  84.306  85.052  1.00  0.00     0.468 C 
ATOM     21  O   UNL     1      86.233  83.589  83.965  1.00  0.00    -0.454 OA
ENDBRANCH  12  13
ENDBRANCH   2  11
TORSDOF 3
ENDMDL
MODEL 5
REMARK VINA RESULT:    -6.812     17.688     20.543
REMARK INTER + INTRA:          -8.382
REMARK INTER:                  -8.036
REMARK INTRA:                  -0.346
REMARK UNBOUND:                -0.375
REMARK SMILES O=C(/C=C/C=C/c1ccc2c(c1)OCO2)N1CCCCC1
REMARK SMILES IDX 3 1 4 2 2 3 1 4 16 5 17 6 21 7 18 8 20 9 19 10 5 11 6 12
REMARK SMILES IDX 7 13 12 14 8 15 11 16 9 17 13 18 10 19 14 20 15 21
REMARK H PARENT
REMARK Flexibility Score: inf
ROOT
ATOM      1  C   UNL     1      86.380  70.056  72.043  1.00  0.00     0.071 C 
ATOM      2  C   UNL     1      87.468  70.088  71.276  1.00  0.00     0.006 C 
ENDROOT
BRANCH   1   3
ATOM      3  C   UNL     1      86.437  69.279  73.297  1.00  0.00     0.246 C 
ATOM      4  O   UNL     1      87.257  69.630  74.147  1.00  0.00    -0.270 OA
ATOM      5  N   UNL     1      85.565  68.201  73.434  1.00  0.00    -0.339 N 
ATOM      6  C   UNL     1      85.602  67.407  74.666  1.00  0.00     0.120 C 
ATOM      7  C   UNL     1      84.605  67.726  72.426  1.00  0.00     0.120 C 
ATOM      8  C   UNL     1      84.218  67.286  75.293  1.00  0.00     0.022 C 
ATOM      9  C   UNL     1      83.203  67.588  73.018  1.00  0.00     0.022 C 
ATOM     10  C   UNL     1      83.208  66.742  74.288  1.00  0.00     0.004 C 
ENDBRANCH   1   3
BRANCH   2  11
ATOM     11  C   UNL     1      87.508  70.822  70.029  1.00  0.00     0.001 C 
ATOM     12  C   UNL     1      88.574  71.543  69.644  1.00  0.00     0.008 C 
BRANCH  12  13
ATOM     13  C   UNL     1      88.665  72.314  68.392  1.00  0.00    -0.022 A 
ATOM     14  C   UNL     1      89.837  72.999  68.105  1.00  0.00     0.058 A 
ATOM     15  C   UNL     1      87.567  72.334  67.528  1.00  0.00     0.012 A 
ATOM     16  C   UNL     1      89.875  73.705  66.920  1.00  0.00     0.166 A 
ATOM     17  C   UNL     1      87.632  73.058  66.335  1.00  0.00     0.051 A 
ATOM     18  O   UNL     1      90.926  74.439  66.461  1.00  0.00    -0.454 OA
ATOM     19  C   UNL     1      88.802  73.735  66.059  1.00  0.00     0.165 A 
ATOM     20  C   UNL     1      90.394  74.932  65.215  1.00  0.00     0.468 C 
ATOM     21  O   UNL     1      89.047  74.489  64.953  1.00  0.00    -0.454 OA
ENDBRANCH  12  13
ENDBRANCH   2  11
TORSDOF 3
ENDMDL
MODEL 6
REMARK VINA RESULT:    -6.708      2.670      8.984
REMARK INTER + INTRA:          -8.259
REMARK INTER:                  -8.640
REMARK INTRA:                   0.380
REMARK UNBOUND:                -0.375
REMARK SMILES O=C(/C=C/C=C/c1ccc2c(c1)OCO2)N1CCCCC1
REMARK SMILES IDX 3 1 4 2 2 3 1 4 16 5 17 6 21 7 18 8 20 9 19 10 5 11 6 12
REMARK SMILES IDX 7 13 12 14 8 15 11 16 9 17 13 18 10 19 14 20 15 21
REMARK H PARENT
REMARK Flexibility Score: inf
ROOT
ATOM      1  C   UNL     1      98.016  82.453  81.483  1.00  0.00     0.071 C 
ATOM      2  C   UNL     1      97.133  82.868  80.577  1.00  0.00     0.006 C 
ENDROOT
BRANCH   1   3
ATOM      3  C   UNL     1      97.508  82.012  82.797  1.00  0.00     0.246 C 
ATOM      4  O   UNL     1      97.969  80.969  83.265  1.00  0.00    -0.270 OA
ATOM      5  N   UNL     1      96.540  82.799  83.418  1.00  0.00    -0.339 N 
ATOM      6  C   UNL     1      96.012  82.384  84.721  1.00  0.00     0.120 C 
ATOM      7  C   UNL     1      95.934  84.023  82.871  1.00  0.00     0.120 C 
ATOM      8  C   UNL     1      96.113  83.507  85.747  1.00  0.00     0.022 C 
ATOM      9  C   UNL     1      96.012  85.174  83.874  1.00  0.00     0.022 C 
ATOM     10  C   UNL     1      95.443  84.778  85.233  1.00  0.00     0.004 C 
ENDBRANCH   1   3
BRANCH   2  11
ATOM     11  C   UNL     1      97.534  83.320  79.262  1.00  0.00     0.001 C 
ATOM     12  C   UNL     1      96.830  83.044  78.153  1.00  0.00     0.008 C 
BRANCH  12  13
ATOM     13  C   UNL     1      97.196  83.470  76.792  1.00  0.00    -0.022 A 
ATOM     14  C   UNL     1      98.117  82.720  76.073  1.00  0.00     0.058 A 
ATOM     15  C   UNL     1      96.607  84.621  76.261  1.00  0.00     0.012 A 
ATOM     16  C   UNL     1      98.428  83.159  74.803  1.00  0.00     0.166 A 
ATOM     17  C   UNL     1      96.940  85.043  74.972  1.00  0.00     0.051 A 
ATOM     18  O   UNL     1      99.302  82.566  73.945  1.00  0.00    -0.454 OA
ATOM     19  C   UNL     1      97.855  84.290  74.266  1.00  0.00     0.165 A 
ATOM     20  C   UNL     1      99.216  83.450  72.809  1.00  0.00     0.468 C 
ATOM     21  O   UNL     1      98.299  84.546  73.006  1.00  0.00    -0.454 OA
ENDBRANCH  12  13
ENDBRANCH   2  11
TORSDOF 3
ENDMDL
MODEL 7
REMARK VINA RESULT:    -6.591      9.348     11.333
REMARK INTER + INTRA:          -8.121
REMARK INTER:                  -7.806
REMARK INTRA:                  -0.315
REMARK UNBOUND:                -0.375
REMARK SMILES O=C(/C=C/C=C/c1ccc2c(c1)OCO2)N1CCCCC1
REMARK SMILES IDX 3 1 4 2 2 3 1 4 16 5 17 6 21 7 18 8 20 9 19 10 5 11 6 12
REMARK SMILES IDX 7 13 12 14 8 15 11 16 9 17 13 18 10 19 14 20 15 21
REMARK H PARENT
REMARK Flexibility Score: inf
ROOT
ATOM      1  C   UNL     1      93.763  87.123  87.025  1.00  0.00     0.071 C 
ATOM      2  C   UNL     1      93.863  86.401  85.911  1.00  0.00     0.006 C 
ENDROOT
BRANCH   1   3
ATOM      3  C   UNL     1      94.414  88.448  87.055  1.00  0.00     0.246 C 
ATOM      4  O   UNL     1      95.063  88.786  86.064  1.00  0.00    -0.270 OA
ATOM      5  N   UNL     1      94.256  89.224  88.202  1.00  0.00    -0.339 N 
ATOM      6  C   UNL     1      94.895  90.542  88.263  1.00  0.00     0.120 C 
ATOM      7  C   UNL     1      93.528  88.837  89.420  1.00  0.00     0.120 C 
ATOM      8  C   UNL     1      93.893  91.631  88.629  1.00  0.00     0.022 C 
ATOM      9  C   UNL     1      92.514  89.907  89.823  1.00  0.00     0.022 C 
ATOM     10  C   UNL     1      93.159  91.286  89.922  1.00  0.00     0.004 C 
ENDBRANCH   1   3
BRANCH   2  11
ATOM     11  C   UNL     1      93.260  85.091  85.786  1.00  0.00     0.001 C 
ATOM     12  C   UNL     1      93.980  83.975  85.591  1.00  0.00     0.008 C 
BRANCH  12  13
ATOM     13  C   UNL     1      93.418  82.621  85.450  1.00  0.00    -0.022 A 
ATOM     14  C   UNL     1      92.339  82.423  84.599  1.00  0.00     0.058 A 
ATOM     15  C   UNL     1      93.986  81.572  86.176  1.00  0.00     0.012 A 
ATOM     16  C   UNL     1      91.847  81.138  84.499  1.00  0.00     0.166 A 
ATOM     17  C   UNL     1      93.468  80.280  86.056  1.00  0.00     0.051 A 
ATOM     18  O   UNL     1      90.800  80.742  83.724  1.00  0.00    -0.454 OA
ATOM     19  C   UNL     1      92.397  80.095  85.208  1.00  0.00     0.165 A 
ATOM     20  C   UNL     1      90.753  79.332  84.026  1.00  0.00     0.468 C 
ATOM     21  O   UNL     1      91.763  78.915  84.967  1.00  0.00    -0.454 OA
ENDBRANCH  12  13
ENDBRANCH   2  11
TORSDOF 3
ENDMDL
MODEL 8
REMARK VINA RESULT:    -6.582     18.250     19.215
REMARK INTER + INTRA:          -8.111
REMARK INTER:                  -7.793
REMARK INTRA:                  -0.317
REMARK UNBOUND:                -0.375
REMARK SMILES O=C(/C=C/C=C/c1ccc2c(c1)OCO2)N1CCCCC1
REMARK SMILES IDX 3 1 4 2 2 3 1 4 16 5 17 6 21 7 18 8 20 9 19 10 5 11 6 12
REMARK SMILES IDX 7 13 12 14 8 15 11 16 9 17 13 18 10 19 14 20 15 21
REMARK H PARENT
REMARK Flexibility Score: inf
ROOT
ATOM      1  C   UNL     1      88.065  71.216  69.327  1.00  0.00     0.071 C 
ATOM      2  C   UNL     1      88.163  70.803  70.590  1.00  0.00     0.006 C 
ENDROOT
BRANCH   1   3
ATOM      3  C   UNL     1      89.090  72.151  68.821  1.00  0.00     0.246 C 
ATOM      4  O   UNL     1      90.201  72.120  69.352  1.00  0.00    -0.270 OA
ATOM      5  N   UNL     1      88.731  73.007  67.782  1.00  0.00    -0.339 N 
ATOM      6  C   UNL     1      89.725  73.950  67.261  1.00  0.00     0.120 C 
ATOM      7  C   UNL     1      87.404  73.104  67.154  1.00  0.00     0.120 C 
ATOM      8  C   UNL     1      89.865  73.834  65.747  1.00  0.00     0.022 C 
ATOM      9  C   UNL     1      87.503  72.995  65.633  1.00  0.00     0.022 C 
ATOM     10  C   UNL     1      88.512  73.987  65.060  1.00  0.00     0.004 C 
ENDBRANCH   1   3
BRANCH   2  11
ATOM     11  C   UNL     1      87.207  69.888  71.176  1.00  0.00     0.001 C 
ATOM     12  C   UNL     1      86.729  70.036  72.422  1.00  0.00     0.008 C 
BRANCH  12  13
ATOM     13  C   UNL     1      85.763  69.132  73.070  1.00  0.00    -0.022 A 
ATOM     14  C   UNL     1      84.670  68.680  72.344  1.00  0.00     0.058 A 
ATOM     15  C   UNL     1      85.975  68.754  74.398  1.00  0.00     0.012 A 
ATOM     16  C   UNL     1      83.794  67.835  72.993  1.00  0.00     0.166 A 
ATOM     17  C   UNL     1      85.072  67.897  75.031  1.00  0.00     0.051 A 
ATOM     18  O   UNL     1      82.668  67.288  72.458  1.00  0.00    -0.454 OA
ATOM     19  C   UNL     1      83.989  67.454  74.301  1.00  0.00     0.165 A 
ATOM     20  C   UNL     1      82.177  66.520  73.575  1.00  0.00     0.468 C 
ATOM     21  O   UNL     1      83.010  66.620  74.748  1.00  0.00    -0.454 OA
ENDBRANCH  12  13
ENDBRANCH   2  11
TORSDOF 3
ENDMDL
MODEL 9
REMARK VINA RESULT:    -6.415     10.875     12.504
REMARK INTER + INTRA:          -7.915
REMARK INTER:                  -7.536
REMARK INTRA:                  -0.379
REMARK UNBOUND:                -0.375
REMARK SMILES O=C(/C=C/C=C/c1ccc2c(c1)OCO2)N1CCCCC1
REMARK SMILES IDX 3 1 4 2 2 3 1 4 16 5 17 6 21 7 18 8 20 9 19 10 5 11 6 12
REMARK SMILES IDX 7 13 12 14 8 15 11 16 9 17 13 18 10 19 14 20 15 21
REMARK H PARENT
REMARK Flexibility Score: inf
ROOT
ATOM      1  C   UNL     1      91.512  76.016  82.955  1.00  0.00     0.071 C 
ATOM      2  C   UNL     1      91.883  76.812  83.956  1.00  0.00     0.006 C 
ENDROOT
BRANCH   1   3
ATOM      3  C   UNL     1      92.063  74.647  82.915  1.00  0.00     0.246 C 
ATOM      4  O   UNL     1      92.870  74.332  83.790  1.00  0.00    -0.270 OA
ATOM      5  N   UNL     1      91.639  73.806  81.887  1.00  0.00    -0.339 N 
ATOM      6  C   UNL     1      92.173  72.443  81.817  1.00  0.00     0.120 C 
ATOM      7  C   UNL     1      90.714  74.160  80.800  1.00  0.00     0.120 C 
ATOM      8  C   UNL     1      91.055  71.409  81.739  1.00  0.00     0.022 C 
ATOM      9  C   UNL     1      89.578  73.144  80.687  1.00  0.00     0.022 C 
ATOM     10  C   UNL     1      90.107  71.716  80.584  1.00  0.00     0.004 C 
ENDBRANCH   1   3
BRANCH   2  11
ATOM     11  C   UNL     1      91.397  78.169  84.081  1.00  0.00     0.001 C 
ATOM     12  C   UNL     1      90.089  78.473  84.101  1.00  0.00     0.008 C 
BRANCH  12  13
ATOM     13  C   UNL     1      89.541  79.835  84.218  1.00  0.00    -0.022 A 
ATOM     14  C   UNL     1      88.181  80.035  84.025  1.00  0.00     0.058 A 
ATOM     15  C   UNL     1      90.406  80.890  84.521  1.00  0.00     0.012 A 
ATOM     16  C   UNL     1      87.714  81.327  84.146  1.00  0.00     0.166 A 
ATOM     17  C   UNL     1      89.906  82.189  84.637  1.00  0.00     0.051 A 
ATOM     18  O   UNL     1      86.422  81.727  83.993  1.00  0.00    -0.454 OA
ATOM     19  C   UNL     1      88.554  82.376  84.443  1.00  0.00     0.165 A 
ATOM     20  C   UNL     1      86.543  83.145  84.228  1.00  0.00     0.468 C 
ATOM     21  O   UNL     1      87.893  83.564  84.514  1.00  0.00    -0.454 OA
ENDBRANCH  12  13
ENDBRANCH   2  11
TORSDOF 3
ENDMDL
MODEL 10
REMARK VINA RESULT:    -6.387      8.034     12.250
REMARK INTER + INTRA:          -7.882
REMARK INTER:                  -7.524
REMARK INTRA:                  -0.358
REMARK UNBOUND:                -0.375
REMARK SMILES O=C(/C=C/C=C/c1ccc2c(c1)OCO2)N1CCCCC1
REMARK SMILES IDX 3 1 4 2 2 3 1 4 16 5 17 6 21 7 18 8 20 9 19 10 5 11 6 12
REMARK SMILES IDX 7 13 12 14 8 15 11 16 9 17 13 18 10 19 14 20 15 21
REMARK H PARENT
REMARK Flexibility Score: inf
ROOT
ATOM      1  C   UNL     1      93.670  87.844  89.312  1.00  0.00     0.071 C 
ATOM      2  C   UNL     1      92.872  86.936  88.754  1.00  0.00     0.006 C 
ENDROOT
BRANCH   1   3
ATOM      3  C   UNL     1      93.048  88.913  90.119  1.00  0.00     0.246 C 
ATOM      4  O   UNL     1      92.522  88.589  91.185  1.00  0.00    -0.270 OA
ATOM      5  N   UNL     1      93.092  90.213  89.619  1.00  0.00    -0.339 N 
ATOM      6  C   UNL     1      92.478  91.295  90.395  1.00  0.00     0.120 C 
ATOM      7  C   UNL     1      93.670  90.631  88.333  1.00  0.00     0.120 C 
ATOM      8  C   UNL     1      93.456  92.443  90.621  1.00  0.00     0.022 C 
ATOM      9  C   UNL     1      94.655  91.785  88.517  1.00  0.00     0.022 C 
ATOM     10  C   UNL     1      94.032  92.939  89.298  1.00  0.00     0.004 C 
ENDBRANCH   1   3
BRANCH   2  11
ATOM     11  C   UNL     1      93.388  85.851  87.946  1.00  0.00     0.001 C 
ATOM     12  C   UNL     1      93.286  85.831  86.607  1.00  0.00     0.008 C 
BRANCH  12  13
ATOM     13  C   UNL     1      93.786  84.751  85.739  1.00  0.00    -0.022 A 
ATOM     14  C   UNL     1      94.967  84.941  85.035  1.00  0.00     0.058 A 
ATOM     15  C   UNL     1      93.056  83.563  85.648  1.00  0.00     0.012 A 
ATOM     16  C   UNL     1      95.394  83.900  84.236  1.00  0.00     0.166 A 
ATOM     17  C   UNL     1      93.511  82.526  84.831  1.00  0.00     0.051 A 
ATOM     18  O   UNL     1      96.520  83.892  83.471  1.00  0.00    -0.454 OA
ATOM     19  C   UNL     1      94.686  82.725  84.136  1.00  0.00     0.165 A 
ATOM     20  C   UNL     1      96.440  82.580  82.878  1.00  0.00     0.468 C 
ATOM     21  O   UNL     1      95.279  81.833  83.296  1.00  0.00    -0.454 OA
ENDBRANCH  12  13
ENDBRANCH   2  11
TORSDOF 3
ENDMDL
