MODEL 1
REMARK VINA RESULT:    -7.116      0.000      0.000
REMARK INTER + INTRA:          -8.729
REMARK INTER:                  -8.364
REMARK INTRA:                  -0.365
REMARK UNBOUND:                -0.365
REMARK SMILES O=C(/C=C/C=C/c1ccc2c(c1)OCO2)N1CCCCC1
REMARK SMILES IDX 3 1 4 2 2 3 1 4 16 5 17 6 21 7 18 8 20 9 19 10 5 11 6 12
REMARK SMILES IDX 7 13 12 14 8 15 11 16 9 17 13 18 10 19 14 20 15 21
REMARK H PARENT
REMARK Flexibility Score: inf
ROOT
ATOM      1  C   UNL     1      97.440  80.367  78.374  1.00  0.00     0.071 C 
ATOM      2  C   UNL     1      98.156  80.783  79.417  1.00  0.00     0.006 C 
ENDROOT
BRANCH   1   3
ATOM      3  C   UNL     1      98.132  80.197  77.081  1.00  0.00     0.246 C 
ATOM      4  O   UNL     1      98.755  79.149  76.902  1.00  0.00    -0.270 OA
ATOM      5  N   UNL     1      98.039  81.233  76.153  1.00  0.00    -0.339 N 
ATOM      6  C   UNL     1      98.721  81.095  74.862  1.00  0.00     0.120 C 
ATOM      7  C   UNL     1      97.344  82.514  76.347  1.00  0.00     0.120 C 
ATOM      8  C   UNL     1      97.766  81.341  73.699  1.00  0.00     0.022 C 
ATOM      9  C   UNL     1      96.379  82.799  75.197  1.00  0.00     0.022 C 
ATOM     10  C   UNL     1      97.069  82.691  73.841  1.00  0.00     0.004 C 
ENDBRANCH   1   3
BRANCH   2  11
ATOM     11  C   UNL     1      97.566  80.980  80.724  1.00  0.00     0.001 C 
ATOM     12  C   UNL     1      96.862  82.077  81.046  1.00  0.00     0.008 C 
BRANCH  12  13
ATOM     13  C   UNL     1      96.249  82.331  82.361  1.00  0.00    -0.022 A 
ATOM     14  C   UNL     1      96.130  83.640  82.809  1.00  0.00     0.058 A 
ATOM     15  C   UNL     1      95.804  81.247  83.122  1.00  0.00     0.012 A 
ATOM     16  C   UNL     1      95.549  83.827  84.046  1.00  0.00     0.166 A 
ATOM     17  C   UNL     1      95.220  81.466  84.372  1.00  0.00     0.051 A 
ATOM     18  O   UNL     1      95.344  85.026  84.659  1.00  0.00    -0.454 OA
ATOM     19  C   UNL     1      95.106  82.770  84.807  1.00  0.00     0.165 A 
ATOM     20  C   UNL     1      94.723  84.604  85.889  1.00  0.00     0.468 C 
ATOM     21  O   UNL     1      94.568  83.173  85.991  1.00  0.00    -0.454 OA
ENDBRANCH  12  13
ENDBRANCH   2  11
TORSDOF 3
ENDMDL
MODEL 2
REMARK VINA RESULT:    -7.054      3.019      8.836
REMARK INTER + INTRA:          -8.657
REMARK INTER:                  -8.258
REMARK INTRA:                  -0.399
REMARK UNBOUND:                -0.365
REMARK SMILES O=C(/C=C/C=C/c1ccc2c(c1)OCO2)N1CCCCC1
REMARK SMILES IDX 3 1 4 2 2 3 1 4 16 5 17 6 21 7 18 8 20 9 19 10 5 11 6 12
REMARK SMILES IDX 7 13 12 14 8 15 11 16 9 17 13 18 10 19 14 20 15 21
REMARK H PARENT
REMARK Flexibility Score: inf
ROOT
ATOM      1  C   UNL     1      96.551  80.661  82.327  1.00  0.00     0.071 C 
ATOM      2  C   UNL     1      96.963  81.827  81.834  1.00  0.00     0.006 C 
ENDROOT
BRANCH   1   3
ATOM      3  C   UNL     1      96.865  80.352  83.736  1.00  0.00     0.246 C 
ATOM      4  O   UNL     1      98.022  80.026  84.004  1.00  0.00    -0.270 OA
ATOM      5  N   UNL     1      95.831  80.445  84.667  1.00  0.00    -0.339 N 
ATOM      6  C   UNL     1      96.111  80.139  86.073  1.00  0.00     0.120 C 
ATOM      7  C   UNL     1      94.430  80.785  84.379  1.00  0.00     0.120 C 
ATOM      8  C   UNL     1      95.660  81.271  86.990  1.00  0.00     0.022 C 
ATOM      9  C   UNL     1      93.939  81.917  85.282  1.00  0.00     0.022 C 
ATOM     10  C   UNL     1      94.192  81.612  86.756  1.00  0.00     0.004 C 
ENDBRANCH   1   3
BRANCH   2  11
ATOM     11  C   UNL     1      96.705  82.219  80.465  1.00  0.00     0.001 C 
ATOM     12  C   UNL     1      97.376  81.703  79.423  1.00  0.00     0.008 C 
BRANCH  12  13
ATOM     13  C   UNL     1      97.159  82.071  78.013  1.00  0.00    -0.022 A 
ATOM     14  C   UNL     1      98.151  81.793  77.082  1.00  0.00     0.058 A 
ATOM     15  C   UNL     1      95.960  82.690  77.652  1.00  0.00     0.012 A 
ATOM     16  C   UNL     1      97.901  82.156  75.775  1.00  0.00     0.166 A 
ATOM     17  C   UNL     1      95.734  83.047  76.320  1.00  0.00     0.051 A 
ATOM     18  O   UNL     1      98.743  81.972  74.721  1.00  0.00    -0.454 OA
ATOM     19  C   UNL     1      96.725  82.767  75.403  1.00  0.00     0.165 A 
ATOM     20  C   UNL     1      97.964  82.535  73.645  1.00  0.00     0.468 C 
ATOM     21  O   UNL     1      96.682  83.041  74.071  1.00  0.00    -0.454 OA
ENDBRANCH  12  13
ENDBRANCH   2  11
TORSDOF 3
ENDMDL
MODEL 3
REMARK VINA RESULT:    -6.897     13.708     15.224
REMARK INTER + INTRA:          -8.471
REMARK INTER:                  -8.146
REMARK INTRA:                  -0.325
REMARK UNBOUND:                -0.365
REMARK SMILES O=C(/C=C/C=C/c1ccc2c(c1)OCO2)N1CCCCC1
REMARK SMILES IDX 3 1 4 2 2 3 1 4 16 5 17 6 21 7 18 8 20 9 19 10 5 11 6 12
REMARK SMILES IDX 7 13 12 14 8 15 11 16 9 17 13 18 10 19 14 20 15 21
REMARK H PARENT
REMARK Flexibility Score: inf
ROOT
ATOM      1  C   UNL     1      95.406  97.305  73.532  1.00  0.00     0.071 C 
ATOM      2  C   UNL     1      94.351  96.567  73.871  1.00  0.00     0.006 C 
ENDROOT
BRANCH   1   3
ATOM      3  C   UNL     1      95.257  98.254  72.411  1.00  0.00     0.246 C 
ATOM      4  O   UNL     1      94.771  99.358  72.660  1.00  0.00    -0.270 OA
ATOM      5  N   UNL     1      95.672  97.837  71.147  1.00  0.00    -0.339 N 
ATOM      6  C   UNL     1      95.532  98.756  70.013  1.00  0.00     0.120 C 
ATOM      7  C   UNL     1      96.214  96.514  70.803  1.00  0.00     0.120 C 
ATOM      8  C   UNL     1      96.850  98.922  69.264  1.00  0.00     0.022 C 
ATOM      9  C   UNL     1      97.536  96.638  70.046  1.00  0.00     0.022 C 
ATOM     10  C   UNL     1      97.412  97.568  68.842  1.00  0.00     0.004 C 
ENDBRANCH   1   3
BRANCH   2  11
ATOM     11  C   UNL     1      94.399  95.609  74.955  1.00  0.00     0.001 C 
ATOM     12  C   UNL     1      94.370  95.972  76.248  1.00  0.00     0.008 C 
BRANCH  12  13
ATOM     13  C   UNL     1      94.424  95.042  77.388  1.00  0.00    -0.022 A 
ATOM     14  C   UNL     1      95.486  95.126  78.278  1.00  0.00     0.058 A 
ATOM     15  C   UNL     1      93.404  94.099  77.542  1.00  0.00     0.012 A 
ATOM     16  C   UNL     1      95.493  94.233  79.330  1.00  0.00     0.166 A 
ATOM     17  C   UNL     1      93.436  93.208  78.617  1.00  0.00     0.051 A 
ATOM     18  O   UNL     1      96.441  94.154  80.304  1.00  0.00    -0.454 OA
ATOM     19  C   UNL     1      94.495  93.300  79.496  1.00  0.00     0.165 A 
ATOM     20  C   UNL     1      95.929  93.066  81.099  1.00  0.00     0.468 C 
ATOM     21  O   UNL     1      94.694  92.519  80.593  1.00  0.00    -0.454 OA
ENDBRANCH  12  13
ENDBRANCH   2  11
TORSDOF 3
ENDMDL
MODEL 4
REMARK VINA RESULT:    -6.859      2.065      2.785
REMARK INTER + INTRA:          -8.427
REMARK INTER:                  -8.200
REMARK INTRA:                  -0.227
REMARK UNBOUND:                -0.365
REMARK SMILES O=C(/C=C/C=C/c1ccc2c(c1)OCO2)N1CCCCC1
REMARK SMILES IDX 3 1 4 2 2 3 1 4 16 5 17 6 21 7 18 8 20 9 19 10 5 11 6 12
REMARK SMILES IDX 7 13 12 14 8 15 11 16 9 17 13 18 10 19 14 20 15 21
REMARK H PARENT
REMARK Flexibility Score: inf
ROOT
ATOM      1  C   UNL     1      96.310  81.956  77.506  1.00  0.00     0.071 C 
ATOM      2  C   UNL     1      97.326  82.192  78.335  1.00  0.00     0.006 C 
ENDROOT
BRANCH   1   3
ATOM      3  C   UNL     1      96.318  82.626  76.190  1.00  0.00     0.246 C 
ATOM      4  O   UNL     1      95.555  83.579  76.032  1.00  0.00    -0.270 OA
ATOM      5  N   UNL     1      97.184  82.133  75.216  1.00  0.00    -0.339 N 
ATOM      6  C   UNL     1      97.211  82.773  73.897  1.00  0.00     0.120 C 
ATOM      7  C   UNL     1      98.076  80.971  75.352  1.00  0.00     0.120 C 
ATOM      8  C   UNL     1      98.629  83.166  73.497  1.00  0.00     0.022 C 
ATOM      9  C   UNL     1      99.509  81.325  74.956  1.00  0.00     0.022 C 
ATOM     10  C   UNL     1      99.570  81.969  73.574  1.00  0.00     0.004 C 
ENDBRANCH   1   3
BRANCH   2  11
ATOM     11  C   UNL     1      97.406  81.582  79.646  1.00  0.00     0.001 C 
ATOM     12  C   UNL     1      96.797  82.098  80.725  1.00  0.00     0.008 C 
BRANCH  12  13
ATOM     13  C   UNL     1      96.852  81.524  82.081  1.00  0.00    -0.022 A 
ATOM     14  C   UNL     1      95.948  81.965  83.038  1.00  0.00     0.058 A 
ATOM     15  C   UNL     1      97.814  80.552  82.366  1.00  0.00     0.012 A 
ATOM     16  C   UNL     1      96.040  81.397  84.293  1.00  0.00     0.166 A 
ATOM     17  C   UNL     1      97.884  79.995  83.645  1.00  0.00     0.051 A 
ATOM     18  O   UNL     1      95.250  81.694  85.362  1.00  0.00    -0.454 OA
ATOM     19  C   UNL     1      96.981  80.439  84.588  1.00  0.00     0.165 A 
ATOM     20  C   UNL     1      95.801  80.814  86.362  1.00  0.00     0.468 C 
ATOM     21  O   UNL     1      96.900  80.014  85.879  1.00  0.00    -0.454 OA
ENDBRANCH  12  13
ENDBRANCH   2  11
TORSDOF 3
ENDMDL
MODEL 5
REMARK VINA RESULT:    -6.797     13.873     15.228
REMARK INTER + INTRA:          -8.355
REMARK INTER:                  -8.141
REMARK INTRA:                  -0.214
REMARK UNBOUND:                -0.365
REMARK SMILES O=C(/C=C/C=C/c1ccc2c(c1)OCO2)N1CCCCC1
REMARK SMILES IDX 3 1 4 2 2 3 1 4 16 5 17 6 21 7 18 8 20 9 19 10 5 11 6 12
REMARK SMILES IDX 7 13 12 14 8 15 11 16 9 17 13 18 10 19 14 20 15 21
REMARK H PARENT
REMARK Flexibility Score: inf
ROOT
ATOM      1  C   UNL     1      95.932  96.500  73.473  1.00  0.00     0.071 C 
ATOM      2  C   UNL     1      94.818  95.835  73.772  1.00  0.00     0.006 C 
ENDROOT
BRANCH   1   3
ATOM      3  C   UNL     1      95.948  97.307  72.236  1.00  0.00     0.246 C 
ATOM      4  O   UNL     1      96.621  96.889  71.293  1.00  0.00    -0.270 OA
ATOM      5  N   UNL     1      95.208  98.488  72.221  1.00  0.00    -0.339 N 
ATOM      6  C   UNL     1      95.209  99.313  71.009  1.00  0.00     0.120 C 
ATOM      7  C   UNL     1      94.431  99.041  73.341  1.00  0.00     0.120 C 
ATOM      8  C   UNL     1      93.790  99.623  70.545  1.00  0.00     0.022 C 
ATOM      9  C   UNL     1      93.001  99.369  72.913  1.00  0.00     0.022 C 
ATOM     10  C   UNL     1      92.972 100.251  71.669  1.00  0.00     0.004 C 
ENDBRANCH   1   3
BRANCH   2  11
ATOM     11  C   UNL     1      94.707  95.018  74.962  1.00  0.00     0.001 C 
ATOM     12  C   UNL     1      95.052  95.459  76.182  1.00  0.00     0.008 C 
BRANCH  12  13
ATOM     13  C   UNL     1      94.966  94.669  77.421  1.00  0.00    -0.022 A 
ATOM     14  C   UNL     1      96.032  94.689  78.311  1.00  0.00     0.058 A 
ATOM     15  C   UNL     1      93.813  93.920  77.669  1.00  0.00     0.012 A 
ATOM     16  C   UNL     1      95.905  93.934  79.458  1.00  0.00     0.166 A 
ATOM     17  C   UNL     1      93.711  93.163  78.838  1.00  0.00     0.051 A 
ATOM     18  O   UNL     1      96.834  93.821  80.447  1.00  0.00    -0.454 OA
ATOM     19  C   UNL     1      94.775  93.191  79.715  1.00  0.00     0.165 A 
ATOM     20  C   UNL     1      96.162  92.924  81.354  1.00  0.00     0.468 C 
ATOM     21  O   UNL     1      94.855  92.520  80.897  1.00  0.00    -0.454 OA
ENDBRANCH  12  13
ENDBRANCH   2  11
TORSDOF 3
ENDMDL
MODEL 6
REMARK VINA RESULT:    -6.703     24.601     25.953
REMARK INTER + INTRA:          -8.244
REMARK INTER:                  -7.834
REMARK INTRA:                  -0.410
REMARK UNBOUND:                -0.365
REMARK SMILES O=C(/C=C/C=C/c1ccc2c(c1)OCO2)N1CCCCC1
REMARK SMILES IDX 3 1 4 2 2 3 1 4 16 5 17 6 21 7 18 8 20 9 19 10 5 11 6 12
REMARK SMILES IDX 7 13 12 14 8 15 11 16 9 17 13 18 10 19 14 20 15 21
REMARK H PARENT
REMARK Flexibility Score: inf
ROOT
ATOM      1  C   UNL     1      76.033  85.913  67.297  1.00  0.00     0.071 C 
ATOM      2  C   UNL     1      76.731  87.047  67.282  1.00  0.00     0.006 C 
ENDROOT
BRANCH   1   3
ATOM      3  C   UNL     1      76.551  84.768  66.521  1.00  0.00     0.246 C 
ATOM      4  O   UNL     1      77.745  84.491  66.643  1.00  0.00    -0.270 OA
ATOM      5  N   UNL     1      75.658  84.083  65.699  1.00  0.00    -0.339 N 
ATOM      6  C   UNL     1      76.144  82.945  64.912  1.00  0.00     0.120 C 
ATOM      7  C   UNL     1      74.239  84.411  65.493  1.00  0.00     0.120 C 
ATOM      8  C   UNL     1      75.291  81.703  65.144  1.00  0.00     0.022 C 
ATOM      9  C   UNL     1      73.350  83.188  65.713  1.00  0.00     0.022 C 
ATOM     10  C   UNL     1      73.817  81.995  64.883  1.00  0.00     0.004 C 
ENDBRANCH   1   3
BRANCH   2  11
ATOM     11  C   UNL     1      76.304  88.222  68.011  1.00  0.00     0.001 C 
ATOM     12  C   UNL     1      75.051  88.378  68.469  1.00  0.00     0.008 C 
BRANCH  12  13
ATOM     13  C   UNL     1      74.563  89.555  69.207  1.00  0.00    -0.022 A 
ATOM     14  C   UNL     1      73.278  89.536  69.733  1.00  0.00     0.058 A 
ATOM     15  C   UNL     1      75.406  90.658  69.358  1.00  0.00     0.012 A 
ATOM     16  C   UNL     1      72.866  90.662  70.417  1.00  0.00     0.166 A 
ATOM     17  C   UNL     1      74.963  91.784  70.055  1.00  0.00     0.051 A 
ATOM     18  O   UNL     1      71.649  90.839  71.002  1.00  0.00    -0.454 OA
ATOM     19  C   UNL     1      73.685  91.756  70.574  1.00  0.00     0.165 A 
ATOM     20  C   UNL     1      71.796  92.167  71.545  1.00  0.00     0.468 C 
ATOM     21  O   UNL     1      73.085  92.755  71.277  1.00  0.00    -0.454 OA
ENDBRANCH  12  13
ENDBRANCH   2  11
TORSDOF 3
ENDMDL
MODEL 7
REMARK VINA RESULT:    -6.663     24.461     26.035
REMARK INTER + INTRA:          -8.197
REMARK INTER:                  -7.833
REMARK INTRA:                  -0.364
REMARK UNBOUND:                -0.365
REMARK SMILES O=C(/C=C/C=C/c1ccc2c(c1)OCO2)N1CCCCC1
REMARK SMILES IDX 3 1 4 2 2 3 1 4 16 5 17 6 21 7 18 8 20 9 19 10 5 11 6 12
REMARK SMILES IDX 7 13 12 14 8 15 11 16 9 17 13 18 10 19 14 20 15 21
REMARK H PARENT
REMARK Flexibility Score: inf
ROOT
ATOM      1  C   UNL     1      76.515  85.928  65.987  1.00  0.00     0.071 C 
ATOM      2  C   UNL     1      77.025  86.536  67.056  1.00  0.00     0.006 C 
ENDROOT
BRANCH   1   3
ATOM      3  C   UNL     1      76.770  84.483  65.821  1.00  0.00     0.246 C 
ATOM      4  O   UNL     1      77.843  84.044  66.235  1.00  0.00    -0.270 OA
ATOM      5  N   UNL     1      75.783  83.716  65.204  1.00  0.00    -0.339 N 
ATOM      6  C   UNL     1      76.009  82.279  65.021  1.00  0.00     0.120 C 
ATOM      7  C   UNL     1      74.511  84.213  64.658  1.00  0.00     0.120 C 
ATOM      8  C   UNL     1      74.854  81.457  65.583  1.00  0.00     0.022 C 
ATOM      9  C   UNL     1      73.327  83.410  65.196  1.00  0.00     0.022 C 
ATOM     10  C   UNL     1      73.523  81.910  64.993  1.00  0.00     0.004 C 
ENDBRANCH   1   3
BRANCH   2  11
ATOM     11  C   UNL     1      76.830  87.949  67.305  1.00  0.00     0.001 C 
ATOM     12  C   UNL     1      75.748  88.433  67.935  1.00  0.00     0.008 C 
BRANCH  12  13
ATOM     13  C   UNL     1      75.496  89.858  68.205  1.00  0.00    -0.022 A 
ATOM     14  C   UNL     1      75.636  90.777  67.174  1.00  0.00     0.058 A 
ATOM     15  C   UNL     1      75.122  90.247  69.494  1.00  0.00     0.012 A 
ATOM     16  C   UNL     1      75.389  92.100  67.477  1.00  0.00     0.166 A 
ATOM     17  C   UNL     1      74.878  91.594  69.773  1.00  0.00     0.051 A 
ATOM     18  O   UNL     1      75.473  93.147  66.610  1.00  0.00    -0.454 OA
ATOM     19  C   UNL     1      75.020  92.498  68.741  1.00  0.00     0.165 A 
ATOM     20  C   UNL     1      75.115  94.247  67.471  1.00  0.00     0.468 C 
ATOM     21  O   UNL     1      74.827  93.843  68.825  1.00  0.00    -0.454 OA
ENDBRANCH  12  13
ENDBRANCH   2  11
TORSDOF 3
ENDMDL
MODEL 8
REMARK VINA RESULT:    -6.559      3.589      9.115
REMARK INTER + INTRA:          -8.074
REMARK INTER:                  -7.715
REMARK INTRA:                  -0.359
REMARK UNBOUND:                -0.365
REMARK SMILES O=C(/C=C/C=C/c1ccc2c(c1)OCO2)N1CCCCC1
REMARK SMILES IDX 3 1 4 2 2 3 1 4 16 5 17 6 21 7 18 8 20 9 19 10 5 11 6 12
REMARK SMILES IDX 7 13 12 14 8 15 11 16 9 17 13 18 10 19 14 20 15 21
REMARK H PARENT
REMARK Flexibility Score: inf
ROOT
ATOM      1  C   UNL     1      94.544  80.551  84.704  1.00  0.00     0.071 C 
ATOM      2  C   UNL     1      95.321  81.371  83.997  1.00  0.00     0.006 C 
ENDROOT
BRANCH   1   3
ATOM      3  C   UNL     1      93.867  81.094  85.899  1.00  0.00     0.246 C 
ATOM      4  O   UNL     1      94.570  81.634  86.755  1.00  0.00    -0.270 OA
ATOM      5  N   UNL     1      92.483  80.956  85.980  1.00  0.00    -0.339 N 
ATOM      6  C   UNL     1      91.783  81.480  87.157  1.00  0.00     0.120 C 
ATOM      7  C   UNL     1      91.618  80.280  85.002  1.00  0.00     0.120 C 
ATOM      8  C   UNL     1      90.639  82.406  86.759  1.00  0.00     0.022 C 
ATOM      9  C   UNL     1      90.454  81.176  84.579  1.00  0.00     0.022 C 
ATOM     10  C   UNL     1      89.690  81.714  85.786  1.00  0.00     0.004 C 
ENDBRANCH   1   3
BRANCH   2  11
ATOM     11  C   UNL     1      96.025  80.931  82.812  1.00  0.00     0.001 C 
ATOM     12  C   UNL     1      96.465  81.782  81.871  1.00  0.00     0.008 C 
BRANCH  12  13
ATOM     13  C   UNL     1      97.179  81.388  80.644  1.00  0.00    -0.022 A 
ATOM     14  C   UNL     1      97.058  82.178  79.509  1.00  0.00     0.058 A 
ATOM     15  C   UNL     1      97.959  80.229  80.656  1.00  0.00     0.012 A 
ATOM     16  C   UNL     1      97.745  81.769  78.385  1.00  0.00     0.166 A 
ATOM     17  C   UNL     1      98.644  79.838  79.504  1.00  0.00     0.051 A 
ATOM     18  O   UNL     1      97.754  82.403  77.180  1.00  0.00    -0.454 OA
ATOM     19  C   UNL     1      98.517  80.630  78.382  1.00  0.00     0.165 A 
ATOM     20  C   UNL     1      98.618  81.535  76.419  1.00  0.00     0.468 C 
ATOM     21  O   UNL     1      99.107  80.408  77.176  1.00  0.00    -0.454 OA
ENDBRANCH  12  13
ENDBRANCH   2  11
TORSDOF 3
ENDMDL
MODEL 9
REMARK VINA RESULT:    -6.379      2.463      3.553
REMARK INTER + INTRA:          -7.862
REMARK INTER:                  -7.436
REMARK INTRA:                  -0.426
REMARK UNBOUND:                -0.365
REMARK SMILES O=C(/C=C/C=C/c1ccc2c(c1)OCO2)N1CCCCC1
REMARK SMILES IDX 3 1 4 2 2 3 1 4 16 5 17 6 21 7 18 8 20 9 19 10 5 11 6 12
REMARK SMILES IDX 7 13 12 14 8 15 11 16 9 17 13 18 10 19 14 20 15 21
REMARK H PARENT
REMARK Flexibility Score: inf
ROOT
ATOM      1  C   UNL     1      97.992  80.970  76.155  1.00  0.00     0.071 C 
ATOM      2  C   UNL     1      97.311  81.975  76.701  1.00  0.00     0.006 C 
ENDROOT
BRANCH   1   3
ATOM      3  C   UNL     1      98.068  80.903  74.682  1.00  0.00     0.246 C 
ATOM      4  O   UNL     1      97.091  80.454  74.081  1.00  0.00    -0.270 OA
ATOM      5  N   UNL     1      99.240  81.346  74.071  1.00  0.00    -0.339 N 
ATOM      6  C   UNL     1      99.348  81.286  72.610  1.00  0.00     0.120 C 
ATOM      7  C   UNL     1     100.442  81.844  74.756  1.00  0.00     0.120 C 
ATOM      8  C   UNL     1      99.748  82.637  72.026  1.00  0.00     0.022 C 
ATOM      9  C   UNL     1     100.878  83.198  74.195  1.00  0.00     0.022 C 
ATOM     10  C   UNL     1     101.025  83.157  72.676  1.00  0.00     0.004 C 
ENDBRANCH   1   3
BRANCH   2  11
ATOM     11  C   UNL     1      97.179  82.125  78.135  1.00  0.00     0.001 C 
ATOM     12  C   UNL     1      97.605  81.196  79.005  1.00  0.00     0.008 C 
BRANCH  12  13
ATOM     13  C   UNL     1      97.489  81.294  80.470  1.00  0.00    -0.022 A 
ATOM     14  C   UNL     1      98.226  80.427  81.266  1.00  0.00     0.058 A 
ATOM     15  C   UNL     1      96.640  82.258  81.019  1.00  0.00     0.012 A 
ATOM     16  C   UNL     1      98.084  80.558  82.632  1.00  0.00     0.166 A 
ATOM     17  C   UNL     1      96.515  82.368  82.406  1.00  0.00     0.051 A 
ATOM     18  O   UNL     1      98.716  79.807  83.575  1.00  0.00    -0.454 OA
ATOM     19  C   UNL     1      97.251  81.502  83.187  1.00  0.00     0.165 A 
ATOM     20  C   UNL     1      98.187  80.385  84.786  1.00  0.00     0.468 C 
ATOM     21  O   UNL     1      97.257  81.461  84.547  1.00  0.00    -0.454 OA
ENDBRANCH  12  13
ENDBRANCH   2  11
TORSDOF 3
ENDMDL
MODEL 10
REMARK VINA RESULT:    -6.275     19.040     21.160
REMARK INTER + INTRA:          -7.741
REMARK INTER:                  -7.326
REMARK INTRA:                  -0.415
REMARK UNBOUND:                -0.365
REMARK SMILES O=C(/C=C/C=C/c1ccc2c(c1)OCO2)N1CCCCC1
REMARK SMILES IDX 3 1 4 2 2 3 1 4 16 5 17 6 21 7 18 8 20 9 19 10 5 11 6 12
REMARK SMILES IDX 7 13 12 14 8 15 11 16 9 17 13 18 10 19 14 20 15 21
REMARK H PARENT
REMARK Flexibility Score: inf
ROOT
ATOM      1  C   UNL     1      90.586  98.941  69.115  1.00  0.00     0.071 C 
ATOM      2  C   UNL     1      90.194  99.136  70.373  1.00  0.00     0.006 C 
ENDROOT
BRANCH   1   3
ATOM      3  C   UNL     1      89.557  98.606  68.111  1.00  0.00     0.246 C 
ATOM      4  O   UNL     1      89.156  97.442  68.073  1.00  0.00    -0.270 OA
ATOM      5  N   UNL     1      89.112  99.626  67.272  1.00  0.00    -0.339 N 
ATOM      6  C   UNL     1      88.094  99.323  66.261  1.00  0.00     0.120 C 
ATOM      7  C   UNL     1      89.598 101.014  67.257  1.00  0.00     0.120 C 
ATOM      8  C   UNL     1      86.912 100.281  66.356  1.00  0.00     0.022 C 
ATOM      9  C   UNL     1      88.439 102.007  67.347  1.00  0.00     0.022 C 
ATOM     10  C   UNL     1      87.377 101.732  66.287  1.00  0.00     0.004 C 
ENDBRANCH   1   3
BRANCH   2  11
ATOM     11  C   UNL     1      91.129  99.468  71.427  1.00  0.00     0.001 C 
ATOM     12  C   UNL     1      92.460  99.375  71.275  1.00  0.00     0.008 C 
BRANCH  12  13
ATOM     13  C   UNL     1      93.453  99.691  72.315  1.00  0.00    -0.022 A 
ATOM     14  C   UNL     1      94.211  98.664  72.860  1.00  0.00     0.058 A 
ATOM     15  C   UNL     1      93.606 101.018  72.724  1.00  0.00     0.012 A 
ATOM     16  C   UNL     1      95.129  99.010  73.830  1.00  0.00     0.166 A 
ATOM     17  C   UNL     1      94.543 101.340  73.708  1.00  0.00     0.051 A 
ATOM     18  O   UNL     1      95.961  98.153  74.484  1.00  0.00    -0.454 OA
ATOM     19  C   UNL     1      95.291 100.312  74.244  1.00  0.00     0.165 A 
ATOM     20  C   UNL     1      96.664  99.063  75.354  1.00  0.00     0.468 C 
ATOM     21  O   UNL     1      96.244 100.435  75.207  1.00  0.00    -0.454 OA
ENDBRANCH  12  13
ENDBRANCH   2  11
TORSDOF 3
ENDMDL
