MODEL 1
REMARK VINA RESULT:    -7.060      0.000      0.000
REMARK INTER + INTRA:         -13.279
REMARK INTER:                 -12.425
REMARK INTRA:                  -0.854
REMARK UNBOUND:                -0.854
REMARK SMILES C=C(C)[C@]12C[C@@H](C)[C@@]34O[C@](Cc5ccccc5)(O[C@@H]1[C@@H]3C=C(COC(=O)Cc1ccc(O)c(OC)c1)C[C@]1(O)C(=O)C(C)=C[C@@H]41)O2
REMARK SMILES IDX 23 1 22 2 21 3 20 4 9 5 8 6 10 7 6 8 18 9 46 10 19 11 5 12
REMARK SMILES IDX 7 13 4 14 45 15 38 16 44 17 40 18 42 20 41 21 43 22 39 23
REMARK SMILES IDX 11 25 12 26 13 27 17 28 14 29 16 30 15 31 2 32 3 33 1 34
REMARK SMILES IDX 37 35 24 37 25 38 26 39 27 40 28 41 36 42 29 43 33 44 30 45
REMARK SMILES IDX 31 46 34 47 35 48 32 49
REMARK H PARENT 39 24 32 50
REMARK Flexibility Score: 90.00
ROOT
ATOM      1  C   UNL     1      97.589  82.361  82.088  1.00  0.00     0.264 C 
ENDROOT
BRANCH   1   2
ATOM      2  C   UNL     1      96.377  82.050  82.935  1.00  0.00    -0.033 C 
ATOM      3  C   UNL     1      96.060  80.764  83.185  1.00  0.00    -0.015 C 
BRANCH   3   4
ATOM      4  C   UNL     1      94.866  80.192  83.933  1.00  0.00     0.078 C 
ATOM      5  O   UNL     1      95.566  79.893  86.286  1.00  0.00    -0.319 OA
ATOM      6  C   UNL     1      94.641  80.629  85.428  1.00  0.00     0.095 C 
ATOM      7  C   UNL     1      95.716  78.495  85.976  1.00  0.00     0.289 C 
ATOM      8  C   UNL     1      93.152  80.251  85.819  1.00  0.00     0.023 C 
ATOM      9  O   UNL     1      96.144  78.306  84.630  1.00  0.00    -0.320 OA
ATOM     10  O   UNL     1      94.488  77.781  86.092  1.00  0.00    -0.313 OA
ATOM     11  C   UNL     1      94.937  78.645  83.931  1.00  0.00     0.170 C 
ATOM     12  C   UNL     1      92.680  78.957  85.087  1.00  0.00     0.049 C 
ATOM     13  C   UNL     1      92.880  80.114  87.326  1.00  0.00     0.011 C 
ATOM     14  C   UNL     1      93.844  78.001  84.821  1.00  0.00     0.122 C 
BRANCH   6  15
ATOM     15  C   UNL     1      95.026  82.123  85.631  1.00  0.00     0.086 C 
ATOM     16  C   UNL     1      94.573  83.098  84.525  1.00  0.00     0.140 CG0
ATOM     17  C   UNL     1      94.625  82.821  86.900  1.00  0.00    -0.010 C 
ATOM     18  C   UNL     1      94.282  84.363  85.305  1.00  0.00     0.190 C 
ATOM     19  G   UNL     1      95.648  83.303  83.459  1.00  0.00     0.000 G0
ATOM     20  C   UNL     1      94.228  84.090  86.754  1.00  0.00    -0.008 C 
ATOM     21  O   UNL     1      94.066  85.462  84.817  1.00  0.00    -0.291 OA
ATOM     22  C   UNL     1      93.847  85.091  87.772  1.00  0.00     0.048 C 
BRANCH  16  23
ATOM     23  O   UNL     1      93.324  82.765  83.943  1.00  0.00    -0.381 OA
ATOM     24  H   UNL     1      93.167  83.359  83.190  1.00  0.00     0.212 HD
ENDBRANCH  16  23
ENDBRANCH   6  15
BRANCH   7  25
ATOM     25  C   UNL     1      96.737  77.903  86.926  1.00  0.00     0.135 C 
BRANCH  25  26
ATOM     26  C   UNL     1      97.527  78.970  87.643  1.00  0.00    -0.040 A 
ATOM     27  C   UNL     1      96.962  79.650  88.722  1.00  0.00     0.004 A 
ATOM     28  C   UNL     1      98.823  79.276  87.228  1.00  0.00     0.004 A 
ATOM     29  C   UNL     1      97.692  80.637  89.385  1.00  0.00     0.000 A 
ATOM     30  C   UNL     1      99.553  80.262  87.891  1.00  0.00     0.000 A 
ATOM     31  C   UNL     1      98.987  80.943  88.969  1.00  0.00     0.000 A 
ENDBRANCH  25  26
ENDBRANCH   7  25
BRANCH  14  32
ATOM     32  C   UNL     1      93.392  76.681  84.287  1.00  0.00    -0.046 C 
ATOM     33  C   UNL     1      92.267  76.717  83.296  1.00  0.00     0.042 C 
ATOM     34  C   UNL     1      93.960  75.528  84.672  1.00  0.00     0.010 C 
ENDBRANCH  14  32
ENDBRANCH   3   4
BRANCH   2  35
ATOM     35  C   UNL     1      95.654  83.293  83.418  1.00  0.00     0.078 CG0
ATOM     36  G   UNL     1      94.601  83.109  84.509  1.00  0.00     0.000 G0
ENDBRANCH   2  35
ENDBRANCH   1   2
BRANCH   1  37
ATOM     37  O   UNL     1      97.920  81.229  81.313  1.00  0.00    -0.461 OA
BRANCH  37  38
ATOM     38  C   UNL     1      98.143  81.452  79.974  1.00  0.00     0.310 C 
ATOM     39  O   UNL     1      98.198  80.581  79.117  1.00  0.00    -0.252 OA
BRANCH  38  40
ATOM     40  C   UNL     1      98.309  82.933  79.730  1.00  0.00     0.158 C 
BRANCH  40  41
ATOM     41  C   UNL     1      97.889  83.351  78.345  1.00  0.00    -0.033 A 
ATOM     42  C   UNL     1      98.769  83.197  77.273  1.00  0.00     0.054 A 
ATOM     43  C   UNL     1      96.621  83.892  78.133  1.00  0.00     0.008 A 
ATOM     44  C   UNL     1      98.381  83.584  75.990  1.00  0.00     0.160 A 
ATOM     45  C   UNL     1      96.233  84.279  76.850  1.00  0.00     0.050 A 
ATOM     46  C   UNL     1      97.112  84.126  75.779  1.00  0.00     0.157 A 
BRANCH  44  47
ATOM     47  O   UNL     1      99.249  83.429  74.952  1.00  0.00    -0.493 OA
ATOM     48  C   UNL     1      99.983  82.207  74.898  1.00  0.00     0.278 C 
ENDBRANCH  44  47
BRANCH  46  49
ATOM     49  O   UNL     1      96.722  84.506  74.531  1.00  0.00    -0.504 OA
ATOM     50  H   UNL     1      95.801  84.817  74.568  1.00  0.00     0.293 HD
ENDBRANCH  46  49
ENDBRANCH  40  41
ENDBRANCH  38  40
ENDBRANCH  37  38
ENDBRANCH   1  37
TORSDOF 11
ENDMDL
MODEL 2
REMARK VINA RESULT:    -6.254     15.239     18.051
REMARK INTER + INTRA:         -11.861
REMARK INTER:                 -11.096
REMARK INTRA:                  -0.765
REMARK UNBOUND:                -0.854
REMARK SMILES C=C(C)[C@]12C[C@@H](C)[C@@]34O[C@](Cc5ccccc5)(O[C@@H]1[C@@H]3C=C(COC(=O)Cc1ccc(O)c(OC)c1)C[C@]1(O)C(=O)C(C)=C[C@@H]41)O2
REMARK SMILES IDX 23 1 22 2 21 3 20 4 9 5 8 6 10 7 6 8 18 9 46 10 19 11 5 12
REMARK SMILES IDX 7 13 4 14 45 15 38 16 44 17 40 18 42 20 41 21 43 22 39 23
REMARK SMILES IDX 11 25 12 26 13 27 17 28 14 29 16 30 15 31 2 32 3 33 1 34
REMARK SMILES IDX 37 35 24 37 25 38 26 39 27 40 28 41 36 42 29 43 33 44 30 45
REMARK SMILES IDX 31 46 34 47 35 48 32 49
REMARK H PARENT 39 24 32 50
REMARK Flexibility Score: 90.00
ROOT
ATOM      1  C   UNL     1      95.005  96.449  78.433  1.00  0.00     0.264 C 
ENDROOT
BRANCH   1   2
ATOM      2  C   UNL     1      96.042  97.476  78.822  1.00  0.00    -0.033 C 
ATOM      3  C   UNL     1      96.051  97.960  80.081  1.00  0.00    -0.015 C 
BRANCH   3   4
ATOM      4  C   UNL     1      96.928  99.041  80.693  1.00  0.00     0.078 C 
ATOM      5  O   UNL     1      98.882  97.901  81.693  1.00  0.00    -0.319 OA
ATOM      6  C   UNL     1      98.490  98.849  80.653  1.00  0.00     0.095 C 
ATOM      7  C   UNL     1      98.226  98.074  82.964  1.00  0.00     0.289 C 
ATOM      8  C   UNL     1      99.154 100.256  80.950  1.00  0.00     0.023 C 
ATOM      9  O   UNL     1      96.810  97.994  82.830  1.00  0.00    -0.320 OA
ATOM     10  O   UNL     1      98.487  99.352  83.538  1.00  0.00    -0.313 OA
ATOM     11  C   UNL     1      96.547  99.248  82.179  1.00  0.00     0.170 C 
ATOM     12  C   UNL     1      98.288 101.100  81.935  1.00  0.00     0.049 C 
ATOM     13  C   UNL     1     100.605 100.208  81.456  1.00  0.00     0.011 C 
ATOM     14  C   UNL     1      97.514 100.212  82.910  1.00  0.00     0.122 C 
BRANCH   6  15
ATOM     15  C   UNL     1      98.929  98.169  79.323  1.00  0.00     0.086 C 
ATOM     16  C   UNL     1      98.239  98.678  78.040  1.00  0.00     0.140 CG0
ATOM     17  C   UNL     1     100.385  98.148  78.953  1.00  0.00    -0.010 C 
ATOM     18  C   UNL     1      99.341  98.559  77.009  1.00  0.00     0.190 C 
ATOM     19  G   UNL     1      97.008  97.848  77.679  1.00  0.00     0.000 G0
ATOM     20  C   UNL     1     100.649  98.337  77.655  1.00  0.00    -0.008 C 
ATOM     21  O   UNL     1      99.198  98.680  75.802  1.00  0.00    -0.291 OA
ATOM     22  C   UNL     1     101.935  98.298  76.930  1.00  0.00     0.048 C 
BRANCH  16  23
ATOM     23  O   UNL     1      97.941 100.064  78.059  1.00  0.00    -0.381 OA
ATOM     24  H   UNL     1      98.353 100.456  78.847  1.00  0.00     0.212 HD
ENDBRANCH  16  23
ENDBRANCH   6  15
BRANCH   7  25
ATOM     25  C   UNL     1      98.714  96.989  83.903  1.00  0.00     0.135 C 
BRANCH  25  26
ATOM     26  C   UNL     1     100.020  97.356  84.561  1.00  0.00    -0.040 A 
ATOM     27  C   UNL     1     100.040  97.743  85.902  1.00  0.00     0.004 A 
ATOM     28  C   UNL     1     101.207  97.308  83.832  1.00  0.00     0.004 A 
ATOM     29  C   UNL     1     101.248  98.083  86.512  1.00  0.00     0.000 A 
ATOM     30  C   UNL     1     102.415  97.648  84.442  1.00  0.00     0.000 A 
ATOM     31  C   UNL     1     102.435  98.035  85.782  1.00  0.00     0.000 A 
ENDBRANCH  25  26
ENDBRANCH   7  25
BRANCH  14  32
ATOM     32  C   UNL     1      96.823 100.997  83.977  1.00  0.00    -0.046 C 
ATOM     33  C   UNL     1      97.698 101.564  85.055  1.00  0.00     0.042 C 
ATOM     34  C   UNL     1      95.494 101.185  83.972  1.00  0.00     0.010 C 
ENDBRANCH  14  32
ENDBRANCH   3   4
BRANCH   2  35
ATOM     35  C   UNL     1      96.982  97.832  77.686  1.00  0.00     0.078 CG0
ATOM     36  G   UNL     1      98.218  98.660  78.035  1.00  0.00     0.000 G0
ENDBRANCH   2  35
ENDBRANCH   1   2
BRANCH   1  37
ATOM     37  O   UNL     1      95.231  96.037  77.102  1.00  0.00    -0.461 OA
BRANCH  37  38
ATOM     38  C   UNL     1      94.235  96.325  76.199  1.00  0.00     0.310 C 
ATOM     39  O   UNL     1      94.390  96.423  74.989  1.00  0.00    -0.252 OA
BRANCH  38  40
ATOM     40  C   UNL     1      92.925  96.500  76.931  1.00  0.00     0.158 C 
BRANCH  40  41
ATOM     41  C   UNL     1      92.033  95.289  76.837  1.00  0.00    -0.033 A 
ATOM     42  C   UNL     1      91.826  94.669  75.604  1.00  0.00     0.054 A 
ATOM     43  C   UNL     1      91.415  94.787  77.983  1.00  0.00     0.008 A 
ATOM     44  C   UNL     1      91.000  93.548  75.518  1.00  0.00     0.160 A 
ATOM     45  C   UNL     1      90.589  93.666  77.896  1.00  0.00     0.050 A 
ATOM     46  C   UNL     1      90.381  93.047  76.664  1.00  0.00     0.157 A 
BRANCH  44  47
ATOM     47  O   UNL     1      90.804  92.952  74.309  1.00  0.00    -0.493 OA
ATOM     48  C   UNL     1      89.682  93.390  73.544  1.00  0.00     0.278 C 
ENDBRANCH  44  47
BRANCH  46  49
ATOM     49  O   UNL     1      89.574  91.953  76.591  1.00  0.00    -0.504 OA
ATOM     50  H   UNL     1      89.187  91.903  75.701  1.00  0.00     0.293 HD
ENDBRANCH  46  49
ENDBRANCH  40  41
ENDBRANCH  38  40
ENDBRANCH  37  38
ENDBRANCH   1  37
TORSDOF 11
ENDMDL
MODEL 3
REMARK VINA RESULT:    -5.966     24.678     28.553
REMARK INTER + INTRA:         -11.354
REMARK INTER:                 -10.594
REMARK INTRA:                  -0.760
REMARK UNBOUND:                -0.854
REMARK SMILES C=C(C)[C@]12C[C@@H](C)[C@@]34O[C@](Cc5ccccc5)(O[C@@H]1[C@@H]3C=C(COC(=O)Cc1ccc(O)c(OC)c1)C[C@]1(O)C(=O)C(C)=C[C@@H]41)O2
REMARK SMILES IDX 23 1 22 2 21 3 20 4 9 5 8 6 10 7 6 8 18 9 46 10 19 11 5 12
REMARK SMILES IDX 7 13 4 14 45 15 38 16 44 17 40 18 42 20 41 21 43 22 39 23
REMARK SMILES IDX 11 25 12 26 13 27 17 28 14 29 16 30 15 31 2 32 3 33 1 34
REMARK SMILES IDX 37 35 24 37 25 38 26 39 27 40 28 41 36 42 29 43 33 44 30 45
REMARK SMILES IDX 31 46 34 47 35 48 32 49
REMARK H PARENT 39 24 32 50
REMARK Flexibility Score: 90.00
ROOT
ATOM      1  C   UNL     1      74.384  90.821  70.973  1.00  0.00     0.264 C 
ENDROOT
BRANCH   1   2
ATOM      2  C   UNL     1      74.652  90.253  69.599  1.00  0.00    -0.033 C 
ATOM      3  C   UNL     1      74.971  88.949  69.476  1.00  0.00    -0.015 C 
BRANCH   3   4
ATOM      4  C   UNL     1      75.356  88.164  68.232  1.00  0.00     0.078 C 
ATOM      5  O   UNL     1      73.274  87.180  67.329  1.00  0.00    -0.319 OA
ATOM      6  C   UNL     1      74.345  88.127  67.027  1.00  0.00     0.095 C 
ATOM      7  C   UNL     1      73.699  85.941  67.929  1.00  0.00     0.289 C 
ATOM      8  C   UNL     1      75.139  87.630  65.749  1.00  0.00     0.023 C 
ATOM      9  O   UNL     1      74.415  86.172  69.140  1.00  0.00    -0.320 OA
ATOM     10  O   UNL     1      74.588  85.209  67.090  1.00  0.00    -0.313 OA
ATOM     11  C   UNL     1      75.645  86.690  68.610  1.00  0.00     0.170 C 
ATOM     12  C   UNL     1      76.255  86.610  66.131  1.00  0.00     0.049 C 
ATOM     13  C   UNL     1      74.274  87.042  64.622  1.00  0.00     0.011 C 
ATOM     14  C   UNL     1      75.877  85.794  67.368  1.00  0.00     0.122 C 
BRANCH   6  15
ATOM     15  C   UNL     1      73.620  89.496  66.873  1.00  0.00     0.086 C 
ATOM     16  C   UNL     1      74.501  90.753  67.027  1.00  0.00     0.140 CG0
ATOM     17  C   UNL     1      72.829  89.774  65.626  1.00  0.00    -0.010 C 
ATOM     18  C   UNL     1      73.863  91.720  66.052  1.00  0.00     0.190 C 
ATOM     19  G   UNL     1      74.503  91.283  68.460  1.00  0.00     0.000 G0
ATOM     20  C   UNL     1      72.923  91.022  65.155  1.00  0.00    -0.008 C 
ATOM     21  O   UNL     1      74.118  92.911  65.968  1.00  0.00    -0.291 OA
ATOM     22  C   UNL     1      72.232  91.665  64.018  1.00  0.00     0.048 C 
BRANCH  16  23
ATOM     23  O   UNL     1      75.820  90.593  66.532  1.00  0.00    -0.381 OA
ATOM     24  H   UNL     1      76.432  91.045  67.137  1.00  0.00     0.212 HD
ENDBRANCH  16  23
ENDBRANCH   6  15
BRANCH   7  25
ATOM     25  C   UNL     1      72.468  85.104  68.214  1.00  0.00     0.135 C 
BRANCH  25  26
ATOM     26  C   UNL     1      71.569  84.993  67.008  1.00  0.00    -0.040 A 
ATOM     27  C   UNL     1      72.040  84.391  65.841  1.00  0.00     0.004 A 
ATOM     28  C   UNL     1      70.267  85.489  67.060  1.00  0.00     0.004 A 
ATOM     29  C   UNL     1      71.208  84.288  64.725  1.00  0.00     0.000 A 
ATOM     30  C   UNL     1      69.435  85.385  65.944  1.00  0.00     0.000 A 
ATOM     31  C   UNL     1      69.907  84.785  64.777  1.00  0.00     0.000 A 
ENDBRANCH  25  26
ENDBRANCH   7  25
BRANCH  14  32
ATOM     32  C   UNL     1      76.844  84.690  67.645  1.00  0.00    -0.046 C 
ATOM     33  C   UNL     1      76.967  84.260  69.077  1.00  0.00     0.042 C 
ATOM     34  C   UNL     1      77.563  84.114  66.669  1.00  0.00     0.010 C 
ENDBRANCH  14  32
ENDBRANCH   3   4
BRANCH   2  35
ATOM     35  C   UNL     1      74.508  91.280  68.492  1.00  0.00     0.078 CG0
ATOM     36  G   UNL     1      74.497  90.762  67.055  1.00  0.00     0.000 G0
ENDBRANCH   2  35
ENDBRANCH   1   2
BRANCH   1  37
ATOM     37  O   UNL     1      73.779  92.090  70.844  1.00  0.00    -0.461 OA
BRANCH  37  38
ATOM     38  C   UNL     1      73.418  92.713  72.016  1.00  0.00     0.310 C 
ATOM     39  O   UNL     1      72.934  92.153  72.990  1.00  0.00    -0.252 OA
BRANCH  38  40
ATOM     40  C   UNL     1      73.710  94.192  71.911  1.00  0.00     0.158 C 
BRANCH  40  41
ATOM     41  C   UNL     1      75.090  94.554  72.396  1.00  0.00    -0.033 A 
ATOM     42  C   UNL     1      75.751  95.658  71.857  1.00  0.00     0.054 A 
ATOM     43  C   UNL     1      75.707  93.786  73.383  1.00  0.00     0.008 A 
ATOM     44  C   UNL     1      77.029  95.994  72.305  1.00  0.00     0.160 A 
ATOM     45  C   UNL     1      76.985  94.121  73.831  1.00  0.00     0.050 A 
ATOM     46  C   UNL     1      77.646  95.224  73.293  1.00  0.00     0.157 A 
BRANCH  44  47
ATOM     47  O   UNL     1      77.664  97.074  71.771  1.00  0.00    -0.493 OA
ATOM     48  C   UNL     1      77.293  98.357  72.272  1.00  0.00     0.278 C 
ENDBRANCH  44  47
BRANCH  46  49
ATOM     49  O   UNL     1      78.892  95.543  73.739  1.00  0.00    -0.504 OA
ATOM     50  H   UNL     1      79.390  94.723  73.899  1.00  0.00     0.293 HD
ENDBRANCH  46  49
ENDBRANCH  40  41
ENDBRANCH  38  40
ENDBRANCH  37  38
ENDBRANCH   1  37
TORSDOF 11
ENDMDL
MODEL 4
REMARK VINA RESULT:    -5.962     25.918     29.679
REMARK INTER + INTRA:         -11.347
REMARK INTER:                  -9.535
REMARK INTRA:                  -1.812
REMARK UNBOUND:                -0.854
REMARK SMILES C=C(C)[C@]12C[C@@H](C)[C@@]34O[C@](Cc5ccccc5)(O[C@@H]1[C@@H]3C=C(COC(=O)Cc1ccc(O)c(OC)c1)C[C@]1(O)C(=O)C(C)=C[C@@H]41)O2
REMARK SMILES IDX 23 1 22 2 21 3 20 4 9 5 8 6 10 7 6 8 18 9 46 10 19 11 5 12
REMARK SMILES IDX 7 13 4 14 45 15 38 16 44 17 40 18 42 20 41 21 43 22 39 23
REMARK SMILES IDX 11 25 12 26 13 27 17 28 14 29 16 30 15 31 2 32 3 33 1 34
REMARK SMILES IDX 37 35 24 37 25 38 26 39 27 40 28 41 36 42 29 43 33 44 30 45
REMARK SMILES IDX 31 46 34 47 35 48 32 49
REMARK H PARENT 39 24 32 50
REMARK Flexibility Score: 90.00
ROOT
ATOM      1  C   UNL     1      73.457  90.071  70.975  1.00  0.00     0.264 C 
ENDROOT
BRANCH   1   2
ATOM      2  C   UNL     1      74.046  89.780  69.615  1.00  0.00    -0.033 C 
ATOM      3  C   UNL     1      74.402  88.517  69.307  1.00  0.00    -0.015 C 
BRANCH   3   4
ATOM      4  C   UNL     1      75.077  87.982  68.054  1.00  0.00     0.078 C 
ATOM      5  O   UNL     1      73.278  87.268  66.514  1.00  0.00    -0.319 OA
ATOM      6  C   UNL     1      74.375  88.221  66.665  1.00  0.00     0.095 C 
ATOM      7  C   UNL     1      73.568  85.922  66.934  1.00  0.00     0.289 C 
ATOM      8  C   UNL     1      75.453  87.962  65.533  1.00  0.00     0.023 C 
ATOM      9  O   UNL     1      73.978  85.883  68.298  1.00  0.00    -0.320 OA
ATOM     10  O   UNL     1      74.639  85.343  66.193  1.00  0.00    -0.313 OA
ATOM     11  C   UNL     1      75.291  86.454  68.183  1.00  0.00     0.170 C 
ATOM     12  C   UNL     1      76.464  86.850  65.949  1.00  0.00     0.049 C 
ATOM     13  C   UNL     1      74.884  87.641  64.141  1.00  0.00     0.011 C 
ATOM     14  C   UNL     1      75.819  85.816  66.874  1.00  0.00     0.122 C 
BRANCH   6  15
ATOM     15  C   UNL     1      73.687  89.616  66.627  1.00  0.00     0.086 C 
ATOM     16  C   UNL     1      74.493  90.789  67.224  1.00  0.00     0.140 CG0
ATOM     17  C   UNL     1      73.198  90.160  65.315  1.00  0.00    -0.010 C 
ATOM     18  C   UNL     1      74.082  91.949  66.342  1.00  0.00     0.190 C 
ATOM     19  G   UNL     1      74.162  91.027  68.696  1.00  0.00     0.000 G0
ATOM     20  C   UNL     1      73.380  91.473  65.135  1.00  0.00    -0.008 C 
ATOM     21  O   UNL     1      74.334  93.125  66.556  1.00  0.00    -0.291 OA
ATOM     22  C   UNL     1      72.958  92.349  64.023  1.00  0.00     0.048 C 
BRANCH  16  23
ATOM     23  O   UNL     1      75.893  90.686  67.018  1.00  0.00    -0.381 OA
ATOM     24  H   UNL     1      76.076  90.831  66.075  1.00  0.00     0.212 HD
ENDBRANCH  16  23
ENDBRANCH   6  15
BRANCH   7  25
ATOM     25  C   UNL     1      72.317  85.087  66.751  1.00  0.00     0.135 C 
BRANCH  25  26
ATOM     26  C   UNL     1      71.365  85.233  67.913  1.00  0.00    -0.040 A 
ATOM     27  C   UNL     1      70.992  86.504  68.353  1.00  0.00     0.004 A 
ATOM     28  C   UNL     1      70.856  84.099  68.545  1.00  0.00     0.004 A 
ATOM     29  C   UNL     1      70.112  86.640  69.426  1.00  0.00     0.000 A 
ATOM     30  C   UNL     1      69.976  84.235  69.619  1.00  0.00     0.000 A 
ATOM     31  C   UNL     1      69.604  85.506  70.059  1.00  0.00     0.000 A 
ENDBRANCH  25  26
ENDBRANCH   7  25
BRANCH  14  32
ATOM     32  C   UNL     1      76.711  84.647  67.139  1.00  0.00    -0.046 C 
ATOM     33  C   UNL     1      77.152  83.865  65.937  1.00  0.00     0.042 C 
ATOM     34  C   UNL     1      77.095  84.315  68.380  1.00  0.00     0.010 C 
ENDBRANCH  14  32
ENDBRANCH   3   4
BRANCH   2  35
ATOM     35  C   UNL     1      74.154  91.013  68.737  1.00  0.00     0.078 CG0
ATOM     36  G   UNL     1      74.491  90.794  67.263  1.00  0.00     0.000 G0
ENDBRANCH   2  35
ENDBRANCH   1   2
BRANCH   1  37
ATOM     37  O   UNL     1      72.266  90.813  70.819  1.00  0.00    -0.461 OA
BRANCH  37  38
ATOM     38  C   UNL     1      71.772  91.415  71.953  1.00  0.00     0.310 C 
ATOM     39  O   UNL     1      72.357  91.483  73.024  1.00  0.00    -0.252 OA
BRANCH  38  40
ATOM     40  C   UNL     1      70.399  91.977  71.668  1.00  0.00     0.158 C 
BRANCH  40  41
ATOM     41  C   UNL     1      69.423  90.931  71.192  1.00  0.00    -0.033 A 
ATOM     42  C   UNL     1      68.946  90.967  69.881  1.00  0.00     0.054 A 
ATOM     43  C   UNL     1      68.997  89.927  72.062  1.00  0.00     0.008 A 
ATOM     44  C   UNL     1      68.043  89.999  69.441  1.00  0.00     0.160 A 
ATOM     45  C   UNL     1      68.094  88.959  71.622  1.00  0.00     0.050 A 
ATOM     46  C   UNL     1      67.617  88.995  70.312  1.00  0.00     0.157 A 
BRANCH  44  47
ATOM     47  O   UNL     1      67.583  90.045  68.160  1.00  0.00    -0.493 OA
ATOM     48  C   UNL     1      68.529  90.373  67.144  1.00  0.00     0.278 C 
ENDBRANCH  44  47
BRANCH  46  49
ATOM     49  O   UNL     1      66.736  88.044  69.893  1.00  0.00    -0.504 OA
ATOM     50  H   UNL     1      66.664  88.084  68.925  1.00  0.00     0.293 HD
ENDBRANCH  46  49
ENDBRANCH  40  41
ENDBRANCH  38  40
ENDBRANCH  37  38
ENDBRANCH   1  37
TORSDOF 11
ENDMDL
MODEL 5
REMARK VINA RESULT:    -5.909      1.789      2.661
REMARK INTER + INTRA:         -11.254
REMARK INTER:                 -10.093
REMARK INTRA:                  -1.161
REMARK UNBOUND:                -0.854
REMARK SMILES C=C(C)[C@]12C[C@@H](C)[C@@]34O[C@](Cc5ccccc5)(O[C@@H]1[C@@H]3C=C(COC(=O)Cc1ccc(O)c(OC)c1)C[C@]1(O)C(=O)C(C)=C[C@@H]41)O2
REMARK SMILES IDX 23 1 22 2 21 3 20 4 9 5 8 6 10 7 6 8 18 9 46 10 19 11 5 12
REMARK SMILES IDX 7 13 4 14 45 15 38 16 44 17 40 18 42 20 41 21 43 22 39 23
REMARK SMILES IDX 11 25 12 26 13 27 17 28 14 29 16 30 15 31 2 32 3 33 1 34
REMARK SMILES IDX 37 35 24 37 25 38 26 39 27 40 28 41 36 42 29 43 33 44 30 45
REMARK SMILES IDX 31 46 34 47 35 48 32 49
REMARK H PARENT 39 24 32 50
REMARK Flexibility Score: 90.00
ROOT
ATOM      1  C   UNL     1      98.718  81.368  81.341  1.00  0.00     0.264 C 
ENDROOT
BRANCH   1   2
ATOM      2  C   UNL     1      97.504  81.140  82.211  1.00  0.00    -0.033 C 
ATOM      3  C   UNL     1      97.111  79.878  82.477  1.00  0.00    -0.015 C 
BRANCH   3   4
ATOM      4  C   UNL     1      95.896  79.388  83.249  1.00  0.00     0.078 C 
ATOM      5  O   UNL     1      96.612  79.079  85.596  1.00  0.00    -0.319 OA
ATOM      6  C   UNL     1      95.719  79.857  84.741  1.00  0.00     0.095 C 
ATOM      7  C   UNL     1      96.674  77.670  85.304  1.00  0.00     0.289 C 
ATOM      8  C   UNL     1      94.217  79.573  85.158  1.00  0.00     0.023 C 
ATOM      9  O   UNL     1      97.071  77.439  83.954  1.00  0.00    -0.320 OA
ATOM     10  O   UNL     1      95.408  77.032  85.447  1.00  0.00    -0.313 OA
ATOM     11  C   UNL     1      95.875  77.840  83.268  1.00  0.00     0.170 C 
ATOM     12  C   UNL     1      93.659  78.300  84.451  1.00  0.00     0.049 C 
ATOM     13  C   UNL     1      93.959  79.472  86.670  1.00  0.00     0.011 C 
ATOM     14  C   UNL     1      94.759  77.274  84.181  1.00  0.00     0.122 C 
BRANCH   6  15
ATOM     15  C   UNL     1      96.196  81.328  84.918  1.00  0.00     0.086 C 
ATOM     16  C   UNL     1      95.781  82.315  83.807  1.00  0.00     0.140 CG0
ATOM     17  C   UNL     1      95.858  82.064  86.184  1.00  0.00    -0.010 C 
ATOM     18  C   UNL     1      95.579  83.604  84.576  1.00  0.00     0.190 C 
ATOM     19  G   UNL     1      96.848  82.443  82.721  1.00  0.00     0.000 G0
ATOM     20  C   UNL     1      95.534  83.352  86.028  1.00  0.00    -0.008 C 
ATOM     21  O   UNL     1      95.420  84.708  84.077  1.00  0.00    -0.291 OA
ATOM     22  C   UNL     1      95.231  84.386  87.039  1.00  0.00     0.048 C 
BRANCH  16  23
ATOM     23  O   UNL     1      94.504  82.049  83.250  1.00  0.00    -0.381 OA
ATOM     24  H   UNL     1      94.122  82.888  82.943  1.00  0.00     0.212 HD
ENDBRANCH  16  23
ENDBRANCH   6  15
BRANCH   7  25
ATOM     25  C   UNL     1      97.673  77.031  86.247  1.00  0.00     0.135 C 
BRANCH  25  26
ATOM     26  C   UNL     1      97.382  75.568  86.472  1.00  0.00    -0.040 A 
ATOM     27  C   UNL     1      96.804  75.148  87.671  1.00  0.00     0.004 A 
ATOM     28  C   UNL     1      97.689  74.636  85.482  1.00  0.00     0.004 A 
ATOM     29  C   UNL     1      96.535  73.795  87.879  1.00  0.00     0.000 A 
ATOM     30  C   UNL     1      97.420  73.282  85.690  1.00  0.00     0.000 A 
ATOM     31  C   UNL     1      96.843  72.863  86.889  1.00  0.00     0.000 A 
ENDBRANCH  25  26
ENDBRANCH   7  25
BRANCH  14  32
ATOM     32  C   UNL     1      94.222  75.976  83.673  1.00  0.00    -0.046 C 
ATOM     33  C   UNL     1      93.778  74.990  84.712  1.00  0.00     0.042 C 
ATOM     34  C   UNL     1      94.142  75.707  82.361  1.00  0.00     0.010 C 
ENDBRANCH  14  32
ENDBRANCH   3   4
BRANCH   2  35
ATOM     35  C   UNL     1      96.868  82.430  82.695  1.00  0.00     0.078 CG0
ATOM     36  G   UNL     1      95.810  82.319  83.792  1.00  0.00     0.000 G0
ENDBRANCH   2  35
ENDBRANCH   1   2
BRANCH   1  37
ATOM     37  O   UNL     1      98.805  80.337  80.382  1.00  0.00    -0.461 OA
BRANCH  37  38
ATOM     38  C   UNL     1      98.673  80.716  79.067  1.00  0.00     0.310 C 
ATOM     39  O   UNL     1      98.274  79.993  78.164  1.00  0.00    -0.252 OA
BRANCH  38  40
ATOM     40  C   UNL     1      99.096  82.158  78.912  1.00  0.00     0.158 C 
BRANCH  40  41
ATOM     41  C   UNL     1      98.304  82.894  77.862  1.00  0.00    -0.033 A 
ATOM     42  C   UNL     1      98.794  82.990  76.559  1.00  0.00     0.054 A 
ATOM     43  C   UNL     1      97.082  83.478  78.192  1.00  0.00     0.008 A 
ATOM     44  C   UNL     1      98.061  83.671  75.587  1.00  0.00     0.160 A 
ATOM     45  C   UNL     1      96.349  84.159  77.220  1.00  0.00     0.050 A 
ATOM     46  C   UNL     1      96.838  84.256  75.918  1.00  0.00     0.157 A 
BRANCH  44  47
ATOM     47  O   UNL     1      98.550  83.758  74.319  1.00  0.00    -0.493 OA
ATOM     48  C   UNL     1      99.055  85.027  73.905  1.00  0.00     0.278 C 
ENDBRANCH  44  47
BRANCH  46  49
ATOM     49  O   UNL     1      96.113  84.922  74.977  1.00  0.00    -0.504 OA
ATOM     50  H   UNL     1      96.048  84.371  74.179  1.00  0.00     0.293 HD
ENDBRANCH  46  49
ENDBRANCH  40  41
ENDBRANCH  38  40
ENDBRANCH  37  38
ENDBRANCH   1  37
TORSDOF 11
ENDMDL
MODEL 6
REMARK VINA RESULT:    -5.703     30.308     33.198
REMARK INTER + INTRA:         -10.892
REMARK INTER:                  -9.712
REMARK INTRA:                  -1.180
REMARK UNBOUND:                -0.854
REMARK SMILES C=C(C)[C@]12C[C@@H](C)[C@@]34O[C@](Cc5ccccc5)(O[C@@H]1[C@@H]3C=C(COC(=O)Cc1ccc(O)c(OC)c1)C[C@]1(O)C(=O)C(C)=C[C@@H]41)O2
REMARK SMILES IDX 23 1 22 2 21 3 20 4 9 5 8 6 10 7 6 8 18 9 46 10 19 11 5 12
REMARK SMILES IDX 7 13 4 14 45 15 38 16 44 17 40 18 42 20 41 21 43 22 39 23
REMARK SMILES IDX 11 25 12 26 13 27 17 28 14 29 16 30 15 31 2 32 3 33 1 34
REMARK SMILES IDX 37 35 24 37 25 38 26 39 27 40 28 41 36 42 29 43 33 44 30 45
REMARK SMILES IDX 31 46 34 47 35 48 32 49
REMARK H PARENT 39 24 32 50
REMARK Flexibility Score: 90.00
ROOT
ATOM      1  C   UNL     1      68.549  88.171  71.263  1.00  0.00     0.264 C 
ENDROOT
BRANCH   1   2
ATOM      2  C   UNL     1      68.000  86.897  70.666  1.00  0.00    -0.033 C 
ATOM      3  C   UNL     1      66.767  86.481  71.021  1.00  0.00    -0.015 C 
BRANCH   3   4
ATOM      4  C   UNL     1      66.027  85.212  70.628  1.00  0.00     0.078 C 
ATOM      5  O   UNL     1      64.669  85.758  68.634  1.00  0.00    -0.319 OA
ATOM      6  C   UNL     1      65.781  84.932  69.099  1.00  0.00     0.095 C 
ATOM      7  C   UNL     1      63.541  85.833  69.526  1.00  0.00     0.289 C 
ATOM      8  C   UNL     1      65.395  83.402  68.948  1.00  0.00     0.023 C 
ATOM      9  O   UNL     1      63.928  86.323  70.808  1.00  0.00    -0.320 OA
ATOM     10  O   UNL     1      62.954  84.556  69.764  1.00  0.00    -0.313 OA
ATOM     11  C   UNL     1      64.638  85.181  71.311  1.00  0.00     0.170 C 
ATOM     12  C   UNL     1      64.598  82.889  70.186  1.00  0.00     0.049 C 
ATOM     13  C   UNL     1      64.635  83.037  67.663  1.00  0.00     0.011 C 
ATOM     14  C   UNL     1      63.762  84.001  70.821  1.00  0.00     0.122 C 
BRANCH   6  15
ATOM     15  C   UNL     1      66.997  85.402  68.249  1.00  0.00     0.086 C 
ATOM     16  C   UNL     1      68.392  85.061  68.812  1.00  0.00     0.140 CG0
ATOM     17  C   UNL     1      67.091  84.989  66.807  1.00  0.00    -0.010 C 
ATOM     18  C   UNL     1      69.200  84.816  67.554  1.00  0.00     0.190 C 
ATOM     19  G   UNL     1      68.964  86.194  69.663  1.00  0.00     0.000 G0
ATOM     20  C   UNL     1      68.320  84.680  66.379  1.00  0.00    -0.008 C 
ATOM     21  O   UNL     1      70.414  84.693  67.506  1.00  0.00    -0.291 OA
ATOM     22  C   UNL     1      68.793  84.319  65.027  1.00  0.00     0.048 C 
BRANCH  16  23
ATOM     23  O   UNL     1      68.448  83.820  69.496  1.00  0.00    -0.381 OA
ATOM     24  H   UNL     1      68.113  83.953  70.399  1.00  0.00     0.212 HD
ENDBRANCH  16  23
ENDBRANCH   6  15
BRANCH   7  25
ATOM     25  C   UNL     1      62.510  86.758  68.913  1.00  0.00     0.135 C 
BRANCH  25  26
ATOM     26  C   UNL     1      61.230  86.786  69.710  1.00  0.00    -0.040 A 
ATOM     27  C   UNL     1      61.070  87.713  70.741  1.00  0.00     0.004 A 
ATOM     28  C   UNL     1      60.206  85.886  69.417  1.00  0.00     0.004 A 
ATOM     29  C   UNL     1      59.886  87.739  71.478  1.00  0.00     0.000 A 
ATOM     30  C   UNL     1      59.022  85.912  70.155  1.00  0.00     0.000 A 
ATOM     31  C   UNL     1      58.863  86.839  71.185  1.00  0.00     0.000 A 
ENDBRANCH  25  26
ENDBRANCH   7  25
BRANCH  14  32
ATOM     32  C   UNL     1      62.852  83.495  71.893  1.00  0.00    -0.046 C 
ATOM     33  C   UNL     1      62.885  82.017  72.146  1.00  0.00     0.042 C 
ATOM     34  C   UNL     1      62.051  84.315  72.589  1.00  0.00     0.010 C 
ENDBRANCH  14  32
ENDBRANCH   3   4
BRANCH   2  35
ATOM     35  C   UNL     1      68.958  86.233  69.696  1.00  0.00     0.078 CG0
ATOM     36  G   UNL     1      68.404  85.105  68.827  1.00  0.00     0.000 G0
ENDBRANCH   2  35
ENDBRANCH   1   2
BRANCH   1  37
ATOM     37  O   UNL     1      69.624  88.632  70.472  1.00  0.00    -0.461 OA
BRANCH  37  38
ATOM     38  C   UNL     1      69.650  89.982  70.210  1.00  0.00     0.310 C 
ATOM     39  O   UNL     1      68.852  90.575  69.498  1.00  0.00    -0.252 OA
BRANCH  38  40
ATOM     40  C   UNL     1      70.816  90.614  70.934  1.00  0.00     0.158 C 
BRANCH  40  41
ATOM     41  C   UNL     1      72.138  90.351  70.262  1.00  0.00    -0.033 A 
ATOM     42  C   UNL     1      72.211  90.276  68.870  1.00  0.00     0.054 A 
ATOM     43  C   UNL     1      73.290  90.183  71.030  1.00  0.00     0.008 A 
ATOM     44  C   UNL     1      73.436  90.033  68.248  1.00  0.00     0.160 A 
ATOM     45  C   UNL     1      74.515  89.940  70.408  1.00  0.00     0.050 A 
ATOM     46  C   UNL     1      74.588  89.865  69.017  1.00  0.00     0.157 A 
BRANCH  44  47
ATOM     47  O   UNL     1      73.494  89.962  66.889  1.00  0.00    -0.493 OA
ATOM     48  C   UNL     1      72.252  89.935  66.187  1.00  0.00     0.278 C 
ENDBRANCH  44  47
BRANCH  46  49
ATOM     49  O   UNL     1      75.789  89.628  68.421  1.00  0.00    -0.504 OA
ATOM     50  H   UNL     1      75.712  89.814  67.470  1.00  0.00     0.293 HD
ENDBRANCH  46  49
ENDBRANCH  40  41
ENDBRANCH  38  40
ENDBRANCH  37  38
ENDBRANCH   1  37
TORSDOF 11
ENDMDL
MODEL 7
REMARK VINA RESULT:    -5.700     25.783     29.705
REMARK INTER + INTRA:         -10.886
REMARK INTER:                  -9.632
REMARK INTRA:                  -1.253
REMARK UNBOUND:                -0.854
REMARK SMILES C=C(C)[C@]12C[C@@H](C)[C@@]34O[C@](Cc5ccccc5)(O[C@@H]1[C@@H]3C=C(COC(=O)Cc1ccc(O)c(OC)c1)C[C@]1(O)C(=O)C(C)=C[C@@H]41)O2
REMARK SMILES IDX 23 1 22 2 21 3 20 4 9 5 8 6 10 7 6 8 18 9 46 10 19 11 5 12
REMARK SMILES IDX 7 13 4 14 45 15 38 16 44 17 40 18 42 20 41 21 43 22 39 23
REMARK SMILES IDX 11 25 12 26 13 27 17 28 14 29 16 30 15 31 2 32 3 33 1 34
REMARK SMILES IDX 37 35 24 37 25 38 26 39 27 40 28 41 36 42 29 43 33 44 30 45
REMARK SMILES IDX 31 46 34 47 35 48 32 49
REMARK H PARENT 39 24 32 50
REMARK Flexibility Score: 90.00
ROOT
ATOM      1  C   UNL     1      73.325  90.453  70.792  1.00  0.00     0.264 C 
ENDROOT
BRANCH   1   2
ATOM      2  C   UNL     1      74.001  90.017  69.514  1.00  0.00    -0.033 C 
ATOM      3  C   UNL     1      74.347  88.723  69.359  1.00  0.00    -0.015 C 
BRANCH   3   4
ATOM      4  C   UNL     1      75.095  88.055  68.218  1.00  0.00     0.078 C 
ATOM      5  O   UNL     1      73.392  87.237  66.621  1.00  0.00    -0.319 OA
ATOM      6  C   UNL     1      74.504  88.174  66.763  1.00  0.00     0.095 C 
ATOM      7  C   UNL     1      73.610  85.931  67.187  1.00  0.00     0.289 C 
ATOM      8  C   UNL     1      75.653  87.781  65.745  1.00  0.00     0.023 C 
ATOM      9  O   UNL     1      73.918  86.015  68.576  1.00  0.00    -0.320 OA
ATOM     10  O   UNL     1      74.714  85.258  66.588  1.00  0.00    -0.313 OA
ATOM     11  C   UNL     1      75.252  86.541  68.507  1.00  0.00     0.170 C 
ATOM     12  C   UNL     1      76.597  86.691  66.341  1.00  0.00     0.049 C 
ATOM     13  C   UNL     1      75.178  87.340  64.351  1.00  0.00     0.011 C 
ATOM     14  C   UNL     1      75.855  85.768  67.308  1.00  0.00     0.122 C 
BRANCH   6  15
ATOM     15  C   UNL     1      73.864  89.574  66.541  1.00  0.00     0.086 C 
ATOM     16  C   UNL     1      74.655  90.779  67.091  1.00  0.00     0.140 CG0
ATOM     17  C   UNL     1      73.496  90.003  65.148  1.00  0.00    -0.010 C 
ATOM     18  C   UNL     1      74.350  91.860  66.075  1.00  0.00     0.190 C 
ATOM     19  G   UNL     1      74.216  91.162  68.503  1.00  0.00     0.000 G0
ATOM     20  C   UNL     1      73.732  91.289  64.864  1.00  0.00    -0.008 C 
ATOM     21  O   UNL     1      74.619  93.045  66.201  1.00  0.00    -0.291 OA
ATOM     22  C   UNL     1      73.426  92.065  63.646  1.00  0.00     0.048 C 
BRANCH  16  23
ATOM     23  O   UNL     1      76.063  90.626  67.010  1.00  0.00    -0.381 OA
ATOM     24  H   UNL     1      76.341  89.985  67.684  1.00  0.00     0.212 HD
ENDBRANCH  16  23
ENDBRANCH   6  15
BRANCH   7  25
ATOM     25  C   UNL     1      72.350  85.111  66.991  1.00  0.00     0.135 C 
BRANCH  25  26
ATOM     26  C   UNL     1      72.472  84.158  65.828  1.00  0.00    -0.040 A 
ATOM     27  C   UNL     1      73.375  84.426  64.798  1.00  0.00     0.004 A 
ATOM     28  C   UNL     1      71.683  83.010  65.781  1.00  0.00     0.004 A 
ATOM     29  C   UNL     1      73.488  83.545  63.723  1.00  0.00     0.000 A 
ATOM     30  C   UNL     1      71.795  82.129  64.705  1.00  0.00     0.000 A 
ATOM     31  C   UNL     1      72.698  82.397  63.676  1.00  0.00     0.000 A 
ENDBRANCH  25  26
ENDBRANCH   7  25
BRANCH  14  32
ATOM     32  C   UNL     1      76.689  84.609  67.749  1.00  0.00    -0.046 C 
ATOM     33  C   UNL     1      76.504  84.163  69.169  1.00  0.00     0.042 C 
ATOM     34  C   UNL     1      77.554  84.002  66.923  1.00  0.00     0.010 C 
ENDBRANCH  14  32
ENDBRANCH   3   4
BRANCH   2  35
ATOM     35  C   UNL     1      74.199  91.153  68.528  1.00  0.00     0.078 CG0
ATOM     36  G   UNL     1      74.633  90.781  67.111  1.00  0.00     0.000 G0
ENDBRANCH   2  35
ENDBRANCH   1   2
BRANCH   1  37
ATOM     37  O   UNL     1      72.444  91.521  70.514  1.00  0.00    -0.461 OA
BRANCH  37  38
ATOM     38  C   UNL     1      71.106  91.275  70.721  1.00  0.00     0.310 C 
ATOM     39  O   UNL     1      70.352  91.989  71.367  1.00  0.00    -0.252 OA
BRANCH  38  40
ATOM     40  C   UNL     1      70.716  89.991  70.028  1.00  0.00     0.158 C 
BRANCH  40  41
ATOM     41  C   UNL     1      70.394  90.185  68.568  1.00  0.00    -0.033 A 
ATOM     42  C   UNL     1      69.753  89.171  67.855  1.00  0.00     0.054 A 
ATOM     43  C   UNL     1      70.735  91.377  67.931  1.00  0.00     0.008 A 
ATOM     44  C   UNL     1      69.455  89.350  66.504  1.00  0.00     0.160 A 
ATOM     45  C   UNL     1      70.437  91.557  66.580  1.00  0.00     0.050 A 
ATOM     46  C   UNL     1      69.798  90.544  65.866  1.00  0.00     0.157 A 
BRANCH  44  47
ATOM     47  O   UNL     1      68.830  88.353  65.818  1.00  0.00    -0.493 OA
ATOM     48  C   UNL     1      67.414  88.255  65.963  1.00  0.00     0.278 C 
ENDBRANCH  44  47
BRANCH  46  49
ATOM     49  O   UNL     1      69.510  90.731  64.548  1.00  0.00    -0.504 OA
ATOM     50  H   UNL     1      69.343  91.675  64.392  1.00  0.00     0.293 HD
ENDBRANCH  46  49
ENDBRANCH  40  41
ENDBRANCH  38  40
ENDBRANCH  37  38
ENDBRANCH   1  37
TORSDOF 11
ENDMDL
MODEL 8
REMARK VINA RESULT:    -5.522     13.323     18.071
REMARK INTER + INTRA:         -10.572
REMARK INTER:                  -8.398
REMARK INTRA:                  -2.174
REMARK UNBOUND:                -0.854
REMARK SMILES C=C(C)[C@]12C[C@@H](C)[C@@]34O[C@](Cc5ccccc5)(O[C@@H]1[C@@H]3C=C(COC(=O)Cc1ccc(O)c(OC)c1)C[C@]1(O)C(=O)C(C)=C[C@@H]41)O2
REMARK SMILES IDX 23 1 22 2 21 3 20 4 9 5 8 6 10 7 6 8 18 9 46 10 19 11 5 12
REMARK SMILES IDX 7 13 4 14 45 15 38 16 44 17 40 18 42 20 41 21 43 22 39 23
REMARK SMILES IDX 11 25 12 26 13 27 17 28 14 29 16 30 15 31 2 32 3 33 1 34
REMARK SMILES IDX 37 35 24 37 25 38 26 39 27 40 28 41 36 42 29 43 33 44 30 45
REMARK SMILES IDX 31 46 34 47 35 48 32 49
REMARK H PARENT 39 24 32 50
REMARK Flexibility Score: 90.00
ROOT
ATOM      1  C   UNL     1      88.307  96.540  92.255  1.00  0.00     0.264 C 
ENDROOT
BRANCH   1   2
ATOM      2  C   UNL     1      89.323  95.559  92.794  1.00  0.00    -0.033 C 
ATOM      3  C   UNL     1      90.037  94.809  91.930  1.00  0.00    -0.015 C 
BRANCH   3   4
ATOM      4  C   UNL     1      91.049  93.712  92.215  1.00  0.00     0.078 C 
ATOM      5  O   UNL     1      93.275  94.789  92.300  1.00  0.00    -0.319 OA
ATOM      6  C   UNL     1      92.299  94.058  93.107  1.00  0.00     0.095 C 
ATOM      7  C   UNL     1      93.480  94.278  90.969  1.00  0.00     0.289 C 
ATOM      8  C   UNL     1      92.938  92.691  93.590  1.00  0.00     0.023 C 
ATOM      9  O   UNL     1      92.260  94.247  90.234  1.00  0.00    -0.320 OA
ATOM     10  O   UNL     1      93.962  92.937  90.973  1.00  0.00    -0.313 OA
ATOM     11  C   UNL     1      91.602  93.148  90.882  1.00  0.00     0.170 C 
ATOM     12  C   UNL     1      92.772  91.572  92.516  1.00  0.00     0.049 C 
ATOM     13  C   UNL     1      94.411  92.768  94.025  1.00  0.00     0.011 C 
ATOM     14  C   UNL     1      92.763  92.145  91.099  1.00  0.00     0.122 C 
BRANCH   6  15
ATOM     15  C   UNL     1      91.910  95.052  94.239  1.00  0.00     0.086 C 
ATOM     16  C   UNL     1      90.574  94.773  94.959  1.00  0.00     0.140 CG0
ATOM     17  C   UNL     1      92.872  95.295  95.369  1.00  0.00    -0.010 C 
ATOM     18  C   UNL     1      90.867  95.221  96.376  1.00  0.00     0.190 C 
ATOM     19  G   UNL     1      89.410  95.539  94.332  1.00  0.00     0.000 G0
ATOM     20  C   UNL     1      92.315  95.422  96.578  1.00  0.00    -0.008 C 
ATOM     21  O   UNL     1      90.038  95.354  97.262  1.00  0.00    -0.291 OA
ATOM     22  C   UNL     1      92.932  95.743  97.881  1.00  0.00     0.048 C 
BRANCH  16  23
ATOM     23  O   UNL     1      90.273  93.394  95.096  1.00  0.00    -0.381 OA
ATOM     24  H   UNL     1      90.685  93.069  95.913  1.00  0.00     0.212 HD
ENDBRANCH  16  23
ENDBRANCH   6  15
BRANCH   7  25
ATOM     25  C   UNL     1      94.480  95.173  90.266  1.00  0.00     0.135 C 
BRANCH  25  26
ATOM     26  C   UNL     1      95.591  95.613  91.186  1.00  0.00    -0.040 A 
ATOM     27  C   UNL     1      95.506  96.842  91.843  1.00  0.00     0.004 A 
ATOM     28  C   UNL     1      96.701  94.793  91.383  1.00  0.00     0.004 A 
ATOM     29  C   UNL     1      96.534  97.249  92.695  1.00  0.00     0.000 A 
ATOM     30  C   UNL     1      97.728  95.200  92.234  1.00  0.00     0.000 A 
ATOM     31  C   UNL     1      97.644  96.428  92.890  1.00  0.00     0.000 A 
ENDBRANCH  25  26
ENDBRANCH   7  25
BRANCH  14  32
ATOM     32  C   UNL     1      92.789  91.082  90.050  1.00  0.00    -0.046 C 
ATOM     33  C   UNL     1      93.678  91.337  88.869  1.00  0.00     0.042 C 
ATOM     34  C   UNL     1      92.058  89.962  90.156  1.00  0.00     0.010 C 
ENDBRANCH  14  32
ENDBRANCH   3   4
BRANCH   2  35
ATOM     35  C   UNL     1      89.407  95.561  94.308  1.00  0.00     0.078 CG0
ATOM     36  G   UNL     1      90.540  94.759  94.946  1.00  0.00     0.000 G0
ENDBRANCH   2  35
ENDBRANCH   1   2
BRANCH   1  37
ATOM     37  O   UNL     1      88.495  97.794  92.875  1.00  0.00    -0.461 OA
BRANCH  37  38
ATOM     38  C   UNL     1      88.465  98.892  92.048  1.00  0.00     0.310 C 
ATOM     39  O   UNL     1      88.177 100.028  92.398  1.00  0.00    -0.252 OA
BRANCH  38  40
ATOM     40  C   UNL     1      88.840  98.477  90.644  1.00  0.00     0.158 C 
BRANCH  40  41
ATOM     41  C   UNL     1      90.276  98.785  90.304  1.00  0.00    -0.033 A 
ATOM     42  C   UNL     1      90.581  99.477  89.132  1.00  0.00     0.054 A 
ATOM     43  C   UNL     1      91.298  98.378  91.161  1.00  0.00     0.008 A 
ATOM     44  C   UNL     1      91.910  99.762  88.817  1.00  0.00     0.160 A 
ATOM     45  C   UNL     1      92.627  98.663  90.846  1.00  0.00     0.050 A 
ATOM     46  C   UNL     1      92.933  99.354  89.675  1.00  0.00     0.157 A 
BRANCH  44  47
ATOM     47  O   UNL     1      92.197 100.438  87.670  1.00  0.00    -0.493 OA
ATOM     48  C   UNL     1      91.808 101.809  87.611  1.00  0.00     0.278 C 
ENDBRANCH  44  47
BRANCH  46  49
ATOM     49  O   UNL     1      94.234  99.628  89.378  1.00  0.00    -0.504 OA
ATOM     50  H   UNL     1      94.296  99.899  88.447  1.00  0.00     0.293 HD
ENDBRANCH  46  49
ENDBRANCH  40  41
ENDBRANCH  38  40
ENDBRANCH  37  38
ENDBRANCH   1  37
TORSDOF 11
ENDMDL
MODEL 9
REMARK VINA RESULT:    -5.415      4.232      8.005
REMARK INTER + INTRA:         -10.383
REMARK INTER:                  -8.687
REMARK INTRA:                  -1.697
REMARK UNBOUND:                -0.854
REMARK SMILES C=C(C)[C@]12C[C@@H](C)[C@@]34O[C@](Cc5ccccc5)(O[C@@H]1[C@@H]3C=C(COC(=O)Cc1ccc(O)c(OC)c1)C[C@]1(O)C(=O)C(C)=C[C@@H]41)O2
REMARK SMILES IDX 23 1 22 2 21 3 20 4 9 5 8 6 10 7 6 8 18 9 46 10 19 11 5 12
REMARK SMILES IDX 7 13 4 14 45 15 38 16 44 17 40 18 42 20 41 21 43 22 39 23
REMARK SMILES IDX 11 25 12 26 13 27 17 28 14 29 16 30 15 31 2 32 3 33 1 34
REMARK SMILES IDX 37 35 24 37 25 38 26 39 27 40 28 41 36 42 29 43 33 44 30 45
REMARK SMILES IDX 31 46 34 47 35 48 32 49
REMARK H PARENT 39 24 32 50
REMARK Flexibility Score: 90.00
ROOT
ATOM      1  C   UNL     1      98.995  76.692  84.255  1.00  0.00     0.264 C 
ENDROOT
BRANCH   1   2
ATOM      2  C   UNL     1      98.985  77.989  85.030  1.00  0.00    -0.033 C 
ATOM      3  C   UNL     1      98.075  78.934  84.722  1.00  0.00    -0.015 C 
BRANCH   3   4
ATOM      4  C   UNL     1      97.908  80.334  85.290  1.00  0.00     0.078 C 
ATOM      5  O   UNL     1      96.315  80.160  87.175  1.00  0.00    -0.319 OA
ATOM      6  C   UNL     1      97.699  80.492  86.843  1.00  0.00     0.095 C 
ATOM      7  C   UNL     1      95.322  80.685  86.274  1.00  0.00     0.289 C 
ATOM      8  C   UNL     1      97.978  82.007  87.213  1.00  0.00     0.023 C 
ATOM      9  O   UNL     1      95.553  80.248  84.938  1.00  0.00    -0.320 OA
ATOM     10  O   UNL     1      95.338  82.110  86.222  1.00  0.00    -0.313 OA
ATOM     11  C   UNL     1      96.707  81.038  84.610  1.00  0.00     0.170 C 
ATOM     12  C   UNL     1      97.552  82.965  86.057  1.00  0.00     0.049 C 
ATOM     13  C   UNL     1      97.354  82.490  88.533  1.00  0.00     0.011 C 
ATOM     14  C   UNL     1      96.374  82.403  85.262  1.00  0.00     0.122 C 
BRANCH   6  15
ATOM     15  C   UNL     1      98.547  79.446  87.622  1.00  0.00     0.086 C 
ATOM     16  C   UNL     1      99.988  79.225  87.116  1.00  0.00     0.140 CG0
ATOM     17  C   UNL     1      98.719  79.597  89.108  1.00  0.00    -0.010 C 
ATOM     18  C   UNL     1     100.744  78.944  88.397  1.00  0.00     0.190 C 
ATOM     19  G   UNL     1     100.078  78.072  86.118  1.00  0.00     0.000 G0
ATOM     20  C   UNL     1      99.934  79.296  89.578  1.00  0.00    -0.008 C 
ATOM     21  O   UNL     1     101.892  78.529  88.466  1.00  0.00    -0.291 OA
ATOM     22  C   UNL     1     100.432  79.249  90.968  1.00  0.00     0.048 C 
BRANCH  16  23
ATOM     23  O   UNL     1     100.604  80.397  86.609  1.00  0.00    -0.381 OA
ATOM     24  H   UNL     1     101.531  80.192  86.403  1.00  0.00     0.212 HD
ENDBRANCH  16  23
ENDBRANCH   6  15
BRANCH   7  25
ATOM     25  C   UNL     1      93.960  80.212  86.740  1.00  0.00     0.135 C 
BRANCH  25  26
ATOM     26  C   UNL     1      92.896  80.433  85.693  1.00  0.00    -0.040 A 
ATOM     27  C   UNL     1      92.547  81.731  85.318  1.00  0.00     0.004 A 
ATOM     28  C   UNL     1      92.264  79.341  85.099  1.00  0.00     0.004 A 
ATOM     29  C   UNL     1      91.563  81.936  84.350  1.00  0.00     0.000 A 
ATOM     30  C   UNL     1      91.281  79.546  84.131  1.00  0.00     0.000 A 
ATOM     31  C   UNL     1      90.931  80.844  83.757  1.00  0.00     0.000 A 
ENDBRANCH  25  26
ENDBRANCH   7  25
BRANCH  14  32
ATOM     32  C   UNL     1      95.833  83.381  84.270  1.00  0.00    -0.046 C 
ATOM     33  C   UNL     1      96.205  83.145  82.836  1.00  0.00     0.042 C 
ATOM     34  C   UNL     1      95.057  84.411  84.640  1.00  0.00     0.010 C 
ENDBRANCH  14  32
ENDBRANCH   3   4
BRANCH   2  35
ATOM     35  C   UNL     1     100.051  78.046  86.108  1.00  0.00     0.078 CG0
ATOM     36  G   UNL     1      99.968  79.193  87.114  1.00  0.00     0.000 G0
ENDBRANCH   2  35
ENDBRANCH   1   2
BRANCH   1  37
ATOM     37  O   UNL     1      97.667  76.312  83.964  1.00  0.00    -0.461 OA
BRANCH  37  38
ATOM     38  C   UNL     1      96.989  75.656  84.964  1.00  0.00     0.310 C 
ATOM     39  O   UNL     1      97.441  74.738  85.634  1.00  0.00    -0.252 OA
BRANCH  38  40
ATOM     40  C   UNL     1      95.604  76.242  85.103  1.00  0.00     0.158 C 
BRANCH  40  41
ATOM     41  C   UNL     1      94.645  75.743  84.052  1.00  0.00    -0.033 A 
ATOM     42  C   UNL     1      93.327  76.200  84.037  1.00  0.00     0.054 A 
ATOM     43  C   UNL     1      95.076  74.825  83.095  1.00  0.00     0.008 A 
ATOM     44  C   UNL     1      92.440  75.738  83.065  1.00  0.00     0.160 A 
ATOM     45  C   UNL     1      94.189  74.362  82.123  1.00  0.00     0.050 A 
ATOM     46  C   UNL     1      92.871  74.818  82.107  1.00  0.00     0.157 A 
BRANCH  44  47
ATOM     47  O   UNL     1      91.155  76.190  83.060  1.00  0.00    -0.493 OA
ATOM     48  C   UNL     1      90.312  75.759  84.128  1.00  0.00     0.278 C 
ENDBRANCH  44  47
BRANCH  46  49
ATOM     49  O   UNL     1      92.014  74.361  81.153  1.00  0.00    -0.504 OA
ATOM     50  H   UNL     1      91.520  73.603  81.508  1.00  0.00     0.293 HD
ENDBRANCH  46  49
ENDBRANCH  40  41
ENDBRANCH  38  40
ENDBRANCH  37  38
ENDBRANCH   1  37
TORSDOF 11
ENDMDL
MODEL 10
REMARK VINA RESULT:    -5.024     15.451     19.698
REMARK INTER + INTRA:          -9.695
REMARK INTER:                  -9.963
REMARK INTRA:                   0.268
REMARK UNBOUND:                -0.854
REMARK SMILES C=C(C)[C@]12C[C@@H](C)[C@@]34O[C@](Cc5ccccc5)(O[C@@H]1[C@@H]3C=C(COC(=O)Cc1ccc(O)c(OC)c1)C[C@]1(O)C(=O)C(C)=C[C@@H]41)O2
REMARK SMILES IDX 23 1 22 2 21 3 20 4 9 5 8 6 10 7 6 8 18 9 46 10 19 11 5 12
REMARK SMILES IDX 7 13 4 14 45 15 38 16 44 17 40 18 42 20 41 21 43 22 39 23
REMARK SMILES IDX 11 25 12 26 13 27 17 28 14 29 16 30 15 31 2 32 3 33 1 34
REMARK SMILES IDX 37 35 24 37 25 38 26 39 27 40 28 41 36 42 29 43 33 44 30 45
REMARK SMILES IDX 31 46 34 47 35 48 32 49
REMARK H PARENT 39 24 32 50
REMARK Flexibility Score: 90.00
ROOT
ATOM      1  C   UNL     1      94.460  97.509  77.589  1.00  0.00     0.264 C 
ENDROOT
BRANCH   1   2
ATOM      2  C   UNL     1      95.693  97.905  78.367  1.00  0.00    -0.033 C 
ATOM      3  C   UNL     1      96.848  98.122  77.706  1.00  0.00    -0.015 C 
BRANCH   3   4
ATOM      4  C   UNL     1      98.226  98.450  78.256  1.00  0.00     0.078 C 
ATOM      5  O   UNL     1      98.413 100.917  78.309  1.00  0.00    -0.319 OA
ATOM      6  C   UNL     1      98.387  99.729  79.160  1.00  0.00     0.095 C 
ATOM      7  C   UNL     1      99.201 100.799  77.109  1.00  0.00     0.289 C 
ATOM      8  C   UNL     1      99.769  99.605  79.925  1.00  0.00     0.023 C 
ATOM      9  O   UNL     1      98.758  99.709  76.304  1.00  0.00    -0.320 OA
ATOM     10  O   UNL     1     100.574 100.538  77.388  1.00  0.00    -0.313 OA
ATOM     11  C   UNL     1      99.234  98.605  77.090  1.00  0.00     0.170 C 
ATOM     12  C   UNL     1     100.837  98.867  79.061  1.00  0.00     0.049 C 
ATOM     13  C   UNL     1     100.357 100.927  80.446  1.00  0.00     0.011 C 
ATOM     14  C   UNL     1     100.620  99.108  77.566  1.00  0.00     0.122 C 
BRANCH   6  15
ATOM     15  C   UNL     1      97.137  99.926  80.065  1.00  0.00     0.086 C 
ATOM     16  C   UNL     1      96.563  98.652  80.718  1.00  0.00     0.140 CG0
ATOM     17  C   UNL     1      97.198 100.906  81.203  1.00  0.00    -0.010 C 
ATOM     18  C   UNL     1      96.061  99.167  82.051  1.00  0.00     0.190 C 
ATOM     19  G   UNL     1      95.453  98.022  79.878  1.00  0.00     0.000 G0
ATOM     20  C   UNL     1      96.579 100.521  82.324  1.00  0.00    -0.008 C 
ATOM     21  O   UNL     1      95.361  98.542  82.833  1.00  0.00    -0.291 OA
ATOM     22  C   UNL     1      96.368 101.248  83.592  1.00  0.00     0.048 C 
BRANCH  16  23
ATOM     23  O   UNL     1      97.548  97.696  81.075  1.00  0.00    -0.381 OA
ATOM     24  H   UNL     1      97.434  97.473  82.013  1.00  0.00     0.212 HD
ENDBRANCH  16  23
ENDBRANCH   6  15
BRANCH   7  25
ATOM     25  C   UNL     1      99.079 102.093  76.331  1.00  0.00     0.135 C 
BRANCH  25  26
ATOM     26  C   UNL     1     100.339 102.920  76.408  1.00  0.00    -0.040 A 
ATOM     27  C   UNL     1     100.656 103.598  77.585  1.00  0.00     0.004 A 
ATOM     28  C   UNL     1     101.186 103.005  75.304  1.00  0.00     0.004 A 
ATOM     29  C   UNL     1     101.821 104.362  77.657  1.00  0.00     0.000 A 
ATOM     30  C   UNL     1     102.351 103.769  75.375  1.00  0.00     0.000 A 
ATOM     31  C   UNL     1     102.668 104.448  76.552  1.00  0.00     0.000 A 
ENDBRANCH  25  26
ENDBRANCH   7  25
BRANCH  14  32
ATOM     32  C   UNL     1     101.732  98.564  76.730  1.00  0.00    -0.046 C 
ATOM     33  C   UNL     1     102.414  99.541  75.820  1.00  0.00     0.042 C 
ATOM     34  C   UNL     1     102.099  97.275  76.788  1.00  0.00     0.010 C 
ENDBRANCH  14  32
ENDBRANCH   3   4
BRANCH   2  35
ATOM     35  C   UNL     1      95.444  98.017  79.860  1.00  0.00     0.078 CG0
ATOM     36  G   UNL     1      96.556  98.630  80.709  1.00  0.00     0.000 G0
ENDBRANCH   2  35
ENDBRANCH   1   2
BRANCH   1  37
ATOM     37  O   UNL     1      94.770  96.420  76.746  1.00  0.00    -0.461 OA
BRANCH  37  38
ATOM     38  C   UNL     1      93.917  96.210  75.687  1.00  0.00     0.310 C 
ATOM     39  O   UNL     1      94.264  95.875  74.562  1.00  0.00    -0.252 OA
BRANCH  38  40
ATOM     40  C   UNL     1      92.494  96.455  76.128  1.00  0.00     0.158 C 
BRANCH  40  41
ATOM     41  C   UNL     1      91.684  95.189  76.235  1.00  0.00    -0.033 A 
ATOM     42  C   UNL     1      91.522  94.369  75.117  1.00  0.00     0.054 A 
ATOM     43  C   UNL     1      91.099  94.835  77.450  1.00  0.00     0.008 A 
ATOM     44  C   UNL     1      90.772  93.196  75.216  1.00  0.00     0.160 A 
ATOM     45  C   UNL     1      90.350  93.663  77.549  1.00  0.00     0.050 A 
ATOM     46  C   UNL     1      90.186  92.843  76.433  1.00  0.00     0.157 A 
BRANCH  44  47
ATOM     47  O   UNL     1      90.620  92.404  74.119  1.00  0.00    -0.493 OA
ATOM     48  C   UNL     1      89.498  91.522  74.106  1.00  0.00     0.278 C 
ENDBRANCH  44  47
BRANCH  46  49
ATOM     49  O   UNL     1      89.454  91.700  76.541  1.00  0.00    -0.504 OA
ATOM     50  H   UNL     1      88.679  91.764  75.957  1.00  0.00     0.293 HD
ENDBRANCH  46  49
ENDBRANCH  40  41
ENDBRANCH  38  40
ENDBRANCH  37  38
ENDBRANCH   1  37
TORSDOF 11
ENDMDL
