MODEL 1
REMARK VINA RESULT:    -8.160      0.000      0.000
REMARK INTER + INTRA:          -9.967
REMARK INTER:                  -9.591
REMARK INTRA:                  -0.376
REMARK UNBOUND:                -0.376
REMARK SMILES O=C(/C=C/C=C/c1ccc2c(c1)OCO2)N1CCCCC1
REMARK SMILES IDX 3 1 4 2 2 3 1 4 16 5 17 6 21 7 18 8 20 9 19 10 5 11 6 12
REMARK SMILES IDX 7 13 12 14 8 15 11 16 9 17 13 18 10 19 14 20 15 21
REMARK H PARENT
REMARK Flexibility Score: inf
ROOT
ATOM      1  C   UNL     1      90.964  91.653  75.994  1.00  0.00     0.071 C 
ATOM      2  C   UNL     1      90.932  92.562  76.966  1.00  0.00     0.006 C 
ENDROOT
BRANCH   1   3
ATOM      3  C   UNL     1      89.682  91.081  75.536  1.00  0.00     0.246 C 
ATOM      4  O   UNL     1      88.748  91.063  76.338  1.00  0.00    -0.270 OA
ATOM      5  N   UNL     1      89.617  90.595  74.231  1.00  0.00    -0.339 N 
ATOM      6  C   UNL     1      88.359  90.015  73.750  1.00  0.00     0.120 C 
ATOM      7  C   UNL     1      90.721  90.558  73.261  1.00  0.00     0.120 C 
ATOM      8  C   UNL     1      87.913  90.659  72.441  1.00  0.00     0.022 C 
ATOM      9  C   UNL     1      90.312  91.192  71.932  1.00  0.00     0.022 C 
ATOM     10  C   UNL     1      89.019  90.587  71.393  1.00  0.00     0.004 C 
ENDBRANCH   1   3
BRANCH   2  11
ATOM     11  C   UNL     1      92.135  93.180  77.482  1.00  0.00     0.001 C 
ATOM     12  C   UNL     1      93.126  93.614  76.687  1.00  0.00     0.008 C 
BRANCH  12  13
ATOM     13  C   UNL     1      94.373  94.241  77.158  1.00  0.00    -0.022 A 
ATOM     14  C   UNL     1      94.585  94.382  78.523  1.00  0.00     0.058 A 
ATOM     15  C   UNL     1      95.309  94.678  76.218  1.00  0.00     0.012 A 
ATOM     16  C   UNL     1      95.767  94.974  78.915  1.00  0.00     0.166 A 
ATOM     17  C   UNL     1      96.498  95.275  76.643  1.00  0.00     0.051 A 
ATOM     18  O   UNL     1      96.158  95.202  80.200  1.00  0.00    -0.454 OA
ATOM     19  C   UNL     1      96.699  95.410  78.001  1.00  0.00     0.165 A 
ATOM     20  C   UNL     1      97.440  95.829  79.990  1.00  0.00     0.468 C 
ATOM     21  O   UNL     1      97.789  95.964  78.597  1.00  0.00    -0.454 OA
ENDBRANCH  12  13
ENDBRANCH   2  11
TORSDOF 3
ENDMDL
MODEL 2
REMARK VINA RESULT:    -7.942      2.840      9.079
REMARK INTER + INTRA:          -9.711
REMARK INTER:                  -9.288
REMARK INTRA:                  -0.423
REMARK UNBOUND:                -0.376
REMARK SMILES O=C(/C=C/C=C/c1ccc2c(c1)OCO2)N1CCCCC1
REMARK SMILES IDX 3 1 4 2 2 3 1 4 16 5 17 6 21 7 18 8 20 9 19 10 5 11 6 12
REMARK SMILES IDX 7 13 12 14 8 15 11 16 9 17 13 18 10 19 14 20 15 21
REMARK H PARENT
REMARK Flexibility Score: inf
ROOT
ATOM      1  C   UNL     1      94.947  94.387  75.822  1.00  0.00     0.071 C 
ATOM      2  C   UNL     1      93.837  95.017  75.445  1.00  0.00     0.006 C 
ENDROOT
BRANCH   1   3
ATOM      3  C   UNL     1      96.068  95.200  76.334  1.00  0.00     0.246 C 
ATOM      4  O   UNL     1      96.693  95.883  75.522  1.00  0.00    -0.270 OA
ATOM      5  N   UNL     1      96.346  95.137  77.699  1.00  0.00    -0.339 N 
ATOM      6  C   UNL     1      97.457  95.930  78.236  1.00  0.00     0.120 C 
ATOM      7  C   UNL     1      95.652  94.302  78.690  1.00  0.00     0.120 C 
ATOM      8  C   UNL     1      97.008  96.793  79.410  1.00  0.00     0.022 C 
ATOM      9  C   UNL     1      95.189  95.132  79.887  1.00  0.00     0.022 C 
ATOM     10  C   UNL     1      96.333  95.946  80.484  1.00  0.00     0.004 C 
ENDBRANCH   1   3
BRANCH   2  11
ATOM     11  C   UNL     1      92.685  94.307  74.930  1.00  0.00     0.001 C 
ATOM     12  C   UNL     1      92.692  92.984  74.697  1.00  0.00     0.008 C 
BRANCH  12  13
ATOM     13  C   UNL     1      91.554  92.214  74.167  1.00  0.00    -0.022 A 
ATOM     14  C   UNL     1      90.554  92.880  73.472  1.00  0.00     0.058 A 
ATOM     15  C   UNL     1      91.513  90.834  74.378  1.00  0.00     0.012 A 
ATOM     16  C   UNL     1      89.509  92.115  72.995  1.00  0.00     0.166 A 
ATOM     17  C   UNL     1      90.443  90.085  73.884  1.00  0.00     0.051 A 
ATOM     18  O   UNL     1      88.437  92.578  72.294  1.00  0.00    -0.454 OA
ATOM     19  C   UNL     1      89.455  90.755  73.195  1.00  0.00     0.165 A 
ATOM     20  C   UNL     1      87.702  91.356  72.077  1.00  0.00     0.468 C 
ATOM     21  O   UNL     1      88.343  90.195  72.646  1.00  0.00    -0.454 OA
ENDBRANCH  12  13
ENDBRANCH   2  11
TORSDOF 3
ENDMDL
MODEL 3
REMARK VINA RESULT:    -7.799      1.764      2.481
REMARK INTER + INTRA:          -9.543
REMARK INTER:                  -9.209
REMARK INTRA:                  -0.334
REMARK UNBOUND:                -0.376
REMARK SMILES O=C(/C=C/C=C/c1ccc2c(c1)OCO2)N1CCCCC1
REMARK SMILES IDX 3 1 4 2 2 3 1 4 16 5 17 6 21 7 18 8 20 9 19 10 5 11 6 12
REMARK SMILES IDX 7 13 12 14 8 15 11 16 9 17 13 18 10 19 14 20 15 21
REMARK H PARENT
REMARK Flexibility Score: inf
ROOT
ATOM      1  C   UNL     1      91.163  92.485  76.979  1.00  0.00     0.071 C 
ATOM      2  C   UNL     1      92.238  93.181  76.615  1.00  0.00     0.006 C 
ENDROOT
BRANCH   1   3
ATOM      3  C   UNL     1      90.250  92.013  75.920  1.00  0.00     0.246 C 
ATOM      4  O   UNL     1      89.969  92.802  75.017  1.00  0.00    -0.270 OA
ATOM      5  N   UNL     1      89.764  90.710  76.015  1.00  0.00    -0.339 N 
ATOM      6  C   UNL     1      88.851  90.214  74.980  1.00  0.00     0.120 C 
ATOM      7  C   UNL     1      90.040  89.756  77.099  1.00  0.00     0.120 C 
ATOM      8  C   UNL     1      89.340  88.896  74.390  1.00  0.00     0.022 C 
ATOM      9  C   UNL     1      90.531  88.418  76.546  1.00  0.00     0.022 C 
ATOM     10  C   UNL     1      89.584  87.863  75.486  1.00  0.00     0.004 C 
ENDBRANCH   1   3
BRANCH   2  11
ATOM     11  C   UNL     1      93.190  93.687  77.581  1.00  0.00     0.001 C 
ATOM     12  C   UNL     1      94.354  94.255  77.225  1.00  0.00     0.008 C 
BRANCH  12  13
ATOM     13  C   UNL     1      95.361  94.777  78.164  1.00  0.00    -0.022 A 
ATOM     14  C   UNL     1      95.184  94.575  79.526  1.00  0.00     0.058 A 
ATOM     15  C   UNL     1      96.468  95.464  77.658  1.00  0.00     0.012 A 
ATOM     16  C   UNL     1      96.154  95.082  80.366  1.00  0.00     0.166 A 
ATOM     17  C   UNL     1      97.435  95.967  78.531  1.00  0.00     0.051 A 
ATOM     18  O   UNL     1      96.162  94.990  81.724  1.00  0.00    -0.454 OA
ATOM     19  C   UNL     1      97.249  95.760  79.882  1.00  0.00     0.165 A 
ATOM     20  C   UNL     1      97.385  95.685  82.040  1.00  0.00     0.468 C 
ATOM     21  O   UNL     1      98.080  96.177  80.876  1.00  0.00    -0.454 OA
ENDBRANCH  12  13
ENDBRANCH   2  11
TORSDOF 3
ENDMDL
MODEL 4
REMARK VINA RESULT:    -7.746      2.652      9.175
REMARK INTER + INTRA:          -9.481
REMARK INTER:                  -9.119
REMARK INTRA:                  -0.361
REMARK UNBOUND:                -0.376
REMARK SMILES O=C(/C=C/C=C/c1ccc2c(c1)OCO2)N1CCCCC1
REMARK SMILES IDX 3 1 4 2 2 3 1 4 16 5 17 6 21 7 18 8 20 9 19 10 5 11 6 12
REMARK SMILES IDX 7 13 12 14 8 15 11 16 9 17 13 18 10 19 14 20 15 21
REMARK H PARENT
REMARK Flexibility Score: inf
ROOT
ATOM      1  C   UNL     1      95.736  94.256  77.577  1.00  0.00     0.071 C 
ATOM      2  C   UNL     1      94.487  94.598  77.266  1.00  0.00     0.006 C 
ENDROOT
BRANCH   1   3
ATOM      3  C   UNL     1      96.608  95.284  78.178  1.00  0.00     0.246 C 
ATOM      4  O   UNL     1      97.192  96.053  77.413  1.00  0.00    -0.270 OA
ATOM      5  N   UNL     1      96.717  95.313  79.567  1.00  0.00    -0.339 N 
ATOM      6  C   UNL     1      97.580  96.320  80.192  1.00  0.00     0.120 C 
ATOM      7  C   UNL     1      96.072  94.386  80.508  1.00  0.00     0.120 C 
ATOM      8  C   UNL     1      96.831  97.111  81.259  1.00  0.00     0.022 C 
ATOM      9  C   UNL     1      95.312  95.143  81.598  1.00  0.00     0.022 C 
ATOM     10  C   UNL     1      96.196  96.179  82.286  1.00  0.00     0.004 C 
ENDBRANCH   1   3
BRANCH   2  11
ATOM     11  C   UNL     1      93.557  93.660  76.674  1.00  0.00     0.001 C 
ATOM     12  C   UNL     1      92.377  93.353  77.236  1.00  0.00     0.008 C 
BRANCH  12  13
ATOM     13  C   UNL     1      91.399  92.402  76.681  1.00  0.00    -0.022 A 
ATOM     14  C   UNL     1      91.489  92.045  75.343  1.00  0.00     0.058 A 
ATOM     15  C   UNL     1      90.408  91.884  77.519  1.00  0.00     0.012 A 
ATOM     16  C   UNL     1      90.551  91.150  74.870  1.00  0.00     0.166 A 
ATOM     17  C   UNL     1      89.471  90.980  77.013  1.00  0.00     0.051 A 
ATOM     18  O   UNL     1      90.468  90.680  73.594  1.00  0.00    -0.454 OA
ATOM     19  C   UNL     1      89.568  90.632  75.682  1.00  0.00     0.165 A 
ATOM     20  C   UNL     1      89.325  89.808  73.696  1.00  0.00     0.468 C 
ATOM     21  O   UNL     1      88.748  89.772  75.018  1.00  0.00    -0.454 OA
ENDBRANCH  12  13
ENDBRANCH   2  11
TORSDOF 3
ENDMDL
MODEL 5
REMARK VINA RESULT:    -7.166      3.075      8.890
REMARK INTER + INTRA:          -8.799
REMARK INTER:                  -8.405
REMARK INTRA:                  -0.394
REMARK UNBOUND:                -0.376
REMARK SMILES O=C(/C=C/C=C/c1ccc2c(c1)OCO2)N1CCCCC1
REMARK SMILES IDX 3 1 4 2 2 3 1 4 16 5 17 6 21 7 18 8 20 9 19 10 5 11 6 12
REMARK SMILES IDX 7 13 12 14 8 15 11 16 9 17 13 18 10 19 14 20 15 21
REMARK H PARENT
REMARK Flexibility Score: inf
ROOT
ATOM      1  C   UNL     1      95.199  94.346  75.940  1.00  0.00     0.071 C 
ATOM      2  C   UNL     1      94.031  94.417  76.576  1.00  0.00     0.006 C 
ENDROOT
BRANCH   1   3
ATOM      3  C   UNL     1      96.300  95.210  76.411  1.00  0.00     0.246 C 
ATOM      4  O   UNL     1      96.679  95.065  77.574  1.00  0.00    -0.270 OA
ATOM      5  N   UNL     1      96.831  96.134  75.512  1.00  0.00    -0.339 N 
ATOM      6  C   UNL     1      97.922  97.009  75.953  1.00  0.00     0.120 C 
ATOM      7  C   UNL     1      96.375  96.367  74.134  1.00  0.00     0.120 C 
ATOM      8  C   UNL     1      99.111  96.940  75.001  1.00  0.00     0.022 C 
ATOM      9  C   UNL     1      97.542  96.309  73.148  1.00  0.00     0.022 C 
ATOM     10  C   UNL     1      98.681  97.233  73.567  1.00  0.00     0.004 C 
ENDBRANCH   1   3
BRANCH   2  11
ATOM     11  C   UNL     1      92.894  93.610  76.187  1.00  0.00     0.001 C 
ATOM     12  C   UNL     1      92.594  93.347  74.905  1.00  0.00     0.008 C 
BRANCH  12  13
ATOM     13  C   UNL     1      91.446  92.541  74.455  1.00  0.00    -0.022 A 
ATOM     14  C   UNL     1      90.543  93.094  73.557  1.00  0.00     0.058 A 
ATOM     15  C   UNL     1      91.298  91.241  74.944  1.00  0.00     0.012 A 
ATOM     16  C   UNL     1      89.485  92.300  73.165  1.00  0.00     0.166 A 
ATOM     17  C   UNL     1      90.218  90.459  74.530  1.00  0.00     0.051 A 
ATOM     18  O   UNL     1      88.498  92.657  72.298  1.00  0.00    -0.454 OA
ATOM     19  C   UNL     1      89.326  91.017  73.638  1.00  0.00     0.165 A 
ATOM     20  C   UNL     1      87.701  91.455  72.279  1.00  0.00     0.468 C 
ATOM     21  O   UNL     1      88.221  90.411  73.127  1.00  0.00    -0.454 OA
ENDBRANCH  12  13
ENDBRANCH   2  11
TORSDOF 3
ENDMDL
MODEL 6
REMARK VINA RESULT:    -7.033      3.075      8.616
REMARK INTER + INTRA:          -8.643
REMARK INTER:                  -8.297
REMARK INTRA:                  -0.346
REMARK UNBOUND:                -0.376
REMARK SMILES O=C(/C=C/C=C/c1ccc2c(c1)OCO2)N1CCCCC1
REMARK SMILES IDX 3 1 4 2 2 3 1 4 16 5 17 6 21 7 18 8 20 9 19 10 5 11 6 12
REMARK SMILES IDX 7 13 12 14 8 15 11 16 9 17 13 18 10 19 14 20 15 21
REMARK H PARENT
REMARK Flexibility Score: inf
ROOT
ATOM      1  C   UNL     1      96.402  94.512  76.344  1.00  0.00     0.071 C 
ATOM      2  C   UNL     1      95.257  94.749  76.983  1.00  0.00     0.006 C 
ENDROOT
BRANCH   1   3
ATOM      3  C   UNL     1      97.445  95.556  76.378  1.00  0.00     0.246 C 
ATOM      4  O   UNL     1      98.105  95.668  77.412  1.00  0.00    -0.270 OA
ATOM      5  N   UNL     1      97.609  96.347  75.242  1.00  0.00    -0.339 N 
ATOM      6  C   UNL     1      98.633  97.396  75.247  1.00  0.00     0.120 C 
ATOM      7  C   UNL     1      96.812  96.273  74.009  1.00  0.00     0.120 C 
ATOM      8  C   UNL     1      99.562  97.275  74.044  1.00  0.00     0.022 C 
ATOM      9  C   UNL     1      97.708  96.154  72.776  1.00  0.00     0.022 C 
ATOM     10  C   UNL     1      98.768  97.252  72.741  1.00  0.00     0.004 C 
ENDBRANCH   1   3
BRANCH   2  11
ATOM     11  C   UNL     1      94.176  93.787  77.006  1.00  0.00     0.001 C 
ATOM     12  C   UNL     1      93.016  93.981  76.358  1.00  0.00     0.008 C 
BRANCH  12  13
ATOM     13  C   UNL     1      91.883  93.041  76.355  1.00  0.00    -0.022 A 
ATOM     14  C   UNL     1      91.731  92.169  75.285  1.00  0.00     0.058 A 
ATOM     15  C   UNL     1      90.990  93.053  77.430  1.00  0.00     0.012 A 
ATOM     16  C   UNL     1      90.654  91.308  75.328  1.00  0.00     0.166 A 
ATOM     17  C   UNL     1      89.909  92.169  77.448  1.00  0.00     0.051 A 
ATOM     18  O   UNL     1      90.333  90.384  74.381  1.00  0.00    -0.454 OA
ATOM     19  C   UNL     1      89.767  91.307  76.381  1.00  0.00     0.165 A 
ATOM     20  C   UNL     1      89.145  89.802  74.956  1.00  0.00     0.468 C 
ATOM     21  O   UNL     1      88.780  90.383  76.225  1.00  0.00    -0.454 OA
ENDBRANCH  12  13
ENDBRANCH   2  11
TORSDOF 3
ENDMDL
MODEL 7
REMARK VINA RESULT:    -7.027      4.646      8.176
REMARK INTER + INTRA:          -8.635
REMARK INTER:                  -8.254
REMARK INTRA:                  -0.382
REMARK UNBOUND:                -0.376
REMARK SMILES O=C(/C=C/C=C/c1ccc2c(c1)OCO2)N1CCCCC1
REMARK SMILES IDX 3 1 4 2 2 3 1 4 16 5 17 6 21 7 18 8 20 9 19 10 5 11 6 12
REMARK SMILES IDX 7 13 12 14 8 15 11 16 9 17 13 18 10 19 14 20 15 21
REMARK H PARENT
REMARK Flexibility Score: inf
ROOT
ATOM      1  C   UNL     1      94.341  97.012  74.087  1.00  0.00     0.071 C 
ATOM      2  C   UNL     1      94.922  96.146  74.915  1.00  0.00     0.006 C 
ENDROOT
BRANCH   1   3
ATOM      3  C   UNL     1      95.165  98.110  73.541  1.00  0.00     0.246 C 
ATOM      4  O   UNL     1      96.280  98.284  74.034  1.00  0.00    -0.270 OA
ATOM      5  N   UNL     1      94.624  98.877  72.511  1.00  0.00    -0.339 N 
ATOM      6  C   UNL     1      95.415  99.978  71.953  1.00  0.00     0.120 C 
ATOM      7  C   UNL     1      93.282  98.728  71.929  1.00  0.00     0.120 C 
ATOM      8  C   UNL     1      95.524  99.872  70.436  1.00  0.00     0.022 C 
ATOM      9  C   UNL     1      93.348  98.623  70.405  1.00  0.00     0.022 C 
ATOM     10  C   UNL     1      94.143  99.773  69.794  1.00  0.00     0.004 C 
ENDBRANCH   1   3
BRANCH   2  11
ATOM     11  C   UNL     1      94.197  95.038  75.501  1.00  0.00     0.001 C 
ATOM     12  C   UNL     1      93.014  94.613  75.030  1.00  0.00     0.008 C 
BRANCH  12  13
ATOM     13  C   UNL     1      92.232  93.499  75.591  1.00  0.00    -0.022 A 
ATOM     14  C   UNL     1      92.126  92.317  74.870  1.00  0.00     0.058 A 
ATOM     15  C   UNL     1      91.618  93.661  76.836  1.00  0.00     0.012 A 
ATOM     16  C   UNL     1      91.384  91.302  75.438  1.00  0.00     0.166 A 
ATOM     17  C   UNL     1      90.872  92.617  77.387  1.00  0.00     0.051 A 
ATOM     18  O   UNL     1      91.161  90.075  74.891  1.00  0.00    -0.454 OA
ATOM     19  C   UNL     1      90.773  91.447  76.662  1.00  0.00     0.165 A 
ATOM     20  C   UNL     1      90.342  89.465  75.910  1.00  0.00     0.468 C 
ATOM     21  O   UNL     1      90.092  90.330  77.037  1.00  0.00    -0.454 OA
ENDBRANCH  12  13
ENDBRANCH   2  11
TORSDOF 3
ENDMDL
MODEL 8
REMARK VINA RESULT:    -7.022      6.425      7.397
REMARK INTER + INTRA:          -8.629
REMARK INTER:                  -8.310
REMARK INTRA:                  -0.319
REMARK UNBOUND:                -0.376
REMARK SMILES O=C(/C=C/C=C/c1ccc2c(c1)OCO2)N1CCCCC1
REMARK SMILES IDX 3 1 4 2 2 3 1 4 16 5 17 6 21 7 18 8 20 9 19 10 5 11 6 12
REMARK SMILES IDX 7 13 12 14 8 15 11 16 9 17 13 18 10 19 14 20 15 21
REMARK H PARENT
REMARK Flexibility Score: inf
ROOT
ATOM      1  C   UNL     1      92.706  98.296  70.290  1.00  0.00     0.071 C 
ATOM      2  C   UNL     1      93.668  98.791  71.066  1.00  0.00     0.006 C 
ENDROOT
BRANCH   1   3
ATOM      3  C   UNL     1      92.069  99.200  69.312  1.00  0.00     0.246 C 
ATOM      4  O   UNL     1      92.545 100.328  69.185  1.00  0.00    -0.270 OA
ATOM      5  N   UNL     1      90.970  98.718  68.602  1.00  0.00    -0.339 N 
ATOM      6  C   UNL     1      90.313  99.595  67.628  1.00  0.00     0.120 C 
ATOM      7  C   UNL     1      90.346  97.396  68.758  1.00  0.00     0.120 C 
ATOM      8  C   UNL     1      90.192  98.921  66.265  1.00  0.00     0.022 C 
ATOM      9  C   UNL     1      90.204  96.689  67.410  1.00  0.00     0.022 C 
ATOM     10  C   UNL     1      89.497  97.569  66.384  1.00  0.00     0.004 C 
ENDBRANCH   1   3
BRANCH   2  11
ATOM     11  C   UNL     1      94.352  97.983  72.054  1.00  0.00     0.001 C 
ATOM     12  C   UNL     1      93.995  97.963  73.349  1.00  0.00     0.008 C 
BRANCH  12  13
ATOM     13  C   UNL     1      94.659  97.167  74.395  1.00  0.00    -0.022 A 
ATOM     14  C   UNL     1      94.110  95.948  74.768  1.00  0.00     0.058 A 
ATOM     15  C   UNL     1      95.825  97.662  74.985  1.00  0.00     0.012 A 
ATOM     16  C   UNL     1      94.768  95.240  75.752  1.00  0.00     0.166 A 
ATOM     17  C   UNL     1      96.471  96.924  75.979  1.00  0.00     0.051 A 
ATOM     18  O   UNL     1      94.390  94.032  76.254  1.00  0.00    -0.454 OA
ATOM     19  C   UNL     1      95.917  95.714  76.342  1.00  0.00     0.165 A 
ATOM     20  C   UNL     1      95.431  93.800  77.225  1.00  0.00     0.468 C 
ATOM     21  O   UNL     1      96.403  94.864  77.286  1.00  0.00    -0.454 OA
ENDBRANCH  12  13
ENDBRANCH   2  11
TORSDOF 3
ENDMDL
MODEL 9
REMARK VINA RESULT:    -6.948     21.665     25.323
REMARK INTER + INTRA:          -8.543
REMARK INTER:                  -8.208
REMARK INTRA:                  -0.334
REMARK UNBOUND:                -0.376
REMARK SMILES O=C(/C=C/C=C/c1ccc2c(c1)OCO2)N1CCCCC1
REMARK SMILES IDX 3 1 4 2 2 3 1 4 16 5 17 6 21 7 18 8 20 9 19 10 5 11 6 12
REMARK SMILES IDX 7 13 12 14 8 15 11 16 9 17 13 18 10 19 14 20 15 21
REMARK H PARENT
REMARK Flexibility Score: inf
ROOT
ATOM      1  C   UNL     1      84.018  69.070  71.859  1.00  0.00     0.071 C 
ATOM      2  C   UNL     1      85.261  69.085  71.382  1.00  0.00     0.006 C 
ENDROOT
BRANCH   1   3
ATOM      3  C   UNL     1      83.651  68.001  72.809  1.00  0.00     0.246 C 
ATOM      4  O   UNL     1      84.189  68.014  73.917  1.00  0.00    -0.270 OA
ATOM      5  N   UNL     1      82.726  67.047  72.387  1.00  0.00    -0.339 N 
ATOM      6  C   UNL     1      82.346  65.970  73.306  1.00  0.00     0.120 C 
ATOM      7  C   UNL     1      82.099  66.972  71.059  1.00  0.00     0.120 C 
ATOM      8  C   UNL     1      80.832  65.877  73.460  1.00  0.00     0.022 C 
ATOM      9  C   UNL     1      80.577  66.874  71.171  1.00  0.00     0.022 C 
ATOM     10  C   UNL     1      80.152  65.741  72.101  1.00  0.00     0.004 C 
ENDBRANCH   1   3
BRANCH   2  11
ATOM     11  C   UNL     1      85.715  70.092  70.447  1.00  0.00     0.001 C 
ATOM     12  C   UNL     1      86.997  70.204  70.064  1.00  0.00     0.008 C 
BRANCH  12  13
ATOM     13  C   UNL     1      87.513  71.213  69.124  1.00  0.00    -0.022 A 
ATOM     14  C   UNL     1      88.724  71.833  69.396  1.00  0.00     0.058 A 
ATOM     15  C   UNL     1      86.768  71.519  67.982  1.00  0.00     0.012 A 
ATOM     16  C   UNL     1      89.166  72.771  68.486  1.00  0.00     0.166 A 
ATOM     17  C   UNL     1      87.239  72.473  67.077  1.00  0.00     0.051 A 
ATOM     18  O   UNL     1      90.322  73.486  68.573  1.00  0.00    -0.454 OA
ATOM     19  C   UNL     1      88.443  73.083  67.357  1.00  0.00     0.165 A 
ATOM     20  C   UNL     1      90.244  74.281  67.373  1.00  0.00     0.468 C 
ATOM     21  O   UNL     1      89.055  74.031  66.596  1.00  0.00    -0.454 OA
ENDBRANCH  12  13
ENDBRANCH   2  11
TORSDOF 3
ENDMDL
MODEL 10
REMARK VINA RESULT:    -6.832      3.310      9.203
REMARK INTER + INTRA:          -8.407
REMARK INTER:                  -8.007
REMARK INTRA:                  -0.400
REMARK UNBOUND:                -0.376
REMARK SMILES O=C(/C=C/C=C/c1ccc2c(c1)OCO2)N1CCCCC1
REMARK SMILES IDX 3 1 4 2 2 3 1 4 16 5 17 6 21 7 18 8 20 9 19 10 5 11 6 12
REMARK SMILES IDX 7 13 12 14 8 15 11 16 9 17 13 18 10 19 14 20 15 21
REMARK H PARENT
REMARK Flexibility Score: inf
ROOT
ATOM      1  C   UNL     1      95.855  95.528  79.156  1.00  0.00     0.071 C 
ATOM      2  C   UNL     1      95.323  94.308  79.101  1.00  0.00     0.006 C 
ENDROOT
BRANCH   1   3
ATOM      3  C   UNL     1      97.078  95.716  79.962  1.00  0.00     0.246 C 
ATOM      4  O   UNL     1      97.026  95.413  81.155  1.00  0.00    -0.270 OA
ATOM      5  N   UNL     1      98.206  96.227  79.322  1.00  0.00    -0.339 N 
ATOM      6  C   UNL     1      99.434  96.430  80.097  1.00  0.00     0.120 C 
ATOM      7  C   UNL     1      98.293  96.642  77.914  1.00  0.00     0.120 C 
ATOM      8  C   UNL     1     100.629  95.752  79.436  1.00  0.00     0.022 C 
ATOM      9  C   UNL     1      99.483  95.984  77.216  1.00  0.00     0.022 C 
ATOM     10  C   UNL     1     100.781  96.204  77.987  1.00  0.00     0.004 C 
ENDBRANCH   1   3
BRANCH   2  11
ATOM     11  C   UNL     1      94.126  94.026  78.338  1.00  0.00     0.001 C 
ATOM     12  C   UNL     1      94.088  94.084  76.997  1.00  0.00     0.008 C 
BRANCH  12  13
ATOM     13  C   UNL     1      92.897  93.815  76.173  1.00  0.00    -0.022 A 
ATOM     14  C   UNL     1      93.015  92.985  75.066  1.00  0.00     0.058 A 
ATOM     15  C   UNL     1      91.681  94.402  76.529  1.00  0.00     0.012 A 
ATOM     16  C   UNL     1      91.872  92.762  74.327  1.00  0.00     0.166 A 
ATOM     17  C   UNL     1      90.539  94.160  75.762  1.00  0.00     0.051 A 
ATOM     18  O   UNL     1      91.781  91.986  73.212  1.00  0.00    -0.454 OA
ATOM     19  C   UNL     1      90.667  93.334  74.665  1.00  0.00     0.165 A 
ATOM     20  C   UNL     1      90.384  92.133  72.887  1.00  0.00     0.468 C 
ATOM     21  O   UNL     1      89.670  92.987  73.805  1.00  0.00    -0.454 OA
ENDBRANCH  12  13
ENDBRANCH   2  11
TORSDOF 3
ENDMDL
