MODEL 1
REMARK VINA RESULT:    -6.309      0.000      0.000
REMARK INTER + INTRA:         -11.058
REMARK INTER:                 -10.182
REMARK INTRA:                  -0.876
REMARK UNBOUND:                -0.876
REMARK SMILES CCCCCCCCC(=O)NCc1ccc(O)c(OC)c1
REMARK SMILES IDX 7 1 6 2 5 3 4 4 3 5 2 6 1 7 8 8 9 9 10 10 11 11 12 13 13 14
REMARK SMILES IDX 21 15 14 16 18 17 15 18 16 19 19 20 20 21 17 22
REMARK H PARENT 11 12 17 23
REMARK Flexibility Score: inf
ROOT
ATOM      1  C   UNL     1      93.470  93.775  76.909  1.00  0.00     0.010 C 
ENDROOT
BRANCH   1   2
ATOM      2  C   UNL     1      94.402  93.628  75.672  1.00  0.00     0.001 C 
BRANCH   2   3
ATOM      3  C   UNL     1      95.902  93.827  76.038  1.00  0.00     0.000 C 
BRANCH   3   4
ATOM      4  C   UNL     1      96.128  94.399  77.466  1.00  0.00    -0.000 C 
BRANCH   4   5
ATOM      5  C   UNL     1      97.136  95.583  77.485  1.00  0.00    -0.000 C 
BRANCH   5   6
ATOM      6  C   UNL     1      97.436  96.135  76.065  1.00  0.00    -0.003 C 
ATOM      7  C   UNL     1      96.514  97.309  75.671  1.00  0.00     0.004 C 
ENDBRANCH   5   6
ENDBRANCH   4   5
ENDBRANCH   3   4
ENDBRANCH   2   3
ENDBRANCH   1   2
BRANCH   1   8
ATOM      8  C   UNL     1      92.160  94.560  76.620  1.00  0.00     0.100 C 
BRANCH   8   9
ATOM      9  C   UNL     1      90.962  93.729  76.890  1.00  0.00     0.220 C 
ATOM     10  O   UNL     1      89.851  94.130  76.467  1.00  0.00    -0.275 OA
ATOM     11  N   UNL     1      91.076  92.544  77.559  1.00  0.00    -0.352 N 
ATOM     12  H   UNL     1      91.997  92.360  77.929  1.00  0.00     0.163 HD
BRANCH  11  13
ATOM     13  C   UNL     1      90.026  91.591  77.757  1.00  0.00     0.151 C 
BRANCH  13  14
ATOM     14  C   UNL     1      90.204  90.332  76.986  1.00  0.00    -0.025 A 
ATOM     15  C   UNL     1      90.391  90.375  75.583  1.00  0.00     0.056 A 
ATOM     16  C   UNL     1      90.187  89.075  77.633  1.00  0.00     0.009 A 
ATOM     17  C   UNL     1      90.579  89.187  74.840  1.00  0.00     0.160 A 
ATOM     18  C   UNL     1      90.374  87.890  76.900  1.00  0.00     0.050 A 
ATOM     19  C   UNL     1      90.562  87.940  75.505  1.00  0.00     0.157 A 
BRANCH  17  20
ATOM     20  O   UNL     1      90.717  89.228  73.475  1.00  0.00    -0.493 OA
ATOM     21  C   UNL     1      90.038  90.330  72.848  1.00  0.00     0.278 C 
ENDBRANCH  17  20
BRANCH  19  22
ATOM     22  O   UNL     1      90.714  86.789  74.802  1.00  0.00    -0.504 OA
ATOM     23  H   UNL     1      90.359  86.055  75.309  1.00  0.00     0.293 HD
ENDBRANCH  19  22
ENDBRANCH  13  14
ENDBRANCH  11  13
ENDBRANCH   8   9
ENDBRANCH   1   8
TORSDOF 11
ENDMDL
MODEL 2
REMARK VINA RESULT:    -5.763      5.486      7.941
REMARK INTER + INTRA:         -10.176
REMARK INTER:                  -9.644
REMARK INTRA:                  -0.532
REMARK UNBOUND:                -0.876
REMARK SMILES CCCCCCCCC(=O)NCc1ccc(O)c(OC)c1
REMARK SMILES IDX 7 1 6 2 5 3 4 4 3 5 2 6 1 7 8 8 9 9 10 10 11 11 12 13 13 14
REMARK SMILES IDX 21 15 14 16 18 17 15 18 16 19 19 20 20 21 17 22
REMARK H PARENT 11 12 17 23
REMARK Flexibility Score: inf
ROOT
ATOM      1  C   UNL     1      93.512  99.097  71.600  1.00  0.00     0.010 C 
ENDROOT
BRANCH   1   2
ATOM      2  C   UNL     1      92.298  99.546  70.737  1.00  0.00     0.001 C 
BRANCH   2   3
ATOM      3  C   UNL     1      92.022  98.570  69.555  1.00  0.00     0.000 C 
BRANCH   3   4
ATOM      4  C   UNL     1      90.534  98.535  69.106  1.00  0.00    -0.000 C 
BRANCH   4   5
ATOM      5  C   UNL     1      90.130  97.172  68.476  1.00  0.00    -0.000 C 
BRANCH   5   6
ATOM      6  C   UNL     1      89.713  97.304  66.986  1.00  0.00    -0.003 C 
ATOM      7  C   UNL     1      90.147  98.648  66.359  1.00  0.00     0.004 C 
ENDBRANCH   5   6
ENDBRANCH   4   5
ENDBRANCH   3   4
ENDBRANCH   2   3
ENDBRANCH   1   2
BRANCH   1   8
ATOM      8  C   UNL     1      93.331  99.353  73.123  1.00  0.00     0.100 C 
BRANCH   8   9
ATOM      9  C   UNL     1      94.311  98.578  73.921  1.00  0.00     0.220 C 
ATOM     10  O   UNL     1      95.016  99.193  74.757  1.00  0.00    -0.275 OA
ATOM     11  N   UNL     1      94.418  97.226  73.766  1.00  0.00    -0.352 N 
ATOM     12  H   UNL     1      93.868  96.848  73.008  1.00  0.00     0.163 HD
BRANCH  11  13
ATOM     13  C   UNL     1      95.218  96.353  74.569  1.00  0.00     0.151 C 
BRANCH  13  14
ATOM     14  C   UNL     1      94.427  95.419  75.414  1.00  0.00    -0.025 A 
ATOM     15  C   UNL     1      93.098  95.087  75.056  1.00  0.00     0.056 A 
ATOM     16  C   UNL     1      94.980  94.851  76.584  1.00  0.00     0.009 A 
ATOM     17  C   UNL     1      92.339  94.188  75.840  1.00  0.00     0.160 A 
ATOM     18  C   UNL     1      94.232  93.955  77.367  1.00  0.00     0.050 A 
ATOM     19  C   UNL     1      92.911  93.627  77.004  1.00  0.00     0.157 A 
BRANCH  17  20
ATOM     20  O   UNL     1      91.038  93.900  75.515  1.00  0.00    -0.493 OA
ATOM     21  C   UNL     1      90.070  94.761  76.141  1.00  0.00     0.278 C 
ENDBRANCH  17  20
BRANCH  19  22
ATOM     22  O   UNL     1      92.187  92.782  77.782  1.00  0.00    -0.504 OA
ATOM     23  H   UNL     1      91.567  92.295  77.234  1.00  0.00     0.293 HD
ENDBRANCH  19  22
ENDBRANCH  13  14
ENDBRANCH  11  13
ENDBRANCH   8   9
ENDBRANCH   1   8
TORSDOF 11
ENDMDL
MODEL 3
REMARK VINA RESULT:    -5.724      4.271      8.765
REMARK INTER + INTRA:         -10.113
REMARK INTER:                  -9.010
REMARK INTRA:                  -1.104
REMARK UNBOUND:                -0.876
REMARK SMILES CCCCCCCCC(=O)NCc1ccc(O)c(OC)c1
REMARK SMILES IDX 7 1 6 2 5 3 4 4 3 5 2 6 1 7 8 8 9 9 10 10 11 11 12 13 13 14
REMARK SMILES IDX 21 15 14 16 18 17 15 18 16 19 19 20 20 21 17 22
REMARK H PARENT 11 12 17 23
REMARK Flexibility Score: inf
ROOT
ATOM      1  C   UNL     1      93.439  95.085  75.490  1.00  0.00     0.010 C 
ENDROOT
BRANCH   1   2
ATOM      2  C   UNL     1      92.307  94.753  76.505  1.00  0.00     0.001 C 
BRANCH   2   3
ATOM      3  C   UNL     1      92.525  93.377  77.201  1.00  0.00     0.000 C 
BRANCH   3   4
ATOM      4  C   UNL     1      91.383  92.355  76.941  1.00  0.00    -0.000 C 
BRANCH   4   5
ATOM      5  C   UNL     1      90.259  92.929  76.033  1.00  0.00    -0.000 C 
BRANCH   5   6
ATOM      6  C   UNL     1      90.122  92.157  74.693  1.00  0.00    -0.003 C 
ATOM      7  C   UNL     1      91.429  92.144  73.871  1.00  0.00     0.004 C 
ENDBRANCH   5   6
ENDBRANCH   4   5
ENDBRANCH   3   4
ENDBRANCH   2   3
ENDBRANCH   1   2
BRANCH   1   8
ATOM      8  C   UNL     1      94.461  93.931  75.287  1.00  0.00     0.100 C 
BRANCH   8   9
ATOM      9  C   UNL     1      95.617  94.067  76.206  1.00  0.00     0.220 C 
ATOM     10  O   UNL     1      96.336  93.060  76.410  1.00  0.00    -0.275 OA
ATOM     11  N   UNL     1      95.903  95.268  76.788  1.00  0.00    -0.352 N 
ATOM     12  H   UNL     1      95.213  95.986  76.625  1.00  0.00     0.163 HD
BRANCH  11  13
ATOM     13  C   UNL     1      97.063  95.560  77.574  1.00  0.00     0.151 C 
BRANCH  13  14
ATOM     14  C   UNL     1      96.790  95.660  79.033  1.00  0.00    -0.025 A 
ATOM     15  C   UNL     1      97.829  96.009  79.930  1.00  0.00     0.056 A 
ATOM     16  C   UNL     1      95.499  95.405  79.551  1.00  0.00     0.009 A 
ATOM     17  C   UNL     1      97.581  96.123  81.317  1.00  0.00     0.160 A 
ATOM     18  C   UNL     1      95.246  95.519  80.929  1.00  0.00     0.050 A 
ATOM     19  C   UNL     1      96.283  95.869  81.815  1.00  0.00     0.157 A 
BRANCH  17  20
ATOM     20  O   UNL     1      98.598  96.421  82.189  1.00  0.00    -0.493 OA
ATOM     21  C   UNL     1      99.872  96.637  81.556  1.00  0.00     0.278 C 
ENDBRANCH  17  20
BRANCH  19  22
ATOM     22  O   UNL     1      96.035  95.950  83.147  1.00  0.00    -0.504 OA
ATOM     23  H   UNL     1      95.219  95.485  83.349  1.00  0.00     0.293 HD
ENDBRANCH  19  22
ENDBRANCH  13  14
ENDBRANCH  11  13
ENDBRANCH   8   9
ENDBRANCH   1   8
TORSDOF 11
ENDMDL
MODEL 4
REMARK VINA RESULT:    -5.716      2.194      3.174
REMARK INTER + INTRA:         -10.101
REMARK INTER:                  -9.351
REMARK INTRA:                  -0.750
REMARK UNBOUND:                -0.876
REMARK SMILES CCCCCCCCC(=O)NCc1ccc(O)c(OC)c1
REMARK SMILES IDX 7 1 6 2 5 3 4 4 3 5 2 6 1 7 8 8 9 9 10 10 11 11 12 13 13 14
REMARK SMILES IDX 21 15 14 16 18 17 15 18 16 19 19 20 20 21 17 22
REMARK H PARENT 11 12 17 23
REMARK Flexibility Score: inf
ROOT
ATOM      1  C   UNL     1      94.794  95.480  75.390  1.00  0.00     0.010 C 
ENDROOT
BRANCH   1   2
ATOM      2  C   UNL     1      95.874  95.872  76.440  1.00  0.00     0.001 C 
BRANCH   2   3
ATOM      3  C   UNL     1      96.385  94.642  77.246  1.00  0.00     0.000 C 
BRANCH   3   4
ATOM      4  C   UNL     1      95.713  94.482  78.639  1.00  0.00    -0.000 C 
BRANCH   4   5
ATOM      5  C   UNL     1      95.943  95.714  79.561  1.00  0.00    -0.000 C 
BRANCH   5   6
ATOM      6  C   UNL     1      95.558  95.432  81.038  1.00  0.00    -0.003 C 
ATOM      7  C   UNL     1      95.779  93.959  81.446  1.00  0.00     0.004 C 
ENDBRANCH   5   6
ENDBRANCH   4   5
ENDBRANCH   3   4
ENDBRANCH   2   3
ENDBRANCH   1   2
BRANCH   1   8
ATOM      8  C   UNL     1      94.524  93.951  75.306  1.00  0.00     0.100 C 
BRANCH   8   9
ATOM      9  C   UNL     1      93.135  93.626  75.709  1.00  0.00     0.220 C 
ATOM     10  O   UNL     1      92.959  92.976  76.768  1.00  0.00    -0.275 OA
ATOM     11  N   UNL     1      92.077  94.050  74.958  1.00  0.00    -0.352 N 
ATOM     12  H   UNL     1      92.333  94.487  74.085  1.00  0.00     0.163 HD
BRANCH  11  13
ATOM     13  C   UNL     1      90.696  93.923  75.312  1.00  0.00     0.151 C 
BRANCH  13  14
ATOM     14  C   UNL     1      90.121  92.583  75.020  1.00  0.00    -0.025 A 
ATOM     15  C   UNL     1      90.066  92.106  73.689  1.00  0.00     0.056 A 
ATOM     16  C   UNL     1      89.618  91.766  76.059  1.00  0.00     0.009 A 
ATOM     17  C   UNL     1      89.538  90.827  73.398  1.00  0.00     0.160 A 
ATOM     18  C   UNL     1      89.093  90.492  75.776  1.00  0.00     0.050 A 
ATOM     19  C   UNL     1      89.044  90.023  74.449  1.00  0.00     0.157 A 
BRANCH  17  20
ATOM     20  O   UNL     1      89.447  90.385  72.102  1.00  0.00    -0.493 OA
ATOM     21  C   UNL     1      90.314  91.071  71.183  1.00  0.00     0.278 C 
ENDBRANCH  17  20
BRANCH  19  22
ATOM     22  O   UNL     1      88.510  88.804  74.183  1.00  0.00    -0.504 OA
ATOM     23  H   UNL     1      87.790  88.900  73.554  1.00  0.00     0.293 HD
ENDBRANCH  19  22
ENDBRANCH  13  14
ENDBRANCH  11  13
ENDBRANCH   8   9
ENDBRANCH   1   8
TORSDOF 11
ENDMDL
MODEL 5
REMARK VINA RESULT:    -5.633      4.078      5.428
REMARK INTER + INTRA:          -9.967
REMARK INTER:                  -9.387
REMARK INTRA:                  -0.580
REMARK UNBOUND:                -0.876
REMARK SMILES CCCCCCCCC(=O)NCc1ccc(O)c(OC)c1
REMARK SMILES IDX 7 1 6 2 5 3 4 4 3 5 2 6 1 7 8 8 9 9 10 10 11 11 12 13 13 14
REMARK SMILES IDX 21 15 14 16 18 17 15 18 16 19 19 20 20 21 17 22
REMARK H PARENT 11 12 17 23
REMARK Flexibility Score: inf
ROOT
ATOM      1  C   UNL     1      94.481  97.024  74.521  1.00  0.00     0.010 C 
ENDROOT
BRANCH   1   2
ATOM      2  C   UNL     1      94.586  98.049  73.355  1.00  0.00     0.001 C 
BRANCH   2   3
ATOM      3  C   UNL     1      93.542  97.775  72.233  1.00  0.00     0.000 C 
BRANCH   3   4
ATOM      4  C   UNL     1      93.176  99.033  71.396  1.00  0.00    -0.000 C 
BRANCH   4   5
ATOM      5  C   UNL     1      92.673  98.677  69.968  1.00  0.00    -0.000 C 
BRANCH   5   6
ATOM      6  C   UNL     1      91.204  99.119  69.726  1.00  0.00    -0.003 C 
ATOM      7  C   UNL     1      90.276  97.940  69.359  1.00  0.00     0.004 C 
ENDBRANCH   5   6
ENDBRANCH   4   5
ENDBRANCH   3   4
ENDBRANCH   2   3
ENDBRANCH   1   2
BRANCH   1   8
ATOM      8  C   UNL     1      95.515  95.867  74.438  1.00  0.00     0.100 C 
BRANCH   8   9
ATOM      9  C   UNL     1      95.148  94.749  75.339  1.00  0.00     0.220 C 
ATOM     10  O   UNL     1      95.960  93.802  75.474  1.00  0.00    -0.275 OA
ATOM     11  N   UNL     1      93.966  94.768  76.023  1.00  0.00    -0.352 N 
ATOM     12  H   UNL     1      93.352  95.530  75.774  1.00  0.00     0.163 HD
BRANCH  11  13
ATOM     13  C   UNL     1      93.563  93.826  77.022  1.00  0.00     0.151 C 
BRANCH  13  14
ATOM     14  C   UNL     1      92.300  93.110  76.698  1.00  0.00    -0.025 A 
ATOM     15  C   UNL     1      91.852  93.027  75.358  1.00  0.00     0.056 A 
ATOM     16  C   UNL     1      91.526  92.506  77.715  1.00  0.00     0.009 A 
ATOM     17  C   UNL     1      90.663  92.335  75.033  1.00  0.00     0.160 A 
ATOM     18  C   UNL     1      90.343  91.815  77.398  1.00  0.00     0.050 A 
ATOM     19  C   UNL     1      89.905  91.733  76.063  1.00  0.00     0.157 A 
BRANCH  17  20
ATOM     20  O   UNL     1      90.208  92.291  73.739  1.00  0.00    -0.493 OA
ATOM     21  C   UNL     1      90.677  91.158  72.988  1.00  0.00     0.278 C 
ENDBRANCH  17  20
BRANCH  19  22
ATOM     22  O   UNL     1      88.747  91.088  75.770  1.00  0.00    -0.504 OA
ATOM     23  H   UNL     1      88.236  90.966  76.574  1.00  0.00     0.293 HD
ENDBRANCH  19  22
ENDBRANCH  13  14
ENDBRANCH  11  13
ENDBRANCH   8   9
ENDBRANCH   1   8
TORSDOF 11
ENDMDL
MODEL 6
REMARK VINA RESULT:    -5.632      1.903      3.066
REMARK INTER + INTRA:          -9.965
REMARK INTER:                  -9.205
REMARK INTRA:                  -0.760
REMARK UNBOUND:                -0.876
REMARK SMILES CCCCCCCCC(=O)NCc1ccc(O)c(OC)c1
REMARK SMILES IDX 7 1 6 2 5 3 4 4 3 5 2 6 1 7 8 8 9 9 10 10 11 11 12 13 13 14
REMARK SMILES IDX 21 15 14 16 18 17 15 18 16 19 19 20 20 21 17 22
REMARK H PARENT 11 12 17 23
REMARK Flexibility Score: inf
ROOT
ATOM      1  C   UNL     1      94.465  94.961  76.238  1.00  0.00     0.010 C 
ENDROOT
BRANCH   1   2
ATOM      2  C   UNL     1      95.794  94.450  76.866  1.00  0.00     0.001 C 
BRANCH   2   3
ATOM      3  C   UNL     1      96.842  95.589  77.036  1.00  0.00     0.000 C 
BRANCH   3   4
ATOM      4  C   UNL     1      96.728  96.350  78.387  1.00  0.00    -0.000 C 
BRANCH   4   5
ATOM      5  C   UNL     1      97.600  95.717  79.508  1.00  0.00    -0.000 C 
BRANCH   5   6
ATOM      6  C   UNL     1      96.747  95.061  80.627  1.00  0.00    -0.003 C 
ATOM      7  C   UNL     1      95.235  95.333  80.468  1.00  0.00     0.004 C 
ENDBRANCH   5   6
ENDBRANCH   4   5
ENDBRANCH   3   4
ENDBRANCH   2   3
ENDBRANCH   1   2
BRANCH   1   8
ATOM      8  C   UNL     1      93.813  93.960  75.244  1.00  0.00     0.100 C 
BRANCH   8   9
ATOM      9  C   UNL     1      92.574  93.371  75.808  1.00  0.00     0.220 C 
ATOM     10  O   UNL     1      92.599  92.948  76.988  1.00  0.00    -0.275 OA
ATOM     11  N   UNL     1      91.430  93.319  75.064  1.00  0.00    -0.352 N 
ATOM     12  H   UNL     1      91.543  93.605  74.103  1.00  0.00     0.163 HD
BRANCH  11  13
ATOM     13  C   UNL     1      90.143  92.908  75.537  1.00  0.00     0.151 C 
BRANCH  13  14
ATOM     14  C   UNL     1      89.885  91.451  75.387  1.00  0.00    -0.025 A 
ATOM     15  C   UNL     1      90.133  90.569  76.466  1.00  0.00     0.056 A 
ATOM     16  C   UNL     1      89.393  90.922  74.172  1.00  0.00     0.009 A 
ATOM     17  C   UNL     1      89.876  89.184  76.344  1.00  0.00     0.160 A 
ATOM     18  C   UNL     1      89.135  89.545  74.045  1.00  0.00     0.050 A 
ATOM     19  C   UNL     1      89.381  88.674  75.123  1.00  0.00     0.157 A 
BRANCH  17  20
ATOM     20  O   UNL     1      90.157  88.325  77.376  1.00  0.00    -0.493 OA
ATOM     21  C   UNL     1      89.665  88.761  78.655  1.00  0.00     0.278 C 
ENDBRANCH  17  20
BRANCH  19  22
ATOM     22  O   UNL     1      89.154  87.343  74.981  1.00  0.00    -0.504 OA
ATOM     23  H   UNL     1      89.420  86.886  75.782  1.00  0.00     0.293 HD
ENDBRANCH  19  22
ENDBRANCH  13  14
ENDBRANCH  11  13
ENDBRANCH   8   9
ENDBRANCH   1   8
TORSDOF 11
ENDMDL
MODEL 7
REMARK VINA RESULT:    -5.631      3.557      4.868
REMARK INTER + INTRA:          -9.964
REMARK INTER:                  -9.179
REMARK INTRA:                  -0.785
REMARK UNBOUND:                -0.876
REMARK SMILES CCCCCCCCC(=O)NCc1ccc(O)c(OC)c1
REMARK SMILES IDX 7 1 6 2 5 3 4 4 3 5 2 6 1 7 8 8 9 9 10 10 11 11 12 13 13 14
REMARK SMILES IDX 21 15 14 16 18 17 15 18 16 19 19 20 20 21 17 22
REMARK H PARENT 11 12 17 23
REMARK Flexibility Score: inf
ROOT
ATOM      1  C   UNL     1      94.727  97.010  74.554  1.00  0.00     0.010 C 
ENDROOT
BRANCH   1   2
ATOM      2  C   UNL     1      94.200  97.600  73.214  1.00  0.00     0.001 C 
BRANCH   2   3
ATOM      3  C   UNL     1      95.358  98.012  72.257  1.00  0.00     0.000 C 
BRANCH   3   4
ATOM      4  C   UNL     1      95.045  97.768  70.753  1.00  0.00    -0.000 C 
BRANCH   4   5
ATOM      5  C   UNL     1      96.324  97.762  69.868  1.00  0.00    -0.000 C 
BRANCH   5   6
ATOM      6  C   UNL     1      96.745  96.331  69.439  1.00  0.00    -0.003 C 
ATOM      7  C   UNL     1      97.694  95.655  70.453  1.00  0.00     0.004 C 
ENDBRANCH   5   6
ENDBRANCH   4   5
ENDBRANCH   3   4
ENDBRANCH   2   3
ENDBRANCH   1   2
BRANCH   1   8
ATOM      8  C   UNL     1      95.615  95.747  74.379  1.00  0.00     0.100 C 
BRANCH   8   9
ATOM      9  C   UNL     1      95.214  94.671  75.318  1.00  0.00     0.220 C 
ATOM     10  O   UNL     1      96.026  93.740  75.538  1.00  0.00    -0.275 OA
ATOM     11  N   UNL     1      94.002  94.714  75.945  1.00  0.00    -0.352 N 
ATOM     12  H   UNL     1      93.395  95.456  75.631  1.00  0.00     0.163 HD
BRANCH  11  13
ATOM     13  C   UNL     1      93.560  93.819  76.971  1.00  0.00     0.151 C 
BRANCH  13  14
ATOM     14  C   UNL     1      92.297  93.106  76.643  1.00  0.00    -0.025 A 
ATOM     15  C   UNL     1      91.912  92.923  75.293  1.00  0.00     0.056 A 
ATOM     16  C   UNL     1      91.460  92.603  77.666  1.00  0.00     0.009 A 
ATOM     17  C   UNL     1      90.723  92.232  74.966  1.00  0.00     0.160 A 
ATOM     18  C   UNL     1      90.276  91.914  77.347  1.00  0.00     0.050 A 
ATOM     19  C   UNL     1      89.901  91.733  76.002  1.00  0.00     0.157 A 
BRANCH  17  20
ATOM     20  O   UNL     1      90.330  92.092  73.659  1.00  0.00    -0.493 OA
ATOM     21  C   UNL     1      89.736  93.274  73.093  1.00  0.00     0.278 C 
ENDBRANCH  17  20
BRANCH  19  22
ATOM     22  O   UNL     1      88.743  91.090  75.704  1.00  0.00    -0.504 OA
ATOM     23  H   UNL     1      88.191  91.046  76.489  1.00  0.00     0.293 HD
ENDBRANCH  19  22
ENDBRANCH  13  14
ENDBRANCH  11  13
ENDBRANCH   8   9
ENDBRANCH   1   8
TORSDOF 11
ENDMDL
MODEL 8
REMARK VINA RESULT:    -5.405     24.006     27.495
REMARK INTER + INTRA:          -9.599
REMARK INTER:                  -8.150
REMARK INTRA:                  -1.449
REMARK UNBOUND:                -0.876
REMARK SMILES CCCCCCCCC(=O)NCc1ccc(O)c(OC)c1
REMARK SMILES IDX 7 1 6 2 5 3 4 4 3 5 2 6 1 7 8 8 9 9 10 10 11 11 12 13 13 14
REMARK SMILES IDX 21 15 14 16 18 17 15 18 16 19 19 20 20 21 17 22
REMARK H PARENT 11 12 17 23
REMARK Flexibility Score: inf
ROOT
ATOM      1  C   UNL     1      83.272  64.465  76.203  1.00  0.00     0.010 C 
ENDROOT
BRANCH   1   2
ATOM      2  C   UNL     1      81.879  64.946  76.703  1.00  0.00     0.001 C 
BRANCH   2   3
ATOM      3  C   UNL     1      81.585  66.420  76.297  1.00  0.00     0.000 C 
BRANCH   3   4
ATOM      4  C   UNL     1      81.487  66.640  74.761  1.00  0.00    -0.000 C 
BRANCH   4   5
ATOM      5  C   UNL     1      80.115  66.196  74.177  1.00  0.00    -0.000 C 
BRANCH   5   6
ATOM      6  C   UNL     1      80.241  64.983  73.217  1.00  0.00    -0.003 C 
ATOM      7  C   UNL     1      79.885  63.641  73.894  1.00  0.00     0.004 C 
ENDBRANCH   5   6
ENDBRANCH   4   5
ENDBRANCH   3   4
ENDBRANCH   2   3
ENDBRANCH   1   2
BRANCH   1   8
ATOM      8  C   UNL     1      84.460  64.964  77.073  1.00  0.00     0.100 C 
BRANCH   8   9
ATOM      9  C   UNL     1      85.152  66.109  76.435  1.00  0.00     0.220 C 
ATOM     10  O   UNL     1      85.338  67.146  77.115  1.00  0.00    -0.275 OA
ATOM     11  N   UNL     1      85.601  66.019  75.148  1.00  0.00    -0.352 N 
ATOM     12  H   UNL     1      85.323  65.176  74.667  1.00  0.00     0.163 HD
BRANCH  11  13
ATOM     13  C   UNL     1      86.401  66.994  74.472  1.00  0.00     0.151 C 
BRANCH  13  14
ATOM     14  C   UNL     1      85.630  67.872  73.552  1.00  0.00    -0.025 A 
ATOM     15  C   UNL     1      84.403  67.427  73.005  1.00  0.00     0.056 A 
ATOM     16  C   UNL     1      86.105  69.157  73.206  1.00  0.00     0.009 A 
ATOM     17  C   UNL     1      83.650  68.257  72.142  1.00  0.00     0.160 A 
ATOM     18  C   UNL     1      85.361  69.988  72.349  1.00  0.00     0.050 A 
ATOM     19  C   UNL     1      84.140  69.540  71.810  1.00  0.00     0.157 A 
BRANCH  17  20
ATOM     20  O   UNL     1      82.482  67.807  71.579  1.00  0.00    -0.493 OA
ATOM     21  C   UNL     1      82.633  66.621  70.780  1.00  0.00     0.278 C 
ENDBRANCH  17  20
BRANCH  19  22
ATOM     22  O   UNL     1      83.442  70.339  70.963  1.00  0.00    -0.504 OA
ATOM     23  H   UNL     1      82.585  70.541  71.346  1.00  0.00     0.293 HD
ENDBRANCH  19  22
ENDBRANCH  13  14
ENDBRANCH  11  13
ENDBRANCH   8   9
ENDBRANCH   1   8
TORSDOF 11
ENDMDL
MODEL 9
REMARK VINA RESULT:    -5.350     26.570     28.345
REMARK INTER + INTRA:          -9.509
REMARK INTER:                  -8.755
REMARK INTRA:                  -0.754
REMARK UNBOUND:                -0.876
REMARK SMILES CCCCCCCCC(=O)NCc1ccc(O)c(OC)c1
REMARK SMILES IDX 7 1 6 2 5 3 4 4 3 5 2 6 1 7 8 8 9 9 10 10 11 11 12 13 13 14
REMARK SMILES IDX 21 15 14 16 18 17 15 18 16 19 19 20 20 21 17 22
REMARK H PARENT 11 12 17 23
REMARK Flexibility Score: inf
ROOT
ATOM      1  C   UNL     1      85.256  64.402  76.487  1.00  0.00     0.010 C 
ENDROOT
BRANCH   1   2
ATOM      2  C   UNL     1      85.818  63.421  77.556  1.00  0.00     0.001 C 
BRANCH   2   3
ATOM      3  C   UNL     1      84.903  63.332  78.813  1.00  0.00     0.000 C 
BRANCH   3   4
ATOM      4  C   UNL     1      85.684  63.160  80.146  1.00  0.00    -0.000 C 
BRANCH   4   5
ATOM      5  C   UNL     1      85.068  63.983  81.313  1.00  0.00    -0.000 C 
BRANCH   5   6
ATOM      6  C   UNL     1      85.936  65.210  81.700  1.00  0.00    -0.003 C 
ATOM      7  C   UNL     1      85.940  65.487  83.220  1.00  0.00     0.004 C 
ENDBRANCH   5   6
ENDBRANCH   4   5
ENDBRANCH   3   4
ENDBRANCH   2   3
ENDBRANCH   1   2
BRANCH   1   8
ATOM      8  C   UNL     1      85.315  65.896  76.911  1.00  0.00     0.100 C 
BRANCH   8   9
ATOM      9  C   UNL     1      83.985  66.542  76.797  1.00  0.00     0.220 C 
ATOM     10  O   UNL     1      83.912  67.784  76.952  1.00  0.00    -0.275 OA
ATOM     11  N   UNL     1      82.876  65.801  76.502  1.00  0.00    -0.352 N 
ATOM     12  H   UNL     1      83.033  64.804  76.484  1.00  0.00     0.163 HD
BRANCH  11  13
ATOM     13  C   UNL     1      81.572  66.321  76.229  1.00  0.00     0.151 C 
BRANCH  13  14
ATOM     14  C   UNL     1      81.158  66.189  74.806  1.00  0.00    -0.025 A 
ATOM     15  C   UNL     1      81.468  67.209  73.876  1.00  0.00     0.056 A 
ATOM     16  C   UNL     1      80.447  65.051  74.359  1.00  0.00     0.009 A 
ATOM     17  C   UNL     1      81.096  67.089  72.517  1.00  0.00     0.160 A 
ATOM     18  C   UNL     1      80.075  64.924  73.009  1.00  0.00     0.050 A 
ATOM     19  C   UNL     1      80.390  65.942  72.088  1.00  0.00     0.157 A 
BRANCH  17  20
ATOM     20  O   UNL     1      81.361  68.097  71.625  1.00  0.00    -0.493 OA
ATOM     21  C   UNL     1      82.729  68.149  71.184  1.00  0.00     0.278 C 
ENDBRANCH  17  20
BRANCH  19  22
ATOM     22  O   UNL     1      80.002  65.824  70.792  1.00  0.00    -0.504 OA
ATOM     23  H   UNL     1      80.123  66.664  70.344  1.00  0.00     0.293 HD
ENDBRANCH  19  22
ENDBRANCH  13  14
ENDBRANCH  11  13
ENDBRANCH   8   9
ENDBRANCH   1   8
TORSDOF 11
ENDMDL
MODEL 10
REMARK VINA RESULT:    -5.239     25.404     27.939
REMARK INTER + INTRA:          -9.331
REMARK INTER:                  -7.640
REMARK INTRA:                  -1.690
REMARK UNBOUND:                -0.876
REMARK SMILES CCCCCCCCC(=O)NCc1ccc(O)c(OC)c1
REMARK SMILES IDX 7 1 6 2 5 3 4 4 3 5 2 6 1 7 8 8 9 9 10 10 11 11 12 13 13 14
REMARK SMILES IDX 21 15 14 16 18 17 15 18 16 19 19 20 20 21 17 22
REMARK H PARENT 11 12 17 23
REMARK Flexibility Score: inf
ROOT
ATOM      1  C   UNL     1      81.599  66.374  70.823  1.00  0.00     0.010 C 
ENDROOT
BRANCH   1   2
ATOM      2  C   UNL     1      80.161  66.189  71.388  1.00  0.00     0.001 C 
BRANCH   2   3
ATOM      3  C   UNL     1      80.134  65.252  72.632  1.00  0.00     0.000 C 
BRANCH   3   4
ATOM      4  C   UNL     1      80.988  65.767  73.824  1.00  0.00    -0.000 C 
BRANCH   4   5
ATOM      5  C   UNL     1      81.651  64.615  74.631  1.00  0.00    -0.000 C 
BRANCH   5   6
ATOM      6  C   UNL     1      81.751  64.929  76.148  1.00  0.00    -0.003 C 
ATOM      7  C   UNL     1      81.590  66.433  76.461  1.00  0.00     0.004 C 
ENDBRANCH   5   6
ENDBRANCH   4   5
ENDBRANCH   3   4
ENDBRANCH   2   3
ENDBRANCH   1   2
BRANCH   1   8
ATOM      8  C   UNL     1      82.158  67.815  70.984  1.00  0.00     0.100 C 
BRANCH   8   9
ATOM      9  C   UNL     1      83.466  67.811  71.682  1.00  0.00     0.220 C 
ATOM     10  O   UNL     1      84.470  67.381  71.064  1.00  0.00    -0.275 OA
ATOM     11  N   UNL     1      83.575  68.292  72.956  1.00  0.00    -0.352 N 
ATOM     12  H   UNL     1      82.695  68.531  73.388  1.00  0.00     0.163 HD
BRANCH  11  13
ATOM     13  C   UNL     1      84.796  68.472  73.680  1.00  0.00     0.151 C 
BRANCH  13  14
ATOM     14  C   UNL     1      84.932  67.577  74.860  1.00  0.00    -0.025 A 
ATOM     15  C   UNL     1      85.091  66.182  74.682  1.00  0.00     0.056 A 
ATOM     16  C   UNL     1      84.902  68.098  76.174  1.00  0.00     0.009 A 
ATOM     17  C   UNL     1      85.240  65.321  75.793  1.00  0.00     0.160 A 
ATOM     18  C   UNL     1      85.050  67.247  77.284  1.00  0.00     0.050 A 
ATOM     19  C   UNL     1      85.211  65.860  77.099  1.00  0.00     0.157 A 
BRANCH  17  20
ATOM     20  O   UNL     1      85.351  63.964  75.620  1.00  0.00    -0.493 OA
ATOM     21  C   UNL     1      86.663  63.528  75.221  1.00  0.00     0.278 C 
ENDBRANCH  17  20
BRANCH  19  22
ATOM     22  O   UNL     1      85.325  65.044  78.178  1.00  0.00    -0.504 OA
ATOM     23  H   UNL     1      85.380  65.574  78.976  1.00  0.00     0.293 HD
ENDBRANCH  19  22
ENDBRANCH  13  14
ENDBRANCH  11  13
ENDBRANCH   8   9
ENDBRANCH   1   8
TORSDOF 11
ENDMDL
