MODEL 1
REMARK VINA RESULT:    -6.570      0.000      0.000
REMARK INTER + INTRA:         -10.986
REMARK INTER:                 -10.219
REMARK INTRA:                  -0.768
REMARK UNBOUND:                -0.768
REMARK SMILES COc1cc(CNC(=O)CCCC/C=C/C(C)C)ccc1O
REMARK SMILES IDX 10 1 8 2 7 3 9 5 6 6 5 7 3 8 21 9 4 10 20 11 19 12 2 13 1 14
REMARK SMILES IDX 22 15 11 17 12 18 13 19 14 20 15 21 16 22 17 23 18 24
REMARK H PARENT 7 4 22 16
REMARK Flexibility Score: inf
ROOT
ATOM      1  C   UNL     1      92.938  99.238  75.055  1.00  0.00     0.100 C 
ENDROOT
BRANCH   1   2
ATOM      2  C   UNL     1      92.654 100.084  73.879  1.00  0.00     0.220 C 
ATOM      3  N   UNL     1      91.839  99.634  72.884  1.00  0.00    -0.352 N 
ATOM      4  H   UNL     1      91.485  98.697  73.014  1.00  0.00     0.163 HD
ATOM      5  O   UNL     1      93.164 101.230  73.837  1.00  0.00    -0.275 OA
BRANCH   3   6
ATOM      6  C   UNL     1      91.478 100.385  71.724  1.00  0.00     0.151 C 
BRANCH   6   7
ATOM      7  C   UNL     1      90.504  99.645  70.876  1.00  0.00    -0.025 A 
ATOM      8  C   UNL     1      88.991  99.579  68.935  1.00  0.00     0.160 A 
ATOM      9  C   UNL     1      88.659  98.243  69.238  1.00  0.00     0.157 A 
ATOM     10  C   UNL     1      89.908 100.268  69.757  1.00  0.00     0.056 A 
ATOM     11  C   UNL     1      89.230  97.615  70.362  1.00  0.00     0.050 A 
ATOM     12  C   UNL     1      90.153  98.306  71.170  1.00  0.00     0.009 A 
BRANCH   8  13
ATOM     13  O   UNL     1      88.388 100.216  67.880  1.00  0.00    -0.493 OA
ATOM     14  C   UNL     1      88.716 101.614  67.773  1.00  0.00     0.278 C 
ENDBRANCH   8  13
BRANCH   9  15
ATOM     15  O   UNL     1      87.791  97.547  68.459  1.00  0.00    -0.504 OA
ATOM     16  H   UNL     1      87.740  97.955  67.591  1.00  0.00     0.293 HD
ENDBRANCH   9  15
ENDBRANCH   6   7
ENDBRANCH   3   6
ENDBRANCH   1   2
BRANCH   1  17
ATOM     17  C   UNL     1      94.450  99.233  75.405  1.00  0.00     0.010 C 
BRANCH  17  18
ATOM     18  C   UNL     1      94.878  97.980  76.220  1.00  0.00     0.005 C 
BRANCH  18  19
ATOM     19  C   UNL     1      94.634  96.658  75.443  1.00  0.00     0.027 C 
BRANCH  19  20
ATOM     20  C   UNL     1      93.817  95.722  76.200  1.00  0.00    -0.031 C 
ATOM     21  C   UNL     1      92.557  95.971  76.601  1.00  0.00    -0.028 C 
BRANCH  21  22
ATOM     22  C   UNL     1      91.747  95.006  77.344  1.00  0.00     0.005 C 
ATOM     23  C   UNL     1      92.397  94.610  78.699  1.00  0.00     0.012 C 
ATOM     24  C   UNL     1      90.315  95.562  77.559  1.00  0.00     0.012 C 
ENDBRANCH  21  22
ENDBRANCH  19  20
ENDBRANCH  18  19
ENDBRANCH  17  18
ENDBRANCH   1  17
TORSDOF 10
ENDMDL
MODEL 2
REMARK VINA RESULT:    -6.157      1.250      2.400
REMARK INTER + INTRA:         -10.344
REMARK INTER:                  -9.613
REMARK INTRA:                  -0.731
REMARK UNBOUND:                -0.768
REMARK SMILES COc1cc(CNC(=O)CCCC/C=C/C(C)C)ccc1O
REMARK SMILES IDX 10 1 8 2 7 3 9 5 6 6 5 7 3 8 21 9 4 10 20 11 19 12 2 13 1 14
REMARK SMILES IDX 22 15 11 17 12 18 13 19 14 20 15 21 16 22 17 23 18 24
REMARK H PARENT 7 4 22 16
REMARK Flexibility Score: inf
ROOT
ATOM      1  C   UNL     1      93.802  99.926  72.845  1.00  0.00     0.100 C 
ENDROOT
BRANCH   1   2
ATOM      2  C   UNL     1      92.746 100.792  72.287  1.00  0.00     0.220 C 
ATOM      3  N   UNL     1      92.443 100.745  70.959  1.00  0.00    -0.352 N 
ATOM      4  H   UNL     1      93.005 100.105  70.416  1.00  0.00     0.163 HD
ATOM      5  O   UNL     1      92.125 101.549  73.072  1.00  0.00    -0.275 OA
BRANCH   3   6
ATOM      6  C   UNL     1      91.419 101.516  70.329  1.00  0.00     0.151 C 
BRANCH   6   7
ATOM      7  C   UNL     1      90.443 100.649  69.615  1.00  0.00    -0.025 A 
ATOM      8  C   UNL     1      89.078  98.601  69.532  1.00  0.00     0.160 A 
ATOM      9  C   UNL     1      88.567  98.992  68.277  1.00  0.00     0.157 A 
ATOM     10  C   UNL     1      90.012  99.431  70.187  1.00  0.00     0.056 A 
ATOM     11  C   UNL     1      89.002 100.194  67.685  1.00  0.00     0.050 A 
ATOM     12  C   UNL     1      89.926 101.022  68.352  1.00  0.00     0.009 A 
BRANCH   8  13
ATOM     13  O   UNL     1      88.707  97.400  70.082  1.00  0.00    -0.493 OA
ATOM     14  C   UNL     1      89.744  96.402  70.065  1.00  0.00     0.278 C 
ENDBRANCH   8  13
BRANCH   9  15
ATOM     15  O   UNL     1      87.657  98.223  67.626  1.00  0.00    -0.504 OA
ATOM     16  H   UNL     1      87.628  98.474  66.700  1.00  0.00     0.293 HD
ENDBRANCH   9  15
ENDBRANCH   6   7
ENDBRANCH   3   6
ENDBRANCH   1   2
BRANCH   1  17
ATOM     17  C   UNL     1      93.817  99.968  74.396  1.00  0.00     0.010 C 
BRANCH  17  18
ATOM     18  C   UNL     1      93.050  98.779  75.040  1.00  0.00     0.005 C 
BRANCH  18  19
ATOM     19  C   UNL     1      93.976  97.567  75.333  1.00  0.00     0.027 C 
BRANCH  19  20
ATOM     20  C   UNL     1      93.446  96.715  76.386  1.00  0.00    -0.031 C 
ATOM     21  C   UNL     1      92.142  96.634  76.709  1.00  0.00    -0.028 C 
BRANCH  21  22
ATOM     22  C   UNL     1      91.629  95.755  77.759  1.00  0.00     0.005 C 
ATOM     23  C   UNL     1      90.136  95.384  77.541  1.00  0.00     0.012 C 
ATOM     24  C   UNL     1      92.506  94.480  77.867  1.00  0.00     0.012 C 
ENDBRANCH  21  22
ENDBRANCH  19  20
ENDBRANCH  18  19
ENDBRANCH  17  18
ENDBRANCH   1  17
TORSDOF 10
ENDMDL
MODEL 3
REMARK VINA RESULT:    -5.904     17.416     19.675
REMARK INTER + INTRA:          -9.950
REMARK INTER:                  -9.324
REMARK INTRA:                  -0.626
REMARK UNBOUND:                -0.768
REMARK SMILES COc1cc(CNC(=O)CCCC/C=C/C(C)C)ccc1O
REMARK SMILES IDX 10 1 8 2 7 3 9 5 6 6 5 7 3 8 21 9 4 10 20 11 19 12 2 13 1 14
REMARK SMILES IDX 22 15 11 17 12 18 13 19 14 20 15 21 16 22 17 23 18 24
REMARK H PARENT 7 4 22 16
REMARK Flexibility Score: inf
ROOT
ATOM      1  C   UNL     1      97.760  82.008  84.267  1.00  0.00     0.100 C 
ENDROOT
BRANCH   1   2
ATOM      2  C   UNL     1      98.774  81.854  83.206  1.00  0.00     0.220 C 
ATOM      3  N   UNL     1      98.917  82.806  82.242  1.00  0.00    -0.352 N 
ATOM      4  H   UNL     1      98.272  83.582  82.310  1.00  0.00     0.163 HD
ATOM      5  O   UNL     1      99.510  80.838  83.234  1.00  0.00    -0.275 OA
BRANCH   3   6
ATOM      6  C   UNL     1      99.887  82.767  81.195  1.00  0.00     0.151 C 
BRANCH   6   7
ATOM      7  C   UNL     1      99.269  83.038  79.868  1.00  0.00    -0.025 A 
ATOM      8  C   UNL     1      99.476  83.229  77.422  1.00  0.00     0.160 A 
ATOM      9  C   UNL     1      98.102  83.533  77.328  1.00  0.00     0.157 A 
ATOM     10  C   UNL     1     100.046  82.987  78.689  1.00  0.00     0.056 A 
ATOM     11  C   UNL     1      97.318  83.606  78.496  1.00  0.00     0.050 A 
ATOM     12  C   UNL     1      97.894  83.351  79.756  1.00  0.00     0.009 A 
BRANCH   8  13
ATOM     13  O   UNL     1     100.257  83.221  76.294  1.00  0.00    -0.493 OA
ATOM     14  C   UNL     1     101.480  83.969  76.422  1.00  0.00     0.278 C 
ENDBRANCH   8  13
BRANCH   9  15
ATOM     15  O   UNL     1      97.520  83.758  76.122  1.00  0.00    -0.504 OA
ATOM     16  H   UNL     1      96.841  83.097  75.965  1.00  0.00     0.293 HD
ENDBRANCH   9  15
ENDBRANCH   6   7
ENDBRANCH   3   6
ENDBRANCH   1   2
BRANCH   1  17
ATOM     17  C   UNL     1      97.621  83.488  84.715  1.00  0.00     0.010 C 
BRANCH  17  18
ATOM     18  C   UNL     1      96.288  83.771  85.463  1.00  0.00     0.005 C 
BRANCH  18  19
ATOM     19  C   UNL     1      95.844  82.578  86.351  1.00  0.00     0.027 C 
BRANCH  19  20
ATOM     20  C   UNL     1      94.408  82.575  86.587  1.00  0.00    -0.031 C 
ATOM     21  C   UNL     1      93.673  81.463  86.769  1.00  0.00    -0.028 C 
BRANCH  21  22
ATOM     22  C   UNL     1      92.233  81.485  87.024  1.00  0.00     0.005 C 
ATOM     23  C   UNL     1      91.420  80.830  85.873  1.00  0.00     0.012 C 
ATOM     24  C   UNL     1      91.919  80.803  88.381  1.00  0.00     0.012 C 
ENDBRANCH  21  22
ENDBRANCH  19  20
ENDBRANCH  18  19
ENDBRANCH  17  18
ENDBRANCH   1  17
TORSDOF 10
ENDMDL
MODEL 4
REMARK VINA RESULT:    -5.688     27.815     30.626
REMARK INTER + INTRA:          -9.614
REMARK INTER:                  -8.698
REMARK INTRA:                  -0.916
REMARK UNBOUND:                -0.768
REMARK SMILES COc1cc(CNC(=O)CCCC/C=C/C(C)C)ccc1O
REMARK SMILES IDX 10 1 8 2 7 3 9 5 6 6 5 7 3 8 21 9 4 10 20 11 19 12 2 13 1 14
REMARK SMILES IDX 22 15 11 17 12 18 13 19 14 20 15 21 16 22 17 23 18 24
REMARK H PARENT 7 4 22 16
REMARK Flexibility Score: inf
ROOT
ATOM      1  C   UNL     1      62.153  81.442  73.684  1.00  0.00     0.100 C 
ENDROOT
BRANCH   1   2
ATOM      2  C   UNL     1      62.184  82.620  74.572  1.00  0.00     0.220 C 
ATOM      3  N   UNL     1      63.010  82.649  75.655  1.00  0.00    -0.352 N 
ATOM      4  H   UNL     1      63.556  81.810  75.798  1.00  0.00     0.163 HD
ATOM      5  O   UNL     1      61.450  83.597  74.285  1.00  0.00    -0.275 OA
BRANCH   3   6
ATOM      6  C   UNL     1      63.137  83.750  76.555  1.00  0.00     0.151 C 
BRANCH   6   7
ATOM      7  C   UNL     1      64.561  84.143  76.740  1.00  0.00    -0.025 A 
ATOM      8  C   UNL     1      66.701  84.903  75.787  1.00  0.00     0.160 A 
ATOM      9  C   UNL     1      67.272  84.913  77.077  1.00  0.00     0.157 A 
ATOM     10  C   UNL     1      65.353  84.516  75.631  1.00  0.00     0.056 A 
ATOM     11  C   UNL     1      66.500  84.524  78.190  1.00  0.00     0.050 A 
ATOM     12  C   UNL     1      65.152  84.151  78.025  1.00  0.00     0.009 A 
BRANCH   8  13
ATOM     13  O   UNL     1      67.467  85.216  74.694  1.00  0.00    -0.493 OA
ATOM     14  C   UNL     1      66.795  86.040  73.723  1.00  0.00     0.278 C 
ENDBRANCH   8  13
BRANCH   9  15
ATOM     15  O   UNL     1      68.562  85.292  77.264  1.00  0.00    -0.504 OA
ATOM     16  H   UNL     1      68.586  86.126  77.739  1.00  0.00     0.293 HD
ENDBRANCH   9  15
ENDBRANCH   6   7
ENDBRANCH   3   6
ENDBRANCH   1   2
BRANCH   1  17
ATOM     17  C   UNL     1      63.574  81.060  73.189  1.00  0.00     0.010 C 
BRANCH  17  18
ATOM     18  C   UNL     1      64.248  82.188  72.358  1.00  0.00     0.005 C 
BRANCH  18  19
ATOM     19  C   UNL     1      65.074  81.631  71.167  1.00  0.00     0.027 C 
BRANCH  19  20
ATOM     20  C   UNL     1      65.894  82.658  70.542  1.00  0.00    -0.031 C 
ATOM     21  C   UNL     1      67.219  82.788  70.733  1.00  0.00    -0.028 C 
BRANCH  21  22
ATOM     22  C   UNL     1      68.028  83.816  70.079  1.00  0.00     0.005 C 
ATOM     23  C   UNL     1      69.496  83.824  70.588  1.00  0.00     0.012 C 
ATOM     24  C   UNL     1      67.977  83.638  68.539  1.00  0.00     0.012 C 
ENDBRANCH  21  22
ENDBRANCH  19  20
ENDBRANCH  18  19
ENDBRANCH  17  18
ENDBRANCH   1  17
TORSDOF 10
ENDMDL
MODEL 5
REMARK VINA RESULT:    -5.565     17.510     21.337
REMARK INTER + INTRA:          -9.423
REMARK INTER:                  -8.286
REMARK INTRA:                  -1.138
REMARK UNBOUND:                -0.768
REMARK SMILES COc1cc(CNC(=O)CCCC/C=C/C(C)C)ccc1O
REMARK SMILES IDX 10 1 8 2 7 3 9 5 6 6 5 7 3 8 21 9 4 10 20 11 19 12 2 13 1 14
REMARK SMILES IDX 22 15 11 17 12 18 13 19 14 20 15 21 16 22 17 23 18 24
REMARK H PARENT 7 4 22 16
REMARK Flexibility Score: inf
ROOT
ATOM      1  C   UNL     1     100.108  79.668  82.213  1.00  0.00     0.100 C 
ENDROOT
BRANCH   1   2
ATOM      2  C   UNL     1      99.595  80.040  83.546  1.00  0.00     0.220 C 
ATOM      3  N   UNL     1      98.264  80.256  83.738  1.00  0.00    -0.352 N 
ATOM      4  H   UNL     1      97.692  80.166  82.909  1.00  0.00     0.163 HD
ATOM      5  O   UNL     1     100.414  80.125  84.492  1.00  0.00    -0.275 OA
BRANCH   3   6
ATOM      6  C   UNL     1      97.664  80.587  84.991  1.00  0.00     0.151 C 
BRANCH   6   7
ATOM      7  C   UNL     1      97.517  82.059  85.155  1.00  0.00    -0.025 A 
ATOM      8  C   UNL     1      97.391  84.037  86.616  1.00  0.00     0.160 A 
ATOM      9  C   UNL     1      97.257  84.866  85.483  1.00  0.00     0.157 A 
ATOM     10  C   UNL     1      97.518  82.643  86.442  1.00  0.00     0.056 A 
ATOM     11  C   UNL     1      97.235  84.297  84.195  1.00  0.00     0.050 A 
ATOM     12  C   UNL     1      97.374  82.905  84.030  1.00  0.00     0.009 A 
BRANCH   8  13
ATOM     13  O   UNL     1      97.347  84.580  87.875  1.00  0.00    -0.493 OA
ATOM     14  C   UNL     1      97.149  83.614  88.924  1.00  0.00     0.278 C 
ENDBRANCH   8  13
BRANCH   9  15
ATOM     15  O   UNL     1      97.146  86.213  85.616  1.00  0.00    -0.504 OA
ATOM     16  H   UNL     1      97.958  86.632  85.321  1.00  0.00     0.293 HD
ENDBRANCH   9  15
ENDBRANCH   6   7
ENDBRANCH   3   6
ENDBRANCH   1   2
BRANCH   1  17
ATOM     17  C   UNL     1      99.729  80.724  81.139  1.00  0.00     0.010 C 
BRANCH  17  18
ATOM     18  C   UNL     1     100.012  82.182  81.598  1.00  0.00     0.005 C 
BRANCH  18  19
ATOM     19  C   UNL     1      99.019  83.200  80.976  1.00  0.00     0.027 C 
BRANCH  19  20
ATOM     20  C   UNL     1      98.556  82.780  79.662  1.00  0.00    -0.031 C 
ATOM     21  C   UNL     1      98.440  83.602  78.603  1.00  0.00    -0.028 C 
BRANCH  21  22
ATOM     22  C   UNL     1      97.991  83.154  77.285  1.00  0.00     0.005 C 
ATOM     23  C   UNL     1      98.188  84.242  76.194  1.00  0.00     0.012 C 
ATOM     24  C   UNL     1      98.712  81.839  76.892  1.00  0.00     0.012 C 
ENDBRANCH  21  22
ENDBRANCH  19  20
ENDBRANCH  18  19
ENDBRANCH  17  18
ENDBRANCH   1  17
TORSDOF 10
ENDMDL
MODEL 6
REMARK VINA RESULT:    -5.504     28.489     31.224
REMARK INTER + INTRA:          -9.328
REMARK INTER:                  -8.487
REMARK INTRA:                  -0.841
REMARK UNBOUND:                -0.768
REMARK SMILES COc1cc(CNC(=O)CCCC/C=C/C(C)C)ccc1O
REMARK SMILES IDX 10 1 8 2 7 3 9 5 6 6 5 7 3 8 21 9 4 10 20 11 19 12 2 13 1 14
REMARK SMILES IDX 22 15 11 17 12 18 13 19 14 20 15 21 16 22 17 23 18 24
REMARK H PARENT 7 4 22 16
REMARK Flexibility Score: inf
ROOT
ATOM      1  C   UNL     1      63.207  81.885  73.287  1.00  0.00     0.100 C 
ENDROOT
BRANCH   1   2
ATOM      2  C   UNL     1      63.651  82.742  72.171  1.00  0.00     0.220 C 
ATOM      3  N   UNL     1      64.977  82.886  71.895  1.00  0.00    -0.352 N 
ATOM      4  H   UNL     1      65.599  82.390  72.518  1.00  0.00     0.163 HD
ATOM      5  O   UNL     1      62.774  83.310  71.475  1.00  0.00    -0.275 OA
BRANCH   3   6
ATOM      6  C   UNL     1      65.507  83.664  70.821  1.00  0.00     0.151 C 
BRANCH   6   7
ATOM      7  C   UNL     1      66.995  83.694  70.850  1.00  0.00    -0.025 A 
ATOM      8  C   UNL     1      69.157  83.088  69.839  1.00  0.00     0.160 A 
ATOM      9  C   UNL     1      69.832  83.759  70.880  1.00  0.00     0.157 A 
ATOM     10  C   UNL     1      67.746  83.060  69.835  1.00  0.00     0.056 A 
ATOM     11  C   UNL     1      69.097  84.379  71.909  1.00  0.00     0.050 A 
ATOM     12  C   UNL     1      67.688  84.356  71.890  1.00  0.00     0.009 A 
BRANCH   8  13
ATOM     13  O   UNL     1      69.869  82.426  68.871  1.00  0.00    -0.493 OA
ATOM     14  C   UNL     1      69.761  83.011  67.560  1.00  0.00     0.278 C 
ENDBRANCH   8  13
BRANCH   9  15
ATOM     15  O   UNL     1      71.189  83.816  70.906  1.00  0.00    -0.504 OA
ATOM     16  H   UNL     1      71.474  84.724  70.785  1.00  0.00     0.293 HD
ENDBRANCH   9  15
ENDBRANCH   6   7
ENDBRANCH   3   6
ENDBRANCH   1   2
BRANCH   1  17
ATOM     17  C   UNL     1      61.788  82.277  73.780  1.00  0.00     0.010 C 
BRANCH  17  18
ATOM     18  C   UNL     1      61.816  83.228  75.010  1.00  0.00     0.005 C 
BRANCH  18  19
ATOM     19  C   UNL     1      61.053  84.555  74.748  1.00  0.00     0.027 C 
BRANCH  19  20
ATOM     20  C   UNL     1      60.323  84.527  73.490  1.00  0.00    -0.031 C 
ATOM     21  C   UNL     1      60.170  85.592  72.682  1.00  0.00    -0.028 C 
BRANCH  21  22
ATOM     22  C   UNL     1      59.448  85.537  71.411  1.00  0.00     0.005 C 
ATOM     23  C   UNL     1      58.350  84.438  71.404  1.00  0.00     0.012 C 
ATOM     24  C   UNL     1      58.843  86.925  71.077  1.00  0.00     0.012 C 
ENDBRANCH  21  22
ENDBRANCH  19  20
ENDBRANCH  18  19
ENDBRANCH  17  18
ENDBRANCH   1  17
TORSDOF 10
ENDMDL
MODEL 7
REMARK VINA RESULT:    -5.463     30.427     32.568
REMARK INTER + INTRA:          -9.264
REMARK INTER:                  -7.814
REMARK INTRA:                  -1.451
REMARK UNBOUND:                -0.768
REMARK SMILES COc1cc(CNC(=O)CCCC/C=C/C(C)C)ccc1O
REMARK SMILES IDX 10 1 8 2 7 3 9 5 6 6 5 7 3 8 21 9 4 10 20 11 19 12 2 13 1 14
REMARK SMILES IDX 22 15 11 17 12 18 13 19 14 20 15 21 16 22 17 23 18 24
REMARK H PARENT 7 4 22 16
REMARK Flexibility Score: inf
ROOT
ATOM      1  C   UNL     1      63.177  83.882  76.365  1.00  0.00     0.100 C 
ENDROOT
BRANCH   1   2
ATOM      2  C   UNL     1      62.508  84.907  75.541  1.00  0.00     0.220 C 
ATOM      3  N   UNL     1      63.215  85.635  74.632  1.00  0.00    -0.352 N 
ATOM      4  H   UNL     1      64.204  85.428  74.598  1.00  0.00     0.163 HD
ATOM      5  O   UNL     1      61.272  85.070  75.687  1.00  0.00    -0.275 OA
BRANCH   3   6
ATOM      6  C   UNL     1      62.657  86.625  73.768  1.00  0.00     0.151 C 
BRANCH   6   7
ATOM      7  C   UNL     1      61.827  86.009  72.697  1.00  0.00    -0.025 A 
ATOM      8  C   UNL     1      59.750  85.964  71.375  1.00  0.00     0.160 A 
ATOM      9  C   UNL     1      60.239  84.860  70.644  1.00  0.00     0.157 A 
ATOM     10  C   UNL     1      60.547  86.526  72.394  1.00  0.00     0.056 A 
ATOM     11  C   UNL     1      61.505  84.322  70.948  1.00  0.00     0.050 A 
ATOM     12  C   UNL     1      62.298  84.898  71.960  1.00  0.00     0.009 A 
BRANCH   8  13
ATOM     13  O   UNL     1      58.492  86.449  71.127  1.00  0.00    -0.493 OA
ATOM     14  C   UNL     1      58.473  87.783  70.586  1.00  0.00     0.278 C 
ENDBRANCH   8  13
BRANCH   9  15
ATOM     15  O   UNL     1      59.502  84.304  69.648  1.00  0.00    -0.504 OA
ATOM     16  H   UNL     1      60.085  84.012  68.943  1.00  0.00     0.293 HD
ENDBRANCH   9  15
ENDBRANCH   6   7
ENDBRANCH   3   6
ENDBRANCH   1   2
BRANCH   1  17
ATOM     17  C   UNL     1      63.887  82.817  75.487  1.00  0.00     0.010 C 
BRANCH  17  18
ATOM     18  C   UNL     1      62.904  82.032  74.573  1.00  0.00     0.005 C 
BRANCH  18  19
ATOM     19  C   UNL     1      63.642  81.126  73.551  1.00  0.00     0.027 C 
BRANCH  19  20
ATOM     20  C   UNL     1      63.698  81.727  72.227  1.00  0.00    -0.031 C 
ATOM     21  C   UNL     1      64.839  82.048  71.590  1.00  0.00    -0.028 C 
BRANCH  21  22
ATOM     22  C   UNL     1      64.872  82.634  70.250  1.00  0.00     0.005 C 
ATOM     23  C   UNL     1      66.303  83.073  69.835  1.00  0.00     0.012 C 
ATOM     24  C   UNL     1      64.276  81.643  69.217  1.00  0.00     0.012 C 
ENDBRANCH  21  22
ENDBRANCH  19  20
ENDBRANCH  18  19
ENDBRANCH  17  18
ENDBRANCH   1  17
TORSDOF 10
ENDMDL
MODEL 8
REMARK VINA RESULT:    -5.407     17.619     19.635
REMARK INTER + INTRA:          -9.177
REMARK INTER:                  -8.494
REMARK INTRA:                  -0.683
REMARK UNBOUND:                -0.768
REMARK SMILES COc1cc(CNC(=O)CCCC/C=C/C(C)C)ccc1O
REMARK SMILES IDX 10 1 8 2 7 3 9 5 6 6 5 7 3 8 21 9 4 10 20 11 19 12 2 13 1 14
REMARK SMILES IDX 22 15 11 17 12 18 13 19 14 20 15 21 16 22 17 23 18 24
REMARK H PARENT 7 4 22 16
REMARK Flexibility Score: inf
ROOT
ATOM      1  C   UNL     1      98.537  83.555  85.986  1.00  0.00     0.100 C 
ENDROOT
BRANCH   1   2
ATOM      2  C   UNL     1      99.129  82.737  84.910  1.00  0.00     0.220 C 
ATOM      3  N   UNL     1      98.886  83.033  83.603  1.00  0.00    -0.352 N 
ATOM      4  H   UNL     1      98.268  83.818  83.451  1.00  0.00     0.163 HD
ATOM      5  O   UNL     1      99.877  81.783  85.235  1.00  0.00    -0.275 OA
BRANCH   3   6
ATOM      6  C   UNL     1      99.435  82.326  82.490  1.00  0.00     0.151 C 
BRANCH   6   7
ATOM      7  C   UNL     1      98.843  82.785  81.204  1.00  0.00    -0.025 A 
ATOM      8  C   UNL     1      99.050  83.165  78.781  1.00  0.00     0.160 A 
ATOM      9  C   UNL     1      97.723  83.638  78.740  1.00  0.00     0.157 A 
ATOM     10  C   UNL     1      99.598  82.745  80.011  1.00  0.00     0.056 A 
ATOM     11  C   UNL     1      96.964  83.702  79.925  1.00  0.00     0.050 A 
ATOM     12  C   UNL     1      97.515  83.270  81.147  1.00  0.00     0.009 A 
BRANCH   8  13
ATOM     13  O   UNL     1      99.815  83.163  77.642  1.00  0.00    -0.493 OA
ATOM     14  C   UNL     1     101.135  82.619  77.822  1.00  0.00     0.278 C 
ENDBRANCH   8  13
BRANCH   9  15
ATOM     15  O   UNL     1      97.161  84.037  77.570  1.00  0.00    -0.504 OA
ATOM     16  H   UNL     1      97.011  83.273  77.009  1.00  0.00     0.293 HD
ENDBRANCH   9  15
ENDBRANCH   6   7
ENDBRANCH   3   6
ENDBRANCH   1   2
BRANCH   1  17
ATOM     17  C   UNL     1      96.990  83.428  86.017  1.00  0.00     0.010 C 
BRANCH  17  18
ATOM     18  C   UNL     1      96.273  84.583  85.262  1.00  0.00     0.005 C 
BRANCH  18  19
ATOM     19  C   UNL     1      95.879  85.751  86.205  1.00  0.00     0.027 C 
BRANCH  19  20
ATOM     20  C   UNL     1      94.862  85.357  87.168  1.00  0.00    -0.031 C 
ATOM     21  C   UNL     1      94.748  85.879  88.403  1.00  0.00    -0.028 C 
BRANCH  21  22
ATOM     22  C   UNL     1      93.705  85.482  89.348  1.00  0.00     0.005 C 
ATOM     23  C   UNL     1      93.085  84.101  88.996  1.00  0.00     0.012 C 
ATOM     24  C   UNL     1      94.263  85.484  90.795  1.00  0.00     0.012 C 
ENDBRANCH  21  22
ENDBRANCH  19  20
ENDBRANCH  18  19
ENDBRANCH  17  18
ENDBRANCH   1  17
TORSDOF 10
ENDMDL
MODEL 9
REMARK VINA RESULT:    -5.350     18.434     21.927
REMARK INTER + INTRA:          -9.088
REMARK INTER:                  -8.558
REMARK INTRA:                  -0.530
REMARK UNBOUND:                -0.768
REMARK SMILES COc1cc(CNC(=O)CCCC/C=C/C(C)C)ccc1O
REMARK SMILES IDX 10 1 8 2 7 3 9 5 6 6 5 7 3 8 21 9 4 10 20 11 19 12 2 13 1 14
REMARK SMILES IDX 22 15 11 17 12 18 13 19 14 20 15 21 16 22 17 23 18 24
REMARK H PARENT 7 4 22 16
REMARK Flexibility Score: inf
ROOT
ATOM      1  C   UNL     1      96.975  81.900  85.815  1.00  0.00     0.100 C 
ENDROOT
BRANCH   1   2
ATOM      2  C   UNL     1      95.840  82.713  86.290  1.00  0.00     0.220 C 
ATOM      3  N   UNL     1      94.613  82.149  86.471  1.00  0.00    -0.352 N 
ATOM      4  H   UNL     1      94.555  81.168  86.234  1.00  0.00     0.163 HD
ATOM      5  O   UNL     1      96.044  83.925  86.542  1.00  0.00    -0.275 OA
BRANCH   3   6
ATOM      6  C   UNL     1      93.461  82.840  86.955  1.00  0.00     0.151 C 
BRANCH   6   7
ATOM      7  C   UNL     1      92.443  81.896  87.492  1.00  0.00    -0.025 A 
ATOM      8  C   UNL     1      90.146  81.009  87.478  1.00  0.00     0.160 A 
ATOM      9  C   UNL     1      90.494  80.089  88.488  1.00  0.00     0.157 A 
ATOM     10  C   UNL     1      91.121  81.904  86.991  1.00  0.00     0.056 A 
ATOM     11  C   UNL     1      91.802  80.082  89.011  1.00  0.00     0.050 A 
ATOM     12  C   UNL     1      92.773  80.972  88.510  1.00  0.00     0.009 A 
BRANCH   8  13
ATOM     13  O   UNL     1      88.856  81.064  87.013  1.00  0.00    -0.493 OA
ATOM     14  C   UNL     1      88.630  82.092  86.030  1.00  0.00     0.278 C 
ENDBRANCH   8  13
BRANCH   9  15
ATOM     15  O   UNL     1      89.582  79.205  88.970  1.00  0.00    -0.504 OA
ATOM     16  H   UNL     1      89.020  78.902  88.253  1.00  0.00     0.293 HD
ENDBRANCH   9  15
ENDBRANCH   6   7
ENDBRANCH   3   6
ENDBRANCH   1   2
BRANCH   1  17
ATOM     17  C   UNL     1      97.399  82.294  84.374  1.00  0.00     0.010 C 
BRANCH  17  18
ATOM     18  C   UNL     1      98.547  81.406  83.817  1.00  0.00     0.005 C 
BRANCH  18  19
ATOM     19  C   UNL     1      99.474  82.182  82.843  1.00  0.00     0.027 C 
BRANCH  19  20
ATOM     20  C   UNL     1      99.016  82.095  81.465  1.00  0.00    -0.031 C 
ATOM     21  C   UNL     1      98.991  83.132  80.609  1.00  0.00    -0.028 C 
BRANCH  21  22
ATOM     22  C   UNL     1      98.544  83.017  79.221  1.00  0.00     0.005 C 
ATOM     23  C   UNL     1      98.602  81.553  78.703  1.00  0.00     0.012 C 
ATOM     24  C   UNL     1      97.117  83.602  79.066  1.00  0.00     0.012 C 
ENDBRANCH  21  22
ENDBRANCH  19  20
ENDBRANCH  18  19
ENDBRANCH  17  18
ENDBRANCH   1  17
TORSDOF 10
ENDMDL
MODEL 10
REMARK VINA RESULT:    -5.290     19.304     21.805
REMARK INTER + INTRA:          -8.996
REMARK INTER:                  -7.663
REMARK INTRA:                  -1.333
REMARK UNBOUND:                -0.768
REMARK SMILES COc1cc(CNC(=O)CCCC/C=C/C(C)C)ccc1O
REMARK SMILES IDX 10 1 8 2 7 3 9 5 6 6 5 7 3 8 21 9 4 10 20 11 19 12 2 13 1 14
REMARK SMILES IDX 22 15 11 17 12 18 13 19 14 20 15 21 16 22 17 23 18 24
REMARK H PARENT 7 4 22 16
REMARK Flexibility Score: inf
ROOT
ATOM      1  C   UNL     1      74.599  88.631  66.801  1.00  0.00     0.100 C 
ENDROOT
BRANCH   1   2
ATOM      2  C   UNL     1      75.540  87.666  66.199  1.00  0.00     0.220 C 
ATOM      3  N   UNL     1      75.112  86.777  65.260  1.00  0.00    -0.352 N 
ATOM      4  H   UNL     1      74.126  86.826  65.044  1.00  0.00     0.163 HD
ATOM      5  O   UNL     1      76.741  87.706  66.561  1.00  0.00    -0.275 OA
BRANCH   3   6
ATOM      6  C   UNL     1      75.947  85.828  64.596  1.00  0.00     0.151 C 
BRANCH   6   7
ATOM      7  C   UNL     1      75.795  84.466  65.177  1.00  0.00    -0.025 A 
ATOM      8  C   UNL     1      74.351  82.675  66.056  1.00  0.00     0.160 A 
ATOM      9  C   UNL     1      75.486  81.865  66.269  1.00  0.00     0.157 A 
ATOM     10  C   UNL     1      74.517  83.968  65.515  1.00  0.00     0.056 A 
ATOM     11  C   UNL     1      76.768  82.355  65.955  1.00  0.00     0.050 A 
ATOM     12  C   UNL     1      76.922  83.642  65.404  1.00  0.00     0.009 A 
BRANCH   8  13
ATOM     13  O   UNL     1      73.107  82.227  66.421  1.00  0.00    -0.493 OA
ATOM     14  C   UNL     1      72.335  81.689  65.332  1.00  0.00     0.278 C 
ENDBRANCH   8  13
BRANCH   9  15
ATOM     15  O   UNL     1      75.360  80.611  66.776  1.00  0.00    -0.504 OA
ATOM     16  H   UNL     1      75.703  80.592  67.672  1.00  0.00     0.293 HD
ENDBRANCH   9  15
ENDBRANCH   6   7
ENDBRANCH   3   6
ENDBRANCH   1   2
BRANCH   1  17
ATOM     17  C   UNL     1      75.344  89.746  67.582  1.00  0.00     0.010 C 
BRANCH  17  18
ATOM     18  C   UNL     1      74.977  89.776  69.092  1.00  0.00     0.005 C 
BRANCH  18  19
ATOM     19  C   UNL     1      74.637  88.366  69.646  1.00  0.00     0.027 C 
BRANCH  19  20
ATOM     20  C   UNL     1      75.831  87.621  70.016  1.00  0.00    -0.031 C 
ATOM     21  C   UNL     1      76.072  86.349  69.651  1.00  0.00    -0.028 C 
BRANCH  21  22
ATOM     22  C   UNL     1      77.289  85.626  70.018  1.00  0.00     0.005 C 
ATOM     23  C   UNL     1      76.986  84.332  70.824  1.00  0.00     0.012 C 
ATOM     24  C   UNL     1      78.125  85.305  68.752  1.00  0.00     0.012 C 
ENDBRANCH  21  22
ENDBRANCH  19  20
ENDBRANCH  18  19
ENDBRANCH  17  18
ENDBRANCH   1  17
TORSDOF 10
ENDMDL
