MODEL 1
REMARK VINA RESULT:    -6.355      0.000      0.000
REMARK INTER + INTRA:         -10.934
REMARK INTER:                 -10.256
REMARK INTRA:                  -0.678
REMARK UNBOUND:                -0.678
REMARK SMILES COc1cc(CNC(=O)CCCCCCC(C)C)ccc1O
REMARK SMILES IDX 11 1 10 2 8 3 7 4 9 6 6 7 5 8 3 9 21 10 4 11 20 12 19 13
REMARK SMILES IDX 2 14 1 15 22 16 12 18 13 19 14 20 15 21 16 22 17 23 18 24
REMARK H PARENT 7 5 22 17
REMARK Flexibility Score: inf
ROOT
ATOM      1  C   UNL     1      91.521  95.846  76.790  1.00  0.00     0.010 C 
ENDROOT
BRANCH   1   2
ATOM      2  C   UNL     1      92.052  94.781  77.789  1.00  0.00     0.100 C 
BRANCH   2   3
ATOM      3  C   UNL     1      93.527  94.777  77.910  1.00  0.00     0.220 C 
ATOM      4  N   UNL     1      94.118  94.886  79.135  1.00  0.00    -0.352 N 
ATOM      5  H   UNL     1      93.475  95.010  79.903  1.00  0.00     0.163 HD
ATOM      6  O   UNL     1      94.216  94.648  76.869  1.00  0.00    -0.275 OA
BRANCH   4   7
ATOM      7  C   UNL     1      95.527  94.837  79.380  1.00  0.00     0.151 C 
BRANCH   7   8
ATOM      8  C   UNL     1      96.088  96.134  79.847  1.00  0.00    -0.025 A 
ATOM      9  C   UNL     1      97.788  97.390  81.105  1.00  0.00     0.160 A 
ATOM     10  C   UNL     1      97.188  98.605  80.706  1.00  0.00     0.157 A 
ATOM     11  C   UNL     1      97.223  96.166  80.689  1.00  0.00     0.056 A 
ATOM     12  C   UNL     1      96.035  98.585  79.901  1.00  0.00     0.050 A 
ATOM     13  C   UNL     1      95.494  97.360  79.465  1.00  0.00     0.009 A 
BRANCH   9  14
ATOM     14  O   UNL     1      98.886  97.397  81.921  1.00  0.00    -0.493 OA
ATOM     15  C   UNL     1      99.092  96.160  82.627  1.00  0.00     0.278 C 
ENDBRANCH   9  14
BRANCH  10  16
ATOM     16  O   UNL     1      97.710  99.799  81.093  1.00  0.00    -0.504 OA
ATOM     17  H   UNL     1      98.269 100.145  80.394  1.00  0.00     0.293 HD
ENDBRANCH  10  16
ENDBRANCH   7   8
ENDBRANCH   4   7
ENDBRANCH   2   3
ENDBRANCH   1   2
BRANCH   1  18
ATOM     18  C   UNL     1      90.935  95.201  75.501  1.00  0.00     0.001 C 
BRANCH  18  19
ATOM     19  C   UNL     1      90.175  93.869  75.757  1.00  0.00     0.000 C 
BRANCH  19  20
ATOM     20  C   UNL     1      90.220  92.937  74.514  1.00  0.00     0.000 C 
BRANCH  20  21
ATOM     21  C   UNL     1      90.586  91.462  74.837  1.00  0.00     0.003 C 
BRANCH  21  22
ATOM     22  C   UNL     1      89.359  90.503  74.977  1.00  0.00    -0.017 C 
ATOM     23  C   UNL     1      89.831  89.024  75.060  1.00  0.00     0.007 C 
ATOM     24  C   UNL     1      88.299  90.675  73.849  1.00  0.00     0.007 C 
ENDBRANCH  21  22
ENDBRANCH  20  21
ENDBRANCH  19  20
ENDBRANCH  18  19
ENDBRANCH   1  18
TORSDOF 11
ENDMDL
MODEL 2
REMARK VINA RESULT:    -6.339      5.301      8.642
REMARK INTER + INTRA:         -10.909
REMARK INTER:                 -10.066
REMARK INTRA:                  -0.842
REMARK UNBOUND:                -0.678
REMARK SMILES COc1cc(CNC(=O)CCCCCCC(C)C)ccc1O
REMARK SMILES IDX 11 1 10 2 8 3 7 4 9 6 6 7 5 8 3 9 21 10 4 11 20 12 19 13
REMARK SMILES IDX 2 14 1 15 22 16 12 18 13 19 14 20 15 21 16 22 17 23 18 24
REMARK H PARENT 7 5 22 17
REMARK Flexibility Score: inf
ROOT
ATOM      1  C   UNL     1      93.677  99.464  72.207  1.00  0.00     0.010 C 
ENDROOT
BRANCH   1   2
ATOM      2  C   UNL     1      94.493  98.171  71.929  1.00  0.00     0.100 C 
BRANCH   2   3
ATOM      3  C   UNL     1      94.919  97.472  73.162  1.00  0.00     0.220 C 
ATOM      4  N   UNL     1      93.990  96.949  74.014  1.00  0.00    -0.352 N 
ATOM      5  H   UNL     1      93.031  97.123  73.749  1.00  0.00     0.163 HD
ATOM      6  O   UNL     1      96.147  97.351  73.392  1.00  0.00    -0.275 OA
BRANCH   4   7
ATOM      7  C   UNL     1      94.283  96.206  75.201  1.00  0.00     0.151 C 
BRANCH   7   8
ATOM      8  C   UNL     1      93.074  95.615  75.837  1.00  0.00    -0.025 A 
ATOM      9  C   UNL     1      90.802  94.692  75.645  1.00  0.00     0.160 A 
ATOM     10  C   UNL     1      90.782  94.447  77.035  1.00  0.00     0.157 A 
ATOM     11  C   UNL     1      91.939  95.290  75.060  1.00  0.00     0.056 A 
ATOM     12  C   UNL     1      91.890  94.802  77.825  1.00  0.00     0.050 A 
ATOM     13  C   UNL     1      93.033  95.372  77.230  1.00  0.00     0.009 A 
BRANCH   9  14
ATOM     14  O   UNL     1      89.714  94.387  74.873  1.00  0.00    -0.493 OA
ATOM     15  C   UNL     1      89.858  93.166  74.125  1.00  0.00     0.278 C 
ENDBRANCH   9  14
BRANCH  10  16
ATOM     16  O   UNL     1      89.700  93.874  77.625  1.00  0.00    -0.504 OA
ATOM     17  H   UNL     1      88.914  94.069  77.110  1.00  0.00     0.293 HD
ENDBRANCH  10  16
ENDBRANCH   7   8
ENDBRANCH   4   7
ENDBRANCH   2   3
ENDBRANCH   1   2
BRANCH   1  18
ATOM     18  C   UNL     1      92.329  99.485  71.431  1.00  0.00     0.001 C 
BRANCH  18  19
ATOM     19  C   UNL     1      92.325 100.445  70.208  1.00  0.00     0.000 C 
BRANCH  19  20
ATOM     20  C   UNL     1      90.913 100.545  69.565  1.00  0.00     0.000 C 
BRANCH  20  21
ATOM     21  C   UNL     1      89.784  99.875  70.397  1.00  0.00     0.003 C 
BRANCH  21  22
ATOM     22  C   UNL     1      88.778 100.877  71.052  1.00  0.00    -0.017 C 
ATOM     23  C   UNL     1      88.055 101.714  69.960  1.00  0.00     0.007 C 
ATOM     24  C   UNL     1      89.428 101.812  72.114  1.00  0.00     0.007 C 
ENDBRANCH  21  22
ENDBRANCH  20  21
ENDBRANCH  19  20
ENDBRANCH  18  19
ENDBRANCH   1  18
TORSDOF 11
ENDMDL
MODEL 3
REMARK VINA RESULT:    -6.090      1.353      2.241
REMARK INTER + INTRA:         -10.507
REMARK INTER:                  -9.872
REMARK INTRA:                  -0.635
REMARK UNBOUND:                -0.678
REMARK SMILES COc1cc(CNC(=O)CCCCCCC(C)C)ccc1O
REMARK SMILES IDX 11 1 10 2 8 3 7 4 9 6 6 7 5 8 3 9 21 10 4 11 20 12 19 13
REMARK SMILES IDX 2 14 1 15 22 16 12 18 13 19 14 20 15 21 16 22 17 23 18 24
REMARK H PARENT 7 5 22 17
REMARK Flexibility Score: inf
ROOT
ATOM      1  C   UNL     1      92.178  95.088  76.490  1.00  0.00     0.010 C 
ENDROOT
BRANCH   1   2
ATOM      2  C   UNL     1      92.733  95.263  77.931  1.00  0.00     0.100 C 
BRANCH   2   3
ATOM      3  C   UNL     1      94.210  95.340  77.984  1.00  0.00     0.220 C 
ATOM      4  N   UNL     1      94.830  96.536  78.203  1.00  0.00    -0.352 N 
ATOM      5  H   UNL     1      94.207  97.327  78.274  1.00  0.00     0.163 HD
ATOM      6  O   UNL     1      94.873  94.283  77.848  1.00  0.00    -0.275 OA
BRANCH   4   7
ATOM      7  C   UNL     1      96.244  96.722  78.331  1.00  0.00     0.151 C 
BRANCH   7   8
ATOM      8  C   UNL     1      96.681  96.944  79.737  1.00  0.00    -0.025 A 
ATOM      9  C   UNL     1      96.679  98.319  81.775  1.00  0.00     0.160 A 
ATOM     10  C   UNL     1      97.473  97.353  82.431  1.00  0.00     0.157 A 
ATOM     11  C   UNL     1      96.305  98.117  80.430  1.00  0.00     0.056 A 
ATOM     12  C   UNL     1      97.886  96.200  81.739  1.00  0.00     0.050 A 
ATOM     13  C   UNL     1      97.485  95.990  80.405  1.00  0.00     0.009 A 
BRANCH   9  14
ATOM     14  O   UNL     1      96.305  99.463  82.427  1.00  0.00    -0.493 OA
ATOM     15  C   UNL     1      95.025  99.974  82.012  1.00  0.00     0.278 C 
ENDBRANCH   9  14
BRANCH  10  16
ATOM     16  O   UNL     1      97.850  97.523  83.725  1.00  0.00    -0.504 OA
ATOM     17  H   UNL     1      97.402  96.876  84.276  1.00  0.00     0.293 HD
ENDBRANCH  10  16
ENDBRANCH   7   8
ENDBRANCH   4   7
ENDBRANCH   2   3
ENDBRANCH   1   2
BRANCH   1  18
ATOM     18  C   UNL     1      90.635  95.271  76.429  1.00  0.00     0.001 C 
BRANCH  18  19
ATOM     19  C   UNL     1      89.837  94.016  76.884  1.00  0.00     0.000 C 
BRANCH  19  20
ATOM     20  C   UNL     1      90.444  92.709  76.298  1.00  0.00     0.000 C 
BRANCH  20  21
ATOM     21  C   UNL     1      89.981  92.385  74.851  1.00  0.00     0.003 C 
BRANCH  21  22
ATOM     22  C   UNL     1      89.553  90.898  74.624  1.00  0.00    -0.017 C 
ATOM     23  C   UNL     1      90.721  90.086  73.996  1.00  0.00     0.007 C 
ATOM     24  C   UNL     1      88.261  90.743  73.769  1.00  0.00     0.007 C 
ENDBRANCH  21  22
ENDBRANCH  20  21
ENDBRANCH  19  20
ENDBRANCH  18  19
ENDBRANCH   1  18
TORSDOF 11
ENDMDL
MODEL 4
REMARK VINA RESULT:    -6.086     16.536     19.008
REMARK INTER + INTRA:         -10.501
REMARK INTER:                  -9.756
REMARK INTRA:                  -0.744
REMARK UNBOUND:                -0.678
REMARK SMILES COc1cc(CNC(=O)CCCCCCC(C)C)ccc1O
REMARK SMILES IDX 11 1 10 2 8 3 7 4 9 6 6 7 5 8 3 9 21 10 4 11 20 12 19 13
REMARK SMILES IDX 2 14 1 15 22 16 12 18 13 19 14 20 15 21 16 22 17 23 18 24
REMARK H PARENT 7 5 22 17
REMARK Flexibility Score: inf
ROOT
ATOM      1  C   UNL     1      92.184  74.482  80.763  1.00  0.00     0.010 C 
ENDROOT
BRANCH   1   2
ATOM      2  C   UNL     1      90.864  74.452  81.582  1.00  0.00     0.100 C 
BRANCH   2   3
ATOM      3  C   UNL     1      90.927  75.259  82.821  1.00  0.00     0.220 C 
ATOM      4  N   UNL     1      89.793  75.814  83.340  1.00  0.00    -0.352 N 
ATOM      5  H   UNL     1      88.960  75.661  82.791  1.00  0.00     0.163 HD
ATOM      6  O   UNL     1      92.036  75.398  83.393  1.00  0.00    -0.275 OA
BRANCH   4   7
ATOM      7  C   UNL     1      89.723  76.561  84.559  1.00  0.00     0.151 C 
BRANCH   7   8
ATOM      8  C   UNL     1      89.774  78.034  84.348  1.00  0.00    -0.025 A 
ATOM      9  C   UNL     1      88.619  80.191  84.099  1.00  0.00     0.160 A 
ATOM     10  C   UNL     1      89.864  80.848  83.990  1.00  0.00     0.157 A 
ATOM     11  C   UNL     1      88.583  78.790  84.258  1.00  0.00     0.056 A 
ATOM     12  C   UNL     1      91.056  80.102  84.039  1.00  0.00     0.050 A 
ATOM     13  C   UNL     1      91.013  78.707  84.228  1.00  0.00     0.009 A 
BRANCH   9  14
ATOM     14  O   UNL     1      87.453  80.902  84.013  1.00  0.00    -0.493 OA
ATOM     15  C   UNL     1      86.912  80.970  82.681  1.00  0.00     0.278 C 
ENDBRANCH   9  14
BRANCH  10  16
ATOM     16  O   UNL     1      89.929  82.196  83.835  1.00  0.00    -0.504 OA
ATOM     17  H   UNL     1      90.465  82.404  83.066  1.00  0.00     0.293 HD
ENDBRANCH  10  16
ENDBRANCH   7   8
ENDBRANCH   4   7
ENDBRANCH   2   3
ENDBRANCH   1   2
BRANCH   1  18
ATOM     18  C   UNL     1      91.929  74.361  79.234  1.00  0.00     0.001 C 
BRANCH  18  19
ATOM     19  C   UNL     1      90.661  75.119  78.748  1.00  0.00     0.000 C 
BRANCH  19  20
ATOM     20  C   UNL     1      91.002  76.152  77.638  1.00  0.00     0.000 C 
BRANCH  20  21
ATOM     21  C   UNL     1      89.962  76.214  76.485  1.00  0.00     0.003 C 
BRANCH  21  22
ATOM     22  C   UNL     1      90.549  75.934  75.063  1.00  0.00    -0.017 C 
ATOM     23  C   UNL     1      91.818  75.041  75.165  1.00  0.00     0.007 C 
ATOM     24  C   UNL     1      90.854  77.225  74.247  1.00  0.00     0.007 C 
ENDBRANCH  21  22
ENDBRANCH  20  21
ENDBRANCH  19  20
ENDBRANCH  18  19
ENDBRANCH   1  18
TORSDOF 11
ENDMDL
MODEL 5
REMARK VINA RESULT:    -5.840      5.336      9.020
REMARK INTER + INTRA:         -10.104
REMARK INTER:                  -9.270
REMARK INTRA:                  -0.834
REMARK UNBOUND:                -0.678
REMARK SMILES COc1cc(CNC(=O)CCCCCCC(C)C)ccc1O
REMARK SMILES IDX 11 1 10 2 8 3 7 4 9 6 6 7 5 8 3 9 21 10 4 11 20 12 19 13
REMARK SMILES IDX 2 14 1 15 22 16 12 18 13 19 14 20 15 21 16 22 17 23 18 24
REMARK H PARENT 7 5 22 17
REMARK Flexibility Score: inf
ROOT
ATOM      1  C   UNL     1      94.097 100.343  73.172  1.00  0.00     0.010 C 
ENDROOT
BRANCH   1   2
ATOM      2  C   UNL     1      93.822  99.131  72.239  1.00  0.00     0.100 C 
BRANCH   2   3
ATOM      3  C   UNL     1      94.291  97.844  72.800  1.00  0.00     0.220 C 
ATOM      4  N   UNL     1      93.916  97.460  74.054  1.00  0.00    -0.352 N 
ATOM      5  H   UNL     1      93.351  98.134  74.549  1.00  0.00     0.163 HD
ATOM      6  O   UNL     1      95.019  97.108  72.088  1.00  0.00    -0.275 OA
BRANCH   4   7
ATOM      7  C   UNL     1      94.259  96.217  74.675  1.00  0.00     0.151 C 
BRANCH   7   8
ATOM      8  C   UNL     1      93.158  95.650  75.502  1.00  0.00    -0.025 A 
ATOM      9  C   UNL     1      90.909  94.669  75.670  1.00  0.00     0.160 A 
ATOM     10  C   UNL     1      91.073  94.529  77.065  1.00  0.00     0.157 A 
ATOM     11  C   UNL     1      91.944  95.245  74.903  1.00  0.00     0.056 A 
ATOM     12  C   UNL     1      92.261  94.965  77.679  1.00  0.00     0.050 A 
ATOM     13  C   UNL     1      93.301  95.512  76.903  1.00  0.00     0.009 A 
BRANCH   9  14
ATOM     14  O   UNL     1      89.742  94.285  75.069  1.00  0.00    -0.493 OA
ATOM     15  C   UNL     1      89.905  93.224  74.110  1.00  0.00     0.278 C 
ENDBRANCH   9  14
BRANCH  10  16
ATOM     16  O   UNL     1      90.092  93.979  77.830  1.00  0.00    -0.504 OA
ATOM     17  H   UNL     1      89.978  94.502  78.627  1.00  0.00     0.293 HD
ENDBRANCH  10  16
ENDBRANCH   7   8
ENDBRANCH   4   7
ENDBRANCH   2   3
ENDBRANCH   1   2
BRANCH   1  18
ATOM     18  C   UNL     1      92.864 101.284  73.291  1.00  0.00     0.001 C 
BRANCH  18  19
ATOM     19  C   UNL     1      91.873 101.171  72.099  1.00  0.00     0.000 C 
BRANCH  19  20
ATOM     20  C   UNL     1      90.501 101.824  72.432  1.00  0.00     0.000 C 
BRANCH  20  21
ATOM     21  C   UNL     1      90.231 101.997  73.952  1.00  0.00     0.003 C 
BRANCH  21  22
ATOM     22  C   UNL     1      89.876 103.457  74.387  1.00  0.00    -0.017 C 
ATOM     23  C   UNL     1      91.095 104.128  75.080  1.00  0.00     0.007 C 
ATOM     24  C   UNL     1      88.614 103.550  75.294  1.00  0.00     0.007 C 
ENDBRANCH  21  22
ENDBRANCH  20  21
ENDBRANCH  19  20
ENDBRANCH  18  19
ENDBRANCH   1  18
TORSDOF 11
ENDMDL
MODEL 6
REMARK VINA RESULT:    -5.764     11.779     13.437
REMARK INTER + INTRA:          -9.980
REMARK INTER:                  -9.244
REMARK INTRA:                  -0.736
REMARK UNBOUND:                -0.678
REMARK SMILES COc1cc(CNC(=O)CCCCCCC(C)C)ccc1O
REMARK SMILES IDX 11 1 10 2 8 3 7 4 9 6 6 7 5 8 3 9 21 10 4 11 20 12 19 13
REMARK SMILES IDX 2 14 1 15 22 16 12 18 13 19 14 20 15 21 16 22 17 23 18 24
REMARK H PARENT 7 5 22 17
REMARK Flexibility Score: inf
ROOT
ATOM      1  C   UNL     1      97.435  82.366  78.624  1.00  0.00     0.010 C 
ENDROOT
BRANCH   1   2
ATOM      2  C   UNL     1      98.439  82.764  79.741  1.00  0.00     0.100 C 
BRANCH   2   3
ATOM      3  C   UNL     1      97.997  82.362  81.095  1.00  0.00     0.220 C 
ATOM      4  N   UNL     1      96.728  82.634  81.515  1.00  0.00    -0.352 N 
ATOM      5  H   UNL     1      96.168  83.153  80.854  1.00  0.00     0.163 HD
ATOM      6  O   UNL     1      98.805  81.747  81.834  1.00  0.00    -0.275 OA
BRANCH   4   7
ATOM      7  C   UNL     1      96.173  82.244  82.776  1.00  0.00     0.151 C 
BRANCH   7   8
ATOM      8  C   UNL     1      95.720  83.398  83.600  1.00  0.00    -0.025 A 
ATOM      9  C   UNL     1      94.577  84.272  85.594  1.00  0.00     0.160 A 
ATOM     10  C   UNL     1      94.889  85.590  85.198  1.00  0.00     0.157 A 
ATOM     11  C   UNL     1      94.977  83.188  84.784  1.00  0.00     0.056 A 
ATOM     12  C   UNL     1      95.594  85.814  84.001  1.00  0.00     0.050 A 
ATOM     13  C   UNL     1      96.016  84.726  83.212  1.00  0.00     0.009 A 
BRANCH   9  14
ATOM     14  O   UNL     1      93.858  84.045  86.737  1.00  0.00    -0.493 OA
ATOM     15  C   UNL     1      93.772  82.656  87.102  1.00  0.00     0.278 C 
ENDBRANCH   9  14
BRANCH  10  16
ATOM     16  O   UNL     1      94.515  86.653  85.959  1.00  0.00    -0.504 OA
ATOM     17  H   UNL     1      94.846  87.462  85.561  1.00  0.00     0.293 HD
ENDBRANCH  10  16
ENDBRANCH   7   8
ENDBRANCH   4   7
ENDBRANCH   2   3
ENDBRANCH   1   2
BRANCH   1  18
ATOM     18  C   UNL     1      96.578  83.573  78.148  1.00  0.00     0.001 C 
BRANCH  18  19
ATOM     19  C   UNL     1      96.955  84.088  76.730  1.00  0.00     0.000 C 
BRANCH  19  20
ATOM     20  C   UNL     1      97.940  83.122  76.013  1.00  0.00     0.000 C 
BRANCH  20  21
ATOM     21  C   UNL     1      99.334  83.740  75.714  1.00  0.00     0.003 C 
BRANCH  21  22
ATOM     22  C   UNL     1      99.647  83.933  74.194  1.00  0.00    -0.017 C 
ATOM     23  C   UNL     1     101.107  84.431  73.999  1.00  0.00     0.007 C 
ATOM     24  C   UNL     1      98.647  84.876  73.464  1.00  0.00     0.007 C 
ENDBRANCH  21  22
ENDBRANCH  20  21
ENDBRANCH  19  20
ENDBRANCH  18  19
ENDBRANCH   1  18
TORSDOF 11
ENDMDL
MODEL 7
REMARK VINA RESULT:    -5.687     17.739     19.086
REMARK INTER + INTRA:          -9.856
REMARK INTER:                  -9.279
REMARK INTRA:                  -0.577
REMARK UNBOUND:                -0.678
REMARK SMILES COc1cc(CNC(=O)CCCCCCC(C)C)ccc1O
REMARK SMILES IDX 11 1 10 2 8 3 7 4 9 6 6 7 5 8 3 9 21 10 4 11 20 12 19 13
REMARK SMILES IDX 2 14 1 15 22 16 12 18 13 19 14 20 15 21 16 22 17 23 18 24
REMARK H PARENT 7 5 22 17
REMARK Flexibility Score: inf
ROOT
ATOM      1  C   UNL     1      91.066  75.947  78.160  1.00  0.00     0.010 C 
ENDROOT
BRANCH   1   2
ATOM      2  C   UNL     1      90.789  74.747  79.107  1.00  0.00     0.100 C 
BRANCH   2   3
ATOM      3  C   UNL     1      91.404  74.903  80.444  1.00  0.00     0.220 C 
ATOM      4  N   UNL     1      90.671  74.668  81.571  1.00  0.00    -0.352 N 
ATOM      5  H   UNL     1      89.704  74.434  81.403  1.00  0.00     0.163 HD
ATOM      6  O   UNL     1      92.613  75.231  80.516  1.00  0.00    -0.275 OA
BRANCH   4   7
ATOM      7  C   UNL     1      91.173  74.730  82.910  1.00  0.00     0.151 C 
BRANCH   7   8
ATOM      8  C   UNL     1      91.064  76.086  83.515  1.00  0.00    -0.025 A 
ATOM      9  C   UNL     1      92.100  78.225  84.148  1.00  0.00     0.160 A 
ATOM     10  C   UNL     1      90.855  78.689  84.626  1.00  0.00     0.157 A 
ATOM     11  C   UNL     1      92.199  76.923  83.615  1.00  0.00     0.056 A 
ATOM     12  C   UNL     1      89.726  77.851  84.568  1.00  0.00     0.050 A 
ATOM     13  C   UNL     1      89.826  76.563  84.007  1.00  0.00     0.009 A 
BRANCH   9  14
ATOM     14  O   UNL     1      93.212  79.017  84.236  1.00  0.00    -0.493 OA
ATOM     15  C   UNL     1      93.991  78.793  85.425  1.00  0.00     0.278 C 
ENDBRANCH   9  14
BRANCH  10  16
ATOM     16  O   UNL     1      90.730  79.938  85.147  1.00  0.00    -0.504 OA
ATOM     17  H   UNL     1      90.489  80.553  84.449  1.00  0.00     0.293 HD
ENDBRANCH  10  16
ENDBRANCH   7   8
ENDBRANCH   4   7
ENDBRANCH   2   3
ENDBRANCH   1   2
BRANCH   1  18
ATOM     18  C   UNL     1      90.076  75.991  76.962  1.00  0.00     0.001 C 
BRANCH  18  19
ATOM     19  C   UNL     1      90.768  75.901  75.573  1.00  0.00     0.000 C 
BRANCH  19  20
ATOM     20  C   UNL     1      90.486  77.163  74.710  1.00  0.00     0.000 C 
BRANCH  20  21
ATOM     21  C   UNL     1      91.714  77.673  73.906  1.00  0.00     0.003 C 
BRANCH  21  22
ATOM     22  C   UNL     1      91.917  76.979  72.520  1.00  0.00    -0.017 C 
ATOM     23  C   UNL     1      93.211  76.116  72.528  1.00  0.00     0.007 C 
ATOM     24  C   UNL     1      91.932  77.971  71.319  1.00  0.00     0.007 C 
ENDBRANCH  21  22
ENDBRANCH  20  21
ENDBRANCH  19  20
ENDBRANCH  18  19
ENDBRANCH   1  18
TORSDOF 11
ENDMDL
MODEL 8
REMARK VINA RESULT:    -5.619     21.802     25.648
REMARK INTER + INTRA:          -9.746
REMARK INTER:                  -8.116
REMARK INTRA:                  -1.629
REMARK UNBOUND:                -0.678
REMARK SMILES COc1cc(CNC(=O)CCCCCCC(C)C)ccc1O
REMARK SMILES IDX 11 1 10 2 8 3 7 4 9 6 6 7 5 8 3 9 21 10 4 11 20 12 19 13
REMARK SMILES IDX 2 14 1 15 22 16 12 18 13 19 14 20 15 21 16 22 17 23 18 24
REMARK H PARENT 7 5 22 17
REMARK Flexibility Score: inf
ROOT
ATOM      1  C   UNL     1      77.545  84.435  66.820  1.00  0.00     0.010 C 
ENDROOT
BRANCH   1   2
ATOM      2  C   UNL     1      76.964  83.543  65.688  1.00  0.00     0.100 C 
BRANCH   2   3
ATOM      3  C   UNL     1      75.683  84.047  65.145  1.00  0.00     0.220 C 
ATOM      4  N   UNL     1      74.528  83.347  65.342  1.00  0.00    -0.352 N 
ATOM      5  H   UNL     1      74.645  82.472  65.831  1.00  0.00     0.163 HD
ATOM      6  O   UNL     1      75.680  85.139  64.525  1.00  0.00    -0.275 OA
BRANCH   4   7
ATOM      7  C   UNL     1      73.227  83.764  64.916  1.00  0.00     0.151 C 
BRANCH   7   8
ATOM      8  C   UNL     1      72.351  84.194  66.040  1.00  0.00    -0.025 A 
ATOM      9  C   UNL     1      71.840  85.770  67.859  1.00  0.00     0.160 A 
ATOM     10  C   UNL     1      70.664  85.046  68.157  1.00  0.00     0.157 A 
ATOM     11  C   UNL     1      72.682  85.328  66.817  1.00  0.00     0.056 A 
ATOM     12  C   UNL     1      70.344  83.894  67.417  1.00  0.00     0.050 A 
ATOM     13  C   UNL     1      71.175  83.476  66.359  1.00  0.00     0.009 A 
BRANCH   9  14
ATOM     14  O   UNL     1      72.181  86.869  68.598  1.00  0.00    -0.493 OA
ATOM     15  C   UNL     1      71.869  88.119  67.956  1.00  0.00     0.278 C 
ENDBRANCH   9  14
BRANCH  10  16
ATOM     16  O   UNL     1      69.835  85.448  69.156  1.00  0.00    -0.504 OA
ATOM     17  H   UNL     1      69.524  84.679  69.641  1.00  0.00     0.293 HD
ENDBRANCH  10  16
ENDBRANCH   7   8
ENDBRANCH   4   7
ENDBRANCH   2   3
ENDBRANCH   1   2
BRANCH   1  18
ATOM     18  C   UNL     1      76.672  84.391  68.107  1.00  0.00     0.001 C 
BRANCH  18  19
ATOM     19  C   UNL     1      76.927  85.579  69.077  1.00  0.00     0.000 C 
BRANCH  19  20
ATOM     20  C   UNL     1      75.638  86.419  69.303  1.00  0.00     0.000 C 
BRANCH  20  21
ATOM     21  C   UNL     1      75.545  87.694  68.420  1.00  0.00     0.003 C 
BRANCH  21  22
ATOM     22  C   UNL     1      76.790  87.945  67.509  1.00  0.00    -0.017 C 
ATOM     23  C   UNL     1      77.629  89.137  68.050  1.00  0.00     0.007 C 
ATOM     24  C   UNL     1      76.433  88.167  66.009  1.00  0.00     0.007 C 
ENDBRANCH  21  22
ENDBRANCH  20  21
ENDBRANCH  19  20
ENDBRANCH  18  19
ENDBRANCH   1  18
TORSDOF 11
ENDMDL
MODEL 9
REMARK VINA RESULT:    -5.569     22.135     25.140
REMARK INTER + INTRA:          -9.666
REMARK INTER:                  -7.423
REMARK INTRA:                  -2.243
REMARK UNBOUND:                -0.678
REMARK SMILES COc1cc(CNC(=O)CCCCCCC(C)C)ccc1O
REMARK SMILES IDX 11 1 10 2 8 3 7 4 9 6 6 7 5 8 3 9 21 10 4 11 20 12 19 13
REMARK SMILES IDX 2 14 1 15 22 16 12 18 13 19 14 20 15 21 16 22 17 23 18 24
REMARK H PARENT 7 5 22 17
REMARK Flexibility Score: inf
ROOT
ATOM      1  C   UNL     1      71.022  82.847  65.152  1.00  0.00     0.010 C 
ENDROOT
BRANCH   1   2
ATOM      2  C   UNL     1      71.169  83.593  66.507  1.00  0.00     0.100 C 
BRANCH   2   3
ATOM      3  C   UNL     1      71.647  84.986  66.358  1.00  0.00     0.220 C 
ATOM      4  N   UNL     1      71.796  85.785  67.455  1.00  0.00    -0.352 N 
ATOM      5  H   UNL     1      71.515  85.359  68.326  1.00  0.00     0.163 HD
ATOM      6  O   UNL     1      71.934  85.405  65.210  1.00  0.00    -0.275 OA
BRANCH   4   7
ATOM      7  C   UNL     1      72.303  87.123  67.440  1.00  0.00     0.151 C 
BRANCH   7   8
ATOM      8  C   UNL     1      73.772  87.196  67.670  1.00  0.00    -0.025 A 
ATOM      9  C   UNL     1      75.783  86.425  68.857  1.00  0.00     0.160 A 
ATOM     10  C   UNL     1      76.578  87.298  68.083  1.00  0.00     0.157 A 
ATOM     11  C   UNL     1      74.386  86.394  68.658  1.00  0.00     0.056 A 
ATOM     12  C   UNL     1      75.973  88.130  67.124  1.00  0.00     0.050 A 
ATOM     13  C   UNL     1      74.582  88.073  66.910  1.00  0.00     0.009 A 
BRANCH   9  14
ATOM     14  O   UNL     1      76.356  85.640  69.820  1.00  0.00    -0.493 OA
ATOM     15  C   UNL     1      75.813  84.309  69.883  1.00  0.00     0.278 C 
ENDBRANCH   9  14
BRANCH  10  16
ATOM     16  O   UNL     1      77.925  87.350  68.255  1.00  0.00    -0.504 OA
ATOM     17  H   UNL     1      78.137  87.166  69.173  1.00  0.00     0.293 HD
ENDBRANCH  10  16
ENDBRANCH   7   8
ENDBRANCH   4   7
ENDBRANCH   2   3
ENDBRANCH   1   2
BRANCH   1  18
ATOM     18  C   UNL     1      72.286  82.010  64.803  1.00  0.00     0.001 C 
BRANCH  18  19
ATOM     19  C   UNL     1      73.027  82.496  63.526  1.00  0.00     0.000 C 
BRANCH  19  20
ATOM     20  C   UNL     1      74.475  82.961  63.848  1.00  0.00     0.000 C 
BRANCH  20  21
ATOM     21  C   UNL     1      74.801  83.027  65.366  1.00  0.00     0.003 C 
BRANCH  21  22
ATOM     22  C   UNL     1      75.561  84.319  65.813  1.00  0.00    -0.017 C 
ATOM     23  C   UNL     1      75.504  85.397  64.694  1.00  0.00     0.007 C 
ATOM     24  C   UNL     1      77.034  84.060  66.246  1.00  0.00     0.007 C 
ENDBRANCH  21  22
ENDBRANCH  20  21
ENDBRANCH  19  20
ENDBRANCH  18  19
ENDBRANCH   1  18
TORSDOF 11
ENDMDL
MODEL 10
REMARK VINA RESULT:    -5.455     11.694     14.563
REMARK INTER + INTRA:          -9.482
REMARK INTER:                  -8.585
REMARK INTRA:                  -0.897
REMARK UNBOUND:                -0.678
REMARK SMILES COc1cc(CNC(=O)CCCCCCC(C)C)ccc1O
REMARK SMILES IDX 11 1 10 2 8 3 7 4 9 6 6 7 5 8 3 9 21 10 4 11 20 12 19 13
REMARK SMILES IDX 2 14 1 15 22 16 12 18 13 19 14 20 15 21 16 22 17 23 18 24
REMARK H PARENT 7 5 22 17
REMARK Flexibility Score: inf
ROOT
ATOM      1  C   UNL     1      94.181  90.324  88.769  1.00  0.00     0.010 C 
ENDROOT
BRANCH   1   2
ATOM      2  C   UNL     1      92.787  89.924  89.327  1.00  0.00     0.100 C 
BRANCH   2   3
ATOM      3  C   UNL     1      92.475  88.488  89.146  1.00  0.00     0.220 C 
ATOM      4  N   UNL     1      93.377  87.657  88.548  1.00  0.00    -0.352 N 
ATOM      5  H   UNL     1      94.215  88.112  88.218  1.00  0.00     0.163 HD
ATOM      6  O   UNL     1      91.379  88.051  89.576  1.00  0.00    -0.275 OA
BRANCH   4   7
ATOM      7  C   UNL     1      93.210  86.246  88.373  1.00  0.00     0.151 C 
BRANCH   7   8
ATOM      8  C   UNL     1      93.763  85.746  87.084  1.00  0.00    -0.025 A 
ATOM      9  C   UNL     1      94.463  83.874  85.651  1.00  0.00     0.160 A 
ATOM     10  C   UNL     1      94.774  84.781  84.614  1.00  0.00     0.157 A 
ATOM     11  C   UNL     1      93.978  84.363  86.882  1.00  0.00     0.056 A 
ATOM     12  C   UNL     1      94.601  86.162  84.817  1.00  0.00     0.050 A 
ATOM     13  C   UNL     1      94.089  86.642  86.039  1.00  0.00     0.009 A 
BRANCH   9  14
ATOM     14  O   UNL     1      94.664  82.532  85.477  1.00  0.00    -0.493 OA
ATOM     15  C   UNL     1      95.988  82.093  85.836  1.00  0.00     0.278 C 
ENDBRANCH   9  14
BRANCH  10  16
ATOM     16  O   UNL     1      95.244  84.338  83.419  1.00  0.00    -0.504 OA
ATOM     17  H   UNL     1      94.938  84.920  82.719  1.00  0.00     0.293 HD
ENDBRANCH  10  16
ENDBRANCH   7   8
ENDBRANCH   4   7
ENDBRANCH   2   3
ENDBRANCH   1   2
BRANCH   1  18
ATOM     18  C   UNL     1      94.216  91.801  88.283  1.00  0.00     0.001 C 
BRANCH  18  19
ATOM     19  C   UNL     1      95.044  92.743  89.201  1.00  0.00     0.000 C 
BRANCH  19  20
ATOM     20  C   UNL     1      94.209  93.237  90.416  1.00  0.00     0.000 C 
BRANCH  20  21
ATOM     21  C   UNL     1      93.363  94.509  90.133  1.00  0.00     0.003 C 
BRANCH  21  22
ATOM     22  C   UNL     1      91.869  94.411  90.586  1.00  0.00    -0.017 C 
ATOM     23  C   UNL     1      91.611  95.333  91.811  1.00  0.00     0.007 C 
ATOM     24  C   UNL     1      91.402  92.957  90.889  1.00  0.00     0.007 C 
ENDBRANCH  21  22
ENDBRANCH  20  21
ENDBRANCH  19  20
ENDBRANCH  18  19
ENDBRANCH   1  18
TORSDOF 11
ENDMDL
