MODEL 1
REMARK VINA RESULT:    -6.380      0.000      0.000
REMARK INTER + INTRA:         -10.717
REMARK INTER:                  -9.923
REMARK INTRA:                  -0.794
REMARK UNBOUND:                -0.794
REMARK SMILES CCCCC/C=C/C(=O)CCc1ccc(O)c(OC)c1
REMARK SMILES IDX 6 1 7 2 8 3 9 4 10 5 11 6 12 7 17 8 20 9 15 10 14 11 13 12
REMARK SMILES IDX 18 13 19 14 16 15 5 17 4 18 3 19 2 20 1 21
REMARK H PARENT 16 16
REMARK Flexibility Score: inf
ROOT
ATOM      1  C   UNL     1      78.306  64.404  68.310  1.00  0.00    -0.023 C 
ATOM      2  C   UNL     1      78.558  64.235  69.613  1.00  0.00     0.043 C 
ENDROOT
BRANCH   2   3
ATOM      3  C   UNL     1      79.438  65.197  70.330  1.00  0.00     0.155 C 
ATOM      4  O   UNL     1      79.039  66.308  70.675  1.00  0.00    -0.295 OA
BRANCH   3   5
ATOM      5  C   UNL     1      80.869  64.757  70.567  1.00  0.00     0.085 C 
BRANCH   5   6
ATOM      6  C   UNL     1      81.838  65.935  70.452  1.00  0.00     0.044 C 
BRANCH   6   7
ATOM      7  C   UNL     1      82.446  66.328  71.778  1.00  0.00    -0.044 A 
ATOM      8  C   UNL     1      83.823  67.807  73.072  1.00  0.00     0.160 A 
ATOM      9  C   UNL     1      83.262  67.445  71.847  1.00  0.00     0.054 A 
ATOM     10  C   UNL     1      83.560  67.048  74.211  1.00  0.00     0.157 A 
ATOM     11  C   UNL     1      82.737  65.924  74.126  1.00  0.00     0.050 A 
ATOM     12  C   UNL     1      82.176  65.562  72.901  1.00  0.00     0.008 A 
BRANCH   8  13
ATOM     13  O   UNL     1      84.626  68.906  73.142  1.00  0.00    -0.493 OA
ATOM     14  C   UNL     1      85.965  68.761  72.674  1.00  0.00     0.278 C 
ENDBRANCH   8  13
BRANCH  10  15
ATOM     15  O   UNL     1      84.102  67.391  75.413  1.00  0.00    -0.504 OA
ATOM     16  H   UNL     1      84.930  67.874  75.248  1.00  0.00     0.293 HD
ENDBRANCH  10  15
ENDBRANCH   6   7
ENDBRANCH   5   6
ENDBRANCH   3   5
ENDBRANCH   2   3
BRANCH   1  17
ATOM     17  C   UNL     1      77.430  63.479  67.516  1.00  0.00     0.027 C 
BRANCH  17  18
ATOM     18  C   UNL     1      76.837  64.136  66.265  1.00  0.00     0.004 C 
BRANCH  18  19
ATOM     19  C   UNL     1      75.933  65.334  66.572  1.00  0.00     0.000 C 
BRANCH  19  20
ATOM     20  C   UNL     1      74.638  64.887  67.252  1.00  0.00    -0.003 C 
ATOM     21  C   UNL     1      74.600  65.312  68.711  1.00  0.00     0.004 C 
ENDBRANCH  19  20
ENDBRANCH  18  19
ENDBRANCH  17  18
ENDBRANCH   1  17
TORSDOF 10
ENDMDL
MODEL 2
REMARK VINA RESULT:    -6.377      1.787      2.284
REMARK INTER + INTRA:         -10.712
REMARK INTER:                  -9.869
REMARK INTRA:                  -0.843
REMARK UNBOUND:                -0.794
REMARK SMILES CCCCC/C=C/C(=O)CCc1ccc(O)c(OC)c1
REMARK SMILES IDX 6 1 7 2 8 3 9 4 10 5 11 6 12 7 17 8 20 9 15 10 14 11 13 12
REMARK SMILES IDX 18 13 19 14 16 15 5 17 4 18 3 19 2 20 1 21
REMARK H PARENT 16 16
REMARK Flexibility Score: inf
ROOT
ATOM      1  C   UNL     1      78.270  63.668  67.553  1.00  0.00    -0.023 C 
ATOM      2  C   UNL     1      78.329  64.314  68.724  1.00  0.00     0.043 C 
ENDROOT
BRANCH   2   3
ATOM      3  C   UNL     1      79.596  64.319  69.505  1.00  0.00     0.155 C 
ATOM      4  O   UNL     1      80.244  63.293  69.697  1.00  0.00    -0.295 OA
BRANCH   3   5
ATOM      5  C   UNL     1      80.019  65.649  70.099  1.00  0.00     0.085 C 
BRANCH   5   6
ATOM      6  C   UNL     1      79.677  65.727  71.587  1.00  0.00     0.044 C 
BRANCH   6   7
ATOM      7  C   UNL     1      80.898  65.877  72.464  1.00  0.00    -0.044 A 
ATOM      8  C   UNL     1      83.088  65.142  73.113  1.00  0.00     0.160 A 
ATOM      9  C   UNL     1      81.960  65.002  72.304  1.00  0.00     0.054 A 
ATOM     10  C   UNL     1      83.138  66.154  74.071  1.00  0.00     0.157 A 
ATOM     11  C   UNL     1      82.060  67.027  74.221  1.00  0.00     0.050 A 
ATOM     12  C   UNL     1      80.932  66.887  73.411  1.00  0.00     0.008 A 
BRANCH   8  13
ATOM     13  O   UNL     1      84.134  64.283  72.958  1.00  0.00    -0.493 OA
ATOM     14  C   UNL     1      84.204  63.562  71.729  1.00  0.00     0.278 C 
ENDBRANCH   8  13
BRANCH  10  15
ATOM     15  O   UNL     1      84.233  66.300  74.867  1.00  0.00    -0.504 OA
ATOM     16  H   UNL     1      85.018  66.027  74.361  1.00  0.00     0.293 HD
ENDBRANCH  10  15
ENDBRANCH   6   7
ENDBRANCH   5   6
ENDBRANCH   3   5
ENDBRANCH   2   3
BRANCH   1  17
ATOM     17  C   UNL     1      77.031  63.615  66.707  1.00  0.00     0.027 C 
BRANCH  17  18
ATOM     18  C   UNL     1      76.588  64.992  66.203  1.00  0.00     0.004 C 
BRANCH  18  19
ATOM     19  C   UNL     1      75.102  65.282  66.436  1.00  0.00     0.000 C 
BRANCH  19  20
ATOM     20  C   UNL     1      74.567  64.494  67.633  1.00  0.00    -0.003 C 
ATOM     21  C   UNL     1      74.575  65.333  68.901  1.00  0.00     0.004 C 
ENDBRANCH  19  20
ENDBRANCH  18  19
ENDBRANCH  17  18
ENDBRANCH   1  17
TORSDOF 10
ENDMDL
MODEL 3
REMARK VINA RESULT:    -6.365      1.417      2.428
REMARK INTER + INTRA:         -10.694
REMARK INTER:                 -10.041
REMARK INTRA:                  -0.653
REMARK UNBOUND:                -0.794
REMARK SMILES CCCCC/C=C/C(=O)CCc1ccc(O)c(OC)c1
REMARK SMILES IDX 6 1 7 2 8 3 9 4 10 5 11 6 12 7 17 8 20 9 15 10 14 11 13 12
REMARK SMILES IDX 18 13 19 14 16 15 5 17 4 18 3 19 2 20 1 21
REMARK H PARENT 16 16
REMARK Flexibility Score: inf
ROOT
ATOM      1  C   UNL     1      77.599  63.288  67.676  1.00  0.00    -0.023 C 
ATOM      2  C   UNL     1      77.732  63.949  68.833  1.00  0.00     0.043 C 
ENDROOT
BRANCH   2   3
ATOM      3  C   UNL     1      79.088  64.193  69.396  1.00  0.00     0.155 C 
ATOM      4  O   UNL     1      79.977  63.345  69.337  1.00  0.00    -0.295 OA
BRANCH   3   5
ATOM      5  C   UNL     1      79.302  65.522  70.094  1.00  0.00     0.085 C 
BRANCH   5   6
ATOM      6  C   UNL     1      79.722  65.322  71.551  1.00  0.00     0.044 C 
BRANCH   6   7
ATOM      7  C   UNL     1      81.088  65.894  71.852  1.00  0.00    -0.044 A 
ATOM      8  C   UNL     1      82.743  66.581  73.447  1.00  0.00     0.160 A 
ATOM      9  C   UNL     1      81.482  66.054  73.170  1.00  0.00     0.054 A 
ATOM     10  C   UNL     1      83.594  66.942  72.402  1.00  0.00     0.157 A 
ATOM     11  C   UNL     1      83.182  66.775  71.079  1.00  0.00     0.050 A 
ATOM     12  C   UNL     1      81.921  66.248  70.803  1.00  0.00     0.008 A 
BRANCH   8  13
ATOM     13  O   UNL     1      83.133  66.740  74.743  1.00  0.00    -0.493 OA
ATOM     14  C   UNL     1      83.721  65.611  75.386  1.00  0.00     0.278 C 
ENDBRANCH   8  13
BRANCH  10  15
ATOM     15  O   UNL     1      84.828  67.458  72.660  1.00  0.00    -0.504 OA
ATOM     16  H   UNL     1      84.809  67.870  73.540  1.00  0.00     0.293 HD
ENDBRANCH  10  15
ENDBRANCH   6   7
ENDBRANCH   5   6
ENDBRANCH   3   5
ENDBRANCH   2   3
BRANCH   1  17
ATOM     17  C   UNL     1      76.269  63.002  67.043  1.00  0.00     0.027 C 
BRANCH  17  18
ATOM     18  C   UNL     1      75.083  63.368  67.942  1.00  0.00     0.004 C 
BRANCH  18  19
ATOM     19  C   UNL     1      74.467  64.733  67.621  1.00  0.00     0.000 C 
BRANCH  19  20
ATOM     20  C   UNL     1      74.893  65.218  66.234  1.00  0.00    -0.003 C 
ATOM     21  C   UNL     1      75.953  66.304  66.324  1.00  0.00     0.004 C 
ENDBRANCH  19  20
ENDBRANCH  18  19
ENDBRANCH  17  18
ENDBRANCH   1  17
TORSDOF 10
ENDMDL
MODEL 4
REMARK VINA RESULT:    -6.134     16.371     19.942
REMARK INTER + INTRA:         -10.336
REMARK INTER:                  -9.615
REMARK INTRA:                  -0.721
REMARK UNBOUND:                -0.794
REMARK SMILES CCCCC/C=C/C(=O)CCc1ccc(O)c(OC)c1
REMARK SMILES IDX 6 1 7 2 8 3 9 4 10 5 11 6 12 7 17 8 20 9 15 10 14 11 13 12
REMARK SMILES IDX 18 13 19 14 16 15 5 17 4 18 3 19 2 20 1 21
REMARK H PARENT 16 16
REMARK Flexibility Score: inf
ROOT
ATOM      1  C   UNL     1      91.111  75.112  80.708  1.00  0.00    -0.023 C 
ATOM      2  C   UNL     1      91.724  75.693  81.747  1.00  0.00     0.043 C 
ENDROOT
BRANCH   2   3
ATOM      3  C   UNL     1      91.271  75.401  83.134  1.00  0.00     0.155 C 
ATOM      4  O   UNL     1      91.402  74.288  83.639  1.00  0.00    -0.295 OA
BRANCH   3   5
ATOM      5  C   UNL     1      90.590  76.535  83.876  1.00  0.00     0.085 C 
BRANCH   5   6
ATOM      6  C   UNL     1      91.596  77.610  84.291  1.00  0.00     0.044 C 
BRANCH   6   7
ATOM      7  C   UNL     1      91.027  79.007  84.214  1.00  0.00    -0.044 A 
ATOM      8  C   UNL     1      89.129  80.470  84.081  1.00  0.00     0.160 A 
ATOM      9  C   UNL     1      89.653  79.179  84.152  1.00  0.00     0.054 A 
ATOM     10  C   UNL     1      89.984  81.571  84.073  1.00  0.00     0.157 A 
ATOM     11  C   UNL     1      91.365  81.382  84.135  1.00  0.00     0.050 A 
ATOM     12  C   UNL     1      91.890  80.091  84.205  1.00  0.00     0.008 A 
BRANCH   8  13
ATOM     13  O   UNL     1      87.778  80.641  84.021  1.00  0.00    -0.493 OA
ATOM     14  C   UNL     1      87.154  80.426  82.757  1.00  0.00     0.278 C 
ENDBRANCH   8  13
BRANCH  10  15
ATOM     15  O   UNL     1      89.484  82.836  84.004  1.00  0.00    -0.504 OA
ATOM     16  H   UNL     1      88.957  83.000  84.805  1.00  0.00     0.293 HD
ENDBRANCH  10  15
ENDBRANCH   6   7
ENDBRANCH   5   6
ENDBRANCH   3   5
ENDBRANCH   2   3
BRANCH   1  17
ATOM     17  C   UNL     1      91.507  75.355  79.281  1.00  0.00     0.027 C 
BRANCH  17  18
ATOM     18  C   UNL     1      90.409  74.980  78.280  1.00  0.00     0.004 C 
BRANCH  18  19
ATOM     19  C   UNL     1      90.306  75.943  77.093  1.00  0.00     0.000 C 
BRANCH  19  20
ATOM     20  C   UNL     1      91.339  77.065  77.201  1.00  0.00    -0.003 C 
ATOM     21  C   UNL     1      91.144  78.109  76.113  1.00  0.00     0.004 C 
ENDBRANCH  19  20
ENDBRANCH  18  19
ENDBRANCH  17  18
ENDBRANCH   1  17
TORSDOF 10
ENDMDL
MODEL 5
REMARK VINA RESULT:    -5.987     30.162     34.709
REMARK INTER + INTRA:         -10.106
REMARK INTER:                  -9.193
REMARK INTRA:                  -0.913
REMARK UNBOUND:                -0.794
REMARK SMILES CCCCC/C=C/C(=O)CCc1ccc(O)c(OC)c1
REMARK SMILES IDX 6 1 7 2 8 3 9 4 10 5 11 6 12 7 17 8 20 9 15 10 14 11 13 12
REMARK SMILES IDX 18 13 19 14 16 15 5 17 4 18 3 19 2 20 1 21
REMARK H PARENT 16 16
REMARK Flexibility Score: inf
ROOT
ATOM      1  C   UNL     1      93.155  95.676  77.516  1.00  0.00    -0.023 C 
ATOM      2  C   UNL     1      92.985  96.886  76.968  1.00  0.00     0.043 C 
ENDROOT
BRANCH   2   3
ATOM      3  C   UNL     1      94.170  97.693  76.570  1.00  0.00     0.155 C 
ATOM      4  O   UNL     1      94.133  98.475  75.622  1.00  0.00    -0.295 OA
BRANCH   3   5
ATOM      5  C   UNL     1      95.442  97.462  77.361  1.00  0.00     0.085 C 
BRANCH   5   6
ATOM      6  C   UNL     1      95.502  98.366  78.593  1.00  0.00     0.044 C 
BRANCH   6   7
ATOM      7  C   UNL     1      96.057  97.665  79.810  1.00  0.00    -0.044 A 
ATOM      8  C   UNL     1      96.950  97.767  82.036  1.00  0.00     0.160 A 
ATOM      9  C   UNL     1      96.437  98.415  80.912  1.00  0.00     0.054 A 
ATOM     10  C   UNL     1      97.076  96.378  82.044  1.00  0.00     0.157 A 
ATOM     11  C   UNL     1      96.689  95.637  80.926  1.00  0.00     0.050 A 
ATOM     12  C   UNL     1      96.177  96.285  79.802  1.00  0.00     0.008 A 
BRANCH   8  13
ATOM     13  O   UNL     1      97.324  98.502  83.120  1.00  0.00    -0.493 OA
ATOM     14  C   UNL     1      97.919  99.774  82.867  1.00  0.00     0.278 C 
ENDBRANCH   8  13
BRANCH  10  15
ATOM     15  O   UNL     1      97.575  95.734  83.135  1.00  0.00    -0.504 OA
ATOM     16  H   UNL     1      97.999  96.393  83.711  1.00  0.00     0.293 HD
ENDBRANCH  10  15
ENDBRANCH   6   7
ENDBRANCH   5   6
ENDBRANCH   3   5
ENDBRANCH   2   3
BRANCH   1  17
ATOM     17  C   UNL     1      92.012  94.802  77.945  1.00  0.00     0.027 C 
BRANCH  17  18
ATOM     18  C   UNL     1      91.407  93.995  76.792  1.00  0.00     0.004 C 
BRANCH  18  19
ATOM     19  C   UNL     1      90.229  94.693  76.106  1.00  0.00     0.000 C 
BRANCH  19  20
ATOM     20  C   UNL     1      89.834  93.971  74.817  1.00  0.00    -0.003 C 
ATOM     21  C   UNL     1      90.605  92.672  74.648  1.00  0.00     0.004 C 
ENDBRANCH  19  20
ENDBRANCH  18  19
ENDBRANCH  17  18
ENDBRANCH   1  17
TORSDOF 10
ENDMDL
MODEL 6
REMARK VINA RESULT:    -5.957     16.070     19.462
REMARK INTER + INTRA:         -10.060
REMARK INTER:                  -9.452
REMARK INTRA:                  -0.608
REMARK UNBOUND:                -0.794
REMARK SMILES CCCCC/C=C/C(=O)CCc1ccc(O)c(OC)c1
REMARK SMILES IDX 6 1 7 2 8 3 9 4 10 5 11 6 12 7 17 8 20 9 15 10 14 11 13 12
REMARK SMILES IDX 18 13 19 14 16 15 5 17 4 18 3 19 2 20 1 21
REMARK H PARENT 16 16
REMARK Flexibility Score: inf
ROOT
ATOM      1  C   UNL     1      90.986  74.770  80.065  1.00  0.00    -0.023 C 
ATOM      2  C   UNL     1      91.608  75.592  80.920  1.00  0.00     0.043 C 
ENDROOT
BRANCH   2   3
ATOM      3  C   UNL     1      91.158  75.666  82.337  1.00  0.00     0.155 C 
ATOM      4  O   UNL     1      90.237  74.973  82.762  1.00  0.00    -0.295 OA
BRANCH   3   5
ATOM      5  C   UNL     1      91.861  76.682  83.217  1.00  0.00     0.085 C 
BRANCH   5   6
ATOM      6  C   UNL     1      91.020  77.027  84.447  1.00  0.00     0.044 C 
BRANCH   6   7
ATOM      7  C   UNL     1      90.208  78.287  84.269  1.00  0.00    -0.044 A 
ATOM      8  C   UNL     1      90.110  80.661  83.932  1.00  0.00     0.160 A 
ATOM      9  C   UNL     1      90.861  79.497  84.097  1.00  0.00     0.054 A 
ATOM     10  C   UNL     1      88.717  80.601  83.942  1.00  0.00     0.157 A 
ATOM     11  C   UNL     1      88.074  79.375  84.117  1.00  0.00     0.050 A 
ATOM     12  C   UNL     1      88.824  78.211  84.282  1.00  0.00     0.008 A 
BRANCH   8  13
ATOM     13  O   UNL     1      90.750  81.852  83.763  1.00  0.00    -0.493 OA
ATOM     14  C   UNL     1      91.984  82.030  84.455  1.00  0.00     0.278 C 
ENDBRANCH   8  13
BRANCH  10  15
ATOM     15  O   UNL     1      87.973  81.730  83.782  1.00  0.00    -0.504 OA
ATOM     16  H   UNL     1      87.834  81.872  82.829  1.00  0.00     0.293 HD
ENDBRANCH  10  15
ENDBRANCH   6   7
ENDBRANCH   5   6
ENDBRANCH   3   5
ENDBRANCH   2   3
BRANCH   1  17
ATOM     17  C   UNL     1      91.379  74.638  78.622  1.00  0.00     0.027 C 
BRANCH  17  18
ATOM     18  C   UNL     1      91.245  75.948  77.839  1.00  0.00     0.004 C 
BRANCH  18  19
ATOM     19  C   UNL     1      90.116  75.931  76.803  1.00  0.00     0.000 C 
BRANCH  19  20
ATOM     20  C   UNL     1      90.156  77.182  75.924  1.00  0.00    -0.003 C 
ATOM     21  C   UNL     1      90.692  76.871  74.536  1.00  0.00     0.004 C 
ENDBRANCH  19  20
ENDBRANCH  18  19
ENDBRANCH  17  18
ENDBRANCH   1  17
TORSDOF 10
ENDMDL
MODEL 7
REMARK VINA RESULT:    -5.843     24.950     26.247
REMARK INTER + INTRA:          -9.882
REMARK INTER:                  -9.004
REMARK INTRA:                  -0.878
REMARK UNBOUND:                -0.794
REMARK SMILES CCCCC/C=C/C(=O)CCc1ccc(O)c(OC)c1
REMARK SMILES IDX 6 1 7 2 8 3 9 4 10 5 11 6 12 7 17 8 20 9 15 10 14 11 13 12
REMARK SMILES IDX 18 13 19 14 16 15 5 17 4 18 3 19 2 20 1 21
REMARK H PARENT 16 16
REMARK Flexibility Score: inf
ROOT
ATOM      1  C   UNL     1      97.288  83.456  79.182  1.00  0.00    -0.023 C 
ATOM      2  C   UNL     1      97.464  82.302  79.837  1.00  0.00     0.043 C 
ENDROOT
BRANCH   2   3
ATOM      3  C   UNL     1      98.491  82.206  80.909  1.00  0.00     0.155 C 
ATOM      4  O   UNL     1      99.695  82.213  80.657  1.00  0.00    -0.295 OA
BRANCH   3   5
ATOM      5  C   UNL     1      97.977  82.047  82.327  1.00  0.00     0.085 C 
BRANCH   5   6
ATOM      6  C   UNL     1      96.462  81.841  82.348  1.00  0.00     0.044 C 
BRANCH   6   7
ATOM      7  C   UNL     1      95.751  82.804  83.269  1.00  0.00    -0.044 A 
ATOM      8  C   UNL     1      93.999  83.254  84.846  1.00  0.00     0.160 A 
ATOM      9  C   UNL     1      94.655  82.365  83.995  1.00  0.00     0.054 A 
ATOM     10  C   UNL     1      94.447  84.570  84.961  1.00  0.00     0.157 A 
ATOM     11  C   UNL     1      95.552  84.997  84.223  1.00  0.00     0.050 A 
ATOM     12  C   UNL     1      96.208  84.108  83.372  1.00  0.00     0.008 A 
BRANCH   8  13
ATOM     13  O   UNL     1      92.921  82.825  85.561  1.00  0.00    -0.493 OA
ATOM     14  C   UNL     1      92.471  81.494  85.319  1.00  0.00     0.278 C 
ENDBRANCH   8  13
BRANCH  10  15
ATOM     15  O   UNL     1      93.815  85.447  85.789  1.00  0.00    -0.504 OA
ATOM     16  H   UNL     1      94.491  85.979  86.244  1.00  0.00     0.293 HD
ENDBRANCH  10  15
ENDBRANCH   6   7
ENDBRANCH   5   6
ENDBRANCH   3   5
ENDBRANCH   2   3
BRANCH   1  17
ATOM     17  C   UNL     1      96.274  83.634  78.089  1.00  0.00     0.027 C 
BRANCH  17  18
ATOM     18  C   UNL     1      96.868  84.231  76.809  1.00  0.00     0.004 C 
BRANCH  18  19
ATOM     19  C   UNL     1      98.217  83.621  76.416  1.00  0.00     0.000 C 
BRANCH  19  20
ATOM     20  C   UNL     1      98.237  83.234  74.936  1.00  0.00    -0.003 C 
ATOM     21  C   UNL     1      97.399  84.187  74.099  1.00  0.00     0.004 C 
ENDBRANCH  19  20
ENDBRANCH  18  19
ENDBRANCH  17  18
ENDBRANCH   1  17
TORSDOF 10
ENDMDL
MODEL 8
REMARK VINA RESULT:    -5.672     30.500     34.543
REMARK INTER + INTRA:          -9.616
REMARK INTER:                  -8.883
REMARK INTRA:                  -0.733
REMARK UNBOUND:                -0.794
REMARK SMILES CCCCC/C=C/C(=O)CCc1ccc(O)c(OC)c1
REMARK SMILES IDX 6 1 7 2 8 3 9 4 10 5 11 6 12 7 17 8 20 9 15 10 14 11 13 12
REMARK SMILES IDX 18 13 19 14 16 15 5 17 4 18 3 19 2 20 1 21
REMARK H PARENT 16 16
REMARK Flexibility Score: inf
ROOT
ATOM      1  C   UNL     1      93.982  95.936  77.655  1.00  0.00    -0.023 C 
ATOM      2  C   UNL     1      93.826  97.122  77.054  1.00  0.00     0.043 C 
ENDROOT
BRANCH   2   3
ATOM      3  C   UNL     1      95.020  97.883  76.594  1.00  0.00     0.155 C 
ATOM      4  O   UNL     1      95.515  98.784  77.268  1.00  0.00    -0.295 OA
BRANCH   3   5
ATOM      5  C   UNL     1      95.564  97.524  75.226  1.00  0.00     0.085 C 
BRANCH   5   6
ATOM      6  C   UNL     1      94.443  97.103  74.275  1.00  0.00     0.044 C 
BRANCH   6   7
ATOM      7  C   UNL     1      94.607  97.671  72.885  1.00  0.00    -0.044 A 
ATOM      8  C   UNL     1      95.660  97.609  70.730  1.00  0.00     0.160 A 
ATOM      9  C   UNL     1      95.509  97.084  72.013  1.00  0.00     0.054 A 
ATOM     10  C   UNL     1      94.907  98.714  70.335  1.00  0.00     0.157 A 
ATOM     11  C   UNL     1      94.002  99.295  71.225  1.00  0.00     0.050 A 
ATOM     12  C   UNL     1      93.851  98.770  72.508  1.00  0.00     0.008 A 
BRANCH   8  13
ATOM     13  O   UNL     1      96.547  97.033  69.870  1.00  0.00    -0.493 OA
ATOM     14  C   UNL     1      97.929  97.319  70.077  1.00  0.00     0.278 C 
ENDBRANCH   8  13
BRANCH  10  15
ATOM     15  O   UNL     1      95.044  99.236  69.084  1.00  0.00    -0.504 OA
ATOM     16  H   UNL     1      94.766 100.167  69.109  1.00  0.00     0.293 HD
ENDBRANCH  10  15
ENDBRANCH   6   7
ENDBRANCH   5   6
ENDBRANCH   3   5
ENDBRANCH   2   3
BRANCH   1  17
ATOM     17  C   UNL     1      92.830  95.109  78.147  1.00  0.00     0.027 C 
BRANCH  17  18
ATOM     18  C   UNL     1      92.058  94.419  77.018  1.00  0.00     0.004 C 
BRANCH  18  19
ATOM     19  C   UNL     1      90.828  95.202  76.547  1.00  0.00     0.000 C 
BRANCH  19  20
ATOM     20  C   UNL     1      89.543  94.409  76.791  1.00  0.00    -0.003 C 
ATOM     21  C   UNL     1      89.839  92.950  77.099  1.00  0.00     0.004 C 
ENDBRANCH  19  20
ENDBRANCH  18  19
ENDBRANCH  17  18
ENDBRANCH   1  17
TORSDOF 10
ENDMDL
MODEL 9
REMARK VINA RESULT:    -5.670     25.308     26.147
REMARK INTER + INTRA:          -9.613
REMARK INTER:                  -9.044
REMARK INTRA:                  -0.569
REMARK UNBOUND:                -0.794
REMARK SMILES CCCCC/C=C/C(=O)CCc1ccc(O)c(OC)c1
REMARK SMILES IDX 6 1 7 2 8 3 9 4 10 5 11 6 12 7 17 8 20 9 15 10 14 11 13 12
REMARK SMILES IDX 18 13 19 14 16 15 5 17 4 18 3 19 2 20 1 21
REMARK H PARENT 16 16
REMARK Flexibility Score: inf
ROOT
ATOM      1  C   UNL     1      96.919  83.743  77.793  1.00  0.00    -0.023 C 
ATOM      2  C   UNL     1      98.106  83.254  78.172  1.00  0.00     0.043 C 
ENDROOT
BRANCH   2   3
ATOM      3  C   UNL     1      98.278  82.701  79.543  1.00  0.00     0.155 C 
ATOM      4  O   UNL     1      99.306  82.120  79.884  1.00  0.00    -0.295 OA
BRANCH   3   5
ATOM      5  C   UNL     1      97.097  82.845  80.483  1.00  0.00     0.085 C 
BRANCH   5   6
ATOM      6  C   UNL     1      96.979  81.638  81.415  1.00  0.00     0.044 C 
BRANCH   6   7
ATOM      7  C   UNL     1      96.228  81.951  82.688  1.00  0.00    -0.044 A 
ATOM      8  C   UNL     1      95.305  83.560  84.209  1.00  0.00     0.160 A 
ATOM      9  C   UNL     1      95.999  83.273  83.034  1.00  0.00     0.054 A 
ATOM     10  C   UNL     1      94.851  82.523  85.024  1.00  0.00     0.157 A 
ATOM     11  C   UNL     1      95.091  81.197  84.662  1.00  0.00     0.050 A 
ATOM     12  C   UNL     1      95.784  80.909  83.486  1.00  0.00     0.008 A 
BRANCH   8  13
ATOM     13  O   UNL     1      95.078  84.859  84.552  1.00  0.00    -0.493 OA
ATOM     14  C   UNL     1      95.789  85.857  83.821  1.00  0.00     0.278 C 
ENDBRANCH   8  13
BRANCH  10  15
ATOM     15  O   UNL     1      94.172  82.792  86.174  1.00  0.00    -0.504 OA
ATOM     16  H   UNL     1      93.507  83.475  85.983  1.00  0.00     0.293 HD
ENDBRANCH  10  15
ENDBRANCH   6   7
ENDBRANCH   5   6
ENDBRANCH   3   5
ENDBRANCH   2   3
BRANCH   1  17
ATOM     17  C   UNL     1      96.665  84.318  76.430  1.00  0.00     0.027 C 
BRANCH  17  18
ATOM     18  C   UNL     1      97.486  83.640  75.329  1.00  0.00     0.004 C 
BRANCH  18  19
ATOM     19  C   UNL     1      97.494  84.411  74.005  1.00  0.00     0.000 C 
BRANCH  19  20
ATOM     20  C   UNL     1      98.835  84.262  73.287  1.00  0.00    -0.003 C 
ATOM     21  C   UNL     1      99.419  85.614  72.910  1.00  0.00     0.004 C 
ENDBRANCH  19  20
ENDBRANCH  18  19
ENDBRANCH  17  18
ENDBRANCH   1  17
TORSDOF 10
ENDMDL
MODEL 10
REMARK VINA RESULT:    -5.584     24.443     26.515
REMARK INTER + INTRA:          -9.479
REMARK INTER:                  -8.556
REMARK INTRA:                  -0.923
REMARK UNBOUND:                -0.794
REMARK SMILES CCCCC/C=C/C(=O)CCc1ccc(O)c(OC)c1
REMARK SMILES IDX 6 1 7 2 8 3 9 4 10 5 11 6 12 7 17 8 20 9 15 10 14 11 13 12
REMARK SMILES IDX 18 13 19 14 16 15 5 17 4 18 3 19 2 20 1 21
REMARK H PARENT 16 16
REMARK Flexibility Score: inf
ROOT
ATOM      1  C   UNL     1      97.342  83.526  78.598  1.00  0.00    -0.023 C 
ATOM      2  C   UNL     1      96.376  83.867  77.736  1.00  0.00     0.043 C 
ENDROOT
BRANCH   2   3
ATOM      3  C   UNL     1      96.733  84.321  76.364  1.00  0.00     0.155 C 
ATOM      4  O   UNL     1      96.211  85.308  75.851  1.00  0.00    -0.295 OA
BRANCH   3   5
ATOM      5  C   UNL     1      97.737  83.470  75.610  1.00  0.00     0.085 C 
BRANCH   5   6
ATOM      6  C   UNL     1      97.449  83.471  74.108  1.00  0.00     0.044 C 
BRANCH   6   7
ATOM      7  C   UNL     1      98.597  84.017  73.291  1.00  0.00    -0.044 A 
ATOM      8  C   UNL     1     100.261  83.712  71.590  1.00  0.00     0.160 A 
ATOM      9  C   UNL     1      99.202  83.207  72.345  1.00  0.00     0.054 A 
ATOM     10  C   UNL     1     100.701  85.020  71.792  1.00  0.00     0.157 A 
ATOM     11  C   UNL     1     100.081  85.823  72.750  1.00  0.00     0.050 A 
ATOM     12  C   UNL     1      99.022  85.318  73.504  1.00  0.00     0.008 A 
BRANCH   8  13
ATOM     13  O   UNL     1     100.859  82.917  70.658  1.00  0.00    -0.493 OA
ATOM     14  C   UNL     1     100.207  81.689  70.341  1.00  0.00     0.278 C 
ENDBRANCH   8  13
BRANCH  10  15
ATOM     15  O   UNL     1     101.734  85.524  71.062  1.00  0.00    -0.504 OA
ATOM     16  H   UNL     1     101.591  85.291  70.128  1.00  0.00     0.293 HD
ENDBRANCH  10  15
ENDBRANCH   6   7
ENDBRANCH   5   6
ENDBRANCH   3   5
ENDBRANCH   2   3
BRANCH   1  17
ATOM     17  C   UNL     1      97.064  83.060  79.998  1.00  0.00     0.027 C 
BRANCH  17  18
ATOM     18  C   UNL     1      98.256  82.341  80.640  1.00  0.00     0.004 C 
BRANCH  18  19
ATOM     19  C   UNL     1      99.260  81.790  79.623  1.00  0.00     0.000 C 
BRANCH  19  20
ATOM     20  C   UNL     1      99.059  80.289  79.408  1.00  0.00    -0.003 C 
ATOM     21  C   UNL     1      98.149  80.013  78.222  1.00  0.00     0.004 C 
ENDBRANCH  19  20
ENDBRANCH  18  19
ENDBRANCH  17  18
ENDBRANCH   1  17
TORSDOF 10
ENDMDL
