MODEL 1
REMARK VINA RESULT:    -6.438      0.000      0.000
REMARK INTER + INTRA:         -11.657
REMARK INTER:                 -10.579
REMARK INTRA:                  -1.079
REMARK UNBOUND:                -1.079
REMARK SMILES CCCCC[C@H](O)CC(=O)CCc1ccc(O)c(OC)c1
REMARK SMILES IDX 8 1 6 2 7 3 5 5 4 6 3 7 2 8 1 9 9 10 10 11 11 12 12 13 13 14
REMARK SMILES IDX 21 15 14 16 18 17 15 18 16 19 19 20 20 21 17 22
REMARK H PARENT 7 4 17 23
REMARK Flexibility Score: inf
ROOT
ATOM      1  C   UNL     1      93.136  93.664  76.819  1.00  0.00     0.107 C 
ENDROOT
BRANCH   1   2
ATOM      2  C   UNL     1      93.803  93.919  75.465  1.00  0.00     0.121 C 
BRANCH   2   3
ATOM      3  O   UNL     1      93.326  95.144  74.914  1.00  0.00    -0.393 OA
ATOM      4  H   UNL     1      93.488  95.122  73.955  1.00  0.00     0.210 HD
ENDBRANCH   2   3
BRANCH   2   5
ATOM      5  C   UNL     1      95.334  93.965  75.549  1.00  0.00     0.032 C 
BRANCH   5   6
ATOM      6  C   UNL     1      95.841  93.699  76.972  1.00  0.00     0.003 C 
BRANCH   6   7
ATOM      7  C   UNL     1      96.448  94.937  77.641  1.00  0.00    -0.000 C 
BRANCH   7   8
ATOM      8  C   UNL     1      95.812  95.279  78.987  1.00  0.00    -0.003 C 
ATOM      9  C   UNL     1      95.808  94.078  79.919  1.00  0.00     0.004 C 
ENDBRANCH   7   8
ENDBRANCH   6   7
ENDBRANCH   5   6
ENDBRANCH   2   5
ENDBRANCH   1   2
BRANCH   1  10
ATOM     10  C   UNL     1      91.661  93.317  76.700  1.00  0.00     0.135 C 
ATOM     11  O   UNL     1      90.984  93.742  75.764  1.00  0.00    -0.300 OA
BRANCH  10  12
ATOM     12  C   UNL     1      91.091  92.390  77.763  1.00  0.00     0.080 C 
BRANCH  12  13
ATOM     13  C   UNL     1      89.775  91.725  77.358  1.00  0.00     0.043 C 
BRANCH  13  14
ATOM     14  C   UNL     1      89.972  90.410  76.642  1.00  0.00    -0.044 A 
ATOM     15  C   UNL     1      89.945  90.363  75.248  1.00  0.00     0.054 A 
ATOM     16  C   UNL     1      90.183  89.242  77.375  1.00  0.00     0.008 A 
ATOM     17  C   UNL     1      90.128  89.148  74.588  1.00  0.00     0.160 A 
ATOM     18  C   UNL     1      90.366  88.026  76.715  1.00  0.00     0.050 A 
ATOM     19  C   UNL     1      90.339  87.980  75.321  1.00  0.00     0.157 A 
BRANCH  17  20
ATOM     20  O   UNL     1      90.098  89.114  73.226  1.00  0.00    -0.493 OA
ATOM     21  C   UNL     1      90.317  90.347  72.543  1.00  0.00     0.278 C 
ENDBRANCH  17  20
BRANCH  19  22
ATOM     22  O   UNL     1      90.519  86.787  74.688  1.00  0.00    -0.504 OA
ATOM     23  H   UNL     1      90.873  86.952  73.797  1.00  0.00     0.293 HD
ENDBRANCH  19  22
ENDBRANCH  13  14
ENDBRANCH  12  13
ENDBRANCH  10  12
ENDBRANCH   1  10
TORSDOF 12
ENDMDL
MODEL 2
REMARK VINA RESULT:    -6.310     12.594     15.030
REMARK INTER + INTRA:         -11.446
REMARK INTER:                  -9.164
REMARK INTRA:                  -2.282
REMARK UNBOUND:                -1.079
REMARK SMILES CCCCC[C@H](O)CC(=O)CCc1ccc(O)c(OC)c1
REMARK SMILES IDX 8 1 6 2 7 3 5 5 4 6 3 7 2 8 1 9 9 10 10 11 11 12 12 13 13 14
REMARK SMILES IDX 21 15 14 16 18 17 15 18 16 19 19 20 20 21 17 22
REMARK H PARENT 7 4 17 23
REMARK Flexibility Score: inf
ROOT
ATOM      1  C   UNL     1      84.679  90.100  87.191  1.00  0.00     0.107 C 
ENDROOT
BRANCH   1   2
ATOM      2  C   UNL     1      84.174  91.020  88.305  1.00  0.00     0.121 C 
BRANCH   2   3
ATOM      3  O   UNL     1      83.747  92.262  87.750  1.00  0.00    -0.393 OA
ATOM      4  H   UNL     1      84.392  92.942  88.012  1.00  0.00     0.210 HD
ENDBRANCH   2   3
BRANCH   2   5
ATOM      5  C   UNL     1      83.024  90.407  89.114  1.00  0.00     0.032 C 
BRANCH   5   6
ATOM      6  C   UNL     1      81.920  89.843  88.211  1.00  0.00     0.003 C 
BRANCH   6   7
ATOM      7  C   UNL     1      81.386  88.486  88.681  1.00  0.00    -0.000 C 
BRANCH   7   8
ATOM      8  C   UNL     1      79.943  88.217  88.259  1.00  0.00    -0.003 C 
ATOM      9  C   UNL     1      79.633  86.728  88.262  1.00  0.00     0.004 C 
ENDBRANCH   7   8
ENDBRANCH   6   7
ENDBRANCH   5   6
ENDBRANCH   2   5
ENDBRANCH   1   2
BRANCH   1  10
ATOM     10  C   UNL     1      84.919  90.830  85.879  1.00  0.00     0.135 C 
ATOM     11  O   UNL     1      85.738  91.745  85.805  1.00  0.00    -0.300 OA
BRANCH  10  12
ATOM     12  C   UNL     1      84.134  90.339  84.672  1.00  0.00     0.080 C 
BRANCH  12  13
ATOM     13  C   UNL     1      82.637  90.642  84.748  1.00  0.00     0.043 C 
BRANCH  13  14
ATOM     14  C   UNL     1      81.778  89.400  84.709  1.00  0.00    -0.044 A 
ATOM     15  C   UNL     1      82.353  88.148  84.922  1.00  0.00     0.054 A 
ATOM     16  C   UNL     1      80.410  89.506  84.459  1.00  0.00     0.008 A 
ATOM     17  C   UNL     1      81.559  87.001  84.887  1.00  0.00     0.160 A 
ATOM     18  C   UNL     1      79.616  88.360  84.424  1.00  0.00     0.050 A 
ATOM     19  C   UNL     1      80.191  87.107  84.637  1.00  0.00     0.157 A 
BRANCH  17  20
ATOM     20  O   UNL     1      82.132  85.783  85.096  1.00  0.00    -0.493 OA
ATOM     21  C   UNL     1      82.535  85.477  86.430  1.00  0.00     0.278 C 
ENDBRANCH  17  20
BRANCH  19  22
ATOM     22  O   UNL     1      79.405  85.995  84.600  1.00  0.00    -0.504 OA
ATOM     23  H   UNL     1      79.438  85.555  85.467  1.00  0.00     0.293 HD
ENDBRANCH  19  22
ENDBRANCH  13  14
ENDBRANCH  12  13
ENDBRANCH  10  12
ENDBRANCH   1  10
TORSDOF 12
ENDMDL
MODEL 3
REMARK VINA RESULT:    -6.113     12.923     15.973
REMARK INTER + INTRA:         -11.122
REMARK INTER:                  -9.305
REMARK INTRA:                  -1.817
REMARK UNBOUND:                -1.079
REMARK SMILES CCCCC[C@H](O)CC(=O)CCc1ccc(O)c(OC)c1
REMARK SMILES IDX 8 1 6 2 7 3 5 5 4 6 3 7 2 8 1 9 9 10 10 11 11 12 12 13 13 14
REMARK SMILES IDX 21 15 14 16 18 17 15 18 16 19 19 20 20 21 17 22
REMARK H PARENT 7 4 17 23
REMARK Flexibility Score: inf
ROOT
ATOM      1  C   UNL     1      81.573  87.065  84.434  1.00  0.00     0.107 C 
ENDROOT
BRANCH   1   2
ATOM      2  C   UNL     1      81.377  85.681  85.059  1.00  0.00     0.121 C 
BRANCH   2   3
ATOM      3  O   UNL     1      82.069  84.701  84.289  1.00  0.00    -0.393 OA
ATOM      4  H   UNL     1      81.550  83.878  84.319  1.00  0.00     0.210 HD
ENDBRANCH   2   3
BRANCH   2   5
ATOM      5  C   UNL     1      81.852  85.607  86.515  1.00  0.00     0.032 C 
BRANCH   5   6
ATOM      6  C   UNL     1      81.448  86.850  87.317  1.00  0.00     0.003 C 
BRANCH   6   7
ATOM      7  C   UNL     1      79.990  86.821  87.786  1.00  0.00    -0.000 C 
BRANCH   7   8
ATOM      8  C   UNL     1      79.824  87.072  89.284  1.00  0.00    -0.003 C 
ATOM      9  C   UNL     1      81.142  87.473  89.928  1.00  0.00     0.004 C 
ENDBRANCH   7   8
ENDBRANCH   6   7
ENDBRANCH   5   6
ENDBRANCH   2   5
ENDBRANCH   1   2
BRANCH   1  10
ATOM     10  C   UNL     1      80.284  87.665  83.898  1.00  0.00     0.135 C 
ATOM     11  O   UNL     1      79.765  87.232  82.869  1.00  0.00    -0.300 OA
BRANCH  10  12
ATOM     12  C   UNL     1      79.658  88.781  84.719  1.00  0.00     0.080 C 
BRANCH  12  13
ATOM     13  C   UNL     1      80.430  90.100  84.654  1.00  0.00     0.043 C 
BRANCH  13  14
ATOM     14  C   UNL     1      81.415  90.266  85.787  1.00  0.00    -0.044 A 
ATOM     15  C   UNL     1      82.785  90.268  85.526  1.00  0.00     0.054 A 
ATOM     16  C   UNL     1      80.953  90.418  87.095  1.00  0.00     0.008 A 
ATOM     17  C   UNL     1      83.694  90.423  86.573  1.00  0.00     0.160 A 
ATOM     18  C   UNL     1      81.862  90.572  88.142  1.00  0.00     0.050 A 
ATOM     19  C   UNL     1      83.232  90.574  87.881  1.00  0.00     0.157 A 
BRANCH  17  20
ATOM     20  O   UNL     1      85.030  90.423  86.306  1.00  0.00    -0.493 OA
ATOM     21  C   UNL     1      85.544  91.533  85.573  1.00  0.00     0.278 C 
ENDBRANCH  17  20
BRANCH  19  22
ATOM     22  O   UNL     1      84.109  90.726  88.912  1.00  0.00    -0.504 OA
ATOM     23  H   UNL     1      84.883  90.158  88.755  1.00  0.00     0.293 HD
ENDBRANCH  19  22
ENDBRANCH  13  14
ENDBRANCH  12  13
ENDBRANCH  10  12
ENDBRANCH   1  10
TORSDOF 12
ENDMDL
MODEL 4
REMARK VINA RESULT:    -6.037     13.634     16.595
REMARK INTER + INTRA:         -10.998
REMARK INTER:                  -8.761
REMARK INTRA:                  -2.237
REMARK UNBOUND:                -1.079
REMARK SMILES CCCCC[C@H](O)CC(=O)CCc1ccc(O)c(OC)c1
REMARK SMILES IDX 8 1 6 2 7 3 5 5 4 6 3 7 2 8 1 9 9 10 10 11 11 12 12 13 13 14
REMARK SMILES IDX 21 15 14 16 18 17 15 18 16 19 19 20 20 21 17 22
REMARK H PARENT 7 4 17 23
REMARK Flexibility Score: inf
ROOT
ATOM      1  C   UNL     1      80.801  85.857  85.294  1.00  0.00     0.107 C 
ENDROOT
BRANCH   1   2
ATOM      2  C   UNL     1      80.938  86.882  84.166  1.00  0.00     0.121 C 
BRANCH   2   3
ATOM      3  O   UNL     1      81.102  86.209  82.919  1.00  0.00    -0.393 OA
ATOM      4  H   UNL     1      82.024  86.334  82.633  1.00  0.00     0.210 HD
ENDBRANCH   2   3
BRANCH   2   5
ATOM      5  C   UNL     1      79.740  87.835  84.071  1.00  0.00     0.032 C 
BRANCH   5   6
ATOM      6  C   UNL     1      80.003  89.163  84.791  1.00  0.00     0.003 C 
BRANCH   6   7
ATOM      7  C   UNL     1      81.301  89.847  84.349  1.00  0.00    -0.000 C 
BRANCH   7   8
ATOM      8  C   UNL     1      82.263  90.136  85.499  1.00  0.00    -0.003 C 
ATOM      9  C   UNL     1      83.467  89.207  85.462  1.00  0.00     0.004 C 
ENDBRANCH   7   8
ENDBRANCH   6   7
ENDBRANCH   5   6
ENDBRANCH   2   5
ENDBRANCH   1   2
BRANCH   1  10
ATOM     10  C   UNL     1      81.988  85.854  86.244  1.00  0.00     0.135 C 
ATOM     11  O   UNL     1      83.136  85.710  85.821  1.00  0.00    -0.300 OA
BRANCH  10  12
ATOM     12  C   UNL     1      81.685  86.081  87.717  1.00  0.00     0.080 C 
BRANCH  12  13
ATOM     13  C   UNL     1      80.461  86.966  87.963  1.00  0.00     0.043 C 
BRANCH  13  14
ATOM     14  C   UNL     1      80.822  88.367  88.397  1.00  0.00    -0.044 A 
ATOM     15  C   UNL     1      82.083  88.628  88.933  1.00  0.00     0.054 A 
ATOM     16  C   UNL     1      79.893  89.399  88.263  1.00  0.00     0.008 A 
ATOM     17  C   UNL     1      82.415  89.923  89.333  1.00  0.00     0.160 A 
ATOM     18  C   UNL     1      80.226  90.694  88.663  1.00  0.00     0.050 A 
ATOM     19  C   UNL     1      81.487  90.955  89.199  1.00  0.00     0.157 A 
BRANCH  17  20
ATOM     20  O   UNL     1      83.650  90.166  89.856  1.00  0.00    -0.493 OA
ATOM     21  C   UNL     1      83.807  89.980  91.262  1.00  0.00     0.278 C 
ENDBRANCH  17  20
BRANCH  19  22
ATOM     22  O   UNL     1      81.800  92.223  89.586  1.00  0.00    -0.504 OA
ATOM     23  H   UNL     1      81.788  92.804  88.807  1.00  0.00     0.293 HD
ENDBRANCH  19  22
ENDBRANCH  13  14
ENDBRANCH  12  13
ENDBRANCH  10  12
ENDBRANCH   1  10
TORSDOF 12
ENDMDL
MODEL 5
REMARK VINA RESULT:    -5.892     13.093     15.178
REMARK INTER + INTRA:         -10.760
REMARK INTER:                  -8.948
REMARK INTRA:                  -1.812
REMARK UNBOUND:                -1.079
REMARK SMILES CCCCC[C@H](O)CC(=O)CCc1ccc(O)c(OC)c1
REMARK SMILES IDX 8 1 6 2 7 3 5 5 4 6 3 7 2 8 1 9 9 10 10 11 11 12 12 13 13 14
REMARK SMILES IDX 21 15 14 16 18 17 15 18 16 19 19 20 20 21 17 22
REMARK H PARENT 7 4 17 23
REMARK Flexibility Score: inf
ROOT
ATOM      1  C   UNL     1      81.948  90.988  89.815  1.00  0.00     0.107 C 
ENDROOT
BRANCH   1   2
ATOM      2  C   UNL     1      83.368  90.616  89.383  1.00  0.00     0.121 C 
BRANCH   2   3
ATOM      3  O   UNL     1      83.490  89.198  89.292  1.00  0.00    -0.393 OA
ATOM      4  H   UNL     1      82.732  88.804  89.757  1.00  0.00     0.210 HD
ENDBRANCH   2   3
BRANCH   2   5
ATOM      5  C   UNL     1      83.772  91.244  88.044  1.00  0.00     0.032 C 
BRANCH   5   6
ATOM      6  C   UNL     1      84.687  90.323  87.227  1.00  0.00     0.003 C 
BRANCH   6   7
ATOM      7  C   UNL     1      85.490  91.064  86.153  1.00  0.00    -0.000 C 
BRANCH   7   8
ATOM      8  C   UNL     1      85.223  90.562  84.735  1.00  0.00    -0.003 C 
ATOM      9  C   UNL     1      83.748  90.664  84.378  1.00  0.00     0.004 C 
ENDBRANCH   7   8
ENDBRANCH   6   7
ENDBRANCH   5   6
ENDBRANCH   2   5
ENDBRANCH   1   2
BRANCH   1  10
ATOM     10  C   UNL     1      81.028  89.784  89.937  1.00  0.00     0.135 C 
ATOM     11  O   UNL     1      81.081  89.043  90.918  1.00  0.00    -0.300 OA
BRANCH  10  12
ATOM     12  C   UNL     1      80.022  89.579  88.814  1.00  0.00     0.080 C 
BRANCH  12  13
ATOM     13  C   UNL     1      80.393  90.299  87.516  1.00  0.00     0.043 C 
BRANCH  13  14
ATOM     14  C   UNL     1      80.651  89.353  86.368  1.00  0.00    -0.044 A 
ATOM     15  C   UNL     1      81.668  88.403  86.460  1.00  0.00     0.054 A 
ATOM     16  C   UNL     1      79.870  89.429  85.214  1.00  0.00     0.008 A 
ATOM     17  C   UNL     1      81.904  87.529  85.398  1.00  0.00     0.160 A 
ATOM     18  C   UNL     1      80.106  88.555  84.152  1.00  0.00     0.050 A 
ATOM     19  C   UNL     1      81.124  87.606  84.245  1.00  0.00     0.157 A 
BRANCH  17  20
ATOM     20  O   UNL     1      82.902  86.607  85.500  1.00  0.00    -0.493 OA
ATOM     21  C   UNL     1      82.624  85.433  86.261  1.00  0.00     0.278 C 
ENDBRANCH  17  20
BRANCH  19  22
ATOM     22  O   UNL     1      81.345  86.758  83.202  1.00  0.00    -0.504 OA
ATOM     23  H   UNL     1      80.922  85.903  83.393  1.00  0.00     0.293 HD
ENDBRANCH  19  22
ENDBRANCH  13  14
ENDBRANCH  12  13
ENDBRANCH  10  12
ENDBRANCH   1  10
TORSDOF 12
ENDMDL
MODEL 6
REMARK VINA RESULT:    -5.872     14.040     16.728
REMARK INTER + INTRA:         -10.727
REMARK INTER:                  -9.036
REMARK INTRA:                  -1.691
REMARK UNBOUND:                -1.079
REMARK SMILES CCCCC[C@H](O)CC(=O)CCc1ccc(O)c(OC)c1
REMARK SMILES IDX 8 1 6 2 7 3 5 5 4 6 3 7 2 8 1 9 9 10 10 11 11 12 12 13 13 14
REMARK SMILES IDX 21 15 14 16 18 17 15 18 16 19 19 20 20 21 17 22
REMARK H PARENT 7 4 17 23
REMARK Flexibility Score: inf
ROOT
ATOM      1  C   UNL     1      80.410  86.188  86.195  1.00  0.00     0.107 C 
ENDROOT
BRANCH   1   2
ATOM      2  C   UNL     1      81.106  86.315  84.838  1.00  0.00     0.121 C 
BRANCH   2   3
ATOM      3  O   UNL     1      81.437  85.021  84.341  1.00  0.00    -0.393 OA
ATOM      4  H   UNL     1      82.406  84.930  84.370  1.00  0.00     0.210 HD
ENDBRANCH   2   3
BRANCH   2   5
ATOM      5  C   UNL     1      80.258  87.055  83.796  1.00  0.00     0.032 C 
BRANCH   5   6
ATOM      6  C   UNL     1      79.836  88.448  84.279  1.00  0.00     0.003 C 
BRANCH   6   7
ATOM      7  C   UNL     1      80.931  89.506  84.108  1.00  0.00    -0.000 C 
BRANCH   7   8
ATOM      8  C   UNL     1      81.610  89.901  85.418  1.00  0.00    -0.003 C 
ATOM      9  C   UNL     1      83.032  89.365  85.488  1.00  0.00     0.004 C 
ENDBRANCH   7   8
ENDBRANCH   6   7
ENDBRANCH   5   6
ENDBRANCH   2   5
ENDBRANCH   1   2
BRANCH   1  10
ATOM     10  C   UNL     1      81.377  85.928  87.339  1.00  0.00     0.135 C 
ATOM     11  O   UNL     1      82.424  85.309  87.154  1.00  0.00    -0.300 OA
BRANCH  10  12
ATOM     12  C   UNL     1      81.002  86.509  88.694  1.00  0.00     0.080 C 
BRANCH  12  13
ATOM     13  C   UNL     1      80.585  87.980  88.639  1.00  0.00     0.043 C 
BRANCH  13  14
ATOM     14  C   UNL     1      81.624  88.911  89.218  1.00  0.00    -0.044 A 
ATOM     15  C   UNL     1      81.667  90.246  88.814  1.00  0.00     0.054 A 
ATOM     16  C   UNL     1      82.539  88.436  90.158  1.00  0.00     0.008 A 
ATOM     17  C   UNL     1      82.626  91.105  89.351  1.00  0.00     0.160 A 
ATOM     18  C   UNL     1      83.498  89.295  90.695  1.00  0.00     0.050 A 
ATOM     19  C   UNL     1      83.541  90.630  90.291  1.00  0.00     0.157 A 
BRANCH  17  20
ATOM     20  O   UNL     1      82.659  92.406  88.949  1.00  0.00    -0.493 OA
ATOM     21  C   UNL     1      83.296  92.683  87.703  1.00  0.00     0.278 C 
ENDBRANCH  17  20
BRANCH  19  22
ATOM     22  O   UNL     1      84.482  91.459  90.822  1.00  0.00    -0.504 OA
ATOM     23  H   UNL     1      84.041  92.248  91.183  1.00  0.00     0.293 HD
ENDBRANCH  19  22
ENDBRANCH  13  14
ENDBRANCH  12  13
ENDBRANCH  10  12
ENDBRANCH   1  10
TORSDOF 12
ENDMDL
MODEL 7
REMARK VINA RESULT:    -5.793     13.475     16.605
REMARK INTER + INTRA:         -10.596
REMARK INTER:                  -8.919
REMARK INTRA:                  -1.678
REMARK UNBOUND:                -1.079
REMARK SMILES CCCCC[C@H](O)CC(=O)CCc1ccc(O)c(OC)c1
REMARK SMILES IDX 8 1 6 2 7 3 5 5 4 6 3 7 2 8 1 9 9 10 10 11 11 12 12 13 13 14
REMARK SMILES IDX 21 15 14 16 18 17 15 18 16 19 19 20 20 21 17 22
REMARK H PARENT 7 4 17 23
REMARK Flexibility Score: inf
ROOT
ATOM      1  C   UNL     1      80.449  86.720  88.186  1.00  0.00     0.107 C 
ENDROOT
BRANCH   1   2
ATOM      2  C   UNL     1      81.867  86.339  87.752  1.00  0.00     0.121 C 
BRANCH   2   3
ATOM      3  O   UNL     1      82.428  85.422  88.688  1.00  0.00    -0.393 OA
ATOM      4  H   UNL     1      83.357  85.675  88.832  1.00  0.00     0.210 HD
ENDBRANCH   2   3
BRANCH   2   5
ATOM      5  C   UNL     1      81.920  85.724  86.348  1.00  0.00     0.032 C 
BRANCH   5   6
ATOM      6  C   UNL     1      80.556  85.765  85.649  1.00  0.00     0.003 C 
BRANCH   6   7
ATOM      7  C   UNL     1      80.638  86.211  84.185  1.00  0.00    -0.000 C 
BRANCH   7   8
ATOM      8  C   UNL     1      79.778  87.433  83.868  1.00  0.00    -0.003 C 
ATOM      9  C   UNL     1      80.636  88.661  83.607  1.00  0.00     0.004 C 
ENDBRANCH   7   8
ENDBRANCH   6   7
ENDBRANCH   5   6
ENDBRANCH   2   5
ENDBRANCH   1   2
BRANCH   1  10
ATOM     10  C   UNL     1      80.421  87.858  89.193  1.00  0.00     0.135 C 
ATOM     11  O   UNL     1      80.786  87.684  90.356  1.00  0.00    -0.300 OA
BRANCH  10  12
ATOM     12  C   UNL     1      79.964  89.214  88.678  1.00  0.00     0.080 C 
BRANCH  12  13
ATOM     13  C   UNL     1      80.328  89.470  87.214  1.00  0.00     0.043 C 
BRANCH  13  14
ATOM     14  C   UNL     1      81.677  90.129  87.046  1.00  0.00    -0.044 A 
ATOM     15  C   UNL     1      82.002  91.256  87.802  1.00  0.00     0.054 A 
ATOM     16  C   UNL     1      82.597  89.611  86.135  1.00  0.00     0.008 A 
ATOM     17  C   UNL     1      83.248  91.863  87.647  1.00  0.00     0.160 A 
ATOM     18  C   UNL     1      83.844  90.219  85.980  1.00  0.00     0.050 A 
ATOM     19  C   UNL     1      84.168  91.345  86.736  1.00  0.00     0.157 A 
BRANCH  17  20
ATOM     20  O   UNL     1      83.554  92.964  88.390  1.00  0.00    -0.493 OA
ATOM     21  C   UNL     1      82.808  94.151  88.128  1.00  0.00     0.278 C 
ENDBRANCH  17  20
BRANCH  19  22
ATOM     22  O   UNL     1      85.388  91.930  86.575  1.00  0.00    -0.504 OA
ATOM     23  H   UNL     1      85.599  91.968  85.627  1.00  0.00     0.293 HD
ENDBRANCH  19  22
ENDBRANCH  13  14
ENDBRANCH  12  13
ENDBRANCH  10  12
ENDBRANCH   1  10
TORSDOF 12
ENDMDL
MODEL 8
REMARK VINA RESULT:    -5.720     14.460     17.021
REMARK INTER + INTRA:         -10.478
REMARK INTER:                  -8.629
REMARK INTRA:                  -1.849
REMARK UNBOUND:                -1.079
REMARK SMILES CCCCC[C@H](O)CC(=O)CCc1ccc(O)c(OC)c1
REMARK SMILES IDX 8 1 6 2 7 3 5 5 4 6 3 7 2 8 1 9 9 10 10 11 11 12 12 13 13 14
REMARK SMILES IDX 21 15 14 16 18 17 15 18 16 19 19 20 20 21 17 22
REMARK H PARENT 7 4 17 23
REMARK Flexibility Score: inf
ROOT
ATOM      1  C   UNL     1      82.198  87.040  86.711  1.00  0.00     0.107 C 
ENDROOT
BRANCH   1   2
ATOM      2  C   UNL     1      82.257  86.001  85.589  1.00  0.00     0.121 C 
BRANCH   2   3
ATOM      3  O   UNL     1      82.655  84.739  86.119  1.00  0.00    -0.393 OA
ATOM      4  H   UNL     1      83.234  84.311  85.465  1.00  0.00     0.210 HD
ENDBRANCH   2   3
BRANCH   2   5
ATOM      5  C   UNL     1      80.923  85.840  84.849  1.00  0.00     0.032 C 
BRANCH   5   6
ATOM      6  C   UNL     1      80.725  86.917  83.776  1.00  0.00     0.003 C 
BRANCH   6   7
ATOM      7  C   UNL     1      79.502  87.805  84.026  1.00  0.00    -0.000 C 
BRANCH   7   8
ATOM      8  C   UNL     1      79.831  89.110  84.749  1.00  0.00    -0.003 C 
ATOM      9  C   UNL     1      81.185  89.654  84.321  1.00  0.00     0.004 C 
ENDBRANCH   7   8
ENDBRANCH   6   7
ENDBRANCH   5   6
ENDBRANCH   2   5
ENDBRANCH   1   2
BRANCH   1  10
ATOM     10  C   UNL     1      81.331  86.605  87.881  1.00  0.00     0.135 C 
ATOM     11  O   UNL     1      81.707  85.722  88.653  1.00  0.00    -0.300 OA
BRANCH  10  12
ATOM     12  C   UNL     1      80.015  87.343  88.067  1.00  0.00     0.080 C 
BRANCH  12  13
ATOM     13  C   UNL     1      80.042  88.374  89.197  1.00  0.00     0.043 C 
BRANCH  13  14
ATOM     14  C   UNL     1      81.077  89.454  88.988  1.00  0.00    -0.044 A 
ATOM     15  C   UNL     1      82.123  89.603  89.898  1.00  0.00     0.054 A 
ATOM     16  C   UNL     1      80.985  90.302  87.884  1.00  0.00     0.008 A 
ATOM     17  C   UNL     1      83.079  90.600  89.703  1.00  0.00     0.160 A 
ATOM     18  C   UNL     1      81.941  91.300  87.689  1.00  0.00     0.050 A 
ATOM     19  C   UNL     1      82.988  91.449  88.599  1.00  0.00     0.157 A 
BRANCH  17  20
ATOM     20  O   UNL     1      84.096  90.737  90.599  1.00  0.00    -0.493 OA
ATOM     21  C   UNL     1      84.034  89.935  91.777  1.00  0.00     0.278 C 
ENDBRANCH  17  20
BRANCH  19  22
ATOM     22  O   UNL     1      83.915  92.426  88.399  1.00  0.00    -0.504 OA
ATOM     23  H   UNL     1      84.211  92.763  89.262  1.00  0.00     0.293 HD
ENDBRANCH  19  22
ENDBRANCH  13  14
ENDBRANCH  12  13
ENDBRANCH  10  12
ENDBRANCH   1  10
TORSDOF 12
ENDMDL
MODEL 9
REMARK VINA RESULT:    -5.720     13.430     15.465
REMARK INTER + INTRA:         -10.478
REMARK INTER:                  -9.173
REMARK INTRA:                  -1.304
REMARK UNBOUND:                -1.079
REMARK SMILES CCCCC[C@H](O)CC(=O)CCc1ccc(O)c(OC)c1
REMARK SMILES IDX 8 1 6 2 7 3 5 5 4 6 3 7 2 8 1 9 9 10 10 11 11 12 12 13 13 14
REMARK SMILES IDX 21 15 14 16 18 17 15 18 16 19 19 20 20 21 17 22
REMARK H PARENT 7 4 17 23
REMARK Flexibility Score: inf
ROOT
ATOM      1  C   UNL     1      83.563  90.688  85.096  1.00  0.00     0.107 C 
ENDROOT
BRANCH   1   2
ATOM      2  C   UNL     1      83.974  90.739  86.569  1.00  0.00     0.121 C 
BRANCH   2   3
ATOM      3  O   UNL     1      85.260  90.147  86.733  1.00  0.00    -0.393 OA
ATOM      4  H   UNL     1      85.314  89.800  87.641  1.00  0.00     0.210 HD
ENDBRANCH   2   3
BRANCH   2   5
ATOM      5  C   UNL     1      83.997  92.163  87.137  1.00  0.00     0.032 C 
BRANCH   5   6
ATOM      6  C   UNL     1      82.800  92.438  88.055  1.00  0.00     0.003 C 
BRANCH   6   7
ATOM      7  C   UNL     1      82.818  93.840  88.673  1.00  0.00    -0.000 C 
BRANCH   7   8
ATOM      8  C   UNL     1      83.707  94.828  87.921  1.00  0.00    -0.003 C 
ATOM      9  C   UNL     1      82.883  95.922  87.258  1.00  0.00     0.004 C 
ENDBRANCH   7   8
ENDBRANCH   6   7
ENDBRANCH   5   6
ENDBRANCH   2   5
ENDBRANCH   1   2
BRANCH   1  10
ATOM     10  C   UNL     1      82.801  89.423  84.733  1.00  0.00     0.135 C 
ATOM     11  O   UNL     1      83.350  88.322  84.765  1.00  0.00    -0.300 OA
BRANCH  10  12
ATOM     12  C   UNL     1      81.331  89.591  84.380  1.00  0.00     0.080 C 
BRANCH  12  13
ATOM     13  C   UNL     1      80.429  89.821  85.594  1.00  0.00     0.043 C 
BRANCH  13  14
ATOM     14  C   UNL     1      80.543  88.729  86.632  1.00  0.00    -0.044 A 
ATOM     15  C   UNL     1      80.916  89.044  87.938  1.00  0.00     0.054 A 
ATOM     16  C   UNL     1      80.275  87.405  86.283  1.00  0.00     0.008 A 
ATOM     17  C   UNL     1      81.021  88.035  88.896  1.00  0.00     0.160 A 
ATOM     18  C   UNL     1      80.379  86.396  87.240  1.00  0.00     0.050 A 
ATOM     19  C   UNL     1      80.753  86.711  88.547  1.00  0.00     0.157 A 
BRANCH  17  20
ATOM     20  O   UNL     1      81.387  88.355  90.168  1.00  0.00    -0.493 OA
ATOM     21  C   UNL     1      82.710  88.853  90.356  1.00  0.00     0.278 C 
ENDBRANCH  17  20
BRANCH  19  22
ATOM     22  O   UNL     1      80.851  85.718  89.473  1.00  0.00    -0.504 OA
ATOM     23  H   UNL     1      80.229  85.007  89.242  1.00  0.00     0.293 HD
ENDBRANCH  19  22
ENDBRANCH  13  14
ENDBRANCH  12  13
ENDBRANCH  10  12
ENDBRANCH   1  10
TORSDOF 12
ENDMDL
MODEL 10
REMARK VINA RESULT:    -5.673     13.342     16.457
REMARK INTER + INTRA:         -10.400
REMARK INTER:                  -9.380
REMARK INTRA:                  -1.020
REMARK UNBOUND:                -1.079
REMARK SMILES CCCCC[C@H](O)CC(=O)CCc1ccc(O)c(OC)c1
REMARK SMILES IDX 8 1 6 2 7 3 5 5 4 6 3 7 2 8 1 9 9 10 10 11 11 12 12 13 13 14
REMARK SMILES IDX 21 15 14 16 18 17 15 18 16 19 19 20 20 21 17 22
REMARK H PARENT 7 4 17 23
REMARK Flexibility Score: inf
ROOT
ATOM      1  C   UNL     1      82.308  86.896  86.101  1.00  0.00     0.107 C 
ENDROOT
BRANCH   1   2
ATOM      2  C   UNL     1      81.790  85.998  87.227  1.00  0.00     0.121 C 
BRANCH   2   3
ATOM      3  O   UNL     1      82.780  85.031  87.568  1.00  0.00    -0.393 OA
ATOM      4  H   UNL     1      82.325  84.263  87.955  1.00  0.00     0.210 HD
ENDBRANCH   2   3
BRANCH   2   5
ATOM      5  C   UNL     1      81.394  86.781  88.485  1.00  0.00     0.032 C 
BRANCH   5   6
ATOM      6  C   UNL     1      79.876  86.797  88.700  1.00  0.00     0.003 C 
BRANCH   6   7
ATOM      7  C   UNL     1      79.464  86.464  90.138  1.00  0.00    -0.000 C 
BRANCH   7   8
ATOM      8  C   UNL     1      78.632  87.558  90.805  1.00  0.00    -0.003 C 
ATOM      9  C   UNL     1      78.652  88.843  89.991  1.00  0.00     0.004 C 
ENDBRANCH   7   8
ENDBRANCH   6   7
ENDBRANCH   5   6
ENDBRANCH   2   5
ENDBRANCH   1   2
BRANCH   1  10
ATOM     10  C   UNL     1      81.256  87.195  85.045  1.00  0.00     0.135 C 
ATOM     11  O   UNL     1      81.115  86.460  84.067  1.00  0.00    -0.300 OA
BRANCH  10  12
ATOM     12  C   UNL     1      80.371  88.408  85.287  1.00  0.00     0.080 C 
BRANCH  12  13
ATOM     13  C   UNL     1      80.896  89.691  84.640  1.00  0.00     0.043 C 
BRANCH  13  14
ATOM     14  C   UNL     1      82.226  90.136  85.201  1.00  0.00    -0.044 A 
ATOM     15  C   UNL     1      82.316  90.568  86.524  1.00  0.00     0.054 A 
ATOM     16  C   UNL     1      83.365  90.113  84.396  1.00  0.00     0.008 A 
ATOM     17  C   UNL     1      83.545  90.978  87.042  1.00  0.00     0.160 A 
ATOM     18  C   UNL     1      84.594  90.523  84.913  1.00  0.00     0.050 A 
ATOM     19  C   UNL     1      84.684  90.956  86.236  1.00  0.00     0.157 A 
BRANCH  17  20
ATOM     20  O   UNL     1      83.620  91.399  88.335  1.00  0.00    -0.493 OA
ATOM     21  C   UNL     1      83.616  90.392  89.346  1.00  0.00     0.278 C 
ENDBRANCH  17  20
BRANCH  19  22
ATOM     22  O   UNL     1      85.889  91.353  86.730  1.00  0.00    -0.504 OA
ATOM     23  H   UNL     1      86.262  92.034  86.145  1.00  0.00     0.293 HD
ENDBRANCH  19  22
ENDBRANCH  13  14
ENDBRANCH  12  13
ENDBRANCH  10  12
ENDBRANCH   1  10
TORSDOF 12
ENDMDL
