MODEL 1
REMARK VINA RESULT:    -6.635      0.000      0.000
REMARK INTER + INTRA:         -11.371
REMARK INTER:                 -10.707
REMARK INTRA:                  -0.663
REMARK UNBOUND:                -0.663
REMARK SMILES COc1cc(CNC(=O)CCCCC/C=C/C(C)C)ccc1O
REMARK SMILES IDX 11 1 10 2 8 3 7 4 9 6 6 7 5 8 3 9 22 10 4 11 21 12 20 13
REMARK SMILES IDX 2 14 1 15 23 16 12 18 13 19 14 20 15 21 16 22 17 23 18 24
REMARK SMILES IDX 19 25
REMARK H PARENT 7 5 23 17
REMARK Flexibility Score: inf
ROOT
ATOM      1  C   UNL     1      80.882  65.541  70.392  1.00  0.00     0.010 C 
ENDROOT
BRANCH   1   2
ATOM      2  C   UNL     1      79.998  65.650  71.661  1.00  0.00     0.100 C 
BRANCH   2   3
ATOM      3  C   UNL     1      80.727  66.096  72.863  1.00  0.00     0.220 C 
ATOM      4  N   UNL     1      81.954  65.576  73.144  1.00  0.00    -0.352 N 
ATOM      5  H   UNL     1      82.253  64.840  72.519  1.00  0.00     0.163 HD
ATOM      6  O   UNL     1      80.206  66.983  73.580  1.00  0.00    -0.275 OA
BRANCH   4   7
ATOM      7  C   UNL     1      82.804  65.987  74.214  1.00  0.00     0.151 C 
BRANCH   7   8
ATOM      8  C   UNL     1      83.693  67.116  73.837  1.00  0.00    -0.025 A 
ATOM      9  C   UNL     1      85.443  68.743  74.419  1.00  0.00     0.160 A 
ATOM     10  C   UNL     1      85.349  69.304  73.127  1.00  0.00     0.157 A 
ATOM     11  C   UNL     1      84.610  67.660  74.766  1.00  0.00     0.056 A 
ATOM     12  C   UNL     1      84.454  68.760  72.188  1.00  0.00     0.050 A 
ATOM     13  C   UNL     1      83.639  67.667  72.537  1.00  0.00     0.009 A 
BRANCH   9  14
ATOM     14  O   UNL     1      86.373  69.208  75.310  1.00  0.00    -0.493 OA
ATOM     15  C   UNL     1      87.160  68.178  75.930  1.00  0.00     0.278 C 
ENDBRANCH   9  14
BRANCH  10  16
ATOM     16  O   UNL     1      86.113  70.365  72.762  1.00  0.00    -0.504 OA
ATOM     17  H   UNL     1      86.934  70.353  73.260  1.00  0.00     0.293 HD
ENDBRANCH  10  16
ENDBRANCH   7   8
ENDBRANCH   4   7
ENDBRANCH   2   3
ENDBRANCH   1   2
BRANCH   1  18
ATOM     18  C   UNL     1      81.206  64.061  70.062  1.00  0.00     0.001 C 
BRANCH  18  19
ATOM     19  C   UNL     1      80.041  63.307  69.372  1.00  0.00     0.004 C 
BRANCH  19  20
ATOM     20  C   UNL     1      79.106  64.285  68.608  1.00  0.00     0.027 C 
BRANCH  20  21
ATOM     21  C   UNL     1      77.791  63.736  68.324  1.00  0.00    -0.031 C 
ATOM     22  C   UNL     1      76.659  64.423  68.557  1.00  0.00    -0.028 C 
BRANCH  22  23
ATOM     23  C   UNL     1      75.323  63.901  68.278  1.00  0.00     0.005 C 
ATOM     24  C   UNL     1      74.300  65.064  68.184  1.00  0.00     0.012 C 
ATOM     25  C   UNL     1      75.345  63.030  66.993  1.00  0.00     0.012 C 
ENDBRANCH  22  23
ENDBRANCH  20  21
ENDBRANCH  19  20
ENDBRANCH  18  19
ENDBRANCH   1  18
TORSDOF 11
ENDMDL
MODEL 2
REMARK VINA RESULT:    -6.361     21.695     24.465
REMARK INTER + INTRA:         -10.929
REMARK INTER:                 -10.169
REMARK INTRA:                  -0.760
REMARK UNBOUND:                -0.663
REMARK SMILES COc1cc(CNC(=O)CCCCC/C=C/C(C)C)ccc1O
REMARK SMILES IDX 11 1 10 2 8 3 7 4 9 6 6 7 5 8 3 9 22 10 4 11 21 12 20 13
REMARK SMILES IDX 2 14 1 15 23 16 12 18 13 19 14 20 15 21 16 22 17 23 18 24
REMARK SMILES IDX 19 25
REMARK H PARENT 7 5 23 17
REMARK Flexibility Score: inf
ROOT
ATOM      1  C   UNL     1      96.934  81.972  81.471  1.00  0.00     0.010 C 
ENDROOT
BRANCH   1   2
ATOM      2  C   UNL     1      96.652  83.313  82.197  1.00  0.00     0.100 C 
BRANCH   2   3
ATOM      3  C   UNL     1      96.022  83.157  83.521  1.00  0.00     0.220 C 
ATOM      4  N   UNL     1      94.669  83.251  83.645  1.00  0.00    -0.352 N 
ATOM      5  H   UNL     1      94.185  83.503  82.794  1.00  0.00     0.163 HD
ATOM      6  O   UNL     1      96.758  82.899  84.504  1.00  0.00    -0.275 OA
BRANCH   4   7
ATOM      7  C   UNL     1      93.928  83.026  84.843  1.00  0.00     0.151 C 
BRANCH   7   8
ATOM      8  C   UNL     1      93.072  81.814  84.767  1.00  0.00    -0.025 A 
ATOM      9  C   UNL     1      90.846  80.774  84.653  1.00  0.00     0.160 A 
ATOM     10  C   UNL     1      91.444  79.495  84.676  1.00  0.00     0.157 A 
ATOM     11  C   UNL     1      91.663  81.922  84.707  1.00  0.00     0.056 A 
ATOM     12  C   UNL     1      92.845  79.375  84.718  1.00  0.00     0.050 A 
ATOM     13  C   UNL     1      93.654  80.527  84.752  1.00  0.00     0.009 A 
BRANCH   9  14
ATOM     14  O   UNL     1      89.489  80.902  84.523  1.00  0.00    -0.493 OA
ATOM     15  C   UNL     1      89.022  82.260  84.549  1.00  0.00     0.278 C 
ENDBRANCH   9  14
BRANCH  10  16
ATOM     16  O   UNL     1      90.693  78.365  84.654  1.00  0.00    -0.504 OA
ATOM     17  H   UNL     1      91.046  77.734  85.286  1.00  0.00     0.293 HD
ENDBRANCH  10  16
ENDBRANCH   7   8
ENDBRANCH   4   7
ENDBRANCH   2   3
ENDBRANCH   1   2
BRANCH   1  18
ATOM     18  C   UNL     1      97.306  82.209  79.985  1.00  0.00     0.001 C 
BRANCH  18  19
ATOM     19  C   UNL     1      96.716  83.514  79.394  1.00  0.00     0.004 C 
BRANCH  19  20
ATOM     20  C   UNL     1      96.761  83.505  77.841  1.00  0.00     0.027 C 
BRANCH  20  21
ATOM     21  C   UNL     1      98.070  83.189  77.296  1.00  0.00    -0.031 C 
ATOM     22  C   UNL     1      98.375  83.383  76.001  1.00  0.00    -0.028 C 
BRANCH  22  23
ATOM     23  C   UNL     1      99.683  83.081  75.423  1.00  0.00     0.005 C 
ATOM     24  C   UNL     1     100.420  84.393  75.045  1.00  0.00     0.012 C 
ATOM     25  C   UNL     1     100.510  82.201  76.399  1.00  0.00     0.012 C 
ENDBRANCH  22  23
ENDBRANCH  20  21
ENDBRANCH  19  20
ENDBRANCH  18  19
ENDBRANCH   1  18
TORSDOF 11
ENDMDL
MODEL 3
REMARK VINA RESULT:    -6.278     21.615     23.550
REMARK INTER + INTRA:         -10.794
REMARK INTER:                 -10.144
REMARK INTRA:                  -0.650
REMARK UNBOUND:                -0.663
REMARK SMILES COc1cc(CNC(=O)CCCCC/C=C/C(C)C)ccc1O
REMARK SMILES IDX 11 1 10 2 8 3 7 4 9 6 6 7 5 8 3 9 22 10 4 11 21 12 20 13
REMARK SMILES IDX 2 14 1 15 23 16 12 18 13 19 14 20 15 21 16 22 17 23 18 24
REMARK SMILES IDX 19 25
REMARK H PARENT 7 5 23 17
REMARK Flexibility Score: inf
ROOT
ATOM      1  C   UNL     1      93.855  81.999  84.364  1.00  0.00     0.010 C 
ENDROOT
BRANCH   1   2
ATOM      2  C   UNL     1      94.747  83.268  84.367  1.00  0.00     0.100 C 
BRANCH   2   3
ATOM      3  C   UNL     1      96.116  83.041  83.867  1.00  0.00     0.220 C 
ATOM      4  N   UNL     1      96.334  82.132  82.877  1.00  0.00    -0.352 N 
ATOM      5  H   UNL     1      95.515  81.608  82.598  1.00  0.00     0.163 HD
ATOM      6  O   UNL     1      97.047  83.729  84.347  1.00  0.00    -0.275 OA
BRANCH   4   7
ATOM      7  C   UNL     1      97.586  81.885  82.238  1.00  0.00     0.151 C 
BRANCH   7   8
ATOM      8  C   UNL     1      97.521  82.063  80.765  1.00  0.00    -0.025 A 
ATOM      9  C   UNL     1      97.876  81.198  78.490  1.00  0.00     0.160 A 
ATOM     10  C   UNL     1      97.446  82.431  77.954  1.00  0.00     0.157 A 
ATOM     11  C   UNL     1      97.919  81.026  79.889  1.00  0.00     0.056 A 
ATOM     12  C   UNL     1      97.031  83.463  78.815  1.00  0.00     0.050 A 
ATOM     13  C   UNL     1      97.058  83.278  80.210  1.00  0.00     0.009 A 
BRANCH   9  14
ATOM     14  O   UNL     1      98.199  80.157  77.660  1.00  0.00    -0.493 OA
ATOM     15  C   UNL     1      98.718  79.002  78.340  1.00  0.00     0.278 C 
ENDBRANCH   9  14
BRANCH  10  16
ATOM     16  O   UNL     1      97.417  82.646  76.615  1.00  0.00    -0.504 OA
ATOM     17  H   UNL     1      98.203  82.267  76.214  1.00  0.00     0.293 HD
ENDBRANCH  10  16
ENDBRANCH   7   8
ENDBRANCH   4   7
ENDBRANCH   2   3
ENDBRANCH   1   2
BRANCH   1  18
ATOM     18  C   UNL     1      92.368  82.360  84.613  1.00  0.00     0.001 C 
BRANCH  18  19
ATOM     19  C   UNL     1      91.487  81.143  84.993  1.00  0.00     0.004 C 
BRANCH  19  20
ATOM     20  C   UNL     1      90.446  80.828  83.883  1.00  0.00     0.027 C 
BRANCH  20  21
ATOM     21  C   UNL     1      89.080  81.158  84.252  1.00  0.00    -0.031 C 
ATOM     22  C   UNL     1      88.602  82.413  84.191  1.00  0.00    -0.028 C 
BRANCH  22  23
ATOM     23  C   UNL     1      87.233  82.776  84.550  1.00  0.00     0.005 C 
ATOM     24  C   UNL     1      87.229  84.050  85.436  1.00  0.00     0.012 C 
ATOM     25  C   UNL     1      86.370  82.946  83.270  1.00  0.00     0.012 C 
ENDBRANCH  22  23
ENDBRANCH  20  21
ENDBRANCH  19  20
ENDBRANCH  18  19
ENDBRANCH   1  18
TORSDOF 11
ENDMDL
MODEL 4
REMARK VINA RESULT:    -6.116      2.047      2.769
REMARK INTER + INTRA:         -10.533
REMARK INTER:                  -9.790
REMARK INTRA:                  -0.743
REMARK UNBOUND:                -0.663
REMARK SMILES COc1cc(CNC(=O)CCCCC/C=C/C(C)C)ccc1O
REMARK SMILES IDX 11 1 10 2 8 3 7 4 9 6 6 7 5 8 3 9 22 10 4 11 21 12 20 13
REMARK SMILES IDX 2 14 1 15 23 16 12 18 13 19 14 20 15 21 16 22 17 23 18 24
REMARK SMILES IDX 19 25
REMARK H PARENT 7 5 23 17
REMARK Flexibility Score: inf
ROOT
ATOM      1  C   UNL     1      81.302  65.492  71.413  1.00  0.00     0.010 C 
ENDROOT
BRANCH   1   2
ATOM      2  C   UNL     1      81.823  65.688  69.966  1.00  0.00     0.100 C 
BRANCH   2   3
ATOM      3  C   UNL     1      83.266  65.983  69.882  1.00  0.00     0.220 C 
ATOM      4  N   UNL     1      83.850  66.779  70.820  1.00  0.00    -0.352 N 
ATOM      5  H   UNL     1      83.209  67.181  71.490  1.00  0.00     0.163 HD
ATOM      6  O   UNL     1      83.930  65.454  68.960  1.00  0.00    -0.275 OA
BRANCH   4   7
ATOM      7  C   UNL     1      85.245  67.065  70.913  1.00  0.00     0.151 C 
BRANCH   7   8
ATOM      8  C   UNL     1      85.589  67.846  72.130  1.00  0.00    -0.025 A 
ATOM      9  C   UNL     1      85.301  68.299  74.530  1.00  0.00     0.160 A 
ATOM     10  C   UNL     1      86.210  69.376  74.435  1.00  0.00     0.157 A 
ATOM     11  C   UNL     1      84.991  67.550  73.377  1.00  0.00     0.056 A 
ATOM     12  C   UNL     1      86.823  69.669  73.203  1.00  0.00     0.050 A 
ATOM     13  C   UNL     1      86.524  68.903  72.061  1.00  0.00     0.009 A 
BRANCH   9  14
ATOM     14  O   UNL     1      84.765  67.950  75.741  1.00  0.00    -0.493 OA
ATOM     15  C   UNL     1      83.718  66.969  75.660  1.00  0.00     0.278 C 
ENDBRANCH   9  14
BRANCH  10  16
ATOM     16  O   UNL     1      86.513  70.139  75.514  1.00  0.00    -0.504 OA
ATOM     17  H   UNL     1      85.979  69.862  76.262  1.00  0.00     0.293 HD
ENDBRANCH  10  16
ENDBRANCH   7   8
ENDBRANCH   4   7
ENDBRANCH   2   3
ENDBRANCH   1   2
BRANCH   1  18
ATOM     18  C   UNL     1      79.754  65.407  71.443  1.00  0.00     0.001 C 
BRANCH  18  19
ATOM     19  C   UNL     1      79.107  65.334  70.037  1.00  0.00     0.004 C 
BRANCH  19  20
ATOM     20  C   UNL     1      78.739  63.872  69.657  1.00  0.00     0.027 C 
BRANCH  20  21
ATOM     21  C   UNL     1      77.929  63.767  68.455  1.00  0.00    -0.031 C 
ATOM     22  C   UNL     1      77.259  64.815  67.946  1.00  0.00    -0.028 C 
BRANCH  22  23
ATOM     23  C   UNL     1      76.442  64.743  66.737  1.00  0.00     0.005 C 
ATOM     24  C   UNL     1      75.265  63.753  66.942  1.00  0.00     0.012 C 
ATOM     25  C   UNL     1      75.955  66.162  66.333  1.00  0.00     0.012 C 
ENDBRANCH  22  23
ENDBRANCH  20  21
ENDBRANCH  19  20
ENDBRANCH  18  19
ENDBRANCH   1  18
TORSDOF 11
ENDMDL
MODEL 5
REMARK VINA RESULT:    -6.113      2.071      2.731
REMARK INTER + INTRA:         -10.529
REMARK INTER:                  -9.814
REMARK INTRA:                  -0.715
REMARK UNBOUND:                -0.663
REMARK SMILES COc1cc(CNC(=O)CCCCC/C=C/C(C)C)ccc1O
REMARK SMILES IDX 11 1 10 2 8 3 7 4 9 6 6 7 5 8 3 9 22 10 4 11 21 12 20 13
REMARK SMILES IDX 2 14 1 15 23 16 12 18 13 19 14 20 15 21 16 22 17 23 18 24
REMARK SMILES IDX 19 25
REMARK H PARENT 7 5 23 17
REMARK Flexibility Score: inf
ROOT
ATOM      1  C   UNL     1      81.343  65.589  71.690  1.00  0.00     0.010 C 
ENDROOT
BRANCH   1   2
ATOM      2  C   UNL     1      81.936  66.021  70.325  1.00  0.00     0.100 C 
BRANCH   2   3
ATOM      3  C   UNL     1      83.385  66.293  70.359  1.00  0.00     0.220 C 
ATOM      4  N   UNL     1      83.943  66.857  71.466  1.00  0.00    -0.352 N 
ATOM      5  H   UNL     1      83.281  67.124  72.183  1.00  0.00     0.163 HD
ATOM      6  O   UNL     1      84.078  65.956  69.371  1.00  0.00    -0.275 OA
BRANCH   4   7
ATOM      7  C   UNL     1      85.337  67.084  71.669  1.00  0.00     0.151 C 
BRANCH   7   8
ATOM      8  C   UNL     1      85.616  67.870  72.899  1.00  0.00    -0.025 A 
ATOM      9  C   UNL     1      86.805  69.692  74.046  1.00  0.00     0.160 A 
ATOM     10  C   UNL     1      86.184  69.331  75.261  1.00  0.00     0.157 A 
ATOM     11  C   UNL     1      86.524  68.954  72.877  1.00  0.00     0.056 A 
ATOM     12  C   UNL     1      85.266  68.265  75.290  1.00  0.00     0.050 A 
ATOM     13  C   UNL     1      84.976  67.546  74.116  1.00  0.00     0.009 A 
BRANCH   9  14
ATOM     14  O   UNL     1      87.633  70.782  73.988  1.00  0.00    -0.493 OA
ATOM     15  C   UNL     1      89.033  70.458  73.998  1.00  0.00     0.278 C 
ENDBRANCH   9  14
BRANCH  10  16
ATOM     16  O   UNL     1      86.449  69.997  76.413  1.00  0.00    -0.504 OA
ATOM     17  H   UNL     1      87.131  70.653  76.253  1.00  0.00     0.293 HD
ENDBRANCH  10  16
ENDBRANCH   7   8
ENDBRANCH   4   7
ENDBRANCH   2   3
ENDBRANCH   1   2
BRANCH   1  18
ATOM     18  C   UNL     1      79.804  65.420  71.604  1.00  0.00     0.001 C 
BRANCH  18  19
ATOM     19  C   UNL     1      79.234  65.628  70.178  1.00  0.00     0.004 C 
BRANCH  19  20
ATOM     20  C   UNL     1      78.776  64.282  69.549  1.00  0.00     0.027 C 
BRANCH  20  21
ATOM     21  C   UNL     1      77.820  64.439  68.466  1.00  0.00    -0.031 C 
ATOM     22  C   UNL     1      76.609  64.995  68.651  1.00  0.00    -0.028 C 
BRANCH  22  23
ATOM     23  C   UNL     1      75.628  65.171  67.583  1.00  0.00     0.005 C 
ATOM     24  C   UNL     1      76.270  65.911  66.380  1.00  0.00     0.012 C 
ATOM     25  C   UNL     1      75.023  63.800  67.177  1.00  0.00     0.012 C 
ENDBRANCH  22  23
ENDBRANCH  20  21
ENDBRANCH  19  20
ENDBRANCH  18  19
ENDBRANCH   1  18
TORSDOF 11
ENDMDL
MODEL 6
REMARK VINA RESULT:    -5.903     22.252     24.635
REMARK INTER + INTRA:         -10.190
REMARK INTER:                  -9.433
REMARK INTRA:                  -0.758
REMARK UNBOUND:                -0.663
REMARK SMILES COc1cc(CNC(=O)CCCCC/C=C/C(C)C)ccc1O
REMARK SMILES IDX 11 1 10 2 8 3 7 4 9 6 6 7 5 8 3 9 22 10 4 11 21 12 20 13
REMARK SMILES IDX 2 14 1 15 23 16 12 18 13 19 14 20 15 21 16 22 17 23 18 24
REMARK SMILES IDX 19 25
REMARK H PARENT 7 5 23 17
REMARK Flexibility Score: inf
ROOT
ATOM      1  C   UNL     1      74.389  88.751  69.561  1.00  0.00     0.010 C 
ENDROOT
BRANCH   1   2
ATOM      2  C   UNL     1      75.714  89.293  68.964  1.00  0.00     0.100 C 
BRANCH   2   3
ATOM      3  C   UNL     1      76.667  88.242  68.563  1.00  0.00     0.220 C 
ATOM      4  N   UNL     1      76.461  86.955  68.957  1.00  0.00    -0.352 N 
ATOM      5  H   UNL     1      75.677  86.825  69.581  1.00  0.00     0.163 HD
ATOM      6  O   UNL     1      77.630  88.561  67.827  1.00  0.00    -0.275 OA
BRANCH   4   7
ATOM      7  C   UNL     1      77.247  85.831  68.562  1.00  0.00     0.151 C 
BRANCH   7   8
ATOM      8  C   UNL     1      76.717  85.162  67.346  1.00  0.00    -0.025 A 
ATOM      9  C   UNL     1      74.876  84.739  65.771  1.00  0.00     0.160 A 
ATOM     10  C   UNL     1      75.697  83.841  65.054  1.00  0.00     0.157 A 
ATOM     11  C   UNL     1      75.388  85.385  66.914  1.00  0.00     0.056 A 
ATOM     12  C   UNL     1      77.025  83.625  65.464  1.00  0.00     0.050 A 
ATOM     13  C   UNL     1      77.535  84.289  66.595  1.00  0.00     0.009 A 
BRANCH   9  14
ATOM     14  O   UNL     1      73.611  85.023  65.330  1.00  0.00    -0.493 OA
ATOM     15  C   UNL     1      72.571  84.340  66.050  1.00  0.00     0.278 C 
ENDBRANCH   9  14
BRANCH  10  16
ATOM     16  O   UNL     1      75.233  83.178  63.965  1.00  0.00    -0.504 OA
ATOM     17  H   UNL     1      74.566  82.543  64.238  1.00  0.00     0.293 HD
ENDBRANCH  10  16
ENDBRANCH   7   8
ENDBRANCH   4   7
ENDBRANCH   2   3
ENDBRANCH   1   2
BRANCH   1  18
ATOM     18  C   UNL     1      73.766  89.765  70.553  1.00  0.00     0.001 C 
BRANCH  18  19
ATOM     19  C   UNL     1      74.607  91.054  70.738  1.00  0.00     0.004 C 
BRANCH  19  20
ATOM     20  C   UNL     1      73.922  92.041  71.724  1.00  0.00     0.027 C 
BRANCH  20  21
ATOM     21  C   UNL     1      74.852  92.925  72.406  1.00  0.00    -0.031 C 
ATOM     22  C   UNL     1      74.521  93.592  73.525  1.00  0.00    -0.028 C 
BRANCH  22  23
ATOM     23  C   UNL     1      75.433  94.483  74.237  1.00  0.00     0.005 C 
ATOM     24  C   UNL     1      76.051  93.756  75.461  1.00  0.00     0.012 C 
ATOM     25  C   UNL     1      76.517  95.028  73.267  1.00  0.00     0.012 C 
ENDBRANCH  22  23
ENDBRANCH  20  21
ENDBRANCH  19  20
ENDBRANCH  18  19
ENDBRANCH   1  18
TORSDOF 11
ENDMDL
MODEL 7
REMARK VINA RESULT:    -5.847     18.576     22.248
REMARK INTER + INTRA:         -10.100
REMARK INTER:                  -9.051
REMARK INTRA:                  -1.049
REMARK UNBOUND:                -0.663
REMARK SMILES COc1cc(CNC(=O)CCCCC/C=C/C(C)C)ccc1O
REMARK SMILES IDX 11 1 10 2 8 3 7 4 9 6 6 7 5 8 3 9 22 10 4 11 21 12 20 13
REMARK SMILES IDX 2 14 1 15 23 16 12 18 13 19 14 20 15 21 16 22 17 23 18 24
REMARK SMILES IDX 19 25
REMARK H PARENT 7 5 23 17
REMARK Flexibility Score: inf
ROOT
ATOM      1  C   UNL     1      95.172  80.927  83.660  1.00  0.00     0.010 C 
ENDROOT
BRANCH   1   2
ATOM      2  C   UNL     1      95.355  82.121  84.632  1.00  0.00     0.100 C 
BRANCH   2   3
ATOM      3  C   UNL     1      94.110  82.861  84.914  1.00  0.00     0.220 C 
ATOM      4  N   UNL     1      92.905  82.283  84.655  1.00  0.00    -0.352 N 
ATOM      5  H   UNL     1      92.958  81.380  84.204  1.00  0.00     0.163 HD
ATOM      6  O   UNL     1      94.199  84.001  85.428  1.00  0.00    -0.275 OA
BRANCH   4   7
ATOM      7  C   UNL     1      91.631  82.845  84.967  1.00  0.00     0.151 C 
BRANCH   7   8
ATOM      8  C   UNL     1      90.504  81.958  84.581  1.00  0.00    -0.025 A 
ATOM      9  C   UNL     1      88.106  81.613  84.154  1.00  0.00     0.160 A 
ATOM     10  C   UNL     1      88.350  80.247  83.895  1.00  0.00     0.157 A 
ATOM     11  C   UNL     1      89.182  82.455  84.503  1.00  0.00     0.056 A 
ATOM     12  C   UNL     1      89.663  79.745  83.953  1.00  0.00     0.050 A 
ATOM     13  C   UNL     1      90.734  80.597  84.283  1.00  0.00     0.009 A 
BRANCH   9  14
ATOM     14  O   UNL     1      86.845  82.130  84.015  1.00  0.00    -0.493 OA
ATOM     15  C   UNL     1      86.599  83.301  84.812  1.00  0.00     0.278 C 
ENDBRANCH   9  14
BRANCH  10  16
ATOM     16  O   UNL     1      87.339  79.397  83.584  1.00  0.00    -0.504 OA
ATOM     17  H   UNL     1      87.671  78.496  83.573  1.00  0.00     0.293 HD
ENDBRANCH  10  16
ENDBRANCH   7   8
ENDBRANCH   4   7
ENDBRANCH   2   3
ENDBRANCH   1   2
BRANCH   1  18
ATOM     18  C   UNL     1      94.676  79.665  84.412  1.00  0.00     0.001 C 
BRANCH  18  19
ATOM     19  C   UNL     1      95.512  78.394  84.116  1.00  0.00     0.004 C 
BRANCH  19  20
ATOM     20  C   UNL     1      94.812  77.117  84.659  1.00  0.00     0.027 C 
BRANCH  20  21
ATOM     21  C   UNL     1      93.707  76.660  83.833  1.00  0.00    -0.031 C 
ATOM     22  C   UNL     1      92.445  77.084  84.024  1.00  0.00    -0.028 C 
BRANCH  22  23
ATOM     23  C   UNL     1      91.314  76.649  83.209  1.00  0.00     0.005 C 
ATOM     24  C   UNL     1      91.795  75.688  82.089  1.00  0.00     0.012 C 
ATOM     25  C   UNL     1      90.220  76.008  84.106  1.00  0.00     0.012 C 
ENDBRANCH  22  23
ENDBRANCH  20  21
ENDBRANCH  19  20
ENDBRANCH  18  19
ENDBRANCH   1  18
TORSDOF 11
ENDMDL
MODEL 8
REMARK VINA RESULT:    -5.846     20.536     23.634
REMARK INTER + INTRA:         -10.098
REMARK INTER:                  -9.478
REMARK INTRA:                  -0.620
REMARK UNBOUND:                -0.663
REMARK SMILES COc1cc(CNC(=O)CCCCC/C=C/C(C)C)ccc1O
REMARK SMILES IDX 11 1 10 2 8 3 7 4 9 6 6 7 5 8 3 9 22 10 4 11 21 12 20 13
REMARK SMILES IDX 2 14 1 15 23 16 12 18 13 19 14 20 15 21 16 22 17 23 18 24
REMARK SMILES IDX 19 25
REMARK H PARENT 7 5 23 17
REMARK Flexibility Score: inf
ROOT
ATOM      1  C   UNL     1      95.204  81.395  83.763  1.00  0.00     0.010 C 
ENDROOT
BRANCH   1   2
ATOM      2  C   UNL     1      96.491  82.248  83.618  1.00  0.00     0.100 C 
BRANCH   2   3
ATOM      3  C   UNL     1      96.452  83.208  82.500  1.00  0.00     0.220 C 
ATOM      4  N   UNL     1      96.892  82.833  81.267  1.00  0.00    -0.352 N 
ATOM      5  H   UNL     1      97.295  81.907  81.228  1.00  0.00     0.163 HD
ATOM      6  O   UNL     1      95.971  84.347  82.710  1.00  0.00    -0.275 OA
BRANCH   4   7
ATOM      7  C   UNL     1      96.820  83.626  80.084  1.00  0.00     0.151 C 
BRANCH   7   8
ATOM      8  C   UNL     1      97.478  82.977  78.920  1.00  0.00    -0.025 A 
ATOM      9  C   UNL     1      99.011  81.288  78.000  1.00  0.00     0.160 A 
ATOM     10  C   UNL     1      98.770  81.780  76.698  1.00  0.00     0.157 A 
ATOM     11  C   UNL     1      98.371  81.895  79.100  1.00  0.00     0.056 A 
ATOM     12  C   UNL     1      97.871  82.844  76.506  1.00  0.00     0.050 A 
ATOM     13  C   UNL     1      97.221  83.432  77.607  1.00  0.00     0.009 A 
BRANCH   9  14
ATOM     14  O   UNL     1      99.816  80.196  78.190  1.00  0.00    -0.493 OA
ATOM     15  C   UNL     1      99.546  79.471  79.401  1.00  0.00     0.278 C 
ENDBRANCH   9  14
BRANCH  10  16
ATOM     16  O   UNL     1      99.387  81.242  75.616  1.00  0.00    -0.504 OA
ATOM     17  H   UNL     1      98.735  81.053  74.937  1.00  0.00     0.293 HD
ENDBRANCH  10  16
ENDBRANCH   7   8
ENDBRANCH   4   7
ENDBRANCH   2   3
ENDBRANCH   1   2
BRANCH   1  18
ATOM     18  C   UNL     1      94.431  81.764  85.054  1.00  0.00     0.001 C 
BRANCH  18  19
ATOM     19  C   UNL     1      93.012  82.330  84.791  1.00  0.00     0.004 C 
BRANCH  19  20
ATOM     20  C   UNL     1      92.039  81.219  84.306  1.00  0.00     0.027 C 
BRANCH  20  21
ATOM     21  C   UNL     1      90.639  81.521  84.549  1.00  0.00    -0.031 C 
ATOM     22  C   UNL     1      89.643  80.831  83.967  1.00  0.00    -0.028 C 
BRANCH  22  23
ATOM     23  C   UNL     1      88.227  81.106  84.196  1.00  0.00     0.005 C 
ATOM     24  C   UNL     1      87.999  82.629  84.388  1.00  0.00     0.012 C 
ATOM     25  C   UNL     1      87.373  80.524  83.036  1.00  0.00     0.012 C 
ENDBRANCH  22  23
ENDBRANCH  20  21
ENDBRANCH  19  20
ENDBRANCH  18  19
ENDBRANCH   1  18
TORSDOF 11
ENDMDL
MODEL 9
REMARK VINA RESULT:    -5.844     21.231     23.061
REMARK INTER + INTRA:         -10.094
REMARK INTER:                  -8.770
REMARK INTRA:                  -1.325
REMARK UNBOUND:                -0.663
REMARK SMILES COc1cc(CNC(=O)CCCCC/C=C/C(C)C)ccc1O
REMARK SMILES IDX 11 1 10 2 8 3 7 4 9 6 6 7 5 8 3 9 22 10 4 11 21 12 20 13
REMARK SMILES IDX 2 14 1 15 23 16 12 18 13 19 14 20 15 21 16 22 17 23 18 24
REMARK SMILES IDX 19 25
REMARK H PARENT 7 5 23 17
REMARK Flexibility Score: inf
ROOT
ATOM      1  C   UNL     1      76.471  89.607  67.557  1.00  0.00     0.010 C 
ENDROOT
BRANCH   1   2
ATOM      2  C   UNL     1      77.544  88.681  68.186  1.00  0.00     0.100 C 
BRANCH   2   3
ATOM      3  C   UNL     1      77.114  87.279  68.334  1.00  0.00     0.220 C 
ATOM      4  N   UNL     1      77.705  86.306  67.587  1.00  0.00    -0.352 N 
ATOM      5  H   UNL     1      78.373  86.644  66.907  1.00  0.00     0.163 HD
ATOM      6  O   UNL     1      76.231  87.012  69.184  1.00  0.00    -0.275 OA
BRANCH   4   7
ATOM      7  C   UNL     1      77.455  84.906  67.699  1.00  0.00     0.151 C 
BRANCH   7   8
ATOM      8  C   UNL     1      76.548  84.400  66.636  1.00  0.00    -0.025 A 
ATOM      9  C   UNL     1      74.282  84.083  65.734  1.00  0.00     0.160 A 
ATOM     10  C   UNL     1      74.820  83.385  64.631  1.00  0.00     0.157 A 
ATOM     11  C   UNL     1      75.148  84.577  66.731  1.00  0.00     0.056 A 
ATOM     12  C   UNL     1      76.212  83.218  64.517  1.00  0.00     0.050 A 
ATOM     13  C   UNL     1      77.071  83.731  65.507  1.00  0.00     0.009 A 
BRANCH   9  14
ATOM     14  O   UNL     1      72.936  84.328  65.809  1.00  0.00    -0.493 OA
ATOM     15  C   UNL     1      72.516  84.923  67.048  1.00  0.00     0.278 C 
ENDBRANCH   9  14
BRANCH  10  16
ATOM     16  O   UNL     1      74.019  82.870  63.664  1.00  0.00    -0.504 OA
ATOM     17  H   UNL     1      74.423  82.077  63.304  1.00  0.00     0.293 HD
ENDBRANCH  10  16
ENDBRANCH   7   8
ENDBRANCH   4   7
ENDBRANCH   2   3
ENDBRANCH   1   2
BRANCH   1  18
ATOM     18  C   UNL     1      75.741  88.903  66.385  1.00  0.00     0.001 C 
BRANCH  18  19
ATOM     19  C   UNL     1      74.207  89.116  66.387  1.00  0.00     0.004 C 
BRANCH  19  20
ATOM     20  C   UNL     1      73.531  88.361  67.566  1.00  0.00     0.027 C 
BRANCH  20  21
ATOM     21  C   UNL     1      73.155  89.222  68.673  1.00  0.00    -0.031 C 
ATOM     22  C   UNL     1      73.802  89.201  69.852  1.00  0.00    -0.028 C 
BRANCH  22  23
ATOM     23  C   UNL     1      73.453  90.058  70.983  1.00  0.00     0.005 C 
ATOM     24  C   UNL     1      74.405  91.282  71.045  1.00  0.00     0.012 C 
ATOM     25  C   UNL     1      71.960  90.476  70.898  1.00  0.00     0.012 C 
ENDBRANCH  22  23
ENDBRANCH  20  21
ENDBRANCH  19  20
ENDBRANCH  18  19
ENDBRANCH   1  18
TORSDOF 11
ENDMDL
MODEL 10
REMARK VINA RESULT:    -5.724     24.904     26.403
REMARK INTER + INTRA:          -9.901
REMARK INTER:                  -9.035
REMARK INTRA:                  -0.866
REMARK UNBOUND:                -0.663
REMARK SMILES COc1cc(CNC(=O)CCCCC/C=C/C(C)C)ccc1O
REMARK SMILES IDX 11 1 10 2 8 3 7 4 9 6 6 7 5 8 3 9 22 10 4 11 21 12 20 13
REMARK SMILES IDX 2 14 1 15 23 16 12 18 13 19 14 20 15 21 16 22 17 23 18 24
REMARK SMILES IDX 19 25
REMARK H PARENT 7 5 23 17
REMARK Flexibility Score: inf
ROOT
ATOM      1  C   UNL     1      73.284  90.586  71.622  1.00  0.00     0.010 C 
ENDROOT
BRANCH   1   2
ATOM      2  C   UNL     1      72.073  91.554  71.671  1.00  0.00     0.100 C 
BRANCH   2   3
ATOM      3  C   UNL     1      72.413  92.919  72.114  1.00  0.00     0.220 C 
ATOM      4  N   UNL     1      73.009  93.110  73.324  1.00  0.00    -0.352 N 
ATOM      5  H   UNL     1      73.113  92.272  73.880  1.00  0.00     0.163 HD
ATOM      6  O   UNL     1      72.177  93.874  71.337  1.00  0.00    -0.275 OA
BRANCH   4   7
ATOM      7  C   UNL     1      73.476  94.359  73.830  1.00  0.00     0.151 C 
BRANCH   7   8
ATOM      8  C   UNL     1      74.843  94.268  74.407  1.00  0.00    -0.025 A 
ATOM      9  C   UNL     1      76.368  94.459  76.327  1.00  0.00     0.160 A 
ATOM     10  C   UNL     1      77.460  94.145  75.489  1.00  0.00     0.157 A 
ATOM     11  C   UNL     1      75.071  94.527  75.779  1.00  0.00     0.056 A 
ATOM     12  C   UNL     1      77.243  93.869  74.127  1.00  0.00     0.050 A 
ATOM     13  C   UNL     1      75.942  93.920  73.591  1.00  0.00     0.009 A 
BRANCH   9  14
ATOM     14  O   UNL     1      76.557  94.643  77.671  1.00  0.00    -0.493 OA
ATOM     15  C   UNL     1      75.649  93.897  78.499  1.00  0.00     0.278 C 
ENDBRANCH   9  14
BRANCH  10  16
ATOM     16  O   UNL     1      78.728  94.097  75.971  1.00  0.00    -0.504 OA
ATOM     17  H   UNL     1      79.257  93.514  75.421  1.00  0.00     0.293 HD
ENDBRANCH  10  16
ENDBRANCH   7   8
ENDBRANCH   4   7
ENDBRANCH   2   3
ENDBRANCH   1   2
BRANCH   1  18
ATOM     18  C   UNL     1      74.462  91.204  70.826  1.00  0.00     0.001 C 
BRANCH  18  19
ATOM     19  C   UNL     1      74.941  90.327  69.641  1.00  0.00     0.004 C 
BRANCH  19  20
ATOM     20  C   UNL     1      74.349  88.892  69.723  1.00  0.00     0.027 C 
BRANCH  20  21
ATOM     21  C   UNL     1      75.275  87.854  69.303  1.00  0.00    -0.031 C 
ATOM     22  C   UNL     1      75.005  86.545  69.455  1.00  0.00    -0.028 C 
BRANCH  22  23
ATOM     23  C   UNL     1      75.911  85.478  69.039  1.00  0.00     0.005 C 
ATOM     24  C   UNL     1      77.364  86.014  68.942  1.00  0.00     0.012 C 
ATOM     25  C   UNL     1      75.793  84.266  70.003  1.00  0.00     0.012 C 
ENDBRANCH  22  23
ENDBRANCH  20  21
ENDBRANCH  19  20
ENDBRANCH  18  19
ENDBRANCH   1  18
TORSDOF 11
ENDMDL
