MODEL 1
REMARK VINA RESULT:    -7.833      0.000      0.000
REMARK INTER + INTRA:          -9.476
REMARK INTER:                  -9.207
REMARK INTRA:                  -0.269
REMARK UNBOUND:                -0.269
REMARK SMILES O=C(/C=C/C=C/c1ccc2c(c1)OCO2)N1CCCCC1
REMARK SMILES IDX 3 1 4 2 2 3 1 4 16 5 17 6 21 7 18 8 20 9 19 10 5 11 6 12
REMARK SMILES IDX 7 13 12 14 8 15 11 16 9 17 13 18 10 19 14 20 15 21
REMARK H PARENT
REMARK Flexibility Score: inf
ROOT
ATOM      1  C   UNL     1      96.143  83.451  82.763  1.00  0.00     0.071 C 
ATOM      2  C   UNL     1      96.887  82.464  82.269  1.00  0.00     0.006 C 
ENDROOT
BRANCH   1   3
ATOM      3  C   UNL     1      95.972  83.526  84.228  1.00  0.00     0.246 C 
ATOM      4  O   UNL     1      96.727  84.272  84.852  1.00  0.00    -0.270 OA
ATOM      5  N   UNL     1      94.972  82.745  84.805  1.00  0.00    -0.339 N 
ATOM      6  C   UNL     1      94.781  82.793  86.258  1.00  0.00     0.120 C 
ATOM      7  C   UNL     1      94.082  81.810  84.100  1.00  0.00     0.120 C 
ATOM      8  C   UNL     1      93.331  83.094  86.620  1.00  0.00     0.022 C 
ATOM      9  C   UNL     1      92.617  82.078  84.440  1.00  0.00     0.022 C 
ATOM     10  C   UNL     1      92.383  82.106  85.948  1.00  0.00     0.004 C 
ENDBRANCH   1   3
BRANCH   2  11
ATOM     11  C   UNL     1      97.113  82.308  80.848  1.00  0.00     0.001 C 
ATOM     12  C   UNL     1      97.302  83.351  80.023  1.00  0.00     0.008 C 
BRANCH  12  13
ATOM     13  C   UNL     1      97.527  83.249  78.571  1.00  0.00    -0.022 A 
ATOM     14  C   UNL     1      96.761  84.027  77.713  1.00  0.00     0.058 A 
ATOM     15  C   UNL     1      98.506  82.373  78.097  1.00  0.00     0.012 A 
ATOM     16  C   UNL     1      97.010  83.897  76.362  1.00  0.00     0.166 A 
ATOM     17  C   UNL     1      98.736  82.261  76.724  1.00  0.00     0.051 A 
ATOM     18  O   UNL     1      96.368  84.567  75.365  1.00  0.00    -0.454 OA
ATOM     19  C   UNL     1      97.971  83.038  75.880  1.00  0.00     0.165 A 
ATOM     20  C   UNL     1      97.034  84.033  74.203  1.00  0.00     0.468 C 
ATOM     21  O   UNL     1      98.052  83.062  74.522  1.00  0.00    -0.454 OA
ENDBRANCH  12  13
ENDBRANCH   2  11
TORSDOF 3
ENDMDL
MODEL 2
REMARK VINA RESULT:    -7.757     13.203     14.909
REMARK INTER + INTRA:          -9.386
REMARK INTER:                  -9.051
REMARK INTRA:                  -0.335
REMARK UNBOUND:                -0.269
REMARK SMILES O=C(/C=C/C=C/c1ccc2c(c1)OCO2)N1CCCCC1
REMARK SMILES IDX 3 1 4 2 2 3 1 4 16 5 17 6 21 7 18 8 20 9 19 10 5 11 6 12
REMARK SMILES IDX 7 13 12 14 8 15 11 16 9 17 13 18 10 19 14 20 15 21
REMARK H PARENT
REMARK Flexibility Score: inf
ROOT
ATOM      1  C   UNL     1      94.989  97.055  77.526  1.00  0.00     0.071 C 
ATOM      2  C   UNL     1      93.722  96.972  77.125  1.00  0.00     0.006 C 
ENDROOT
BRANCH   1   3
ATOM      3  C   UNL     1      95.623  98.389  77.553  1.00  0.00     0.246 C 
ATOM      4  O   UNL     1      95.583  99.059  76.520  1.00  0.00    -0.270 OA
ATOM      5  N   UNL     1      96.227  98.797  78.741  1.00  0.00    -0.339 N 
ATOM      6  C   UNL     1      96.869 100.114  78.797  1.00  0.00     0.120 C 
ATOM      7  C   UNL     1      96.334  98.008  79.977  1.00  0.00     0.120 C 
ATOM      8  C   UNL     1      96.355 100.935  79.974  1.00  0.00     0.022 C 
ATOM      9  C   UNL     1      95.831  98.800  81.184  1.00  0.00     0.022 C 
ATOM     10  C   UNL     1      96.504 100.166  81.283  1.00  0.00     0.004 C 
ENDBRANCH   1   3
BRANCH   2  11
ATOM     11  C   UNL     1      93.016  95.710  77.064  1.00  0.00     0.001 C 
ATOM     12  C   UNL     1      91.955  95.509  76.266  1.00  0.00     0.008 C 
BRANCH  12  13
ATOM     13  C   UNL     1      91.196  94.250  76.171  1.00  0.00    -0.022 A 
ATOM     14  C   UNL     1      91.108  93.605  74.945  1.00  0.00     0.058 A 
ATOM     15  C   UNL     1      90.585  93.739  77.319  1.00  0.00     0.012 A 
ATOM     16  C   UNL     1      90.387  92.429  74.907  1.00  0.00     0.166 A 
ATOM     17  C   UNL     1      89.861  92.547  77.252  1.00  0.00     0.051 A 
ATOM     18  O   UNL     1      90.184  91.653  73.807  1.00  0.00    -0.454 OA
ATOM     19  C   UNL     1      89.780  91.914  76.029  1.00  0.00     0.165 A 
ATOM     20  C   UNL     1      89.381  90.592  74.363  1.00  0.00     0.468 C 
ATOM     21  O   UNL     1      89.121  90.751  75.773  1.00  0.00    -0.454 OA
ENDBRANCH  12  13
ENDBRANCH   2  11
TORSDOF 3
ENDMDL
MODEL 3
REMARK VINA RESULT:    -7.686      1.112      1.687
REMARK INTER + INTRA:          -9.303
REMARK INTER:                  -8.971
REMARK INTRA:                  -0.332
REMARK UNBOUND:                -0.269
REMARK SMILES O=C(/C=C/C=C/c1ccc2c(c1)OCO2)N1CCCCC1
REMARK SMILES IDX 3 1 4 2 2 3 1 4 16 5 17 6 21 7 18 8 20 9 19 10 5 11 6 12
REMARK SMILES IDX 7 13 12 14 8 15 11 16 9 17 13 18 10 19 14 20 15 21
REMARK H PARENT
REMARK Flexibility Score: inf
ROOT
ATOM      1  C   UNL     1      96.472  83.273  82.954  1.00  0.00     0.071 C 
ATOM      2  C   UNL     1      96.912  82.623  81.879  1.00  0.00     0.006 C 
ENDROOT
BRANCH   1   3
ATOM      3  C   UNL     1      96.488  82.565  84.249  1.00  0.00     0.246 C 
ATOM      4  O   UNL     1      97.579  82.407  84.798  1.00  0.00    -0.270 OA
ATOM      5  N   UNL     1      95.271  82.118  84.761  1.00  0.00    -0.339 N 
ATOM      6  C   UNL     1      95.256  81.407  86.043  1.00  0.00     0.120 C 
ATOM      7  C   UNL     1      93.957  82.248  84.114  1.00  0.00     0.120 C 
ATOM      8  C   UNL     1      94.265  82.035  87.017  1.00  0.00     0.022 C 
ATOM      9  C   UNL     1      92.933  82.872  85.062  1.00  0.00     0.022 C 
ATOM     10  C   UNL     1      92.875  82.133  86.396  1.00  0.00     0.004 C 
ENDBRANCH   1   3
BRANCH   2  11
ATOM     11  C   UNL     1      96.935  83.232  80.566  1.00  0.00     0.001 C 
ATOM     12  C   UNL     1      97.410  82.601  79.480  1.00  0.00     0.008 C 
BRANCH  12  13
ATOM     13  C   UNL     1      97.464  83.177  78.126  1.00  0.00    -0.022 A 
ATOM     14  C   UNL     1      98.569  82.920  77.326  1.00  0.00     0.058 A 
ATOM     15  C   UNL     1      96.400  83.966  77.682  1.00  0.00     0.012 A 
ATOM     16  C   UNL     1      98.574  83.481  76.065  1.00  0.00     0.166 A 
ATOM     17  C   UNL     1      96.431  84.521  76.401  1.00  0.00     0.051 A 
ATOM     18  O   UNL     1      99.561  83.349  75.137  1.00  0.00    -0.454 OA
ATOM     19  C   UNL     1      97.533  84.260  75.615  1.00  0.00     0.165 A 
ATOM     20  C   UNL     1      99.025  84.133  74.052  1.00  0.00     0.468 C 
ATOM     21  O   UNL     1      97.738  84.714  74.348  1.00  0.00    -0.454 OA
ENDBRANCH  12  13
ENDBRANCH   2  11
TORSDOF 3
ENDMDL
MODEL 4
REMARK VINA RESULT:    -7.654      3.291      9.457
REMARK INTER + INTRA:          -9.266
REMARK INTER:                  -8.896
REMARK INTRA:                  -0.370
REMARK UNBOUND:                -0.269
REMARK SMILES O=C(/C=C/C=C/c1ccc2c(c1)OCO2)N1CCCCC1
REMARK SMILES IDX 3 1 4 2 2 3 1 4 16 5 17 6 21 7 18 8 20 9 19 10 5 11 6 12
REMARK SMILES IDX 7 13 12 14 8 15 11 16 9 17 13 18 10 19 14 20 15 21
REMARK H PARENT
REMARK Flexibility Score: inf
ROOT
ATOM      1  C   UNL     1      97.895  83.975  76.390  1.00  0.00     0.071 C 
ATOM      2  C   UNL     1      96.673  83.909  76.914  1.00  0.00     0.006 C 
ENDROOT
BRANCH   1   3
ATOM      3  C   UNL     1      98.017  84.250  74.945  1.00  0.00     0.246 C 
ATOM      4  O   UNL     1      96.976  84.350  74.295  1.00  0.00    -0.270 OA
ATOM      5  N   UNL     1      99.300  84.371  74.412  1.00  0.00    -0.339 N 
ATOM      6  C   UNL     1      99.453  84.637  72.979  1.00  0.00     0.120 C 
ATOM      7  C   UNL     1     100.564  84.212  75.147  1.00  0.00     0.120 C 
ATOM      8  C   UNL     1     100.346  85.848  72.730  1.00  0.00     0.022 C 
ATOM      9  C   UNL     1     101.490  85.407  74.919  1.00  0.00     0.022 C 
ATOM     10  C   UNL     1     101.690  85.691  73.433  1.00  0.00     0.004 C 
ENDBRANCH   1   3
BRANCH   2  11
ATOM     11  C   UNL     1      96.452  83.645  78.320  1.00  0.00     0.001 C 
ATOM     12  C   UNL     1      97.223  82.809  79.033  1.00  0.00     0.008 C 
BRANCH  12  13
ATOM     13  C   UNL     1      97.038  82.498  80.460  1.00  0.00    -0.022 A 
ATOM     14  C   UNL     1      96.756  83.530  81.345  1.00  0.00     0.058 A 
ATOM     15  C   UNL     1      97.152  81.172  80.886  1.00  0.00     0.012 A 
ATOM     16  C   UNL     1      96.591  83.190  82.672  1.00  0.00     0.166 A 
ATOM     17  C   UNL     1      96.980  80.856  82.235  1.00  0.00     0.051 A 
ATOM     18  O   UNL     1      96.312  84.052  83.688  1.00  0.00    -0.454 OA
ATOM     19  C   UNL     1      96.700  81.888  83.105  1.00  0.00     0.165 A 
ATOM     20  C   UNL     1      96.258  83.146  84.809  1.00  0.00     0.468 C 
ATOM     21  O   UNL     1      96.503  81.772  84.447  1.00  0.00    -0.454 OA
ENDBRANCH  12  13
ENDBRANCH   2  11
TORSDOF 3
ENDMDL
MODEL 5
REMARK VINA RESULT:    -7.544      7.093      8.935
REMARK INTER + INTRA:          -9.136
REMARK INTER:                  -8.835
REMARK INTRA:                  -0.301
REMARK UNBOUND:                -0.269
REMARK SMILES O=C(/C=C/C=C/c1ccc2c(c1)OCO2)N1CCCCC1
REMARK SMILES IDX 3 1 4 2 2 3 1 4 16 5 17 6 21 7 18 8 20 9 19 10 5 11 6 12
REMARK SMILES IDX 7 13 12 14 8 15 11 16 9 17 13 18 10 19 14 20 15 21
REMARK H PARENT
REMARK Flexibility Score: inf
ROOT
ATOM      1  C   UNL     1      93.184  85.909  86.433  1.00  0.00     0.071 C 
ATOM      2  C   UNL     1      93.534  84.876  85.670  1.00  0.00     0.006 C 
ENDROOT
BRANCH   1   3
ATOM      3  C   UNL     1      94.014  87.129  86.375  1.00  0.00     0.246 C 
ATOM      4  O   UNL     1      94.636  87.345  85.334  1.00  0.00    -0.270 OA
ATOM      5  N   UNL     1      94.042  87.950  87.501  1.00  0.00    -0.339 N 
ATOM      6  C   UNL     1      94.862  89.165  87.475  1.00  0.00     0.120 C 
ATOM      7  C   UNL     1      93.351  87.702  88.775  1.00  0.00     0.120 C 
ATOM      8  C   UNL     1      94.048  90.394  87.864  1.00  0.00     0.022 C 
ATOM      9  C   UNL     1      92.525  88.916  89.201  1.00  0.00     0.022 C 
ATOM     10  C   UNL     1      93.361  90.192  89.211  1.00  0.00     0.004 C 
ENDBRANCH   1   3
BRANCH   2  11
ATOM     11  C   UNL     1      92.784  83.638  85.659  1.00  0.00     0.001 C 
ATOM     12  C   UNL     1      92.790  82.794  84.614  1.00  0.00     0.008 C 
BRANCH  12  13
ATOM     13  C   UNL     1      92.040  81.529  84.547  1.00  0.00    -0.022 A 
ATOM     14  C   UNL     1      90.665  81.567  84.361  1.00  0.00     0.058 A 
ATOM     15  C   UNL     1      92.734  80.322  84.672  1.00  0.00     0.012 A 
ATOM     16  C   UNL     1      90.006  80.356  84.304  1.00  0.00     0.166 A 
ATOM     17  C   UNL     1      92.042  79.111  84.611  1.00  0.00     0.051 A 
ATOM     18  O   UNL     1      88.667  80.183  84.130  1.00  0.00    -0.454 OA
ATOM     19  C   UNL     1      90.676  79.160  84.426  1.00  0.00     0.165 A 
ATOM     20  C   UNL     1      88.570  78.745  84.155  1.00  0.00     0.468 C 
ATOM     21  O   UNL     1      89.841  78.089  84.343  1.00  0.00    -0.454 OA
ENDBRANCH  12  13
ENDBRANCH   2  11
TORSDOF 3
ENDMDL
MODEL 6
REMARK VINA RESULT:    -7.070      2.798      9.029
REMARK INTER + INTRA:          -8.579
REMARK INTER:                  -8.209
REMARK INTRA:                  -0.370
REMARK UNBOUND:                -0.269
REMARK SMILES O=C(/C=C/C=C/c1ccc2c(c1)OCO2)N1CCCCC1
REMARK SMILES IDX 3 1 4 2 2 3 1 4 16 5 17 6 21 7 18 8 20 9 19 10 5 11 6 12
REMARK SMILES IDX 7 13 12 14 8 15 11 16 9 17 13 18 10 19 14 20 15 21
REMARK H PARENT
REMARK Flexibility Score: inf
ROOT
ATOM      1  C   UNL     1      97.436  82.298  78.620  1.00  0.00     0.071 C 
ATOM      2  C   UNL     1      97.678  81.506  79.663  1.00  0.00     0.006 C 
ENDROOT
BRANCH   1   3
ATOM      3  C   UNL     1      98.056  81.952  77.326  1.00  0.00     0.246 C 
ATOM      4  O   UNL     1      98.495  80.809  77.193  1.00  0.00    -0.270 OA
ATOM      5  N   UNL     1      98.109  82.941  76.345  1.00  0.00    -0.339 N 
ATOM      6  C   UNL     1      98.724  82.628  75.052  1.00  0.00     0.120 C 
ATOM      7  C   UNL     1      97.637  84.327  76.483  1.00  0.00     0.120 C 
ATOM      8  C   UNL     1      97.792  82.969  73.894  1.00  0.00     0.022 C 
ATOM      9  C   UNL     1      96.700  84.708  75.337  1.00  0.00     0.022 C 
ATOM     10  C   UNL     1      97.327  84.420  73.976  1.00  0.00     0.004 C 
ENDBRANCH   1   3
BRANCH   2  11
ATOM     11  C   UNL     1      97.115  81.763  80.972  1.00  0.00     0.001 C 
ATOM     12  C   UNL     1      97.018  82.998  81.491  1.00  0.00     0.008 C 
BRANCH  12  13
ATOM     13  C   UNL     1      96.462  83.314  82.817  1.00  0.00    -0.022 A 
ATOM     14  C   UNL     1      96.415  82.320  83.785  1.00  0.00     0.058 A 
ATOM     15  C   UNL     1      95.998  84.608  83.066  1.00  0.00     0.012 A 
ATOM     16  C   UNL     1      95.887  82.665  85.012  1.00  0.00     0.166 A 
ATOM     17  C   UNL     1      95.467  84.930  84.317  1.00  0.00     0.051 A 
ATOM     18  O   UNL     1      95.753  81.837  86.085  1.00  0.00    -0.454 OA
ATOM     19  C   UNL     1      95.425  83.935  85.271  1.00  0.00     0.165 A 
ATOM     20  C   UNL     1      95.156  82.729  87.048  1.00  0.00     0.468 C 
ATOM     21  O   UNL     1      94.945  84.062  86.538  1.00  0.00    -0.454 OA
ENDBRANCH  12  13
ENDBRANCH   2  11
TORSDOF 3
ENDMDL
MODEL 7
REMARK VINA RESULT:    -6.925     17.742     18.629
REMARK INTER + INTRA:          -8.409
REMARK INTER:                  -8.064
REMARK INTRA:                  -0.345
REMARK UNBOUND:                -0.269
REMARK SMILES O=C(/C=C/C=C/c1ccc2c(c1)OCO2)N1CCCCC1
REMARK SMILES IDX 3 1 4 2 2 3 1 4 16 5 17 6 21 7 18 8 20 9 19 10 5 11 6 12
REMARK SMILES IDX 7 13 12 14 8 15 11 16 9 17 13 18 10 19 14 20 15 21
REMARK H PARENT
REMARK Flexibility Score: inf
ROOT
ATOM      1  C   UNL     1      86.597  70.058  71.796  1.00  0.00     0.071 C 
ATOM      2  C   UNL     1      87.685  70.191  71.040  1.00  0.00     0.006 C 
ENDROOT
BRANCH   1   3
ATOM      3  C   UNL     1      86.720  69.312  73.064  1.00  0.00     0.246 C 
ATOM      4  O   UNL     1      87.609  69.658  73.844  1.00  0.00    -0.270 OA
ATOM      5  N   UNL     1      85.827  68.267  73.292  1.00  0.00    -0.339 N 
ATOM      6  C   UNL     1      85.927  67.504  74.540  1.00  0.00     0.120 C 
ATOM      7  C   UNL     1      84.784  67.797  72.367  1.00  0.00     0.120 C 
ATOM      8  C   UNL     1      84.588  67.445  75.266  1.00  0.00     0.022 C 
ATOM      9  C   UNL     1      83.424  67.720  73.060  1.00  0.00     0.022 C 
ATOM     10  C   UNL     1      83.493  66.907  74.350  1.00  0.00     0.004 C 
ENDBRANCH   1   3
BRANCH   2  11
ATOM     11  C   UNL     1      87.665  70.904  69.780  1.00  0.00     0.001 C 
ATOM     12  C   UNL     1      88.651  71.731  69.397  1.00  0.00     0.008 C 
BRANCH  12  13
ATOM     13  C   UNL     1      88.677  72.486  68.133  1.00  0.00    -0.022 A 
ATOM     14  C   UNL     1      89.850  73.121  67.749  1.00  0.00     0.058 A 
ATOM     15  C   UNL     1      87.518  72.541  67.353  1.00  0.00     0.012 A 
ATOM     16  C   UNL     1      89.824  73.815  66.557  1.00  0.00     0.166 A 
ATOM     17  C   UNL     1      87.521  73.251  66.150  1.00  0.00     0.051 A 
ATOM     18  O   UNL     1      90.866  74.502  66.011  1.00  0.00    -0.454 OA
ATOM     19  C   UNL     1      88.691  73.879  65.778  1.00  0.00     0.165 A 
ATOM     20  C   UNL     1      90.260  75.005  64.803  1.00  0.00     0.468 C 
ATOM     21  O   UNL     1      88.881  74.613  64.648  1.00  0.00    -0.454 OA
ENDBRANCH  12  13
ENDBRANCH   2  11
TORSDOF 3
ENDMDL
MODEL 8
REMARK VINA RESULT:    -6.655     18.112     20.718
REMARK INTER + INTRA:          -8.091
REMARK INTER:                  -7.770
REMARK INTRA:                  -0.321
REMARK UNBOUND:                -0.269
REMARK SMILES O=C(/C=C/C=C/c1ccc2c(c1)OCO2)N1CCCCC1
REMARK SMILES IDX 3 1 4 2 2 3 1 4 16 5 17 6 21 7 18 8 20 9 19 10 5 11 6 12
REMARK SMILES IDX 7 13 12 14 8 15 11 16 9 17 13 18 10 19 14 20 15 21
REMARK H PARENT
REMARK Flexibility Score: inf
ROOT
ATOM      1  C   UNL     1      88.080  71.250  69.320  1.00  0.00     0.071 C 
ATOM      2  C   UNL     1      88.232  70.800  70.564  1.00  0.00     0.006 C 
ENDROOT
BRANCH   1   3
ATOM      3  C   UNL     1      89.096  72.181  68.789  1.00  0.00     0.246 C 
ATOM      4  O   UNL     1      90.204  72.181  69.326  1.00  0.00    -0.270 OA
ATOM      5  N   UNL     1      88.731  73.001  67.722  1.00  0.00    -0.339 N 
ATOM      6  C   UNL     1      89.716  73.940  67.177  1.00  0.00     0.120 C 
ATOM      7  C   UNL     1      87.407  73.061  67.085  1.00  0.00     0.120 C 
ATOM      8  C   UNL     1      89.865  73.778  65.668  1.00  0.00     0.022 C 
ATOM      9  C   UNL     1      87.515  72.906  65.568  1.00  0.00     0.022 C 
ATOM     10  C   UNL     1      88.514  73.892  64.970  1.00  0.00     0.004 C 
ENDBRANCH   1   3
BRANCH   2  11
ATOM     11  C   UNL     1      87.290  69.884  71.171  1.00  0.00     0.001 C 
ATOM     12  C   UNL     1      86.759  70.089  72.388  1.00  0.00     0.008 C 
BRANCH  12  13
ATOM     13  C   UNL     1      85.805  69.188  73.055  1.00  0.00    -0.022 A 
ATOM     14  C   UNL     1      84.703  68.727  72.347  1.00  0.00     0.058 A 
ATOM     15  C   UNL     1      86.035  68.820  74.383  1.00  0.00     0.012 A 
ATOM     16  C   UNL     1      83.837  67.885  73.015  1.00  0.00     0.166 A 
ATOM     17  C   UNL     1      85.142  67.966  75.035  1.00  0.00     0.051 A 
ATOM     18  O   UNL     1      82.706  67.331  72.499  1.00  0.00    -0.454 OA
ATOM     19  C   UNL     1      84.051  67.514  74.323  1.00  0.00     0.165 A 
ATOM     20  C   UNL     1      82.232  66.571  73.629  1.00  0.00     0.468 C 
ATOM     21  O   UNL     1      83.080  66.682  74.790  1.00  0.00    -0.454 OA
ENDBRANCH  12  13
ENDBRANCH   2  11
TORSDOF 3
ENDMDL
MODEL 9
REMARK VINA RESULT:    -6.599     11.561     13.656
REMARK INTER + INTRA:          -8.025
REMARK INTER:                  -7.660
REMARK INTRA:                  -0.366
REMARK UNBOUND:                -0.269
REMARK SMILES O=C(/C=C/C=C/c1ccc2c(c1)OCO2)N1CCCCC1
REMARK SMILES IDX 3 1 4 2 2 3 1 4 16 5 17 6 21 7 18 8 20 9 19 10 5 11 6 12
REMARK SMILES IDX 7 13 12 14 8 15 11 16 9 17 13 18 10 19 14 20 15 21
REMARK H PARENT
REMARK Flexibility Score: inf
ROOT
ATOM      1  C   UNL     1      91.722  77.143  72.094  1.00  0.00     0.071 C 
ATOM      2  C   UNL     1      91.848  77.769  70.926  1.00  0.00     0.006 C 
ENDROOT
BRANCH   1   3
ATOM      3  C   UNL     1      92.154  77.853  73.314  1.00  0.00     0.246 C 
ATOM      4  O   UNL     1      92.603  78.992  73.180  1.00  0.00    -0.270 OA
ATOM      5  N   UNL     1      92.029  77.188  74.533  1.00  0.00    -0.339 N 
ATOM      6  C   UNL     1      92.455  77.866  75.761  1.00  0.00     0.120 C 
ATOM      7  C   UNL     1      91.540  75.815  74.727  1.00  0.00     0.120 C 
ATOM      8  C   UNL     1      91.351  77.859  76.812  1.00  0.00     0.022 C 
ATOM      9  C   UNL     1      90.433  75.765  75.779  1.00  0.00     0.022 C 
ATOM     10  C   UNL     1      90.859  76.440  77.079  1.00  0.00     0.004 C 
ENDBRANCH   1   3
BRANCH   2  11
ATOM     11  C   UNL     1      91.453  77.155  69.677  1.00  0.00     0.001 C 
ATOM     12  C   UNL     1      91.806  75.904  69.338  1.00  0.00     0.008 C 
BRANCH  12  13
ATOM     13  C   UNL     1      91.439  75.234  68.079  1.00  0.00    -0.022 A 
ATOM     14  C   UNL     1      91.840  75.795  66.874  1.00  0.00     0.058 A 
ATOM     15  C   UNL     1      90.697  74.052  68.132  1.00  0.00     0.012 A 
ATOM     16  C   UNL     1      91.472  75.131  65.722  1.00  0.00     0.166 A 
ATOM     17  C   UNL     1      90.338  73.400  66.950  1.00  0.00     0.051 A 
ATOM     18  O   UNL     1      91.766  75.518  64.450  1.00  0.00    -0.454 OA
ATOM     19  C   UNL     1      90.742  73.965  65.758  1.00  0.00     0.165 A 
ATOM     20  C   UNL     1      91.137  74.465  63.691  1.00  0.00     0.468 C 
ATOM     21  O   UNL     1      90.486  73.476  64.514  1.00  0.00    -0.454 OA
ENDBRANCH  12  13
ENDBRANCH   2  11
TORSDOF 3
ENDMDL
MODEL 10
REMARK VINA RESULT:    -6.548      3.091      9.004
REMARK INTER + INTRA:          -7.966
REMARK INTER:                  -7.582
REMARK INTRA:                  -0.384
REMARK UNBOUND:                -0.269
REMARK SMILES O=C(/C=C/C=C/c1ccc2c(c1)OCO2)N1CCCCC1
REMARK SMILES IDX 3 1 4 2 2 3 1 4 16 5 17 6 21 7 18 8 20 9 19 10 5 11 6 12
REMARK SMILES IDX 7 13 12 14 8 15 11 16 9 17 13 18 10 19 14 20 15 21
REMARK H PARENT
REMARK Flexibility Score: inf
ROOT
ATOM      1  C   UNL     1      98.701  82.165  78.398  1.00  0.00     0.071 C 
ATOM      2  C   UNL     1      97.909  83.208  78.638  1.00  0.00     0.006 C 
ENDROOT
BRANCH   1   3
ATOM      3  C   UNL     1      99.486  82.162  77.147  1.00  0.00     0.246 C 
ATOM      4  O   UNL     1      99.000  82.731  76.169  1.00  0.00    -0.270 OA
ATOM      5  N   UNL     1     100.720  81.513  77.156  1.00  0.00    -0.339 N 
ATOM      6  C   UNL     1     101.519  81.489  75.927  1.00  0.00     0.120 C 
ATOM      7  C   UNL     1     101.311  80.786  78.289  1.00  0.00     0.120 C 
ATOM      8  C   UNL     1     102.937  81.993  76.176  1.00  0.00     0.022 C 
ATOM      9  C   UNL     1     102.737  81.261  78.567  1.00  0.00     0.022 C 
ATOM     10  C   UNL     1     103.601  81.219  77.310  1.00  0.00     0.004 C 
ENDBRANCH   1   3
BRANCH   2  11
ATOM     11  C   UNL     1      97.101  83.301  79.835  1.00  0.00     0.001 C 
ATOM     12  C   UNL     1      97.353  82.580  80.940  1.00  0.00     0.008 C 
BRANCH  12  13
ATOM     13  C   UNL     1      96.561  82.630  82.180  1.00  0.00    -0.022 A 
ATOM     14  C   UNL     1      96.209  83.864  82.708  1.00  0.00     0.058 A 
ATOM     15  C   UNL     1      96.185  81.431  82.792  1.00  0.00     0.012 A 
ATOM     16  C   UNL     1      95.466  83.859  83.871  1.00  0.00     0.166 A 
ATOM     17  C   UNL     1      95.432  81.456  83.969  1.00  0.00     0.051 A 
ATOM     18  O   UNL     1      95.026  84.960  84.541  1.00  0.00    -0.454 OA
ATOM     19  C   UNL     1      95.088  82.687  84.484  1.00  0.00     0.165 A 
ATOM     20  C   UNL     1      94.328  84.348  85.645  1.00  0.00     0.468 C 
ATOM     21  O   UNL     1      94.364  82.906  85.616  1.00  0.00    -0.454 OA
ENDBRANCH  12  13
ENDBRANCH   2  11
TORSDOF 3
ENDMDL
