MODEL 1
REMARK VINA RESULT:    -5.945      0.000      0.000
REMARK INTER + INTRA:         -11.061
REMARK INTER:                  -9.769
REMARK INTRA:                  -1.292
REMARK UNBOUND:                -1.292
REMARK SMILES CCCCC[C@H](O)CC(=O)CCc1ccc(O)c(OC)c1
REMARK SMILES IDX 8 1 6 2 7 3 5 5 4 6 3 7 2 8 1 9 9 10 10 11 11 12 12 13 13 14
REMARK SMILES IDX 21 15 14 16 18 17 15 18 16 19 19 20 20 21 17 22
REMARK H PARENT 7 4 17 23
REMARK Flexibility Score: inf
ROOT
ATOM      1  C   UNL     1      76.691  83.756  67.003  1.00  0.00     0.107 C 
ENDROOT
BRANCH   1   2
ATOM      2  C   UNL     1      77.891  83.834  67.951  1.00  0.00     0.121 C 
BRANCH   2   3
ATOM      3  O   UNL     1      79.034  83.247  67.333  1.00  0.00    -0.393 OA
ATOM      4  H   UNL     1      78.887  83.251  66.371  1.00  0.00     0.210 HD
ENDBRANCH   2   3
BRANCH   2   5
ATOM      5  C   UNL     1      78.228  85.268  68.376  1.00  0.00     0.032 C 
BRANCH   5   6
ATOM      6  C   UNL     1      77.737  85.578  69.796  1.00  0.00     0.003 C 
BRANCH   6   7
ATOM      7  C   UNL     1      77.197  84.349  70.533  1.00  0.00    -0.000 C 
BRANCH   7   8
ATOM      8  C   UNL     1      75.815  84.561  71.147  1.00  0.00    -0.003 C 
ATOM      9  C   UNL     1      74.918  85.373  70.225  1.00  0.00     0.004 C 
ENDBRANCH   7   8
ENDBRANCH   6   7
ENDBRANCH   5   6
ENDBRANCH   2   5
ENDBRANCH   1   2
BRANCH   1  10
ATOM     10  C   UNL     1      77.036  83.146  65.654  1.00  0.00     0.135 C 
ATOM     11  O   UNL     1      77.642  83.796  64.803  1.00  0.00    -0.300 OA
BRANCH  10  12
ATOM     12  C   UNL     1      76.635  81.695  65.439  1.00  0.00     0.080 C 
BRANCH  12  13
ATOM     13  C   UNL     1      75.444  81.253  66.293  1.00  0.00     0.043 C 
BRANCH  13  14
ATOM     14  C   UNL     1      74.116  81.437  65.598  1.00  0.00    -0.044 A 
ATOM     15  C   UNL     1      73.134  82.244  66.173  1.00  0.00     0.054 A 
ATOM     16  C   UNL     1      73.873  80.801  64.381  1.00  0.00     0.008 A 
ATOM     17  C   UNL     1      71.908  82.414  65.529  1.00  0.00     0.160 A 
ATOM     18  C   UNL     1      72.647  80.971  63.737  1.00  0.00     0.050 A 
ATOM     19  C   UNL     1      71.664  81.777  64.312  1.00  0.00     0.157 A 
BRANCH  17  20
ATOM     20  O   UNL     1      70.956  83.203  66.100  1.00  0.00    -0.493 OA
ATOM     21  C   UNL     1      70.192  82.632  67.161  1.00  0.00     0.278 C 
ENDBRANCH  17  20
BRANCH  19  22
ATOM     22  O   UNL     1      70.471  81.935  63.674  1.00  0.00    -0.504 OA
ATOM     23  H   UNL     1      69.898  82.508  64.212  1.00  0.00     0.293 HD
ENDBRANCH  19  22
ENDBRANCH  13  14
ENDBRANCH  12  13
ENDBRANCH  10  12
ENDBRANCH   1  10
TORSDOF 12
ENDMDL
MODEL 2
REMARK VINA RESULT:    -5.648      1.656      2.141
REMARK INTER + INTRA:         -10.571
REMARK INTER:                  -9.700
REMARK INTRA:                  -0.871
REMARK UNBOUND:                -1.292
REMARK SMILES CCCCC[C@H](O)CC(=O)CCc1ccc(O)c(OC)c1
REMARK SMILES IDX 8 1 6 2 7 3 5 5 4 6 3 7 2 8 1 9 9 10 10 11 11 12 12 13 13 14
REMARK SMILES IDX 21 15 14 16 18 17 15 18 16 19 19 20 20 21 17 22
REMARK H PARENT 7 4 17 23
REMARK Flexibility Score: inf
ROOT
ATOM      1  C   UNL     1      77.080  85.103  66.646  1.00  0.00     0.107 C 
ENDROOT
BRANCH   1   2
ATOM      2  C   UNL     1      77.942  86.248  67.183  1.00  0.00     0.121 C 
BRANCH   2   3
ATOM      3  O   UNL     1      77.717  87.425  66.411  1.00  0.00    -0.393 OA
ATOM      4  H   UNL     1      78.330  88.111  66.728  1.00  0.00     0.210 HD
ENDBRANCH   2   3
BRANCH   2   5
ATOM      5  C   UNL     1      77.676  86.556  68.662  1.00  0.00     0.032 C 
BRANCH   5   6
ATOM      6  C   UNL     1      76.188  86.806  68.940  1.00  0.00     0.003 C 
BRANCH   6   7
ATOM      7  C   UNL     1      75.620  85.911  70.047  1.00  0.00    -0.000 C 
BRANCH   7   8
ATOM      8  C   UNL     1      76.551  84.769  70.449  1.00  0.00    -0.003 C 
ATOM      9  C   UNL     1      75.946  83.925  71.560  1.00  0.00     0.004 C 
ENDBRANCH   7   8
ENDBRANCH   6   7
ENDBRANCH   5   6
ENDBRANCH   2   5
ENDBRANCH   1   2
BRANCH   1  10
ATOM     10  C   UNL     1      77.806  83.767  66.634  1.00  0.00     0.135 C 
ATOM     11  O   UNL     1      78.902  83.637  67.180  1.00  0.00    -0.300 OA
BRANCH  10  12
ATOM     12  C   UNL     1      77.089  82.607  65.960  1.00  0.00     0.080 C 
BRANCH  12  13
ATOM     13  C   UNL     1      76.247  83.023  64.753  1.00  0.00     0.043 C 
BRANCH  13  14
ATOM     14  C   UNL     1      75.106  82.074  64.471  1.00  0.00    -0.044 A 
ATOM     15  C   UNL     1      74.033  81.990  65.358  1.00  0.00     0.054 A 
ATOM     16  C   UNL     1      75.127  81.281  63.323  1.00  0.00     0.008 A 
ATOM     17  C   UNL     1      72.980  81.114  65.096  1.00  0.00     0.160 A 
ATOM     18  C   UNL     1      74.074  80.405  63.062  1.00  0.00     0.050 A 
ATOM     19  C   UNL     1      73.001  80.321  63.949  1.00  0.00     0.157 A 
BRANCH  17  20
ATOM     20  O   UNL     1      71.937  81.040  65.970  1.00  0.00    -0.493 OA
ATOM     21  C   UNL     1      71.469  82.268  66.525  1.00  0.00     0.278 C 
ENDBRANCH  17  20
BRANCH  19  22
ATOM     22  O   UNL     1      71.978  79.461  63.683  1.00  0.00    -0.504 OA
ATOM     23  H   UNL     1      72.316  78.549  63.709  1.00  0.00     0.293 HD
ENDBRANCH  19  22
ENDBRANCH  13  14
ENDBRANCH  12  13
ENDBRANCH  10  12
ENDBRANCH   1  10
TORSDOF 12
ENDMDL
MODEL 3
REMARK VINA RESULT:    -5.607     21.984     26.700
REMARK INTER + INTRA:         -10.505
REMARK INTER:                  -9.189
REMARK INTRA:                  -1.316
REMARK UNBOUND:                -1.292
REMARK SMILES CCCCC[C@H](O)CC(=O)CCc1ccc(O)c(OC)c1
REMARK SMILES IDX 8 1 6 2 7 3 5 5 4 6 3 7 2 8 1 9 9 10 10 11 11 12 12 13 13 14
REMARK SMILES IDX 21 15 14 16 18 17 15 18 16 19 19 20 20 21 17 22
REMARK H PARENT 7 4 17 23
REMARK Flexibility Score: inf
ROOT
ATOM      1  C   UNL     1      94.210  95.518  79.793  1.00  0.00     0.107 C 
ENDROOT
BRANCH   1   2
ATOM      2  C   UNL     1      93.615  94.158  79.419  1.00  0.00     0.121 C 
BRANCH   2   3
ATOM      3  O   UNL     1      93.371  93.396  80.598  1.00  0.00    -0.393 OA
ATOM      4  H   UNL     1      92.643  93.823  81.083  1.00  0.00     0.210 HD
ENDBRANCH   2   3
BRANCH   2   5
ATOM      5  C   UNL     1      92.315  94.273  78.613  1.00  0.00     0.032 C 
BRANCH   5   6
ATOM      6  C   UNL     1      91.981  95.727  78.263  1.00  0.00     0.003 C 
BRANCH   6   7
ATOM      7  C   UNL     1      90.663  95.879  77.495  1.00  0.00    -0.000 C 
BRANCH   7   8
ATOM      8  C   UNL     1      89.749  94.659  77.603  1.00  0.00    -0.003 C 
ATOM      9  C   UNL     1      89.538  94.004  76.247  1.00  0.00     0.004 C 
ENDBRANCH   7   8
ENDBRANCH   6   7
ENDBRANCH   5   6
ENDBRANCH   2   5
ENDBRANCH   1   2
BRANCH   1  10
ATOM     10  C   UNL     1      95.724  95.493  79.918  1.00  0.00     0.135 C 
ATOM     11  O   UNL     1      96.306  94.502  80.359  1.00  0.00    -0.300 OA
BRANCH  10  12
ATOM     12  C   UNL     1      96.470  96.725  79.429  1.00  0.00     0.080 C 
BRANCH  12  13
ATOM     13  C   UNL     1      95.579  97.734  78.702  1.00  0.00     0.043 C 
BRANCH  13  14
ATOM     14  C   UNL     1      95.699  97.653  77.198  1.00  0.00    -0.044 A 
ATOM     15  C   UNL     1      96.639  98.438  76.530  1.00  0.00     0.054 A 
ATOM     16  C   UNL     1      94.869  96.793  76.479  1.00  0.00     0.008 A 
ATOM     17  C   UNL     1      96.749  98.361  75.141  1.00  0.00     0.160 A 
ATOM     18  C   UNL     1      94.980  96.716  75.090  1.00  0.00     0.050 A 
ATOM     19  C   UNL     1      95.919  97.501  74.422  1.00  0.00     0.157 A 
BRANCH  17  20
ATOM     20  O   UNL     1      97.670  99.133  74.499  1.00  0.00    -0.493 OA
ATOM     21  C   UNL     1      97.541 100.547  74.637  1.00  0.00     0.278 C 
ENDBRANCH  17  20
BRANCH  19  22
ATOM     22  O   UNL     1      96.018  97.418  73.066  1.00  0.00    -0.504 OA
ATOM     23  H   UNL     1      95.131  97.514  72.677  1.00  0.00     0.293 HD
ENDBRANCH  19  22
ENDBRANCH  13  14
ENDBRANCH  12  13
ENDBRANCH  10  12
ENDBRANCH   1  10
TORSDOF 12
ENDMDL
MODEL 4
REMARK VINA RESULT:    -5.459      2.013      3.055
REMARK INTER + INTRA:         -10.261
REMARK INTER:                  -8.467
REMARK INTRA:                  -1.794
REMARK UNBOUND:                -1.292
REMARK SMILES CCCCC[C@H](O)CC(=O)CCc1ccc(O)c(OC)c1
REMARK SMILES IDX 8 1 6 2 7 3 5 5 4 6 3 7 2 8 1 9 9 10 10 11 11 12 12 13 13 14
REMARK SMILES IDX 21 15 14 16 18 17 15 18 16 19 19 20 20 21 17 22
REMARK H PARENT 7 4 17 23
REMARK Flexibility Score: inf
ROOT
ATOM      1  C   UNL     1      77.811  86.796  67.663  1.00  0.00     0.107 C 
ENDROOT
BRANCH   1   2
ATOM      2  C   UNL     1      76.567  87.617  68.010  1.00  0.00     0.121 C 
BRANCH   2   3
ATOM      3  O   UNL     1      76.179  88.405  66.887  1.00  0.00    -0.393 OA
ATOM      4  H   UNL     1      76.874  89.069  66.734  1.00  0.00     0.210 HD
ENDBRANCH   2   3
BRANCH   2   5
ATOM      5  C   UNL     1      75.381  86.752  68.454  1.00  0.00     0.032 C 
BRANCH   5   6
ATOM      6  C   UNL     1      75.397  86.483  69.964  1.00  0.00     0.003 C 
BRANCH   6   7
ATOM      7  C   UNL     1      75.065  85.032  70.325  1.00  0.00    -0.000 C 
BRANCH   7   8
ATOM      8  C   UNL     1      76.034  84.415  71.332  1.00  0.00    -0.003 C 
ATOM      9  C   UNL     1      77.480  84.612  70.904  1.00  0.00     0.004 C 
ENDBRANCH   7   8
ENDBRANCH   6   7
ENDBRANCH   5   6
ENDBRANCH   2   5
ENDBRANCH   1   2
BRANCH   1  10
ATOM     10  C   UNL     1      77.532  85.688  66.660  1.00  0.00     0.135 C 
ATOM     11  O   UNL     1      76.994  85.932  65.580  1.00  0.00    -0.300 OA
BRANCH  10  12
ATOM     12  C   UNL     1      77.991  84.289  67.044  1.00  0.00     0.080 C 
BRANCH  12  13
ATOM     13  C   UNL     1      76.867  83.397  67.574  1.00  0.00     0.043 C 
BRANCH  13  14
ATOM     14  C   UNL     1      76.121  82.672  66.480  1.00  0.00    -0.044 A 
ATOM     15  C   UNL     1      74.751  82.875  66.316  1.00  0.00     0.054 A 
ATOM     16  C   UNL     1      76.803  81.798  65.632  1.00  0.00     0.008 A 
ATOM     17  C   UNL     1      74.063  82.205  65.304  1.00  0.00     0.160 A 
ATOM     18  C   UNL     1      76.115  81.128  64.620  1.00  0.00     0.050 A 
ATOM     19  C   UNL     1      74.745  81.331  64.457  1.00  0.00     0.157 A 
BRANCH  17  20
ATOM     20  O   UNL     1      72.724  82.411  65.155  1.00  0.00    -0.493 OA
ATOM     21  C   UNL     1      71.858  81.724  66.056  1.00  0.00     0.278 C 
ENDBRANCH  17  20
BRANCH  19  22
ATOM     22  O   UNL     1      74.084  80.672  63.465  1.00  0.00    -0.504 OA
ATOM     23  H   UNL     1      73.994  81.261  62.697  1.00  0.00     0.293 HD
ENDBRANCH  19  22
ENDBRANCH  13  14
ENDBRANCH  12  13
ENDBRANCH  10  12
ENDBRANCH   1  10
TORSDOF 12
ENDMDL
MODEL 5
REMARK VINA RESULT:    -5.423     19.978     25.002
REMARK INTER + INTRA:         -10.203
REMARK INTER:                  -9.232
REMARK INTRA:                  -0.971
REMARK UNBOUND:                -1.292
REMARK SMILES CCCCC[C@H](O)CC(=O)CCc1ccc(O)c(OC)c1
REMARK SMILES IDX 8 1 6 2 7 3 5 5 4 6 3 7 2 8 1 9 9 10 10 11 11 12 12 13 13 14
REMARK SMILES IDX 21 15 14 16 18 17 15 18 16 19 19 20 20 21 17 22
REMARK H PARENT 7 4 17 23
REMARK Flexibility Score: inf
ROOT
ATOM      1  C   UNL     1      90.983  94.627  76.806  1.00  0.00     0.107 C 
ENDROOT
BRANCH   1   2
ATOM      2  C   UNL     1      91.381  93.315  77.487  1.00  0.00     0.121 C 
BRANCH   2   3
ATOM      3  O   UNL     1      90.472  93.025  78.547  1.00  0.00    -0.393 OA
ATOM      4  H   UNL     1      90.549  93.736  79.207  1.00  0.00     0.210 HD
ENDBRANCH   2   3
BRANCH   2   5
ATOM      5  C   UNL     1      91.423  92.126  76.519  1.00  0.00     0.032 C 
BRANCH   5   6
ATOM      6  C   UNL     1      90.765  92.454  75.173  1.00  0.00     0.003 C 
BRANCH   6   7
ATOM      7  C   UNL     1      89.513  91.618  74.891  1.00  0.00    -0.000 C 
BRANCH   7   8
ATOM      8  C   UNL     1      88.626  92.197  73.790  1.00  0.00    -0.003 C 
ATOM      9  C   UNL     1      87.455  91.278  73.479  1.00  0.00     0.004 C 
ENDBRANCH   7   8
ENDBRANCH   6   7
ENDBRANCH   5   6
ENDBRANCH   2   5
ENDBRANCH   1   2
BRANCH   1  10
ATOM     10  C   UNL     1      92.091  95.667  76.823  1.00  0.00     0.135 C 
ATOM     11  O   UNL     1      91.877  96.813  77.216  1.00  0.00    -0.300 OA
BRANCH  10  12
ATOM     12  C   UNL     1      93.469  95.202  76.377  1.00  0.00     0.080 C 
BRANCH  12  13
ATOM     13  C   UNL     1      94.618  95.857  77.146  1.00  0.00     0.043 C 
BRANCH  13  14
ATOM     14  C   UNL     1      94.788  95.303  78.541  1.00  0.00    -0.044 A 
ATOM     15  C   UNL     1      94.559  96.119  79.648  1.00  0.00     0.054 A 
ATOM     16  C   UNL     1      95.176  93.975  78.720  1.00  0.00     0.008 A 
ATOM     17  C   UNL     1      94.716  95.606  80.936  1.00  0.00     0.160 A 
ATOM     18  C   UNL     1      95.333  93.462  80.008  1.00  0.00     0.050 A 
ATOM     19  C   UNL     1      95.103  94.278  81.116  1.00  0.00     0.157 A 
BRANCH  17  20
ATOM     20  O   UNL     1      94.489  96.413  82.011  1.00  0.00    -0.493 OA
ATOM     21  C   UNL     1      95.626  97.041  82.601  1.00  0.00     0.278 C 
ENDBRANCH  17  20
BRANCH  19  22
ATOM     22  O   UNL     1      95.260  93.766  82.368  1.00  0.00    -0.504 OA
ATOM     23  H   UNL     1      94.567  94.127  82.947  1.00  0.00     0.293 HD
ENDBRANCH  19  22
ENDBRANCH  13  14
ENDBRANCH  12  13
ENDBRANCH  10  12
ENDBRANCH   1  10
TORSDOF 12
ENDMDL
MODEL 6
REMARK VINA RESULT:    -5.373     23.209     28.226
REMARK INTER + INTRA:         -10.121
REMARK INTER:                  -8.969
REMARK INTRA:                  -1.152
REMARK UNBOUND:                -1.292
REMARK SMILES CCCCC[C@H](O)CC(=O)CCc1ccc(O)c(OC)c1
REMARK SMILES IDX 8 1 6 2 7 3 5 5 4 6 3 7 2 8 1 9 9 10 10 11 11 12 12 13 13 14
REMARK SMILES IDX 21 15 14 16 18 17 15 18 16 19 19 20 20 21 17 22
REMARK H PARENT 7 4 17 23
REMARK Flexibility Score: inf
ROOT
ATOM      1  C   UNL     1      95.246  95.795  78.640  1.00  0.00     0.107 C 
ENDROOT
BRANCH   1   2
ATOM      2  C   UNL     1      94.151  95.906  77.577  1.00  0.00     0.121 C 
BRANCH   2   3
ATOM      3  O   UNL     1      94.209  94.780  76.704  1.00  0.00    -0.393 OA
ATOM      4  H   UNL     1      94.590  95.078  75.859  1.00  0.00     0.210 HD
ENDBRANCH   2   3
BRANCH   2   5
ATOM      5  C   UNL     1      92.743  96.010  78.174  1.00  0.00     0.032 C 
BRANCH   5   6
ATOM      6  C   UNL     1      91.655  95.981  77.093  1.00  0.00     0.003 C 
BRANCH   6   7
ATOM      7  C   UNL     1      90.337  95.365  77.575  1.00  0.00    -0.000 C 
BRANCH   7   8
ATOM      8  C   UNL     1      90.516  94.043  78.318  1.00  0.00    -0.003 C 
ATOM      9  C   UNL     1      89.216  93.255  78.369  1.00  0.00     0.004 C 
ENDBRANCH   7   8
ENDBRANCH   6   7
ENDBRANCH   5   6
ENDBRANCH   2   5
ENDBRANCH   1   2
BRANCH   1  10
ATOM     10  C   UNL     1      95.350  94.404  79.245  1.00  0.00     0.135 C 
ATOM     11  O   UNL     1      95.984  93.514  78.679  1.00  0.00    -0.300 OA
BRANCH  10  12
ATOM     12  C   UNL     1      94.674  94.194  80.591  1.00  0.00     0.080 C 
BRANCH  12  13
ATOM     13  C   UNL     1      95.620  94.340  81.784  1.00  0.00     0.043 C 
BRANCH  13  14
ATOM     14  C   UNL     1      95.935  95.779  82.118  1.00  0.00    -0.044 A 
ATOM     15  C   UNL     1      97.258  96.180  82.299  1.00  0.00     0.054 A 
ATOM     16  C   UNL     1      94.901  96.707  82.244  1.00  0.00     0.008 A 
ATOM     17  C   UNL     1      97.547  97.510  82.606  1.00  0.00     0.160 A 
ATOM     18  C   UNL     1      95.190  98.037  82.551  1.00  0.00     0.050 A 
ATOM     19  C   UNL     1      96.513  98.438  82.732  1.00  0.00     0.157 A 
BRANCH  17  20
ATOM     20  O   UNL     1      98.844  97.890  82.781  1.00  0.00    -0.493 OA
ATOM     21  C   UNL     1      99.597  98.187  81.606  1.00  0.00     0.278 C 
ENDBRANCH  17  20
BRANCH  19  22
ATOM     22  O   UNL     1      96.784  99.739  83.031  1.00  0.00    -0.504 OA
ATOM     23  H   UNL     1      96.351 100.312  82.375  1.00  0.00     0.293 HD
ENDBRANCH  19  22
ENDBRANCH  13  14
ENDBRANCH  12  13
ENDBRANCH  10  12
ENDBRANCH   1  10
TORSDOF 12
ENDMDL
MODEL 7
REMARK VINA RESULT:    -5.364     22.215     26.496
REMARK INTER + INTRA:         -10.105
REMARK INTER:                  -8.492
REMARK INTRA:                  -1.613
REMARK UNBOUND:                -1.292
REMARK SMILES CCCCC[C@H](O)CC(=O)CCc1ccc(O)c(OC)c1
REMARK SMILES IDX 8 1 6 2 7 3 5 5 4 6 3 7 2 8 1 9 9 10 10 11 11 12 12 13 13 14
REMARK SMILES IDX 21 15 14 16 18 17 15 18 16 19 19 20 20 21 17 22
REMARK H PARENT 7 4 17 23
REMARK Flexibility Score: inf
ROOT
ATOM      1  C   UNL     1      95.828  98.260  78.570  1.00  0.00     0.107 C 
ENDROOT
BRANCH   1   2
ATOM      2  C   UNL     1      96.864  97.332  79.209  1.00  0.00     0.121 C 
BRANCH   2   3
ATOM      3  O   UNL     1      97.783  98.095  79.987  1.00  0.00    -0.393 OA
ATOM      4  H   UNL     1      97.683  99.029  79.733  1.00  0.00     0.210 HD
ENDBRANCH   2   3
BRANCH   2   5
ATOM      5  C   UNL     1      96.235  96.247  80.092  1.00  0.00     0.032 C 
BRANCH   5   6
ATOM      6  C   UNL     1      94.882  96.684  80.666  1.00  0.00     0.003 C 
BRANCH   6   7
ATOM      7  C   UNL     1      94.841  96.676  82.197  1.00  0.00    -0.000 C 
BRANCH   7   8
ATOM      8  C   UNL     1      95.807  97.670  82.840  1.00  0.00    -0.003 C 
ATOM      9  C   UNL     1      95.396  99.106  82.553  1.00  0.00     0.004 C 
ENDBRANCH   7   8
ENDBRANCH   6   7
ENDBRANCH   5   6
ENDBRANCH   2   5
ENDBRANCH   1   2
BRANCH   1  10
ATOM     10  C   UNL     1      96.002  98.402  77.067  1.00  0.00     0.135 C 
ATOM     11  O   UNL     1      97.117  98.565  76.571  1.00  0.00    -0.300 OA
BRANCH  10  12
ATOM     12  C   UNL     1      94.744  98.286  76.220  1.00  0.00     0.080 C 
BRANCH  12  13
ATOM     13  C   UNL     1      94.495  96.877  75.678  1.00  0.00     0.043 C 
BRANCH  13  14
ATOM     14  C   UNL     1      93.674  96.020  76.611  1.00  0.00    -0.044 A 
ATOM     15  C   UNL     1      92.312  96.274  76.775  1.00  0.00     0.054 A 
ATOM     16  C   UNL     1      94.277  94.973  77.309  1.00  0.00     0.008 A 
ATOM     17  C   UNL     1      91.554  95.481  77.637  1.00  0.00     0.160 A 
ATOM     18  C   UNL     1      93.519  94.180  78.171  1.00  0.00     0.050 A 
ATOM     19  C   UNL     1      92.158  94.434  78.335  1.00  0.00     0.157 A 
BRANCH  17  20
ATOM     20  O   UNL     1      90.225  95.739  77.789  1.00  0.00    -0.493 OA
ATOM     21  C   UNL     1      89.319  94.950  77.020  1.00  0.00     0.278 C 
ENDBRANCH  17  20
BRANCH  19  22
ATOM     22  O   UNL     1      91.428  93.653  79.179  1.00  0.00    -0.504 OA
ATOM     23  H   UNL     1      91.697  93.840  80.095  1.00  0.00     0.293 HD
ENDBRANCH  19  22
ENDBRANCH  13  14
ENDBRANCH  12  13
ENDBRANCH  10  12
ENDBRANCH   1  10
TORSDOF 12
ENDMDL
MODEL 8
REMARK VINA RESULT:    -5.336     24.112     27.343
REMARK INTER + INTRA:         -10.059
REMARK INTER:                  -8.320
REMARK INTRA:                  -1.740
REMARK UNBOUND:                -1.292
REMARK SMILES CCCCC[C@H](O)CC(=O)CCc1ccc(O)c(OC)c1
REMARK SMILES IDX 8 1 6 2 7 3 5 5 4 6 3 7 2 8 1 9 9 10 10 11 11 12 12 13 13 14
REMARK SMILES IDX 21 15 14 16 18 17 15 18 16 19 19 20 20 21 17 22
REMARK H PARENT 7 4 17 23
REMARK Flexibility Score: inf
ROOT
ATOM      1  C   UNL     1      93.171  94.763  77.636  1.00  0.00     0.107 C 
ENDROOT
BRANCH   1   2
ATOM      2  C   UNL     1      92.909  94.479  79.117  1.00  0.00     0.121 C 
BRANCH   2   3
ATOM      3  O   UNL     1      91.807  93.585  79.251  1.00  0.00    -0.393 OA
ATOM      4  H   UNL     1      91.106  94.047  79.743  1.00  0.00     0.210 HD
ENDBRANCH   2   3
BRANCH   2   5
ATOM      5  C   UNL     1      94.127  93.890  79.840  1.00  0.00     0.032 C 
BRANCH   5   6
ATOM      6  C   UNL     1      95.444  94.265  79.150  1.00  0.00     0.003 C 
BRANCH   6   7
ATOM      7  C   UNL     1      96.283  95.267  79.950  1.00  0.00    -0.000 C 
BRANCH   7   8
ATOM      8  C   UNL     1      95.603  95.752  81.229  1.00  0.00    -0.003 C 
ATOM      9  C   UNL     1      95.104  97.181  81.083  1.00  0.00     0.004 C 
ENDBRANCH   7   8
ENDBRANCH   6   7
ENDBRANCH   5   6
ENDBRANCH   2   5
ENDBRANCH   1   2
BRANCH   1  10
ATOM     10  C   UNL     1      92.270  95.848  77.070  1.00  0.00     0.135 C 
ATOM     11  O   UNL     1      91.089  95.929  77.406  1.00  0.00    -0.300 OA
BRANCH  10  12
ATOM     12  C   UNL     1      92.915  96.839  76.113  1.00  0.00     0.080 C 
BRANCH  12  13
ATOM     13  C   UNL     1      94.289  96.398  75.605  1.00  0.00     0.043 C 
BRANCH  13  14
ATOM     14  C   UNL     1      95.402  97.328  76.026  1.00  0.00    -0.044 A 
ATOM     15  C   UNL     1      96.301  97.814  75.077  1.00  0.00     0.054 A 
ATOM     16  C   UNL     1      95.530  97.700  77.364  1.00  0.00     0.008 A 
ATOM     17  C   UNL     1      97.328  98.674  75.467  1.00  0.00     0.160 A 
ATOM     18  C   UNL     1      96.557  98.560  77.755  1.00  0.00     0.050 A 
ATOM     19  C   UNL     1      97.456  99.046  76.806  1.00  0.00     0.157 A 
BRANCH  17  20
ATOM     20  O   UNL     1      98.201  99.142  74.532  1.00  0.00    -0.493 OA
ATOM     21  C   UNL     1      97.644  99.641  73.317  1.00  0.00     0.278 C 
ENDBRANCH  17  20
BRANCH  19  22
ATOM     22  O   UNL     1      98.455  99.885  77.199  1.00  0.00    -0.504 OA
ATOM     23  H   UNL     1      98.802 100.352  76.419  1.00  0.00     0.293 HD
ENDBRANCH  19  22
ENDBRANCH  13  14
ENDBRANCH  12  13
ENDBRANCH  10  12
ENDBRANCH   1  10
TORSDOF 12
ENDMDL
MODEL 9
REMARK VINA RESULT:    -5.294      2.283      6.768
REMARK INTER + INTRA:          -9.990
REMARK INTER:                  -8.521
REMARK INTRA:                  -1.469
REMARK UNBOUND:                -1.292
REMARK SMILES CCCCC[C@H](O)CC(=O)CCc1ccc(O)c(OC)c1
REMARK SMILES IDX 8 1 6 2 7 3 5 5 4 6 3 7 2 8 1 9 9 10 10 11 11 12 12 13 13 14
REMARK SMILES IDX 21 15 14 16 18 17 15 18 16 19 19 20 20 21 17 22
REMARK H PARENT 7 4 17 23
REMARK Flexibility Score: inf
ROOT
ATOM      1  C   UNL     1      74.321  80.606  63.820  1.00  0.00     0.107 C 
ENDROOT
BRANCH   1   2
ATOM      2  C   UNL     1      72.807  80.387  63.845  1.00  0.00     0.121 C 
BRANCH   2   3
ATOM      3  O   UNL     1      72.369  80.188  65.188  1.00  0.00    -0.393 OA
ATOM      4  H   UNL     1      72.253  81.063  65.596  1.00  0.00     0.210 HD
ENDBRANCH   2   3
BRANCH   2   5
ATOM      5  C   UNL     1      72.022  81.551  63.227  1.00  0.00     0.032 C 
BRANCH   5   6
ATOM      6  C   UNL     1      70.995  82.137  64.203  1.00  0.00     0.003 C 
BRANCH   6   7
ATOM      7  C   UNL     1      71.384  83.520  64.734  1.00  0.00    -0.000 C 
BRANCH   7   8
ATOM      8  C   UNL     1      71.802  83.517  66.203  1.00  0.00    -0.003 C 
ATOM      9  C   UNL     1      70.811  82.742  67.059  1.00  0.00     0.004 C 
ENDBRANCH   7   8
ENDBRANCH   6   7
ENDBRANCH   5   6
ENDBRANCH   2   5
ENDBRANCH   1   2
BRANCH   1  10
ATOM     10  C   UNL     1      74.802  81.567  64.895  1.00  0.00     0.135 C 
ATOM     11  O   UNL     1      74.902  81.206  66.068  1.00  0.00    -0.300 OA
BRANCH  10  12
ATOM     12  C   UNL     1      75.191  82.964  64.437  1.00  0.00     0.080 C 
BRANCH  12  13
ATOM     13  C   UNL     1      76.702  83.197  64.387  1.00  0.00     0.043 C 
BRANCH  13  14
ATOM     14  C   UNL     1      77.231  83.915  65.606  1.00  0.00    -0.044 A 
ATOM     15  C   UNL     1      77.145  85.304  65.690  1.00  0.00     0.054 A 
ATOM     16  C   UNL     1      77.806  83.187  66.648  1.00  0.00     0.008 A 
ATOM     17  C   UNL     1      77.633  85.966  66.817  1.00  0.00     0.160 A 
ATOM     18  C   UNL     1      78.294  83.848  67.775  1.00  0.00     0.050 A 
ATOM     19  C   UNL     1      78.208  85.238  67.859  1.00  0.00     0.157 A 
BRANCH  17  20
ATOM     20  O   UNL     1      77.544  87.324  66.888  1.00  0.00    -0.493 OA
ATOM     21  C   UNL     1      76.235  87.883  66.985  1.00  0.00     0.278 C 
ENDBRANCH  17  20
BRANCH  19  22
ATOM     22  O   UNL     1      78.688  85.873  68.965  1.00  0.00    -0.504 OA
ATOM     23  H   UNL     1      78.273  86.750  69.031  1.00  0.00     0.293 HD
ENDBRANCH  19  22
ENDBRANCH  13  14
ENDBRANCH  12  13
ENDBRANCH  10  12
ENDBRANCH   1  10
TORSDOF 12
ENDMDL
MODEL 10
REMARK VINA RESULT:    -5.217      1.995      6.565
REMARK INTER + INTRA:          -9.863
REMARK INTER:                  -8.517
REMARK INTRA:                  -1.346
REMARK UNBOUND:                -1.292
REMARK SMILES CCCCC[C@H](O)CC(=O)CCc1ccc(O)c(OC)c1
REMARK SMILES IDX 8 1 6 2 7 3 5 5 4 6 3 7 2 8 1 9 9 10 10 11 11 12 12 13 13 14
REMARK SMILES IDX 21 15 14 16 18 17 15 18 16 19 19 20 20 21 17 22
REMARK H PARENT 7 4 17 23
REMARK Flexibility Score: inf
ROOT
ATOM      1  C   UNL     1      73.879  80.535  64.529  1.00  0.00     0.107 C 
ENDROOT
BRANCH   1   2
ATOM      2  C   UNL     1      72.930  80.356  63.340  1.00  0.00     0.121 C 
BRANCH   2   3
ATOM      3  O   UNL     1      71.960  79.356  63.642  1.00  0.00    -0.393 OA
ATOM      4  H   UNL     1      71.107  79.650  63.279  1.00  0.00     0.210 HD
ENDBRANCH   2   3
BRANCH   2   5
ATOM      5  C   UNL     1      72.213  81.653  62.945  1.00  0.00     0.032 C 
BRANCH   5   6
ATOM      6  C   UNL     1      71.724  82.437  64.168  1.00  0.00     0.003 C 
BRANCH   6   7
ATOM      7  C   UNL     1      72.123  83.916  64.140  1.00  0.00    -0.000 C 
BRANCH   7   8
ATOM      8  C   UNL     1      72.861  84.376  65.396  1.00  0.00    -0.003 C 
ATOM      9  C   UNL     1      72.195  83.843  66.655  1.00  0.00     0.004 C 
ENDBRANCH   7   8
ENDBRANCH   6   7
ENDBRANCH   5   6
ENDBRANCH   2   5
ENDBRANCH   1   2
BRANCH   1  10
ATOM     10  C   UNL     1      75.266  81.000  64.118  1.00  0.00     0.135 C 
ATOM     11  O   UNL     1      75.614  80.990  62.938  1.00  0.00    -0.300 OA
BRANCH  10  12
ATOM     12  C   UNL     1      76.170  81.513  65.229  1.00  0.00     0.080 C 
BRANCH  12  13
ATOM     13  C   UNL     1      75.413  82.183  66.377  1.00  0.00     0.043 C 
BRANCH  13  14
ATOM     14  C   UNL     1      76.269  83.141  67.172  1.00  0.00    -0.044 A 
ATOM     15  C   UNL     1      75.787  83.685  68.362  1.00  0.00     0.054 A 
ATOM     16  C   UNL     1      77.543  83.481  66.714  1.00  0.00     0.008 A 
ATOM     17  C   UNL     1      76.580  84.568  69.096  1.00  0.00     0.160 A 
ATOM     18  C   UNL     1      78.335  84.364  67.447  1.00  0.00     0.050 A 
ATOM     19  C   UNL     1      77.853  84.908  68.638  1.00  0.00     0.157 A 
BRANCH  17  20
ATOM     20  O   UNL     1      76.098  85.094  70.257  1.00  0.00    -0.493 OA
ATOM     21  C   UNL     1      76.073  84.235  71.395  1.00  0.00     0.278 C 
ENDBRANCH  17  20
BRANCH  19  22
ATOM     22  O   UNL     1      78.636  85.770  69.345  1.00  0.00    -0.504 OA
ATOM     23  H   UNL     1      78.353  85.763  70.276  1.00  0.00     0.293 HD
ENDBRANCH  19  22
ENDBRANCH  13  14
ENDBRANCH  12  13
ENDBRANCH  10  12
ENDBRANCH   1  10
TORSDOF 12
ENDMDL
