MODEL 1
REMARK VINA RESULT:    -5.515      0.000      0.000
REMARK INTER + INTRA:         -10.449
REMARK INTER:                  -9.062
REMARK INTRA:                  -1.387
REMARK UNBOUND:                -1.387
REMARK SMILES CCCCC[C@H](O)CC(=O)CCc1ccc(O)c(OC)c1
REMARK SMILES IDX 8 1 6 2 7 3 5 5 4 6 3 7 2 8 1 9 9 10 10 11 11 12 12 13 13 14
REMARK SMILES IDX 21 15 14 16 18 17 15 18 16 19 19 20 20 21 17 22
REMARK H PARENT 7 4 17 23
REMARK Flexibility Score: inf
ROOT
ATOM      1  C   UNL     1      95.503  94.346  80.003  1.00  0.00     0.107 C 
ENDROOT
BRANCH   1   2
ATOM      2  C   UNL     1      95.034  92.978  79.501  1.00  0.00     0.121 C 
BRANCH   2   3
ATOM      3  O   UNL     1      94.377  92.276  80.554  1.00  0.00    -0.393 OA
ATOM      4  H   UNL     1      95.060  91.951  81.166  1.00  0.00     0.210 HD
ENDBRANCH   2   3
BRANCH   2   5
ATOM      5  C   UNL     1      94.094  93.071  78.293  1.00  0.00     0.032 C 
BRANCH   5   6
ATOM      6  C   UNL     1      93.192  94.309  78.360  1.00  0.00     0.003 C 
BRANCH   6   7
ATOM      7  C   UNL     1      92.124  94.342  77.261  1.00  0.00    -0.000 C 
BRANCH   7   8
ATOM      8  C   UNL     1      91.546  92.967  76.928  1.00  0.00    -0.003 C 
ATOM      9  C   UNL     1      90.235  92.725  77.660  1.00  0.00     0.004 C 
ENDBRANCH   7   8
ENDBRANCH   6   7
ENDBRANCH   5   6
ENDBRANCH   2   5
ENDBRANCH   1   2
BRANCH   1  10
ATOM     10  C   UNL     1      96.954  94.641  79.660  1.00  0.00     0.135 C 
ATOM     11  O   UNL     1      97.855  94.405  80.464  1.00  0.00    -0.300 OA
BRANCH  10  12
ATOM     12  C   UNL     1      97.227  95.194  78.269  1.00  0.00     0.080 C 
BRANCH  12  13
ATOM     13  C   UNL     1      96.226  96.263  77.825  1.00  0.00     0.043 C 
BRANCH  13  14
ATOM     14  C   UNL     1      96.100  96.369  76.324  1.00  0.00    -0.044 A 
ATOM     15  C   UNL     1      96.914  97.253  75.616  1.00  0.00     0.054 A 
ATOM     16  C   UNL     1      95.169  95.582  75.646  1.00  0.00     0.008 A 
ATOM     17  C   UNL     1      96.798  97.349  74.229  1.00  0.00     0.160 A 
ATOM     18  C   UNL     1      95.052  95.678  74.259  1.00  0.00     0.050 A 
ATOM     19  C   UNL     1      95.866  96.562  73.551  1.00  0.00     0.157 A 
BRANCH  17  20
ATOM     20  O   UNL     1      97.598  98.216  73.548  1.00  0.00    -0.493 OA
ATOM     21  C   UNL     1      98.927  97.783  73.262  1.00  0.00     0.278 C 
ENDBRANCH  17  20
BRANCH  19  22
ATOM     22  O   UNL     1      95.743  96.647  72.197  1.00  0.00    -0.504 OA
ATOM     23  H   UNL     1      96.431  96.098  71.781  1.00  0.00     0.293 HD
ENDBRANCH  19  22
ENDBRANCH  13  14
ENDBRANCH  12  13
ENDBRANCH  10  12
ENDBRANCH   1  10
TORSDOF 12
ENDMDL
MODEL 2
REMARK VINA RESULT:    -5.322     12.664     14.784
REMARK INTER + INTRA:         -10.131
REMARK INTER:                  -8.690
REMARK INTRA:                  -1.440
REMARK UNBOUND:                -1.387
REMARK SMILES CCCCC[C@H](O)CC(=O)CCc1ccc(O)c(OC)c1
REMARK SMILES IDX 8 1 6 2 7 3 5 5 4 6 3 7 2 8 1 9 9 10 10 11 11 12 12 13 13 14
REMARK SMILES IDX 21 15 14 16 18 17 15 18 16 19 19 20 20 21 17 22
REMARK H PARENT 7 4 17 23
REMARK Flexibility Score: inf
ROOT
ATOM      1  C   UNL     1      97.878  78.433  79.752  1.00  0.00     0.107 C 
ENDROOT
BRANCH   1   2
ATOM      2  C   UNL     1      97.623  78.252  81.251  1.00  0.00     0.121 C 
BRANCH   2   3
ATOM      3  O   UNL     1      98.857  78.321  81.962  1.00  0.00    -0.393 OA
ATOM      4  H   UNL     1      99.199  77.414  82.053  1.00  0.00     0.210 HD
ENDBRANCH   2   3
BRANCH   2   5
ATOM      5  C   UNL     1      96.651  79.290  81.824  1.00  0.00     0.032 C 
BRANCH   5   6
ATOM      6  C   UNL     1      96.996  79.666  83.270  1.00  0.00     0.003 C 
BRANCH   6   7
ATOM      7  C   UNL     1      97.035  81.178  83.511  1.00  0.00    -0.000 C 
BRANCH   7   8
ATOM      8  C   UNL     1      96.404  81.994  82.384  1.00  0.00    -0.003 C 
ATOM      9  C   UNL     1      95.997  83.379  82.863  1.00  0.00     0.004 C 
ENDBRANCH   7   8
ENDBRANCH   6   7
ENDBRANCH   5   6
ENDBRANCH   2   5
ENDBRANCH   1   2
BRANCH   1  10
ATOM     10  C   UNL     1      99.285  78.917  79.441  1.00  0.00     0.135 C 
ATOM     11  O   UNL     1     100.254  78.168  79.565  1.00  0.00    -0.300 OA
BRANCH  10  12
ATOM     12  C   UNL     1      99.418  80.344  78.932  1.00  0.00     0.080 C 
BRANCH  12  13
ATOM     13  C   UNL     1      98.256  81.253  79.339  1.00  0.00     0.043 C 
BRANCH  13  14
ATOM     14  C   UNL     1      97.534  81.855  78.157  1.00  0.00    -0.044 A 
ATOM     15  C   UNL     1      98.163  81.919  76.913  1.00  0.00     0.054 A 
ATOM     16  C   UNL     1      96.237  82.346  78.309  1.00  0.00     0.008 A 
ATOM     17  C   UNL     1      97.494  82.474  75.822  1.00  0.00     0.160 A 
ATOM     18  C   UNL     1      95.569  82.902  77.218  1.00  0.00     0.050 A 
ATOM     19  C   UNL     1      96.198  82.966  75.975  1.00  0.00     0.157 A 
BRANCH  17  20
ATOM     20  O   UNL     1      98.119  82.532  74.613  1.00  0.00    -0.493 OA
ATOM     21  C   UNL     1      99.545  82.541  74.620  1.00  0.00     0.278 C 
ENDBRANCH  17  20
BRANCH  19  22
ATOM     22  O   UNL     1      95.535  83.510  74.917  1.00  0.00    -0.504 OA
ATOM     23  H   UNL     1      95.167  84.371  75.182  1.00  0.00     0.293 HD
ENDBRANCH  19  22
ENDBRANCH  13  14
ENDBRANCH  12  13
ENDBRANCH  10  12
ENDBRANCH   1  10
TORSDOF 12
ENDMDL
MODEL 3
REMARK VINA RESULT:    -5.211     23.331     27.443
REMARK INTER + INTRA:          -9.949
REMARK INTER:                  -8.804
REMARK INTRA:                  -1.145
REMARK UNBOUND:                -1.387
REMARK SMILES CCCCC[C@H](O)CC(=O)CCc1ccc(O)c(OC)c1
REMARK SMILES IDX 8 1 6 2 7 3 5 5 4 6 3 7 2 8 1 9 9 10 10 11 11 12 12 13 13 14
REMARK SMILES IDX 21 15 14 16 18 17 15 18 16 19 19 20 20 21 17 22
REMARK H PARENT 7 4 17 23
REMARK Flexibility Score: inf
ROOT
ATOM      1  C   UNL     1      76.435  84.064  65.194  1.00  0.00     0.107 C 
ENDROOT
BRANCH   1   2
ATOM      2  C   UNL     1      77.030  84.162  66.600  1.00  0.00     0.121 C 
BRANCH   2   3
ATOM      3  O   UNL     1      78.204  83.357  66.685  1.00  0.00    -0.393 OA
ATOM      4  H   UNL     1      77.949  82.497  67.061  1.00  0.00     0.210 HD
ENDBRANCH   2   3
BRANCH   2   5
ATOM      5  C   UNL     1      77.374  85.600  67.008  1.00  0.00     0.032 C 
BRANCH   5   6
ATOM      6  C   UNL     1      76.873  85.935  68.418  1.00  0.00     0.003 C 
BRANCH   6   7
ATOM      7  C   UNL     1      76.386  84.708  69.195  1.00  0.00    -0.000 C 
BRANCH   7   8
ATOM      8  C   UNL     1      75.024  84.904  69.858  1.00  0.00    -0.003 C 
ATOM      9  C   UNL     1      74.236  86.019  69.186  1.00  0.00     0.004 C 
ENDBRANCH   7   8
ENDBRANCH   6   7
ENDBRANCH   5   6
ENDBRANCH   2   5
ENDBRANCH   1   2
BRANCH   1  10
ATOM     10  C   UNL     1      75.997  82.655  64.829  1.00  0.00     0.135 C 
ATOM     11  O   UNL     1      76.634  81.675  65.214  1.00  0.00    -0.300 OA
BRANCH  10  12
ATOM     12  C   UNL     1      74.720  82.528  64.012  1.00  0.00     0.080 C 
BRANCH  12  13
ATOM     13  C   UNL     1      73.617  81.734  64.715  1.00  0.00     0.043 C 
BRANCH  13  14
ATOM     14  C   UNL     1      72.420  82.580  65.079  1.00  0.00    -0.044 A 
ATOM     15  C   UNL     1      71.157  82.250  64.587  1.00  0.00     0.054 A 
ATOM     16  C   UNL     1      72.578  83.691  65.908  1.00  0.00     0.008 A 
ATOM     17  C   UNL     1      70.052  83.031  64.925  1.00  0.00     0.160 A 
ATOM     18  C   UNL     1      71.472  84.472  66.245  1.00  0.00     0.050 A 
ATOM     19  C   UNL     1      70.209  84.142  65.754  1.00  0.00     0.157 A 
BRANCH  17  20
ATOM     20  O   UNL     1      68.823  82.699  64.439  1.00  0.00    -0.493 OA
ATOM     21  C   UNL     1      68.749  82.334  63.062  1.00  0.00     0.278 C 
ENDBRANCH  17  20
BRANCH  19  22
ATOM     22  O   UNL     1      69.138  84.913  66.090  1.00  0.00    -0.504 OA
ATOM     23  H   UNL     1      69.220  85.778  65.654  1.00  0.00     0.293 HD
ENDBRANCH  19  22
ENDBRANCH  13  14
ENDBRANCH  12  13
ENDBRANCH  10  12
ENDBRANCH   1  10
TORSDOF 12
ENDMDL
MODEL 4
REMARK VINA RESULT:    -5.179     14.095     17.928
REMARK INTER + INTRA:          -9.897
REMARK INTER:                  -9.106
REMARK INTRA:                  -0.791
REMARK UNBOUND:                -1.387
REMARK SMILES CCCCC[C@H](O)CC(=O)CCc1ccc(O)c(OC)c1
REMARK SMILES IDX 8 1 6 2 7 3 5 5 4 6 3 7 2 8 1 9 9 10 10 11 11 12 12 13 13 14
REMARK SMILES IDX 21 15 14 16 18 17 15 18 16 19 19 20 20 21 17 22
REMARK H PARENT 7 4 17 23
REMARK Flexibility Score: inf
ROOT
ATOM      1  C   UNL     1      94.921  81.644  83.941  1.00  0.00     0.107 C 
ENDROOT
BRANCH   1   2
ATOM      2  C   UNL     1      95.797  82.874  83.691  1.00  0.00     0.121 C 
BRANCH   2   3
ATOM      3  O   UNL     1      96.882  82.891  84.616  1.00  0.00    -0.393 OA
ATOM      4  H   UNL     1      97.677  83.187  84.138  1.00  0.00     0.210 HD
ENDBRANCH   2   3
BRANCH   2   5
ATOM      5  C   UNL     1      96.351  82.937  82.263  1.00  0.00     0.032 C 
BRANCH   5   6
ATOM      6  C   UNL     1      96.493  81.543  81.638  1.00  0.00     0.003 C 
BRANCH   6   7
ATOM      7  C   UNL     1      97.950  81.132  81.398  1.00  0.00    -0.000 C 
BRANCH   7   8
ATOM      8  C   UNL     1      98.255  80.783  79.942  1.00  0.00    -0.003 C 
ATOM      9  C   UNL     1      97.677  81.819  78.991  1.00  0.00     0.004 C 
ENDBRANCH   7   8
ENDBRANCH   6   7
ENDBRANCH   5   6
ENDBRANCH   2   5
ENDBRANCH   1   2
BRANCH   1  10
ATOM     10  C   UNL     1      93.924  81.842  85.071  1.00  0.00     0.135 C 
ATOM     11  O   UNL     1      94.204  82.537  86.048  1.00  0.00    -0.300 OA
BRANCH  10  12
ATOM     12  C   UNL     1      92.565  81.181  84.905  1.00  0.00     0.080 C 
BRANCH  12  13
ATOM     13  C   UNL     1      92.547  79.703  85.302  1.00  0.00     0.043 C 
BRANCH  13  14
ATOM     14  C   UNL     1      91.260  79.006  84.931  1.00  0.00    -0.044 A 
ATOM     15  C   UNL     1      90.096  79.748  84.733  1.00  0.00     0.054 A 
ATOM     16  C   UNL     1      91.237  77.619  84.785  1.00  0.00     0.008 A 
ATOM     17  C   UNL     1      88.908  79.103  84.389  1.00  0.00     0.160 A 
ATOM     18  C   UNL     1      90.049  76.973  84.441  1.00  0.00     0.050 A 
ATOM     19  C   UNL     1      88.884  77.715  84.244  1.00  0.00     0.157 A 
BRANCH  17  20
ATOM     20  O   UNL     1      87.777  79.838  84.200  1.00  0.00    -0.493 OA
ATOM     21  C   UNL     1      87.578  80.955  85.064  1.00  0.00     0.278 C 
ENDBRANCH  17  20
BRANCH  19  22
ATOM     22  O   UNL     1      87.730  77.074  83.909  1.00  0.00    -0.504 OA
ATOM     23  H   UNL     1      87.867  76.590  83.076  1.00  0.00     0.293 HD
ENDBRANCH  19  22
ENDBRANCH  13  14
ENDBRANCH  12  13
ENDBRANCH  10  12
ENDBRANCH   1  10
TORSDOF 12
ENDMDL
MODEL 5
REMARK VINA RESULT:    -5.159     13.438     14.948
REMARK INTER + INTRA:          -9.864
REMARK INTER:                  -7.552
REMARK INTRA:                  -2.312
REMARK UNBOUND:                -1.387
REMARK SMILES CCCCC[C@H](O)CC(=O)CCc1ccc(O)c(OC)c1
REMARK SMILES IDX 8 1 6 2 7 3 5 5 4 6 3 7 2 8 1 9 9 10 10 11 11 12 12 13 13 14
REMARK SMILES IDX 21 15 14 16 18 17 15 18 16 19 19 20 20 21 17 22
REMARK H PARENT 7 4 17 23
REMARK Flexibility Score: inf
ROOT
ATOM      1  C   UNL     1      97.716  82.119  77.195  1.00  0.00     0.107 C 
ENDROOT
BRANCH   1   2
ATOM      2  C   UNL     1      97.641  80.590  77.195  1.00  0.00     0.121 C 
BRANCH   2   3
ATOM      3  O   UNL     1      96.335  80.171  76.807  1.00  0.00    -0.393 OA
ATOM      4  H   UNL     1      96.434  79.446  76.164  1.00  0.00     0.210 HD
ENDBRANCH   2   3
BRANCH   2   5
ATOM      5  C   UNL     1      98.677  79.939  76.270  1.00  0.00     0.032 C 
BRANCH   5   6
ATOM      6  C   UNL     1      99.868  80.865  75.996  1.00  0.00     0.003 C 
BRANCH   6   7
ATOM      7  C   UNL     1     101.214  80.133  75.984  1.00  0.00    -0.000 C 
BRANCH   7   8
ATOM      8  C   UNL     1     102.158  80.607  74.880  1.00  0.00    -0.003 C 
ATOM      9  C   UNL     1     102.351  79.534  73.819  1.00  0.00     0.004 C 
ENDBRANCH   7   8
ENDBRANCH   6   7
ENDBRANCH   5   6
ENDBRANCH   2   5
ENDBRANCH   1   2
BRANCH   1  10
ATOM     10  C   UNL     1      96.427  82.779  76.734  1.00  0.00     0.135 C 
ATOM     11  O   UNL     1      95.430  82.794  77.456  1.00  0.00    -0.300 OA
BRANCH  10  12
ATOM     12  C   UNL     1      96.454  83.449  75.368  1.00  0.00     0.080 C 
BRANCH  12  13
ATOM     13  C   UNL     1      96.448  82.462  74.199  1.00  0.00     0.043 C 
BRANCH  13  14
ATOM     14  C   UNL     1      97.779  82.378  73.490  1.00  0.00    -0.044 A 
ATOM     15  C   UNL     1      98.132  81.215  72.804  1.00  0.00     0.054 A 
ATOM     16  C   UNL     1      98.655  83.463  73.520  1.00  0.00     0.008 A 
ATOM     17  C   UNL     1      99.361  81.139  72.148  1.00  0.00     0.160 A 
ATOM     18  C   UNL     1      99.883  83.387  72.864  1.00  0.00     0.050 A 
ATOM     19  C   UNL     1     100.237  82.225  72.179  1.00  0.00     0.157 A 
BRANCH  17  20
ATOM     20  O   UNL     1      99.695  79.999  71.483  1.00  0.00    -0.493 OA
ATOM     21  C   UNL     1      99.047  79.764  70.234  1.00  0.00     0.278 C 
ENDBRANCH  17  20
BRANCH  19  22
ATOM     22  O   UNL     1     101.439  82.162  71.542  1.00  0.00    -0.504 OA
ATOM     23  H   UNL     1     101.304  82.326  70.593  1.00  0.00     0.293 HD
ENDBRANCH  19  22
ENDBRANCH  13  14
ENDBRANCH  12  13
ENDBRANCH  10  12
ENDBRANCH   1  10
TORSDOF 12
ENDMDL
MODEL 6
REMARK VINA RESULT:    -5.126     12.517     15.448
REMARK INTER + INTRA:          -9.808
REMARK INTER:                  -8.967
REMARK INTRA:                  -0.841
REMARK UNBOUND:                -1.387
REMARK SMILES CCCCC[C@H](O)CC(=O)CCc1ccc(O)c(OC)c1
REMARK SMILES IDX 8 1 6 2 7 3 5 5 4 6 3 7 2 8 1 9 9 10 10 11 11 12 12 13 13 14
REMARK SMILES IDX 21 15 14 16 18 17 15 18 16 19 19 20 20 21 17 22
REMARK H PARENT 7 4 17 23
REMARK Flexibility Score: inf
ROOT
ATOM      1  C   UNL     1      96.953  80.832  75.502  1.00  0.00     0.107 C 
ENDROOT
BRANCH   1   2
ATOM      2  C   UNL     1      97.105  81.787  74.316  1.00  0.00     0.121 C 
BRANCH   2   3
ATOM      3  O   UNL     1      96.006  82.694  74.282  1.00  0.00    -0.393 OA
ATOM      4  H   UNL     1      95.873  82.966  73.357  1.00  0.00     0.210 HD
ENDBRANCH   2   3
BRANCH   2   5
ATOM      5  C   UNL     1      98.416  82.583  74.351  1.00  0.00     0.032 C 
BRANCH   5   6
ATOM      6  C   UNL     1      98.347  83.845  73.483  1.00  0.00     0.003 C 
BRANCH   6   7
ATOM      7  C   UNL     1      99.721  84.329  73.007  1.00  0.00    -0.000 C 
BRANCH   7   8
ATOM      8  C   UNL     1     100.887  83.724  73.786  1.00  0.00    -0.003 C 
ATOM      9  C   UNL     1     102.194  83.856  73.020  1.00  0.00     0.004 C 
ENDBRANCH   7   8
ENDBRANCH   6   7
ENDBRANCH   5   6
ENDBRANCH   2   5
ENDBRANCH   1   2
BRANCH   1  10
ATOM     10  C   UNL     1      96.816  81.552  76.834  1.00  0.00     0.135 C 
ATOM     11  O   UNL     1      95.980  82.442  76.989  1.00  0.00    -0.300 OA
BRANCH  10  12
ATOM     12  C   UNL     1      97.726  81.085  77.959  1.00  0.00     0.080 C 
BRANCH  12  13
ATOM     13  C   UNL     1      97.743  82.024  79.167  1.00  0.00     0.043 C 
BRANCH  13  14
ATOM     14  C   UNL     1      97.215  81.378  80.426  1.00  0.00    -0.044 A 
ATOM     15  C   UNL     1      96.715  82.170  81.459  1.00  0.00     0.054 A 
ATOM     16  C   UNL     1      97.229  79.989  80.555  1.00  0.00     0.008 A 
ATOM     17  C   UNL     1      96.227  81.572  82.621  1.00  0.00     0.160 A 
ATOM     18  C   UNL     1      96.741  79.391  81.717  1.00  0.00     0.050 A 
ATOM     19  C   UNL     1      96.240  80.183  82.751  1.00  0.00     0.157 A 
BRANCH  17  20
ATOM     20  O   UNL     1      95.741  82.356  83.624  1.00  0.00    -0.493 OA
ATOM     21  C   UNL     1      95.838  83.768  83.448  1.00  0.00     0.278 C 
ENDBRANCH  17  20
BRANCH  19  22
ATOM     22  O   UNL     1      95.767  79.588  83.880  1.00  0.00    -0.504 OA
ATOM     23  H   UNL     1      95.708  78.629  83.733  1.00  0.00     0.293 HD
ENDBRANCH  19  22
ENDBRANCH  13  14
ENDBRANCH  12  13
ENDBRANCH  10  12
ENDBRANCH   1  10
TORSDOF 12
ENDMDL
MODEL 7
REMARK VINA RESULT:    -5.080      8.987     11.611
REMARK INTER + INTRA:          -9.734
REMARK INTER:                  -8.543
REMARK INTRA:                  -1.191
REMARK UNBOUND:                -1.387
REMARK SMILES CCCCC[C@H](O)CC(=O)CCc1ccc(O)c(OC)c1
REMARK SMILES IDX 8 1 6 2 7 3 5 5 4 6 3 7 2 8 1 9 9 10 10 11 11 12 12 13 13 14
REMARK SMILES IDX 21 15 14 16 18 17 15 18 16 19 19 20 20 21 17 22
REMARK H PARENT 7 4 17 23
REMARK Flexibility Score: inf
ROOT
ATOM      1  C   UNL     1      90.254  99.621  68.807  1.00  0.00     0.107 C 
ENDROOT
BRANCH   1   2
ATOM      2  C   UNL     1      90.277  98.605  67.662  1.00  0.00     0.121 C 
BRANCH   2   3
ATOM      3  O   UNL     1      90.494  97.295  68.183  1.00  0.00    -0.393 OA
ATOM      4  H   UNL     1      91.448  97.110  68.135  1.00  0.00     0.210 HD
ENDBRANCH   2   3
BRANCH   2   5
ATOM      5  C   UNL     1      88.990  98.610  66.829  1.00  0.00     0.032 C 
BRANCH   5   6
ATOM      6  C   UNL     1      87.966  99.622  67.357  1.00  0.00     0.003 C 
BRANCH   6   7
ATOM      7  C   UNL     1      86.957 100.073  66.296  1.00  0.00    -0.000 C 
BRANCH   7   8
ATOM      8  C   UNL     1      86.754 101.587  66.248  1.00  0.00    -0.003 C 
ATOM      9  C   UNL     1      88.074 102.328  66.391  1.00  0.00     0.004 C 
ENDBRANCH   7   8
ENDBRANCH   6   7
ENDBRANCH   5   6
ENDBRANCH   2   5
ENDBRANCH   1   2
BRANCH   1  10
ATOM     10  C   UNL     1      90.413  98.979  70.176  1.00  0.00     0.135 C 
ATOM     11  O   UNL     1      89.568  98.196  70.610  1.00  0.00    -0.300 OA
BRANCH  10  12
ATOM     12  C   UNL     1      91.679  99.322  70.947  1.00  0.00     0.080 C 
BRANCH  12  13
ATOM     13  C   UNL     1      92.129 100.774  70.776  1.00  0.00     0.043 C 
BRANCH  13  14
ATOM     14  C   UNL     1      91.704 101.663  71.921  1.00  0.00    -0.044 A 
ATOM     15  C   UNL     1      90.439 102.250  71.916  1.00  0.00     0.054 A 
ATOM     16  C   UNL     1      92.578 101.897  72.982  1.00  0.00     0.008 A 
ATOM     17  C   UNL     1      90.047 103.071  72.974  1.00  0.00     0.160 A 
ATOM     18  C   UNL     1      92.187 102.718  74.040  1.00  0.00     0.050 A 
ATOM     19  C   UNL     1      90.921 103.305  74.036  1.00  0.00     0.157 A 
BRANCH  17  20
ATOM     20  O   UNL     1      88.809 103.639  72.958  1.00  0.00    -0.493 OA
ATOM     21  C   UNL     1      88.587 104.682  72.011  1.00  0.00     0.278 C 
ENDBRANCH  17  20
BRANCH  19  22
ATOM     22  O   UNL     1      90.551 104.104  75.074  1.00  0.00    -0.504 OA
ATOM     23  H   UNL     1      90.048 103.575  75.718  1.00  0.00     0.293 HD
ENDBRANCH  19  22
ENDBRANCH  13  14
ENDBRANCH  12  13
ENDBRANCH  10  12
ENDBRANCH   1  10
TORSDOF 12
ENDMDL
MODEL 8
REMARK VINA RESULT:    -5.049      3.226      5.607
REMARK INTER + INTRA:          -9.682
REMARK INTER:                  -8.630
REMARK INTRA:                  -1.052
REMARK UNBOUND:                -1.387
REMARK SMILES CCCCC[C@H](O)CC(=O)CCc1ccc(O)c(OC)c1
REMARK SMILES IDX 8 1 6 2 7 3 5 5 4 6 3 7 2 8 1 9 9 10 10 11 11 12 12 13 13 14
REMARK SMILES IDX 21 15 14 16 18 17 15 18 16 19 19 20 20 21 17 22
REMARK H PARENT 7 4 17 23
REMARK Flexibility Score: inf
ROOT
ATOM      1  C   UNL     1      94.504  94.370  78.697  1.00  0.00     0.107 C 
ENDROOT
BRANCH   1   2
ATOM      2  C   UNL     1      93.388  93.500  78.115  1.00  0.00     0.121 C 
BRANCH   2   3
ATOM      3  O   UNL     1      92.949  92.559  79.092  1.00  0.00    -0.393 OA
ATOM      4  H   UNL     1      92.238  92.977  79.609  1.00  0.00     0.210 HD
ENDBRANCH   2   3
BRANCH   2   5
ATOM      5  C   UNL     1      92.186  94.316  77.624  1.00  0.00     0.032 C 
BRANCH   5   6
ATOM      6  C   UNL     1      92.399  94.860  76.206  1.00  0.00     0.003 C 
BRANCH   6   7
ATOM      7  C   UNL     1      93.496  94.122  75.432  1.00  0.00    -0.000 C 
BRANCH   7   8
ATOM      8  C   UNL     1      94.524  95.052  74.790  1.00  0.00    -0.003 C 
ATOM      9  C   UNL     1      93.968  96.457  74.616  1.00  0.00     0.004 C 
ENDBRANCH   7   8
ENDBRANCH   6   7
ENDBRANCH   5   6
ENDBRANCH   2   5
ENDBRANCH   1   2
BRANCH   1  10
ATOM     10  C   UNL     1      95.776  93.590  78.991  1.00  0.00     0.135 C 
ATOM     11  O   UNL     1      96.009  92.524  78.422  1.00  0.00    -0.300 OA
BRANCH  10  12
ATOM     12  C   UNL     1      96.748  94.217  79.978  1.00  0.00     0.080 C 
BRANCH  12  13
ATOM     13  C   UNL     1      96.073  95.105  81.026  1.00  0.00     0.043 C 
BRANCH  13  14
ATOM     14  C   UNL     1      96.458  96.561  80.904  1.00  0.00    -0.044 A 
ATOM     15  C   UNL     1      96.112  97.460  81.912  1.00  0.00     0.054 A 
ATOM     16  C   UNL     1      97.159  97.005  79.783  1.00  0.00     0.008 A 
ATOM     17  C   UNL     1      96.468  98.804  81.799  1.00  0.00     0.160 A 
ATOM     18  C   UNL     1      97.516  98.349  79.669  1.00  0.00     0.050 A 
ATOM     19  C   UNL     1      97.170  99.248  80.678  1.00  0.00     0.157 A 
BRANCH  17  20
ATOM     20  O   UNL     1      96.125  99.674  82.790  1.00  0.00    -0.493 OA
ATOM     21  C   UNL     1      96.867  99.599  84.005  1.00  0.00     0.278 C 
ENDBRANCH  17  20
BRANCH  19  22
ATOM     22  O   UNL     1      97.523 100.558  80.556  1.00  0.00    -0.504 OA
ATOM     23  H   UNL     1      98.487 100.616  80.437  1.00  0.00     0.293 HD
ENDBRANCH  19  22
ENDBRANCH  13  14
ENDBRANCH  12  13
ENDBRANCH  10  12
ENDBRANCH   1  10
TORSDOF 12
ENDMDL
MODEL 9
REMARK VINA RESULT:    -4.983     13.830     17.384
REMARK INTER + INTRA:          -9.574
REMARK INTER:                  -8.902
REMARK INTRA:                  -0.672
REMARK UNBOUND:                -1.387
REMARK SMILES CCCCC[C@H](O)CC(=O)CCc1ccc(O)c(OC)c1
REMARK SMILES IDX 8 1 6 2 7 3 5 5 4 6 3 7 2 8 1 9 9 10 10 11 11 12 12 13 13 14
REMARK SMILES IDX 21 15 14 16 18 17 15 18 16 19 19 20 20 21 17 22
REMARK H PARENT 7 4 17 23
REMARK Flexibility Score: inf
ROOT
ATOM      1  C   UNL     1      94.800  81.841  84.667  1.00  0.00     0.107 C 
ENDROOT
BRANCH   1   2
ATOM      2  C   UNL     1      95.751  82.455  83.636  1.00  0.00     0.121 C 
BRANCH   2   3
ATOM      3  O   UNL     1      96.892  82.999  84.296  1.00  0.00    -0.393 OA
ATOM      4  H   UNL     1      97.387  82.261  84.692  1.00  0.00     0.210 HD
ENDBRANCH   2   3
BRANCH   2   5
ATOM      5  C   UNL     1      96.214  81.450  82.574  1.00  0.00     0.032 C 
BRANCH   5   6
ATOM      6  C   UNL     1      96.754  82.146  81.319  1.00  0.00     0.003 C 
BRANCH   6   7
ATOM      7  C   UNL     1      97.282  81.170  80.263  1.00  0.00    -0.000 C 
BRANCH   7   8
ATOM      8  C   UNL     1      97.771  81.853  78.987  1.00  0.00    -0.003 C 
ATOM      9  C   UNL     1      96.610  82.228  78.079  1.00  0.00     0.004 C 
ENDBRANCH   7   8
ENDBRANCH   6   7
ENDBRANCH   5   6
ENDBRANCH   2   5
ENDBRANCH   1   2
BRANCH   1  10
ATOM     10  C   UNL     1      94.212  82.868  85.620  1.00  0.00     0.135 C 
ATOM     11  O   UNL     1      94.610  84.033  85.620  1.00  0.00    -0.300 OA
BRANCH  10  12
ATOM     12  C   UNL     1      93.089  82.391  86.529  1.00  0.00     0.080 C 
BRANCH  12  13
ATOM     13  C   UNL     1      91.708  82.912  86.125  1.00  0.00     0.043 C 
BRANCH  13  14
ATOM     14  C   UNL     1      90.598  81.929  86.413  1.00  0.00    -0.044 A 
ATOM     15  C   UNL     1      89.854  81.391  85.363  1.00  0.00     0.054 A 
ATOM     16  C   UNL     1      90.318  81.559  87.729  1.00  0.00     0.008 A 
ATOM     17  C   UNL     1      88.829  80.482  85.630  1.00  0.00     0.160 A 
ATOM     18  C   UNL     1      89.294  80.651  87.996  1.00  0.00     0.050 A 
ATOM     19  C   UNL     1      88.549  80.113  86.946  1.00  0.00     0.157 A 
BRANCH  17  20
ATOM     20  O   UNL     1      88.108  79.964  84.597  1.00  0.00    -0.493 OA
ATOM     21  C   UNL     1      88.788  79.073  83.715  1.00  0.00     0.278 C 
ENDBRANCH  17  20
BRANCH  19  22
ATOM     22  O   UNL     1      87.551  79.227  87.219  1.00  0.00    -0.504 OA
ATOM     23  H   UNL     1      87.864  78.594  87.888  1.00  0.00     0.293 HD
ENDBRANCH  19  22
ENDBRANCH  13  14
ENDBRANCH  12  13
ENDBRANCH  10  12
ENDBRANCH   1  10
TORSDOF 12
ENDMDL
MODEL 10
REMARK VINA RESULT:    -4.961      2.900      4.885
REMARK INTER + INTRA:          -9.538
REMARK INTER:                  -8.431
REMARK INTRA:                  -1.107
REMARK UNBOUND:                -1.387
REMARK SMILES CCCCC[C@H](O)CC(=O)CCc1ccc(O)c(OC)c1
REMARK SMILES IDX 8 1 6 2 7 3 5 5 4 6 3 7 2 8 1 9 9 10 10 11 11 12 12 13 13 14
REMARK SMILES IDX 21 15 14 16 18 17 15 18 16 19 19 20 20 21 17 22
REMARK H PARENT 7 4 17 23
REMARK Flexibility Score: inf
ROOT
ATOM      1  C   UNL     1      94.534  94.326  78.706  1.00  0.00     0.107 C 
ENDROOT
BRANCH   1   2
ATOM      2  C   UNL     1      93.402  93.426  78.205  1.00  0.00     0.121 C 
BRANCH   2   3
ATOM      3  O   UNL     1      93.036  92.496  79.222  1.00  0.00    -0.393 OA
ATOM      4  H   UNL     1      93.063  91.604  78.834  1.00  0.00     0.210 HD
ENDBRANCH   2   3
BRANCH   2   5
ATOM      5  C   UNL     1      92.159  94.211  77.768  1.00  0.00     0.032 C 
BRANCH   5   6
ATOM      6  C   UNL     1      92.333  94.842  76.381  1.00  0.00     0.003 C 
BRANCH   6   7
ATOM      7  C   UNL     1      93.264  94.041  75.464  1.00  0.00    -0.000 C 
BRANCH   7   8
ATOM      8  C   UNL     1      94.410  94.867  74.883  1.00  0.00    -0.003 C 
ATOM      9  C   UNL     1      93.947  96.264  74.498  1.00  0.00     0.004 C 
ENDBRANCH   7   8
ENDBRANCH   6   7
ENDBRANCH   5   6
ENDBRANCH   2   5
ENDBRANCH   1   2
BRANCH   1  10
ATOM     10  C   UNL     1      95.814  93.563  79.003  1.00  0.00     0.135 C 
ATOM     11  O   UNL     1      96.077  92.514  78.414  1.00  0.00    -0.300 OA
BRANCH  10  12
ATOM     12  C   UNL     1      96.759  94.185  80.019  1.00  0.00     0.080 C 
BRANCH  12  13
ATOM     13  C   UNL     1      96.054  95.051  81.065  1.00  0.00     0.043 C 
BRANCH  13  14
ATOM     14  C   UNL     1      96.451  96.507  80.992  1.00  0.00    -0.044 A 
ATOM     15  C   UNL     1      97.253  96.960  79.945  1.00  0.00     0.054 A 
ATOM     16  C   UNL     1      96.014  97.397  81.973  1.00  0.00     0.008 A 
ATOM     17  C   UNL     1      97.618  98.305  79.879  1.00  0.00     0.160 A 
ATOM     18  C   UNL     1      96.379  98.742  81.907  1.00  0.00     0.050 A 
ATOM     19  C   UNL     1      97.181  99.196  80.860  1.00  0.00     0.157 A 
BRANCH  17  20
ATOM     20  O   UNL     1      98.403  98.736  78.852  1.00  0.00    -0.493 OA
ATOM     21  C   UNL     1      97.762  98.960  77.597  1.00  0.00     0.278 C 
ENDBRANCH  17  20
BRANCH  19  22
ATOM     22  O   UNL     1      97.531 100.511  80.806  1.00  0.00    -0.504 OA
ATOM     23  H   UNL     1      96.743 101.040  80.596  1.00  0.00     0.293 HD
ENDBRANCH  19  22
ENDBRANCH  13  14
ENDBRANCH  12  13
ENDBRANCH  10  12
ENDBRANCH   1  10
TORSDOF 12
ENDMDL
