MODEL 1
REMARK VINA RESULT:    -6.143      0.000      0.000
REMARK INTER + INTRA:         -11.209
REMARK INTER:                  -9.914
REMARK INTRA:                  -1.295
REMARK UNBOUND:                -1.295
REMARK SMILES COc1cc(CNC(=O)CCCCCCC(C)C)ccc1O
REMARK SMILES IDX 11 1 10 2 8 3 7 4 9 6 6 7 5 8 3 9 21 10 4 11 20 12 19 13
REMARK SMILES IDX 2 14 1 15 22 16 12 18 13 19 14 20 15 21 16 22 17 23 18 24
REMARK H PARENT 7 5 22 17
REMARK Flexibility Score: inf
ROOT
ATOM      1  C   UNL     1      90.269  92.808  72.675  1.00  0.00     0.010 C 
ENDROOT
BRANCH   1   2
ATOM      2  C   UNL     1      91.317  92.219  73.658  1.00  0.00     0.100 C 
BRANCH   2   3
ATOM      3  C   UNL     1      91.424  92.978  74.924  1.00  0.00     0.220 C 
ATOM      4  N   UNL     1      92.407  92.685  75.823  1.00  0.00    -0.352 N 
ATOM      5  H   UNL     1      92.994  91.905  75.566  1.00  0.00     0.163 HD
ATOM      6  O   UNL     1      90.608  93.909  75.138  1.00  0.00    -0.275 OA
BRANCH   4   7
ATOM      7  C   UNL     1      92.642  93.387  77.049  1.00  0.00     0.151 C 
BRANCH   7   8
ATOM      8  C   UNL     1      94.004  93.982  77.132  1.00  0.00    -0.025 A 
ATOM      9  C   UNL     1      95.852  94.893  78.475  1.00  0.00     0.160 A 
ATOM     10  C   UNL     1      96.617  95.076  77.303  1.00  0.00     0.157 A 
ATOM     11  C   UNL     1      94.547  94.365  78.379  1.00  0.00     0.056 A 
ATOM     12  C   UNL     1      96.073  94.735  76.051  1.00  0.00     0.050 A 
ATOM     13  C   UNL     1      94.781  94.182  75.966  1.00  0.00     0.009 A 
BRANCH   9  14
ATOM     14  O   UNL     1      96.356  95.258  79.694  1.00  0.00    -0.493 OA
ATOM     15  C   UNL     1      95.352  95.424  80.711  1.00  0.00     0.278 C 
ENDBRANCH   9  14
BRANCH  10  16
ATOM     16  O   UNL     1      97.876  95.583  77.365  1.00  0.00    -0.504 OA
ATOM     17  H   UNL     1      98.393  95.077  77.996  1.00  0.00     0.293 HD
ENDBRANCH  10  16
ENDBRANCH   7   8
ENDBRANCH   4   7
ENDBRANCH   2   3
ENDBRANCH   1   2
BRANCH   1  18
ATOM     18  C   UNL     1      88.903  92.069  72.760  1.00  0.00     0.001 C 
BRANCH  18  19
ATOM     19  C   UNL     1      88.996  90.545  72.465  1.00  0.00     0.000 C 
BRANCH  19  20
ATOM     20  C   UNL     1      88.510  89.698  73.675  1.00  0.00     0.000 C 
BRANCH  20  21
ATOM     21  C   UNL     1      88.628  90.420  75.046  1.00  0.00     0.003 C 
BRANCH  21  22
ATOM     22  C   UNL     1      89.505  89.670  76.102  1.00  0.00    -0.017 C 
ATOM     23  C   UNL     1      89.842  90.610  77.294  1.00  0.00     0.007 C 
ATOM     24  C   UNL     1      90.806  89.053  75.510  1.00  0.00     0.007 C 
ENDBRANCH  21  22
ENDBRANCH  20  21
ENDBRANCH  19  20
ENDBRANCH  18  19
ENDBRANCH   1  18
TORSDOF 11
ENDMDL
MODEL 2
REMARK VINA RESULT:    -5.448      2.221      3.803
REMARK INTER + INTRA:         -10.087
REMARK INTER:                  -9.298
REMARK INTRA:                  -0.789
REMARK UNBOUND:                -1.295
REMARK SMILES COc1cc(CNC(=O)CCCCCCC(C)C)ccc1O
REMARK SMILES IDX 11 1 10 2 8 3 7 4 9 6 6 7 5 8 3 9 21 10 4 11 20 12 19 13
REMARK SMILES IDX 2 14 1 15 22 16 12 18 13 19 14 20 15 21 16 22 17 23 18 24
REMARK H PARENT 7 5 22 17
REMARK Flexibility Score: inf
ROOT
ATOM      1  C   UNL     1      92.845  93.928  74.849  1.00  0.00     0.010 C 
ENDROOT
BRANCH   1   2
ATOM      2  C   UNL     1      94.207  93.689  75.557  1.00  0.00     0.100 C 
BRANCH   2   3
ATOM      3  C   UNL     1      94.160  93.940  77.015  1.00  0.00     0.220 C 
ATOM      4  N   UNL     1      95.266  93.730  77.786  1.00  0.00    -0.352 N 
ATOM      5  H   UNL     1      96.063  93.361  77.288  1.00  0.00     0.163 HD
ATOM      6  O   UNL     1      93.093  94.370  77.517  1.00  0.00    -0.275 OA
BRANCH   4   7
ATOM      7  C   UNL     1      95.355  93.992  79.190  1.00  0.00     0.151 C 
BRANCH   7   8
ATOM      8  C   UNL     1      95.950  95.321  79.502  1.00  0.00    -0.025 A 
ATOM      9  C   UNL     1      96.365  97.147  81.097  1.00  0.00     0.160 A 
ATOM     10  C   UNL     1      97.117  97.833  80.119  1.00  0.00     0.157 A 
ATOM     11  C   UNL     1      95.773  95.907  80.776  1.00  0.00     0.056 A 
ATOM     12  C   UNL     1      97.267  97.279  78.835  1.00  0.00     0.050 A 
ATOM     13  C   UNL     1      96.698  96.027  78.530  1.00  0.00     0.009 A 
BRANCH   9  14
ATOM     14  O   UNL     1      96.180  97.696  82.337  1.00  0.00    -0.493 OA
ATOM     15  C   UNL     1      96.910  97.029  83.382  1.00  0.00     0.278 C 
ENDBRANCH   9  14
BRANCH  10  16
ATOM     16  O   UNL     1      97.698  99.030  80.399  1.00  0.00    -0.504 OA
ATOM     17  H   UNL     1      98.006  99.434  79.584  1.00  0.00     0.293 HD
ENDBRANCH  10  16
ENDBRANCH   7   8
ENDBRANCH   4   7
ENDBRANCH   2   3
ENDBRANCH   1   2
BRANCH   1  18
ATOM     18  C   UNL     1      92.233  92.610  74.292  1.00  0.00     0.001 C 
BRANCH  18  19
ATOM     19  C   UNL     1      91.526  91.743  75.372  1.00  0.00     0.000 C 
BRANCH  19  20
ATOM     20  C   UNL     1      90.048  91.447  74.991  1.00  0.00     0.000 C 
BRANCH  20  21
ATOM     21  C   UNL     1      89.640  91.956  73.580  1.00  0.00     0.003 C 
BRANCH  21  22
ATOM     22  C   UNL     1      89.063  90.853  72.633  1.00  0.00    -0.017 C 
ATOM     23  C   UNL     1      89.944  90.714  71.360  1.00  0.00     0.007 C 
ATOM     24  C   UNL     1      87.573  91.082  72.243  1.00  0.00     0.007 C 
ENDBRANCH  21  22
ENDBRANCH  20  21
ENDBRANCH  19  20
ENDBRANCH  18  19
ENDBRANCH   1  18
TORSDOF 11
ENDMDL
MODEL 3
REMARK VINA RESULT:    -5.390     27.048     29.199
REMARK INTER + INTRA:          -9.993
REMARK INTER:                  -9.066
REMARK INTRA:                  -0.927
REMARK UNBOUND:                -1.295
REMARK SMILES COc1cc(CNC(=O)CCCCCCC(C)C)ccc1O
REMARK SMILES IDX 11 1 10 2 8 3 7 4 9 6 6 7 5 8 3 9 21 10 4 11 20 12 19 13
REMARK SMILES IDX 2 14 1 15 22 16 12 18 13 19 14 20 15 21 16 22 17 23 18 24
REMARK H PARENT 7 5 22 17
REMARK Flexibility Score: inf
ROOT
ATOM      1  C   UNL     1      81.899  64.947  76.507  1.00  0.00     0.010 C 
ENDROOT
BRANCH   1   2
ATOM      2  C   UNL     1      83.047  64.369  75.635  1.00  0.00     0.100 C 
BRANCH   2   3
ATOM      3  C   UNL     1      84.205  63.900  76.429  1.00  0.00     0.220 C 
ATOM      4  N   UNL     1      84.032  63.471  77.713  1.00  0.00    -0.352 N 
ATOM      5  H   UNL     1      83.087  63.548  78.059  1.00  0.00     0.163 HD
ATOM      6  O   UNL     1      85.338  63.882  75.888  1.00  0.00    -0.275 OA
BRANCH   4   7
ATOM      7  C   UNL     1      85.063  62.943  78.553  1.00  0.00     0.151 C 
BRANCH   7   8
ATOM      8  C   UNL     1      85.476  63.880  79.634  1.00  0.00    -0.025 A 
ATOM      9  C   UNL     1      86.614  65.941  80.347  1.00  0.00     0.160 A 
ATOM     10  C   UNL     1      86.229  65.694  81.683  1.00  0.00     0.157 A 
ATOM     11  C   UNL     1      86.252  65.024  79.338  1.00  0.00     0.056 A 
ATOM     12  C   UNL     1      85.490  64.539  81.996  1.00  0.00     0.050 A 
ATOM     13  C   UNL     1      85.106  63.644  80.979  1.00  0.00     0.009 A 
BRANCH   9  14
ATOM     14  O   UNL     1      87.367  67.041  80.037  1.00  0.00    -0.493 OA
ATOM     15  C   UNL     1      88.126  66.900  78.822  1.00  0.00     0.278 C 
ENDBRANCH   9  14
BRANCH  10  16
ATOM     16  O   UNL     1      86.565  66.559  82.675  1.00  0.00    -0.504 OA
ATOM     17  H   UNL     1      86.252  66.218  83.516  1.00  0.00     0.293 HD
ENDBRANCH  10  16
ENDBRANCH   7   8
ENDBRANCH   4   7
ENDBRANCH   2   3
ENDBRANCH   1   2
BRANCH   1  18
ATOM     18  C   UNL     1      81.524  66.399  76.096  1.00  0.00     0.001 C 
BRANCH  18  19
ATOM     19  C   UNL     1      82.083  66.822  74.708  1.00  0.00     0.000 C 
BRANCH  19  20
ATOM     20  C   UNL     1      80.939  67.108  73.694  1.00  0.00     0.000 C 
BRANCH  20  21
ATOM     21  C   UNL     1      80.332  65.834  73.042  1.00  0.00     0.003 C 
BRANCH  21  22
ATOM     22  C   UNL     1      80.615  65.689  71.511  1.00  0.00    -0.017 C 
ATOM     23  C   UNL     1      82.143  65.743  71.233  1.00  0.00     0.007 C 
ATOM     24  C   UNL     1      79.865  66.735  70.635  1.00  0.00     0.007 C 
ENDBRANCH  21  22
ENDBRANCH  20  21
ENDBRANCH  19  20
ENDBRANCH  18  19
ENDBRANCH   1  18
TORSDOF 11
ENDMDL
MODEL 4
REMARK VINA RESULT:    -5.357     24.479     27.689
REMARK INTER + INTRA:          -9.941
REMARK INTER:                  -8.934
REMARK INTRA:                  -1.006
REMARK UNBOUND:                -1.295
REMARK SMILES COc1cc(CNC(=O)CCCCCCC(C)C)ccc1O
REMARK SMILES IDX 11 1 10 2 8 3 7 4 9 6 6 7 5 8 3 9 21 10 4 11 20 12 19 13
REMARK SMILES IDX 2 14 1 15 22 16 12 18 13 19 14 20 15 21 16 22 17 23 18 24
REMARK H PARENT 7 5 22 17
REMARK Flexibility Score: inf
ROOT
ATOM      1  C   UNL     1      82.875  63.908  75.448  1.00  0.00     0.010 C 
ENDROOT
BRANCH   1   2
ATOM      2  C   UNL     1      82.168  64.783  76.520  1.00  0.00     0.100 C 
BRANCH   2   3
ATOM      3  C   UNL     1      82.543  66.213  76.448  1.00  0.00     0.220 C 
ATOM      4  N   UNL     1      83.855  66.584  76.495  1.00  0.00    -0.352 N 
ATOM      5  H   UNL     1      84.504  65.822  76.625  1.00  0.00     0.163 HD
ATOM      6  O   UNL     1      81.633  67.067  76.317  1.00  0.00    -0.275 OA
BRANCH   4   7
ATOM      7  C   UNL     1      84.338  67.927  76.377  1.00  0.00     0.151 C 
BRANCH   7   8
ATOM      8  C   UNL     1      85.413  68.252  77.354  1.00  0.00    -0.025 A 
ATOM      9  C   UNL     1      87.009  67.533  79.081  1.00  0.00     0.160 A 
ATOM     10  C   UNL     1      87.492  68.856  79.188  1.00  0.00     0.157 A 
ATOM     11  C   UNL     1      85.962  67.245  78.180  1.00  0.00     0.056 A 
ATOM     12  C   UNL     1      86.927  69.873  78.399  1.00  0.00     0.050 A 
ATOM     13  C   UNL     1      85.902  69.574  77.481  1.00  0.00     0.009 A 
BRANCH   9  14
ATOM     14  O   UNL     1      87.525  66.543  79.872  1.00  0.00    -0.493 OA
ATOM     15  C   UNL     1      86.697  66.212  81.002  1.00  0.00     0.278 C 
ENDBRANCH   9  14
BRANCH  10  16
ATOM     16  O   UNL     1      88.499  69.162  80.049  1.00  0.00    -0.504 OA
ATOM     17  H   UNL     1      89.301  68.711  79.775  1.00  0.00     0.293 HD
ENDBRANCH  10  16
ENDBRANCH   7   8
ENDBRANCH   4   7
ENDBRANCH   2   3
ENDBRANCH   1   2
BRANCH   1  18
ATOM     18  C   UNL     1      82.188  64.013  74.057  1.00  0.00     0.001 C 
BRANCH  18  19
ATOM     19  C   UNL     1      80.640  63.882  74.111  1.00  0.00     0.000 C 
BRANCH  19  20
ATOM     20  C   UNL     1      79.947  64.870  73.131  1.00  0.00     0.000 C 
BRANCH  20  21
ATOM     21  C   UNL     1      80.763  66.161  72.845  1.00  0.00     0.003 C 
BRANCH  21  22
ATOM     22  C   UNL     1      81.061  66.419  71.332  1.00  0.00    -0.017 C 
ATOM     23  C   UNL     1      81.700  67.823  71.136  1.00  0.00     0.007 C 
ATOM     24  C   UNL     1      79.815  66.255  70.412  1.00  0.00     0.007 C 
ENDBRANCH  21  22
ENDBRANCH  20  21
ENDBRANCH  19  20
ENDBRANCH  18  19
ENDBRANCH   1  18
TORSDOF 11
ENDMDL
MODEL 5
REMARK VINA RESULT:    -5.353     22.670     26.851
REMARK INTER + INTRA:          -9.934
REMARK INTER:                  -9.304
REMARK INTRA:                  -0.630
REMARK UNBOUND:                -1.295
REMARK SMILES COc1cc(CNC(=O)CCCCCCC(C)C)ccc1O
REMARK SMILES IDX 11 1 10 2 8 3 7 4 9 6 6 7 5 8 3 9 21 10 4 11 20 12 19 13
REMARK SMILES IDX 2 14 1 15 22 16 12 18 13 19 14 20 15 21 16 22 17 23 18 24
REMARK H PARENT 7 5 22 17
REMARK Flexibility Score: inf
ROOT
ATOM      1  C   UNL     1      86.443  69.385  70.089  1.00  0.00     0.010 C 
ENDROOT
BRANCH   1   2
ATOM      2  C   UNL     1      85.705  69.577  71.443  1.00  0.00     0.100 C 
BRANCH   2   3
ATOM      3  C   UNL     1      84.234  69.664  71.301  1.00  0.00     0.220 C 
ATOM      4  N   UNL     1      83.514  68.574  70.907  1.00  0.00    -0.352 N 
ATOM      5  H   UNL     1      84.069  67.759  70.691  1.00  0.00     0.163 HD
ATOM      6  O   UNL     1      83.667  70.750  71.573  1.00  0.00    -0.275 OA
BRANCH   4   7
ATOM      7  C   UNL     1      82.088  68.524  70.792  1.00  0.00     0.151 C 
BRANCH   7   8
ATOM      8  C   UNL     1      81.463  67.509  71.684  1.00  0.00    -0.025 A 
ATOM      9  C   UNL     1      80.938  66.696  73.945  1.00  0.00     0.160 A 
ATOM     10  C   UNL     1      80.236  65.604  73.391  1.00  0.00     0.157 A 
ATOM     11  C   UNL     1      81.562  67.628  73.089  1.00  0.00     0.056 A 
ATOM     12  C   UNL     1      80.164  65.453  71.995  1.00  0.00     0.050 A 
ATOM     13  C   UNL     1      80.764  66.403  71.146  1.00  0.00     0.009 A 
BRANCH   9  14
ATOM     14  O   UNL     1      81.048  66.831  75.302  1.00  0.00    -0.493 OA
ATOM     15  C   UNL     1      82.167  66.124  75.867  1.00  0.00     0.278 C 
ENDBRANCH   9  14
BRANCH  10  16
ATOM     16  O   UNL     1      79.627  64.689  74.192  1.00  0.00    -0.504 OA
ATOM     17  H   UNL     1      78.722  64.560  73.898  1.00  0.00     0.293 HD
ENDBRANCH  10  16
ENDBRANCH   7   8
ENDBRANCH   4   7
ENDBRANCH   2   3
ENDBRANCH   1   2
BRANCH   1  18
ATOM     18  C   UNL     1      86.968  70.730  69.511  1.00  0.00     0.001 C 
BRANCH  18  19
ATOM     19  C   UNL     1      88.504  70.752  69.271  1.00  0.00     0.000 C 
BRANCH  19  20
ATOM     20  C   UNL     1      89.107  72.156  69.555  1.00  0.00     0.000 C 
BRANCH  20  21
ATOM     21  C   UNL     1      89.910  72.756  68.368  1.00  0.00     0.003 C 
BRANCH  21  22
ATOM     22  C   UNL     1      89.215  73.964  67.657  1.00  0.00    -0.017 C 
ATOM     23  C   UNL     1      87.911  73.501  66.949  1.00  0.00     0.007 C 
ATOM     24  C   UNL     1      90.141  74.717  66.656  1.00  0.00     0.007 C 
ENDBRANCH  21  22
ENDBRANCH  20  21
ENDBRANCH  19  20
ENDBRANCH  18  19
ENDBRANCH   1  18
TORSDOF 11
ENDMDL
MODEL 6
REMARK VINA RESULT:    -5.124     18.656     20.552
REMARK INTER + INTRA:          -9.563
REMARK INTER:                  -7.601
REMARK INTRA:                  -1.962
REMARK UNBOUND:                -1.295
REMARK SMILES COc1cc(CNC(=O)CCCCCCC(C)C)ccc1O
REMARK SMILES IDX 11 1 10 2 8 3 7 4 9 6 6 7 5 8 3 9 21 10 4 11 20 12 19 13
REMARK SMILES IDX 2 14 1 15 22 16 12 18 13 19 14 20 15 21 16 22 17 23 18 24
REMARK H PARENT 7 5 22 17
REMARK Flexibility Score: inf
ROOT
ATOM      1  C   UNL     1      75.645  83.276  66.017  1.00  0.00     0.010 C 
ENDROOT
BRANCH   1   2
ATOM      2  C   UNL     1      77.174  83.163  65.766  1.00  0.00     0.100 C 
BRANCH   2   3
ATOM      3  C   UNL     1      77.886  84.453  65.904  1.00  0.00     0.220 C 
ATOM      4  N   UNL     1      77.651  85.259  66.980  1.00  0.00    -0.352 N 
ATOM      5  H   UNL     1      76.942  84.919  67.613  1.00  0.00     0.163 HD
ATOM      6  O   UNL     1      78.725  84.775  65.027  1.00  0.00    -0.275 OA
BRANCH   4   7
ATOM      7  C   UNL     1      78.319  86.496  67.248  1.00  0.00     0.151 C 
BRANCH   7   8
ATOM      8  C   UNL     1      77.621  87.677  66.670  1.00  0.00    -0.025 A 
ATOM      9  C   UNL     1      75.945  89.466  66.865  1.00  0.00     0.160 A 
ATOM     10  C   UNL     1      76.317  89.956  65.595  1.00  0.00     0.157 A 
ATOM     11  C   UNL     1      76.585  88.321  67.384  1.00  0.00     0.056 A 
ATOM     12  C   UNL     1      77.319  89.301  64.857  1.00  0.00     0.050 A 
ATOM     13  C   UNL     1      77.975  88.176  65.394  1.00  0.00     0.009 A 
BRANCH   9  14
ATOM     14  O   UNL     1      74.944  90.073  67.574  1.00  0.00    -0.493 OA
ATOM     15  C   UNL     1      74.676  89.454  68.846  1.00  0.00     0.278 C 
ENDBRANCH   9  14
BRANCH  10  16
ATOM     16  O   UNL     1      75.716  91.056  65.069  1.00  0.00    -0.504 OA
ATOM     17  H   UNL     1      75.260  91.534  65.766  1.00  0.00     0.293 HD
ENDBRANCH  10  16
ENDBRANCH   7   8
ENDBRANCH   4   7
ENDBRANCH   2   3
ENDBRANCH   1   2
BRANCH   1  18
ATOM     18  C   UNL     1      74.877  83.760  64.755  1.00  0.00     0.001 C 
BRANCH  18  19
ATOM     19  C   UNL     1      73.760  84.798  65.060  1.00  0.00     0.000 C 
BRANCH  19  20
ATOM     20  C   UNL     1      74.302  85.991  65.896  1.00  0.00     0.000 C 
BRANCH  20  21
ATOM     21  C   UNL     1      73.213  86.752  66.701  1.00  0.00     0.003 C 
BRANCH  21  22
ATOM     22  C   UNL     1      72.998  86.231  68.160  1.00  0.00    -0.017 C 
ATOM     23  C   UNL     1      74.275  85.507  68.671  1.00  0.00     0.007 C 
ATOM     24  C   UNL     1      71.751  85.312  68.318  1.00  0.00     0.007 C 
ENDBRANCH  21  22
ENDBRANCH  20  21
ENDBRANCH  19  20
ENDBRANCH  18  19
ENDBRANCH   1  18
TORSDOF 11
ENDMDL
MODEL 7
REMARK VINA RESULT:    -5.111     11.727     13.685
REMARK INTER + INTRA:          -9.543
REMARK INTER:                  -8.984
REMARK INTRA:                  -0.559
REMARK UNBOUND:                -1.295
REMARK SMILES COc1cc(CNC(=O)CCCCCCC(C)C)ccc1O
REMARK SMILES IDX 11 1 10 2 8 3 7 4 9 6 6 7 5 8 3 9 21 10 4 11 20 12 19 13
REMARK SMILES IDX 2 14 1 15 22 16 12 18 13 19 14 20 15 21 16 22 17 23 18 24
REMARK H PARENT 7 5 22 17
REMARK Flexibility Score: inf
ROOT
ATOM      1  C   UNL     1      95.793  81.074  84.447  1.00  0.00     0.010 C 
ENDROOT
BRANCH   1   2
ATOM      2  C   UNL     1      94.343  80.532  84.588  1.00  0.00     0.100 C 
BRANCH   2   3
ATOM      3  C   UNL     1      93.372  81.564  85.017  1.00  0.00     0.220 C 
ATOM      4  N   UNL     1      93.809  82.749  85.533  1.00  0.00    -0.352 N 
ATOM      5  H   UNL     1      94.811  82.823  85.629  1.00  0.00     0.163 HD
ATOM      6  O   UNL     1      92.147  81.334  84.871  1.00  0.00    -0.275 OA
BRANCH   4   7
ATOM      7  C   UNL     1      92.968  83.839  85.925  1.00  0.00     0.151 C 
BRANCH   7   8
ATOM      8  C   UNL     1      93.731  85.028  86.395  1.00  0.00    -0.025 A 
ATOM      9  C   UNL     1      94.207  86.702  88.133  1.00  0.00     0.160 A 
ATOM     10  C   UNL     1      95.210  87.268  87.317  1.00  0.00     0.157 A 
ATOM     11  C   UNL     1      93.463  85.600  87.660  1.00  0.00     0.056 A 
ATOM     12  C   UNL     1      95.458  86.732  86.040  1.00  0.00     0.050 A 
ATOM     13  C   UNL     1      94.732  85.614  85.585  1.00  0.00     0.009 A 
BRANCH   9  14
ATOM     14  O   UNL     1      93.930  87.240  89.361  1.00  0.00    -0.493 OA
ATOM     15  C   UNL     1      92.858  88.200  89.345  1.00  0.00     0.278 C 
ENDBRANCH   9  14
BRANCH  10  16
ATOM     16  O   UNL     1      95.940  88.331  87.746  1.00  0.00    -0.504 OA
ATOM     17  H   UNL     1      95.353  88.991  88.123  1.00  0.00     0.293 HD
ENDBRANCH  10  16
ENDBRANCH   7   8
ENDBRANCH   4   7
ENDBRANCH   2   3
ENDBRANCH   1   2
BRANCH   1  18
ATOM     18  C   UNL     1      96.530  80.463  83.221  1.00  0.00     0.001 C 
BRANCH  18  19
ATOM     19  C   UNL     1      97.301  81.510  82.368  1.00  0.00     0.000 C 
BRANCH  19  20
ATOM     20  C   UNL     1      97.172  81.215  80.847  1.00  0.00     0.000 C 
BRANCH  20  21
ATOM     21  C   UNL     1      96.968  82.480  79.968  1.00  0.00     0.003 C 
BRANCH  21  22
ATOM     22  C   UNL     1      96.605  82.183  78.476  1.00  0.00    -0.017 C 
ATOM     23  C   UNL     1      97.198  80.816  78.034  1.00  0.00     0.007 C 
ATOM     24  C   UNL     1      97.038  83.309  77.492  1.00  0.00     0.007 C 
ENDBRANCH  21  22
ENDBRANCH  20  21
ENDBRANCH  19  20
ENDBRANCH  18  19
ENDBRANCH   1  18
TORSDOF 11
ENDMDL
MODEL 8
REMARK VINA RESULT:    -5.086     14.771     16.027
REMARK INTER + INTRA:          -9.503
REMARK INTER:                  -8.488
REMARK INTRA:                  -1.015
REMARK UNBOUND:                -1.295
REMARK SMILES COc1cc(CNC(=O)CCCCCCC(C)C)ccc1O
REMARK SMILES IDX 11 1 10 2 8 3 7 4 9 6 6 7 5 8 3 9 21 10 4 11 20 12 19 13
REMARK SMILES IDX 2 14 1 15 22 16 12 18 13 19 14 20 15 21 16 22 17 23 18 24
REMARK H PARENT 7 5 22 17
REMARK Flexibility Score: inf
ROOT
ATOM      1  C   UNL     1      82.049  89.409  86.231  1.00  0.00     0.010 C 
ENDROOT
BRANCH   1   2
ATOM      2  C   UNL     1      83.129  90.454  86.626  1.00  0.00     0.100 C 
BRANCH   2   3
ATOM      3  C   UNL     1      82.680  91.390  87.681  1.00  0.00     0.220 C 
ATOM      4  N   UNL     1      83.559  92.272  88.240  1.00  0.00    -0.352 N 
ATOM      5  H   UNL     1      84.508  92.189  87.906  1.00  0.00     0.163 HD
ATOM      6  O   UNL     1      81.474  91.370  88.029  1.00  0.00    -0.275 OA
BRANCH   4   7
ATOM      7  C   UNL     1      83.226  93.259  89.222  1.00  0.00     0.151 C 
BRANCH   7   8
ATOM      8  C   UNL     1      82.763  94.543  88.629  1.00  0.00    -0.025 A 
ATOM      9  C   UNL     1      81.116  96.366  88.519  1.00  0.00     0.160 A 
ATOM     10  C   UNL     1      81.896  97.014  87.536  1.00  0.00     0.157 A 
ATOM     11  C   UNL     1      81.545  95.129  89.043  1.00  0.00     0.056 A 
ATOM     12  C   UNL     1      83.091  96.422  87.088  1.00  0.00     0.050 A 
ATOM     13  C   UNL     1      83.528  95.201  87.637  1.00  0.00     0.009 A 
BRANCH   9  14
ATOM     14  O   UNL     1      79.933  96.914  88.933  1.00  0.00    -0.493 OA
ATOM     15  C   UNL     1      79.260  96.143  89.946  1.00  0.00     0.278 C 
ENDBRANCH   9  14
BRANCH  10  16
ATOM     16  O   UNL     1      81.506  98.206  87.012  1.00  0.00    -0.504 OA
ATOM     17  H   UNL     1      81.222  98.789  87.721  1.00  0.00     0.293 HD
ENDBRANCH  10  16
ENDBRANCH   7   8
ENDBRANCH   4   7
ENDBRANCH   2   3
ENDBRANCH   1   2
BRANCH   1  18
ATOM     18  C   UNL     1      81.192  89.879  85.021  1.00  0.00     0.001 C 
BRANCH  18  19
ATOM     19  C   UNL     1      80.959  88.774  83.952  1.00  0.00     0.000 C 
BRANCH  19  20
ATOM     20  C   UNL     1      79.791  87.829  84.352  1.00  0.00     0.000 C 
BRANCH  20  21
ATOM     21  C   UNL     1      80.165  86.321  84.358  1.00  0.00     0.003 C 
BRANCH  21  22
ATOM     22  C   UNL     1      80.648  85.777  85.742  1.00  0.00    -0.017 C 
ATOM     23  C   UNL     1      80.009  86.593  86.901  1.00  0.00     0.007 C 
ATOM     24  C   UNL     1      82.198  85.738  85.893  1.00  0.00     0.007 C 
ENDBRANCH  21  22
ENDBRANCH  20  21
ENDBRANCH  19  20
ENDBRANCH  18  19
ENDBRANCH   1  18
TORSDOF 11
ENDMDL
MODEL 9
REMARK VINA RESULT:    -5.045     22.412     25.596
REMARK INTER + INTRA:          -9.436
REMARK INTER:                  -8.601
REMARK INTRA:                  -0.836
REMARK UNBOUND:                -1.295
REMARK SMILES COc1cc(CNC(=O)CCCCCCC(C)C)ccc1O
REMARK SMILES IDX 11 1 10 2 8 3 7 4 9 6 6 7 5 8 3 9 21 10 4 11 20 12 19 13
REMARK SMILES IDX 2 14 1 15 22 16 12 18 13 19 14 20 15 21 16 22 17 23 18 24
REMARK H PARENT 7 5 22 17
REMARK Flexibility Score: inf
ROOT
ATOM      1  C   UNL     1      83.424  68.986  71.620  1.00  0.00     0.010 C 
ENDROOT
BRANCH   1   2
ATOM      2  C   UNL     1      84.302  68.517  72.813  1.00  0.00     0.100 C 
BRANCH   2   3
ATOM      3  C   UNL     1      85.736  68.845  72.648  1.00  0.00     0.220 C 
ATOM      4  N   UNL     1      86.148  69.631  71.611  1.00  0.00    -0.352 N 
ATOM      5  H   UNL     1      85.415  69.910  70.976  1.00  0.00     0.163 HD
ATOM      6  O   UNL     1      86.555  68.407  73.493  1.00  0.00    -0.275 OA
BRANCH   4   7
ATOM      7  C   UNL     1      87.495  70.060  71.384  1.00  0.00     0.151 C 
BRANCH   7   8
ATOM      8  C   UNL     1      87.671  70.784  70.095  1.00  0.00    -0.025 A 
ATOM      9  C   UNL     1      89.039  72.191  68.613  1.00  0.00     0.160 A 
ATOM     10  C   UNL     1      88.033  72.130  67.623  1.00  0.00     0.157 A 
ATOM     11  C   UNL     1      88.843  71.535  69.846  1.00  0.00     0.056 A 
ATOM     12  C   UNL     1      86.846  71.418  67.875  1.00  0.00     0.050 A 
ATOM     13  C   UNL     1      86.669  70.741  69.097  1.00  0.00     0.009 A 
BRANCH   9  14
ATOM     14  O   UNL     1      90.180  72.913  68.394  1.00  0.00    -0.493 OA
ATOM     15  C   UNL     1      91.387  72.208  68.738  1.00  0.00     0.278 C 
ENDBRANCH   9  14
BRANCH  10  16
ATOM     16  O   UNL     1      88.195  72.754  66.427  1.00  0.00    -0.504 OA
ATOM     17  H   UNL     1      88.262  73.701  66.567  1.00  0.00     0.293 HD
ENDBRANCH  10  16
ENDBRANCH   7   8
ENDBRANCH   4   7
ENDBRANCH   2   3
ENDBRANCH   1   2
BRANCH   1  18
ATOM     18  C   UNL     1      82.861  67.791  70.800  1.00  0.00     0.001 C 
BRANCH  18  19
ATOM     19  C   UNL     1      81.316  67.641  70.890  1.00  0.00     0.000 C 
BRANCH  19  20
ATOM     20  C   UNL     1      80.880  66.151  70.812  1.00  0.00     0.000 C 
BRANCH  20  21
ATOM     21  C   UNL     1      79.937  65.702  71.962  1.00  0.00     0.003 C 
BRANCH  21  22
ATOM     22  C   UNL     1      80.668  65.310  73.287  1.00  0.00    -0.017 C 
ATOM     23  C   UNL     1      80.067  64.001  73.873  1.00  0.00     0.007 C 
ATOM     24  C   UNL     1      80.665  66.439  74.360  1.00  0.00     0.007 C 
ENDBRANCH  21  22
ENDBRANCH  20  21
ENDBRANCH  19  20
ENDBRANCH  18  19
ENDBRANCH   1  18
TORSDOF 11
ENDMDL
MODEL 10
REMARK VINA RESULT:    -5.031     13.087     16.021
REMARK INTER + INTRA:          -9.414
REMARK INTER:                  -8.722
REMARK INTRA:                  -0.692
REMARK UNBOUND:                -1.295
REMARK SMILES COc1cc(CNC(=O)CCCCCCC(C)C)ccc1O
REMARK SMILES IDX 11 1 10 2 8 3 7 4 9 6 6 7 5 8 3 9 21 10 4 11 20 12 19 13
REMARK SMILES IDX 2 14 1 15 22 16 12 18 13 19 14 20 15 21 16 22 17 23 18 24
REMARK H PARENT 7 5 22 17
REMARK Flexibility Score: inf
ROOT
ATOM      1  C   UNL     1      96.629  82.515  83.281  1.00  0.00     0.010 C 
ENDROOT
BRANCH   1   2
ATOM      2  C   UNL     1      95.967  81.235  83.862  1.00  0.00     0.100 C 
BRANCH   2   3
ATOM      3  C   UNL     1      94.893  81.523  84.839  1.00  0.00     0.220 C 
ATOM      4  N   UNL     1      93.588  81.549  84.442  1.00  0.00    -0.352 N 
ATOM      5  H   UNL     1      93.446  81.404  83.454  1.00  0.00     0.163 HD
ATOM      6  O   UNL     1      95.209  81.718  86.039  1.00  0.00    -0.275 OA
BRANCH   4   7
ATOM      7  C   UNL     1      92.466  81.759  85.306  1.00  0.00     0.151 C 
BRANCH   7   8
ATOM      8  C   UNL     1      91.491  80.634  85.285  1.00  0.00    -0.025 A 
ATOM      9  C   UNL     1      89.171  79.830  85.154  1.00  0.00     0.160 A 
ATOM     10  C   UNL     1      89.628  78.495  85.199  1.00  0.00     0.157 A 
ATOM     11  C   UNL     1      90.102  80.888  85.216  1.00  0.00     0.056 A 
ATOM     12  C   UNL     1      91.006  78.231  85.307  1.00  0.00     0.050 A 
ATOM     13  C   UNL     1      91.932  79.291  85.339  1.00  0.00     0.009 A 
BRANCH   9  14
ATOM     14  O   UNL     1      87.830  80.099  85.089  1.00  0.00    -0.493 OA
ATOM     15  C   UNL     1      87.421  80.711  83.852  1.00  0.00     0.278 C 
ENDBRANCH   9  14
BRANCH  10  16
ATOM     16  O   UNL     1      88.754  77.456  85.143  1.00  0.00    -0.504 OA
ATOM     17  H   UNL     1      87.934  77.751  84.738  1.00  0.00     0.293 HD
ENDBRANCH  10  16
ENDBRANCH   7   8
ENDBRANCH   4   7
ENDBRANCH   2   3
ENDBRANCH   1   2
BRANCH   1  18
ATOM     18  C   UNL     1      97.004  82.353  81.780  1.00  0.00     0.001 C 
BRANCH  18  19
ATOM     19  C   UNL     1      97.470  80.919  81.402  1.00  0.00     0.000 C 
BRANCH  19  20
ATOM     20  C   UNL     1      97.894  80.830  79.909  1.00  0.00     0.000 C 
BRANCH  20  21
ATOM     21  C   UNL     1      97.062  81.733  78.956  1.00  0.00     0.003 C 
BRANCH  21  22
ATOM     22  C   UNL     1      97.831  82.220  77.685  1.00  0.00    -0.017 C 
ATOM     23  C   UNL     1      99.333  82.451  78.014  1.00  0.00     0.007 C 
ATOM     24  C   UNL     1      97.215  83.490  77.029  1.00  0.00     0.007 C 
ENDBRANCH  21  22
ENDBRANCH  20  21
ENDBRANCH  19  20
ENDBRANCH  18  19
ENDBRANCH   1  18
TORSDOF 11
ENDMDL
