MODEL 1
REMARK VINA RESULT:    -6.193      0.000      0.000
REMARK INTER + INTRA:         -10.763
REMARK INTER:                  -9.994
REMARK INTRA:                  -0.769
REMARK UNBOUND:                -0.769
REMARK SMILES COc1cc(CNC(=O)CCCCC/C=C/C(C)C)ccc1O
REMARK SMILES IDX 11 1 10 2 8 3 7 4 9 6 6 7 5 8 3 9 22 10 4 11 21 12 20 13
REMARK SMILES IDX 2 14 1 15 23 16 12 18 13 19 14 20 15 21 16 22 17 23 18 24
REMARK SMILES IDX 19 25
REMARK H PARENT 7 5 23 17
REMARK Flexibility Score: inf
ROOT
ATOM      1  C   UNL     1      95.091  94.636  76.505  1.00  0.00     0.010 C 
ENDROOT
BRANCH   1   2
ATOM      2  C   UNL     1      94.452  93.760  75.397  1.00  0.00     0.100 C 
BRANCH   2   3
ATOM      3  C   UNL     1      92.996  93.574  75.544  1.00  0.00     0.220 C 
ATOM      4  N   UNL     1      92.485  93.127  76.724  1.00  0.00    -0.352 N 
ATOM      5  H   UNL     1      93.179  92.879  77.416  1.00  0.00     0.163 HD
ATOM      6  O   UNL     1      92.257  93.875  74.577  1.00  0.00    -0.275 OA
BRANCH   4   7
ATOM      7  C   UNL     1      91.098  92.996  77.032  1.00  0.00     0.151 C 
BRANCH   7   8
ATOM      8  C   UNL     1      90.696  91.586  77.272  1.00  0.00    -0.025 A 
ATOM      9  C   UNL     1      90.219  89.327  76.426  1.00  0.00     0.160 A 
ATOM     10  C   UNL     1      89.877  88.911  77.731  1.00  0.00     0.157 A 
ATOM     11  C   UNL     1      90.617  90.661  76.205  1.00  0.00     0.056 A 
ATOM     12  C   UNL     1      89.969  89.818  78.803  1.00  0.00     0.050 A 
ATOM     13  C   UNL     1      90.386  91.143  78.577  1.00  0.00     0.009 A 
BRANCH   9  14
ATOM     14  O   UNL     1      90.217  88.430  75.390  1.00  0.00    -0.493 OA
ATOM     15  C   UNL     1      91.523  87.953  75.024  1.00  0.00     0.278 C 
ENDBRANCH   9  14
BRANCH  10  16
ATOM     16  O   UNL     1      89.462  87.644  77.981  1.00  0.00    -0.504 OA
ATOM     17  H   UNL     1      88.938  87.327  77.241  1.00  0.00     0.293 HD
ENDBRANCH  10  16
ENDBRANCH   7   8
ENDBRANCH   4   7
ENDBRANCH   2   3
ENDBRANCH   1   2
BRANCH   1  18
ATOM     18  C   UNL     1      95.731  95.915  75.907  1.00  0.00     0.001 C 
BRANCH  18  19
ATOM     19  C   UNL     1      96.697  96.641  76.877  1.00  0.00     0.004 C 
BRANCH  19  20
ATOM     20  C   UNL     1      97.450  95.632  77.788  1.00  0.00     0.027 C 
BRANCH  20  21
ATOM     21  C   UNL     1      96.934  95.571  79.145  1.00  0.00    -0.031 C 
ATOM     22  C   UNL     1      96.542  96.670  79.814  1.00  0.00    -0.028 C 
BRANCH  22  23
ATOM     23  C   UNL     1      96.014  96.642  81.176  1.00  0.00     0.005 C 
ATOM     24  C   UNL     1      95.296  95.293  81.447  1.00  0.00     0.012 C 
ATOM     25  C   UNL     1      97.150  96.921  82.198  1.00  0.00     0.012 C 
ENDBRANCH  22  23
ENDBRANCH  20  21
ENDBRANCH  19  20
ENDBRANCH  18  19
ENDBRANCH   1  18
TORSDOF 11
ENDMDL
MODEL 2
REMARK VINA RESULT:    -5.870     26.449     29.637
REMARK INTER + INTRA:         -10.241
REMARK INTER:                  -9.004
REMARK INTRA:                  -1.238
REMARK UNBOUND:                -0.769
REMARK SMILES COc1cc(CNC(=O)CCCCC/C=C/C(C)C)ccc1O
REMARK SMILES IDX 11 1 10 2 8 3 7 4 9 6 6 7 5 8 3 9 22 10 4 11 21 12 20 13
REMARK SMILES IDX 2 14 1 15 23 16 12 18 13 19 14 20 15 21 16 22 17 23 18 24
REMARK SMILES IDX 19 25
REMARK H PARENT 7 5 23 17
REMARK Flexibility Score: inf
ROOT
ATOM      1  C   UNL     1      81.574  64.700  75.895  1.00  0.00     0.010 C 
ENDROOT
BRANCH   1   2
ATOM      2  C   UNL     1      82.321  66.058  75.939  1.00  0.00     0.100 C 
BRANCH   2   3
ATOM      3  C   UNL     1      83.670  65.982  76.531  1.00  0.00     0.220 C 
ATOM      4  N   UNL     1      84.214  64.769  76.826  1.00  0.00    -0.352 N 
ATOM      5  H   UNL     1      83.597  63.983  76.676  1.00  0.00     0.163 HD
ATOM      6  O   UNL     1      84.301  67.050  76.712  1.00  0.00    -0.275 OA
BRANCH   4   7
ATOM      7  C   UNL     1      85.538  64.549  77.309  1.00  0.00     0.151 C 
BRANCH   7   8
ATOM      8  C   UNL     1      85.637  64.676  78.786  1.00  0.00    -0.025 A 
ATOM      9  C   UNL     1      86.439  65.874  80.779  1.00  0.00     0.160 A 
ATOM     10  C   UNL     1      85.866  64.882  81.604  1.00  0.00     0.157 A 
ATOM     11  C   UNL     1      86.328  65.759  79.378  1.00  0.00     0.056 A 
ATOM     12  C   UNL     1      85.162  63.809  81.027  1.00  0.00     0.050 A 
ATOM     13  C   UNL     1      85.039  63.712  79.629  1.00  0.00     0.009 A 
BRANCH   9  14
ATOM     14  O   UNL     1      87.050  66.967  81.332  1.00  0.00    -0.493 OA
ATOM     15  C   UNL     1      87.484  67.946  80.373  1.00  0.00     0.278 C 
ENDBRANCH   9  14
BRANCH  10  16
ATOM     16  O   UNL     1      85.975  64.940  82.955  1.00  0.00    -0.504 OA
ATOM     17  H   UNL     1      85.497  65.707  83.282  1.00  0.00     0.293 HD
ENDBRANCH  10  16
ENDBRANCH   7   8
ENDBRANCH   4   7
ENDBRANCH   2   3
ENDBRANCH   1   2
BRANCH   1  18
ATOM     18  C   UNL     1      81.439  64.182  74.440  1.00  0.00     0.001 C 
BRANCH  18  19
ATOM     19  C   UNL     1      80.026  64.382  73.837  1.00  0.00     0.004 C 
BRANCH  19  20
ATOM     20  C   UNL     1      80.076  65.256  72.552  1.00  0.00     0.027 C 
BRANCH  20  21
ATOM     21  C   UNL     1      81.242  66.120  72.478  1.00  0.00    -0.031 C 
ATOM     22  C   UNL     1      81.141  67.452  72.325  1.00  0.00    -0.028 C 
BRANCH  22  23
ATOM     23  C   UNL     1      82.293  68.348  72.253  1.00  0.00     0.005 C 
ATOM     24  C   UNL     1      83.529  67.690  72.922  1.00  0.00     0.012 C 
ATOM     25  C   UNL     1      82.566  68.753  70.779  1.00  0.00     0.012 C 
ENDBRANCH  22  23
ENDBRANCH  20  21
ENDBRANCH  19  20
ENDBRANCH  18  19
ENDBRANCH   1  18
TORSDOF 11
ENDMDL
MODEL 3
REMARK VINA RESULT:    -5.813      1.840      2.395
REMARK INTER + INTRA:         -10.150
REMARK INTER:                  -9.343
REMARK INTRA:                  -0.808
REMARK UNBOUND:                -0.769
REMARK SMILES COc1cc(CNC(=O)CCCCC/C=C/C(C)C)ccc1O
REMARK SMILES IDX 11 1 10 2 8 3 7 4 9 6 6 7 5 8 3 9 22 10 4 11 21 12 20 13
REMARK SMILES IDX 2 14 1 15 23 16 12 18 13 19 14 20 15 21 16 22 17 23 18 24
REMARK SMILES IDX 19 25
REMARK H PARENT 7 5 23 17
REMARK Flexibility Score: inf
ROOT
ATOM      1  C   UNL     1      95.517  94.474  77.150  1.00  0.00     0.010 C 
ENDROOT
BRANCH   1   2
ATOM      2  C   UNL     1      94.907  94.045  75.791  1.00  0.00     0.100 C 
BRANCH   2   3
ATOM      3  C   UNL     1      93.436  94.125  75.741  1.00  0.00     0.220 C 
ATOM      4  N   UNL     1      92.686  93.359  76.581  1.00  0.00    -0.352 N 
ATOM      5  H   UNL     1      93.217  92.713  77.150  1.00  0.00     0.163 HD
ATOM      6  O   UNL     1      92.910  94.937  74.943  1.00  0.00    -0.275 OA
BRANCH   4   7
ATOM      7  C   UNL     1      91.266  93.409  76.704  1.00  0.00     0.151 C 
BRANCH   7   8
ATOM      8  C   UNL     1      90.595  92.248  76.064  1.00  0.00    -0.025 A 
ATOM      9  C   UNL     1      89.545  91.203  74.101  1.00  0.00     0.160 A 
ATOM     10  C   UNL     1      89.267  90.049  74.865  1.00  0.00     0.157 A 
ATOM     11  C   UNL     1      90.198  92.296  74.708  1.00  0.00     0.056 A 
ATOM     12  C   UNL     1      89.672  89.984  76.211  1.00  0.00     0.050 A 
ATOM     13  C   UNL     1      90.341  91.071  76.803  1.00  0.00     0.009 A 
BRANCH   9  14
ATOM     14  O   UNL     1      89.233  91.243  72.768  1.00  0.00    -0.493 OA
ATOM     15  C   UNL     1      90.375  91.204  71.896  1.00  0.00     0.278 C 
ENDBRANCH   9  14
BRANCH  10  16
ATOM     16  O   UNL     1      88.615  88.987  74.327  1.00  0.00    -0.504 OA
ATOM     17  H   UNL     1      88.033  89.291  73.626  1.00  0.00     0.293 HD
ENDBRANCH  10  16
ENDBRANCH   7   8
ENDBRANCH   4   7
ENDBRANCH   2   3
ENDBRANCH   1   2
BRANCH   1  18
ATOM     18  C   UNL     1      96.554  95.612  76.964  1.00  0.00     0.001 C 
BRANCH  18  19
ATOM     19  C   UNL     1      97.049  96.228  78.296  1.00  0.00     0.004 C 
BRANCH  19  20
ATOM     20  C   UNL     1      96.412  95.515  79.522  1.00  0.00     0.027 C 
BRANCH  20  21
ATOM     21  C   UNL     1      96.250  96.378  80.680  1.00  0.00    -0.031 C 
ATOM     22  C   UNL     1      96.968  97.503  80.845  1.00  0.00    -0.028 C 
BRANCH  22  23
ATOM     23  C   UNL     1      96.825  98.393  81.994  1.00  0.00     0.005 C 
ATOM     24  C   UNL     1      95.840  99.546  81.662  1.00  0.00     0.012 C 
ATOM     25  C   UNL     1      96.388  97.587  83.247  1.00  0.00     0.012 C 
ENDBRANCH  22  23
ENDBRANCH  20  21
ENDBRANCH  19  20
ENDBRANCH  18  19
ENDBRANCH   1  18
TORSDOF 11
ENDMDL
MODEL 4
REMARK VINA RESULT:    -5.800     18.006     20.895
REMARK INTER + INTRA:         -10.130
REMARK INTER:                  -8.794
REMARK INTRA:                  -1.336
REMARK UNBOUND:                -0.769
REMARK SMILES COc1cc(CNC(=O)CCCCC/C=C/C(C)C)ccc1O
REMARK SMILES IDX 11 1 10 2 8 3 7 4 9 6 6 7 5 8 3 9 22 10 4 11 21 12 20 13
REMARK SMILES IDX 2 14 1 15 23 16 12 18 13 19 14 20 15 21 16 22 17 23 18 24
REMARK SMILES IDX 19 25
REMARK H PARENT 7 5 23 17
REMARK Flexibility Score: inf
ROOT
ATOM      1  C   UNL     1      76.881  88.728  64.047  1.00  0.00     0.010 C 
ENDROOT
BRANCH   1   2
ATOM      2  C   UNL     1      76.453  90.000  64.824  1.00  0.00     0.100 C 
BRANCH   2   3
ATOM      3  C   UNL     1      77.004  91.253  64.276  1.00  0.00     0.220 C 
ATOM      4  N   UNL     1      76.488  92.450  64.669  1.00  0.00    -0.352 N 
ATOM      5  H   UNL     1      75.684  92.382  65.278  1.00  0.00     0.163 HD
ATOM      6  O   UNL     1      77.973  91.181  63.483  1.00  0.00    -0.275 OA
BRANCH   4   7
ATOM      7  C   UNL     1      76.987  93.732  64.293  1.00  0.00     0.151 C 
BRANCH   7   8
ATOM      8  C   UNL     1      77.829  94.350  65.351  1.00  0.00    -0.025 A 
ATOM      9  C   UNL     1      78.125  95.116  67.669  1.00  0.00     0.160 A 
ATOM     10  C   UNL     1      79.420  95.579  67.350  1.00  0.00     0.157 A 
ATOM     11  C   UNL     1      77.337  94.515  66.667  1.00  0.00     0.056 A 
ATOM     12  C   UNL     1      79.926  95.406  66.048  1.00  0.00     0.050 A 
ATOM     13  C   UNL     1      79.140  94.787  65.059  1.00  0.00     0.009 A 
BRANCH   9  14
ATOM     14  O   UNL     1      77.656  95.201  68.953  1.00  0.00    -0.493 OA
ATOM     15  C   UNL     1      76.578  96.136  69.126  1.00  0.00     0.278 C 
ENDBRANCH   9  14
BRANCH  10  16
ATOM     16  O   UNL     1      80.199  96.190  68.277  1.00  0.00    -0.504 OA
ATOM     17  H   UNL     1      79.937  97.110  68.360  1.00  0.00     0.293 HD
ENDBRANCH  10  16
ENDBRANCH   7   8
ENDBRANCH   4   7
ENDBRANCH   2   3
ENDBRANCH   1   2
BRANCH   1  18
ATOM     18  C   UNL     1      77.917  87.902  64.852  1.00  0.00     0.001 C 
BRANCH  18  19
ATOM     19  C   UNL     1      77.968  88.266  66.357  1.00  0.00     0.004 C 
BRANCH  19  20
ATOM     20  C   UNL     1      77.147  87.260  67.212  1.00  0.00     0.027 C 
BRANCH  20  21
ATOM     21  C   UNL     1      75.886  87.797  67.695  1.00  0.00    -0.031 C 
ATOM     22  C   UNL     1      75.776  89.048  68.178  1.00  0.00    -0.028 C 
BRANCH  22  23
ATOM     23  C   UNL     1      74.523  89.619  68.666  1.00  0.00     0.005 C 
ATOM     24  C   UNL     1      73.870  90.500  67.569  1.00  0.00     0.012 C 
ATOM     25  C   UNL     1      73.575  88.491  69.159  1.00  0.00     0.012 C 
ENDBRANCH  22  23
ENDBRANCH  20  21
ENDBRANCH  19  20
ENDBRANCH  18  19
ENDBRANCH   1  18
TORSDOF 11
ENDMDL
MODEL 5
REMARK VINA RESULT:    -5.724     25.983     29.616
REMARK INTER + INTRA:         -10.006
REMARK INTER:                  -9.173
REMARK INTRA:                  -0.833
REMARK UNBOUND:                -0.769
REMARK SMILES COc1cc(CNC(=O)CCCCC/C=C/C(C)C)ccc1O
REMARK SMILES IDX 11 1 10 2 8 3 7 4 9 6 6 7 5 8 3 9 22 10 4 11 21 12 20 13
REMARK SMILES IDX 2 14 1 15 23 16 12 18 13 19 14 20 15 21 16 22 17 23 18 24
REMARK SMILES IDX 19 25
REMARK H PARENT 7 5 23 17
REMARK Flexibility Score: inf
ROOT
ATOM      1  C   UNL     1      83.788  63.756  75.336  1.00  0.00     0.010 C 
ENDROOT
BRANCH   1   2
ATOM      2  C   UNL     1      83.886  63.781  76.884  1.00  0.00     0.100 C 
BRANCH   2   3
ATOM      3  C   UNL     1      84.834  64.782  77.409  1.00  0.00     0.220 C 
ATOM      4  N   UNL     1      85.566  64.503  78.522  1.00  0.00    -0.352 N 
ATOM      5  H   UNL     1      85.343  63.622  78.964  1.00  0.00     0.163 HD
ATOM      6  O   UNL     1      84.969  65.860  76.783  1.00  0.00    -0.275 OA
BRANCH   4   7
ATOM      7  C   UNL     1      86.582  65.337  79.077  1.00  0.00     0.151 C 
BRANCH   7   8
ATOM      8  C   UNL     1      86.417  65.544  80.539  1.00  0.00    -0.025 A 
ATOM      9  C   UNL     1      86.930  66.801  82.590  1.00  0.00     0.160 A 
ATOM     10  C   UNL     1      86.140  65.901  83.338  1.00  0.00     0.157 A 
ATOM     11  C   UNL     1      87.069  66.611  81.200  1.00  0.00     0.056 A 
ATOM     12  C   UNL     1      85.473  64.846  82.689  1.00  0.00     0.050 A 
ATOM     13  C   UNL     1      85.602  64.675  81.298  1.00  0.00     0.009 A 
BRANCH   9  14
ATOM     14  O   UNL     1      87.512  67.882  83.198  1.00  0.00    -0.493 OA
ATOM     15  C   UNL     1      86.767  69.104  83.064  1.00  0.00     0.278 C 
ENDBRANCH   9  14
BRANCH  10  16
ATOM     16  O   UNL     1      86.003  66.032  84.681  1.00  0.00    -0.504 OA
ATOM     17  H   UNL     1      85.537  65.269  85.031  1.00  0.00     0.293 HD
ENDBRANCH  10  16
ENDBRANCH   7   8
ENDBRANCH   4   7
ENDBRANCH   2   3
ENDBRANCH   1   2
BRANCH   1  18
ATOM     18  C   UNL     1      82.433  64.331  74.852  1.00  0.00     0.001 C 
BRANCH  18  19
ATOM     19  C   UNL     1      81.621  65.037  75.967  1.00  0.00     0.004 C 
BRANCH  19  20
ATOM     20  C   UNL     1      81.215  66.477  75.548  1.00  0.00     0.027 C 
BRANCH  20  21
ATOM     21  C   UNL     1      80.635  66.557  74.218  1.00  0.00    -0.031 C 
ATOM     22  C   UNL     1      81.188  67.290  73.235  1.00  0.00    -0.028 C 
BRANCH  22  23
ATOM     23  C   UNL     1      80.633  67.386  71.887  1.00  0.00     0.005 C 
ATOM     24  C   UNL     1      81.669  68.023  70.923  1.00  0.00     0.012 C 
ATOM     25  C   UNL     1      80.157  65.990  71.401  1.00  0.00     0.012 C 
ENDBRANCH  22  23
ENDBRANCH  20  21
ENDBRANCH  19  20
ENDBRANCH  18  19
ENDBRANCH   1  18
TORSDOF 11
ENDMDL
MODEL 6
REMARK VINA RESULT:    -5.717     17.877     21.025
REMARK INTER + INTRA:          -9.996
REMARK INTER:                  -9.281
REMARK INTRA:                  -0.715
REMARK UNBOUND:                -0.769
REMARK SMILES COc1cc(CNC(=O)CCCCC/C=C/C(C)C)ccc1O
REMARK SMILES IDX 11 1 10 2 8 3 7 4 9 6 6 7 5 8 3 9 22 10 4 11 21 12 20 13
REMARK SMILES IDX 2 14 1 15 23 16 12 18 13 19 14 20 15 21 16 22 17 23 18 24
REMARK SMILES IDX 19 25
REMARK H PARENT 7 5 23 17
REMARK Flexibility Score: inf
ROOT
ATOM      1  C   UNL     1      76.727  88.900  64.386  1.00  0.00     0.010 C 
ENDROOT
BRANCH   1   2
ATOM      2  C   UNL     1      76.090  90.186  64.976  1.00  0.00     0.100 C 
BRANCH   2   3
ATOM      3  C   UNL     1      76.651  91.437  64.433  1.00  0.00     0.220 C 
ATOM      4  N   UNL     1      76.239  92.636  64.928  1.00  0.00    -0.352 N 
ATOM      5  H   UNL     1      75.495  92.577  65.610  1.00  0.00     0.163 HD
ATOM      6  O   UNL     1      77.534  91.358  63.546  1.00  0.00    -0.275 OA
BRANCH   4   7
ATOM      7  C   UNL     1      76.767  93.910  64.564  1.00  0.00     0.151 C 
BRANCH   7   8
ATOM      8  C   UNL     1      77.682  94.467  65.594  1.00  0.00    -0.025 A 
ATOM      9  C   UNL     1      78.110  95.187  67.906  1.00  0.00     0.160 A 
ATOM     10  C   UNL     1      79.417  95.578  67.541  1.00  0.00     0.157 A 
ATOM     11  C   UNL     1      77.251  94.644  66.929  1.00  0.00     0.056 A 
ATOM     12  C   UNL     1      79.862  95.391  66.219  1.00  0.00     0.050 A 
ATOM     13  C   UNL     1      79.005  94.830  65.255  1.00  0.00     0.009 A 
BRANCH   9  14
ATOM     14  O   UNL     1      77.697  95.284  69.208  1.00  0.00    -0.493 OA
ATOM     15  C   UNL     1      76.618  96.211  69.415  1.00  0.00     0.278 C 
ENDBRANCH   9  14
BRANCH  10  16
ATOM     16  O   UNL     1      80.265  96.132  68.444  1.00  0.00    -0.504 OA
ATOM     17  H   UNL     1      81.102  96.331  68.016  1.00  0.00     0.293 HD
ENDBRANCH  10  16
ENDBRANCH   7   8
ENDBRANCH   4   7
ENDBRANCH   2   3
ENDBRANCH   1   2
BRANCH   1  18
ATOM     18  C   UNL     1      78.040  88.536  65.126  1.00  0.00     0.001 C 
BRANCH  18  19
ATOM     19  C   UNL     1      77.859  88.327  66.650  1.00  0.00     0.004 C 
BRANCH  19  20
ATOM     20  C   UNL     1      78.253  86.884  67.075  1.00  0.00     0.027 C 
BRANCH  20  21
ATOM     21  C   UNL     1      77.126  85.970  67.155  1.00  0.00    -0.031 C 
ATOM     22  C   UNL     1      77.078  84.964  68.046  1.00  0.00    -0.028 C 
BRANCH  22  23
ATOM     23  C   UNL     1      75.959  84.033  68.156  1.00  0.00     0.005 C 
ATOM     24  C   UNL     1      74.845  84.634  69.055  1.00  0.00     0.012 C 
ATOM     25  C   UNL     1      75.436  83.653  66.744  1.00  0.00     0.012 C 
ENDBRANCH  22  23
ENDBRANCH  20  21
ENDBRANCH  19  20
ENDBRANCH  18  19
ENDBRANCH   1  18
TORSDOF 11
ENDMDL
MODEL 7
REMARK VINA RESULT:    -5.596     16.719     19.618
REMARK INTER + INTRA:          -9.800
REMARK INTER:                  -8.771
REMARK INTRA:                  -1.029
REMARK UNBOUND:                -0.769
REMARK SMILES COc1cc(CNC(=O)CCCCC/C=C/C(C)C)ccc1O
REMARK SMILES IDX 11 1 10 2 8 3 7 4 9 6 6 7 5 8 3 9 22 10 4 11 21 12 20 13
REMARK SMILES IDX 2 14 1 15 23 16 12 18 13 19 14 20 15 21 16 22 17 23 18 24
REMARK SMILES IDX 19 25
REMARK H PARENT 7 5 23 17
REMARK Flexibility Score: inf
ROOT
ATOM      1  C   UNL     1      76.219  92.526  65.502  1.00  0.00     0.010 C 
ENDROOT
BRANCH   1   2
ATOM      2  C   UNL     1      75.324  92.777  66.743  1.00  0.00     0.100 C 
BRANCH   2   3
ATOM      3  C   UNL     1      75.047  91.566  67.538  1.00  0.00     0.220 C 
ATOM      4  N   UNL     1      74.613  90.433  66.919  1.00  0.00    -0.352 N 
ATOM      5  H   UNL     1      74.437  90.535  65.929  1.00  0.00     0.163 HD
ATOM      6  O   UNL     1      75.262  91.603  68.773  1.00  0.00    -0.275 OA
BRANCH   4   7
ATOM      7  C   UNL     1      74.402  89.172  67.552  1.00  0.00     0.151 C 
BRANCH   7   8
ATOM      8  C   UNL     1      75.567  88.260  67.413  1.00  0.00    -0.025 A 
ATOM      9  C   UNL     1      76.611  86.060  67.757  1.00  0.00     0.160 A 
ATOM     10  C   UNL     1      77.812  86.543  67.193  1.00  0.00     0.157 A 
ATOM     11  C   UNL     1      75.502  86.924  67.871  1.00  0.00     0.056 A 
ATOM     12  C   UNL     1      77.883  87.865  66.719  1.00  0.00     0.050 A 
ATOM     13  C   UNL     1      76.765  88.715  66.818  1.00  0.00     0.009 A 
BRANCH   9  14
ATOM     14  O   UNL     1      76.504  84.750  68.142  1.00  0.00    -0.493 OA
ATOM     15  C   UNL     1      75.289  84.441  68.845  1.00  0.00     0.278 C 
ENDBRANCH   9  14
BRANCH  10  16
ATOM     16  O   UNL     1      78.910  85.753  67.092  1.00  0.00    -0.504 OA
ATOM     17  H   UNL     1      79.641  86.266  66.739  1.00  0.00     0.293 HD
ENDBRANCH  10  16
ENDBRANCH   7   8
ENDBRANCH   4   7
ENDBRANCH   2   3
ENDBRANCH   1   2
BRANCH   1  18
ATOM     18  C   UNL     1      76.743  93.860  64.911  1.00  0.00     0.001 C 
BRANCH  18  19
ATOM     19  C   UNL     1      78.201  93.783  64.393  1.00  0.00     0.004 C 
BRANCH  19  20
ATOM     20  C   UNL     1      79.136  94.737  65.187  1.00  0.00     0.027 C 
BRANCH  20  21
ATOM     21  C   UNL     1      78.596  95.148  66.472  1.00  0.00    -0.031 C 
ATOM     22  C   UNL     1      79.376  95.619  67.462  1.00  0.00    -0.028 C 
BRANCH  22  23
ATOM     23  C   UNL     1      78.864  96.045  68.762  1.00  0.00     0.005 C 
ATOM     24  C   UNL     1      77.593  95.235  69.131  1.00  0.00     0.012 C 
ATOM     25  C   UNL     1      79.974  95.925  69.841  1.00  0.00     0.012 C 
ENDBRANCH  22  23
ENDBRANCH  20  21
ENDBRANCH  19  20
ENDBRANCH  18  19
ENDBRANCH   1  18
TORSDOF 11
ENDMDL
MODEL 8
REMARK VINA RESULT:    -5.553     25.515     29.086
REMARK INTER + INTRA:          -9.730
REMARK INTER:                  -7.844
REMARK INTRA:                  -1.886
REMARK UNBOUND:                -0.769
REMARK SMILES COc1cc(CNC(=O)CCCCC/C=C/C(C)C)ccc1O
REMARK SMILES IDX 11 1 10 2 8 3 7 4 9 6 6 7 5 8 3 9 22 10 4 11 21 12 20 13
REMARK SMILES IDX 2 14 1 15 23 16 12 18 13 19 14 20 15 21 16 22 17 23 18 24
REMARK SMILES IDX 19 25
REMARK H PARENT 7 5 23 17
REMARK Flexibility Score: inf
ROOT
ATOM      1  C   UNL     1      81.399  66.939  70.607  1.00  0.00     0.010 C 
ENDROOT
BRANCH   1   2
ATOM      2  C   UNL     1      80.188  66.944  71.574  1.00  0.00     0.100 C 
BRANCH   2   3
ATOM      3  C   UNL     1      80.558  67.025  72.999  1.00  0.00     0.220 C 
ATOM      4  N   UNL     1      80.238  66.004  73.842  1.00  0.00    -0.352 N 
ATOM      5  H   UNL     1      79.684  65.269  73.422  1.00  0.00     0.163 HD
ATOM      6  O   UNL     1      81.201  68.027  73.392  1.00  0.00    -0.275 OA
BRANCH   4   7
ATOM      7  C   UNL     1      80.618  65.910  75.214  1.00  0.00     0.151 C 
BRANCH   7   8
ATOM      8  C   UNL     1      81.880  65.150  75.406  1.00  0.00    -0.025 A 
ATOM      9  C   UNL     1      84.012  64.813  76.586  1.00  0.00     0.160 A 
ATOM     10  C   UNL     1      84.311  63.728  75.733  1.00  0.00     0.157 A 
ATOM     11  C   UNL     1      82.805  65.520  76.410  1.00  0.00     0.056 A 
ATOM     12  C   UNL     1      83.391  63.340  74.742  1.00  0.00     0.050 A 
ATOM     13  C   UNL     1      82.179  64.039  74.587  1.00  0.00     0.009 A 
BRANCH   9  14
ATOM     14  O   UNL     1      84.860  65.144  77.609  1.00  0.00    -0.493 OA
ATOM     15  C   UNL     1      85.478  66.434  77.467  1.00  0.00     0.278 C 
ENDBRANCH   9  14
BRANCH  10  16
ATOM     16  O   UNL     1      85.474  63.039  75.850  1.00  0.00    -0.504 OA
ATOM     17  H   UNL     1      85.445  62.495  76.641  1.00  0.00     0.293 HD
ENDBRANCH  10  16
ENDBRANCH   7   8
ENDBRANCH   4   7
ENDBRANCH   2   3
ENDBRANCH   1   2
BRANCH   1  18
ATOM     18  C   UNL     1      82.117  65.565  70.616  1.00  0.00     0.001 C 
BRANCH  18  19
ATOM     19  C   UNL     1      83.652  65.664  70.805  1.00  0.00     0.004 C 
BRANCH  19  20
ATOM     20  C   UNL     1      84.015  66.223  72.209  1.00  0.00     0.027 C 
BRANCH  20  21
ATOM     21  C   UNL     1      84.848  67.412  72.167  1.00  0.00    -0.031 C 
ATOM     22  C   UNL     1      84.333  68.645  72.015  1.00  0.00    -0.028 C 
BRANCH  22  23
ATOM     23  C   UNL     1      85.142  69.861  71.974  1.00  0.00     0.005 C 
ATOM     24  C   UNL     1      86.095  69.914  73.198  1.00  0.00     0.012 C 
ATOM     25  C   UNL     1      85.908  69.951  70.626  1.00  0.00     0.012 C 
ENDBRANCH  22  23
ENDBRANCH  20  21
ENDBRANCH  19  20
ENDBRANCH  18  19
ENDBRANCH   1  18
TORSDOF 11
ENDMDL
MODEL 9
REMARK VINA RESULT:    -5.528     11.084     13.645
REMARK INTER + INTRA:          -9.690
REMARK INTER:                  -8.461
REMARK INTRA:                  -1.229
REMARK UNBOUND:                -0.769
REMARK SMILES COc1cc(CNC(=O)CCCCC/C=C/C(C)C)ccc1O
REMARK SMILES IDX 11 1 10 2 8 3 7 4 9 6 6 7 5 8 3 9 22 10 4 11 21 12 20 13
REMARK SMILES IDX 2 14 1 15 23 16 12 18 13 19 14 20 15 21 16 22 17 23 18 24
REMARK SMILES IDX 19 25
REMARK H PARENT 7 5 23 17
REMARK Flexibility Score: inf
ROOT
ATOM      1  C   UNL     1      97.242  80.688  77.965  1.00  0.00     0.010 C 
ENDROOT
BRANCH   1   2
ATOM      2  C   UNL     1      96.694  82.099  77.628  1.00  0.00     0.100 C 
BRANCH   2   3
ATOM      3  C   UNL     1      97.232  82.669  76.379  1.00  0.00     0.220 C 
ATOM      4  N   UNL     1      98.431  83.315  76.390  1.00  0.00    -0.352 N 
ATOM      5  H   UNL     1      98.844  83.421  77.306  1.00  0.00     0.163 HD
ATOM      6  O   UNL     1      96.580  82.506  75.321  1.00  0.00    -0.275 OA
BRANCH   4   7
ATOM      7  C   UNL     1      99.108  83.826  75.242  1.00  0.00     0.151 C 
BRANCH   7   8
ATOM      8  C   UNL     1     100.468  83.251  75.078  1.00  0.00    -0.025 A 
ATOM      9  C   UNL     1     102.520  82.963  73.753  1.00  0.00     0.160 A 
ATOM     10  C   UNL     1     103.041  82.108  74.748  1.00  0.00     0.157 A 
ATOM     11  C   UNL     1     101.236  83.521  73.921  1.00  0.00     0.056 A 
ATOM     12  C   UNL     1     102.294  81.847  75.910  1.00  0.00     0.050 A 
ATOM     13  C   UNL     1     101.021  82.422  76.080  1.00  0.00     0.009 A 
BRANCH   9  14
ATOM     14  O   UNL     1     103.274  83.294  72.659  1.00  0.00    -0.493 OA
ATOM     15  C   UNL     1     103.793  84.634  72.686  1.00  0.00     0.278 C 
ENDBRANCH   9  14
BRANCH  10  16
ATOM     16  O   UNL     1     104.261  81.529  74.611  1.00  0.00    -0.504 OA
ATOM     17  H   UNL     1     104.292  81.041  73.785  1.00  0.00     0.293 HD
ENDBRANCH  10  16
ENDBRANCH   7   8
ENDBRANCH   4   7
ENDBRANCH   2   3
ENDBRANCH   1   2
BRANCH   1  18
ATOM     18  C   UNL     1      97.919  80.669  79.359  1.00  0.00     0.001 C 
BRANCH  18  19
ATOM     19  C   UNL     1      99.293  81.385  79.394  1.00  0.00     0.004 C 
BRANCH  19  20
ATOM     20  C   UNL     1      99.392  82.361  80.600  1.00  0.00     0.027 C 
BRANCH  20  21
ATOM     21  C   UNL     1      98.104  82.825  81.084  1.00  0.00    -0.031 C 
ATOM     22  C   UNL     1      97.855  83.019  82.391  1.00  0.00    -0.028 C 
BRANCH  22  23
ATOM     23  C   UNL     1      96.572  83.490  82.910  1.00  0.00     0.005 C 
ATOM     24  C   UNL     1      95.941  82.417  83.837  1.00  0.00     0.012 C 
ATOM     25  C   UNL     1      96.751  84.856  83.625  1.00  0.00     0.012 C 
ENDBRANCH  22  23
ENDBRANCH  20  21
ENDBRANCH  19  20
ENDBRANCH  18  19
ENDBRANCH   1  18
TORSDOF 11
ENDMDL
MODEL 10
REMARK VINA RESULT:    -5.451     20.063     23.096
REMARK INTER + INTRA:          -9.566
REMARK INTER:                  -8.046
REMARK INTRA:                  -1.520
REMARK UNBOUND:                -0.769
REMARK SMILES COc1cc(CNC(=O)CCCCC/C=C/C(C)C)ccc1O
REMARK SMILES IDX 11 1 10 2 8 3 7 4 9 6 6 7 5 8 3 9 22 10 4 11 21 12 20 13
REMARK SMILES IDX 2 14 1 15 23 16 12 18 13 19 14 20 15 21 16 22 17 23 18 24
REMARK SMILES IDX 19 25
REMARK H PARENT 7 5 23 17
REMARK Flexibility Score: inf
ROOT
ATOM      1  C   UNL     1      73.310  88.889  67.272  1.00  0.00     0.010 C 
ENDROOT
BRANCH   1   2
ATOM      2  C   UNL     1      74.094  89.980  66.498  1.00  0.00     0.100 C 
BRANCH   2   3
ATOM      3  C   UNL     1      75.128  89.446  65.592  1.00  0.00     0.220 C 
ATOM      4  N   UNL     1      76.445  89.592  65.906  1.00  0.00    -0.352 N 
ATOM      5  H   UNL     1      76.622  90.141  66.736  1.00  0.00     0.163 HD
ATOM      6  O   UNL     1      74.760  88.830  64.564  1.00  0.00    -0.275 OA
BRANCH   4   7
ATOM      7  C   UNL     1      77.539  89.044  65.172  1.00  0.00     0.151 C 
BRANCH   7   8
ATOM      8  C   UNL     1      77.760  87.604  65.466  1.00  0.00    -0.025 A 
ATOM      9  C   UNL     1      77.778  85.254  64.740  1.00  0.00     0.160 A 
ATOM     10  C   UNL     1      78.130  84.854  66.048  1.00  0.00     0.157 A 
ATOM     11  C   UNL     1      77.587  86.623  64.462  1.00  0.00     0.056 A 
ATOM     12  C   UNL     1      78.322  85.822  67.050  1.00  0.00     0.050 A 
ATOM     13  C   UNL     1      78.148  87.188  66.759  1.00  0.00     0.009 A 
BRANCH   9  14
ATOM     14  O   UNL     1      77.675  84.328  63.737  1.00  0.00    -0.493 OA
ATOM     15  C   UNL     1      76.334  83.866  63.498  1.00  0.00     0.278 C 
ENDBRANCH   9  14
BRANCH  10  16
ATOM     16  O   UNL     1      78.296  83.545  66.364  1.00  0.00    -0.504 OA
ATOM     17  H   UNL     1      79.149  83.425  66.789  1.00  0.00     0.293 HD
ENDBRANCH  10  16
ENDBRANCH   7   8
ENDBRANCH   4   7
ENDBRANCH   2   3
ENDBRANCH   1   2
BRANCH   1  18
ATOM     18  C   UNL     1      74.215  88.182  68.313  1.00  0.00     0.001 C 
BRANCH  18  19
ATOM     19  C   UNL     1      74.238  86.639  68.174  1.00  0.00     0.004 C 
BRANCH  19  20
ATOM     20  C   UNL     1      73.517  86.176  66.878  1.00  0.00     0.027 C 
BRANCH  20  21
ATOM     21  C   UNL     1      72.331  85.373  67.124  1.00  0.00    -0.031 C 
ATOM     22  C   UNL     1      71.697  85.372  68.310  1.00  0.00    -0.028 C 
BRANCH  22  23
ATOM     23  C   UNL     1      70.501  84.581  68.587  1.00  0.00     0.005 C 
ATOM     24  C   UNL     1      69.507  85.395  69.458  1.00  0.00     0.012 C 
ATOM     25  C   UNL     1      69.859  84.094  67.260  1.00  0.00     0.012 C 
ENDBRANCH  22  23
ENDBRANCH  20  21
ENDBRANCH  19  20
ENDBRANCH  18  19
ENDBRANCH   1  18
TORSDOF 11
ENDMDL
