MODEL 1
REMARK VINA RESULT:    -6.140      0.000      0.000
REMARK INTER + INTRA:         -12.856
REMARK INTER:                 -10.448
REMARK INTRA:                  -2.408
REMARK UNBOUND:                -2.408
REMARK SMILES C=C(C)[C@]12C[C@@H](C)[C@@]34O[C@](Cc5ccccc5)(O[C@@H]1[C@@H]3C=C(COC(=O)Cc1ccc(O)cc1)C[C@]1(O)C(=O)C(C)=C[C@@H]41)O2
REMARK SMILES IDX 23 1 22 2 21 3 20 4 9 5 8 6 10 7 6 8 18 10 44 11 19 12 5 13
REMARK SMILES IDX 7 14 4 15 11 16 12 17 13 18 17 19 14 20 16 21 15 22 2 23
REMARK SMILES IDX 3 24 1 25 35 26 36 27 43 28 38 29 42 30 39 32 40 33 41 34
REMARK SMILES IDX 37 35 24 37 25 38 26 39 27 40 28 41 29 42 34 43 30 44 33 45
REMARK SMILES IDX 31 46 32 47
REMARK H PARENT 37 36 32 48
REMARK Flexibility Score: 90.00
ROOT
ATOM      1  C   UNL     1      64.920  88.595  71.110  1.00  0.00     0.264 C 
ENDROOT
BRANCH   1   2
ATOM      2  C   UNL     1      65.021  87.403  72.033  1.00  0.00    -0.033 C 
ATOM      3  C   UNL     1      64.328  87.405  73.191  1.00  0.00    -0.015 C 
BRANCH   3   4
ATOM      4  C   UNL     1      64.318  86.377  74.311  1.00  0.00     0.078 C 
ATOM      5  O   UNL     1      62.454  84.820  73.844  1.00  0.00    -0.319 OA
ATOM      6  C   UNL     1      63.909  84.898  73.967  1.00  0.00     0.095 CG0
ATOM      7  C   UNL     1      61.713  85.542  74.846  1.00  0.00     0.289 C 
ATOM      8  C   UNL     1      64.383  83.978  75.166  1.00  0.00     0.023 C 
ATOM      9  G   UNL     1      64.439  84.491  72.561  1.00  0.00     0.000 G0
ATOM     10  O   UNL     1      62.064  86.922  74.856  1.00  0.00    -0.320 OA
ATOM     11  O   UNL     1      61.978  85.067  76.164  1.00  0.00    -0.313 OA
ATOM     12  C   UNL     1      63.372  86.845  75.445  1.00  0.00     0.170 C 
ATOM     13  C   UNL     1      64.305  84.730  76.530  1.00  0.00     0.049 C 
ATOM     14  C   UNL     1      63.660  82.625  75.287  1.00  0.00     0.011 C 
ATOM     15  C   UNL     1      63.182  85.768  76.541  1.00  0.00     0.122 C 
BRANCH   7  16
ATOM     16  C   UNL     1      60.235  85.390  74.544  1.00  0.00     0.135 C 
BRANCH  16  17
ATOM     17  C   UNL     1      59.919  85.690  73.100  1.00  0.00    -0.040 A 
ATOM     18  C   UNL     1      59.625  84.650  72.219  1.00  0.00     0.004 A 
ATOM     19  C   UNL     1      59.920  87.009  72.647  1.00  0.00     0.004 A 
ATOM     20  C   UNL     1      59.332  84.928  70.883  1.00  0.00     0.000 A 
ATOM     21  C   UNL     1      59.627  87.288  71.311  1.00  0.00     0.000 A 
ATOM     22  C   UNL     1      59.333  86.247  70.430  1.00  0.00     0.000 A 
ENDBRANCH  16  17
ENDBRANCH   7  16
BRANCH  15  23
ATOM     23  C   UNL     1      62.972  86.371  77.891  1.00  0.00    -0.046 C 
ATOM     24  C   UNL     1      62.988  87.870  77.956  1.00  0.00     0.042 C 
ATOM     25  C   UNL     1      62.779  85.617  78.983  1.00  0.00     0.010 C 
ENDBRANCH  15  23
ENDBRANCH   3   4
BRANCH   2  26
ATOM     26  C   UNL     1      65.928  86.310  71.499  1.00  0.00     0.078 C 
BRANCH  26  27
ATOM     27  C   UNL     1      65.891  84.961  72.213  1.00  0.00     0.140 C 
ATOM     28  C   UNL     1      64.453  84.520  72.553  1.00  0.00     0.086 CG0
ATOM     29  C   UNL     1      66.380  83.827  71.336  1.00  0.00     0.190 C 
ATOM     30  C   UNL     1      64.418  83.079  72.125  1.00  0.00    -0.010 C 
ATOM     31  G   UNL     1      63.933  84.909  73.968  1.00  0.00     0.000 G0
ATOM     32  O   UNL     1      67.412  83.833  70.681  1.00  0.00    -0.291 OA
ATOM     33  C   UNL     1      65.473  82.667  71.416  1.00  0.00    -0.008 C 
ATOM     34  C   UNL     1      65.736  81.363  70.772  1.00  0.00     0.048 C 
BRANCH  27  35
ATOM     35  O   UNL     1      66.775  84.936  73.321  1.00  0.00    -0.381 OA
ATOM     36  H   UNL     1      67.685  84.859  72.986  1.00  0.00     0.212 HD
ENDBRANCH  27  35
ENDBRANCH  26  27
ENDBRANCH   2  26
ENDBRANCH   1   2
BRANCH   1  37
ATOM     37  O   UNL     1      65.075  88.165  69.774  1.00  0.00    -0.461 OA
BRANCH  37  38
ATOM     38  C   UNL     1      63.936  88.155  69.004  1.00  0.00     0.310 C 
ATOM     39  O   UNL     1      62.911  88.773  69.256  1.00  0.00    -0.252 OA
BRANCH  38  40
ATOM     40  C   UNL     1      64.148  87.265  67.803  1.00  0.00     0.158 C 
BRANCH  40  41
ATOM     41  C   UNL     1      63.829  85.818  68.079  1.00  0.00    -0.037 A 
ATOM     42  C   UNL     1      64.742  84.823  67.728  1.00  0.00     0.008 A 
ATOM     43  C   UNL     1      62.622  85.474  68.686  1.00  0.00     0.008 A 
ATOM     44  C   UNL     1      64.446  83.484  67.983  1.00  0.00     0.046 A 
ATOM     45  C   UNL     1      62.326  84.134  68.942  1.00  0.00     0.046 A 
ATOM     46  C   UNL     1      63.238  83.140  68.590  1.00  0.00     0.115 A 
BRANCH  46  47
ATOM     47  O   UNL     1      62.950  81.833  68.839  1.00  0.00    -0.508 OA
ATOM     48  H   UNL     1      63.542  81.273  68.308  1.00  0.00     0.293 HD
ENDBRANCH  46  47
ENDBRANCH  40  41
ENDBRANCH  38  40
ENDBRANCH  37  38
ENDBRANCH   1  37
TORSDOF 10
ENDMDL
MODEL 2
REMARK VINA RESULT:    -6.130      2.144      5.458
REMARK INTER + INTRA:         -12.838
REMARK INTER:                 -10.518
REMARK INTRA:                  -2.320
REMARK UNBOUND:                -2.408
REMARK SMILES C=C(C)[C@]12C[C@@H](C)[C@@]34O[C@](Cc5ccccc5)(O[C@@H]1[C@@H]3C=C(COC(=O)Cc1ccc(O)cc1)C[C@]1(O)C(=O)C(C)=C[C@@H]41)O2
REMARK SMILES IDX 23 1 22 2 21 3 20 4 9 5 8 6 10 7 6 8 18 10 44 11 19 12 5 13
REMARK SMILES IDX 7 14 4 15 11 16 12 17 13 18 17 19 14 20 16 21 15 22 2 23
REMARK SMILES IDX 3 24 1 25 35 26 36 27 43 28 38 29 42 30 39 32 40 33 41 34
REMARK SMILES IDX 37 35 24 37 25 38 26 39 27 40 28 41 29 42 34 43 30 44 33 45
REMARK SMILES IDX 31 46 32 47
REMARK H PARENT 37 36 32 48
REMARK Flexibility Score: 90.00
ROOT
ATOM      1  C   UNL     1      65.845  86.588  75.228  1.00  0.00     0.264 C 
ENDROOT
BRANCH   1   2
ATOM      2  C   UNL     1      65.186  85.950  74.027  1.00  0.00    -0.033 C 
ATOM      3  C   UNL     1      63.878  86.183  73.792  1.00  0.00    -0.015 C 
BRANCH   3   4
ATOM      4  C   UNL     1      62.974  85.609  72.712  1.00  0.00     0.078 C 
ATOM      5  O   UNL     1      63.012  87.201  70.820  1.00  0.00    -0.319 OA
ATOM      6  C   UNL     1      63.369  85.837  71.207  1.00  0.00     0.095 CG0
ATOM      7  C   UNL     1      61.729  87.658  71.290  1.00  0.00     0.289 C 
ATOM      8  C   UNL     1      62.538  84.810  70.332  1.00  0.00     0.023 C 
ATOM      9  G   UNL     1      64.913  85.774  71.024  1.00  0.00     0.000 G0
ATOM     10  O   UNL     1      61.642  87.583  72.710  1.00  0.00    -0.320 OA
ATOM     11  O   UNL     1      60.655  86.861  70.795  1.00  0.00    -0.313 OA
ATOM     12  C   UNL     1      61.537  86.161  72.881  1.00  0.00     0.170 C 
ATOM     13  C   UNL     1      61.134  84.536  70.952  1.00  0.00     0.049 C 
ATOM     14  C   UNL     1      62.375  85.184  68.849  1.00  0.00     0.011 C 
ATOM     15  C   UNL     1      60.604  85.751  71.715  1.00  0.00     0.122 C 
BRANCH   7  16
ATOM     16  C   UNL     1      61.542  89.093  70.838  1.00  0.00     0.135 C 
BRANCH  16  17
ATOM     17  C   UNL     1      60.099  89.525  70.909  1.00  0.00    -0.040 A 
ATOM     18  C   UNL     1      59.620  90.172  72.047  1.00  0.00     0.004 A 
ATOM     19  C   UNL     1      59.245  89.278  69.835  1.00  0.00     0.004 A 
ATOM     20  C   UNL     1      58.284  90.573  72.112  1.00  0.00     0.000 A 
ATOM     21  C   UNL     1      57.910  89.678  69.900  1.00  0.00     0.000 A 
ATOM     22  C   UNL     1      57.430  90.325  71.038  1.00  0.00     0.000 A 
ENDBRANCH  16  17
ENDBRANCH   7  16
BRANCH  15  23
ATOM     23  C   UNL     1      59.190  85.576  72.163  1.00  0.00    -0.046 C 
ATOM     24  C   UNL     1      58.437  84.434  71.547  1.00  0.00     0.042 C 
ATOM     25  C   UNL     1      58.624  86.394  73.063  1.00  0.00     0.010 C 
ENDBRANCH  15  23
ENDBRANCH   3   4
BRANCH   2  26
ATOM     26  C   UNL     1      66.137  85.100  73.207  1.00  0.00     0.078 C 
BRANCH  26  27
ATOM     27  C   UNL     1      65.651  84.632  71.837  1.00  0.00     0.140 C 
ATOM     28  C   UNL     1      64.934  85.754  71.057  1.00  0.00     0.086 CG0
ATOM     29  C   UNL     1      66.792  84.269  70.909  1.00  0.00     0.190 C 
ATOM     30  C   UNL     1      65.531  85.660  69.680  1.00  0.00    -0.010 C 
ATOM     31  G   UNL     1      63.387  85.819  71.216  1.00  0.00     0.000 G0
ATOM     32  O   UNL     1      67.735  83.547  71.196  1.00  0.00    -0.291 OA
ATOM     33  C   UNL     1      66.593  84.856  69.571  1.00  0.00    -0.008 C 
ATOM     34  C   UNL     1      67.468  84.588  68.410  1.00  0.00     0.048 C 
BRANCH  27  35
ATOM     35  O   UNL     1      64.900  83.433  71.935  1.00  0.00    -0.381 OA
ATOM     36  H   UNL     1      64.398  83.318  71.110  1.00  0.00     0.212 HD
ENDBRANCH  27  35
ENDBRANCH  26  27
ENDBRANCH   2  26
ENDBRANCH   1   2
BRANCH   1  37
ATOM     37  O   UNL     1      66.087  85.601  76.207  1.00  0.00    -0.461 OA
BRANCH  37  38
ATOM     38  C   UNL     1      65.226  85.585  77.280  1.00  0.00     0.310 C 
ATOM     39  O   UNL     1      64.869  86.572  77.908  1.00  0.00    -0.252 OA
BRANCH  38  40
ATOM     40  C   UNL     1      64.795  84.166  77.560  1.00  0.00     0.158 C 
BRANCH  40  41
ATOM     41  C   UNL     1      63.887  83.607  76.495  1.00  0.00    -0.037 A 
ATOM     42  C   UNL     1      62.563  84.036  76.412  1.00  0.00     0.008 A 
ATOM     43  C   UNL     1      64.371  82.660  75.593  1.00  0.00     0.008 A 
ATOM     44  C   UNL     1      61.722  83.518  75.427  1.00  0.00     0.046 A 
ATOM     45  C   UNL     1      63.530  82.141  74.607  1.00  0.00     0.046 A 
ATOM     46  C   UNL     1      62.206  82.570  74.524  1.00  0.00     0.115 A 
BRANCH  46  47
ATOM     47  O   UNL     1      61.386  82.064  73.564  1.00  0.00    -0.508 OA
ATOM     48  H   UNL     1      61.616  81.131  73.411  1.00  0.00     0.293 HD
ENDBRANCH  46  47
ENDBRANCH  40  41
ENDBRANCH  38  40
ENDBRANCH  37  38
ENDBRANCH   1  37
TORSDOF 10
ENDMDL
MODEL 3
REMARK VINA RESULT:    -6.072      8.165     11.828
REMARK INTER + INTRA:         -12.739
REMARK INTER:                 -12.156
REMARK INTRA:                  -0.583
REMARK UNBOUND:                -2.408
REMARK SMILES C=C(C)[C@]12C[C@@H](C)[C@@]34O[C@](Cc5ccccc5)(O[C@@H]1[C@@H]3C=C(COC(=O)Cc1ccc(O)cc1)C[C@]1(O)C(=O)C(C)=C[C@@H]41)O2
REMARK SMILES IDX 23 1 22 2 21 3 20 4 9 5 8 6 10 7 6 8 18 10 44 11 19 12 5 13
REMARK SMILES IDX 7 14 4 15 11 16 12 17 13 18 17 19 14 20 16 21 15 22 2 23
REMARK SMILES IDX 3 24 1 25 35 26 36 27 43 28 38 29 42 30 39 32 40 33 41 34
REMARK SMILES IDX 37 35 24 37 25 38 26 39 27 40 28 41 29 42 34 43 30 44 33 45
REMARK SMILES IDX 31 46 32 47
REMARK H PARENT 37 36 32 48
REMARK Flexibility Score: 90.00
ROOT
ATOM      1  C   UNL     1      70.100  82.685  67.689  1.00  0.00     0.264 C 
ENDROOT
BRANCH   1   2
ATOM      2  C   UNL     1      71.280  83.335  67.005  1.00  0.00    -0.033 C 
ATOM      3  C   UNL     1      71.581  84.619  67.289  1.00  0.00    -0.015 C 
BRANCH   3   4
ATOM      4  C   UNL     1      72.654  85.514  66.689  1.00  0.00     0.078 C 
ATOM      5  O   UNL     1      74.648  85.319  68.139  1.00  0.00    -0.319 OA
ATOM      6  C   UNL     1      74.154  85.053  66.789  1.00  0.00     0.095 CG0
ATOM      7  C   UNL     1      74.262  86.590  68.696  1.00  0.00     0.289 C 
ATOM      8  C   UNL     1      74.989  85.909  65.749  1.00  0.00     0.023 C 
ATOM      9  G   UNL     1      74.271  83.509  66.630  1.00  0.00     0.000 G0
ATOM     10  O   UNL     1      72.845  86.732  68.727  1.00  0.00    -0.320 OA
ATOM     11  O   UNL     1      74.743  87.688  67.925  1.00  0.00    -0.313 OA
ATOM     12  C   UNL     1      72.581  86.923  67.328  1.00  0.00     0.170 C 
ATOM     13  C   UNL     1      74.407  87.348  65.594  1.00  0.00     0.049 C 
ATOM     14  C   UNL     1      76.500  85.997  66.025  1.00  0.00     0.011 C 
ATOM     15  C   UNL     1      73.752  87.835  66.887  1.00  0.00     0.122 C 
BRANCH   7  16
ATOM     16  C   UNL     1      74.817  86.679  70.104  1.00  0.00     0.135 C 
BRANCH  16  17
ATOM     17  C   UNL     1      74.682  88.067  70.679  1.00  0.00    -0.040 A 
ATOM     18  C   UNL     1      73.567  88.398  71.447  1.00  0.00     0.004 A 
ATOM     19  C   UNL     1      75.674  89.018  70.442  1.00  0.00     0.004 A 
ATOM     20  C   UNL     1      73.442  89.682  71.979  1.00  0.00     0.000 A 
ATOM     21  C   UNL     1      75.549  90.302  70.974  1.00  0.00     0.000 A 
ATOM     22  C   UNL     1      74.434  90.633  71.742  1.00  0.00     0.000 A 
ENDBRANCH  16  17
ENDBRANCH   7  16
BRANCH  15  23
ATOM     23  C   UNL     1      73.350  89.272  66.821  1.00  0.00    -0.046 C 
ATOM     24  C   UNL     1      74.454  90.276  66.974  1.00  0.00     0.042 C 
ATOM     25  C   UNL     1      72.075  89.645  66.635  1.00  0.00     0.010 C 
ENDBRANCH  15  23
ENDBRANCH   3   4
BRANCH   2  26
ATOM     26  C   UNL     1      72.003  82.403  66.050  1.00  0.00     0.078 C 
BRANCH  26  27
ATOM     27  C   UNL     1      73.355  82.867  65.512  1.00  0.00     0.140 C 
ATOM     28  C   UNL     1      74.240  83.486  66.614  1.00  0.00     0.086 CG0
ATOM     29  C   UNL     1      74.207  81.718  65.018  1.00  0.00     0.190 C 
ATOM     30  C   UNL     1      75.582  82.847  66.385  1.00  0.00    -0.010 C 
ATOM     31  G   UNL     1      74.149  85.031  66.779  1.00  0.00     0.000 G0
ATOM     32  O   UNL     1      73.833  80.831  64.266  1.00  0.00    -0.291 OA
ATOM     33  C   UNL     1      75.591  81.832  65.516  1.00  0.00    -0.008 C 
ATOM     34  C   UNL     1      76.693  80.934  65.114  1.00  0.00     0.048 C 
BRANCH  27  35
ATOM     35  O   UNL     1      73.203  83.692  64.369  1.00  0.00    -0.381 OA
ATOM     36  H   UNL     1      72.277  83.640  64.075  1.00  0.00     0.212 HD
ENDBRANCH  27  35
ENDBRANCH  26  27
ENDBRANCH   2  26
ENDBRANCH   1   2
BRANCH   1  37
ATOM     37  O   UNL     1      69.333  83.676  68.339  1.00  0.00    -0.461 OA
BRANCH  37  38
ATOM     38  C   UNL     1      69.413  83.703  69.712  1.00  0.00     0.310 C 
ATOM     39  O   UNL     1      70.303  83.187  70.374  1.00  0.00    -0.252 OA
BRANCH  38  40
ATOM     40  C   UNL     1      68.235  84.465  70.271  1.00  0.00     0.158 C 
BRANCH  40  41
ATOM     41  C   UNL     1      66.930  83.731  70.109  1.00  0.00    -0.037 A 
ATOM     42  C   UNL     1      65.947  84.234  69.256  1.00  0.00     0.008 A 
ATOM     43  C   UNL     1      66.703  82.548  70.811  1.00  0.00     0.008 A 
ATOM     44  C   UNL     1      64.738  83.555  69.107  1.00  0.00     0.046 A 
ATOM     45  C   UNL     1      65.494  81.867  70.662  1.00  0.00     0.046 A 
ATOM     46  C   UNL     1      64.511  82.371  69.810  1.00  0.00     0.115 A 
BRANCH  46  47
ATOM     47  O   UNL     1      63.332  81.709  69.665  1.00  0.00    -0.508 OA
ATOM     48  H   UNL     1      62.882  82.036  68.866  1.00  0.00     0.293 HD
ENDBRANCH  46  47
ENDBRANCH  40  41
ENDBRANCH  38  40
ENDBRANCH  37  38
ENDBRANCH   1  37
TORSDOF 10
ENDMDL
MODEL 4
REMARK VINA RESULT:    -5.921     32.058     34.942
REMARK INTER + INTRA:         -12.483
REMARK INTER:                 -11.094
REMARK INTRA:                  -1.389
REMARK UNBOUND:                -2.408
REMARK SMILES C=C(C)[C@]12C[C@@H](C)[C@@]34O[C@](Cc5ccccc5)(O[C@@H]1[C@@H]3C=C(COC(=O)Cc1ccc(O)cc1)C[C@]1(O)C(=O)C(C)=C[C@@H]41)O2
REMARK SMILES IDX 23 1 22 2 21 3 20 4 9 5 8 6 10 7 6 8 18 10 44 11 19 12 5 13
REMARK SMILES IDX 7 14 4 15 11 16 12 17 13 18 17 19 14 20 16 21 15 22 2 23
REMARK SMILES IDX 3 24 1 25 35 26 36 27 43 28 38 29 42 30 39 32 40 33 41 34
REMARK SMILES IDX 37 35 24 37 25 38 26 39 27 40 28 41 29 42 34 43 30 44 33 45
REMARK SMILES IDX 31 46 32 47
REMARK H PARENT 37 36 32 48
REMARK Flexibility Score: 90.00
ROOT
ATOM      1  C   UNL     1      96.947  80.023  87.028  1.00  0.00     0.264 C 
ENDROOT
BRANCH   1   2
ATOM      2  C   UNL     1      95.828  81.027  87.182  1.00  0.00    -0.033 C 
ATOM      3  C   UNL     1      94.556  80.636  86.958  1.00  0.00    -0.015 C 
BRANCH   3   4
ATOM      4  C   UNL     1      93.277  81.458  86.971  1.00  0.00     0.078 C 
ATOM      5  O   UNL     1      92.356  81.321  89.262  1.00  0.00    -0.319 OA
ATOM      6  C   UNL     1      92.910  82.250  88.279  1.00  0.00     0.095 CG0
ATOM      7  C   UNL     1      91.425  80.354  88.738  1.00  0.00     0.289 C 
ATOM      8  C   UNL     1      91.810  83.324  87.896  1.00  0.00     0.023 C 
ATOM      9  G   UNL     1      94.190  82.817  88.960  1.00  0.00     0.000 G0
ATOM     10  O   UNL     1      92.017  79.574  87.703  1.00  0.00    -0.320 OA
ATOM     11  O   UNL     1      90.279  80.967  88.151  1.00  0.00    -0.313 OA
ATOM     12  C   UNL     1      92.065  80.549  86.650  1.00  0.00     0.170 C 
ATOM     13  C   UNL     1      90.874  82.805  86.763  1.00  0.00     0.049 C 
ATOM     14  C   UNL     1      90.956  83.842  89.066  1.00  0.00     0.011 C 
ATOM     15  C   UNL     1      90.713  81.285  86.813  1.00  0.00     0.122 C 
BRANCH   7  16
ATOM     16  C   UNL     1      90.988  79.451  89.875  1.00  0.00     0.135 C 
BRANCH  16  17
ATOM     17  C   UNL     1      91.098  80.135  91.215  1.00  0.00    -0.040 A 
ATOM     18  C   UNL     1      90.435  81.341  91.440  1.00  0.00     0.004 A 
ATOM     19  C   UNL     1      91.864  79.559  92.229  1.00  0.00     0.004 A 
ATOM     20  C   UNL     1      90.537  81.972  92.680  1.00  0.00     0.000 A 
ATOM     21  C   UNL     1      91.966  80.191  93.469  1.00  0.00     0.000 A 
ATOM     22  C   UNL     1      91.303  81.397  93.694  1.00  0.00     0.000 A 
ENDBRANCH  16  17
ENDBRANCH   7  16
BRANCH  15  23
ATOM     23  C   UNL     1      89.682  80.785  85.854  1.00  0.00    -0.046 C 
ATOM     24  C   UNL     1      90.123  79.705  84.911  1.00  0.00     0.042 C 
ATOM     25  C   UNL     1      88.433  81.275  85.836  1.00  0.00     0.010 C 
ENDBRANCH  15  23
ENDBRANCH   3   4
BRANCH   2  26
ATOM     26  C   UNL     1      96.314  82.403  87.597  1.00  0.00     0.078 C 
BRANCH  26  27
ATOM     27  C   UNL     1      95.255  83.424  88.006  1.00  0.00     0.140 C 
ATOM     28  C   UNL     1      94.189  82.816  88.942  1.00  0.00     0.086 CG0
ATOM     29  C   UNL     1      95.825  84.545  88.848  1.00  0.00     0.190 C 
ATOM     30  C   UNL     1      94.053  83.844  90.031  1.00  0.00    -0.010 C 
ATOM     31  G   UNL     1      92.910  82.258  88.253  1.00  0.00     0.000 G0
ATOM     32  O   UNL     1      96.828  85.191  88.583  1.00  0.00    -0.291 OA
ATOM     33  C   UNL     1      94.973  84.812  90.023  1.00  0.00    -0.008 C 
ATOM     34  C   UNL     1      95.193  85.923  90.971  1.00  0.00     0.048 C 
BRANCH  27  35
ATOM     35  O   UNL     1      94.713  84.090  86.878  1.00  0.00    -0.381 OA
ATOM     36  H   UNL     1      93.779  83.834  86.791  1.00  0.00     0.212 HD
ENDBRANCH  27  35
ENDBRANCH  26  27
ENDBRANCH   2  26
ENDBRANCH   1   2
BRANCH   1  37
ATOM     37  O   UNL     1      97.249  79.868  85.658  1.00  0.00    -0.461 OA
BRANCH  37  38
ATOM     38  C   UNL     1      98.583  79.902  85.322  1.00  0.00     0.310 C 
ATOM     39  O   UNL     1      99.459  79.239  85.859  1.00  0.00    -0.252 OA
BRANCH  38  40
ATOM     40  C   UNL     1      98.793  80.882  84.192  1.00  0.00     0.158 C 
BRANCH  40  41
ATOM     41  C   UNL     1      98.419  82.294  84.561  1.00  0.00    -0.037 A 
ATOM     42  C   UNL     1      97.438  82.968  83.835  1.00  0.00     0.008 A 
ATOM     43  C   UNL     1      99.054  82.927  85.629  1.00  0.00     0.008 A 
ATOM     44  C   UNL     1      97.093  84.276  84.176  1.00  0.00     0.046 A 
ATOM     45  C   UNL     1      98.709  84.235  85.971  1.00  0.00     0.046 A 
ATOM     46  C   UNL     1      97.729  84.909  85.244  1.00  0.00     0.115 A 
BRANCH  46  47
ATOM     47  O   UNL     1      97.392  86.185  85.577  1.00  0.00    -0.508 OA
ATOM     48  H   UNL     1      98.200  86.676  85.807  1.00  0.00     0.293 HD
ENDBRANCH  46  47
ENDBRANCH  40  41
ENDBRANCH  38  40
ENDBRANCH  37  38
ENDBRANCH   1  37
TORSDOF 10
ENDMDL
MODEL 5
REMARK VINA RESULT:    -5.920      1.979      3.585
REMARK INTER + INTRA:         -12.481
REMARK INTER:                  -9.947
REMARK INTRA:                  -2.534
REMARK UNBOUND:                -2.408
REMARK SMILES C=C(C)[C@]12C[C@@H](C)[C@@]34O[C@](Cc5ccccc5)(O[C@@H]1[C@@H]3C=C(COC(=O)Cc1ccc(O)cc1)C[C@]1(O)C(=O)C(C)=C[C@@H]41)O2
REMARK SMILES IDX 23 1 22 2 21 3 20 4 9 5 8 6 10 7 6 8 18 10 44 11 19 12 5 13
REMARK SMILES IDX 7 14 4 15 11 16 12 17 13 18 17 19 14 20 16 21 15 22 2 23
REMARK SMILES IDX 3 24 1 25 35 26 36 27 43 28 38 29 42 30 39 32 40 33 41 34
REMARK SMILES IDX 37 35 24 37 25 38 26 39 27 40 28 41 29 42 34 43 30 44 33 45
REMARK SMILES IDX 31 46 32 47
REMARK H PARENT 37 36 32 48
REMARK Flexibility Score: 90.00
ROOT
ATOM      1  C   UNL     1      61.396  87.694  71.696  1.00  0.00     0.264 C 
ENDROOT
BRANCH   1   2
ATOM      2  C   UNL     1      62.641  87.716  72.553  1.00  0.00    -0.033 C 
ATOM      3  C   UNL     1      62.522  87.586  73.891  1.00  0.00    -0.015 C 
BRANCH   3   4
ATOM      4  C   UNL     1      63.596  87.651  74.966  1.00  0.00     0.078 C 
ATOM      5  O   UNL     1      64.386  85.337  75.336  1.00  0.00    -0.319 OA
ATOM      6  C   UNL     1      64.811  86.657  74.871  1.00  0.00     0.095 CG0
ATOM      7  C   UNL     1      63.564  85.337  76.519  1.00  0.00     0.289 C 
ATOM      8  C   UNL     1      65.953  87.204  75.823  1.00  0.00     0.023 C 
ATOM      9  G   UNL     1      65.227  86.430  73.389  1.00  0.00     0.000 G0
ATOM     10  O   UNL     1      62.388  86.120  76.333  1.00  0.00    -0.320 OA
ATOM     11  O   UNL     1      64.231  85.906  77.643  1.00  0.00    -0.313 OA
ATOM     12  C   UNL     1      62.957  87.438  76.360  1.00  0.00     0.170 C 
ATOM     13  C   UNL     1      65.361  87.921  77.074  1.00  0.00     0.049 C 
ATOM     14  C   UNL     1      66.992  86.163  76.275  1.00  0.00     0.011 C 
ATOM     15  C   UNL     1      64.015  87.324  77.485  1.00  0.00     0.122 C 
BRANCH   7  16
ATOM     16  C   UNL     1      63.182  83.904  76.832  1.00  0.00     0.135 C 
BRANCH  16  17
ATOM     17  C   UNL     1      62.937  83.098  75.581  1.00  0.00    -0.040 A 
ATOM     18  C   UNL     1      63.902  82.199  75.129  1.00  0.00     0.004 A 
ATOM     19  C   UNL     1      61.743  83.252  74.877  1.00  0.00     0.004 A 
ATOM     20  C   UNL     1      63.674  81.453  73.971  1.00  0.00     0.000 A 
ATOM     21  C   UNL     1      61.515  82.506  73.720  1.00  0.00     0.000 A 
ATOM     22  C   UNL     1      62.480  81.607  73.268  1.00  0.00     0.000 A 
ENDBRANCH  16  17
ENDBRANCH   7  16
BRANCH  15  23
ATOM     23  C   UNL     1      63.516  87.871  78.783  1.00  0.00    -0.046 C 
ATOM     24  C   UNL     1      63.881  89.294  79.085  1.00  0.00     0.042 C 
ATOM     25  C   UNL     1      62.784  87.132  79.630  1.00  0.00     0.010 C 
ENDBRANCH  15  23
ENDBRANCH   3   4
BRANCH   2  26
ATOM     26  C   UNL     1      63.916  87.884  71.748  1.00  0.00     0.078 C 
BRANCH  26  27
ATOM     27  C   UNL     1      65.238  87.692  72.487  1.00  0.00     0.140 C 
ATOM     28  C   UNL     1      65.226  86.443  73.392  1.00  0.00     0.086 CG0
ATOM     29  C   UNL     1      66.391  87.403  71.549  1.00  0.00     0.190 C 
ATOM     30  C   UNL     1      66.540  85.778  73.088  1.00  0.00    -0.010 C 
ATOM     31  G   UNL     1      64.812  86.673  74.874  1.00  0.00     0.000 G0
ATOM     32  O   UNL     1      66.659  88.038  70.540  1.00  0.00    -0.291 OA
ATOM     33  C   UNL     1      67.205  86.276  72.041  1.00  0.00    -0.008 C 
ATOM     34  C   UNL     1      68.465  85.828  71.414  1.00  0.00     0.048 C 
BRANCH  27  35
ATOM     35  O   UNL     1      65.635  88.878  73.155  1.00  0.00    -0.381 OA
ATOM     36  H   UNL     1      66.178  88.631  73.923  1.00  0.00     0.212 HD
ENDBRANCH  27  35
ENDBRANCH  26  27
ENDBRANCH   2  26
ENDBRANCH   1   2
BRANCH   1  37
ATOM     37  O   UNL     1      61.646  86.936  70.532  1.00  0.00    -0.461 OA
BRANCH  37  38
ATOM     38  C   UNL     1      61.204  85.633  70.549  1.00  0.00     0.310 C 
ATOM     39  O   UNL     1      60.453  85.156  71.389  1.00  0.00    -0.252 OA
BRANCH  38  40
ATOM     40  C   UNL     1      61.789  84.887  69.374  1.00  0.00     0.158 C 
BRANCH  40  41
ATOM     41  C   UNL     1      62.873  83.919  69.772  1.00  0.00    -0.037 A 
ATOM     42  C   UNL     1      63.795  84.272  70.758  1.00  0.00     0.008 A 
ATOM     43  C   UNL     1      62.956  82.672  69.155  1.00  0.00     0.008 A 
ATOM     44  C   UNL     1      64.799  83.376  71.126  1.00  0.00     0.046 A 
ATOM     45  C   UNL     1      63.960  81.775  69.523  1.00  0.00     0.046 A 
ATOM     46  C   UNL     1      64.881  82.128  70.508  1.00  0.00     0.115 A 
BRANCH  46  47
ATOM     47  O   UNL     1      65.861  81.255  70.868  1.00  0.00    -0.508 OA
ATOM     48  H   UNL     1      65.554  80.347  70.696  1.00  0.00     0.293 HD
ENDBRANCH  46  47
ENDBRANCH  40  41
ENDBRANCH  38  40
ENDBRANCH  37  38
ENDBRANCH   1  37
TORSDOF 10
ENDMDL
MODEL 6
REMARK VINA RESULT:    -5.788      7.591     11.477
REMARK INTER + INTRA:         -12.257
REMARK INTER:                 -12.045
REMARK INTRA:                  -0.212
REMARK UNBOUND:                -2.408
REMARK SMILES C=C(C)[C@]12C[C@@H](C)[C@@]34O[C@](Cc5ccccc5)(O[C@@H]1[C@@H]3C=C(COC(=O)Cc1ccc(O)cc1)C[C@]1(O)C(=O)C(C)=C[C@@H]41)O2
REMARK SMILES IDX 23 1 22 2 21 3 20 4 9 5 8 6 10 7 6 8 18 10 44 11 19 12 5 13
REMARK SMILES IDX 7 14 4 15 11 16 12 17 13 18 17 19 14 20 16 21 15 22 2 23
REMARK SMILES IDX 3 24 1 25 35 26 36 27 43 28 38 29 42 30 39 32 40 33 41 34
REMARK SMILES IDX 37 35 24 37 25 38 26 39 27 40 28 41 29 42 34 43 30 44 33 45
REMARK SMILES IDX 31 46 32 47
REMARK H PARENT 37 36 32 48
REMARK Flexibility Score: 90.00
ROOT
ATOM      1  C   UNL     1      68.953  83.490  68.654  1.00  0.00     0.264 C 
ENDROOT
BRANCH   1   2
ATOM      2  C   UNL     1      70.065  83.987  67.760  1.00  0.00    -0.033 C 
ATOM      3  C   UNL     1      70.439  85.281  67.830  1.00  0.00    -0.015 C 
BRANCH   3   4
ATOM      4  C   UNL     1      71.463  86.037  66.997  1.00  0.00     0.078 C 
ATOM      5  O   UNL     1      73.616  85.900  68.206  1.00  0.00    -0.319 OA
ATOM      6  C   UNL     1      72.943  85.506  66.970  1.00  0.00     0.095 CG0
ATOM      7  C   UNL     1      73.358  87.248  68.644  1.00  0.00     0.289 C 
ATOM      8  C   UNL     1      73.673  86.184  65.738  1.00  0.00     0.023 C 
ATOM      9  G   UNL     1      72.974  83.950  66.991  1.00  0.00     0.000 G0
ATOM     10  O   UNL     1      71.964  87.474  68.830  1.00  0.00    -0.320 OA
ATOM     11  O   UNL     1      73.782  88.218  67.690  1.00  0.00    -0.313 OA
ATOM     12  C   UNL     1      71.531  87.513  67.460  1.00  0.00     0.170 C 
ATOM     13  C   UNL     1      73.138  87.625  65.478  1.00  0.00     0.049 C 
ATOM     14  C   UNL     1      75.209  86.217  65.815  1.00  0.00     0.011 C 
ATOM     15  C   UNL     1      72.674  88.298  66.771  1.00  0.00     0.122 C 
BRANCH   7  16
ATOM     16  C   UNL     1      74.093  87.471  69.952  1.00  0.00     0.135 C 
BRANCH  16  17
ATOM     17  C   UNL     1      75.381  86.689  70.018  1.00  0.00    -0.040 A 
ATOM     18  C   UNL     1      75.374  85.371  70.473  1.00  0.00     0.004 A 
ATOM     19  C   UNL     1      76.578  87.285  69.624  1.00  0.00     0.004 A 
ATOM     20  C   UNL     1      76.566  84.647  70.534  1.00  0.00     0.000 A 
ATOM     21  C   UNL     1      77.770  86.561  69.685  1.00  0.00     0.000 A 
ATOM     22  C   UNL     1      77.763  85.244  70.140  1.00  0.00     0.000 A 
ENDBRANCH  16  17
ENDBRANCH   7  16
BRANCH  15  23
ATOM     23  C   UNL     1      72.327  89.738  66.575  1.00  0.00    -0.046 C 
ATOM     24  C   UNL     1      71.628  90.083  65.294  1.00  0.00     0.042 C 
ATOM     25  C   UNL     1      72.624  90.670  67.493  1.00  0.00     0.010 C 
ENDBRANCH  15  23
ENDBRANCH   3   4
BRANCH   2  26
ATOM     26  C   UNL     1      70.641  82.903  66.867  1.00  0.00     0.078 C 
BRANCH  26  27
ATOM     27  C   UNL     1      71.919  83.237  66.100  1.00  0.00     0.140 C 
ATOM     28  C   UNL     1      72.959  83.956  66.984  1.00  0.00     0.086 CG0
ATOM     29  C   UNL     1      72.670  81.998  65.658  1.00  0.00     0.190 C 
ATOM     30  C   UNL     1      74.242  83.238  66.671  1.00  0.00    -0.010 C 
ATOM     31  G   UNL     1      72.928  85.512  66.951  1.00  0.00     0.000 G0
ATOM     32  O   UNL     1      72.176  81.037  65.087  1.00  0.00    -0.291 OA
ATOM     33  C   UNL     1      74.110  82.119  65.952  1.00  0.00    -0.008 C 
ATOM     34  C   UNL     1      75.127  81.131  65.535  1.00  0.00     0.048 C 
BRANCH  27  35
ATOM     35  O   UNL     1      71.634  83.911  64.886  1.00  0.00    -0.381 OA
ATOM     36  H   UNL     1      72.303  83.655  64.229  1.00  0.00     0.212 HD
ENDBRANCH  27  35
ENDBRANCH  26  27
ENDBRANCH   2  26
ENDBRANCH   1   2
BRANCH   1  37
ATOM     37  O   UNL     1      67.717  83.973  68.173  1.00  0.00    -0.461 OA
BRANCH  37  38
ATOM     38  C   UNL     1      66.672  83.968  69.069  1.00  0.00     0.310 C 
ATOM     39  O   UNL     1      65.624  84.583  68.929  1.00  0.00    -0.252 OA
BRANCH  38  40
ATOM     40  C   UNL     1      67.022  83.088  70.245  1.00  0.00     0.158 C 
BRANCH  40  41
ATOM     41  C   UNL     1      65.852  82.841  71.162  1.00  0.00    -0.037 A 
ATOM     42  C   UNL     1      65.456  83.825  72.068  1.00  0.00     0.008 A 
ATOM     43  C   UNL     1      65.165  81.629  71.106  1.00  0.00     0.008 A 
ATOM     44  C   UNL     1      64.374  83.596  72.918  1.00  0.00     0.046 A 
ATOM     45  C   UNL     1      64.082  81.400  71.955  1.00  0.00     0.046 A 
ATOM     46  C   UNL     1      63.687  82.383  72.861  1.00  0.00     0.115 A 
BRANCH  46  47
ATOM     47  O   UNL     1      62.632  82.160  73.691  1.00  0.00    -0.508 OA
ATOM     48  H   UNL     1      62.575  81.207  73.881  1.00  0.00     0.293 HD
ENDBRANCH  46  47
ENDBRANCH  40  41
ENDBRANCH  38  40
ENDBRANCH  37  38
ENDBRANCH   1  37
TORSDOF 10
ENDMDL
MODEL 7
REMARK VINA RESULT:    -5.782     32.406     35.156
REMARK INTER + INTRA:         -12.246
REMARK INTER:                 -11.560
REMARK INTRA:                  -0.686
REMARK UNBOUND:                -2.408
REMARK SMILES C=C(C)[C@]12C[C@@H](C)[C@@]34O[C@](Cc5ccccc5)(O[C@@H]1[C@@H]3C=C(COC(=O)Cc1ccc(O)cc1)C[C@]1(O)C(=O)C(C)=C[C@@H]41)O2
REMARK SMILES IDX 23 1 22 2 21 3 20 4 9 5 8 6 10 7 6 8 18 10 44 11 19 12 5 13
REMARK SMILES IDX 7 14 4 15 11 16 12 17 13 18 17 19 14 20 16 21 15 22 2 23
REMARK SMILES IDX 3 24 1 25 35 26 36 27 43 28 38 29 42 30 39 32 40 33 41 34
REMARK SMILES IDX 37 35 24 37 25 38 26 39 27 40 28 41 29 42 34 43 30 44 33 45
REMARK SMILES IDX 31 46 32 47
REMARK H PARENT 37 36 32 48
REMARK Flexibility Score: 90.00
ROOT
ATOM      1  C   UNL     1      98.334  82.144  86.006  1.00  0.00     0.264 C 
ENDROOT
BRANCH   1   2
ATOM      2  C   UNL     1      96.961  82.691  86.325  1.00  0.00    -0.033 C 
ATOM      3  C   UNL     1      95.938  81.832  86.516  1.00  0.00    -0.015 C 
BRANCH   3   4
ATOM      4  C   UNL     1      94.468  82.124  86.769  1.00  0.00     0.078 C 
ATOM      5  O   UNL     1      94.154  82.168  89.222  1.00  0.00    -0.319 OA
ATOM      6  C   UNL     1      94.083  82.997  88.020  1.00  0.00     0.095 CG0
ATOM      7  C   UNL     1      93.604  80.843  89.089  1.00  0.00     0.289 C 
ATOM      8  C   UNL     1      92.593  83.496  87.817  1.00  0.00     0.023 C 
ATOM      9  G   UNL     1      95.137  84.117  88.259  1.00  0.00     0.000 G0
ATOM     10  O   UNL     1      94.239  80.121  88.038  1.00  0.00    -0.320 OA
ATOM     11  O   UNL     1      92.217  80.863  88.760  1.00  0.00    -0.313 OA
ATOM     12  C   UNL     1      93.682  80.796  86.899  1.00  0.00     0.170 C 
ATOM     13  C   UNL     1      91.737  82.444  87.048  1.00  0.00     0.049 C 
ATOM     14  C   UNL     1      91.855  83.914  89.100  1.00  0.00     0.011 C 
ATOM     15  C   UNL     1      92.211  81.016  87.326  1.00  0.00     0.122 C 
BRANCH   7  16
ATOM     16  C   UNL     1      93.800  80.114  90.404  1.00  0.00     0.135 C 
BRANCH  16  17
ATOM     17  C   UNL     1      92.653  80.344  91.356  1.00  0.00    -0.040 A 
ATOM     18  C   UNL     1      91.691  79.352  91.544  1.00  0.00     0.004 A 
ATOM     19  C   UNL     1      92.555  81.551  92.049  1.00  0.00     0.004 A 
ATOM     20  C   UNL     1      90.631  79.566  92.425  1.00  0.00     0.000 A 
ATOM     21  C   UNL     1      91.494  81.764  92.930  1.00  0.00     0.000 A 
ATOM     22  C   UNL     1      90.533  80.772  93.118  1.00  0.00     0.000 A 
ENDBRANCH  16  17
ENDBRANCH   7  16
BRANCH  15  23
ATOM     23  C   UNL     1      91.297  79.986  86.747  1.00  0.00    -0.046 C 
ATOM     24  C   UNL     1      90.688  79.019  87.719  1.00  0.00     0.042 C 
ATOM     25  C   UNL     1      91.036  79.927  85.432  1.00  0.00     0.010 C 
ENDBRANCH  15  23
ENDBRANCH   3   4
BRANCH   2  26
ATOM     26  C   UNL     1      96.925  84.206  86.399  1.00  0.00     0.078 C 
BRANCH  26  27
ATOM     27  C   UNL     1      95.674  84.846  86.996  1.00  0.00     0.140 C 
ATOM     28  C   UNL     1      95.175  84.095  88.248  1.00  0.00     0.086 CG0
ATOM     29  C   UNL     1      95.934  86.237  87.534  1.00  0.00     0.190 C 
ATOM     30  C   UNL     1      94.898  85.199  89.231  1.00  0.00    -0.010 C 
ATOM     31  G   UNL     1      94.096  83.000  88.006  1.00  0.00     0.000 G0
ATOM     32  O   UNL     1      96.516  87.130  86.935  1.00  0.00    -0.291 OA
ATOM     33  C   UNL     1      95.337  86.409  88.871  1.00  0.00    -0.008 C 
ATOM     34  C   UNL     1      95.314  87.687  89.611  1.00  0.00     0.048 C 
BRANCH  27  35
ATOM     35  O   UNL     1      94.673  85.046  86.011  1.00  0.00    -0.381 OA
ATOM     36  H   UNL     1      94.073  84.281  86.025  1.00  0.00     0.212 HD
ENDBRANCH  27  35
ENDBRANCH  26  27
ENDBRANCH   2  26
ENDBRANCH   1   2
BRANCH   1  37
ATOM     37  O   UNL     1      98.790  82.708  84.795  1.00  0.00    -0.461 OA
BRANCH  37  38
ATOM     38  C   UNL     1      98.285  82.156  83.640  1.00  0.00     0.310 C 
ATOM     39  O   UNL     1      98.243  80.958  83.394  1.00  0.00    -0.252 OA
BRANCH  38  40
ATOM     40  C   UNL     1      97.793  83.255  82.729  1.00  0.00     0.158 C 
BRANCH  40  41
ATOM     41  C   UNL     1      98.299  83.118  81.317  1.00  0.00    -0.037 A 
ATOM     42  C   UNL     1      97.515  83.557  80.249  1.00  0.00     0.008 A 
ATOM     43  C   UNL     1      99.550  82.551  81.075  1.00  0.00     0.008 A 
ATOM     44  C   UNL     1      97.982  83.429  78.941  1.00  0.00     0.046 A 
ATOM     45  C   UNL     1     100.018  82.424  79.767  1.00  0.00     0.046 A 
ATOM     46  C   UNL     1      99.234  82.862  78.700  1.00  0.00     0.115 A 
BRANCH  46  47
ATOM     47  O   UNL     1      99.690  82.737  77.424  1.00  0.00    -0.508 OA
ATOM     48  H   UNL     1     100.663  82.757  77.433  1.00  0.00     0.293 HD
ENDBRANCH  46  47
ENDBRANCH  40  41
ENDBRANCH  38  40
ENDBRANCH  37  38
ENDBRANCH   1  37
TORSDOF 10
ENDMDL
MODEL 8
REMARK VINA RESULT:    -5.665     31.998     35.074
REMARK INTER + INTRA:         -12.046
REMARK INTER:                 -11.579
REMARK INTRA:                  -0.467
REMARK UNBOUND:                -2.408
REMARK SMILES C=C(C)[C@]12C[C@@H](C)[C@@]34O[C@](Cc5ccccc5)(O[C@@H]1[C@@H]3C=C(COC(=O)Cc1ccc(O)cc1)C[C@]1(O)C(=O)C(C)=C[C@@H]41)O2
REMARK SMILES IDX 23 1 22 2 21 3 20 4 9 5 8 6 10 7 6 8 18 10 44 11 19 12 5 13
REMARK SMILES IDX 7 14 4 15 11 16 12 17 13 18 17 19 14 20 16 21 15 22 2 23
REMARK SMILES IDX 3 24 1 25 35 26 36 27 43 28 38 29 42 30 39 32 40 33 41 34
REMARK SMILES IDX 37 35 24 37 25 38 26 39 27 40 28 41 29 42 34 43 30 44 33 45
REMARK SMILES IDX 31 46 32 47
REMARK H PARENT 37 36 32 48
REMARK Flexibility Score: 90.00
ROOT
ATOM      1  C   UNL     1      94.531  86.137  88.299  1.00  0.00     0.264 C 
ENDROOT
BRANCH   1   2
ATOM      2  C   UNL     1      93.554  85.112  88.826  1.00  0.00    -0.033 C 
ATOM      3  C   UNL     1      93.096  84.150  87.998  1.00  0.00    -0.015 C 
BRANCH   3   4
ATOM      4  C   UNL     1      92.065  83.063  88.257  1.00  0.00     0.078 C 
ATOM      5  O   UNL     1      93.306  81.057  89.002  1.00  0.00    -0.319 OA
ATOM      6  C   UNL     1      92.325  82.051  89.433  1.00  0.00     0.095 CG0
ATOM      7  C   UNL     1      93.123  80.553  87.665  1.00  0.00     0.289 C 
ATOM      8  C   UNL     1      90.952  81.327  89.754  1.00  0.00     0.023 C 
ATOM      9  G   UNL     1      93.001  82.766  90.639  1.00  0.00     0.000 G0
ATOM     10  O   UNL     1      93.139  81.608  86.707  1.00  0.00    -0.320 OA
ATOM     11  O   UNL     1      91.867  79.900  87.498  1.00  0.00    -0.313 OA
ATOM     12  C   UNL     1      91.865  82.213  86.978  1.00  0.00     0.170 C 
ATOM     13  C   UNL     1      90.087  81.145  88.470  1.00  0.00     0.049 C 
ATOM     14  C   UNL     1      91.071  79.978  90.484  1.00  0.00     0.011 C 
ATOM     15  C   UNL     1      90.955  80.983  87.221  1.00  0.00     0.122 C 
BRANCH   7  16
ATOM     16  C   UNL     1      94.243  79.575  87.369  1.00  0.00     0.135 C 
BRANCH  16  17
ATOM     17  C   UNL     1      95.600  80.229  87.440  1.00  0.00    -0.040 A 
ATOM     18  C   UNL     1      96.318  80.220  88.636  1.00  0.00     0.004 A 
ATOM     19  C   UNL     1      96.137  80.844  86.309  1.00  0.00     0.004 A 
ATOM     20  C   UNL     1      97.573  80.826  88.701  1.00  0.00     0.000 A 
ATOM     21  C   UNL     1      97.392  81.449  86.374  1.00  0.00     0.000 A 
ATOM     22  C   UNL     1      98.110  81.440  87.570  1.00  0.00     0.000 A 
ENDBRANCH  16  17
ENDBRANCH   7  16
BRANCH  15  23
ATOM     23  C   UNL     1      90.157  80.628  86.009  1.00  0.00    -0.046 C 
ATOM     24  C   UNL     1      88.724  81.073  86.006  1.00  0.00     0.042 C 
ATOM     25  C   UNL     1      90.690  79.949  84.982  1.00  0.00     0.010 C 
ENDBRANCH  15  23
ENDBRANCH   3   4
BRANCH   2  26
ATOM     26  C   UNL     1      93.212  85.313  90.290  1.00  0.00     0.078 C 
BRANCH  26  27
ATOM     27  C   UNL     1      92.444  84.192  90.988  1.00  0.00     0.140 C 
ATOM     28  C   UNL     1      92.997  82.796  90.633  1.00  0.00     0.086 CG0
ATOM     29  C   UNL     1      92.602  84.230  92.493  1.00  0.00     0.190 C 
ATOM     30  C   UNL     1      93.082  82.104  91.964  1.00  0.00    -0.010 C 
ATOM     31  G   UNL     1      92.313  82.071  89.437  1.00  0.00     0.000 G0
ATOM     32  O   UNL     1      92.461  85.221  93.195  1.00  0.00    -0.291 OA
ATOM     33  C   UNL     1      92.893  82.887  93.030  1.00  0.00    -0.008 C 
ATOM     34  C   UNL     1      92.982  82.572  94.471  1.00  0.00     0.048 C 
BRANCH  27  35
ATOM     35  O   UNL     1      91.046  84.321  90.791  1.00  0.00    -0.381 OA
ATOM     36  H   UNL     1      90.591  83.797  91.472  1.00  0.00     0.212 HD
ENDBRANCH  27  35
ENDBRANCH  26  27
ENDBRANCH   2  26
ENDBRANCH   1   2
BRANCH   1  37
ATOM     37  O   UNL     1      94.955  86.966  89.360  1.00  0.00    -0.461 OA
BRANCH  37  38
ATOM     38  C   UNL     1      95.685  88.078  89.007  1.00  0.00     0.310 C 
ATOM     39  O   UNL     1      96.083  88.328  87.878  1.00  0.00    -0.252 OA
BRANCH  38  40
ATOM     40  C   UNL     1      95.916  88.936  90.228  1.00  0.00     0.158 C 
BRANCH  40  41
ATOM     41  C   UNL     1      94.797  89.912  90.481  1.00  0.00    -0.037 A 
ATOM     42  C   UNL     1      93.630  89.486  91.117  1.00  0.00     0.008 A 
ATOM     43  C   UNL     1      94.925  91.241  90.079  1.00  0.00     0.008 A 
ATOM     44  C   UNL     1      92.593  90.389  91.351  1.00  0.00     0.046 A 
ATOM     45  C   UNL     1      93.888  92.145  90.313  1.00  0.00     0.046 A 
ATOM     46  C   UNL     1      92.722  91.719  90.948  1.00  0.00     0.115 A 
BRANCH  46  47
ATOM     47  O   UNL     1      91.710  92.600  91.176  1.00  0.00    -0.508 OA
ATOM     48  H   UNL     1      91.337  92.431  92.058  1.00  0.00     0.293 HD
ENDBRANCH  46  47
ENDBRANCH  40  41
ENDBRANCH  38  40
ENDBRANCH  37  38
ENDBRANCH   1  37
TORSDOF 10
ENDMDL
MODEL 9
REMARK VINA RESULT:    -5.624     32.511     35.264
REMARK INTER + INTRA:         -11.978
REMARK INTER:                 -11.256
REMARK INTRA:                  -0.721
REMARK UNBOUND:                -2.408
REMARK SMILES C=C(C)[C@]12C[C@@H](C)[C@@]34O[C@](Cc5ccccc5)(O[C@@H]1[C@@H]3C=C(COC(=O)Cc1ccc(O)cc1)C[C@]1(O)C(=O)C(C)=C[C@@H]41)O2
REMARK SMILES IDX 23 1 22 2 21 3 20 4 9 5 8 6 10 7 6 8 18 10 44 11 19 12 5 13
REMARK SMILES IDX 7 14 4 15 11 16 12 17 13 18 17 19 14 20 16 21 15 22 2 23
REMARK SMILES IDX 3 24 1 25 35 26 36 27 43 28 38 29 42 30 39 32 40 33 41 34
REMARK SMILES IDX 37 35 24 37 25 38 26 39 27 40 28 41 29 42 34 43 30 44 33 45
REMARK SMILES IDX 31 46 32 47
REMARK H PARENT 37 36 32 48
REMARK Flexibility Score: 90.00
ROOT
ATOM      1  C   UNL     1      97.911  82.969  85.602  1.00  0.00     0.264 C 
ENDROOT
BRANCH   1   2
ATOM      2  C   UNL     1      96.602  83.459  86.176  1.00  0.00    -0.033 C 
ATOM      3  C   UNL     1      95.570  82.598  86.295  1.00  0.00    -0.015 C 
BRANCH   3   4
ATOM      4  C   UNL     1      94.147  82.856  86.763  1.00  0.00     0.078 C 
ATOM      5  O   UNL     1      94.091  82.389  89.191  1.00  0.00    -0.319 OA
ATOM      6  C   UNL     1      93.929  83.453  88.202  1.00  0.00     0.095 CG0
ATOM      7  C   UNL     1      93.478  81.131  88.848  1.00  0.00     0.289 C 
ATOM      8  C   UNL     1      92.447  84.009  88.270  1.00  0.00     0.023 C 
ATOM      9  G   UNL     1      95.046  84.480  88.550  1.00  0.00     0.000 G0
ATOM     10  O   UNL     1      93.971  80.635  87.607  1.00  0.00    -0.320 OA
ATOM     11  O   UNL     1      92.066  81.244  88.684  1.00  0.00    -0.313 OA
ATOM     12  C   UNL     1      93.327  81.544  86.700  1.00  0.00     0.170 C 
ATOM     13  C   UNL     1      91.475  83.157  87.399  1.00  0.00     0.049 C 
ATOM     14  C   UNL     1      91.863  84.162  89.685  1.00  0.00     0.011 C 
ATOM     15  C   UNL     1      91.917  81.695  87.322  1.00  0.00     0.122 C 
BRANCH   7  16
ATOM     16  C   UNL     1      93.779  80.139  89.954  1.00  0.00     0.135 C 
BRANCH  16  17
ATOM     17  C   UNL     1      93.959  78.738  89.424  1.00  0.00    -0.040 A 
ATOM     18  C   UNL     1      92.847  77.920  89.223  1.00  0.00     0.004 A 
ATOM     19  C   UNL     1      95.237  78.262  89.135  1.00  0.00     0.004 A 
ATOM     20  C   UNL     1      93.014  76.625  88.733  1.00  0.00     0.000 A 
ATOM     21  C   UNL     1      95.403  76.966  88.644  1.00  0.00     0.000 A 
ATOM     22  C   UNL     1      94.292  76.148  88.443  1.00  0.00     0.000 A 
ENDBRANCH  16  17
ENDBRANCH   7  16
BRANCH  15  23
ATOM     23  C   UNL     1      90.909  80.825  86.646  1.00  0.00    -0.046 C 
ATOM     24  C   UNL     1      91.384  80.078  85.435  1.00  0.00     0.042 C 
ATOM     25  C   UNL     1      89.649  80.718  87.094  1.00  0.00     0.010 C 
ENDBRANCH  15  23
ENDBRANCH   3   4
BRANCH   2  26
ATOM     26  C   UNL     1      96.635  84.925  86.566  1.00  0.00     0.078 C 
BRANCH  26  27
ATOM     27  C   UNL     1      95.456  85.458  87.379  1.00  0.00     0.140 C 
ATOM     28  C   UNL     1      95.062  84.506  88.528  1.00  0.00     0.086 CG0
ATOM     29  C   UNL     1      95.791  86.737  88.117  1.00  0.00     0.190 C 
ATOM     30  C   UNL     1      94.898  85.427  89.704  1.00  0.00    -0.010 C 
ATOM     31  G   UNL     1      93.945  83.470  88.207  1.00  0.00     0.000 G0
ATOM     32  O   UNL     1      96.331  87.717  87.626  1.00  0.00    -0.291 OA
ATOM     33  C   UNL     1      95.324  86.679  89.515  1.00  0.00    -0.008 C 
ATOM     34  C   UNL     1      95.393  87.814  90.459  1.00  0.00     0.048 C 
BRANCH  27  35
ATOM     35  O   UNL     1      94.372  85.824  86.542  1.00  0.00    -0.381 OA
ATOM     36  H   UNL     1      94.520  86.733  86.230  1.00  0.00     0.212 HD
ENDBRANCH  27  35
ENDBRANCH  26  27
ENDBRANCH   2  26
ENDBRANCH   1   2
BRANCH   1  37
ATOM     37  O   UNL     1      97.787  81.606  85.255  1.00  0.00    -0.461 OA
BRANCH  37  38
ATOM     38  C   UNL     1      98.357  81.229  84.061  1.00  0.00     0.310 C 
ATOM     39  O   UNL     1      98.200  80.144  83.519  1.00  0.00    -0.252 OA
BRANCH  38  40
ATOM     40  C   UNL     1      99.203  82.360  83.528  1.00  0.00     0.158 C 
BRANCH  40  41
ATOM     41  C   UNL     1      98.969  82.629  82.064  1.00  0.00    -0.037 A 
ATOM     42  C   UNL     1      99.912  82.220  81.120  1.00  0.00     0.008 A 
ATOM     43  C   UNL     1      97.811  83.287  81.652  1.00  0.00     0.008 A 
ATOM     44  C   UNL     1      99.696  82.470  79.765  1.00  0.00     0.046 A 
ATOM     45  C   UNL     1      97.594  83.537  80.296  1.00  0.00     0.046 A 
ATOM     46  C   UNL     1      98.537  83.129  79.353  1.00  0.00     0.115 A 
BRANCH  46  47
ATOM     47  O   UNL     1      98.326  83.373  78.031  1.00  0.00    -0.508 OA
ATOM     48  H   UNL     1      98.850  84.149  77.766  1.00  0.00     0.293 HD
ENDBRANCH  46  47
ENDBRANCH  40  41
ENDBRANCH  38  40
ENDBRANCH  37  38
ENDBRANCH   1  37
TORSDOF 10
ENDMDL
MODEL 10
REMARK VINA RESULT:    -5.460     33.034     35.830
REMARK INTER + INTRA:         -11.698
REMARK INTER:                 -11.016
REMARK INTRA:                  -0.682
REMARK UNBOUND:                -2.408
REMARK SMILES C=C(C)[C@]12C[C@@H](C)[C@@]34O[C@](Cc5ccccc5)(O[C@@H]1[C@@H]3C=C(COC(=O)Cc1ccc(O)cc1)C[C@]1(O)C(=O)C(C)=C[C@@H]41)O2
REMARK SMILES IDX 23 1 22 2 21 3 20 4 9 5 8 6 10 7 6 8 18 10 44 11 19 12 5 13
REMARK SMILES IDX 7 14 4 15 11 16 12 17 13 18 17 19 14 20 16 21 15 22 2 23
REMARK SMILES IDX 3 24 1 25 35 26 36 27 43 28 38 29 42 30 39 32 40 33 41 34
REMARK SMILES IDX 37 35 24 37 25 38 26 39 27 40 28 41 29 42 34 43 30 44 33 45
REMARK SMILES IDX 31 46 32 47
REMARK H PARENT 37 36 32 48
REMARK Flexibility Score: 90.00
ROOT
ATOM      1  C   UNL     1      97.839  82.865  85.573  1.00  0.00     0.264 C 
ENDROOT
BRANCH   1   2
ATOM      2  C   UNL     1      96.555  83.365  86.195  1.00  0.00    -0.033 C 
ATOM      3  C   UNL     1      95.551  82.493  86.425  1.00  0.00    -0.015 C 
BRANCH   3   4
ATOM      4  C   UNL     1      94.153  82.753  86.962  1.00  0.00     0.078 C 
ATOM      5  O   UNL     1      94.261  82.476  89.417  1.00  0.00    -0.319 OA
ATOM      6  C   UNL     1      94.007  83.455  88.362  1.00  0.00     0.095 CG0
ATOM      7  C   UNL     1      93.664  81.181  89.212  1.00  0.00     0.289 C 
ATOM      8  C   UNL     1      92.517  83.979  88.482  1.00  0.00     0.023 C 
ATOM      9  G   UNL     1      95.112  84.533  88.558  1.00  0.00     0.000 G0
ATOM     10  O   UNL     1      94.094  80.602  87.984  1.00  0.00    -0.320 OA
ATOM     11  O   UNL     1      92.242  81.246  89.130  1.00  0.00    -0.313 OA
ATOM     12  C   UNL     1      93.369  81.420  87.052  1.00  0.00     0.170 C 
ATOM     13  C   UNL     1      91.517  83.038  87.743  1.00  0.00     0.049 C 
ATOM     14  C   UNL     1      92.017  84.228  89.916  1.00  0.00     0.011 C 
ATOM     15  C   UNL     1      91.997  81.586  87.750  1.00  0.00     0.122 C 
BRANCH   7  16
ATOM     16  C   UNL     1      94.062  80.286  90.369  1.00  0.00     0.135 C 
BRANCH  16  17
ATOM     17  C   UNL     1      95.429  80.631  90.907  1.00  0.00    -0.040 A 
ATOM     18  C   UNL     1      96.572  80.232  90.215  1.00  0.00     0.004 A 
ATOM     19  C   UNL     1      95.548  81.348  92.097  1.00  0.00     0.004 A 
ATOM     20  C   UNL     1      97.836  80.551  90.713  1.00  0.00     0.000 A 
ATOM     21  C   UNL     1      96.812  81.668  92.594  1.00  0.00     0.000 A 
ATOM     22  C   UNL     1      97.955  81.269  91.903  1.00  0.00     0.000 A 
ENDBRANCH  16  17
ENDBRANCH   7  16
BRANCH  15  23
ATOM     23  C   UNL     1      90.974  80.641  87.208  1.00  0.00    -0.046 C 
ATOM     24  C   UNL     1      90.145  79.910  88.223  1.00  0.00     0.042 C 
ATOM     25  C   UNL     1      90.805  80.457  85.891  1.00  0.00     0.010 C 
ENDBRANCH  15  23
ENDBRANCH   3   4
BRANCH   2  26
ATOM     26  C   UNL     1      96.579  84.852  86.496  1.00  0.00     0.078 C 
BRANCH  26  27
ATOM     27  C   UNL     1      95.426  85.414  87.325  1.00  0.00     0.140 C 
ATOM     28  C   UNL     1      95.107  84.535  88.552  1.00  0.00     0.086 CG0
ATOM     29  C   UNL     1      95.765  86.747  87.960  1.00  0.00     0.190 C 
ATOM     30  C   UNL     1      94.975  85.530  89.671  1.00  0.00    -0.010 C 
ATOM     31  G   UNL     1      94.001  83.458  88.354  1.00  0.00     0.000 G0
ATOM     32  O   UNL     1      96.259  87.702  87.379  1.00  0.00    -0.291 OA
ATOM     33  C   UNL     1      95.363  86.775  89.379  1.00  0.00    -0.008 C 
ATOM     34  C   UNL     1      95.449  87.972  90.240  1.00  0.00     0.048 C 
BRANCH  27  35
ATOM     35  O   UNL     1      94.298  85.701  86.517  1.00  0.00    -0.381 OA
ATOM     36  H   UNL     1      94.410  86.590  86.138  1.00  0.00     0.212 HD
ENDBRANCH  27  35
ENDBRANCH  26  27
ENDBRANCH   2  26
ENDBRANCH   1   2
BRANCH   1  37
ATOM     37  O   UNL     1      97.674  81.518  85.182  1.00  0.00    -0.461 OA
BRANCH  37  38
ATOM     38  C   UNL     1      98.349  81.128  84.049  1.00  0.00     0.310 C 
ATOM     39  O   UNL     1      98.195  80.060  83.473  1.00  0.00    -0.252 OA
BRANCH  38  40
ATOM     40  C   UNL     1      99.304  82.219  83.630  1.00  0.00     0.158 C 
BRANCH  40  41
ATOM     41  C   UNL     1      99.257  82.506  82.151  1.00  0.00    -0.037 A 
ATOM     42  C   UNL     1     100.299  82.082  81.325  1.00  0.00     0.008 A 
ATOM     43  C   UNL     1      98.174  83.195  81.608  1.00  0.00     0.008 A 
ATOM     44  C   UNL     1     100.256  82.347  79.956  1.00  0.00     0.046 A 
ATOM     45  C   UNL     1      98.130  83.460  80.239  1.00  0.00     0.046 A 
ATOM     46  C   UNL     1      99.171  83.037  79.413  1.00  0.00     0.115 A 
BRANCH  46  47
ATOM     47  O   UNL     1      99.130  83.297  78.078  1.00  0.00    -0.508 OA
ATOM     48  H   UNL     1      99.700  84.062  77.887  1.00  0.00     0.293 HD
ENDBRANCH  46  47
ENDBRANCH  40  41
ENDBRANCH  38  40
ENDBRANCH  37  38
ENDBRANCH   1  37
TORSDOF 10
ENDMDL
