MODEL 1
REMARK VINA RESULT:    -7.562      0.000      0.000
REMARK INTER + INTRA:          -9.286
REMARK INTER:                  -8.888
REMARK INTRA:                  -0.398
REMARK UNBOUND:                -0.398
REMARK SMILES O=C(/C=C/C=C/c1ccc2c(c1)OCO2)N1CCCCC1
REMARK SMILES IDX 3 1 4 2 2 3 1 4 16 5 17 6 21 7 18 8 20 9 19 10 5 11 6 12
REMARK SMILES IDX 7 13 12 14 8 15 11 16 9 17 13 18 10 19 14 20 15 21
REMARK H PARENT
REMARK Flexibility Score: inf
ROOT
ATOM      1  C   UNL     1      97.494  83.924  76.861  1.00  0.00     0.071 C 
ATOM      2  C   UNL     1      96.363  83.914  77.564  1.00  0.00     0.006 C 
ENDROOT
BRANCH   1   3
ATOM      3  C   UNL     1      97.425  84.322  75.441  1.00  0.00     0.246 C 
ATOM      4  O   UNL     1      96.322  84.637  74.991  1.00  0.00    -0.270 OA
ATOM      5  N   UNL     1      98.608  84.311  74.704  1.00  0.00    -0.339 N 
ATOM      6  C   UNL     1      98.570  84.697  73.290  1.00  0.00     0.120 C 
ATOM      7  C   UNL     1      99.933  83.900  75.194  1.00  0.00     0.120 C 
ATOM      8  C   UNL     1      99.592  85.786  72.982  1.00  0.00     0.022 C 
ATOM      9  C   UNL     1     100.987  84.967  74.900  1.00  0.00     0.022 C 
ATOM     10  C   UNL     1     100.989  85.367  73.427  1.00  0.00     0.004 C 
ENDBRANCH   1   3
BRANCH   2  11
ATOM     11  C   UNL     1      96.330  83.538  78.962  1.00  0.00     0.001 C 
ATOM     12  C   UNL     1      97.428  83.174  79.642  1.00  0.00     0.008 C 
BRANCH  12  13
ATOM     13  C   UNL     1      97.450  82.775  81.060  1.00  0.00    -0.022 A 
ATOM     14  C   UNL     1      98.413  81.874  81.494  1.00  0.00     0.058 A 
ATOM     15  C   UNL     1      96.499  83.314  81.930  1.00  0.00     0.012 A 
ATOM     16  C   UNL     1      98.393  81.532  82.830  1.00  0.00     0.166 A 
ATOM     17  C   UNL     1      96.502  82.950  83.278  1.00  0.00     0.051 A 
ATOM     18  O   UNL     1      99.247  80.669  83.446  1.00  0.00    -0.454 OA
ATOM     19  C   UNL     1      97.463  82.055  83.699  1.00  0.00     0.165 A 
ATOM     20  C   UNL     1      98.751  80.708  84.799  1.00  0.00     0.468 C 
ATOM     21  O   UNL     1      97.618  81.586  84.967  1.00  0.00    -0.454 OA
ENDBRANCH  12  13
ENDBRANCH   2  11
TORSDOF 3
ENDMDL
MODEL 2
REMARK VINA RESULT:    -7.515      3.265      9.434
REMARK INTER + INTRA:          -9.231
REMARK INTER:                  -8.901
REMARK INTRA:                  -0.331
REMARK UNBOUND:                -0.398
REMARK SMILES O=C(/C=C/C=C/c1ccc2c(c1)OCO2)N1CCCCC1
REMARK SMILES IDX 3 1 4 2 2 3 1 4 16 5 17 6 21 7 18 8 20 9 19 10 5 11 6 12
REMARK SMILES IDX 7 13 12 14 8 15 11 16 9 17 13 18 10 19 14 20 15 21
REMARK H PARENT
REMARK Flexibility Score: inf
ROOT
ATOM      1  C   UNL     1      96.475  83.203  82.963  1.00  0.00     0.071 C 
ATOM      2  C   UNL     1      97.045  82.619  81.911  1.00  0.00     0.006 C 
ENDROOT
BRANCH   1   3
ATOM      3  C   UNL     1      96.491  82.482  84.251  1.00  0.00     0.246 C 
ATOM      4  O   UNL     1      97.587  82.273  84.773  1.00  0.00    -0.270 OA
ATOM      5  N   UNL     1      95.268  82.083  84.788  1.00  0.00    -0.339 N 
ATOM      6  C   UNL     1      95.253  81.360  86.064  1.00  0.00     0.120 C 
ATOM      7  C   UNL     1      93.946  82.274  84.174  1.00  0.00     0.120 C 
ATOM      8  C   UNL     1      94.313  82.021  87.067  1.00  0.00     0.022 C 
ATOM      9  C   UNL     1      92.972  82.932  85.152  1.00  0.00     0.022 C 
ATOM     10  C   UNL     1      92.914  82.183  86.480  1.00  0.00     0.004 C 
ENDBRANCH   1   3
BRANCH   2  11
ATOM     11  C   UNL     1      97.079  83.246  80.607  1.00  0.00     0.001 C 
ATOM     12  C   UNL     1      97.417  82.582  79.490  1.00  0.00     0.008 C 
BRANCH  12  13
ATOM     13  C   UNL     1      97.475  83.172  78.142  1.00  0.00    -0.022 A 
ATOM     14  C   UNL     1      98.590  82.937  77.349  1.00  0.00     0.058 A 
ATOM     15  C   UNL     1      96.405  83.953  77.697  1.00  0.00     0.012 A 
ATOM     16  C   UNL     1      98.599  83.510  76.094  1.00  0.00     0.166 A 
ATOM     17  C   UNL     1      96.440  84.522  76.422  1.00  0.00     0.051 A 
ATOM     18  O   UNL     1      99.595  83.400  75.173  1.00  0.00    -0.454 OA
ATOM     19  C   UNL     1      97.553  84.282  75.643  1.00  0.00     0.165 A 
ATOM     20  C   UNL     1      99.058  84.189  74.092  1.00  0.00     0.468 C 
ATOM     21  O   UNL     1      97.762  84.751  74.383  1.00  0.00    -0.454 OA
ENDBRANCH  12  13
ENDBRANCH   2  11
TORSDOF 3
ENDMDL
MODEL 3
REMARK VINA RESULT:    -7.490      9.398     11.405
REMARK INTER + INTRA:          -9.202
REMARK INTER:                  -8.901
REMARK INTRA:                  -0.301
REMARK UNBOUND:                -0.398
REMARK SMILES O=C(/C=C/C=C/c1ccc2c(c1)OCO2)N1CCCCC1
REMARK SMILES IDX 3 1 4 2 2 3 1 4 16 5 17 6 21 7 18 8 20 9 19 10 5 11 6 12
REMARK SMILES IDX 7 13 12 14 8 15 11 16 9 17 13 18 10 19 14 20 15 21
REMARK H PARENT
REMARK Flexibility Score: inf
ROOT
ATOM      1  C   UNL     1      93.228  85.804  86.474  1.00  0.00     0.071 C 
ATOM      2  C   UNL     1      93.520  84.807  85.641  1.00  0.00     0.006 C 
ENDROOT
BRANCH   1   3
ATOM      3  C   UNL     1      94.042  87.034  86.397  1.00  0.00     0.246 C 
ATOM      4  O   UNL     1      94.688  87.225  85.366  1.00  0.00    -0.270 OA
ATOM      5  N   UNL     1      94.030  87.890  87.497  1.00  0.00    -0.339 N 
ATOM      6  C   UNL     1      94.833  89.116  87.453  1.00  0.00     0.120 C 
ATOM      7  C   UNL     1      93.309  87.673  88.760  1.00  0.00     0.120 C 
ATOM      8  C   UNL     1      93.993  90.345  87.780  1.00  0.00     0.022 C 
ATOM      9  C   UNL     1      92.456  88.887  89.126  1.00  0.00     0.022 C 
ATOM     10  C   UNL     1      93.274  90.176  89.115  1.00  0.00     0.004 C 
ENDBRANCH   1   3
BRANCH   2  11
ATOM     11  C   UNL     1      92.779  83.563  85.641  1.00  0.00     0.001 C 
ATOM     12  C   UNL     1      92.631  82.806  84.542  1.00  0.00     0.008 C 
BRANCH  12  13
ATOM     13  C   UNL     1      91.883  81.539  84.485  1.00  0.00    -0.022 A 
ATOM     14  C   UNL     1      90.514  81.573  84.255  1.00  0.00     0.058 A 
ATOM     15  C   UNL     1      92.571  80.336  84.663  1.00  0.00     0.012 A 
ATOM     16  C   UNL     1      89.857  80.360  84.208  1.00  0.00     0.166 A 
ATOM     17  C   UNL     1      91.881  79.123  84.612  1.00  0.00     0.051 A 
ATOM     18  O   UNL     1      88.524  80.183  83.997  1.00  0.00    -0.454 OA
ATOM     19  C   UNL     1      90.522  79.168  84.382  1.00  0.00     0.165 A 
ATOM     20  C   UNL     1      88.425  78.745  84.057  1.00  0.00     0.468 C 
ATOM     21  O   UNL     1      89.689  78.095  84.301  1.00  0.00    -0.454 OA
ENDBRANCH  12  13
ENDBRANCH   2  11
TORSDOF 3
ENDMDL
MODEL 4
REMARK VINA RESULT:    -7.327      1.283      2.003
REMARK INTER + INTRA:          -9.010
REMARK INTER:                  -8.683
REMARK INTRA:                  -0.327
REMARK UNBOUND:                -0.398
REMARK SMILES O=C(/C=C/C=C/c1ccc2c(c1)OCO2)N1CCCCC1
REMARK SMILES IDX 3 1 4 2 2 3 1 4 16 5 17 6 21 7 18 8 20 9 19 10 5 11 6 12
REMARK SMILES IDX 7 13 12 14 8 15 11 16 9 17 13 18 10 19 14 20 15 21
REMARK H PARENT
REMARK Flexibility Score: inf
ROOT
ATOM      1  C   UNL     1      97.670  83.478  77.477  1.00  0.00     0.071 C 
ATOM      2  C   UNL     1      96.808  83.571  78.488  1.00  0.00     0.006 C 
ENDROOT
BRANCH   1   3
ATOM      3  C   UNL     1      97.285  84.064  76.178  1.00  0.00     0.246 C 
ATOM      4  O   UNL     1      96.249  84.729  76.139  1.00  0.00    -0.270 OA
ATOM      5  N   UNL     1      98.114  83.822  75.084  1.00  0.00    -0.339 N 
ATOM      6  C   UNL     1      97.754  84.386  73.780  1.00  0.00     0.120 C 
ATOM      7  C   UNL     1      99.331  82.998  75.083  1.00  0.00     0.120 C 
ATOM      8  C   UNL     1      98.909  85.179  73.178  1.00  0.00     0.022 C 
ATOM      9  C   UNL     1     100.514  83.758  74.482  1.00  0.00     0.022 C 
ATOM     10  C   UNL     1     100.176  84.333  73.109  1.00  0.00     0.004 C 
ENDBRANCH   1   3
BRANCH   2  11
ATOM     11  C   UNL     1      97.096  83.027  79.798  1.00  0.00     0.001 C 
ATOM     12  C   UNL     1      96.549  83.515  80.923  1.00  0.00     0.008 C 
BRANCH  12  13
ATOM     13  C   UNL     1      96.813  83.006  82.280  1.00  0.00    -0.022 A 
ATOM     14  C   UNL     1      96.344  83.722  83.373  1.00  0.00     0.058 A 
ATOM     15  C   UNL     1      97.529  81.816  82.429  1.00  0.00     0.012 A 
ATOM     16  C   UNL     1      96.615  83.205  84.623  1.00  0.00     0.166 A 
ATOM     17  C   UNL     1      97.790  81.316  83.707  1.00  0.00     0.051 A 
ATOM     18  O   UNL     1      96.244  83.755  85.812  1.00  0.00    -0.454 OA
ATOM     19  C   UNL     1      97.319  82.034  84.786  1.00  0.00     0.165 A 
ATOM     20  C   UNL     1      96.794  82.798  86.740  1.00  0.00     0.468 C 
ATOM     21  O   UNL     1      97.478  81.703  86.096  1.00  0.00    -0.454 OA
ENDBRANCH  12  13
ENDBRANCH   2  11
TORSDOF 3
ENDMDL
MODEL 5
REMARK VINA RESULT:    -7.008     10.679     13.222
REMARK INTER + INTRA:          -8.635
REMARK INTER:                  -8.250
REMARK INTRA:                  -0.385
REMARK UNBOUND:                -0.398
REMARK SMILES O=C(/C=C/C=C/c1ccc2c(c1)OCO2)N1CCCCC1
REMARK SMILES IDX 3 1 4 2 2 3 1 4 16 5 17 6 21 7 18 8 20 9 19 10 5 11 6 12
REMARK SMILES IDX 7 13 12 14 8 15 11 16 9 17 13 18 10 19 14 20 15 21
REMARK H PARENT
REMARK Flexibility Score: inf
ROOT
ATOM      1  C   UNL     1      91.422  77.069  84.013  1.00  0.00     0.071 C 
ATOM      2  C   UNL     1      91.865  78.324  83.975  1.00  0.00     0.006 C 
ENDROOT
BRANCH   1   3
ATOM      3  C   UNL     1      92.418  75.979  83.991  1.00  0.00     0.246 C 
ATOM      4  O   UNL     1      93.596  76.288  83.807  1.00  0.00    -0.270 OA
ATOM      5  N   UNL     1      91.959  74.675  84.174  1.00  0.00    -0.339 N 
ATOM      6  C   UNL     1      92.924  73.572  84.151  1.00  0.00     0.120 C 
ATOM      7  C   UNL     1      90.559  74.264  84.351  1.00  0.00     0.120 C 
ATOM      8  C   UNL     1      92.800  72.698  85.394  1.00  0.00     0.022 C 
ATOM      9  C   UNL     1      90.393  73.381  85.588  1.00  0.00     0.022 C 
ATOM     10  C   UNL     1      91.368  72.206  85.576  1.00  0.00     0.004 C 
ENDBRANCH   1   3
BRANCH   2  11
ATOM     11  C   UNL     1      90.967  79.458  83.993  1.00  0.00     0.001 C 
ATOM     12  C   UNL     1      89.631  79.326  84.040  1.00  0.00     0.008 C 
BRANCH  12  13
ATOM     13  C   UNL     1      88.672  80.444  84.051  1.00  0.00    -0.022 A 
ATOM     14  C   UNL     1      88.871  81.495  84.936  1.00  0.00     0.058 A 
ATOM     15  C   UNL     1      87.588  80.415  83.171  1.00  0.00     0.012 A 
ATOM     16  C   UNL     1      87.947  82.519  84.909  1.00  0.00     0.166 A 
ATOM     17  C   UNL     1      86.667  81.465  83.165  1.00  0.00     0.051 A 
ATOM     18  O   UNL     1      87.965  83.631  85.694  1.00  0.00    -0.454 OA
ATOM     19  C   UNL     1      86.874  82.505  84.048  1.00  0.00     0.165 A 
ATOM     20  C   UNL     1      86.783  84.315  85.229  1.00  0.00     0.468 C 
ATOM     21  O   UNL     1      86.086  83.606  84.185  1.00  0.00    -0.454 OA
ENDBRANCH  12  13
ENDBRANCH   2  11
TORSDOF 3
ENDMDL
MODEL 6
REMARK VINA RESULT:    -6.983      4.424     10.024
REMARK INTER + INTRA:          -8.606
REMARK INTER:                  -8.241
REMARK INTRA:                  -0.365
REMARK UNBOUND:                -0.398
REMARK SMILES O=C(/C=C/C=C/c1ccc2c(c1)OCO2)N1CCCCC1
REMARK SMILES IDX 3 1 4 2 2 3 1 4 16 5 17 6 21 7 18 8 20 9 19 10 5 11 6 12
REMARK SMILES IDX 7 13 12 14 8 15 11 16 9 17 13 18 10 19 14 20 15 21
REMARK H PARENT
REMARK Flexibility Score: inf
ROOT
ATOM      1  C   UNL     1      94.820  83.380  84.631  1.00  0.00     0.071 C 
ATOM      2  C   UNL     1      96.027  83.621  84.123  1.00  0.00     0.006 C 
ENDROOT
BRANCH   1   3
ATOM      3  C   UNL     1      94.646  83.495  86.092  1.00  0.00     0.246 C 
ATOM      4  O   UNL     1      94.763  84.614  86.593  1.00  0.00    -0.270 OA
ATOM      5  N   UNL     1      94.365  82.331  86.807  1.00  0.00    -0.339 N 
ATOM      6  C   UNL     1      94.192  82.413  88.260  1.00  0.00     0.120 C 
ATOM      7  C   UNL     1      94.262  80.974  86.251  1.00  0.00     0.120 C 
ATOM      8  C   UNL     1      92.878  81.777  88.702  1.00  0.00     0.022 C 
ATOM      9  C   UNL     1      92.958  80.300  86.675  1.00  0.00     0.022 C 
ATOM     10  C   UNL     1      92.765  80.345  88.188  1.00  0.00     0.004 C 
ENDBRANCH   1   3
BRANCH   2  11
ATOM     11  C   UNL     1      96.296  83.533  82.703  1.00  0.00     0.001 C 
ATOM     12  C   UNL     1      96.871  82.459  82.138  1.00  0.00     0.008 C 
BRANCH  12  13
ATOM     13  C   UNL     1      97.174  82.321  80.704  1.00  0.00    -0.022 A 
ATOM     14  C   UNL     1      97.028  83.423  79.873  1.00  0.00     0.058 A 
ATOM     15  C   UNL     1      97.601  81.082  80.218  1.00  0.00     0.012 A 
ATOM     16  C   UNL     1      97.325  83.245  78.537  1.00  0.00     0.166 A 
ATOM     17  C   UNL     1      97.894  80.930  78.861  1.00  0.00     0.051 A 
ATOM     18  O   UNL     1      97.244  84.197  77.567  1.00  0.00    -0.454 OA
ATOM     19  C   UNL     1      97.747  82.031  78.044  1.00  0.00     0.165 A 
ATOM     20  C   UNL     1      97.663  83.446  76.410  1.00  0.00     0.468 C 
ATOM     21  O   UNL     1      97.983  82.071  76.705  1.00  0.00    -0.454 OA
ENDBRANCH  12  13
ENDBRANCH   2  11
TORSDOF 3
ENDMDL
MODEL 7
REMARK VINA RESULT:    -6.904      2.756      8.795
REMARK INTER + INTRA:          -8.513
REMARK INTER:                  -8.559
REMARK INTRA:                   0.046
REMARK UNBOUND:                -0.398
REMARK SMILES O=C(/C=C/C=C/c1ccc2c(c1)OCO2)N1CCCCC1
REMARK SMILES IDX 3 1 4 2 2 3 1 4 16 5 17 6 21 7 18 8 20 9 19 10 5 11 6 12
REMARK SMILES IDX 7 13 12 14 8 15 11 16 9 17 13 18 10 19 14 20 15 21
REMARK H PARENT
REMARK Flexibility Score: inf
ROOT
ATOM      1  C   UNL     1      97.055  81.591  81.321  1.00  0.00     0.071 C 
ATOM      2  C   UNL     1      97.654  82.726  80.967  1.00  0.00     0.006 C 
ENDROOT
BRANCH   1   3
ATOM      3  C   UNL     1      96.849  81.334  82.761  1.00  0.00     0.246 C 
ATOM      4  O   UNL     1      97.295  80.282  83.220  1.00  0.00    -0.270 OA
ATOM      5  N   UNL     1      96.163  82.295  83.500  1.00  0.00    -0.339 N 
ATOM      6  C   UNL     1      95.938  82.065  84.931  1.00  0.00     0.120 C 
ATOM      7  C   UNL     1      95.578  83.540  82.979  1.00  0.00     0.120 C 
ATOM      8  C   UNL     1      96.419  83.247  85.767  1.00  0.00     0.022 C 
ATOM      9  C   UNL     1      96.034  84.749  83.795  1.00  0.00     0.022 C 
ATOM     10  C   UNL     1      95.787  84.549  85.287  1.00  0.00     0.004 C 
ENDBRANCH   1   3
BRANCH   2  11
ATOM     11  C   UNL     1      97.900  83.066  79.581  1.00  0.00     0.001 C 
ATOM     12  C   UNL     1      96.920  83.136  78.666  1.00  0.00     0.008 C 
BRANCH  12  13
ATOM     13  C   UNL     1      97.115  83.469  77.244  1.00  0.00    -0.022 A 
ATOM     14  C   UNL     1      97.917  82.648  76.462  1.00  0.00     0.058 A 
ATOM     15  C   UNL     1      96.487  84.602  76.722  1.00  0.00     0.012 A 
ATOM     16  C   UNL     1      98.068  83.001  75.137  1.00  0.00     0.166 A 
ATOM     17  C   UNL     1      96.659  84.936  75.376  1.00  0.00     0.051 A 
ATOM     18  O   UNL     1      98.810  82.331  74.212  1.00  0.00    -0.454 OA
ATOM     19  C   UNL     1      97.456  84.114  74.608  1.00  0.00     0.165 A 
ATOM     20  C   UNL     1      98.595  83.147  73.043  1.00  0.00     0.468 C 
ATOM     21  O   UNL     1      97.737  84.281  73.287  1.00  0.00    -0.454 OA
ENDBRANCH  12  13
ENDBRANCH   2  11
TORSDOF 3
ENDMDL
MODEL 8
REMARK VINA RESULT:    -6.811      1.977      2.550
REMARK INTER + INTRA:          -8.404
REMARK INTER:                  -8.040
REMARK INTRA:                  -0.363
REMARK UNBOUND:                -0.398
REMARK SMILES O=C(/C=C/C=C/c1ccc2c(c1)OCO2)N1CCCCC1
REMARK SMILES IDX 3 1 4 2 2 3 1 4 16 5 17 6 21 7 18 8 20 9 19 10 5 11 6 12
REMARK SMILES IDX 7 13 12 14 8 15 11 16 9 17 13 18 10 19 14 20 15 21
REMARK H PARENT
REMARK Flexibility Score: inf
ROOT
ATOM      1  C   UNL     1      98.884  82.342  77.796  1.00  0.00     0.071 C 
ATOM      2  C   UNL     1      97.643  82.475  78.259  1.00  0.00     0.006 C 
ENDROOT
BRANCH   1   3
ATOM      3  C   UNL     1      99.064  81.776  76.444  1.00  0.00     0.246 C 
ATOM      4  O   UNL     1      99.103  80.550  76.342  1.00  0.00    -0.270 OA
ATOM      5  N   UNL     1      99.183  82.666  75.378  1.00  0.00    -0.339 N 
ATOM      6  C   UNL     1      99.369  82.133  74.024  1.00  0.00     0.120 C 
ATOM      7  C   UNL     1      99.187  84.134  75.467  1.00  0.00     0.120 C 
ATOM      8  C   UNL     1      98.342  82.708  73.054  1.00  0.00     0.022 C 
ATOM      9  C   UNL     1      98.171  84.749  74.504  1.00  0.00     0.022 C 
ATOM     10  C   UNL     1      98.359  84.233  73.080  1.00  0.00     0.004 C 
ENDBRANCH   1   3
BRANCH   2  11
ATOM     11  C   UNL     1      97.365  83.019  79.571  1.00  0.00     0.001 C 
ATOM     12  C   UNL     1      97.213  82.248  80.660  1.00  0.00     0.008 C 
BRANCH  12  13
ATOM     13  C   UNL     1      96.922  82.748  82.015  1.00  0.00    -0.022 A 
ATOM     14  C   UNL     1      97.335  82.005  83.112  1.00  0.00     0.058 A 
ATOM     15  C   UNL     1      96.238  83.958  82.158  1.00  0.00     0.012 A 
ATOM     16  C   UNL     1      97.040  82.514  84.360  1.00  0.00     0.166 A 
ATOM     17  C   UNL     1      95.952  84.450  83.434  1.00  0.00     0.051 A 
ATOM     18  O   UNL     1      97.357  81.938  85.552  1.00  0.00    -0.454 OA
ATOM     19  C   UNL     1      96.367  83.704  84.517  1.00  0.00     0.165 A 
ATOM     20  C   UNL     1      96.808  82.899  86.476  1.00  0.00     0.468 C 
ATOM     21  O   UNL     1      96.178  84.022  85.827  1.00  0.00    -0.454 OA
ENDBRANCH  12  13
ENDBRANCH   2  11
TORSDOF 3
ENDMDL
MODEL 9
REMARK VINA RESULT:    -6.785     17.978     20.728
REMARK INTER + INTRA:          -8.373
REMARK INTER:                  -8.032
REMARK INTRA:                  -0.341
REMARK UNBOUND:                -0.398
REMARK SMILES O=C(/C=C/C=C/c1ccc2c(c1)OCO2)N1CCCCC1
REMARK SMILES IDX 3 1 4 2 2 3 1 4 16 5 17 6 21 7 18 8 20 9 19 10 5 11 6 12
REMARK SMILES IDX 7 13 12 14 8 15 11 16 9 17 13 18 10 19 14 20 15 21
REMARK H PARENT
REMARK Flexibility Score: inf
ROOT
ATOM      1  C   UNL     1      86.362  69.993  72.019  1.00  0.00     0.071 C 
ATOM      2  C   UNL     1      87.467  70.094  71.282  1.00  0.00     0.006 C 
ENDROOT
BRANCH   1   3
ATOM      3  C   UNL     1      86.421  69.185  73.253  1.00  0.00     0.246 C 
ATOM      4  O   UNL     1      87.279  69.481  74.086  1.00  0.00    -0.270 OA
ATOM      5  N   UNL     1      85.507  68.142  73.392  1.00  0.00    -0.339 N 
ATOM      6  C   UNL     1      85.546  67.319  74.604  1.00  0.00     0.120 C 
ATOM      7  C   UNL     1      84.501  67.731  72.402  1.00  0.00     0.120 C 
ATOM      8  C   UNL     1      84.175  67.242  75.269  1.00  0.00     0.022 C 
ATOM      9  C   UNL     1      83.111  67.639  73.032  1.00  0.00     0.022 C 
ATOM     10  C   UNL     1      83.115  66.764  74.282  1.00  0.00     0.004 C 
ENDBRANCH   1   3
BRANCH   2  11
ATOM     11  C   UNL     1      87.507  70.862  70.056  1.00  0.00     0.001 C 
ATOM     12  C   UNL     1      88.612  71.494  69.631  1.00  0.00     0.008 C 
BRANCH  12  13
ATOM     13  C   UNL     1      88.706  72.294  68.398  1.00  0.00    -0.022 A 
ATOM     14  C   UNL     1      89.886  72.970  68.119  1.00  0.00     0.058 A 
ATOM     15  C   UNL     1      87.603  72.352  67.542  1.00  0.00     0.012 A 
ATOM     16  C   UNL     1      89.925  73.706  66.953  1.00  0.00     0.166 A 
ATOM     17  C   UNL     1      87.670  73.104  66.368  1.00  0.00     0.051 A 
ATOM     18  O   UNL     1      90.984  74.436  66.505  1.00  0.00    -0.454 OA
ATOM     19  C   UNL     1      88.847  73.772  66.100  1.00  0.00     0.165 A 
ATOM     20  C   UNL     1      90.451  74.967  65.275  1.00  0.00     0.468 C 
ATOM     21  O   UNL     1      89.095  74.550  65.011  1.00  0.00    -0.454 OA
ENDBRANCH  12  13
ENDBRANCH   2  11
TORSDOF 3
ENDMDL
MODEL 10
REMARK VINA RESULT:    -6.721     10.006     12.231
REMARK INTER + INTRA:          -8.298
REMARK INTER:                  -7.904
REMARK INTRA:                  -0.394
REMARK UNBOUND:                -0.398
REMARK SMILES O=C(/C=C/C=C/c1ccc2c(c1)OCO2)N1CCCCC1
REMARK SMILES IDX 3 1 4 2 2 3 1 4 16 5 17 6 21 7 18 8 20 9 19 10 5 11 6 12
REMARK SMILES IDX 7 13 12 14 8 15 11 16 9 17 13 18 10 19 14 20 15 21
REMARK H PARENT
REMARK Flexibility Score: inf
ROOT
ATOM      1  C   UNL     1      91.119  76.835  83.818  1.00  0.00     0.071 C 
ATOM      2  C   UNL     1      89.901  76.787  84.354  1.00  0.00     0.006 C 
ENDROOT
BRANCH   1   3
ATOM      3  C   UNL     1      91.956  75.621  83.888  1.00  0.00     0.246 C 
ATOM      4  O   UNL     1      91.405  74.537  83.692  1.00  0.00    -0.270 OA
ATOM      5  N   UNL     1      93.310  75.782  84.177  1.00  0.00    -0.339 N 
ATOM      6  C   UNL     1      94.166  74.594  84.259  1.00  0.00     0.120 C 
ATOM      7  C   UNL     1      93.993  77.053  84.462  1.00  0.00     0.120 C 
ATOM      8  C   UNL     1      95.393  74.729  83.363  1.00  0.00     0.022 C 
ATOM      9  C   UNL     1      95.233  77.223  83.584  1.00  0.00     0.022 C 
ATOM     10  C   UNL     1      96.157  76.012  83.672  1.00  0.00     0.004 C 
ENDBRANCH   1   3
BRANCH   2  11
ATOM     11  C   UNL     1      89.007  77.926  84.335  1.00  0.00     0.001 C 
ATOM     12  C   UNL     1      89.412  79.162  84.006  1.00  0.00     0.008 C 
BRANCH  12  13
ATOM     13  C   UNL     1      88.549  80.355  83.978  1.00  0.00    -0.022 A 
ATOM     14  C   UNL     1      88.795  81.389  84.870  1.00  0.00     0.058 A 
ATOM     15  C   UNL     1      87.503  80.413  83.052  1.00  0.00     0.012 A 
ATOM     16  C   UNL     1      87.960  82.485  84.805  1.00  0.00     0.166 A 
ATOM     17  C   UNL     1      86.672  81.535  83.009  1.00  0.00     0.051 A 
ATOM     18  O   UNL     1      88.036  83.594  85.591  1.00  0.00    -0.454 OA
ATOM     19  C   UNL     1      86.926  82.556  83.900  1.00  0.00     0.165 A 
ATOM     20  C   UNL     1      86.935  84.371  85.078  1.00  0.00     0.468 C 
ATOM     21  O   UNL     1      86.226  83.718  84.004  1.00  0.00    -0.454 OA
ENDBRANCH  12  13
ENDBRANCH   2  11
TORSDOF 3
ENDMDL
