MODEL 1
REMARK VINA RESULT:    -7.613      0.000      0.000
REMARK INTER + INTRA:         -13.080
REMARK INTER:                 -12.954
REMARK INTRA:                  -0.126
REMARK UNBOUND:                -0.126
REMARK SMILES C=C(C)[C@]12C[C@@H](C)[C@@]34O[C@](Cc5ccccc5)(O[C@@H]1[C@@H]3C=C(COC(=O)Cc1ccc(O)cc1)C[C@]1(O)C(=O)C(C)=C[C@@H]41)O2
REMARK SMILES IDX 23 1 22 2 21 3 20 4 9 5 8 6 10 7 6 8 18 10 44 11 19 12 5 13
REMARK SMILES IDX 7 14 4 15 11 16 12 17 13 18 17 19 14 20 16 21 15 22 2 23
REMARK SMILES IDX 3 24 1 25 35 26 36 27 43 28 38 29 42 30 39 32 40 33 41 34
REMARK SMILES IDX 37 35 24 37 25 38 26 39 27 40 28 41 29 42 34 43 30 44 33 45
REMARK SMILES IDX 31 46 32 47
REMARK H PARENT 37 36 32 48
REMARK Flexibility Score: 90.00
ROOT
ATOM      1  C   UNL     1      96.249  81.736  84.146  1.00  0.00     0.264 C 
ENDROOT
BRANCH   1   2
ATOM      2  C   UNL     1      95.001  82.113  84.909  1.00  0.00    -0.033 C 
ATOM      3  C   UNL     1      93.892  81.357  84.773  1.00  0.00    -0.015 C 
BRANCH   3   4
ATOM      4  C   UNL     1      92.506  81.562  85.363  1.00  0.00     0.078 C 
ATOM      5  O   UNL     1      92.426  80.283  87.478  1.00  0.00    -0.319 OA
ATOM      6  C   UNL     1      92.361  81.635  86.928  1.00  0.00     0.095 CG0
ATOM      7  C   UNL     1      91.686  79.285  86.748  1.00  0.00     0.289 C 
ATOM      8  C   UNL     1      90.944  82.264  87.250  1.00  0.00     0.023 C 
ATOM      9  G   UNL     1      93.578  82.370  87.562  1.00  0.00     0.000 G0
ATOM     10  O   UNL     1      92.116  79.212  85.391  1.00  0.00    -0.320 OA
ATOM     11  O   UNL     1      90.292  79.575  86.694  1.00  0.00    -0.313 OA
ATOM     12  C   UNL     1      91.558  80.435  84.885  1.00  0.00     0.170 C 
ATOM     13  C   UNL     1      89.883  81.862  86.180  1.00  0.00     0.049 C 
ATOM     14  C   UNL     1      90.390  81.964  88.654  1.00  0.00     0.011 C 
ATOM     15  C   UNL     1      90.176  80.486  85.582  1.00  0.00     0.122 C 
BRANCH   7  16
ATOM     16  C   UNL     1      91.898  77.946  87.426  1.00  0.00     0.135 C 
BRANCH  16  17
ATOM     17  C   UNL     1      90.599  77.333  87.886  1.00  0.00    -0.040 A 
ATOM     18  C   UNL     1      89.990  76.336  87.126  1.00  0.00     0.004 A 
ATOM     19  C   UNL     1      90.008  77.765  89.073  1.00  0.00     0.004 A 
ATOM     20  C   UNL     1      88.788  75.768  87.553  1.00  0.00     0.000 A 
ATOM     21  C   UNL     1      88.806  77.198  89.500  1.00  0.00     0.000 A 
ATOM     22  C   UNL     1      88.197  76.200  88.740  1.00  0.00     0.000 A 
ENDBRANCH  16  17
ENDBRANCH   7  16
BRANCH  15  23
ATOM     23  C   UNL     1      89.079  80.002  84.690  1.00  0.00    -0.046 C 
ATOM     24  C   UNL     1      87.855  80.866  84.618  1.00  0.00     0.042 C 
ATOM     25  C   UNL     1      89.183  78.861  83.994  1.00  0.00     0.010 C 
ENDBRANCH  15  23
ENDBRANCH   3   4
BRANCH   2  26
ATOM     26  C   UNL     1      95.180  83.348  85.772  1.00  0.00     0.078 C 
BRANCH  26  27
ATOM     27  C   UNL     1      94.085  83.651  86.793  1.00  0.00     0.140 C 
ATOM     28  C   UNL     1      93.605  82.383  87.527  1.00  0.00     0.086 CG0
ATOM     29  C   UNL     1      94.579  84.519  87.932  1.00  0.00     0.190 C 
ATOM     30  C   UNL     1      93.569  82.805  88.969  1.00  0.00    -0.010 C 
ATOM     31  G   UNL     1      92.370  81.661  86.912  1.00  0.00     0.000 G0
ATOM     32  O   UNL     1      95.219  85.552  87.808  1.00  0.00    -0.291 OA
ATOM     33  C   UNL     1      94.133  83.987  89.234  1.00  0.00    -0.008 C 
ATOM     34  C   UNL     1      94.349  84.671  90.525  1.00  0.00     0.048 C 
BRANCH  27  35
ATOM     35  O   UNL     1      93.036  84.412  86.218  1.00  0.00    -0.381 OA
ATOM     36  H   UNL     1      92.392  84.622  86.915  1.00  0.00     0.212 HD
ENDBRANCH  27  35
ENDBRANCH  26  27
ENDBRANCH   2  26
ENDBRANCH   1   2
BRANCH   1  37
ATOM     37  O   UNL     1      96.243  82.384  82.892  1.00  0.00    -0.461 OA
BRANCH  37  38
ATOM     38  C   UNL     1      97.322  83.194  82.620  1.00  0.00     0.310 C 
ATOM     39  O   UNL     1      97.461  84.339  83.027  1.00  0.00    -0.252 OA
BRANCH  38  40
ATOM     40  C   UNL     1      98.302  82.450  81.746  1.00  0.00     0.158 C 
BRANCH  40  41
ATOM     41  C   UNL     1      97.957  82.523  80.281  1.00  0.00    -0.037 A 
ATOM     42  C   UNL     1      96.626  82.435  79.873  1.00  0.00     0.008 A 
ATOM     43  C   UNL     1      98.967  82.678  79.333  1.00  0.00     0.008 A 
ATOM     44  C   UNL     1      96.305  82.502  78.517  1.00  0.00     0.046 A 
ATOM     45  C   UNL     1      98.647  82.745  77.976  1.00  0.00     0.046 A 
ATOM     46  C   UNL     1      97.317  82.657  77.569  1.00  0.00     0.115 A 
BRANCH  46  47
ATOM     47  O   UNL     1      97.005  82.722  76.246  1.00  0.00    -0.508 OA
ATOM     48  H   UNL     1      97.599  83.359  75.812  1.00  0.00     0.293 HD
ENDBRANCH  46  47
ENDBRANCH  40  41
ENDBRANCH  38  40
ENDBRANCH  37  38
ENDBRANCH   1  37
TORSDOF 10
ENDMDL
MODEL 2
REMARK VINA RESULT:    -7.504     15.807     20.370
REMARK INTER + INTRA:         -12.894
REMARK INTER:                 -11.686
REMARK INTRA:                  -1.208
REMARK UNBOUND:                -0.126
REMARK SMILES C=C(C)[C@]12C[C@@H](C)[C@@]34O[C@](Cc5ccccc5)(O[C@@H]1[C@@H]3C=C(COC(=O)Cc1ccc(O)cc1)C[C@]1(O)C(=O)C(C)=C[C@@H]41)O2
REMARK SMILES IDX 23 1 22 2 21 3 20 4 9 5 8 6 10 7 6 8 18 10 44 11 19 12 5 13
REMARK SMILES IDX 7 14 4 15 11 16 12 17 13 18 17 19 14 20 16 21 15 22 2 23
REMARK SMILES IDX 3 24 1 25 35 26 36 27 43 28 38 29 42 30 39 32 40 33 41 34
REMARK SMILES IDX 37 35 24 37 25 38 26 39 27 40 28 41 29 42 34 43 30 44 33 45
REMARK SMILES IDX 31 46 32 47
REMARK H PARENT 37 36 32 48
REMARK Flexibility Score: 90.00
ROOT
ATOM      1  C   UNL     1      97.041  96.112  79.687  1.00  0.00     0.264 C 
ENDROOT
BRANCH   1   2
ATOM      2  C   UNL     1      97.356  97.168  78.653  1.00  0.00    -0.033 C 
ATOM      3  C   UNL     1      97.375  96.826  77.347  1.00  0.00    -0.015 C 
BRANCH   3   4
ATOM      4  C   UNL     1      97.733  97.670  76.134  1.00  0.00     0.078 C 
ATOM      5  O   UNL     1      95.621  98.625  75.272  1.00  0.00    -0.319 OA
ATOM      6  C   UNL     1      96.908  98.982  75.866  1.00  0.00     0.095 CG0
ATOM      7  C   UNL     1      95.673  97.604  74.257  1.00  0.00     0.289 C 
ATOM      8  C   UNL     1      97.731  99.864  74.838  1.00  0.00     0.023 C 
ATOM      9  G   UNL     1      96.536  99.686  77.203  1.00  0.00     0.000 G0
ATOM     10  O   UNL     1      96.257  96.405  74.758  1.00  0.00    -0.320 OA
ATOM     11  O   UNL     1      96.477  97.987  73.144  1.00  0.00    -0.313 OA
ATOM     12  C   UNL     1      97.631  96.813  74.849  1.00  0.00     0.170 C 
ATOM     13  C   UNL     1      98.528  98.978  73.833  1.00  0.00     0.049 C 
ATOM     14  C   UNL     1      96.912 100.908  74.059  1.00  0.00     0.011 C 
ATOM     15  C   UNL     1      97.817  97.651  73.561  1.00  0.00     0.122 C 
BRANCH   7  16
ATOM     16  C   UNL     1      94.259  97.329  73.787  1.00  0.00     0.135 C 
BRANCH  16  17
ATOM     17  C   UNL     1      93.742  98.416  72.878  1.00  0.00    -0.040 A 
ATOM     18  C   UNL     1      93.292  99.621  73.416  1.00  0.00     0.004 A 
ATOM     19  C   UNL     1      93.716  98.215  71.498  1.00  0.00     0.004 A 
ATOM     20  C   UNL     1      92.815 100.626  72.575  1.00  0.00     0.000 A 
ATOM     21  C   UNL     1      93.239  99.221  70.656  1.00  0.00     0.000 A 
ATOM     22  C   UNL     1      92.789 100.426  71.195  1.00  0.00     0.000 A 
ENDBRANCH  16  17
ENDBRANCH   7  16
BRANCH  15  23
ATOM     23  C   UNL     1      98.466  96.866  72.468  1.00  0.00    -0.046 C 
ATOM     24  C   UNL     1      99.950  97.033  72.325  1.00  0.00     0.042 C 
ATOM     25  C   UNL     1      97.763  96.059  71.661  1.00  0.00     0.010 C 
ENDBRANCH  15  23
ENDBRANCH   3   4
BRANCH   2  26
ATOM     26  C   UNL     1      97.611  98.536  79.256  1.00  0.00     0.078 C 
BRANCH  26  27
ATOM     27  C   UNL     1      97.681  99.721  78.295  1.00  0.00     0.140 C 
ATOM     28  C   UNL     1      96.565  99.677  77.231  1.00  0.00     0.086 CG0
ATOM     29  C   UNL     1      97.422 101.044  78.984  1.00  0.00     0.190 C 
ATOM     30  C   UNL     1      96.036 101.084  77.220  1.00  0.00    -0.010 C 
ATOM     31  G   UNL     1      96.928  98.987  75.884  1.00  0.00     0.000 G0
ATOM     32  O   UNL     1      97.952 101.419  80.019  1.00  0.00    -0.291 OA
ATOM     33  C   UNL     1      96.476 101.868  78.209  1.00  0.00    -0.008 C 
ATOM     34  C   UNL     1      96.113 103.259  78.554  1.00  0.00     0.048 C 
BRANCH  27  35
ATOM     35  O   UNL     1      98.983  99.872  77.752  1.00  0.00    -0.381 OA
ATOM     36  H   UNL     1      98.910  99.898  76.783  1.00  0.00     0.212 HD
ENDBRANCH  27  35
ENDBRANCH  26  27
ENDBRANCH   2  26
ENDBRANCH   1   2
BRANCH   1  37
ATOM     37  O   UNL     1      95.691  95.719  79.557  1.00  0.00    -0.461 OA
BRANCH  37  38
ATOM     38  C   UNL     1      95.454  94.364  79.520  1.00  0.00     0.310 C 
ATOM     39  O   UNL     1      95.020  93.702  80.452  1.00  0.00    -0.252 OA
BRANCH  38  40
ATOM     40  C   UNL     1      95.813  93.826  78.156  1.00  0.00     0.158 C 
BRANCH  40  41
ATOM     41  C   UNL     1      94.641  93.795  77.210  1.00  0.00    -0.037 A 
ATOM     42  C   UNL     1      93.340  93.759  77.712  1.00  0.00     0.008 A 
ATOM     43  C   UNL     1      94.856  93.802  75.832  1.00  0.00     0.008 A 
ATOM     44  C   UNL     1      92.254  93.729  76.836  1.00  0.00     0.046 A 
ATOM     45  C   UNL     1      93.770  93.772  74.955  1.00  0.00     0.046 A 
ATOM     46  C   UNL     1      92.470  93.735  75.457  1.00  0.00     0.115 A 
BRANCH  46  47
ATOM     47  O   UNL     1      91.411  93.706  74.603  1.00  0.00    -0.508 OA
ATOM     48  H   UNL     1      90.606  93.492  75.106  1.00  0.00     0.293 HD
ENDBRANCH  46  47
ENDBRANCH  40  41
ENDBRANCH  38  40
ENDBRANCH  37  38
ENDBRANCH   1  37
TORSDOF 10
ENDMDL
MODEL 3
REMARK VINA RESULT:    -7.440      2.127      3.774
REMARK INTER + INTRA:         -12.785
REMARK INTER:                 -11.363
REMARK INTRA:                  -1.422
REMARK UNBOUND:                -0.126
REMARK SMILES C=C(C)[C@]12C[C@@H](C)[C@@]34O[C@](Cc5ccccc5)(O[C@@H]1[C@@H]3C=C(COC(=O)Cc1ccc(O)cc1)C[C@]1(O)C(=O)C(C)=C[C@@H]41)O2
REMARK SMILES IDX 23 1 22 2 21 3 20 4 9 5 8 6 10 7 6 8 18 10 44 11 19 12 5 13
REMARK SMILES IDX 7 14 4 15 11 16 12 17 13 18 17 19 14 20 16 21 15 22 2 23
REMARK SMILES IDX 3 24 1 25 35 26 36 27 43 28 38 29 42 30 39 32 40 33 41 34
REMARK SMILES IDX 37 35 24 37 25 38 26 39 27 40 28 41 29 42 34 43 30 44 33 45
REMARK SMILES IDX 31 46 32 47
REMARK H PARENT 37 36 32 48
REMARK Flexibility Score: 90.00
ROOT
ATOM      1  C   UNL     1      94.310  85.122  85.933  1.00  0.00     0.264 C 
ENDROOT
BRANCH   1   2
ATOM      2  C   UNL     1      93.159  84.404  86.599  1.00  0.00    -0.033 C 
ATOM      3  C   UNL     1      92.630  83.314  86.006  1.00  0.00    -0.015 C 
BRANCH   3   4
ATOM      4  C   UNL     1      91.437  82.470  86.426  1.00  0.00     0.078 C 
ATOM      5  O   UNL     1      92.319  80.598  87.780  1.00  0.00    -0.319 OA
ATOM      6  C   UNL     1      91.466  81.784  87.841  1.00  0.00     0.095 CG0
ATOM      7  C   UNL     1      92.155  79.782  86.603  1.00  0.00     0.289 C 
ATOM      8  C   UNL     1      89.985  81.346  88.192  1.00  0.00     0.023 C 
ATOM      9  G   UNL     1      92.157  82.705  88.888  1.00  0.00     0.000 G0
ATOM     10  O   UNL     1      92.389  80.534  85.416  1.00  0.00    -0.320 OA
ATOM     11  O   UNL     1      90.832  79.268  86.480  1.00  0.00    -0.313 OA
ATOM     12  C   UNL     1      91.201  81.341  85.392  1.00  0.00     0.170 C 
ATOM     13  C   UNL     1      89.191  80.936  86.914  1.00  0.00     0.049 C 
ATOM     14  C   UNL     1      89.856  80.236  89.249  1.00  0.00     0.011 C 
ATOM     15  C   UNL     1      90.108  80.342  85.844  1.00  0.00     0.122 C 
BRANCH   7  16
ATOM     16  C   UNL     1      93.138  78.631  86.684  1.00  0.00     0.135 C 
BRANCH  16  17
ATOM     17  C   UNL     1      94.519  79.032  86.227  1.00  0.00    -0.040 A 
ATOM     18  C   UNL     1      95.347  79.769  87.072  1.00  0.00     0.004 A 
ATOM     19  C   UNL     1      94.966  78.664  84.958  1.00  0.00     0.004 A 
ATOM     20  C   UNL     1      96.624  80.140  86.649  1.00  0.00     0.000 A 
ATOM     21  C   UNL     1      96.244  79.035  84.535  1.00  0.00     0.000 A 
ATOM     22  C   UNL     1      97.072  79.772  85.381  1.00  0.00     0.000 A 
ENDBRANCH  16  17
ENDBRANCH   7  16
BRANCH  15  23
ATOM     23  C   UNL     1      89.350  79.778  84.687  1.00  0.00    -0.046 C 
ATOM     24  C   UNL     1      88.087  80.494  84.311  1.00  0.00     0.042 C 
ATOM     25  C   UNL     1      89.774  78.694  84.022  1.00  0.00     0.010 C 
ENDBRANCH  15  23
ENDBRANCH   3   4
BRANCH   2  26
ATOM     26  C   UNL     1      92.742  85.039  87.912  1.00  0.00     0.078 C 
BRANCH  26  27
ATOM     27  C   UNL     1      91.783  84.244  88.798  1.00  0.00     0.140 C 
ATOM     28  C   UNL     1      92.160  82.750  88.872  1.00  0.00     0.086 CG0
ATOM     29  C   UNL     1      91.849  84.669  90.250  1.00  0.00     0.190 C 
ATOM     30  C   UNL     1      92.063  82.437  90.339  1.00  0.00    -0.010 C 
ATOM     31  G   UNL     1      91.460  81.815  87.844  1.00  0.00     0.000 G0
ATOM     32  O   UNL     1      91.802  85.821  90.653  1.00  0.00    -0.291 OA
ATOM     33  C   UNL     1      91.916  83.496  91.142  1.00  0.00    -0.008 C 
ATOM     34  C   UNL     1      91.869  83.573  92.617  1.00  0.00     0.048 C 
BRANCH  27  35
ATOM     35  O   UNL     1      90.432  84.477  88.438  1.00  0.00    -0.381 OA
ATOM     36  H   UNL     1      90.181  83.832  87.754  1.00  0.00     0.212 HD
ENDBRANCH  27  35
ENDBRANCH  26  27
ENDBRANCH   2  26
ENDBRANCH   1   2
BRANCH   1  37
ATOM     37  O   UNL     1      95.376  84.216  85.741  1.00  0.00    -0.461 OA
BRANCH  37  38
ATOM     38  C   UNL     1      95.949  84.208  84.490  1.00  0.00     0.310 C 
ATOM     39  O   UNL     1      96.387  85.192  83.912  1.00  0.00    -0.252 OA
BRANCH  38  40
ATOM     40  C   UNL     1      95.952  82.799  83.947  1.00  0.00     0.158 C 
BRANCH  40  41
ATOM     41  C   UNL     1      96.943  82.602  82.830  1.00  0.00    -0.037 A 
ATOM     42  C   UNL     1      98.273  82.296  83.123  1.00  0.00     0.008 A 
ATOM     43  C   UNL     1      96.533  82.726  81.503  1.00  0.00     0.008 A 
ATOM     44  C   UNL     1      99.191  82.114  82.089  1.00  0.00     0.046 A 
ATOM     45  C   UNL     1      97.451  82.544  80.468  1.00  0.00     0.046 A 
ATOM     46  C   UNL     1      98.780  82.238  80.761  1.00  0.00     0.115 A 
BRANCH  46  47
ATOM     47  O   UNL     1      99.676  82.061  79.752  1.00  0.00    -0.508 OA
ATOM     48  H   UNL     1     100.273  81.330  79.986  1.00  0.00     0.293 HD
ENDBRANCH  46  47
ENDBRANCH  40  41
ENDBRANCH  38  40
ENDBRANCH  37  38
ENDBRANCH   1  37
TORSDOF 10
ENDMDL
MODEL 4
REMARK VINA RESULT:    -7.173      1.194      2.071
REMARK INTER + INTRA:         -12.331
REMARK INTER:                 -12.219
REMARK INTRA:                  -0.112
REMARK UNBOUND:                -0.126
REMARK SMILES C=C(C)[C@]12C[C@@H](C)[C@@]34O[C@](Cc5ccccc5)(O[C@@H]1[C@@H]3C=C(COC(=O)Cc1ccc(O)cc1)C[C@]1(O)C(=O)C(C)=C[C@@H]41)O2
REMARK SMILES IDX 23 1 22 2 21 3 20 4 9 5 8 6 10 7 6 8 18 10 44 11 19 12 5 13
REMARK SMILES IDX 7 14 4 15 11 16 12 17 13 18 17 19 14 20 16 21 15 22 2 23
REMARK SMILES IDX 3 24 1 25 35 26 36 27 43 28 38 29 42 30 39 32 40 33 41 34
REMARK SMILES IDX 37 35 24 37 25 38 26 39 27 40 28 41 29 42 34 43 30 44 33 45
REMARK SMILES IDX 31 46 32 47
REMARK H PARENT 37 36 32 48
REMARK Flexibility Score: 90.00
ROOT
ATOM      1  C   UNL     1      96.236  81.722  84.150  1.00  0.00     0.264 C 
ENDROOT
BRANCH   1   2
ATOM      2  C   UNL     1      95.000  82.088  84.938  1.00  0.00    -0.033 C 
ATOM      3  C   UNL     1      93.886  81.339  84.802  1.00  0.00    -0.015 C 
BRANCH   3   4
ATOM      4  C   UNL     1      92.508  81.537  85.414  1.00  0.00     0.078 C 
ATOM      5  O   UNL     1      92.471  80.263  87.533  1.00  0.00    -0.319 OA
ATOM      6  C   UNL     1      92.390  81.614  86.981  1.00  0.00     0.095 CG0
ATOM      7  C   UNL     1      91.726  79.259  86.817  1.00  0.00     0.289 C 
ATOM      8  C   UNL     1      90.974  82.235  87.325  1.00  0.00     0.023 C 
ATOM      9  G   UNL     1      93.613  82.357  87.593  1.00  0.00     0.000 G0
ATOM     10  O   UNL     1      92.134  79.185  85.454  1.00  0.00    -0.320 OA
ATOM     11  O   UNL     1      90.329  79.541  86.786  1.00  0.00    -0.313 OA
ATOM     12  C   UNL     1      91.560  80.403  84.954  1.00  0.00     0.170 C 
ATOM     13  C   UNL     1      89.898  81.824  86.273  1.00  0.00     0.049 C 
ATOM     14  C   UNL     1      90.445  81.936  88.738  1.00  0.00     0.011 C 
ATOM     15  C   UNL     1      90.190  80.448  85.673  1.00  0.00     0.122 C 
BRANCH   7  16
ATOM     16  C   UNL     1      91.956  77.923  87.495  1.00  0.00     0.135 C 
BRANCH  16  17
ATOM     17  C   UNL     1      93.400  77.729  87.888  1.00  0.00    -0.040 A 
ATOM     18  C   UNL     1      94.382  77.621  86.905  1.00  0.00     0.004 A 
ATOM     19  C   UNL     1      93.750  77.658  89.236  1.00  0.00     0.004 A 
ATOM     20  C   UNL     1      95.717  77.442  87.270  1.00  0.00     0.000 A 
ATOM     21  C   UNL     1      95.085  77.479  89.601  1.00  0.00     0.000 A 
ATOM     22  C   UNL     1      96.068  77.371  88.617  1.00  0.00     0.000 A 
ENDBRANCH  16  17
ENDBRANCH   7  16
BRANCH  15  23
ATOM     23  C   UNL     1      89.081  79.956  84.801  1.00  0.00    -0.046 C 
ATOM     24  C   UNL     1      87.835  80.791  84.780  1.00  0.00     0.042 C 
ATOM     25  C   UNL     1      89.193  78.831  84.079  1.00  0.00     0.010 C 
ENDBRANCH  15  23
ENDBRANCH   3   4
BRANCH   2  26
ATOM     26  C   UNL     1      95.195  83.305  85.822  1.00  0.00     0.078 C 
BRANCH  26  27
ATOM     27  C   UNL     1      94.091  83.620  86.830  1.00  0.00     0.140 C 
ATOM     28  C   UNL     1      93.625  82.365  87.597  1.00  0.00     0.086 CG0
ATOM     29  C   UNL     1      94.567  84.526  87.946  1.00  0.00     0.190 C 
ATOM     30  C   UNL     1      93.576  82.827  89.027  1.00  0.00    -0.010 C 
ATOM     31  G   UNL     1      92.404  81.609  86.996  1.00  0.00     0.000 G0
ATOM     32  O   UNL     1      95.193  85.565  87.798  1.00  0.00    -0.291 OA
ATOM     33  C   UNL     1      94.122  84.024  89.260  1.00  0.00    -0.008 C 
ATOM     34  C   UNL     1      94.322  84.746  90.534  1.00  0.00     0.048 C 
BRANCH  27  35
ATOM     35  O   UNL     1      93.034  84.350  86.229  1.00  0.00    -0.381 OA
ATOM     36  H   UNL     1      92.213  83.839  86.329  1.00  0.00     0.212 HD
ENDBRANCH  27  35
ENDBRANCH  26  27
ENDBRANCH   2  26
ENDBRANCH   1   2
BRANCH   1  37
ATOM     37  O   UNL     1      96.191  82.355  82.890  1.00  0.00    -0.461 OA
BRANCH  37  38
ATOM     38  C   UNL     1      97.278  83.134  82.562  1.00  0.00     0.310 C 
ATOM     39  O   UNL     1      97.461  84.281  82.944  1.00  0.00    -0.252 OA
BRANCH  38  40
ATOM     40  C   UNL     1      98.203  82.352  81.660  1.00  0.00     0.158 C 
BRANCH  40  41
ATOM     41  C   UNL     1      97.899  82.545  80.197  1.00  0.00    -0.037 A 
ATOM     42  C   UNL     1      96.577  82.547  79.754  1.00  0.00     0.008 A 
ATOM     43  C   UNL     1      98.940  82.721  79.285  1.00  0.00     0.008 A 
ATOM     44  C   UNL     1      96.295  82.725  78.399  1.00  0.00     0.046 A 
ATOM     45  C   UNL     1      98.659  82.899  77.930  1.00  0.00     0.046 A 
ATOM     46  C   UNL     1      97.337  82.901  77.487  1.00  0.00     0.115 A 
BRANCH  46  47
ATOM     47  O   UNL     1      97.062  83.073  76.166  1.00  0.00    -0.508 OA
ATOM     48  H   UNL     1      97.786  83.579  75.756  1.00  0.00     0.293 HD
ENDBRANCH  46  47
ENDBRANCH  40  41
ENDBRANCH  38  40
ENDBRANCH  37  38
ENDBRANCH   1  37
TORSDOF 10
ENDMDL
MODEL 5
REMARK VINA RESULT:    -7.085      3.813      7.846
REMARK INTER + INTRA:         -12.180
REMARK INTER:                 -11.396
REMARK INTRA:                  -0.784
REMARK UNBOUND:                -0.126
REMARK SMILES C=C(C)[C@]12C[C@@H](C)[C@@]34O[C@](Cc5ccccc5)(O[C@@H]1[C@@H]3C=C(COC(=O)Cc1ccc(O)cc1)C[C@]1(O)C(=O)C(C)=C[C@@H]41)O2
REMARK SMILES IDX 23 1 22 2 21 3 20 4 9 5 8 6 10 7 6 8 18 10 44 11 19 12 5 13
REMARK SMILES IDX 7 14 4 15 11 16 12 17 13 18 17 19 14 20 16 21 15 22 2 23
REMARK SMILES IDX 3 24 1 25 35 26 36 27 43 28 38 29 42 30 39 32 40 33 41 34
REMARK SMILES IDX 37 35 24 37 25 38 26 39 27 40 28 41 29 42 34 43 30 44 33 45
REMARK SMILES IDX 31 46 32 47
REMARK H PARENT 37 36 32 48
REMARK Flexibility Score: 90.00
ROOT
ATOM      1  C   UNL     1      96.307  82.656  78.560  1.00  0.00     0.264 C 
ENDROOT
BRANCH   1   2
ATOM      2  C   UNL     1      97.260  82.184  79.634  1.00  0.00    -0.033 C 
ATOM      3  C   UNL     1      96.979  82.449  80.927  1.00  0.00    -0.015 C 
BRANCH   3   4
ATOM      4  C   UNL     1      97.800  82.155  82.173  1.00  0.00     0.078 C 
ATOM      5  O   UNL     1      97.045  79.962  83.032  1.00  0.00    -0.319 OA
ATOM      6  C   UNL     1      98.199  80.663  82.471  1.00  0.00     0.095 CG0
ATOM      7  C   UNL     1      96.294  80.702  84.014  1.00  0.00     0.289 C 
ATOM      8  C   UNL     1      99.369  80.684  83.539  1.00  0.00     0.023 C 
ATOM      9  G   UNL     1      98.513  79.900  81.151  1.00  0.00     0.000 G0
ATOM     10  O   UNL     1      95.823  81.937  83.483  1.00  0.00    -0.320 OA
ATOM     11  O   UNL     1      97.081  81.047  85.152  1.00  0.00    -0.313 OA
ATOM     12  C   UNL     1      97.055  82.673  83.428  1.00  0.00     0.170 C 
ATOM     13  C   UNL     1      99.220  81.881  84.527  1.00  0.00     0.049 C 
ATOM     14  C   UNL     1      99.558  79.384  84.339  1.00  0.00     0.011 C 
ATOM     15  C   UNL     1      97.754  82.257  84.745  1.00  0.00     0.122 C 
BRANCH   7  16
ATOM     16  C   UNL     1      95.119  79.850  84.453  1.00  0.00     0.135 C 
BRANCH  16  17
ATOM     17  C   UNL     1      94.200  80.593  85.390  1.00  0.00    -0.040 A 
ATOM     18  C   UNL     1      94.562  80.774  86.725  1.00  0.00     0.004 A 
ATOM     19  C   UNL     1      92.989  81.100  84.921  1.00  0.00     0.004 A 
ATOM     20  C   UNL     1      93.712  81.461  87.592  1.00  0.00     0.000 A 
ATOM     21  C   UNL     1      92.138  81.787  85.788  1.00  0.00     0.000 A 
ATOM     22  C   UNL     1      92.500  81.968  87.123  1.00  0.00     0.000 A 
ENDBRANCH  16  17
ENDBRANCH   7  16
BRANCH  15  23
ATOM     23  C   UNL     1      97.576  83.277  85.822  1.00  0.00    -0.046 C 
ATOM     24  C   UNL     1      96.426  84.225  85.652  1.00  0.00     0.042 C 
ATOM     25  C   UNL     1      98.399  83.343  86.879  1.00  0.00     0.010 C 
ENDBRANCH  15  23
ENDBRANCH   3   4
BRANCH   2  26
ATOM     26  C   UNL     1      98.456  81.432  79.081  1.00  0.00     0.078 C 
BRANCH  26  27
ATOM     27  C   UNL     1      99.322  80.666  80.079  1.00  0.00     0.140 C 
ATOM     28  C   UNL     1      98.476  79.916  81.130  1.00  0.00     0.086 CG0
ATOM     29  C   UNL     1     100.102  79.544  79.429  1.00  0.00     0.190 C 
ATOM     30  C   UNL     1      99.108  78.553  81.179  1.00  0.00    -0.010 C 
ATOM     31  G   UNL     1      98.200  80.678  82.459  1.00  0.00     0.000 G0
ATOM     32  O   UNL     1     100.772  79.645  78.411  1.00  0.00    -0.291 OA
ATOM     33  C   UNL     1     100.005  78.303  80.220  1.00  0.00    -0.008 C 
ATOM     34  C   UNL     1     100.751  77.065  79.915  1.00  0.00     0.048 C 
BRANCH  27  35
ATOM     35  O   UNL     1     100.325  81.497  80.639  1.00  0.00    -0.381 OA
ATOM     36  H   UNL     1     100.418  81.273  81.581  1.00  0.00     0.212 HD
ENDBRANCH  27  35
ENDBRANCH  26  27
ENDBRANCH   2  26
ENDBRANCH   1   2
BRANCH   1  37
ATOM     37  O   UNL     1      96.757  82.198  77.303  1.00  0.00    -0.461 OA
BRANCH  37  38
ATOM     38  C   UNL     1      97.101  83.168  76.390  1.00  0.00     0.310 C 
ATOM     39  O   UNL     1      97.151  84.367  76.626  1.00  0.00    -0.252 OA
BRANCH  38  40
ATOM     40  C   UNL     1      97.404  82.523  75.059  1.00  0.00     0.158 C 
BRANCH  40  41
ATOM     41  C   UNL     1      98.847  82.114  74.920  1.00  0.00    -0.037 A 
ATOM     42  C   UNL     1      99.214  80.779  75.089  1.00  0.00     0.008 A 
ATOM     43  C   UNL     1      99.817  83.071  74.621  1.00  0.00     0.008 A 
ATOM     44  C   UNL     1     100.551  80.401  74.960  1.00  0.00     0.046 A 
ATOM     45  C   UNL     1     101.154  82.693  74.492  1.00  0.00     0.046 A 
ATOM     46  C   UNL     1     101.521  81.359  74.662  1.00  0.00     0.115 A 
BRANCH  46  47
ATOM     47  O   UNL     1     102.825  80.989  74.537  1.00  0.00    -0.508 OA
ATOM     48  H   UNL     1     102.977  80.185  75.062  1.00  0.00     0.293 HD
ENDBRANCH  46  47
ENDBRANCH  40  41
ENDBRANCH  38  40
ENDBRANCH  37  38
ENDBRANCH   1  37
TORSDOF 10
ENDMDL
MODEL 6
REMARK VINA RESULT:    -6.897     13.604     16.692
REMARK INTER + INTRA:         -11.861
REMARK INTER:                  -9.284
REMARK INTRA:                  -2.577
REMARK UNBOUND:                -0.126
REMARK SMILES C=C(C)[C@]12C[C@@H](C)[C@@]34O[C@](Cc5ccccc5)(O[C@@H]1[C@@H]3C=C(COC(=O)Cc1ccc(O)cc1)C[C@]1(O)C(=O)C(C)=C[C@@H]41)O2
REMARK SMILES IDX 23 1 22 2 21 3 20 4 9 5 8 6 10 7 6 8 18 10 44 11 19 12 5 13
REMARK SMILES IDX 7 14 4 15 11 16 12 17 13 18 17 19 14 20 16 21 15 22 2 23
REMARK SMILES IDX 3 24 1 25 35 26 36 27 43 28 38 29 42 30 39 32 40 33 41 34
REMARK SMILES IDX 37 35 24 37 25 38 26 39 27 40 28 41 29 42 34 43 30 44 33 45
REMARK SMILES IDX 31 46 32 47
REMARK H PARENT 37 36 32 48
REMARK Flexibility Score: 90.00
ROOT
ATOM      1  C   UNL     1      84.194  92.159  86.300  1.00  0.00     0.264 C 
ENDROOT
BRANCH   1   2
ATOM      2  C   UNL     1      83.533  90.866  86.720  1.00  0.00    -0.033 C 
ATOM      3  C   UNL     1      83.265  90.657  88.026  1.00  0.00    -0.015 C 
BRANCH   3   4
ATOM      4  C   UNL     1      82.683  89.428  88.707  1.00  0.00     0.078 C 
ATOM      5  O   UNL     1      80.235  89.761  88.825  1.00  0.00    -0.319 OA
ATOM      6  C   UNL     1      81.272  88.912  88.241  1.00  0.00     0.095 CG0
ATOM      7  C   UNL     1      80.436  90.115  90.207  1.00  0.00     0.289 C 
ATOM      8  C   UNL     1      81.102  87.432  88.780  1.00  0.00     0.023 C 
ATOM      9  G   UNL     1      81.098  89.088  86.705  1.00  0.00     0.000 G0
ATOM     10  O   UNL     1      81.683  90.778  90.396  1.00  0.00    -0.320 OA
ATOM     11  O   UNL     1      80.475  88.973  91.060  1.00  0.00    -0.313 OA
ATOM     12  C   UNL     1      82.584  89.671  90.233  1.00  0.00     0.170 C 
ATOM     13  C   UNL     1      81.821  87.235  90.149  1.00  0.00     0.049 C 
ATOM     14  C   UNL     1      79.651  86.931  88.889  1.00  0.00     0.011 C 
ATOM     15  C   UNL     1      81.843  88.527  90.968  1.00  0.00     0.122 C 
BRANCH   7  16
ATOM     16  C   UNL     1      79.302  91.025  90.634  1.00  0.00     0.135 C 
BRANCH  16  17
ATOM     17  C   UNL     1      79.797  92.227  91.399  1.00  0.00    -0.040 A 
ATOM     18  C   UNL     1      79.754  93.492  90.815  1.00  0.00     0.004 A 
ATOM     19  C   UNL     1      80.297  92.071  92.692  1.00  0.00     0.004 A 
ATOM     20  C   UNL     1      80.211  94.604  91.524  1.00  0.00     0.000 A 
ATOM     21  C   UNL     1      80.755  93.183  93.400  1.00  0.00     0.000 A 
ATOM     22  C   UNL     1      80.712  94.448  92.816  1.00  0.00     0.000 A 
ENDBRANCH  16  17
ENDBRANCH   7  16
BRANCH  15  23
ATOM     23  C   UNL     1      82.364  88.319  92.353  1.00  0.00    -0.046 C 
ATOM     24  C   UNL     1      81.388  88.551  93.468  1.00  0.00     0.042 C 
ATOM     25  C   UNL     1      83.631  87.948  92.586  1.00  0.00     0.010 C 
ENDBRANCH  15  23
ENDBRANCH   3   4
BRANCH   2  26
ATOM     26  C   UNL     1      83.240  89.940  85.554  1.00  0.00     0.078 C 
BRANCH  26  27
ATOM     27  C   UNL     1      82.359  88.724  85.833  1.00  0.00     0.140 C 
ATOM     28  C   UNL     1      81.121  89.083  86.682  1.00  0.00     0.086 CG0
ATOM     29  C   UNL     1      81.737  88.158  84.574  1.00  0.00     0.190 C 
ATOM     30  C   UNL     1      79.995  88.387  85.969  1.00  0.00    -0.010 C 
ATOM     31  G   UNL     1      81.273  88.911  88.221  1.00  0.00     0.000 G0
ATOM     32  O   UNL     1      82.336  87.909  83.539  1.00  0.00    -0.291 OA
ATOM     33  C   UNL     1      80.301  87.882  84.770  1.00  0.00    -0.008 C 
ATOM     34  C   UNL     1      79.441  87.216  83.771  1.00  0.00     0.048 C 
BRANCH  27  35
ATOM     35  O   UNL     1      83.116  87.643  86.352  1.00  0.00    -0.381 OA
ATOM     36  H   UNL     1      83.250  87.792  87.303  1.00  0.00     0.212 HD
ENDBRANCH  27  35
ENDBRANCH  26  27
ENDBRANCH   2  26
ENDBRANCH   1   2
BRANCH   1  37
ATOM     37  O   UNL     1      84.369  92.983  87.433  1.00  0.00    -0.461 OA
BRANCH  37  38
ATOM     38  C   UNL     1      83.738  94.205  87.399  1.00  0.00     0.310 C 
ATOM     39  O   UNL     1      83.936  95.074  86.562  1.00  0.00    -0.252 OA
BRANCH  38  40
ATOM     40  C   UNL     1      82.768  94.303  88.551  1.00  0.00     0.158 C 
BRANCH  40  41
ATOM     41  C   UNL     1      83.453  94.418  89.888  1.00  0.00    -0.037 A 
ATOM     42  C   UNL     1      83.676  93.277  90.659  1.00  0.00     0.008 A 
ATOM     43  C   UNL     1      83.864  95.666  90.356  1.00  0.00     0.008 A 
ATOM     44  C   UNL     1      84.309  93.384  91.898  1.00  0.00     0.046 A 
ATOM     45  C   UNL     1      84.499  95.774  91.594  1.00  0.00     0.046 A 
ATOM     46  C   UNL     1      84.721  94.633  92.365  1.00  0.00     0.115 A 
BRANCH  46  47
ATOM     47  O   UNL     1      85.338  94.737  93.573  1.00  0.00    -0.508 OA
ATOM     48  H   UNL     1      84.842  94.215  94.227  1.00  0.00     0.293 HD
ENDBRANCH  46  47
ENDBRANCH  40  41
ENDBRANCH  38  40
ENDBRANCH  37  38
ENDBRANCH   1  37
TORSDOF 10
ENDMDL
MODEL 7
REMARK VINA RESULT:    -6.877      3.332      7.910
REMARK INTER + INTRA:         -11.827
REMARK INTER:                  -9.912
REMARK INTRA:                  -1.915
REMARK UNBOUND:                -0.126
REMARK SMILES C=C(C)[C@]12C[C@@H](C)[C@@]34O[C@](Cc5ccccc5)(O[C@@H]1[C@@H]3C=C(COC(=O)Cc1ccc(O)cc1)C[C@]1(O)C(=O)C(C)=C[C@@H]41)O2
REMARK SMILES IDX 23 1 22 2 21 3 20 4 9 5 8 6 10 7 6 8 18 10 44 11 19 12 5 13
REMARK SMILES IDX 7 14 4 15 11 16 12 17 13 18 17 19 14 20 16 21 15 22 2 23
REMARK SMILES IDX 3 24 1 25 35 26 36 27 43 28 38 29 42 30 39 32 40 33 41 34
REMARK SMILES IDX 37 35 24 37 25 38 26 39 27 40 28 41 29 42 34 43 30 44 33 45
REMARK SMILES IDX 31 46 32 47
REMARK H PARENT 37 36 32 48
REMARK Flexibility Score: 90.00
ROOT
ATOM      1  C   UNL     1      96.476  80.865  88.536  1.00  0.00     0.264 C 
ENDROOT
BRANCH   1   2
ATOM      2  C   UNL     1      95.157  81.518  88.879  1.00  0.00    -0.033 C 
ATOM      3  C   UNL     1      95.157  82.712  89.508  1.00  0.00    -0.015 C 
BRANCH   3   4
ATOM      4  C   UNL     1      93.984  83.531  90.024  1.00  0.00     0.078 C 
ATOM      5  O   UNL     1      93.343  85.090  88.215  1.00  0.00    -0.319 OA
ATOM      6  C   UNL     1      92.864  83.958  89.006  1.00  0.00     0.095 CG0
ATOM      7  C   UNL     1      94.046  86.105  88.956  1.00  0.00     0.289 C 
ATOM      8  C   UNL     1      91.597  84.405  89.846  1.00  0.00     0.023 C 
ATOM      9  G   UNL     1      92.609  82.834  87.960  1.00  0.00     0.000 G0
ATOM     10  O   UNL     1      95.171  85.561  89.641  1.00  0.00    -0.320 OA
ATOM     11  O   UNL     1      93.233  86.702  89.964  1.00  0.00    -0.313 OA
ATOM     12  C   UNL     1      94.502  84.833  90.683  1.00  0.00     0.170 C 
ATOM     13  C   UNL     1      92.011  85.072  91.194  1.00  0.00     0.049 C 
ATOM     14  C   UNL     1      90.604  85.319  89.109  1.00  0.00     0.011 C 
ATOM     15  C   UNL     1      93.354  85.794  91.079  1.00  0.00     0.122 C 
BRANCH   7  16
ATOM     16  C   UNL     1      94.506  87.172  87.982  1.00  0.00     0.135 C 
BRANCH  16  17
ATOM     17  C   UNL     1      94.566  88.536  88.623  1.00  0.00    -0.040 A 
ATOM     18  C   UNL     1      95.726  88.949  89.277  1.00  0.00     0.004 A 
ATOM     19  C   UNL     1      93.461  89.384  88.560  1.00  0.00     0.004 A 
ATOM     20  C   UNL     1      95.782  90.211  89.870  1.00  0.00     0.000 A 
ATOM     21  C   UNL     1      93.517  90.646  89.153  1.00  0.00     0.000 A 
ATOM     22  C   UNL     1      94.677  91.059  89.807  1.00  0.00     0.000 A 
ENDBRANCH  16  17
ENDBRANCH   7  16
BRANCH  15  23
ATOM     23  C   UNL     1      93.684  86.590  92.300  1.00  0.00    -0.046 C 
ATOM     24  C   UNL     1      92.876  87.836  92.515  1.00  0.00     0.042 C 
ATOM     25  C   UNL     1      94.647  86.213  93.154  1.00  0.00     0.010 C 
ENDBRANCH  15  23
ENDBRANCH   3   4
BRANCH   2  26
ATOM     26  C   UNL     1      93.955  80.703  88.439  1.00  0.00     0.078 C 
BRANCH  26  27
ATOM     27  C   UNL     1      92.590  81.384  88.499  1.00  0.00     0.140 C 
ATOM     28  C   UNL     1      92.636  82.832  87.969  1.00  0.00     0.086 CG0
ATOM     29  C   UNL     1      91.576  80.734  87.581  1.00  0.00     0.190 C 
ATOM     30  C   UNL     1      91.435  82.913  87.068  1.00  0.00    -0.010 C 
ATOM     31  G   UNL     1      92.868  83.945  89.033  1.00  0.00     0.000 G0
ATOM     32  O   UNL     1      91.351  79.535  87.512  1.00  0.00    -0.291 OA
ATOM     33  C   UNL     1      90.835  81.748  86.808  1.00  0.00    -0.008 C 
ATOM     34  C   UNL     1      89.699  81.441  85.915  1.00  0.00     0.048 C 
BRANCH  27  35
ATOM     35  O   UNL     1      92.007  81.264  89.786  1.00  0.00    -0.381 OA
ATOM     36  H   UNL     1      91.980  80.322  90.024  1.00  0.00     0.212 HD
ENDBRANCH  27  35
ENDBRANCH  26  27
ENDBRANCH   2  26
ENDBRANCH   1   2
BRANCH   1  37
ATOM     37  O   UNL     1      96.282  79.953  87.476  1.00  0.00    -0.461 OA
BRANCH  37  38
ATOM     38  C   UNL     1      97.124  80.089  86.396  1.00  0.00     0.310 C 
ATOM     39  O   UNL     1      98.332  79.899  86.419  1.00  0.00    -0.252 OA
BRANCH  38  40
ATOM     40  C   UNL     1      96.326  80.508  85.185  1.00  0.00     0.158 C 
BRANCH  40  41
ATOM     41  C   UNL     1      96.317  81.999  84.973  1.00  0.00    -0.037 A 
ATOM     42  C   UNL     1      95.345  82.786  85.593  1.00  0.00     0.008 A 
ATOM     43  C   UNL     1      97.279  82.595  84.158  1.00  0.00     0.008 A 
ATOM     44  C   UNL     1      95.336  84.167  85.397  1.00  0.00     0.046 A 
ATOM     45  C   UNL     1      97.271  83.976  83.962  1.00  0.00     0.046 A 
ATOM     46  C   UNL     1      96.299  84.762  84.581  1.00  0.00     0.115 A 
BRANCH  46  47
ATOM     47  O   UNL     1      96.290  86.109  84.390  1.00  0.00    -0.508 OA
ATOM     48  H   UNL     1      96.739  86.538  85.139  1.00  0.00     0.293 HD
ENDBRANCH  46  47
ENDBRANCH  40  41
ENDBRANCH  38  40
ENDBRANCH  37  38
ENDBRANCH   1  37
TORSDOF 10
ENDMDL
MODEL 8
REMARK VINA RESULT:    -6.760     17.439     22.254
REMARK INTER + INTRA:         -11.628
REMARK INTER:                 -11.326
REMARK INTRA:                  -0.301
REMARK UNBOUND:                -0.126
REMARK SMILES C=C(C)[C@]12C[C@@H](C)[C@@]34O[C@](Cc5ccccc5)(O[C@@H]1[C@@H]3C=C(COC(=O)Cc1ccc(O)cc1)C[C@]1(O)C(=O)C(C)=C[C@@H]41)O2
REMARK SMILES IDX 23 1 22 2 21 3 20 4 9 5 8 6 10 7 6 8 18 10 44 11 19 12 5 13
REMARK SMILES IDX 7 14 4 15 11 16 12 17 13 18 17 19 14 20 16 21 15 22 2 23
REMARK SMILES IDX 3 24 1 25 35 26 36 27 43 28 38 29 42 30 39 32 40 33 41 34
REMARK SMILES IDX 37 35 24 37 25 38 26 39 27 40 28 41 29 42 34 43 30 44 33 45
REMARK SMILES IDX 31 46 32 47
REMARK H PARENT 37 36 32 48
REMARK Flexibility Score: 90.00
ROOT
ATOM      1  C   UNL     1      84.951  69.996  71.746  1.00  0.00     0.264 C 
ENDROOT
BRANCH   1   2
ATOM      2  C   UNL     1      86.277  69.866  71.033  1.00  0.00    -0.033 C 
ATOM      3  C   UNL     1      86.329  70.055  69.698  1.00  0.00    -0.015 C 
BRANCH   3   4
ATOM      4  C   UNL     1      87.507  69.909  68.748  1.00  0.00     0.078 C 
ATOM      5  O   UNL     1      88.547  72.143  68.542  1.00  0.00    -0.319 OA
ATOM      6  C   UNL     1      88.791  70.779  69.008  1.00  0.00     0.095 CG0
ATOM      7  C   UNL     1      87.869  72.248  67.276  1.00  0.00     0.289 C 
ATOM      8  C   UNL     1      89.978  70.145  68.173  1.00  0.00     0.023 C 
ATOM      9  G   UNL     1      89.055  70.933  70.535  1.00  0.00     0.000 G0
ATOM     10  O   UNL     1      86.611  71.579  67.305  1.00  0.00    -0.320 OA
ATOM     11  O   UNL     1      88.603  71.642  66.215  1.00  0.00    -0.313 OA
ATOM     12  C   UNL     1      87.054  70.213  67.299  1.00  0.00     0.170 C 
ATOM     13  C   UNL     1      89.468  69.515  66.841  1.00  0.00     0.049 C 
ATOM     14  C   UNL     1      91.154  71.089  67.872  1.00  0.00     0.011 C 
ATOM     15  C   UNL     1      88.238  70.249  66.303  1.00  0.00     0.122 C 
BRANCH   7  16
ATOM     16  C   UNL     1      87.661  73.718  66.969  1.00  0.00     0.135 C 
BRANCH  16  17
ATOM     17  C   UNL     1      88.847  74.322  66.260  1.00  0.00    -0.040 A 
ATOM     18  C   UNL     1      90.012  74.612  66.970  1.00  0.00     0.004 A 
ATOM     19  C   UNL     1      88.779  74.590  64.893  1.00  0.00     0.004 A 
ATOM     20  C   UNL     1      91.109  75.170  66.313  1.00  0.00     0.000 A 
ATOM     21  C   UNL     1      89.876  75.149  64.236  1.00  0.00     0.000 A 
ATOM     22  C   UNL     1      91.041  75.438  64.947  1.00  0.00     0.000 A 
ENDBRANCH  16  17
ENDBRANCH   7  16
BRANCH  15  23
ATOM     23  C   UNL     1      87.841  69.780  64.941  1.00  0.00    -0.046 C 
ATOM     24  C   UNL     1      88.935  69.195  64.097  1.00  0.00     0.042 C 
ATOM     25  C   UNL     1      86.580  69.877  64.497  1.00  0.00     0.010 C 
ENDBRANCH  15  23
ENDBRANCH   3   4
BRANCH   2  26
ATOM     26  C   UNL     1      87.425  69.531  71.967  1.00  0.00     0.078 C 
BRANCH  26  27
ATOM     27  C   UNL     1      88.840  69.638  71.400  1.00  0.00     0.140 C 
ATOM     28  C   UNL     1      89.035  70.913  70.554  1.00  0.00     0.086 CG0
ATOM     29  C   UNL     1      89.887  69.802  72.481  1.00  0.00     0.190 C 
ATOM     30  C   UNL     1      90.348  71.459  71.041  1.00  0.00    -0.010 C 
ATOM     31  G   UNL     1      88.789  70.765  69.024  1.00  0.00     0.000 G0
ATOM     32  O   UNL     1      89.979  69.115  73.488  1.00  0.00    -0.291 OA
ATOM     33  C   UNL     1      90.839  70.875  72.138  1.00  0.00    -0.008 C 
ATOM     34  C   UNL     1      92.044  71.198  72.930  1.00  0.00     0.048 C 
BRANCH  27  35
ATOM     35  O   UNL     1      89.224  68.446  70.735  1.00  0.00    -0.381 OA
ATOM     36  H   UNL     1      89.816  68.681  70.001  1.00  0.00     0.212 HD
ENDBRANCH  27  35
ENDBRANCH  26  27
ENDBRANCH   2  26
ENDBRANCH   1   2
BRANCH   1  37
ATOM     37  O   UNL     1      84.999  69.269  72.956  1.00  0.00    -0.461 OA
BRANCH  37  38
ATOM     38  C   UNL     1      84.400  68.030  72.943  1.00  0.00     0.310 C 
ATOM     39  O   UNL     1      84.649  67.137  72.146  1.00  0.00    -0.252 OA
BRANCH  38  40
ATOM     40  C   UNL     1      83.392  67.947  74.064  1.00  0.00     0.158 C 
BRANCH  40  41
ATOM     41  C   UNL     1      82.444  66.785  73.917  1.00  0.00    -0.037 A 
ATOM     42  C   UNL     1      81.340  66.889  73.070  1.00  0.00     0.008 A 
ATOM     43  C   UNL     1      82.668  65.607  74.628  1.00  0.00     0.008 A 
ATOM     44  C   UNL     1      80.461  65.814  72.934  1.00  0.00     0.046 A 
ATOM     45  C   UNL     1      81.790  64.531  74.492  1.00  0.00     0.046 A 
ATOM     46  C   UNL     1      80.687  64.635  73.645  1.00  0.00     0.115 A 
BRANCH  46  47
ATOM     47  O   UNL     1      79.829  63.586  73.513  1.00  0.00    -0.508 OA
ATOM     48  H   UNL     1      79.546  63.296  74.397  1.00  0.00     0.293 HD
ENDBRANCH  46  47
ENDBRANCH  40  41
ENDBRANCH  38  40
ENDBRANCH  37  38
ENDBRANCH   1  37
TORSDOF 10
ENDMDL
MODEL 9
REMARK VINA RESULT:    -6.746      3.454      8.623
REMARK INTER + INTRA:         -11.604
REMARK INTER:                 -10.742
REMARK INTRA:                  -0.861
REMARK UNBOUND:                -0.126
REMARK SMILES C=C(C)[C@]12C[C@@H](C)[C@@]34O[C@](Cc5ccccc5)(O[C@@H]1[C@@H]3C=C(COC(=O)Cc1ccc(O)cc1)C[C@]1(O)C(=O)C(C)=C[C@@H]41)O2
REMARK SMILES IDX 23 1 22 2 21 3 20 4 9 5 8 6 10 7 6 8 18 10 44 11 19 12 5 13
REMARK SMILES IDX 7 14 4 15 11 16 12 17 13 18 17 19 14 20 16 21 15 22 2 23
REMARK SMILES IDX 3 24 1 25 35 26 36 27 43 28 38 29 42 30 39 32 40 33 41 34
REMARK SMILES IDX 37 35 24 37 25 38 26 39 27 40 28 41 29 42 34 43 30 44 33 45
REMARK SMILES IDX 31 46 32 47
REMARK H PARENT 37 36 32 48
REMARK Flexibility Score: 90.00
ROOT
ATOM      1  C   UNL     1      92.725  85.334  88.445  1.00  0.00     0.264 C 
ENDROOT
BRANCH   1   2
ATOM      2  C   UNL     1      92.898  84.194  87.469  1.00  0.00    -0.033 C 
ATOM      3  C   UNL     1      94.091  84.018  86.864  1.00  0.00    -0.015 C 
BRANCH   3   4
ATOM      4  C   UNL     1      94.495  83.009  85.802  1.00  0.00     0.078 C 
ATOM      5  O   UNL     1      95.428  81.049  86.987  1.00  0.00    -0.319 OA
ATOM      6  C   UNL     1      94.330  81.478  86.122  1.00  0.00     0.095 CG0
ATOM      7  C   UNL     1      96.727  81.559  86.631  1.00  0.00     0.289 C 
ATOM      8  C   UNL     1      94.407  80.690  84.750  1.00  0.00     0.023 C 
ATOM      9  G   UNL     1      93.048  81.225  86.968  1.00  0.00     0.000 G0
ATOM     10  O   UNL     1      96.736  82.983  86.610  1.00  0.00    -0.320 OA
ATOM     11  O   UNL     1      97.131  81.151  85.326  1.00  0.00    -0.313 OA
ATOM     12  C   UNL     1      95.979  83.221  85.412  1.00  0.00     0.170 C 
ATOM     13  C   UNL     1      95.371  81.387  83.742  1.00  0.00     0.049 C 
ATOM     14  C   UNL     1      94.777  79.201  84.862  1.00  0.00     0.011 C 
ATOM     15  C   UNL     1      96.505  82.120  84.459  1.00  0.00     0.122 C 
BRANCH   7  16
ATOM     16  C   UNL     1      97.730  81.055  87.650  1.00  0.00     0.135 C 
BRANCH  16  17
ATOM     17  C   UNL     1      99.027  80.631  87.006  1.00  0.00    -0.040 A 
ATOM     18  C   UNL     1     100.063  81.552  86.853  1.00  0.00     0.004 A 
ATOM     19  C   UNL     1      99.189  79.319  86.565  1.00  0.00     0.004 A 
ATOM     20  C   UNL     1     101.263  81.160  86.258  1.00  0.00     0.000 A 
ATOM     21  C   UNL     1     100.388  78.926  85.970  1.00  0.00     0.000 A 
ATOM     22  C   UNL     1     101.424  79.847  85.817  1.00  0.00     0.000 A 
ENDBRANCH  16  17
ENDBRANCH   7  16
BRANCH  15  23
ATOM     23  C   UNL     1      97.539  82.642  83.515  1.00  0.00    -0.046 C 
ATOM     24  C   UNL     1      98.656  81.702  83.171  1.00  0.00     0.042 C 
ATOM     25  C   UNL     1      97.472  83.880  83.003  1.00  0.00     0.010 C 
ENDBRANCH  15  23
ENDBRANCH   3   4
BRANCH   2  26
ATOM     26  C   UNL     1      91.643  83.357  87.302  1.00  0.00     0.078 C 
BRANCH  26  27
ATOM     27  C   UNL     1      91.780  82.036  86.548  1.00  0.00     0.140 C 
ATOM     28  C   UNL     1      93.035  81.247  86.976  1.00  0.00     0.086 CG0
ATOM     29  C   UNL     1      90.662  81.066  86.869  1.00  0.00     0.190 C 
ATOM     30  C   UNL     1      92.522  79.846  87.161  1.00  0.00    -0.010 C 
ATOM     31  G   UNL     1      94.317  81.484  86.125  1.00  0.00     0.000 G0
ATOM     32  O   UNL     1      89.470  81.334  86.864  1.00  0.00    -0.291 OA
ATOM     33  C   UNL     1      91.192  79.716  87.135  1.00  0.00    -0.008 C 
ATOM     34  C   UNL     1      90.348  78.524  87.359  1.00  0.00     0.048 C 
BRANCH  27  35
ATOM     35  O   UNL     1      91.672  82.225  85.147  1.00  0.00    -0.381 OA
ATOM     36  H   UNL     1      91.841  81.374  84.709  1.00  0.00     0.212 HD
ENDBRANCH  27  35
ENDBRANCH  26  27
ENDBRANCH   2  26
ENDBRANCH   1   2
BRANCH   1  37
ATOM     37  O   UNL     1      93.841  85.382  89.309  1.00  0.00    -0.461 OA
BRANCH  37  38
ATOM     38  C   UNL     1      94.407  86.621  89.502  1.00  0.00     0.310 C 
ATOM     39  O   UNL     1      95.020  86.965  90.503  1.00  0.00    -0.252 OA
BRANCH  38  40
ATOM     40  C   UNL     1      94.154  87.485  88.290  1.00  0.00     0.158 C 
BRANCH  40  41
ATOM     41  C   UNL     1      93.925  88.933  88.638  1.00  0.00    -0.037 A 
ATOM     42  C   UNL     1      92.643  89.380  88.956  1.00  0.00     0.008 A 
ATOM     43  C   UNL     1      94.995  89.827  88.642  1.00  0.00     0.008 A 
ATOM     44  C   UNL     1      92.431  90.721  89.277  1.00  0.00     0.046 A 
ATOM     45  C   UNL     1      94.784  91.168  88.963  1.00  0.00     0.046 A 
ATOM     46  C   UNL     1      93.502  91.615  89.281  1.00  0.00     0.115 A 
BRANCH  46  47
ATOM     47  O   UNL     1      93.295  92.923  89.594  1.00  0.00    -0.508 OA
ATOM     48  H   UNL     1      93.909  93.179  90.304  1.00  0.00     0.293 HD
ENDBRANCH  46  47
ENDBRANCH  40  41
ENDBRANCH  38  40
ENDBRANCH  37  38
ENDBRANCH   1  37
TORSDOF 10
ENDMDL
MODEL 10
REMARK VINA RESULT:    -6.733     14.411     17.712
REMARK INTER + INTRA:         -11.582
REMARK INTER:                 -10.856
REMARK INTRA:                  -0.726
REMARK UNBOUND:                -0.126
REMARK SMILES C=C(C)[C@]12C[C@@H](C)[C@@]34O[C@](Cc5ccccc5)(O[C@@H]1[C@@H]3C=C(COC(=O)Cc1ccc(O)cc1)C[C@]1(O)C(=O)C(C)=C[C@@H]41)O2
REMARK SMILES IDX 23 1 22 2 21 3 20 4 9 5 8 6 10 7 6 8 18 10 44 11 19 12 5 13
REMARK SMILES IDX 7 14 4 15 11 16 12 17 13 18 17 19 14 20 16 21 15 22 2 23
REMARK SMILES IDX 3 24 1 25 35 26 36 27 43 28 38 29 42 30 39 32 40 33 41 34
REMARK SMILES IDX 37 35 24 37 25 38 26 39 27 40 28 41 29 42 34 43 30 44 33 45
REMARK SMILES IDX 31 46 32 47
REMARK H PARENT 37 36 32 48
REMARK Flexibility Score: 90.00
ROOT
ATOM      1  C   UNL     1      83.627  93.040  87.387  1.00  0.00     0.264 C 
ENDROOT
BRANCH   1   2
ATOM      2  C   UNL     1      83.064  91.654  87.599  1.00  0.00    -0.033 C 
ATOM      3  C   UNL     1      82.473  91.355  88.774  1.00  0.00    -0.015 C 
BRANCH   3   4
ATOM      4  C   UNL     1      81.903  90.031  89.259  1.00  0.00     0.078 C 
ATOM      5  O   UNL     1      79.496  90.033  88.693  1.00  0.00    -0.319 OA
ATOM      6  C   UNL     1      80.761  89.355  88.416  1.00  0.00     0.095 CG0
ATOM      7  C   UNL     1      79.258  90.348  90.078  1.00  0.00     0.289 C 
ATOM      8  C   UNL     1      80.656  87.843  88.876  1.00  0.00     0.023 C 
ATOM      9  G   UNL     1      80.993  89.575  86.892  1.00  0.00     0.000 G0
ATOM     10  O   UNL     1      80.300  91.161  90.611  1.00  0.00    -0.320 OA
ATOM     11  O   UNL     1      79.219  89.185  90.901  1.00  0.00    -0.313 OA
ATOM     12  C   UNL     1      81.355  90.190  90.698  1.00  0.00     0.170 C 
ATOM     13  C   UNL     1      80.991  87.681  90.391  1.00  0.00     0.049 C 
ATOM     14  C   UNL     1      79.316  87.150  88.575  1.00  0.00     0.011 C 
ATOM     15  C   UNL     1      80.608  88.927  91.191  1.00  0.00     0.122 C 
BRANCH   7  16
ATOM     16  C   UNL     1      77.935  91.081  90.178  1.00  0.00     0.135 C 
BRANCH  16  17
ATOM     17  C   UNL     1      77.010  90.446  91.187  1.00  0.00    -0.040 A 
ATOM     18  C   UNL     1      76.191  89.383  90.810  1.00  0.00     0.004 A 
ATOM     19  C   UNL     1      76.976  90.925  92.496  1.00  0.00     0.004 A 
ATOM     20  C   UNL     1      75.337  88.795  91.744  1.00  0.00     0.000 A 
ATOM     21  C   UNL     1      76.121  90.337  93.430  1.00  0.00     0.000 A 
ATOM     22  C   UNL     1      75.302  89.273  93.054  1.00  0.00     0.000 A 
ENDBRANCH  16  17
ENDBRANCH   7  16
BRANCH  15  23
ATOM     23  C   UNL     1      80.752  88.729  92.665  1.00  0.00    -0.046 C 
ATOM     24  C   UNL     1      79.509  88.328  93.403  1.00  0.00     0.042 C 
ATOM     25  C   UNL     1      81.924  88.899  93.293  1.00  0.00     0.010 C 
ENDBRANCH  15  23
ENDBRANCH   3   4
BRANCH   2  26
ATOM     26  C   UNL     1      83.244  90.748  86.395  1.00  0.00     0.078 C 
BRANCH  26  27
ATOM     27  C   UNL     1      82.481  89.425  86.398  1.00  0.00     0.140 C 
ATOM     28  C   UNL     1      81.024  89.592  86.875  1.00  0.00     0.086 CG0
ATOM     29  C   UNL     1      82.303  88.855  85.006  1.00  0.00     0.190 C 
ATOM     30  C   UNL     1      80.232  88.807  85.867  1.00  0.00    -0.010 C 
ATOM     31  G   UNL     1      80.769  89.361  88.393  1.00  0.00     0.000 G0
ATOM     32  O   UNL     1      83.189  88.731  84.173  1.00  0.00    -0.291 OA
ATOM     33  C   UNL     1      80.915  88.404  84.792  1.00  0.00    -0.008 C 
ATOM     34  C   UNL     1      80.452  87.694  83.581  1.00  0.00     0.048 C 
BRANCH  27  35
ATOM     35  O   UNL     1      83.197  88.414  87.088  1.00  0.00    -0.381 OA
ATOM     36  H   UNL     1      82.642  87.617  87.127  1.00  0.00     0.212 HD
ENDBRANCH  27  35
ENDBRANCH  26  27
ENDBRANCH   2  26
ENDBRANCH   1   2
BRANCH   1  37
ATOM     37  O   UNL     1      82.850  93.974  88.106  1.00  0.00    -0.461 OA
BRANCH  37  38
ATOM     38  C   UNL     1      82.970  95.289  87.720  1.00  0.00     0.310 C 
ATOM     39  O   UNL     1      83.434  95.669  86.654  1.00  0.00    -0.252 OA
BRANCH  38  40
ATOM     40  C   UNL     1      82.442  96.186  88.814  1.00  0.00     0.158 C 
BRANCH  40  41
ATOM     41  C   UNL     1      81.583  97.308  88.292  1.00  0.00    -0.037 A 
ATOM     42  C   UNL     1      82.101  98.600  88.205  1.00  0.00     0.008 A 
ATOM     43  C   UNL     1      80.270  97.055  87.895  1.00  0.00     0.008 A 
ATOM     44  C   UNL     1      81.305  99.640  87.722  1.00  0.00     0.046 A 
ATOM     45  C   UNL     1      79.474  98.094  87.412  1.00  0.00     0.046 A 
ATOM     46  C   UNL     1      79.991  99.386  87.325  1.00  0.00     0.115 A 
BRANCH  46  47
ATOM     47  O   UNL     1      79.215 100.400  86.855  1.00  0.00    -0.508 OA
ATOM     48  H   UNL     1      79.679 101.244  86.995  1.00  0.00     0.293 HD
ENDBRANCH  46  47
ENDBRANCH  40  41
ENDBRANCH  38  40
ENDBRANCH  37  38
ENDBRANCH   1  37
TORSDOF 10
ENDMDL
