MODEL 1
REMARK VINA RESULT:    -5.894      0.000      0.000
REMARK INTER + INTRA:         -10.618
REMARK INTER:                  -9.512
REMARK INTRA:                  -1.107
REMARK UNBOUND:                -1.107
REMARK SMILES COc1cc(CNC(=O)CCCCC/C=C/C(C)C)ccc1O
REMARK SMILES IDX 11 1 10 2 8 3 7 4 9 6 6 7 5 8 3 9 22 10 4 11 21 12 20 13
REMARK SMILES IDX 2 14 1 15 23 16 12 18 13 19 14 20 15 21 16 22 17 23 18 24
REMARK SMILES IDX 19 25
REMARK H PARENT 7 5 23 17
REMARK Flexibility Score: inf
ROOT
ATOM      1  C   UNL     1      74.248  81.367  65.472  1.00  0.00     0.010 C 
ENDROOT
BRANCH   1   2
ATOM      2  C   UNL     1      75.310  81.752  64.411  1.00  0.00     0.100 C 
BRANCH   2   3
ATOM      3  C   UNL     1      76.096  82.951  64.756  1.00  0.00     0.220 C 
ATOM      4  N   UNL     1      76.760  83.008  65.944  1.00  0.00    -0.352 N 
ATOM      5  H   UNL     1      76.598  82.219  66.555  1.00  0.00     0.163 HD
ATOM      6  O   UNL     1      76.165  83.881  63.917  1.00  0.00    -0.275 OA
BRANCH   4   7
ATOM      7  C   UNL     1      77.629  84.060  66.359  1.00  0.00     0.151 C 
BRANCH   7   8
ATOM      8  C   UNL     1      76.902  85.180  67.010  1.00  0.00    -0.025 A 
ATOM      9  C   UNL     1      75.162  85.990  68.548  1.00  0.00     0.160 A 
ATOM     10  C   UNL     1      75.482  87.322  68.208  1.00  0.00     0.157 A 
ATOM     11  C   UNL     1      75.867  84.930  67.941  1.00  0.00     0.056 A 
ATOM     12  C   UNL     1      76.521  87.583  67.295  1.00  0.00     0.050 A 
ATOM     13  C   UNL     1      77.233  86.520  66.709  1.00  0.00     0.009 A 
BRANCH   9  14
ATOM     14  O   UNL     1      74.213  85.727  69.500  1.00  0.00    -0.493 OA
ATOM     15  C   UNL     1      74.615  84.753  70.478  1.00  0.00     0.278 C 
ENDBRANCH   9  14
BRANCH  10  16
ATOM     16  O   UNL     1      74.809  88.369  68.747  1.00  0.00    -0.504 OA
ATOM     17  H   UNL     1      74.888  89.132  68.169  1.00  0.00     0.293 HD
ENDBRANCH  10  16
ENDBRANCH   7   8
ENDBRANCH   4   7
ENDBRANCH   2   3
ENDBRANCH   1   2
BRANCH   1  18
ATOM     18  C   UNL     1      72.821  81.377  64.866  1.00  0.00     0.001 C 
BRANCH  18  19
ATOM     19  C   UNL     1      71.969  82.596  65.299  1.00  0.00     0.004 C 
BRANCH  19  20
ATOM     20  C   UNL     1      70.458  82.236  65.368  1.00  0.00     0.027 C 
BRANCH  20  21
ATOM     21  C   UNL     1      69.730  82.963  66.394  1.00  0.00    -0.031 C 
ATOM     22  C   UNL     1      70.188  84.112  66.923  1.00  0.00    -0.028 C 
BRANCH  22  23
ATOM     23  C   UNL     1      69.478  84.869  67.951  1.00  0.00     0.005 C 
ATOM     24  C   UNL     1      68.554  83.929  68.770  1.00  0.00     0.012 C 
ATOM     25  C   UNL     1      70.489  85.632  68.850  1.00  0.00     0.012 C 
ENDBRANCH  22  23
ENDBRANCH  20  21
ENDBRANCH  19  20
ENDBRANCH  18  19
ENDBRANCH   1  18
TORSDOF 11
ENDMDL
MODEL 2
REMARK VINA RESULT:    -5.398      2.540      4.279
REMARK INTER + INTRA:          -9.818
REMARK INTER:                  -9.040
REMARK INTRA:                  -0.778
REMARK UNBOUND:                -1.107
REMARK SMILES COc1cc(CNC(=O)CCCCC/C=C/C(C)C)ccc1O
REMARK SMILES IDX 11 1 10 2 8 3 7 4 9 6 6 7 5 8 3 9 22 10 4 11 21 12 20 13
REMARK SMILES IDX 2 14 1 15 23 16 12 18 13 19 14 20 15 21 16 22 17 23 18 24
REMARK SMILES IDX 19 25
REMARK H PARENT 7 5 23 17
REMARK Flexibility Score: inf
ROOT
ATOM      1  C   UNL     1      70.324  84.084  65.998  1.00  0.00     0.010 C 
ENDROOT
BRANCH   1   2
ATOM      2  C   UNL     1      70.331  82.555  65.740  1.00  0.00     0.100 C 
BRANCH   2   3
ATOM      3  C   UNL     1      71.647  82.020  65.344  1.00  0.00     0.220 C 
ATOM      4  N   UNL     1      72.772  82.755  65.562  1.00  0.00    -0.352 N 
ATOM      5  H   UNL     1      72.605  83.682  65.929  1.00  0.00     0.163 HD
ATOM      6  O   UNL     1      71.697  80.870  64.847  1.00  0.00    -0.275 OA
BRANCH   4   7
ATOM      7  C   UNL     1      74.109  82.320  65.318  1.00  0.00     0.151 C 
BRANCH   7   8
ATOM      8  C   UNL     1      75.121  83.176  65.989  1.00  0.00    -0.025 A 
ATOM      9  C   UNL     1      75.717  84.835  67.704  1.00  0.00     0.160 A 
ATOM     10  C   UNL     1      77.047  84.846  67.229  1.00  0.00     0.157 A 
ATOM     11  C   UNL     1      74.764  84.008  67.075  1.00  0.00     0.056 A 
ATOM     12  C   UNL     1      77.417  84.010  66.160  1.00  0.00     0.050 A 
ATOM     13  C   UNL     1      76.464  83.173  65.551  1.00  0.00     0.009 A 
BRANCH   9  14
ATOM     14  O   UNL     1      75.366  85.578  68.799  1.00  0.00    -0.493 OA
ATOM     15  C   UNL     1      75.062  84.798  69.967  1.00  0.00     0.278 C 
ENDBRANCH   9  14
BRANCH  10  16
ATOM     16  O   UNL     1      77.988  85.649  67.788  1.00  0.00    -0.504 OA
ATOM     17  H   UNL     1      77.872  85.660  68.741  1.00  0.00     0.293 HD
ENDBRANCH  10  16
ENDBRANCH   7   8
ENDBRANCH   4   7
ENDBRANCH   2   3
ENDBRANCH   1   2
BRANCH   1  18
ATOM     18  C   UNL     1      70.138  84.396  67.505  1.00  0.00     0.001 C 
BRANCH  18  19
ATOM     19  C   UNL     1      68.810  83.856  68.093  1.00  0.00     0.004 C 
BRANCH  19  20
ATOM     20  C   UNL     1      68.171  84.874  69.079  1.00  0.00     0.027 C 
BRANCH  20  21
ATOM     21  C   UNL     1      67.187  84.285  69.972  1.00  0.00    -0.031 C 
ATOM     22  C   UNL     1      66.030  83.768  69.524  1.00  0.00    -0.028 C 
BRANCH  22  23
ATOM     23  C   UNL     1      65.023  83.164  70.394  1.00  0.00     0.005 C 
ATOM     24  C   UNL     1      63.610  83.687  70.025  1.00  0.00     0.012 C 
ATOM     25  C   UNL     1      65.115  81.615  70.326  1.00  0.00     0.012 C 
ENDBRANCH  22  23
ENDBRANCH  20  21
ENDBRANCH  19  20
ENDBRANCH  18  19
ENDBRANCH   1  18
TORSDOF 11
ENDMDL
MODEL 3
REMARK VINA RESULT:    -5.386      1.674      2.645
REMARK INTER + INTRA:          -9.799
REMARK INTER:                  -8.845
REMARK INTRA:                  -0.954
REMARK UNBOUND:                -1.107
REMARK SMILES COc1cc(CNC(=O)CCCCC/C=C/C(C)C)ccc1O
REMARK SMILES IDX 11 1 10 2 8 3 7 4 9 6 6 7 5 8 3 9 22 10 4 11 21 12 20 13
REMARK SMILES IDX 2 14 1 15 23 16 12 18 13 19 14 20 15 21 16 22 17 23 18 24
REMARK SMILES IDX 19 25
REMARK H PARENT 7 5 23 17
REMARK Flexibility Score: inf
ROOT
ATOM      1  C   UNL     1      70.854  81.371  63.740  1.00  0.00     0.010 C 
ENDROOT
BRANCH   1   2
ATOM      2  C   UNL     1      71.995  80.954  64.703  1.00  0.00     0.100 C 
BRANCH   2   3
ATOM      3  C   UNL     1      73.315  81.507  64.345  1.00  0.00     0.220 C 
ATOM      4  N   UNL     1      74.218  81.793  65.324  1.00  0.00    -0.352 N 
ATOM      5  H   UNL     1      73.874  81.666  66.265  1.00  0.00     0.163 HD
ATOM      6  O   UNL     1      73.586  81.663  63.131  1.00  0.00    -0.275 OA
BRANCH   4   7
ATOM      7  C   UNL     1      75.557  82.239  65.112  1.00  0.00     0.151 C 
BRANCH   7   8
ATOM      8  C   UNL     1      75.944  83.342  66.030  1.00  0.00    -0.025 A 
ATOM      9  C   UNL     1      75.413  84.856  67.894  1.00  0.00     0.160 A 
ATOM     10  C   UNL     1      76.670  85.481  67.742  1.00  0.00     0.157 A 
ATOM     11  C   UNL     1      75.057  83.798  67.032  1.00  0.00     0.056 A 
ATOM     12  C   UNL     1      77.567  85.024  66.760  1.00  0.00     0.050 A 
ATOM     13  C   UNL     1      77.212  83.955  65.917  1.00  0.00     0.009 A 
BRANCH   9  14
ATOM     14  O   UNL     1      74.568  85.234  68.903  1.00  0.00    -0.493 OA
ATOM     15  C   UNL     1      73.517  86.122  68.487  1.00  0.00     0.278 C 
ENDBRANCH   9  14
BRANCH  10  16
ATOM     16  O   UNL     1      77.040  86.520  68.532  1.00  0.00    -0.504 OA
ATOM     17  H   UNL     1      77.588  86.196  69.251  1.00  0.00     0.293 HD
ENDBRANCH  10  16
ENDBRANCH   7   8
ENDBRANCH   4   7
ENDBRANCH   2   3
ENDBRANCH   1   2
BRANCH   1  18
ATOM     18  C   UNL     1      69.982  82.493  64.360  1.00  0.00     0.001 C 
BRANCH  18  19
ATOM     19  C   UNL     1      70.062  82.563  65.906  1.00  0.00     0.004 C 
BRANCH  19  20
ATOM     20  C   UNL     1      70.104  84.034  66.405  1.00  0.00     0.027 C 
BRANCH  20  21
ATOM     21  C   UNL     1      69.297  84.272  67.590  1.00  0.00    -0.031 C 
ATOM     22  C   UNL     1      69.838  84.636  68.766  1.00  0.00    -0.028 C 
BRANCH  22  23
ATOM     23  C   UNL     1      69.055  84.887  69.974  1.00  0.00     0.005 C 
ATOM     24  C   UNL     1      68.910  86.414  70.212  1.00  0.00     0.012 C 
ATOM     25  C   UNL     1      67.680  84.172  69.881  1.00  0.00     0.012 C 
ENDBRANCH  22  23
ENDBRANCH  20  21
ENDBRANCH  19  20
ENDBRANCH  18  19
ENDBRANCH   1  18
TORSDOF 11
ENDMDL
MODEL 4
REMARK VINA RESULT:    -5.373     25.711     28.511
REMARK INTER + INTRA:          -9.778
REMARK INTER:                  -8.626
REMARK INTRA:                  -1.151
REMARK UNBOUND:                -1.107
REMARK SMILES COc1cc(CNC(=O)CCCCC/C=C/C(C)C)ccc1O
REMARK SMILES IDX 11 1 10 2 8 3 7 4 9 6 6 7 5 8 3 9 22 10 4 11 21 12 20 13
REMARK SMILES IDX 2 14 1 15 23 16 12 18 13 19 14 20 15 21 16 22 17 23 18 24
REMARK SMILES IDX 19 25
REMARK H PARENT 7 5 23 17
REMARK Flexibility Score: inf
ROOT
ATOM      1  C   UNL     1     102.044  78.886  77.938  1.00  0.00     0.010 C 
ENDROOT
BRANCH   1   2
ATOM      2  C   UNL     1     101.496  79.981  78.890  1.00  0.00     0.100 C 
BRANCH   2   3
ATOM      3  C   UNL     1     100.242  79.611  79.571  1.00  0.00     0.220 C 
ATOM      4  N   UNL     1      99.158  80.432  79.489  1.00  0.00    -0.352 N 
ATOM      5  H   UNL     1      99.326  81.304  79.006  1.00  0.00     0.163 HD
ATOM      6  O   UNL     1     100.196  78.517  80.182  1.00  0.00    -0.275 OA
BRANCH   4   7
ATOM      7  C   UNL     1      97.863  80.150  80.016  1.00  0.00     0.151 C 
BRANCH   7   8
ATOM      8  C   UNL     1      97.561  80.932  81.242  1.00  0.00    -0.025 A 
ATOM      9  C   UNL     1      97.778  81.269  83.669  1.00  0.00     0.160 A 
ATOM     10  C   UNL     1      96.937  82.400  83.586  1.00  0.00     0.157 A 
ATOM     11  C   UNL     1      98.076  80.539  82.500  1.00  0.00     0.056 A 
ATOM     12  C   UNL     1      96.434  82.810  82.339  1.00  0.00     0.050 A 
ATOM     13  C   UNL     1      96.751  82.088  81.173  1.00  0.00     0.009 A 
BRANCH   9  14
ATOM     14  O   UNL     1      98.344  80.912  84.864  1.00  0.00    -0.493 OA
ATOM     15  C   UNL     1      97.781  79.728  85.451  1.00  0.00     0.278 C 
ENDBRANCH   9  14
BRANCH  10  16
ATOM     16  O   UNL     1      96.604  83.112  84.692  1.00  0.00    -0.504 OA
ATOM     17  H   UNL     1      96.680  82.552  85.468  1.00  0.00     0.293 HD
ENDBRANCH  10  16
ENDBRANCH   7   8
ENDBRANCH   4   7
ENDBRANCH   2   3
ENDBRANCH   1   2
BRANCH   1  18
ATOM     18  C   UNL     1     102.617  79.510  76.639  1.00  0.00     0.001 C 
BRANCH  18  19
ATOM     19  C   UNL     1     101.602  79.555  75.469  1.00  0.00     0.004 C 
BRANCH  19  20
ATOM     20  C   UNL     1     100.962  80.965  75.327  1.00  0.00     0.027 C 
BRANCH  20  21
ATOM     21  C   UNL     1      99.539  80.993  75.617  1.00  0.00    -0.031 C 
ATOM     22  C   UNL     1      98.779  82.078  75.384  1.00  0.00    -0.028 C 
BRANCH  22  23
ATOM     23  C   UNL     1      97.346  82.136  75.659  1.00  0.00     0.005 C 
ATOM     24  C   UNL     1      97.097  82.382  77.171  1.00  0.00     0.012 C 
ATOM     25  C   UNL     1      96.672  83.215  74.767  1.00  0.00     0.012 C 
ENDBRANCH  22  23
ENDBRANCH  20  21
ENDBRANCH  19  20
ENDBRANCH  18  19
ENDBRANCH   1  18
TORSDOF 11
ENDMDL
MODEL 5
REMARK VINA RESULT:    -5.343     24.365     26.604
REMARK INTER + INTRA:          -9.729
REMARK INTER:                  -8.933
REMARK INTRA:                  -0.796
REMARK UNBOUND:                -1.107
REMARK SMILES COc1cc(CNC(=O)CCCCC/C=C/C(C)C)ccc1O
REMARK SMILES IDX 11 1 10 2 8 3 7 4 9 6 6 7 5 8 3 9 22 10 4 11 21 12 20 13
REMARK SMILES IDX 2 14 1 15 23 16 12 18 13 19 14 20 15 21 16 22 17 23 18 24
REMARK SMILES IDX 19 25
REMARK H PARENT 7 5 23 17
REMARK Flexibility Score: inf
ROOT
ATOM      1  C   UNL     1      97.934  80.711  79.369  1.00  0.00     0.010 C 
ENDROOT
BRANCH   1   2
ATOM      2  C   UNL     1      97.578  82.051  78.675  1.00  0.00     0.100 C 
BRANCH   2   3
ATOM      3  C   UNL     1      96.925  81.893  77.363  1.00  0.00     0.220 C 
ATOM      4  N   UNL     1      96.798  82.967  76.534  1.00  0.00    -0.352 N 
ATOM      5  H   UNL     1      97.111  83.843  76.929  1.00  0.00     0.163 HD
ATOM      6  O   UNL     1      96.534  80.750  77.025  1.00  0.00    -0.275 OA
BRANCH   4   7
ATOM      7  C   UNL     1      96.277  82.933  75.207  1.00  0.00     0.151 C 
BRANCH   7   8
ATOM      8  C   UNL     1      97.286  82.498  74.207  1.00  0.00    -0.025 A 
ATOM      9  C   UNL     1      99.302  82.947  72.872  1.00  0.00     0.160 A 
ATOM     10  C   UNL     1      99.177  81.681  72.259  1.00  0.00     0.157 A 
ATOM     11  C   UNL     1      98.352  83.349  73.833  1.00  0.00     0.056 A 
ATOM     12  C   UNL     1      98.131  80.819  72.636  1.00  0.00     0.050 A 
ATOM     13  C   UNL     1      97.198  81.220  73.610  1.00  0.00     0.009 A 
BRANCH   9  14
ATOM     14  O   UNL     1     100.366  83.757  72.576  1.00  0.00    -0.493 OA
ATOM     15  C   UNL     1     101.190  84.081  73.709  1.00  0.00     0.278 C 
ENDBRANCH   9  14
BRANCH  10  16
ATOM     16  O   UNL     1     100.054  81.268  71.309  1.00  0.00    -0.504 OA
ATOM     17  H   UNL     1     100.554  80.519  71.641  1.00  0.00     0.293 HD
ENDBRANCH  10  16
ENDBRANCH   7   8
ENDBRANCH   4   7
ENDBRANCH   2   3
ENDBRANCH   1   2
BRANCH   1  18
ATOM     18  C   UNL     1      97.070  80.491  80.637  1.00  0.00     0.001 C 
BRANCH  18  19
ATOM     19  C   UNL     1      97.474  81.394  81.830  1.00  0.00     0.004 C 
BRANCH  19  20
ATOM     20  C   UNL     1      96.444  82.537  82.050  1.00  0.00     0.027 C 
BRANCH  20  21
ATOM     21  C   UNL     1      95.585  82.336  83.204  1.00  0.00    -0.031 C 
ATOM     22  C   UNL     1      95.630  81.216  83.948  1.00  0.00    -0.028 C 
BRANCH  22  23
ATOM     23  C   UNL     1      94.785  80.986  85.117  1.00  0.00     0.005 C 
ATOM     24  C   UNL     1      94.150  82.320  85.593  1.00  0.00     0.012 C 
ATOM     25  C   UNL     1      93.716  79.904  84.801  1.00  0.00     0.012 C 
ENDBRANCH  22  23
ENDBRANCH  20  21
ENDBRANCH  19  20
ENDBRANCH  18  19
ENDBRANCH   1  18
TORSDOF 11
ENDMDL
MODEL 6
REMARK VINA RESULT:    -5.273     20.773     23.721
REMARK INTER + INTRA:          -9.617
REMARK INTER:                  -8.169
REMARK INTRA:                  -1.448
REMARK UNBOUND:                -1.107
REMARK SMILES COc1cc(CNC(=O)CCCCC/C=C/C(C)C)ccc1O
REMARK SMILES IDX 11 1 10 2 8 3 7 4 9 6 6 7 5 8 3 9 22 10 4 11 21 12 20 13
REMARK SMILES IDX 2 14 1 15 23 16 12 18 13 19 14 20 15 21 16 22 17 23 18 24
REMARK SMILES IDX 19 25
REMARK H PARENT 7 5 23 17
REMARK Flexibility Score: inf
ROOT
ATOM      1  C   UNL     1      91.455 100.437  65.675  1.00  0.00     0.010 C 
ENDROOT
BRANCH   1   2
ATOM      2  C   UNL     1      90.114  99.725  65.990  1.00  0.00     0.100 C 
BRANCH   2   3
ATOM      3  C   UNL     1      90.037  99.168  67.354  1.00  0.00     0.220 C 
ATOM      4  N   UNL     1      89.800  99.993  68.411  1.00  0.00    -0.352 N 
ATOM      5  H   UNL     1      89.764 100.976  68.179  1.00  0.00     0.163 HD
ATOM      6  O   UNL     1      90.154  97.928  67.498  1.00  0.00    -0.275 OA
BRANCH   4   7
ATOM      7  C   UNL     1      89.606  99.575  69.761  1.00  0.00     0.151 C 
BRANCH   7   8
ATOM      8  C   UNL     1      90.555 100.225  70.703  1.00  0.00    -0.025 A 
ATOM      9  C   UNL     1      92.623 100.163  72.033  1.00  0.00     0.160 A 
ATOM     10  C   UNL     1      92.333 101.449  72.540  1.00  0.00     0.157 A 
ATOM     11  C   UNL     1      91.728  99.558  71.126  1.00  0.00     0.056 A 
ATOM     12  C   UNL     1      91.178 102.128  72.113  1.00  0.00     0.050 A 
ATOM     13  C   UNL     1      90.300 101.525  71.192  1.00  0.00     0.009 A 
BRANCH   9  14
ATOM     14  O   UNL     1      93.788  99.530  72.374  1.00  0.00    -0.493 OA
ATOM     15  C   UNL     1      94.541  99.040  71.253  1.00  0.00     0.278 C 
ENDBRANCH   9  14
BRANCH  10  16
ATOM     16  O   UNL     1      93.153 102.054  73.436  1.00  0.00    -0.504 OA
ATOM     17  H   UNL     1      92.644 102.666  73.973  1.00  0.00     0.293 HD
ENDBRANCH  10  16
ENDBRANCH   7   8
ENDBRANCH   4   7
ENDBRANCH   2   3
ENDBRANCH   1   2
BRANCH   1  18
ATOM     18  C   UNL     1      91.248 101.962  65.490  1.00  0.00     0.001 C 
BRANCH  18  19
ATOM     19  C   UNL     1      91.319 102.766  66.813  1.00  0.00     0.004 C 
BRANCH  19  20
ATOM     20  C   UNL     1      89.935 103.369  67.184  1.00  0.00     0.027 C 
BRANCH  20  21
ATOM     21  C   UNL     1      88.854 102.928  66.319  1.00  0.00    -0.031 C 
ATOM     22  C   UNL     1      87.740 102.349  66.799  1.00  0.00    -0.028 C 
BRANCH  22  23
ATOM     23  C   UNL     1      86.634 101.900  65.957  1.00  0.00     0.005 C 
ATOM     24  C   UNL     1      86.269 100.429  66.288  1.00  0.00     0.012 C 
ATOM     25  C   UNL     1      85.420 102.858  66.110  1.00  0.00     0.012 C 
ENDBRANCH  22  23
ENDBRANCH  20  21
ENDBRANCH  19  20
ENDBRANCH  18  19
ENDBRANCH   1  18
TORSDOF 11
ENDMDL
MODEL 7
REMARK VINA RESULT:    -5.117     24.553     27.361
REMARK INTER + INTRA:          -9.365
REMARK INTER:                  -8.184
REMARK INTRA:                  -1.181
REMARK UNBOUND:                -1.107
REMARK SMILES COc1cc(CNC(=O)CCCCC/C=C/C(C)C)ccc1O
REMARK SMILES IDX 11 1 10 2 8 3 7 4 9 6 6 7 5 8 3 9 22 10 4 11 21 12 20 13
REMARK SMILES IDX 2 14 1 15 23 16 12 18 13 19 14 20 15 21 16 22 17 23 18 24
REMARK SMILES IDX 19 25
REMARK H PARENT 7 5 23 17
REMARK Flexibility Score: inf
ROOT
ATOM      1  C   UNL     1      97.494  82.130  77.438  1.00  0.00     0.010 C 
ENDROOT
BRANCH   1   2
ATOM      2  C   UNL     1      96.385  82.662  76.494  1.00  0.00     0.100 C 
BRANCH   2   3
ATOM      3  C   UNL     1      96.823  82.847  75.098  1.00  0.00     0.220 C 
ATOM      4  N   UNL     1      98.022  83.437  74.836  1.00  0.00    -0.352 N 
ATOM      5  H   UNL     1      98.509  83.783  75.652  1.00  0.00     0.163 HD
ATOM      6  O   UNL     1      96.087  82.413  74.180  1.00  0.00    -0.275 OA
BRANCH   4   7
ATOM      7  C   UNL     1      98.607  83.590  73.544  1.00  0.00     0.151 C 
BRANCH   7   8
ATOM      8  C   UNL     1      99.850  82.793  73.381  1.00  0.00    -0.025 A 
ATOM      9  C   UNL     1     101.634  81.886  71.951  1.00  0.00     0.160 A 
ATOM     10  C   UNL     1     102.193  81.226  73.068  1.00  0.00     0.157 A 
ATOM     11  C   UNL     1     100.465  82.655  72.114  1.00  0.00     0.056 A 
ATOM     12  C   UNL     1     101.600  81.370  74.336  1.00  0.00     0.050 A 
ATOM     13  C   UNL     1     100.443  82.156  74.494  1.00  0.00     0.009 A 
BRANCH   9  14
ATOM     14  O   UNL     1     102.252  81.824  70.731  1.00  0.00    -0.493 OA
ATOM     15  C   UNL     1     103.019  82.995  70.400  1.00  0.00     0.278 C 
ENDBRANCH   9  14
BRANCH  10  16
ATOM     16  O   UNL     1     103.301  80.453  72.949  1.00  0.00    -0.504 OA
ATOM     17  H   UNL     1     103.372  79.876  73.714  1.00  0.00     0.293 HD
ENDBRANCH  10  16
ENDBRANCH   7   8
ENDBRANCH   4   7
ENDBRANCH   2   3
ENDBRANCH   1   2
BRANCH   1  18
ATOM     18  C   UNL     1      97.828  80.648  77.131  1.00  0.00     0.001 C 
BRANCH  18  19
ATOM     19  C   UNL     1      98.638  79.947  78.251  1.00  0.00     0.004 C 
BRANCH  19  20
ATOM     20  C   UNL     1      97.715  79.104  79.175  1.00  0.00     0.027 C 
BRANCH  20  21
ATOM     21  C   UNL     1      97.656  79.590  80.543  1.00  0.00    -0.031 C 
ATOM     22  C   UNL     1      96.993  80.711  80.879  1.00  0.00    -0.028 C 
BRANCH  22  23
ATOM     23  C   UNL     1      96.911  81.223  82.244  1.00  0.00     0.005 C 
ATOM     24  C   UNL     1      96.496  82.719  82.234  1.00  0.00     0.012 C 
ATOM     25  C   UNL     1      95.943  80.349  83.088  1.00  0.00     0.012 C 
ENDBRANCH  22  23
ENDBRANCH  20  21
ENDBRANCH  19  20
ENDBRANCH  18  19
ENDBRANCH   1  18
TORSDOF 11
ENDMDL
MODEL 8
REMARK VINA RESULT:    -5.101     19.544     21.523
REMARK INTER + INTRA:          -9.340
REMARK INTER:                  -7.356
REMARK INTRA:                  -1.984
REMARK UNBOUND:                -1.107
REMARK SMILES COc1cc(CNC(=O)CCCCC/C=C/C(C)C)ccc1O
REMARK SMILES IDX 11 1 10 2 8 3 7 4 9 6 6 7 5 8 3 9 22 10 4 11 21 12 20 13
REMARK SMILES IDX 2 14 1 15 23 16 12 18 13 19 14 20 15 21 16 22 17 23 18 24
REMARK SMILES IDX 19 25
REMARK H PARENT 7 5 23 17
REMARK Flexibility Score: inf
ROOT
ATOM      1  C   UNL     1      81.242  64.778  76.074  1.00  0.00     0.010 C 
ENDROOT
BRANCH   1   2
ATOM      2  C   UNL     1      82.595  64.033  75.940  1.00  0.00     0.100 C 
BRANCH   2   3
ATOM      3  C   UNL     1      83.772  64.921  75.949  1.00  0.00     0.220 C 
ATOM      4  N   UNL     1      83.604  66.270  76.026  1.00  0.00    -0.352 N 
ATOM      5  H   UNL     1      82.641  66.577  75.998  1.00  0.00     0.163 HD
ATOM      6  O   UNL     1      84.912  64.399  75.927  1.00  0.00    -0.275 OA
BRANCH   4   7
ATOM      7  C   UNL     1      84.651  67.232  76.141  1.00  0.00     0.151 C 
BRANCH   7   8
ATOM      8  C   UNL     1      84.690  68.176  74.994  1.00  0.00    -0.025 A 
ATOM      9  C   UNL     1      85.535  70.235  73.949  1.00  0.00     0.160 A 
ATOM     10  C   UNL     1      84.717  69.999  72.823  1.00  0.00     0.157 A 
ATOM     11  C   UNL     1      85.509  69.328  75.028  1.00  0.00     0.056 A 
ATOM     12  C   UNL     1      83.911  68.848  72.771  1.00  0.00     0.050 A 
ATOM     13  C   UNL     1      83.905  67.937  73.843  1.00  0.00     0.009 A 
BRANCH   9  14
ATOM     14  O   UNL     1      86.388  71.307  73.973  1.00  0.00    -0.493 OA
ATOM     15  C   UNL     1      85.854  72.470  74.626  1.00  0.00     0.278 C 
ENDBRANCH   9  14
BRANCH  10  16
ATOM     16  O   UNL     1      84.691  70.862  71.777  1.00  0.00    -0.504 OA
ATOM     17  H   UNL     1      85.420  70.666  71.183  1.00  0.00     0.293 HD
ENDBRANCH  10  16
ENDBRANCH   7   8
ENDBRANCH   4   7
ENDBRANCH   2   3
ENDBRANCH   1   2
BRANCH   1  18
ATOM     18  C   UNL     1      80.494  64.829  74.718  1.00  0.00     0.001 C 
BRANCH  18  19
ATOM     19  C   UNL     1      80.515  66.225  74.046  1.00  0.00     0.004 C 
BRANCH  19  20
ATOM     20  C   UNL     1      80.754  66.114  72.514  1.00  0.00     0.027 C 
BRANCH  20  21
ATOM     21  C   UNL     1      81.904  65.299  72.160  1.00  0.00    -0.031 C 
ATOM     22  C   UNL     1      82.717  65.610  71.135  1.00  0.00    -0.028 C 
BRANCH  22  23
ATOM     23  C   UNL     1      83.883  64.815  70.757  1.00  0.00     0.005 C 
ATOM     24  C   UNL     1      84.751  64.506  72.006  1.00  0.00     0.012 C 
ATOM     25  C   UNL     1      83.437  63.527  70.015  1.00  0.00     0.012 C 
ENDBRANCH  22  23
ENDBRANCH  20  21
ENDBRANCH  19  20
ENDBRANCH  18  19
ENDBRANCH   1  18
TORSDOF 11
ENDMDL
MODEL 9
REMARK VINA RESULT:    -5.014     24.549     26.980
REMARK INTER + INTRA:          -9.199
REMARK INTER:                  -7.403
REMARK INTRA:                  -1.797
REMARK UNBOUND:                -1.107
REMARK SMILES COc1cc(CNC(=O)CCCCC/C=C/C(C)C)ccc1O
REMARK SMILES IDX 11 1 10 2 8 3 7 4 9 6 6 7 5 8 3 9 22 10 4 11 21 12 20 13
REMARK SMILES IDX 2 14 1 15 23 16 12 18 13 19 14 20 15 21 16 22 17 23 18 24
REMARK SMILES IDX 19 25
REMARK H PARENT 7 5 23 17
REMARK Flexibility Score: inf
ROOT
ATOM      1  C   UNL     1     100.998  78.937  71.511  1.00  0.00     0.010 C 
ENDROOT
BRANCH   1   2
ATOM      2  C   UNL     1     100.863  78.199  72.868  1.00  0.00     0.100 C 
BRANCH   2   3
ATOM      3  C   UNL     1     100.744  79.099  74.031  1.00  0.00     0.220 C 
ATOM      4  N   UNL     1     100.982  80.431  73.884  1.00  0.00    -0.352 N 
ATOM      5  H   UNL     1     101.305  80.703  72.966  1.00  0.00     0.163 HD
ATOM      6  O   UNL     1     100.384  78.610  75.128  1.00  0.00    -0.275 OA
BRANCH   4   7
ATOM      7  C   UNL     1     100.811  81.421  74.898  1.00  0.00     0.151 C 
BRANCH   7   8
ATOM      8  C   UNL     1      99.425  81.956  74.945  1.00  0.00    -0.025 A 
ATOM      9  C   UNL     1      97.236  82.121  76.054  1.00  0.00     0.160 A 
ATOM     10  C   UNL     1      96.766  82.938  75.002  1.00  0.00     0.157 A 
ATOM     11  C   UNL     1      98.557  81.630  76.013  1.00  0.00     0.056 A 
ATOM     12  C   UNL     1      97.627  83.284  73.944  1.00  0.00     0.050 A 
ATOM     13  C   UNL     1      98.950  82.805  73.921  1.00  0.00     0.009 A 
BRANCH   9  14
ATOM     14  O   UNL     1      96.435  81.851  77.131  1.00  0.00    -0.493 OA
ATOM     15  C   UNL     1      97.081  82.029  78.403  1.00  0.00     0.278 C 
ENDBRANCH   9  14
BRANCH  10  16
ATOM     16  O   UNL     1      95.494  83.408  74.989  1.00  0.00    -0.504 OA
ATOM     17  H   UNL     1      95.437  84.160  74.395  1.00  0.00     0.293 HD
ENDBRANCH  10  16
ENDBRANCH   7   8
ENDBRANCH   4   7
ENDBRANCH   2   3
ENDBRANCH   1   2
BRANCH   1  18
ATOM     18  C   UNL     1      99.619  79.098  70.822  1.00  0.00     0.001 C 
BRANCH  18  19
ATOM     19  C   UNL     1      99.344  80.534  70.307  1.00  0.00     0.004 C 
BRANCH  19  20
ATOM     20  C   UNL     1     100.458  81.011  69.334  1.00  0.00     0.027 C 
BRANCH  20  21
ATOM     21  C   UNL     1     101.129  82.225  69.764  1.00  0.00    -0.031 C 
ATOM     22  C   UNL     1     100.754  82.903  70.863  1.00  0.00    -0.028 C 
BRANCH  22  23
ATOM     23  C   UNL     1     101.411  84.123  71.325  1.00  0.00     0.005 C 
ATOM     24  C   UNL     1     102.346  83.810  72.524  1.00  0.00     0.012 C 
ATOM     25  C   UNL     1     102.165  84.805  70.151  1.00  0.00     0.012 C 
ENDBRANCH  22  23
ENDBRANCH  20  21
ENDBRANCH  19  20
ENDBRANCH  18  19
ENDBRANCH   1  18
TORSDOF 11
ENDMDL
MODEL 10
REMARK VINA RESULT:    -4.972      2.032      4.398
REMARK INTER + INTRA:          -9.130
REMARK INTER:                  -7.148
REMARK INTRA:                  -1.983
REMARK UNBOUND:                -1.107
REMARK SMILES COc1cc(CNC(=O)CCCCC/C=C/C(C)C)ccc1O
REMARK SMILES IDX 11 1 10 2 8 3 7 4 9 6 6 7 5 8 3 9 22 10 4 11 21 12 20 13
REMARK SMILES IDX 2 14 1 15 23 16 12 18 13 19 14 20 15 21 16 22 17 23 18 24
REMARK SMILES IDX 19 25
REMARK H PARENT 7 5 23 17
REMARK Flexibility Score: inf
ROOT
ATOM      1  C   UNL     1      69.767  84.231  65.639  1.00  0.00     0.010 C 
ENDROOT
BRANCH   1   2
ATOM      2  C   UNL     1      70.513  82.880  65.791  1.00  0.00     0.100 C 
BRANCH   2   3
ATOM      3  C   UNL     1      71.828  82.843  65.125  1.00  0.00     0.220 C 
ATOM      4  N   UNL     1      72.963  82.731  65.869  1.00  0.00    -0.352 N 
ATOM      5  H   UNL     1      72.815  82.756  66.869  1.00  0.00     0.163 HD
ATOM      6  O   UNL     1      71.862  82.874  63.872  1.00  0.00    -0.275 OA
BRANCH   4   7
ATOM      7  C   UNL     1      74.284  82.587  65.351  1.00  0.00     0.151 C 
BRANCH   7   8
ATOM      8  C   UNL     1      75.263  83.483  66.021  1.00  0.00    -0.025 A 
ATOM      9  C   UNL     1      76.178  84.496  68.067  1.00  0.00     0.160 A 
ATOM     10  C   UNL     1      77.097  85.233  67.289  1.00  0.00     0.157 A 
ATOM     11  C   UNL     1      75.263  83.635  67.428  1.00  0.00     0.056 A 
ATOM     12  C   UNL     1      77.117  85.077  65.891  1.00  0.00     0.050 A 
ATOM     13  C   UNL     1      76.214  84.200  65.262  1.00  0.00     0.009 A 
BRANCH   9  14
ATOM     14  O   UNL     1      76.208  84.575  69.434  1.00  0.00    -0.493 OA
ATOM     15  C   UNL     1      74.929  84.836  70.036  1.00  0.00     0.278 C 
ENDBRANCH   9  14
BRANCH  10  16
ATOM     16  O   UNL     1      77.975  86.094  67.863  1.00  0.00    -0.504 OA
ATOM     17  H   UNL     1      78.698  86.265  67.255  1.00  0.00     0.293 HD
ENDBRANCH  10  16
ENDBRANCH   7   8
ENDBRANCH   4   7
ENDBRANCH   2   3
ENDBRANCH   1   2
BRANCH   1  18
ATOM     18  C   UNL     1      70.679  85.421  66.031  1.00  0.00     0.001 C 
BRANCH  18  19
ATOM     19  C   UNL     1      70.582  85.815  67.527  1.00  0.00     0.004 C 
BRANCH  19  20
ATOM     20  C   UNL     1      71.981  85.816  68.205  1.00  0.00     0.027 C 
BRANCH  20  21
ATOM     21  C   UNL     1      72.717  87.055  68.024  1.00  0.00    -0.031 C 
ATOM     22  C   UNL     1      73.860  87.115  67.317  1.00  0.00    -0.028 C 
BRANCH  22  23
ATOM     23  C   UNL     1      74.621  88.345  67.112  1.00  0.00     0.005 C 
ATOM     24  C   UNL     1      75.565  88.601  68.317  1.00  0.00     0.012 C 
ATOM     25  C   UNL     1      75.388  88.283  65.764  1.00  0.00     0.012 C 
ENDBRANCH  22  23
ENDBRANCH  20  21
ENDBRANCH  19  20
ENDBRANCH  18  19
ENDBRANCH   1  18
TORSDOF 11
ENDMDL
