MODEL 1
REMARK VINA RESULT:    -6.906      0.000      0.000
REMARK INTER + INTRA:         -12.860
REMARK INTER:                 -12.154
REMARK INTRA:                  -0.706
REMARK UNBOUND:                -0.706
REMARK SMILES C=C(C)[C@]12C[C@@H](C)[C@@]34O[C@](Cc5ccccc5)(O[C@@H]1[C@@H]3C=C(COC(=O)Cc1ccc(O)c(OC)c1)C[C@]1(O)C(=O)C(C)=C[C@@H]41)O2
REMARK SMILES IDX 23 1 22 2 21 3 20 4 9 5 8 6 10 7 6 8 18 9 46 10 19 11 5 12
REMARK SMILES IDX 7 13 4 14 45 15 38 16 44 17 40 18 42 20 41 21 43 22 39 23
REMARK SMILES IDX 11 25 12 26 13 27 17 28 14 29 16 30 15 31 2 32 3 33 1 34
REMARK SMILES IDX 37 35 24 37 25 38 26 39 27 40 28 41 36 42 29 43 33 44 30 45
REMARK SMILES IDX 31 46 34 47 35 48 32 49
REMARK H PARENT 39 24 32 50
REMARK Flexibility Score: 90.00
ROOT
ATOM      1  C   UNL     1      97.947  83.409  85.189  1.00  0.00     0.264 C 
ENDROOT
BRANCH   1   2
ATOM      2  C   UNL     1      96.680  83.733  85.944  1.00  0.00    -0.033 C 
ATOM      3  C   UNL     1      95.793  82.749  86.197  1.00  0.00    -0.015 C 
BRANCH   3   4
ATOM      4  C   UNL     1      94.427  82.828  86.860  1.00  0.00     0.078 C 
ATOM      5  O   UNL     1      94.771  82.396  89.271  1.00  0.00    -0.319 OA
ATOM      6  C   UNL     1      94.336  83.414  88.318  1.00  0.00     0.095 C 
ATOM      7  C   UNL     1      94.285  81.065  89.016  1.00  0.00     0.289 C 
ATOM      8  C   UNL     1      92.818  83.776  88.595  1.00  0.00     0.023 C 
ATOM      9  O   UNL     1      94.661  80.617  87.716  1.00  0.00    -0.320 OA
ATOM     10  O   UNL     1      92.862  80.992  89.051  1.00  0.00    -0.313 OA
ATOM     11  C   UNL     1      93.784  81.420  86.910  1.00  0.00     0.170 C 
ATOM     12  C   UNL     1      91.853  82.792  87.865  1.00  0.00     0.049 C 
ATOM     13  C   UNL     1      92.423  83.874  90.078  1.00  0.00     0.011 C 
ATOM     14  C   UNL     1      92.467  81.398  87.724  1.00  0.00     0.122 C 
BRANCH   6  15
ATOM     15  C   UNL     1      95.347  84.582  88.508  1.00  0.00     0.086 C 
ATOM     16  C   UNL     1      95.462  85.579  87.337  1.00  0.00     0.140 CG0
ATOM     17  C   UNL     1      95.227  85.471  89.714  1.00  0.00    -0.010 C 
ATOM     18  C   UNL     1      95.731  86.888  88.049  1.00  0.00     0.190 C 
ATOM     19  G   UNL     1      96.579  85.202  86.365  1.00  0.00     0.000 G0
ATOM     20  C   UNL     1      95.464  86.769  89.494  1.00  0.00    -0.008 C 
ATOM     21  O   UNL     1      96.073  87.930  87.510  1.00  0.00    -0.291 OA
ATOM     22  C   UNL     1      95.517  87.900  90.443  1.00  0.00     0.048 C 
BRANCH  16  23
ATOM     23  O   UNL     1      94.239  85.809  86.656  1.00  0.00    -0.381 OA
ATOM     24  H   UNL     1      94.176  85.181  85.918  1.00  0.00     0.212 HD
ENDBRANCH  16  23
ENDBRANCH   6  15
BRANCH   7  25
ATOM     25  C   UNL     1      94.865  80.137  90.064  1.00  0.00     0.135 C 
BRANCH  25  26
ATOM     26  C   UNL     1      93.951  78.973  90.357  1.00  0.00    -0.040 A 
ATOM     27  C   UNL     1      94.233  77.714  89.826  1.00  0.00     0.004 A 
ATOM     28  C   UNL     1      92.825  79.155  91.160  1.00  0.00     0.004 A 
ATOM     29  C   UNL     1      93.388  76.638  90.097  1.00  0.00     0.000 A 
ATOM     30  C   UNL     1      91.980  78.078  91.431  1.00  0.00     0.000 A 
ATOM     31  C   UNL     1      92.262  76.820  90.899  1.00  0.00     0.000 A 
ENDBRANCH  25  26
ENDBRANCH   7  25
BRANCH  14  32
ATOM     32  C   UNL     1      91.496  80.394  87.194  1.00  0.00    -0.046 C 
ATOM     33  C   UNL     1      91.081  80.566  85.763  1.00  0.00     0.042 C 
ATOM     34  C   UNL     1      91.022  79.396  87.955  1.00  0.00     0.010 C 
ENDBRANCH  14  32
ENDBRANCH   3   4
BRANCH   2  35
ATOM     35  C   UNL     1      96.580  85.194  86.339  1.00  0.00     0.078 CG0
ATOM     36  G   UNL     1      95.476  85.578  87.324  1.00  0.00     0.000 G0
ENDBRANCH   2  35
ENDBRANCH   1   2
BRANCH   1  37
ATOM     37  O   UNL     1      97.650  83.261  83.817  1.00  0.00    -0.461 OA
BRANCH  37  38
ATOM     38  C   UNL     1      98.339  82.277  83.147  1.00  0.00     0.310 C 
ATOM     39  O   UNL     1      98.160  81.075  83.287  1.00  0.00    -0.252 OA
BRANCH  38  40
ATOM     40  C   UNL     1      99.345  82.911  82.216  1.00  0.00     0.158 C 
BRANCH  40  41
ATOM     41  C   UNL     1      99.123  82.544  80.772  1.00  0.00    -0.033 A 
ATOM     42  C   UNL     1      98.187  83.244  80.010  1.00  0.00     0.054 A 
ATOM     43  C   UNL     1      99.854  81.505  80.196  1.00  0.00     0.008 A 
ATOM     44  C   UNL     1      97.981  82.904  78.673  1.00  0.00     0.160 A 
ATOM     45  C   UNL     1      99.648  81.164  78.859  1.00  0.00     0.050 A 
ATOM     46  C   UNL     1      98.712  81.863  78.097  1.00  0.00     0.157 A 
BRANCH  44  47
ATOM     47  O   UNL     1      97.064  83.594  77.940  1.00  0.00    -0.493 OA
ATOM     48  C   UNL     1      97.567  84.484  76.945  1.00  0.00     0.278 C 
ENDBRANCH  44  47
BRANCH  46  49
ATOM     49  O   UNL     1      98.520  81.523  76.793  1.00  0.00    -0.504 OA
ATOM     50  H   UNL     1      98.694  80.573  76.684  1.00  0.00     0.293 HD
ENDBRANCH  46  49
ENDBRANCH  40  41
ENDBRANCH  38  40
ENDBRANCH  37  38
ENDBRANCH   1  37
TORSDOF 11
ENDMDL
MODEL 2
REMARK VINA RESULT:    -6.832     32.572     35.828
REMARK INTER + INTRA:         -12.729
REMARK INTER:                 -11.031
REMARK INTRA:                  -1.698
REMARK UNBOUND:                -0.706
REMARK SMILES C=C(C)[C@]12C[C@@H](C)[C@@]34O[C@](Cc5ccccc5)(O[C@@H]1[C@@H]3C=C(COC(=O)Cc1ccc(O)c(OC)c1)C[C@]1(O)C(=O)C(C)=C[C@@H]41)O2
REMARK SMILES IDX 23 1 22 2 21 3 20 4 9 5 8 6 10 7 6 8 18 9 46 10 19 11 5 12
REMARK SMILES IDX 7 13 4 14 45 15 38 16 44 17 40 18 42 20 41 21 43 22 39 23
REMARK SMILES IDX 11 25 12 26 13 27 17 28 14 29 16 30 15 31 2 32 3 33 1 34
REMARK SMILES IDX 37 35 24 37 25 38 26 39 27 40 28 41 36 42 29 43 33 44 30 45
REMARK SMILES IDX 31 46 34 47 35 48 32 49
REMARK H PARENT 39 24 32 50
REMARK Flexibility Score: 90.00
ROOT
ATOM      1  C   UNL     1      65.672  87.575  70.830  1.00  0.00     0.264 C 
ENDROOT
BRANCH   1   2
ATOM      2  C   UNL     1      65.364  86.171  71.296  1.00  0.00    -0.033 C 
ATOM      3  C   UNL     1      64.878  85.980  72.539  1.00  0.00    -0.015 C 
BRANCH   3   4
ATOM      4  C   UNL     1      64.564  84.682  73.264  1.00  0.00     0.078 C 
ATOM      5  O   UNL     1      62.178  84.181  72.846  1.00  0.00    -0.319 OA
ATOM      6  C   UNL     1      63.533  83.688  72.609  1.00  0.00     0.095 C 
ATOM      7  C   UNL     1      61.928  84.682  74.173  1.00  0.00     0.289 C 
ATOM      8  C   UNL     1      63.710  82.280  73.314  1.00  0.00     0.023 C 
ATOM      9  O   UNL     1      62.826  85.737  74.505  1.00  0.00    -0.320 OA
ATOM     10  O   UNL     1      62.118  83.684  75.173  1.00  0.00    -0.313 OA
ATOM     11  C   UNL     1      64.038  84.988  74.688  1.00  0.00     0.170 C 
ATOM     12  C   UNL     1      64.113  82.438  74.812  1.00  0.00     0.049 C 
ATOM     13  C   UNL     1      62.504  81.332  73.206  1.00  0.00     0.011 C 
ATOM     14  C   UNL     1      63.539  83.718  75.421  1.00  0.00     0.122 C 
BRANCH   6  15
ATOM     15  C   UNL     1      63.679  83.683  71.060  1.00  0.00     0.086 C 
ATOM     16  C   UNL     1      65.122  83.677  70.513  1.00  0.00     0.140 CG0
ATOM     17  C   UNL     1      62.998  82.610  70.259  1.00  0.00    -0.010 C 
ATOM     18  C   UNL     1      64.990  82.847  69.254  1.00  0.00     0.190 C 
ATOM     19  G   UNL     1      65.639  85.088  70.232  1.00  0.00     0.000 G0
ATOM     20  C   UNL     1      63.697  82.138  69.221  1.00  0.00    -0.008 C 
ATOM     21  O   UNL     1      65.848  82.724  68.393  1.00  0.00    -0.291 OA
ATOM     22  C   UNL     1      63.316  81.157  68.185  1.00  0.00     0.048 C 
BRANCH  16  23
ATOM     23  O   UNL     1      66.035  82.941  71.310  1.00  0.00    -0.381 OA
ATOM     24  H   UNL     1      65.607  82.736  72.157  1.00  0.00     0.212 HD
ENDBRANCH  16  23
ENDBRANCH   6  15
BRANCH   7  25
ATOM     25  C   UNL     1      60.501  85.188  74.228  1.00  0.00     0.135 C 
BRANCH  25  26
ATOM     26  C   UNL     1      59.984  85.574  72.865  1.00  0.00    -0.040 A 
ATOM     27  C   UNL     1      59.458  84.600  72.016  1.00  0.00     0.004 A 
ATOM     28  C   UNL     1      60.031  86.906  72.452  1.00  0.00     0.004 A 
ATOM     29  C   UNL     1      58.981  84.957  70.755  1.00  0.00     0.000 A 
ATOM     30  C   UNL     1      59.554  87.263  71.191  1.00  0.00     0.000 A 
ATOM     31  C   UNL     1      59.029  86.288  70.343  1.00  0.00     0.000 A 
ENDBRANCH  25  26
ENDBRANCH   7  25
BRANCH  14  32
ATOM     32  C   UNL     1      63.757  83.800  76.897  1.00  0.00    -0.046 C 
ATOM     33  C   UNL     1      65.182  83.752  77.359  1.00  0.00     0.042 C 
ATOM     34  C   UNL     1      62.735  83.910  77.760  1.00  0.00     0.010 C 
ENDBRANCH  14  32
ENDBRANCH   3   4
BRANCH   2  35
ATOM     35  C   UNL     1      65.654  85.118  70.243  1.00  0.00     0.078 CG0
ATOM     36  G   UNL     1      65.131  83.706  70.504  1.00  0.00     0.000 G0
ENDBRANCH   2  35
ENDBRANCH   1   2
BRANCH   1  37
ATOM     37  O   UNL     1      64.473  88.212  70.444  1.00  0.00    -0.461 OA
BRANCH  37  38
ATOM     38  C   UNL     1      64.477  88.822  69.212  1.00  0.00     0.310 C 
ATOM     39  O   UNL     1      65.283  89.669  68.850  1.00  0.00    -0.252 OA
BRANCH  38  40
ATOM     40  C   UNL     1      63.336  88.287  68.379  1.00  0.00     0.158 C 
BRANCH  40  41
ATOM     41  C   UNL     1      63.802  87.519  67.169  1.00  0.00    -0.033 A 
ATOM     42  C   UNL     1      63.833  88.139  65.919  1.00  0.00     0.054 A 
ATOM     43  C   UNL     1      64.202  86.189  67.297  1.00  0.00     0.008 A 
ATOM     44  C   UNL     1      64.264  87.429  64.798  1.00  0.00     0.160 A 
ATOM     45  C   UNL     1      64.633  85.479  66.177  1.00  0.00     0.050 A 
ATOM     46  C   UNL     1      64.664  86.098  64.928  1.00  0.00     0.157 A 
BRANCH  44  47
ATOM     47  O   UNL     1      64.290  88.044  63.584  1.00  0.00    -0.493 OA
ATOM     48  C   UNL     1      64.926  89.320  63.517  1.00  0.00     0.278 C 
ENDBRANCH  44  47
BRANCH  46  49
ATOM     49  O   UNL     1      65.088  85.394  63.841  1.00  0.00    -0.504 OA
ATOM     50  H   UNL     1      64.341  85.277  63.229  1.00  0.00     0.293 HD
ENDBRANCH  46  49
ENDBRANCH  40  41
ENDBRANCH  38  40
ENDBRANCH  37  38
ENDBRANCH   1  37
TORSDOF 11
ENDMDL
MODEL 3
REMARK VINA RESULT:    -6.745     27.832     31.769
REMARK INTER + INTRA:         -12.577
REMARK INTER:                 -11.821
REMARK INTRA:                  -0.755
REMARK UNBOUND:                -0.706
REMARK SMILES C=C(C)[C@]12C[C@@H](C)[C@@]34O[C@](Cc5ccccc5)(O[C@@H]1[C@@H]3C=C(COC(=O)Cc1ccc(O)c(OC)c1)C[C@]1(O)C(=O)C(C)=C[C@@H]41)O2
REMARK SMILES IDX 23 1 22 2 21 3 20 4 9 5 8 6 10 7 6 8 18 9 46 10 19 11 5 12
REMARK SMILES IDX 7 13 4 14 45 15 38 16 44 17 40 18 42 20 41 21 43 22 39 23
REMARK SMILES IDX 11 25 12 26 13 27 17 28 14 29 16 30 15 31 2 32 3 33 1 34
REMARK SMILES IDX 37 35 24 37 25 38 26 39 27 40 28 41 36 42 29 43 33 44 30 45
REMARK SMILES IDX 31 46 34 47 35 48 32 49
REMARK H PARENT 39 24 32 50
REMARK Flexibility Score: 90.00
ROOT
ATOM      1  C   UNL     1      69.286  82.618  69.306  1.00  0.00     0.264 C 
ENDROOT
BRANCH   1   2
ATOM      2  C   UNL     1      70.193  83.341  68.338  1.00  0.00    -0.033 C 
ATOM      3  C   UNL     1      70.434  84.656  68.517  1.00  0.00    -0.015 C 
BRANCH   3   4
ATOM      4  C   UNL     1      71.236  85.616  67.654  1.00  0.00     0.078 C 
ATOM      5  O   UNL     1      73.542  85.637  68.548  1.00  0.00    -0.319 OA
ATOM      6  C   UNL     1      72.749  85.286  67.372  1.00  0.00     0.095 C 
ATOM      7  C   UNL     1      73.199  86.889  69.172  1.00  0.00     0.289 C 
ATOM      8  C   UNL     1      73.213  86.173  66.144  1.00  0.00     0.023 C 
ATOM      9  O   UNL     1      71.828  86.914  69.561  1.00  0.00    -0.320 OA
ATOM     10  O   UNL     1      73.369  87.996  68.291  1.00  0.00    -0.313 OA
ATOM     11  C   UNL     1      71.202  87.035  68.274  1.00  0.00     0.170 C 
ATOM     12  C   UNL     1      72.485  87.552  66.127  1.00  0.00     0.049 C 
ATOM     13  C   UNL     1      74.730  86.394  66.026  1.00  0.00     0.011 C 
ATOM     14  C   UNL     1      72.138  88.026  67.539  1.00  0.00     0.122 C 
BRANCH   6  15
ATOM     15  C   UNL     1      72.957  83.753  67.207  1.00  0.00     0.086 C 
ATOM     16  C   UNL     1      71.895  83.008  66.371  1.00  0.00     0.140 CG0
ATOM     17  C   UNL     1      74.258  83.242  66.654  1.00  0.00    -0.010 C 
ATOM     18  C   UNL     1      72.713  81.931  65.690  1.00  0.00     0.190 C 
ATOM     19  G   UNL     1      70.777  82.434  67.239  1.00  0.00     0.000 G0
ATOM     20  C   UNL     1      74.157  82.201  65.820  1.00  0.00    -0.008 C 
ATOM     21  O   UNL     1      72.257  80.984  65.067  1.00  0.00    -0.291 OA
ATOM     22  C   UNL     1      75.211  81.401  65.164  1.00  0.00     0.048 C 
BRANCH  16  23
ATOM     23  O   UNL     1      71.375  83.770  65.294  1.00  0.00    -0.381 OA
ATOM     24  H   UNL     1      71.520  84.711  65.486  1.00  0.00     0.212 HD
ENDBRANCH  16  23
ENDBRANCH   6  15
BRANCH   7  25
ATOM     25  C   UNL     1      74.081  87.071  70.390  1.00  0.00     0.135 C 
BRANCH  25  26
ATOM     26  C   UNL     1      75.428  86.415  70.216  1.00  0.00    -0.040 A 
ATOM     27  C   UNL     1      75.651  85.136  70.727  1.00  0.00     0.004 A 
ATOM     28  C   UNL     1      76.449  87.085  69.543  1.00  0.00     0.004 A 
ATOM     29  C   UNL     1      76.897  84.528  70.566  1.00  0.00     0.000 A 
ATOM     30  C   UNL     1      77.695  86.477  69.383  1.00  0.00     0.000 A 
ATOM     31  C   UNL     1      77.918  85.198  69.894  1.00  0.00     0.000 A 
ENDBRANCH  25  26
ENDBRANCH   7  25
BRANCH  14  32
ATOM     32  C   UNL     1      71.606  89.422  67.562  1.00  0.00    -0.046 C 
ATOM     33  C   UNL     1      72.580  90.496  67.947  1.00  0.00     0.042 C 
ATOM     34  C   UNL     1      70.330  89.700  67.255  1.00  0.00     0.010 C 
ENDBRANCH  14  32
ENDBRANCH   3   4
BRANCH   2  35
ATOM     35  C   UNL     1      70.740  82.440  67.248  1.00  0.00     0.078 CG0
ATOM     36  G   UNL     1      71.879  82.991  66.390  1.00  0.00     0.000 G0
ENDBRANCH   2  35
ENDBRANCH   1   2
BRANCH   1  37
ATOM     37  O   UNL     1      68.041  83.280  69.363  1.00  0.00    -0.461 OA
BRANCH  37  38
ATOM     38  C   UNL     1      67.467  83.390  70.608  1.00  0.00     0.310 C 
ATOM     39  O   UNL     1      67.763  84.232  71.446  1.00  0.00    -0.252 OA
BRANCH  38  40
ATOM     40  C   UNL     1      66.420  82.315  70.778  1.00  0.00     0.158 C 
BRANCH  40  41
ATOM     41  C   UNL     1      65.016  82.860  70.801  1.00  0.00    -0.033 A 
ATOM     42  C   UNL     1      64.335  82.983  72.013  1.00  0.00     0.054 A 
ATOM     43  C   UNL     1      64.397  83.241  69.611  1.00  0.00     0.008 A 
ATOM     44  C   UNL     1      63.034  83.487  72.033  1.00  0.00     0.160 A 
ATOM     45  C   UNL     1      63.096  83.746  69.632  1.00  0.00     0.050 A 
ATOM     46  C   UNL     1      62.415  83.868  70.842  1.00  0.00     0.157 A 
BRANCH  44  47
ATOM     47  O   UNL     1      62.379  83.602  73.222  1.00  0.00    -0.493 OA
ATOM     48  C   UNL     1      62.050  84.921  73.656  1.00  0.00     0.278 C 
ENDBRANCH  44  47
BRANCH  46  49
ATOM     49  O   UNL     1      61.146  84.363  70.850  1.00  0.00    -0.504 OA
ATOM     50  H   UNL     1      60.609  83.849  71.477  1.00  0.00     0.293 HD
ENDBRANCH  46  49
ENDBRANCH  40  41
ENDBRANCH  38  40
ENDBRANCH  37  38
ENDBRANCH   1  37
TORSDOF 11
ENDMDL
MODEL 4
REMARK VINA RESULT:    -6.672     32.012     35.271
REMARK INTER + INTRA:         -12.448
REMARK INTER:                 -10.449
REMARK INTRA:                  -1.999
REMARK UNBOUND:                -0.706
REMARK SMILES C=C(C)[C@]12C[C@@H](C)[C@@]34O[C@](Cc5ccccc5)(O[C@@H]1[C@@H]3C=C(COC(=O)Cc1ccc(O)c(OC)c1)C[C@]1(O)C(=O)C(C)=C[C@@H]41)O2
REMARK SMILES IDX 23 1 22 2 21 3 20 4 9 5 8 6 10 7 6 8 18 9 46 10 19 11 5 12
REMARK SMILES IDX 7 13 4 14 45 15 38 16 44 17 40 18 42 20 41 21 43 22 39 23
REMARK SMILES IDX 11 25 12 26 13 27 17 28 14 29 16 30 15 31 2 32 3 33 1 34
REMARK SMILES IDX 37 35 24 37 25 38 26 39 27 40 28 41 36 42 29 43 33 44 30 45
REMARK SMILES IDX 31 46 34 47 35 48 32 49
REMARK H PARENT 39 24 32 50
REMARK Flexibility Score: 90.00
ROOT
ATOM      1  C   UNL     1      66.188  87.632  71.045  1.00  0.00     0.264 C 
ENDROOT
BRANCH   1   2
ATOM      2  C   UNL     1      65.726  86.262  71.482  1.00  0.00    -0.033 C 
ATOM      3  C   UNL     1      65.262  86.092  72.737  1.00  0.00    -0.015 C 
BRANCH   3   4
ATOM      4  C   UNL     1      64.815  84.818  73.436  1.00  0.00     0.078 C 
ATOM      5  O   UNL     1      62.371  84.632  73.101  1.00  0.00    -0.319 OA
ATOM      6  C   UNL     1      63.644  83.983  72.795  1.00  0.00     0.095 C 
ATOM      7  C   UNL     1      62.234  85.115  74.451  1.00  0.00     0.289 C 
ATOM      8  C   UNL     1      63.668  82.541  73.452  1.00  0.00     0.023 C 
ATOM      9  O   UNL     1      63.269  86.039  74.777  1.00  0.00    -0.320 OA
ATOM     10  O   UNL     1      62.335  84.069  75.413  1.00  0.00    -0.313 OA
ATOM     11  C   UNL     1      64.383  85.139  74.888  1.00  0.00     0.170 C 
ATOM     12  C   UNL     1      64.143  82.597  74.937  1.00  0.00     0.049 C 
ATOM     13  C   UNL     1      62.351  81.755  73.365  1.00  0.00     0.011 C 
ATOM     14  C   UNL     1      63.756  83.917  75.605  1.00  0.00     0.122 C 
BRANCH   6  15
ATOM     15  C   UNL     1      63.732  84.013  71.242  1.00  0.00     0.086 C 
ATOM     16  C   UNL     1      65.140  83.836  70.637  1.00  0.00     0.140 CG0
ATOM     17  C   UNL     1      62.885  83.066  70.439  1.00  0.00    -0.010 C 
ATOM     18  C   UNL     1      64.853  83.073  69.361  1.00  0.00     0.190 C 
ATOM     19  G   UNL     1      65.828  85.175  70.376  1.00  0.00     0.000 G0
ATOM     20  C   UNL     1      63.477  82.542  69.360  1.00  0.00    -0.008 C 
ATOM     21  O   UNL     1      65.656  82.869  68.462  1.00  0.00    -0.291 OA
ATOM     22  C   UNL     1      62.932  81.656  68.311  1.00  0.00     0.048 C 
BRANCH  16  23
ATOM     23  O   UNL     1      65.976  82.959  71.374  1.00  0.00    -0.381 OA
ATOM     24  H   UNL     1      66.290  83.428  72.166  1.00  0.00     0.212 HD
ENDBRANCH  16  23
ENDBRANCH   6  15
BRANCH   7  25
ATOM     25  C   UNL     1      60.885  85.792  74.579  1.00  0.00     0.135 C 
BRANCH  25  26
ATOM     26  C   UNL     1      60.149  85.839  73.263  1.00  0.00    -0.040 A 
ATOM     27  C   UNL     1      59.869  87.068  72.664  1.00  0.00     0.004 A 
ATOM     28  C   UNL     1      59.750  84.655  72.644  1.00  0.00     0.004 A 
ATOM     29  C   UNL     1      59.188  87.112  71.447  1.00  0.00     0.000 A 
ATOM     30  C   UNL     1      59.069  84.699  71.426  1.00  0.00     0.000 A 
ATOM     31  C   UNL     1      58.789  85.928  70.829  1.00  0.00     0.000 A 
ENDBRANCH  25  26
ENDBRANCH   7  25
BRANCH  14  32
ATOM     32  C   UNL     1      64.037  83.922  77.072  1.00  0.00    -0.046 C 
ATOM     33  C   UNL     1      62.896  84.315  77.963  1.00  0.00     0.042 C 
ATOM     34  C   UNL     1      65.240  83.594  77.565  1.00  0.00     0.010 C 
ENDBRANCH  14  32
ENDBRANCH   3   4
BRANCH   2  35
ATOM     35  C   UNL     1      65.848  85.216  70.390  1.00  0.00     0.078 CG0
ATOM     36  G   UNL     1      65.155  83.875  70.627  1.00  0.00     0.000 G0
ENDBRANCH   2  35
ENDBRANCH   1   2
BRANCH   1  37
ATOM     37  O   UNL     1      65.353  88.613  71.620  1.00  0.00    -0.461 OA
BRANCH  37  38
ATOM     38  C   UNL     1      65.719  89.922  71.413  1.00  0.00     0.310 C 
ATOM     39  O   UNL     1      65.973  90.417  70.323  1.00  0.00    -0.252 OA
BRANCH  38  40
ATOM     40  C   UNL     1      65.759  90.650  72.736  1.00  0.00     0.158 C 
BRANCH  40  41
ATOM     41  C   UNL     1      64.788  90.092  73.744  1.00  0.00    -0.033 A 
ATOM     42  C   UNL     1      65.230  89.749  75.022  1.00  0.00     0.054 A 
ATOM     43  C   UNL     1      63.448  89.920  73.400  1.00  0.00     0.008 A 
ATOM     44  C   UNL     1      64.331  89.232  75.955  1.00  0.00     0.160 A 
ATOM     45  C   UNL     1      62.549  89.403  74.333  1.00  0.00     0.050 A 
ATOM     46  C   UNL     1      62.990  89.059  75.610  1.00  0.00     0.157 A 
BRANCH  44  47
ATOM     47  O   UNL     1      64.775  88.900  77.200  1.00  0.00    -0.493 OA
ATOM     48  C   UNL     1      65.430  87.640  77.340  1.00  0.00     0.278 C 
ENDBRANCH  44  47
BRANCH  46  49
ATOM     49  O   UNL     1      62.103  88.556  76.514  1.00  0.00    -0.504 OA
ATOM     50  H   UNL     1      62.310  88.914  77.393  1.00  0.00     0.293 HD
ENDBRANCH  46  49
ENDBRANCH  40  41
ENDBRANCH  38  40
ENDBRANCH  37  38
ENDBRANCH   1  37
TORSDOF 11
ENDMDL
MODEL 5
REMARK VINA RESULT:    -6.506      1.299      2.055
REMARK INTER + INTRA:         -12.155
REMARK INTER:                 -11.324
REMARK INTRA:                  -0.832
REMARK UNBOUND:                -0.706
REMARK SMILES C=C(C)[C@]12C[C@@H](C)[C@@]34O[C@](Cc5ccccc5)(O[C@@H]1[C@@H]3C=C(COC(=O)Cc1ccc(O)c(OC)c1)C[C@]1(O)C(=O)C(C)=C[C@@H]41)O2
REMARK SMILES IDX 23 1 22 2 21 3 20 4 9 5 8 6 10 7 6 8 18 9 46 10 19 11 5 12
REMARK SMILES IDX 7 13 4 14 45 15 38 16 44 17 40 18 42 20 41 21 43 22 39 23
REMARK SMILES IDX 11 25 12 26 13 27 17 28 14 29 16 30 15 31 2 32 3 33 1 34
REMARK SMILES IDX 37 35 24 37 25 38 26 39 27 40 28 41 36 42 29 43 33 44 30 45
REMARK SMILES IDX 31 46 34 47 35 48 32 49
REMARK H PARENT 39 24 32 50
REMARK Flexibility Score: 90.00
ROOT
ATOM      1  C   UNL     1      98.159  83.503  85.284  1.00  0.00     0.264 C 
ENDROOT
BRANCH   1   2
ATOM      2  C   UNL     1      96.826  83.787  85.937  1.00  0.00    -0.033 C 
ATOM      3  C   UNL     1      95.925  82.791  86.057  1.00  0.00    -0.015 C 
BRANCH   3   4
ATOM      4  C   UNL     1      94.505  82.836  86.596  1.00  0.00     0.078 C 
ATOM      5  O   UNL     1      94.632  82.291  89.006  1.00  0.00    -0.319 OA
ATOM      6  C   UNL     1      94.278  83.352  88.066  1.00  0.00     0.095 C 
ATOM      7  C   UNL     1      94.179  80.972  88.645  1.00  0.00     0.289 C 
ATOM      8  C   UNL     1      92.739  83.696  88.221  1.00  0.00     0.023 C 
ATOM      9  O   UNL     1      94.675  80.587  87.365  1.00  0.00    -0.320 OA
ATOM     10  O   UNL     1      92.760  80.894  88.548  1.00  0.00    -0.313 OA
ATOM     11  C   UNL     1      93.869  81.425  86.521  1.00  0.00     0.170 C 
ATOM     12  C   UNL     1      91.851  82.745  87.361  1.00  0.00     0.049 C 
ATOM     13  C   UNL     1      92.211  83.723  89.665  1.00  0.00     0.011 C 
ATOM     14  C   UNL     1      92.484  81.362  87.211  1.00  0.00     0.122 C 
BRANCH   6  15
ATOM     15  C   UNL     1      95.260  84.511  88.402  1.00  0.00     0.086 C 
ATOM     16  C   UNL     1      95.479  85.560  87.291  1.00  0.00     0.140 CG0
ATOM     17  C   UNL     1      95.022  85.346  89.629  1.00  0.00    -0.010 C 
ATOM     18  C   UNL     1      95.672  86.837  88.082  1.00  0.00     0.190 C 
ATOM     19  G   UNL     1      96.685  85.227  86.414  1.00  0.00     0.000 G0
ATOM     20  C   UNL     1      95.270  86.653  89.489  1.00  0.00    -0.008 C 
ATOM     21  O   UNL     1      96.057  87.902  87.624  1.00  0.00    -0.291 OA
ATOM     22  C   UNL     1      95.228  87.741  90.487  1.00  0.00     0.048 C 
BRANCH  16  23
ATOM     23  O   UNL     1      94.324  85.817  86.509  1.00  0.00    -0.381 OA
ATOM     24  H   UNL     1      93.819  86.531  86.932  1.00  0.00     0.212 HD
ENDBRANCH  16  23
ENDBRANCH   6  15
BRANCH   7  25
ATOM     25  C   UNL     1      94.668  79.997  89.697  1.00  0.00     0.135 C 
BRANCH  25  26
ATOM     26  C   UNL     1      95.842  80.543  90.472  1.00  0.00    -0.040 A 
ATOM     27  C   UNL     1      97.130  80.448  89.946  1.00  0.00     0.004 A 
ATOM     28  C   UNL     1      95.639  81.144  91.714  1.00  0.00     0.004 A 
ATOM     29  C   UNL     1      98.215  80.954  90.662  1.00  0.00     0.000 A 
ATOM     30  C   UNL     1      96.724  81.650  92.431  1.00  0.00     0.000 A 
ATOM     31  C   UNL     1      98.012  81.554  91.904  1.00  0.00     0.000 A 
ENDBRANCH  25  26
ENDBRANCH   7  25
BRANCH  14  32
ATOM     32  C   UNL     1      91.572  80.381  86.549  1.00  0.00    -0.046 C 
ATOM     33  C   UNL     1      92.049  78.960  86.501  1.00  0.00     0.042 C 
ATOM     34  C   UNL     1      90.393  80.751  86.026  1.00  0.00     0.010 C 
ENDBRANCH  14  32
ENDBRANCH   3   4
BRANCH   2  35
ATOM     35  C   UNL     1      96.684  85.226  86.395  1.00  0.00     0.078 CG0
ATOM     36  G   UNL     1      95.490  85.560  87.289  1.00  0.00     0.000 G0
ENDBRANCH   2  35
ENDBRANCH   1   2
BRANCH   1  37
ATOM     37  O   UNL     1      97.950  83.118  83.943  1.00  0.00    -0.461 OA
BRANCH  37  38
ATOM     38  C   UNL     1      98.635  82.005  83.515  1.00  0.00     0.310 C 
ATOM     39  O   UNL     1      98.235  80.853  83.615  1.00  0.00    -0.252 OA
BRANCH  38  40
ATOM     40  C   UNL     1      99.951  82.425  82.905  1.00  0.00     0.158 C 
BRANCH  40  41
ATOM     41  C   UNL     1     100.004  82.210  81.414  1.00  0.00    -0.033 A 
ATOM     42  C   UNL     1      98.891  82.506  80.627  1.00  0.00     0.054 A 
ATOM     43  C   UNL     1     101.166  81.715  80.822  1.00  0.00     0.008 A 
ATOM     44  C   UNL     1      98.940  82.306  79.247  1.00  0.00     0.160 A 
ATOM     45  C   UNL     1     101.215  81.516  79.442  1.00  0.00     0.050 A 
ATOM     46  C   UNL     1     100.102  81.811  78.655  1.00  0.00     0.157 A 
BRANCH  44  47
ATOM     47  O   UNL     1      97.847  82.598  78.489  1.00  0.00    -0.493 OA
ATOM     48  C   UNL     1      97.444  83.966  78.431  1.00  0.00     0.278 C 
ENDBRANCH  44  47
BRANCH  46  49
ATOM     49  O   UNL     1     100.162  81.613  77.308  1.00  0.00    -0.504 OA
ATOM     50  H   UNL     1     100.048  80.666  77.122  1.00  0.00     0.293 HD
ENDBRANCH  46  49
ENDBRANCH  40  41
ENDBRANCH  38  40
ENDBRANCH  37  38
ENDBRANCH   1  37
TORSDOF 11
ENDMDL
MODEL 6
REMARK VINA RESULT:    -6.499     30.529     33.812
REMARK INTER + INTRA:         -12.143
REMARK INTER:                  -9.567
REMARK INTRA:                  -2.576
REMARK UNBOUND:                -0.706
REMARK SMILES C=C(C)[C@]12C[C@@H](C)[C@@]34O[C@](Cc5ccccc5)(O[C@@H]1[C@@H]3C=C(COC(=O)Cc1ccc(O)c(OC)c1)C[C@]1(O)C(=O)C(C)=C[C@@H]41)O2
REMARK SMILES IDX 23 1 22 2 21 3 20 4 9 5 8 6 10 7 6 8 18 9 46 10 19 11 5 12
REMARK SMILES IDX 7 13 4 14 45 15 38 16 44 17 40 18 42 20 41 21 43 22 39 23
REMARK SMILES IDX 11 25 12 26 13 27 17 28 14 29 16 30 15 31 2 32 3 33 1 34
REMARK SMILES IDX 37 35 24 37 25 38 26 39 27 40 28 41 36 42 29 43 33 44 30 45
REMARK SMILES IDX 31 46 34 47 35 48 32 49
REMARK H PARENT 39 24 32 50
REMARK Flexibility Score: 90.00
ROOT
ATOM      1  C   UNL     1      64.851  90.204  75.825  1.00  0.00     0.264 C 
ENDROOT
BRANCH   1   2
ATOM      2  C   UNL     1      64.201  88.854  76.021  1.00  0.00    -0.033 C 
ATOM      3  C   UNL     1      63.483  88.315  75.015  1.00  0.00    -0.015 C 
BRANCH   3   4
ATOM      4  C   UNL     1      62.678  87.026  74.987  1.00  0.00     0.078 C 
ATOM      5  O   UNL     1      64.187  85.253  74.153  1.00  0.00    -0.319 OA
ATOM      6  C   UNL     1      63.415  85.676  75.319  1.00  0.00     0.095 C 
ATOM      7  C   UNL     1      63.519  85.396  72.886  1.00  0.00     0.289 C 
ATOM      8  C   UNL     1      62.306  84.589  75.635  1.00  0.00     0.023 C 
ATOM      9  O   UNL     1      63.118  86.745  72.663  1.00  0.00    -0.320 OA
ATOM     10  O   UNL     1      62.324  84.623  72.814  1.00  0.00    -0.313 OA
ATOM     11  C   UNL     1      62.028  86.842  73.593  1.00  0.00     0.170 C 
ATOM     12  C   UNL     1      61.016  84.827  74.792  1.00  0.00     0.049 C 
ATOM     13  C   UNL     1      62.754  83.126  75.483  1.00  0.00     0.011 C 
ATOM     14  C   UNL     1      61.334  85.466  73.439  1.00  0.00     0.122 C 
BRANCH   6  15
ATOM     15  C   UNL     1      64.480  85.888  76.434  1.00  0.00     0.086 C 
ATOM     16  C   UNL     1      64.058  86.788  77.615  1.00  0.00     0.140 CG0
ATOM     17  C   UNL     1      65.090  84.691  77.108  1.00  0.00    -0.010 C 
ATOM     18  C   UNL     1      64.779  86.151  78.784  1.00  0.00     0.190 C 
ATOM     19  G   UNL     1      64.463  88.246  77.402  1.00  0.00     0.000 G0
ATOM     20  C   UNL     1      65.296  84.817  78.423  1.00  0.00    -0.008 C 
ATOM     21  O   UNL     1      64.884  86.635  79.900  1.00  0.00    -0.291 OA
ATOM     22  C   UNL     1      65.941  83.893  79.378  1.00  0.00     0.048 C 
BRANCH  16  23
ATOM     23  O   UNL     1      62.687  86.676  77.960  1.00  0.00    -0.381 OA
ATOM     24  H   UNL     1      62.581  86.950  78.886  1.00  0.00     0.212 HD
ENDBRANCH  16  23
ENDBRANCH   6  15
BRANCH   7  25
ATOM     25  C   UNL     1      64.472  84.957  71.793  1.00  0.00     0.135 C 
BRANCH  25  26
ATOM     26  C   UNL     1      63.807  84.038  70.799  1.00  0.00    -0.040 A 
ATOM     27  C   UNL     1      63.133  84.571  69.699  1.00  0.00     0.004 A 
ATOM     28  C   UNL     1      63.867  82.656  70.977  1.00  0.00     0.004 A 
ATOM     29  C   UNL     1      62.518  83.721  68.779  1.00  0.00     0.000 A 
ATOM     30  C   UNL     1      63.253  81.807  70.056  1.00  0.00     0.000 A 
ATOM     31  C   UNL     1      62.578  82.340  68.958  1.00  0.00     0.000 A 
ENDBRANCH  25  26
ENDBRANCH   7  25
BRANCH  14  32
ATOM     32  C   UNL     1      60.141  85.536  72.543  1.00  0.00    -0.046 C 
ATOM     33  C   UNL     1      59.160  86.632  72.831  1.00  0.00     0.042 C 
ATOM     34  C   UNL     1      59.958  84.667  71.537  1.00  0.00     0.010 C 
ENDBRANCH  14  32
ENDBRANCH   3   4
BRANCH   2  35
ATOM     35  C   UNL     1      64.468  88.259  77.391  1.00  0.00     0.078 CG0
ATOM     36  G   UNL     1      64.077  86.797  77.606  1.00  0.00     0.000 G0
ENDBRANCH   2  35
ENDBRANCH   1   2
BRANCH   1  37
ATOM     37  O   UNL     1      65.265  90.332  74.482  1.00  0.00    -0.461 OA
BRANCH  37  38
ATOM     38  C   UNL     1      66.527  90.841  74.280  1.00  0.00     0.310 C 
ATOM     39  O   UNL     1      66.775  91.908  73.736  1.00  0.00    -0.252 OA
BRANCH  38  40
ATOM     40  C   UNL     1      67.553  89.880  74.833  1.00  0.00     0.158 C 
BRANCH  40  41
ATOM     41  C   UNL     1      67.693  88.629  74.005  1.00  0.00    -0.033 A 
ATOM     42  C   UNL     1      68.314  88.685  72.756  1.00  0.00     0.054 A 
ATOM     43  C   UNL     1      67.203  87.415  74.486  1.00  0.00     0.008 A 
ATOM     44  C   UNL     1      68.444  87.527  71.989  1.00  0.00     0.160 A 
ATOM     45  C   UNL     1      67.332  86.257  73.719  1.00  0.00     0.050 A 
ATOM     46  C   UNL     1      67.952  86.312  72.471  1.00  0.00     0.157 A 
BRANCH  44  47
ATOM     47  O   UNL     1      69.051  87.594  70.772  1.00  0.00    -0.493 OA
ATOM     48  C   UNL     1      70.371  88.135  70.736  1.00  0.00     0.278 C 
ENDBRANCH  44  47
BRANCH  46  49
ATOM     49  O   UNL     1      68.075  85.175  71.732  1.00  0.00    -0.504 OA
ATOM     50  H   UNL     1      68.911  84.736  71.962  1.00  0.00     0.293 HD
ENDBRANCH  46  49
ENDBRANCH  40  41
ENDBRANCH  38  40
ENDBRANCH  37  38
ENDBRANCH   1  37
TORSDOF 11
ENDMDL
MODEL 7
REMARK VINA RESULT:    -6.476     31.207     34.745
REMARK INTER + INTRA:         -12.104
REMARK INTER:                 -10.867
REMARK INTRA:                  -1.237
REMARK UNBOUND:                -0.706
REMARK SMILES C=C(C)[C@]12C[C@@H](C)[C@@]34O[C@](Cc5ccccc5)(O[C@@H]1[C@@H]3C=C(COC(=O)Cc1ccc(O)c(OC)c1)C[C@]1(O)C(=O)C(C)=C[C@@H]41)O2
REMARK SMILES IDX 23 1 22 2 21 3 20 4 9 5 8 6 10 7 6 8 18 9 46 10 19 11 5 12
REMARK SMILES IDX 7 13 4 14 45 15 38 16 44 17 40 18 42 20 41 21 43 22 39 23
REMARK SMILES IDX 11 25 12 26 13 27 17 28 14 29 16 30 15 31 2 32 3 33 1 34
REMARK SMILES IDX 37 35 24 37 25 38 26 39 27 40 28 41 36 42 29 43 33 44 30 45
REMARK SMILES IDX 31 46 34 47 35 48 32 49
REMARK H PARENT 39 24 32 50
REMARK Flexibility Score: 90.00
ROOT
ATOM      1  C   UNL     1      65.178  88.017  70.812  1.00  0.00     0.264 C 
ENDROOT
BRANCH   1   2
ATOM      2  C   UNL     1      64.995  86.593  71.281  1.00  0.00    -0.033 C 
ATOM      3  C   UNL     1      64.562  86.362  72.537  1.00  0.00    -0.015 C 
BRANCH   3   4
ATOM      4  C   UNL     1      64.373  85.042  73.265  1.00  0.00     0.078 C 
ATOM      5  O   UNL     1      62.024  84.354  72.912  1.00  0.00    -0.319 OA
ATOM      6  C   UNL     1      63.406  83.971  72.635  1.00  0.00     0.095 C 
ATOM      7  C   UNL     1      61.771  84.831  74.247  1.00  0.00     0.289 C 
ATOM      8  C   UNL     1      63.713  82.580  73.329  1.00  0.00     0.023 C 
ATOM      9  O   UNL     1      62.593  85.954  74.558  1.00  0.00    -0.320 OA
ATOM     10  O   UNL     1      62.068  83.850  75.237  1.00  0.00    -0.313 OA
ATOM     11  C   UNL     1      63.864  85.303  74.704  1.00  0.00     0.170 C 
ATOM     12  C   UNL     1      64.144  82.766  74.817  1.00  0.00     0.049 C 
ATOM     13  C   UNL     1      62.584  81.540  73.251  1.00  0.00     0.011 C 
ATOM     14  C   UNL     1      63.488  83.996  75.446  1.00  0.00     0.122 C 
BRANCH   6  15
ATOM     15  C   UNL     1      63.509  83.980  71.082  1.00  0.00     0.086 C 
ATOM     16  C   UNL     1      64.932  84.090  70.496  1.00  0.00     0.140 CG0
ATOM     17  C   UNL     1      62.893  82.857  70.297  1.00  0.00    -0.010 C 
ATOM     18  C   UNL     1      64.831  83.254  69.238  1.00  0.00     0.190 C 
ATOM     19  G   UNL     1      65.326  85.538  70.206  1.00  0.00     0.000 G0
ATOM     20  C   UNL     1      63.598  82.444  69.238  1.00  0.00    -0.008 C 
ATOM     21  O   UNL     1      65.672  83.202  68.353  1.00  0.00    -0.291 OA
ATOM     22  C   UNL     1      63.268  81.437  68.209  1.00  0.00     0.048 C 
BRANCH  16  23
ATOM     23  O   UNL     1      65.922  83.428  71.264  1.00  0.00    -0.381 OA
ATOM     24  H   UNL     1      65.802  83.673  72.197  1.00  0.00     0.212 HD
ENDBRANCH  16  23
ENDBRANCH   6  15
BRANCH   7  25
ATOM     25  C   UNL     1      60.311  85.223  74.344  1.00  0.00     0.135 C 
BRANCH  25  26
ATOM     26  C   UNL     1      59.726  85.564  72.996  1.00  0.00    -0.040 A 
ATOM     27  C   UNL     1      59.501  84.555  72.058  1.00  0.00     0.004 A 
ATOM     28  C   UNL     1      59.409  86.886  72.686  1.00  0.00     0.004 A 
ATOM     29  C   UNL     1      58.960  84.869  70.811  1.00  0.00     0.000 A 
ATOM     30  C   UNL     1      58.868  87.200  71.439  1.00  0.00     0.000 A 
ATOM     31  C   UNL     1      58.644  86.191  70.502  1.00  0.00     0.000 A 
ENDBRANCH  25  26
ENDBRANCH   7  25
BRANCH  14  32
ATOM     32  C   UNL     1      63.740  84.092  76.915  1.00  0.00    -0.046 C 
ATOM     33  C   UNL     1      62.563  84.468  77.766  1.00  0.00     0.042 C 
ATOM     34  C   UNL     1      64.950  83.857  77.445  1.00  0.00     0.010 C 
ENDBRANCH  14  32
ENDBRANCH   3   4
BRANCH   2  35
ATOM     35  C   UNL     1      65.333  85.567  70.215  1.00  0.00     0.078 CG0
ATOM     36  G   UNL     1      64.949  84.115  70.494  1.00  0.00     0.000 G0
ENDBRANCH   2  35
ENDBRANCH   1   2
BRANCH   1  37
ATOM     37  O   UNL     1      66.536  88.233  70.494  1.00  0.00    -0.461 OA
BRANCH  37  38
ATOM     38  C   UNL     1      67.105  89.379  71.000  1.00  0.00     0.310 C 
ATOM     39  O   UNL     1      68.159  89.867  70.618  1.00  0.00    -0.252 OA
BRANCH  38  40
ATOM     40  C   UNL     1      66.227  89.935  72.096  1.00  0.00     0.158 C 
BRANCH  40  41
ATOM     41  C   UNL     1      66.893  89.916  73.448  1.00  0.00    -0.033 A 
ATOM     42  C   UNL     1      67.540  91.057  73.923  1.00  0.00     0.054 A 
ATOM     43  C   UNL     1      66.860  88.758  74.225  1.00  0.00     0.008 A 
ATOM     44  C   UNL     1      68.156  91.040  75.175  1.00  0.00     0.160 A 
ATOM     45  C   UNL     1      67.476  88.741  75.477  1.00  0.00     0.050 A 
ATOM     46  C   UNL     1      68.124  89.880  75.952  1.00  0.00     0.157 A 
BRANCH  44  47
ATOM     47  O   UNL     1      68.786  92.159  75.628  1.00  0.00    -0.493 OA
ATOM     48  C   UNL     1      70.123  92.377  75.180  1.00  0.00     0.278 C 
ENDBRANCH  44  47
BRANCH  46  49
ATOM     49  O   UNL     1      68.721  89.852  77.176  1.00  0.00    -0.504 OA
ATOM     50  H   UNL     1      68.698  88.942  77.518  1.00  0.00     0.293 HD
ENDBRANCH  46  49
ENDBRANCH  40  41
ENDBRANCH  38  40
ENDBRANCH  37  38
ENDBRANCH   1  37
TORSDOF 11
ENDMDL
MODEL 8
REMARK VINA RESULT:    -6.414      1.851      2.696
REMARK INTER + INTRA:         -11.993
REMARK INTER:                 -11.244
REMARK INTRA:                  -0.750
REMARK UNBOUND:                -0.706
REMARK SMILES C=C(C)[C@]12C[C@@H](C)[C@@]34O[C@](Cc5ccccc5)(O[C@@H]1[C@@H]3C=C(COC(=O)Cc1ccc(O)c(OC)c1)C[C@]1(O)C(=O)C(C)=C[C@@H]41)O2
REMARK SMILES IDX 23 1 22 2 21 3 20 4 9 5 8 6 10 7 6 8 18 9 46 10 19 11 5 12
REMARK SMILES IDX 7 13 4 14 45 15 38 16 44 17 40 18 42 20 41 21 43 22 39 23
REMARK SMILES IDX 11 25 12 26 13 27 17 28 14 29 16 30 15 31 2 32 3 33 1 34
REMARK SMILES IDX 37 35 24 37 25 38 26 39 27 40 28 41 36 42 29 43 33 44 30 45
REMARK SMILES IDX 31 46 34 47 35 48 32 49
REMARK H PARENT 39 24 32 50
REMARK Flexibility Score: 90.00
ROOT
ATOM      1  C   UNL     1      98.089  82.927  86.844  1.00  0.00     0.264 C 
ENDROOT
BRANCH   1   2
ATOM      2  C   UNL     1      96.708  83.471  87.130  1.00  0.00    -0.033 C 
ATOM      3  C   UNL     1      95.680  82.612  87.281  1.00  0.00    -0.015 C 
BRANCH   3   4
ATOM      4  C   UNL     1      94.203  82.904  87.495  1.00  0.00     0.078 C 
ATOM      5  O   UNL     1      93.823  82.937  89.939  1.00  0.00    -0.319 OA
ATOM      6  C   UNL     1      93.784  83.771  88.740  1.00  0.00     0.095 C 
ATOM      7  C   UNL     1      93.276  81.613  89.787  1.00  0.00     0.289 C 
ATOM      8  C   UNL     1      92.301  84.272  88.499  1.00  0.00     0.023 C 
ATOM      9  O   UNL     1      93.939  80.896  88.750  1.00  0.00    -0.320 OA
ATOM     10  O   UNL     1      91.899  81.636  89.420  1.00  0.00    -0.313 OA
ATOM     11  C   UNL     1      93.415  81.575  87.598  1.00  0.00     0.170 C 
ATOM     12  C   UNL     1      91.466  83.223  87.701  1.00  0.00     0.049 C 
ATOM     13  C   UNL     1      91.529  84.685  89.763  1.00  0.00     0.011 C 
ATOM     14  C   UNL     1      91.931  81.795  87.987  1.00  0.00     0.122 C 
BRANCH   6  15
ATOM     15  C   UNL     1      94.832  84.890  89.011  1.00  0.00     0.086 C 
ATOM     16  C   UNL     1      95.378  85.625  87.770  1.00  0.00     0.140 CG0
ATOM     17  C   UNL     1      94.489  86.007  89.957  1.00  0.00    -0.010 C 
ATOM     18  C   UNL     1      95.589  87.031  88.291  1.00  0.00     0.190 C 
ATOM     19  G   UNL     1      96.668  84.995  87.247  1.00  0.00     0.000 G0
ATOM     20  C   UNL     1      94.924  87.218  89.594  1.00  0.00    -0.008 C 
ATOM     21  O   UNL     1      96.184  87.922  87.703  1.00  0.00    -0.291 OA
ATOM     22  C   UNL     1      94.845  88.510  90.306  1.00  0.00     0.048 C 
BRANCH  16  23
ATOM     23  O   UNL     1      94.424  85.788  86.734  1.00  0.00    -0.381 OA
ATOM     24  H   UNL     1      94.535  85.063  86.097  1.00  0.00     0.212 HD
ENDBRANCH  16  23
ENDBRANCH   6  15
BRANCH   7  25
ATOM     25  C   UNL     1      93.437  80.878  91.102  1.00  0.00     0.135 C 
BRANCH  25  26
ATOM     26  C   UNL     1      92.569  81.464  92.188  1.00  0.00    -0.040 A 
ATOM     27  C   UNL     1      91.193  81.235  92.179  1.00  0.00     0.004 A 
ATOM     28  C   UNL     1      93.142  82.233  93.200  1.00  0.00     0.004 A 
ATOM     29  C   UNL     1      90.389  81.777  93.183  1.00  0.00     0.000 A 
ATOM     30  C   UNL     1      92.339  82.775  94.204  1.00  0.00     0.000 A 
ATOM     31  C   UNL     1      90.962  82.547  94.195  1.00  0.00     0.000 A 
ENDBRANCH  25  26
ENDBRANCH   7  25
BRANCH  14  32
ATOM     32  C   UNL     1      91.034  80.766  87.379  1.00  0.00    -0.046 C 
ATOM     33  C   UNL     1      91.694  79.501  86.918  1.00  0.00     0.042 C 
ATOM     34  C   UNL     1      89.713  80.963  87.253  1.00  0.00     0.010 C 
ENDBRANCH  14  32
ENDBRANCH   3   4
BRANCH   2  35
ATOM     35  C   UNL     1      96.672  84.985  87.220  1.00  0.00     0.078 CG0
ATOM     36  G   UNL     1      95.385  85.623  87.741  1.00  0.00     0.000 G0
ENDBRANCH   2  35
ENDBRANCH   1   2
BRANCH   1  37
ATOM     37  O   UNL     1      97.984  81.582  86.431  1.00  0.00    -0.461 OA
BRANCH  37  38
ATOM     38  C   UNL     1      98.097  81.349  85.080  1.00  0.00     0.310 C 
ATOM     39  O   UNL     1      97.444  80.527  84.452  1.00  0.00    -0.252 OA
BRANCH  38  40
ATOM     40  C   UNL     1      99.149  82.262  84.497  1.00  0.00     0.158 C 
BRANCH  40  41
ATOM     41  C   UNL     1      99.093  82.339  82.993  1.00  0.00    -0.033 A 
ATOM     42  C   UNL     1      99.958  81.562  82.222  1.00  0.00     0.054 A 
ATOM     43  C   UNL     1      98.176  83.186  82.372  1.00  0.00     0.008 A 
ATOM     44  C   UNL     1      99.906  81.633  80.830  1.00  0.00     0.160 A 
ATOM     45  C   UNL     1      98.123  83.257  80.979  1.00  0.00     0.050 A 
ATOM     46  C   UNL     1      98.988  82.481  80.208  1.00  0.00     0.157 A 
BRANCH  44  47
ATOM     47  O   UNL     1     100.756  80.870  80.088  1.00  0.00    -0.493 OA
ATOM     48  C   UNL     1     102.020  81.443  79.757  1.00  0.00     0.278 C 
ENDBRANCH  44  47
BRANCH  46  49
ATOM     49  O   UNL     1      98.928  82.558  78.850  1.00  0.00    -0.504 OA
ATOM     50  H   UNL     1      97.999  82.658  78.580  1.00  0.00     0.293 HD
ENDBRANCH  46  49
ENDBRANCH  40  41
ENDBRANCH  38  40
ENDBRANCH  37  38
ENDBRANCH   1  37
TORSDOF 11
ENDMDL
MODEL 9
REMARK VINA RESULT:    -6.410     31.437     34.665
REMARK INTER + INTRA:         -11.987
REMARK INTER:                  -9.873
REMARK INTRA:                  -2.114
REMARK UNBOUND:                -0.706
REMARK SMILES C=C(C)[C@]12C[C@@H](C)[C@@]34O[C@](Cc5ccccc5)(O[C@@H]1[C@@H]3C=C(COC(=O)Cc1ccc(O)c(OC)c1)C[C@]1(O)C(=O)C(C)=C[C@@H]41)O2
REMARK SMILES IDX 23 1 22 2 21 3 20 4 9 5 8 6 10 7 6 8 18 9 46 10 19 11 5 12
REMARK SMILES IDX 7 13 4 14 45 15 38 16 44 17 40 18 42 20 41 21 43 22 39 23
REMARK SMILES IDX 11 25 12 26 13 27 17 28 14 29 16 30 15 31 2 32 3 33 1 34
REMARK SMILES IDX 37 35 24 37 25 38 26 39 27 40 28 41 36 42 29 43 33 44 30 45
REMARK SMILES IDX 31 46 34 47 35 48 32 49
REMARK H PARENT 39 24 32 50
REMARK Flexibility Score: 90.00
ROOT
ATOM      1  C   UNL     1      67.871  87.358  72.472  1.00  0.00     0.264 C 
ENDROOT
BRANCH   1   2
ATOM      2  C   UNL     1      67.444  86.015  71.928  1.00  0.00    -0.033 C 
ATOM      3  C   UNL     1      66.220  85.539  72.233  1.00  0.00    -0.015 C 
BRANCH   3   4
ATOM      4  C   UNL     1      65.589  84.202  71.880  1.00  0.00     0.078 C 
ATOM      5  O   UNL     1      64.337  84.529  69.771  1.00  0.00    -0.319 OA
ATOM      6  C   UNL     1      65.465  83.810  70.360  1.00  0.00     0.095 C 
ATOM      7  C   UNL     1      63.149  84.584  70.584  1.00  0.00     0.289 C 
ATOM      8  C   UNL     1      65.187  82.252  70.287  1.00  0.00     0.023 C 
ATOM      9  O   UNL     1      63.417  85.178  71.851  1.00  0.00    -0.320 OA
ATOM     10  O   UNL     1      62.628  83.288  70.868  1.00  0.00    -0.313 OA
ATOM     11  C   UNL     1      64.161  84.120  72.474  1.00  0.00     0.170 C 
ATOM     12  C   UNL     1      64.342  81.765  71.504  1.00  0.00     0.049 C 
ATOM     13  C   UNL     1      64.539  81.757  68.983  1.00  0.00     0.011 C 
ATOM     14  C   UNL     1      63.397  82.855  72.009  1.00  0.00     0.122 C 
BRANCH   6  15
ATOM     15  C   UNL     1      66.703  84.307  69.559  1.00  0.00     0.086 C 
ATOM     16  C   UNL     1      68.074  84.123  70.243  1.00  0.00     0.140 CG0
ATOM     17  C   UNL     1      66.935  83.791  68.166  1.00  0.00    -0.010 C 
ATOM     18  C   UNL     1      68.989  83.845  69.069  1.00  0.00     0.190 C 
ATOM     19  G   UNL     1      68.495  85.360  71.033  1.00  0.00     0.000 G0
ATOM     20  C   UNL     1      68.211  83.548  67.851  1.00  0.00    -0.008 C 
ATOM     21  O   UNL     1      70.209  83.814  69.114  1.00  0.00    -0.291 OA
ATOM     22  C   UNL     1      68.810  83.120  66.570  1.00  0.00     0.048 C 
BRANCH  16  23
ATOM     23  O   UNL     1      68.168  82.948  71.031  1.00  0.00    -0.381 OA
ATOM     24  H   UNL     1      67.460  82.339  70.762  1.00  0.00     0.212 HD
ENDBRANCH  16  23
ENDBRANCH   6  15
BRANCH   7  25
ATOM     25  C   UNL     1      62.106  85.398  69.846  1.00  0.00     0.135 C 
BRANCH  25  26
ATOM     26  C   UNL     1      60.807  85.478  70.610  1.00  0.00    -0.040 A 
ATOM     27  C   UNL     1      59.725  84.685  70.230  1.00  0.00     0.004 A 
ATOM     28  C   UNL     1      60.689  86.344  71.697  1.00  0.00     0.004 A 
ATOM     29  C   UNL     1      58.524  84.759  70.936  1.00  0.00     0.000 A 
ATOM     30  C   UNL     1      59.488  86.418  72.403  1.00  0.00     0.000 A 
ATOM     31  C   UNL     1      58.406  85.625  72.022  1.00  0.00     0.000 A 
ENDBRANCH  25  26
ENDBRANCH   7  25
BRANCH  14  32
ATOM     32  C   UNL     1      62.451  82.357  73.053  1.00  0.00    -0.046 C 
ATOM     33  C   UNL     1      61.246  83.211  73.316  1.00  0.00     0.042 C 
ATOM     34  C   UNL     1      62.665  81.211  73.716  1.00  0.00     0.010 C 
ENDBRANCH  14  32
ENDBRANCH   3   4
BRANCH   2  35
ATOM     35  C   UNL     1      68.504  85.359  71.063  1.00  0.00     0.078 CG0
ATOM     36  G   UNL     1      68.087  84.128  70.259  1.00  0.00     0.000 G0
ENDBRANCH   2  35
ENDBRANCH   1   2
BRANCH   1  37
ATOM     37  O   UNL     1      68.283  88.185  71.406  1.00  0.00    -0.461 OA
BRANCH  37  38
ATOM     38  C   UNL     1      67.310  88.972  70.835  1.00  0.00     0.310 C 
ATOM     39  O   UNL     1      66.187  89.140  71.290  1.00  0.00    -0.252 OA
BRANCH  38  40
ATOM     40  C   UNL     1      67.842  89.592  69.565  1.00  0.00     0.158 C 
BRANCH  40  41
ATOM     41  C   UNL     1      67.468  88.816  68.329  1.00  0.00    -0.033 A 
ATOM     42  C   UNL     1      66.307  89.141  67.626  1.00  0.00     0.054 A 
ATOM     43  C   UNL     1      68.281  87.773  67.888  1.00  0.00     0.008 A 
ATOM     44  C   UNL     1      65.960  88.422  66.482  1.00  0.00     0.160 A 
ATOM     45  C   UNL     1      67.935  87.054  66.744  1.00  0.00     0.050 A 
ATOM     46  C   UNL     1      66.774  87.378  66.041  1.00  0.00     0.157 A 
BRANCH  44  47
ATOM     47  O   UNL     1      64.825  88.749  65.805  1.00  0.00    -0.493 OA
ATOM     48  C   UNL     1      64.123  89.913  66.238  1.00  0.00     0.278 C 
ENDBRANCH  44  47
BRANCH  46  49
ATOM     49  O   UNL     1      66.447  86.670  64.925  1.00  0.00    -0.504 OA
ATOM     50  H   UNL     1      65.984  87.256  64.303  1.00  0.00     0.293 HD
ENDBRANCH  46  49
ENDBRANCH  40  41
ENDBRANCH  38  40
ENDBRANCH  37  38
ENDBRANCH   1  37
TORSDOF 11
ENDMDL
MODEL 10
REMARK VINA RESULT:    -6.386     32.391     35.922
REMARK INTER + INTRA:         -11.946
REMARK INTER:                 -10.499
REMARK INTRA:                  -1.446
REMARK UNBOUND:                -0.706
REMARK SMILES C=C(C)[C@]12C[C@@H](C)[C@@]34O[C@](Cc5ccccc5)(O[C@@H]1[C@@H]3C=C(COC(=O)Cc1ccc(O)c(OC)c1)C[C@]1(O)C(=O)C(C)=C[C@@H]41)O2
REMARK SMILES IDX 23 1 22 2 21 3 20 4 9 5 8 6 10 7 6 8 18 9 46 10 19 11 5 12
REMARK SMILES IDX 7 13 4 14 45 15 38 16 44 17 40 18 42 20 41 21 43 22 39 23
REMARK SMILES IDX 11 25 12 26 13 27 17 28 14 29 16 30 15 31 2 32 3 33 1 34
REMARK SMILES IDX 37 35 24 37 25 38 26 39 27 40 28 41 36 42 29 43 33 44 30 45
REMARK SMILES IDX 31 46 34 47 35 48 32 49
REMARK H PARENT 39 24 32 50
REMARK Flexibility Score: 90.00
ROOT
ATOM      1  C   UNL     1      66.301  87.587  71.027  1.00  0.00     0.264 C 
ENDROOT
BRANCH   1   2
ATOM      2  C   UNL     1      65.798  86.227  71.450  1.00  0.00    -0.033 C 
ATOM      3  C   UNL     1      65.336  86.056  72.705  1.00  0.00    -0.015 C 
BRANCH   3   4
ATOM      4  C   UNL     1      64.853  84.788  73.390  1.00  0.00     0.078 C 
ATOM      5  O   UNL     1      62.406  84.670  73.047  1.00  0.00    -0.319 OA
ATOM      6  C   UNL     1      63.662  83.991  72.738  1.00  0.00     0.095 C 
ATOM      7  C   UNL     1      62.278  85.144  74.402  1.00  0.00     0.289 C 
ATOM      8  C   UNL     1      63.645  82.542  73.380  1.00  0.00     0.023 C 
ATOM      9  O   UNL     1      63.337  86.036  74.739  1.00  0.00    -0.320 OA
ATOM     10  O   UNL     1      62.348  84.086  75.354  1.00  0.00    -0.313 OA
ATOM     11  C   UNL     1      64.426  85.106  74.845  1.00  0.00     0.170 C 
ATOM     12  C   UNL     1      64.117  82.571  74.867  1.00  0.00     0.049 C 
ATOM     13  C   UNL     1      62.307  81.792  73.283  1.00  0.00     0.011 C 
ATOM     14  C   UNL     1      63.764  83.894  75.547  1.00  0.00     0.122 C 
BRANCH   6  15
ATOM     15  C   UNL     1      63.755  84.033  71.185  1.00  0.00     0.086 C 
ATOM     16  C   UNL     1      65.162  83.844  70.583  1.00  0.00     0.140 CG0
ATOM     17  C   UNL     1      62.899  83.104  70.371  1.00  0.00    -0.010 C 
ATOM     18  C   UNL     1      64.870  83.097  69.299  1.00  0.00     0.190 C 
ATOM     19  G   UNL     1      65.868  85.177  70.337  1.00  0.00     0.000 G0
ATOM     20  C   UNL     1      63.487  82.584  69.289  1.00  0.00    -0.008 C 
ATOM     21  O   UNL     1      65.672  82.891  68.401  1.00  0.00    -0.291 OA
ATOM     22  C   UNL     1      62.934  81.713  68.231  1.00  0.00     0.048 C 
BRANCH  16  23
ATOM     23  O   UNL     1      65.985  82.951  71.315  1.00  0.00    -0.381 OA
ATOM     24  H   UNL     1      65.698  82.043  71.124  1.00  0.00     0.212 HD
ENDBRANCH  16  23
ENDBRANCH   6  15
BRANCH   7  25
ATOM     25  C   UNL     1      60.947  85.856  74.533  1.00  0.00     0.135 C 
BRANCH  25  26
ATOM     26  C   UNL     1      60.192  85.888  73.228  1.00  0.00    -0.040 A 
ATOM     27  C   UNL     1      59.928  87.108  72.604  1.00  0.00     0.004 A 
ATOM     28  C   UNL     1      59.759  84.698  72.643  1.00  0.00     0.004 A 
ATOM     29  C   UNL     1      59.230  87.138  71.397  1.00  0.00     0.000 A 
ATOM     30  C   UNL     1      59.060  84.728  71.435  1.00  0.00     0.000 A 
ATOM     31  C   UNL     1      58.796  85.948  70.813  1.00  0.00     0.000 A 
ENDBRANCH  25  26
ENDBRANCH   7  25
BRANCH  14  32
ATOM     32  C   UNL     1      64.041  83.877  77.015  1.00  0.00    -0.046 C 
ATOM     33  C   UNL     1      62.885  84.210  77.911  1.00  0.00     0.042 C 
ATOM     34  C   UNL     1      65.254  83.580  77.505  1.00  0.00     0.010 C 
ENDBRANCH  14  32
ENDBRANCH   3   4
BRANCH   2  35
ATOM     35  C   UNL     1      65.880  85.192  70.343  1.00  0.00     0.078 CG0
ATOM     36  G   UNL     1      65.143  83.872  70.565  1.00  0.00     0.000 G0
ENDBRANCH   2  35
ENDBRANCH   1   2
BRANCH   1  37
ATOM     37  O   UNL     1      65.729  88.575  71.857  1.00  0.00    -0.461 OA
BRANCH  37  38
ATOM     38  C   UNL     1      64.744  89.351  71.291  1.00  0.00     0.310 C 
ATOM     39  O   UNL     1      63.980  88.982  70.410  1.00  0.00    -0.252 OA
BRANCH  38  40
ATOM     40  C   UNL     1      64.755  90.722  71.923  1.00  0.00     0.158 C 
BRANCH  40  41
ATOM     41  C   UNL     1      63.425  91.105  72.519  1.00  0.00    -0.033 A 
ATOM     42  C   UNL     1      62.759  92.245  72.064  1.00  0.00     0.054 A 
ATOM     43  C   UNL     1      62.859  90.322  73.524  1.00  0.00     0.008 A 
ATOM     44  C   UNL     1      61.528  92.599  72.615  1.00  0.00     0.160 A 
ATOM     45  C   UNL     1      61.627  90.677  74.075  1.00  0.00     0.050 A 
ATOM     46  C   UNL     1      60.962  91.815  73.622  1.00  0.00     0.157 A 
BRANCH  44  47
ATOM     47  O   UNL     1      60.888  93.714  72.164  1.00  0.00    -0.493 OA
ATOM     48  C   UNL     1      61.700  94.841  71.838  1.00  0.00     0.278 C 
ENDBRANCH  44  47
BRANCH  46  49
ATOM     49  O   UNL     1      59.760  92.151  74.166  1.00  0.00    -0.504 OA
ATOM     50  H   UNL     1      59.179  92.491  73.465  1.00  0.00     0.293 HD
ENDBRANCH  46  49
ENDBRANCH  40  41
ENDBRANCH  38  40
ENDBRANCH  37  38
ENDBRANCH   1  37
TORSDOF 11
ENDMDL
