MODEL 1
REMARK VINA RESULT:    -6.268      0.000      0.000
REMARK INTER + INTRA:         -11.297
REMARK INTER:                  -9.748
REMARK INTRA:                  -1.548
REMARK UNBOUND:                -1.548
REMARK SMILES CCCCC/C=C/C(=O)CCc1ccc(O)c(OC)c1
REMARK SMILES IDX 6 1 7 2 8 3 9 4 10 5 11 6 12 7 17 8 20 9 15 10 14 11 13 12
REMARK SMILES IDX 18 13 19 14 16 15 5 17 4 18 3 19 2 20 1 21
REMARK H PARENT 16 16
REMARK Flexibility Score: inf
ROOT
ATOM      1  C   UNL     1      91.689  96.079  77.572  1.00  0.00    -0.023 C 
ATOM      2  C   UNL     1      92.285  95.974  76.378  1.00  0.00     0.043 C 
ENDROOT
BRANCH   2   3
ATOM      3  C   UNL     1      93.348  96.942  75.993  1.00  0.00     0.155 C 
ATOM      4  O   UNL     1      93.083  98.021  75.465  1.00  0.00    -0.295 OA
BRANCH   3   5
ATOM      5  C   UNL     1      94.780  96.507  76.236  1.00  0.00     0.085 C 
BRANCH   5   6
ATOM      6  C   UNL     1      95.294  97.019  77.583  1.00  0.00     0.044 C 
BRANCH   6   7
ATOM      7  C   UNL     1      95.156  96.000  78.690  1.00  0.00    -0.044 A 
ATOM      8  C   UNL     1      94.949  95.492  81.026  1.00  0.00     0.160 A 
ATOM      9  C   UNL     1      95.078  96.433  80.004  1.00  0.00     0.054 A 
ATOM     10  C   UNL     1      94.902  94.132  80.721  1.00  0.00     0.157 A 
ATOM     11  C   UNL     1      94.982  93.712  79.392  1.00  0.00     0.050 A 
ATOM     12  C   UNL     1      95.111  94.653  78.370  1.00  0.00     0.008 A 
BRANCH   8  13
ATOM     13  O   UNL     1      94.872  95.914  82.319  1.00  0.00    -0.493 OA
ATOM     14  C   UNL     1      94.950  97.320  82.548  1.00  0.00     0.278 C 
ENDBRANCH   8  13
BRANCH  10  15
ATOM     15  O   UNL     1      94.776  93.204  81.710  1.00  0.00    -0.504 OA
ATOM     16  H   UNL     1      93.889  93.291  82.099  1.00  0.00     0.293 HD
ENDBRANCH  10  15
ENDBRANCH   6   7
ENDBRANCH   5   6
ENDBRANCH   3   5
ENDBRANCH   2   3
BRANCH   1  17
ATOM     17  C   UNL     1      90.609  95.144  78.034  1.00  0.00     0.027 C 
BRANCH  17  18
ATOM     18  C   UNL     1      91.121  93.727  78.318  1.00  0.00     0.004 C 
BRANCH  18  19
ATOM     19  C   UNL     1      90.492  92.656  77.421  1.00  0.00     0.000 C 
BRANCH  19  20
ATOM     20  C   UNL     1      91.419  92.295  76.260  1.00  0.00    -0.003 C 
ATOM     21  C   UNL     1      90.637  92.039  74.981  1.00  0.00     0.004 C 
ENDBRANCH  19  20
ENDBRANCH  18  19
ENDBRANCH  17  18
ENDBRANCH   1  17
TORSDOF 10
ENDMDL
MODEL 2
REMARK VINA RESULT:    -5.470      9.183     11.553
REMARK INTER + INTRA:         -10.056
REMARK INTER:                  -8.412
REMARK INTRA:                  -1.644
REMARK UNBOUND:                -1.548
REMARK SMILES CCCCC/C=C/C(=O)CCc1ccc(O)c(OC)c1
REMARK SMILES IDX 6 1 7 2 8 3 9 4 10 5 11 6 12 7 17 8 20 9 15 10 14 11 13 12
REMARK SMILES IDX 18 13 19 14 16 15 5 17 4 18 3 19 2 20 1 21
REMARK H PARENT 16 16
REMARK Flexibility Score: inf
ROOT
ATOM      1  C   UNL     1      88.972  99.929  68.002  1.00  0.00    -0.023 C 
ATOM      2  C   UNL     1      88.199  98.878  68.302  1.00  0.00     0.043 C 
ENDROOT
BRANCH   2   3
ATOM      3  C   UNL     1      88.818  97.546  68.541  1.00  0.00     0.155 C 
ATOM      4  O   UNL     1      88.428  96.536  67.959  1.00  0.00    -0.295 OA
BRANCH   3   5
ATOM      5  C   UNL     1      89.922  97.490  69.579  1.00  0.00     0.085 C 
BRANCH   5   6
ATOM      6  C   UNL     1      89.427  97.974  70.942  1.00  0.00     0.044 C 
BRANCH   6   7
ATOM      7  C   UNL     1      89.887  99.374  71.271  1.00  0.00    -0.044 A 
ATOM      8  C   UNL     1      91.668 100.945  71.616  1.00  0.00     0.160 A 
ATOM      9  C   UNL     1      91.244  99.651  71.313  1.00  0.00     0.054 A 
ATOM     10  C   UNL     1      90.730 101.945  71.874  1.00  0.00     0.157 A 
ATOM     11  C   UNL     1      89.367 101.650  71.829  1.00  0.00     0.050 A 
ATOM     12  C   UNL     1      88.943 100.356  71.525  1.00  0.00     0.008 A 
BRANCH   8  13
ATOM     13  O   UNL     1      93.002 101.220  71.658  1.00  0.00    -0.493 OA
ATOM     14  C   UNL     1      93.734 101.066  70.444  1.00  0.00     0.278 C 
ENDBRANCH   8  13
BRANCH  10  15
ATOM     15  O   UNL     1      91.132 103.212  72.171  1.00  0.00    -0.504 OA
ATOM     16  H   UNL     1      92.100 103.210  72.268  1.00  0.00     0.293 HD
ENDBRANCH  10  15
ENDBRANCH   6   7
ENDBRANCH   5   6
ENDBRANCH   3   5
ENDBRANCH   2   3
BRANCH   1  17
ATOM     17  C   UNL     1      88.425 101.304  67.747  1.00  0.00     0.027 C 
BRANCH  17  18
ATOM     18  C   UNL     1      89.503 102.393  67.765  1.00  0.00     0.004 C 
BRANCH  18  19
ATOM     19  C   UNL     1      90.912 101.858  68.040  1.00  0.00     0.000 C 
BRANCH  19  20
ATOM     20  C   UNL     1      91.797 101.970  66.798  1.00  0.00    -0.003 C 
ATOM     21  C   UNL     1      91.293 103.047  65.850  1.00  0.00     0.004 C 
ENDBRANCH  19  20
ENDBRANCH  18  19
ENDBRANCH  17  18
ENDBRANCH   1  17
TORSDOF 10
ENDMDL
MODEL 3
REMARK VINA RESULT:    -5.408      2.429      4.078
REMARK INTER + INTRA:          -9.960
REMARK INTER:                  -8.932
REMARK INTRA:                  -1.028
REMARK UNBOUND:                -1.548
REMARK SMILES CCCCC/C=C/C(=O)CCc1ccc(O)c(OC)c1
REMARK SMILES IDX 6 1 7 2 8 3 9 4 10 5 11 6 12 7 17 8 20 9 15 10 14 11 13 12
REMARK SMILES IDX 18 13 19 14 16 15 5 17 4 18 3 19 2 20 1 21
REMARK H PARENT 16 16
REMARK Flexibility Score: inf
ROOT
ATOM      1  C   UNL     1      93.111  95.608  78.134  1.00  0.00    -0.023 C 
ATOM      2  C   UNL     1      93.831  94.489  77.978  1.00  0.00     0.043 C 
ENDROOT
BRANCH   2   3
ATOM      3  C   UNL     1      94.870  94.130  78.981  1.00  0.00     0.155 C 
ATOM      4  O   UNL     1      95.979  93.720  78.647  1.00  0.00    -0.295 OA
BRANCH   3   5
ATOM      5  C   UNL     1      94.471  94.246  80.439  1.00  0.00     0.085 C 
BRANCH   5   6
ATOM      6  C   UNL     1      95.693  94.451  81.335  1.00  0.00     0.044 C 
BRANCH   6   7
ATOM      7  C   UNL     1      95.691  95.790  82.034  1.00  0.00    -0.044 A 
ATOM      8  C   UNL     1      96.523  97.226  83.768  1.00  0.00     0.160 A 
ATOM      9  C   UNL     1      96.525  95.989  83.123  1.00  0.00     0.054 A 
ATOM     10  C   UNL     1      95.687  98.247  83.317  1.00  0.00     0.157 A 
ATOM     11  C   UNL     1      94.852  98.031  82.219  1.00  0.00     0.050 A 
ATOM     12  C   UNL     1      94.854  96.794  81.574  1.00  0.00     0.008 A 
BRANCH   8  13
ATOM     13  O   UNL     1      97.343  97.424  84.838  1.00  0.00    -0.493 OA
ATOM     14  C   UNL     1      98.401  96.487  85.027  1.00  0.00     0.278 C 
ENDBRANCH   8  13
BRANCH  10  15
ATOM     15  O   UNL     1      95.676  99.459  83.938  1.00  0.00    -0.504 OA
ATOM     16  H   UNL     1      96.530  99.894  83.773  1.00  0.00     0.293 HD
ENDBRANCH  10  15
ENDBRANCH   6   7
ENDBRANCH   5   6
ENDBRANCH   3   5
ENDBRANCH   2   3
BRANCH   1  17
ATOM     17  C   UNL     1      92.047  96.040  77.168  1.00  0.00     0.027 C 
BRANCH  17  18
ATOM     18  C   UNL     1      90.642  96.035  77.779  1.00  0.00     0.004 C 
BRANCH  18  19
ATOM     19  C   UNL     1      89.669  95.083  77.075  1.00  0.00     0.000 C 
BRANCH  19  20
ATOM     20  C   UNL     1      89.137  94.024  78.042  1.00  0.00    -0.003 C 
ATOM     21  C   UNL     1      90.263  93.186  78.626  1.00  0.00     0.004 C 
ENDBRANCH  19  20
ENDBRANCH  18  19
ENDBRANCH  17  18
ENDBRANCH   1  17
TORSDOF 10
ENDMDL
MODEL 4
REMARK VINA RESULT:    -5.271      9.276     11.550
REMARK INTER + INTRA:          -9.747
REMARK INTER:                  -8.375
REMARK INTRA:                  -1.372
REMARK UNBOUND:                -1.548
REMARK SMILES CCCCC/C=C/C(=O)CCc1ccc(O)c(OC)c1
REMARK SMILES IDX 6 1 7 2 8 3 9 4 10 5 11 6 12 7 17 8 20 9 15 10 14 11 13 12
REMARK SMILES IDX 18 13 19 14 16 15 5 17 4 18 3 19 2 20 1 21
REMARK H PARENT 16 16
REMARK Flexibility Score: inf
ROOT
ATOM      1  C   UNL     1      89.165 100.049  67.917  1.00  0.00    -0.023 C 
ATOM      2  C   UNL     1      88.327  99.069  68.280  1.00  0.00     0.043 C 
ENDROOT
BRANCH   2   3
ATOM      3  C   UNL     1      88.854  97.703  68.546  1.00  0.00     0.155 C 
ATOM      4  O   UNL     1      88.479  96.726  67.901  1.00  0.00    -0.295 OA
BRANCH   3   5
ATOM      5  C   UNL     1      89.838  97.569  69.691  1.00  0.00     0.085 C 
BRANCH   5   6
ATOM      6  C   UNL     1      89.270  98.157  70.984  1.00  0.00     0.044 C 
BRANCH   6   7
ATOM      7  C   UNL     1      89.872  99.497  71.334  1.00  0.00    -0.044 A 
ATOM      8  C   UNL     1      89.597 101.833  71.812  1.00  0.00     0.160 A 
ATOM      9  C   UNL     1      89.040 100.595  71.489  1.00  0.00     0.054 A 
ATOM     10  C   UNL     1      90.976 101.957  71.977  1.00  0.00     0.157 A 
ATOM     11  C   UNL     1      91.800 100.842  71.817  1.00  0.00     0.050 A 
ATOM     12  C   UNL     1      91.244  99.604  71.493  1.00  0.00     0.008 A 
BRANCH   8  13
ATOM     13  O   UNL     1      88.781 102.914  71.965  1.00  0.00    -0.493 OA
ATOM     14  C   UNL     1      88.018 102.986  73.167  1.00  0.00     0.278 C 
ENDBRANCH   8  13
BRANCH  10  15
ATOM     15  O   UNL     1      91.531 103.160  72.293  1.00  0.00    -0.504 OA
ATOM     16  H   UNL     1      91.504 103.264  73.260  1.00  0.00     0.293 HD
ENDBRANCH  10  15
ENDBRANCH   6   7
ENDBRANCH   5   6
ENDBRANCH   3   5
ENDBRANCH   2   3
BRANCH   1  17
ATOM     17  C   UNL     1      88.713 101.451  67.631  1.00  0.00     0.027 C 
BRANCH  17  18
ATOM     18  C   UNL     1      89.856 102.376  67.200  1.00  0.00     0.004 C 
BRANCH  18  19
ATOM     19  C   UNL     1      91.226 101.689  67.178  1.00  0.00     0.000 C 
BRANCH  19  20
ATOM     20  C   UNL     1      92.073 102.109  68.380  1.00  0.00    -0.003 C 
ATOM     21  C   UNL     1      93.489 102.473  67.963  1.00  0.00     0.004 C 
ENDBRANCH  19  20
ENDBRANCH  18  19
ENDBRANCH  17  18
ENDBRANCH   1  17
TORSDOF 10
ENDMDL
MODEL 5
REMARK VINA RESULT:    -5.246     12.381     14.303
REMARK INTER + INTRA:          -9.707
REMARK INTER:                  -8.809
REMARK INTRA:                  -0.898
REMARK UNBOUND:                -1.548
REMARK SMILES CCCCC/C=C/C(=O)CCc1ccc(O)c(OC)c1
REMARK SMILES IDX 6 1 7 2 8 3 9 4 10 5 11 6 12 7 17 8 20 9 15 10 14 11 13 12
REMARK SMILES IDX 18 13 19 14 16 15 5 17 4 18 3 19 2 20 1 21
REMARK H PARENT 16 16
REMARK Flexibility Score: inf
ROOT
ATOM      1  C   UNL     1      98.624  83.145  80.458  1.00  0.00    -0.023 C 
ATOM      2  C   UNL     1      98.987  82.046  81.131  1.00  0.00     0.043 C 
ENDROOT
BRANCH   2   3
ATOM      3  C   UNL     1     100.128  82.103  82.085  1.00  0.00     0.155 C 
ATOM      4  O   UNL     1     101.280  82.305  81.707  1.00  0.00    -0.295 OA
BRANCH   3   5
ATOM      5  C   UNL     1      99.803  81.846  83.543  1.00  0.00     0.085 C 
BRANCH   5   6
ATOM      6  C   UNL     1      98.352  81.394  83.718  1.00  0.00     0.044 C 
BRANCH   6   7
ATOM      7  C   UNL     1      97.506  82.405  84.454  1.00  0.00    -0.044 A 
ATOM      8  C   UNL     1      95.892  82.914  86.156  1.00  0.00     0.160 A 
ATOM      9  C   UNL     1      96.673  81.979  85.476  1.00  0.00     0.054 A 
ATOM     10  C   UNL     1      95.954  84.262  85.805  1.00  0.00     0.157 A 
ATOM     11  C   UNL     1      96.797  84.676  84.773  1.00  0.00     0.050 A 
ATOM     12  C   UNL     1      97.578  83.741  84.094  1.00  0.00     0.008 A 
BRANCH   8  13
ATOM     13  O   UNL     1      95.072  82.496  87.161  1.00  0.00    -0.493 OA
ATOM     14  C   UNL     1      93.834  81.898  86.782  1.00  0.00     0.278 C 
ENDBRANCH   8  13
BRANCH  10  15
ATOM     15  O   UNL     1      95.196  85.184  86.462  1.00  0.00    -0.504 OA
ATOM     16  H   UNL     1      95.623  86.053  86.367  1.00  0.00     0.293 HD
ENDBRANCH  10  15
ENDBRANCH   6   7
ENDBRANCH   5   6
ENDBRANCH   3   5
ENDBRANCH   2   3
BRANCH   1  17
ATOM     17  C   UNL     1      97.487  83.170  79.479  1.00  0.00     0.027 C 
BRANCH  17  18
ATOM     18  C   UNL     1      97.819  83.929  78.189  1.00  0.00     0.004 C 
BRANCH  18  19
ATOM     19  C   UNL     1      99.090  83.430  77.494  1.00  0.00     0.000 C 
BRANCH  19  20
ATOM     20  C   UNL     1      98.998  83.615  75.978  1.00  0.00    -0.003 C 
ATOM     21  C   UNL     1     100.081  84.551  75.465  1.00  0.00     0.004 C 
ENDBRANCH  19  20
ENDBRANCH  18  19
ENDBRANCH  17  18
ENDBRANCH   1  17
TORSDOF 10
ENDMDL
MODEL 6
REMARK VINA RESULT:    -5.239     18.264     22.080
REMARK INTER + INTRA:          -9.697
REMARK INTER:                  -8.984
REMARK INTRA:                  -0.713
REMARK UNBOUND:                -1.548
REMARK SMILES CCCCC/C=C/C(=O)CCc1ccc(O)c(OC)c1
REMARK SMILES IDX 6 1 7 2 8 3 9 4 10 5 11 6 12 7 17 8 20 9 15 10 14 11 13 12
REMARK SMILES IDX 18 13 19 14 16 15 5 17 4 18 3 19 2 20 1 21
REMARK H PARENT 16 16
REMARK Flexibility Score: inf
ROOT
ATOM      1  C   UNL     1      74.702  89.015  71.058  1.00  0.00    -0.023 C 
ATOM      2  C   UNL     1      75.824  88.788  70.365  1.00  0.00     0.043 C 
ENDROOT
BRANCH   2   3
ATOM      3  C   UNL     1      76.142  87.411  69.899  1.00  0.00     0.155 C 
ATOM      4  O   UNL     1      75.297  86.518  69.889  1.00  0.00    -0.295 OA
BRANCH   3   5
ATOM      5  C   UNL     1      77.577  87.152  69.485  1.00  0.00     0.085 C 
BRANCH   5   6
ATOM      6  C   UNL     1      77.730  87.178  67.963  1.00  0.00     0.044 C 
BRANCH   6   7
ATOM      7  C   UNL     1      77.679  85.801  67.344  1.00  0.00    -0.044 A 
ATOM      8  C   UNL     1      76.951  84.346  65.580  1.00  0.00     0.160 A 
ATOM      9  C   UNL     1      76.997  85.617  66.152  1.00  0.00     0.054 A 
ATOM     10  C   UNL     1      77.588  83.275  66.208  1.00  0.00     0.157 A 
ATOM     11  C   UNL     1      78.271  83.476  67.408  1.00  0.00     0.050 A 
ATOM     12  C   UNL     1      78.316  84.748  67.979  1.00  0.00     0.008 A 
BRANCH   8  13
ATOM     13  O   UNL     1      76.281  84.162  64.409  1.00  0.00    -0.493 OA
ATOM     14  C   UNL     1      74.867  84.352  64.433  1.00  0.00     0.278 C 
ENDBRANCH   8  13
BRANCH  10  15
ATOM     15  O   UNL     1      77.550  82.029  65.659  1.00  0.00    -0.504 OA
ATOM     16  H   UNL     1      78.228  81.483  66.094  1.00  0.00     0.293 HD
ENDBRANCH  10  15
ENDBRANCH   6   7
ENDBRANCH   5   6
ENDBRANCH   3   5
ENDBRANCH   2   3
BRANCH   1  17
ATOM     17  C   UNL     1      74.310  90.374  71.564  1.00  0.00     0.027 C 
BRANCH  17  18
ATOM     18  C   UNL     1      75.413  91.423  71.385  1.00  0.00     0.004 C 
BRANCH  18  19
ATOM     19  C   UNL     1      75.265  92.632  72.314  1.00  0.00     0.000 C 
BRANCH  19  20
ATOM     20  C   UNL     1      76.562  92.903  73.078  1.00  0.00    -0.003 C 
ATOM     21  C   UNL     1      77.780  92.461  72.283  1.00  0.00     0.004 C 
ENDBRANCH  19  20
ENDBRANCH  18  19
ENDBRANCH  17  18
ENDBRANCH   1  17
TORSDOF 10
ENDMDL
MODEL 7
REMARK VINA RESULT:    -5.227      2.300      4.525
REMARK INTER + INTRA:          -9.679
REMARK INTER:                  -8.623
REMARK INTRA:                  -1.056
REMARK UNBOUND:                -1.548
REMARK SMILES CCCCC/C=C/C(=O)CCc1ccc(O)c(OC)c1
REMARK SMILES IDX 6 1 7 2 8 3 9 4 10 5 11 6 12 7 17 8 20 9 15 10 14 11 13 12
REMARK SMILES IDX 18 13 19 14 16 15 5 17 4 18 3 19 2 20 1 21
REMARK H PARENT 16 16
REMARK Flexibility Score: inf
ROOT
ATOM      1  C   UNL     1      93.211  96.896  76.006  1.00  0.00    -0.023 C 
ATOM      2  C   UNL     1      93.438  95.581  76.114  1.00  0.00     0.043 C 
ENDROOT
BRANCH   2   3
ATOM      3  C   UNL     1      92.443  94.710  76.796  1.00  0.00     0.155 C 
ATOM      4  O   UNL     1      91.942  93.736  76.237  1.00  0.00    -0.295 OA
BRANCH   3   5
ATOM      5  C   UNL     1      92.038  95.116  78.200  1.00  0.00     0.085 C 
BRANCH   5   6
ATOM      6  C   UNL     1      92.574  94.130  79.239  1.00  0.00     0.044 C 
BRANCH   6   7
ATOM      7  C   UNL     1      93.897  94.559  79.828  1.00  0.00    -0.044 A 
ATOM      8  C   UNL     1      95.515  96.277  80.262  1.00  0.00     0.160 A 
ATOM      9  C   UNL     1      94.293  95.882  79.717  1.00  0.00     0.054 A 
ATOM     10  C   UNL     1      96.324  95.345  80.910  1.00  0.00     0.157 A 
ATOM     11  C   UNL     1      95.912  94.016  81.013  1.00  0.00     0.050 A 
ATOM     12  C   UNL     1      94.690  93.620  80.468  1.00  0.00     0.008 A 
BRANCH   8  13
ATOM     13  O   UNL     1      95.906  97.578  80.155  1.00  0.00    -0.493 OA
ATOM     14  C   UNL     1      96.437  97.994  78.898  1.00  0.00     0.278 C 
ENDBRANCH   8  13
BRANCH  10  15
ATOM     15  O   UNL     1      97.519  95.719  81.446  1.00  0.00    -0.504 OA
ATOM     16  H   UNL     1      97.469  96.662  81.677  1.00  0.00     0.293 HD
ENDBRANCH  10  15
ENDBRANCH   6   7
ENDBRANCH   5   6
ENDBRANCH   3   5
ENDBRANCH   2   3
BRANCH   1  17
ATOM     17  C   UNL     1      94.164  97.841  75.334  1.00  0.00     0.027 C 
BRANCH  17  18
ATOM     18  C   UNL     1      95.593  97.294  75.249  1.00  0.00     0.004 C 
BRANCH  18  19
ATOM     19  C   UNL     1      96.525  98.147  74.382  1.00  0.00     0.000 C 
BRANCH  19  20
ATOM     20  C   UNL     1      95.909  98.416  73.008  1.00  0.00    -0.003 C 
ATOM     21  C   UNL     1      96.435  97.447  71.962  1.00  0.00     0.004 C 
ENDBRANCH  19  20
ENDBRANCH  18  19
ENDBRANCH  17  18
ENDBRANCH   1  17
TORSDOF 10
ENDMDL
MODEL 8
REMARK VINA RESULT:    -5.217      2.143      4.673
REMARK INTER + INTRA:          -9.663
REMARK INTER:                  -8.452
REMARK INTRA:                  -1.212
REMARK UNBOUND:                -1.548
REMARK SMILES CCCCC/C=C/C(=O)CCc1ccc(O)c(OC)c1
REMARK SMILES IDX 6 1 7 2 8 3 9 4 10 5 11 6 12 7 17 8 20 9 15 10 14 11 13 12
REMARK SMILES IDX 18 13 19 14 16 15 5 17 4 18 3 19 2 20 1 21
REMARK H PARENT 16 16
REMARK Flexibility Score: inf
ROOT
ATOM      1  C   UNL     1      93.344  95.203  79.061  1.00  0.00    -0.023 C 
ATOM      2  C   UNL     1      93.917  94.018  79.308  1.00  0.00     0.043 C 
ENDROOT
BRANCH   2   3
ATOM      3  C   UNL     1      94.569  93.769  80.622  1.00  0.00     0.155 C 
ATOM      4  O   UNL     1      94.107  92.972  81.436  1.00  0.00    -0.295 OA
BRANCH   3   5
ATOM      5  C   UNL     1      95.808  94.589  80.928  1.00  0.00     0.085 C 
BRANCH   5   6
ATOM      6  C   UNL     1      95.586  95.499  82.137  1.00  0.00     0.044 C 
BRANCH   6   7
ATOM      7  C   UNL     1      95.675  96.967  81.792  1.00  0.00    -0.044 A 
ATOM      8  C   UNL     1      96.128  98.698  80.194  1.00  0.00     0.160 A 
ATOM      9  C   UNL     1      96.046  97.342  80.511  1.00  0.00     0.054 A 
ATOM     10  C   UNL     1      95.838  99.660  81.160  1.00  0.00     0.157 A 
ATOM     11  C   UNL     1      95.466  99.266  82.447  1.00  0.00     0.050 A 
ATOM     12  C   UNL     1      95.385  97.910  82.764  1.00  0.00     0.008 A 
BRANCH   8  13
ATOM     13  O   UNL     1      96.492  99.070  78.934  1.00  0.00    -0.493 OA
ATOM     14  C   UNL     1      95.898  98.358  77.851  1.00  0.00     0.278 C 
ENDBRANCH   8  13
BRANCH  10  15
ATOM     15  O   UNL     1      95.914 100.987  80.862  1.00  0.00    -0.504 OA
ATOM     16  H   UNL     1      95.413 101.480  81.534  1.00  0.00     0.293 HD
ENDBRANCH  10  15
ENDBRANCH   6   7
ENDBRANCH   5   6
ENDBRANCH   3   5
ENDBRANCH   2   3
BRANCH   1  17
ATOM     17  C   UNL     1      92.667  95.532  77.762  1.00  0.00     0.027 C 
BRANCH  17  18
ATOM     18  C   UNL     1      91.170  95.820  77.920  1.00  0.00     0.004 C 
BRANCH  18  19
ATOM     19  C   UNL     1      90.279  94.934  77.045  1.00  0.00     0.000 C 
BRANCH  19  20
ATOM     20  C   UNL     1      90.503  93.452  77.350  1.00  0.00    -0.003 C 
ATOM     21  C   UNL     1      89.887  93.059  78.683  1.00  0.00     0.004 C 
ENDBRANCH  19  20
ENDBRANCH  18  19
ENDBRANCH  17  18
ENDBRANCH   1  17
TORSDOF 10
ENDMDL
MODEL 9
REMARK VINA RESULT:    -4.911     20.534     22.835
REMARK INTER + INTRA:          -9.187
REMARK INTER:                  -8.457
REMARK INTRA:                  -0.730
REMARK UNBOUND:                -1.548
REMARK SMILES CCCCC/C=C/C(=O)CCc1ccc(O)c(OC)c1
REMARK SMILES IDX 6 1 7 2 8 3 9 4 10 5 11 6 12 7 17 8 20 9 15 10 14 11 13 12
REMARK SMILES IDX 18 13 19 14 16 15 5 17 4 18 3 19 2 20 1 21
REMARK H PARENT 16 16
REMARK Flexibility Score: inf
ROOT
ATOM      1  C   UNL     1      74.827  89.022  70.724  1.00  0.00    -0.023 C 
ATOM      2  C   UNL     1      76.065  88.666  70.359  1.00  0.00     0.043 C 
ENDROOT
BRANCH   2   3
ATOM      3  C   UNL     1      76.298  87.342  69.722  1.00  0.00     0.155 C 
ATOM      4  O   UNL     1      75.386  86.536  69.548  1.00  0.00    -0.295 OA
BRANCH   3   5
ATOM      5  C   UNL     1      77.730  87.015  69.345  1.00  0.00     0.085 C 
BRANCH   5   6
ATOM      6  C   UNL     1      77.920  87.021  67.827  1.00  0.00     0.044 C 
BRANCH   6   7
ATOM      7  C   UNL     1      77.773  85.650  67.211  1.00  0.00    -0.044 A 
ATOM      8  C   UNL     1      76.973  84.249  65.435  1.00  0.00     0.160 A 
ATOM      9  C   UNL     1      77.108  85.516  66.003  1.00  0.00     0.054 A 
ATOM     10  C   UNL     1      77.505  83.133  66.081  1.00  0.00     0.157 A 
ATOM     11  C   UNL     1      78.172  83.285  67.298  1.00  0.00     0.050 A 
ATOM     12  C   UNL     1      78.307  84.552  67.866  1.00  0.00     0.008 A 
BRANCH   8  13
ATOM     13  O   UNL     1      76.320  84.114  64.247  1.00  0.00    -0.493 OA
ATOM     14  C   UNL     1      74.901  84.255  64.268  1.00  0.00     0.278 C 
ENDBRANCH   8  13
BRANCH  10  15
ATOM     15  O   UNL     1      77.380  81.892  65.536  1.00  0.00    -0.504 OA
ATOM     16  H   UNL     1      77.463  81.235  66.249  1.00  0.00     0.293 HD
ENDBRANCH  10  15
ENDBRANCH   6   7
ENDBRANCH   5   6
ENDBRANCH   3   5
ENDBRANCH   2   3
BRANCH   1  17
ATOM     17  C   UNL     1      74.510  90.338  71.373  1.00  0.00     0.027 C 
BRANCH  17  18
ATOM     18  C   UNL     1      73.125  90.367  72.028  1.00  0.00     0.004 C 
BRANCH  18  19
ATOM     19  C   UNL     1      72.642  88.993  72.503  1.00  0.00     0.000 C 
BRANCH  19  20
ATOM     20  C   UNL     1      71.171  88.772  72.147  1.00  0.00    -0.003 C 
ATOM     21  C   UNL     1      71.007  87.665  71.118  1.00  0.00     0.004 C 
ENDBRANCH  19  20
ENDBRANCH  18  19
ENDBRANCH  17  18
ENDBRANCH   1  17
TORSDOF 10
ENDMDL
MODEL 10
REMARK VINA RESULT:    -4.865     20.612     23.506
REMARK INTER + INTRA:          -9.116
REMARK INTER:                  -7.351
REMARK INTRA:                  -1.765
REMARK UNBOUND:                -1.548
REMARK SMILES CCCCC/C=C/C(=O)CCc1ccc(O)c(OC)c1
REMARK SMILES IDX 6 1 7 2 8 3 9 4 10 5 11 6 12 7 17 8 20 9 15 10 14 11 13 12
REMARK SMILES IDX 18 13 19 14 16 15 5 17 4 18 3 19 2 20 1 21
REMARK H PARENT 16 16
REMARK Flexibility Score: inf
ROOT
ATOM      1  C   UNL     1      74.137  85.570  68.512  1.00  0.00    -0.023 C 
ATOM      2  C   UNL     1      74.387  86.025  69.747  1.00  0.00     0.043 C 
ENDROOT
BRANCH   2   3
ATOM      3  C   UNL     1      75.700  86.654  70.053  1.00  0.00     0.155 C 
ATOM      4  O   UNL     1      75.803  87.854  70.301  1.00  0.00    -0.295 OA
BRANCH   3   5
ATOM      5  C   UNL     1      76.915  85.749  69.991  1.00  0.00     0.085 C 
BRANCH   5   6
ATOM      6  C   UNL     1      77.936  86.258  68.972  1.00  0.00     0.044 C 
BRANCH   6   7
ATOM      7  C   UNL     1      77.790  85.605  67.618  1.00  0.00    -0.044 A 
ATOM      8  C   UNL     1      77.086  85.716  65.327  1.00  0.00     0.160 A 
ATOM      9  C   UNL     1      77.220  86.320  66.577  1.00  0.00     0.054 A 
ATOM     10  C   UNL     1      77.524  84.406  65.133  1.00  0.00     0.157 A 
ATOM     11  C   UNL     1      78.095  83.699  66.192  1.00  0.00     0.050 A 
ATOM     12  C   UNL     1      78.229  84.302  67.443  1.00  0.00     0.008 A 
BRANCH   8  13
ATOM     13  O   UNL     1      76.526  86.417  64.301  1.00  0.00    -0.493 OA
ATOM     14  C   UNL     1      75.191  86.882  64.487  1.00  0.00     0.278 C 
ENDBRANCH   8  13
BRANCH  10  15
ATOM     15  O   UNL     1      77.399  83.806  63.917  1.00  0.00    -0.504 OA
ATOM     16  H   UNL     1      76.455  83.640  63.754  1.00  0.00     0.293 HD
ENDBRANCH  10  15
ENDBRANCH   6   7
ENDBRANCH   5   6
ENDBRANCH   3   5
ENDBRANCH   2   3
BRANCH   1  17
ATOM     17  C   UNL     1      72.839  84.923  68.124  1.00  0.00     0.027 C 
BRANCH  17  18
ATOM     18  C   UNL     1      72.982  83.943  66.955  1.00  0.00     0.004 C 
BRANCH  18  19
ATOM     19  C   UNL     1      74.436  83.660  66.565  1.00  0.00     0.000 C 
BRANCH  19  20
ATOM     20  C   UNL     1      74.749  82.165  66.650  1.00  0.00    -0.003 C 
ATOM     21  C   UNL     1      74.974  81.564  65.272  1.00  0.00     0.004 C 
ENDBRANCH  19  20
ENDBRANCH  18  19
ENDBRANCH  17  18
ENDBRANCH   1  17
TORSDOF 10
ENDMDL
