MODEL 1
REMARK VINA RESULT:    -6.262      0.000      0.000
REMARK INTER + INTRA:         -10.696
REMARK INTER:                  -9.739
REMARK INTRA:                  -0.957
REMARK UNBOUND:                -0.957
REMARK SMILES CCCCC/C=C/C(=O)CCc1ccc(O)c(OC)c1
REMARK SMILES IDX 6 1 7 2 8 3 9 4 10 5 11 6 12 7 17 8 20 9 15 10 14 11 13 12
REMARK SMILES IDX 18 13 19 14 16 15 5 17 4 18 3 19 2 20 1 21
REMARK H PARENT 16 16
REMARK Flexibility Score: inf
ROOT
ATOM      1  C   UNL     1      93.360  95.342  77.658  1.00  0.00    -0.023 C 
ATOM      2  C   UNL     1      94.349  95.418  76.758  1.00  0.00     0.043 C 
ENDROOT
BRANCH   2   3
ATOM      3  C   UNL     1      94.904  96.745  76.376  1.00  0.00     0.155 C 
ATOM      4  O   UNL     1      95.297  96.980  75.236  1.00  0.00    -0.295 OA
BRANCH   3   5
ATOM      5  C   UNL     1      95.009  97.778  77.482  1.00  0.00     0.085 C 
BRANCH   5   6
ATOM      6  C   UNL     1      96.215  97.507  78.382  1.00  0.00     0.044 C 
BRANCH   6   7
ATOM      7  C   UNL     1      95.824  97.114  79.787  1.00  0.00    -0.044 A 
ATOM      8  C   UNL     1      95.166  95.426  81.361  1.00  0.00     0.160 A 
ATOM      9  C   UNL     1      95.527  95.789  80.064  1.00  0.00     0.054 A 
ATOM     10  C   UNL     1      95.106  96.393  82.365  1.00  0.00     0.157 A 
ATOM     11  C   UNL     1      95.406  97.723  82.070  1.00  0.00     0.050 A 
ATOM     12  C   UNL     1      95.768  98.086  80.772  1.00  0.00     0.008 A 
BRANCH   8  13
ATOM     13  O   UNL     1      94.874  94.124  81.636  1.00  0.00    -0.493 OA
ATOM     14  C   UNL     1      95.334  93.146  80.705  1.00  0.00     0.278 C 
ENDBRANCH   8  13
BRANCH  10  15
ATOM     15  O   UNL     1      94.755  96.051  83.636  1.00  0.00    -0.504 OA
ATOM     16  H   UNL     1      95.555  95.763  84.107  1.00  0.00     0.293 HD
ENDBRANCH  10  15
ENDBRANCH   6   7
ENDBRANCH   5   6
ENDBRANCH   3   5
ENDBRANCH   2   3
BRANCH   1  17
ATOM     17  C   UNL     1      92.746  94.044  78.095  1.00  0.00     0.027 C 
BRANCH  17  18
ATOM     18  C   UNL     1      91.311  94.200  78.610  1.00  0.00     0.004 C 
BRANCH  18  19
ATOM     19  C   UNL     1      90.353  93.124  78.091  1.00  0.00     0.000 C 
BRANCH  19  20
ATOM     20  C   UNL     1      89.404  93.693  77.035  1.00  0.00    -0.003 C 
ATOM     21  C   UNL     1      89.236  95.196  77.189  1.00  0.00     0.004 C 
ENDBRANCH  19  20
ENDBRANCH  18  19
ENDBRANCH  17  18
ENDBRANCH   1  17
TORSDOF 10
ENDMDL
MODEL 2
REMARK VINA RESULT:    -5.810      9.908     13.267
REMARK INTER + INTRA:          -9.995
REMARK INTER:                  -8.452
REMARK INTRA:                  -1.543
REMARK UNBOUND:                -0.957
REMARK SMILES CCCCC/C=C/C(=O)CCc1ccc(O)c(OC)c1
REMARK SMILES IDX 6 1 7 2 8 3 9 4 10 5 11 6 12 7 17 8 20 9 15 10 14 11 13 12
REMARK SMILES IDX 18 13 19 14 16 15 5 17 4 18 3 19 2 20 1 21
REMARK H PARENT 16 16
REMARK Flexibility Score: inf
ROOT
ATOM      1  C   UNL     1      90.689  99.309  70.905  1.00  0.00    -0.023 C 
ATOM      2  C   UNL     1      89.545  98.615  70.951  1.00  0.00     0.043 C 
ENDROOT
BRANCH   2   3
ATOM      3  C   UNL     1      89.297  97.528  69.965  1.00  0.00     0.155 C 
ATOM      4  O   UNL     1      89.838  96.429  70.062  1.00  0.00    -0.295 OA
BRANCH   3   5
ATOM      5  C   UNL     1      88.382  97.865  68.804  1.00  0.00     0.085 C 
BRANCH   5   6
ATOM      6  C   UNL     1      89.176  98.377  67.601  1.00  0.00     0.044 C 
BRANCH   6   7
ATOM      7  C   UNL     1      89.304  99.881  67.580  1.00  0.00    -0.044 A 
ATOM      8  C   UNL     1      90.570 101.848  67.040  1.00  0.00     0.160 A 
ATOM      9  C   UNL     1      90.452 100.458  67.060  1.00  0.00     0.054 A 
ATOM     10  C   UNL     1      89.539 102.643  67.540  1.00  0.00     0.157 A 
ATOM     11  C   UNL     1      88.389 102.047  68.060  1.00  0.00     0.050 A 
ATOM     12  C   UNL     1      88.271 100.658  68.080  1.00  0.00     0.008 A 
BRANCH   8  13
ATOM     13  O   UNL     1      91.698 102.417  66.530  1.00  0.00    -0.493 OA
ATOM     14  C   UNL     1      91.848 102.400  65.112  1.00  0.00     0.278 C 
ENDBRANCH   8  13
BRANCH  10  15
ATOM     15  O   UNL     1      89.642 104.001  67.525  1.00  0.00    -0.504 OA
ATOM     16  H   UNL     1      90.263 104.267  68.225  1.00  0.00     0.293 HD
ENDBRANCH  10  15
ENDBRANCH   6   7
ENDBRANCH   5   6
ENDBRANCH   3   5
ENDBRANCH   2   3
BRANCH   1  17
ATOM     17  C   UNL     1      91.015 100.419  71.862  1.00  0.00     0.027 C 
BRANCH  17  18
ATOM     18  C   UNL     1      90.487 101.783  71.403  1.00  0.00     0.004 C 
BRANCH  18  19
ATOM     19  C   UNL     1      89.059 102.078  71.872  1.00  0.00     0.000 C 
BRANCH  19  20
ATOM     20  C   UNL     1      89.051 103.105  73.005  1.00  0.00    -0.003 C 
ATOM     21  C   UNL     1      87.704 103.799  73.119  1.00  0.00     0.004 C 
ENDBRANCH  19  20
ENDBRANCH  18  19
ENDBRANCH  17  18
ENDBRANCH   1  17
TORSDOF 10
ENDMDL
MODEL 3
REMARK VINA RESULT:    -5.790      1.121      2.462
REMARK INTER + INTRA:          -9.963
REMARK INTER:                  -8.751
REMARK INTRA:                  -1.211
REMARK UNBOUND:                -0.957
REMARK SMILES CCCCC/C=C/C(=O)CCc1ccc(O)c(OC)c1
REMARK SMILES IDX 6 1 7 2 8 3 9 4 10 5 11 6 12 7 17 8 20 9 15 10 14 11 13 12
REMARK SMILES IDX 18 13 19 14 16 15 5 17 4 18 3 19 2 20 1 21
REMARK H PARENT 16 16
REMARK Flexibility Score: inf
ROOT
ATOM      1  C   UNL     1      94.414  95.570  76.901  1.00  0.00    -0.023 C 
ATOM      2  C   UNL     1      94.326  96.906  76.921  1.00  0.00     0.043 C 
ENDROOT
BRANCH   2   3
ATOM      3  C   UNL     1      95.546  97.734  76.718  1.00  0.00     0.155 C 
ATOM      4  O   UNL     1      96.197  97.686  75.677  1.00  0.00    -0.295 OA
BRANCH   3   5
ATOM      5  C   UNL     1      95.976  98.601  77.886  1.00  0.00     0.085 C 
BRANCH   5   6
ATOM      6  C   UNL     1      96.976  97.869  78.782  1.00  0.00     0.044 C 
BRANCH   6   7
ATOM      7  C   UNL     1      96.354  97.356  80.059  1.00  0.00    -0.044 A 
ATOM      8  C   UNL     1      95.533  97.766  82.277  1.00  0.00     0.160 A 
ATOM      9  C   UNL     1      96.108  98.240  81.097  1.00  0.00     0.054 A 
ATOM     10  C   UNL     1      95.213  96.415  82.403  1.00  0.00     0.157 A 
ATOM     11  C   UNL     1      95.467  95.537  81.349  1.00  0.00     0.050 A 
ATOM     12  C   UNL     1      96.042  96.011  80.170  1.00  0.00     0.008 A 
BRANCH   8  13
ATOM     13  O   UNL     1      95.289  98.634  83.299  1.00  0.00    -0.493 OA
ATOM     14  C   UNL     1      95.444 100.024  83.020  1.00  0.00     0.278 C 
ENDBRANCH   8  13
BRANCH  10  15
ATOM     15  O   UNL     1      94.651  95.940  83.549  1.00  0.00    -0.504 OA
ATOM     16  H   UNL     1      94.387  95.016  83.400  1.00  0.00     0.293 HD
ENDBRANCH  10  15
ENDBRANCH   6   7
ENDBRANCH   5   6
ENDBRANCH   3   5
ENDBRANCH   2   3
BRANCH   1  17
ATOM     17  C   UNL     1      93.232  94.667  77.097  1.00  0.00     0.027 C 
BRANCH  17  18
ATOM     18  C   UNL     1      92.684  94.695  78.528  1.00  0.00     0.004 C 
BRANCH  18  19
ATOM     19  C   UNL     1      91.406  93.870  78.712  1.00  0.00     0.000 C 
BRANCH  19  20
ATOM     20  C   UNL     1      90.234  94.491  77.950  1.00  0.00    -0.003 C 
ATOM     21  C   UNL     1      88.967  93.667  78.110  1.00  0.00     0.004 C 
ENDBRANCH  19  20
ENDBRANCH  18  19
ENDBRANCH  17  18
ENDBRANCH   1  17
TORSDOF 10
ENDMDL
MODEL 4
REMARK VINA RESULT:    -5.773      2.177      4.768
REMARK INTER + INTRA:          -9.936
REMARK INTER:                  -9.066
REMARK INTRA:                  -0.870
REMARK UNBOUND:                -0.957
REMARK SMILES CCCCC/C=C/C(=O)CCc1ccc(O)c(OC)c1
REMARK SMILES IDX 6 1 7 2 8 3 9 4 10 5 11 6 12 7 17 8 20 9 15 10 14 11 13 12
REMARK SMILES IDX 18 13 19 14 16 15 5 17 4 18 3 19 2 20 1 21
REMARK H PARENT 16 16
REMARK Flexibility Score: inf
ROOT
ATOM      1  C   UNL     1      92.727  96.346  76.245  1.00  0.00    -0.023 C 
ATOM      2  C   UNL     1      91.805  96.309  77.215  1.00  0.00     0.043 C 
ENDROOT
BRANCH   2   3
ATOM      3  C   UNL     1      91.159  95.018  77.575  1.00  0.00     0.155 C 
ATOM      4  O   UNL     1      90.151  94.613  76.998  1.00  0.00    -0.295 OA
BRANCH   3   5
ATOM      5  C   UNL     1      91.777  94.251  78.728  1.00  0.00     0.085 C 
BRANCH   5   6
ATOM      6  C   UNL     1      93.283  94.074  78.533  1.00  0.00     0.044 C 
BRANCH   6   7
ATOM      7  C   UNL     1      94.084  94.478  79.748  1.00  0.00    -0.044 A 
ATOM      8  C   UNL     1      94.955  96.195  81.181  1.00  0.00     0.160 A 
ATOM      9  C   UNL     1      94.215  95.822  80.058  1.00  0.00     0.054 A 
ATOM     10  C   UNL     1      95.554  95.219  81.977  1.00  0.00     0.157 A 
ATOM     11  C   UNL     1      95.414  93.870  81.651  1.00  0.00     0.050 A 
ATOM     12  C   UNL     1      94.674  93.497  80.528  1.00  0.00     0.008 A 
BRANCH   8  13
ATOM     13  O   UNL     1      95.085  97.515  81.489  1.00  0.00    -0.493 OA
ATOM     14  C   UNL     1      95.958  98.290  80.669  1.00  0.00     0.278 C 
ENDBRANCH   8  13
BRANCH  10  15
ATOM     15  O   UNL     1      96.279  95.570  83.076  1.00  0.00    -0.504 OA
ATOM     16  H   UNL     1      96.520  96.509  82.995  1.00  0.00     0.293 HD
ENDBRANCH  10  15
ENDBRANCH   6   7
ENDBRANCH   5   6
ENDBRANCH   3   5
ENDBRANCH   2   3
BRANCH   1  17
ATOM     17  C   UNL     1      93.424  97.607  75.823  1.00  0.00     0.027 C 
BRANCH  17  18
ATOM     18  C   UNL     1      94.851  97.718  76.370  1.00  0.00     0.004 C 
BRANCH  18  19
ATOM     19  C   UNL     1      95.933  97.551  75.298  1.00  0.00     0.000 C 
BRANCH  19  20
ATOM     20  C   UNL     1      95.629  98.407  74.069  1.00  0.00    -0.003 C 
ATOM     21  C   UNL     1      96.300  97.852  72.823  1.00  0.00     0.004 C 
ENDBRANCH  19  20
ENDBRANCH  18  19
ENDBRANCH  17  18
ENDBRANCH   1  17
TORSDOF 10
ENDMDL
MODEL 5
REMARK VINA RESULT:    -5.764     12.614     14.941
REMARK INTER + INTRA:          -9.922
REMARK INTER:                  -8.877
REMARK INTRA:                  -1.045
REMARK UNBOUND:                -0.957
REMARK SMILES CCCCC/C=C/C(=O)CCc1ccc(O)c(OC)c1
REMARK SMILES IDX 6 1 7 2 8 3 9 4 10 5 11 6 12 7 17 8 20 9 15 10 14 11 13 12
REMARK SMILES IDX 18 13 19 14 16 15 5 17 4 18 3 19 2 20 1 21
REMARK H PARENT 16 16
REMARK Flexibility Score: inf
ROOT
ATOM      1  C   UNL     1      97.714  81.867  83.911  1.00  0.00    -0.023 C 
ATOM      2  C   UNL     1      99.004  81.585  83.687  1.00  0.00     0.043 C 
ENDROOT
BRANCH   2   3
ATOM      3  C   UNL     1      99.373  80.557  82.677  1.00  0.00     0.155 C 
ATOM      4  O   UNL     1      99.022  79.384  82.787  1.00  0.00    -0.295 OA
BRANCH   3   5
ATOM      5  C   UNL     1     100.252  81.020  81.531  1.00  0.00     0.085 C 
BRANCH   5   6
ATOM      6  C   UNL     1     100.152  82.533  81.331  1.00  0.00     0.044 C 
BRANCH   6   7
ATOM      7  C   UNL     1      99.316  82.913  80.132  1.00  0.00    -0.044 A 
ATOM      8  C   UNL     1      99.125  83.280  77.768  1.00  0.00     0.160 A 
ATOM      9  C   UNL     1      99.899  82.929  78.875  1.00  0.00     0.054 A 
ATOM     10  C   UNL     1      97.781  83.611  77.933  1.00  0.00     0.157 A 
ATOM     11  C   UNL     1      97.208  83.591  79.205  1.00  0.00     0.050 A 
ATOM     12  C   UNL     1      97.982  83.240  80.312  1.00  0.00     0.008 A 
BRANCH   8  13
ATOM     13  O   UNL     1      99.696  83.296  76.531  1.00  0.00    -0.493 OA
ATOM     14  C   UNL     1      99.887  82.037  75.888  1.00  0.00     0.278 C 
ENDBRANCH   8  13
BRANCH  10  15
ATOM     15  O   UNL     1      97.016  83.955  76.860  1.00  0.00    -0.504 OA
ATOM     16  H   UNL     1      97.247  84.863  76.598  1.00  0.00     0.293 HD
ENDBRANCH  10  15
ENDBRANCH   6   7
ENDBRANCH   5   6
ENDBRANCH   3   5
ENDBRANCH   2   3
BRANCH   1  17
ATOM     17  C   UNL     1      97.260  82.890  84.912  1.00  0.00     0.027 C 
BRANCH  17  18
ATOM     18  C   UNL     1      97.253  84.317  84.353  1.00  0.00     0.004 C 
BRANCH  18  19
ATOM     19  C   UNL     1      96.897  85.382  85.396  1.00  0.00     0.000 C 
BRANCH  19  20
ATOM     20  C   UNL     1      96.158  84.766  86.584  1.00  0.00    -0.003 C 
ATOM     21  C   UNL     1      95.175  85.749  87.199  1.00  0.00     0.004 C 
ENDBRANCH  19  20
ENDBRANCH  18  19
ENDBRANCH  17  18
ENDBRANCH   1  17
TORSDOF 10
ENDMDL
MODEL 6
REMARK VINA RESULT:    -5.706      1.258      2.080
REMARK INTER + INTRA:          -9.832
REMARK INTER:                  -8.570
REMARK INTRA:                  -1.262
REMARK UNBOUND:                -0.957
REMARK SMILES CCCCC/C=C/C(=O)CCc1ccc(O)c(OC)c1
REMARK SMILES IDX 6 1 7 2 8 3 9 4 10 5 11 6 12 7 17 8 20 9 15 10 14 11 13 12
REMARK SMILES IDX 18 13 19 14 16 15 5 17 4 18 3 19 2 20 1 21
REMARK H PARENT 16 16
REMARK Flexibility Score: inf
ROOT
ATOM      1  C   UNL     1      95.064  96.735  76.317  1.00  0.00    -0.023 C 
ATOM      2  C   UNL     1      95.369  98.018  76.544  1.00  0.00     0.043 C 
ENDROOT
BRANCH   2   3
ATOM      3  C   UNL     1      96.772  98.404  76.853  1.00  0.00     0.155 C 
ATOM      4  O   UNL     1      97.583  98.667  75.967  1.00  0.00    -0.295 OA
BRANCH   3   5
ATOM      5  C   UNL     1      97.167  98.405  78.317  1.00  0.00     0.085 C 
BRANCH   5   6
ATOM      6  C   UNL     1      96.035  98.939  79.197  1.00  0.00     0.044 C 
BRANCH   6   7
ATOM      7  C   UNL     1      95.719  98.031  80.362  1.00  0.00    -0.044 A 
ATOM      8  C   UNL     1      94.963  95.910  81.193  1.00  0.00     0.160 A 
ATOM      9  C   UNL     1      95.254  96.748  80.117  1.00  0.00     0.054 A 
ATOM     10  C   UNL     1      95.140  96.365  82.500  1.00  0.00     0.157 A 
ATOM     11  C   UNL     1      95.608  97.659  82.730  1.00  0.00     0.050 A 
ATOM     12  C   UNL     1      95.899  98.497  81.653  1.00  0.00     0.008 A 
BRANCH   8  13
ATOM     13  O   UNL     1      94.506  94.649  80.955  1.00  0.00    -0.493 OA
ATOM     14  C   UNL     1      95.415  93.734  80.346  1.00  0.00     0.278 C 
ENDBRANCH   8  13
BRANCH  10  15
ATOM     15  O   UNL     1      94.859  95.556  83.559  1.00  0.00    -0.504 OA
ATOM     16  H   UNL     1      94.063  95.040  83.346  1.00  0.00     0.293 HD
ENDBRANCH  10  15
ENDBRANCH   6   7
ENDBRANCH   5   6
ENDBRANCH   3   5
ENDBRANCH   2   3
BRANCH   1  17
ATOM     17  C   UNL     1      93.674  96.265  76.000  1.00  0.00     0.027 C 
BRANCH  17  18
ATOM     18  C   UNL     1      92.756  96.232  77.226  1.00  0.00     0.004 C 
BRANCH  18  19
ATOM     19  C   UNL     1      91.366  95.657  76.936  1.00  0.00     0.000 C 
BRANCH  19  20
ATOM     20  C   UNL     1      90.844  94.851  78.127  1.00  0.00    -0.003 C 
ATOM     21  C   UNL     1      91.950  94.031  78.772  1.00  0.00     0.004 C 
ENDBRANCH  19  20
ENDBRANCH  18  19
ENDBRANCH  17  18
ENDBRANCH   1  17
TORSDOF 10
ENDMDL
MODEL 7
REMARK VINA RESULT:    -5.543     32.787     34.478
REMARK INTER + INTRA:          -9.579
REMARK INTER:                  -7.914
REMARK INTRA:                  -1.665
REMARK UNBOUND:                -0.957
REMARK SMILES CCCCC/C=C/C(=O)CCc1ccc(O)c(OC)c1
REMARK SMILES IDX 6 1 7 2 8 3 9 4 10 5 11 6 12 7 17 8 20 9 15 10 14 11 13 12
REMARK SMILES IDX 18 13 19 14 16 15 5 17 4 18 3 19 2 20 1 21
REMARK H PARENT 16 16
REMARK Flexibility Score: inf
ROOT
ATOM      1  C   UNL     1      62.347  84.326  69.318  1.00  0.00    -0.023 C 
ATOM      2  C   UNL     1      63.675  84.436  69.193  1.00  0.00     0.043 C 
ENDROOT
BRANCH   2   3
ATOM      3  C   UNL     1      64.517  83.212  69.113  1.00  0.00     0.155 C 
ATOM      4  O   UNL     1      65.506  83.151  68.386  1.00  0.00    -0.295 OA
BRANCH   3   5
ATOM      5  C   UNL     1      64.061  82.022  69.935  1.00  0.00     0.085 C 
BRANCH   5   6
ATOM      6  C   UNL     1      64.796  81.958  71.275  1.00  0.00     0.044 C 
BRANCH   6   7
ATOM      7  C   UNL     1      63.902  82.271  72.451  1.00  0.00    -0.044 A 
ATOM      8  C   UNL     1      63.166  83.799  74.149  1.00  0.00     0.160 A 
ATOM      9  C   UNL     1      63.992  83.511  73.062  1.00  0.00     0.054 A 
ATOM     10  C   UNL     1      62.260  82.844  74.609  1.00  0.00     0.157 A 
ATOM     11  C   UNL     1      62.181  81.600  73.983  1.00  0.00     0.050 A 
ATOM     12  C   UNL     1      63.007  81.311  72.897  1.00  0.00     0.008 A 
BRANCH   8  13
ATOM     13  O   UNL     1      63.253  85.018  74.751  1.00  0.00    -0.493 OA
ATOM     14  C   UNL     1      63.265  86.163  73.901  1.00  0.00     0.278 C 
ENDBRANCH   8  13
BRANCH  10  15
ATOM     15  O   UNL     1      61.448  83.114  75.668  1.00  0.00    -0.504 OA
ATOM     16  H   UNL     1      61.268  82.280  76.136  1.00  0.00     0.293 HD
ENDBRANCH  10  15
ENDBRANCH   6   7
ENDBRANCH   5   6
ENDBRANCH   3   5
ENDBRANCH   2   3
BRANCH   1  17
ATOM     17  C   UNL     1      61.430  85.511  69.407  1.00  0.00     0.027 C 
BRANCH  17  18
ATOM     18  C   UNL     1      60.235  85.279  70.337  1.00  0.00     0.004 C 
BRANCH  18  19
ATOM     19  C   UNL     1      60.613  84.634  71.674  1.00  0.00     0.000 C 
BRANCH  19  20
ATOM     20  C   UNL     1      59.643  85.048  72.781  1.00  0.00    -0.003 C 
ATOM     21  C   UNL     1      59.242  86.509  72.652  1.00  0.00     0.004 C 
ENDBRANCH  19  20
ENDBRANCH  18  19
ENDBRANCH  17  18
ENDBRANCH   1  17
TORSDOF 10
ENDMDL
MODEL 8
REMARK VINA RESULT:    -5.318      2.018      4.010
REMARK INTER + INTRA:          -9.229
REMARK INTER:                  -8.201
REMARK INTRA:                  -1.028
REMARK UNBOUND:                -0.957
REMARK SMILES CCCCC/C=C/C(=O)CCc1ccc(O)c(OC)c1
REMARK SMILES IDX 6 1 7 2 8 3 9 4 10 5 11 6 12 7 17 8 20 9 15 10 14 11 13 12
REMARK SMILES IDX 18 13 19 14 16 15 5 17 4 18 3 19 2 20 1 21
REMARK H PARENT 16 16
REMARK Flexibility Score: inf
ROOT
ATOM      1  C   UNL     1      94.639  94.426  78.569  1.00  0.00    -0.023 C 
ATOM      2  C   UNL     1      94.155  94.222  79.800  1.00  0.00     0.043 C 
ENDROOT
BRANCH   2   3
ATOM      3  C   UNL     1      95.077  93.853  80.908  1.00  0.00     0.155 C 
ATOM      4  O   UNL     1      95.151  92.702  81.335  1.00  0.00    -0.295 OA
BRANCH   3   5
ATOM      5  C   UNL     1      95.884  94.981  81.521  1.00  0.00     0.085 C 
BRANCH   5   6
ATOM      6  C   UNL     1      94.988  96.161  81.902  1.00  0.00     0.044 C 
BRANCH   6   7
ATOM      7  C   UNL     1      95.474  97.475  81.337  1.00  0.00    -0.044 A 
ATOM      8  C   UNL     1      96.265  98.766  79.475  1.00  0.00     0.160 A 
ATOM      9  C   UNL     1      95.816  97.552  79.997  1.00  0.00     0.054 A 
ATOM     10  C   UNL     1      96.366  99.885  80.301  1.00  0.00     0.157 A 
ATOM     11  C   UNL     1      96.017  99.791  81.649  1.00  0.00     0.050 A 
ATOM     12  C   UNL     1      95.569  98.577  82.170  1.00  0.00     0.008 A 
BRANCH   8  13
ATOM     13  O   UNL     1      96.602  98.845  78.158  1.00  0.00    -0.493 OA
ATOM     14  C   UNL     1      95.534  98.971  77.221  1.00  0.00     0.278 C 
ENDBRANCH   8  13
BRANCH  10  15
ATOM     15  O   UNL     1      96.802 101.076  79.803  1.00  0.00    -0.504 OA
ATOM     16  H   UNL     1      96.071 101.487  79.311  1.00  0.00     0.293 HD
ENDBRANCH  10  15
ENDBRANCH   6   7
ENDBRANCH   5   6
ENDBRANCH   3   5
ENDBRANCH   2   3
BRANCH   1  17
ATOM     17  C   UNL     1      93.776  94.800  77.399  1.00  0.00     0.027 C 
BRANCH  17  18
ATOM     18  C   UNL     1      92.305  95.005  77.778  1.00  0.00     0.004 C 
BRANCH  18  19
ATOM     19  C   UNL     1      91.424  93.783  77.501  1.00  0.00     0.000 C 
BRANCH  19  20
ATOM     20  C   UNL     1      90.020  93.974  78.077  1.00  0.00    -0.003 C 
ATOM     21  C   UNL     1      89.242  95.030  77.310  1.00  0.00     0.004 C 
ENDBRANCH  19  20
ENDBRANCH  18  19
ENDBRANCH  17  18
ENDBRANCH   1  17
TORSDOF 10
ENDMDL
MODEL 9
REMARK VINA RESULT:    -5.313      2.132      4.082
REMARK INTER + INTRA:          -9.221
REMARK INTER:                  -8.059
REMARK INTRA:                  -1.162
REMARK UNBOUND:                -0.957
REMARK SMILES CCCCC/C=C/C(=O)CCc1ccc(O)c(OC)c1
REMARK SMILES IDX 6 1 7 2 8 3 9 4 10 5 11 6 12 7 17 8 20 9 15 10 14 11 13 12
REMARK SMILES IDX 18 13 19 14 16 15 5 17 4 18 3 19 2 20 1 21
REMARK H PARENT 16 16
REMARK Flexibility Score: inf
ROOT
ATOM      1  C   UNL     1      93.882  94.692  78.343  1.00  0.00    -0.023 C 
ATOM      2  C   UNL     1      93.768  94.552  79.669  1.00  0.00     0.043 C 
ENDROOT
BRANCH   2   3
ATOM      3  C   UNL     1      94.904  94.001  80.457  1.00  0.00     0.155 C 
ATOM      4  O   UNL     1      95.231  92.818  80.385  1.00  0.00    -0.295 OA
BRANCH   3   5
ATOM      5  C   UNL     1      95.607  94.964  81.394  1.00  0.00     0.085 C 
BRANCH   5   6
ATOM      6  C   UNL     1      96.814  95.615  80.718  1.00  0.00     0.044 C 
BRANCH   6   7
ATOM      7  C   UNL     1      96.569  97.057  80.341  1.00  0.00    -0.044 A 
ATOM      8  C   UNL     1      96.385  99.364  80.974  1.00  0.00     0.160 A 
ATOM      9  C   UNL     1      96.611  98.033  81.324  1.00  0.00     0.054 A 
ATOM     10  C   UNL     1      96.120  99.702  79.648  1.00  0.00     0.157 A 
ATOM     11  C   UNL     1      96.082  98.708  78.669  1.00  0.00     0.050 A 
ATOM     12  C   UNL     1      96.307  97.377  79.019  1.00  0.00     0.008 A 
BRANCH   8  13
ATOM     13  O   UNL     1      96.425 100.325  81.939  1.00  0.00    -0.493 OA
ATOM     14  C   UNL     1      95.257 100.489  82.740  1.00  0.00     0.278 C 
ENDBRANCH   8  13
BRANCH  10  15
ATOM     15  O   UNL     1      95.899 100.999  79.294  1.00  0.00    -0.504 OA
ATOM     16  H   UNL     1      96.724 101.497  79.425  1.00  0.00     0.293 HD
ENDBRANCH  10  15
ENDBRANCH   6   7
ENDBRANCH   5   6
ENDBRANCH   3   5
ENDBRANCH   2   3
BRANCH   1  17
ATOM     17  C   UNL     1      92.783  95.238  77.478  1.00  0.00     0.027 C 
BRANCH  17  18
ATOM     18  C   UNL     1      91.433  95.316  78.199  1.00  0.00     0.004 C 
BRANCH  18  19
ATOM     19  C   UNL     1      90.228  95.204  77.259  1.00  0.00     0.000 C 
BRANCH  19  20
ATOM     20  C   UNL     1      89.222  94.172  77.771  1.00  0.00    -0.003 C 
ATOM     21  C   UNL     1      89.899  93.110  78.622  1.00  0.00     0.004 C 
ENDBRANCH  19  20
ENDBRANCH  18  19
ENDBRANCH  17  18
ENDBRANCH   1  17
TORSDOF 10
ENDMDL
MODEL 10
REMARK VINA RESULT:    -5.300     31.074     34.813
REMARK INTER + INTRA:          -9.201
REMARK INTER:                  -7.401
REMARK INTRA:                  -1.799
REMARK UNBOUND:                -0.957
REMARK SMILES CCCCC/C=C/C(=O)CCc1ccc(O)c(OC)c1
REMARK SMILES IDX 6 1 7 2 8 3 9 4 10 5 11 6 12 7 17 8 20 9 15 10 14 11 13 12
REMARK SMILES IDX 18 13 19 14 16 15 5 17 4 18 3 19 2 20 1 21
REMARK H PARENT 16 16
REMARK Flexibility Score: inf
ROOT
ATOM      1  C   UNL     1      60.677  84.982  72.914  1.00  0.00    -0.023 C 
ATOM      2  C   UNL     1      59.546  84.629  72.289  1.00  0.00     0.043 C 
ENDROOT
BRANCH   2   3
ATOM      3  C   UNL     1      59.472  84.680  70.804  1.00  0.00     0.155 C 
ATOM      4  O   UNL     1      58.429  84.445  70.198  1.00  0.00    -0.295 OA
BRANCH   3   5
ATOM      5  C   UNL     1      60.765  84.984  70.073  1.00  0.00     0.085 C 
BRANCH   5   6
ATOM      6  C   UNL     1      61.280  83.756  69.320  1.00  0.00     0.044 C 
BRANCH   6   7
ATOM      7  C   UNL     1      62.669  83.345  69.748  1.00  0.00    -0.044 A 
ATOM      8  C   UNL     1      64.675  83.791  70.988  1.00  0.00     0.160 A 
ATOM      9  C   UNL     1      63.392  84.172  70.593  1.00  0.00     0.054 A 
ATOM     10  C   UNL     1      65.218  82.590  70.532  1.00  0.00     0.157 A 
ATOM     11  C   UNL     1      64.478  81.769  69.681  1.00  0.00     0.050 A 
ATOM     12  C   UNL     1      63.195  82.150  69.286  1.00  0.00     0.008 A 
BRANCH   8  13
ATOM     13  O   UNL     1      65.387  84.602  71.820  1.00  0.00    -0.493 OA
ATOM     14  C   UNL     1      65.986  85.759  71.240  1.00  0.00     0.278 C 
ENDBRANCH   8  13
BRANCH  10  15
ATOM     15  O   UNL     1      66.469  82.208  70.911  1.00  0.00    -0.504 OA
ATOM     16  H   UNL     1      66.916  81.819  70.140  1.00  0.00     0.293 HD
ENDBRANCH  10  15
ENDBRANCH   6   7
ENDBRANCH   5   6
ENDBRANCH   3   5
ENDBRANCH   2   3
BRANCH   1  17
ATOM     17  C   UNL     1      60.832  84.959  74.407  1.00  0.00     0.027 C 
BRANCH  17  18
ATOM     18  C   UNL     1      61.446  83.656  74.928  1.00  0.00     0.004 C 
BRANCH  18  19
ATOM     19  C   UNL     1      62.629  83.157  74.092  1.00  0.00     0.000 C 
BRANCH  19  20
ATOM     20  C   UNL     1      62.402  81.722  73.616  1.00  0.00    -0.003 C 
ATOM     21  C   UNL     1      63.718  80.990  73.406  1.00  0.00     0.004 C 
ENDBRANCH  19  20
ENDBRANCH  18  19
ENDBRANCH  17  18
ENDBRANCH   1  17
TORSDOF 10
ENDMDL
