MODEL 1
REMARK VINA RESULT:    -6.262      0.000      0.000
REMARK INTER + INTRA:         -11.065
REMARK INTER:                 -10.289
REMARK INTRA:                  -0.777
REMARK UNBOUND:                -0.777
REMARK SMILES CCCCC[C@H](O)CC(=O)CCc1ccc(O)c(OC)c1
REMARK SMILES IDX 8 1 6 2 7 3 5 5 4 6 3 7 2 8 1 9 9 10 10 11 11 12 12 13 13 14
REMARK SMILES IDX 21 15 14 16 18 17 15 18 16 19 19 20 20 21 17 22
REMARK H PARENT 7 4 17 23
REMARK Flexibility Score: inf
ROOT
ATOM      1  C   UNL     1      77.081  85.380  66.774  1.00  0.00     0.107 C 
ENDROOT
BRANCH   1   2
ATOM      2  C   UNL     1      77.981  86.461  67.378  1.00  0.00     0.121 C 
BRANCH   2   3
ATOM      3  O   UNL     1      77.727  87.712  66.743  1.00  0.00    -0.393 OA
ATOM      4  H   UNL     1      76.768  87.781  66.595  1.00  0.00     0.210 HD
ENDBRANCH   2   3
BRANCH   2   5
ATOM      5  C   UNL     1      77.798  86.617  68.893  1.00  0.00     0.032 C 
BRANCH   5   6
ATOM      6  C   UNL     1      76.366  87.024  69.261  1.00  0.00     0.003 C 
BRANCH   6   7
ATOM      7  C   UNL     1      75.669  86.020  70.184  1.00  0.00    -0.000 C 
BRANCH   7   8
ATOM      8  C   UNL     1      76.591  84.914  70.693  1.00  0.00    -0.003 C 
ATOM      9  C   UNL     1      75.838  83.921  71.565  1.00  0.00     0.004 C 
ENDBRANCH   7   8
ENDBRANCH   6   7
ENDBRANCH   5   6
ENDBRANCH   2   5
ENDBRANCH   1   2
BRANCH   1  10
ATOM     10  C   UNL     1      77.826  84.094  66.456  1.00  0.00     0.135 C 
ATOM     11  O   UNL     1      78.753  83.707  67.167  1.00  0.00    -0.300 OA
BRANCH  10  12
ATOM     12  C   UNL     1      77.336  83.302  65.253  1.00  0.00     0.080 C 
BRANCH  12  13
ATOM     13  C   UNL     1      76.961  81.855  65.580  1.00  0.00     0.043 C 
BRANCH  13  14
ATOM     14  C   UNL     1      75.680  81.411  64.915  1.00  0.00    -0.044 A 
ATOM     15  C   UNL     1      74.489  81.388  65.641  1.00  0.00     0.054 A 
ATOM     16  C   UNL     1      75.688  81.025  63.575  1.00  0.00     0.008 A 
ATOM     17  C   UNL     1      73.306  80.979  65.025  1.00  0.00     0.160 A 
ATOM     18  C   UNL     1      74.505  80.615  62.959  1.00  0.00     0.050 A 
ATOM     19  C   UNL     1      73.314  80.592  63.685  1.00  0.00     0.157 A 
BRANCH  17  20
ATOM     20  O   UNL     1      72.149  80.960  65.744  1.00  0.00    -0.493 OA
ATOM     21  C   UNL     1      71.651  82.214  66.205  1.00  0.00     0.278 C 
ENDBRANCH  17  20
BRANCH  19  22
ATOM     22  O   UNL     1      72.165  80.190  63.073  1.00  0.00    -0.504 OA
ATOM     23  H   UNL     1      71.540  80.935  63.053  1.00  0.00     0.293 HD
ENDBRANCH  19  22
ENDBRANCH  13  14
ENDBRANCH  12  13
ENDBRANCH  10  12
ENDBRANCH   1  10
TORSDOF 12
ENDMDL
MODEL 2
REMARK VINA RESULT:    -5.781      4.517      8.453
REMARK INTER + INTRA:         -10.274
REMARK INTER:                  -8.642
REMARK INTRA:                  -1.632
REMARK UNBOUND:                -0.777
REMARK SMILES CCCCC[C@H](O)CC(=O)CCc1ccc(O)c(OC)c1
REMARK SMILES IDX 8 1 6 2 7 3 5 5 4 6 3 7 2 8 1 9 9 10 10 11 11 12 12 13 13 14
REMARK SMILES IDX 21 15 14 16 18 17 15 18 16 19 19 20 20 21 17 22
REMARK H PARENT 7 4 17 23
REMARK Flexibility Score: inf
ROOT
ATOM      1  C   UNL     1      76.721  84.354  68.606  1.00  0.00     0.107 C 
ENDROOT
BRANCH   1   2
ATOM      2  C   UNL     1      78.176  84.651  68.235  1.00  0.00     0.121 C 
BRANCH   2   3
ATOM      3  O   UNL     1      78.654  83.664  67.325  1.00  0.00    -0.393 OA
ATOM      4  H   UNL     1      77.916  83.414  66.742  1.00  0.00     0.210 HD
ENDBRANCH   2   3
BRANCH   2   5
ATOM      5  C   UNL     1      78.366  86.042  67.617  1.00  0.00     0.032 C 
BRANCH   5   6
ATOM      6  C   UNL     1      77.275  86.371  66.591  1.00  0.00     0.003 C 
BRANCH   6   7
ATOM      7  C   UNL     1      76.843  87.840  66.614  1.00  0.00    -0.000 C 
BRANCH   7   8
ATOM      8  C   UNL     1      75.332  88.036  66.505  1.00  0.00    -0.003 C 
ATOM      9  C   UNL     1      74.586  86.730  66.732  1.00  0.00     0.004 C 
ENDBRANCH   7   8
ENDBRANCH   6   7
ENDBRANCH   5   6
ENDBRANCH   2   5
ENDBRANCH   1   2
BRANCH   1  10
ATOM     10  C   UNL     1      76.402  84.661  70.060  1.00  0.00     0.135 C 
ATOM     11  O   UNL     1      76.916  84.013  70.971  1.00  0.00    -0.300 OA
BRANCH  10  12
ATOM     12  C   UNL     1      75.460  85.827  70.320  1.00  0.00     0.080 C 
BRANCH  12  13
ATOM     13  C   UNL     1      76.100  87.197  70.087  1.00  0.00     0.043 C 
BRANCH  13  14
ATOM     14  C   UNL     1      75.291  88.334  70.667  1.00  0.00    -0.044 A 
ATOM     15  C   UNL     1      75.763  89.643  70.576  1.00  0.00     0.054 A 
ATOM     16  C   UNL     1      74.072  88.073  71.293  1.00  0.00     0.008 A 
ATOM     17  C   UNL     1      75.015  90.692  71.110  1.00  0.00     0.160 A 
ATOM     18  C   UNL     1      73.324  89.122  71.827  1.00  0.00     0.050 A 
ATOM     19  C   UNL     1      73.796  90.431  71.736  1.00  0.00     0.157 A 
BRANCH  17  20
ATOM     20  O   UNL     1      75.486  91.967  71.016  1.00  0.00    -0.493 OA
ATOM     21  C   UNL     1      76.577  92.319  71.865  1.00  0.00     0.278 C 
ENDBRANCH  17  20
BRANCH  19  22
ATOM     22  O   UNL     1      73.056  91.447  72.262  1.00  0.00    -0.504 OA
ATOM     23  H   UNL     1      72.151  91.395  71.911  1.00  0.00     0.293 HD
ENDBRANCH  19  22
ENDBRANCH  13  14
ENDBRANCH  12  13
ENDBRANCH  10  12
ENDBRANCH   1  10
TORSDOF 12
ENDMDL
MODEL 3
REMARK VINA RESULT:    -5.566      1.724      6.119
REMARK INTER + INTRA:          -9.921
REMARK INTER:                  -7.905
REMARK INTRA:                  -2.016
REMARK UNBOUND:                -0.777
REMARK SMILES CCCCC[C@H](O)CC(=O)CCc1ccc(O)c(OC)c1
REMARK SMILES IDX 8 1 6 2 7 3 5 5 4 6 3 7 2 8 1 9 9 10 10 11 11 12 12 13 13 14
REMARK SMILES IDX 21 15 14 16 18 17 15 18 16 19 19 20 20 21 17 22
REMARK H PARENT 7 4 17 23
REMARK Flexibility Score: inf
ROOT
ATOM      1  C   UNL     1      74.280  81.507  65.818  1.00  0.00     0.107 C 
ENDROOT
BRANCH   1   2
ATOM      2  C   UNL     1      72.828  81.988  65.785  1.00  0.00     0.121 C 
BRANCH   2   3
ATOM      3  O   UNL     1      71.957  80.922  66.158  1.00  0.00    -0.393 OA
ATOM      4  H   UNL     1      71.280  81.286  66.756  1.00  0.00     0.210 HD
ENDBRANCH   2   3
BRANCH   2   5
ATOM      5  C   UNL     1      72.573  83.192  66.700  1.00  0.00     0.032 C 
BRANCH   5   6
ATOM      6  C   UNL     1      72.871  84.522  65.998  1.00  0.00     0.003 C 
BRANCH   6   7
ATOM      7  C   UNL     1      73.933  85.362  66.716  1.00  0.00    -0.000 C 
BRANCH   7   8
ATOM      8  C   UNL     1      74.514  84.685  67.955  1.00  0.00    -0.003 C 
ATOM      9  C   UNL     1      74.289  85.525  69.203  1.00  0.00     0.004 C 
ENDBRANCH   7   8
ENDBRANCH   6   7
ENDBRANCH   5   6
ENDBRANCH   2   5
ENDBRANCH   1   2
BRANCH   1  10
ATOM     10  C   UNL     1      74.972  81.609  64.468  1.00  0.00     0.135 C 
ATOM     11  O   UNL     1      74.341  81.468  63.421  1.00  0.00    -0.300 OA
BRANCH  10  12
ATOM     12  C   UNL     1      76.458  81.937  64.486  1.00  0.00     0.080 C 
BRANCH  12  13
ATOM     13  C   UNL     1      76.760  83.430  64.351  1.00  0.00     0.043 C 
BRANCH  13  14
ATOM     14  C   UNL     1      77.289  84.045  65.625  1.00  0.00    -0.044 A 
ATOM     15  C   UNL     1      77.320  85.432  65.771  1.00  0.00     0.054 A 
ATOM     16  C   UNL     1      77.747  83.225  66.657  1.00  0.00     0.008 A 
ATOM     17  C   UNL     1      77.808  85.998  66.948  1.00  0.00     0.160 A 
ATOM     18  C   UNL     1      78.235  83.791  67.835  1.00  0.00     0.050 A 
ATOM     19  C   UNL     1      78.266  85.178  67.980  1.00  0.00     0.157 A 
BRANCH  17  20
ATOM     20  O   UNL     1      77.834  87.354  67.079  1.00  0.00    -0.493 OA
ATOM     21  C   UNL     1      76.590  88.005  67.331  1.00  0.00     0.278 C 
ENDBRANCH  17  20
BRANCH  19  22
ATOM     22  O   UNL     1      78.745  85.719  69.134  1.00  0.00    -0.504 OA
ATOM     23  H   UNL     1      78.005  85.856  69.751  1.00  0.00     0.293 HD
ENDBRANCH  19  22
ENDBRANCH  13  14
ENDBRANCH  12  13
ENDBRANCH  10  12
ENDBRANCH   1  10
TORSDOF 12
ENDMDL
MODEL 4
REMARK VINA RESULT:    -5.558     11.891     15.262
REMARK INTER + INTRA:          -9.909
REMARK INTER:                  -8.480
REMARK INTRA:                  -1.429
REMARK UNBOUND:                -0.777
REMARK SMILES CCCCC[C@H](O)CC(=O)CCc1ccc(O)c(OC)c1
REMARK SMILES IDX 8 1 6 2 7 3 5 5 4 6 3 7 2 8 1 9 9 10 10 11 11 12 12 13 13 14
REMARK SMILES IDX 21 15 14 16 18 17 15 18 16 19 19 20 20 21 17 22
REMARK H PARENT 7 4 17 23
REMARK Flexibility Score: inf
ROOT
ATOM      1  C   UNL     1      61.059  84.367  74.779  1.00  0.00     0.107 C 
ENDROOT
BRANCH   1   2
ATOM      2  C   UNL     1      61.830  85.643  74.435  1.00  0.00     0.121 C 
BRANCH   2   3
ATOM      3  O   UNL     1      63.124  85.307  73.938  1.00  0.00    -0.393 OA
ATOM      4  H   UNL     1      63.033  85.090  72.994  1.00  0.00     0.210 HD
ENDBRANCH   2   3
BRANCH   2   5
ATOM      5  C   UNL     1      61.108  86.523  73.407  1.00  0.00     0.032 C 
BRANCH   5   6
ATOM      6  C   UNL     1      59.725  85.968  73.044  1.00  0.00     0.003 C 
BRANCH   6   7
ATOM      7  C   UNL     1      58.983  86.818  72.007  1.00  0.00    -0.000 C 
BRANCH   7   8
ATOM      8  C   UNL     1      58.488  86.020  70.803  1.00  0.00    -0.003 C 
ATOM      9  C   UNL     1      58.365  84.540  71.131  1.00  0.00     0.004 C 
ENDBRANCH   7   8
ENDBRANCH   6   7
ENDBRANCH   5   6
ENDBRANCH   2   5
ENDBRANCH   1   2
BRANCH   1  10
ATOM     10  C   UNL     1      61.954  83.145  74.904  1.00  0.00     0.135 C 
ATOM     11  O   UNL     1      62.769  83.049  75.821  1.00  0.00    -0.300 OA
BRANCH  10  12
ATOM     12  C   UNL     1      61.755  82.045  73.872  1.00  0.00     0.080 C 
BRANCH  12  13
ATOM     13  C   UNL     1      63.045  81.312  73.499  1.00  0.00     0.043 C 
BRANCH  13  14
ATOM     14  C   UNL     1      63.624  81.767  72.180  1.00  0.00    -0.044 A 
ATOM     15  C   UNL     1      62.931  82.686  71.393  1.00  0.00     0.054 A 
ATOM     16  C   UNL     1      64.854  81.267  71.751  1.00  0.00     0.008 A 
ATOM     17  C   UNL     1      63.468  83.106  70.176  1.00  0.00     0.160 A 
ATOM     18  C   UNL     1      65.391  81.687  70.534  1.00  0.00     0.050 A 
ATOM     19  C   UNL     1      64.698  82.606  69.746  1.00  0.00     0.157 A 
BRANCH  17  20
ATOM     20  O   UNL     1      62.781  84.003  69.415  1.00  0.00    -0.493 OA
ATOM     21  C   UNL     1      61.966  84.949  70.106  1.00  0.00     0.278 C 
ENDBRANCH  17  20
BRANCH  19  22
ATOM     22  O   UNL     1      65.232  83.009  68.560  1.00  0.00    -0.504 OA
ATOM     23  H   UNL     1      66.085  82.560  68.428  1.00  0.00     0.293 HD
ENDBRANCH  19  22
ENDBRANCH  13  14
ENDBRANCH  12  13
ENDBRANCH  10  12
ENDBRANCH   1  10
TORSDOF 12
ENDMDL
MODEL 5
REMARK VINA RESULT:    -5.514      1.542      2.205
REMARK INTER + INTRA:          -9.836
REMARK INTER:                  -8.768
REMARK INTRA:                  -1.068
REMARK UNBOUND:                -0.777
REMARK SMILES CCCCC[C@H](O)CC(=O)CCc1ccc(O)c(OC)c1
REMARK SMILES IDX 8 1 6 2 7 3 5 5 4 6 3 7 2 8 1 9 9 10 10 11 11 12 12 13 13 14
REMARK SMILES IDX 21 15 14 16 18 17 15 18 16 19 19 20 20 21 17 22
REMARK H PARENT 7 4 17 23
REMARK Flexibility Score: inf
ROOT
ATOM      1  C   UNL     1      76.749  83.607  67.816  1.00  0.00     0.107 C 
ENDROOT
BRANCH   1   2
ATOM      2  C   UNL     1      76.578  85.125  67.916  1.00  0.00     0.121 C 
BRANCH   2   3
ATOM      3  O   UNL     1      76.877  85.729  66.660  1.00  0.00    -0.393 OA
ATOM      4  H   UNL     1      76.864  85.030  65.983  1.00  0.00     0.210 HD
ENDBRANCH   2   3
BRANCH   2   5
ATOM      5  C   UNL     1      75.170  85.543  68.355  1.00  0.00     0.032 C 
BRANCH   5   6
ATOM      6  C   UNL     1      74.992  85.463  69.876  1.00  0.00     0.003 C 
BRANCH   6   7
ATOM      7  C   UNL     1      74.901  86.837  70.549  1.00  0.00    -0.000 C 
BRANCH   7   8
ATOM      8  C   UNL     1      75.953  87.830  70.058  1.00  0.00    -0.003 C 
ATOM      9  C   UNL     1      75.603  89.254  70.463  1.00  0.00     0.004 C 
ENDBRANCH   7   8
ENDBRANCH   6   7
ENDBRANCH   5   6
ENDBRANCH   2   5
ENDBRANCH   1   2
BRANCH   1  10
ATOM     10  C   UNL     1      77.527  83.175  66.584  1.00  0.00     0.135 C 
ATOM     11  O   UNL     1      78.666  83.594  66.376  1.00  0.00    -0.300 OA
BRANCH  10  12
ATOM     12  C   UNL     1      76.846  82.175  65.663  1.00  0.00     0.080 C 
BRANCH  12  13
ATOM     13  C   UNL     1      75.710  81.399  66.331  1.00  0.00     0.043 C 
BRANCH  13  14
ATOM     14  C   UNL     1      74.396  81.523  65.596  1.00  0.00    -0.044 A 
ATOM     15  C   UNL     1      73.347  82.249  66.160  1.00  0.00     0.054 A 
ATOM     16  C   UNL     1      74.233  80.911  64.353  1.00  0.00     0.008 A 
ATOM     17  C   UNL     1      72.134  82.363  65.479  1.00  0.00     0.160 A 
ATOM     18  C   UNL     1      73.020  81.026  63.672  1.00  0.00     0.050 A 
ATOM     19  C   UNL     1      71.971  81.751  64.236  1.00  0.00     0.157 A 
BRANCH  17  20
ATOM     20  O   UNL     1      71.116  83.074  66.040  1.00  0.00    -0.493 OA
ATOM     21  C   UNL     1      70.441  82.477  67.145  1.00  0.00     0.278 C 
ENDBRANCH  17  20
BRANCH  19  22
ATOM     22  O   UNL     1      70.792  81.856  63.562  1.00  0.00    -0.504 OA
ATOM     23  H   UNL     1      70.941  81.634  62.627  1.00  0.00     0.293 HD
ENDBRANCH  19  22
ENDBRANCH  13  14
ENDBRANCH  12  13
ENDBRANCH  10  12
ENDBRANCH   1  10
TORSDOF 12
ENDMDL
MODEL 6
REMARK VINA RESULT:    -5.489      3.436      7.697
REMARK INTER + INTRA:          -9.796
REMARK INTER:                  -8.013
REMARK INTRA:                  -1.783
REMARK UNBOUND:                -0.777
REMARK SMILES CCCCC[C@H](O)CC(=O)CCc1ccc(O)c(OC)c1
REMARK SMILES IDX 8 1 6 2 7 3 5 5 4 6 3 7 2 8 1 9 9 10 10 11 11 12 12 13 13 14
REMARK SMILES IDX 21 15 14 16 18 17 15 18 16 19 19 20 20 21 17 22
REMARK H PARENT 7 4 17 23
REMARK Flexibility Score: inf
ROOT
ATOM      1  C   UNL     1      76.372  83.896  68.299  1.00  0.00     0.107 C 
ENDROOT
BRANCH   1   2
ATOM      2  C   UNL     1      75.775  84.385  66.977  1.00  0.00     0.121 C 
BRANCH   2   3
ATOM      3  O   UNL     1      75.032  83.334  66.364  1.00  0.00    -0.393 OA
ATOM      4  H   UNL     1      75.663  82.750  65.908  1.00  0.00     0.210 HD
ENDBRANCH   2   3
BRANCH   2   5
ATOM      5  C   UNL     1      74.871  85.612  67.144  1.00  0.00     0.032 C 
BRANCH   5   6
ATOM      6  C   UNL     1      75.396  86.826  66.368  1.00  0.00     0.003 C 
BRANCH   6   7
ATOM      7  C   UNL     1      76.757  86.581  65.708  1.00  0.00    -0.000 C 
BRANCH   7   8
ATOM      8  C   UNL     1      76.726  86.686  64.184  1.00  0.00    -0.003 C 
ATOM      9  C   UNL     1      76.964  85.334  63.530  1.00  0.00     0.004 C 
ENDBRANCH   7   8
ENDBRANCH   6   7
ENDBRANCH   5   6
ENDBRANCH   2   5
ENDBRANCH   1   2
BRANCH   1  10
ATOM     10  C   UNL     1      77.680  84.585  68.653  1.00  0.00     0.135 C 
ATOM     11  O   UNL     1      78.677  84.453  67.943  1.00  0.00    -0.300 OA
BRANCH  10  12
ATOM     12  C   UNL     1      77.672  85.470  69.890  1.00  0.00     0.080 C 
BRANCH  12  13
ATOM     13  C   UNL     1      77.543  86.962  69.578  1.00  0.00     0.043 C 
BRANCH  13  14
ATOM     14  C   UNL     1      76.251  87.562  70.079  1.00  0.00    -0.044 A 
ATOM     15  C   UNL     1      76.108  88.948  70.153  1.00  0.00     0.054 A 
ATOM     16  C   UNL     1      75.201  86.730  70.468  1.00  0.00     0.008 A 
ATOM     17  C   UNL     1      74.914  89.501  70.615  1.00  0.00     0.160 A 
ATOM     18  C   UNL     1      74.007  87.283  70.930  1.00  0.00     0.050 A 
ATOM     19  C   UNL     1      73.863  88.669  71.004  1.00  0.00     0.157 A 
BRANCH  17  20
ATOM     20  O   UNL     1      74.785  90.855  70.684  1.00  0.00    -0.493 OA
ATOM     21  C   UNL     1      75.839  91.575  71.322  1.00  0.00     0.278 C 
ENDBRANCH  17  20
BRANCH  19  22
ATOM     22  O   UNL     1      72.693  89.197  71.457  1.00  0.00    -0.504 OA
ATOM     23  H   UNL     1      72.338  89.804  70.785  1.00  0.00     0.293 HD
ENDBRANCH  19  22
ENDBRANCH  13  14
ENDBRANCH  12  13
ENDBRANCH  10  12
ENDBRANCH   1  10
TORSDOF 12
ENDMDL
MODEL 7
REMARK VINA RESULT:    -5.482      2.609      6.679
REMARK INTER + INTRA:          -9.784
REMARK INTER:                  -8.616
REMARK INTRA:                  -1.168
REMARK UNBOUND:                -0.777
REMARK SMILES CCCCC[C@H](O)CC(=O)CCc1ccc(O)c(OC)c1
REMARK SMILES IDX 8 1 6 2 7 3 5 5 4 6 3 7 2 8 1 9 9 10 10 11 11 12 12 13 13 14
REMARK SMILES IDX 21 15 14 16 18 17 15 18 16 19 19 20 20 21 17 22
REMARK H PARENT 7 4 17 23
REMARK Flexibility Score: inf
ROOT
ATOM      1  C   UNL     1      77.552  85.325  66.664  1.00  0.00     0.107 C 
ENDROOT
BRANCH   1   2
ATOM      2  C   UNL     1      76.841  84.733  65.445  1.00  0.00     0.121 C 
BRANCH   2   3
ATOM      3  O   UNL     1      77.743  83.902  64.717  1.00  0.00    -0.393 OA
ATOM      4  H   UNL     1      77.696  84.161  63.780  1.00  0.00     0.210 HD
ENDBRANCH   2   3
BRANCH   2   5
ATOM      5  C   UNL     1      75.593  83.922  65.813  1.00  0.00     0.032 C 
BRANCH   5   6
ATOM      6  C   UNL     1      75.293  82.825  64.783  1.00  0.00     0.003 C 
BRANCH   6   7
ATOM      7  C   UNL     1      75.001  81.462  65.417  1.00  0.00    -0.000 C 
BRANCH   7   8
ATOM      8  C   UNL     1      73.722  80.807  64.899  1.00  0.00    -0.003 C 
ATOM      9  C   UNL     1      73.784  80.583  63.396  1.00  0.00     0.004 C 
ENDBRANCH   7   8
ENDBRANCH   6   7
ENDBRANCH   5   6
ENDBRANCH   2   5
ENDBRANCH   1   2
BRANCH   1  10
ATOM     10  C   UNL     1      78.058  84.267  67.631  1.00  0.00     0.135 C 
ATOM     11  O   UNL     1      78.871  83.417  67.269  1.00  0.00    -0.300 OA
BRANCH  10  12
ATOM     12  C   UNL     1      77.545  84.349  69.061  1.00  0.00     0.080 C 
BRANCH  12  13
ATOM     13  C   UNL     1      77.697  85.734  69.691  1.00  0.00     0.043 C 
BRANCH  13  14
ATOM     14  C   UNL     1      76.382  86.463  69.841  1.00  0.00    -0.044 A 
ATOM     15  C   UNL     1      75.181  85.756  69.779  1.00  0.00     0.054 A 
ATOM     16  C   UNL     1      76.370  87.844  70.043  1.00  0.00     0.008 A 
ATOM     17  C   UNL     1      73.968  86.431  69.919  1.00  0.00     0.160 A 
ATOM     18  C   UNL     1      75.157  88.518  70.183  1.00  0.00     0.050 A 
ATOM     19  C   UNL     1      73.956  87.811  70.120  1.00  0.00     0.157 A 
BRANCH  17  20
ATOM     20  O   UNL     1      72.801  85.730  69.856  1.00  0.00    -0.493 OA
ATOM     21  C   UNL     1      72.391  85.269  68.570  1.00  0.00     0.278 C 
ENDBRANCH  17  20
BRANCH  19  22
ATOM     22  O   UNL     1      72.778  88.480  70.258  1.00  0.00    -0.504 OA
ATOM     23  H   UNL     1      72.406  88.290  71.137  1.00  0.00     0.293 HD
ENDBRANCH  19  22
ENDBRANCH  13  14
ENDBRANCH  12  13
ENDBRANCH  10  12
ENDBRANCH   1  10
TORSDOF 12
ENDMDL
MODEL 8
REMARK VINA RESULT:    -5.400     24.771     26.930
REMARK INTER + INTRA:          -9.650
REMARK INTER:                  -8.624
REMARK INTRA:                  -1.025
REMARK UNBOUND:                -0.777
REMARK SMILES CCCCC[C@H](O)CC(=O)CCc1ccc(O)c(OC)c1
REMARK SMILES IDX 8 1 6 2 7 3 5 5 4 6 3 7 2 8 1 9 9 10 10 11 11 12 12 13 13 14
REMARK SMILES IDX 21 15 14 16 18 17 15 18 16 19 19 20 20 21 17 22
REMARK H PARENT 7 4 17 23
REMARK Flexibility Score: inf
ROOT
ATOM      1  C   UNL     1      98.911  83.184  79.581  1.00  0.00     0.107 C 
ENDROOT
BRANCH   1   2
ATOM      2  C   UNL     1      99.206  81.694  79.768  1.00  0.00     0.121 C 
BRANCH   2   3
ATOM      3  O   UNL     1     100.431  81.358  79.121  1.00  0.00    -0.393 OA
ATOM      4  H   UNL     1     100.617  82.048  78.460  1.00  0.00     0.210 HD
ENDBRANCH   2   3
BRANCH   2   5
ATOM      5  C   UNL     1      99.284  81.278  81.242  1.00  0.00     0.032 C 
BRANCH   5   6
ATOM      6  C   UNL     1      99.239  82.487  82.185  1.00  0.00     0.003 C 
BRANCH   6   7
ATOM      7  C   UNL     1      98.161  82.371  83.268  1.00  0.00    -0.000 C 
BRANCH   7   8
ATOM      8  C   UNL     1      97.417  83.679  83.533  1.00  0.00    -0.003 C 
ATOM      9  C   UNL     1      97.636  84.162  84.959  1.00  0.00     0.004 C 
ENDBRANCH   7   8
ENDBRANCH   6   7
ENDBRANCH   5   6
ENDBRANCH   2   5
ENDBRANCH   1   2
BRANCH   1  10
ATOM     10  C   UNL     1      97.539  83.450  78.984  1.00  0.00     0.135 C 
ATOM     11  O   UNL     1      96.586  83.758  79.700  1.00  0.00    -0.300 OA
BRANCH  10  12
ATOM     12  C   UNL     1      97.424  83.359  77.470  1.00  0.00     0.080 C 
BRANCH  12  13
ATOM     13  C   UNL     1      98.158  84.478  76.730  1.00  0.00     0.043 C 
BRANCH  13  14
ATOM     14  C   UNL     1      99.346  83.985  75.938  1.00  0.00    -0.044 A 
ATOM     15  C   UNL     1     100.165  84.895  75.269  1.00  0.00     0.054 A 
ATOM     16  C   UNL     1      99.624  82.620  75.877  1.00  0.00     0.008 A 
ATOM     17  C   UNL     1     101.262  84.438  74.539  1.00  0.00     0.160 A 
ATOM     18  C   UNL     1     100.722  82.163  75.147  1.00  0.00     0.050 A 
ATOM     19  C   UNL     1     101.540  83.073  74.478  1.00  0.00     0.157 A 
BRANCH  17  20
ATOM     20  O   UNL     1     102.054  85.336  73.889  1.00  0.00    -0.493 OA
ATOM     21  C   UNL     1     101.419  86.198  72.946  1.00  0.00     0.278 C 
ENDBRANCH  17  20
BRANCH  19  22
ATOM     22  O   UNL     1     102.609  82.615  73.768  1.00  0.00    -0.504 OA
ATOM     23  H   UNL     1     102.598  81.642  73.770  1.00  0.00     0.293 HD
ENDBRANCH  19  22
ENDBRANCH  13  14
ENDBRANCH  12  13
ENDBRANCH  10  12
ENDBRANCH   1  10
TORSDOF 12
ENDMDL
MODEL 9
REMARK VINA RESULT:    -5.400     21.471     24.942
REMARK INTER + INTRA:          -9.649
REMARK INTER:                  -8.851
REMARK INTRA:                  -0.798
REMARK UNBOUND:                -0.777
REMARK SMILES CCCCC[C@H](O)CC(=O)CCc1ccc(O)c(OC)c1
REMARK SMILES IDX 8 1 6 2 7 3 5 5 4 6 3 7 2 8 1 9 9 10 10 11 11 12 12 13 13 14
REMARK SMILES IDX 21 15 14 16 18 17 15 18 16 19 19 20 20 21 17 22
REMARK H PARENT 7 4 17 23
REMARK Flexibility Score: inf
ROOT
ATOM      1  C   UNL     1      92.902 100.217  74.787  1.00  0.00     0.107 C 
ENDROOT
BRANCH   1   2
ATOM      2  C   UNL     1      92.563 100.802  73.414  1.00  0.00     0.121 C 
BRANCH   2   3
ATOM      3  O   UNL     1      93.764 101.113  72.710  1.00  0.00    -0.393 OA
ATOM      4  H   UNL     1      94.095 100.290  72.310  1.00  0.00     0.210 HD
ENDBRANCH   2   3
BRANCH   2   5
ATOM      5  C   UNL     1      91.704  99.864  72.557  1.00  0.00     0.032 C 
BRANCH   5   6
ATOM      6  C   UNL     1      91.087 100.586  71.353  1.00  0.00     0.003 C 
BRANCH   6   7
ATOM      7  C   UNL     1      90.308  99.652  70.420  1.00  0.00    -0.000 C 
BRANCH   7   8
ATOM      8  C   UNL     1      89.395  98.674  71.156  1.00  0.00    -0.003 C 
ATOM      9  C   UNL     1      89.547  97.260  70.617  1.00  0.00     0.004 C 
ENDBRANCH   7   8
ENDBRANCH   6   7
ENDBRANCH   5   6
ENDBRANCH   2   5
ENDBRANCH   1   2
BRANCH   1  10
ATOM     10  C   UNL     1      93.713  98.934  74.704  1.00  0.00     0.135 C 
ATOM     11  O   UNL     1      94.775  98.896  74.084  1.00  0.00    -0.300 OA
BRANCH  10  12
ATOM     12  C   UNL     1      93.166  97.732  75.459  1.00  0.00     0.080 C 
BRANCH  12  13
ATOM     13  C   UNL     1      94.178  96.597  75.622  1.00  0.00     0.043 C 
BRANCH  13  14
ATOM     14  C   UNL     1      93.954  95.780  76.873  1.00  0.00    -0.044 A 
ATOM     15  C   UNL     1      94.879  95.833  77.916  1.00  0.00     0.054 A 
ATOM     16  C   UNL     1      92.821  94.973  76.985  1.00  0.00     0.008 A 
ATOM     17  C   UNL     1      94.670  95.079  79.071  1.00  0.00     0.160 A 
ATOM     18  C   UNL     1      92.613  94.219  78.140  1.00  0.00     0.050 A 
ATOM     19  C   UNL     1      93.538  94.272  79.182  1.00  0.00     0.157 A 
BRANCH  17  20
ATOM     20  O   UNL     1      95.581  95.138  80.082  1.00  0.00    -0.493 OA
ATOM     21  C   UNL     1      96.777  95.875  79.836  1.00  0.00     0.278 C 
ENDBRANCH  17  20
BRANCH  19  22
ATOM     22  O   UNL     1      93.324  93.531  80.305  1.00  0.00    -0.504 OA
ATOM     23  H   UNL     1      94.160  93.448  80.794  1.00  0.00     0.293 HD
ENDBRANCH  19  22
ENDBRANCH  13  14
ENDBRANCH  12  13
ENDBRANCH  10  12
ENDBRANCH   1  10
TORSDOF 12
ENDMDL
MODEL 10
REMARK VINA RESULT:    -5.360      2.663      7.147
REMARK INTER + INTRA:          -9.583
REMARK INTER:                  -8.202
REMARK INTRA:                  -1.381
REMARK UNBOUND:                -0.777
REMARK SMILES CCCCC[C@H](O)CC(=O)CCc1ccc(O)c(OC)c1
REMARK SMILES IDX 8 1 6 2 7 3 5 5 4 6 3 7 2 8 1 9 9 10 10 11 11 12 12 13 13 14
REMARK SMILES IDX 21 15 14 16 18 17 15 18 16 19 19 20 20 21 17 22
REMARK H PARENT 7 4 17 23
REMARK Flexibility Score: inf
ROOT
ATOM      1  C   UNL     1      77.690  85.930  66.610  1.00  0.00     0.107 C 
ENDROOT
BRANCH   1   2
ATOM      2  C   UNL     1      76.686  85.415  65.576  1.00  0.00     0.121 C 
BRANCH   2   3
ATOM      3  O   UNL     1      77.318  84.468  64.718  1.00  0.00    -0.393 OA
ATOM      4  H   UNL     1      77.362  83.619  65.193  1.00  0.00     0.210 HD
ENDBRANCH   2   3
BRANCH   2   5
ATOM      5  C   UNL     1      75.447  84.773  66.211  1.00  0.00     0.032 C 
BRANCH   5   6
ATOM      6  C   UNL     1      74.977  83.536  65.436  1.00  0.00     0.003 C 
BRANCH   6   7
ATOM      7  C   UNL     1      74.985  82.255  66.277  1.00  0.00    -0.000 C 
BRANCH   7   8
ATOM      8  C   UNL     1      74.709  80.989  65.467  1.00  0.00    -0.003 C 
ATOM      9  C   UNL     1      73.253  80.916  65.033  1.00  0.00     0.004 C 
ENDBRANCH   7   8
ENDBRANCH   6   7
ENDBRANCH   5   6
ENDBRANCH   2   5
ENDBRANCH   1   2
BRANCH   1  10
ATOM     10  C   UNL     1      78.145  84.855  67.585  1.00  0.00     0.135 C 
ATOM     11  O   UNL     1      78.738  83.852  67.189  1.00  0.00    -0.300 OA
BRANCH  10  12
ATOM     12  C   UNL     1      77.871  85.111  69.059  1.00  0.00     0.080 C 
BRANCH  12  13
ATOM     13  C   UNL     1      77.740  86.594  69.411  1.00  0.00     0.043 C 
BRANCH  13  14
ATOM     14  C   UNL     1      76.340  86.984  69.821  1.00  0.00    -0.044 A 
ATOM     15  C   UNL     1      76.095  88.252  70.350  1.00  0.00     0.054 A 
ATOM     16  C   UNL     1      75.291  86.076  69.670  1.00  0.00     0.008 A 
ATOM     17  C   UNL     1      74.801  88.611  70.727  1.00  0.00     0.160 A 
ATOM     18  C   UNL     1      73.997  86.436  70.047  1.00  0.00     0.050 A 
ATOM     19  C   UNL     1      73.752  87.703  70.576  1.00  0.00     0.157 A 
BRANCH  17  20
ATOM     20  O   UNL     1      74.574  89.851  71.243  1.00  0.00    -0.493 OA
ATOM     21  C   UNL     1      75.301  90.935  70.668  1.00  0.00     0.278 C 
ENDBRANCH  17  20
BRANCH  19  22
ATOM     22  O   UNL     1      72.485  88.043  70.941  1.00  0.00    -0.504 OA
ATOM     23  H   UNL     1      71.948  88.170  70.140  1.00  0.00     0.293 HD
ENDBRANCH  19  22
ENDBRANCH  13  14
ENDBRANCH  12  13
ENDBRANCH  10  12
ENDBRANCH   1  10
TORSDOF 12
ENDMDL
