MODEL 1
REMARK VINA RESULT:    -5.592      0.000      0.000
REMARK INTER + INTRA:         -10.065
REMARK INTER:                  -9.024
REMARK INTRA:                  -1.041
REMARK UNBOUND:                -1.041
REMARK SMILES CCCCCCCCC(=O)NCc1ccc(O)c(OC)c1
REMARK SMILES IDX 7 1 6 2 5 3 4 4 3 5 2 6 1 7 8 8 9 9 10 10 11 11 12 13 13 14
REMARK SMILES IDX 21 15 14 16 18 17 15 18 16 19 19 20 20 21 17 22
REMARK H PARENT 11 12 17 23
REMARK Flexibility Score: inf
ROOT
ATOM      1  C   UNL     1      96.053  93.313  78.103  1.00  0.00     0.010 C 
ENDROOT
BRANCH   1   2
ATOM      2  C   UNL     1      95.099  93.494  76.887  1.00  0.00     0.001 C 
BRANCH   2   3
ATOM      3  C   UNL     1      94.552  94.948  76.778  1.00  0.00     0.000 C 
BRANCH   3   4
ATOM      4  C   UNL     1      93.334  95.230  77.702  1.00  0.00    -0.000 C 
BRANCH   4   5
ATOM      5  C   UNL     1      92.161  95.926  76.954  1.00  0.00    -0.000 C 
BRANCH   5   6
ATOM      6  C   UNL     1      90.871  95.064  76.935  1.00  0.00    -0.003 C 
ATOM      7  C   UNL     1      91.064  93.679  77.592  1.00  0.00     0.004 C 
ENDBRANCH   5   6
ENDBRANCH   4   5
ENDBRANCH   3   4
ENDBRANCH   2   3
ENDBRANCH   1   2
BRANCH   1   8
ATOM      8  C   UNL     1      95.404  92.576  79.308  1.00  0.00     0.100 C 
BRANCH   8   9
ATOM      9  C   UNL     1      95.548  93.358  80.559  1.00  0.00     0.220 C 
ATOM     10  O   UNL     1      95.619  92.734  81.645  1.00  0.00    -0.275 OA
ATOM     11  N   UNL     1      95.629  94.720  80.521  1.00  0.00    -0.352 N 
ATOM     12  H   UNL     1      95.474  95.122  79.608  1.00  0.00     0.163 HD
BRANCH  11  13
ATOM     13  C   UNL     1      95.908  95.572  81.636  1.00  0.00     0.151 C 
BRANCH  13  14
ATOM     14  C   UNL     1      96.377  96.931  81.252  1.00  0.00    -0.025 A 
ATOM     15  C   UNL     1      96.175  98.027  82.125  1.00  0.00     0.056 A 
ATOM     16  C   UNL     1      97.025  97.153  80.016  1.00  0.00     0.009 A 
ATOM     17  C   UNL     1      96.631  99.321  81.781  1.00  0.00     0.160 A 
ATOM     18  C   UNL     1      97.481  98.438  79.669  1.00  0.00     0.050 A 
ATOM     19  C   UNL     1      97.280  99.523  80.543  1.00  0.00     0.157 A 
BRANCH  17  20
ATOM     20  O   UNL     1      96.397 100.389  82.609  1.00  0.00    -0.493 OA
ATOM     21  C   UNL     1      95.064 100.924  82.518  1.00  0.00     0.278 C 
ENDBRANCH  17  20
BRANCH  19  22
ATOM     22  O   UNL     1      97.700 100.764  80.186  1.00  0.00    -0.504 OA
ATOM     23  H   UNL     1      98.648 100.832  80.322  1.00  0.00     0.293 HD
ENDBRANCH  19  22
ENDBRANCH  13  14
ENDBRANCH  11  13
ENDBRANCH   8   9
ENDBRANCH   1   8
TORSDOF 11
ENDMDL
MODEL 2
REMARK VINA RESULT:    -5.345      4.419      6.599
REMARK INTER + INTRA:          -9.666
REMARK INTER:                  -8.151
REMARK INTRA:                  -1.515
REMARK UNBOUND:                -1.041
REMARK SMILES CCCCCCCCC(=O)NCc1ccc(O)c(OC)c1
REMARK SMILES IDX 7 1 6 2 5 3 4 4 3 5 2 6 1 7 8 8 9 9 10 10 11 11 12 13 13 14
REMARK SMILES IDX 21 15 14 16 18 17 15 18 16 19 19 20 20 21 17 22
REMARK H PARENT 11 12 17 23
REMARK Flexibility Score: inf
ROOT
ATOM      1  C   UNL     1      94.389  93.966  79.127  1.00  0.00     0.010 C 
ENDROOT
BRANCH   1   2
ATOM      2  C   UNL     1      95.776  93.262  79.091  1.00  0.00     0.001 C 
BRANCH   2   3
ATOM      3  C   UNL     1      96.892  94.188  78.522  1.00  0.00     0.000 C 
BRANCH   3   4
ATOM      4  C   UNL     1      96.349  95.462  77.814  1.00  0.00    -0.000 C 
BRANCH   4   5
ATOM      5  C   UNL     1      97.447  96.540  77.594  1.00  0.00    -0.000 C 
BRANCH   5   6
ATOM      6  C   UNL     1      97.151  97.452  76.373  1.00  0.00    -0.003 C 
ATOM      7  C   UNL     1      98.271  97.416  75.310  1.00  0.00     0.004 C 
ENDBRANCH   5   6
ENDBRANCH   4   5
ENDBRANCH   3   4
ENDBRANCH   2   3
ENDBRANCH   1   2
BRANCH   1   8
ATOM      8  C   UNL     1      93.261  93.171  78.412  1.00  0.00     0.100 C 
BRANCH   8   9
ATOM      9  C   UNL     1      92.706  93.933  77.268  1.00  0.00     0.220 C 
ATOM     10  O   UNL     1      91.737  93.442  76.640  1.00  0.00    -0.275 OA
ATOM     11  N   UNL     1      93.221  95.152  76.930  1.00  0.00    -0.352 N 
ATOM     12  H   UNL     1      94.051  95.411  77.444  1.00  0.00     0.163 HD
BRANCH  11  13
ATOM     13  C   UNL     1      92.687  96.041  75.945  1.00  0.00     0.151 C 
BRANCH  13  14
ATOM     14  C   UNL     1      93.657  96.414  74.881  1.00  0.00    -0.025 A 
ATOM     15  C   UNL     1      93.640  97.715  74.325  1.00  0.00     0.056 A 
ATOM     16  C   UNL     1      94.606  95.480  74.404  1.00  0.00     0.009 A 
ATOM     17  C   UNL     1      94.567  98.088  73.325  1.00  0.00     0.160 A 
ATOM     18  C   UNL     1      95.532  95.846  73.411  1.00  0.00     0.050 A 
ATOM     19  C   UNL     1      95.511  97.143  72.864  1.00  0.00     0.157 A 
BRANCH  17  20
ATOM     20  O   UNL     1      94.522  99.337  72.758  1.00  0.00    -0.493 OA
ATOM     21  C   UNL     1      95.083 100.377  73.578  1.00  0.00     0.278 C 
ENDBRANCH  17  20
BRANCH  19  22
ATOM     22  O   UNL     1      96.391  97.478  71.886  1.00  0.00    -0.504 OA
ATOM     23  H   UNL     1      97.121  96.855  71.886  1.00  0.00     0.293 HD
ENDBRANCH  19  22
ENDBRANCH  13  14
ENDBRANCH  11  13
ENDBRANCH   8   9
ENDBRANCH   1   8
TORSDOF 11
ENDMDL
MODEL 3
REMARK VINA RESULT:    -5.330     14.356     16.011
REMARK INTER + INTRA:          -9.643
REMARK INTER:                  -8.999
REMARK INTRA:                  -0.644
REMARK UNBOUND:                -1.041
REMARK SMILES CCCCCCCCC(=O)NCc1ccc(O)c(OC)c1
REMARK SMILES IDX 7 1 6 2 5 3 4 4 3 5 2 6 1 7 8 8 9 9 10 10 11 11 12 13 13 14
REMARK SMILES IDX 21 15 14 16 18 17 15 18 16 19 19 20 20 21 17 22
REMARK H PARENT 11 12 17 23
REMARK Flexibility Score: inf
ROOT
ATOM      1  C   UNL     1      95.904  80.532  83.232  1.00  0.00     0.010 C 
ENDROOT
BRANCH   1   2
ATOM      2  C   UNL     1      96.258  80.704  84.737  1.00  0.00     0.001 C 
BRANCH   2   3
ATOM      3  C   UNL     1      95.126  81.421  85.530  1.00  0.00     0.000 C 
BRANCH   3   4
ATOM      4  C   UNL     1      93.838  81.670  84.696  1.00  0.00    -0.000 C 
BRANCH   4   5
ATOM      5  C   UNL     1      92.540  81.554  85.546  1.00  0.00    -0.000 C 
BRANCH   5   6
ATOM      6  C   UNL     1      91.463  80.664  84.870  1.00  0.00    -0.003 C 
ATOM      7  C   UNL     1      91.748  79.154  85.026  1.00  0.00     0.004 C 
ENDBRANCH   5   6
ENDBRANCH   4   5
ENDBRANCH   3   4
ENDBRANCH   2   3
ENDBRANCH   1   2
BRANCH   1   8
ATOM      8  C   UNL     1      96.526  81.619  82.311  1.00  0.00     0.100 C 
BRANCH   8   9
ATOM      9  C   UNL     1      97.221  81.010  81.151  1.00  0.00     0.220 C 
ATOM     10  O   UNL     1      97.204  79.762  81.035  1.00  0.00    -0.275 OA
ATOM     11  N   UNL     1      97.837  81.797  80.221  1.00  0.00    -0.352 N 
ATOM     12  H   UNL     1      97.865  82.779  80.456  1.00  0.00     0.163 HD
BRANCH  11  13
ATOM     13  C   UNL     1      98.416  81.343  78.993  1.00  0.00     0.151 C 
BRANCH  13  14
ATOM     14  C   UNL     1      97.729  81.859  77.778  1.00  0.00    -0.025 A 
ATOM     15  C   UNL     1      98.348  81.749  76.510  1.00  0.00     0.056 A 
ATOM     16  C   UNL     1      96.456  82.468  77.866  1.00  0.00     0.009 A 
ATOM     17  C   UNL     1      97.701  82.218  75.344  1.00  0.00     0.160 A 
ATOM     18  C   UNL     1      95.807  82.936  76.710  1.00  0.00     0.050 A 
ATOM     19  C   UNL     1      96.427  82.821  75.451  1.00  0.00     0.157 A 
BRANCH  17  20
ATOM     20  O   UNL     1      98.320  82.149  74.122  1.00  0.00    -0.493 OA
ATOM     21  C   UNL     1      99.219  83.240  73.854  1.00  0.00     0.278 C 
ENDBRANCH  17  20
BRANCH  19  22
ATOM     22  O   UNL     1      95.803  83.301  74.344  1.00  0.00    -0.504 OA
ATOM     23  H   UNL     1      96.458  83.642  73.731  1.00  0.00     0.293 HD
ENDBRANCH  19  22
ENDBRANCH  13  14
ENDBRANCH  11  13
ENDBRANCH   8   9
ENDBRANCH   1   8
TORSDOF 11
ENDMDL
MODEL 4
REMARK VINA RESULT:    -5.318     12.714     13.873
REMARK INTER + INTRA:          -9.624
REMARK INTER:                  -9.142
REMARK INTRA:                  -0.481
REMARK UNBOUND:                -1.041
REMARK SMILES CCCCCCCCC(=O)NCc1ccc(O)c(OC)c1
REMARK SMILES IDX 7 1 6 2 5 3 4 4 3 5 2 6 1 7 8 8 9 9 10 10 11 11 12 13 13 14
REMARK SMILES IDX 21 15 14 16 18 17 15 18 16 19 19 20 20 21 17 22
REMARK H PARENT 11 12 17 23
REMARK Flexibility Score: inf
ROOT
ATOM      1  C   UNL     1      96.797  81.845  81.490  1.00  0.00     0.010 C 
ENDROOT
BRANCH   1   2
ATOM      2  C   UNL     1      96.666  82.398  80.041  1.00  0.00     0.001 C 
BRANCH   2   3
ATOM      3  C   UNL     1      97.453  81.537  79.009  1.00  0.00     0.000 C 
BRANCH   3   4
ATOM      4  C   UNL     1      97.368  82.072  77.552  1.00  0.00    -0.000 C 
BRANCH   4   5
ATOM      5  C   UNL     1      95.930  82.512  77.157  1.00  0.00    -0.000 C 
BRANCH   5   6
ATOM      6  C   UNL     1      95.921  83.575  76.025  1.00  0.00    -0.003 C 
ATOM      7  C   UNL     1      96.543  83.055  74.710  1.00  0.00     0.004 C 
ENDBRANCH   5   6
ENDBRANCH   4   5
ENDBRANCH   3   4
ENDBRANCH   2   3
ENDBRANCH   1   2
BRANCH   1   8
ATOM      8  C   UNL     1      96.717  82.940  82.590  1.00  0.00     0.100 C 
BRANCH   8   9
ATOM      9  C   UNL     1      95.665  82.627  83.588  1.00  0.00     0.220 C 
ATOM     10  O   UNL     1      95.234  81.451  83.649  1.00  0.00    -0.275 OA
ATOM     11  N   UNL     1      95.203  83.593  84.435  1.00  0.00    -0.352 N 
ATOM     12  H   UNL     1      95.553  84.520  84.243  1.00  0.00     0.163 HD
BRANCH  11  13
ATOM     13  C   UNL     1      94.300  83.385  85.526  1.00  0.00     0.151 C 
BRANCH  13  14
ATOM     14  C   UNL     1      94.432  84.390  86.615  1.00  0.00    -0.025 A 
ATOM     15  C   UNL     1      93.464  84.453  87.646  1.00  0.00     0.056 A 
ATOM     16  C   UNL     1      95.515  85.299  86.638  1.00  0.00     0.009 A 
ATOM     17  C   UNL     1      93.585  85.392  88.697  1.00  0.00     0.160 A 
ATOM     18  C   UNL     1      95.641  86.234  87.681  1.00  0.00     0.050 A 
ATOM     19  C   UNL     1      94.677  86.289  88.706  1.00  0.00     0.157 A 
BRANCH  17  20
ATOM     20  O   UNL     1      92.625  85.479  89.673  1.00  0.00    -0.493 OA
ATOM     21  C   UNL     1      91.477  84.642  89.446  1.00  0.00     0.278 C 
ENDBRANCH  17  20
BRANCH  19  22
ATOM     22  O   UNL     1      94.793  87.214  89.693  1.00  0.00    -0.504 OA
ATOM     23  H   UNL     1      95.012  88.066  89.309  1.00  0.00     0.293 HD
ENDBRANCH  19  22
ENDBRANCH  13  14
ENDBRANCH  11  13
ENDBRANCH   8   9
ENDBRANCH   1   8
TORSDOF 11
ENDMDL
MODEL 5
REMARK VINA RESULT:    -5.017     24.872     28.154
REMARK INTER + INTRA:          -9.137
REMARK INTER:                  -7.178
REMARK INTRA:                  -1.959
REMARK UNBOUND:                -1.041
REMARK SMILES CCCCCCCCC(=O)NCc1ccc(O)c(OC)c1
REMARK SMILES IDX 7 1 6 2 5 3 4 4 3 5 2 6 1 7 8 8 9 9 10 10 11 11 12 13 13 14
REMARK SMILES IDX 21 15 14 16 18 17 15 18 16 19 19 20 20 21 17 22
REMARK H PARENT 11 12 17 23
REMARK Flexibility Score: inf
ROOT
ATOM      1  C   UNL     1      70.867  82.318  65.474  1.00  0.00     0.010 C 
ENDROOT
BRANCH   1   2
ATOM      2  C   UNL     1      71.843  81.181  65.056  1.00  0.00     0.001 C 
BRANCH   2   3
ATOM      3  C   UNL     1      72.462  81.424  63.648  1.00  0.00     0.000 C 
BRANCH   3   4
ATOM      4  C   UNL     1      74.007  81.600  63.665  1.00  0.00    -0.000 C 
BRANCH   4   5
ATOM      5  C   UNL     1      74.600  81.556  65.102  1.00  0.00    -0.000 C 
BRANCH   5   6
ATOM      6  C   UNL     1      75.274  82.894  65.510  1.00  0.00    -0.003 C 
ATOM      7  C   UNL     1      75.186  83.971  64.406  1.00  0.00     0.004 C 
ENDBRANCH   5   6
ENDBRANCH   4   5
ENDBRANCH   3   4
ENDBRANCH   2   3
ENDBRANCH   1   2
BRANCH   1   8
ATOM      8  C   UNL     1      70.941  83.576  64.564  1.00  0.00     0.100 C 
BRANCH   8   9
ATOM      9  C   UNL     1      71.566  84.719  65.273  1.00  0.00     0.220 C 
ATOM     10  O   UNL     1      71.773  85.776  64.631  1.00  0.00    -0.275 OA
ATOM     11  N   UNL     1      71.880  84.625  66.599  1.00  0.00    -0.352 N 
ATOM     12  H   UNL     1      71.752  83.705  66.994  1.00  0.00     0.163 HD
BRANCH  11  13
ATOM     13  C   UNL     1      72.353  85.694  67.424  1.00  0.00     0.151 C 
BRANCH  13  14
ATOM     14  C   UNL     1      73.832  85.726  67.577  1.00  0.00    -0.025 A 
ATOM     15  C   UNL     1      74.608  86.632  66.815  1.00  0.00     0.056 A 
ATOM     16  C   UNL     1      74.488  84.857  68.479  1.00  0.00     0.009 A 
ATOM     17  C   UNL     1      76.013  86.686  66.963  1.00  0.00     0.160 A 
ATOM     18  C   UNL     1      75.885  84.906  68.631  1.00  0.00     0.050 A 
ATOM     19  C   UNL     1      76.650  85.812  67.872  1.00  0.00     0.157 A 
BRANCH  17  20
ATOM     20  O   UNL     1      76.767  87.535  66.192  1.00  0.00    -0.493 OA
ATOM     21  C   UNL     1      76.047  88.137  65.103  1.00  0.00     0.278 C 
ENDBRANCH  17  20
BRANCH  19  22
ATOM     22  O   UNL     1      78.001  85.833  68.006  1.00  0.00    -0.504 OA
ATOM     23  H   UNL     1      78.383  86.377  67.313  1.00  0.00     0.293 HD
ENDBRANCH  19  22
ENDBRANCH  13  14
ENDBRANCH  11  13
ENDBRANCH   8   9
ENDBRANCH   1   8
TORSDOF 11
ENDMDL
MODEL 6
REMARK VINA RESULT:    -5.013     14.252     16.446
REMARK INTER + INTRA:          -9.131
REMARK INTER:                  -8.543
REMARK INTRA:                  -0.588
REMARK UNBOUND:                -1.041
REMARK SMILES CCCCCCCCC(=O)NCc1ccc(O)c(OC)c1
REMARK SMILES IDX 7 1 6 2 5 3 4 4 3 5 2 6 1 7 8 8 9 9 10 10 11 11 12 13 13 14
REMARK SMILES IDX 21 15 14 16 18 17 15 18 16 19 19 20 20 21 17 22
REMARK H PARENT 11 12 17 23
REMARK Flexibility Score: inf
ROOT
ATOM      1  C   UNL     1      96.831  80.129  82.436  1.00  0.00     0.010 C 
ENDROOT
BRANCH   1   2
ATOM      2  C   UNL     1      97.196  79.692  80.988  1.00  0.00     0.001 C 
BRANCH   2   3
ATOM      3  C   UNL     1      97.405  80.909  80.040  1.00  0.00     0.000 C 
BRANCH   3   4
ATOM      4  C   UNL     1      97.909  80.520  78.622  1.00  0.00    -0.000 C 
BRANCH   4   5
ATOM      5  C   UNL     1      96.951  80.996  77.493  1.00  0.00    -0.000 C 
BRANCH   5   6
ATOM      6  C   UNL     1      96.317  82.380  77.793  1.00  0.00    -0.003 C 
ATOM      7  C   UNL     1      95.826  83.105  76.521  1.00  0.00     0.004 C 
ENDBRANCH   5   6
ENDBRANCH   4   5
ENDBRANCH   3   4
ENDBRANCH   2   3
ENDBRANCH   1   2
BRANCH   1   8
ATOM      8  C   UNL     1      96.267  81.574  82.534  1.00  0.00     0.100 C 
BRANCH   8   9
ATOM      9  C   UNL     1      95.825  81.889  83.914  1.00  0.00     0.220 C 
ATOM     10  O   UNL     1      96.701  82.041  84.799  1.00  0.00    -0.275 OA
ATOM     11  N   UNL     1      94.498  82.038  84.201  1.00  0.00    -0.352 N 
ATOM     12  H   UNL     1      93.878  81.810  83.438  1.00  0.00     0.163 HD
BRANCH  11  13
ATOM     13  C   UNL     1      93.958  82.477  85.451  1.00  0.00     0.151 C 
BRANCH  13  14
ATOM     14  C   UNL     1      92.524  82.132  85.640  1.00  0.00    -0.025 A 
ATOM     15  C   UNL     1      91.869  81.279  84.720  1.00  0.00     0.056 A 
ATOM     16  C   UNL     1      91.790  82.648  86.733  1.00  0.00     0.009 A 
ATOM     17  C   UNL     1      90.511  80.927  84.897  1.00  0.00     0.160 A 
ATOM     18  C   UNL     1      90.439  82.301  86.915  1.00  0.00     0.050 A 
ATOM     19  C   UNL     1      89.795  81.450  85.997  1.00  0.00     0.157 A 
BRANCH  17  20
ATOM     20  O   UNL     1      89.867  80.134  83.981  1.00  0.00    -0.493 OA
ATOM     21  C   UNL     1      90.153  78.731  84.112  1.00  0.00     0.278 C 
ENDBRANCH  17  20
BRANCH  19  22
ATOM     22  O   UNL     1      88.483  81.143  86.166  1.00  0.00    -0.504 OA
ATOM     23  H   UNL     1      88.386  80.562  86.925  1.00  0.00     0.293 HD
ENDBRANCH  19  22
ENDBRANCH  13  14
ENDBRANCH  11  13
ENDBRANCH   8   9
ENDBRANCH   1   8
TORSDOF 11
ENDMDL
MODEL 7
REMARK VINA RESULT:    -4.903      3.948      6.690
REMARK INTER + INTRA:          -8.953
REMARK INTER:                  -8.160
REMARK INTRA:                  -0.792
REMARK UNBOUND:                -1.041
REMARK SMILES CCCCCCCCC(=O)NCc1ccc(O)c(OC)c1
REMARK SMILES IDX 7 1 6 2 5 3 4 4 3 5 2 6 1 7 8 8 9 9 10 10 11 11 12 13 13 14
REMARK SMILES IDX 21 15 14 16 18 17 15 18 16 19 19 20 20 21 17 22
REMARK H PARENT 11 12 17 23
REMARK Flexibility Score: inf
ROOT
ATOM      1  C   UNL     1      95.592  93.323  78.397  1.00  0.00     0.010 C 
ENDROOT
BRANCH   1   2
ATOM      2  C   UNL     1      96.585  94.144  79.268  1.00  0.00     0.001 C 
BRANCH   2   3
ATOM      3  C   UNL     1      95.853  95.115  80.240  1.00  0.00     0.000 C 
BRANCH   3   4
ATOM      4  C   UNL     1      96.788  95.769  81.296  1.00  0.00    -0.000 C 
BRANCH   4   5
ATOM      5  C   UNL     1      97.727  96.845  80.682  1.00  0.00    -0.000 C 
BRANCH   5   6
ATOM      6  C   UNL     1      97.131  98.276  80.770  1.00  0.00    -0.003 C 
ATOM      7  C   UNL     1      96.229  98.475  82.008  1.00  0.00     0.004 C 
ENDBRANCH   5   6
ENDBRANCH   4   5
ENDBRANCH   3   4
ENDBRANCH   2   3
ENDBRANCH   1   2
BRANCH   1   8
ATOM      8  C   UNL     1      94.118  93.395  78.885  1.00  0.00     0.100 C 
BRANCH   8   9
ATOM      9  C   UNL     1      93.250  94.063  77.885  1.00  0.00     0.220 C 
ATOM     10  O   UNL     1      92.022  93.807  77.898  1.00  0.00    -0.275 OA
ATOM     11  N   UNL     1      93.776  94.954  76.995  1.00  0.00    -0.352 N 
ATOM     12  H   UNL     1      94.783  95.020  77.015  1.00  0.00     0.163 HD
BRANCH  11  13
ATOM     13  C   UNL     1      93.028  95.763  76.082  1.00  0.00     0.151 C 
BRANCH  13  14
ATOM     14  C   UNL     1      93.828  96.273  74.936  1.00  0.00    -0.025 A 
ATOM     15  C   UNL     1      93.590  97.571  74.423  1.00  0.00     0.056 A 
ATOM     16  C   UNL     1      94.831  95.476  74.338  1.00  0.00     0.009 A 
ATOM     17  C   UNL     1      94.355  98.076  73.346  1.00  0.00     0.160 A 
ATOM     18  C   UNL     1      95.595  95.973  73.267  1.00  0.00     0.050 A 
ATOM     19  C   UNL     1      95.356  97.266  72.764  1.00  0.00     0.157 A 
BRANCH  17  20
ATOM     20  O   UNL     1      94.095  99.317  72.823  1.00  0.00    -0.493 OA
ATOM     21  C   UNL     1      94.341 100.403  73.734  1.00  0.00     0.278 C 
ENDBRANCH  17  20
BRANCH  19  22
ATOM     22  O   UNL     1      96.080  97.726  71.712  1.00  0.00    -0.504 OA
ATOM     23  H   UNL     1      96.237  98.667  71.818  1.00  0.00     0.293 HD
ENDBRANCH  19  22
ENDBRANCH  13  14
ENDBRANCH  11  13
ENDBRANCH   8   9
ENDBRANCH   1   8
TORSDOF 11
ENDMDL
MODEL 8
REMARK VINA RESULT:    -4.885      1.878      2.246
REMARK INTER + INTRA:          -8.925
REMARK INTER:                  -7.908
REMARK INTRA:                  -1.017
REMARK UNBOUND:                -1.041
REMARK SMILES CCCCCCCCC(=O)NCc1ccc(O)c(OC)c1
REMARK SMILES IDX 7 1 6 2 5 3 4 4 3 5 2 6 1 7 8 8 9 9 10 10 11 11 12 13 13 14
REMARK SMILES IDX 21 15 14 16 18 17 15 18 16 19 19 20 20 21 17 22
REMARK H PARENT 11 12 17 23
REMARK Flexibility Score: inf
ROOT
ATOM      1  C   UNL     1      95.722  94.836  78.027  1.00  0.00     0.010 C 
ENDROOT
BRANCH   1   2
ATOM      2  C   UNL     1      94.684  93.804  77.499  1.00  0.00     0.001 C 
BRANCH   2   3
ATOM      3  C   UNL     1      93.760  93.266  78.632  1.00  0.00     0.000 C 
BRANCH   3   4
ATOM      4  C   UNL     1      92.248  93.285  78.270  1.00  0.00    -0.000 C 
BRANCH   4   5
ATOM      5  C   UNL     1      91.995  93.598  76.768  1.00  0.00    -0.000 C 
BRANCH   5   6
ATOM      6  C   UNL     1      91.135  94.874  76.561  1.00  0.00    -0.003 C 
ATOM      7  C   UNL     1      91.804  96.146  77.127  1.00  0.00     0.004 C 
ENDBRANCH   5   6
ENDBRANCH   4   5
ENDBRANCH   3   4
ENDBRANCH   2   3
ENDBRANCH   1   2
BRANCH   1   8
ATOM      8  C   UNL     1      96.888  94.200  78.835  1.00  0.00     0.100 C 
BRANCH   8   9
ATOM      9  C   UNL     1      96.809  94.559  80.271  1.00  0.00     0.220 C 
ATOM     10  O   UNL     1      97.649  94.059  81.057  1.00  0.00    -0.275 OA
ATOM     11  N   UNL     1      95.861  95.436  80.716  1.00  0.00    -0.352 N 
ATOM     12  H   UNL     1      95.185  95.709  80.018  1.00  0.00     0.163 HD
BRANCH  11  13
ATOM     13  C   UNL     1      95.771  95.967  82.041  1.00  0.00     0.151 C 
BRANCH  13  14
ATOM     14  C   UNL     1      96.563  97.209  82.247  1.00  0.00    -0.025 A 
ATOM     15  C   UNL     1      97.188  97.457  83.492  1.00  0.00     0.056 A 
ATOM     16  C   UNL     1      96.703  98.161  81.211  1.00  0.00     0.009 A 
ATOM     17  C   UNL     1      97.959  98.625  83.696  1.00  0.00     0.160 A 
ATOM     18  C   UNL     1      97.469  99.324  81.407  1.00  0.00     0.050 A 
ATOM     19  C   UNL     1      98.091  99.563  82.648  1.00  0.00     0.157 A 
BRANCH  17  20
ATOM     20  O   UNL     1      98.529  98.884  84.917  1.00  0.00    -0.493 OA
ATOM     21  C   UNL     1      97.591  99.284  85.932  1.00  0.00     0.278 C 
ENDBRANCH  17  20
BRANCH  19  22
ATOM     22  O   UNL     1      98.806 100.702  82.837  1.00  0.00    -0.504 OA
ATOM     23  H   UNL     1      99.544 100.523  83.424  1.00  0.00     0.293 HD
ENDBRANCH  19  22
ENDBRANCH  13  14
ENDBRANCH  11  13
ENDBRANCH   8   9
ENDBRANCH   1   8
TORSDOF 11
ENDMDL
MODEL 9
REMARK VINA RESULT:    -4.884      2.917      7.417
REMARK INTER + INTRA:          -8.923
REMARK INTER:                  -8.067
REMARK INTRA:                  -0.856
REMARK UNBOUND:                -1.041
REMARK SMILES CCCCCCCCC(=O)NCc1ccc(O)c(OC)c1
REMARK SMILES IDX 7 1 6 2 5 3 4 4 3 5 2 6 1 7 8 8 9 9 10 10 11 11 12 13 13 14
REMARK SMILES IDX 21 15 14 16 18 17 15 18 16 19 19 20 20 21 17 22
REMARK H PARENT 11 12 17 23
REMARK Flexibility Score: inf
ROOT
ATOM      1  C   UNL     1      97.038  98.162  81.022  1.00  0.00     0.010 C 
ENDROOT
BRANCH   1   2
ATOM      2  C   UNL     1      96.784  99.663  81.341  1.00  0.00     0.001 C 
BRANCH   2   3
ATOM      3  C   UNL     1      95.640  99.859  82.379  1.00  0.00     0.000 C 
BRANCH   3   4
ATOM      4  C   UNL     1      96.120 100.452  83.735  1.00  0.00    -0.000 C 
BRANCH   4   5
ATOM      5  C   UNL     1      96.980  99.450  84.557  1.00  0.00    -0.000 C 
BRANCH   5   6
ATOM      6  C   UNL     1      96.542  99.369  86.044  1.00  0.00    -0.003 C 
ATOM      7  C   UNL     1      95.146  99.982  86.292  1.00  0.00     0.004 C 
ENDBRANCH   5   6
ENDBRANCH   4   5
ENDBRANCH   3   4
ENDBRANCH   2   3
ENDBRANCH   1   2
BRANCH   1   8
ATOM      8  C   UNL     1      96.026  97.195  81.698  1.00  0.00     0.100 C 
BRANCH   8   9
ATOM      9  C   UNL     1      95.991  95.882  81.009  1.00  0.00     0.220 C 
ATOM     10  O   UNL     1      95.602  94.881  81.656  1.00  0.00    -0.275 OA
ATOM     11  N   UNL     1      96.347  95.779  79.695  1.00  0.00    -0.352 N 
ATOM     12  H   UNL     1      96.725  96.625  79.297  1.00  0.00     0.163 HD
BRANCH  11  13
ATOM     13  C   UNL     1      96.222  94.605  78.885  1.00  0.00     0.151 C 
BRANCH  13  14
ATOM     14  C   UNL     1      94.873  94.432  78.282  1.00  0.00    -0.025 A 
ATOM     15  C   UNL     1      94.480  95.225  77.177  1.00  0.00     0.056 A 
ATOM     16  C   UNL     1      93.963  93.481  78.798  1.00  0.00     0.009 A 
ATOM     17  C   UNL     1      93.207  95.059  76.583  1.00  0.00     0.160 A 
ATOM     18  C   UNL     1      92.697  93.311  78.211  1.00  0.00     0.050 A 
ATOM     19  C   UNL     1      92.313  94.101  77.110  1.00  0.00     0.157 A 
BRANCH  17  20
ATOM     20  O   UNL     1      92.812  95.857  75.539  1.00  0.00    -0.493 OA
ATOM     21  C   UNL     1      93.859  96.161  74.600  1.00  0.00     0.278 C 
ENDBRANCH  17  20
BRANCH  19  22
ATOM     22  O   UNL     1      91.078  93.948  76.567  1.00  0.00    -0.504 OA
ATOM     23  H   UNL     1      90.475  93.609  77.233  1.00  0.00     0.293 HD
ENDBRANCH  19  22
ENDBRANCH  13  14
ENDBRANCH  11  13
ENDBRANCH   8   9
ENDBRANCH   1   8
TORSDOF 11
ENDMDL
MODEL 10
REMARK VINA RESULT:    -4.841     13.653     16.347
REMARK INTER + INTRA:          -8.853
REMARK INTER:                  -8.073
REMARK INTRA:                  -0.780
REMARK UNBOUND:                -1.041
REMARK SMILES CCCCCCCCC(=O)NCc1ccc(O)c(OC)c1
REMARK SMILES IDX 7 1 6 2 5 3 4 4 3 5 2 6 1 7 8 8 9 9 10 10 11 11 12 13 13 14
REMARK SMILES IDX 21 15 14 16 18 17 15 18 16 19 19 20 20 21 17 22
REMARK H PARENT 11 12 17 23
REMARK Flexibility Score: inf
ROOT
ATOM      1  C   UNL     1      99.623  78.540  81.883  1.00  0.00     0.010 C 
ENDROOT
BRANCH   1   2
ATOM      2  C   UNL     1      98.151  78.039  81.844  1.00  0.00     0.001 C 
BRANCH   2   3
ATOM      3  C   UNL     1      97.224  78.857  82.791  1.00  0.00     0.000 C 
BRANCH   3   4
ATOM      4  C   UNL     1      96.343  79.905  82.053  1.00  0.00    -0.000 C 
BRANCH   4   5
ATOM      5  C   UNL     1      96.017  81.143  82.936  1.00  0.00    -0.000 C 
BRANCH   5   6
ATOM      6  C   UNL     1      96.576  82.463  82.340  1.00  0.00    -0.003 C 
ATOM      7  C   UNL     1      96.161  83.710  83.151  1.00  0.00     0.004 C 
ENDBRANCH   5   6
ENDBRANCH   4   5
ENDBRANCH   3   4
ENDBRANCH   2   3
ENDBRANCH   1   2
BRANCH   1   8
ATOM      8  C   UNL     1      99.828  79.941  81.242  1.00  0.00     0.100 C 
BRANCH   8   9
ATOM      9  C   UNL     1      99.915  79.852  79.765  1.00  0.00     0.220 C 
ATOM     10  O   UNL     1     100.897  79.254  79.262  1.00  0.00    -0.275 OA
ATOM     11  N   UNL     1      98.934  80.383  78.978  1.00  0.00    -0.352 N 
ATOM     12  H   UNL     1      98.238  80.914  79.480  1.00  0.00     0.163 HD
BRANCH  11  13
ATOM     13  C   UNL     1      98.832  80.239  77.558  1.00  0.00     0.151 C 
BRANCH  13  14
ATOM     14  C   UNL     1      97.985  81.274  76.908  1.00  0.00    -0.025 A 
ATOM     15  C   UNL     1      98.362  81.822  75.659  1.00  0.00     0.056 A 
ATOM     16  C   UNL     1      96.796  81.731  77.523  1.00  0.00     0.009 A 
ATOM     17  C   UNL     1      97.557  82.795  75.021  1.00  0.00     0.160 A 
ATOM     18  C   UNL     1      95.991  82.697  76.893  1.00  0.00     0.050 A 
ATOM     19  C   UNL     1      96.371  83.236  75.649  1.00  0.00     0.157 A 
BRANCH  17  20
ATOM     20  O   UNL     1      97.946  83.355  73.830  1.00  0.00    -0.493 OA
ATOM     21  C   UNL     1      98.893  82.565  73.089  1.00  0.00     0.278 C 
ENDBRANCH  17  20
BRANCH  19  22
ATOM     22  O   UNL     1      95.601  84.188  75.062  1.00  0.00    -0.504 OA
ATOM     23  H   UNL     1      94.687  83.895  75.046  1.00  0.00     0.293 HD
ENDBRANCH  19  22
ENDBRANCH  13  14
ENDBRANCH  11  13
ENDBRANCH   8   9
ENDBRANCH   1   8
TORSDOF 11
ENDMDL
