MODEL 1
REMARK VINA RESULT:    -6.702      0.000      0.000
REMARK INTER + INTRA:         -11.284
REMARK INTER:                 -10.425
REMARK INTRA:                  -0.859
REMARK UNBOUND:                -0.859
REMARK SMILES CCCCC/C=C/C(=O)CCc1ccc(O)c(OC)c1
REMARK SMILES IDX 6 1 7 2 8 3 9 4 10 5 11 6 12 7 17 8 20 9 15 10 14 11 13 12
REMARK SMILES IDX 18 13 19 14 16 15 5 17 4 18 3 19 2 20 1 21
REMARK H PARENT 16 16
REMARK Flexibility Score: inf
ROOT
ATOM      1  C   UNL     1      93.648  93.944  77.392  1.00  0.00    -0.023 C 
ATOM      2  C   UNL     1      92.712  94.083  76.445  1.00  0.00     0.043 C 
ENDROOT
BRANCH   2   3
ATOM      3  C   UNL     1      91.342  93.548  76.672  1.00  0.00     0.155 C 
ATOM      4  O   UNL     1      90.364  93.996  76.076  1.00  0.00    -0.295 OA
BRANCH   3   5
ATOM      5  C   UNL     1      91.207  92.457  77.715  1.00  0.00     0.085 C 
BRANCH   5   6
ATOM      6  C   UNL     1      89.911  91.666  77.527  1.00  0.00     0.044 C 
BRANCH   6   7
ATOM      7  C   UNL     1      90.123  90.352  76.813  1.00  0.00    -0.044 A 
ATOM      8  C   UNL     1      90.492  89.133  74.779  1.00  0.00     0.160 A 
ATOM      9  C   UNL     1      90.296  90.347  75.438  1.00  0.00     0.054 A 
ATOM     10  C   UNL     1      90.513  87.941  75.503  1.00  0.00     0.157 A 
ATOM     11  C   UNL     1      90.338  87.963  76.887  1.00  0.00     0.050 A 
ATOM     12  C   UNL     1      90.141  89.177  77.546  1.00  0.00     0.008 A 
BRANCH   8  13
ATOM     13  O   UNL     1      90.662  89.125  73.427  1.00  0.00    -0.493 OA
ATOM     14  C   UNL     1      89.811  89.977  72.662  1.00  0.00     0.278 C 
ENDBRANCH   8  13
BRANCH  10  15
ATOM     15  O   UNL     1      90.705  86.750  74.871  1.00  0.00    -0.504 OA
ATOM     16  H   UNL     1      91.640  86.502  74.964  1.00  0.00     0.293 HD
ENDBRANCH  10  15
ENDBRANCH   6   7
ENDBRANCH   5   6
ENDBRANCH   3   5
ENDBRANCH   2   3
BRANCH   1  17
ATOM     17  C   UNL     1      95.052  94.455  77.240  1.00  0.00     0.027 C 
BRANCH  17  18
ATOM     18  C   UNL     1      95.778  93.866  76.025  1.00  0.00     0.004 C 
BRANCH  18  19
ATOM     19  C   UNL     1      96.035  94.885  74.911  1.00  0.00     0.000 C 
BRANCH  19  20
ATOM     20  C   UNL     1      95.500  96.266  75.291  1.00  0.00    -0.003 C 
ATOM     21  C   UNL     1      95.338  97.156  74.070  1.00  0.00     0.004 C 
ENDBRANCH  19  20
ENDBRANCH  18  19
ENDBRANCH  17  18
ENDBRANCH   1  17
TORSDOF 10
ENDMDL
MODEL 2
REMARK VINA RESULT:    -6.679      2.214      3.217
REMARK INTER + INTRA:         -11.247
REMARK INTER:                 -10.145
REMARK INTRA:                  -1.102
REMARK UNBOUND:                -0.859
REMARK SMILES CCCCC/C=C/C(=O)CCc1ccc(O)c(OC)c1
REMARK SMILES IDX 6 1 7 2 8 3 9 4 10 5 11 6 12 7 17 8 20 9 15 10 14 11 13 12
REMARK SMILES IDX 18 13 19 14 16 15 5 17 4 18 3 19 2 20 1 21
REMARK H PARENT 16 16
REMARK Flexibility Score: inf
ROOT
ATOM      1  C   UNL     1      93.800  94.342  77.876  1.00  0.00    -0.023 C 
ATOM      2  C   UNL     1      93.901  94.366  76.542  1.00  0.00     0.043 C 
ENDROOT
BRANCH   2   3
ATOM      3  C   UNL     1      92.674  94.471  75.706  1.00  0.00     0.155 C 
ATOM      4  O   UNL     1      92.695  94.269  74.494  1.00  0.00    -0.295 OA
BRANCH   3   5
ATOM      5  C   UNL     1      91.404  94.891  76.421  1.00  0.00     0.085 C 
BRANCH   5   6
ATOM      6  C   UNL     1      90.199  94.086  75.931  1.00  0.00     0.044 C 
BRANCH   6   7
ATOM      7  C   UNL     1      90.179  92.674  76.467  1.00  0.00    -0.044 A 
ATOM      8  C   UNL     1      90.001  90.312  76.083  1.00  0.00     0.160 A 
ATOM      9  C   UNL     1      90.019  91.615  75.587  1.00  0.00     0.054 A 
ATOM     10  C   UNL     1      90.143  90.083  77.452  1.00  0.00     0.157 A 
ATOM     11  C   UNL     1      90.303  91.160  78.325  1.00  0.00     0.050 A 
ATOM     12  C   UNL     1      90.321  92.464  77.829  1.00  0.00     0.008 A 
BRANCH   8  13
ATOM     13  O   UNL     1      89.844  89.269  75.220  1.00  0.00    -0.493 OA
ATOM     14  C   UNL     1      88.879  89.427  74.182  1.00  0.00     0.278 C 
ENDBRANCH   8  13
BRANCH  10  15
ATOM     15  O   UNL     1      90.128  88.815  77.948  1.00  0.00    -0.504 OA
ATOM     16  H   UNL     1      91.047  88.530  78.085  1.00  0.00     0.293 HD
ENDBRANCH  10  15
ENDBRANCH   6   7
ENDBRANCH   5   6
ENDBRANCH   3   5
ENDBRANCH   2   3
BRANCH   1  17
ATOM     17  C   UNL     1      94.989  94.238  78.787  1.00  0.00     0.027 C 
BRANCH  17  18
ATOM     18  C   UNL     1      96.200  95.033  78.290  1.00  0.00     0.004 C 
BRANCH  18  19
ATOM     19  C   UNL     1      96.588  96.198  79.206  1.00  0.00     0.000 C 
BRANCH  19  20
ATOM     20  C   UNL     1      96.014  96.010  80.611  1.00  0.00    -0.003 C 
ATOM     21  C   UNL     1      96.213  97.252  81.465  1.00  0.00     0.004 C 
ENDBRANCH  19  20
ENDBRANCH  18  19
ENDBRANCH  17  18
ENDBRANCH   1  17
TORSDOF 10
ENDMDL
MODEL 3
REMARK VINA RESULT:    -6.557      2.433      3.675
REMARK INTER + INTRA:         -11.057
REMARK INTER:                 -10.100
REMARK INTRA:                  -0.958
REMARK UNBOUND:                -0.859
REMARK SMILES CCCCC/C=C/C(=O)CCc1ccc(O)c(OC)c1
REMARK SMILES IDX 6 1 7 2 8 3 9 4 10 5 11 6 12 7 17 8 20 9 15 10 14 11 13 12
REMARK SMILES IDX 18 13 19 14 16 15 5 17 4 18 3 19 2 20 1 21
REMARK H PARENT 16 16
REMARK Flexibility Score: inf
ROOT
ATOM      1  C   UNL     1      91.391  93.123  77.184  1.00  0.00    -0.023 C 
ATOM      2  C   UNL     1      90.180  92.625  77.460  1.00  0.00     0.043 C 
ENDROOT
BRANCH   2   3
ATOM      3  C   UNL     1      90.053  91.257  78.033  1.00  0.00     0.155 C 
ATOM      4  O   UNL     1      90.415  90.997  79.178  1.00  0.00    -0.295 OA
BRANCH   3   5
ATOM      5  C   UNL     1      89.502  90.186  77.111  1.00  0.00     0.085 C 
BRANCH   5   6
ATOM      6  C   UNL     1      88.453  90.760  76.158  1.00  0.00     0.044 C 
BRANCH   6   7
ATOM      7  C   UNL     1      88.904  90.753  74.716  1.00  0.00    -0.044 A 
ATOM      8  C   UNL     1      90.620  91.108  73.077  1.00  0.00     0.160 A 
ATOM      9  C   UNL     1      90.205  91.116  74.409  1.00  0.00     0.054 A 
ATOM     10  C   UNL     1      89.730  90.738  72.070  1.00  0.00     0.157 A 
ATOM     11  C   UNL     1      88.422  90.375  72.395  1.00  0.00     0.050 A 
ATOM     12  C   UNL     1      88.006  90.383  73.727  1.00  0.00     0.008 A 
BRANCH   8  13
ATOM     13  O   UNL     1      91.900  91.464  72.773  1.00  0.00    -0.493 OA
ATOM     14  C   UNL     1      92.650  92.120  73.793  1.00  0.00     0.278 C 
ENDBRANCH   8  13
BRANCH  10  15
ATOM     15  O   UNL     1      90.123  90.726  70.767  1.00  0.00    -0.504 OA
ATOM     16  H   UNL     1      90.599  89.894  70.599  1.00  0.00     0.293 HD
ENDBRANCH  10  15
ENDBRANCH   6   7
ENDBRANCH   5   6
ENDBRANCH   3   5
ENDBRANCH   2   3
BRANCH   1  17
ATOM     17  C   UNL     1      91.603  94.492  76.605  1.00  0.00     0.027 C 
BRANCH  17  18
ATOM     18  C   UNL     1      93.078  94.814  76.346  1.00  0.00     0.004 C 
BRANCH  18  19
ATOM     19  C   UNL     1      94.048  93.849  77.036  1.00  0.00     0.000 C 
BRANCH  19  20
ATOM     20  C   UNL     1      95.135  94.610  77.796  1.00  0.00    -0.003 C 
ATOM     21  C   UNL     1      95.134  94.254  79.274  1.00  0.00     0.004 C 
ENDBRANCH  19  20
ENDBRANCH  18  19
ENDBRANCH  17  18
ENDBRANCH   1  17
TORSDOF 10
ENDMDL
MODEL 4
REMARK VINA RESULT:    -6.203     12.748     15.646
REMARK INTER + INTRA:         -10.507
REMARK INTER:                  -8.800
REMARK INTRA:                  -1.707
REMARK UNBOUND:                -0.859
REMARK SMILES CCCCC/C=C/C(=O)CCc1ccc(O)c(OC)c1
REMARK SMILES IDX 6 1 7 2 8 3 9 4 10 5 11 6 12 7 17 8 20 9 15 10 14 11 13 12
REMARK SMILES IDX 18 13 19 14 16 15 5 17 4 18 3 19 2 20 1 21
REMARK H PARENT 16 16
REMARK Flexibility Score: inf
ROOT
ATOM      1  C   UNL     1      83.050  90.539  87.986  1.00  0.00    -0.023 C 
ATOM      2  C   UNL     1      84.143  90.107  87.346  1.00  0.00     0.043 C 
ENDROOT
BRANCH   2   3
ATOM      3  C   UNL     1      84.618  90.815  86.126  1.00  0.00     0.155 C 
ATOM      4  O   UNL     1      85.334  91.811  86.191  1.00  0.00    -0.295 OA
BRANCH   3   5
ATOM      5  C   UNL     1      84.128  90.274  84.797  1.00  0.00     0.085 C 
BRANCH   5   6
ATOM      6  C   UNL     1      82.648  90.593  84.579  1.00  0.00     0.044 C 
BRANCH   6   7
ATOM      7  C   UNL     1      81.770  89.364  84.615  1.00  0.00    -0.044 A 
ATOM      8  C   UNL     1      81.533  86.992  84.888  1.00  0.00     0.160 A 
ATOM      9  C   UNL     1      82.345  88.126  84.855  1.00  0.00     0.054 A 
ATOM     10  C   UNL     1      80.159  87.110  84.681  1.00  0.00     0.157 A 
ATOM     11  C   UNL     1      79.596  88.364  84.440  1.00  0.00     0.050 A 
ATOM     12  C   UNL     1      80.407  89.498  84.406  1.00  0.00     0.008 A 
BRANCH   8  13
ATOM     13  O   UNL     1      82.096  85.773  85.124  1.00  0.00    -0.493 OA
ATOM     14  C   UNL     1      82.406  85.454  86.479  1.00  0.00     0.278 C 
ENDBRANCH   8  13
BRANCH  10  15
ATOM     15  O   UNL     1      79.357  86.010  84.711  1.00  0.00    -0.504 OA
ATOM     16  H   UNL     1      79.508  85.499  83.898  1.00  0.00     0.293 HD
ENDBRANCH  10  15
ENDBRANCH   6   7
ENDBRANCH   5   6
ENDBRANCH   3   5
ENDBRANCH   2   3
BRANCH   1  17
ATOM     17  C   UNL     1      82.507  89.881  89.221  1.00  0.00     0.027 C 
BRANCH  17  18
ATOM     18  C   UNL     1      81.857  88.522  88.942  1.00  0.00     0.004 C 
BRANCH  18  19
ATOM     19  C   UNL     1      80.474  88.625  88.291  1.00  0.00     0.000 C 
BRANCH  19  20
ATOM     20  C   UNL     1      79.767  87.269  88.279  1.00  0.00    -0.003 C 
ATOM     21  C   UNL     1      79.439  86.800  89.687  1.00  0.00     0.004 C 
ENDBRANCH  19  20
ENDBRANCH  18  19
ENDBRANCH  17  18
ENDBRANCH   1  17
TORSDOF 10
ENDMDL
MODEL 5
REMARK VINA RESULT:    -5.955      3.272      4.486
REMARK INTER + INTRA:         -10.122
REMARK INTER:                  -9.495
REMARK INTRA:                  -0.627
REMARK UNBOUND:                -0.859
REMARK SMILES CCCCC/C=C/C(=O)CCc1ccc(O)c(OC)c1
REMARK SMILES IDX 6 1 7 2 8 3 9 4 10 5 11 6 12 7 17 8 20 9 15 10 14 11 13 12
REMARK SMILES IDX 18 13 19 14 16 15 5 17 4 18 3 19 2 20 1 21
REMARK H PARENT 16 16
REMARK Flexibility Score: inf
ROOT
ATOM      1  C   UNL     1      95.798  94.048  79.219  1.00  0.00    -0.023 C 
ATOM      2  C   UNL     1      94.820  94.526  78.441  1.00  0.00     0.043 C 
ENDROOT
BRANCH   2   3
ATOM      3  C   UNL     1      94.975  94.513  76.961  1.00  0.00     0.155 C 
ATOM      4  O   UNL     1      96.042  94.794  76.418  1.00  0.00    -0.295 OA
BRANCH   3   5
ATOM      5  C   UNL     1      93.733  94.187  76.153  1.00  0.00     0.085 C 
BRANCH   5   6
ATOM      6  C   UNL     1      92.474  94.262  77.017  1.00  0.00     0.044 C 
BRANCH   6   7
ATOM      7  C   UNL     1      91.390  93.315  76.559  1.00  0.00    -0.044 A 
ATOM      8  C   UNL     1      90.176  92.257  74.779  1.00  0.00     0.160 A 
ATOM      9  C   UNL     1      91.177  93.133  75.202  1.00  0.00     0.054 A 
ATOM     10  C   UNL     1      89.402  91.577  75.718  1.00  0.00     0.157 A 
ATOM     11  C   UNL     1      89.628  91.771  77.081  1.00  0.00     0.050 A 
ATOM     12  C   UNL     1      90.629  92.647  77.504  1.00  0.00     0.008 A 
BRANCH   8  13
ATOM     13  O   UNL     1      89.965  92.076  73.445  1.00  0.00    -0.493 OA
ATOM     14  C   UNL     1      89.509  93.205  72.702  1.00  0.00     0.278 C 
ENDBRANCH   8  13
BRANCH  10  15
ATOM     15  O   UNL     1      88.422  90.719  75.318  1.00  0.00    -0.504 OA
ATOM     16  H   UNL     1      88.425  90.685  74.346  1.00  0.00     0.293 HD
ENDBRANCH  10  15
ENDBRANCH   6   7
ENDBRANCH   5   6
ENDBRANCH   3   5
ENDBRANCH   2   3
BRANCH   1  17
ATOM     17  C   UNL     1      95.719  94.026  80.717  1.00  0.00     0.027 C 
BRANCH  17  18
ATOM     18  C   UNL     1      96.527  95.147  81.379  1.00  0.00     0.004 C 
BRANCH  18  19
ATOM     19  C   UNL     1      95.848  96.519  81.305  1.00  0.00     0.000 C 
BRANCH  19  20
ATOM     20  C   UNL     1      96.571  97.540  82.184  1.00  0.00    -0.003 C 
ATOM     21  C   UNL     1      96.165  98.963  81.834  1.00  0.00     0.004 C 
ENDBRANCH  19  20
ENDBRANCH  18  19
ENDBRANCH  17  18
ENDBRANCH   1  17
TORSDOF 10
ENDMDL
MODEL 6
REMARK VINA RESULT:    -5.948     12.874     14.775
REMARK INTER + INTRA:         -10.110
REMARK INTER:                  -9.220
REMARK INTRA:                  -0.890
REMARK UNBOUND:                -0.859
REMARK SMILES CCCCC/C=C/C(=O)CCc1ccc(O)c(OC)c1
REMARK SMILES IDX 6 1 7 2 8 3 9 4 10 5 11 6 12 7 17 8 20 9 15 10 14 11 13 12
REMARK SMILES IDX 18 13 19 14 16 15 5 17 4 18 3 19 2 20 1 21
REMARK H PARENT 16 16
REMARK Flexibility Score: inf
ROOT
ATOM      1  C   UNL     1      83.332  92.678  87.548  1.00  0.00    -0.023 C 
ATOM      2  C   UNL     1      83.614  91.440  87.124  1.00  0.00     0.043 C 
ENDROOT
BRANCH   2   3
ATOM      3  C   UNL     1      84.376  91.245  85.861  1.00  0.00     0.155 C 
ATOM      4  O   UNL     1      85.230  92.046  85.488  1.00  0.00    -0.295 OA
BRANCH   3   5
ATOM      5  C   UNL     1      84.007  90.031  85.029  1.00  0.00     0.085 C 
BRANCH   5   6
ATOM      6  C   UNL     1      82.559  90.112  84.541  1.00  0.00     0.044 C 
BRANCH   6   7
ATOM      7  C   UNL     1      81.794  88.828  84.757  1.00  0.00    -0.044 A 
ATOM      8  C   UNL     1      81.516  86.751  85.926  1.00  0.00     0.160 A 
ATOM      9  C   UNL     1      82.224  87.936  85.727  1.00  0.00     0.054 A 
ATOM     10  C   UNL     1      80.389  86.472  85.153  1.00  0.00     0.157 A 
ATOM     11  C   UNL     1      79.970  87.380  84.179  1.00  0.00     0.050 A 
ATOM     12  C   UNL     1      80.677  88.566  83.980  1.00  0.00     0.008 A 
BRANCH   8  13
ATOM     13  O   UNL     1      81.936  85.872  86.879  1.00  0.00    -0.493 OA
ATOM     14  C   UNL     1      81.631  86.192  88.235  1.00  0.00     0.278 C 
ENDBRANCH   8  13
BRANCH  10  15
ATOM     15  O   UNL     1      79.690  85.318  85.338  1.00  0.00    -0.504 OA
ATOM     16  H   UNL     1      78.741  85.526  85.297  1.00  0.00     0.293 HD
ENDBRANCH  10  15
ENDBRANCH   6   7
ENDBRANCH   5   6
ENDBRANCH   3   5
ENDBRANCH   2   3
BRANCH   1  17
ATOM     17  C   UNL     1      82.569  92.959  88.810  1.00  0.00     0.027 C 
BRANCH  17  18
ATOM     18  C   UNL     1      82.335  94.455  89.051  1.00  0.00     0.004 C 
BRANCH  18  19
ATOM     19  C   UNL     1      83.619  95.290  89.011  1.00  0.00     0.000 C 
BRANCH  19  20
ATOM     20  C   UNL     1      83.590  96.289  87.853  1.00  0.00    -0.003 C 
ATOM     21  C   UNL     1      82.217  96.349  87.203  1.00  0.00     0.004 C 
ENDBRANCH  19  20
ENDBRANCH  18  19
ENDBRANCH  17  18
ENDBRANCH   1  17
TORSDOF 10
ENDMDL
MODEL 7
REMARK VINA RESULT:    -5.764     17.745     19.672
REMARK INTER + INTRA:          -9.825
REMARK INTER:                  -7.892
REMARK INTRA:                  -1.933
REMARK UNBOUND:                -0.859
REMARK SMILES CCCCC/C=C/C(=O)CCc1ccc(O)c(OC)c1
REMARK SMILES IDX 6 1 7 2 8 3 9 4 10 5 11 6 12 7 17 8 20 9 15 10 14 11 13 12
REMARK SMILES IDX 18 13 19 14 16 15 5 17 4 18 3 19 2 20 1 21
REMARK H PARENT 16 16
REMARK Flexibility Score: inf
ROOT
ATOM      1  C   UNL     1      75.078  88.978  67.857  1.00  0.00    -0.023 C 
ATOM      2  C   UNL     1      74.680  89.903  66.974  1.00  0.00     0.043 C 
ENDROOT
BRANCH   2   3
ATOM      3  C   UNL     1      75.639  90.422  65.961  1.00  0.00     0.155 C 
ATOM      4  O   UNL     1      75.981  91.603  65.937  1.00  0.00    -0.295 OA
BRANCH   3   5
ATOM      5  C   UNL     1      76.134  89.430  64.927  1.00  0.00     0.085 C 
BRANCH   5   6
ATOM      6  C   UNL     1      77.604  89.074  65.157  1.00  0.00     0.044 C 
BRANCH   6   7
ATOM      7  C   UNL     1      77.816  87.605  65.433  1.00  0.00    -0.044 A 
ATOM      8  C   UNL     1      77.839  85.332  64.663  1.00  0.00     0.160 A 
ATOM      9  C   UNL     1      77.642  86.689  64.408  1.00  0.00     0.054 A 
ATOM     10  C   UNL     1      78.207  84.908  65.940  1.00  0.00     0.157 A 
ATOM     11  C   UNL     1      78.378  85.842  66.962  1.00  0.00     0.050 A 
ATOM     12  C   UNL     1      78.181  87.200  66.707  1.00  0.00     0.008 A 
BRANCH   8  13
ATOM     13  O   UNL     1      77.668  84.430  63.657  1.00  0.00    -0.493 OA
ATOM     14  C   UNL     1      76.342  83.957  63.428  1.00  0.00     0.278 C 
ENDBRANCH   8  13
BRANCH  10  15
ATOM     15  O   UNL     1      78.402  83.586  66.202  1.00  0.00    -0.504 OA
ATOM     16  H   UNL     1      77.536  83.176  66.367  1.00  0.00     0.293 HD
ENDBRANCH  10  15
ENDBRANCH   6   7
ENDBRANCH   5   6
ENDBRANCH   3   5
ENDBRANCH   2   3
BRANCH   1  17
ATOM     17  C   UNL     1      74.172  88.405  68.908  1.00  0.00     0.027 C 
BRANCH  17  18
ATOM     18  C   UNL     1      73.756  86.958  68.619  1.00  0.00     0.004 C 
BRANCH  18  19
ATOM     19  C   UNL     1      74.896  86.087  68.082  1.00  0.00     0.000 C 
BRANCH  19  20
ATOM     20  C   UNL     1      74.603  85.612  66.658  1.00  0.00    -0.003 C 
ATOM     21  C   UNL     1      73.211  86.027  66.207  1.00  0.00     0.004 C 
ENDBRANCH  19  20
ENDBRANCH  18  19
ENDBRANCH  17  18
ENDBRANCH   1  17
TORSDOF 10
ENDMDL
MODEL 8
REMARK VINA RESULT:    -5.714      2.795      4.488
REMARK INTER + INTRA:          -9.747
REMARK INTER:                  -9.147
REMARK INTRA:                  -0.599
REMARK UNBOUND:                -0.859
REMARK SMILES CCCCC/C=C/C(=O)CCc1ccc(O)c(OC)c1
REMARK SMILES IDX 6 1 7 2 8 3 9 4 10 5 11 6 12 7 17 8 20 9 15 10 14 11 13 12
REMARK SMILES IDX 18 13 19 14 16 15 5 17 4 18 3 19 2 20 1 21
REMARK H PARENT 16 16
REMARK Flexibility Score: inf
ROOT
ATOM      1  C   UNL     1      94.093  96.998  74.193  1.00  0.00    -0.023 C 
ATOM      2  C   UNL     1      95.179  96.441  74.742  1.00  0.00     0.043 C 
ENDROOT
BRANCH   2   3
ATOM      3  C   UNL     1      95.056  95.167  75.500  1.00  0.00     0.155 C 
ATOM      4  O   UNL     1      95.987  94.714  76.164  1.00  0.00    -0.295 OA
BRANCH   3   5
ATOM      5  C   UNL     1      93.740  94.427  75.370  1.00  0.00     0.085 C 
BRANCH   5   6
ATOM      6  C   UNL     1      93.417  93.640  76.642  1.00  0.00     0.044 C 
BRANCH   6   7
ATOM      7  C   UNL     1      92.106  92.894  76.554  1.00  0.00    -0.044 A 
ATOM      8  C   UNL     1      90.415  91.821  75.232  1.00  0.00     0.160 A 
ATOM      9  C   UNL     1      91.625  92.511  75.312  1.00  0.00     0.054 A 
ATOM     10  C   UNL     1      89.703  91.524  76.393  1.00  0.00     0.157 A 
ATOM     11  C   UNL     1      90.200  91.917  77.636  1.00  0.00     0.050 A 
ATOM     12  C   UNL     1      91.410  92.606  77.717  1.00  0.00     0.008 A 
BRANCH   8  13
ATOM     13  O   UNL     1      89.939  91.444  74.012  1.00  0.00    -0.493 OA
ATOM     14  C   UNL     1      90.108  92.365  72.937  1.00  0.00     0.278 C 
ENDBRANCH   8  13
BRANCH  10  15
ATOM     15  O   UNL     1      88.520  90.851  76.327  1.00  0.00    -0.504 OA
ATOM     16  H   UNL     1      88.700  89.949  76.010  1.00  0.00     0.293 HD
ENDBRANCH  10  15
ENDBRANCH   6   7
ENDBRANCH   5   6
ENDBRANCH   3   5
ENDBRANCH   2   3
BRANCH   1  17
ATOM     17  C   UNL     1      94.133  98.281  73.414  1.00  0.00     0.027 C 
BRANCH  17  18
ATOM     18  C   UNL     1      93.566  98.142  71.997  1.00  0.00     0.004 C 
BRANCH  18  19
ATOM     19  C   UNL     1      94.189  99.113  70.989  1.00  0.00     0.000 C 
BRANCH  19  20
ATOM     20  C   UNL     1      93.171  99.536  69.928  1.00  0.00    -0.003 C 
ATOM     21  C   UNL     1      91.841  98.826  70.119  1.00  0.00     0.004 C 
ENDBRANCH  19  20
ENDBRANCH  18  19
ENDBRANCH  17  18
ENDBRANCH   1  17
TORSDOF 10
ENDMDL
MODEL 9
REMARK VINA RESULT:    -5.437      3.370      8.506
REMARK INTER + INTRA:          -9.316
REMARK INTER:                  -8.554
REMARK INTRA:                  -0.762
REMARK UNBOUND:                -0.859
REMARK SMILES CCCCC/C=C/C(=O)CCc1ccc(O)c(OC)c1
REMARK SMILES IDX 6 1 7 2 8 3 9 4 10 5 11 6 12 7 17 8 20 9 15 10 14 11 13 12
REMARK SMILES IDX 18 13 19 14 16 15 5 17 4 18 3 19 2 20 1 21
REMARK H PARENT 16 16
REMARK Flexibility Score: inf
ROOT
ATOM      1  C   UNL     1      92.223  93.292  77.420  1.00  0.00    -0.023 C 
ATOM      2  C   UNL     1      93.122  94.238  77.120  1.00  0.00     0.043 C 
ENDROOT
BRANCH   2   3
ATOM      3  C   UNL     1      94.496  94.163  77.688  1.00  0.00     0.155 C 
ATOM      4  O   UNL     1      94.725  94.423  78.868  1.00  0.00    -0.295 OA
BRANCH   3   5
ATOM      5  C   UNL     1      95.608  93.800  76.724  1.00  0.00     0.085 C 
BRANCH   5   6
ATOM      6  C   UNL     1      95.237  94.165  75.286  1.00  0.00     0.044 C 
BRANCH   6   7
ATOM      7  C   UNL     1      95.482  95.621  74.968  1.00  0.00    -0.044 A 
ATOM      8  C   UNL     1      96.970  97.501  74.871  1.00  0.00     0.160 A 
ATOM      9  C   UNL     1      96.745  96.156  75.165  1.00  0.00     0.054 A 
ATOM     10  C   UNL     1      95.931  98.293  74.384  1.00  0.00     0.157 A 
ATOM     11  C   UNL     1      94.665  97.740  74.190  1.00  0.00     0.050 A 
ATOM     12  C   UNL     1      94.439  96.395  74.485  1.00  0.00     0.008 A 
BRANCH   8  13
ATOM     13  O   UNL     1      98.211  98.030  75.064  1.00  0.00    -0.493 OA
ATOM     14  C   UNL     1      99.306  97.117  75.105  1.00  0.00     0.278 C 
ENDBRANCH   8  13
BRANCH  10  15
ATOM     15  O   UNL     1      96.139  99.607  74.092  1.00  0.00    -0.504 OA
ATOM     16  H   UNL     1      95.922  99.750  73.155  1.00  0.00     0.293 HD
ENDBRANCH  10  15
ENDBRANCH   6   7
ENDBRANCH   5   6
ENDBRANCH   3   5
ENDBRANCH   2   3
BRANCH   1  17
ATOM     17  C   UNL     1      90.820  93.296  76.889  1.00  0.00     0.027 C 
BRANCH  17  18
ATOM     18  C   UNL     1      89.911  92.276  77.582  1.00  0.00     0.004 C 
BRANCH  18  19
ATOM     19  C   UNL     1      89.954  90.883  76.945  1.00  0.00     0.000 C 
BRANCH  19  20
ATOM     20  C   UNL     1      88.813  90.698  75.945  1.00  0.00    -0.003 C 
ATOM     21  C   UNL     1      89.331  90.266  74.582  1.00  0.00     0.004 C 
ENDBRANCH  19  20
ENDBRANCH  18  19
ENDBRANCH  17  18
ENDBRANCH   1  17
TORSDOF 10
ENDMDL
MODEL 10
REMARK VINA RESULT:    -5.421     17.367     19.447
REMARK INTER + INTRA:          -9.291
REMARK INTER:                  -7.636
REMARK INTRA:                  -1.655
REMARK UNBOUND:                -0.859
REMARK SMILES CCCCC/C=C/C(=O)CCc1ccc(O)c(OC)c1
REMARK SMILES IDX 6 1 7 2 8 3 9 4 10 5 11 6 12 7 17 8 20 9 15 10 14 11 13 12
REMARK SMILES IDX 18 13 19 14 16 15 5 17 4 18 3 19 2 20 1 21
REMARK H PARENT 16 16
REMARK Flexibility Score: inf
ROOT
ATOM      1  C   UNL     1      75.583  91.405  66.271  1.00  0.00    -0.023 C 
ATOM      2  C   UNL     1      74.768  90.816  65.388  1.00  0.00     0.043 C 
ENDROOT
BRANCH   2   3
ATOM      3  C   UNL     1      75.204  90.646  63.975  1.00  0.00     0.155 C 
ATOM      4  O   UNL     1      74.395  90.525  63.057  1.00  0.00    -0.295 OA
BRANCH   3   5
ATOM      5  C   UNL     1      76.699  90.577  63.732  1.00  0.00     0.085 C 
BRANCH   5   6
ATOM      6  C   UNL     1      77.117  89.193  63.234  1.00  0.00     0.044 C 
BRANCH   6   7
ATOM      7  C   UNL     1      77.560  88.276  64.350  1.00  0.00    -0.044 A 
ATOM      8  C   UNL     1      77.999  86.062  65.164  1.00  0.00     0.160 A 
ATOM      9  C   UNL     1      77.590  86.908  64.133  1.00  0.00     0.054 A 
ATOM     10  C   UNL     1      78.372  86.595  66.397  1.00  0.00     0.157 A 
ATOM     11  C   UNL     1      78.336  87.975  66.601  1.00  0.00     0.050 A 
ATOM     12  C   UNL     1      77.927  88.821  65.570  1.00  0.00     0.008 A 
BRANCH   8  13
ATOM     13  O   UNL     1      78.030  84.716  64.953  1.00  0.00    -0.493 OA
ATOM     14  C   UNL     1      76.805  84.092  64.572  1.00  0.00     0.278 C 
ENDBRANCH   8  13
BRANCH  10  15
ATOM     15  O   UNL     1      78.774  85.779  67.411  1.00  0.00    -0.504 OA
ATOM     16  H   UNL     1      79.381  85.113  67.045  1.00  0.00     0.293 HD
ENDBRANCH  10  15
ENDBRANCH   6   7
ENDBRANCH   5   6
ENDBRANCH   3   5
ENDBRANCH   2   3
BRANCH   1  17
ATOM     17  C   UNL     1      75.218  91.614  67.712  1.00  0.00     0.027 C 
BRANCH  17  18
ATOM     18  C   UNL     1      75.379  90.349  68.563  1.00  0.00     0.004 C 
BRANCH  18  19
ATOM     19  C   UNL     1      74.051  89.774  69.065  1.00  0.00     0.000 C 
BRANCH  19  20
ATOM     20  C   UNL     1      74.027  88.250  68.940  1.00  0.00    -0.003 C 
ATOM     21  C   UNL     1      74.873  87.774  67.770  1.00  0.00     0.004 C 
ENDBRANCH  19  20
ENDBRANCH  18  19
ENDBRANCH  17  18
ENDBRANCH   1  17
TORSDOF 10
ENDMDL
