MODEL 1
REMARK VINA RESULT:    -7.136      0.000      0.000
REMARK INTER + INTRA:         -12.631
REMARK INTER:                 -11.100
REMARK INTRA:                  -1.532
REMARK UNBOUND:                -1.532
REMARK SMILES CCCCC/C=C/C(=O)CCc1ccc(O)c(OC)c1
REMARK SMILES IDX 6 1 7 2 8 3 9 4 10 5 11 6 12 7 17 8 20 9 15 10 14 11 13 12
REMARK SMILES IDX 18 13 19 14 16 15 5 17 4 18 3 19 2 20 1 21
REMARK H PARENT 16 16
REMARK Flexibility Score: inf
ROOT
ATOM      1  C   UNL     1      91.922  91.766  73.536  1.00  0.00    -0.023 C 
ATOM      2  C   UNL     1      90.696  92.120  73.131  1.00  0.00     0.043 C 
ENDROOT
BRANCH   2   3
ATOM      3  C   UNL     1      90.018  91.347  72.055  1.00  0.00     0.155 C 
ATOM      4  O   UNL     1      90.313  91.488  70.871  1.00  0.00    -0.295 OA
BRANCH   3   5
ATOM      5  C   UNL     1      88.906  90.413  72.492  1.00  0.00     0.085 C 
BRANCH   5   6
ATOM      6  C   UNL     1      88.456  90.715  73.922  1.00  0.00     0.044 C 
BRANCH   6   7
ATOM      7  C   UNL     1      89.118  89.824  74.947  1.00  0.00    -0.044 A 
ATOM      8  C   UNL     1      89.890  89.461  77.189  1.00  0.00     0.160 A 
ATOM      9  C   UNL     1      89.279  90.284  76.244  1.00  0.00     0.054 A 
ATOM     10  C   UNL     1      90.332  88.189  76.826  1.00  0.00     0.157 A 
ATOM     11  C   UNL     1      90.163  87.740  75.516  1.00  0.00     0.050 A 
ATOM     12  C   UNL     1      89.552  88.564  74.570  1.00  0.00     0.008 A 
BRANCH   8  13
ATOM     13  O   UNL     1      90.050  89.911  78.466  1.00  0.00    -0.493 OA
ATOM     14  C   UNL     1      90.340  91.297  78.633  1.00  0.00     0.278 C 
ENDBRANCH   8  13
BRANCH  10  15
ATOM     15  O   UNL     1      90.930  87.376  77.741  1.00  0.00    -0.504 OA
ATOM     16  H   UNL     1      91.805  87.744  77.951  1.00  0.00     0.293 HD
ENDBRANCH  10  15
ENDBRANCH   6   7
ENDBRANCH   5   6
ENDBRANCH   3   5
ENDBRANCH   2   3
BRANCH   1  17
ATOM     17  C   UNL     1      92.672  92.493  74.614  1.00  0.00     0.027 C 
BRANCH  17  18
ATOM     18  C   UNL     1      91.777  92.936  75.776  1.00  0.00     0.004 C 
BRANCH  18  19
ATOM     19  C   UNL     1      92.101  94.338  76.302  1.00  0.00     0.000 C 
BRANCH  19  20
ATOM     20  C   UNL     1      90.830  95.169  76.479  1.00  0.00    -0.003 C 
ATOM     21  C   UNL     1      89.584  94.355  76.165  1.00  0.00     0.004 C 
ENDBRANCH  19  20
ENDBRANCH  18  19
ENDBRANCH  17  18
ENDBRANCH   1  17
TORSDOF 10
ENDMDL
MODEL 2
REMARK VINA RESULT:    -6.366      1.212      2.513
REMARK INTER + INTRA:         -11.433
REMARK INTER:                 -10.412
REMARK INTRA:                  -1.022
REMARK UNBOUND:                -1.532
REMARK SMILES CCCCC/C=C/C(=O)CCc1ccc(O)c(OC)c1
REMARK SMILES IDX 6 1 7 2 8 3 9 4 10 5 11 6 12 7 17 8 20 9 15 10 14 11 13 12
REMARK SMILES IDX 18 13 19 14 16 15 5 17 4 18 3 19 2 20 1 21
REMARK H PARENT 16 16
REMARK Flexibility Score: inf
ROOT
ATOM      1  C   UNL     1      90.900  92.950  73.474  1.00  0.00    -0.023 C 
ATOM      2  C   UNL     1      89.792  92.626  72.796  1.00  0.00     0.043 C 
ENDROOT
BRANCH   2   3
ATOM      3  C   UNL     1      89.826  91.516  71.806  1.00  0.00     0.155 C 
ATOM      4  O   UNL     1      90.542  91.559  70.807  1.00  0.00    -0.295 OA
BRANCH   3   5
ATOM      5  C   UNL     1      88.893  90.350  72.065  1.00  0.00     0.085 C 
BRANCH   5   6
ATOM      6  C   UNL     1      88.035  90.590  73.308  1.00  0.00     0.044 C 
BRANCH   6   7
ATOM      7  C   UNL     1      88.707  90.136  74.582  1.00  0.00    -0.044 A 
ATOM      8  C   UNL     1      90.072  88.548  75.755  1.00  0.00     0.160 A 
ATOM      9  C   UNL     1      89.451  88.967  74.578  1.00  0.00     0.054 A 
ATOM     10  C   UNL     1      89.940  89.302  76.920  1.00  0.00     0.157 A 
ATOM     11  C   UNL     1      89.186  90.476  76.909  1.00  0.00     0.050 A 
ATOM     12  C   UNL     1      88.566  90.896  75.732  1.00  0.00     0.008 A 
BRANCH   8  13
ATOM     13  O   UNL     1      90.805  87.399  75.753  1.00  0.00    -0.493 OA
ATOM     14  C   UNL     1      91.503  87.077  74.551  1.00  0.00     0.278 C 
ENDBRANCH   8  13
BRANCH  10  15
ATOM     15  O   UNL     1      90.541  88.903  78.075  1.00  0.00    -0.504 OA
ATOM     16  H   UNL     1      91.099  88.131  77.879  1.00  0.00     0.293 HD
ENDBRANCH  10  15
ENDBRANCH   6   7
ENDBRANCH   5   6
ENDBRANCH   3   5
ENDBRANCH   2   3
BRANCH   1  17
ATOM     17  C   UNL     1      90.947  94.056  74.488  1.00  0.00     0.027 C 
BRANCH  17  18
ATOM     18  C   UNL     1      92.261  94.095  75.275  1.00  0.00     0.004 C 
BRANCH  18  19
ATOM     19  C   UNL     1      92.068  94.068  76.794  1.00  0.00     0.000 C 
BRANCH  19  20
ATOM     20  C   UNL     1      93.413  94.084  77.522  1.00  0.00    -0.003 C 
ATOM     21  C   UNL     1      94.575  94.123  76.543  1.00  0.00     0.004 C 
ENDBRANCH  19  20
ENDBRANCH  18  19
ENDBRANCH  17  18
ENDBRANCH   1  17
TORSDOF 10
ENDMDL
MODEL 3
REMARK VINA RESULT:    -5.956      3.291      4.589
REMARK INTER + INTRA:         -10.795
REMARK INTER:                 -10.072
REMARK INTRA:                  -0.723
REMARK UNBOUND:                -1.532
REMARK SMILES CCCCC/C=C/C(=O)CCc1ccc(O)c(OC)c1
REMARK SMILES IDX 6 1 7 2 8 3 9 4 10 5 11 6 12 7 17 8 20 9 15 10 14 11 13 12
REMARK SMILES IDX 18 13 19 14 16 15 5 17 4 18 3 19 2 20 1 21
REMARK H PARENT 16 16
REMARK Flexibility Score: inf
ROOT
ATOM      1  C   UNL     1      94.457  93.910  77.071  1.00  0.00    -0.023 C 
ATOM      2  C   UNL     1      93.217  94.396  76.932  1.00  0.00     0.043 C 
ENDROOT
BRANCH   2   3
ATOM      3  C   UNL     1      92.242  93.700  76.049  1.00  0.00     0.155 C 
ATOM      4  O   UNL     1      92.605  92.970  75.129  1.00  0.00    -0.295 OA
BRANCH   3   5
ATOM      5  C   UNL     1      90.774  93.981  76.309  1.00  0.00     0.085 C 
BRANCH   5   6
ATOM      6  C   UNL     1      90.160  92.920  77.223  1.00  0.00     0.044 C 
BRANCH   6   7
ATOM      7  C   UNL     1      89.895  91.614  76.512  1.00  0.00    -0.044 A 
ATOM      8  C   UNL     1      90.078  89.222  76.430  1.00  0.00     0.160 A 
ATOM      9  C   UNL     1      90.324  90.428  77.087  1.00  0.00     0.054 A 
ATOM     10  C   UNL     1      89.407  89.218  75.208  1.00  0.00     0.157 A 
ATOM     11  C   UNL     1      88.981  90.420  74.642  1.00  0.00     0.050 A 
ATOM     12  C   UNL     1      89.227  91.626  75.299  1.00  0.00     0.008 A 
BRANCH   8  13
ATOM     13  O   UNL     1      90.499  88.055  76.992  1.00  0.00    -0.493 OA
ATOM     14  C   UNL     1      89.900  87.679  78.230  1.00  0.00     0.278 C 
ENDBRANCH   8  13
BRANCH  10  15
ATOM     15  O   UNL     1      89.160  88.047  74.557  1.00  0.00    -0.504 OA
ATOM     16  H   UNL     1      88.639  88.245  73.760  1.00  0.00     0.293 HD
ENDBRANCH  10  15
ENDBRANCH   6   7
ENDBRANCH   5   6
ENDBRANCH   3   5
ENDBRANCH   2   3
BRANCH   1  17
ATOM     17  C   UNL     1      95.497  94.552  77.941  1.00  0.00     0.027 C 
BRANCH  17  18
ATOM     18  C   UNL     1      95.353  94.187  79.422  1.00  0.00     0.004 C 
BRANCH  18  19
ATOM     19  C   UNL     1      95.171  95.401  80.339  1.00  0.00     0.000 C 
BRANCH  19  20
ATOM     20  C   UNL     1      95.796  95.153  81.712  1.00  0.00    -0.003 C 
ATOM     21  C   UNL     1      95.914  93.666  82.011  1.00  0.00     0.004 C 
ENDBRANCH  19  20
ENDBRANCH  18  19
ENDBRANCH  17  18
ENDBRANCH   1  17
TORSDOF 10
ENDMDL
MODEL 4
REMARK VINA RESULT:    -5.815      5.145      7.823
REMARK INTER + INTRA:         -10.577
REMARK INTER:                  -9.677
REMARK INTRA:                  -0.900
REMARK UNBOUND:                -1.532
REMARK SMILES CCCCC/C=C/C(=O)CCc1ccc(O)c(OC)c1
REMARK SMILES IDX 6 1 7 2 8 3 9 4 10 5 11 6 12 7 17 8 20 9 15 10 14 11 13 12
REMARK SMILES IDX 18 13 19 14 16 15 5 17 4 18 3 19 2 20 1 21
REMARK H PARENT 16 16
REMARK Flexibility Score: inf
ROOT
ATOM      1  C   UNL     1      93.018  93.825  76.252  1.00  0.00    -0.023 C 
ATOM      2  C   UNL     1      93.987  93.798  75.329  1.00  0.00     0.043 C 
ENDROOT
BRANCH   2   3
ATOM      3  C   UNL     1      95.076  94.811  75.367  1.00  0.00     0.155 C 
ATOM      4  O   UNL     1      94.976  95.893  74.793  1.00  0.00    -0.295 OA
BRANCH   3   5
ATOM      5  C   UNL     1      96.339  94.419  76.108  1.00  0.00     0.085 C 
BRANCH   5   6
ATOM      6  C   UNL     1      96.799  95.532  77.051  1.00  0.00     0.044 C 
BRANCH   6   7
ATOM      7  C   UNL     1      96.366  95.307  78.480  1.00  0.00    -0.044 A 
ATOM      8  C   UNL     1      96.441  95.939  80.794  1.00  0.00     0.160 A 
ATOM      9  C   UNL     1      96.841  96.147  79.474  1.00  0.00     0.054 A 
ATOM     10  C   UNL     1      95.570  94.895  81.103  1.00  0.00     0.157 A 
ATOM     11  C   UNL     1      95.100  94.057  80.091  1.00  0.00     0.050 A 
ATOM     12  C   UNL     1      95.501  94.265  78.771  1.00  0.00     0.008 A 
BRANCH   8  13
ATOM     13  O   UNL     1      96.907  96.764  81.773  1.00  0.00    -0.493 OA
ATOM     14  C   UNL     1      96.277  98.037  81.903  1.00  0.00     0.278 C 
ENDBRANCH   8  13
BRANCH  10  15
ATOM     15  O   UNL     1      95.172  94.682  82.388  1.00  0.00    -0.504 OA
ATOM     16  H   UNL     1      94.203  94.762  82.424  1.00  0.00     0.293 HD
ENDBRANCH  10  15
ENDBRANCH   6   7
ENDBRANCH   5   6
ENDBRANCH   3   5
ENDBRANCH   2   3
BRANCH   1  17
ATOM     17  C   UNL     1      91.885  92.840  76.282  1.00  0.00     0.027 C 
BRANCH  17  18
ATOM     18  C   UNL     1      90.553  93.467  76.707  1.00  0.00     0.004 C 
BRANCH  18  19
ATOM     19  C   UNL     1      89.682  92.538  77.558  1.00  0.00     0.000 C 
BRANCH  19  20
ATOM     20  C   UNL     1      90.478  91.326  78.044  1.00  0.00    -0.003 C 
ATOM     21  C   UNL     1      89.879  90.025  77.535  1.00  0.00     0.004 C 
ENDBRANCH  19  20
ENDBRANCH  18  19
ENDBRANCH  17  18
ENDBRANCH   1  17
TORSDOF 10
ENDMDL
MODEL 5
REMARK VINA RESULT:    -5.788      3.546      6.634
REMARK INTER + INTRA:         -10.534
REMARK INTER:                  -9.870
REMARK INTRA:                  -0.663
REMARK UNBOUND:                -1.532
REMARK SMILES CCCCC/C=C/C(=O)CCc1ccc(O)c(OC)c1
REMARK SMILES IDX 6 1 7 2 8 3 9 4 10 5 11 6 12 7 17 8 20 9 15 10 14 11 13 12
REMARK SMILES IDX 18 13 19 14 16 15 5 17 4 18 3 19 2 20 1 21
REMARK H PARENT 16 16
REMARK Flexibility Score: inf
ROOT
ATOM      1  C   UNL     1      89.111  91.100  75.124  1.00  0.00    -0.023 C 
ATOM      2  C   UNL     1      90.031  91.049  76.095  1.00  0.00     0.043 C 
ENDROOT
BRANCH   2   3
ATOM      3  C   UNL     1      90.168  92.185  77.047  1.00  0.00     0.155 C 
ATOM      4  O   UNL     1      89.188  92.766  77.509  1.00  0.00    -0.295 OA
BRANCH   3   5
ATOM      5  C   UNL     1      91.581  92.623  77.379  1.00  0.00     0.085 C 
BRANCH   5   6
ATOM      6  C   UNL     1      91.907  93.975  76.743  1.00  0.00     0.044 C 
BRANCH   6   7
ATOM      7  C   UNL     1      93.385  94.289  76.755  1.00  0.00    -0.044 A 
ATOM      8  C   UNL     1      95.447  94.517  77.961  1.00  0.00     0.160 A 
ATOM      9  C   UNL     1      94.082  94.227  77.951  1.00  0.00     0.054 A 
ATOM     10  C   UNL     1      96.096  94.865  76.777  1.00  0.00     0.157 A 
ATOM     11  C   UNL     1      95.379  94.924  75.581  1.00  0.00     0.050 A 
ATOM     12  C   UNL     1      94.014  94.634  75.570  1.00  0.00     0.008 A 
BRANCH   8  13
ATOM     13  O   UNL     1      96.136  94.456  79.135  1.00  0.00    -0.493 OA
ATOM     14  C   UNL     1      95.904  95.502  80.077  1.00  0.00     0.278 C 
ENDBRANCH   8  13
BRANCH  10  15
ATOM     15  O   UNL     1      97.428  95.150  76.774  1.00  0.00    -0.504 OA
ATOM     16  H   UNL     1      97.918  94.318  76.897  1.00  0.00     0.293 HD
ENDBRANCH  10  15
ENDBRANCH   6   7
ENDBRANCH   5   6
ENDBRANCH   3   5
ENDBRANCH   2   3
BRANCH   1  17
ATOM     17  C   UNL     1      88.911  89.998  74.125  1.00  0.00     0.027 C 
BRANCH  17  18
ATOM     18  C   UNL     1      88.148  90.450  72.875  1.00  0.00     0.004 C 
BRANCH  18  19
ATOM     19  C   UNL     1      88.990  90.416  71.596  1.00  0.00     0.000 C 
BRANCH  19  20
ATOM     20  C   UNL     1      90.159  91.398  71.678  1.00  0.00    -0.003 C 
ATOM     21  C   UNL     1      89.681  92.809  71.982  1.00  0.00     0.004 C 
ENDBRANCH  19  20
ENDBRANCH  18  19
ENDBRANCH  17  18
ENDBRANCH   1  17
TORSDOF 10
ENDMDL
MODEL 6
REMARK VINA RESULT:    -5.784      3.072      5.235
REMARK INTER + INTRA:         -10.529
REMARK INTER:                  -9.910
REMARK INTRA:                  -0.618
REMARK UNBOUND:                -1.532
REMARK SMILES CCCCC/C=C/C(=O)CCc1ccc(O)c(OC)c1
REMARK SMILES IDX 6 1 7 2 8 3 9 4 10 5 11 6 12 7 17 8 20 9 15 10 14 11 13 12
REMARK SMILES IDX 18 13 19 14 16 15 5 17 4 18 3 19 2 20 1 21
REMARK H PARENT 16 16
REMARK Flexibility Score: inf
ROOT
ATOM      1  C   UNL     1      94.042  94.005  76.799  1.00  0.00    -0.023 C 
ATOM      2  C   UNL     1      92.812  94.351  77.200  1.00  0.00     0.043 C 
ENDROOT
BRANCH   2   3
ATOM      3  C   UNL     1      91.638  93.542  76.774  1.00  0.00     0.155 C 
ATOM      4  O   UNL     1      91.353  92.476  77.316  1.00  0.00    -0.295 OA
BRANCH   3   5
ATOM      5  C   UNL     1      90.841  94.074  75.599  1.00  0.00     0.085 C 
BRANCH   5   6
ATOM      6  C   UNL     1      91.239  93.378  74.297  1.00  0.00     0.044 C 
BRANCH   6   7
ATOM      7  C   UNL     1      90.148  92.487  73.750  1.00  0.00    -0.044 A 
ATOM      8  C   UNL     1      88.949  90.410  73.797  1.00  0.00     0.160 A 
ATOM      9  C   UNL     1      89.956  91.231  74.303  1.00  0.00     0.054 A 
ATOM     10  C   UNL     1      88.147  90.854  72.746  1.00  0.00     0.157 A 
ATOM     11  C   UNL     1      88.354  92.121  72.199  1.00  0.00     0.050 A 
ATOM     12  C   UNL     1      89.361  92.943  72.705  1.00  0.00     0.008 A 
BRANCH   8  13
ATOM     13  O   UNL     1      88.758  89.174  74.339  1.00  0.00    -0.493 OA
ATOM     14  C   UNL     1      89.919  88.376  74.560  1.00  0.00     0.278 C 
ENDBRANCH   8  13
BRANCH  10  15
ATOM     15  O   UNL     1      87.160  90.061  72.244  1.00  0.00    -0.504 OA
ATOM     16  H   UNL     1      86.461  90.634  71.886  1.00  0.00     0.293 HD
ENDBRANCH  10  15
ENDBRANCH   6   7
ENDBRANCH   5   6
ENDBRANCH   3   5
ENDBRANCH   2   3
BRANCH   1  17
ATOM     17  C   UNL     1      95.275  94.768  77.184  1.00  0.00     0.027 C 
BRANCH  17  18
ATOM     18  C   UNL     1      95.985  94.186  78.411  1.00  0.00     0.004 C 
BRANCH  18  19
ATOM     19  C   UNL     1      95.192  94.346  79.712  1.00  0.00     0.000 C 
BRANCH  19  20
ATOM     20  C   UNL     1      95.641  95.587  80.483  1.00  0.00    -0.003 C 
ATOM     21  C   UNL     1      97.002  96.073  80.012  1.00  0.00     0.004 C 
ENDBRANCH  19  20
ENDBRANCH  18  19
ENDBRANCH  17  18
ENDBRANCH   1  17
TORSDOF 10
ENDMDL
MODEL 7
REMARK VINA RESULT:    -5.757      3.397      6.518
REMARK INTER + INTRA:         -10.486
REMARK INTER:                  -9.783
REMARK INTRA:                  -0.703
REMARK UNBOUND:                -1.532
REMARK SMILES CCCCC/C=C/C(=O)CCc1ccc(O)c(OC)c1
REMARK SMILES IDX 6 1 7 2 8 3 9 4 10 5 11 6 12 7 17 8 20 9 15 10 14 11 13 12
REMARK SMILES IDX 18 13 19 14 16 15 5 17 4 18 3 19 2 20 1 21
REMARK H PARENT 16 16
REMARK Flexibility Score: inf
ROOT
ATOM      1  C   UNL     1      89.324  90.487  75.507  1.00  0.00    -0.023 C 
ATOM      2  C   UNL     1      90.340  91.355  75.595  1.00  0.00     0.043 C 
ENDROOT
BRANCH   2   3
ATOM      3  C   UNL     1      90.230  92.537  76.492  1.00  0.00     0.155 C 
ATOM      4  O   UNL     1      89.441  92.565  77.434  1.00  0.00    -0.295 OA
BRANCH   3   5
ATOM      5  C   UNL     1      91.105  93.728  76.151  1.00  0.00     0.085 C 
BRANCH   5   6
ATOM      6  C   UNL     1      92.360  93.296  75.392  1.00  0.00     0.044 C 
BRANCH   6   7
ATOM      7  C   UNL     1      93.632  93.825  76.010  1.00  0.00    -0.044 A 
ATOM      8  C   UNL     1      94.837  94.597  77.937  1.00  0.00     0.160 A 
ATOM      9  C   UNL     1      93.661  94.109  77.366  1.00  0.00     0.054 A 
ATOM     10  C   UNL     1      95.967  94.795  77.145  1.00  0.00     0.157 A 
ATOM     11  C   UNL     1      95.922  94.504  75.781  1.00  0.00     0.050 A 
ATOM     12  C   UNL     1      94.747  94.016  75.210  1.00  0.00     0.008 A 
BRANCH   8  13
ATOM     13  O   UNL     1      94.868  94.877  79.270  1.00  0.00    -0.493 OA
ATOM     14  C   UNL     1      95.504  93.923  80.118  1.00  0.00     0.278 C 
ENDBRANCH   8  13
BRANCH  10  15
ATOM     15  O   UNL     1      97.121  95.270  77.691  1.00  0.00    -0.504 OA
ATOM     16  H   UNL     1      96.902  96.036  78.249  1.00  0.00     0.293 HD
ENDBRANCH  10  15
ENDBRANCH   6   7
ENDBRANCH   5   6
ENDBRANCH   3   5
ENDBRANCH   2   3
BRANCH   1  17
ATOM     17  C   UNL     1      89.357  89.272  74.626  1.00  0.00     0.027 C 
BRANCH  17  18
ATOM     18  C   UNL     1      89.455  87.961  75.413  1.00  0.00     0.004 C 
BRANCH  18  19
ATOM     19  C   UNL     1      90.483  88.002  76.548  1.00  0.00     0.000 C 
BRANCH  19  20
ATOM     20  C   UNL     1      89.838  87.653  77.890  1.00  0.00    -0.003 C 
ATOM     21  C   UNL     1      89.663  88.886  78.762  1.00  0.00     0.004 C 
ENDBRANCH  19  20
ENDBRANCH  18  19
ENDBRANCH  17  18
ENDBRANCH   1  17
TORSDOF 10
ENDMDL
MODEL 8
REMARK VINA RESULT:    -5.722      5.113      7.785
REMARK INTER + INTRA:         -10.432
REMARK INTER:                  -9.431
REMARK INTRA:                  -1.000
REMARK UNBOUND:                -1.532
REMARK SMILES CCCCC/C=C/C(=O)CCc1ccc(O)c(OC)c1
REMARK SMILES IDX 6 1 7 2 8 3 9 4 10 5 11 6 12 7 17 8 20 9 15 10 14 11 13 12
REMARK SMILES IDX 18 13 19 14 16 15 5 17 4 18 3 19 2 20 1 21
REMARK H PARENT 16 16
REMARK Flexibility Score: inf
ROOT
ATOM      1  C   UNL     1      92.061  93.231  77.293  1.00  0.00    -0.023 C 
ATOM      2  C   UNL     1      92.673  93.167  76.104  1.00  0.00     0.043 C 
ENDROOT
BRANCH   2   3
ATOM      3  C   UNL     1      93.643  94.225  75.710  1.00  0.00     0.155 C 
ATOM      4  O   UNL     1      93.299  95.212  75.063  1.00  0.00    -0.295 OA
BRANCH   3   5
ATOM      5  C   UNL     1      95.089  93.997  76.103  1.00  0.00     0.085 C 
BRANCH   5   6
ATOM      6  C   UNL     1      95.683  95.235  76.778  1.00  0.00     0.044 C 
BRANCH   6   7
ATOM      7  C   UNL     1      95.944  95.032  78.252  1.00  0.00    -0.044 A 
ATOM      8  C   UNL     1      97.153  95.608  80.243  1.00  0.00     0.160 A 
ATOM      9  C   UNL     1      96.914  95.795  78.881  1.00  0.00     0.054 A 
ATOM     10  C   UNL     1      96.421  94.661  80.957  1.00  0.00     0.157 A 
ATOM     11  C   UNL     1      95.447  93.899  80.309  1.00  0.00     0.050 A 
ATOM     12  C   UNL     1      95.208  94.086  78.947  1.00  0.00     0.008 A 
BRANCH   8  13
ATOM     13  O   UNL     1      98.107  96.358  80.864  1.00  0.00    -0.493 OA
ATOM     14  C   UNL     1      99.467  95.993  80.638  1.00  0.00     0.278 C 
ENDBRANCH   8  13
BRANCH  10  15
ATOM     15  O   UNL     1      96.645  94.469  82.286  1.00  0.00    -0.504 OA
ATOM     16  H   UNL     1      96.050  93.766  82.598  1.00  0.00     0.293 HD
ENDBRANCH  10  15
ENDBRANCH   6   7
ENDBRANCH   5   6
ENDBRANCH   3   5
ENDBRANCH   2   3
BRANCH   1  17
ATOM     17  C   UNL     1      91.072  92.205  77.763  1.00  0.00     0.027 C 
BRANCH  17  18
ATOM     18  C   UNL     1      89.649  92.466  77.259  1.00  0.00     0.004 C 
BRANCH  18  19
ATOM     19  C   UNL     1      89.161  91.436  76.236  1.00  0.00     0.000 C 
BRANCH  19  20
ATOM     20  C   UNL     1      90.021  90.171  76.273  1.00  0.00    -0.003 C 
ATOM     21  C   UNL     1      89.550  89.147  75.254  1.00  0.00     0.004 C 
ENDBRANCH  19  20
ENDBRANCH  18  19
ENDBRANCH  17  18
ENDBRANCH   1  17
TORSDOF 10
ENDMDL
MODEL 9
REMARK VINA RESULT:    -5.503     12.328     15.472
REMARK INTER + INTRA:         -10.090
REMARK INTER:                  -8.209
REMARK INTRA:                  -1.882
REMARK UNBOUND:                -1.532
REMARK SMILES CCCCC/C=C/C(=O)CCc1ccc(O)c(OC)c1
REMARK SMILES IDX 6 1 7 2 8 3 9 4 10 5 11 6 12 7 17 8 20 9 15 10 14 11 13 12
REMARK SMILES IDX 18 13 19 14 16 15 5 17 4 18 3 19 2 20 1 21
REMARK H PARENT 16 16
REMARK Flexibility Score: inf
ROOT
ATOM      1  C   UNL     1      80.927  86.370  86.505  1.00  0.00    -0.023 C 
ATOM      2  C   UNL     1      79.854  86.751  87.210  1.00  0.00     0.043 C 
ENDROOT
BRANCH   2   3
ATOM      3  C   UNL     1      80.003  87.127  88.642  1.00  0.00     0.155 C 
ATOM      4  O   UNL     1      79.757  86.335  89.549  1.00  0.00    -0.295 OA
BRANCH   3   5
ATOM      5  C   UNL     1      80.422  88.557  88.926  1.00  0.00     0.085 C 
BRANCH   5   6
ATOM      6  C   UNL     1      81.930  88.656  89.162  1.00  0.00     0.044 C 
BRANCH   6   7
ATOM      7  C   UNL     1      82.541  89.889  88.540  1.00  0.00    -0.044 A 
ATOM      8  C   UNL     1      84.188  90.892  87.111  1.00  0.00     0.160 A 
ATOM      9  C   UNL     1      83.624  89.753  87.686  1.00  0.00     0.054 A 
ATOM     10  C   UNL     1      83.663  92.152  87.398  1.00  0.00     0.157 A 
ATOM     11  C   UNL     1      82.572  92.273  88.260  1.00  0.00     0.050 A 
ATOM     12  C   UNL     1      82.008  91.133  88.835  1.00  0.00     0.008 A 
BRANCH   8  13
ATOM     13  O   UNL     1      85.253  90.761  86.272  1.00  0.00    -0.493 OA
ATOM     14  C   UNL     1      84.970  90.444  84.910  1.00  0.00     0.278 C 
ENDBRANCH   8  13
BRANCH  10  15
ATOM     15  O   UNL     1      84.205  93.271  86.843  1.00  0.00    -0.504 OA
ATOM     16  H   UNL     1      84.118  93.206  85.876  1.00  0.00     0.293 HD
ENDBRANCH  10  15
ENDBRANCH   6   7
ENDBRANCH   5   6
ENDBRANCH   3   5
ENDBRANCH   2   3
BRANCH   1  17
ATOM     17  C   UNL     1      80.861  85.975  85.059  1.00  0.00     0.027 C 
BRANCH  17  18
ATOM     18  C   UNL     1      80.952  87.171  84.104  1.00  0.00     0.004 C 
BRANCH  18  19
ATOM     19  C   UNL     1      81.858  88.296  84.614  1.00  0.00     0.000 C 
BRANCH  19  20
ATOM     20  C   UNL     1      81.214  89.666  84.393  1.00  0.00    -0.003 C 
ATOM     21  C   UNL     1      80.275  90.030  85.532  1.00  0.00     0.004 C 
ENDBRANCH  19  20
ENDBRANCH  18  19
ENDBRANCH  17  18
ENDBRANCH   1  17
TORSDOF 10
ENDMDL
MODEL 10
REMARK VINA RESULT:    -5.488      3.689      5.778
REMARK INTER + INTRA:         -10.068
REMARK INTER:                  -9.285
REMARK INTRA:                  -0.783
REMARK UNBOUND:                -1.532
REMARK SMILES CCCCC/C=C/C(=O)CCc1ccc(O)c(OC)c1
REMARK SMILES IDX 6 1 7 2 8 3 9 4 10 5 11 6 12 7 17 8 20 9 15 10 14 11 13 12
REMARK SMILES IDX 18 13 19 14 16 15 5 17 4 18 3 19 2 20 1 21
REMARK H PARENT 16 16
REMARK Flexibility Score: inf
ROOT
ATOM      1  C   UNL     1      95.644  95.957  75.469  1.00  0.00    -0.023 C 
ATOM      2  C   UNL     1      95.139  94.719  75.527  1.00  0.00     0.043 C 
ENDROOT
BRANCH   2   3
ATOM      3  C   UNL     1      95.058  94.011  76.834  1.00  0.00     0.155 C 
ATOM      4  O   UNL     1      96.013  93.390  77.296  1.00  0.00    -0.295 OA
BRANCH   3   5
ATOM      5  C   UNL     1      93.718  94.052  77.542  1.00  0.00     0.085 C 
BRANCH   5   6
ATOM      6  C   UNL     1      92.603  94.498  76.596  1.00  0.00     0.044 C 
BRANCH   6   7
ATOM      7  C   UNL     1      91.514  93.462  76.440  1.00  0.00    -0.044 A 
ATOM      8  C   UNL     1      90.107  92.129  75.026  1.00  0.00     0.160 A 
ATOM      9  C   UNL     1      91.112  93.086  75.169  1.00  0.00     0.054 A 
ATOM     10  C   UNL     1      89.518  91.561  76.155  1.00  0.00     0.157 A 
ATOM     11  C   UNL     1      89.934  91.951  77.429  1.00  0.00     0.050 A 
ATOM     12  C   UNL     1      90.939  92.908  77.572  1.00  0.00     0.008 A 
BRANCH   8  13
ATOM     13  O   UNL     1      89.710  91.757  73.777  1.00  0.00    -0.493 OA
ATOM     14  C   UNL     1      90.675  91.858  72.732  1.00  0.00     0.278 C 
ENDBRANCH   8  13
BRANCH  10  15
ATOM     15  O   UNL     1      88.536  90.625  76.029  1.00  0.00    -0.504 OA
ATOM     16  H   UNL     1      88.374  90.480  75.081  1.00  0.00     0.293 HD
ENDBRANCH  10  15
ENDBRANCH   6   7
ENDBRANCH   5   6
ENDBRANCH   3   5
ENDBRANCH   2   3
BRANCH   1  17
ATOM     17  C   UNL     1      95.761  96.737  74.192  1.00  0.00     0.027 C 
BRANCH  17  18
ATOM     18  C   UNL     1      94.443  97.391  73.764  1.00  0.00     0.004 C 
BRANCH  18  19
ATOM     19  C   UNL     1      94.375  98.891  74.069  1.00  0.00     0.000 C 
BRANCH  19  20
ATOM     20  C   UNL     1      93.221  99.555  73.317  1.00  0.00    -0.003 C 
ATOM     21  C   UNL     1      93.148  99.080  71.875  1.00  0.00     0.004 C 
ENDBRANCH  19  20
ENDBRANCH  18  19
ENDBRANCH  17  18
ENDBRANCH   1  17
TORSDOF 10
ENDMDL
