MODEL 1
REMARK VINA RESULT:    -6.293      0.000      0.000
REMARK INTER + INTRA:         -10.832
REMARK INTER:                 -10.156
REMARK INTRA:                  -0.676
REMARK UNBOUND:                -0.676
REMARK SMILES CCCCCCCCC(=O)NCc1ccc(O)c(OC)c1
REMARK SMILES IDX 7 1 6 2 5 3 4 4 3 5 2 6 1 7 8 8 9 9 10 10 11 11 12 13 13 14
REMARK SMILES IDX 21 15 14 16 18 17 15 18 16 19 19 20 20 21 17 22
REMARK H PARENT 11 12 17 23
REMARK Flexibility Score: inf
ROOT
ATOM      1  C   UNL     1      90.620  91.820  77.959  1.00  0.00     0.010 C 
ENDROOT
BRANCH   1   2
ATOM      2  C   UNL     1      90.100  90.560  77.208  1.00  0.00     0.001 C 
BRANCH   2   3
ATOM      3  C   UNL     1      89.266  90.929  75.946  1.00  0.00     0.000 C 
BRANCH   3   4
ATOM      4  C   UNL     1      89.470  89.954  74.752  1.00  0.00    -0.000 C 
BRANCH   4   5
ATOM      5  C   UNL     1      88.633  90.352  73.503  1.00  0.00    -0.000 C 
BRANCH   5   6
ATOM      6  C   UNL     1      89.473  90.348  72.197  1.00  0.00    -0.003 C 
ATOM      7  C   UNL     1      89.981  91.753  71.806  1.00  0.00     0.004 C 
ENDBRANCH   5   6
ENDBRANCH   4   5
ENDBRANCH   3   4
ENDBRANCH   2   3
ENDBRANCH   1   2
BRANCH   1   8
ATOM      8  C   UNL     1      90.464  93.141  77.155  1.00  0.00     0.100 C 
BRANCH   8   9
ATOM      9  C   UNL     1      91.735  93.525  76.495  1.00  0.00     0.220 C 
ATOM     10  O   UNL     1      91.679  94.095  75.379  1.00  0.00    -0.275 OA
ATOM     11  N   UNL     1      92.933  93.288  77.106  1.00  0.00    -0.352 N 
ATOM     12  H   UNL     1      92.868  92.749  77.957  1.00  0.00     0.163 HD
BRANCH  11  13
ATOM     13  C   UNL     1      94.211  93.735  76.642  1.00  0.00     0.151 C 
BRANCH  13  14
ATOM     14  C   UNL     1      94.990  94.489  77.660  1.00  0.00    -0.025 A 
ATOM     15  C   UNL     1      94.705  94.330  79.037  1.00  0.00     0.056 A 
ATOM     16  C   UNL     1      96.022  95.377  77.275  1.00  0.00     0.009 A 
ATOM     17  C   UNL     1      95.449  95.027  80.017  1.00  0.00     0.160 A 
ATOM     18  C   UNL     1      96.766  96.072  78.244  1.00  0.00     0.050 A 
ATOM     19  C   UNL     1      96.479  95.907  79.613  1.00  0.00     0.157 A 
BRANCH  17  20
ATOM     20  O   UNL     1      95.143  94.904  81.349  1.00  0.00    -0.493 OA
ATOM     21  C   UNL     1      95.674  93.719  81.968  1.00  0.00     0.278 C 
ENDBRANCH  17  20
BRANCH  19  22
ATOM     22  O   UNL     1      97.184  96.604  80.540  1.00  0.00    -0.504 OA
ATOM     23  H   UNL     1      96.639  97.311  80.892  1.00  0.00     0.293 HD
ENDBRANCH  19  22
ENDBRANCH  13  14
ENDBRANCH  11  13
ENDBRANCH   8   9
ENDBRANCH   1   8
TORSDOF 11
ENDMDL
MODEL 2
REMARK VINA RESULT:    -6.291      1.738      2.190
REMARK INTER + INTRA:         -10.829
REMARK INTER:                 -10.076
REMARK INTRA:                  -0.753
REMARK UNBOUND:                -0.676
REMARK SMILES CCCCCCCCC(=O)NCc1ccc(O)c(OC)c1
REMARK SMILES IDX 7 1 6 2 5 3 4 4 3 5 2 6 1 7 8 8 9 9 10 10 11 11 12 13 13 14
REMARK SMILES IDX 21 15 14 16 18 17 15 18 16 19 19 20 20 21 17 22
REMARK H PARENT 11 12 17 23
REMARK Flexibility Score: inf
ROOT
ATOM      1  C   UNL     1      90.280  93.438  75.947  1.00  0.00     0.010 C 
ENDROOT
BRANCH   1   2
ATOM      2  C   UNL     1      89.584  92.858  77.212  1.00  0.00     0.001 C 
BRANCH   2   3
ATOM      3  C   UNL     1      90.450  91.770  77.913  1.00  0.00     0.000 C 
BRANCH   3   4
ATOM      4  C   UNL     1      90.004  90.314  77.597  1.00  0.00    -0.000 C 
BRANCH   4   5
ATOM      5  C   UNL     1      90.594  89.783  76.261  1.00  0.00    -0.000 C 
BRANCH   5   6
ATOM      6  C   UNL     1      90.715  88.235  76.236  1.00  0.00    -0.003 C 
ATOM      7  C   UNL     1      89.813  87.580  75.166  1.00  0.00     0.004 C 
ENDBRANCH   5   6
ENDBRANCH   4   5
ENDBRANCH   3   4
ENDBRANCH   2   3
ENDBRANCH   1   2
BRANCH   1   8
ATOM      8  C   UNL     1      90.998  94.795  76.189  1.00  0.00     0.100 C 
BRANCH   8   9
ATOM      9  C   UNL     1      92.454  94.688  75.932  1.00  0.00     0.220 C 
ATOM     10  O   UNL     1      92.960  95.431  75.057  1.00  0.00    -0.275 OA
ATOM     11  N   UNL     1      93.225  93.822  76.653  1.00  0.00    -0.352 N 
ATOM     12  H   UNL     1      92.704  93.212  77.267  1.00  0.00     0.163 HD
BRANCH  11  13
ATOM     13  C   UNL     1      94.651  93.728  76.598  1.00  0.00     0.151 C 
BRANCH  13  14
ATOM     14  C   UNL     1      95.345  94.470  77.684  1.00  0.00    -0.025 A 
ATOM     15  C   UNL     1      94.974  94.267  79.035  1.00  0.00     0.056 A 
ATOM     16  C   UNL     1      96.378  95.389  77.391  1.00  0.00     0.009 A 
ATOM     17  C   UNL     1      95.636  94.952  80.080  1.00  0.00     0.160 A 
ATOM     18  C   UNL     1      97.041  96.073  78.426  1.00  0.00     0.050 A 
ATOM     19  C   UNL     1      96.669  95.864  79.768  1.00  0.00     0.157 A 
BRANCH  17  20
ATOM     20  O   UNL     1      95.247  94.785  81.385  1.00  0.00    -0.493 OA
ATOM     21  C   UNL     1      95.769  93.599  82.008  1.00  0.00     0.278 C 
ENDBRANCH  17  20
BRANCH  19  22
ATOM     22  O   UNL     1      97.297  96.550  80.757  1.00  0.00    -0.504 OA
ATOM     23  H   UNL     1      97.518  95.949  81.473  1.00  0.00     0.293 HD
ENDBRANCH  19  22
ENDBRANCH  13  14
ENDBRANCH  11  13
ENDBRANCH   8   9
ENDBRANCH   1   8
TORSDOF 11
ENDMDL
MODEL 3
REMARK VINA RESULT:    -6.135      1.561      2.711
REMARK INTER + INTRA:         -10.576
REMARK INTER:                 -10.070
REMARK INTRA:                  -0.507
REMARK UNBOUND:                -0.676
REMARK SMILES CCCCCCCCC(=O)NCc1ccc(O)c(OC)c1
REMARK SMILES IDX 7 1 6 2 5 3 4 4 3 5 2 6 1 7 8 8 9 9 10 10 11 11 12 13 13 14
REMARK SMILES IDX 21 15 14 16 18 17 15 18 16 19 19 20 20 21 17 22
REMARK H PARENT 11 12 17 23
REMARK Flexibility Score: inf
ROOT
ATOM      1  C   UNL     1      91.079  92.887  77.444  1.00  0.00     0.010 C 
ENDROOT
BRANCH   1   2
ATOM      2  C   UNL     1      89.794  92.250  76.841  1.00  0.00     0.001 C 
BRANCH   2   3
ATOM      3  C   UNL     1      90.120  91.088  75.856  1.00  0.00     0.000 C 
BRANCH   3   4
ATOM      4  C   UNL     1      88.871  90.276  75.409  1.00  0.00    -0.000 C 
BRANCH   4   5
ATOM      5  C   UNL     1      89.221  89.139  74.408  1.00  0.00    -0.000 C 
BRANCH   5   6
ATOM      6  C   UNL     1      89.649  87.828  75.121  1.00  0.00    -0.003 C 
ATOM      7  C   UNL     1      91.061  87.355  74.711  1.00  0.00     0.004 C 
ENDBRANCH   5   6
ENDBRANCH   4   5
ENDBRANCH   3   4
ENDBRANCH   2   3
ENDBRANCH   1   2
BRANCH   1   8
ATOM      8  C   UNL     1      91.490  94.228  76.774  1.00  0.00     0.100 C 
BRANCH   8   9
ATOM      9  C   UNL     1      92.964  94.364  76.699  1.00  0.00     0.220 C 
ATOM     10  O   UNL     1      93.456  94.979  75.722  1.00  0.00    -0.275 OA
ATOM     11  N   UNL     1      93.760  93.855  77.685  1.00  0.00    -0.352 N 
ATOM     12  H   UNL     1      93.269  93.307  78.376  1.00  0.00     0.163 HD
BRANCH  11  13
ATOM     13  C   UNL     1      95.174  94.042  77.798  1.00  0.00     0.151 C 
BRANCH  13  14
ATOM     14  C   UNL     1      95.613  94.508  79.141  1.00  0.00    -0.025 A 
ATOM     15  C   UNL     1      96.191  95.791  79.296  1.00  0.00     0.056 A 
ATOM     16  C   UNL     1      95.467  93.683  80.280  1.00  0.00     0.009 A 
ATOM     17  C   UNL     1      96.597  96.254  80.568  1.00  0.00     0.160 A 
ATOM     18  C   UNL     1      95.869  94.139  81.549  1.00  0.00     0.050 A 
ATOM     19  C   UNL     1      96.440  95.417  81.696  1.00  0.00     0.157 A 
BRANCH  17  20
ATOM     20  O   UNL     1      97.195  97.481  80.710  1.00  0.00    -0.493 OA
ATOM     21  C   UNL     1      97.229  98.262  79.503  1.00  0.00     0.278 C 
ENDBRANCH  17  20
BRANCH  19  22
ATOM     22  O   UNL     1      96.849  95.837  82.921  1.00  0.00    -0.504 OA
ATOM     23  H   UNL     1      96.926  95.082  83.508  1.00  0.00     0.293 HD
ENDBRANCH  19  22
ENDBRANCH  13  14
ENDBRANCH  11  13
ENDBRANCH   8   9
ENDBRANCH   1   8
TORSDOF 11
ENDMDL
MODEL 4
REMARK VINA RESULT:    -5.725      4.213      7.812
REMARK INTER + INTRA:          -9.916
REMARK INTER:                  -9.157
REMARK INTRA:                  -0.758
REMARK UNBOUND:                -0.676
REMARK SMILES CCCCCCCCC(=O)NCc1ccc(O)c(OC)c1
REMARK SMILES IDX 7 1 6 2 5 3 4 4 3 5 2 6 1 7 8 8 9 9 10 10 11 11 12 13 13 14
REMARK SMILES IDX 21 15 14 16 18 17 15 18 16 19 19 20 20 21 17 22
REMARK H PARENT 11 12 17 23
REMARK Flexibility Score: inf
ROOT
ATOM      1  C   UNL     1      95.194  97.137  74.564  1.00  0.00     0.010 C 
ENDROOT
BRANCH   1   2
ATOM      2  C   UNL     1      95.127  98.511  73.838  1.00  0.00     0.001 C 
BRANCH   2   3
ATOM      3  C   UNL     1      93.681  99.085  73.795  1.00  0.00     0.000 C 
BRANCH   3   4
ATOM      4  C   UNL     1      93.182  99.424  72.362  1.00  0.00    -0.000 C 
BRANCH   4   5
ATOM      5  C   UNL     1      93.743  98.452  71.286  1.00  0.00    -0.000 C 
BRANCH   5   6
ATOM      6  C   UNL     1      92.922  98.483  69.968  1.00  0.00    -0.003 C 
ATOM      7  C   UNL     1      91.720  99.451  70.033  1.00  0.00     0.004 C 
ENDBRANCH   5   6
ENDBRANCH   4   5
ENDBRANCH   3   4
ENDBRANCH   2   3
ENDBRANCH   1   2
BRANCH   1   8
ATOM      8  C   UNL     1      93.886  96.304  74.457  1.00  0.00     0.100 C 
BRANCH   8   9
ATOM      9  C   UNL     1      93.920  95.126  75.357  1.00  0.00     0.220 C 
ATOM     10  O   UNL     1      94.970  94.442  75.402  1.00  0.00    -0.275 OA
ATOM     11  N   UNL     1      92.843  94.817  76.137  1.00  0.00    -0.352 N 
ATOM     12  H   UNL     1      92.024  95.380  75.959  1.00  0.00     0.163 HD
BRANCH  11  13
ATOM     13  C   UNL     1      92.803  93.799  77.142  1.00  0.00     0.151 C 
BRANCH  13  14
ATOM     14  C   UNL     1      91.909  92.659  76.808  1.00  0.00    -0.025 A 
ATOM     15  C   UNL     1      91.982  92.046  75.534  1.00  0.00     0.056 A 
ATOM     16  C   UNL     1      90.972  92.170  77.748  1.00  0.00     0.009 A 
ATOM     17  C   UNL     1      91.150  90.950  75.208  1.00  0.00     0.160 A 
ATOM     18  C   UNL     1      90.143  91.080  77.430  1.00  0.00     0.050 A 
ATOM     19  C   UNL     1      90.223  90.473  76.162  1.00  0.00     0.157 A 
BRANCH  17  20
ATOM     20  O   UNL     1      91.193  90.385  73.958  1.00  0.00    -0.493 OA
ATOM     21  C   UNL     1      90.515  91.147  72.944  1.00  0.00     0.278 C 
ENDBRANCH  17  20
BRANCH  19  22
ATOM     22  O   UNL     1      89.399  89.439  75.855  1.00  0.00    -0.504 OA
ATOM     23  H   UNL     1      88.578  89.527  76.345  1.00  0.00     0.293 HD
ENDBRANCH  19  22
ENDBRANCH  13  14
ENDBRANCH  11  13
ENDBRANCH   8   9
ENDBRANCH   1   8
TORSDOF 11
ENDMDL
MODEL 5
REMARK VINA RESULT:    -5.714     14.060     15.981
REMARK INTER + INTRA:          -9.897
REMARK INTER:                  -8.209
REMARK INTRA:                  -1.688
REMARK UNBOUND:                -0.676
REMARK SMILES CCCCCCCCC(=O)NCc1ccc(O)c(OC)c1
REMARK SMILES IDX 7 1 6 2 5 3 4 4 3 5 2 6 1 7 8 8 9 9 10 10 11 11 12 13 13 14
REMARK SMILES IDX 21 15 14 16 18 17 15 18 16 19 19 20 20 21 17 22
REMARK H PARENT 11 12 17 23
REMARK Flexibility Score: inf
ROOT
ATOM      1  C   UNL     1      80.203  85.817  85.321  1.00  0.00     0.010 C 
ENDROOT
BRANCH   1   2
ATOM      2  C   UNL     1      80.132  86.599  83.978  1.00  0.00     0.001 C 
BRANCH   2   3
ATOM      3  C   UNL     1      81.222  87.707  83.882  1.00  0.00     0.000 C 
BRANCH   3   4
ATOM      4  C   UNL     1      80.721  89.118  84.302  1.00  0.00    -0.000 C 
BRANCH   4   5
ATOM      5  C   UNL     1      81.771  89.904  85.137  1.00  0.00    -0.000 C 
BRANCH   5   6
ATOM      6  C   UNL     1      83.217  89.385  84.916  1.00  0.00    -0.003 C 
ATOM      7  C   UNL     1      84.024  89.279  86.230  1.00  0.00     0.004 C 
ENDBRANCH   5   6
ENDBRANCH   4   5
ENDBRANCH   3   4
ENDBRANCH   2   3
ENDBRANCH   1   2
BRANCH   1   8
ATOM      8  C   UNL     1      81.462  86.144  86.173  1.00  0.00     0.100 C 
BRANCH   8   9
ATOM      9  C   UNL     1      81.115  86.976  87.350  1.00  0.00     0.220 C 
ATOM     10  O   UNL     1      79.942  87.408  87.449  1.00  0.00    -0.275 OA
ATOM     11  N   UNL     1      82.047  87.238  88.313  1.00  0.00    -0.352 N 
ATOM     12  H   UNL     1      82.979  86.918  88.091  1.00  0.00     0.163 HD
BRANCH  11  13
ATOM     13  C   UNL     1      81.801  87.904  89.555  1.00  0.00     0.151 C 
BRANCH  13  14
ATOM     14  C   UNL     1      82.280  89.312  89.589  1.00  0.00    -0.025 A 
ATOM     15  C   UNL     1      83.354  89.679  90.435  1.00  0.00     0.056 A 
ATOM     16  C   UNL     1      81.674  90.305  88.785  1.00  0.00     0.009 A 
ATOM     17  C   UNL     1      83.831  91.010  90.464  1.00  0.00     0.160 A 
ATOM     18  C   UNL     1      82.145  91.630  88.809  1.00  0.00     0.050 A 
ATOM     19  C   UNL     1      83.216  91.987  89.651  1.00  0.00     0.157 A 
BRANCH  17  20
ATOM     20  O   UNL     1      84.844  91.372  91.316  1.00  0.00    -0.493 OA
ATOM     21  C   UNL     1      84.434  91.526  92.686  1.00  0.00     0.278 C 
ENDBRANCH  17  20
BRANCH  19  22
ATOM     22  O   UNL     1      83.645  93.275  89.687  1.00  0.00    -0.504 OA
ATOM     23  H   UNL     1      84.598  93.298  89.571  1.00  0.00     0.293 HD
ENDBRANCH  19  22
ENDBRANCH  13  14
ENDBRANCH  11  13
ENDBRANCH   8   9
ENDBRANCH   1   8
TORSDOF 11
ENDMDL
MODEL 6
REMARK VINA RESULT:    -5.650     27.326     29.437
REMARK INTER + INTRA:          -9.795
REMARK INTER:                  -8.922
REMARK INTRA:                  -0.873
REMARK UNBOUND:                -0.676
REMARK SMILES CCCCCCCCC(=O)NCc1ccc(O)c(OC)c1
REMARK SMILES IDX 7 1 6 2 5 3 4 4 3 5 2 6 1 7 8 8 9 9 10 10 11 11 12 13 13 14
REMARK SMILES IDX 21 15 14 16 18 17 15 18 16 19 19 20 20 21 17 22
REMARK H PARENT 11 12 17 23
REMARK Flexibility Score: inf
ROOT
ATOM      1  C   UNL     1      81.766  66.412  76.047  1.00  0.00     0.010 C 
ENDROOT
BRANCH   1   2
ATOM      2  C   UNL     1      81.066  66.583  74.668  1.00  0.00     0.001 C 
BRANCH   2   3
ATOM      3  C   UNL     1      80.755  65.216  73.991  1.00  0.00     0.000 C 
BRANCH   3   4
ATOM      4  C   UNL     1      80.149  65.345  72.565  1.00  0.00    -0.000 C 
BRANCH   4   5
ATOM      5  C   UNL     1      80.119  66.815  72.057  1.00  0.00    -0.000 C 
BRANCH   5   6
ATOM      6  C   UNL     1      81.129  67.068  70.905  1.00  0.00    -0.003 C 
ATOM      7  C   UNL     1      82.318  67.956  71.333  1.00  0.00     0.004 C 
ENDBRANCH   5   6
ENDBRANCH   4   5
ENDBRANCH   3   4
ENDBRANCH   2   3
ENDBRANCH   1   2
BRANCH   1   8
ATOM      8  C   UNL     1      81.959  64.930  76.475  1.00  0.00     0.100 C 
BRANCH   8   9
ATOM      9  C   UNL     1      83.383  64.631  76.758  1.00  0.00     0.220 C 
ATOM     10  O   UNL     1      84.261  65.340  76.210  1.00  0.00    -0.275 OA
ATOM     11  N   UNL     1      83.724  63.625  77.617  1.00  0.00    -0.352 N 
ATOM     12  H   UNL     1      82.946  63.064  77.932  1.00  0.00     0.163 HD
BRANCH  11  13
ATOM     13  C   UNL     1      85.046  63.332  78.078  1.00  0.00     0.151 C 
BRANCH  13  14
ATOM     14  C   UNL     1      85.417  64.040  79.333  1.00  0.00    -0.025 A 
ATOM     15  C   UNL     1      86.130  65.262  79.277  1.00  0.00     0.056 A 
ATOM     16  C   UNL     1      85.070  63.510  80.596  1.00  0.00     0.009 A 
ATOM     17  C   UNL     1      86.474  65.955  80.460  1.00  0.00     0.160 A 
ATOM     18  C   UNL     1      85.408  64.195  81.777  1.00  0.00     0.050 A 
ATOM     19  C   UNL     1      86.115  65.411  81.714  1.00  0.00     0.157 A 
BRANCH  17  20
ATOM     20  O   UNL     1      87.202  67.117  80.406  1.00  0.00    -0.493 OA
ATOM     21  C   UNL     1      88.551  66.945  79.937  1.00  0.00     0.278 C 
ENDBRANCH  17  20
BRANCH  19  22
ATOM     22  O   UNL     1      86.461  66.051  82.860  1.00  0.00    -0.504 OA
ATOM     23  H   UNL     1      85.792  65.891  83.530  1.00  0.00     0.293 HD
ENDBRANCH  19  22
ENDBRANCH  13  14
ENDBRANCH  11  13
ENDBRANCH   8   9
ENDBRANCH   1   8
TORSDOF 11
ENDMDL
MODEL 7
REMARK VINA RESULT:    -5.645      4.073      8.245
REMARK INTER + INTRA:          -9.786
REMARK INTER:                  -9.095
REMARK INTRA:                  -0.691
REMARK UNBOUND:                -0.676
REMARK SMILES CCCCCCCCC(=O)NCc1ccc(O)c(OC)c1
REMARK SMILES IDX 7 1 6 2 5 3 4 4 3 5 2 6 1 7 8 8 9 9 10 10 11 11 12 13 13 14
REMARK SMILES IDX 21 15 14 16 18 17 15 18 16 19 19 20 20 21 17 22
REMARK H PARENT 11 12 17 23
REMARK Flexibility Score: inf
ROOT
ATOM      1  C   UNL     1      95.770  97.359  74.347  1.00  0.00     0.010 C 
ENDROOT
BRANCH   1   2
ATOM      2  C   UNL     1      96.306  97.438  72.888  1.00  0.00     0.001 C 
BRANCH   2   3
ATOM      3  C   UNL     1      97.825  97.777  72.837  1.00  0.00     0.000 C 
BRANCH   3   4
ATOM      4  C   UNL     1      98.668  96.758  72.019  1.00  0.00    -0.000 C 
BRANCH   4   5
ATOM      5  C   UNL     1      97.802  95.628  71.394  1.00  0.00    -0.000 C 
BRANCH   5   6
ATOM      6  C   UNL     1      97.814  95.658  69.842  1.00  0.00    -0.003 C 
ATOM      7  C   UNL     1      96.729  96.585  69.250  1.00  0.00     0.004 C 
ENDBRANCH   5   6
ENDBRANCH   4   5
ENDBRANCH   3   4
ENDBRANCH   2   3
ENDBRANCH   1   2
BRANCH   1   8
ATOM      8  C   UNL     1      94.359  96.717  74.464  1.00  0.00     0.100 C 
BRANCH   8   9
ATOM      9  C   UNL     1      94.405  95.446  75.226  1.00  0.00     0.220 C 
ATOM     10  O   UNL     1      95.525  94.925  75.446  1.00  0.00    -0.275 OA
ATOM     11  N   UNL     1      93.257  94.878  75.699  1.00  0.00    -0.352 N 
ATOM     12  H   UNL     1      92.410  95.332  75.392  1.00  0.00     0.163 HD
BRANCH  11  13
ATOM     13  C   UNL     1      93.183  93.738  76.561  1.00  0.00     0.151 C 
BRANCH  13  14
ATOM     14  C   UNL     1      91.911  92.976  76.440  1.00  0.00    -0.025 A 
ATOM     15  C   UNL     1      91.523  92.431  75.193  1.00  0.00     0.056 A 
ATOM     16  C   UNL     1      91.069  92.784  77.560  1.00  0.00     0.009 A 
ATOM     17  C   UNL     1      90.326  91.689  75.067  1.00  0.00     0.160 A 
ATOM     18  C   UNL     1      89.878  92.046  77.441  1.00  0.00     0.050 A 
ATOM     19  C   UNL     1      89.500  91.505  76.198  1.00  0.00     0.157 A 
BRANCH  17  20
ATOM     20  O   UNL     1      89.931  91.198  73.848  1.00  0.00    -0.493 OA
ATOM     21  C   UNL     1      90.826  91.514  72.767  1.00  0.00     0.278 C 
ENDBRANCH  17  20
BRANCH  19  22
ATOM     22  O   UNL     1      88.334  90.817  76.087  1.00  0.00    -0.504 OA
ATOM     23  H   UNL     1      88.112  90.712  75.159  1.00  0.00     0.293 HD
ENDBRANCH  19  22
ENDBRANCH  13  14
ENDBRANCH  11  13
ENDBRANCH   8   9
ENDBRANCH   1   8
TORSDOF 11
ENDMDL
MODEL 8
REMARK VINA RESULT:    -5.599      2.679      4.264
REMARK INTER + INTRA:          -9.713
REMARK INTER:                  -8.917
REMARK INTRA:                  -0.795
REMARK UNBOUND:                -0.676
REMARK SMILES CCCCCCCCC(=O)NCc1ccc(O)c(OC)c1
REMARK SMILES IDX 7 1 6 2 5 3 4 4 3 5 2 6 1 7 8 8 9 9 10 10 11 11 12 13 13 14
REMARK SMILES IDX 21 15 14 16 18 17 15 18 16 19 19 20 20 21 17 22
REMARK H PARENT 11 12 17 23
REMARK Flexibility Score: inf
ROOT
ATOM      1  C   UNL     1      93.830  94.488  76.264  1.00  0.00     0.010 C 
ENDROOT
BRANCH   1   2
ATOM      2  C   UNL     1      92.464  94.416  75.524  1.00  0.00     0.001 C 
BRANCH   2   3
ATOM      3  C   UNL     1      91.276  94.839  76.437  1.00  0.00     0.000 C 
BRANCH   3   4
ATOM      4  C   UNL     1      89.981  94.010  76.205  1.00  0.00    -0.000 C 
BRANCH   4   5
ATOM      5  C   UNL     1      89.813  92.859  77.236  1.00  0.00    -0.000 C 
BRANCH   5   6
ATOM      6  C   UNL     1      90.532  91.555  76.796  1.00  0.00    -0.003 C 
ATOM      7  C   UNL     1      89.607  90.319  76.827  1.00  0.00     0.004 C 
ENDBRANCH   5   6
ENDBRANCH   4   5
ENDBRANCH   3   4
ENDBRANCH   2   3
ENDBRANCH   1   2
BRANCH   1   8
ATOM      8  C   UNL     1      93.760  94.062  77.758  1.00  0.00     0.100 C 
BRANCH   8   9
ATOM      9  C   UNL     1      95.075  94.215  78.425  1.00  0.00     0.220 C 
ATOM     10  O   UNL     1      96.092  94.375  77.707  1.00  0.00    -0.275 OA
ATOM     11  N   UNL     1      95.167  94.208  79.787  1.00  0.00    -0.352 N 
ATOM     12  H   UNL     1      94.305  93.986  80.263  1.00  0.00     0.163 HD
BRANCH  11  13
ATOM     13  C   UNL     1      96.348  94.485  80.547  1.00  0.00     0.151 C 
BRANCH  13  14
ATOM     14  C   UNL     1      96.417  95.877  81.065  1.00  0.00    -0.025 A 
ATOM     15  C   UNL     1      96.232  96.134  82.445  1.00  0.00     0.056 A 
ATOM     16  C   UNL     1      96.664  96.965  80.196  1.00  0.00     0.009 A 
ATOM     17  C   UNL     1      96.312  97.450  82.955  1.00  0.00     0.160 A 
ATOM     18  C   UNL     1      96.746  98.276  80.697  1.00  0.00     0.050 A 
ATOM     19  C   UNL     1      96.563  98.524  82.071  1.00  0.00     0.157 A 
BRANCH  17  20
ATOM     20  O   UNL     1      96.089  97.701  84.285  1.00  0.00    -0.493 OA
ATOM     21  C   UNL     1      97.218  97.424  85.133  1.00  0.00     0.278 C 
ENDBRANCH  17  20
BRANCH  19  22
ATOM     22  O   UNL     1      96.617  99.796  82.541  1.00  0.00    -0.504 OA
ATOM     23  H   UNL     1      95.915  99.931  83.182  1.00  0.00     0.293 HD
ENDBRANCH  19  22
ENDBRANCH  13  14
ENDBRANCH  11  13
ENDBRANCH   8   9
ENDBRANCH   1   8
TORSDOF 11
ENDMDL
MODEL 9
REMARK VINA RESULT:    -5.593      2.660      8.792
REMARK INTER + INTRA:          -9.702
REMARK INTER:                  -9.127
REMARK INTRA:                  -0.575
REMARK UNBOUND:                -0.676
REMARK SMILES CCCCCCCCC(=O)NCc1ccc(O)c(OC)c1
REMARK SMILES IDX 7 1 6 2 5 3 4 4 3 5 2 6 1 7 8 8 9 9 10 10 11 11 12 13 13 14
REMARK SMILES IDX 21 15 14 16 18 17 15 18 16 19 19 20 20 21 17 22
REMARK H PARENT 11 12 17 23
REMARK Flexibility Score: inf
ROOT
ATOM      1  C   UNL     1      95.197  94.743  79.171  1.00  0.00     0.010 C 
ENDROOT
BRANCH   1   2
ATOM      2  C   UNL     1      96.144  94.730  80.405  1.00  0.00     0.001 C 
BRANCH   2   3
ATOM      3  C   UNL     1      96.718  96.142  80.723  1.00  0.00     0.000 C 
BRANCH   3   4
ATOM      4  C   UNL     1      96.137  96.778  82.018  1.00  0.00    -0.000 C 
BRANCH   4   5
ATOM      5  C   UNL     1      96.793  98.146  82.361  1.00  0.00    -0.000 C 
BRANCH   5   6
ATOM      6  C   UNL     1      97.236  98.929  81.096  1.00  0.00    -0.003 C 
ATOM      7  C   UNL     1      96.182  99.954  80.625  1.00  0.00     0.004 C 
ENDBRANCH   5   6
ENDBRANCH   4   5
ENDBRANCH   3   4
ENDBRANCH   2   3
ENDBRANCH   1   2
BRANCH   1   8
ATOM      8  C   UNL     1      95.805  94.080  77.904  1.00  0.00     0.100 C 
BRANCH   8   9
ATOM      9  C   UNL     1      94.787  93.921  76.837  1.00  0.00     0.220 C 
ATOM     10  O   UNL     1      95.167  93.952  75.642  1.00  0.00    -0.275 OA
ATOM     11  N   UNL     1      93.475  93.716  77.155  1.00  0.00    -0.352 N 
ATOM     12  H   UNL     1      93.267  93.795  78.140  1.00  0.00     0.163 HD
BRANCH  11  13
ATOM     13  C   UNL     1      92.428  93.409  76.229  1.00  0.00     0.151 C 
BRANCH  13  14
ATOM     14  C   UNL     1      91.581  92.258  76.639  1.00  0.00    -0.025 A 
ATOM     15  C   UNL     1      91.320  91.205  75.729  1.00  0.00     0.056 A 
ATOM     16  C   UNL     1      91.019  92.194  77.935  1.00  0.00     0.009 A 
ATOM     17  C   UNL     1      90.530  90.096  76.110  1.00  0.00     0.160 A 
ATOM     18  C   UNL     1      90.234  91.093  78.320  1.00  0.00     0.050 A 
ATOM     19  C   UNL     1      89.981  90.048  77.411  1.00  0.00     0.157 A 
BRANCH  17  20
ATOM     20  O   UNL     1      90.243  89.098  75.213  1.00  0.00    -0.493 OA
ATOM     21  C   UNL     1      91.286  88.117  75.070  1.00  0.00     0.278 C 
ENDBRANCH  17  20
BRANCH  19  22
ATOM     22  O   UNL     1      89.198  89.003  77.783  1.00  0.00    -0.504 OA
ATOM     23  H   UNL     1      89.198  88.340  77.089  1.00  0.00     0.293 HD
ENDBRANCH  19  22
ENDBRANCH  13  14
ENDBRANCH  11  13
ENDBRANCH   8   9
ENDBRANCH   1   8
TORSDOF 11
ENDMDL
MODEL 10
REMARK VINA RESULT:    -5.481     14.709     17.253
REMARK INTER + INTRA:          -9.522
REMARK INTER:                  -8.345
REMARK INTRA:                  -1.177
REMARK UNBOUND:                -0.676
REMARK SMILES CCCCCCCCC(=O)NCc1ccc(O)c(OC)c1
REMARK SMILES IDX 7 1 6 2 5 3 4 4 3 5 2 6 1 7 8 8 9 9 10 10 11 11 12 13 13 14
REMARK SMILES IDX 21 15 14 16 18 17 15 18 16 19 19 20 20 21 17 22
REMARK H PARENT 11 12 17 23
REMARK Flexibility Score: inf
ROOT
ATOM      1  C   UNL     1      79.701  88.019  83.855  1.00  0.00     0.010 C 
ENDROOT
BRANCH   1   2
ATOM      2  C   UNL     1      80.214  89.036  84.916  1.00  0.00     0.001 C 
BRANCH   2   3
ATOM      3  C   UNL     1      81.219  90.060  84.311  1.00  0.00     0.000 C 
BRANCH   3   4
ATOM      4  C   UNL     1      82.696  89.811  84.729  1.00  0.00    -0.000 C 
BRANCH   4   5
ATOM      5  C   UNL     1      83.033  90.407  86.126  1.00  0.00    -0.000 C 
BRANCH   5   6
ATOM      6  C   UNL     1      84.539  90.752  86.279  1.00  0.00    -0.003 C 
ATOM      7  C   UNL     1      85.013  91.826  85.275  1.00  0.00     0.004 C 
ENDBRANCH   5   6
ENDBRANCH   4   5
ENDBRANCH   3   4
ENDBRANCH   2   3
ENDBRANCH   1   2
BRANCH   1   8
ATOM      8  C   UNL     1      80.547  86.718  83.769  1.00  0.00     0.100 C 
BRANCH   8   9
ATOM      9  C   UNL     1      81.172  86.393  85.074  1.00  0.00     0.220 C 
ATOM     10  O   UNL     1      82.423  86.432  85.161  1.00  0.00    -0.275 OA
ATOM     11  N   UNL     1      80.398  86.089  86.157  1.00  0.00    -0.352 N 
ATOM     12  H   UNL     1      79.413  86.002  85.955  1.00  0.00     0.163 HD
BRANCH  11  13
ATOM     13  C   UNL     1      80.871  85.897  87.494  1.00  0.00     0.151 C 
BRANCH  13  14
ATOM     14  C   UNL     1      80.626  87.059  88.391  1.00  0.00    -0.025 A 
ATOM     15  C   UNL     1      79.363  87.230  89.006  1.00  0.00     0.056 A 
ATOM     16  C   UNL     1      81.642  88.010  88.642  1.00  0.00     0.009 A 
ATOM     17  C   UNL     1      79.121  88.320  89.874  1.00  0.00     0.160 A 
ATOM     18  C   UNL     1      81.408  89.095  89.505  1.00  0.00     0.050 A 
ATOM     19  C   UNL     1      80.150  89.258  90.116  1.00  0.00     0.157 A 
BRANCH  17  20
ATOM     20  O   UNL     1      77.883  88.508  90.436  1.00  0.00    -0.493 OA
ATOM     21  C   UNL     1      77.614  87.658  91.565  1.00  0.00     0.278 C 
ENDBRANCH  17  20
BRANCH  19  22
ATOM     22  O   UNL     1      79.925  90.324  90.926  1.00  0.00    -0.504 OA
ATOM     23  H   UNL     1      80.607  90.362  91.601  1.00  0.00     0.293 HD
ENDBRANCH  19  22
ENDBRANCH  13  14
ENDBRANCH  11  13
ENDBRANCH   8   9
ENDBRANCH   1   8
TORSDOF 11
ENDMDL
