MODEL 1
REMARK VINA RESULT:    -6.151      0.000      0.000
REMARK INTER + INTRA:         -10.187
REMARK INTER:                  -9.568
REMARK INTRA:                  -0.620
REMARK UNBOUND:                -0.620
REMARK SMILES COc1cc(CNC(=O)CCCC/C=C/C(C)C)ccc1O
REMARK SMILES IDX 10 1 8 2 7 3 9 5 6 6 5 7 3 8 21 9 4 10 20 11 19 12 2 13 1 14
REMARK SMILES IDX 22 15 11 17 12 18 13 19 14 20 15 21 16 22 17 23 18 24
REMARK H PARENT 7 4 22 16
REMARK Flexibility Score: inf
ROOT
ATOM      1  C   UNL     1      96.837  81.774  77.501  1.00  0.00     0.100 C 
ENDROOT
BRANCH   1   2
ATOM      2  C   UNL     1      97.383  81.950  78.861  1.00  0.00     0.220 C 
ATOM      3  N   UNL     1      96.549  82.136  79.922  1.00  0.00    -0.352 N 
ATOM      4  H   UNL     1      95.565  82.164  79.692  1.00  0.00     0.163 HD
ATOM      5  O   UNL     1      98.628  81.900  79.010  1.00  0.00    -0.275 OA
BRANCH   3   6
ATOM      6  C   UNL     1      96.974  82.284  81.277  1.00  0.00     0.151 C 
BRANCH   6   7
ATOM      7  C   UNL     1      96.476  81.170  82.131  1.00  0.00    -0.025 A 
ATOM      8  C   UNL     1      95.191  80.396  84.083  1.00  0.00     0.160 A 
ATOM      9  C   UNL     1      95.502  79.059  83.758  1.00  0.00     0.157 A 
ATOM     10  C   UNL     1      95.682  81.438  83.269  1.00  0.00     0.056 A 
ATOM     11  C   UNL     1      96.309  78.778  82.638  1.00  0.00     0.050 A 
ATOM     12  C   UNL     1      96.785  79.825  81.824  1.00  0.00     0.009 A 
BRANCH   8  13
ATOM     13  O   UNL     1      94.461  80.678  85.210  1.00  0.00    -0.493 OA
ATOM     14  C   UNL     1      93.122  81.132  84.942  1.00  0.00     0.278 C 
ENDBRANCH   8  13
BRANCH   9  15
ATOM     15  O   UNL     1      95.035  78.032  84.513  1.00  0.00    -0.504 OA
ATOM     16  H   UNL     1      94.470  77.470  83.977  1.00  0.00     0.293 HD
ENDBRANCH   9  15
ENDBRANCH   6   7
ENDBRANCH   3   6
ENDBRANCH   1   2
BRANCH   1  17
ATOM     17  C   UNL     1      95.688  82.777  77.211  1.00  0.00     0.010 C 
BRANCH  17  18
ATOM     18  C   UNL     1      95.925  83.612  75.922  1.00  0.00     0.005 C 
BRANCH  18  19
ATOM     19  C   UNL     1      96.495  82.754  74.759  1.00  0.00     0.027 C 
BRANCH  19  20
ATOM     20  C   UNL     1      97.823  83.191  74.357  1.00  0.00    -0.031 C 
ATOM     21  C   UNL     1      98.451  82.774  73.243  1.00  0.00    -0.028 C 
BRANCH  21  22
ATOM     22  C   UNL     1      99.780  83.243  72.847  1.00  0.00     0.005 C 
ATOM     23  C   UNL     1     100.437  82.320  71.784  1.00  0.00     0.012 C 
ATOM     24  C   UNL     1      99.703  84.705  72.338  1.00  0.00     0.012 C 
ENDBRANCH  21  22
ENDBRANCH  19  20
ENDBRANCH  18  19
ENDBRANCH  17  18
ENDBRANCH   1  17
TORSDOF 10
ENDMDL
MODEL 2
REMARK VINA RESULT:    -6.129     24.618     26.857
REMARK INTER + INTRA:         -10.153
REMARK INTER:                  -9.582
REMARK INTRA:                  -0.571
REMARK UNBOUND:                -0.620
REMARK SMILES COc1cc(CNC(=O)CCCC/C=C/C(C)C)ccc1O
REMARK SMILES IDX 10 1 8 2 7 3 9 5 6 6 5 7 3 8 21 9 4 10 20 11 19 12 2 13 1 14
REMARK SMILES IDX 22 15 11 17 12 18 13 19 14 20 15 21 16 22 17 23 18 24
REMARK H PARENT 7 4 22 16
REMARK Flexibility Score: inf
ROOT
ATOM      1  C   UNL     1      76.631  84.858  68.084  1.00  0.00     0.100 C 
ENDROOT
BRANCH   1   2
ATOM      2  C   UNL     1      76.791  83.929  66.949  1.00  0.00     0.220 C 
ATOM      3  N   UNL     1      75.703  83.498  66.250  1.00  0.00    -0.352 N 
ATOM      4  H   UNL     1      74.815  83.843  66.587  1.00  0.00     0.163 HD
ATOM      5  O   UNL     1      77.952  83.571  66.635  1.00  0.00    -0.275 OA
BRANCH   3   6
ATOM      6  C   UNL     1      75.753  82.627  65.119  1.00  0.00     0.151 C 
BRANCH   6   7
ATOM      7  C   UNL     1      74.389  82.250  64.659  1.00  0.00    -0.025 A 
ATOM      8  C   UNL     1      71.966  82.110  65.072  1.00  0.00     0.160 A 
ATOM      9  C   UNL     1      71.778  81.555  63.789  1.00  0.00     0.157 A 
ATOM     10  C   UNL     1      73.268  82.450  65.495  1.00  0.00     0.056 A 
ATOM     11  C   UNL     1      72.889  81.333  62.951  1.00  0.00     0.050 A 
ATOM     12  C   UNL     1      74.184  81.686  63.378  1.00  0.00     0.009 A 
BRANCH   8  13
ATOM     13  O   UNL     1      70.896  82.268  65.916  1.00  0.00    -0.493 OA
ATOM     14  C   UNL     1      70.512  83.639  66.126  1.00  0.00     0.278 C 
ENDBRANCH   8  13
BRANCH   9  15
ATOM     15  O   UNL     1      70.537  81.230  63.346  1.00  0.00    -0.504 OA
ATOM     16  H   UNL     1      70.132  80.608  63.955  1.00  0.00     0.293 HD
ENDBRANCH   9  15
ENDBRANCH   6   7
ENDBRANCH   3   6
ENDBRANCH   1   2
BRANCH   1  17
ATOM     17  C   UNL     1      77.368  86.201  67.834  1.00  0.00     0.010 C 
BRANCH  17  18
ATOM     18  C   UNL     1      76.403  87.360  67.458  1.00  0.00     0.005 C 
BRANCH  18  19
ATOM     19  C   UNL     1      77.023  88.757  67.732  1.00  0.00     0.027 C 
BRANCH  19  20
ATOM     20  C   UNL     1      76.006  89.763  68.003  1.00  0.00    -0.031 C 
ATOM     21  C   UNL     1      75.332  89.863  69.163  1.00  0.00    -0.028 C 
BRANCH  21  22
ATOM     22  C   UNL     1      74.328  90.895  69.421  1.00  0.00     0.005 C 
ATOM     23  C   UNL     1      73.081  90.332  70.157  1.00  0.00     0.012 C 
ATOM     24  C   UNL     1      74.957  92.068  70.216  1.00  0.00     0.012 C 
ENDBRANCH  21  22
ENDBRANCH  19  20
ENDBRANCH  18  19
ENDBRANCH  17  18
ENDBRANCH   1  17
TORSDOF 10
ENDMDL
MODEL 3
REMARK VINA RESULT:    -6.005     13.184     15.663
REMARK INTER + INTRA:          -9.959
REMARK INTER:                  -9.155
REMARK INTRA:                  -0.804
REMARK UNBOUND:                -0.620
REMARK SMILES COc1cc(CNC(=O)CCCC/C=C/C(C)C)ccc1O
REMARK SMILES IDX 10 1 8 2 7 3 9 5 6 6 5 7 3 8 21 9 4 10 20 11 19 12 2 13 1 14
REMARK SMILES IDX 22 15 11 17 12 18 13 19 14 20 15 21 16 22 17 23 18 24
REMARK H PARENT 7 4 22 16
REMARK Flexibility Score: inf
ROOT
ATOM      1  C   UNL     1      96.546  95.910  80.649  1.00  0.00     0.100 C 
ENDROOT
BRANCH   1   2
ATOM      2  C   UNL     1      95.777  94.798  80.059  1.00  0.00     0.220 C 
ATOM      3  N   UNL     1      95.615  94.708  78.709  1.00  0.00    -0.352 N 
ATOM      4  H   UNL     1      96.035  95.459  78.179  1.00  0.00     0.163 HD
ATOM      5  O   UNL     1      95.300  93.932  80.832  1.00  0.00    -0.275 OA
BRANCH   3   6
ATOM      6  C   UNL     1      94.918  93.657  78.039  1.00  0.00     0.151 C 
BRANCH   6   7
ATOM      7  C   UNL     1      93.524  94.054  77.702  1.00  0.00    -0.025 A 
ATOM      8  C   UNL     1      91.121  93.523  77.618  1.00  0.00     0.160 A 
ATOM      9  C   UNL     1      90.857  94.802  77.084  1.00  0.00     0.157 A 
ATOM     10  C   UNL     1      92.451  93.161  77.919  1.00  0.00     0.056 A 
ATOM     11  C   UNL     1      91.919  95.696  76.845  1.00  0.00     0.050 A 
ATOM     12  C   UNL     1      93.242  95.330  77.160  1.00  0.00     0.009 A 
BRANCH   8  13
ATOM     13  O   UNL     1      90.098  92.626  77.791  1.00  0.00    -0.493 OA
ATOM     14  C   UNL     1      89.967  91.672  76.722  1.00  0.00     0.278 C 
ENDBRANCH   8  13
BRANCH   9  15
ATOM     15  O   UNL     1      89.587  95.187  76.796  1.00  0.00    -0.504 OA
ATOM     16  H   UNL     1      88.968  94.653  77.298  1.00  0.00     0.293 HD
ENDBRANCH   9  15
ENDBRANCH   6   7
ENDBRANCH   3   6
ENDBRANCH   1   2
BRANCH   1  17
ATOM     17  C   UNL     1      95.892  96.428  81.958  1.00  0.00     0.010 C 
BRANCH  17  18
ATOM     18  C   UNL     1      96.935  96.899  83.010  1.00  0.00     0.005 C 
BRANCH  18  19
ATOM     19  C   UNL     1      98.312  97.227  82.372  1.00  0.00     0.027 C 
BRANCH  19  20
ATOM     20  C   UNL     1      99.420  96.846  83.234  1.00  0.00    -0.031 C 
ATOM     21  C   UNL     1      99.323  95.963  84.244  1.00  0.00    -0.028 C 
BRANCH  21  22
ATOM     22  C   UNL     1     100.456  95.580  85.087  1.00  0.00     0.005 C 
ATOM     23  C   UNL     1     101.757  95.371  84.265  1.00  0.00     0.012 C 
ATOM     24  C   UNL     1     100.671  96.632  86.206  1.00  0.00     0.012 C 
ENDBRANCH  21  22
ENDBRANCH  19  20
ENDBRANCH  18  19
ENDBRANCH  17  18
ENDBRANCH   1  17
TORSDOF 10
ENDMDL
MODEL 4
REMARK VINA RESULT:    -5.888     13.991     16.447
REMARK INTER + INTRA:          -9.778
REMARK INTER:                  -9.056
REMARK INTRA:                  -0.723
REMARK UNBOUND:                -0.620
REMARK SMILES COc1cc(CNC(=O)CCCC/C=C/C(C)C)ccc1O
REMARK SMILES IDX 10 1 8 2 7 3 9 5 6 6 5 7 3 8 21 9 4 10 20 11 19 12 2 13 1 14
REMARK SMILES IDX 22 15 11 17 12 18 13 19 14 20 15 21 16 22 17 23 18 24
REMARK H PARENT 7 4 22 16
REMARK Flexibility Score: inf
ROOT
ATOM      1  C   UNL     1      96.976  96.080  80.366  1.00  0.00     0.100 C 
ENDROOT
BRANCH   1   2
ATOM      2  C   UNL     1      96.012  94.971  80.229  1.00  0.00     0.220 C 
ATOM      3  N   UNL     1      95.669  94.501  78.997  1.00  0.00    -0.352 N 
ATOM      4  H   UNL     1      96.103  94.982  78.221  1.00  0.00     0.163 HD
ATOM      5  O   UNL     1      95.540  94.464  81.275  1.00  0.00    -0.275 OA
BRANCH   3   6
ATOM      6  C   UNL     1      94.774  93.414  78.759  1.00  0.00     0.151 C 
BRANCH   6   7
ATOM      7  C   UNL     1      93.485  93.885  78.182  1.00  0.00    -0.025 A 
ATOM      8  C   UNL     1      91.109  93.487  77.672  1.00  0.00     0.160 A 
ATOM      9  C   UNL     1      91.015  94.774  77.104  1.00  0.00     0.157 A 
ATOM     10  C   UNL     1      92.342  93.054  78.203  1.00  0.00     0.056 A 
ATOM     11  C   UNL     1      92.150  95.606  77.057  1.00  0.00     0.050 A 
ATOM     12  C   UNL     1      93.374  95.170  77.601  1.00  0.00     0.009 A 
BRANCH   8  13
ATOM     13  O   UNL     1      90.024  92.648  77.660  1.00  0.00    -0.493 OA
ATOM     14  C   UNL     1      90.019  91.710  76.568  1.00  0.00     0.278 C 
ENDBRANCH   8  13
BRANCH   9  15
ATOM     15  O   UNL     1      89.839  95.226  76.595  1.00  0.00    -0.504 OA
ATOM     16  H   UNL     1      89.604  94.708  75.822  1.00  0.00     0.293 HD
ENDBRANCH   9  15
ENDBRANCH   6   7
ENDBRANCH   3   6
ENDBRANCH   1   2
BRANCH   1  17
ATOM     17  C   UNL     1      96.546  97.079  81.473  1.00  0.00     0.010 C 
BRANCH  17  18
ATOM     18  C   UNL     1      97.084  98.518  81.233  1.00  0.00     0.005 C 
BRANCH  18  19
ATOM     19  C   UNL     1      96.329  99.580  82.077  1.00  0.00     0.027 C 
BRANCH  19  20
ATOM     20  C   UNL     1      96.248  99.207  83.481  1.00  0.00    -0.031 C 
ATOM     21  C   UNL     1      97.295  99.213  84.326  1.00  0.00    -0.028 C 
BRANCH  21  22
ATOM     22  C   UNL     1      97.187  98.853  85.740  1.00  0.00     0.005 C 
ATOM     23  C   UNL     1      96.503  97.473  85.945  1.00  0.00     0.012 C 
ATOM     24  C   UNL     1      98.586  98.882  86.409  1.00  0.00     0.012 C 
ENDBRANCH  21  22
ENDBRANCH  19  20
ENDBRANCH  18  19
ENDBRANCH  17  18
ENDBRANCH   1  17
TORSDOF 10
ENDMDL
MODEL 5
REMARK VINA RESULT:    -5.877      2.521      9.198
REMARK INTER + INTRA:          -9.760
REMARK INTER:                  -8.794
REMARK INTRA:                  -0.966
REMARK UNBOUND:                -0.620
REMARK SMILES COc1cc(CNC(=O)CCCC/C=C/C(C)C)ccc1O
REMARK SMILES IDX 10 1 8 2 7 3 9 5 6 6 5 7 3 8 21 9 4 10 20 11 19 12 2 13 1 14
REMARK SMILES IDX 22 15 11 17 12 18 13 19 14 20 15 21 16 22 17 23 18 24
REMARK H PARENT 7 4 22 16
REMARK Flexibility Score: inf
ROOT
ATOM      1  C   UNL     1      99.018  79.787  81.557  1.00  0.00     0.100 C 
ENDROOT
BRANCH   1   2
ATOM      2  C   UNL     1      98.953  79.527  80.106  1.00  0.00     0.220 C 
ATOM      3  N   UNL     1      99.167  80.534  79.213  1.00  0.00    -0.352 N 
ATOM      4  H   UNL     1      99.341  81.440  79.626  1.00  0.00     0.163 HD
ATOM      5  O   UNL     1      98.720  78.355  79.723  1.00  0.00    -0.275 OA
BRANCH   3   6
ATOM      6  C   UNL     1      99.158  80.381  77.793  1.00  0.00     0.151 C 
BRANCH   6   7
ATOM      7  C   UNL     1      98.179  81.300  77.150  1.00  0.00    -0.025 A 
ATOM      8  C   UNL     1      97.490  82.663  75.219  1.00  0.00     0.160 A 
ATOM      9  C   UNL     1      96.314  83.038  75.902  1.00  0.00     0.157 A 
ATOM     10  C   UNL     1      98.411  81.801  75.850  1.00  0.00     0.056 A 
ATOM     11  C   UNL     1      96.079  82.562  77.207  1.00  0.00     0.050 A 
ATOM     12  C   UNL     1      96.999  81.692  77.824  1.00  0.00     0.009 A 
BRANCH   8  13
ATOM     13  O   UNL     1      97.755  83.176  73.975  1.00  0.00    -0.493 OA
ATOM     14  C   UNL     1      98.675  82.386  73.199  1.00  0.00     0.278 C 
ENDBRANCH   8  13
BRANCH   9  15
ATOM     15  O   UNL     1      95.401  83.856  75.319  1.00  0.00    -0.504 OA
ATOM     16  H   UNL     1      95.816  84.340  74.601  1.00  0.00     0.293 HD
ENDBRANCH   9  15
ENDBRANCH   6   7
ENDBRANCH   3   6
ENDBRANCH   1   2
BRANCH   1  17
ATOM     17  C   UNL     1      98.057  80.931  81.977  1.00  0.00     0.010 C 
BRANCH  17  18
ATOM     18  C   UNL     1      96.558  80.541  81.848  1.00  0.00     0.005 C 
BRANCH  18  19
ATOM     19  C   UNL     1      96.165  79.380  82.801  1.00  0.00     0.027 C 
BRANCH  19  20
ATOM     20  C   UNL     1      95.348  79.838  83.914  1.00  0.00    -0.031 C 
ATOM     21  C   UNL     1      94.999  81.122  84.117  1.00  0.00    -0.028 C 
BRANCH  21  22
ATOM     22  C   UNL     1      94.159  81.557  85.233  1.00  0.00     0.005 C 
ATOM     23  C   UNL     1      94.376  83.055  85.584  1.00  0.00     0.012 C 
ATOM     24  C   UNL     1      92.667  81.272  84.925  1.00  0.00     0.012 C 
ENDBRANCH  21  22
ENDBRANCH  19  20
ENDBRANCH  18  19
ENDBRANCH  17  18
ENDBRANCH   1  17
TORSDOF 10
ENDMDL
MODEL 6
REMARK VINA RESULT:    -5.874     14.613     16.744
REMARK INTER + INTRA:          -9.755
REMARK INTER:                  -9.133
REMARK INTRA:                  -0.623
REMARK UNBOUND:                -0.620
REMARK SMILES COc1cc(CNC(=O)CCCC/C=C/C(C)C)ccc1O
REMARK SMILES IDX 10 1 8 2 7 3 9 5 6 6 5 7 3 8 21 9 4 10 20 11 19 12 2 13 1 14
REMARK SMILES IDX 22 15 11 17 12 18 13 19 14 20 15 21 16 22 17 23 18 24
REMARK H PARENT 7 4 22 16
REMARK Flexibility Score: inf
ROOT
ATOM      1  C   UNL     1      97.282  96.255  81.318  1.00  0.00     0.100 C 
ENDROOT
BRANCH   1   2
ATOM      2  C   UNL     1      96.381  95.147  80.948  1.00  0.00     0.220 C 
ATOM      3  N   UNL     1      96.426  94.607  79.698  1.00  0.00    -0.352 N 
ATOM      4  H   UNL     1      97.091  95.038  79.071  1.00  0.00     0.163 HD
ATOM      5  O   UNL     1      95.595  94.706  81.821  1.00  0.00    -0.275 OA
BRANCH   3   6
ATOM      6  C   UNL     1      95.621  93.515  79.252  1.00  0.00     0.151 C 
BRANCH   6   7
ATOM      7  C   UNL     1      94.375  93.989  78.590  1.00  0.00    -0.025 A 
ATOM      8  C   UNL     1      92.029  93.608  77.949  1.00  0.00     0.160 A 
ATOM      9  C   UNL     1      91.984  94.885  77.351  1.00  0.00     0.157 A 
ATOM     10  C   UNL     1      93.222  93.172  78.560  1.00  0.00     0.056 A 
ATOM     11  C   UNL     1      93.131  95.703  77.356  1.00  0.00     0.050 A 
ATOM     12  C   UNL     1      94.315  95.263  77.979  1.00  0.00     0.009 A 
BRANCH   8  13
ATOM     13  O   UNL     1      90.935  92.782  77.888  1.00  0.00    -0.493 OA
ATOM     14  C   UNL     1      90.745  92.153  76.608  1.00  0.00     0.278 C 
ENDBRANCH   8  13
BRANCH   9  15
ATOM     15  O   UNL     1      90.847  95.340  76.765  1.00  0.00    -0.504 OA
ATOM     16  H   UNL     1      90.092  94.861  77.114  1.00  0.00     0.293 HD
ENDBRANCH   9  15
ENDBRANCH   6   7
ENDBRANCH   3   6
ENDBRANCH   1   2
BRANCH   1  17
ATOM     17  C   UNL     1      96.774  97.011  82.575  1.00  0.00     0.010 C 
BRANCH  17  18
ATOM     18  C   UNL     1      95.925  98.265  82.225  1.00  0.00     0.005 C 
BRANCH  18  19
ATOM     19  C   UNL     1      96.718  99.298  81.380  1.00  0.00     0.027 C 
BRANCH  19  20
ATOM     20  C   UNL     1      96.064 100.598  81.349  1.00  0.00    -0.031 C 
ATOM     21  C   UNL     1      95.039 100.947  82.146  1.00  0.00    -0.028 C 
BRANCH  21  22
ATOM     22  C   UNL     1      94.409 102.267  82.111  1.00  0.00     0.005 C 
ATOM     23  C   UNL     1      94.571 102.961  80.731  1.00  0.00     0.012 C 
ATOM     24  C   UNL     1      92.912 102.157  82.503  1.00  0.00     0.012 C 
ENDBRANCH  21  22
ENDBRANCH  19  20
ENDBRANCH  18  19
ENDBRANCH  17  18
ENDBRANCH   1  17
TORSDOF 10
ENDMDL
MODEL 7
REMARK VINA RESULT:    -5.869     14.244     16.722
REMARK INTER + INTRA:          -9.749
REMARK INTER:                  -9.104
REMARK INTRA:                  -0.645
REMARK UNBOUND:                -0.620
REMARK SMILES COc1cc(CNC(=O)CCCC/C=C/C(C)C)ccc1O
REMARK SMILES IDX 10 1 8 2 7 3 9 5 6 6 5 7 3 8 21 9 4 10 20 11 19 12 2 13 1 14
REMARK SMILES IDX 22 15 11 17 12 18 13 19 14 20 15 21 16 22 17 23 18 24
REMARK H PARENT 7 4 22 16
REMARK Flexibility Score: inf
ROOT
ATOM      1  C   UNL     1      97.354  96.037  80.748  1.00  0.00     0.100 C 
ENDROOT
BRANCH   1   2
ATOM      2  C   UNL     1      96.478  94.880  80.487  1.00  0.00     0.220 C 
ATOM      3  N   UNL     1      96.652  94.119  79.370  1.00  0.00    -0.352 N 
ATOM      4  H   UNL     1      97.392  94.427  78.755  1.00  0.00     0.163 HD
ATOM      5  O   UNL     1      95.589  94.607  81.330  1.00  0.00    -0.275 OA
BRANCH   3   6
ATOM      6  C   UNL     1      95.881  92.963  79.042  1.00  0.00     0.151 C 
BRANCH   6   7
ATOM      7  C   UNL     1      94.710  93.310  78.191  1.00  0.00    -0.025 A 
ATOM      8  C   UNL     1      93.798  94.075  76.036  1.00  0.00     0.160 A 
ATOM      9  C   UNL     1      92.489  93.959  76.548  1.00  0.00     0.157 A 
ATOM     10  C   UNL     1      94.895  93.753  76.862  1.00  0.00     0.056 A 
ATOM     11  C   UNL     1      92.290  93.538  77.877  1.00  0.00     0.050 A 
ATOM     12  C   UNL     1      93.391  93.206  78.691  1.00  0.00     0.009 A 
BRANCH   8  13
ATOM     13  O   UNL     1      93.999  94.548  74.764  1.00  0.00    -0.493 OA
ATOM     14  C   UNL     1      94.076  95.983  74.676  1.00  0.00     0.278 C 
ENDBRANCH   8  13
BRANCH   9  15
ATOM     15  O   UNL     1      91.410  94.249  75.775  1.00  0.00    -0.504 OA
ATOM     16  H   UNL     1      91.498  93.811  74.925  1.00  0.00     0.293 HD
ENDBRANCH   9  15
ENDBRANCH   6   7
ENDBRANCH   3   6
ENDBRANCH   1   2
BRANCH   1  17
ATOM     17  C   UNL     1      97.543  96.280  82.270  1.00  0.00     0.010 C 
BRANCH  17  18
ATOM     18  C   UNL     1      96.701  97.473  82.802  1.00  0.00     0.005 C 
BRANCH  18  19
ATOM     19  C   UNL     1      96.743  98.698  81.848  1.00  0.00     0.027 C 
BRANCH  19  20
ATOM     20  C   UNL     1      96.268  99.912  82.495  1.00  0.00    -0.031 C 
ATOM     21  C   UNL     1      95.099 100.512  82.210  1.00  0.00    -0.028 C 
BRANCH  21  22
ATOM     22  C   UNL     1      94.632 101.722  82.888  1.00  0.00     0.005 C 
ATOM     23  C   UNL     1      93.174 102.091  82.497  1.00  0.00     0.012 C 
ATOM     24  C   UNL     1      94.770 101.563  84.424  1.00  0.00     0.012 C 
ENDBRANCH  21  22
ENDBRANCH  19  20
ENDBRANCH  18  19
ENDBRANCH  17  18
ENDBRANCH   1  17
TORSDOF 10
ENDMDL
MODEL 8
REMARK VINA RESULT:    -5.798     24.703     26.789
REMARK INTER + INTRA:          -9.637
REMARK INTER:                  -8.072
REMARK INTRA:                  -1.565
REMARK UNBOUND:                -0.620
REMARK SMILES COc1cc(CNC(=O)CCCC/C=C/C(C)C)ccc1O
REMARK SMILES IDX 10 1 8 2 7 3 9 5 6 6 5 7 3 8 21 9 4 10 20 11 19 12 2 13 1 14
REMARK SMILES IDX 22 15 11 17 12 18 13 19 14 20 15 21 16 22 17 23 18 24
REMARK H PARENT 7 4 22 16
REMARK Flexibility Score: inf
ROOT
ATOM      1  C   UNL     1      75.614  89.984  68.903  1.00  0.00     0.100 C 
ENDROOT
BRANCH   1   2
ATOM      2  C   UNL     1      74.250  89.492  69.175  1.00  0.00     0.220 C 
ATOM      3  N   UNL     1      73.771  88.391  68.532  1.00  0.00    -0.352 N 
ATOM      4  H   UNL     1      74.406  87.978  67.863  1.00  0.00     0.163 HD
ATOM      5  O   UNL     1      73.559  90.102  70.028  1.00  0.00    -0.275 OA
BRANCH   3   6
ATOM      6  C   UNL     1      72.481  87.817  68.747  1.00  0.00     0.151 C 
BRANCH   6   7
ATOM      7  C   UNL     1      72.251  86.642  67.864  1.00  0.00    -0.025 A 
ATOM      8  C   UNL     1      70.815  84.783  67.123  1.00  0.00     0.160 A 
ATOM      9  C   UNL     1      71.789  84.409  66.174  1.00  0.00     0.157 A 
ATOM     10  C   UNL     1      71.056  85.893  67.960  1.00  0.00     0.056 A 
ATOM     11  C   UNL     1      72.993  85.133  66.080  1.00  0.00     0.050 A 
ATOM     12  C   UNL     1      73.220  86.247  66.912  1.00  0.00     0.009 A 
BRANCH   8  13
ATOM     13  O   UNL     1      69.670  84.042  67.264  1.00  0.00    -0.493 OA
ATOM     14  C   UNL     1      68.595  84.454  66.400  1.00  0.00     0.278 C 
ENDBRANCH   8  13
BRANCH   9  15
ATOM     15  O   UNL     1      71.582  83.353  65.345  1.00  0.00    -0.504 OA
ATOM     16  H   UNL     1      71.930  82.555  65.749  1.00  0.00     0.293 HD
ENDBRANCH   9  15
ENDBRANCH   6   7
ENDBRANCH   3   6
ENDBRANCH   1   2
BRANCH   1  17
ATOM     17  C   UNL     1      75.793  90.382  67.414  1.00  0.00     0.010 C 
BRANCH  17  18
ATOM     18  C   UNL     1      76.545  89.303  66.585  1.00  0.00     0.005 C 
BRANCH  18  19
ATOM     19  C   UNL     1      77.435  88.392  67.472  1.00  0.00     0.027 C 
BRANCH  19  20
ATOM     20  C   UNL     1      76.918  87.034  67.554  1.00  0.00    -0.031 C 
ATOM     21  C   UNL     1      77.147  86.198  68.583  1.00  0.00    -0.028 C 
BRANCH  21  22
ATOM     22  C   UNL     1      76.601  84.843  68.653  1.00  0.00     0.005 C 
ATOM     23  C   UNL     1      75.280  84.783  69.470  1.00  0.00     0.012 C 
ATOM     24  C   UNL     1      76.395  84.273  67.226  1.00  0.00     0.012 C 
ENDBRANCH  21  22
ENDBRANCH  19  20
ENDBRANCH  18  19
ENDBRANCH  17  18
ENDBRANCH   1  17
TORSDOF 10
ENDMDL
MODEL 9
REMARK VINA RESULT:    -5.723      3.817      6.382
REMARK INTER + INTRA:          -9.520
REMARK INTER:                  -8.827
REMARK INTRA:                  -0.693
REMARK UNBOUND:                -0.620
REMARK SMILES COc1cc(CNC(=O)CCCC/C=C/C(C)C)ccc1O
REMARK SMILES IDX 10 1 8 2 7 3 9 5 6 6 5 7 3 8 21 9 4 10 20 11 19 12 2 13 1 14
REMARK SMILES IDX 22 15 11 17 12 18 13 19 14 20 15 21 16 22 17 23 18 24
REMARK H PARENT 7 4 22 16
REMARK Flexibility Score: inf
ROOT
ATOM      1  C   UNL     1      96.176  82.327  84.654  1.00  0.00     0.100 C 
ENDROOT
BRANCH   1   2
ATOM      2  C   UNL     1      95.113  82.442  85.670  1.00  0.00     0.220 C 
ATOM      3  N   UNL     1      93.906  82.988  85.351  1.00  0.00    -0.352 N 
ATOM      4  H   UNL     1      93.825  83.314  84.397  1.00  0.00     0.163 HD
ATOM      5  O   UNL     1      95.345  82.002  86.823  1.00  0.00    -0.275 OA
BRANCH   3   6
ATOM      6  C   UNL     1      92.804  83.115  86.250  1.00  0.00     0.151 C 
BRANCH   6   7
ATOM      7  C   UNL     1      91.705  82.173  85.904  1.00  0.00    -0.025 A 
ATOM      8  C   UNL     1      89.551  81.120  86.461  1.00  0.00     0.160 A 
ATOM      9  C   UNL     1      89.591  80.395  85.252  1.00  0.00     0.157 A 
ATOM     10  C   UNL     1      90.608  81.999  86.777  1.00  0.00     0.056 A 
ATOM     11  C   UNL     1      90.689  80.544  84.381  1.00  0.00     0.050 A 
ATOM     12  C   UNL     1      91.734  81.433  84.699  1.00  0.00     0.009 A 
BRANCH   8  13
ATOM     13  O   UNL     1      88.517  80.929  87.343  1.00  0.00    -0.493 OA
ATOM     14  C   UNL     1      88.916  80.934  88.726  1.00  0.00     0.278 C 
ENDBRANCH   8  13
BRANCH   9  15
ATOM     15  O   UNL     1      88.584  79.551  84.912  1.00  0.00    -0.504 OA
ATOM     16  H   UNL     1      87.743  80.009  84.983  1.00  0.00     0.293 HD
ENDBRANCH   9  15
ENDBRANCH   6   7
ENDBRANCH   3   6
ENDBRANCH   1   2
BRANCH   1  17
ATOM     17  C   UNL     1      95.596  81.988  83.254  1.00  0.00     0.010 C 
BRANCH  17  18
ATOM     18  C   UNL     1      96.280  82.783  82.107  1.00  0.00     0.005 C 
BRANCH  18  19
ATOM     19  C   UNL     1      97.139  81.872  81.188  1.00  0.00     0.027 C 
BRANCH  19  20
ATOM     20  C   UNL     1      96.762  81.998  79.788  1.00  0.00    -0.031 C 
ATOM     21  C   UNL     1      97.533  81.600  78.759  1.00  0.00    -0.028 C 
BRANCH  21  22
ATOM     22  C   UNL     1      97.126  81.718  77.359  1.00  0.00     0.005 C 
ATOM     23  C   UNL     1      96.837  80.335  76.711  1.00  0.00     0.012 C 
ATOM     24  C   UNL     1      95.897  82.655  77.235  1.00  0.00     0.012 C 
ENDBRANCH  21  22
ENDBRANCH  19  20
ENDBRANCH  18  19
ENDBRANCH  17  18
ENDBRANCH   1  17
TORSDOF 10
ENDMDL
MODEL 10
REMARK VINA RESULT:    -5.706     24.248     26.461
REMARK INTER + INTRA:          -9.494
REMARK INTER:                  -7.280
REMARK INTRA:                  -2.214
REMARK UNBOUND:                -0.620
REMARK SMILES COc1cc(CNC(=O)CCCC/C=C/C(C)C)ccc1O
REMARK SMILES IDX 10 1 8 2 7 3 9 5 6 6 5 7 3 8 21 9 4 10 20 11 19 12 2 13 1 14
REMARK SMILES IDX 22 15 11 17 12 18 13 19 14 20 15 21 16 22 17 23 18 24
REMARK H PARENT 7 4 22 16
REMARK Flexibility Score: inf
ROOT
ATOM      1  C   UNL     1      70.572  88.718  68.002  1.00  0.00     0.100 C 
ENDROOT
BRANCH   1   2
ATOM      2  C   UNL     1      71.255  87.676  67.213  1.00  0.00     0.220 C 
ATOM      3  N   UNL     1      71.708  86.539  67.813  1.00  0.00    -0.352 N 
ATOM      4  H   UNL     1      71.558  86.496  68.812  1.00  0.00     0.163 HD
ATOM      5  O   UNL     1      71.384  87.857  65.978  1.00  0.00    -0.275 OA
BRANCH   3   6
ATOM      6  C   UNL     1      72.351  85.460  67.135  1.00  0.00     0.151 C 
BRANCH   6   7
ATOM      7  C   UNL     1      73.817  85.448  67.394  1.00  0.00    -0.025 A 
ATOM      8  C   UNL     1      76.120  85.135  66.580  1.00  0.00     0.160 A 
ATOM      9  C   UNL     1      76.616  85.440  67.865  1.00  0.00     0.157 A 
ATOM     10  C   UNL     1      74.727  85.139  66.358  1.00  0.00     0.056 A 
ATOM     11  C   UNL     1      75.720  85.731  68.912  1.00  0.00     0.050 A 
ATOM     12  C   UNL     1      74.331  85.745  68.678  1.00  0.00     0.009 A 
BRANCH   8  13
ATOM     13  O   UNL     1      76.985  84.787  65.574  1.00  0.00    -0.493 OA
ATOM     14  C   UNL     1      76.402  83.940  64.566  1.00  0.00     0.278 C 
ENDBRANCH   8  13
BRANCH   9  15
ATOM     15  O   UNL     1      77.952  85.458  68.109  1.00  0.00    -0.504 OA
ATOM     16  H   UNL     1      78.345  86.225  67.687  1.00  0.00     0.293 HD
ENDBRANCH   9  15
ENDBRANCH   6   7
ENDBRANCH   3   6
ENDBRANCH   1   2
BRANCH   1  17
ATOM     17  C   UNL     1      71.378  89.094  69.274  1.00  0.00     0.010 C 
BRANCH  17  18
ATOM     18  C   UNL     1      72.616  89.983  68.965  1.00  0.00     0.005 C 
BRANCH  18  19
ATOM     19  C   UNL     1      73.908  89.453  69.643  1.00  0.00     0.027 C 
BRANCH  19  20
ATOM     20  C   UNL     1      75.071  89.579  68.778  1.00  0.00    -0.031 C 
ATOM     21  C   UNL     1      75.120  89.142  67.507  1.00  0.00    -0.028 C 
BRANCH  21  22
ATOM     22  C   UNL     1      76.294  89.297  66.649  1.00  0.00     0.005 C 
ATOM     23  C   UNL     1      77.598  88.813  67.342  1.00  0.00     0.012 C 
ATOM     24  C   UNL     1      76.076  88.558  65.303  1.00  0.00     0.012 C 
ENDBRANCH  21  22
ENDBRANCH  19  20
ENDBRANCH  18  19
ENDBRANCH  17  18
ENDBRANCH   1  17
TORSDOF 10
ENDMDL
