MODEL 1
REMARK VINA RESULT:    -8.165      0.000      0.000
REMARK INTER + INTRA:          -9.973
REMARK INTER:                  -9.596
REMARK INTRA:                  -0.377
REMARK UNBOUND:                -0.377
REMARK SMILES O=C(/C=C/C=C/c1ccc2c(c1)OCO2)N1CCCCC1
REMARK SMILES IDX 3 1 4 2 2 3 1 4 16 5 17 6 21 7 18 8 20 9 19 10 5 11 6 12
REMARK SMILES IDX 7 13 12 14 8 15 11 16 9 17 13 18 10 19 14 20 15 21
REMARK H PARENT
REMARK Flexibility Score: inf
ROOT
ATOM      1  C   UNL     1      90.945  91.620  75.999  1.00  0.00     0.071 C 
ATOM      2  C   UNL     1      90.913  92.562  76.940  1.00  0.00     0.006 C 
ENDROOT
BRANCH   1   3
ATOM      3  C   UNL     1      89.660  91.067  75.526  1.00  0.00     0.246 C 
ATOM      4  O   UNL     1      88.716  91.065  76.316  1.00  0.00    -0.270 OA
ATOM      5  N   UNL     1      89.604  90.580  74.221  1.00  0.00    -0.339 N 
ATOM      6  C   UNL     1      88.343  90.020  73.724  1.00  0.00     0.120 C 
ATOM      7  C   UNL     1      90.720  90.525  73.265  1.00  0.00     0.120 C 
ATOM      8  C   UNL     1      87.925  90.669  72.409  1.00  0.00     0.022 C 
ATOM      9  C   UNL     1      90.337  91.164  71.930  1.00  0.00     0.022 C 
ATOM     10  C   UNL     1      89.042  90.579  71.375  1.00  0.00     0.004 C 
ENDBRANCH   1   3
BRANCH   2  11
ATOM     11  C   UNL     1      92.119  93.164  77.467  1.00  0.00     0.001 C 
ATOM     12  C   UNL     1      93.124  93.584  76.683  1.00  0.00     0.008 C 
BRANCH  12  13
ATOM     13  C   UNL     1      94.374  94.195  77.166  1.00  0.00    -0.022 A 
ATOM     14  C   UNL     1      94.587  94.305  78.533  1.00  0.00     0.058 A 
ATOM     15  C   UNL     1      95.312  94.647  76.234  1.00  0.00     0.012 A 
ATOM     16  C   UNL     1      95.773  94.883  78.937  1.00  0.00     0.166 A 
ATOM     17  C   UNL     1      96.504  95.229  76.671  1.00  0.00     0.051 A 
ATOM     18  O   UNL     1      96.166  95.082  80.225  1.00  0.00    -0.454 OA
ATOM     19  C   UNL     1      96.706  95.333  78.031  1.00  0.00     0.165 A 
ATOM     20  C   UNL     1      97.451  95.707  80.028  1.00  0.00     0.468 C 
ATOM     21  O   UNL     1      97.800  95.870  78.638  1.00  0.00    -0.454 OA
ENDBRANCH  12  13
ENDBRANCH   2  11
TORSDOF 3
ENDMDL
MODEL 2
REMARK VINA RESULT:    -7.834      2.775      9.196
REMARK INTER + INTRA:          -9.585
REMARK INTER:                  -9.239
REMARK INTRA:                  -0.345
REMARK UNBOUND:                -0.377
REMARK SMILES O=C(/C=C/C=C/c1ccc2c(c1)OCO2)N1CCCCC1
REMARK SMILES IDX 3 1 4 2 2 3 1 4 16 5 17 6 21 7 18 8 20 9 19 10 5 11 6 12
REMARK SMILES IDX 7 13 12 14 8 15 11 16 9 17 13 18 10 19 14 20 15 21
REMARK H PARENT
REMARK Flexibility Score: inf
ROOT
ATOM      1  C   UNL     1      94.401  94.343  76.346  1.00  0.00     0.071 C 
ATOM      2  C   UNL     1      93.655  94.723  75.310  1.00  0.00     0.006 C 
ENDROOT
BRANCH   1   3
ATOM      3  C   UNL     1      95.606  95.136  76.662  1.00  0.00     0.246 C 
ATOM      4  O   UNL     1      96.134  95.761  75.742  1.00  0.00    -0.270 OA
ATOM      5  N   UNL     1      96.066  95.121  77.978  1.00  0.00    -0.339 N 
ATOM      6  C   UNL     1      97.263  95.895  78.322  1.00  0.00     0.120 C 
ATOM      7  C   UNL     1      95.490  94.353  79.092  1.00  0.00     0.120 C 
ATOM      8  C   UNL     1      97.006  96.822  79.505  1.00  0.00     0.022 C 
ATOM      9  C   UNL     1      95.221  95.249  80.301  1.00  0.00     0.022 C 
ATOM     10  C   UNL     1      96.459  96.046  80.699  1.00  0.00     0.004 C 
ENDBRANCH   1   3
BRANCH   2  11
ATOM     11  C   UNL     1      92.457  94.009  74.922  1.00  0.00     0.001 C 
ATOM     12  C   UNL     1      92.472  92.723  74.533  1.00  0.00     0.008 C 
BRANCH  12  13
ATOM     13  C   UNL     1      91.286  91.953  74.121  1.00  0.00    -0.022 A 
ATOM     14  C   UNL     1      90.310  92.574  73.353  1.00  0.00     0.058 A 
ATOM     15  C   UNL     1      91.177  90.617  74.513  1.00  0.00     0.012 A 
ATOM     16  C   UNL     1      89.219  91.811  72.992  1.00  0.00     0.166 A 
ATOM     17  C   UNL     1      90.061  89.868  74.133  1.00  0.00     0.051 A 
ATOM     18  O   UNL     1      88.161  92.235  72.247  1.00  0.00    -0.454 OA
ATOM     19  C   UNL     1      89.097  90.494  73.371  1.00  0.00     0.165 A 
ATOM     20  C   UNL     1      87.360  91.036  72.200  1.00  0.00     0.468 C 
ATOM     21  O   UNL     1      87.948  89.927  72.911  1.00  0.00    -0.454 OA
ENDBRANCH  12  13
ENDBRANCH   2  11
TORSDOF 3
ENDMDL
MODEL 3
REMARK VINA RESULT:    -7.266      3.074      9.237
REMARK INTER + INTRA:          -8.917
REMARK INTER:                  -8.593
REMARK INTRA:                  -0.324
REMARK UNBOUND:                -0.377
REMARK SMILES O=C(/C=C/C=C/c1ccc2c(c1)OCO2)N1CCCCC1
REMARK SMILES IDX 3 1 4 2 2 3 1 4 16 5 17 6 21 7 18 8 20 9 19 10 5 11 6 12
REMARK SMILES IDX 7 13 12 14 8 15 11 16 9 17 13 18 10 19 14 20 15 21
REMARK H PARENT
REMARK Flexibility Score: inf
ROOT
ATOM      1  C   UNL     1      94.492  95.188  75.399  1.00  0.00     0.071 C 
ATOM      2  C   UNL     1      93.751  94.101  75.603  1.00  0.00     0.006 C 
ENDROOT
BRANCH   1   3
ATOM      3  C   UNL     1      95.558  95.495  76.373  1.00  0.00     0.246 C 
ATOM      4  O   UNL     1      95.469  94.989  77.493  1.00  0.00    -0.270 OA
ATOM      5  N   UNL     1      96.589  96.340  75.964  1.00  0.00    -0.339 N 
ATOM      6  C   UNL     1      97.658  96.668  76.911  1.00  0.00     0.120 C 
ATOM      7  C   UNL     1      96.705  96.998  74.654  1.00  0.00     0.120 C 
ATOM      8  C   UNL     1      99.034  96.387  76.317  1.00  0.00     0.022 C 
ATOM      9  C   UNL     1      98.075  96.743  74.026  1.00  0.00     0.022 C 
ATOM     10  C   UNL     1      99.209  97.103  74.981  1.00  0.00     0.004 C 
ENDBRANCH   1   3
BRANCH   2  11
ATOM     11  C   UNL     1      92.684  93.717  74.704  1.00  0.00     0.001 C 
ATOM     12  C   UNL     1      91.632  92.981  75.098  1.00  0.00     0.008 C 
BRANCH  12  13
ATOM     13  C   UNL     1      90.524  92.557  74.225  1.00  0.00    -0.022 A 
ATOM     14  C   UNL     1      89.876  91.358  74.490  1.00  0.00     0.058 A 
ATOM     15  C   UNL     1      90.156  93.373  73.153  1.00  0.00     0.012 A 
ATOM     16  C   UNL     1      88.845  91.004  73.645  1.00  0.00     0.166 A 
ATOM     17  C   UNL     1      89.108  92.990  72.313  1.00  0.00     0.051 A 
ATOM     18  O   UNL     1      88.091  89.873  73.736  1.00  0.00    -0.454 OA
ATOM     19  C   UNL     1      88.471  91.797  72.585  1.00  0.00     0.165 A 
ATOM     20  C   UNL     1      87.201  90.046  72.614  1.00  0.00     0.468 C 
ATOM     21  O   UNL     1      87.436  91.265  71.880  1.00  0.00    -0.454 OA
ENDBRANCH  12  13
ENDBRANCH   2  11
TORSDOF 3
ENDMDL
MODEL 4
REMARK VINA RESULT:    -7.226      2.787      9.198
REMARK INTER + INTRA:          -8.869
REMARK INTER:                  -8.516
REMARK INTRA:                  -0.353
REMARK UNBOUND:                -0.377
REMARK SMILES O=C(/C=C/C=C/c1ccc2c(c1)OCO2)N1CCCCC1
REMARK SMILES IDX 3 1 4 2 2 3 1 4 16 5 17 6 21 7 18 8 20 9 19 10 5 11 6 12
REMARK SMILES IDX 7 13 12 14 8 15 11 16 9 17 13 18 10 19 14 20 15 21
REMARK H PARENT
REMARK Flexibility Score: inf
ROOT
ATOM      1  C   UNL     1      95.069  94.692  77.615  1.00  0.00     0.071 C 
ATOM      2  C   UNL     1      94.736  94.975  76.357  1.00  0.00     0.006 C 
ENDROOT
BRANCH   1   3
ATOM      3  C   UNL     1      96.367  95.184  78.118  1.00  0.00     0.246 C 
ATOM      4  O   UNL     1      97.163  95.635  77.294  1.00  0.00    -0.270 OA
ATOM      5  N   UNL     1      96.607  95.099  79.489  1.00  0.00    -0.339 N 
ATOM      6  C   UNL     1      97.889  95.575  80.017  1.00  0.00     0.120 C 
ATOM      7  C   UNL     1      95.701  94.527  80.496  1.00  0.00     0.120 C 
ATOM      8  C   UNL     1      97.688  96.573  81.152  1.00  0.00     0.022 C 
ATOM      9  C   UNL     1      95.477  95.498  81.655  1.00  0.00     0.022 C 
ATOM     10  C   UNL     1      96.797  95.988  82.244  1.00  0.00     0.004 C 
ENDBRANCH   1   3
BRANCH   2  11
ATOM     11  C   UNL     1      93.486  94.537  75.775  1.00  0.00     0.001 C 
ATOM     12  C   UNL     1      93.255  93.261  75.426  1.00  0.00     0.008 C 
BRANCH  12  13
ATOM     13  C   UNL     1      92.007  92.763  74.823  1.00  0.00    -0.022 A 
ATOM     14  C   UNL     1      91.674  91.423  74.967  1.00  0.00     0.058 A 
ATOM     15  C   UNL     1      91.190  93.654  74.123  1.00  0.00     0.012 A 
ATOM     16  C   UNL     1      90.495  91.004  74.385  1.00  0.00     0.166 A 
ATOM     17  C   UNL     1      90.002  93.203  73.543  1.00  0.00     0.051 A 
ATOM     18  O   UNL     1      89.998  89.737  74.413  1.00  0.00    -0.454 OA
ATOM     19  C   UNL     1      89.681  91.870  73.692  1.00  0.00     0.165 A 
ATOM     20  C   UNL     1      88.780  89.904  73.660  1.00  0.00     0.468 C 
ATOM     21  O   UNL     1      88.572  91.255  73.199  1.00  0.00    -0.454 OA
ENDBRANCH  12  13
ENDBRANCH   2  11
TORSDOF 3
ENDMDL
MODEL 5
REMARK VINA RESULT:    -7.123      6.521      7.491
REMARK INTER + INTRA:          -8.749
REMARK INTER:                  -8.345
REMARK INTRA:                  -0.404
REMARK UNBOUND:                -0.377
REMARK SMILES O=C(/C=C/C=C/c1ccc2c(c1)OCO2)N1CCCCC1
REMARK SMILES IDX 3 1 4 2 2 3 1 4 16 5 17 6 21 7 18 8 20 9 19 10 5 11 6 12
REMARK SMILES IDX 7 13 12 14 8 15 11 16 9 17 13 18 10 19 14 20 15 21
REMARK H PARENT
REMARK Flexibility Score: inf
ROOT
ATOM      1  C   UNL     1      92.518  98.817  70.564  1.00  0.00     0.071 C 
ATOM      2  C   UNL     1      93.829  98.586  70.594  1.00  0.00     0.006 C 
ENDROOT
BRANCH   1   3
ATOM      3  C   UNL     1      91.965  99.533  69.397  1.00  0.00     0.246 C 
ATOM      4  O   UNL     1      92.420 100.650  69.147  1.00  0.00    -0.270 OA
ATOM      5  N   UNL     1      90.964  98.901  68.661  1.00  0.00    -0.339 N 
ATOM      6  C   UNL     1      90.392  99.589  67.500  1.00  0.00     0.120 C 
ATOM      7  C   UNL     1      90.366  97.590  68.955  1.00  0.00     0.120 C 
ATOM      8  C   UNL     1      90.441  98.712  66.253  1.00  0.00     0.022 C 
ATOM      9  C   UNL     1      90.392  96.682  67.726  1.00  0.00     0.022 C 
ATOM     10  C   UNL     1      89.776  97.363  66.508  1.00  0.00     0.004 C 
ENDBRANCH   1   3
BRANCH   2  11
ATOM     11  C   UNL     1      94.463  97.893  71.695  1.00  0.00     0.001 C 
ATOM     12  C   UNL     1      93.916  97.820  72.919  1.00  0.00     0.008 C 
BRANCH  12  13
ATOM     13  C   UNL     1      94.520  97.136  74.075  1.00  0.00    -0.022 A 
ATOM     14  C   UNL     1      93.914  95.992  74.576  1.00  0.00     0.058 A 
ATOM     15  C   UNL     1      95.689  97.657  74.636  1.00  0.00     0.012 A 
ATOM     16  C   UNL     1      94.517  95.387  75.659  1.00  0.00     0.166 A 
ATOM     17  C   UNL     1      96.279  97.024  75.732  1.00  0.00     0.051 A 
ATOM     18  O   UNL     1      94.079  94.264  76.293  1.00  0.00    -0.454 OA
ATOM     19  C   UNL     1      95.669  95.888  76.222  1.00  0.00     0.165 A 
ATOM     20  C   UNL     1      95.084  94.116  77.316  1.00  0.00     0.468 C 
ATOM     21  O   UNL     1      96.096  95.143  77.278  1.00  0.00    -0.454 OA
ENDBRANCH  12  13
ENDBRANCH   2  11
TORSDOF 3
ENDMDL
MODEL 6
REMARK VINA RESULT:    -6.966     21.634     25.366
REMARK INTER + INTRA:          -8.564
REMARK INTER:                  -8.237
REMARK INTRA:                  -0.327
REMARK UNBOUND:                -0.377
REMARK SMILES O=C(/C=C/C=C/c1ccc2c(c1)OCO2)N1CCCCC1
REMARK SMILES IDX 3 1 4 2 2 3 1 4 16 5 17 6 21 7 18 8 20 9 19 10 5 11 6 12
REMARK SMILES IDX 7 13 12 14 8 15 11 16 9 17 13 18 10 19 14 20 15 21
REMARK H PARENT
REMARK Flexibility Score: inf
ROOT
ATOM      1  C   UNL     1      83.964  69.010  71.985  1.00  0.00     0.071 C 
ATOM      2  C   UNL     1      85.219  69.055  71.542  1.00  0.00     0.006 C 
ENDROOT
BRANCH   1   3
ATOM      3  C   UNL     1      83.588  67.911  72.896  1.00  0.00     0.246 C 
ATOM      4  O   UNL     1      84.111  67.892  74.011  1.00  0.00    -0.270 OA
ATOM      5  N   UNL     1      82.673  66.967  72.433  1.00  0.00    -0.339 N 
ATOM      6  C   UNL     1      82.285  65.860  73.313  1.00  0.00     0.120 C 
ATOM      7  C   UNL     1      82.064  66.931  71.095  1.00  0.00     0.120 C 
ATOM      8  C   UNL     1      80.769  65.758  73.443  1.00  0.00     0.022 C 
ATOM      9  C   UNL     1      80.541  66.825  71.183  1.00  0.00     0.022 C 
ATOM     10  C   UNL     1      80.108  65.662  72.072  1.00  0.00     0.004 C 
ENDBRANCH   1   3
BRANCH   2  11
ATOM     11  C   UNL     1      85.681  70.094  70.646  1.00  0.00     0.001 C 
ATOM     12  C   UNL     1      86.886  70.059  70.054  1.00  0.00     0.008 C 
BRANCH  12  13
ATOM     13  C   UNL     1      87.409  71.091  69.142  1.00  0.00    -0.022 A 
ATOM     14  C   UNL     1      88.598  71.733  69.459  1.00  0.00     0.058 A 
ATOM     15  C   UNL     1      86.693  71.395  67.982  1.00  0.00     0.012 A 
ATOM     16  C   UNL     1      89.048  72.691  68.574  1.00  0.00     0.166 A 
ATOM     17  C   UNL     1      87.171  72.370  67.103  1.00  0.00     0.051 A 
ATOM     18  O   UNL     1      90.185  73.428  68.706  1.00  0.00    -0.454 OA
ATOM     19  C   UNL     1      88.354  73.001  67.427  1.00  0.00     0.165 A 
ATOM     20  C   UNL     1      90.127  74.237  67.513  1.00  0.00     0.468 C 
ATOM     21  O   UNL     1      88.968  73.971  66.697  1.00  0.00    -0.454 OA
ENDBRANCH  12  13
ENDBRANCH   2  11
TORSDOF 3
ENDMDL
MODEL 7
REMARK VINA RESULT:    -6.719     12.176     12.999
REMARK INTER + INTRA:          -8.274
REMARK INTER:                  -7.904
REMARK INTRA:                  -0.369
REMARK UNBOUND:                -0.377
REMARK SMILES O=C(/C=C/C=C/c1ccc2c(c1)OCO2)N1CCCCC1
REMARK SMILES IDX 3 1 4 2 2 3 1 4 16 5 17 6 21 7 18 8 20 9 19 10 5 11 6 12
REMARK SMILES IDX 7 13 12 14 8 15 11 16 9 17 13 18 10 19 14 20 15 21
REMARK H PARENT
REMARK Flexibility Score: inf
ROOT
ATOM      1  C   UNL     1      98.824  82.539  79.609  1.00  0.00     0.071 C 
ATOM      2  C   UNL     1      97.885  81.718  80.074  1.00  0.00     0.006 C 
ENDROOT
BRANCH   1   3
ATOM      3  C   UNL     1      99.592  82.115  78.422  1.00  0.00     0.246 C 
ATOM      4  O   UNL     1     100.644  81.502  78.614  1.00  0.00    -0.270 OA
ATOM      5  N   UNL     1      99.081  82.439  77.167  1.00  0.00    -0.339 N 
ATOM      6  C   UNL     1      99.824  82.035  75.969  1.00  0.00     0.120 C 
ATOM      7  C   UNL     1      97.855  83.206  76.899  1.00  0.00     0.120 C 
ATOM      8  C   UNL     1      98.938  81.264  74.997  1.00  0.00     0.022 C 
ATOM      9  C   UNL     1      96.940  82.466  75.924  1.00  0.00     0.022 C 
ATOM     10  C   UNL     1      97.682  82.058  74.654  1.00  0.00     0.004 C 
ENDBRANCH   1   3
BRANCH   2  11
ATOM     11  C   UNL     1      97.080  82.047  81.232  1.00  0.00     0.001 C 
ATOM     12  C   UNL     1      97.378  83.061  82.059  1.00  0.00     0.008 C 
BRANCH  12  13
ATOM     13  C   UNL     1      96.600  83.433  83.253  1.00  0.00    -0.022 A 
ATOM     14  C   UNL     1      96.488  84.774  83.596  1.00  0.00     0.058 A 
ATOM     15  C   UNL     1      95.995  82.425  84.009  1.00  0.00     0.012 A 
ATOM     16  C   UNL     1      95.749  85.072  84.723  1.00  0.00     0.166 A 
ATOM     17  C   UNL     1      95.253  82.756  85.144  1.00  0.00     0.051 A 
ATOM     18  O   UNL     1      95.525  86.319  85.222  1.00  0.00    -0.454 OA
ATOM     19  C   UNL     1      95.148  84.091  85.476  1.00  0.00     0.165 A 
ATOM     20  C   UNL     1      94.714  86.010  86.375  1.00  0.00     0.468 C 
ATOM     21  O   UNL     1      94.471  84.599  86.542  1.00  0.00    -0.454 OA
ENDBRANCH  12  13
ENDBRANCH   2  11
TORSDOF 3
ENDMDL
MODEL 8
REMARK VINA RESULT:    -6.702     14.784     15.800
REMARK INTER + INTRA:          -8.254
REMARK INTER:                  -7.858
REMARK INTRA:                  -0.395
REMARK UNBOUND:                -0.377
REMARK SMILES O=C(/C=C/C=C/c1ccc2c(c1)OCO2)N1CCCCC1
REMARK SMILES IDX 3 1 4 2 2 3 1 4 16 5 17 6 21 7 18 8 20 9 19 10 5 11 6 12
REMARK SMILES IDX 7 13 12 14 8 15 11 16 9 17 13 18 10 19 14 20 15 21
REMARK H PARENT
REMARK Flexibility Score: inf
ROOT
ATOM      1  C   UNL     1      81.944  89.932  87.253  1.00  0.00     0.071 C 
ATOM      2  C   UNL     1      83.126  90.473  87.544  1.00  0.00     0.006 C 
ENDROOT
BRANCH   1   3
ATOM      3  C   UNL     1      81.841  88.459  87.231  1.00  0.00     0.246 C 
ATOM      4  O   UNL     1      81.833  87.873  88.314  1.00  0.00    -0.270 OA
ATOM      5  N   UNL     1      81.766  87.832  85.989  1.00  0.00    -0.339 N 
ATOM      6  C   UNL     1      81.668  86.370  85.935  1.00  0.00     0.120 C 
ATOM      7  C   UNL     1      81.818  88.493  84.677  1.00  0.00     0.120 C 
ATOM      8  C   UNL     1      80.483  85.922  85.088  1.00  0.00     0.022 C 
ATOM      9  C   UNL     1      80.645  88.066  83.794  1.00  0.00     0.022 C 
ATOM     10  C   UNL     1      80.537  86.547  83.697  1.00  0.00     0.004 C 
ENDBRANCH   1   3
BRANCH   2  11
ATOM     11  C   UNL     1      83.325  91.906  87.589  1.00  0.00     0.001 C 
ATOM     12  C   UNL     1      82.521  92.730  88.279  1.00  0.00     0.008 C 
BRANCH  12  13
ATOM     13  C   UNL     1      82.673  94.193  88.353  1.00  0.00    -0.022 A 
ATOM     14  C   UNL     1      81.834  94.919  89.187  1.00  0.00     0.058 A 
ATOM     15  C   UNL     1      83.659  94.811  87.580  1.00  0.00     0.012 A 
ATOM     16  C   UNL     1      82.015  96.286  89.223  1.00  0.00     0.166 A 
ATOM     17  C   UNL     1      83.821  96.198  87.635  1.00  0.00     0.051 A 
ATOM     18  O   UNL     1      81.297  97.167  89.972  1.00  0.00    -0.454 OA
ATOM     19  C   UNL     1      82.982  96.909  88.467  1.00  0.00     0.165 A 
ATOM     20  C   UNL     1      81.921  98.414  89.603  1.00  0.00     0.468 C 
ATOM     21  O   UNL     1      82.991  98.258  88.648  1.00  0.00    -0.454 OA
ENDBRANCH  12  13
ENDBRANCH   2  11
TORSDOF 3
ENDMDL
MODEL 9
REMARK VINA RESULT:    -6.581     15.135     17.298
REMARK INTER + INTRA:          -8.111
REMARK INTER:                  -7.748
REMARK INTRA:                  -0.363
REMARK UNBOUND:                -0.377
REMARK SMILES O=C(/C=C/C=C/c1ccc2c(c1)OCO2)N1CCCCC1
REMARK SMILES IDX 3 1 4 2 2 3 1 4 16 5 17 6 21 7 18 8 20 9 19 10 5 11 6 12
REMARK SMILES IDX 7 13 12 14 8 15 11 16 9 17 13 18 10 19 14 20 15 21
REMARK H PARENT
REMARK Flexibility Score: inf
ROOT
ATOM      1  C   UNL     1      83.360  94.163  87.903  1.00  0.00     0.071 C 
ATOM      2  C   UNL     1      83.179  92.952  88.427  1.00  0.00     0.006 C 
ENDROOT
BRANCH   1   3
ATOM      3  C   UNL     1      83.424  95.316  88.823  1.00  0.00     0.246 C 
ATOM      4  O   UNL     1      84.324  95.323  89.664  1.00  0.00    -0.270 OA
ATOM      5  N   UNL     1      82.462  96.314  88.681  1.00  0.00    -0.339 N 
ATOM      6  C   UNL     1      82.497  97.469  89.584  1.00  0.00     0.120 C 
ATOM      7  C   UNL     1      81.348  96.318  87.721  1.00  0.00     0.120 C 
ATOM      8  C   UNL     1      82.493  98.782  88.808  1.00  0.00     0.022 C 
ATOM      9  C   UNL     1      81.309  97.622  86.925  1.00  0.00     0.022 C 
ATOM     10  C   UNL     1      81.315  98.843  87.841  1.00  0.00     0.004 C 
ENDBRANCH   1   3
BRANCH   2  11
ATOM     11  C   UNL     1      83.102  91.762  87.607  1.00  0.00     0.001 C 
ATOM     12  C   UNL     1      81.955  91.096  87.398  1.00  0.00     0.008 C 
BRANCH  12  13
ATOM     13  C   UNL     1      81.823  89.878  86.581  1.00  0.00    -0.022 A 
ATOM     14  C   UNL     1      80.662  89.681  85.846  1.00  0.00     0.058 A 
ATOM     15  C   UNL     1      82.870  88.953  86.570  1.00  0.00     0.012 A 
ATOM     16  C   UNL     1      80.585  88.525  85.096  1.00  0.00     0.166 A 
ATOM     17  C   UNL     1      82.765  87.791  85.802  1.00  0.00     0.051 A 
ATOM     18  O   UNL     1      79.536  88.151  84.312  1.00  0.00    -0.454 OA
ATOM     19  C   UNL     1      81.608  87.605  85.074  1.00  0.00     0.165 A 
ATOM     20  C   UNL     1      80.015  86.892  83.795  1.00  0.00     0.468 C 
ATOM     21  O   UNL     1      81.329  86.540  84.275  1.00  0.00    -0.454 OA
ENDBRANCH  12  13
ENDBRANCH   2  11
TORSDOF 3
ENDMDL
MODEL 10
REMARK VINA RESULT:    -6.555      3.602      9.326
REMARK INTER + INTRA:          -8.082
REMARK INTER:                  -7.757
REMARK INTRA:                  -0.325
REMARK UNBOUND:                -0.377
REMARK SMILES O=C(/C=C/C=C/c1ccc2c(c1)OCO2)N1CCCCC1
REMARK SMILES IDX 3 1 4 2 2 3 1 4 16 5 17 6 21 7 18 8 20 9 19 10 5 11 6 12
REMARK SMILES IDX 7 13 12 14 8 15 11 16 9 17 13 18 10 19 14 20 15 21
REMARK H PARENT
REMARK Flexibility Score: inf
ROOT
ATOM      1  C   UNL     1      96.263  95.450  75.396  1.00  0.00     0.071 C 
ATOM      2  C   UNL     1      94.967  95.750  75.337  1.00  0.00     0.006 C 
ENDROOT
BRANCH   1   3
ATOM      3  C   UNL     1      97.234  96.476  74.964  1.00  0.00     0.246 C 
ATOM      4  O   UNL     1      96.974  97.108  73.939  1.00  0.00    -0.270 OA
ATOM      5  N   UNL     1      98.379  96.655  75.738  1.00  0.00    -0.339 N 
ATOM      6  C   UNL     1      99.363  97.662  75.331  1.00  0.00     0.120 C 
ATOM      7  C   UNL     1      98.744  95.889  76.939  1.00  0.00     0.120 C 
ATOM      8  C   UNL     1      99.684  98.621  76.472  1.00  0.00     0.022 C 
ATOM      9  C   UNL     1      99.077  96.817  78.107  1.00  0.00     0.022 C 
ATOM     10  C   UNL     1     100.122  97.860  77.719  1.00  0.00     0.004 C 
ENDBRANCH   1   3
BRANCH   2  11
ATOM     11  C   UNL     1      93.942  94.811  75.739  1.00  0.00     0.001 C 
ATOM     12  C   UNL     1      92.791  94.659  75.064  1.00  0.00     0.008 C 
BRANCH  12  13
ATOM     13  C   UNL     1      91.712  93.726  75.433  1.00  0.00    -0.022 A 
ATOM     14  C   UNL     1      91.284  92.787  74.504  1.00  0.00     0.058 A 
ATOM     15  C   UNL     1      91.149  93.812  76.708  1.00  0.00     0.012 A 
ATOM     16  C   UNL     1      90.272  91.935  74.896  1.00  0.00     0.166 A 
ATOM     17  C   UNL     1      90.125  92.937  77.079  1.00  0.00     0.051 A 
ATOM     18  O   UNL     1      89.716  90.953  74.135  1.00  0.00    -0.454 OA
ATOM     19  C   UNL     1      89.708  92.008  76.149  1.00  0.00     0.165 A 
ATOM     20  C   UNL     1      88.739  90.416  75.050  1.00  0.00     0.468 C 
ATOM     21  O   UNL     1      88.728  91.081  76.330  1.00  0.00    -0.454 OA
ENDBRANCH  12  13
ENDBRANCH   2  11
TORSDOF 3
ENDMDL
