MODEL 1
REMARK VINA RESULT:    -5.595      0.000      0.000
REMARK INTER + INTRA:         -10.413
REMARK INTER:                  -9.029
REMARK INTRA:                  -1.383
REMARK UNBOUND:                -1.383
REMARK SMILES CCCCCCCCC(=O)NCc1ccc(O)c(OC)c1
REMARK SMILES IDX 7 1 6 2 5 3 4 4 3 5 2 6 1 7 8 8 9 9 10 10 11 11 12 13 13 14
REMARK SMILES IDX 21 15 14 16 18 17 15 18 16 19 19 20 20 21 17 22
REMARK H PARENT 11 12 17 23
REMARK Flexibility Score: inf
ROOT
ATOM      1  C   UNL     1      94.723  97.470  74.554  1.00  0.00     0.010 C 
ENDROOT
BRANCH   1   2
ATOM      2  C   UNL     1      94.190  96.028  74.319  1.00  0.00     0.001 C 
BRANCH   2   3
ATOM      3  C   UNL     1      93.125  95.614  75.377  1.00  0.00     0.000 C 
BRANCH   3   4
ATOM      4  C   UNL     1      93.690  95.494  76.821  1.00  0.00    -0.000 C 
BRANCH   4   5
ATOM      5  C   UNL     1      92.746  94.703  77.771  1.00  0.00    -0.000 C 
BRANCH   5   6
ATOM      6  C   UNL     1      91.364  94.408  77.127  1.00  0.00    -0.003 C 
ATOM      7  C   UNL     1      90.805  93.021  77.516  1.00  0.00     0.004 C 
ENDBRANCH   5   6
ENDBRANCH   4   5
ENDBRANCH   3   4
ENDBRANCH   2   3
ENDBRANCH   1   2
BRANCH   1   8
ATOM      8  C   UNL     1      96.265  97.603  74.411  1.00  0.00     0.100 C 
BRANCH   8   9
ATOM      9  C   UNL     1      96.934  97.579  75.734  1.00  0.00     0.220 C 
ATOM     10  O   UNL     1      97.278  98.670  76.247  1.00  0.00    -0.275 OA
ATOM     11  N   UNL     1      97.142  96.396  76.385  1.00  0.00    -0.352 N 
ATOM     12  H   UNL     1      96.907  95.576  75.845  1.00  0.00     0.163 HD
BRANCH  11  13
ATOM     13  C   UNL     1      97.644  96.253  77.717  1.00  0.00     0.151 C 
BRANCH  13  14
ATOM     14  C   UNL     1      96.923  95.233  78.525  1.00  0.00    -0.025 A 
ATOM     15  C   UNL     1      96.534  95.523  79.854  1.00  0.00     0.056 A 
ATOM     16  C   UNL     1      96.619  93.962  77.986  1.00  0.00     0.009 A 
ATOM     17  C   UNL     1      95.833  94.570  80.628  1.00  0.00     0.160 A 
ATOM     18  C   UNL     1      95.921  93.010  78.751  1.00  0.00     0.050 A 
ATOM     19  C   UNL     1      95.534  93.306  80.072  1.00  0.00     0.157 A 
BRANCH  17  20
ATOM     20  O   UNL     1      95.493  94.837  81.931  1.00  0.00    -0.493 OA
ATOM     21  C   UNL     1      95.781  96.183  82.350  1.00  0.00     0.278 C 
ENDBRANCH  17  20
BRANCH  19  22
ATOM     22  O   UNL     1      94.885  92.370  80.811  1.00  0.00    -0.504 OA
ATOM     23  H   UNL     1      94.597  91.654  80.240  1.00  0.00     0.293 HD
ENDBRANCH  19  22
ENDBRANCH  13  14
ENDBRANCH  11  13
ENDBRANCH   8   9
ENDBRANCH   1   8
TORSDOF 11
ENDMDL
MODEL 2
REMARK VINA RESULT:    -5.269      2.885      4.485
REMARK INTER + INTRA:          -9.887
REMARK INTER:                  -8.917
REMARK INTRA:                  -0.971
REMARK UNBOUND:                -1.383
REMARK SMILES CCCCCCCCC(=O)NCc1ccc(O)c(OC)c1
REMARK SMILES IDX 7 1 6 2 5 3 4 4 3 5 2 6 1 7 8 8 9 9 10 10 11 11 12 13 13 14
REMARK SMILES IDX 21 15 14 16 18 17 15 18 16 19 19 20 20 21 17 22
REMARK H PARENT 11 12 17 23
REMARK Flexibility Score: inf
ROOT
ATOM      1  C   UNL     1      94.717  94.275  77.337  1.00  0.00     0.010 C 
ENDROOT
BRANCH   1   2
ATOM      2  C   UNL     1      93.571  95.115  77.969  1.00  0.00     0.001 C 
BRANCH   2   3
ATOM      3  C   UNL     1      92.495  95.526  76.921  1.00  0.00     0.000 C 
BRANCH   3   4
ATOM      4  C   UNL     1      91.100  94.886  77.171  1.00  0.00    -0.000 C 
BRANCH   4   5
ATOM      5  C   UNL     1      91.195  93.428  77.705  1.00  0.00    -0.000 C 
BRANCH   5   6
ATOM      6  C   UNL     1      90.321  92.437  76.890  1.00  0.00    -0.003 C 
ATOM      7  C   UNL     1      91.076  91.813  75.696  1.00  0.00     0.004 C 
ENDBRANCH   5   6
ENDBRANCH   4   5
ENDBRANCH   3   4
ENDBRANCH   2   3
ENDBRANCH   1   2
BRANCH   1   8
ATOM      8  C   UNL     1      95.002  92.940  78.081  1.00  0.00     0.100 C 
BRANCH   8   9
ATOM      9  C   UNL     1      95.528  93.183  79.446  1.00  0.00     0.220 C 
ATOM     10  O   UNL     1      94.875  92.743  80.422  1.00  0.00    -0.275 OA
ATOM     11  N   UNL     1      96.708  93.846  79.627  1.00  0.00    -0.352 N 
ATOM     12  H   UNL     1      97.104  94.232  78.783  1.00  0.00     0.163 HD
BRANCH  11  13
ATOM     13  C   UNL     1      97.386  94.019  80.875  1.00  0.00     0.151 C 
BRANCH  13  14
ATOM     14  C   UNL     1      97.196  95.364  81.481  1.00  0.00    -0.025 A 
ATOM     15  C   UNL     1      98.118  95.851  82.439  1.00  0.00     0.056 A 
ATOM     16  C   UNL     1      96.096  96.176  81.119  1.00  0.00     0.009 A 
ATOM     17  C   UNL     1      97.960  97.134  83.010  1.00  0.00     0.160 A 
ATOM     18  C   UNL     1      95.935  97.454  81.683  1.00  0.00     0.050 A 
ATOM     19  C   UNL     1      96.857  97.933  82.633  1.00  0.00     0.157 A 
BRANCH  17  20
ATOM     20  O   UNL     1      98.832  97.587  83.969  1.00  0.00    -0.493 OA
ATOM     21  C   UNL     1      98.902  96.755  85.141  1.00  0.00     0.278 C 
ENDBRANCH  17  20
BRANCH  19  22
ATOM     22  O   UNL     1      96.677  99.157  83.192  1.00  0.00    -0.504 OA
ATOM     23  H   UNL     1      97.239  99.797  82.748  1.00  0.00     0.293 HD
ENDBRANCH  19  22
ENDBRANCH  13  14
ENDBRANCH  11  13
ENDBRANCH   8   9
ENDBRANCH   1   8
TORSDOF 11
ENDMDL
MODEL 3
REMARK VINA RESULT:    -5.196     14.208     16.897
REMARK INTER + INTRA:          -9.768
REMARK INTER:                  -9.091
REMARK INTRA:                  -0.677
REMARK UNBOUND:                -1.383
REMARK SMILES CCCCCCCCC(=O)NCc1ccc(O)c(OC)c1
REMARK SMILES IDX 7 1 6 2 5 3 4 4 3 5 2 6 1 7 8 8 9 9 10 10 11 11 12 13 13 14
REMARK SMILES IDX 21 15 14 16 18 17 15 18 16 19 19 20 20 21 17 22
REMARK H PARENT 11 12 17 23
REMARK Flexibility Score: inf
ROOT
ATOM      1  C   UNL     1      95.884  80.903  83.101  1.00  0.00     0.010 C 
ENDROOT
BRANCH   1   2
ATOM      2  C   UNL     1      96.091  82.275  82.397  1.00  0.00     0.001 C 
BRANCH   2   3
ATOM      3  C   UNL     1      96.845  82.134  81.042  1.00  0.00     0.000 C 
BRANCH   3   4
ATOM      4  C   UNL     1      97.325  80.686  80.740  1.00  0.00    -0.000 C 
BRANCH   4   5
ATOM      5  C   UNL     1      97.629  80.457  79.232  1.00  0.00    -0.000 C 
BRANCH   5   6
ATOM      6  C   UNL     1      97.031  81.569  78.328  1.00  0.00    -0.003 C 
ATOM      7  C   UNL     1      97.972  81.972  77.172  1.00  0.00     0.004 C 
ENDBRANCH   5   6
ENDBRANCH   4   5
ENDBRANCH   3   4
ENDBRANCH   2   3
ENDBRANCH   1   2
BRANCH   1   8
ATOM      8  C   UNL     1      95.873  80.988  84.653  1.00  0.00     0.100 C 
BRANCH   8   9
ATOM      9  C   UNL     1      94.563  81.464  85.159  1.00  0.00     0.220 C 
ATOM     10  O   UNL     1      94.551  82.404  85.989  1.00  0.00    -0.275 OA
ATOM     11  N   UNL     1      93.401  80.908  84.706  1.00  0.00    -0.352 N 
ATOM     12  H   UNL     1      93.528  80.104  84.108  1.00  0.00     0.163 HD
BRANCH  11  13
ATOM     13  C   UNL     1      92.080  81.370  85.007  1.00  0.00     0.151 C 
BRANCH  13  14
ATOM     14  C   UNL     1      91.017  80.363  84.748  1.00  0.00    -0.025 A 
ATOM     15  C   UNL     1      89.669  80.770  84.609  1.00  0.00     0.056 A 
ATOM     16  C   UNL     1      91.329  78.988  84.639  1.00  0.00     0.009 A 
ATOM     17  C   UNL     1      88.650  79.826  84.344  1.00  0.00     0.160 A 
ATOM     18  C   UNL     1      90.320  78.044  84.376  1.00  0.00     0.050 A 
ATOM     19  C   UNL     1      88.981  78.457  84.235  1.00  0.00     0.157 A 
BRANCH  17  20
ATOM     20  O   UNL     1      87.338  80.218  84.252  1.00  0.00    -0.493 OA
ATOM     21  C   UNL     1      87.156  81.638  84.113  1.00  0.00     0.278 C 
ENDBRANCH  17  20
BRANCH  19  22
ATOM     22  O   UNL     1      88.011  77.535  84.008  1.00  0.00    -0.504 OA
ATOM     23  H   UNL     1      87.332  77.917  83.446  1.00  0.00     0.293 HD
ENDBRANCH  19  22
ENDBRANCH  13  14
ENDBRANCH  11  13
ENDBRANCH   8   9
ENDBRANCH   1   8
TORSDOF 11
ENDMDL
MODEL 4
REMARK VINA RESULT:    -4.963     35.527     38.878
REMARK INTER + INTRA:          -9.393
REMARK INTER:                  -8.833
REMARK INTRA:                  -0.559
REMARK UNBOUND:                -1.383
REMARK SMILES CCCCCCCCC(=O)NCc1ccc(O)c(OC)c1
REMARK SMILES IDX 7 1 6 2 5 3 4 4 3 5 2 6 1 7 8 8 9 9 10 10 11 11 12 13 13 14
REMARK SMILES IDX 21 15 14 16 18 17 15 18 16 19 19 20 20 21 17 22
REMARK H PARENT 11 12 17 23
REMARK Flexibility Score: inf
ROOT
ATOM      1  C   UNL     1      56.741  87.302  70.860  1.00  0.00     0.010 C 
ENDROOT
BRANCH   1   2
ATOM      2  C   UNL     1      56.616  88.346  69.712  1.00  0.00     0.001 C 
BRANCH   2   3
ATOM      3  C   UNL     1      55.131  88.664  69.365  1.00  0.00     0.000 C 
BRANCH   3   4
ATOM      4  C   UNL     1      54.658  88.050  68.017  1.00  0.00    -0.000 C 
BRANCH   4   5
ATOM      5  C   UNL     1      53.146  88.292  67.745  1.00  0.00    -0.000 C 
BRANCH   5   6
ATOM      6  C   UNL     1      52.858  89.720  67.209  1.00  0.00    -0.003 C 
ATOM      7  C   UNL     1      53.207  89.881  65.713  1.00  0.00     0.004 C 
ENDBRANCH   5   6
ENDBRANCH   4   5
ENDBRANCH   3   4
ENDBRANCH   2   3
ENDBRANCH   1   2
BRANCH   1   8
ATOM      8  C   UNL     1      57.280  85.920  70.397  1.00  0.00     0.100 C 
BRANCH   8   9
ATOM      9  C   UNL     1      57.724  85.100  71.550  1.00  0.00     0.220 C 
ATOM     10  O   UNL     1      56.891  84.336  72.093  1.00  0.00    -0.275 OA
ATOM     11  N   UNL     1      59.017  85.159  71.986  1.00  0.00    -0.352 N 
ATOM     12  H   UNL     1      59.578  85.868  71.536  1.00  0.00     0.163 HD
BRANCH  11  13
ATOM     13  C   UNL     1      59.599  84.321  72.989  1.00  0.00     0.151 C 
BRANCH  13  14
ATOM     14  C   UNL     1      60.789  83.561  72.521  1.00  0.00    -0.025 A 
ATOM     15  C   UNL     1      61.344  83.821  71.245  1.00  0.00     0.056 A 
ATOM     16  C   UNL     1      61.383  82.569  73.334  1.00  0.00     0.009 A 
ATOM     17  C   UNL     1      62.485  83.119  70.794  1.00  0.00     0.160 A 
ATOM     18  C   UNL     1      62.519  81.867  72.892  1.00  0.00     0.050 A 
ATOM     19  C   UNL     1      63.067  82.133  71.622  1.00  0.00     0.157 A 
BRANCH  17  20
ATOM     20  O   UNL     1      62.995  83.342  69.540  1.00  0.00    -0.493 OA
ATOM     21  C   UNL     1      62.252  82.714  68.481  1.00  0.00     0.278 C 
ENDBRANCH  17  20
BRANCH  19  22
ATOM     22  O   UNL     1      64.147  81.431  71.193  1.00  0.00    -0.504 OA
ATOM     23  H   UNL     1      64.393  80.783  71.857  1.00  0.00     0.293 HD
ENDBRANCH  19  22
ENDBRANCH  13  14
ENDBRANCH  11  13
ENDBRANCH   8   9
ENDBRANCH   1   8
TORSDOF 11
ENDMDL
MODEL 5
REMARK VINA RESULT:    -4.830     27.542     30.950
REMARK INTER + INTRA:          -9.178
REMARK INTER:                  -7.751
REMARK INTRA:                  -1.427
REMARK UNBOUND:                -1.383
REMARK SMILES CCCCCCCCC(=O)NCc1ccc(O)c(OC)c1
REMARK SMILES IDX 7 1 6 2 5 3 4 4 3 5 2 6 1 7 8 8 9 9 10 10 11 11 12 13 13 14
REMARK SMILES IDX 21 15 14 16 18 17 15 18 16 19 19 20 20 21 17 22
REMARK H PARENT 11 12 17 23
REMARK Flexibility Score: inf
ROOT
ATOM      1  C   UNL     1      80.929  64.904  74.339  1.00  0.00     0.010 C 
ENDROOT
BRANCH   1   2
ATOM      2  C   UNL     1      80.621  66.351  73.857  1.00  0.00     0.001 C 
BRANCH   2   3
ATOM      3  C   UNL     1      80.742  66.495  72.311  1.00  0.00     0.000 C 
BRANCH   3   4
ATOM      4  C   UNL     1      81.361  65.252  71.612  1.00  0.00    -0.000 C 
BRANCH   4   5
ATOM      5  C   UNL     1      81.309  65.347  70.061  1.00  0.00    -0.000 C 
BRANCH   5   6
ATOM      6  C   UNL     1      82.170  66.514  69.507  1.00  0.00    -0.003 C 
ATOM      7  C   UNL     1      81.607  67.105  68.195  1.00  0.00     0.004 C 
ENDBRANCH   5   6
ENDBRANCH   4   5
ENDBRANCH   3   4
ENDBRANCH   2   3
ENDBRANCH   1   2
BRANCH   1   8
ATOM      8  C   UNL     1      81.866  64.839  75.578  1.00  0.00     0.100 C 
BRANCH   8   9
ATOM      9  C   UNL     1      82.884  65.917  75.541  1.00  0.00     0.220 C 
ATOM     10  O   UNL     1      82.811  66.834  76.393  1.00  0.00    -0.275 OA
ATOM     11  N   UNL     1      83.891  65.889  74.618  1.00  0.00    -0.352 N 
ATOM     12  H   UNL     1      83.805  65.157  73.929  1.00  0.00     0.163 HD
BRANCH  11  13
ATOM     13  C   UNL     1      85.005  66.786  74.570  1.00  0.00     0.151 C 
BRANCH  13  14
ATOM     14  C   UNL     1      84.817  67.929  73.637  1.00  0.00    -0.025 A 
ATOM     15  C   UNL     1      85.199  69.235  74.025  1.00  0.00     0.056 A 
ATOM     16  C   UNL     1      84.253  67.735  72.355  1.00  0.00     0.009 A 
ATOM     17  C   UNL     1      85.043  70.329  73.142  1.00  0.00     0.160 A 
ATOM     18  C   UNL     1      84.096  68.818  71.472  1.00  0.00     0.050 A 
ATOM     19  C   UNL     1      84.481  70.115  71.863  1.00  0.00     0.157 A 
BRANCH  17  20
ATOM     20  O   UNL     1      85.375  71.601  73.535  1.00  0.00    -0.493 OA
ATOM     21  C   UNL     1      86.787  71.815  73.701  1.00  0.00     0.278 C 
ENDBRANCH  17  20
BRANCH  19  22
ATOM     22  O   UNL     1      84.300  71.158  71.013  1.00  0.00    -0.504 OA
ATOM     23  H   UNL     1      84.839  71.900  71.298  1.00  0.00     0.293 HD
ENDBRANCH  19  22
ENDBRANCH  13  14
ENDBRANCH  11  13
ENDBRANCH   8   9
ENDBRANCH   1   8
TORSDOF 11
ENDMDL
MODEL 6
REMARK VINA RESULT:    -4.824     12.855     14.910
REMARK INTER + INTRA:          -9.168
REMARK INTER:                  -8.497
REMARK INTRA:                  -0.671
REMARK UNBOUND:                -1.383
REMARK SMILES CCCCCCCCC(=O)NCc1ccc(O)c(OC)c1
REMARK SMILES IDX 7 1 6 2 5 3 4 4 3 5 2 6 1 7 8 8 9 9 10 10 11 11 12 13 13 14
REMARK SMILES IDX 21 15 14 16 18 17 15 18 16 19 19 20 20 21 17 22
REMARK H PARENT 11 12 17 23
REMARK Flexibility Score: inf
ROOT
ATOM      1  C   UNL     1      95.173  84.656  87.567  1.00  0.00     0.010 C 
ENDROOT
BRANCH   1   2
ATOM      2  C   UNL     1      94.876  86.034  88.225  1.00  0.00     0.001 C 
BRANCH   2   3
ATOM      3  C   UNL     1      96.039  87.048  88.018  1.00  0.00     0.000 C 
BRANCH   3   4
ATOM      4  C   UNL     1      95.625  88.531  88.242  1.00  0.00    -0.000 C 
BRANCH   4   5
ATOM      5  C   UNL     1      95.892  89.015  89.695  1.00  0.00    -0.000 C 
BRANCH   5   6
ATOM      6  C   UNL     1      94.649  88.863  90.612  1.00  0.00    -0.003 C 
ATOM      7  C   UNL     1      93.347  89.360  89.945  1.00  0.00     0.004 C 
ENDBRANCH   5   6
ENDBRANCH   4   5
ENDBRANCH   3   4
ENDBRANCH   2   3
ENDBRANCH   1   2
BRANCH   1   8
ATOM      8  C   UNL     1      94.226  84.305  86.385  1.00  0.00     0.100 C 
BRANCH   8   9
ATOM      9  C   UNL     1      94.889  84.528  85.078  1.00  0.00     0.220 C 
ATOM     10  O   UNL     1      95.211  85.699  84.765  1.00  0.00    -0.275 OA
ATOM     11  N   UNL     1      95.167  83.476  84.252  1.00  0.00    -0.352 N 
ATOM     12  H   UNL     1      94.788  82.592  84.561  1.00  0.00     0.163 HD
BRANCH  11  13
ATOM     13  C   UNL     1      95.923  83.542  83.039  1.00  0.00     0.151 C 
BRANCH  13  14
ATOM     14  C   UNL     1      96.268  82.211  82.472  1.00  0.00    -0.025 A 
ATOM     15  C   UNL     1      97.001  82.119  81.265  1.00  0.00     0.056 A 
ATOM     16  C   UNL     1      95.870  81.019  83.121  1.00  0.00     0.009 A 
ATOM     17  C   UNL     1      97.351  80.861  80.723  1.00  0.00     0.160 A 
ATOM     18  C   UNL     1      96.216  79.765  82.588  1.00  0.00     0.050 A 
ATOM     19  C   UNL     1      96.948  79.681  81.388  1.00  0.00     0.157 A 
BRANCH  17  20
ATOM     20  O   UNL     1      98.025  80.774  79.531  1.00  0.00    -0.493 OA
ATOM     21  C   UNL     1      97.338  81.377  78.420  1.00  0.00     0.278 C 
ENDBRANCH  17  20
BRANCH  19  22
ATOM     22  O   UNL     1      97.254  78.465  80.867  1.00  0.00    -0.504 OA
ATOM     23  H   UNL     1      97.108  78.478  79.918  1.00  0.00     0.293 HD
ENDBRANCH  19  22
ENDBRANCH  13  14
ENDBRANCH  11  13
ENDBRANCH   8   9
ENDBRANCH   1   8
TORSDOF 11
ENDMDL
MODEL 7
REMARK VINA RESULT:    -4.814     12.925     14.875
REMARK INTER + INTRA:          -9.152
REMARK INTER:                  -8.045
REMARK INTRA:                  -1.107
REMARK UNBOUND:                -1.383
REMARK SMILES CCCCCCCCC(=O)NCc1ccc(O)c(OC)c1
REMARK SMILES IDX 7 1 6 2 5 3 4 4 3 5 2 6 1 7 8 8 9 9 10 10 11 11 12 13 13 14
REMARK SMILES IDX 21 15 14 16 18 17 15 18 16 19 19 20 20 21 17 22
REMARK H PARENT 11 12 17 23
REMARK Flexibility Score: inf
ROOT
ATOM      1  C   UNL     1      97.610  80.270  73.761  1.00  0.00     0.010 C 
ENDROOT
BRANCH   1   2
ATOM      2  C   UNL     1      98.931  79.950  73.002  1.00  0.00     0.001 C 
BRANCH   2   3
ATOM      3  C   UNL     1      99.750  81.234  72.678  1.00  0.00     0.000 C 
BRANCH   3   4
ATOM      4  C   UNL     1     100.751  81.638  73.797  1.00  0.00    -0.000 C 
BRANCH   4   5
ATOM      5  C   UNL     1     100.418  83.019  74.430  1.00  0.00    -0.000 C 
BRANCH   5   6
ATOM      6  C   UNL     1     100.804  84.206  73.507  1.00  0.00    -0.003 C 
ATOM      7  C   UNL     1      99.640  84.665  72.601  1.00  0.00     0.004 C 
ENDBRANCH   5   6
ENDBRANCH   4   5
ENDBRANCH   3   4
ENDBRANCH   2   3
ENDBRANCH   1   2
BRANCH   1   8
ATOM      8  C   UNL     1      97.035  81.681  73.454  1.00  0.00     0.100 C 
BRANCH   8   9
ATOM      9  C   UNL     1      96.818  82.458  74.699  1.00  0.00     0.220 C 
ATOM     10  O   UNL     1      96.467  83.658  74.598  1.00  0.00    -0.275 OA
ATOM     11  N   UNL     1      96.970  81.867  75.920  1.00  0.00    -0.352 N 
ATOM     12  H   UNL     1      97.337  80.928  75.887  1.00  0.00     0.163 HD
BRANCH  11  13
ATOM     13  C   UNL     1      96.656  82.465  77.182  1.00  0.00     0.151 C 
BRANCH  13  14
ATOM     14  C   UNL     1      97.293  81.788  78.343  1.00  0.00    -0.025 A 
ATOM     15  C   UNL     1      98.351  80.870  78.140  1.00  0.00     0.056 A 
ATOM     16  C   UNL     1      96.855  82.043  79.663  1.00  0.00     0.009 A 
ATOM     17  C   UNL     1      98.978  80.232  79.235  1.00  0.00     0.160 A 
ATOM     18  C   UNL     1      97.476  81.413  80.757  1.00  0.00     0.050 A 
ATOM     19  C   UNL     1      98.530  80.503  80.547  1.00  0.00     0.157 A 
BRANCH  17  20
ATOM     20  O   UNL     1      99.975  79.311  79.033  1.00  0.00    -0.493 OA
ATOM     21  C   UNL     1     100.584  79.379  77.731  1.00  0.00     0.278 C 
ENDBRANCH  17  20
BRANCH  19  22
ATOM     22  O   UNL     1      99.104  79.879  81.607  1.00  0.00    -0.504 OA
ATOM     23  H   UNL     1      99.284  80.521  82.298  1.00  0.00     0.293 HD
ENDBRANCH  19  22
ENDBRANCH  13  14
ENDBRANCH  11  13
ENDBRANCH   8   9
ENDBRANCH   1   8
TORSDOF 11
ENDMDL
MODEL 8
REMARK VINA RESULT:    -4.760     13.797     15.916
REMARK INTER + INTRA:          -9.066
REMARK INTER:                  -8.214
REMARK INTRA:                  -0.852
REMARK UNBOUND:                -1.383
REMARK SMILES CCCCCCCCC(=O)NCc1ccc(O)c(OC)c1
REMARK SMILES IDX 7 1 6 2 5 3 4 4 3 5 2 6 1 7 8 8 9 9 10 10 11 11 12 13 13 14
REMARK SMILES IDX 21 15 14 16 18 17 15 18 16 19 19 20 20 21 17 22
REMARK H PARENT 11 12 17 23
REMARK Flexibility Score: inf
ROOT
ATOM      1  C   UNL     1      92.510  83.276  86.191  1.00  0.00     0.010 C 
ENDROOT
BRANCH   1   2
ATOM      2  C   UNL     1      91.302  83.056  87.147  1.00  0.00     0.001 C 
BRANCH   2   3
ATOM      3  C   UNL     1      90.933  81.550  87.292  1.00  0.00     0.000 C 
BRANCH   3   4
ATOM      4  C   UNL     1      89.557  81.179  86.670  1.00  0.00    -0.000 C 
BRANCH   4   5
ATOM      5  C   UNL     1      89.452  81.570  85.169  1.00  0.00    -0.000 C 
BRANCH   5   6
ATOM      6  C   UNL     1      90.391  80.725  84.266  1.00  0.00    -0.003 C 
ATOM      7  C   UNL     1      89.717  79.440  83.736  1.00  0.00     0.004 C 
ENDBRANCH   5   6
ENDBRANCH   4   5
ENDBRANCH   3   4
ENDBRANCH   2   3
ENDBRANCH   1   2
BRANCH   1   8
ATOM      8  C   UNL     1      93.607  82.182  86.301  1.00  0.00     0.100 C 
BRANCH   8   9
ATOM      9  C   UNL     1      94.836  82.573  85.568  1.00  0.00     0.220 C 
ATOM     10  O   UNL     1      95.926  82.566  86.189  1.00  0.00    -0.275 OA
ATOM     11  N   UNL     1      94.779  82.904  84.245  1.00  0.00    -0.352 N 
ATOM     12  H   UNL     1      93.844  82.961  83.869  1.00  0.00     0.163 HD
BRANCH  11  13
ATOM     13  C   UNL     1      95.904  83.160  83.398  1.00  0.00     0.151 C 
BRANCH  13  14
ATOM     14  C   UNL     1      96.303  81.998  82.560  1.00  0.00    -0.025 A 
ATOM     15  C   UNL     1      96.939  82.205  81.313  1.00  0.00     0.056 A 
ATOM     16  C   UNL     1      96.053  80.674  82.988  1.00  0.00     0.009 A 
ATOM     17  C   UNL     1      97.340  81.110  80.514  1.00  0.00     0.160 A 
ATOM     18  C   UNL     1      96.450  79.581  82.198  1.00  0.00     0.050 A 
ATOM     19  C   UNL     1      97.086  79.793  80.959  1.00  0.00     0.157 A 
BRANCH  17  20
ATOM     20  O   UNL     1      97.919  81.312  79.286  1.00  0.00    -0.493 OA
ATOM     21  C   UNL     1      97.071  81.986  78.339  1.00  0.00     0.278 C 
ENDBRANCH  17  20
BRANCH  19  22
ATOM     22  O   UNL     1      97.441  78.731  80.191  1.00  0.00    -0.504 OA
ATOM     23  H   UNL     1      96.727  78.089  80.184  1.00  0.00     0.293 HD
ENDBRANCH  19  22
ENDBRANCH  13  14
ENDBRANCH  11  13
ENDBRANCH   8   9
ENDBRANCH   1   8
TORSDOF 11
ENDMDL
MODEL 9
REMARK VINA RESULT:    -4.658     13.885     16.199
REMARK INTER + INTRA:          -8.901
REMARK INTER:                  -7.509
REMARK INTRA:                  -1.392
REMARK UNBOUND:                -1.383
REMARK SMILES CCCCCCCCC(=O)NCc1ccc(O)c(OC)c1
REMARK SMILES IDX 7 1 6 2 5 3 4 4 3 5 2 6 1 7 8 8 9 9 10 10 11 11 12 13 13 14
REMARK SMILES IDX 21 15 14 16 18 17 15 18 16 19 19 20 20 21 17 22
REMARK H PARENT 11 12 17 23
REMARK Flexibility Score: inf
ROOT
ATOM      1  C   UNL     1      97.676  77.125  75.298  1.00  0.00     0.010 C 
ENDROOT
BRANCH   1   2
ATOM      2  C   UNL     1      97.824  77.957  73.991  1.00  0.00     0.001 C 
BRANCH   2   3
ATOM      3  C   UNL     1      96.997  79.275  74.035  1.00  0.00     0.000 C 
BRANCH   3   4
ATOM      4  C   UNL     1      96.744  79.904  72.636  1.00  0.00    -0.000 C 
BRANCH   4   5
ATOM      5  C   UNL     1      97.957  79.740  71.677  1.00  0.00    -0.000 C 
BRANCH   5   6
ATOM      6  C   UNL     1      97.533  79.303  70.249  1.00  0.00    -0.003 C 
ATOM      7  C   UNL     1      97.679  77.783  70.018  1.00  0.00     0.004 C 
ENDBRANCH   5   6
ENDBRANCH   4   5
ENDBRANCH   3   4
ENDBRANCH   2   3
ENDBRANCH   1   2
BRANCH   1   8
ATOM      8  C   UNL     1      98.962  77.088  76.169  1.00  0.00     0.100 C 
BRANCH   8   9
ATOM      9  C   UNL     1      99.364  78.449  76.598  1.00  0.00     0.220 C 
ATOM     10  O   UNL     1     100.452  78.910  76.176  1.00  0.00    -0.275 OA
ATOM     11  N   UNL     1      98.551  79.190  77.408  1.00  0.00    -0.352 N 
ATOM     12  H   UNL     1      97.745  78.693  77.757  1.00  0.00     0.163 HD
BRANCH  11  13
ATOM     13  C   UNL     1      98.758  80.558  77.773  1.00  0.00     0.151 C 
BRANCH  13  14
ATOM     14  C   UNL     1      97.902  81.516  77.024  1.00  0.00    -0.025 A 
ATOM     15  C   UNL     1      98.288  81.960  75.736  1.00  0.00     0.056 A 
ATOM     16  C   UNL     1      96.696  82.003  77.580  1.00  0.00     0.009 A 
ATOM     17  C   UNL     1      97.477  82.857  75.005  1.00  0.00     0.160 A 
ATOM     18  C   UNL     1      95.884  82.894  76.857  1.00  0.00     0.050 A 
ATOM     19  C   UNL     1      96.273  83.329  75.576  1.00  0.00     0.157 A 
BRANCH  17  20
ATOM     20  O   UNL     1      97.873  83.318  73.775  1.00  0.00    -0.493 OA
ATOM     21  C   UNL     1      99.263  83.092  73.482  1.00  0.00     0.278 C 
ENDBRANCH  17  20
BRANCH  19  22
ATOM     22  O   UNL     1      95.496  84.212  74.897  1.00  0.00    -0.504 OA
ATOM     23  H   UNL     1      94.651  83.803  74.694  1.00  0.00     0.293 HD
ENDBRANCH  19  22
ENDBRANCH  13  14
ENDBRANCH  11  13
ENDBRANCH   8   9
ENDBRANCH   1   8
TORSDOF 11
ENDMDL
MODEL 10
REMARK VINA RESULT:    -4.552     13.303     15.436
REMARK INTER + INTRA:          -8.729
REMARK INTER:                  -8.062
REMARK INTRA:                  -0.667
REMARK UNBOUND:                -1.383
REMARK SMILES CCCCCCCCC(=O)NCc1ccc(O)c(OC)c1
REMARK SMILES IDX 7 1 6 2 5 3 4 4 3 5 2 6 1 7 8 8 9 9 10 10 11 11 12 13 13 14
REMARK SMILES IDX 21 15 14 16 18 17 15 18 16 19 19 20 20 21 17 22
REMARK H PARENT 11 12 17 23
REMARK Flexibility Score: inf
ROOT
ATOM      1  C   UNL     1      94.773  85.091  87.162  1.00  0.00     0.010 C 
ENDROOT
BRANCH   1   2
ATOM      2  C   UNL     1      95.901  86.141  87.375  1.00  0.00     0.001 C 
BRANCH   2   3
ATOM      3  C   UNL     1      96.310  86.272  88.872  1.00  0.00     0.000 C 
BRANCH   3   4
ATOM      4  C   UNL     1      96.391  87.741  89.374  1.00  0.00    -0.000 C 
BRANCH   4   5
ATOM      5  C   UNL     1      95.885  88.765  88.317  1.00  0.00    -0.000 C 
BRANCH   5   6
ATOM      6  C   UNL     1      94.643  89.559  88.804  1.00  0.00    -0.003 C 
ATOM      7  C   UNL     1      94.746  89.984  90.286  1.00  0.00     0.004 C 
ENDBRANCH   5   6
ENDBRANCH   4   5
ENDBRANCH   3   4
ENDBRANCH   2   3
ENDBRANCH   1   2
BRANCH   1   8
ATOM      8  C   UNL     1      94.575  84.672  85.679  1.00  0.00     0.100 C 
BRANCH   8   9
ATOM      9  C   UNL     1      95.120  83.317  85.423  1.00  0.00     0.220 C 
ATOM     10  O   UNL     1      95.931  82.836  86.250  1.00  0.00    -0.275 OA
ATOM     11  N   UNL     1      94.722  82.604  84.328  1.00  0.00    -0.352 N 
ATOM     12  H   UNL     1      94.136  83.118  83.686  1.00  0.00     0.163 HD
BRANCH  11  13
ATOM     13  C   UNL     1      95.064  81.243  84.047  1.00  0.00     0.151 C 
BRANCH  13  14
ATOM     14  C   UNL     1      95.900  81.073  82.829  1.00  0.00    -0.025 A 
ATOM     15  C   UNL     1      96.301  79.779  82.416  1.00  0.00     0.056 A 
ATOM     16  C   UNL     1      96.312  82.191  82.068  1.00  0.00     0.009 A 
ATOM     17  C   UNL     1      97.082  79.600  81.251  1.00  0.00     0.160 A 
ATOM     18  C   UNL     1      97.088  82.019  80.908  1.00  0.00     0.050 A 
ATOM     19  C   UNL     1      97.480  80.729  80.500  1.00  0.00     0.157 A 
BRANCH  17  20
ATOM     20  O   UNL     1      97.504  78.350  80.876  1.00  0.00    -0.493 OA
ATOM     21  C   UNL     1      98.587  77.832  81.668  1.00  0.00     0.278 C 
ENDBRANCH  17  20
BRANCH  19  22
ATOM     22  O   UNL     1      98.252  80.576  79.394  1.00  0.00    -0.504 OA
ATOM     23  H   UNL     1      99.159  80.403  79.658  1.00  0.00     0.293 HD
ENDBRANCH  19  22
ENDBRANCH  13  14
ENDBRANCH  11  13
ENDBRANCH   8   9
ENDBRANCH   1   8
TORSDOF 11
ENDMDL
