MODEL 1
REMARK VINA RESULT:    -6.021      0.000      0.000
REMARK INTER + INTRA:         -10.877
REMARK INTER:                  -9.893
REMARK INTRA:                  -0.984
REMARK UNBOUND:                -0.984
REMARK SMILES CCCCC[C@H](O)CC(=O)CCc1ccc(O)c(OC)c1
REMARK SMILES IDX 8 1 6 2 7 3 5 5 4 6 3 7 2 8 1 9 9 10 10 11 11 12 12 13 13 14
REMARK SMILES IDX 21 15 14 16 18 17 15 18 16 19 19 20 20 21 17 22
REMARK H PARENT 7 4 17 23
REMARK Flexibility Score: inf
ROOT
ATOM      1  C   UNL     1      93.381  82.703  84.559  1.00  0.00     0.107 C 
ENDROOT
BRANCH   1   2
ATOM      2  C   UNL     1      94.423  83.213  85.558  1.00  0.00     0.121 C 
BRANCH   2   3
ATOM      3  O   UNL     1      94.545  82.294  86.641  1.00  0.00    -0.393 OA
ATOM      4  H   UNL     1      94.953  81.480  86.296  1.00  0.00     0.210 HD
ENDBRANCH   2   3
BRANCH   2   5
ATOM      5  C   UNL     1      95.802  83.434  84.925  1.00  0.00     0.032 C 
BRANCH   5   6
ATOM      6  C   UNL     1      95.718  83.602  83.403  1.00  0.00     0.003 C 
BRANCH   6   7
ATOM      7  C   UNL     1      96.854  82.901  82.652  1.00  0.00    -0.000 C 
BRANCH   7   8
ATOM      8  C   UNL     1      96.858  83.180  81.150  1.00  0.00    -0.003 C 
ATOM      9  C   UNL     1      97.357  81.977  80.364  1.00  0.00     0.004 C 
ENDBRANCH   7   8
ENDBRANCH   6   7
ENDBRANCH   5   6
ENDBRANCH   2   5
ENDBRANCH   1   2
BRANCH   1  10
ATOM     10  C   UNL     1      93.235  81.190  84.571  1.00  0.00     0.135 C 
ATOM     11  O   UNL     1      94.218  80.459  84.456  1.00  0.00    -0.300 OA
BRANCH  10  12
ATOM     12  C   UNL     1      91.831  80.642  84.777  1.00  0.00     0.080 C 
BRANCH  12  13
ATOM     13  C   UNL     1      90.851  81.662  85.360  1.00  0.00     0.043 C 
BRANCH  13  14
ATOM     14  C   UNL     1      89.476  81.583  84.741  1.00  0.00    -0.044 A 
ATOM     15  C   UNL     1      88.525  82.563  85.025  1.00  0.00     0.054 A 
ATOM     16  C   UNL     1      89.157  80.529  83.884  1.00  0.00     0.008 A 
ATOM     17  C   UNL     1      87.256  82.489  84.452  1.00  0.00     0.160 A 
ATOM     18  C   UNL     1      87.888  80.455  83.311  1.00  0.00     0.050 A 
ATOM     19  C   UNL     1      86.937  81.435  83.595  1.00  0.00     0.157 A 
BRANCH  17  20
ATOM     20  O   UNL     1      86.335  83.452  84.737  1.00  0.00    -0.493 OA
ATOM     21  C   UNL     1      86.581  84.264  85.883  1.00  0.00     0.278 C 
ENDBRANCH  17  20
BRANCH  19  22
ATOM     22  O   UNL     1      85.700  81.352  83.030  1.00  0.00    -0.504 OA
ATOM     23  H   UNL     1      85.202  82.161  83.237  1.00  0.00     0.293 HD
ENDBRANCH  19  22
ENDBRANCH  13  14
ENDBRANCH  12  13
ENDBRANCH  10  12
ENDBRANCH   1  10
TORSDOF 12
ENDMDL
MODEL 2
REMARK VINA RESULT:    -5.935     14.204     16.621
REMARK INTER + INTRA:         -10.735
REMARK INTER:                 -10.084
REMARK INTRA:                  -0.650
REMARK UNBOUND:                -0.984
REMARK SMILES CCCCC[C@H](O)CC(=O)CCc1ccc(O)c(OC)c1
REMARK SMILES IDX 8 1 6 2 7 3 5 5 4 6 3 7 2 8 1 9 9 10 10 11 11 12 12 13 13 14
REMARK SMILES IDX 21 15 14 16 18 17 15 18 16 19 19 20 20 21 17 22
REMARK H PARENT 7 4 17 23
REMARK Flexibility Score: inf
ROOT
ATOM      1  C   UNL     1      91.865  96.193  76.783  1.00  0.00     0.107 C 
ENDROOT
BRANCH   1   2
ATOM      2  C   UNL     1      91.317  95.203  75.751  1.00  0.00     0.121 C 
BRANCH   2   3
ATOM      3  O   UNL     1      92.316  94.237  75.431  1.00  0.00    -0.393 OA
ATOM      4  H   UNL     1      92.976  94.670  74.862  1.00  0.00     0.210 HD
ENDBRANCH   2   3
BRANCH   2   5
ATOM      5  C   UNL     1      90.050  94.482  76.226  1.00  0.00     0.032 C 
BRANCH   5   6
ATOM      6  C   UNL     1      90.254  92.965  76.326  1.00  0.00     0.003 C 
BRANCH   6   7
ATOM      7  C   UNL     1      89.953  92.225  75.019  1.00  0.00    -0.000 C 
BRANCH   7   8
ATOM      8  C   UNL     1      89.723  90.726  75.203  1.00  0.00    -0.003 C 
ATOM      9  C   UNL     1      90.381  89.924  74.090  1.00  0.00     0.004 C 
ENDBRANCH   7   8
ENDBRANCH   6   7
ENDBRANCH   5   6
ENDBRANCH   2   5
ENDBRANCH   1   2
BRANCH   1  10
ATOM     10  C   UNL     1      92.997  95.618  77.618  1.00  0.00     0.135 C 
ATOM     11  O   UNL     1      92.784  94.741  78.455  1.00  0.00    -0.300 OA
BRANCH  10  12
ATOM     12  C   UNL     1      94.394  96.147  77.330  1.00  0.00     0.080 C 
BRANCH  12  13
ATOM     13  C   UNL     1      94.706  97.471  78.031  1.00  0.00     0.043 C 
BRANCH  13  14
ATOM     14  C   UNL     1      95.483  97.293  79.313  1.00  0.00    -0.044 A 
ATOM     15  C   UNL     1      95.731  98.391  80.137  1.00  0.00     0.054 A 
ATOM     16  C   UNL     1      95.953  96.030  79.674  1.00  0.00     0.008 A 
ATOM     17  C   UNL     1      96.448  98.225  81.322  1.00  0.00     0.160 A 
ATOM     18  C   UNL     1      96.670  95.864  80.859  1.00  0.00     0.050 A 
ATOM     19  C   UNL     1      96.918  96.962  81.683  1.00  0.00     0.157 A 
BRANCH  17  20
ATOM     20  O   UNL     1      96.684  99.305  82.119  1.00  0.00    -0.493 OA
ATOM     21  C   UNL     1      95.568  99.849  82.821  1.00  0.00     0.278 C 
ENDBRANCH  17  20
BRANCH  19  22
ATOM     22  O   UNL     1      97.620  96.787  82.837  1.00  0.00    -0.504 OA
ATOM     23  H   UNL     1      98.537  97.079  82.697  1.00  0.00     0.293 HD
ENDBRANCH  19  22
ENDBRANCH  13  14
ENDBRANCH  12  13
ENDBRANCH  10  12
ENDBRANCH   1  10
TORSDOF 12
ENDMDL
MODEL 3
REMARK VINA RESULT:    -5.931     20.631     24.541
REMARK INTER + INTRA:         -10.729
REMARK INTER:                  -9.846
REMARK INTRA:                  -0.883
REMARK UNBOUND:                -0.984
REMARK SMILES CCCCC[C@H](O)CC(=O)CCc1ccc(O)c(OC)c1
REMARK SMILES IDX 8 1 6 2 7 3 5 5 4 6 3 7 2 8 1 9 9 10 10 11 11 12 12 13 13 14
REMARK SMILES IDX 21 15 14 16 18 17 15 18 16 19 19 20 20 21 17 22
REMARK H PARENT 7 4 17 23
REMARK Flexibility Score: inf
ROOT
ATOM      1  C   UNL     1      79.070  65.508  70.116  1.00  0.00     0.107 C 
ENDROOT
BRANCH   1   2
ATOM      2  C   UNL     1      79.119  64.479  68.984  1.00  0.00     0.121 C 
BRANCH   2   3
ATOM      3  O   UNL     1      80.128  63.509  69.256  1.00  0.00    -0.393 OA
ATOM      4  H   UNL     1      80.019  62.780  68.621  1.00  0.00     0.210 HD
ENDBRANCH   2   3
BRANCH   2   5
ATOM      5  C   UNL     1      77.780  63.765  68.764  1.00  0.00     0.032 C 
BRANCH   5   6
ATOM      6  C   UNL     1      77.339  63.807  67.295  1.00  0.00     0.003 C 
BRANCH   6   7
ATOM      7  C   UNL     1      76.855  65.189  66.846  1.00  0.00    -0.000 C 
BRANCH   7   8
ATOM      8  C   UNL     1      75.403  65.204  66.372  1.00  0.00    -0.003 C 
ATOM      9  C   UNL     1      74.451  64.803  67.488  1.00  0.00     0.004 C 
ENDBRANCH   7   8
ENDBRANCH   6   7
ENDBRANCH   5   6
ENDBRANCH   2   5
ENDBRANCH   1   2
BRANCH   1  10
ATOM     10  C   UNL     1      80.398  65.662  70.839  1.00  0.00     0.135 C 
ATOM     11  O   UNL     1      81.415  65.996  70.231  1.00  0.00    -0.300 OA
BRANCH  10  12
ATOM     12  C   UNL     1      80.388  65.427  72.342  1.00  0.00     0.080 C 
BRANCH  12  13
ATOM     13  C   UNL     1      80.794  66.655  73.159  1.00  0.00     0.043 C 
BRANCH  13  14
ATOM     14  C   UNL     1      82.232  66.612  73.616  1.00  0.00    -0.044 A 
ATOM     15  C   UNL     1      83.064  67.712  73.406  1.00  0.00     0.054 A 
ATOM     16  C   UNL     1      82.729  65.472  74.249  1.00  0.00     0.008 A 
ATOM     17  C   UNL     1      84.393  67.672  73.830  1.00  0.00     0.160 A 
ATOM     18  C   UNL     1      84.058  65.432  74.673  1.00  0.00     0.050 A 
ATOM     19  C   UNL     1      84.889  66.532  74.463  1.00  0.00     0.157 A 
BRANCH  17  20
ATOM     20  O   UNL     1      85.196  68.752  73.618  1.00  0.00    -0.493 OA
ATOM     21  C   UNL     1      84.941  69.530  72.451  1.00  0.00     0.278 C 
ENDBRANCH  17  20
BRANCH  19  22
ATOM     22  O   UNL     1      86.185  66.481  74.881  1.00  0.00    -0.504 OA
ATOM     23  H   UNL     1      86.291  65.734  75.494  1.00  0.00     0.293 HD
ENDBRANCH  19  22
ENDBRANCH  13  14
ENDBRANCH  12  13
ENDBRANCH  10  12
ENDBRANCH   1  10
TORSDOF 12
ENDMDL
MODEL 4
REMARK VINA RESULT:    -5.766     16.579     18.792
REMARK INTER + INTRA:         -10.458
REMARK INTER:                  -8.949
REMARK INTRA:                  -1.509
REMARK UNBOUND:                -0.984
REMARK SMILES CCCCC[C@H](O)CC(=O)CCc1ccc(O)c(OC)c1
REMARK SMILES IDX 8 1 6 2 7 3 5 5 4 6 3 7 2 8 1 9 9 10 10 11 11 12 12 13 13 14
REMARK SMILES IDX 21 15 14 16 18 17 15 18 16 19 19 20 20 21 17 22
REMARK H PARENT 7 4 17 23
REMARK Flexibility Score: inf
ROOT
ATOM      1  C   UNL     1      93.935  96.757  77.682  1.00  0.00     0.107 C 
ENDROOT
BRANCH   1   2
ATOM      2  C   UNL     1      94.001  95.242  77.476  1.00  0.00     0.121 C 
BRANCH   2   3
ATOM      3  O   UNL     1      93.111  94.592  78.382  1.00  0.00    -0.393 OA
ATOM      4  H   UNL     1      92.323  95.155  78.480  1.00  0.00     0.210 HD
ENDBRANCH   2   3
BRANCH   2   5
ATOM      5  C   UNL     1      93.661  94.816  76.043  1.00  0.00     0.032 C 
BRANCH   5   6
ATOM      6  C   UNL     1      92.403  95.516  75.516  1.00  0.00     0.003 C 
BRANCH   6   7
ATOM      7  C   UNL     1      91.201  94.577  75.374  1.00  0.00    -0.000 C 
BRANCH   7   8
ATOM      8  C   UNL     1      90.105  94.824  76.409  1.00  0.00    -0.003 C 
ATOM      9  C   UNL     1      89.941  93.632  77.338  1.00  0.00     0.004 C 
ENDBRANCH   7   8
ENDBRANCH   6   7
ENDBRANCH   5   6
ENDBRANCH   2   5
ENDBRANCH   1   2
BRANCH   1  10
ATOM     10  C   UNL     1      95.301  97.424  77.636  1.00  0.00     0.135 C 
ATOM     11  O   UNL     1      96.124  97.243  78.532  1.00  0.00    -0.300 OA
BRANCH  10  12
ATOM     12  C   UNL     1      95.602  98.278  76.413  1.00  0.00     0.080 C 
BRANCH  12  13
ATOM     13  C   UNL     1      94.385  98.521  75.518  1.00  0.00     0.043 C 
BRANCH  13  14
ATOM     14  C   UNL     1      94.671  98.288  74.054  1.00  0.00    -0.044 A 
ATOM     15  C   UNL     1      94.005  99.038  73.085  1.00  0.00     0.054 A 
ATOM     16  C   UNL     1      95.603  97.322  73.671  1.00  0.00     0.008 A 
ATOM     17  C   UNL     1      94.272  98.823  71.732  1.00  0.00     0.160 A 
ATOM     18  C   UNL     1      95.869  97.107  72.318  1.00  0.00     0.050 A 
ATOM     19  C   UNL     1      95.203  97.858  71.349  1.00  0.00     0.157 A 
BRANCH  17  20
ATOM     20  O   UNL     1      93.614  99.562  70.795  1.00  0.00    -0.493 OA
ATOM     21  C   UNL     1      92.431 100.238  71.215  1.00  0.00     0.278 C 
ENDBRANCH  17  20
BRANCH  19  22
ATOM     22  O   UNL     1      95.471  97.639  70.032  1.00  0.00    -0.504 OA
ATOM     23  H   UNL     1      95.357  98.471  69.543  1.00  0.00     0.293 HD
ENDBRANCH  19  22
ENDBRANCH  13  14
ENDBRANCH  12  13
ENDBRANCH  10  12
ENDBRANCH   1  10
TORSDOF 12
ENDMDL
MODEL 5
REMARK VINA RESULT:    -5.676      5.823      9.793
REMARK INTER + INTRA:         -10.309
REMARK INTER:                  -9.624
REMARK INTRA:                  -0.685
REMARK UNBOUND:                -0.984
REMARK SMILES CCCCC[C@H](O)CC(=O)CCc1ccc(O)c(OC)c1
REMARK SMILES IDX 8 1 6 2 7 3 5 5 4 6 3 7 2 8 1 9 9 10 10 11 11 12 12 13 13 14
REMARK SMILES IDX 21 15 14 16 18 17 15 18 16 19 19 20 20 21 17 22
REMARK H PARENT 7 4 17 23
REMARK Flexibility Score: inf
ROOT
ATOM      1  C   UNL     1      96.689  81.467  81.983  1.00  0.00     0.107 C 
ENDROOT
BRANCH   1   2
ATOM      2  C   UNL     1      96.649  82.821  82.696  1.00  0.00     0.121 C 
BRANCH   2   3
ATOM      3  O   UNL     1      96.755  83.874  81.741  1.00  0.00    -0.393 OA
ATOM      4  H   UNL     1      97.153  83.504  80.933  1.00  0.00     0.210 HD
ENDBRANCH   2   3
BRANCH   2   5
ATOM      5  C   UNL     1      95.378  83.022  83.530  1.00  0.00     0.032 C 
BRANCH   5   6
ATOM      6  C   UNL     1      95.604  83.983  84.703  1.00  0.00     0.003 C 
BRANCH   6   7
ATOM      7  C   UNL     1      95.536  85.460  84.300  1.00  0.00    -0.000 C 
BRANCH   7   8
ATOM      8  C   UNL     1      94.397  86.226  84.969  1.00  0.00    -0.003 C 
ATOM      9  C   UNL     1      93.642  85.347  85.955  1.00  0.00     0.004 C 
ENDBRANCH   7   8
ENDBRANCH   6   7
ENDBRANCH   5   6
ENDBRANCH   2   5
ENDBRANCH   1   2
BRANCH   1  10
ATOM     10  C   UNL     1      98.017  81.195  81.295  1.00  0.00     0.135 C 
ATOM     11  O   UNL     1      99.047  81.038  81.950  1.00  0.00    -0.300 OA
BRANCH  10  12
ATOM     12  C   UNL     1      97.990  81.084  79.779  1.00  0.00     0.080 C 
BRANCH  12  13
ATOM     13  C   UNL     1      98.884  82.104  79.071  1.00  0.00     0.043 C 
BRANCH  13  14
ATOM     14  C   UNL     1      98.160  82.882  77.998  1.00  0.00    -0.044 A 
ATOM     15  C   UNL     1      98.749  83.057  76.746  1.00  0.00     0.054 A 
ATOM     16  C   UNL     1      96.903  83.427  78.260  1.00  0.00     0.008 A 
ATOM     17  C   UNL     1      98.079  83.775  75.755  1.00  0.00     0.160 A 
ATOM     18  C   UNL     1      96.233  84.145  77.270  1.00  0.00     0.050 A 
ATOM     19  C   UNL     1      96.821  84.320  76.017  1.00  0.00     0.157 A 
BRANCH  17  20
ATOM     20  O   UNL     1      98.664  83.940  74.536  1.00  0.00    -0.493 OA
ATOM     21  C   UNL     1      98.943  82.759  73.786  1.00  0.00     0.278 C 
ENDBRANCH  17  20
BRANCH  19  22
ATOM     22  O   UNL     1      96.158  85.023  75.058  1.00  0.00    -0.504 OA
ATOM     23  H   UNL     1      95.213  84.793  75.093  1.00  0.00     0.293 HD
ENDBRANCH  19  22
ENDBRANCH  13  14
ENDBRANCH  12  13
ENDBRANCH  10  12
ENDBRANCH   1  10
TORSDOF 12
ENDMDL
MODEL 6
REMARK VINA RESULT:    -5.662      6.452     10.611
REMARK INTER + INTRA:         -10.287
REMARK INTER:                  -8.876
REMARK INTRA:                  -1.411
REMARK UNBOUND:                -0.984
REMARK SMILES CCCCC[C@H](O)CC(=O)CCc1ccc(O)c(OC)c1
REMARK SMILES IDX 8 1 6 2 7 3 5 5 4 6 3 7 2 8 1 9 9 10 10 11 11 12 12 13 13 14
REMARK SMILES IDX 21 15 14 16 18 17 15 18 16 19 19 20 20 21 17 22
REMARK H PARENT 7 4 17 23
REMARK Flexibility Score: inf
ROOT
ATOM      1  C   UNL     1      97.627  83.806  74.210  1.00  0.00     0.107 C 
ENDROOT
BRANCH   1   2
ATOM      2  C   UNL     1      98.549  84.782  73.476  1.00  0.00     0.121 C 
BRANCH   2   3
ATOM      3  O   UNL     1      99.104  85.713  74.402  1.00  0.00    -0.393 OA
ATOM      4  H   UNL     1      98.907  85.392  75.300  1.00  0.00     0.210 HD
ENDBRANCH   2   3
BRANCH   2   5
ATOM      5  C   UNL     1      99.686  84.081  72.722  1.00  0.00     0.032 C 
BRANCH   5   6
ATOM      6  C   UNL     1     100.136  82.794  73.424  1.00  0.00     0.003 C 
BRANCH   6   7
ATOM      7  C   UNL     1     101.445  82.955  74.205  1.00  0.00    -0.000 C 
BRANCH   7   8
ATOM      8  C   UNL     1     101.241  83.176  75.703  1.00  0.00    -0.003 C 
ATOM      9  C   UNL     1     100.871  81.880  76.409  1.00  0.00     0.004 C 
ENDBRANCH   7   8
ENDBRANCH   6   7
ENDBRANCH   5   6
ENDBRANCH   2   5
ENDBRANCH   1   2
BRANCH   1  10
ATOM     10  C   UNL     1      97.125  84.346  75.539  1.00  0.00     0.135 C 
ATOM     11  O   UNL     1      96.291  85.251  75.581  1.00  0.00    -0.300 OA
BRANCH  10  12
ATOM     12  C   UNL     1      97.671  83.683  76.795  1.00  0.00     0.080 C 
BRANCH  12  13
ATOM     13  C   UNL     1      96.666  83.626  77.947  1.00  0.00     0.043 C 
BRANCH  13  14
ATOM     14  C   UNL     1      97.139  82.779  79.104  1.00  0.00    -0.044 A 
ATOM     15  C   UNL     1      96.966  83.228  80.413  1.00  0.00     0.054 A 
ATOM     16  C   UNL     1      97.750  81.549  78.863  1.00  0.00     0.008 A 
ATOM     17  C   UNL     1      97.403  82.444  81.482  1.00  0.00     0.160 A 
ATOM     18  C   UNL     1      98.188  80.765  79.931  1.00  0.00     0.050 A 
ATOM     19  C   UNL     1      98.014  81.214  81.241  1.00  0.00     0.157 A 
BRANCH  17  20
ATOM     20  O   UNL     1      97.229  82.893  82.756  1.00  0.00    -0.493 OA
ATOM     21  C   UNL     1      95.888  83.126  83.184  1.00  0.00     0.278 C 
ENDBRANCH  17  20
BRANCH  19  22
ATOM     22  O   UNL     1      98.445  80.440  82.276  1.00  0.00    -0.504 OA
ATOM     23  H   UNL     1      98.369  79.504  82.024  1.00  0.00     0.293 HD
ENDBRANCH  19  22
ENDBRANCH  13  14
ENDBRANCH  12  13
ENDBRANCH  10  12
ENDBRANCH   1  10
TORSDOF 12
ENDMDL
MODEL 7
REMARK VINA RESULT:    -5.658      5.567      7.284
REMARK INTER + INTRA:         -10.280
REMARK INTER:                  -9.685
REMARK INTRA:                  -0.596
REMARK UNBOUND:                -0.984
REMARK SMILES CCCCC[C@H](O)CC(=O)CCc1ccc(O)c(OC)c1
REMARK SMILES IDX 8 1 6 2 7 3 5 5 4 6 3 7 2 8 1 9 9 10 10 11 11 12 12 13 13 14
REMARK SMILES IDX 21 15 14 16 18 17 15 18 16 19 19 20 20 21 17 22
REMARK H PARENT 7 4 17 23
REMARK Flexibility Score: inf
ROOT
ATOM      1  C   UNL     1      91.787  75.686  81.350  1.00  0.00     0.107 C 
ENDROOT
BRANCH   1   2
ATOM      2  C   UNL     1      91.773  74.650  80.223  1.00  0.00     0.121 C 
BRANCH   2   3
ATOM      3  O   UNL     1      91.847  73.337  80.772  1.00  0.00    -0.393 OA
ATOM      4  H   UNL     1      92.012  73.423  81.727  1.00  0.00     0.210 HD
ENDBRANCH   2   3
BRANCH   2   5
ATOM      5  C   UNL     1      90.532  74.754  79.328  1.00  0.00     0.032 C 
BRANCH   5   6
ATOM      6  C   UNL     1      90.897  75.039  77.866  1.00  0.00     0.003 C 
BRANCH   6   7
ATOM      7  C   UNL     1      91.195  76.517  77.592  1.00  0.00    -0.000 C 
BRANCH   7   8
ATOM      8  C   UNL     1      91.007  76.918  76.131  1.00  0.00    -0.003 C 
ATOM      9  C   UNL     1      91.055  78.429  75.960  1.00  0.00     0.004 C 
ENDBRANCH   7   8
ENDBRANCH   6   7
ENDBRANCH   5   6
ENDBRANCH   2   5
ENDBRANCH   1   2
BRANCH   1  10
ATOM     10  C   UNL     1      90.860  75.327  82.500  1.00  0.00     0.135 C 
ATOM     11  O   UNL     1      90.023  74.432  82.383  1.00  0.00    -0.300 OA
BRANCH  10  12
ATOM     12  C   UNL     1      91.055  76.094  83.799  1.00  0.00     0.080 C 
BRANCH  12  13
ATOM     13  C   UNL     1      89.747  76.562  84.439  1.00  0.00     0.043 C 
BRANCH  13  14
ATOM     14  C   UNL     1      89.513  78.047  84.291  1.00  0.00    -0.044 A 
ATOM     15  C   UNL     1      90.598  78.919  84.207  1.00  0.00     0.054 A 
ATOM     16  C   UNL     1      88.211  78.545  84.236  1.00  0.00     0.008 A 
ATOM     17  C   UNL     1      90.380  80.290  84.069  1.00  0.00     0.160 A 
ATOM     18  C   UNL     1      87.993  79.916  84.098  1.00  0.00     0.050 A 
ATOM     19  C   UNL     1      89.078  80.788  84.015  1.00  0.00     0.157 A 
BRANCH  17  20
ATOM     20  O   UNL     1      91.448  81.133  83.989  1.00  0.00    -0.493 OA
ATOM     21  C   UNL     1      92.055  81.528  85.218  1.00  0.00     0.278 C 
ENDBRANCH  17  20
BRANCH  19  22
ATOM     22  O   UNL     1      88.853  82.125  83.880  1.00  0.00    -0.504 OA
ATOM     23  H   UNL     1      89.050  82.389  82.965  1.00  0.00     0.293 HD
ENDBRANCH  19  22
ENDBRANCH  13  14
ENDBRANCH  12  13
ENDBRANCH  10  12
ENDBRANCH   1  10
TORSDOF 12
ENDMDL
MODEL 8
REMARK VINA RESULT:    -5.572      2.776      4.965
REMARK INTER + INTRA:         -10.140
REMARK INTER:                  -9.135
REMARK INTRA:                  -1.005
REMARK UNBOUND:                -0.984
REMARK SMILES CCCCC[C@H](O)CC(=O)CCc1ccc(O)c(OC)c1
REMARK SMILES IDX 8 1 6 2 7 3 5 5 4 6 3 7 2 8 1 9 9 10 10 11 11 12 12 13 13 14
REMARK SMILES IDX 21 15 14 16 18 17 15 18 16 19 19 20 20 21 17 22
REMARK H PARENT 7 4 17 23
REMARK Flexibility Score: inf
ROOT
ATOM      1  C   UNL     1      96.786  82.663  82.882  1.00  0.00     0.107 C 
ENDROOT
BRANCH   1   2
ATOM      2  C   UNL     1      96.712  82.656  81.353  1.00  0.00     0.121 C 
BRANCH   2   3
ATOM      3  O   UNL     1      97.204  83.891  80.840  1.00  0.00    -0.393 OA
ATOM      4  H   UNL     1      96.633  84.153  80.096  1.00  0.00     0.210 HD
ENDBRANCH   2   3
BRANCH   2   5
ATOM      5  C   UNL     1      97.495  81.499  80.720  1.00  0.00     0.032 C 
BRANCH   5   6
ATOM      6  C   UNL     1      98.334  81.958  79.522  1.00  0.00     0.003 C 
BRANCH   6   7
ATOM      7  C   UNL     1      97.659  81.697  78.172  1.00  0.00    -0.000 C 
BRANCH   7   8
ATOM      8  C   UNL     1      97.698  82.896  77.226  1.00  0.00    -0.003 C 
ATOM      9  C   UNL     1      96.500  83.808  77.437  1.00  0.00     0.004 C 
ENDBRANCH   7   8
ENDBRANCH   6   7
ENDBRANCH   5   6
ENDBRANCH   2   5
ENDBRANCH   1   2
BRANCH   1  10
ATOM     10  C   UNL     1      95.923  83.742  83.515  1.00  0.00     0.135 C 
ATOM     11  O   UNL     1      96.139  84.934  83.298  1.00  0.00    -0.300 OA
BRANCH  10  12
ATOM     12  C   UNL     1      94.766  83.268  84.382  1.00  0.00     0.080 C 
BRANCH  12  13
ATOM     13  C   UNL     1      94.684  81.747  84.520  1.00  0.00     0.043 C 
BRANCH  13  14
ATOM     14  C   UNL     1      93.268  81.223  84.472  1.00  0.00    -0.044 A 
ATOM     15  C   UNL     1      93.025  79.856  84.608  1.00  0.00     0.054 A 
ATOM     16  C   UNL     1      92.204  82.107  84.290  1.00  0.00     0.008 A 
ATOM     17  C   UNL     1      91.717  79.374  84.563  1.00  0.00     0.160 A 
ATOM     18  C   UNL     1      90.896  81.624  84.246  1.00  0.00     0.050 A 
ATOM     19  C   UNL     1      90.653  80.258  84.382  1.00  0.00     0.157 A 
BRANCH  17  20
ATOM     20  O   UNL     1      91.491  78.037  84.697  1.00  0.00    -0.493 OA
ATOM     21  C   UNL     1      91.717  77.223  83.547  1.00  0.00     0.278 C 
ENDBRANCH  17  20
BRANCH  19  22
ATOM     22  O   UNL     1      89.371  79.799  84.337  1.00  0.00    -0.504 OA
ATOM     23  H   UNL     1      89.094  79.724  83.408  1.00  0.00     0.293 HD
ENDBRANCH  19  22
ENDBRANCH  13  14
ENDBRANCH  12  13
ENDBRANCH  10  12
ENDBRANCH   1  10
TORSDOF 12
ENDMDL
MODEL 9
REMARK VINA RESULT:    -5.540      4.964     10.169
REMARK INTER + INTRA:         -10.086
REMARK INTER:                  -9.332
REMARK INTRA:                  -0.755
REMARK UNBOUND:                -0.984
REMARK SMILES CCCCC[C@H](O)CC(=O)CCc1ccc(O)c(OC)c1
REMARK SMILES IDX 8 1 6 2 7 3 5 5 4 6 3 7 2 8 1 9 9 10 10 11 11 12 12 13 13 14
REMARK SMILES IDX 21 15 14 16 18 17 15 18 16 19 19 20 20 21 17 22
REMARK H PARENT 7 4 17 23
REMARK Flexibility Score: inf
ROOT
ATOM      1  C   UNL     1      97.078  82.458  81.702  1.00  0.00     0.107 C 
ENDROOT
BRANCH   1   2
ATOM      2  C   UNL     1      97.061  81.924  83.137  1.00  0.00     0.121 C 
BRANCH   2   3
ATOM      3  O   UNL     1      98.349  81.415  83.477  1.00  0.00    -0.393 OA
ATOM      4  H   UNL     1      99.005  81.866  82.918  1.00  0.00     0.210 HD
ENDBRANCH   2   3
BRANCH   2   5
ATOM      5  C   UNL     1      96.649  82.982  84.167  1.00  0.00     0.032 C 
BRANCH   5   6
ATOM      6  C   UNL     1      95.179  83.392  84.015  1.00  0.00     0.003 C 
BRANCH   6   7
ATOM      7  C   UNL     1      94.203  82.220  84.167  1.00  0.00    -0.000 C 
BRANCH   7   8
ATOM      8  C   UNL     1      92.881  82.606  84.826  1.00  0.00    -0.003 C 
ATOM      9  C   UNL     1      91.720  81.813  84.247  1.00  0.00     0.004 C 
ENDBRANCH   7   8
ENDBRANCH   6   7
ENDBRANCH   5   6
ENDBRANCH   2   5
ENDBRANCH   1   2
BRANCH   1  10
ATOM     10  C   UNL     1      97.239  81.363  80.661  1.00  0.00     0.135 C 
ATOM     11  O   UNL     1      97.090  80.179  80.960  1.00  0.00    -0.300 OA
BRANCH  10  12
ATOM     12  C   UNL     1      97.544  81.813  79.240  1.00  0.00     0.080 C 
BRANCH  12  13
ATOM     13  C   UNL     1      97.108  83.249  78.942  1.00  0.00     0.043 C 
BRANCH  13  14
ATOM     14  C   UNL     1      97.354  83.658  77.510  1.00  0.00    -0.044 A 
ATOM     15  C   UNL     1      98.508  83.234  76.852  1.00  0.00     0.054 A 
ATOM     16  C   UNL     1      96.425  84.459  76.844  1.00  0.00     0.008 A 
ATOM     17  C   UNL     1      98.734  83.611  75.528  1.00  0.00     0.160 A 
ATOM     18  C   UNL     1      96.651  84.836  75.520  1.00  0.00     0.050 A 
ATOM     19  C   UNL     1      97.806  84.413  74.862  1.00  0.00     0.157 A 
BRANCH  17  20
ATOM     20  O   UNL     1      99.866  83.192  74.896  1.00  0.00    -0.493 OA
ATOM     21  C   UNL     1      99.942  81.810  74.551  1.00  0.00     0.278 C 
ENDBRANCH  17  20
BRANCH  19  22
ATOM     22  O   UNL     1      98.015  84.787  73.570  1.00  0.00    -0.504 OA
ATOM     23  H   UNL     1      98.240  84.000  73.044  1.00  0.00     0.293 HD
ENDBRANCH  19  22
ENDBRANCH  13  14
ENDBRANCH  12  13
ENDBRANCH  10  12
ENDBRANCH   1  10
TORSDOF 12
ENDMDL
MODEL 10
REMARK VINA RESULT:    -5.490      2.179      3.676
REMARK INTER + INTRA:         -10.004
REMARK INTER:                  -9.389
REMARK INTRA:                  -0.615
REMARK UNBOUND:                -0.984
REMARK SMILES CCCCC[C@H](O)CC(=O)CCc1ccc(O)c(OC)c1
REMARK SMILES IDX 8 1 6 2 7 3 5 5 4 6 3 7 2 8 1 9 9 10 10 11 11 12 12 13 13 14
REMARK SMILES IDX 21 15 14 16 18 17 15 18 16 19 19 20 20 21 17 22
REMARK H PARENT 7 4 17 23
REMARK Flexibility Score: inf
ROOT
ATOM      1  C   UNL     1      96.012  82.449  84.306  1.00  0.00     0.107 C 
ENDROOT
BRANCH   1   2
ATOM      2  C   UNL     1      96.020  83.207  82.976  1.00  0.00     0.121 C 
BRANCH   2   3
ATOM      3  O   UNL     1      96.333  84.579  83.204  1.00  0.00    -0.393 OA
ATOM      4  H   UNL     1      97.096  84.807  82.644  1.00  0.00     0.210 HD
ENDBRANCH   2   3
BRANCH   2   5
ATOM      5  C   UNL     1      97.010  82.625  81.960  1.00  0.00     0.032 C 
BRANCH   5   6
ATOM      6  C   UNL     1      96.686  83.059  80.526  1.00  0.00     0.003 C 
BRANCH   6   7
ATOM      7  C   UNL     1      97.925  83.469  79.722  1.00  0.00    -0.000 C 
BRANCH   7   8
ATOM      8  C   UNL     1      97.864  83.059  78.252  1.00  0.00    -0.003 C 
ATOM      9  C   UNL     1      96.645  83.652  77.561  1.00  0.00     0.004 C 
ENDBRANCH   7   8
ENDBRANCH   6   7
ENDBRANCH   5   6
ENDBRANCH   2   5
ENDBRANCH   1   2
BRANCH   1  10
ATOM     10  C   UNL     1      94.986  81.329  84.347  1.00  0.00     0.135 C 
ATOM     11  O   UNL     1      95.205  80.249  83.797  1.00  0.00    -0.300 OA
BRANCH  10  12
ATOM     12  C   UNL     1      93.712  81.599  85.133  1.00  0.00     0.080 C 
BRANCH  12  13
ATOM     13  C   UNL     1      92.605  82.255  84.305  1.00  0.00     0.043 C 
BRANCH  13  14
ATOM     14  C   UNL     1      91.328  81.450  84.279  1.00  0.00    -0.044 A 
ATOM     15  C   UNL     1      91.382  80.056  84.276  1.00  0.00     0.054 A 
ATOM     16  C   UNL     1      90.094  82.101  84.260  1.00  0.00     0.008 A 
ATOM     17  C   UNL     1      90.201  79.313  84.253  1.00  0.00     0.160 A 
ATOM     18  C   UNL     1      88.914  81.358  84.237  1.00  0.00     0.050 A 
ATOM     19  C   UNL     1      88.967  79.964  84.233  1.00  0.00     0.157 A 
BRANCH  17  20
ATOM     20  O   UNL     1      90.266  77.952  84.249  1.00  0.00    -0.493 OA
ATOM     21  C   UNL     1      91.518  77.364  83.901  1.00  0.00     0.278 C 
ENDBRANCH  17  20
BRANCH  19  22
ATOM     22  O   UNL     1      87.808  79.250  84.211  1.00  0.00    -0.504 OA
ATOM     23  H   UNL     1      87.060  79.862  84.105  1.00  0.00     0.293 HD
ENDBRANCH  19  22
ENDBRANCH  13  14
ENDBRANCH  12  13
ENDBRANCH  10  12
ENDBRANCH   1  10
TORSDOF 12
ENDMDL
