MODEL 1
REMARK VINA RESULT:    -5.293      0.000      0.000
REMARK INTER + INTRA:         -10.417
REMARK INTER:                  -8.697
REMARK INTRA:                  -1.720
REMARK UNBOUND:                -1.720
REMARK SMILES CCCCC[C@H](O)CC(=O)CCc1ccc(O)c(OC)c1
REMARK SMILES IDX 8 1 6 2 7 3 5 5 4 6 3 7 2 8 1 9 9 10 10 11 11 12 12 13 13 14
REMARK SMILES IDX 21 15 14 16 18 17 15 18 16 19 19 20 20 21 17 22
REMARK H PARENT 7 4 17 23
REMARK Flexibility Score: inf
ROOT
ATOM      1  C   UNL     1      92.474  94.196  78.696  1.00  0.00     0.107 C 
ENDROOT
BRANCH   1   2
ATOM      2  C   UNL     1      92.721  94.456  77.208  1.00  0.00     0.121 C 
BRANCH   2   3
ATOM      3  O   UNL     1      92.125  93.420  76.431  1.00  0.00    -0.393 OA
ATOM      4  H   UNL     1      92.785  93.117  75.783  1.00  0.00     0.210 HD
ENDBRANCH   2   3
BRANCH   2   5
ATOM      5  C   UNL     1      92.183  95.813  76.738  1.00  0.00     0.032 C 
BRANCH   5   6
ATOM      6  C   UNL     1      93.308  96.822  76.479  1.00  0.00     0.003 C 
BRANCH   6   7
ATOM      7  C   UNL     1      94.454  96.249  75.638  1.00  0.00    -0.000 C 
BRANCH   7   8
ATOM      8  C   UNL     1      95.566  97.257  75.351  1.00  0.00    -0.003 C 
ATOM      9  C   UNL     1      95.037  98.683  75.359  1.00  0.00     0.004 C 
ENDBRANCH   7   8
ENDBRANCH   6   7
ENDBRANCH   5   6
ENDBRANCH   2   5
ENDBRANCH   1   2
BRANCH   1  10
ATOM     10  C   UNL     1      93.758  94.051  79.496  1.00  0.00     0.135 C 
ATOM     11  O   UNL     1      93.733  93.688  80.672  1.00  0.00    -0.300 OA
BRANCH  10  12
ATOM     12  C   UNL     1      95.057  94.332  78.758  1.00  0.00     0.080 C 
BRANCH  12  13
ATOM     13  C   UNL     1      96.187  94.823  79.666  1.00  0.00     0.043 C 
BRANCH  13  14
ATOM     14  C   UNL     1      96.107  96.301  79.965  1.00  0.00    -0.044 A 
ATOM     15  C   UNL     1      95.856  96.737  81.266  1.00  0.00     0.054 A 
ATOM     16  C   UNL     1      96.283  97.230  78.940  1.00  0.00     0.008 A 
ATOM     17  C   UNL     1      95.783  98.102  81.542  1.00  0.00     0.160 A 
ATOM     18  C   UNL     1      96.210  98.596  79.215  1.00  0.00     0.050 A 
ATOM     19  C   UNL     1      95.960  99.031  80.516  1.00  0.00     0.157 A 
BRANCH  17  20
ATOM     20  O   UNL     1      95.537  98.516  82.816  1.00  0.00    -0.493 OA
ATOM     21  C   UNL     1      96.319  97.924  83.852  1.00  0.00     0.278 C 
ENDBRANCH  17  20
BRANCH  19  22
ATOM     22  O   UNL     1      95.891 100.367  80.773  1.00  0.00    -0.504 OA
ATOM     23  H   UNL     1      94.995 100.584  81.084  1.00  0.00     0.293 HD
ENDBRANCH  19  22
ENDBRANCH  13  14
ENDBRANCH  12  13
ENDBRANCH  10  12
ENDBRANCH   1  10
TORSDOF 12
ENDMDL
MODEL 2
REMARK VINA RESULT:    -5.240     22.457     25.905
REMARK INTER + INTRA:         -10.329
REMARK INTER:                  -8.164
REMARK INTRA:                  -2.165
REMARK UNBOUND:                -1.720
REMARK SMILES CCCCC[C@H](O)CC(=O)CCc1ccc(O)c(OC)c1
REMARK SMILES IDX 8 1 6 2 7 3 5 5 4 6 3 7 2 8 1 9 9 10 10 11 11 12 12 13 13 14
REMARK SMILES IDX 21 15 14 16 18 17 15 18 16 19 19 20 20 21 17 22
REMARK H PARENT 7 4 17 23
REMARK Flexibility Score: inf
ROOT
ATOM      1  C   UNL     1      74.770  81.288  66.036  1.00  0.00     0.107 C 
ENDROOT
BRANCH   1   2
ATOM      2  C   UNL     1      73.456  81.433  65.265  1.00  0.00     0.121 C 
BRANCH   2   3
ATOM      3  O   UNL     1      72.596  80.336  65.564  1.00  0.00    -0.393 OA
ATOM      4  H   UNL     1      73.087  79.721  66.137  1.00  0.00     0.210 HD
ENDBRANCH   2   3
BRANCH   2   5
ATOM      5  C   UNL     1      72.724  82.746  65.569  1.00  0.00     0.032 C 
BRANCH   5   6
ATOM      6  C   UNL     1      73.375  83.945  64.869  1.00  0.00     0.003 C 
BRANCH   6   7
ATOM      7  C   UNL     1      73.797  85.056  65.836  1.00  0.00    -0.000 C 
BRANCH   7   8
ATOM      8  C   UNL     1      73.787  84.627  67.303  1.00  0.00    -0.003 C 
ATOM      9  C   UNL     1      74.060  85.805  68.226  1.00  0.00     0.004 C 
ENDBRANCH   7   8
ENDBRANCH   6   7
ENDBRANCH   5   6
ENDBRANCH   2   5
ENDBRANCH   1   2
BRANCH   1  10
ATOM     10  C   UNL     1      75.998  81.425  65.150  1.00  0.00     0.135 C 
ATOM     11  O   UNL     1      76.005  80.976  64.004  1.00  0.00    -0.300 OA
BRANCH  10  12
ATOM     12  C   UNL     1      77.182  82.177  65.738  1.00  0.00     0.080 C 
BRANCH  12  13
ATOM     13  C   UNL     1      77.225  83.656  65.350  1.00  0.00     0.043 C 
BRANCH  13  14
ATOM     14  C   UNL     1      77.407  84.574  66.535  1.00  0.00    -0.044 A 
ATOM     15  C   UNL     1      77.410  84.052  67.829  1.00  0.00     0.054 A 
ATOM     16  C   UNL     1      77.571  85.945  66.336  1.00  0.00     0.008 A 
ATOM     17  C   UNL     1      77.578  84.901  68.923  1.00  0.00     0.160 A 
ATOM     18  C   UNL     1      77.739  86.794  67.430  1.00  0.00     0.050 A 
ATOM     19  C   UNL     1      77.743  86.272  68.723  1.00  0.00     0.157 A 
BRANCH  17  20
ATOM     20  O   UNL     1      77.579  84.379  70.181  1.00  0.00    -0.493 OA
ATOM     21  C   UNL     1      76.315  84.246  70.828  1.00  0.00     0.278 C 
ENDBRANCH  17  20
BRANCH  19  22
ATOM     22  O   UNL     1      77.908  87.111  69.784  1.00  0.00    -0.504 OA
ATOM     23  H   UNL     1      78.393  86.643  70.485  1.00  0.00     0.293 HD
ENDBRANCH  19  22
ENDBRANCH  13  14
ENDBRANCH  12  13
ENDBRANCH  10  12
ENDBRANCH   1  10
TORSDOF 12
ENDMDL
MODEL 3
REMARK VINA RESULT:    -5.022     32.217     35.556
REMARK INTER + INTRA:          -9.971
REMARK INTER:                  -8.542
REMARK INTRA:                  -1.429
REMARK UNBOUND:                -1.720
REMARK SMILES CCCCC[C@H](O)CC(=O)CCc1ccc(O)c(OC)c1
REMARK SMILES IDX 8 1 6 2 7 3 5 5 4 6 3 7 2 8 1 9 9 10 10 11 11 12 12 13 13 14
REMARK SMILES IDX 21 15 14 16 18 17 15 18 16 19 19 20 20 21 17 22
REMARK H PARENT 7 4 17 23
REMARK Flexibility Score: inf
ROOT
ATOM      1  C   UNL     1      62.035  84.269  73.689  1.00  0.00     0.107 C 
ENDROOT
BRANCH   1   2
ATOM      2  C   UNL     1      60.683  84.960  73.884  1.00  0.00     0.121 C 
BRANCH   2   3
ATOM      3  O   UNL     1      60.360  85.006  75.272  1.00  0.00    -0.393 OA
ATOM      4  H   UNL     1      60.898  84.334  75.725  1.00  0.00     0.210 HD
ENDBRANCH   2   3
BRANCH   2   5
ATOM      5  C   UNL     1      60.647  86.382  73.310  1.00  0.00     0.032 C 
BRANCH   5   6
ATOM      6  C   UNL     1      59.615  86.523  72.185  1.00  0.00     0.003 C 
BRANCH   6   7
ATOM      7  C   UNL     1      58.742  85.278  72.003  1.00  0.00    -0.000 C 
BRANCH   7   8
ATOM      8  C   UNL     1      58.828  84.668  70.605  1.00  0.00    -0.003 C 
ATOM      9  C   UNL     1      60.252  84.707  70.071  1.00  0.00     0.004 C 
ENDBRANCH   7   8
ENDBRANCH   6   7
ENDBRANCH   5   6
ENDBRANCH   2   5
ENDBRANCH   1   2
BRANCH   1  10
ATOM     10  C   UNL     1      62.107  82.903  74.351  1.00  0.00     0.135 C 
ATOM     11  O   UNL     1      62.036  82.788  75.574  1.00  0.00    -0.300 OA
BRANCH  10  12
ATOM     12  C   UNL     1      62.224  81.702  73.425  1.00  0.00     0.080 C 
BRANCH  12  13
ATOM     13  C   UNL     1      63.660  81.389  73.003  1.00  0.00     0.043 C 
BRANCH  13  14
ATOM     14  C   UNL     1      64.045  82.032  71.692  1.00  0.00    -0.044 A 
ATOM     15  C   UNL     1      65.143  82.891  71.632  1.00  0.00     0.054 A 
ATOM     16  C   UNL     1      63.303  81.768  70.541  1.00  0.00     0.008 A 
ATOM     17  C   UNL     1      65.499  83.484  70.421  1.00  0.00     0.160 A 
ATOM     18  C   UNL     1      63.658  82.361  69.329  1.00  0.00     0.050 A 
ATOM     19  C   UNL     1      64.756  83.220  69.270  1.00  0.00     0.157 A 
BRANCH  17  20
ATOM     20  O   UNL     1      66.572  84.321  70.375  1.00  0.00    -0.493 OA
ATOM     21  C   UNL     1      67.813  83.812  70.861  1.00  0.00     0.278 C 
ENDBRANCH  17  20
BRANCH  19  22
ATOM     22  O   UNL     1      65.093  83.793  68.081  1.00  0.00    -0.504 OA
ATOM     23  H   UNL     1      64.348  84.334  67.768  1.00  0.00     0.293 HD
ENDBRANCH  19  22
ENDBRANCH  13  14
ENDBRANCH  12  13
ENDBRANCH  10  12
ENDBRANCH   1  10
TORSDOF 12
ENDMDL
MODEL 4
REMARK VINA RESULT:    -5.020      2.212      4.428
REMARK INTER + INTRA:          -9.968
REMARK INTER:                  -8.786
REMARK INTRA:                  -1.182
REMARK UNBOUND:                -1.720
REMARK SMILES CCCCC[C@H](O)CC(=O)CCc1ccc(O)c(OC)c1
REMARK SMILES IDX 8 1 6 2 7 3 5 5 4 6 3 7 2 8 1 9 9 10 10 11 11 12 12 13 13 14
REMARK SMILES IDX 21 15 14 16 18 17 15 18 16 19 19 20 20 21 17 22
REMARK H PARENT 7 4 17 23
REMARK Flexibility Score: inf
ROOT
ATOM      1  C   UNL     1      95.403  97.901  75.932  1.00  0.00     0.107 C 
ENDROOT
BRANCH   1   2
ATOM      2  C   UNL     1      94.116  98.636  75.552  1.00  0.00     0.121 C 
BRANCH   2   3
ATOM      3  O   UNL     1      94.286  99.291  74.297  1.00  0.00    -0.393 OA
ATOM      4  H   UNL     1      95.109  99.809  74.341  1.00  0.00     0.210 HD
ENDBRANCH   2   3
BRANCH   2   5
ATOM      5  C   UNL     1      92.896  97.710  75.476  1.00  0.00     0.032 C 
BRANCH   5   6
ATOM      6  C   UNL     1      92.973  96.570  76.500  1.00  0.00     0.003 C 
BRANCH   6   7
ATOM      7  C   UNL     1      91.675  96.376  77.290  1.00  0.00    -0.000 C 
BRANCH   7   8
ATOM      8  C   UNL     1      91.395  94.920  77.659  1.00  0.00    -0.003 C 
ATOM      9  C   UNL     1      92.577  94.025  77.320  1.00  0.00     0.004 C 
ENDBRANCH   7   8
ENDBRANCH   6   7
ENDBRANCH   5   6
ENDBRANCH   2   5
ENDBRANCH   1   2
BRANCH   1  10
ATOM     10  C   UNL     1      96.114  98.522  77.124  1.00  0.00     0.135 C 
ATOM     11  O   UNL     1      96.659  99.622  77.032  1.00  0.00    -0.300 OA
BRANCH  10  12
ATOM     12  C   UNL     1      96.073  97.739  78.427  1.00  0.00     0.080 C 
BRANCH  12  13
ATOM     13  C   UNL     1      95.569  96.303  78.266  1.00  0.00     0.043 C 
BRANCH  13  14
ATOM     14  C   UNL     1      95.474  95.559  79.576  1.00  0.00    -0.044 A 
ATOM     15  C   UNL     1      95.301  96.263  80.768  1.00  0.00     0.054 A 
ATOM     16  C   UNL     1      95.559  94.166  79.595  1.00  0.00     0.008 A 
ATOM     17  C   UNL     1      95.212  95.574  81.978  1.00  0.00     0.160 A 
ATOM     18  C   UNL     1      95.470  93.478  80.805  1.00  0.00     0.050 A 
ATOM     19  C   UNL     1      95.297  94.182  81.996  1.00  0.00     0.157 A 
BRANCH  17  20
ATOM     20  O   UNL     1      95.043  96.273  83.135  1.00  0.00    -0.493 OA
ATOM     21  C   UNL     1      95.583  97.593  83.180  1.00  0.00     0.278 C 
ENDBRANCH  17  20
BRANCH  19  22
ATOM     22  O   UNL     1      95.211  93.499  83.171  1.00  0.00    -0.504 OA
ATOM     23  H   UNL     1      94.275  93.322  83.367  1.00  0.00     0.293 HD
ENDBRANCH  19  22
ENDBRANCH  13  14
ENDBRANCH  12  13
ENDBRANCH  10  12
ENDBRANCH   1  10
TORSDOF 12
ENDMDL
MODEL 5
REMARK VINA RESULT:    -4.990     22.934     26.458
REMARK INTER + INTRA:          -9.919
REMARK INTER:                  -8.092
REMARK INTRA:                  -1.827
REMARK UNBOUND:                -1.720
REMARK SMILES CCCCC[C@H](O)CC(=O)CCc1ccc(O)c(OC)c1
REMARK SMILES IDX 8 1 6 2 7 3 5 5 4 6 3 7 2 8 1 9 9 10 10 11 11 12 12 13 13 14
REMARK SMILES IDX 21 15 14 16 18 17 15 18 16 19 19 20 20 21 17 22
REMARK H PARENT 7 4 17 23
REMARK Flexibility Score: inf
ROOT
ATOM      1  C   UNL     1      74.149  81.757  65.835  1.00  0.00     0.107 C 
ENDROOT
BRANCH   1   2
ATOM      2  C   UNL     1      72.724  81.493  65.343  1.00  0.00     0.121 C 
BRANCH   2   3
ATOM      3  O   UNL     1      72.369  80.136  65.596  1.00  0.00    -0.393 OA
ATOM      4  H   UNL     1      71.627  79.908  65.009  1.00  0.00     0.210 HD
ENDBRANCH   2   3
BRANCH   2   5
ATOM      5  C   UNL     1      71.685  82.416  65.991  1.00  0.00     0.032 C 
BRANCH   5   6
ATOM      6  C   UNL     1      72.333  83.463  66.905  1.00  0.00     0.003 C 
BRANCH   6   7
ATOM      7  C   UNL     1      72.416  84.855  66.270  1.00  0.00    -0.000 C 
BRANCH   7   8
ATOM      8  C   UNL     1      73.666  85.637  66.671  1.00  0.00    -0.003 C 
ATOM      9  C   UNL     1      74.300  85.062  67.928  1.00  0.00     0.004 C 
ENDBRANCH   7   8
ENDBRANCH   6   7
ENDBRANCH   5   6
ENDBRANCH   2   5
ENDBRANCH   1   2
BRANCH   1  10
ATOM     10  C   UNL     1      75.146  81.945  64.703  1.00  0.00     0.135 C 
ATOM     11  O   UNL     1      75.746  80.983  64.222  1.00  0.00    -0.300 OA
BRANCH  10  12
ATOM     12  C   UNL     1      75.321  83.361  64.176  1.00  0.00     0.080 C 
BRANCH  12  13
ATOM     13  C   UNL     1      76.779  83.819  64.116  1.00  0.00     0.043 C 
BRANCH  13  14
ATOM     14  C   UNL     1      77.304  84.298  65.449  1.00  0.00    -0.044 A 
ATOM     15  C   UNL     1      77.244  85.652  65.777  1.00  0.00     0.054 A 
ATOM     16  C   UNL     1      77.849  83.385  66.352  1.00  0.00     0.008 A 
ATOM     17  C   UNL     1      77.728  86.093  67.009  1.00  0.00     0.160 A 
ATOM     18  C   UNL     1      78.334  83.826  67.584  1.00  0.00     0.050 A 
ATOM     19  C   UNL     1      78.273  85.180  67.912  1.00  0.00     0.157 A 
BRANCH  17  20
ATOM     20  O   UNL     1      77.664  87.418  67.318  1.00  0.00    -0.493 OA
ATOM     21  C   UNL     1      76.518  88.136  66.862  1.00  0.00     0.278 C 
ENDBRANCH  17  20
BRANCH  19  22
ATOM     22  O   UNL     1      78.749  85.599  69.117  1.00  0.00    -0.504 OA
ATOM     23  H   UNL     1      79.657  85.268  69.232  1.00  0.00     0.293 HD
ENDBRANCH  19  22
ENDBRANCH  13  14
ENDBRANCH  12  13
ENDBRANCH  10  12
ENDBRANCH   1  10
TORSDOF 12
ENDMDL
MODEL 6
REMARK VINA RESULT:    -4.986     22.641     25.656
REMARK INTER + INTRA:          -9.913
REMARK INTER:                  -8.979
REMARK INTRA:                  -0.934
REMARK UNBOUND:                -1.720
REMARK SMILES CCCCC[C@H](O)CC(=O)CCc1ccc(O)c(OC)c1
REMARK SMILES IDX 8 1 6 2 7 3 5 5 4 6 3 7 2 8 1 9 9 10 10 11 11 12 12 13 13 14
REMARK SMILES IDX 21 15 14 16 18 17 15 18 16 19 19 20 20 21 17 22
REMARK H PARENT 7 4 17 23
REMARK Flexibility Score: inf
ROOT
ATOM      1  C   UNL     1      76.513  83.954  66.672  1.00  0.00     0.107 C 
ENDROOT
BRANCH   1   2
ATOM      2  C   UNL     1      76.994  83.123  65.480  1.00  0.00     0.121 C 
BRANCH   2   3
ATOM      3  O   UNL     1      77.533  81.886  65.939  1.00  0.00    -0.393 OA
ATOM      4  H   UNL     1      78.377  81.739  65.478  1.00  0.00     0.210 HD
ENDBRANCH   2   3
BRANCH   2   5
ATOM      5  C   UNL     1      75.886  82.843  64.457  1.00  0.00     0.032 C 
BRANCH   5   6
ATOM      6  C   UNL     1      75.401  81.390  64.517  1.00  0.00     0.003 C 
BRANCH   6   7
ATOM      7  C   UNL     1      74.797  80.898  63.198  1.00  0.00    -0.000 C 
BRANCH   7   8
ATOM      8  C   UNL     1      73.420  80.255  63.356  1.00  0.00    -0.003 C 
ATOM      9  C   UNL     1      72.820  80.560  64.720  1.00  0.00     0.004 C 
ENDBRANCH   7   8
ENDBRANCH   6   7
ENDBRANCH   5   6
ENDBRANCH   2   5
ENDBRANCH   1   2
BRANCH   1  10
ATOM     10  C   UNL     1      77.488  83.943  67.838  1.00  0.00     0.135 C 
ATOM     11  O   UNL     1      78.704  83.950  67.647  1.00  0.00    -0.300 OA
BRANCH  10  12
ATOM     12  C   UNL     1      76.883  83.970  69.234  1.00  0.00     0.080 C 
BRANCH  12  13
ATOM     13  C   UNL     1      77.290  85.193  70.057  1.00  0.00     0.043 C 
BRANCH  13  14
ATOM     14  C   UNL     1      76.269  86.305  70.010  1.00  0.00    -0.044 A 
ATOM     15  C   UNL     1      74.908  86.004  70.042  1.00  0.00     0.054 A 
ATOM     16  C   UNL     1      76.689  87.634  69.935  1.00  0.00     0.008 A 
ATOM     17  C   UNL     1      73.966  87.033  69.999  1.00  0.00     0.160 A 
ATOM     18  C   UNL     1      75.747  88.662  69.893  1.00  0.00     0.050 A 
ATOM     19  C   UNL     1      74.385  88.361  69.924  1.00  0.00     0.157 A 
BRANCH  17  20
ATOM     20  O   UNL     1      72.639  86.726  70.030  1.00  0.00    -0.493 OA
ATOM     21  C   UNL     1      72.267  85.412  69.618  1.00  0.00     0.278 C 
ENDBRANCH  17  20
BRANCH  19  22
ATOM     22  O   UNL     1      73.475  89.373  69.882  1.00  0.00    -0.504 OA
ATOM     23  H   UNL     1      73.625  89.901  69.079  1.00  0.00     0.293 HD
ENDBRANCH  19  22
ENDBRANCH  13  14
ENDBRANCH  12  13
ENDBRANCH  10  12
ENDBRANCH   1  10
TORSDOF 12
ENDMDL
MODEL 7
REMARK VINA RESULT:    -4.957      2.417      5.428
REMARK INTER + INTRA:          -9.864
REMARK INTER:                  -8.257
REMARK INTRA:                  -1.606
REMARK UNBOUND:                -1.720
REMARK SMILES CCCCC[C@H](O)CC(=O)CCc1ccc(O)c(OC)c1
REMARK SMILES IDX 8 1 6 2 7 3 5 5 4 6 3 7 2 8 1 9 9 10 10 11 11 12 12 13 13 14
REMARK SMILES IDX 21 15 14 16 18 17 15 18 16 19 19 20 20 21 17 22
REMARK H PARENT 7 4 17 23
REMARK Flexibility Score: inf
ROOT
ATOM      1  C   UNL     1      94.252  94.224  79.005  1.00  0.00     0.107 C 
ENDROOT
BRANCH   1   2
ATOM      2  C   UNL     1      94.404  94.207  80.528  1.00  0.00     0.121 C 
BRANCH   2   3
ATOM      3  O   UNL     1      93.939  92.963  81.046  1.00  0.00    -0.393 OA
ATOM      4  H   UNL     1      94.697  92.354  81.082  1.00  0.00     0.210 HD
ENDBRANCH   2   3
BRANCH   2   5
ATOM      5  C   UNL     1      95.848  94.439  80.990  1.00  0.00     0.032 C 
BRANCH   5   6
ATOM      6  C   UNL     1      96.614  95.368  80.041  1.00  0.00     0.003 C 
BRANCH   6   7
ATOM      7  C   UNL     1      97.516  96.369  80.771  1.00  0.00    -0.000 C 
BRANCH   7   8
ATOM      8  C   UNL     1      97.173  97.829  80.479  1.00  0.00    -0.003 C 
ATOM      9  C   UNL     1      95.805  98.197  81.031  1.00  0.00     0.004 C 
ENDBRANCH   7   8
ENDBRANCH   6   7
ENDBRANCH   5   6
ENDBRANCH   2   5
ENDBRANCH   1   2
BRANCH   1  10
ATOM     10  C   UNL     1      92.856  94.616  78.550  1.00  0.00     0.135 C 
ATOM     11  O   UNL     1      91.858  94.092  79.045  1.00  0.00    -0.300 OA
BRANCH  10  12
ATOM     12  C   UNL     1      92.764  95.710  77.496  1.00  0.00     0.080 C 
BRANCH  12  13
ATOM     13  C   UNL     1      93.678  95.481  76.292  1.00  0.00     0.043 C 
BRANCH  13  14
ATOM     14  C   UNL     1      94.710  96.570  76.117  1.00  0.00    -0.044 A 
ATOM     15  C   UNL     1      95.213  96.858  74.848  1.00  0.00     0.054 A 
ATOM     16  C   UNL     1      95.161  97.288  77.225  1.00  0.00     0.008 A 
ATOM     17  C   UNL     1      96.165  97.865  74.688  1.00  0.00     0.160 A 
ATOM     18  C   UNL     1      96.113  98.294  77.065  1.00  0.00     0.050 A 
ATOM     19  C   UNL     1      96.616  98.582  75.796  1.00  0.00     0.157 A 
BRANCH  17  20
ATOM     20  O   UNL     1      96.649  98.137  73.444  1.00  0.00    -0.493 OA
ATOM     21  C   UNL     1      95.832  98.936  72.591  1.00  0.00     0.278 C 
ENDBRANCH  17  20
BRANCH  19  22
ATOM     22  O   UNL     1      97.545  99.567  75.652  1.00  0.00    -0.504 OA
ATOM     23  H   UNL     1      97.167 100.284  75.114  1.00  0.00     0.293 HD
ENDBRANCH  19  22
ENDBRANCH  13  14
ENDBRANCH  12  13
ENDBRANCH  10  12
ENDBRANCH   1  10
TORSDOF 12
ENDMDL
MODEL 8
REMARK VINA RESULT:    -4.933     30.300     33.793
REMARK INTER + INTRA:          -9.825
REMARK INTER:                  -8.080
REMARK INTRA:                  -1.745
REMARK UNBOUND:                -1.720
REMARK SMILES CCCCC[C@H](O)CC(=O)CCc1ccc(O)c(OC)c1
REMARK SMILES IDX 8 1 6 2 7 3 5 5 4 6 3 7 2 8 1 9 9 10 10 11 11 12 12 13 13 14
REMARK SMILES IDX 21 15 14 16 18 17 15 18 16 19 19 20 20 21 17 22
REMARK H PARENT 7 4 17 23
REMARK Flexibility Score: inf
ROOT
ATOM      1  C   UNL     1      67.535  83.876  69.488  1.00  0.00     0.107 C 
ENDROOT
BRANCH   1   2
ATOM      2  C   UNL     1      68.494  83.459  70.606  1.00  0.00     0.121 C 
BRANCH   2   3
ATOM      3  O   UNL     1      69.666  82.874  70.044  1.00  0.00    -0.393 OA
ATOM      4  H   UNL     1      70.436  83.248  70.506  1.00  0.00     0.210 HD
ENDBRANCH   2   3
BRANCH   2   5
ATOM      5  C   UNL     1      68.899  84.626  71.516  1.00  0.00     0.032 C 
BRANCH   5   6
ATOM      6  C   UNL     1      67.886  84.855  72.644  1.00  0.00     0.003 C 
BRANCH   6   7
ATOM      7  C   UNL     1      66.831  85.913  72.307  1.00  0.00    -0.000 C 
BRANCH   7   8
ATOM      8  C   UNL     1      65.454  85.615  72.897  1.00  0.00    -0.003 C 
ATOM      9  C   UNL     1      65.550  84.646  74.066  1.00  0.00     0.004 C 
ENDBRANCH   7   8
ENDBRANCH   6   7
ENDBRANCH   5   6
ENDBRANCH   2   5
ENDBRANCH   1   2
BRANCH   1  10
ATOM     10  C   UNL     1      66.177  83.201  69.586  1.00  0.00     0.135 C 
ATOM     11  O   UNL     1      65.339  83.332  68.693  1.00  0.00    -0.300 OA
BRANCH  10  12
ATOM     12  C   UNL     1      65.934  82.332  70.810  1.00  0.00     0.080 C 
BRANCH  12  13
ATOM     13  C   UNL     1      64.567  81.644  70.814  1.00  0.00     0.043 C 
BRANCH  13  14
ATOM     14  C   UNL     1      63.725  82.008  72.014  1.00  0.00    -0.044 A 
ATOM     15  C   UNL     1      62.883  83.119  71.964  1.00  0.00     0.054 A 
ATOM     16  C   UNL     1      63.789  81.232  73.172  1.00  0.00     0.008 A 
ATOM     17  C   UNL     1      62.105  83.453  73.073  1.00  0.00     0.160 A 
ATOM     18  C   UNL     1      63.011  81.567  74.280  1.00  0.00     0.050 A 
ATOM     19  C   UNL     1      62.169  82.678  74.230  1.00  0.00     0.157 A 
BRANCH  17  20
ATOM     20  O   UNL     1      61.286  84.541  73.013  1.00  0.00    -0.493 OA
ATOM     21  C   UNL     1      60.049  84.384  72.320  1.00  0.00     0.278 C 
ENDBRANCH  17  20
BRANCH  19  22
ATOM     22  O   UNL     1      61.414  82.994  75.319  1.00  0.00    -0.504 OA
ATOM     23  H   UNL     1      61.182  82.177  75.792  1.00  0.00     0.293 HD
ENDBRANCH  19  22
ENDBRANCH  13  14
ENDBRANCH  12  13
ENDBRANCH  10  12
ENDBRANCH   1  10
TORSDOF 12
ENDMDL
MODEL 9
REMARK VINA RESULT:    -4.890     22.947     26.424
REMARK INTER + INTRA:          -9.755
REMARK INTER:                  -8.551
REMARK INTRA:                  -1.204
REMARK UNBOUND:                -1.720
REMARK SMILES CCCCC[C@H](O)CC(=O)CCc1ccc(O)c(OC)c1
REMARK SMILES IDX 8 1 6 2 7 3 5 5 4 6 3 7 2 8 1 9 9 10 10 11 11 12 12 13 13 14
REMARK SMILES IDX 21 15 14 16 18 17 15 18 16 19 19 20 20 21 17 22
REMARK H PARENT 7 4 17 23
REMARK Flexibility Score: inf
ROOT
ATOM      1  C   UNL     1      75.369  83.321  64.707  1.00  0.00     0.107 C 
ENDROOT
BRANCH   1   2
ATOM      2  C   UNL     1      75.102  82.130  63.783  1.00  0.00     0.121 C 
BRANCH   2   3
ATOM      3  O   UNL     1      76.311  81.737  63.138  1.00  0.00    -0.393 OA
ATOM      4  H   UNL     1      77.040  81.862  63.771  1.00  0.00     0.210 HD
ENDBRANCH   2   3
BRANCH   2   5
ATOM      5  C   UNL     1      74.507  80.922  64.518  1.00  0.00     0.032 C 
BRANCH   5   6
ATOM      6  C   UNL     1      73.203  80.439  63.871  1.00  0.00     0.003 C 
BRANCH   6   7
ATOM      7  C   UNL     1      72.546  81.492  62.972  1.00  0.00    -0.000 C 
BRANCH   7   8
ATOM      8  C   UNL     1      71.204  81.997  63.500  1.00  0.00    -0.003 C 
ATOM      9  C   UNL     1      71.286  82.344  64.979  1.00  0.00     0.004 C 
ENDBRANCH   7   8
ENDBRANCH   6   7
ENDBRANCH   5   6
ENDBRANCH   2   5
ENDBRANCH   1   2
BRANCH   1  10
ATOM     10  C   UNL     1      76.840  83.488  65.052  1.00  0.00     0.135 C 
ATOM     11  O   UNL     1      77.593  84.131  64.320  1.00  0.00    -0.300 OA
BRANCH  10  12
ATOM     12  C   UNL     1      77.310  82.865  66.357  1.00  0.00     0.080 C 
BRANCH  12  13
ATOM     13  C   UNL     1      78.321  83.723  67.120  1.00  0.00     0.043 C 
BRANCH  13  14
ATOM     14  C   UNL     1      77.671  84.780  67.981  1.00  0.00    -0.044 A 
ATOM     15  C   UNL     1      76.436  84.530  68.579  1.00  0.00     0.054 A 
ATOM     16  C   UNL     1      78.306  86.006  68.178  1.00  0.00     0.008 A 
ATOM     17  C   UNL     1      75.837  85.506  69.375  1.00  0.00     0.160 A 
ATOM     18  C   UNL     1      77.707  86.983  68.973  1.00  0.00     0.050 A 
ATOM     19  C   UNL     1      76.472  86.733  69.571  1.00  0.00     0.157 A 
BRANCH  17  20
ATOM     20  O   UNL     1      74.630  85.251  69.953  1.00  0.00    -0.493 OA
ATOM     21  C   UNL     1      73.468  85.490  69.161  1.00  0.00     0.278 C 
ENDBRANCH  17  20
BRANCH  19  22
ATOM     22  O   UNL     1      75.897  87.694  70.346  1.00  0.00    -0.504 OA
ATOM     23  H   UNL     1      75.300  87.270  70.987  1.00  0.00     0.293 HD
ENDBRANCH  19  22
ENDBRANCH  13  14
ENDBRANCH  12  13
ENDBRANCH  10  12
ENDBRANCH   1  10
TORSDOF 12
ENDMDL
MODEL 10
REMARK VINA RESULT:    -4.835     22.613     26.273
REMARK INTER + INTRA:          -9.664
REMARK INTER:                  -8.672
REMARK INTRA:                  -0.992
REMARK UNBOUND:                -1.720
REMARK SMILES CCCCC[C@H](O)CC(=O)CCc1ccc(O)c(OC)c1
REMARK SMILES IDX 8 1 6 2 7 3 5 5 4 6 3 7 2 8 1 9 9 10 10 11 11 12 12 13 13 14
REMARK SMILES IDX 21 15 14 16 18 17 15 18 16 19 19 20 20 21 17 22
REMARK H PARENT 7 4 17 23
REMARK Flexibility Score: inf
ROOT
ATOM      1  C   UNL     1      77.518  86.503  67.300  1.00  0.00     0.107 C 
ENDROOT
BRANCH   1   2
ATOM      2  C   UNL     1      76.370  86.690  68.295  1.00  0.00     0.121 C 
BRANCH   2   3
ATOM      3  O   UNL     1      75.843  85.419  68.669  1.00  0.00    -0.393 OA
ATOM      4  H   UNL     1      76.566  84.904  69.069  1.00  0.00     0.210 HD
ENDBRANCH   2   3
BRANCH   2   5
ATOM      5  C   UNL     1      76.787  87.455  69.556  1.00  0.00     0.032 C 
BRANCH   5   6
ATOM      6  C   UNL     1      75.579  87.871  70.404  1.00  0.00     0.003 C 
BRANCH   6   7
ATOM      7  C   UNL     1      75.256  89.366  70.307  1.00  0.00    -0.000 C 
BRANCH   7   8
ATOM      8  C   UNL     1      74.425  89.889  71.477  1.00  0.00    -0.003 C 
ATOM      9  C   UNL     1      73.331  88.906  71.864  1.00  0.00     0.004 C 
ENDBRANCH   7   8
ENDBRANCH   6   7
ENDBRANCH   5   6
ENDBRANCH   2   5
ENDBRANCH   1   2
BRANCH   1  10
ATOM     10  C   UNL     1      78.116  85.106  67.336  1.00  0.00     0.135 C 
ATOM     11  O   UNL     1      78.678  84.684  68.346  1.00  0.00    -0.300 OA
BRANCH  10  12
ATOM     12  C   UNL     1      77.941  84.257  66.086  1.00  0.00     0.080 C 
BRANCH  12  13
ATOM     13  C   UNL     1      77.509  82.818  66.375  1.00  0.00     0.043 C 
BRANCH  13  14
ATOM     14  C   UNL     1      76.188  82.458  65.738  1.00  0.00    -0.044 A 
ATOM     15  C   UNL     1      75.060  83.243  65.979  1.00  0.00     0.054 A 
ATOM     16  C   UNL     1      76.096  81.340  64.909  1.00  0.00     0.008 A 
ATOM     17  C   UNL     1      73.840  82.909  65.389  1.00  0.00     0.160 A 
ATOM     18  C   UNL     1      74.876  81.006  64.319  1.00  0.00     0.050 A 
ATOM     19  C   UNL     1      73.749  81.791  64.560  1.00  0.00     0.157 A 
BRANCH  17  20
ATOM     20  O   UNL     1      72.746  83.683  65.632  1.00  0.00    -0.493 OA
ATOM     21  C   UNL     1      72.106  83.523  66.897  1.00  0.00     0.278 C 
ENDBRANCH  17  20
BRANCH  19  22
ATOM     22  O   UNL     1      72.563  81.456  63.979  1.00  0.00    -0.504 OA
ATOM     23  H   UNL     1      72.285  80.584  64.307  1.00  0.00     0.293 HD
ENDBRANCH  19  22
ENDBRANCH  13  14
ENDBRANCH  12  13
ENDBRANCH  10  12
ENDBRANCH   1  10
TORSDOF 12
ENDMDL
