MODEL 1
REMARK VINA RESULT:    -6.017      0.000      0.000
REMARK INTER + INTRA:         -11.279
REMARK INTER:                 -10.062
REMARK INTRA:                  -1.218
REMARK UNBOUND:                -1.218
REMARK SMILES COc1cc(CNC(=O)CCCCCCCC(C)C)ccc1O
REMARK SMILES IDX 11 1 10 2 8 3 9 4 7 5 6 7 5 8 4 9 20 10 3 11 21 12 22 13
REMARK SMILES IDX 2 14 1 15 23 16 12 18 13 19 14 20 15 21 16 22 17 23 18 24
REMARK SMILES IDX 19 25
REMARK H PARENT 7 6 23 17
REMARK Flexibility Score: inf
ROOT
ATOM      1  C   UNL     1      95.734  98.391  74.465  1.00  0.00     0.010 C 
ENDROOT
BRANCH   1   2
ATOM      2  C   UNL     1      95.553  99.512  75.486  1.00  0.00     0.100 C 
BRANCH   2   3
ATOM      3  C   UNL     1      96.273  99.226  76.793  1.00  0.00     0.220 C 
ATOM      4  O   UNL     1      96.439 100.070  77.669  1.00  0.00    -0.275 OA
ATOM      5  N   UNL     1      96.713  97.912  76.855  1.00  0.00    -0.352 N 
ATOM      6  H   UNL     1      96.539  97.287  76.074  1.00  0.00     0.163 HD
BRANCH   5   7
ATOM      7  C   UNL     1      97.435  97.381  77.989  1.00  0.00     0.151 C 
BRANCH   7   8
ATOM      8  C   UNL     1      96.611  96.400  78.770  1.00  0.00    -0.025 A 
ATOM      9  C   UNL     1      96.846  96.234  80.130  1.00  0.00     0.056 A 
ATOM     10  C   UNL     1      95.620  95.669  78.126  1.00  0.00     0.009 A 
ATOM     11  C   UNL     1      96.079  95.322  80.856  1.00  0.00     0.160 A 
ATOM     12  C   UNL     1      94.854  94.757  78.852  1.00  0.00     0.050 A 
ATOM     13  C   UNL     1      95.083  94.583  80.217  1.00  0.00     0.157 A 
BRANCH  11  14
ATOM     14  O   UNL     1      96.313  95.160  82.188  1.00  0.00    -0.493 OA
ATOM     15  C   UNL     1      97.619  95.489  82.661  1.00  0.00     0.278 C 
ENDBRANCH  11  14
BRANCH  13  16
ATOM     16  O   UNL     1      94.328  93.690  80.915  1.00  0.00    -0.504 OA
ATOM     17  H   UNL     1      93.507  93.516  80.423  1.00  0.00     0.293 HD
ENDBRANCH  13  16
ENDBRANCH   7   8
ENDBRANCH   5   7
ENDBRANCH   2   3
ENDBRANCH   1   2
BRANCH   1  18
ATOM     18  C   UNL     1      94.417  97.901  73.856  1.00  0.00     0.001 C 
BRANCH  18  19
ATOM     19  C   UNL     1      94.044  96.447  74.162  1.00  0.00     0.000 C 
BRANCH  19  20
ATOM     20  C   UNL     1      93.654  96.217  75.625  1.00  0.00     0.000 C 
BRANCH  20  21
ATOM     21  C   UNL     1      92.630  95.093  75.814  1.00  0.00     0.000 C 
BRANCH  21  22
ATOM     22  C   UNL     1      91.213  95.605  76.094  1.00  0.00     0.003 C 
BRANCH  22  23
ATOM     23  C   UNL     1      90.155  94.485  76.147  1.00  0.00    -0.017 C 
ATOM     24  C   UNL     1      90.598  93.401  77.132  1.00  0.00     0.007 C 
ATOM     25  C   UNL     1      89.895  93.859  74.776  1.00  0.00     0.007 C 
ENDBRANCH  22  23
ENDBRANCH  21  22
ENDBRANCH  20  21
ENDBRANCH  19  20
ENDBRANCH  18  19
ENDBRANCH   1  18
TORSDOF 12
ENDMDL
MODEL 2
REMARK VINA RESULT:    -5.773     13.643     15.781
REMARK INTER + INTRA:         -10.873
REMARK INTER:                 -10.226
REMARK INTRA:                  -0.647
REMARK UNBOUND:                -1.218
REMARK SMILES COc1cc(CNC(=O)CCCCCCCC(C)C)ccc1O
REMARK SMILES IDX 11 1 10 2 8 3 9 4 7 5 6 7 5 8 4 9 20 10 3 11 21 12 22 13
REMARK SMILES IDX 2 14 1 15 23 16 12 18 13 19 14 20 15 21 16 22 17 23 18 24
REMARK SMILES IDX 19 25
REMARK H PARENT 7 6 23 17
REMARK Flexibility Score: inf
ROOT
ATOM      1  C   UNL     1      97.642  82.642  80.225  1.00  0.00     0.010 C 
ENDROOT
BRANCH   1   2
ATOM      2  C   UNL     1      97.043  81.612  81.180  1.00  0.00     0.100 C 
BRANCH   2   3
ATOM      3  C   UNL     1      96.432  82.253  82.415  1.00  0.00     0.220 C 
ATOM      4  O   UNL     1      96.362  83.468  82.579  1.00  0.00    -0.275 OA
ATOM      5  N   UNL     1      95.983  81.299  83.315  1.00  0.00    -0.352 N 
ATOM      6  H   UNL     1      96.094  80.312  83.098  1.00  0.00     0.163 HD
BRANCH   5   7
ATOM      7  C   UNL     1      95.368  81.640  84.577  1.00  0.00     0.151 C 
BRANCH   7   8
ATOM      8  C   UNL     1      93.901  81.319  84.592  1.00  0.00    -0.025 A 
ATOM      9  C   UNL     1      93.486  80.009  84.796  1.00  0.00     0.056 A 
ATOM     10  C   UNL     1      92.974  82.336  84.400  1.00  0.00     0.009 A 
ATOM     11  C   UNL     1      92.124  79.711  84.810  1.00  0.00     0.160 A 
ATOM     12  C   UNL     1      91.611  82.037  84.412  1.00  0.00     0.050 A 
ATOM     13  C   UNL     1      91.185  80.725  84.617  1.00  0.00     0.157 A 
BRANCH  11  14
ATOM     14  O   UNL     1      91.721  78.425  85.010  1.00  0.00    -0.493 OA
ATOM     15  C   UNL     1      91.645  77.583  83.861  1.00  0.00     0.278 C 
ENDBRANCH  11  14
BRANCH  13  16
ATOM     16  O   UNL     1      89.852  80.447  84.629  1.00  0.00    -0.504 OA
ATOM     17  H   UNL     1      89.501  80.615  85.520  1.00  0.00     0.293 HD
ENDBRANCH  13  16
ENDBRANCH   7   8
ENDBRANCH   5   7
ENDBRANCH   2   3
ENDBRANCH   1   2
BRANCH   1  18
ATOM     18  C   UNL     1      97.355  82.348  78.750  1.00  0.00     0.001 C 
BRANCH  18  19
ATOM     19  C   UNL     1      96.714  83.491  77.957  1.00  0.00     0.000 C 
BRANCH  19  20
ATOM     20  C   UNL     1      97.539  83.918  76.739  1.00  0.00     0.000 C 
BRANCH  20  21
ATOM     21  C   UNL     1      96.698  84.554  75.626  1.00  0.00     0.000 C 
BRANCH  21  22
ATOM     22  C   UNL     1      97.477  84.764  74.323  1.00  0.00     0.003 C 
BRANCH  22  23
ATOM     23  C   UNL     1      98.540  83.679  74.061  1.00  0.00    -0.017 C 
ATOM     24  C   UNL     1      99.913  84.331  73.886  1.00  0.00     0.007 C 
ATOM     25  C   UNL     1      98.216  82.825  72.835  1.00  0.00     0.007 C 
ENDBRANCH  22  23
ENDBRANCH  21  22
ENDBRANCH  20  21
ENDBRANCH  19  20
ENDBRANCH  18  19
ENDBRANCH   1  18
TORSDOF 12
ENDMDL
MODEL 3
REMARK VINA RESULT:    -5.744     12.111     14.505
REMARK INTER + INTRA:         -10.824
REMARK INTER:                 -10.130
REMARK INTRA:                  -0.693
REMARK UNBOUND:                -1.218
REMARK SMILES COc1cc(CNC(=O)CCCCCCCC(C)C)ccc1O
REMARK SMILES IDX 11 1 10 2 8 3 9 4 7 5 6 7 5 8 4 9 20 10 3 11 21 12 22 13
REMARK SMILES IDX 2 14 1 15 23 16 12 18 13 19 14 20 15 21 16 22 17 23 18 24
REMARK SMILES IDX 19 25
REMARK H PARENT 7 6 23 17
REMARK Flexibility Score: inf
ROOT
ATOM      1  C   UNL     1      96.014  83.963  82.649  1.00  0.00     0.010 C 
ENDROOT
BRANCH   1   2
ATOM      2  C   UNL     1      96.106  84.660  84.005  1.00  0.00     0.100 C 
BRANCH   2   3
ATOM      3  C   UNL     1      95.084  84.131  84.998  1.00  0.00     0.220 C 
ATOM      4  O   UNL     1      95.141  83.007  85.488  1.00  0.00    -0.275 OA
ATOM      5  N   UNL     1      94.097  85.069  85.261  1.00  0.00    -0.352 N 
ATOM      6  H   UNL     1      94.127  85.973  84.798  1.00  0.00     0.163 HD
BRANCH   5   7
ATOM      7  C   UNL     1      92.998  84.817  86.165  1.00  0.00     0.151 C 
BRANCH   7   8
ATOM      8  C   UNL     1      93.345  85.172  87.582  1.00  0.00    -0.025 A 
ATOM      9  C   UNL     1      93.326  86.504  87.981  1.00  0.00     0.056 A 
ATOM     10  C   UNL     1      93.681  84.167  88.480  1.00  0.00     0.009 A 
ATOM     11  C   UNL     1      93.648  86.834  89.297  1.00  0.00     0.160 A 
ATOM     12  C   UNL     1      94.003  84.498  89.797  1.00  0.00     0.050 A 
ATOM     13  C   UNL     1      93.987  85.831  90.206  1.00  0.00     0.157 A 
BRANCH  11  14
ATOM     14  O   UNL     1      93.629  88.140  89.684  1.00  0.00    -0.493 OA
ATOM     15  C   UNL     1      92.587  88.958  89.153  1.00  0.00     0.278 C 
ENDBRANCH  11  14
BRANCH  13  16
ATOM     16  O   UNL     1      94.303  86.141  91.494  1.00  0.00    -0.504 OA
ATOM     17  H   UNL     1      95.104  86.693  91.499  1.00  0.00     0.293 HD
ENDBRANCH  13  16
ENDBRANCH   7   8
ENDBRANCH   5   7
ENDBRANCH   2   3
ENDBRANCH   1   2
BRANCH   1  18
ATOM     18  C   UNL     1      96.854  82.686  82.561  1.00  0.00     0.001 C 
BRANCH  18  19
ATOM     19  C   UNL     1      97.121  82.163  81.146  1.00  0.00     0.000 C 
BRANCH  19  20
ATOM     20  C   UNL     1      97.396  83.276  80.131  1.00  0.00     0.000 C 
BRANCH  20  21
ATOM     21  C   UNL     1      97.268  82.819  78.674  1.00  0.00     0.000 C 
BRANCH  21  22
ATOM     22  C   UNL     1      96.434  83.771  77.811  1.00  0.00     0.003 C 
BRANCH  22  23
ATOM     23  C   UNL     1      96.924  83.867  76.353  1.00  0.00    -0.017 C 
ATOM     24  C   UNL     1      98.447  83.717  76.308  1.00  0.00     0.007 C 
ATOM     25  C   UNL     1      96.517  85.180  75.682  1.00  0.00     0.007 C 
ENDBRANCH  22  23
ENDBRANCH  21  22
ENDBRANCH  20  21
ENDBRANCH  19  20
ENDBRANCH  18  19
ENDBRANCH   1  18
TORSDOF 12
ENDMDL
MODEL 4
REMARK VINA RESULT:    -5.742      2.566      4.579
REMARK INTER + INTRA:         -10.821
REMARK INTER:                  -9.728
REMARK INTRA:                  -1.092
REMARK UNBOUND:                -1.218
REMARK SMILES COc1cc(CNC(=O)CCCCCCCC(C)C)ccc1O
REMARK SMILES IDX 11 1 10 2 8 3 9 4 7 5 6 7 5 8 4 9 20 10 3 11 21 12 22 13
REMARK SMILES IDX 2 14 1 15 23 16 12 18 13 19 14 20 15 21 16 22 17 23 18 24
REMARK SMILES IDX 19 25
REMARK H PARENT 7 6 23 17
REMARK Flexibility Score: inf
ROOT
ATOM      1  C   UNL     1      94.477  96.691  78.354  1.00  0.00     0.010 C 
ENDROOT
BRANCH   1   2
ATOM      2  C   UNL     1      94.863  95.225  78.541  1.00  0.00     0.100 C 
BRANCH   2   3
ATOM      3  C   UNL     1      95.183  94.891  79.989  1.00  0.00     0.220 C 
ATOM      4  O   UNL     1      94.587  94.029  80.629  1.00  0.00    -0.275 OA
ATOM      5  N   UNL     1      96.210  95.683  80.480  1.00  0.00    -0.352 N 
ATOM      6  H   UNL     1      96.637  96.382  79.878  1.00  0.00     0.163 HD
BRANCH   5   7
ATOM      7  C   UNL     1      96.703  95.576  81.834  1.00  0.00     0.151 C 
BRANCH   7   8
ATOM      8  C   UNL     1      98.070  96.179  81.982  1.00  0.00    -0.025 A 
ATOM      9  C   UNL     1      98.952  96.157  80.909  1.00  0.00     0.056 A 
ATOM     10  C   UNL     1      98.439  96.754  83.193  1.00  0.00     0.009 A 
ATOM     11  C   UNL     1     100.222  96.718  81.047  1.00  0.00     0.160 A 
ATOM     12  C   UNL     1      99.709  97.314  83.331  1.00  0.00     0.050 A 
ATOM     13  C   UNL     1     100.601  97.296  82.259  1.00  0.00     0.157 A 
BRANCH  11  14
ATOM     14  O   UNL     1     101.084  96.694  79.993  1.00  0.00    -0.493 OA
ATOM     15  C   UNL     1     100.526  96.895  78.695  1.00  0.00     0.278 C 
ENDBRANCH  11  14
BRANCH  13  16
ATOM     16  O   UNL     1     101.838  97.847  82.406  1.00  0.00    -0.504 OA
ATOM     17  H   UNL     1     102.059  98.348  81.602  1.00  0.00     0.293 HD
ENDBRANCH  13  16
ENDBRANCH   7   8
ENDBRANCH   5   7
ENDBRANCH   2   3
ENDBRANCH   1   2
BRANCH   1  18
ATOM     18  C   UNL     1      93.513  96.923  77.187  1.00  0.00     0.001 C 
BRANCH  18  19
ATOM     19  C   UNL     1      94.151  96.959  75.795  1.00  0.00     0.000 C 
BRANCH  19  20
ATOM     20  C   UNL     1      93.652  95.844  74.872  1.00  0.00     0.000 C 
BRANCH  20  21
ATOM     21  C   UNL     1      92.850  94.761  75.602  1.00  0.00     0.000 C 
BRANCH  21  22
ATOM     22  C   UNL     1      91.419  94.608  75.076  1.00  0.00     0.003 C 
BRANCH  22  23
ATOM     23  C   UNL     1      90.430  94.077  76.133  1.00  0.00    -0.017 C 
ATOM     24  C   UNL     1      91.015  94.273  77.533  1.00  0.00     0.007 C 
ATOM     25  C   UNL     1      90.083  92.603  75.922  1.00  0.00     0.007 C 
ENDBRANCH  22  23
ENDBRANCH  21  22
ENDBRANCH  20  21
ENDBRANCH  19  20
ENDBRANCH  18  19
ENDBRANCH   1  18
TORSDOF 12
ENDMDL
MODEL 5
REMARK VINA RESULT:    -5.406     11.753     14.563
REMARK INTER + INTRA:         -10.258
REMARK INTER:                  -9.541
REMARK INTRA:                  -0.716
REMARK UNBOUND:                -1.218
REMARK SMILES COc1cc(CNC(=O)CCCCCCCC(C)C)ccc1O
REMARK SMILES IDX 11 1 10 2 8 3 9 4 7 5 6 7 5 8 4 9 20 10 3 11 21 12 22 13
REMARK SMILES IDX 2 14 1 15 23 16 12 18 13 19 14 20 15 21 16 22 17 23 18 24
REMARK SMILES IDX 19 25
REMARK H PARENT 7 6 23 17
REMARK Flexibility Score: inf
ROOT
ATOM      1  C   UNL     1      95.885  83.180  83.241  1.00  0.00     0.010 C 
ENDROOT
BRANCH   1   2
ATOM      2  C   UNL     1      96.075  83.582  84.702  1.00  0.00     0.100 C 
BRANCH   2   3
ATOM      3  C   UNL     1      94.761  83.628  85.465  1.00  0.00     0.220 C 
ATOM      4  O   UNL     1      94.092  82.630  85.714  1.00  0.00    -0.275 OA
ATOM      5  N   UNL     1      94.427  84.925  85.825  1.00  0.00    -0.352 N 
ATOM      6  H   UNL     1      95.040  85.693  85.564  1.00  0.00     0.163 HD
BRANCH   5   7
ATOM      7  C   UNL     1      93.221  85.249  86.553  1.00  0.00     0.151 C 
BRANCH   7   8
ATOM      8  C   UNL     1      93.416  86.423  87.468  1.00  0.00    -0.025 A 
ATOM      9  C   UNL     1      94.224  87.481  87.067  1.00  0.00     0.056 A 
ATOM     10  C   UNL     1      92.788  86.440  88.707  1.00  0.00     0.009 A 
ATOM     11  C   UNL     1      94.406  88.571  87.917  1.00  0.00     0.160 A 
ATOM     12  C   UNL     1      92.970  87.531  89.557  1.00  0.00     0.050 A 
ATOM     13  C   UNL     1      93.779  88.597  89.163  1.00  0.00     0.157 A 
BRANCH  11  14
ATOM     14  O   UNL     1      95.199  89.606  87.521  1.00  0.00    -0.493 OA
ATOM     15  C   UNL     1      94.720  90.414  86.447  1.00  0.00     0.278 C 
ENDBRANCH  11  14
BRANCH  13  16
ATOM     16  O   UNL     1      93.948  89.656  90.002  1.00  0.00    -0.504 OA
ATOM     17  H   UNL     1      93.825  90.480  89.500  1.00  0.00     0.293 HD
ENDBRANCH  13  16
ENDBRANCH   7   8
ENDBRANCH   5   7
ENDBRANCH   2   3
ENDBRANCH   1   2
BRANCH   1  18
ATOM     18  C   UNL     1      96.031  81.676  82.997  1.00  0.00     0.001 C 
BRANCH  18  19
ATOM     19  C   UNL     1      97.344  81.233  82.343  1.00  0.00     0.000 C 
BRANCH  19  20
ATOM     20  C   UNL     1      97.138  80.419  81.063  1.00  0.00     0.000 C 
BRANCH  20  21
ATOM     21  C   UNL     1      97.630  81.135  79.800  1.00  0.00     0.000 C 
BRANCH  21  22
ATOM     22  C   UNL     1      97.422  82.652  79.842  1.00  0.00     0.003 C 
BRANCH  22  23
ATOM     23  C   UNL     1      97.636  83.340  78.480  1.00  0.00    -0.017 C 
ATOM     24  C   UNL     1      96.287  83.776  77.903  1.00  0.00     0.007 C 
ATOM     25  C   UNL     1      98.357  82.440  77.476  1.00  0.00     0.007 C 
ENDBRANCH  22  23
ENDBRANCH  21  22
ENDBRANCH  20  21
ENDBRANCH  19  20
ENDBRANCH  18  19
ENDBRANCH   1  18
TORSDOF 12
ENDMDL
MODEL 6
REMARK VINA RESULT:    -5.288      1.801      2.495
REMARK INTER + INTRA:         -10.061
REMARK INTER:                  -8.951
REMARK INTRA:                  -1.110
REMARK UNBOUND:                -1.218
REMARK SMILES COc1cc(CNC(=O)CCCCCCCC(C)C)ccc1O
REMARK SMILES IDX 11 1 10 2 8 3 9 4 7 5 6 7 5 8 4 9 20 10 3 11 21 12 22 13
REMARK SMILES IDX 2 14 1 15 23 16 12 18 13 19 14 20 15 21 16 22 17 23 18 24
REMARK SMILES IDX 19 25
REMARK H PARENT 7 6 23 17
REMARK Flexibility Score: inf
ROOT
ATOM      1  C   UNL     1      95.824  99.192  73.911  1.00  0.00     0.010 C 
ENDROOT
BRANCH   1   2
ATOM      2  C   UNL     1      95.534  99.344  75.403  1.00  0.00     0.100 C 
BRANCH   2   3
ATOM      3  C   UNL     1      96.318  98.354  76.249  1.00  0.00     0.220 C 
ATOM      4  O   UNL     1      97.530  98.192  76.146  1.00  0.00    -0.275 OA
ATOM      5  N   UNL     1      95.492  97.669  77.128  1.00  0.00    -0.352 N 
ATOM      6  H   UNL     1      94.495  97.863  77.134  1.00  0.00     0.163 HD
BRANCH   5   7
ATOM      7  C   UNL     1      95.984  96.663  78.041  1.00  0.00     0.151 C 
BRANCH   7   8
ATOM      8  C   UNL     1      96.195  97.214  79.422  1.00  0.00    -0.025 A 
ATOM      9  C   UNL     1      97.074  96.576  80.289  1.00  0.00     0.056 A 
ATOM     10  C   UNL     1      95.509  98.355  79.818  1.00  0.00     0.009 A 
ATOM     11  C   UNL     1      97.269  97.087  81.572  1.00  0.00     0.160 A 
ATOM     12  C   UNL     1      95.705  98.866  81.102  1.00  0.00     0.050 A 
ATOM     13  C   UNL     1      96.585  98.233  81.979  1.00  0.00     0.157 A 
BRANCH  11  14
ATOM     14  O   UNL     1      98.131  96.459  82.420  1.00  0.00    -0.493 OA
ATOM     15  C   UNL     1      97.708  95.211  82.966  1.00  0.00     0.278 C 
ENDBRANCH  11  14
BRANCH  13  16
ATOM     16  O   UNL     1      96.768  98.742  83.229  1.00  0.00    -0.504 OA
ATOM     17  H   UNL     1      97.354  98.149  83.729  1.00  0.00     0.293 HD
ENDBRANCH  13  16
ENDBRANCH   7   8
ENDBRANCH   5   7
ENDBRANCH   2   3
ENDBRANCH   1   2
BRANCH   1  18
ATOM     18  C   UNL     1      94.801  98.322  73.176  1.00  0.00     0.001 C 
BRANCH  18  19
ATOM     19  C   UNL     1      94.717  96.863  73.638  1.00  0.00     0.000 C 
BRANCH  19  20
ATOM     20  C   UNL     1      93.410  96.532  74.363  1.00  0.00     0.000 C 
BRANCH  20  21
ATOM     21  C   UNL     1      93.509  95.299  75.268  1.00  0.00     0.000 C 
BRANCH  21  22
ATOM     22  C   UNL     1      92.204  94.501  75.351  1.00  0.00     0.003 C 
BRANCH  22  23
ATOM     23  C   UNL     1      91.622  94.422  76.777  1.00  0.00    -0.017 C 
ATOM     24  C   UNL     1      90.170  94.904  76.770  1.00  0.00     0.007 C 
ATOM     25  C   UNL     1      92.431  95.239  77.785  1.00  0.00     0.007 C 
ENDBRANCH  22  23
ENDBRANCH  21  22
ENDBRANCH  20  21
ENDBRANCH  19  20
ENDBRANCH  18  19
ENDBRANCH   1  18
TORSDOF 12
ENDMDL
MODEL 7
REMARK VINA RESULT:    -5.288     12.518     14.702
REMARK INTER + INTRA:         -10.060
REMARK INTER:                  -9.356
REMARK INTRA:                  -0.704
REMARK UNBOUND:                -1.218
REMARK SMILES COc1cc(CNC(=O)CCCCCCCC(C)C)ccc1O
REMARK SMILES IDX 11 1 10 2 8 3 9 4 7 5 6 7 5 8 4 9 20 10 3 11 21 12 22 13
REMARK SMILES IDX 2 14 1 15 23 16 12 18 13 19 14 20 15 21 16 22 17 23 18 24
REMARK SMILES IDX 19 25
REMARK H PARENT 7 6 23 17
REMARK Flexibility Score: inf
ROOT
ATOM      1  C   UNL     1      93.259  85.801  88.542  1.00  0.00     0.010 C 
ENDROOT
BRANCH   1   2
ATOM      2  C   UNL     1      93.499  87.300  88.378  1.00  0.00     0.100 C 
BRANCH   2   3
ATOM      3  C   UNL     1      92.528  88.134  89.196  1.00  0.00     0.220 C 
ATOM      4  O   UNL     1      91.402  87.751  89.502  1.00  0.00    -0.275 OA
ATOM      5  N   UNL     1      93.072  89.364  89.535  1.00  0.00    -0.352 N 
ATOM      6  H   UNL     1      94.012  89.599  89.227  1.00  0.00     0.163 HD
BRANCH   5   7
ATOM      7  C   UNL     1      92.354  90.353  90.306  1.00  0.00     0.151 C 
BRANCH   7   8
ATOM      8  C   UNL     1      92.876  91.740  90.065  1.00  0.00    -0.025 A 
ATOM      9  C   UNL     1      92.243  92.826  90.658  1.00  0.00     0.056 A 
ATOM     10  C   UNL     1      93.988  91.923  89.252  1.00  0.00     0.009 A 
ATOM     11  C   UNL     1      92.729  94.114  90.435  1.00  0.00     0.160 A 
ATOM     12  C   UNL     1      94.473  93.212  89.028  1.00  0.00     0.050 A 
ATOM     13  C   UNL     1      93.844  94.308  89.619  1.00  0.00     0.157 A 
BRANCH  11  14
ATOM     14  O   UNL     1      92.106  95.176  91.017  1.00  0.00    -0.493 OA
ATOM     15  C   UNL     1      90.795  95.493  90.551  1.00  0.00     0.278 C 
ENDBRANCH  11  14
BRANCH  13  16
ATOM     16  O   UNL     1      94.328  95.560  89.394  1.00  0.00    -0.504 OA
ATOM     17  H   UNL     1      95.213  95.491  88.995  1.00  0.00     0.293 HD
ENDBRANCH  13  16
ENDBRANCH   7   8
ENDBRANCH   5   7
ENDBRANCH   2   3
ENDBRANCH   1   2
BRANCH   1  18
ATOM     18  C   UNL     1      93.361  85.019  87.229  1.00  0.00     0.001 C 
BRANCH  18  19
ATOM     19  C   UNL     1      93.793  83.555  87.359  1.00  0.00     0.000 C 
BRANCH  19  20
ATOM     20  C   UNL     1      94.758  83.109  86.257  1.00  0.00     0.000 C 
BRANCH  20  21
ATOM     21  C   UNL     1      94.189  83.278  84.844  1.00  0.00     0.000 C 
BRANCH  21  22
ATOM     22  C   UNL     1      93.557  81.998  84.287  1.00  0.00     0.003 C 
BRANCH  22  23
ATOM     23  C   UNL     1      92.257  81.591  85.009  1.00  0.00    -0.017 C 
ATOM     24  C   UNL     1      92.226  80.073  85.202  1.00  0.00     0.007 C 
ATOM     25  C   UNL     1      91.004  82.039  84.256  1.00  0.00     0.007 C 
ENDBRANCH  22  23
ENDBRANCH  21  22
ENDBRANCH  20  21
ENDBRANCH  19  20
ENDBRANCH  18  19
ENDBRANCH   1  18
TORSDOF 12
ENDMDL
MODEL 8
REMARK VINA RESULT:    -5.273     14.957     17.469
REMARK INTER + INTRA:         -10.036
REMARK INTER:                  -9.430
REMARK INTRA:                  -0.605
REMARK UNBOUND:                -1.218
REMARK SMILES COc1cc(CNC(=O)CCCCCCCC(C)C)ccc1O
REMARK SMILES IDX 11 1 10 2 8 3 9 4 7 5 6 7 5 8 4 9 20 10 3 11 21 12 22 13
REMARK SMILES IDX 2 14 1 15 23 16 12 18 13 19 14 20 15 21 16 22 17 23 18 24
REMARK SMILES IDX 19 25
REMARK H PARENT 7 6 23 17
REMARK Flexibility Score: inf
ROOT
ATOM      1  C   UNL     1      91.298  79.654  83.785  1.00  0.00     0.010 C 
ENDROOT
BRANCH   1   2
ATOM      2  C   UNL     1      91.836  80.376  85.019  1.00  0.00     0.100 C 
BRANCH   2   3
ATOM      3  C   UNL     1      93.024  81.267  84.696  1.00  0.00     0.220 C 
ATOM      4  O   UNL     1      92.911  82.431  84.322  1.00  0.00    -0.275 OA
ATOM      5  N   UNL     1      94.225  80.597  84.868  1.00  0.00    -0.352 N 
ATOM      6  H   UNL     1      94.220  79.626  85.171  1.00  0.00     0.163 HD
BRANCH   5   7
ATOM      7  C   UNL     1      95.509  81.213  84.621  1.00  0.00     0.151 C 
BRANCH   7   8
ATOM      8  C   UNL     1      96.122  80.736  83.337  1.00  0.00    -0.025 A 
ATOM      9  C   UNL     1      96.490  81.660  82.366  1.00  0.00     0.056 A 
ATOM     10  C   UNL     1      96.315  79.376  83.131  1.00  0.00     0.009 A 
ATOM     11  C   UNL     1      97.060  81.217  81.172  1.00  0.00     0.160 A 
ATOM     12  C   UNL     1      96.884  78.932  81.937  1.00  0.00     0.050 A 
ATOM     13  C   UNL     1      97.257  79.852  80.957  1.00  0.00     0.157 A 
BRANCH  11  14
ATOM     14  O   UNL     1      97.419  82.125  80.223  1.00  0.00    -0.493 OA
ATOM     15  C   UNL     1      98.761  82.607  80.262  1.00  0.00     0.278 C 
ENDBRANCH  11  14
BRANCH  13  16
ATOM     16  O   UNL     1      97.813  79.407  79.796  1.00  0.00    -0.504 OA
ATOM     17  H   UNL     1      98.603  79.939  79.599  1.00  0.00     0.293 HD
ENDBRANCH  13  16
ENDBRANCH   7   8
ENDBRANCH   5   7
ENDBRANCH   2   3
ENDBRANCH   1   2
BRANCH   1  18
ATOM     18  C   UNL     1      91.011  78.169  84.024  1.00  0.00     0.001 C 
BRANCH  18  19
ATOM     19  C   UNL     1      89.677  77.851  84.709  1.00  0.00     0.000 C 
BRANCH  19  20
ATOM     20  C   UNL     1      88.466  78.427  83.970  1.00  0.00     0.000 C 
BRANCH  20  21
ATOM     21  C   UNL     1      88.160  79.882  84.340  1.00  0.00     0.000 C 
BRANCH  21  22
ATOM     22  C   UNL     1      87.350  80.623  83.272  1.00  0.00     0.003 C 
BRANCH  22  23
ATOM     23  C   UNL     1      86.757  81.957  83.765  1.00  0.00    -0.017 C 
ATOM     24  C   UNL     1      86.377  82.829  82.567  1.00  0.00     0.007 C 
ATOM     25  C   UNL     1      87.717  82.724  84.675  1.00  0.00     0.007 C 
ENDBRANCH  22  23
ENDBRANCH  21  22
ENDBRANCH  20  21
ENDBRANCH  19  20
ENDBRANCH  18  19
ENDBRANCH   1  18
TORSDOF 12
ENDMDL
MODEL 9
REMARK VINA RESULT:    -5.083     13.691     16.235
REMARK INTER + INTRA:          -9.718
REMARK INTER:                  -8.556
REMARK INTRA:                  -1.162
REMARK UNBOUND:                -1.218
REMARK SMILES COc1cc(CNC(=O)CCCCCCCC(C)C)ccc1O
REMARK SMILES IDX 11 1 10 2 8 3 9 4 7 5 6 7 5 8 4 9 20 10 3 11 21 12 22 13
REMARK SMILES IDX 2 14 1 15 23 16 12 18 13 19 14 20 15 21 16 22 17 23 18 24
REMARK SMILES IDX 19 25
REMARK H PARENT 7 6 23 17
REMARK Flexibility Score: inf
ROOT
ATOM      1  C   UNL     1      98.383  81.334  83.679  1.00  0.00     0.010 C 
ENDROOT
BRANCH   1   2
ATOM      2  C   UNL     1      99.260  80.111  83.422  1.00  0.00     0.100 C 
BRANCH   2   3
ATOM      3  C   UNL     1      99.626  79.959  81.955  1.00  0.00     0.220 C 
ATOM      4  O   UNL     1     100.019  78.904  81.464  1.00  0.00    -0.275 OA
ATOM      5  N   UNL     1      99.467  81.151  81.264  1.00  0.00    -0.352 N 
ATOM      6  H   UNL     1      99.146  81.979  81.759  1.00  0.00     0.163 HD
BRANCH   5   7
ATOM      7  C   UNL     1      99.754  81.283  79.854  1.00  0.00     0.151 C 
BRANCH   7   8
ATOM      8  C   UNL     1      98.717  82.105  79.145  1.00  0.00    -0.025 A 
ATOM      9  C   UNL     1      98.786  82.258  77.765  1.00  0.00     0.056 A 
ATOM     10  C   UNL     1      97.699  82.705  79.876  1.00  0.00     0.009 A 
ATOM     11  C   UNL     1      97.822  83.022  77.107  1.00  0.00     0.160 A 
ATOM     12  C   UNL     1      96.735  83.470  79.217  1.00  0.00     0.050 A 
ATOM     13  C   UNL     1      96.797  83.629  77.832  1.00  0.00     0.157 A 
BRANCH  11  14
ATOM     14  O   UNL     1      97.894  83.170  75.754  1.00  0.00    -0.493 OA
ATOM     15  C   UNL     1      98.978  82.524  75.088  1.00  0.00     0.278 C 
ENDBRANCH  11  14
BRANCH  13  16
ATOM     16  O   UNL     1      95.850  84.377  77.201  1.00  0.00    -0.504 OA
ATOM     17  H   UNL     1      95.444  83.843  76.495  1.00  0.00     0.293 HD
ENDBRANCH  13  16
ENDBRANCH   7   8
ENDBRANCH   5   7
ENDBRANCH   2   3
ENDBRANCH   1   2
BRANCH   1  18
ATOM     18  C   UNL     1      96.885  81.016  83.707  1.00  0.00     0.001 C 
BRANCH  18  19
ATOM     19  C   UNL     1      95.996  81.928  82.855  1.00  0.00     0.000 C 
BRANCH  19  20
ATOM     20  C   UNL     1      95.206  82.946  83.681  1.00  0.00     0.000 C 
BRANCH  20  21
ATOM     21  C   UNL     1      94.366  82.309  84.793  1.00  0.00     0.000 C 
BRANCH  21  22
ATOM     22  C   UNL     1      92.908  82.067  84.388  1.00  0.00     0.003 C 
BRANCH  22  23
ATOM     23  C   UNL     1      92.425  80.630  84.664  1.00  0.00    -0.017 C 
ATOM     24  C   UNL     1      90.996  80.455  84.144  1.00  0.00     0.007 C 
ATOM     25  C   UNL     1      92.479  80.268  86.149  1.00  0.00     0.007 C 
ENDBRANCH  22  23
ENDBRANCH  21  22
ENDBRANCH  20  21
ENDBRANCH  19  20
ENDBRANCH  18  19
ENDBRANCH   1  18
TORSDOF 12
ENDMDL
MODEL 10
REMARK VINA RESULT:    -4.960     12.479     14.553
REMARK INTER + INTRA:          -9.512
REMARK INTER:                  -8.887
REMARK INTRA:                  -0.626
REMARK UNBOUND:                -1.218
REMARK SMILES COc1cc(CNC(=O)CCCCCCCC(C)C)ccc1O
REMARK SMILES IDX 11 1 10 2 8 3 9 4 7 5 6 7 5 8 4 9 20 10 3 11 21 12 22 13
REMARK SMILES IDX 2 14 1 15 23 16 12 18 13 19 14 20 15 21 16 22 17 23 18 24
REMARK SMILES IDX 19 25
REMARK H PARENT 7 6 23 17
REMARK Flexibility Score: inf
ROOT
ATOM      1  C   UNL     1      95.157  89.325  88.041  1.00  0.00     0.010 C 
ENDROOT
BRANCH   1   2
ATOM      2  C   UNL     1      94.326  88.498  89.020  1.00  0.00     0.100 C 
BRANCH   2   3
ATOM      3  C   UNL     1      93.424  87.500  88.313  1.00  0.00     0.220 C 
ATOM      4  O   UNL     1      92.341  87.135  88.762  1.00  0.00    -0.275 OA
ATOM      5  N   UNL     1      93.984  87.061  87.123  1.00  0.00    -0.352 N 
ATOM      6  H   UNL     1      94.895  87.411  86.837  1.00  0.00     0.163 HD
BRANCH   5   7
ATOM      7  C   UNL     1      93.336  86.100  86.260  1.00  0.00     0.151 C 
BRANCH   7   8
ATOM      8  C   UNL     1      94.320  85.375  85.389  1.00  0.00    -0.025 A 
ATOM      9  C   UNL     1      94.484  84.002  85.532  1.00  0.00     0.056 A 
ATOM     10  C   UNL     1      95.057  86.083  84.448  1.00  0.00     0.009 A 
ATOM     11  C   UNL     1      95.398  83.328  84.722  1.00  0.00     0.160 A 
ATOM     12  C   UNL     1      95.973  85.409  83.639  1.00  0.00     0.050 A 
ATOM     13  C   UNL     1      96.143  84.031  83.776  1.00  0.00     0.157 A 
BRANCH  11  14
ATOM     14  O   UNL     1      95.556  81.982  84.866  1.00  0.00    -0.493 OA
ATOM     15  C   UNL     1      96.163  81.527  86.074  1.00  0.00     0.278 C 
ENDBRANCH  11  14
BRANCH  13  16
ATOM     16  O   UNL     1      97.039  83.384  82.979  1.00  0.00    -0.504 OA
ATOM     17  H   UNL     1      96.866  83.621  82.052  1.00  0.00     0.293 HD
ENDBRANCH  13  16
ENDBRANCH   7   8
ENDBRANCH   5   7
ENDBRANCH   2   3
ENDBRANCH   1   2
BRANCH   1  18
ATOM     18  C   UNL     1      94.370  90.461  87.380  1.00  0.00     0.001 C 
BRANCH  18  19
ATOM     19  C   UNL     1      93.648  91.414  88.339  1.00  0.00     0.000 C 
BRANCH  19  20
ATOM     20  C   UNL     1      94.560  92.503  88.911  1.00  0.00     0.000 C 
BRANCH  20  21
ATOM     21  C   UNL     1      93.824  93.510  89.801  1.00  0.00     0.000 C 
BRANCH  21  22
ATOM     22  C   UNL     1      94.570  94.839  89.959  1.00  0.00     0.003 C 
BRANCH  22  23
ATOM     23  C   UNL     1      94.781  95.253  91.429  1.00  0.00    -0.017 C 
ATOM     24  C   UNL     1      93.741  96.305  91.824  1.00  0.00     0.007 C 
ATOM     25  C   UNL     1      96.186  95.797  91.689  1.00  0.00     0.007 C 
ENDBRANCH  22  23
ENDBRANCH  21  22
ENDBRANCH  20  21
ENDBRANCH  19  20
ENDBRANCH  18  19
ENDBRANCH   1  18
TORSDOF 12
ENDMDL
