MODEL 1
REMARK VINA RESULT:    -5.029      0.000      0.000
REMARK INTER + INTRA:         -10.057
REMARK INTER:                  -8.116
REMARK INTRA:                  -1.941
REMARK UNBOUND:                -1.941
REMARK SMILES COc1cc(CNC(=O)CCCCCCC(C)C)ccc1O
REMARK SMILES IDX 11 1 10 2 8 3 7 4 9 6 6 7 5 8 3 9 21 10 4 11 20 12 19 13
REMARK SMILES IDX 2 14 1 15 22 16 12 18 13 19 14 20 15 21 16 22 17 23 18 24
REMARK H PARENT 7 5 22 17
REMARK Flexibility Score: inf
ROOT
ATOM      1  C   UNL     1      97.493  82.080  78.633  1.00  0.00     0.010 C 
ENDROOT
BRANCH   1   2
ATOM      2  C   UNL     1      96.195  82.451  77.865  1.00  0.00     0.100 C 
BRANCH   2   3
ATOM      3  C   UNL     1      96.440  82.852  76.461  1.00  0.00     0.220 C 
ATOM      4  N   UNL     1      97.665  82.656  75.893  1.00  0.00    -0.352 N 
ATOM      5  H   UNL     1      98.361  82.273  76.514  1.00  0.00     0.163 HD
ATOM      6  O   UNL     1      95.493  83.349  75.803  1.00  0.00    -0.275 OA
BRANCH   4   7
ATOM      7  C   UNL     1      98.000  82.949  74.532  1.00  0.00     0.151 C 
BRANCH   7   8
ATOM      8  C   UNL     1      97.953  81.754  73.646  1.00  0.00    -0.025 A 
ATOM      9  C   UNL     1      99.113  79.982  72.397  1.00  0.00     0.160 A 
ATOM     10  C   UNL     1      97.870  79.450  71.992  1.00  0.00     0.157 A 
ATOM     11  C   UNL     1      99.146  81.138  73.204  1.00  0.00     0.056 A 
ATOM     12  C   UNL     1      96.676  80.077  72.393  1.00  0.00     0.050 A 
ATOM     13  C   UNL     1      96.715  81.214  73.222  1.00  0.00     0.009 A 
BRANCH   9  14
ATOM     14  O   UNL     1     100.281  79.403  71.981  1.00  0.00    -0.493 OA
ATOM     15  C   UNL     1     100.759  78.365  72.856  1.00  0.00     0.278 C 
ENDBRANCH   9  14
BRANCH  10  16
ATOM     16  O   UNL     1      97.809  78.337  71.214  1.00  0.00    -0.504 OA
ATOM     17  H   UNL     1      98.686  77.955  71.134  1.00  0.00     0.293 HD
ENDBRANCH  10  16
ENDBRANCH   7   8
ENDBRANCH   4   7
ENDBRANCH   2   3
ENDBRANCH   1   2
BRANCH   1  18
ATOM     18  C   UNL     1      97.208  81.678  80.108  1.00  0.00     0.001 C 
BRANCH  18  19
ATOM     19  C   UNL     1      97.482  80.178  80.412  1.00  0.00     0.000 C 
BRANCH  19  20
ATOM     20  C   UNL     1      98.398  79.534  79.334  1.00  0.00     0.000 C 
BRANCH  20  21
ATOM     21  C   UNL     1      97.707  78.429  78.488  1.00  0.00     0.003 C 
BRANCH  21  22
ATOM     22  C   UNL     1      97.906  78.574  76.944  1.00  0.00    -0.017 C 
ATOM     23  C   UNL     1      99.149  79.456  76.635  1.00  0.00     0.007 C 
ATOM     24  C   UNL     1      96.652  79.119  76.200  1.00  0.00     0.007 C 
ENDBRANCH  21  22
ENDBRANCH  20  21
ENDBRANCH  19  20
ENDBRANCH  18  19
ENDBRANCH   1  18
TORSDOF 11
ENDMDL
MODEL 2
REMARK VINA RESULT:    -4.974     25.268     27.509
REMARK INTER + INTRA:          -9.968
REMARK INTER:                  -9.097
REMARK INTRA:                  -0.872
REMARK UNBOUND:                -1.941
REMARK SMILES COc1cc(CNC(=O)CCCCCCC(C)C)ccc1O
REMARK SMILES IDX 11 1 10 2 8 3 7 4 9 6 6 7 5 8 3 9 21 10 4 11 20 12 19 13
REMARK SMILES IDX 2 14 1 15 22 16 12 18 13 19 14 20 15 21 16 22 17 23 18 24
REMARK H PARENT 7 5 22 17
REMARK Flexibility Score: inf
ROOT
ATOM      1  C   UNL     1      76.318  82.397  65.213  1.00  0.00     0.010 C 
ENDROOT
BRANCH   1   2
ATOM      2  C   UNL     1      75.302  82.110  64.073  1.00  0.00     0.100 C 
BRANCH   2   3
ATOM      3  C   UNL     1      74.033  81.518  64.556  1.00  0.00     0.220 C 
ATOM      4  N   UNL     1      73.037  81.211  63.676  1.00  0.00    -0.352 N 
ATOM      5  H   UNL     1      73.230  81.461  62.717  1.00  0.00     0.163 HD
ATOM      6  O   UNL     1      73.907  81.285  65.783  1.00  0.00    -0.275 OA
BRANCH   4   7
ATOM      7  C   UNL     1      71.796  80.585  64.019  1.00  0.00     0.151 C 
BRANCH   7   8
ATOM      8  C   UNL     1      70.690  81.557  64.240  1.00  0.00    -0.025 A 
ATOM      9  C   UNL     1      69.445  83.061  65.736  1.00  0.00     0.160 A 
ATOM     10  C   UNL     1      68.613  83.444  64.661  1.00  0.00     0.157 A 
ATOM     11  C   UNL     1      70.463  82.108  65.522  1.00  0.00     0.056 A 
ATOM     12  C   UNL     1      68.804  82.873  63.390  1.00  0.00     0.050 A 
ATOM     13  C   UNL     1      69.841  81.944  63.177  1.00  0.00     0.009 A 
BRANCH   9  14
ATOM     14  O   UNL     1      69.242  83.581  66.985  1.00  0.00    -0.493 OA
ATOM     15  C   UNL     1      70.170  84.623  67.337  1.00  0.00     0.278 C 
ENDBRANCH   9  14
BRANCH  10  16
ATOM     16  O   UNL     1      67.623  84.358  64.838  1.00  0.00    -0.504 OA
ATOM     17  H   UNL     1      67.645  84.996  64.121  1.00  0.00     0.293 HD
ENDBRANCH  10  16
ENDBRANCH   7   8
ENDBRANCH   4   7
ENDBRANCH   2   3
ENDBRANCH   1   2
BRANCH   1  18
ATOM     18  C   UNL     1      76.774  83.884  65.231  1.00  0.00     0.001 C 
BRANCH  18  19
ATOM     19  C   UNL     1      77.549  84.286  66.518  1.00  0.00     0.000 C 
BRANCH  19  20
ATOM     20  C   UNL     1      76.582  84.671  67.672  1.00  0.00     0.000 C 
BRANCH  20  21
ATOM     21  C   UNL     1      76.640  86.170  68.078  1.00  0.00     0.003 C 
BRANCH  21  22
ATOM     22  C   UNL     1      76.988  87.148  66.908  1.00  0.00    -0.017 C 
ATOM     23  C   UNL     1      77.559  88.482  67.466  1.00  0.00     0.007 C 
ATOM     24  C   UNL     1      75.794  87.425  65.948  1.00  0.00     0.007 C 
ENDBRANCH  21  22
ENDBRANCH  20  21
ENDBRANCH  19  20
ENDBRANCH  18  19
ENDBRANCH   1  18
TORSDOF 11
ENDMDL
MODEL 3
REMARK VINA RESULT:    -4.946     23.847     25.743
REMARK INTER + INTRA:          -9.924
REMARK INTER:                  -7.845
REMARK INTRA:                  -2.078
REMARK UNBOUND:                -1.941
REMARK SMILES COc1cc(CNC(=O)CCCCCCC(C)C)ccc1O
REMARK SMILES IDX 11 1 10 2 8 3 7 4 9 6 6 7 5 8 3 9 21 10 4 11 20 12 19 13
REMARK SMILES IDX 2 14 1 15 22 16 12 18 13 19 14 20 15 21 16 22 17 23 18 24
REMARK H PARENT 7 5 22 17
REMARK Flexibility Score: inf
ROOT
ATOM      1  C   UNL     1      71.363  89.597  69.790  1.00  0.00     0.010 C 
ENDROOT
BRANCH   1   2
ATOM      2  C   UNL     1      71.498  89.665  68.244  1.00  0.00     0.100 C 
BRANCH   2   3
ATOM      3  C   UNL     1      71.979  88.401  67.643  1.00  0.00     0.220 C 
ATOM      4  N   UNL     1      72.084  87.273  68.403  1.00  0.00    -0.352 N 
ATOM      5  H   UNL     1      71.855  87.399  69.378  1.00  0.00     0.163 HD
ATOM      6  O   UNL     1      72.263  88.385  66.420  1.00  0.00    -0.275 OA
BRANCH   4   7
ATOM      7  C   UNL     1      72.480  85.985  67.920  1.00  0.00     0.151 C 
BRANCH   7   8
ATOM      8  C   UNL     1      73.954  85.777  67.944  1.00  0.00    -0.025 A 
ATOM      9  C   UNL     1      76.075  85.426  66.748  1.00  0.00     0.160 A 
ATOM     10  C   UNL     1      76.770  85.424  67.977  1.00  0.00     0.157 A 
ATOM     11  C   UNL     1      74.673  85.583  66.742  1.00  0.00     0.056 A 
ATOM     12  C   UNL     1      76.061  85.577  69.182  1.00  0.00     0.050 A 
ATOM     13  C   UNL     1      74.665  85.763  69.167  1.00  0.00     0.009 A 
BRANCH   9  14
ATOM     14  O   UNL     1      76.750  85.239  65.572  1.00  0.00    -0.493 OA
ATOM     15  C   UNL     1      76.395  84.024  64.888  1.00  0.00     0.278 C 
ENDBRANCH   9  14
BRANCH  10  16
ATOM     16  O   UNL     1      78.120  85.273  68.013  1.00  0.00    -0.504 OA
ATOM     17  H   UNL     1      78.373  84.527  67.465  1.00  0.00     0.293 HD
ENDBRANCH  10  16
ENDBRANCH   7   8
ENDBRANCH   4   7
ENDBRANCH   2   3
ENDBRANCH   1   2
BRANCH   1  18
ATOM     18  C   UNL     1      72.694  89.954  70.512  1.00  0.00     0.001 C 
BRANCH  18  19
ATOM     19  C   UNL     1      73.459  91.142  69.865  1.00  0.00     0.000 C 
BRANCH  19  20
ATOM     20  C   UNL     1      74.954  90.795  69.621  1.00  0.00     0.000 C 
BRANCH  20  21
ATOM     21  C   UNL     1      75.190  89.384  69.014  1.00  0.00     0.003 C 
BRANCH  21  22
ATOM     22  C   UNL     1      75.681  89.389  67.529  1.00  0.00    -0.017 C 
ATOM     23  C   UNL     1      77.148  88.882  67.440  1.00  0.00     0.007 C 
ATOM     24  C   UNL     1      75.537  90.771  66.828  1.00  0.00     0.007 C 
ENDBRANCH  21  22
ENDBRANCH  20  21
ENDBRANCH  19  20
ENDBRANCH  18  19
ENDBRANCH   1  18
TORSDOF 11
ENDMDL
MODEL 4
REMARK VINA RESULT:    -4.837     12.061     14.352
REMARK INTER + INTRA:          -9.746
REMARK INTER:                  -9.617
REMARK INTRA:                  -0.129
REMARK UNBOUND:                -1.941
REMARK SMILES COc1cc(CNC(=O)CCCCCCC(C)C)ccc1O
REMARK SMILES IDX 11 1 10 2 8 3 7 4 9 6 6 7 5 8 3 9 21 10 4 11 20 12 19 13
REMARK SMILES IDX 2 14 1 15 22 16 12 18 13 19 14 20 15 21 16 22 17 23 18 24
REMARK H PARENT 7 5 22 17
REMARK Flexibility Score: inf
ROOT
ATOM      1  C   UNL     1      94.661  84.742  87.601  1.00  0.00     0.010 C 
ENDROOT
BRANCH   1   2
ATOM      2  C   UNL     1      93.694  84.560  86.398  1.00  0.00     0.100 C 
BRANCH   2   3
ATOM      3  C   UNL     1      93.313  83.149  86.162  1.00  0.00     0.220 C 
ATOM      4  N   UNL     1      92.183  82.849  85.458  1.00  0.00    -0.352 N 
ATOM      5  H   UNL     1      91.641  83.651  85.171  1.00  0.00     0.163 HD
ATOM      6  O   UNL     1      94.061  82.242  86.601  1.00  0.00    -0.275 OA
BRANCH   4   7
ATOM      7  C   UNL     1      91.747  81.529  85.120  1.00  0.00     0.151 C 
BRANCH   7   8
ATOM      8  C   UNL     1      90.277  81.340  85.266  1.00  0.00    -0.025 A 
ATOM      9  C   UNL     1      87.985  81.802  84.505  1.00  0.00     0.160 A 
ATOM     10  C   UNL     1      87.477  80.952  85.512  1.00  0.00     0.157 A 
ATOM     11  C   UNL     1      89.377  82.004  84.402  1.00  0.00     0.056 A 
ATOM     12  C   UNL     1      88.361  80.317  86.403  1.00  0.00     0.050 A 
ATOM     13  C   UNL     1      89.751  80.500  86.276  1.00  0.00     0.009 A 
BRANCH   9  14
ATOM     14  O   UNL     1      87.132  82.456  83.658  1.00  0.00    -0.493 OA
ATOM     15  C   UNL     1      86.206  81.586  82.982  1.00  0.00     0.278 C 
ENDBRANCH   9  14
BRANCH  10  16
ATOM     16  O   UNL     1      86.140  80.740  85.635  1.00  0.00    -0.504 OA
ATOM     17  H   UNL     1      85.894  80.790  86.562  1.00  0.00     0.293 HD
ENDBRANCH  10  16
ENDBRANCH   7   8
ENDBRANCH   4   7
ENDBRANCH   2   3
ENDBRANCH   1   2
BRANCH   1  18
ATOM     18  C   UNL     1      95.675  85.898  87.369  1.00  0.00     0.001 C 
BRANCH  18  19
ATOM     19  C   UNL     1      96.612  86.162  88.581  1.00  0.00     0.000 C 
BRANCH  19  20
ATOM     20  C   UNL     1      96.658  87.672  88.950  1.00  0.00     0.000 C 
BRANCH  20  21
ATOM     21  C   UNL     1      95.802  88.580  88.025  1.00  0.00     0.003 C 
BRANCH  21  22
ATOM     22  C   UNL     1      94.727  89.438  88.769  1.00  0.00    -0.017 C 
ATOM     23  C   UNL     1      95.331  90.800  89.214  1.00  0.00     0.007 C 
ATOM     24  C   UNL     1      94.074  88.709  89.981  1.00  0.00     0.007 C 
ENDBRANCH  21  22
ENDBRANCH  20  21
ENDBRANCH  19  20
ENDBRANCH  18  19
ENDBRANCH   1  18
TORSDOF 11
ENDMDL
MODEL 5
REMARK VINA RESULT:    -4.784     15.414     18.588
REMARK INTER + INTRA:          -9.662
REMARK INTER:                  -9.007
REMARK INTRA:                  -0.655
REMARK UNBOUND:                -1.941
REMARK SMILES COc1cc(CNC(=O)CCCCCCC(C)C)ccc1O
REMARK SMILES IDX 11 1 10 2 8 3 7 4 9 6 6 7 5 8 3 9 21 10 4 11 20 12 19 13
REMARK SMILES IDX 2 14 1 15 22 16 12 18 13 19 14 20 15 21 16 22 17 23 18 24
REMARK H PARENT 7 5 22 17
REMARK Flexibility Score: inf
ROOT
ATOM      1  C   UNL     1      92.917  98.894  72.596  1.00  0.00     0.010 C 
ENDROOT
BRANCH   1   2
ATOM      2  C   UNL     1      94.385  99.112  73.058  1.00  0.00     0.100 C 
BRANCH   2   3
ATOM      3  C   UNL     1      95.019  97.885  73.589  1.00  0.00     0.220 C 
ATOM      4  N   UNL     1      94.797  97.496  74.878  1.00  0.00    -0.352 N 
ATOM      5  H   UNL     1      94.221  98.127  75.415  1.00  0.00     0.163 HD
ATOM      6  O   UNL     1      95.742  97.201  72.823  1.00  0.00    -0.275 OA
BRANCH   4   7
ATOM      7  C   UNL     1      95.308  96.302  75.481  1.00  0.00     0.151 C 
BRANCH   7   8
ATOM      8  C   UNL     1      94.259  95.494  76.162  1.00  0.00    -0.025 A 
ATOM      9  C   UNL     1      93.607  93.892  77.910  1.00  0.00     0.160 A 
ATOM     10  C   UNL     1      92.260  93.984  77.494  1.00  0.00     0.157 A 
ATOM     11  C   UNL     1      94.597  94.632  77.230  1.00  0.00     0.056 A 
ATOM     12  C   UNL     1      91.918  94.809  76.408  1.00  0.00     0.050 A 
ATOM     13  C   UNL     1      92.907  95.567  75.752  1.00  0.00     0.009 A 
BRANCH   9  14
ATOM     14  O   UNL     1      93.956  93.062  78.940  1.00  0.00    -0.493 OA
ATOM     15  C   UNL     1      95.125  93.494  79.661  1.00  0.00     0.278 C 
ENDBRANCH   9  14
BRANCH  10  16
ATOM     16  O   UNL     1      91.286  93.281  78.130  1.00  0.00    -0.504 OA
ATOM     17  H   UNL     1      90.436  93.483  77.732  1.00  0.00     0.293 HD
ENDBRANCH  10  16
ENDBRANCH   7   8
ENDBRANCH   4   7
ENDBRANCH   2   3
ENDBRANCH   1   2
BRANCH   1  18
ATOM     18  C   UNL     1      92.638  99.532  71.206  1.00  0.00     0.001 C 
BRANCH  18  19
ATOM     19  C   UNL     1      91.187 100.064  71.041  1.00  0.00     0.000 C 
BRANCH  19  20
ATOM     20  C   UNL     1      90.254  98.994  70.408  1.00  0.00     0.000 C 
BRANCH  20  21
ATOM     21  C   UNL     1      90.521  98.727  68.901  1.00  0.00     0.003 C 
BRANCH  21  22
ATOM     22  C   UNL     1      89.844  99.748  67.929  1.00  0.00    -0.017 C 
ATOM     23  C   UNL     1      88.295  99.651  68.031  1.00  0.00     0.007 C 
ATOM     24  C   UNL     1      90.303  99.601  66.448  1.00  0.00     0.007 C 
ENDBRANCH  21  22
ENDBRANCH  20  21
ENDBRANCH  19  20
ENDBRANCH  18  19
ENDBRANCH   1  18
TORSDOF 11
ENDMDL
MODEL 6
REMARK VINA RESULT:    -4.712     23.552     25.903
REMARK INTER + INTRA:          -9.546
REMARK INTER:                  -8.497
REMARK INTRA:                  -1.048
REMARK UNBOUND:                -1.941
REMARK SMILES COc1cc(CNC(=O)CCCCCCC(C)C)ccc1O
REMARK SMILES IDX 11 1 10 2 8 3 7 4 9 6 6 7 5 8 3 9 21 10 4 11 20 12 19 13
REMARK SMILES IDX 2 14 1 15 22 16 12 18 13 19 14 20 15 21 16 22 17 23 18 24
REMARK H PARENT 7 5 22 17
REMARK Flexibility Score: inf
ROOT
ATOM      1  C   UNL     1      76.115  89.722  67.652  1.00  0.00     0.010 C 
ENDROOT
BRANCH   1   2
ATOM      2  C   UNL     1      75.261  89.503  68.931  1.00  0.00     0.100 C 
BRANCH   2   3
ATOM      3  C   UNL     1      74.565  90.727  69.386  1.00  0.00     0.220 C 
ATOM      4  N   UNL     1      75.256  91.719  70.020  1.00  0.00    -0.352 N 
ATOM      5  H   UNL     1      76.233  91.517  70.177  1.00  0.00     0.163 HD
ATOM      6  O   UNL     1      73.336  90.842  69.155  1.00  0.00    -0.275 OA
BRANCH   4   7
ATOM      7  C   UNL     1      74.703  92.967  70.451  1.00  0.00     0.151 C 
BRANCH   7   8
ATOM      8  C   UNL     1      74.456  93.024  71.918  1.00  0.00    -0.025 A 
ATOM      9  C   UNL     1      75.169  93.701  74.172  1.00  0.00     0.160 A 
ATOM     10  C   UNL     1      73.973  93.176  74.710  1.00  0.00     0.157 A 
ATOM     11  C   UNL     1      75.409  93.604  72.785  1.00  0.00     0.056 A 
ATOM     12  C   UNL     1      73.035  92.561  73.862  1.00  0.00     0.050 A 
ATOM     13  C   UNL     1      73.268  92.494  72.474  1.00  0.00     0.009 A 
BRANCH   9  14
ATOM     14  O   UNL     1      76.106  94.266  74.993  1.00  0.00    -0.493 OA
ATOM     15  C   UNL     1      77.417  93.688  74.861  1.00  0.00     0.278 C 
ENDBRANCH   9  14
BRANCH  10  16
ATOM     16  O   UNL     1      73.716  93.253  76.042  1.00  0.00    -0.504 OA
ATOM     17  H   UNL     1      73.610  94.174  76.294  1.00  0.00     0.293 HD
ENDBRANCH  10  16
ENDBRANCH   7   8
ENDBRANCH   4   7
ENDBRANCH   2   3
ENDBRANCH   1   2
BRANCH   1  18
ATOM     18  C   UNL     1      77.286  88.704  67.547  1.00  0.00     0.001 C 
BRANCH  18  19
ATOM     19  C   UNL     1      77.025  87.550  66.539  1.00  0.00     0.000 C 
BRANCH  19  20
ATOM     20  C   UNL     1      77.348  86.162  67.163  1.00  0.00     0.000 C 
BRANCH  20  21
ATOM     21  C   UNL     1      76.920  86.017  68.649  1.00  0.00     0.003 C 
BRANCH  21  22
ATOM     22  C   UNL     1      75.692  85.077  68.883  1.00  0.00    -0.017 C 
ATOM     23  C   UNL     1      75.428  84.203  67.624  1.00  0.00     0.007 C 
ATOM     24  C   UNL     1      74.397  85.833  69.303  1.00  0.00     0.007 C 
ENDBRANCH  21  22
ENDBRANCH  20  21
ENDBRANCH  19  20
ENDBRANCH  18  19
ENDBRANCH   1  18
TORSDOF 11
ENDMDL
MODEL 7
REMARK VINA RESULT:    -4.697      2.979      5.937
REMARK INTER + INTRA:          -9.522
REMARK INTER:                  -8.379
REMARK INTRA:                  -1.143
REMARK UNBOUND:                -1.941
REMARK SMILES COc1cc(CNC(=O)CCCCCCC(C)C)ccc1O
REMARK SMILES IDX 11 1 10 2 8 3 7 4 9 6 6 7 5 8 3 9 21 10 4 11 20 12 19 13
REMARK SMILES IDX 2 14 1 15 22 16 12 18 13 19 14 20 15 21 16 22 17 23 18 24
REMARK H PARENT 7 5 22 17
REMARK Flexibility Score: inf
ROOT
ATOM      1  C   UNL     1     100.215  82.940  73.505  1.00  0.00     0.010 C 
ENDROOT
BRANCH   1   2
ATOM      2  C   UNL     1      98.835  83.609  73.259  1.00  0.00     0.100 C 
BRANCH   2   3
ATOM      3  C   UNL     1      97.741  83.001  74.048  1.00  0.00     0.220 C 
ATOM      4  N   UNL     1      97.536  83.375  75.344  1.00  0.00    -0.352 N 
ATOM      5  H   UNL     1      98.204  84.041  75.701  1.00  0.00     0.163 HD
ATOM      6  O   UNL     1      96.995  82.157  73.492  1.00  0.00    -0.275 OA
BRANCH   4   7
ATOM      7  C   UNL     1      96.478  82.900  76.183  1.00  0.00     0.151 C 
BRANCH   7   8
ATOM      8  C   UNL     1      96.889  81.773  77.066  1.00  0.00    -0.025 A 
ATOM      9  C   UNL     1      97.645  80.952  79.257  1.00  0.00     0.160 A 
ATOM     10  C   UNL     1      97.633  79.628  78.767  1.00  0.00     0.157 A 
ATOM     11  C   UNL     1      97.292  82.014  78.399  1.00  0.00     0.056 A 
ATOM     12  C   UNL     1      97.272  79.379  77.430  1.00  0.00     0.050 A 
ATOM     13  C   UNL     1      96.893  80.442  76.588  1.00  0.00     0.009 A 
BRANCH   9  14
ATOM     14  O   UNL     1      98.032  81.209  80.544  1.00  0.00    -0.493 OA
ATOM     15  C   UNL     1      96.935  81.467  81.439  1.00  0.00     0.278 C 
ENDBRANCH   9  14
BRANCH  10  16
ATOM     16  O   UNL     1      97.970  78.585  79.570  1.00  0.00    -0.504 OA
ATOM     17  H   UNL     1      97.437  78.611  80.369  1.00  0.00     0.293 HD
ENDBRANCH  10  16
ENDBRANCH   7   8
ENDBRANCH   4   7
ENDBRANCH   2   3
ENDBRANCH   1   2
BRANCH   1  18
ATOM     18  C   UNL     1     100.077  81.452  73.936  1.00  0.00     0.001 C 
BRANCH  18  19
ATOM     19  C   UNL     1     100.440  81.194  75.426  1.00  0.00     0.000 C 
BRANCH  19  20
ATOM     20  C   UNL     1     101.152  79.825  75.613  1.00  0.00     0.000 C 
BRANCH  20  21
ATOM     21  C   UNL     1     102.607  79.784  75.070  1.00  0.00     0.003 C 
BRANCH  21  22
ATOM     22  C   UNL     1     103.713  79.987  76.157  1.00  0.00    -0.017 C 
ATOM     23  C   UNL     1     105.117  79.676  75.568  1.00  0.00     0.007 C 
ATOM     24  C   UNL     1     103.471  79.163  77.456  1.00  0.00     0.007 C 
ENDBRANCH  21  22
ENDBRANCH  20  21
ENDBRANCH  19  20
ENDBRANCH  18  19
ENDBRANCH   1  18
TORSDOF 11
ENDMDL
MODEL 8
REMARK VINA RESULT:    -4.620     24.257     26.699
REMARK INTER + INTRA:          -9.398
REMARK INTER:                  -8.118
REMARK INTRA:                  -1.280
REMARK UNBOUND:                -1.941
REMARK SMILES COc1cc(CNC(=O)CCCCCCC(C)C)ccc1O
REMARK SMILES IDX 11 1 10 2 8 3 7 4 9 6 6 7 5 8 3 9 21 10 4 11 20 12 19 13
REMARK SMILES IDX 2 14 1 15 22 16 12 18 13 19 14 20 15 21 16 22 17 23 18 24
REMARK H PARENT 7 5 22 17
REMARK Flexibility Score: inf
ROOT
ATOM      1  C   UNL     1      73.602  82.361  64.020  1.00  0.00     0.010 C 
ENDROOT
BRANCH   1   2
ATOM      2  C   UNL     1      75.069  82.006  63.653  1.00  0.00     0.100 C 
BRANCH   2   3
ATOM      3  C   UNL     1      76.051  82.465  64.661  1.00  0.00     0.220 C 
ATOM      4  N   UNL     1      76.298  83.797  64.827  1.00  0.00    -0.352 N 
ATOM      5  H   UNL     1      75.799  84.400  64.190  1.00  0.00     0.163 HD
ATOM      6  O   UNL     1      76.630  81.607  65.371  1.00  0.00    -0.275 OA
BRANCH   4   7
ATOM      7  C   UNL     1      77.179  84.358  65.805  1.00  0.00     0.151 C 
BRANCH   7   8
ATOM      8  C   UNL     1      76.558  85.459  66.591  1.00  0.00    -0.025 A 
ATOM      9  C   UNL     1      74.553  86.658  67.361  1.00  0.00     0.160 A 
ATOM     10  C   UNL     1      75.363  87.528  68.123  1.00  0.00     0.157 A 
ATOM     11  C   UNL     1      75.156  85.644  66.588  1.00  0.00     0.056 A 
ATOM     12  C   UNL     1      76.761  87.379  68.104  1.00  0.00     0.050 A 
ATOM     13  C   UNL     1      77.355  86.346  67.353  1.00  0.00     0.009 A 
BRANCH   9  14
ATOM     14  O   UNL     1      73.194  86.819  67.341  1.00  0.00    -0.493 OA
ATOM     15  C   UNL     1      72.481  85.830  68.105  1.00  0.00     0.278 C 
ENDBRANCH   9  14
BRANCH  10  16
ATOM     16  O   UNL     1      74.809  88.515  68.875  1.00  0.00    -0.504 OA
ATOM     17  H   UNL     1      74.945  88.321  69.806  1.00  0.00     0.293 HD
ENDBRANCH  10  16
ENDBRANCH   7   8
ENDBRANCH   4   7
ENDBRANCH   2   3
ENDBRANCH   1   2
BRANCH   1  18
ATOM     18  C   UNL     1      72.594  81.880  62.938  1.00  0.00     0.001 C 
BRANCH  18  19
ATOM     19  C   UNL     1      71.643  80.750  63.425  1.00  0.00     0.000 C 
BRANCH  19  20
ATOM     20  C   UNL     1      71.135  81.013  64.870  1.00  0.00     0.000 C 
BRANCH  20  21
ATOM     21  C   UNL     1      70.079  82.148  64.977  1.00  0.00     0.003 C 
BRANCH  21  22
ATOM     22  C   UNL     1      70.551  83.402  65.783  1.00  0.00    -0.017 C 
ATOM     23  C   UNL     1      69.555  83.714  66.935  1.00  0.00     0.007 C 
ATOM     24  C   UNL     1      70.775  84.665  64.900  1.00  0.00     0.007 C 
ENDBRANCH  21  22
ENDBRANCH  20  21
ENDBRANCH  19  20
ENDBRANCH  18  19
ENDBRANCH   1  18
TORSDOF 11
ENDMDL
MODEL 9
REMARK VINA RESULT:    -4.619     16.227     19.274
REMARK INTER + INTRA:          -9.395
REMARK INTER:                  -8.654
REMARK INTRA:                  -0.741
REMARK UNBOUND:                -1.941
REMARK SMILES COc1cc(CNC(=O)CCCCCCC(C)C)ccc1O
REMARK SMILES IDX 11 1 10 2 8 3 7 4 9 6 6 7 5 8 3 9 21 10 4 11 20 12 19 13
REMARK SMILES IDX 2 14 1 15 22 16 12 18 13 19 14 20 15 21 16 22 17 23 18 24
REMARK H PARENT 7 5 22 17
REMARK Flexibility Score: inf
ROOT
ATOM      1  C   UNL     1      92.531 100.034  71.932  1.00  0.00     0.010 C 
ENDROOT
BRANCH   1   2
ATOM      2  C   UNL     1      93.993 100.142  71.417  1.00  0.00     0.100 C 
BRANCH   2   3
ATOM      3  C   UNL     1      94.721  98.853  71.448  1.00  0.00     0.220 C 
ATOM      4  N   UNL     1      94.990  98.242  72.638  1.00  0.00    -0.352 N 
ATOM      5  H   UNL     1      94.695  98.759  73.453  1.00  0.00     0.163 HD
ATOM      6  O   UNL     1      95.060  98.328  70.360  1.00  0.00    -0.275 OA
BRANCH   4   7
ATOM      7  C   UNL     1      95.633  96.972  72.787  1.00  0.00     0.151 C 
BRANCH   7   8
ATOM      8  C   UNL     1      95.461  96.384  74.144  1.00  0.00    -0.025 A 
ATOM      9  C   UNL     1      94.419  94.724  75.629  1.00  0.00     0.160 A 
ATOM     10  C   UNL     1      95.162  95.228  76.719  1.00  0.00     0.157 A 
ATOM     11  C   UNL     1      94.560  95.316  74.357  1.00  0.00     0.056 A 
ATOM     12  C   UNL     1      96.033  96.316  76.528  1.00  0.00     0.050 A 
ATOM     13  C   UNL     1      96.191  96.884  75.249  1.00  0.00     0.009 A 
BRANCH   9  14
ATOM     14  O   UNL     1      93.539  93.692  75.812  1.00  0.00    -0.493 OA
ATOM     15  C   UNL     1      92.188  94.119  76.064  1.00  0.00     0.278 C 
ENDBRANCH   9  14
BRANCH  10  16
ATOM     16  O   UNL     1      95.045  94.678  77.956  1.00  0.00    -0.504 OA
ATOM     17  H   UNL     1      95.243  95.342  78.621  1.00  0.00     0.293 HD
ENDBRANCH  10  16
ENDBRANCH   7   8
ENDBRANCH   4   7
ENDBRANCH   2   3
ENDBRANCH   1   2
BRANCH   1  18
ATOM     18  C   UNL     1      91.589  99.370  70.888  1.00  0.00     0.001 C 
BRANCH  18  19
ATOM     19  C   UNL     1      91.703  99.980  69.463  1.00  0.00     0.000 C 
BRANCH  19  20
ATOM     20  C   UNL     1      90.349 100.579  68.987  1.00  0.00     0.000 C 
BRANCH  20  21
ATOM     21  C   UNL     1      89.148  99.598  69.087  1.00  0.00     0.003 C 
BRANCH  21  22
ATOM     22  C   UNL     1      88.367  99.388  67.749  1.00  0.00    -0.017 C 
ATOM     23  C   UNL     1      89.237  98.604  66.728  1.00  0.00     0.007 C 
ATOM     24  C   UNL     1      87.844 100.712  67.117  1.00  0.00     0.007 C 
ENDBRANCH  21  22
ENDBRANCH  20  21
ENDBRANCH  19  20
ENDBRANCH  18  19
ENDBRANCH   1  18
TORSDOF 11
ENDMDL
MODEL 10
REMARK VINA RESULT:    -4.565      2.606      5.601
REMARK INTER + INTRA:          -9.308
REMARK INTER:                  -7.752
REMARK INTRA:                  -1.556
REMARK UNBOUND:                -1.941
REMARK SMILES COc1cc(CNC(=O)CCCCCCC(C)C)ccc1O
REMARK SMILES IDX 11 1 10 2 8 3 7 4 9 6 6 7 5 8 3 9 21 10 4 11 20 12 19 13
REMARK SMILES IDX 2 14 1 15 22 16 12 18 13 19 14 20 15 21 16 22 17 23 18 24
REMARK H PARENT 7 5 22 17
REMARK Flexibility Score: inf
ROOT
ATOM      1  C   UNL     1      99.457  82.612  73.060  1.00  0.00     0.010 C 
ENDROOT
BRANCH   1   2
ATOM      2  C   UNL     1      98.304  83.560  73.492  1.00  0.00     0.100 C 
BRANCH   2   3
ATOM      3  C   UNL     1      97.288  82.896  74.340  1.00  0.00     0.220 C 
ATOM      4  N   UNL     1      97.143  83.254  75.649  1.00  0.00    -0.352 N 
ATOM      5  H   UNL     1      97.800  83.949  75.970  1.00  0.00     0.163 HD
ATOM      6  O   UNL     1      96.552  82.021  73.823  1.00  0.00    -0.275 OA
BRANCH   4   7
ATOM      7  C   UNL     1      96.161  82.725  76.546  1.00  0.00     0.151 C 
BRANCH   7   8
ATOM      8  C   UNL     1      96.718  81.737  77.510  1.00  0.00    -0.025 A 
ATOM      9  C   UNL     1      97.432  79.442  78.034  1.00  0.00     0.160 A 
ATOM     10  C   UNL     1      97.821  79.856  79.326  1.00  0.00     0.157 A 
ATOM     11  C   UNL     1      96.867  80.380  77.143  1.00  0.00     0.056 A 
ATOM     12  C   UNL     1      97.641  81.196  79.716  1.00  0.00     0.050 A 
ATOM     13  C   UNL     1      97.104  82.132  78.812  1.00  0.00     0.009 A 
BRANCH   9  14
ATOM     14  O   UNL     1      97.565  78.133  77.658  1.00  0.00    -0.493 OA
ATOM     15  C   UNL     1      96.716  77.756  76.559  1.00  0.00     0.278 C 
ENDBRANCH   9  14
BRANCH  10  16
ATOM     16  O   UNL     1      98.366  78.974  80.205  1.00  0.00    -0.504 OA
ATOM     17  H   UNL     1      97.724  78.767  80.889  1.00  0.00     0.293 HD
ENDBRANCH  10  16
ENDBRANCH   7   8
ENDBRANCH   4   7
ENDBRANCH   2   3
ENDBRANCH   1   2
BRANCH   1  18
ATOM     18  C   UNL     1     100.762  82.872  73.866  1.00  0.00     0.001 C 
BRANCH  18  19
ATOM     19  C   UNL     1     102.027  82.224  73.234  1.00  0.00     0.000 C 
BRANCH  19  20
ATOM     20  C   UNL     1     102.436  80.923  73.981  1.00  0.00     0.000 C 
BRANCH  20  21
ATOM     21  C   UNL     1     101.718  80.717  75.343  1.00  0.00     0.003 C 
BRANCH  21  22
ATOM     22  C   UNL     1     101.014  79.330  75.503  1.00  0.00    -0.017 C 
ATOM     23  C   UNL     1      99.606  79.355  74.846  1.00  0.00     0.007 C 
ATOM     24  C   UNL     1     100.918  78.844  76.980  1.00  0.00     0.007 C 
ENDBRANCH  21  22
ENDBRANCH  20  21
ENDBRANCH  19  20
ENDBRANCH  18  19
ENDBRANCH   1  18
TORSDOF 11
ENDMDL
