MODEL 1
REMARK VINA RESULT:    -7.107      0.000      0.000
REMARK INTER + INTRA:         -13.885
REMARK INTER:                 -12.509
REMARK INTRA:                  -1.377
REMARK UNBOUND:                -1.377
REMARK SMILES C=C(C)[C@]12C[C@@H](C)[C@@]34O[C@](Cc5ccccc5)(O[C@@H]1[C@@H]3C=C(COC(=O)Cc1ccc(O)c(OC)c1)C[C@]1(O)C(=O)C(C)=C[C@@H]41)O2
REMARK SMILES IDX 23 1 22 2 21 3 20 4 9 5 8 6 10 7 6 8 18 9 46 10 19 11 5 12
REMARK SMILES IDX 7 13 4 14 45 15 38 16 44 17 40 18 42 20 41 21 43 22 39 23
REMARK SMILES IDX 11 25 12 26 13 27 17 28 14 29 16 30 15 31 2 32 3 33 1 34
REMARK SMILES IDX 37 35 24 37 25 38 26 39 27 40 28 41 36 42 29 43 33 44 30 45
REMARK SMILES IDX 31 46 34 47 35 48 32 49
REMARK H PARENT 39 24 32 50
REMARK Flexibility Score: 90.00
ROOT
ATOM      1  C   UNL     1      95.131  76.542  82.476  1.00  0.00     0.264 C 
ENDROOT
BRANCH   1   2
ATOM      2  C   UNL     1      96.160  77.648  82.467  1.00  0.00    -0.033 C 
ATOM      3  C   UNL     1      97.157  77.613  81.560  1.00  0.00    -0.015 C 
BRANCH   3   4
ATOM      4  C   UNL     1      98.343  78.549  81.394  1.00  0.00     0.078 C 
ATOM      5  O   UNL     1      97.666  80.291  79.774  1.00  0.00    -0.319 OA
ATOM      6  C   UNL     1      98.063  80.080  81.164  1.00  0.00     0.095 C 
ATOM      7  C   UNL     1      98.433  79.561  78.797  1.00  0.00     0.289 C 
ATOM      8  C   UNL     1      99.411  80.863  81.448  1.00  0.00     0.023 C 
ATOM      9  O   UNL     1      98.385  78.159  79.044  1.00  0.00    -0.320 OA
ATOM     10  O   UNL     1      99.815  79.910  78.824  1.00  0.00    -0.313 OA
ATOM     11  C   UNL     1      99.222  78.079  80.208  1.00  0.00     0.170 C 
ATOM     12  C   UNL     1     100.658  80.017  81.046  1.00  0.00     0.049 C 
ATOM     13  C   UNL     1      99.512  82.258  80.809  1.00  0.00     0.011 C 
ATOM     14  C   UNL     1     100.354  79.082  79.875  1.00  0.00     0.122 C 
BRANCH   6  15
ATOM     15  C   UNL     1      96.832  80.546  81.994  1.00  0.00     0.086 C 
ATOM     16  C   UNL     1      96.755  80.028  83.445  1.00  0.00     0.140 CG0
ATOM     17  C   UNL     1      96.550  82.016  82.132  1.00  0.00    -0.010 C 
ATOM     18  C   UNL     1      96.113  81.191  84.173  1.00  0.00     0.190 C 
ATOM     19  G   UNL     1      95.934  78.744  83.557  1.00  0.00     0.000 G0
ATOM     20  C   UNL     1      96.118  82.406  83.336  1.00  0.00    -0.008 C 
ATOM     21  O   UNL     1      95.689  81.163  85.318  1.00  0.00    -0.291 OA
ATOM     22  C   UNL     1      95.673  83.735  83.803  1.00  0.00     0.048 C 
BRANCH  16  23
ATOM     23  O   UNL     1      98.018  79.892  84.074  1.00  0.00    -0.381 OA
ATOM     24  H   UNL     1      98.470  79.122  83.691  1.00  0.00     0.212 HD
ENDBRANCH  16  23
ENDBRANCH   6  15
BRANCH   7  25
ATOM     25  C   UNL     1      97.862  79.860  77.425  1.00  0.00     0.135 C 
BRANCH  25  26
ATOM     26  C   UNL     1      97.847  81.339  77.128  1.00  0.00    -0.040 A 
ATOM     27  C   UNL     1      97.048  82.194  77.888  1.00  0.00     0.004 A 
ATOM     28  C   UNL     1      98.633  81.852  76.097  1.00  0.00     0.004 A 
ATOM     29  C   UNL     1      97.033  83.562  77.614  1.00  0.00     0.000 A 
ATOM     30  C   UNL     1      98.618  83.220  75.823  1.00  0.00     0.000 A 
ATOM     31  C   UNL     1      97.818  84.074  76.582  1.00  0.00     0.000 A 
ENDBRANCH  25  26
ENDBRANCH   7  25
BRANCH  14  32
ATOM     32  C   UNL     1     101.576  78.397  79.354  1.00  0.00    -0.046 C 
ATOM     33  C   UNL     1     102.402  77.659  80.365  1.00  0.00     0.042 C 
ATOM     34  C   UNL     1     101.915  78.440  78.057  1.00  0.00     0.010 C 
ENDBRANCH  14  32
ENDBRANCH   3   4
BRANCH   2  35
ATOM     35  C   UNL     1      95.912  78.700  83.531  1.00  0.00     0.078 CG0
ATOM     36  G   UNL     1      96.738  79.983  83.450  1.00  0.00     0.000 G0
ENDBRANCH   2  35
ENDBRANCH   1   2
BRANCH   1  37
ATOM     37  O   UNL     1      94.323  76.665  83.627  1.00  0.00    -0.461 OA
BRANCH  37  38
ATOM     38  C   UNL     1      92.965  76.567  83.431  1.00  0.00     0.310 C 
ATOM     39  O   UNL     1      92.431  76.110  82.430  1.00  0.00    -0.252 OA
BRANCH  38  40
ATOM     40  C   UNL     1      92.241  77.111  84.640  1.00  0.00     0.158 C 
BRANCH  40  41
ATOM     41  C   UNL     1      91.764  78.528  84.452  1.00  0.00    -0.033 A 
ATOM     42  C   UNL     1      90.439  78.775  84.090  1.00  0.00     0.054 A 
ATOM     43  C   UNL     1      92.646  79.591  84.640  1.00  0.00     0.008 A 
ATOM     44  C   UNL     1      89.998  80.087  83.916  1.00  0.00     0.160 A 
ATOM     45  C   UNL     1      92.205  80.903  84.466  1.00  0.00     0.050 A 
ATOM     46  C   UNL     1      90.881  81.151  84.103  1.00  0.00     0.157 A 
BRANCH  44  47
ATOM     47  O   UNL     1      88.703  80.317  83.562  1.00  0.00    -0.493 OA
ATOM     48  C   UNL     1      87.695  79.878  84.471  1.00  0.00     0.278 C 
ENDBRANCH  44  47
BRANCH  46  49
ATOM     49  O   UNL     1      90.461  82.436  83.937  1.00  0.00    -0.504 OA
ATOM     50  H   UNL     1      89.505  82.481  84.108  1.00  0.00     0.293 HD
ENDBRANCH  46  49
ENDBRANCH  40  41
ENDBRANCH  38  40
ENDBRANCH  37  38
ENDBRANCH   1  37
TORSDOF 11
ENDMDL
MODEL 2
REMARK VINA RESULT:    -7.057      3.689      9.534
REMARK INTER + INTRA:         -13.797
REMARK INTER:                 -12.959
REMARK INTRA:                  -0.838
REMARK UNBOUND:                -1.377
REMARK SMILES C=C(C)[C@]12C[C@@H](C)[C@@]34O[C@](Cc5ccccc5)(O[C@@H]1[C@@H]3C=C(COC(=O)Cc1ccc(O)c(OC)c1)C[C@]1(O)C(=O)C(C)=C[C@@H]41)O2
REMARK SMILES IDX 23 1 22 2 21 3 20 4 9 5 8 6 10 7 6 8 18 9 46 10 19 11 5 12
REMARK SMILES IDX 7 13 4 14 45 15 38 16 44 17 40 18 42 20 41 21 43 22 39 23
REMARK SMILES IDX 11 25 12 26 13 27 17 28 14 29 16 30 15 31 2 32 3 33 1 34
REMARK SMILES IDX 37 35 24 37 25 38 26 39 27 40 28 41 36 42 29 43 33 44 30 45
REMARK SMILES IDX 31 46 34 47 35 48 32 49
REMARK H PARENT 39 24 32 50
REMARK Flexibility Score: 90.00
ROOT
ATOM      1  C   UNL     1      96.505  82.179  82.745  1.00  0.00     0.264 C 
ENDROOT
BRANCH   1   2
ATOM      2  C   UNL     1      95.839  81.601  83.972  1.00  0.00    -0.033 C 
ATOM      3  C   UNL     1      95.847  82.307  85.120  1.00  0.00    -0.015 C 
BRANCH   3   4
ATOM      4  C   UNL     1      95.323  81.920  86.494  1.00  0.00     0.078 C 
ATOM      5  O   UNL     1      92.994  82.742  86.633  1.00  0.00    -0.319 OA
ATOM      6  C   UNL     1      93.805  81.527  86.632  1.00  0.00     0.095 C 
ATOM      7  C   UNL     1      93.514  83.830  87.421  1.00  0.00     0.289 C 
ATOM      8  C   UNL     1      93.628  80.779  88.018  1.00  0.00     0.023 C 
ATOM      9  O   UNL     1      94.825  84.195  86.997  1.00  0.00    -0.320 OA
ATOM     10  O   UNL     1      93.636  83.489  88.799  1.00  0.00    -0.313 OA
ATOM     11  C   UNL     1      95.572  83.075  87.496  1.00  0.00     0.170 C 
ATOM     12  C   UNL     1      94.605  81.337  89.098  1.00  0.00     0.049 C 
ATOM     13  C   UNL     1      92.198  80.763  88.581  1.00  0.00     0.011 C 
ATOM     14  C   UNL     1      94.911  82.818  88.873  1.00  0.00     0.122 C 
BRANCH   6  15
ATOM     15  C   UNL     1      93.323  80.739  85.380  1.00  0.00     0.086 C 
ATOM     16  C   UNL     1      94.297  79.678  84.827  1.00  0.00     0.140 CG0
ATOM     17  C   UNL     1      92.007  80.013  85.428  1.00  0.00    -0.010 C 
ATOM     18  C   UNL     1      93.358  78.605  84.319  1.00  0.00     0.190 C 
ATOM     19  G   UNL     1      95.196  80.239  83.726  1.00  0.00     0.000 G0
ATOM     20  C   UNL     1      91.987  78.824  84.817  1.00  0.00    -0.008 C 
ATOM     21  O   UNL     1      93.681  77.649  83.631  1.00  0.00    -0.291 OA
ATOM     22  C   UNL     1      90.866  77.887  84.597  1.00  0.00     0.048 C 
BRANCH  16  23
ATOM     23  O   UNL     1      95.055  79.018  85.828  1.00  0.00    -0.381 OA
ATOM     24  H   UNL     1      95.972  79.336  85.778  1.00  0.00     0.212 HD
ENDBRANCH  16  23
ENDBRANCH   6  15
BRANCH   7  25
ATOM     25  C   UNL     1      92.579  85.014  87.273  1.00  0.00     0.135 C 
BRANCH  25  26
ATOM     26  C   UNL     1      93.247  86.312  87.653  1.00  0.00    -0.040 A 
ATOM     27  C   UNL     1      93.854  87.097  86.672  1.00  0.00     0.004 A 
ATOM     28  C   UNL     1      93.256  86.728  88.984  1.00  0.00     0.004 A 
ATOM     29  C   UNL     1      94.471  88.298  87.024  1.00  0.00     0.000 A 
ATOM     30  C   UNL     1      93.874  87.929  89.335  1.00  0.00     0.000 A 
ATOM     31  C   UNL     1      94.481  88.713  88.354  1.00  0.00     0.000 A 
ENDBRANCH  25  26
ENDBRANCH   7  25
BRANCH  14  32
ATOM     32  C   UNL     1      95.695  83.419  89.993  1.00  0.00    -0.046 C 
ATOM     33  C   UNL     1      97.162  83.109  90.015  1.00  0.00     0.042 C 
ATOM     34  C   UNL     1      95.121  84.193  90.926  1.00  0.00     0.010 C 
ENDBRANCH  14  32
ENDBRANCH   3   4
BRANCH   2  35
ATOM     35  C   UNL     1      95.216  80.240  83.725  1.00  0.00     0.078 CG0
ATOM     36  G   UNL     1      94.310  79.677  84.820  1.00  0.00     0.000 G0
ENDBRANCH   2  35
ENDBRANCH   1   2
BRANCH   1  37
ATOM     37  O   UNL     1      97.905  82.066  82.876  1.00  0.00    -0.461 OA
BRANCH  37  38
ATOM     38  C   UNL     1      98.563  81.425  81.853  1.00  0.00     0.310 C 
ATOM     39  O   UNL     1      99.750  81.127  81.858  1.00  0.00    -0.252 OA
BRANCH  38  40
ATOM     40  C   UNL     1      97.595  81.147  80.726  1.00  0.00     0.158 C 
BRANCH  40  41
ATOM     41  C   UNL     1      98.121  81.577  79.381  1.00  0.00    -0.033 A 
ATOM     42  C   UNL     1      97.667  82.762  78.801  1.00  0.00     0.054 A 
ATOM     43  C   UNL     1      99.061  80.791  78.715  1.00  0.00     0.008 A 
ATOM     44  C   UNL     1      98.153  83.160  77.555  1.00  0.00     0.160 A 
ATOM     45  C   UNL     1      99.547  81.188  77.470  1.00  0.00     0.050 A 
ATOM     46  C   UNL     1      99.093  82.372  76.889  1.00  0.00     0.157 A 
BRANCH  44  47
ATOM     47  O   UNL     1      97.702  84.318  76.999  1.00  0.00    -0.493 OA
ATOM     48  C   UNL     1      96.288  84.503  76.942  1.00  0.00     0.278 C 
ENDBRANCH  44  47
BRANCH  46  49
ATOM     49  O   UNL     1      99.576  82.751  75.674  1.00  0.00    -0.504 OA
ATOM     50  H   UNL     1      99.830  83.688  75.712  1.00  0.00     0.293 HD
ENDBRANCH  46  49
ENDBRANCH  40  41
ENDBRANCH  38  40
ENDBRANCH  37  38
ENDBRANCH   1  37
TORSDOF 11
ENDMDL
MODEL 3
REMARK VINA RESULT:    -6.300     24.298     28.544
REMARK INTER + INTRA:         -12.465
REMARK INTER:                 -11.046
REMARK INTRA:                  -1.419
REMARK UNBOUND:                -1.377
REMARK SMILES C=C(C)[C@]12C[C@@H](C)[C@@]34O[C@](Cc5ccccc5)(O[C@@H]1[C@@H]3C=C(COC(=O)Cc1ccc(O)c(OC)c1)C[C@]1(O)C(=O)C(C)=C[C@@H]41)O2
REMARK SMILES IDX 23 1 22 2 21 3 20 4 9 5 8 6 10 7 6 8 18 9 46 10 19 11 5 12
REMARK SMILES IDX 7 13 4 14 45 15 38 16 44 17 40 18 42 20 41 21 43 22 39 23
REMARK SMILES IDX 11 25 12 26 13 27 17 28 14 29 16 30 15 31 2 32 3 33 1 34
REMARK SMILES IDX 37 35 24 37 25 38 26 39 27 40 28 41 36 42 29 43 33 44 30 45
REMARK SMILES IDX 31 46 34 47 35 48 32 49
REMARK H PARENT 39 24 32 50
REMARK Flexibility Score: 90.00
ROOT
ATOM      1  C   UNL     1      70.088  88.783  68.843  1.00  0.00     0.264 C 
ENDROOT
BRANCH   1   2
ATOM      2  C   UNL     1      71.573  89.060  68.817  1.00  0.00    -0.033 C 
ATOM      3  C   UNL     1      72.432  88.033  68.660  1.00  0.00    -0.015 C 
BRANCH   3   4
ATOM      4  C   UNL     1      73.952  88.036  68.677  1.00  0.00     0.078 C 
ATOM      5  O   UNL     1      74.698  88.287  66.332  1.00  0.00    -0.319 OA
ATOM      6  C   UNL     1      74.711  88.943  67.638  1.00  0.00     0.095 C 
ATOM      7  C   UNL     1      74.957  86.871  66.351  1.00  0.00     0.289 C 
ATOM      8  C   UNL     1      76.208  89.092  68.134  1.00  0.00     0.023 C 
ATOM      9  O   UNL     1      74.021  86.185  67.179  1.00  0.00    -0.320 OA
ATOM     10  O   UNL     1      76.242  86.562  66.885  1.00  0.00    -0.313 OA
ATOM     11  C   UNL     1      74.483  86.595  68.475  1.00  0.00     0.170 C 
ATOM     12  C   UNL     1      76.700  87.803  68.863  1.00  0.00     0.049 C 
ATOM     13  C   UNL     1      77.226  89.487  67.052  1.00  0.00     0.011 C 
ATOM     14  C   UNL     1      76.023  86.548  68.311  1.00  0.00     0.122 C 
BRANCH   6  15
ATOM     15  C   UNL     1      73.946  90.279  67.410  1.00  0.00     0.086 C 
ATOM     16  C   UNL     1      73.373  90.958  68.671  1.00  0.00     0.140 CG0
ATOM     17  C   UNL     1      74.630  91.404  66.686  1.00  0.00    -0.010 C 
ATOM     18  C   UNL     1      73.511  92.429  68.340  1.00  0.00     0.190 C 
ATOM     19  G   UNL     1      71.925  90.552  68.938  1.00  0.00     0.000 G0
ATOM     20  C   UNL     1      74.384  92.628  67.167  1.00  0.00    -0.008 C 
ATOM     21  O   UNL     1      73.017  93.348  68.976  1.00  0.00    -0.291 OA
ATOM     22  C   UNL     1      74.810  93.950  66.666  1.00  0.00     0.048 C 
BRANCH  16  23
ATOM     23  O   UNL     1      74.179  90.795  69.827  1.00  0.00    -0.381 OA
ATOM     24  H   UNL     1      73.973  91.513  70.448  1.00  0.00     0.212 HD
ENDBRANCH  16  23
ENDBRANCH   6  15
BRANCH   7  25
ATOM     25  C   UNL     1      74.862  86.351  64.931  1.00  0.00     0.135 C 
BRANCH  25  26
ATOM     26  C   UNL     1      73.904  85.191  64.816  1.00  0.00    -0.040 A 
ATOM     27  C   UNL     1      72.545  85.428  64.603  1.00  0.00     0.004 A 
ATOM     28  C   UNL     1      74.375  83.884  64.922  1.00  0.00     0.004 A 
ATOM     29  C   UNL     1      71.659  84.356  64.497  1.00  0.00     0.000 A 
ATOM     30  C   UNL     1      73.489  82.811  64.816  1.00  0.00     0.000 A 
ATOM     31  C   UNL     1      72.131  83.048  64.603  1.00  0.00     0.000 A 
ENDBRANCH  25  26
ENDBRANCH   7  25
BRANCH  14  32
ATOM     32  C   UNL     1      76.608  85.290  68.864  1.00  0.00    -0.046 C 
ATOM     33  C   UNL     1      76.721  84.137  67.911  1.00  0.00     0.042 C 
ATOM     34  C   UNL     1      77.010  85.195  70.141  1.00  0.00     0.010 C 
ENDBRANCH  14  32
ENDBRANCH   3   4
BRANCH   2  35
ATOM     35  C   UNL     1      71.906  90.532  68.971  1.00  0.00     0.078 CG0
ATOM     36  G   UNL     1      73.344  90.957  68.676  1.00  0.00     0.000 G0
ENDBRANCH   2  35
ENDBRANCH   1   2
BRANCH   1  37
ATOM     37  O   UNL     1      69.702  88.428  70.154  1.00  0.00    -0.461 OA
BRANCH  37  38
ATOM     38  C   UNL     1      68.353  88.456  70.419  1.00  0.00     0.310 C 
ATOM     39  O   UNL     1      67.655  89.461  70.408  1.00  0.00    -0.252 OA
BRANCH  38  40
ATOM     40  C   UNL     1      67.870  87.058  70.726  1.00  0.00     0.158 C 
BRANCH  40  41
ATOM     41  C   UNL     1      68.553  86.004  69.893  1.00  0.00    -0.033 A 
ATOM     42  C   UNL     1      68.119  85.755  68.591  1.00  0.00     0.054 A 
ATOM     43  C   UNL     1      69.619  85.278  70.424  1.00  0.00     0.008 A 
ATOM     44  C   UNL     1      68.751  84.779  67.820  1.00  0.00     0.160 A 
ATOM     45  C   UNL     1      70.251  84.302  69.653  1.00  0.00     0.050 A 
ATOM     46  C   UNL     1      69.818  84.052  68.352  1.00  0.00     0.157 A 
BRANCH  44  47
ATOM     47  O   UNL     1      68.319  84.544  66.550  1.00  0.00    -0.493 OA
ATOM     48  C   UNL     1      67.105  85.179  66.151  1.00  0.00     0.278 C 
ENDBRANCH  44  47
BRANCH  46  49
ATOM     49  O   UNL     1      70.444  83.098  67.608  1.00  0.00    -0.504 OA
ATOM     50  H   UNL     1      69.774  82.577  67.134  1.00  0.00     0.293 HD
ENDBRANCH  46  49
ENDBRANCH  40  41
ENDBRANCH  38  40
ENDBRANCH  37  38
ENDBRANCH   1  37
TORSDOF 11
ENDMDL
MODEL 4
REMARK VINA RESULT:    -6.119     16.425     20.077
REMARK INTER + INTRA:         -12.146
REMARK INTER:                 -11.067
REMARK INTRA:                  -1.079
REMARK UNBOUND:                -1.377
REMARK SMILES C=C(C)[C@]12C[C@@H](C)[C@@]34O[C@](Cc5ccccc5)(O[C@@H]1[C@@H]3C=C(COC(=O)Cc1ccc(O)c(OC)c1)C[C@]1(O)C(=O)C(C)=C[C@@H]41)O2
REMARK SMILES IDX 23 1 22 2 21 3 20 4 9 5 8 6 10 7 6 8 18 9 46 10 19 11 5 12
REMARK SMILES IDX 7 13 4 14 45 15 38 16 44 17 40 18 42 20 41 21 43 22 39 23
REMARK SMILES IDX 11 25 12 26 13 27 17 28 14 29 16 30 15 31 2 32 3 33 1 34
REMARK SMILES IDX 37 35 24 37 25 38 26 39 27 40 28 41 36 42 29 43 33 44 30 45
REMARK SMILES IDX 31 46 34 47 35 48 32 49
REMARK H PARENT 39 24 32 50
REMARK Flexibility Score: 90.00
ROOT
ATOM      1  C   UNL     1      87.908  69.656  71.982  1.00  0.00     0.264 C 
ENDROOT
BRANCH   1   2
ATOM      2  C   UNL     1      87.167  68.644  72.825  1.00  0.00    -0.033 C 
ATOM      3  C   UNL     1      85.965  68.195  72.411  1.00  0.00    -0.015 C 
BRANCH   3   4
ATOM      4  C   UNL     1      84.998  67.250  73.104  1.00  0.00     0.078 C 
ATOM      5  O   UNL     1      85.542  64.965  72.328  1.00  0.00    -0.319 OA
ATOM      6  C   UNL     1      85.512  65.819  73.513  1.00  0.00     0.095 C 
ATOM      7  C   UNL     1      84.402  65.081  71.455  1.00  0.00     0.289 C 
ATOM      8  C   UNL     1      84.486  65.222  74.562  1.00  0.00     0.023 C 
ATOM      9  O   UNL     1      84.228  66.423  71.007  1.00  0.00    -0.320 OA
ATOM     10  O   UNL     1      83.184  64.732  72.108  1.00  0.00    -0.313 OA
ATOM     11  C   UNL     1      83.748  67.032  72.216  1.00  0.00     0.170 C 
ATOM     12  C   UNL     1      83.030  65.703  74.275  1.00  0.00     0.049 C 
ATOM     13  C   UNL     1      84.501  63.692  74.703  1.00  0.00     0.011 C 
ATOM     14  C   UNL     1      82.799  65.947  72.783  1.00  0.00     0.122 C 
BRANCH   6  15
ATOM     15  C   UNL     1      86.993  65.880  73.986  1.00  0.00     0.086 C 
ATOM     16  C   UNL     1      87.368  67.067  74.897  1.00  0.00     0.140 CG0
ATOM     17  C   UNL     1      87.589  64.695  74.693  1.00  0.00    -0.010 C 
ATOM     18  C   UNL     1      88.406  66.458  75.816  1.00  0.00     0.190 C 
ATOM     19  G   UNL     1      87.913  68.254  74.103  1.00  0.00     0.000 G0
ATOM     20  C   UNL     1      88.409  64.987  75.708  1.00  0.00    -0.008 C 
ATOM     21  O   UNL     1      89.119  67.080  76.589  1.00  0.00    -0.291 OA
ATOM     22  C   UNL     1      89.223  64.096  76.561  1.00  0.00     0.048 C 
BRANCH  16  23
ATOM     23  O   UNL     1      86.330  67.467  75.776  1.00  0.00    -0.381 OA
ATOM     24  H   UNL     1      86.152  66.737  76.392  1.00  0.00     0.212 HD
ENDBRANCH  16  23
ENDBRANCH   6  15
BRANCH   7  25
ATOM     25  C   UNL     1      84.618  64.167  70.266  1.00  0.00     0.135 C 
BRANCH  25  26
ATOM     26  C   UNL     1      85.271  64.887  69.112  1.00  0.00    -0.040 A 
ATOM     27  C   UNL     1      84.498  65.328  68.038  1.00  0.00     0.004 A 
ATOM     28  C   UNL     1      86.647  65.114  69.119  1.00  0.00     0.004 A 
ATOM     29  C   UNL     1      85.101  65.994  66.970  1.00  0.00     0.000 A 
ATOM     30  C   UNL     1      87.251  65.779  68.052  1.00  0.00     0.000 A 
ATOM     31  C   UNL     1      86.477  66.219  66.978  1.00  0.00     0.000 A 
ENDBRANCH  25  26
ENDBRANCH   7  25
BRANCH  14  32
ATOM     32  C   UNL     1      81.367  66.230  72.463  1.00  0.00    -0.046 C 
ATOM     33  C   UNL     1      80.617  67.063  73.460  1.00  0.00     0.042 C 
ATOM     34  C   UNL     1      80.785  65.767  71.346  1.00  0.00     0.010 C 
ENDBRANCH  14  32
ENDBRANCH   3   4
BRANCH   2  35
ATOM     35  C   UNL     1      87.922  68.249  74.080  1.00  0.00     0.078 CG0
ATOM     36  G   UNL     1      87.368  67.077  74.889  1.00  0.00     0.000 G0
ENDBRANCH   2  35
ENDBRANCH   1   2
BRANCH   1  37
ATOM     37  O   UNL     1      88.358  69.036  70.797  1.00  0.00    -0.461 OA
BRANCH  37  38
ATOM     38  C   UNL     1      89.515  69.539  70.249  1.00  0.00     0.310 C 
ATOM     39  O   UNL     1      90.335  68.885  69.618  1.00  0.00    -0.252 OA
BRANCH  38  40
ATOM     40  C   UNL     1      89.616  71.016  70.548  1.00  0.00     0.158 C 
BRANCH  40  41
ATOM     41  C   UNL     1      89.496  71.875  69.315  1.00  0.00    -0.033 A 
ATOM     42  C   UNL     1      90.575  72.658  68.904  1.00  0.00     0.054 A 
ATOM     43  C   UNL     1      88.308  71.886  68.586  1.00  0.00     0.008 A 
ATOM     44  C   UNL     1      90.465  73.453  67.763  1.00  0.00     0.160 A 
ATOM     45  C   UNL     1      88.197  72.681  67.445  1.00  0.00     0.050 A 
ATOM     46  C   UNL     1      89.275  73.465  67.033  1.00  0.00     0.157 A 
BRANCH  44  47
ATOM     47  O   UNL     1      91.525  74.213  67.371  1.00  0.00    -0.493 OA
ATOM     48  C   UNL     1      92.820  73.784  67.788  1.00  0.00     0.278 C 
ENDBRANCH  44  47
BRANCH  46  49
ATOM     49  O   UNL     1      89.156  74.236  65.917  1.00  0.00    -0.504 OA
ATOM     50  H   UNL     1      88.517  74.947  66.091  1.00  0.00     0.293 HD
ENDBRANCH  46  49
ENDBRANCH  40  41
ENDBRANCH  38  40
ENDBRANCH  37  38
ENDBRANCH   1  37
TORSDOF 11
ENDMDL
MODEL 5
REMARK VINA RESULT:    -6.007     24.864     28.671
REMARK INTER + INTRA:         -11.948
REMARK INTER:                 -11.047
REMARK INTRA:                  -0.902
REMARK UNBOUND:                -1.377
REMARK SMILES C=C(C)[C@]12C[C@@H](C)[C@@]34O[C@](Cc5ccccc5)(O[C@@H]1[C@@H]3C=C(COC(=O)Cc1ccc(O)c(OC)c1)C[C@]1(O)C(=O)C(C)=C[C@@H]41)O2
REMARK SMILES IDX 23 1 22 2 21 3 20 4 9 5 8 6 10 7 6 8 18 9 46 10 19 11 5 12
REMARK SMILES IDX 7 13 4 14 45 15 38 16 44 17 40 18 42 20 41 21 43 22 39 23
REMARK SMILES IDX 11 25 12 26 13 27 17 28 14 29 16 30 15 31 2 32 3 33 1 34
REMARK SMILES IDX 37 35 24 37 25 38 26 39 27 40 28 41 36 42 29 43 33 44 30 45
REMARK SMILES IDX 31 46 34 47 35 48 32 49
REMARK H PARENT 39 24 32 50
REMARK Flexibility Score: 90.00
ROOT
ATOM      1  C   UNL     1      69.568  88.744  68.267  1.00  0.00     0.264 C 
ENDROOT
BRANCH   1   2
ATOM      2  C   UNL     1      71.058  88.983  68.326  1.00  0.00    -0.033 C 
ATOM      3  C   UNL     1      71.897  87.928  68.290  1.00  0.00    -0.015 C 
BRANCH   3   4
ATOM      4  C   UNL     1      73.412  87.895  68.411  1.00  0.00     0.078 C 
ATOM      5  O   UNL     1      74.321  88.028  66.114  1.00  0.00    -0.319 OA
ATOM      6  C   UNL     1      74.263  88.738  67.389  1.00  0.00     0.095 C 
ATOM      7  C   UNL     1      74.539  86.607  66.209  1.00  0.00     0.289 C 
ATOM      8  C   UNL     1      75.727  88.872  67.980  1.00  0.00     0.023 C 
ATOM      9  O   UNL     1      73.532  85.981  66.998  1.00  0.00    -0.320 OA
ATOM     10  O   UNL     1      75.776  86.291  66.842  1.00  0.00    -0.313 OA
ATOM     11  C   UNL     1      73.916  86.435  68.305  1.00  0.00     0.170 C 
ATOM     12  C   UNL     1      76.133  87.605  68.793  1.00  0.00     0.049 C 
ATOM     13  C   UNL     1      76.826  89.196  66.955  1.00  0.00     0.011 C 
ATOM     14  C   UNL     1      75.462  86.344  68.249  1.00  0.00     0.122 C 
BRANCH   6  15
ATOM     15  C   UNL     1      73.551  90.081  67.054  1.00  0.00     0.086 C 
ATOM     16  C   UNL     1      72.918  90.830  68.245  1.00  0.00     0.140 CG0
ATOM     17  C   UNL     1      74.311  91.156  66.329  1.00  0.00    -0.010 C 
ATOM     18  C   UNL     1      73.117  92.281  67.860  1.00  0.00     0.190 C 
ATOM     19  G   UNL     1      71.445  90.472  68.434  1.00  0.00     0.000 G0
ATOM     20  C   UNL     1      74.068  92.405  66.739  1.00  0.00    -0.008 C 
ATOM     21  O   UNL     1      72.609  93.239  68.422  1.00  0.00    -0.291 OA
ATOM     22  C   UNL     1      74.563  93.693  66.211  1.00  0.00     0.048 C 
BRANCH  16  23
ATOM     23  O   UNL     1      73.642  90.699  69.456  1.00  0.00    -0.381 OA
ATOM     24  H   UNL     1      73.852  89.759  69.589  1.00  0.00     0.212 HD
ENDBRANCH  16  23
ENDBRANCH   6  15
BRANCH   7  25
ATOM     25  C   UNL     1      74.526  86.029  64.808  1.00  0.00     0.135 C 
BRANCH  25  26
ATOM     26  C   UNL     1      73.705  84.767  64.725  1.00  0.00    -0.040 A 
ATOM     27  C   UNL     1      72.352  84.835  64.391  1.00  0.00     0.004 A 
ATOM     28  C   UNL     1      74.298  83.531  64.981  1.00  0.00     0.004 A 
ATOM     29  C   UNL     1      71.592  83.668  64.315  1.00  0.00     0.000 A 
ATOM     30  C   UNL     1      73.538  82.363  64.904  1.00  0.00     0.000 A 
ATOM     31  C   UNL     1      72.185  82.432  64.571  1.00  0.00     0.000 A 
ENDBRANCH  25  26
ENDBRANCH   7  25
BRANCH  14  32
ATOM     32  C   UNL     1      75.974  85.096  68.892  1.00  0.00    -0.046 C 
ATOM     33  C   UNL     1      76.447  84.018  67.963  1.00  0.00     0.042 C 
ATOM     34  C   UNL     1      76.009  84.949  70.225  1.00  0.00     0.010 C 
ENDBRANCH  14  32
ENDBRANCH   3   4
BRANCH   2  35
ATOM     35  C   UNL     1      71.422  90.453  68.415  1.00  0.00     0.078 CG0
ATOM     36  G   UNL     1      72.896  90.820  68.242  1.00  0.00     0.000 G0
ENDBRANCH   2  35
ENDBRANCH   1   2
BRANCH   1  37
ATOM     37  O   UNL     1      69.072  88.562  69.576  1.00  0.00    -0.461 OA
BRANCH  37  38
ATOM     38  C   UNL     1      68.630  87.297  69.888  1.00  0.00     0.310 C 
ATOM     39  O   UNL     1      69.238  86.263  69.653  1.00  0.00    -0.252 OA
BRANCH  38  40
ATOM     40  C   UNL     1      67.282  87.387  70.564  1.00  0.00     0.158 C 
BRANCH  40  41
ATOM     41  C   UNL     1      67.326  86.994  72.018  1.00  0.00    -0.033 A 
ATOM     42  C   UNL     1      67.281  87.977  73.008  1.00  0.00     0.054 A 
ATOM     43  C   UNL     1      67.412  85.648  72.375  1.00  0.00     0.008 A 
ATOM     44  C   UNL     1      67.321  87.613  74.354  1.00  0.00     0.160 A 
ATOM     45  C   UNL     1      67.453  85.285  73.721  1.00  0.00     0.050 A 
ATOM     46  C   UNL     1      67.408  86.267  74.711  1.00  0.00     0.157 A 
BRANCH  44  47
ATOM     47  O   UNL     1      67.277  88.582  75.311  1.00  0.00    -0.493 OA
ATOM     48  C   UNL     1      67.388  89.934  74.870  1.00  0.00     0.278 C 
ENDBRANCH  44  47
BRANCH  46  49
ATOM     49  O   UNL     1      67.447  85.900  76.022  1.00  0.00    -0.504 OA
ATOM     50  H   UNL     1      68.042  86.501  76.501  1.00  0.00     0.293 HD
ENDBRANCH  46  49
ENDBRANCH  40  41
ENDBRANCH  38  40
ENDBRANCH  37  38
ENDBRANCH   1  37
TORSDOF 11
ENDMDL
MODEL 6
REMARK VINA RESULT:    -5.848     24.709     27.823
REMARK INTER + INTRA:         -11.669
REMARK INTER:                 -10.439
REMARK INTRA:                  -1.230
REMARK UNBOUND:                -1.377
REMARK SMILES C=C(C)[C@]12C[C@@H](C)[C@@]34O[C@](Cc5ccccc5)(O[C@@H]1[C@@H]3C=C(COC(=O)Cc1ccc(O)c(OC)c1)C[C@]1(O)C(=O)C(C)=C[C@@H]41)O2
REMARK SMILES IDX 23 1 22 2 21 3 20 4 9 5 8 6 10 7 6 8 18 9 46 10 19 11 5 12
REMARK SMILES IDX 7 13 4 14 45 15 38 16 44 17 40 18 42 20 41 21 43 22 39 23
REMARK SMILES IDX 11 25 12 26 13 27 17 28 14 29 16 30 15 31 2 32 3 33 1 34
REMARK SMILES IDX 37 35 24 37 25 38 26 39 27 40 28 41 36 42 29 43 33 44 30 45
REMARK SMILES IDX 31 46 34 47 35 48 32 49
REMARK H PARENT 39 24 32 50
REMARK Flexibility Score: 90.00
ROOT
ATOM      1  C   UNL     1      78.838  96.669  73.726  1.00  0.00     0.264 C 
ENDROOT
BRANCH   1   2
ATOM      2  C   UNL     1      78.392  97.442  72.507  1.00  0.00    -0.033 C 
ATOM      3  C   UNL     1      79.060  98.558  72.153  1.00  0.00    -0.015 C 
BRANCH   3   4
ATOM      4  C   UNL     1      78.768  99.542  71.031  1.00  0.00     0.078 C 
ATOM      5  O   UNL     1      80.067  98.796  69.062  1.00  0.00    -0.319 OA
ATOM      6  C   UNL     1      78.706  98.998  69.555  1.00  0.00     0.095 C 
ATOM      7  C   UNL     1      81.003  99.840  69.389  1.00  0.00     0.289 C 
ATOM      8  C   UNL     1      77.987 100.097  68.669  1.00  0.00     0.023 C 
ATOM      9  O   UNL     1      81.087 100.038  70.798  1.00  0.00    -0.320 OA
ATOM     10  O   UNL     1      80.618 101.101  68.846  1.00  0.00    -0.313 OA
ATOM     11  C   UNL     1      79.823 100.676  71.039  1.00  0.00     0.170 C 
ATOM     12  C   UNL     1      78.302 101.538  69.178  1.00  0.00     0.049 C 
ATOM     13  C   UNL     1      78.267 100.015  67.160  1.00  0.00     0.011 C 
ATOM     14  C   UNL     1      79.688 101.621  69.819  1.00  0.00     0.122 C 
BRANCH   6  15
ATOM     15  C   UNL     1      78.064  97.581  69.516  1.00  0.00     0.086 C 
ATOM     16  C   UNL     1      76.822  97.373  70.408  1.00  0.00     0.140 CG0
ATOM     17  C   UNL     1      77.647  96.998  68.195  1.00  0.00    -0.010 C 
ATOM     18  C   UNL     1      75.992  96.406  69.590  1.00  0.00     0.190 C 
ATOM     19  G   UNL     1      77.187  96.814  71.782  1.00  0.00     0.000 G0
ATOM     20  C   UNL     1      76.502  96.309  68.209  1.00  0.00    -0.008 C 
ATOM     21  O   UNL     1      74.999  95.815  69.986  1.00  0.00    -0.291 OA
ATOM     22  C   UNL     1      75.839  95.542  67.134  1.00  0.00     0.048 C 
BRANCH  16  23
ATOM     23  O   UNL     1      75.996  98.520  70.518  1.00  0.00    -0.381 OA
ATOM     24  H   UNL     1      75.536  98.649  69.672  1.00  0.00     0.212 HD
ENDBRANCH  16  23
ENDBRANCH   6  15
BRANCH   7  25
ATOM     25  C   UNL     1      82.362  99.449  68.844  1.00  0.00     0.135 C 
BRANCH  25  26
ATOM     26  C   UNL     1      83.269 100.643  68.677  1.00  0.00    -0.040 A 
ATOM     27  C   UNL     1      83.930 101.176  69.784  1.00  0.00     0.004 A 
ATOM     28  C   UNL     1      83.448 101.212  67.417  1.00  0.00     0.004 A 
ATOM     29  C   UNL     1      84.769 102.280  69.630  1.00  0.00     0.000 A 
ATOM     30  C   UNL     1      84.287 102.316  67.262  1.00  0.00     0.000 A 
ATOM     31  C   UNL     1      84.947 102.849  68.369  1.00  0.00     0.000 A 
ENDBRANCH  25  26
ENDBRANCH   7  25
BRANCH  14  32
ATOM     32  C   UNL     1      80.085 103.022  70.148  1.00  0.00    -0.046 C 
ATOM     33  C   UNL     1      79.692 103.521  71.506  1.00  0.00     0.042 C 
ATOM     34  C   UNL     1      80.756 103.792  69.278  1.00  0.00     0.010 C 
ENDBRANCH  14  32
ENDBRANCH   3   4
BRANCH   2  35
ATOM     35  C   UNL     1      77.197  96.818  71.811  1.00  0.00     0.078 CG0
ATOM     36  G   UNL     1      76.833  97.356  70.428  1.00  0.00     0.000 G0
ENDBRANCH   2  35
ENDBRANCH   1   2
BRANCH   1  37
ATOM     37  O   UNL     1      77.734  95.981  74.273  1.00  0.00    -0.461 OA
BRANCH  37  38
ATOM     38  C   UNL     1      77.936  94.658  74.588  1.00  0.00     0.310 C 
ATOM     39  O   UNL     1      78.199  93.776  73.782  1.00  0.00    -0.252 OA
BRANCH  38  40
ATOM     40  C   UNL     1      77.784  94.465  76.079  1.00  0.00     0.158 C 
BRANCH  40  41
ATOM     41  C   UNL     1      76.369  94.665  76.556  1.00  0.00    -0.033 A 
ATOM     42  C   UNL     1      75.336  93.897  76.017  1.00  0.00     0.054 A 
ATOM     43  C   UNL     1      76.092  95.618  77.536  1.00  0.00     0.008 A 
ATOM     44  C   UNL     1      74.026  94.082  76.459  1.00  0.00     0.160 A 
ATOM     45  C   UNL     1      74.781  95.803  77.978  1.00  0.00     0.050 A 
ATOM     46  C   UNL     1      73.749  95.036  77.440  1.00  0.00     0.157 A 
BRANCH  44  47
ATOM     47  O   UNL     1      73.026  93.327  75.926  1.00  0.00    -0.493 OA
ATOM     48  C   UNL     1      73.413  92.187  75.160  1.00  0.00     0.278 C 
ENDBRANCH  44  47
BRANCH  46  49
ATOM     49  O   UNL     1      72.474  95.225  77.880  1.00  0.00    -0.504 OA
ATOM     50  H   UNL     1      72.294  94.604  78.605  1.00  0.00     0.293 HD
ENDBRANCH  46  49
ENDBRANCH  40  41
ENDBRANCH  38  40
ENDBRANCH  37  38
ENDBRANCH   1  37
TORSDOF 11
ENDMDL
MODEL 7
REMARK VINA RESULT:    -5.780      2.216      3.144
REMARK INTER + INTRA:         -11.549
REMARK INTER:                 -10.701
REMARK INTRA:                  -0.848
REMARK UNBOUND:                -1.377
REMARK SMILES C=C(C)[C@]12C[C@@H](C)[C@@]34O[C@](Cc5ccccc5)(O[C@@H]1[C@@H]3C=C(COC(=O)Cc1ccc(O)c(OC)c1)C[C@]1(O)C(=O)C(C)=C[C@@H]41)O2
REMARK SMILES IDX 23 1 22 2 21 3 20 4 9 5 8 6 10 7 6 8 18 9 46 10 19 11 5 12
REMARK SMILES IDX 7 13 4 14 45 15 38 16 44 17 40 18 42 20 41 21 43 22 39 23
REMARK SMILES IDX 11 25 12 26 13 27 17 28 14 29 16 30 15 31 2 32 3 33 1 34
REMARK SMILES IDX 37 35 24 37 25 38 26 39 27 40 28 41 36 42 29 43 33 44 30 45
REMARK SMILES IDX 31 46 34 47 35 48 32 49
REMARK H PARENT 39 24 32 50
REMARK Flexibility Score: 90.00
ROOT
ATOM      1  C   UNL     1      95.704  77.293  82.576  1.00  0.00     0.264 C 
ENDROOT
BRANCH   1   2
ATOM      2  C   UNL     1      96.578  78.514  82.411  1.00  0.00    -0.033 C 
ATOM      3  C   UNL     1      97.484  78.547  81.413  1.00  0.00    -0.015 C 
BRANCH   3   4
ATOM      4  C   UNL     1      98.520  79.610  81.085  1.00  0.00     0.078 C 
ATOM      5  O   UNL     1      97.470  81.168  79.476  1.00  0.00    -0.319 OA
ATOM      6  C   UNL     1      98.027  81.082  80.824  1.00  0.00     0.095 C 
ATOM      7  C   UNL     1      98.222  80.486  78.454  1.00  0.00     0.289 C 
ATOM      8  C   UNL     1      99.287  82.036  80.932  1.00  0.00     0.023 C 
ATOM      9  O   UNL     1      98.376  79.103  78.761  1.00  0.00    -0.320 OA
ATOM     10  O   UNL     1      99.544  81.001  78.321  1.00  0.00    -0.313 OA
ATOM     11  C   UNL     1      99.328  79.188  79.833  1.00  0.00     0.170 C 
ATOM     12  C   UNL     1     100.584  81.328  80.435  1.00  0.00     0.049 C 
ATOM     13  C   UNL     1      99.146  83.397  80.231  1.00  0.00     0.011 C 
ATOM     14  C   UNL     1     100.286  80.302  79.342  1.00  0.00     0.122 C 
BRANCH   6  15
ATOM     15  C   UNL     1      96.835  81.438  81.760  1.00  0.00     0.086 C 
ATOM     16  C   UNL     1      96.951  80.956  83.221  1.00  0.00     0.140 CG0
ATOM     17  C   UNL     1      96.411  82.873  81.897  1.00  0.00    -0.010 C 
ATOM     18  C   UNL     1      96.258  82.065  83.985  1.00  0.00     0.190 C 
ATOM     19  G   UNL     1      96.288  79.596  83.434  1.00  0.00     0.000 G0
ATOM     20  C   UNL     1      96.054  83.249  83.130  1.00  0.00    -0.008 C 
ATOM     21  O   UNL     1      95.948  82.024  85.166  1.00  0.00    -0.291 OA
ATOM     22  C   UNL     1      95.513  84.536  83.613  1.00  0.00     0.048 C 
BRANCH  16  23
ATOM     23  O   UNL     1      98.275  80.972  83.728  1.00  0.00    -0.381 OA
ATOM     24  H   UNL     1      98.299  80.440  84.540  1.00  0.00     0.212 HD
ENDBRANCH  16  23
ENDBRANCH   6  15
BRANCH   7  25
ATOM     25  C   UNL     1      97.484  80.639  77.139  1.00  0.00     0.135 C 
BRANCH  25  26
ATOM     26  C   UNL     1      97.532  82.057  76.626  1.00  0.00    -0.040 A 
ATOM     27  C   UNL     1      98.279  82.361  75.487  1.00  0.00     0.004 A 
ATOM     28  C   UNL     1      96.830  83.063  77.288  1.00  0.00     0.004 A 
ATOM     29  C   UNL     1      98.324  83.672  75.011  1.00  0.00     0.000 A 
ATOM     30  C   UNL     1      96.875  84.374  76.813  1.00  0.00     0.000 A 
ATOM     31  C   UNL     1      97.622  84.678  75.674  1.00  0.00     0.000 A 
ENDBRANCH  25  26
ENDBRANCH   7  25
BRANCH  14  32
ATOM     32  C   UNL     1     101.526  79.744  78.724  1.00  0.00    -0.046 C 
ATOM     33  C   UNL     1     102.618  80.728  78.425  1.00  0.00     0.042 C 
ATOM     34  C   UNL     1     101.657  78.437  78.451  1.00  0.00     0.010 C 
ENDBRANCH  14  32
ENDBRANCH   3   4
BRANCH   2  35
ATOM     35  C   UNL     1      96.295  79.591  83.441  1.00  0.00     0.078 CG0
ATOM     36  G   UNL     1      96.960  80.951  83.231  1.00  0.00     0.000 G0
ENDBRANCH   2  35
ENDBRANCH   1   2
BRANCH   1  37
ATOM     37  O   UNL     1      95.413  77.108  83.944  1.00  0.00    -0.461 OA
BRANCH  37  38
ATOM     38  C   UNL     1      94.353  76.280  84.234  1.00  0.00     0.310 C 
ATOM     39  O   UNL     1      94.451  75.147  84.684  1.00  0.00    -0.252 OA
BRANCH  38  40
ATOM     40  C   UNL     1      93.058  76.986  83.911  1.00  0.00     0.158 C 
BRANCH  40  41
ATOM     41  C   UNL     1      91.963  76.041  83.488  1.00  0.00    -0.033 A 
ATOM     42  C   UNL     1      91.919  75.569  82.175  1.00  0.00     0.054 A 
ATOM     43  C   UNL     1      90.994  75.639  84.407  1.00  0.00     0.008 A 
ATOM     44  C   UNL     1      90.905  74.694  81.783  1.00  0.00     0.160 A 
ATOM     45  C   UNL     1      89.981  74.764  84.014  1.00  0.00     0.050 A 
ATOM     46  C   UNL     1      89.936  74.292  82.703  1.00  0.00     0.157 A 
BRANCH  44  47
ATOM     47  O   UNL     1      90.872  74.240  80.499  1.00  0.00    -0.493 OA
ATOM     48  C   UNL     1      91.958  73.417  80.074  1.00  0.00     0.278 C 
ENDBRANCH  44  47
BRANCH  46  49
ATOM     49  O   UNL     1      88.943  73.437  82.332  1.00  0.00    -0.504 OA
ATOM     50  H   UNL     1      88.343  73.896  81.719  1.00  0.00     0.293 HD
ENDBRANCH  46  49
ENDBRANCH  40  41
ENDBRANCH  38  40
ENDBRANCH  37  38
ENDBRANCH   1  37
TORSDOF 11
ENDMDL
MODEL 8
REMARK VINA RESULT:    -5.685     24.788     28.737
REMARK INTER + INTRA:         -11.383
REMARK INTER:                 -10.616
REMARK INTRA:                  -0.766
REMARK UNBOUND:                -1.377
REMARK SMILES C=C(C)[C@]12C[C@@H](C)[C@@]34O[C@](Cc5ccccc5)(O[C@@H]1[C@@H]3C=C(COC(=O)Cc1ccc(O)c(OC)c1)C[C@]1(O)C(=O)C(C)=C[C@@H]41)O2
REMARK SMILES IDX 23 1 22 2 21 3 20 4 9 5 8 6 10 7 6 8 18 9 46 10 19 11 5 12
REMARK SMILES IDX 7 13 4 14 45 15 38 16 44 17 40 18 42 20 41 21 43 22 39 23
REMARK SMILES IDX 11 25 12 26 13 27 17 28 14 29 16 30 15 31 2 32 3 33 1 34
REMARK SMILES IDX 37 35 24 37 25 38 26 39 27 40 28 41 36 42 29 43 33 44 30 45
REMARK SMILES IDX 31 46 34 47 35 48 32 49
REMARK H PARENT 39 24 32 50
REMARK Flexibility Score: 90.00
ROOT
ATOM      1  C   UNL     1      70.038  88.360  69.237  1.00  0.00     0.264 C 
ENDROOT
BRANCH   1   2
ATOM      2  C   UNL     1      71.494  88.727  69.069  1.00  0.00    -0.033 C 
ATOM      3  C   UNL     1      72.383  87.765  68.748  1.00  0.00    -0.015 C 
BRANCH   3   4
ATOM      4  C   UNL     1      73.893  87.858  68.599  1.00  0.00     0.078 C 
ATOM      5  O   UNL     1      74.353  88.377  66.224  1.00  0.00    -0.319 OA
ATOM      6  C   UNL     1      74.482  88.904  67.581  1.00  0.00     0.095 C 
ATOM      7  C   UNL     1      74.681  86.983  66.071  1.00  0.00     0.289 C 
ATOM      8  C   UNL     1      76.018  89.095  67.924  1.00  0.00     0.023 C 
ATOM      9  O   UNL     1      73.881  86.166  66.922  1.00  0.00    -0.320 OA
ATOM     10  O   UNL     1      76.032  86.703  66.428  1.00  0.00    -0.313 OA
ATOM     11  C   UNL     1      74.468  86.478  68.195  1.00  0.00     0.170 C 
ATOM     12  C   UNL     1      76.652  87.775  68.460  1.00  0.00     0.049 C 
ATOM     13  C   UNL     1      76.884  89.652  66.783  1.00  0.00     0.011 C 
ATOM     14  C   UNL     1      75.979  86.539  67.860  1.00  0.00     0.122 C 
BRANCH   6  15
ATOM     15  C   UNL     1      73.632  90.207  67.574  1.00  0.00     0.086 C 
ATOM     16  C   UNL     1      73.163  90.721  68.952  1.00  0.00     0.140 CG0
ATOM     17  C   UNL     1      74.177  91.439  66.909  1.00  0.00    -0.010 C 
ATOM     18  C   UNL     1      73.191  92.223  68.766  1.00  0.00     0.190 C 
ATOM     19  G   UNL     1      71.774  90.202  69.319  1.00  0.00     0.000 G0
ATOM     20  C   UNL     1      73.923  92.591  67.539  1.00  0.00    -0.008 C 
ATOM     21  O   UNL     1      72.722  93.041  69.543  1.00  0.00    -0.291 OA
ATOM     22  C   UNL     1      74.227  93.981  67.141  1.00  0.00     0.048 C 
BRANCH  16  23
ATOM     23  O   UNL     1      74.094  90.491  69.996  1.00  0.00    -0.381 OA
ATOM     24  H   UNL     1      73.718  89.834  70.605  1.00  0.00     0.212 HD
ENDBRANCH  16  23
ENDBRANCH   6  15
BRANCH   7  25
ATOM     25  C   UNL     1      74.450  86.596  64.624  1.00  0.00     0.135 C 
BRANCH  25  26
ATOM     26  C   UNL     1      74.891  85.182  64.339  1.00  0.00    -0.040 A 
ATOM     27  C   UNL     1      75.844  84.935  63.350  1.00  0.00     0.004 A 
ATOM     28  C   UNL     1      74.349  84.122  65.065  1.00  0.00     0.004 A 
ATOM     29  C   UNL     1      76.253  83.627  63.087  1.00  0.00     0.000 A 
ATOM     30  C   UNL     1      74.757  82.814  64.801  1.00  0.00     0.000 A 
ATOM     31  C   UNL     1      75.709  82.568  63.812  1.00  0.00     0.000 A 
ENDBRANCH  25  26
ENDBRANCH   7  25
BRANCH  14  32
ATOM     32  C   UNL     1      76.685  85.272  68.216  1.00  0.00    -0.046 C 
ATOM     33  C   UNL     1      76.263  84.616  69.497  1.00  0.00     0.042 C 
ATOM     34  C   UNL     1      77.641  84.749  67.434  1.00  0.00     0.010 C 
ENDBRANCH  14  32
ENDBRANCH   3   4
BRANCH   2  35
ATOM     35  C   UNL     1      71.766  90.203  69.290  1.00  0.00     0.078 CG0
ATOM     36  G   UNL     1      73.164  90.715  68.949  1.00  0.00     0.000 G0
ENDBRANCH   2  35
ENDBRANCH   1   2
BRANCH   1  37
ATOM     37  O   UNL     1      69.888  87.564  70.393  1.00  0.00    -0.461 OA
BRANCH  37  38
ATOM     38  C   UNL     1      68.673  86.937  70.546  1.00  0.00     0.310 C 
ATOM     39  O   UNL     1      67.643  87.482  70.921  1.00  0.00    -0.252 OA
BRANCH  38  40
ATOM     40  C   UNL     1      68.808  85.478  70.180  1.00  0.00     0.158 C 
BRANCH  40  41
ATOM     41  C   UNL     1      67.796  85.032  69.156  1.00  0.00    -0.033 A 
ATOM     42  C   UNL     1      67.170  83.791  69.289  1.00  0.00     0.054 A 
ATOM     43  C   UNL     1      67.483  85.858  68.078  1.00  0.00     0.008 A 
ATOM     44  C   UNL     1      66.233  83.378  68.342  1.00  0.00     0.160 A 
ATOM     45  C   UNL     1      66.546  85.445  67.130  1.00  0.00     0.050 A 
ATOM     46  C   UNL     1      65.921  84.206  67.262  1.00  0.00     0.157 A 
BRANCH  44  47
ATOM     47  O   UNL     1      65.630  82.165  68.481  1.00  0.00    -0.493 OA
ATOM     48  C   UNL     1      64.429  82.123  69.251  1.00  0.00     0.278 C 
ENDBRANCH  44  47
BRANCH  46  49
ATOM     49  O   UNL     1      65.007  83.813  66.332  1.00  0.00    -0.504 OA
ATOM     50  H   UNL     1      65.021  84.442  65.590  1.00  0.00     0.293 HD
ENDBRANCH  46  49
ENDBRANCH  40  41
ENDBRANCH  38  40
ENDBRANCH  37  38
ENDBRANCH   1  37
TORSDOF 11
ENDMDL
MODEL 9
REMARK VINA RESULT:    -5.674      9.887     15.935
REMARK INTER + INTRA:         -11.363
REMARK INTER:                 -10.113
REMARK INTRA:                  -1.251
REMARK UNBOUND:                -1.377
REMARK SMILES C=C(C)[C@]12C[C@@H](C)[C@@]34O[C@](Cc5ccccc5)(O[C@@H]1[C@@H]3C=C(COC(=O)Cc1ccc(O)c(OC)c1)C[C@]1(O)C(=O)C(C)=C[C@@H]41)O2
REMARK SMILES IDX 23 1 22 2 21 3 20 4 9 5 8 6 10 7 6 8 18 9 46 10 19 11 5 12
REMARK SMILES IDX 7 13 4 14 45 15 38 16 44 17 40 18 42 20 41 21 43 22 39 23
REMARK SMILES IDX 11 25 12 26 13 27 17 28 14 29 16 30 15 31 2 32 3 33 1 34
REMARK SMILES IDX 37 35 24 37 25 38 26 39 27 40 28 41 36 42 29 43 33 44 30 45
REMARK SMILES IDX 31 46 34 47 35 48 32 49
REMARK H PARENT 39 24 32 50
REMARK Flexibility Score: 90.00
ROOT
ATOM      1  C   UNL     1     100.902  85.464  65.985  1.00  0.00     0.264 C 
ENDROOT
BRANCH   1   2
ATOM      2  C   UNL     1     101.556  84.648  67.075  1.00  0.00    -0.033 C 
ATOM      3  C   UNL     1     101.542  85.108  68.342  1.00  0.00    -0.015 C 
BRANCH   3   4
ATOM      4  C   UNL     1     102.187  84.524  69.588  1.00  0.00     0.078 C 
ATOM      5  O   UNL     1     100.491  83.083  70.668  1.00  0.00    -0.319 OA
ATOM      6  C   UNL     1     101.798  83.059  70.015  1.00  0.00     0.095 C 
ATOM      7  C   UNL     1     100.284  84.165  71.595  1.00  0.00     0.289 C 
ATOM      8  C   UNL     1     102.889  82.555  71.047  1.00  0.00     0.023 C 
ATOM      9  O   UNL     1     100.465  85.429  70.963  1.00  0.00    -0.320 OA
ATOM     10  O   UNL     1     101.214  84.138  72.675  1.00  0.00    -0.313 OA
ATOM     11  C   UNL     1     101.893  85.431  70.808  1.00  0.00     0.170 C 
ATOM     12  C   UNL     1     103.433  83.726  71.922  1.00  0.00     0.049 C 
ATOM     13  C   UNL     1     102.450  81.397  71.959  1.00  0.00     0.011 C 
ATOM     14  C   UNL     1     102.375  84.808  72.141  1.00  0.00     0.122 C 
BRANCH   6  15
ATOM     15  C   UNL     1     101.592  82.156  68.765  1.00  0.00     0.086 C 
ATOM     16  C   UNL     1     102.623  82.322  67.629  1.00  0.00     0.140 CG0
ATOM     17  C   UNL     1     101.501  80.666  68.940  1.00  0.00    -0.010 C 
ATOM     18  C   UNL     1     102.732  80.915  67.080  1.00  0.00     0.190 C 
ATOM     19  G   UNL     1     102.163  83.328  66.575  1.00  0.00     0.000 G0
ATOM     20  C   UNL     1     102.108  79.940  67.994  1.00  0.00    -0.008 C 
ATOM     21  O   UNL     1     103.301  80.601  66.045  1.00  0.00    -0.291 OA
ATOM     22  C   UNL     1     102.153  78.477  67.801  1.00  0.00     0.048 C 
BRANCH  16  23
ATOM     23  O   UNL     1     103.935  82.611  68.082  1.00  0.00    -0.381 OA
ATOM     24  H   UNL     1     104.540  82.560  67.324  1.00  0.00     0.212 HD
ENDBRANCH  16  23
ENDBRANCH   6  15
BRANCH   7  25
ATOM     25  C   UNL     1      98.874  84.062  72.140  1.00  0.00     0.135 C 
BRANCH  25  26
ATOM     26  C   UNL     1      98.855  83.608  73.578  1.00  0.00    -0.040 A 
ATOM     27  C   UNL     1      98.315  84.436  74.563  1.00  0.00     0.004 A 
ATOM     28  C   UNL     1      99.375  82.362  73.924  1.00  0.00     0.004 A 
ATOM     29  C   UNL     1      98.297  84.017  75.894  1.00  0.00     0.000 A 
ATOM     30  C   UNL     1      99.358  81.942  75.254  1.00  0.00     0.000 A 
ATOM     31  C   UNL     1      98.818  82.770  76.239  1.00  0.00     0.000 A 
ENDBRANCH  25  26
ENDBRANCH   7  25
BRANCH  14  32
ATOM     32  C   UNL     1     102.810  85.847  73.122  1.00  0.00    -0.046 C 
ATOM     33  C   UNL     1     102.037  85.913  74.405  1.00  0.00     0.042 C 
ATOM     34  C   UNL     1     103.835  86.675  72.870  1.00  0.00     0.010 C 
ENDBRANCH  14  32
ENDBRANCH   3   4
BRANCH   2  35
ATOM     35  C   UNL     1     102.162  83.353  66.566  1.00  0.00     0.078 CG0
ATOM     36  G   UNL     1     102.611  82.334  67.612  1.00  0.00     0.000 G0
ENDBRANCH   2  35
ENDBRANCH   1   2
BRANCH   1  37
ATOM     37  O   UNL     1     101.847  86.362  65.443  1.00  0.00    -0.461 OA
BRANCH  37  38
ATOM     38  C   UNL     1     101.363  87.585  65.041  1.00  0.00     0.310 C 
ATOM     39  O   UNL     1     101.389  88.008  63.894  1.00  0.00    -0.252 OA
BRANCH  38  40
ATOM     40  C   UNL     1     100.800  88.321  66.234  1.00  0.00     0.158 C 
BRANCH  40  41
ATOM     41  C   UNL     1      99.413  88.860  65.990  1.00  0.00    -0.033 A 
ATOM     42  C   UNL     1      98.298  88.083  66.307  1.00  0.00     0.054 A 
ATOM     43  C   UNL     1      99.245  90.135  65.450  1.00  0.00     0.008 A 
ATOM     44  C   UNL     1      97.015  88.582  66.081  1.00  0.00     0.160 A 
ATOM     45  C   UNL     1      97.961  90.633  65.225  1.00  0.00     0.050 A 
ATOM     46  C   UNL     1      96.847  89.857  65.540  1.00  0.00     0.157 A 
BRANCH  44  47
ATOM     47  O   UNL     1      95.934  87.814  66.393  1.00  0.00    -0.493 OA
ATOM     48  C   UNL     1      95.613  87.677  67.777  1.00  0.00     0.278 C 
ENDBRANCH  44  47
BRANCH  46  49
ATOM     49  O   UNL     1      95.599  90.355  65.317  1.00  0.00    -0.504 OA
ATOM     50  H   UNL     1      95.613  90.895  64.509  1.00  0.00     0.293 HD
ENDBRANCH  46  49
ENDBRANCH  40  41
ENDBRANCH  38  40
ENDBRANCH  37  38
ENDBRANCH   1  37
TORSDOF 11
ENDMDL
MODEL 10
REMARK VINA RESULT:    -5.545     13.880     17.475
REMARK INTER + INTRA:         -11.136
REMARK INTER:                 -10.404
REMARK INTRA:                  -0.732
REMARK UNBOUND:                -1.377
REMARK SMILES C=C(C)[C@]12C[C@@H](C)[C@@]34O[C@](Cc5ccccc5)(O[C@@H]1[C@@H]3C=C(COC(=O)Cc1ccc(O)c(OC)c1)C[C@]1(O)C(=O)C(C)=C[C@@H]41)O2
REMARK SMILES IDX 23 1 22 2 21 3 20 4 9 5 8 6 10 7 6 8 18 9 46 10 19 11 5 12
REMARK SMILES IDX 7 13 4 14 45 15 38 16 44 17 40 18 42 20 41 21 43 22 39 23
REMARK SMILES IDX 11 25 12 26 13 27 17 28 14 29 16 30 15 31 2 32 3 33 1 34
REMARK SMILES IDX 37 35 24 37 25 38 26 39 27 40 28 41 36 42 29 43 33 44 30 45
REMARK SMILES IDX 31 46 34 47 35 48 32 49
REMARK H PARENT 39 24 32 50
REMARK Flexibility Score: 90.00
ROOT
ATOM      1  C   UNL     1      88.102  70.132  77.187  1.00  0.00     0.264 C 
ENDROOT
BRANCH   1   2
ATOM      2  C   UNL     1      88.120  69.361  75.888  1.00  0.00    -0.033 C 
ATOM      3  C   UNL     1      87.325  68.281  75.751  1.00  0.00    -0.015 C 
BRANCH   3   4
ATOM      4  C   UNL     1      87.215  67.305  74.591  1.00  0.00     0.078 C 
ATOM      5  O   UNL     1      85.424  68.146  73.107  1.00  0.00    -0.319 OA
ATOM      6  C   UNL     1      86.858  67.871  73.166  1.00  0.00     0.095 C 
ATOM      7  C   UNL     1      84.579  67.141  73.697  1.00  0.00     0.289 C 
ATOM      8  C   UNL     1      87.221  66.755  72.102  1.00  0.00     0.023 C 
ATOM      9  O   UNL     1      84.912  66.924  75.066  1.00  0.00    -0.320 OA
ATOM     10  O   UNL     1      84.719  65.874  73.061  1.00  0.00    -0.313 OA
ATOM     11  C   UNL     1      86.156  66.222  74.913  1.00  0.00     0.170 C 
ATOM     12  C   UNL     1      87.001  65.322  72.678  1.00  0.00     0.049 C 
ATOM     13  C   UNL     1      86.505  66.877  70.747  1.00  0.00     0.011 C 
ATOM     14  C   UNL     1      85.870  65.294  73.707  1.00  0.00     0.122 C 
BRANCH   6  15
ATOM     15  C   UNL     1      87.530  69.256  72.939  1.00  0.00     0.086 C 
ATOM     16  C   UNL     1      88.988  69.393  73.424  1.00  0.00     0.140 CG0
ATOM     17  C   UNL     1      87.566  69.838  71.554  1.00  0.00    -0.010 C 
ATOM     18  C   UNL     1      89.586  70.331  72.398  1.00  0.00     0.190 C 
ATOM     19  G   UNL     1      89.073  69.949  74.845  1.00  0.00     0.000 G0
ATOM     20  C   UNL     1      88.698  70.473  71.229  1.00  0.00    -0.008 C 
ATOM     21  O   UNL     1      90.680  70.869  72.482  1.00  0.00    -0.291 OA
ATOM     22  C   UNL     1      89.050  71.223  70.006  1.00  0.00     0.048 C 
BRANCH  16  23
ATOM     23  O   UNL     1      89.752  68.207  73.286  1.00  0.00    -0.381 OA
ATOM     24  H   UNL     1      90.455  68.369  72.635  1.00  0.00     0.212 HD
ENDBRANCH  16  23
ENDBRANCH   6  15
BRANCH   7  25
ATOM     25  C   UNL     1      83.140  67.606  73.588  1.00  0.00     0.135 C 
BRANCH  25  26
ATOM     26  C   UNL     1      82.364  66.808  72.571  1.00  0.00    -0.040 A 
ATOM     27  C   UNL     1      81.265  66.048  72.972  1.00  0.00     0.004 A 
ATOM     28  C   UNL     1      82.743  66.832  71.229  1.00  0.00     0.004 A 
ATOM     29  C   UNL     1      80.547  65.309  72.031  1.00  0.00     0.000 A 
ATOM     30  C   UNL     1      82.024  66.094  70.288  1.00  0.00     0.000 A 
ATOM     31  C   UNL     1      80.926  65.333  70.689  1.00  0.00     0.000 A 
ENDBRANCH  25  26
ENDBRANCH   7  25
BRANCH  14  32
ATOM     32  C   UNL     1      85.520  63.907  74.136  1.00  0.00    -0.046 C 
ATOM     33  C   UNL     1      86.673  62.996  74.438  1.00  0.00     0.042 C 
ATOM     34  C   UNL     1      84.247  63.498  74.246  1.00  0.00     0.010 C 
ENDBRANCH  14  32
ENDBRANCH   3   4
BRANCH   2  35
ATOM     35  C   UNL     1      89.076  69.944  74.864  1.00  0.00     0.078 CG0
ATOM     36  G   UNL     1      88.995  69.395  73.440  1.00  0.00     0.000 G0
ENDBRANCH   2  35
ENDBRANCH   1   2
BRANCH   1  37
ATOM     37  O   UNL     1      89.356  70.750  77.382  1.00  0.00    -0.461 OA
BRANCH  37  38
ATOM     38  C   UNL     1      89.607  71.234  78.644  1.00  0.00     0.310 C 
ATOM     39  O   UNL     1      90.657  71.749  79.004  1.00  0.00    -0.252 OA
BRANCH  38  40
ATOM     40  C   UNL     1      88.388  71.030  79.514  1.00  0.00     0.158 C 
BRANCH  40  41
ATOM     41  C   UNL     1      88.726  70.516  80.889  1.00  0.00    -0.033 A 
ATOM     42  C   UNL     1      89.196  71.394  81.866  1.00  0.00     0.054 A 
ATOM     43  C   UNL     1      88.570  69.162  81.186  1.00  0.00     0.008 A 
ATOM     44  C   UNL     1      89.509  70.918  83.140  1.00  0.00     0.160 A 
ATOM     45  C   UNL     1      88.883  68.686  82.459  1.00  0.00     0.050 A 
ATOM     46  C   UNL     1      89.353  69.563  83.436  1.00  0.00     0.157 A 
BRANCH  44  47
ATOM     47  O   UNL     1      89.967  71.785  84.085  1.00  0.00    -0.493 OA
ATOM     48  C   UNL     1      90.301  73.102  83.650  1.00  0.00     0.278 C 
ENDBRANCH  44  47
BRANCH  46  49
ATOM     49  O   UNL     1      89.654  69.087  84.676  1.00  0.00    -0.504 OA
ATOM     50  H   UNL     1      88.834  68.800  85.113  1.00  0.00     0.293 HD
ENDBRANCH  46  49
ENDBRANCH  40  41
ENDBRANCH  38  40
ENDBRANCH  37  38
ENDBRANCH   1  37
TORSDOF 11
ENDMDL
