MODEL 1
REMARK VINA RESULT:    -7.101      0.000      0.000
REMARK INTER + INTRA:         -13.490
REMARK INTER:                 -12.498
REMARK INTRA:                  -0.992
REMARK UNBOUND:                -0.992
REMARK SMILES C=C(C)[C@]12C[C@@H](C)[C@@]34O[C@](Cc5ccccc5)(O[C@@H]1[C@@H]3C=C(COC(=O)Cc1ccc(O)c(OC)c1)C[C@]1(O)C(=O)C(C)=C[C@@H]41)O2
REMARK SMILES IDX 23 1 22 2 21 3 20 4 9 5 8 6 10 7 6 8 18 9 46 10 19 11 5 12
REMARK SMILES IDX 7 13 4 14 45 15 38 16 44 17 40 18 42 20 41 21 43 22 39 23
REMARK SMILES IDX 11 25 12 26 13 27 17 28 14 29 16 30 15 31 2 32 3 33 1 34
REMARK SMILES IDX 37 35 24 37 25 38 26 39 27 40 28 41 36 42 29 43 33 44 30 45
REMARK SMILES IDX 31 46 34 47 35 48 32 49
REMARK H PARENT 39 24 32 50
REMARK Flexibility Score: 90.00
ROOT
ATOM      1  C   UNL     1      94.451  86.791  87.989  1.00  0.00     0.264 C 
ENDROOT
BRANCH   1   2
ATOM      2  C   UNL     1      94.255  85.492  87.244  1.00  0.00    -0.033 C 
ATOM      3  C   UNL     1      95.311  84.915  86.635  1.00  0.00    -0.015 C 
BRANCH   3   4
ATOM      4  C   UNL     1      95.362  83.667  85.769  1.00  0.00     0.078 C 
ATOM      5  O   UNL     1      95.880  81.770  87.269  1.00  0.00    -0.319 OA
ATOM      6  C   UNL     1      94.853  82.309  86.381  1.00  0.00     0.095 C 
ATOM      7  C   UNL     1      97.230  81.856  86.775  1.00  0.00     0.289 C 
ATOM      8  C   UNL     1      94.615  81.301  85.182  1.00  0.00     0.023 C 
ATOM      9  O   UNL     1      97.587  83.205  86.482  1.00  0.00    -0.320 OA
ATOM     10  O   UNL     1      97.407  81.138  85.557  1.00  0.00    -0.313 OA
ATOM     11  C   UNL     1      96.814  83.418  85.291  1.00  0.00     0.170 C 
ATOM     12  C   UNL     1      95.632  81.541  84.024  1.00  0.00     0.049 C 
ATOM     13  C   UNL     1      94.616  79.811  85.562  1.00  0.00     0.011 C 
ATOM     14  C   UNL     1      96.969  82.069  84.545  1.00  0.00     0.122 C 
BRANCH   6  15
ATOM     15  C   UNL     1      93.625  82.548  87.308  1.00  0.00     0.086 C 
ATOM     16  C   UNL     1      92.561  83.535  86.785  1.00  0.00     0.140 CG0
ATOM     17  C   UNL     1      92.813  81.371  87.771  1.00  0.00    -0.010 C 
ATOM     18  C   UNL     1      91.275  82.943  87.323  1.00  0.00     0.190 C 
ATOM     19  G   UNL     1      92.802  84.959  87.282  1.00  0.00     0.000 G0
ATOM     20  C   UNL     1      91.491  81.570  87.818  1.00  0.00    -0.008 C 
ATOM     21  O   UNL     1      90.183  83.491  87.311  1.00  0.00    -0.291 OA
ATOM     22  C   UNL     1      90.411  80.682  88.294  1.00  0.00     0.048 C 
BRANCH  16  23
ATOM     23  O   UNL     1      92.387  83.500  85.378  1.00  0.00    -0.381 OA
ATOM     24  H   UNL     1      92.885  82.744  85.026  1.00  0.00     0.212 HD
ENDBRANCH  16  23
ENDBRANCH   6  15
BRANCH   7  25
ATOM     25  C   UNL     1      98.161  81.298  87.832  1.00  0.00     0.135 C 
BRANCH  25  26
ATOM     26  C   UNL     1      99.595  81.275  87.367  1.00  0.00    -0.040 A 
ATOM     27  C   UNL     1     100.347  82.450  87.368  1.00  0.00     0.004 A 
ATOM     28  C   UNL     1     100.171  80.080  86.937  1.00  0.00     0.004 A 
ATOM     29  C   UNL     1     101.675  82.430  86.938  1.00  0.00     0.000 A 
ATOM     30  C   UNL     1     101.498  80.059  86.507  1.00  0.00     0.000 A 
ATOM     31  C   UNL     1     102.249  81.235  86.508  1.00  0.00     0.000 A 
ENDBRANCH  25  26
ENDBRANCH   7  25
BRANCH  14  32
ATOM     32  C   UNL     1      98.015  82.133  83.481  1.00  0.00    -0.046 C 
ATOM     33  C   UNL     1      99.296  81.406  83.766  1.00  0.00     0.042 C 
ATOM     34  C   UNL     1      97.821  82.803  82.335  1.00  0.00     0.010 C 
ENDBRANCH  14  32
ENDBRANCH   3   4
BRANCH   2  35
ATOM     35  C   UNL     1      92.825  84.987  87.293  1.00  0.00     0.078 CG0
ATOM     36  G   UNL     1      92.570  83.561  86.806  1.00  0.00     0.000 G0
ENDBRANCH   2  35
ENDBRANCH   1   2
BRANCH   1  37
ATOM     37  O   UNL     1      95.612  87.434  87.510  1.00  0.00    -0.461 OA
BRANCH  37  38
ATOM     38  C   UNL     1      95.539  88.801  87.377  1.00  0.00     0.310 C 
ATOM     39  O   UNL     1      95.189  89.391  86.364  1.00  0.00    -0.252 OA
BRANCH  38  40
ATOM     40  C   UNL     1      95.958  89.457  88.672  1.00  0.00     0.158 C 
BRANCH  40  41
ATOM     41  C   UNL     1      94.811  90.114  89.396  1.00  0.00    -0.033 A 
ATOM     42  C   UNL     1      94.004  89.362  90.250  1.00  0.00     0.054 A 
ATOM     43  C   UNL     1      94.557  91.473  89.213  1.00  0.00     0.008 A 
ATOM     44  C   UNL     1      92.942  89.970  90.921  1.00  0.00     0.160 A 
ATOM     45  C   UNL     1      93.495  92.081  89.883  1.00  0.00     0.050 A 
ATOM     46  C   UNL     1      92.688  91.330  90.737  1.00  0.00     0.157 A 
BRANCH  44  47
ATOM     47  O   UNL     1      92.161  89.226  91.752  1.00  0.00    -0.493 OA
ATOM     48  C   UNL     1      92.627  89.041  93.088  1.00  0.00     0.278 C 
ENDBRANCH  44  47
BRANCH  46  49
ATOM     49  O   UNL     1      91.655  91.934  91.387  1.00  0.00    -0.504 OA
ATOM     50  H   UNL     1      91.171  92.496  90.758  1.00  0.00     0.293 HD
ENDBRANCH  46  49
ENDBRANCH  40  41
ENDBRANCH  38  40
ENDBRANCH  37  38
ENDBRANCH   1  37
TORSDOF 11
ENDMDL
MODEL 2
REMARK VINA RESULT:    -6.777      5.220      9.184
REMARK INTER + INTRA:         -12.919
REMARK INTER:                 -11.646
REMARK INTRA:                  -1.273
REMARK UNBOUND:                -0.992
REMARK SMILES C=C(C)[C@]12C[C@@H](C)[C@@]34O[C@](Cc5ccccc5)(O[C@@H]1[C@@H]3C=C(COC(=O)Cc1ccc(O)c(OC)c1)C[C@]1(O)C(=O)C(C)=C[C@@H]41)O2
REMARK SMILES IDX 23 1 22 2 21 3 20 4 9 5 8 6 10 7 6 8 18 9 46 10 19 11 5 12
REMARK SMILES IDX 7 13 4 14 45 15 38 16 44 17 40 18 42 20 41 21 43 22 39 23
REMARK SMILES IDX 11 25 12 26 13 27 17 28 14 29 16 30 15 31 2 32 3 33 1 34
REMARK SMILES IDX 37 35 24 37 25 38 26 39 27 40 28 41 36 42 29 43 33 44 30 45
REMARK SMILES IDX 31 46 34 47 35 48 32 49
REMARK H PARENT 39 24 32 50
REMARK Flexibility Score: 90.00
ROOT
ATOM      1  C   UNL     1      97.385  77.473  84.657  1.00  0.00     0.264 C 
ENDROOT
BRANCH   1   2
ATOM      2  C   UNL     1      97.958  78.718  84.020  1.00  0.00    -0.033 C 
ATOM      3  C   UNL     1      98.638  78.612  82.861  1.00  0.00    -0.015 C 
BRANCH   3   4
ATOM      4  C   UNL     1      99.368  79.684  82.069  1.00  0.00     0.078 C 
ATOM      5  O   UNL     1      97.762  80.577  80.414  1.00  0.00    -0.319 OA
ATOM      6  C   UNL     1      98.555  80.942  81.585  1.00  0.00     0.095 C 
ATOM      7  C   UNL     1      98.440  79.760  79.440  1.00  0.00     0.289 C 
ATOM      8  C   UNL     1      99.599  82.063  81.181  1.00  0.00     0.023 C 
ATOM      9  O   UNL     1      98.917  78.550  80.023  1.00  0.00    -0.320 OA
ATOM     10  O   UNL     1      99.589  80.406  78.898  1.00  0.00    -0.313 OA
ATOM     11  C   UNL     1     100.009  79.060  80.805  1.00  0.00     0.170 C 
ATOM     12  C   UNL     1     100.902  81.443  80.589  1.00  0.00     0.049 C 
ATOM     13  C   UNL     1      99.069  83.146  80.228  1.00  0.00     0.011 C 
ATOM     14  C   UNL     1     100.623  80.126  79.864  1.00  0.00     0.122 C 
BRANCH   6  15
ATOM     15  C   UNL     1      97.502  81.362  82.652  1.00  0.00     0.086 C 
ATOM     16  C   UNL     1      97.975  81.340  84.120  1.00  0.00     0.140 CG0
ATOM     17  C   UNL     1      96.816  82.693  82.525  1.00  0.00    -0.010 C 
ATOM     18  C   UNL     1      97.213  82.499  84.726  1.00  0.00     0.190 C 
ATOM     19  G   UNL     1      97.662  80.011  84.807  1.00  0.00     0.000 G0
ATOM     20  C   UNL     1      96.614  83.345  83.675  1.00  0.00    -0.008 C 
ATOM     21  O   UNL     1      97.134  82.749  85.919  1.00  0.00    -0.291 OA
ATOM     22  C   UNL     1      95.910  84.617  83.938  1.00  0.00     0.048 C 
BRANCH  16  23
ATOM     23  O   UNL     1      99.335  81.703  84.290  1.00  0.00    -0.381 OA
ATOM     24  H   UNL     1      99.494  81.866  85.234  1.00  0.00     0.212 HD
ENDBRANCH  16  23
ENDBRANCH   6  15
BRANCH   7  25
ATOM     25  C   UNL     1      97.465  79.441  78.325  1.00  0.00     0.135 C 
BRANCH  25  26
ATOM     26  C   UNL     1      97.550  80.439  77.197  1.00  0.00    -0.040 A 
ATOM     27  C   UNL     1      98.243  80.114  76.030  1.00  0.00     0.004 A 
ATOM     28  C   UNL     1      96.936  81.685  77.320  1.00  0.00     0.004 A 
ATOM     29  C   UNL     1      98.322  81.037  74.987  1.00  0.00     0.000 A 
ATOM     30  C   UNL     1      97.015  82.607  76.276  1.00  0.00     0.000 A 
ATOM     31  C   UNL     1      97.709  82.283  75.110  1.00  0.00     0.000 A 
ENDBRANCH  25  26
ENDBRANCH   7  25
BRANCH  14  32
ATOM     32  C   UNL     1     101.820  79.608  79.134  1.00  0.00    -0.046 C 
ATOM     33  C   UNL     1     101.576  78.475  78.183  1.00  0.00     0.042 C 
ATOM     34  C   UNL     1     103.043  80.127  79.320  1.00  0.00     0.010 C 
ENDBRANCH  14  32
ENDBRANCH   3   4
BRANCH   2  35
ATOM     35  C   UNL     1      97.667  79.979  84.812  1.00  0.00     0.078 CG0
ATOM     36  G   UNL     1      97.977  81.314  84.137  1.00  0.00     0.000 G0
ENDBRANCH   2  35
ENDBRANCH   1   2
BRANCH   1  37
ATOM     37  O   UNL     1      95.976  77.517  84.583  1.00  0.00    -0.461 OA
BRANCH  37  38
ATOM     38  C   UNL     1      95.299  77.369  85.771  1.00  0.00     0.310 C 
ATOM     39  O   UNL     1      95.823  77.162  86.857  1.00  0.00    -0.252 OA
BRANCH  38  40
ATOM     40  C   UNL     1      93.815  77.501  85.526  1.00  0.00     0.158 C 
BRANCH  40  41
ATOM     41  C   UNL     1      93.361  78.934  85.420  1.00  0.00    -0.033 A 
ATOM     42  C   UNL     1      92.050  79.277  85.753  1.00  0.00     0.054 A 
ATOM     43  C   UNL     1      94.252  79.918  84.989  1.00  0.00     0.008 A 
ATOM     44  C   UNL     1      91.631  80.604  85.654  1.00  0.00     0.160 A 
ATOM     45  C   UNL     1      93.832  81.244  84.891  1.00  0.00     0.050 A 
ATOM     46  C   UNL     1      92.522  81.588  85.223  1.00  0.00     0.157 A 
BRANCH  44  47
ATOM     47  O   UNL     1      90.349  80.927  85.982  1.00  0.00    -0.493 OA
ATOM     48  C   UNL     1      89.394  80.946  84.922  1.00  0.00     0.278 C 
ENDBRANCH  44  47
BRANCH  46  49
ATOM     49  O   UNL     1      92.124  82.886  85.124  1.00  0.00    -0.504 OA
ATOM     50  H   UNL     1      92.905  83.448  84.988  1.00  0.00     0.293 HD
ENDBRANCH  46  49
ENDBRANCH  40  41
ENDBRANCH  38  40
ENDBRANCH  37  38
ENDBRANCH   1  37
TORSDOF 11
ENDMDL
MODEL 3
REMARK VINA RESULT:    -6.577     20.779     24.915
REMARK INTER + INTRA:         -12.568
REMARK INTER:                 -11.256
REMARK INTRA:                  -1.312
REMARK UNBOUND:                -0.992
REMARK SMILES C=C(C)[C@]12C[C@@H](C)[C@@]34O[C@](Cc5ccccc5)(O[C@@H]1[C@@H]3C=C(COC(=O)Cc1ccc(O)c(OC)c1)C[C@]1(O)C(=O)C(C)=C[C@@H]41)O2
REMARK SMILES IDX 23 1 22 2 21 3 20 4 9 5 8 6 10 7 6 8 18 9 46 10 19 11 5 12
REMARK SMILES IDX 7 13 4 14 45 15 38 16 44 17 40 18 42 20 41 21 43 22 39 23
REMARK SMILES IDX 11 25 12 26 13 27 17 28 14 29 16 30 15 31 2 32 3 33 1 34
REMARK SMILES IDX 37 35 24 37 25 38 26 39 27 40 28 41 36 42 29 43 33 44 30 45
REMARK SMILES IDX 31 46 34 47 35 48 32 49
REMARK H PARENT 39 24 32 50
REMARK Flexibility Score: 90.00
ROOT
ATOM      1  C   UNL     1      84.929  70.074  71.825  1.00  0.00     0.264 C 
ENDROOT
BRANCH   1   2
ATOM      2  C   UNL     1      86.259  69.929  71.124  1.00  0.00    -0.033 C 
ATOM      3  C   UNL     1      86.318  70.075  69.785  1.00  0.00    -0.015 C 
BRANCH   3   4
ATOM      4  C   UNL     1      87.502  69.904  68.847  1.00  0.00     0.078 C 
ATOM      5  O   UNL     1      88.550  72.130  68.597  1.00  0.00    -0.319 OA
ATOM      6  C   UNL     1      88.787  70.778  69.097  1.00  0.00     0.095 C 
ATOM      7  C   UNL     1      87.882  72.209  67.324  1.00  0.00     0.289 C 
ATOM      8  C   UNL     1      89.980  70.122  68.285  1.00  0.00     0.023 C 
ATOM      9  O   UNL     1      86.623  71.543  67.359  1.00  0.00    -0.320 OA
ATOM     10  O   UNL     1      88.623  71.576  66.284  1.00  0.00    -0.313 OA
ATOM     11  C   UNL     1      87.061  70.175  67.388  1.00  0.00     0.170 C 
ATOM     12  C   UNL     1      89.476  69.462  66.965  1.00  0.00     0.049 C 
ATOM     13  C   UNL     1      91.159  71.057  67.972  1.00  0.00     0.011 C 
ATOM     14  C   UNL     1      88.254  70.186  66.400  1.00  0.00     0.122 C 
BRANCH   6  15
ATOM     15  C   UNL     1      89.040  70.966  70.621  1.00  0.00     0.086 C 
ATOM     16  C   UNL     1      88.843  69.715  71.502  1.00  0.00     0.140 CG0
ATOM     17  C   UNL     1      90.358  71.518  71.087  1.00  0.00    -0.010 C 
ATOM     18  C   UNL     1      89.895  69.903  72.575  1.00  0.00     0.190 C 
ATOM     19  G   UNL     1      87.430  69.630  72.077  1.00  0.00     0.000 G0
ATOM     20  C   UNL     1      90.852  70.960  72.197  1.00  0.00    -0.008 C 
ATOM     21  O   UNL     1      89.988  69.242  73.598  1.00  0.00    -0.291 OA
ATOM     22  C   UNL     1      92.061  71.300  72.976  1.00  0.00     0.048 C 
BRANCH  16  23
ATOM     23  O   UNL     1      89.218  68.503  70.869  1.00  0.00    -0.381 OA
ATOM     24  H   UNL     1      89.945  68.104  71.375  1.00  0.00     0.212 HD
ENDBRANCH  16  23
ENDBRANCH   6  15
BRANCH   7  25
ATOM     25  C   UNL     1      87.679  73.671  66.982  1.00  0.00     0.135 C 
BRANCH  25  26
ATOM     26  C   UNL     1      88.870  74.255  66.264  1.00  0.00    -0.040 A 
ATOM     27  C   UNL     1      90.030  74.563  66.975  1.00  0.00     0.004 A 
ATOM     28  C   UNL     1      88.812  74.485  64.890  1.00  0.00     0.004 A 
ATOM     29  C   UNL     1      91.132  75.103  66.311  1.00  0.00     0.000 A 
ATOM     30  C   UNL     1      89.914  75.025  64.226  1.00  0.00     0.000 A 
ATOM     31  C   UNL     1      91.074  75.334  64.937  1.00  0.00     0.000 A 
ENDBRANCH  25  26
ENDBRANCH   7  25
BRANCH  14  32
ATOM     32  C   UNL     1      87.866  69.688  65.046  1.00  0.00    -0.046 C 
ATOM     33  C   UNL     1      87.345  68.283  64.982  1.00  0.00     0.042 C 
ATOM     34  C   UNL     1      87.977  70.453  63.950  1.00  0.00     0.010 C 
ENDBRANCH  14  32
ENDBRANCH   3   4
BRANCH   2  35
ATOM     35  C   UNL     1      87.404  69.632  72.075  1.00  0.00     0.078 CG0
ATOM     36  G   UNL     1      88.821  69.728  71.514  1.00  0.00     0.000 G0
ENDBRANCH   2  35
ENDBRANCH   1   2
BRANCH   1  37
ATOM     37  O   UNL     1      83.927  69.438  71.061  1.00  0.00    -0.461 OA
BRANCH  37  38
ATOM     38  C   UNL     1      83.683  68.117  71.357  1.00  0.00     0.310 C 
ATOM     39  O   UNL     1      84.345  67.172  70.951  1.00  0.00    -0.252 OA
BRANCH  38  40
ATOM     40  C   UNL     1      82.475  68.016  72.259  1.00  0.00     0.158 C 
BRANCH  40  41
ATOM     41  C   UNL     1      82.717  67.156  73.472  1.00  0.00    -0.033 A 
ATOM     42  C   UNL     1      83.710  67.506  74.388  1.00  0.00     0.054 A 
ATOM     43  C   UNL     1      81.948  66.011  73.680  1.00  0.00     0.008 A 
ATOM     44  C   UNL     1      83.934  66.709  75.511  1.00  0.00     0.160 A 
ATOM     45  C   UNL     1      82.172  65.215  74.804  1.00  0.00     0.050 A 
ATOM     46  C   UNL     1      83.165  65.563  75.719  1.00  0.00     0.157 A 
BRANCH  44  47
ATOM     47  O   UNL     1      84.907  67.060  76.398  1.00  0.00    -0.493 OA
ATOM     48  C   UNL     1      84.766  68.323  77.048  1.00  0.00     0.278 C 
ENDBRANCH  44  47
BRANCH  46  49
ATOM     49  O   UNL     1      83.374  64.779  76.812  1.00  0.00    -0.504 OA
ATOM     50  H   UNL     1      84.305  64.500  76.829  1.00  0.00     0.293 HD
ENDBRANCH  46  49
ENDBRANCH  40  41
ENDBRANCH  38  40
ENDBRANCH  37  38
ENDBRANCH   1  37
TORSDOF 11
ENDMDL
MODEL 4
REMARK VINA RESULT:    -6.549     20.986     25.004
REMARK INTER + INTRA:         -12.519
REMARK INTER:                 -11.832
REMARK INTRA:                  -0.687
REMARK UNBOUND:                -0.992
REMARK SMILES C=C(C)[C@]12C[C@@H](C)[C@@]34O[C@](Cc5ccccc5)(O[C@@H]1[C@@H]3C=C(COC(=O)Cc1ccc(O)c(OC)c1)C[C@]1(O)C(=O)C(C)=C[C@@H]41)O2
REMARK SMILES IDX 23 1 22 2 21 3 20 4 9 5 8 6 10 7 6 8 18 9 46 10 19 11 5 12
REMARK SMILES IDX 7 13 4 14 45 15 38 16 44 17 40 18 42 20 41 21 43 22 39 23
REMARK SMILES IDX 11 25 12 26 13 27 17 28 14 29 16 30 15 31 2 32 3 33 1 34
REMARK SMILES IDX 37 35 24 37 25 38 26 39 27 40 28 41 36 42 29 43 33 44 30 45
REMARK SMILES IDX 31 46 34 47 35 48 32 49
REMARK H PARENT 39 24 32 50
REMARK Flexibility Score: 90.00
ROOT
ATOM      1  C   UNL     1      86.952  70.234  73.348  1.00  0.00     0.264 C 
ENDROOT
BRANCH   1   2
ATOM      2  C   UNL     1      86.052  69.384  74.214  1.00  0.00    -0.033 C 
ATOM      3  C   UNL     1      85.075  68.657  73.636  1.00  0.00    -0.015 C 
BRANCH   3   4
ATOM      4  C   UNL     1      84.004  67.794  74.281  1.00  0.00     0.078 C 
ATOM      5  O   UNL     1      84.911  65.496  74.409  1.00  0.00    -0.319 OA
ATOM      6  C   UNL     1      84.458  66.619  75.226  1.00  0.00     0.095 C 
ATOM      7  C   UNL     1      84.094  65.200  73.261  1.00  0.00     0.289 C 
ATOM      8  C   UNL     1      83.197  66.173  76.077  1.00  0.00     0.023 C 
ATOM      9  O   UNL     1      83.981  66.331  72.401  1.00  0.00    -0.320 OA
ATOM     10  O   UNL     1      82.759  64.855  73.621  1.00  0.00    -0.313 OA
ATOM     11  C   UNL     1      83.110  67.159  73.188  1.00  0.00     0.170 C 
ATOM     12  C   UNL     1      81.875  66.331  75.264  1.00  0.00     0.049 C 
ATOM     13  C   UNL     1      83.268  64.756  76.668  1.00  0.00     0.011 C 
ATOM     14  C   UNL     1      82.104  66.132  73.766  1.00  0.00     0.122 C 
BRANCH   6  15
ATOM     15  C   UNL     1      85.711  67.029  76.053  1.00  0.00     0.086 C 
ATOM     16  C   UNL     1      85.702  68.456  76.640  1.00  0.00     0.140 CG0
ATOM     17  C   UNL     1      86.138  66.176  77.215  1.00  0.00    -0.010 C 
ATOM     18  C   UNL     1      86.442  68.276  77.948  1.00  0.00     0.190 C 
ATOM     19  G   UNL     1      86.384  69.464  75.716  1.00  0.00     0.000 G0
ATOM     20  C   UNL     1      86.580  66.846  78.285  1.00  0.00    -0.008 C 
ATOM     21  O   UNL     1      86.835  69.179  78.670  1.00  0.00    -0.291 OA
ATOM     22  C   UNL     1      87.148  66.345  79.553  1.00  0.00     0.048 C 
BRANCH  16  23
ATOM     23  O   UNL     1      84.417  68.905  77.037  1.00  0.00    -0.381 OA
ATOM     24  H   UNL     1      83.904  69.115  76.238  1.00  0.00     0.212 HD
ENDBRANCH  16  23
ENDBRANCH   6  15
BRANCH   7  25
ATOM     25  C   UNL     1      84.729  64.047  72.510  1.00  0.00     0.135 C 
BRANCH  25  26
ATOM     26  C   UNL     1      84.749  64.286  71.021  1.00  0.00    -0.040 A 
ATOM     27  C   UNL     1      85.918  64.058  70.294  1.00  0.00     0.004 A 
ATOM     28  C   UNL     1      83.600  64.732  70.370  1.00  0.00     0.004 A 
ATOM     29  C   UNL     1      85.937  64.278  68.916  1.00  0.00     0.000 A 
ATOM     30  C   UNL     1      83.619  64.953  68.992  1.00  0.00     0.000 A 
ATOM     31  C   UNL     1      84.788  64.725  68.266  1.00  0.00     0.000 A 
ENDBRANCH  25  26
ENDBRANCH   7  25
BRANCH  14  32
ATOM     32  C   UNL     1      80.829  66.097  72.989  1.00  0.00    -0.046 C 
ATOM     33  C   UNL     1      80.598  67.238  72.043  1.00  0.00     0.042 C 
ATOM     34  C   UNL     1      79.939  65.103  73.130  1.00  0.00     0.010 C 
ENDBRANCH  14  32
ENDBRANCH   3   4
BRANCH   2  35
ATOM     35  C   UNL     1      86.397  69.464  75.689  1.00  0.00     0.078 CG0
ATOM     36  G   UNL     1      85.694  68.483  76.626  1.00  0.00     0.000 G0
ENDBRANCH   2  35
ENDBRANCH   1   2
BRANCH   1  37
ATOM     37  O   UNL     1      88.020  69.446  72.869  1.00  0.00    -0.461 OA
BRANCH  37  38
ATOM     38  C   UNL     1      88.041  69.209  71.515  1.00  0.00     0.310 C 
ATOM     39  O   UNL     1      88.811  68.446  70.947  1.00  0.00    -0.252 OA
BRANCH  38  40
ATOM     40  C   UNL     1      86.970  70.033  70.841  1.00  0.00     0.158 C 
BRANCH  40  41
ATOM     41  C   UNL     1      87.485  70.816  69.661  1.00  0.00    -0.033 A 
ATOM     42  C   UNL     1      88.673  71.541  69.770  1.00  0.00     0.054 A 
ATOM     43  C   UNL     1      86.777  70.816  68.460  1.00  0.00     0.008 A 
ATOM     44  C   UNL     1      89.150  72.266  68.678  1.00  0.00     0.160 A 
ATOM     45  C   UNL     1      87.254  71.541  67.368  1.00  0.00     0.050 A 
ATOM     46  C   UNL     1      88.440  72.266  67.477  1.00  0.00     0.157 A 
BRANCH  44  47
ATOM     47  O   UNL     1      90.310  72.970  68.797  1.00  0.00    -0.493 OA
ATOM     48  C   UNL     1      90.851  73.111  70.109  1.00  0.00     0.278 C 
ENDBRANCH  44  47
BRANCH  46  49
ATOM     49  O   UNL     1      88.897  72.969  66.403  1.00  0.00    -0.504 OA
ATOM     50  H   UNL     1      88.291  73.708  66.227  1.00  0.00     0.293 HD
ENDBRANCH  46  49
ENDBRANCH  40  41
ENDBRANCH  38  40
ENDBRANCH  37  38
ENDBRANCH   1  37
TORSDOF 11
ENDMDL
MODEL 5
REMARK VINA RESULT:    -6.537     22.321     25.911
REMARK INTER + INTRA:         -12.498
REMARK INTER:                 -11.493
REMARK INTRA:                  -1.005
REMARK UNBOUND:                -0.992
REMARK SMILES C=C(C)[C@]12C[C@@H](C)[C@@]34O[C@](Cc5ccccc5)(O[C@@H]1[C@@H]3C=C(COC(=O)Cc1ccc(O)c(OC)c1)C[C@]1(O)C(=O)C(C)=C[C@@H]41)O2
REMARK SMILES IDX 23 1 22 2 21 3 20 4 9 5 8 6 10 7 6 8 18 9 46 10 19 11 5 12
REMARK SMILES IDX 7 13 4 14 45 15 38 16 44 17 40 18 42 20 41 21 43 22 39 23
REMARK SMILES IDX 11 25 12 26 13 27 17 28 14 29 16 30 15 31 2 32 3 33 1 34
REMARK SMILES IDX 37 35 24 37 25 38 26 39 27 40 28 41 36 42 29 43 33 44 30 45
REMARK SMILES IDX 31 46 34 47 35 48 32 49
REMARK H PARENT 39 24 32 50
REMARK Flexibility Score: 90.00
ROOT
ATOM      1  C   UNL     1      86.019  69.682  71.816  1.00  0.00     0.264 C 
ENDROOT
BRANCH   1   2
ATOM      2  C   UNL     1      87.112  69.524  70.785  1.00  0.00    -0.033 C 
ATOM      3  C   UNL     1      86.841  69.785  69.491  1.00  0.00    -0.015 C 
BRANCH   3   4
ATOM      4  C   UNL     1      87.730  69.631  68.268  1.00  0.00     0.078 C 
ATOM      5  O   UNL     1      88.833  71.815  67.900  1.00  0.00    -0.319 OA
ATOM      6  C   UNL     1      89.095  70.416  68.231  1.00  0.00     0.095 C 
ATOM      7  C   UNL     1      87.869  72.030  66.852  1.00  0.00     0.289 C 
ATOM      8  C   UNL     1      89.990  69.768  67.096  1.00  0.00     0.023 C 
ATOM      9  O   UNL     1      86.617  71.429  67.171  1.00  0.00    -0.320 OA
ATOM     10  O   UNL     1      88.273  71.447  65.616  1.00  0.00    -0.313 OA
ATOM     11  C   UNL     1      86.951  70.043  66.995  1.00  0.00     0.170 C 
ATOM     12  C   UNL     1      89.121  69.244  65.912  1.00  0.00     0.049 C 
ATOM     13  C   UNL     1      91.113  70.664  66.549  1.00  0.00     0.011 C 
ATOM     14  C   UNL     1      87.849  70.073  65.733  1.00  0.00     0.122 C 
BRANCH   6  15
ATOM     15  C   UNL     1      89.741  70.466  69.646  1.00  0.00     0.086 C 
ATOM     16  C   UNL     1      89.704  69.154  70.457  1.00  0.00     0.140 CG0
ATOM     17  C   UNL     1      91.165  70.925  69.789  1.00  0.00    -0.010 C 
ATOM     18  C   UNL     1      91.005  69.210  71.228  1.00  0.00     0.190 C 
ATOM     19  G   UNL     1      88.483  69.077  71.373  1.00  0.00     0.000 G0
ATOM     20  C   UNL     1      91.894  70.258  70.690  1.00  0.00    -0.008 C 
ATOM     21  O   UNL     1      91.319  68.464  72.143  1.00  0.00    -0.291 OA
ATOM     22  C   UNL     1      93.280  70.484  71.148  1.00  0.00     0.048 C 
BRANCH  16  23
ATOM     23  O   UNL     1      89.830  67.985  69.664  1.00  0.00    -0.381 OA
ATOM     24  H   UNL     1      90.247  68.229  68.822  1.00  0.00     0.212 HD
ENDBRANCH  16  23
ENDBRANCH   6  15
BRANCH   7  25
ATOM     25  C   UNL     1      87.688  73.524  66.672  1.00  0.00     0.135 C 
BRANCH  25  26
ATOM     26  C   UNL     1      88.950  74.191  66.184  1.00  0.00    -0.040 A 
ATOM     27  C   UNL     1      89.127  74.435  64.822  1.00  0.00     0.004 A 
ATOM     28  C   UNL     1      89.938  74.566  67.094  1.00  0.00     0.004 A 
ATOM     29  C   UNL     1      90.294  75.052  64.370  1.00  0.00     0.000 A 
ATOM     30  C   UNL     1      91.105  75.183  66.642  1.00  0.00     0.000 A 
ATOM     31  C   UNL     1      91.282  75.426  65.280  1.00  0.00     0.000 A 
ENDBRANCH  25  26
ENDBRANCH   7  25
BRANCH  14  32
ATOM     32  C   UNL     1      87.093  69.707  64.497  1.00  0.00    -0.046 C 
ATOM     33  C   UNL     1      87.917  69.422  63.277  1.00  0.00     0.042 C 
ATOM     34  C   UNL     1      85.754  69.638  64.479  1.00  0.00     0.010 C 
ENDBRANCH  14  32
ENDBRANCH   3   4
BRANCH   2  35
ATOM     35  C   UNL     1      88.433  69.077  71.383  1.00  0.00     0.078 CG0
ATOM     36  G   UNL     1      89.669  69.161  70.488  1.00  0.00     0.000 G0
ENDBRANCH   2  35
ENDBRANCH   1   2
BRANCH   1  37
ATOM     37  O   UNL     1      85.270  68.488  71.889  1.00  0.00    -0.461 OA
BRANCH  37  38
ATOM     38  C   UNL     1      83.948  68.576  71.520  1.00  0.00     0.310 C 
ATOM     39  O   UNL     1      83.221  69.537  71.733  1.00  0.00    -0.252 OA
BRANCH  38  40
ATOM     40  C   UNL     1      83.535  67.306  70.815  1.00  0.00     0.158 C 
BRANCH  40  41
ATOM     41  C   UNL     1      82.498  66.521  71.576  1.00  0.00    -0.033 A 
ATOM     42  C   UNL     1      82.889  65.663  72.605  1.00  0.00     0.054 A 
ATOM     43  C   UNL     1      81.148  66.652  71.253  1.00  0.00     0.008 A 
ATOM     44  C   UNL     1      81.929  64.936  73.309  1.00  0.00     0.160 A 
ATOM     45  C   UNL     1      80.188  65.925  71.958  1.00  0.00     0.050 A 
ATOM     46  C   UNL     1      80.578  65.067  72.985  1.00  0.00     0.157 A 
BRANCH  44  47
ATOM     47  O   UNL     1      82.323  64.101  74.311  1.00  0.00    -0.493 OA
ATOM     48  C   UNL     1      82.492  64.677  75.606  1.00  0.00     0.278 C 
ENDBRANCH  44  47
BRANCH  46  49
ATOM     49  O   UNL     1      79.632  64.364  73.667  1.00  0.00    -0.504 OA
ATOM     50  H   UNL     1      79.011  63.970  73.032  1.00  0.00     0.293 HD
ENDBRANCH  46  49
ENDBRANCH  40  41
ENDBRANCH  38  40
ENDBRANCH  37  38
ENDBRANCH   1  37
TORSDOF 11
ENDMDL
MODEL 6
REMARK VINA RESULT:    -6.344      1.593      2.584
REMARK INTER + INTRA:         -12.157
REMARK INTER:                 -11.137
REMARK INTRA:                  -1.020
REMARK UNBOUND:                -0.992
REMARK SMILES C=C(C)[C@]12C[C@@H](C)[C@@]34O[C@](Cc5ccccc5)(O[C@@H]1[C@@H]3C=C(COC(=O)Cc1ccc(O)c(OC)c1)C[C@]1(O)C(=O)C(C)=C[C@@H]41)O2
REMARK SMILES IDX 23 1 22 2 21 3 20 4 9 5 8 6 10 7 6 8 18 9 46 10 19 11 5 12
REMARK SMILES IDX 7 13 4 14 45 15 38 16 44 17 40 18 42 20 41 21 43 22 39 23
REMARK SMILES IDX 11 25 12 26 13 27 17 28 14 29 16 30 15 31 2 32 3 33 1 34
REMARK SMILES IDX 37 35 24 37 25 38 26 39 27 40 28 41 36 42 29 43 33 44 30 45
REMARK SMILES IDX 31 46 34 47 35 48 32 49
REMARK H PARENT 39 24 32 50
REMARK Flexibility Score: 90.00
ROOT
ATOM      1  C   UNL     1      91.932  85.527  88.543  1.00  0.00     0.264 C 
ENDROOT
BRANCH   1   2
ATOM      2  C   UNL     1      92.296  84.445  87.553  1.00  0.00    -0.033 C 
ATOM      3  C   UNL     1      93.542  84.413  87.040  1.00  0.00    -0.015 C 
BRANCH   3   4
ATOM      4  C   UNL     1      94.128  83.489  85.985  1.00  0.00     0.078 C 
ATOM      5  O   UNL     1      95.140  81.577  87.185  1.00  0.00    -0.319 OA
ATOM      6  C   UNL     1      94.083  81.936  86.243  1.00  0.00     0.095 C 
ATOM      7  C   UNL     1      96.410  82.217  86.960  1.00  0.00     0.289 C 
ATOM      8  C   UNL     1      94.348  81.213  84.858  1.00  0.00     0.023 C 
ATOM      9  O   UNL     1      96.285  83.636  86.984  1.00  0.00    -0.320 OA
ATOM     10  O   UNL     1      96.957  81.899  85.683  1.00  0.00    -0.313 OA
ATOM     11  C   UNL     1      95.612  83.851  85.734  1.00  0.00     0.170 C 
ATOM     12  C   UNL     1      95.322  82.036  83.960  1.00  0.00     0.049 C 
ATOM     13  C   UNL     1      94.847  79.762  84.956  1.00  0.00     0.011 C 
ATOM     14  C   UNL     1      96.319  82.840  84.796  1.00  0.00     0.122 C 
BRANCH   6  15
ATOM     15  C   UNL     1      92.764  81.534  86.965  1.00  0.00     0.086 C 
ATOM     16  C   UNL     1      91.477  82.219  86.461  1.00  0.00     0.140 CG0
ATOM     17  C   UNL     1      92.381  80.083  87.045  1.00  0.00    -0.010 C 
ATOM     18  C   UNL     1      90.438  81.131  86.640  1.00  0.00     0.190 C 
ATOM     19  G   UNL     1      91.145  83.481  87.255  1.00  0.00     0.000 G0
ATOM     20  C   UNL     1      91.077  79.826  86.893  1.00  0.00    -0.008 C 
ATOM     21  O   UNL     1      89.230  81.283  86.540  1.00  0.00    -0.291 OA
ATOM     22  C   UNL     1      90.341  78.549  86.992  1.00  0.00     0.048 C 
BRANCH  16  23
ATOM     23  O   UNL     1      91.469  82.468  85.065  1.00  0.00    -0.381 OA
ATOM     24  H   UNL     1      91.002  81.739  84.625  1.00  0.00     0.212 HD
ENDBRANCH  16  23
ENDBRANCH   6  15
BRANCH   7  25
ATOM     25  C   UNL     1      97.367  81.768  88.046  1.00  0.00     0.135 C 
BRANCH  25  26
ATOM     26  C   UNL     1      98.634  81.180  87.476  1.00  0.00    -0.040 A 
ATOM     27  C   UNL     1      98.808  79.796  87.448  1.00  0.00     0.004 A 
ATOM     28  C   UNL     1      99.629  82.018  86.975  1.00  0.00     0.004 A 
ATOM     29  C   UNL     1      99.979  79.251  86.921  1.00  0.00     0.000 A 
ATOM     30  C   UNL     1     100.800  81.473  86.448  1.00  0.00     0.000 A 
ATOM     31  C   UNL     1     100.975  80.089  86.421  1.00  0.00     0.000 A 
ENDBRANCH  25  26
ENDBRANCH   7  25
BRANCH  14  32
ATOM     32  C   UNL     1      97.373  83.492  83.962  1.00  0.00    -0.046 C 
ATOM     33  C   UNL     1      98.388  82.576  83.344  1.00  0.00     0.042 C 
ATOM     34  C   UNL     1      97.412  84.820  83.777  1.00  0.00     0.010 C 
ENDBRANCH  14  32
ENDBRANCH   3   4
BRANCH   2  35
ATOM     35  C   UNL     1      91.151  83.492  87.267  1.00  0.00     0.078 CG0
ATOM     36  G   UNL     1      91.480  82.218  86.489  1.00  0.00     0.000 G0
ENDBRANCH   2  35
ENDBRANCH   1   2
BRANCH   1  37
ATOM     37  O   UNL     1      91.986  85.001  89.851  1.00  0.00    -0.461 OA
BRANCH  37  38
ATOM     38  C   UNL     1      92.725  85.717  90.765  1.00  0.00     0.310 C 
ATOM     39  O   UNL     1      92.309  86.124  91.841  1.00  0.00    -0.252 OA
BRANCH  38  40
ATOM     40  C   UNL     1      94.124  85.923  90.232  1.00  0.00     0.158 C 
BRANCH  40  41
ATOM     41  C   UNL     1      94.382  87.339  89.788  1.00  0.00    -0.033 A 
ATOM     42  C   UNL     1      94.241  88.391  90.695  1.00  0.00     0.054 A 
ATOM     43  C   UNL     1      94.762  87.600  88.472  1.00  0.00     0.008 A 
ATOM     44  C   UNL     1      94.480  89.702  90.284  1.00  0.00     0.160 A 
ATOM     45  C   UNL     1      95.001  88.911  88.061  1.00  0.00     0.050 A 
ATOM     46  C   UNL     1      94.860  89.962  88.966  1.00  0.00     0.157 A 
BRANCH  44  47
ATOM     47  O   UNL     1      94.339  90.720  91.178  1.00  0.00    -0.493 OA
ATOM     48  C   UNL     1      93.513  90.475  92.315  1.00  0.00     0.278 C 
ENDBRANCH  44  47
BRANCH  46  49
ATOM     49  O   UNL     1      95.097  91.239  88.554  1.00  0.00    -0.504 OA
ATOM     50  H   UNL     1      94.248  91.671  88.358  1.00  0.00     0.293 HD
ENDBRANCH  46  49
ENDBRANCH  40  41
ENDBRANCH  38  40
ENDBRANCH  37  38
ENDBRANCH   1  37
TORSDOF 11
ENDMDL
MODEL 7
REMARK VINA RESULT:    -5.798     21.587     25.028
REMARK INTER + INTRA:         -11.196
REMARK INTER:                 -10.225
REMARK INTRA:                  -0.972
REMARK UNBOUND:                -0.992
REMARK SMILES C=C(C)[C@]12C[C@@H](C)[C@@]34O[C@](Cc5ccccc5)(O[C@@H]1[C@@H]3C=C(COC(=O)Cc1ccc(O)c(OC)c1)C[C@]1(O)C(=O)C(C)=C[C@@H]41)O2
REMARK SMILES IDX 23 1 22 2 21 3 20 4 9 5 8 6 10 7 6 8 18 9 46 10 19 11 5 12
REMARK SMILES IDX 7 13 4 14 45 15 38 16 44 17 40 18 42 20 41 21 43 22 39 23
REMARK SMILES IDX 11 25 12 26 13 27 17 28 14 29 16 30 15 31 2 32 3 33 1 34
REMARK SMILES IDX 37 35 24 37 25 38 26 39 27 40 28 41 36 42 29 43 33 44 30 45
REMARK SMILES IDX 31 46 34 47 35 48 32 49
REMARK H PARENT 39 24 32 50
REMARK Flexibility Score: 90.00
ROOT
ATOM      1  C   UNL     1      97.337  99.777  67.780  1.00  0.00     0.264 C 
ENDROOT
BRANCH   1   2
ATOM      2  C   UNL     1      96.235 100.647  68.339  1.00  0.00    -0.033 C 
ATOM      3  C   UNL     1      95.354 101.220  67.495  1.00  0.00    -0.015 C 
BRANCH   3   4
ATOM      4  C   UNL     1      94.219 102.186  67.794  1.00  0.00     0.078 C 
ATOM      5  O   UNL     1      92.185 100.821  68.140  1.00  0.00    -0.319 OA
ATOM      6  C   UNL     1      93.104 101.738  68.810  1.00  0.00     0.095 C 
ATOM      7  C   UNL     1      91.808 101.196  66.801  1.00  0.00     0.289 C 
ATOM      8  C   UNL     1      92.314 103.037  69.258  1.00  0.00     0.023 C 
ATOM      9  O   UNL     1      92.952 101.339  65.963  1.00  0.00    -0.320 OA
ATOM     10  O   UNL     1      91.140 102.454  66.759  1.00  0.00    -0.313 OA
ATOM     11  C   UNL     1      93.492 102.565  66.480  1.00  0.00     0.170 C 
ATOM     12  C   UNL     1      92.235 104.083  68.104  1.00  0.00     0.049 C 
ATOM     13  C   UNL     1      90.905 102.790  69.822  1.00  0.00     0.011 C 
ATOM     14  C   UNL     1      92.219 103.411  66.731  1.00  0.00     0.122 C 
BRANCH   6  15
ATOM     15  C   UNL     1      93.717 100.897  69.967  1.00  0.00     0.086 C 
ATOM     16  C   UNL     1      95.055 101.406  70.543  1.00  0.00     0.140 CG0
ATOM     17  C   UNL     1      92.892 100.618  71.192  1.00  0.00    -0.010 C 
ATOM     18  C   UNL     1      94.941 101.035  72.007  1.00  0.00     0.190 C 
ATOM     19  G   UNL     1      96.260 100.754  69.866  1.00  0.00     0.000 G0
ATOM     20  C   UNL     1      93.557 100.661  72.352  1.00  0.00    -0.008 C 
ATOM     21  O   UNL     1      95.850 101.083  72.822  1.00  0.00    -0.291 OA
ATOM     22  C   UNL     1      93.097 100.364  73.724  1.00  0.00     0.048 C 
BRANCH  16  23
ATOM     23  O   UNL     1      95.172 102.819  70.559  1.00  0.00    -0.381 OA
ATOM     24  H   UNL     1      95.537 103.087  71.419  1.00  0.00     0.212 HD
ENDBRANCH  16  23
ENDBRANCH   6  15
BRANCH   7  25
ATOM     25  C   UNL     1      90.897 100.120  66.245  1.00  0.00     0.135 C 
BRANCH  25  26
ATOM     26  C   UNL     1      90.695  98.989  67.223  1.00  0.00    -0.040 A 
ATOM     27  C   UNL     1      90.688  97.669  66.770  1.00  0.00     0.004 A 
ATOM     28  C   UNL     1      90.517  99.262  68.578  1.00  0.00     0.004 A 
ATOM     29  C   UNL     1      90.501  96.623  67.674  1.00  0.00     0.000 A 
ATOM     30  C   UNL     1      90.331  98.216  69.482  1.00  0.00     0.000 A 
ATOM     31  C   UNL     1      90.323  96.896  69.029  1.00  0.00     0.000 A 
ENDBRANCH  25  26
ENDBRANCH   7  25
BRANCH  14  32
ATOM     32  C   UNL     1      91.960 104.378  65.621  1.00  0.00    -0.046 C 
ATOM     33  C   UNL     1      93.122 104.679  64.722  1.00  0.00     0.042 C 
ATOM     34  C   UNL     1      90.758 104.945  65.440  1.00  0.00     0.010 C 
ENDBRANCH  14  32
ENDBRANCH   3   4
BRANCH   2  35
ATOM     35  C   UNL     1      96.272 100.753  69.852  1.00  0.00     0.078 CG0
ATOM     36  G   UNL     1      95.061 101.384  70.538  1.00  0.00     0.000 G0
ENDBRANCH   2  35
ENDBRANCH   1   2
BRANCH   1  37
ATOM     37  O   UNL     1      97.612  98.731  68.687  1.00  0.00    -0.461 OA
BRANCH  37  38
ATOM     38  C   UNL     1      97.395  97.454  68.227  1.00  0.00     0.310 C 
ATOM     39  O   UNL     1      97.620  97.070  67.087  1.00  0.00    -0.252 OA
BRANCH  38  40
ATOM     40  C   UNL     1      96.839  96.602  69.343  1.00  0.00     0.158 C 
BRANCH  40  41
ATOM     41  C   UNL     1      97.609  96.744  70.631  1.00  0.00    -0.033 A 
ATOM     42  C   UNL     1      97.013  97.349  71.738  1.00  0.00     0.054 A 
ATOM     43  C   UNL     1      98.918  96.270  70.716  1.00  0.00     0.008 A 
ATOM     44  C   UNL     1      97.726  97.480  72.929  1.00  0.00     0.160 A 
ATOM     45  C   UNL     1      99.632  96.401  71.908  1.00  0.00     0.050 A 
ATOM     46  C   UNL     1      99.036  97.006  73.014  1.00  0.00     0.157 A 
BRANCH  44  47
ATOM     47  O   UNL     1      97.134  98.073  74.003  1.00  0.00    -0.493 OA
ATOM     48  C   UNL     1      95.762  97.759  74.242  1.00  0.00     0.278 C 
ENDBRANCH  44  47
BRANCH  46  49
ATOM     49  O   UNL     1      99.742  97.127  74.172  1.00  0.00    -0.504 OA
ATOM     50  H   UNL     1      99.341  97.826  74.716  1.00  0.00     0.293 HD
ENDBRANCH  46  49
ENDBRANCH  40  41
ENDBRANCH  38  40
ENDBRANCH  37  38
ENDBRANCH   1  37
TORSDOF 11
ENDMDL
MODEL 8
REMARK VINA RESULT:    -5.705      3.262      8.246
REMARK INTER + INTRA:         -11.034
REMARK INTER:                  -9.386
REMARK INTRA:                  -1.647
REMARK UNBOUND:                -0.992
REMARK SMILES C=C(C)[C@]12C[C@@H](C)[C@@]34O[C@](Cc5ccccc5)(O[C@@H]1[C@@H]3C=C(COC(=O)Cc1ccc(O)c(OC)c1)C[C@]1(O)C(=O)C(C)=C[C@@H]41)O2
REMARK SMILES IDX 23 1 22 2 21 3 20 4 9 5 8 6 10 7 6 8 18 9 46 10 19 11 5 12
REMARK SMILES IDX 7 13 4 14 45 15 38 16 44 17 40 18 42 20 41 21 43 22 39 23
REMARK SMILES IDX 11 25 12 26 13 27 17 28 14 29 16 30 15 31 2 32 3 33 1 34
REMARK SMILES IDX 37 35 24 37 25 38 26 39 27 40 28 41 36 42 29 43 33 44 30 45
REMARK SMILES IDX 31 46 34 47 35 48 32 49
REMARK H PARENT 39 24 32 50
REMARK Flexibility Score: 90.00
ROOT
ATOM      1  C   UNL     1      96.555  81.580  87.047  1.00  0.00     0.264 C 
ENDROOT
BRANCH   1   2
ATOM      2  C   UNL     1      95.474  82.594  87.339  1.00  0.00    -0.033 C 
ATOM      3  C   UNL     1      94.575  82.337  88.311  1.00  0.00    -0.015 C 
BRANCH   3   4
ATOM      4  C   UNL     1      93.363  83.147  88.741  1.00  0.00     0.078 C 
ATOM      5  O   UNL     1      94.106  84.644  90.565  1.00  0.00    -0.319 OA
ATOM      6  C   UNL     1      93.582  84.636  89.202  1.00  0.00     0.095 C 
ATOM      7  C   UNL     1      93.485  83.711  91.470  1.00  0.00     0.289 C 
ATOM      8  C   UNL     1      92.171  85.357  89.180  1.00  0.00     0.023 C 
ATOM      9  O   UNL     1      93.584  82.375  90.984  1.00  0.00    -0.320 OA
ATOM     10  O   UNL     1      92.091  83.961  91.630  1.00  0.00    -0.313 OA
ATOM     11  C   UNL     1      92.637  82.428  89.906  1.00  0.00     0.170 C 
ATOM     12  C   UNL     1      91.019  84.371  89.545  1.00  0.00     0.049 C 
ATOM     13  C   UNL     1      92.060  86.618  90.053  1.00  0.00     0.011 C 
ATOM     14  C   UNL     1      91.492  83.280  90.507  1.00  0.00     0.122 C 
BRANCH   6  15
ATOM     15  C   UNL     1      94.694  85.318  88.353  1.00  0.00     0.086 C 
ATOM     16  C   UNL     1      94.667  85.028  86.838  1.00  0.00     0.140 CG0
ATOM     17  C   UNL     1      94.862  86.810  88.421  1.00  0.00    -0.010 C 
ATOM     18  C   UNL     1      95.157  86.334  86.248  1.00  0.00     0.190 C 
ATOM     19  G   UNL     1      95.558  83.845  86.461  1.00  0.00     0.000 G0
ATOM     20  C   UNL     1      95.150  87.407  87.260  1.00  0.00    -0.008 C 
ATOM     21  O   UNL     1      95.472  86.509  85.081  1.00  0.00    -0.291 OA
ATOM     22  C   UNL     1      95.458  88.822  86.968  1.00  0.00     0.048 C 
BRANCH  16  23
ATOM     23  O   UNL     1      93.362  84.884  86.304  1.00  0.00    -0.381 OA
ATOM     24  H   UNL     1      92.720  85.010  87.023  1.00  0.00     0.212 HD
ENDBRANCH  16  23
ENDBRANCH   6  15
BRANCH   7  25
ATOM     25  C   UNL     1      94.176  83.821  92.814  1.00  0.00     0.135 C 
BRANCH  25  26
ATOM     26  C   UNL     1      95.662  83.584  92.707  1.00  0.00    -0.040 A 
ATOM     27  C   UNL     1      96.557  84.548  93.172  1.00  0.00     0.004 A 
ATOM     28  C   UNL     1      96.141  82.402  92.143  1.00  0.00     0.004 A 
ATOM     29  C   UNL     1      97.931  84.329  93.073  1.00  0.00     0.000 A 
ATOM     30  C   UNL     1      97.516  82.183  92.044  1.00  0.00     0.000 A 
ATOM     31  C   UNL     1      98.410  83.148  92.510  1.00  0.00     0.000 A 
ENDBRANCH  25  26
ENDBRANCH   7  25
BRANCH  14  32
ATOM     32  C   UNL     1      90.370  82.435  91.014  1.00  0.00    -0.046 C 
ATOM     33  C   UNL     1      90.084  81.181  90.241  1.00  0.00     0.042 C 
ATOM     34  C   UNL     1      89.657  82.777  92.098  1.00  0.00     0.010 C 
ENDBRANCH  14  32
ENDBRANCH   3   4
BRANCH   2  35
ATOM     35  C   UNL     1      95.560  83.827  86.459  1.00  0.00     0.078 CG0
ATOM     36  G   UNL     1      94.671  85.013  86.828  1.00  0.00     0.000 G0
ENDBRANCH   2  35
ENDBRANCH   1   2
BRANCH   1  37
ATOM     37  O   UNL     1      95.970  80.306  86.890  1.00  0.00    -0.461 OA
BRANCH  37  38
ATOM     38  C   UNL     1      95.394  80.046  85.669  1.00  0.00     0.310 C 
ATOM     39  O   UNL     1      95.777  80.502  84.600  1.00  0.00    -0.252 OA
BRANCH  38  40
ATOM     40  C   UNL     1      94.219  79.115  85.853  1.00  0.00     0.158 C 
BRANCH  40  41
ATOM     41  C   UNL     1      92.898  79.765  85.530  1.00  0.00    -0.033 A 
ATOM     42  C   UNL     1      91.739  78.990  85.457  1.00  0.00     0.054 A 
ATOM     43  C   UNL     1      92.833  81.139  85.306  1.00  0.00     0.008 A 
ATOM     44  C   UNL     1      90.516  79.591  85.159  1.00  0.00     0.160 A 
ATOM     45  C   UNL     1      91.610  81.741  85.007  1.00  0.00     0.050 A 
ATOM     46  C   UNL     1      90.452  80.967  84.933  1.00  0.00     0.157 A 
BRANCH  44  47
ATOM     47  O   UNL     1      89.392  78.825  85.089  1.00  0.00    -0.493 OA
ATOM     48  C   UNL     1      89.519  77.542  84.478  1.00  0.00     0.278 C 
ENDBRANCH  44  47
BRANCH  46  49
ATOM     49  O   UNL     1      89.263  81.565  84.642  1.00  0.00    -0.504 OA
ATOM     50  H   UNL     1      89.041  81.391  83.712  1.00  0.00     0.293 HD
ENDBRANCH  46  49
ENDBRANCH  40  41
ENDBRANCH  38  40
ENDBRANCH  37  38
ENDBRANCH   1  37
TORSDOF 11
ENDMDL
MODEL 9
REMARK VINA RESULT:    -5.694      1.990      3.290
REMARK INTER + INTRA:         -11.014
REMARK INTER:                  -9.782
REMARK INTRA:                  -1.232
REMARK UNBOUND:                -0.992
REMARK SMILES C=C(C)[C@]12C[C@@H](C)[C@@]34O[C@](Cc5ccccc5)(O[C@@H]1[C@@H]3C=C(COC(=O)Cc1ccc(O)c(OC)c1)C[C@]1(O)C(=O)C(C)=C[C@@H]41)O2
REMARK SMILES IDX 23 1 22 2 21 3 20 4 9 5 8 6 10 7 6 8 18 9 46 10 19 11 5 12
REMARK SMILES IDX 7 13 4 14 45 15 38 16 44 17 40 18 42 20 41 21 43 22 39 23
REMARK SMILES IDX 11 25 12 26 13 27 17 28 14 29 16 30 15 31 2 32 3 33 1 34
REMARK SMILES IDX 37 35 24 37 25 38 26 39 27 40 28 41 36 42 29 43 33 44 30 45
REMARK SMILES IDX 31 46 34 47 35 48 32 49
REMARK H PARENT 39 24 32 50
REMARK Flexibility Score: 90.00
ROOT
ATOM      1  C   UNL     1      92.884  84.441  86.936  1.00  0.00     0.264 C 
ENDROOT
BRANCH   1   2
ATOM      2  C   UNL     1      93.479  83.203  86.305  1.00  0.00    -0.033 C 
ATOM      3  C   UNL     1      94.518  83.330  85.456  1.00  0.00    -0.015 C 
BRANCH   3   4
ATOM      4  C   UNL     1      95.235  82.265  84.643  1.00  0.00     0.078 C 
ATOM      5  O   UNL     1      97.142  81.478  86.009  1.00  0.00    -0.319 OA
ATOM      6  C   UNL     1      95.882  81.049  85.406  1.00  0.00     0.095 C 
ATOM      7  C   UNL     1      97.973  82.308  85.175  1.00  0.00     0.289 C 
ATOM      8  C   UNL     1      96.171  79.912  84.341  1.00  0.00     0.023 C 
ATOM      9  O   UNL     1      97.280  83.482  84.760  1.00  0.00    -0.320 OA
ATOM     10  O   UNL     1      98.365  81.648  83.974  1.00  0.00    -0.313 OA
ATOM     11  C   UNL     1      96.367  82.913  83.808  1.00  0.00     0.170 C 
ATOM     12  C   UNL     1      96.541  80.514  82.950  1.00  0.00     0.049 C 
ATOM     13  C   UNL     1      97.233  78.879  84.750  1.00  0.00     0.011 C 
ATOM     14  C   UNL     1      97.248  81.863  83.087  1.00  0.00     0.122 C 
BRANCH   6  15
ATOM     15  C   UNL     1      94.998  80.623  86.615  1.00  0.00     0.086 C 
ATOM     16  C   UNL     1      93.476  80.592  86.366  1.00  0.00     0.140 CG0
ATOM     17  C   UNL     1      95.268  79.312  87.298  1.00  0.00    -0.010 C 
ATOM     18  C   UNL     1      93.028  79.434  87.232  1.00  0.00     0.190 C 
ATOM     19  G   UNL     1      92.801  81.907  86.753  1.00  0.00     0.000 G0
ATOM     20  C   UNL     1      94.182  78.633  87.683  1.00  0.00    -0.008 C 
ATOM     21  O   UNL     1      91.868  79.152  87.493  1.00  0.00    -0.291 OA
ATOM     22  C   UNL     1      94.069  77.371  88.442  1.00  0.00     0.048 C 
BRANCH  16  23
ATOM     23  O   UNL     1      93.116  80.193  85.054  1.00  0.00    -0.381 OA
ATOM     24  H   UNL     1      93.849  79.676  84.679  1.00  0.00     0.212 HD
ENDBRANCH  16  23
ENDBRANCH   6  15
BRANCH   7  25
ATOM     25  C   UNL     1      99.206  82.694  85.967  1.00  0.00     0.135 C 
BRANCH  25  26
ATOM     26  C   UNL     1      99.381  81.835  87.195  1.00  0.00    -0.040 A 
ATOM     27  C   UNL     1      98.976  82.312  88.442  1.00  0.00     0.004 A 
ATOM     28  C   UNL     1      99.945  80.565  87.084  1.00  0.00     0.004 A 
ATOM     29  C   UNL     1      99.137  81.518  89.578  1.00  0.00     0.000 A 
ATOM     30  C   UNL     1     100.107  79.771  88.220  1.00  0.00     0.000 A 
ATOM     31  C   UNL     1      99.703  80.249  89.467  1.00  0.00     0.000 A 
ENDBRANCH  25  26
ENDBRANCH   7  25
BRANCH  14  32
ATOM     32  C   UNL     1      97.774  82.371  81.784  1.00  0.00    -0.046 C 
ATOM     33  C   UNL     1      96.761  82.953  80.843  1.00  0.00     0.042 C 
ATOM     34  C   UNL     1      99.077  82.310  81.473  1.00  0.00     0.010 C 
ENDBRANCH  14  32
ENDBRANCH   3   4
BRANCH   2  35
ATOM     35  C   UNL     1      92.792  81.924  86.744  1.00  0.00     0.078 CG0
ATOM     36  G   UNL     1      93.467  80.605  86.372  1.00  0.00     0.000 G0
ENDBRANCH   2  35
ENDBRANCH   1   2
BRANCH   1  37
ATOM     37  O   UNL     1      93.097  84.403  88.330  1.00  0.00    -0.461 OA
BRANCH  37  38
ATOM     38  C   UNL     1      92.411  85.333  89.076  1.00  0.00     0.310 C 
ATOM     39  O   UNL     1      91.249  85.667  88.887  1.00  0.00    -0.252 OA
BRANCH  38  40
ATOM     40  C   UNL     1      93.313  85.875  90.160  1.00  0.00     0.158 C 
BRANCH  40  41
ATOM     41  C   UNL     1      93.687  87.319  89.945  1.00  0.00    -0.033 A 
ATOM     42  C   UNL     1      94.640  87.657  88.984  1.00  0.00     0.054 A 
ATOM     43  C   UNL     1      93.081  88.318  90.707  1.00  0.00     0.008 A 
ATOM     44  C   UNL     1      94.986  88.994  88.785  1.00  0.00     0.160 A 
ATOM     45  C   UNL     1      93.427  89.654  90.509  1.00  0.00     0.050 A 
ATOM     46  C   UNL     1      94.380  89.993  89.548  1.00  0.00     0.157 A 
BRANCH  44  47
ATOM     47  O   UNL     1      95.918  89.312  87.844  1.00  0.00    -0.493 OA
ATOM     48  C   UNL     1      95.558  89.104  86.479  1.00  0.00     0.278 C 
ENDBRANCH  44  47
BRANCH  46  49
ATOM     49  O   UNL     1      94.709  91.301  89.362  1.00  0.00    -0.504 OA
ATOM     50  H   UNL     1      94.555  91.787  90.190  1.00  0.00     0.293 HD
ENDBRANCH  46  49
ENDBRANCH  40  41
ENDBRANCH  38  40
ENDBRANCH  37  38
ENDBRANCH   1  37
TORSDOF 11
ENDMDL
MODEL 10
REMARK VINA RESULT:    -5.675     20.033     25.773
REMARK INTER + INTRA:         -10.980
REMARK INTER:                 -10.137
REMARK INTRA:                  -0.843
REMARK UNBOUND:                -0.992
REMARK SMILES C=C(C)[C@]12C[C@@H](C)[C@@]34O[C@](Cc5ccccc5)(O[C@@H]1[C@@H]3C=C(COC(=O)Cc1ccc(O)c(OC)c1)C[C@]1(O)C(=O)C(C)=C[C@@H]41)O2
REMARK SMILES IDX 23 1 22 2 21 3 20 4 9 5 8 6 10 7 6 8 18 9 46 10 19 11 5 12
REMARK SMILES IDX 7 13 4 14 45 15 38 16 44 17 40 18 42 20 41 21 43 22 39 23
REMARK SMILES IDX 11 25 12 26 13 27 17 28 14 29 16 30 15 31 2 32 3 33 1 34
REMARK SMILES IDX 37 35 24 37 25 38 26 39 27 40 28 41 36 42 29 43 33 44 30 45
REMARK SMILES IDX 31 46 34 47 35 48 32 49
REMARK H PARENT 39 24 32 50
REMARK Flexibility Score: 90.00
ROOT
ATOM      1  C   UNL     1      76.633  68.550  85.004  1.00  0.00     0.264 C 
ENDROOT
BRANCH   1   2
ATOM      2  C   UNL     1      76.249  69.343  86.231  1.00  0.00    -0.033 C 
ATOM      3  C   UNL     1      77.130  70.220  86.752  1.00  0.00    -0.015 C 
BRANCH   3   4
ATOM      4  C   UNL     1      77.019  71.071  88.007  1.00  0.00     0.078 C 
ATOM      5  O   UNL     1      76.080  73.253  87.317  1.00  0.00    -0.319 OA
ATOM      6  C   UNL     1      75.808  72.069  88.129  1.00  0.00     0.095 C 
ATOM      7  C   UNL     1      77.424  73.763  87.401  1.00  0.00     0.289 C 
ATOM      8  C   UNL     1      75.689  72.495  89.651  1.00  0.00     0.023 C 
ATOM      9  O   UNL     1      78.378  72.769  87.035  1.00  0.00    -0.320 OA
ATOM     10  O   UNL     1      77.770  74.160  88.726  1.00  0.00    -0.313 OA
ATOM     11  C   UNL     1      78.305  71.914  88.187  1.00  0.00     0.170 C 
ATOM     12  C   UNL     1      77.087  72.550  90.340  1.00  0.00     0.049 C 
ATOM     13  C   UNL     1      74.938  73.811  89.912  1.00  0.00     0.011 C 
ATOM     14  C   UNL     1      78.191  72.930  89.351  1.00  0.00     0.122 C 
BRANCH   6  15
ATOM     15  C   UNL     1      74.522  71.456  87.504  1.00  0.00     0.086 C 
ATOM     16  C   UNL     1      74.265  69.964  87.802  1.00  0.00     0.140 CG0
ATOM     17  C   UNL     1      73.191  72.101  87.776  1.00  0.00    -0.010 C 
ATOM     18  C   UNL     1      72.754  69.902  87.877  1.00  0.00     0.190 C 
ATOM     19  G   UNL     1      74.836  69.053  86.716  1.00  0.00     0.000 G0
ATOM     20  C   UNL     1      72.173  71.255  87.962  1.00  0.00    -0.008 C 
ATOM     21  O   UNL     1      72.089  68.878  87.914  1.00  0.00    -0.291 OA
ATOM     22  C   UNL     1      70.735  71.527  88.166  1.00  0.00     0.048 C 
BRANCH  16  23
ATOM     23  O   UNL     1      74.685  69.557  89.093  1.00  0.00    -0.381 OA
ATOM     24  H   UNL     1      74.784  68.590  89.093  1.00  0.00     0.212 HD
ENDBRANCH  16  23
ENDBRANCH   6  15
BRANCH   7  25
ATOM     25  C   UNL     1      77.541  74.952  86.470  1.00  0.00     0.135 C 
BRANCH  25  26
ATOM     26  C   UNL     1      77.874  74.535  85.059  1.00  0.00    -0.040 A 
ATOM     27  C   UNL     1      78.842  75.233  84.335  1.00  0.00     0.004 A 
ATOM     28  C   UNL     1      77.216  73.451  84.478  1.00  0.00     0.004 A 
ATOM     29  C   UNL     1      79.150  74.847  83.030  1.00  0.00     0.000 A 
ATOM     30  C   UNL     1      77.524  73.065  83.173  1.00  0.00     0.000 A 
ATOM     31  C   UNL     1      78.491  73.764  82.450  1.00  0.00     0.000 A 
ENDBRANCH  25  26
ENDBRANCH   7  25
BRANCH  14  32
ATOM     32  C   UNL     1      79.505  73.167  90.020  1.00  0.00    -0.046 C 
ATOM     33  C   UNL     1      79.468  73.971  91.286  1.00  0.00     0.042 C 
ATOM     34  C   UNL     1      80.653  72.688  89.518  1.00  0.00     0.010 C 
ENDBRANCH  14  32
ENDBRANCH   3   4
BRANCH   2  35
ATOM     35  C   UNL     1      74.850  69.031  86.728  1.00  0.00     0.078 CG0
ATOM     36  G   UNL     1      74.271  69.945  87.806  1.00  0.00     0.000 G0
ENDBRANCH   2  35
ENDBRANCH   1   2
BRANCH   1  37
ATOM     37  O   UNL     1      77.145  67.296  85.400  1.00  0.00    -0.461 OA
BRANCH  37  38
ATOM     38  C   UNL     1      76.761  66.215  84.641  1.00  0.00     0.310 C 
ATOM     39  O   UNL     1      77.343  65.139  84.606  1.00  0.00    -0.252 OA
BRANCH  38  40
ATOM     40  C   UNL     1      75.515  66.562  83.861  1.00  0.00     0.158 C 
BRANCH  40  41
ATOM     41  C   UNL     1      74.357  65.647  84.164  1.00  0.00    -0.033 A 
ATOM     42  C   UNL     1      73.910  64.746  83.197  1.00  0.00     0.054 A 
ATOM     43  C   UNL     1      73.734  65.699  85.410  1.00  0.00     0.008 A 
ATOM     44  C   UNL     1      72.838  63.898  83.477  1.00  0.00     0.160 A 
ATOM     45  C   UNL     1      72.662  64.851  85.690  1.00  0.00     0.050 A 
ATOM     46  C   UNL     1      72.214  63.951  84.724  1.00  0.00     0.157 A 
BRANCH  44  47
ATOM     47  O   UNL     1      72.409  63.023  82.525  1.00  0.00    -0.493 OA
ATOM     48  C   UNL     1      71.610  63.554  81.469  1.00  0.00     0.278 C 
ENDBRANCH  44  47
BRANCH  46  49
ATOM     49  O   UNL     1      71.167  63.127  85.009  1.00  0.00    -0.504 OA
ATOM     50  H   UNL     1      70.623  63.019  84.211  1.00  0.00     0.293 HD
ENDBRANCH  46  49
ENDBRANCH  40  41
ENDBRANCH  38  40
ENDBRANCH  37  38
ENDBRANCH   1  37
TORSDOF 11
ENDMDL
