MODEL 1
REMARK VINA RESULT:    -7.597      0.000      0.000
REMARK INTER + INTRA:          -9.316
REMARK INTER:                  -8.930
REMARK INTRA:                  -0.387
REMARK UNBOUND:                -0.387
REMARK SMILES O=C(/C=C/C=C/c1ccc2c(c1)OCO2)N1CCCCC1
REMARK SMILES IDX 3 1 4 2 2 3 1 4 16 5 17 6 21 7 18 8 20 9 19 10 5 11 6 12
REMARK SMILES IDX 7 13 12 14 8 15 11 16 9 17 13 18 10 19 14 20 15 21
REMARK H PARENT
REMARK Flexibility Score: inf
ROOT
ATOM      1  C   UNL     1      97.514  83.888  76.810  1.00  0.00     0.071 C 
ATOM      2  C   UNL     1      96.395  83.949  77.529  1.00  0.00     0.006 C 
ENDROOT
BRANCH   1   3
ATOM      3  C   UNL     1      97.455  84.305  75.395  1.00  0.00     0.246 C 
ATOM      4  O   UNL     1      96.354  84.619  74.940  1.00  0.00    -0.270 OA
ATOM      5  N   UNL     1      98.644  84.311  74.669  1.00  0.00    -0.339 N 
ATOM      6  C   UNL     1      98.616  84.715  73.260  1.00  0.00     0.120 C 
ATOM      7  C   UNL     1      99.967  83.901  75.164  1.00  0.00     0.120 C 
ATOM      8  C   UNL     1      99.633  85.815  72.975  1.00  0.00     0.022 C 
ATOM      9  C   UNL     1     101.017  84.978  74.894  1.00  0.00     0.022 C 
ATOM     10  C   UNL     1     101.029  85.398  73.427  1.00  0.00     0.004 C 
ENDBRANCH   1   3
BRANCH   2  11
ATOM     11  C   UNL     1      96.353  83.562  78.923  1.00  0.00     0.001 C 
ATOM     12  C   UNL     1      97.445  83.177  79.603  1.00  0.00     0.008 C 
BRANCH  12  13
ATOM     13  C   UNL     1      97.458  82.765  81.017  1.00  0.00    -0.022 A 
ATOM     14  C   UNL     1      96.593  83.384  81.908  1.00  0.00     0.058 A 
ATOM     15  C   UNL     1      98.342  81.762  81.422  1.00  0.00     0.012 A 
ATOM     16  C   UNL     1      96.641  82.965  83.222  1.00  0.00     0.166 A 
ATOM     17  C   UNL     1      98.371  81.357  82.759  1.00  0.00     0.051 A 
ATOM     18  O   UNL     1      95.879  83.446  84.242  1.00  0.00    -0.454 OA
ATOM     19  C   UNL     1      97.507  81.978  83.636  1.00  0.00     0.165 A 
ATOM     20  C   UNL     1      96.362  82.651  85.344  1.00  0.00     0.468 C 
ATOM     21  O   UNL     1      97.395  81.717  84.967  1.00  0.00    -0.454 OA
ENDBRANCH  12  13
ENDBRANCH   2  11
TORSDOF 3
ENDMDL
MODEL 2
REMARK VINA RESULT:    -7.495      9.335     11.283
REMARK INTER + INTRA:          -9.196
REMARK INTER:                  -8.885
REMARK INTRA:                  -0.312
REMARK UNBOUND:                -0.387
REMARK SMILES O=C(/C=C/C=C/c1ccc2c(c1)OCO2)N1CCCCC1
REMARK SMILES IDX 3 1 4 2 2 3 1 4 16 5 17 6 21 7 18 8 20 9 19 10 5 11 6 12
REMARK SMILES IDX 7 13 12 14 8 15 11 16 9 17 13 18 10 19 14 20 15 21
REMARK H PARENT
REMARK Flexibility Score: inf
ROOT
ATOM      1  C   UNL     1      93.185  85.744  86.481  1.00  0.00     0.071 C 
ATOM      2  C   UNL     1      93.587  84.708  85.748  1.00  0.00     0.006 C 
ENDROOT
BRANCH   1   3
ATOM      3  C   UNL     1      93.982  86.985  86.426  1.00  0.00     0.246 C 
ATOM      4  O   UNL     1      94.609  87.213  85.390  1.00  0.00    -0.270 OA
ATOM      5  N   UNL     1      93.976  87.812  87.548  1.00  0.00    -0.339 N 
ATOM      6  C   UNL     1      94.762  89.049  87.524  1.00  0.00     0.120 C 
ATOM      7  C   UNL     1      93.277  87.552  88.816  1.00  0.00     0.120 C 
ATOM      8  C   UNL     1      93.911  90.258  87.898  1.00  0.00     0.022 C 
ATOM      9  C   UNL     1      92.414  88.744  89.227  1.00  0.00     0.022 C 
ATOM     10  C   UNL     1      93.215  90.043  89.239  1.00  0.00     0.004 C 
ENDBRANCH   1   3
BRANCH   2  11
ATOM     11  C   UNL     1      92.872  83.449  85.737  1.00  0.00     0.001 C 
ATOM     12  C   UNL     1      92.479  82.847  84.603  1.00  0.00     0.008 C 
BRANCH  12  13
ATOM     13  C   UNL     1      91.743  81.573  84.535  1.00  0.00    -0.022 A 
ATOM     14  C   UNL     1      90.365  81.597  84.366  1.00  0.00     0.058 A 
ATOM     15  C   UNL     1      92.453  80.374  84.642  1.00  0.00     0.012 A 
ATOM     16  C   UNL     1      89.721  80.378  84.307  1.00  0.00     0.166 A 
ATOM     17  C   UNL     1      91.775  79.155  84.579  1.00  0.00     0.051 A 
ATOM     18  O   UNL     1      88.382  80.190  84.148  1.00  0.00    -0.454 OA
ATOM     19  C   UNL     1      90.406  79.190  84.411  1.00  0.00     0.165 A 
ATOM     20  C   UNL     1      88.302  78.751  84.164  1.00  0.00     0.468 C 
ATOM     21  O   UNL     1      89.583  78.109  84.330  1.00  0.00    -0.454 OA
ENDBRANCH  12  13
ENDBRANCH   2  11
TORSDOF 3
ENDMDL
MODEL 3
REMARK VINA RESULT:    -7.396      0.883      1.604
REMARK INTER + INTRA:          -9.079
REMARK INTER:                  -8.720
REMARK INTRA:                  -0.360
REMARK UNBOUND:                -0.387
REMARK SMILES O=C(/C=C/C=C/c1ccc2c(c1)OCO2)N1CCCCC1
REMARK SMILES IDX 3 1 4 2 2 3 1 4 16 5 17 6 21 7 18 8 20 9 19 10 5 11 6 12
REMARK SMILES IDX 7 13 12 14 8 15 11 16 9 17 13 18 10 19 14 20 15 21
REMARK H PARENT
REMARK Flexibility Score: inf
ROOT
ATOM      1  C   UNL     1      97.696  83.945  77.142  1.00  0.00     0.071 C 
ATOM      2  C   UNL     1      97.055  82.926  77.710  1.00  0.00     0.006 C 
ENDROOT
BRANCH   1   3
ATOM      3  C   UNL     1      97.456  84.204  75.708  1.00  0.00     0.246 C 
ATOM      4  O   UNL     1      96.295  84.411  75.353  1.00  0.00    -0.270 OA
ATOM      5  N   UNL     1      98.557  84.191  74.853  1.00  0.00    -0.339 N 
ATOM      6  C   UNL     1      98.350  84.439  73.423  1.00  0.00     0.120 C 
ATOM      7  C   UNL     1      99.948  83.903  75.231  1.00  0.00     0.120 C 
ATOM      8  C   UNL     1      99.260  85.550  72.912  1.00  0.00     0.022 C 
ATOM      9  C   UNL     1     100.895  84.995  74.733  1.00  0.00     0.022 C 
ATOM     10  C   UNL     1     100.720  85.255  73.240  1.00  0.00     0.004 C 
ENDBRANCH   1   3
BRANCH   2  11
ATOM     11  C   UNL     1      97.225  82.594  79.109  1.00  0.00     0.001 C 
ATOM     12  C   UNL     1      96.751  83.364  80.101  1.00  0.00     0.008 C 
BRANCH  12  13
ATOM     13  C   UNL     1      96.902  83.078  81.538  1.00  0.00    -0.022 A 
ATOM     14  C   UNL     1      97.735  82.041  81.936  1.00  0.00     0.058 A 
ATOM     15  C   UNL     1      96.203  83.859  82.461  1.00  0.00     0.012 A 
ATOM     16  C   UNL     1      97.844  81.812  83.292  1.00  0.00     0.166 A 
ATOM     17  C   UNL     1      96.332  83.605  83.828  1.00  0.00     0.051 A 
ATOM     18  O   UNL     1      98.604  80.847  83.880  1.00  0.00    -0.454 OA
ATOM     19  C   UNL     1      97.162  82.573  84.214  1.00  0.00     0.165 A 
ATOM     20  C   UNL     1      98.324  81.087  85.274  1.00  0.00     0.468 C 
ATOM     21  O   UNL     1      97.409  82.181  85.493  1.00  0.00    -0.454 OA
ENDBRANCH  12  13
ENDBRANCH   2  11
TORSDOF 3
ENDMDL
MODEL 4
REMARK VINA RESULT:    -7.357      3.181      9.552
REMARK INTER + INTRA:          -9.034
REMARK INTER:                  -8.713
REMARK INTRA:                  -0.320
REMARK UNBOUND:                -0.387
REMARK SMILES O=C(/C=C/C=C/c1ccc2c(c1)OCO2)N1CCCCC1
REMARK SMILES IDX 3 1 4 2 2 3 1 4 16 5 17 6 21 7 18 8 20 9 19 10 5 11 6 12
REMARK SMILES IDX 7 13 12 14 8 15 11 16 9 17 13 18 10 19 14 20 15 21
REMARK H PARENT
REMARK Flexibility Score: inf
ROOT
ATOM      1  C   UNL     1      96.491  83.438  83.733  1.00  0.00     0.071 C 
ATOM      2  C   UNL     1      96.630  82.624  82.688  1.00  0.00     0.006 C 
ENDROOT
BRANCH   1   3
ATOM      3  C   UNL     1      96.185  82.836  85.046  1.00  0.00     0.246 C 
ATOM      4  O   UNL     1      96.985  82.013  85.495  1.00  0.00    -0.270 OA
ATOM      5  N   UNL     1      95.012  83.233  85.686  1.00  0.00    -0.339 N 
ATOM      6  C   UNL     1      94.679  82.648  86.988  1.00  0.00     0.120 C 
ATOM      7  C   UNL     1      94.013  84.176  85.162  1.00  0.00     0.120 C 
ATOM      8  C   UNL     1      94.398  83.728  88.028  1.00  0.00     0.022 C 
ATOM      9  C   UNL     1      93.701  85.273  86.179  1.00  0.00     0.022 C 
ATOM     10  C   UNL     1      93.323  84.692  87.538  1.00  0.00     0.004 C 
ENDBRANCH   1   3
BRANCH   2  11
ATOM     11  C   UNL     1      96.930  83.120  81.362  1.00  0.00     0.001 C 
ATOM     12  C   UNL     1      97.124  82.309  80.309  1.00  0.00     0.008 C 
BRANCH  12  13
ATOM     13  C   UNL     1      97.438  82.759  78.943  1.00  0.00    -0.022 A 
ATOM     14  C   UNL     1      96.567  83.628  78.300  1.00  0.00     0.058 A 
ATOM     15  C   UNL     1      98.606  82.299  78.330  1.00  0.00     0.012 A 
ATOM     16  C   UNL     1      96.905  84.022  77.022  1.00  0.00     0.166 A 
ATOM     17  C   UNL     1      98.924  82.714  77.035  1.00  0.00     0.051 A 
ATOM     18  O   UNL     1      96.185  84.863  76.229  1.00  0.00    -0.454 OA
ATOM     19  C   UNL     1      98.052  83.577  76.405  1.00  0.00     0.165 A 
ATOM     20  C   UNL     1      97.008  84.898  75.046  1.00  0.00     0.468 C 
ATOM     21  O   UNL     1      98.195  84.084  75.150  1.00  0.00    -0.454 OA
ENDBRANCH  12  13
ENDBRANCH   2  11
TORSDOF 3
ENDMDL
MODEL 5
REMARK VINA RESULT:    -6.996      2.955      9.314
REMARK INTER + INTRA:          -8.610
REMARK INTER:                  -8.272
REMARK INTRA:                  -0.338
REMARK UNBOUND:                -0.387
REMARK SMILES O=C(/C=C/C=C/c1ccc2c(c1)OCO2)N1CCCCC1
REMARK SMILES IDX 3 1 4 2 2 3 1 4 16 5 17 6 21 7 18 8 20 9 19 10 5 11 6 12
REMARK SMILES IDX 7 13 12 14 8 15 11 16 9 17 13 18 10 19 14 20 15 21
REMARK H PARENT
REMARK Flexibility Score: inf
ROOT
ATOM      1  C   UNL     1      96.683  82.361  82.038  1.00  0.00     0.071 C 
ATOM      2  C   UNL     1      96.684  83.321  81.115  1.00  0.00     0.006 C 
ENDROOT
BRANCH   1   3
ATOM      3  C   UNL     1      95.939  82.601  83.290  1.00  0.00     0.246 C 
ATOM      4  O   UNL     1      95.579  83.755  83.525  1.00  0.00    -0.270 OA
ATOM      5  N   UNL     1      95.700  81.510  84.123  1.00  0.00    -0.339 N 
ATOM      6  C   UNL     1      94.968  81.719  85.376  1.00  0.00     0.120 C 
ATOM      7  C   UNL     1      96.152  80.129  83.898  1.00  0.00     0.120 C 
ATOM      8  C   UNL     1      93.784  80.765  85.496  1.00  0.00     0.022 C 
ATOM      9  C   UNL     1      94.992  79.141  84.013  1.00  0.00     0.022 C 
ATOM     10  C   UNL     1      94.229  79.317  85.323  1.00  0.00     0.004 C 
ENDBRANCH   1   3
BRANCH   2  11
ATOM     11  C   UNL     1      97.385  83.178  79.856  1.00  0.00     0.001 C 
ATOM     12  C   UNL     1      96.830  83.499  78.676  1.00  0.00     0.008 C 
BRANCH  12  13
ATOM     13  C   UNL     1      97.494  83.366  77.368  1.00  0.00    -0.022 A 
ATOM     14  C   UNL     1      97.046  84.135  76.302  1.00  0.00     0.058 A 
ATOM     15  C   UNL     1      98.556  82.469  77.235  1.00  0.00     0.012 A 
ATOM     16  C   UNL     1      97.700  83.976  75.097  1.00  0.00     0.166 A 
ATOM     17  C   UNL     1      99.200  82.327  76.004  1.00  0.00     0.051 A 
ATOM     18  O   UNL     1      97.412  84.633  73.940  1.00  0.00    -0.454 OA
ATOM     19  C   UNL     1      98.748  83.096  74.952  1.00  0.00     0.165 A 
ATOM     20  C   UNL     1      98.396  84.068  73.051  1.00  0.00     0.468 C 
ATOM     21  O   UNL     1      99.247  83.092  73.686  1.00  0.00    -0.454 OA
ENDBRANCH  12  13
ENDBRANCH   2  11
TORSDOF 3
ENDMDL
MODEL 6
REMARK VINA RESULT:    -6.892     12.991     14.511
REMARK INTER + INTRA:          -8.488
REMARK INTER:                  -8.135
REMARK INTRA:                  -0.353
REMARK UNBOUND:                -0.387
REMARK SMILES O=C(/C=C/C=C/c1ccc2c(c1)OCO2)N1CCCCC1
REMARK SMILES IDX 3 1 4 2 2 3 1 4 16 5 17 6 21 7 18 8 20 9 19 10 5 11 6 12
REMARK SMILES IDX 7 13 12 14 8 15 11 16 9 17 13 18 10 19 14 20 15 21
REMARK H PARENT
REMARK Flexibility Score: inf
ROOT
ATOM      1  C   UNL     1      96.253  97.476  72.769  1.00  0.00     0.071 C 
ATOM      2  C   UNL     1      95.032  97.886  73.110  1.00  0.00     0.006 C 
ENDROOT
BRANCH   1   3
ATOM      3  C   UNL     1      97.165  98.455  72.147  1.00  0.00     0.246 C 
ATOM      4  O   UNL     1      97.438  99.469  72.791  1.00  0.00    -0.270 OA
ATOM      5  N   UNL     1      97.653  98.170  70.872  1.00  0.00    -0.339 N 
ATOM      6  C   UNL     1      98.557  99.126  70.226  1.00  0.00     0.120 C 
ATOM      7  C   UNL     1      97.315  96.995  70.055  1.00  0.00     0.120 C 
ATOM      8  C   UNL     1      99.837  98.448  69.750  1.00  0.00     0.022 C 
ATOM      9  C   UNL     1      98.575  96.289  69.555  1.00  0.00     0.022 C 
ATOM     10  C   UNL     1      99.522  97.256  68.852  1.00  0.00     0.004 C 
ENDBRANCH   1   3
BRANCH   2  11
ATOM     11  C   UNL     1      94.067  97.000  73.725  1.00  0.00     0.001 C 
ATOM     12  C   UNL     1      94.091  96.695  75.033  1.00  0.00     0.008 C 
BRANCH  12  13
ATOM     13  C   UNL     1      93.141  95.795  75.707  1.00  0.00    -0.022 A 
ATOM     14  C   UNL     1      92.396  94.905  74.946  1.00  0.00     0.058 A 
ATOM     15  C   UNL     1      93.014  95.861  77.097  1.00  0.00     0.012 A 
ATOM     16  C   UNL     1      91.519  94.082  75.623  1.00  0.00     0.166 A 
ATOM     17  C   UNL     1      92.119  95.017  77.757  1.00  0.00     0.051 A 
ATOM     18  O   UNL     1      90.704  93.148  75.059  1.00  0.00    -0.454 OA
ATOM     19  C   UNL     1      91.384  94.136  76.991  1.00  0.00     0.165 A 
ATOM     20  C   UNL     1      90.041  92.622  76.227  1.00  0.00     0.468 C 
ATOM     21  O   UNL     1      90.468  93.244  77.456  1.00  0.00    -0.454 OA
ENDBRANCH  12  13
ENDBRANCH   2  11
TORSDOF 3
ENDMDL
MODEL 7
REMARK VINA RESULT:    -6.874      7.434     11.399
REMARK INTER + INTRA:          -8.467
REMARK INTER:                  -8.063
REMARK INTRA:                  -0.404
REMARK UNBOUND:                -0.387
REMARK SMILES O=C(/C=C/C=C/c1ccc2c(c1)OCO2)N1CCCCC1
REMARK SMILES IDX 3 1 4 2 2 3 1 4 16 5 17 6 21 7 18 8 20 9 19 10 5 11 6 12
REMARK SMILES IDX 7 13 12 14 8 15 11 16 9 17 13 18 10 19 14 20 15 21
REMARK H PARENT
REMARK Flexibility Score: inf
ROOT
ATOM      1  C   UNL     1      93.637  85.026  86.905  1.00  0.00     0.071 C 
ATOM      2  C   UNL     1      93.495  85.211  88.216  1.00  0.00     0.006 C 
ENDROOT
BRANCH   1   3
ATOM      3  C   UNL     1      93.876  83.653  86.419  1.00  0.00     0.246 C 
ATOM      4  O   UNL     1      93.130  82.765  86.833  1.00  0.00    -0.270 OA
ATOM      5  N   UNL     1      94.931  83.453  85.529  1.00  0.00    -0.339 N 
ATOM      6  C   UNL     1      95.196  82.099  85.034  1.00  0.00     0.120 C 
ATOM      7  C   UNL     1      95.868  84.478  85.048  1.00  0.00     0.120 C 
ATOM      8  C   UNL     1      95.255  82.065  83.510  1.00  0.00     0.022 C 
ATOM      9  C   UNL     1      95.959  84.473  83.522  1.00  0.00     0.022 C 
ATOM     10  C   UNL     1      96.262  83.080  82.980  1.00  0.00     0.004 C 
ENDBRANCH   1   3
BRANCH   2  11
ATOM     11  C   UNL     1      93.258  86.520  88.787  1.00  0.00     0.001 C 
ATOM     12  C   UNL     1      93.622  87.657  88.173  1.00  0.00     0.008 C 
BRANCH  12  13
ATOM     13  C   UNL     1      93.413  89.012  88.712  1.00  0.00    -0.022 A 
ATOM     14  C   UNL     1      94.249  90.040  88.299  1.00  0.00     0.058 A 
ATOM     15  C   UNL     1      92.378  89.225  89.626  1.00  0.00     0.012 A 
ATOM     16  C   UNL     1      94.014  91.291  88.831  1.00  0.00     0.166 A 
ATOM     17  C   UNL     1      92.162  90.502  90.149  1.00  0.00     0.051 A 
ATOM     18  O   UNL     1      94.720  92.422  88.554  1.00  0.00    -0.454 OA
ATOM     19  C   UNL     1      92.998  91.516  89.732  1.00  0.00     0.165 A 
ATOM     20  C   UNL     1      94.034  93.383  89.382  1.00  0.00     0.468 C 
ATOM     21  O   UNL     1      92.940  92.816  90.132  1.00  0.00    -0.454 OA
ENDBRANCH  12  13
ENDBRANCH   2  11
TORSDOF 3
ENDMDL
MODEL 8
REMARK VINA RESULT:    -6.570     10.451     12.647
REMARK INTER + INTRA:          -8.109
REMARK INTER:                  -7.800
REMARK INTRA:                  -0.309
REMARK UNBOUND:                -0.387
REMARK SMILES O=C(/C=C/C=C/c1ccc2c(c1)OCO2)N1CCCCC1
REMARK SMILES IDX 3 1 4 2 2 3 1 4 16 5 17 6 21 7 18 8 20 9 19 10 5 11 6 12
REMARK SMILES IDX 7 13 12 14 8 15 11 16 9 17 13 18 10 19 14 20 15 21
REMARK H PARENT
REMARK Flexibility Score: inf
ROOT
ATOM      1  C   UNL     1      90.677  80.115  83.773  1.00  0.00     0.071 C 
ATOM      2  C   UNL     1      90.841  79.027  84.522  1.00  0.00     0.006 C 
ENDROOT
BRANCH   1   3
ATOM      3  C   UNL     1      90.195  81.345  84.430  1.00  0.00     0.246 C 
ATOM      4  O   UNL     1      91.037  82.089  84.934  1.00  0.00    -0.270 OA
ATOM      5  N   UNL     1      88.821  81.579  84.443  1.00  0.00    -0.339 N 
ATOM      6  C   UNL     1      88.311  82.790  85.093  1.00  0.00     0.120 C 
ATOM      7  C   UNL     1      87.783  80.694  83.893  1.00  0.00     0.120 C 
ATOM      8  C   UNL     1      87.402  83.583  84.161  1.00  0.00     0.022 C 
ATOM      9  C   UNL     1      86.847  81.455  82.954  1.00  0.00     0.022 C 
ATOM     10  C   UNL     1      86.279  82.706  83.616  1.00  0.00     0.004 C 
ENDBRANCH   1   3
BRANCH   2  11
ATOM     11  C   UNL     1      91.310  77.774  83.968  1.00  0.00     0.001 C 
ATOM     12  C   UNL     1      90.536  76.679  83.891  1.00  0.00     0.008 C 
BRANCH  12  13
ATOM     13  C   UNL     1      90.963  75.380  83.346  1.00  0.00    -0.022 A 
ATOM     14  C   UNL     1      90.924  74.258  84.163  1.00  0.00     0.058 A 
ATOM     15  C   UNL     1      91.396  75.311  82.019  1.00  0.00     0.012 A 
ATOM     16  C   UNL     1      91.334  73.064  83.606  1.00  0.00     0.166 A 
ATOM     17  C   UNL     1      91.805  74.089  81.481  1.00  0.00     0.051 A 
ATOM     18  O   UNL     1      91.371  71.860  84.240  1.00  0.00    -0.454 OA
ATOM     19  C   UNL     1      91.762  72.981  82.302  1.00  0.00     0.165 A 
ATOM     20  C   UNL     1      91.871  71.010  83.188  1.00  0.00     0.468 C 
ATOM     21  O   UNL     1      92.121  71.715  81.954  1.00  0.00    -0.454 OA
ENDBRANCH  12  13
ENDBRANCH   2  11
TORSDOF 3
ENDMDL
MODEL 9
REMARK VINA RESULT:    -6.494     24.152     25.973
REMARK INTER + INTRA:          -8.019
REMARK INTER:                  -7.662
REMARK INTRA:                  -0.357
REMARK UNBOUND:                -0.387
REMARK SMILES O=C(/C=C/C=C/c1ccc2c(c1)OCO2)N1CCCCC1
REMARK SMILES IDX 3 1 4 2 2 3 1 4 16 5 17 6 21 7 18 8 20 9 19 10 5 11 6 12
REMARK SMILES IDX 7 13 12 14 8 15 11 16 9 17 13 18 10 19 14 20 15 21
REMARK H PARENT
REMARK Flexibility Score: inf
ROOT
ATOM      1  C   UNL     1      74.562  92.158  71.621  1.00  0.00     0.071 C 
ATOM      2  C   UNL     1      73.786  91.256  71.023  1.00  0.00     0.006 C 
ENDROOT
BRANCH   1   3
ATOM      3  C   UNL     1      73.921  93.367  72.176  1.00  0.00     0.246 C 
ATOM      4  O   UNL     1      72.786  93.641  71.782  1.00  0.00    -0.270 OA
ATOM      5  N   UNL     1      74.643  94.119  73.102  1.00  0.00    -0.339 N 
ATOM      6  C   UNL     1      74.034  95.327  73.666  1.00  0.00     0.120 C 
ATOM      7  C   UNL     1      76.013  93.849  73.561  1.00  0.00     0.120 C 
ATOM      8  C   UNL     1      74.070  95.310  75.190  1.00  0.00     0.022 C 
ATOM      9  C   UNL     1      76.091  93.827  75.087  1.00  0.00     0.022 C 
ATOM     10  C   UNL     1      75.490  95.087  75.701  1.00  0.00     0.004 C 
ENDBRANCH   1   3
BRANCH   2  11
ATOM     11  C   UNL     1      74.322  90.040  70.449  1.00  0.00     0.001 C 
ATOM     12  C   UNL     1      75.290  90.042  69.518  1.00  0.00     0.008 C 
BRANCH  12  13
ATOM     13  C   UNL     1      75.864  88.837  68.895  1.00  0.00    -0.022 A 
ATOM     14  C   UNL     1      75.286  87.602  69.154  1.00  0.00     0.058 A 
ATOM     15  C   UNL     1      76.977  88.971  68.061  1.00  0.00     0.012 A 
ATOM     16  C   UNL     1      75.859  86.503  68.548  1.00  0.00     0.166 A 
ATOM     17  C   UNL     1      77.538  87.841  67.461  1.00  0.00     0.051 A 
ATOM     18  O   UNL     1      75.443  85.213  68.676  1.00  0.00    -0.454 OA
ATOM     19  C   UNL     1      76.955  86.619  67.724  1.00  0.00     0.165 A 
ATOM     20  C   UNL     1      76.399  84.531  67.839  1.00  0.00     0.468 C 
ATOM     21  O   UNL     1      77.362  85.417  67.232  1.00  0.00    -0.454 OA
ENDBRANCH  12  13
ENDBRANCH   2  11
TORSDOF 3
ENDMDL
MODEL 10
REMARK VINA RESULT:    -6.462     18.365     19.279
REMARK INTER + INTRA:          -7.982
REMARK INTER:                  -7.660
REMARK INTRA:                  -0.322
REMARK UNBOUND:                -0.387
REMARK SMILES O=C(/C=C/C=C/c1ccc2c(c1)OCO2)N1CCCCC1
REMARK SMILES IDX 3 1 4 2 2 3 1 4 16 5 17 6 21 7 18 8 20 9 19 10 5 11 6 12
REMARK SMILES IDX 7 13 12 14 8 15 11 16 9 17 13 18 10 19 14 20 15 21
REMARK H PARENT
REMARK Flexibility Score: inf
ROOT
ATOM      1  C   UNL     1      88.098  71.443  69.285  1.00  0.00     0.071 C 
ATOM      2  C   UNL     1      88.293  70.905  70.487  1.00  0.00     0.006 C 
ENDROOT
BRANCH   1   3
ATOM      3  C   UNL     1      89.161  72.302  68.727  1.00  0.00     0.246 C 
ATOM      4  O   UNL     1      90.277  72.232  69.242  1.00  0.00    -0.270 OA
ATOM      5  N   UNL     1      88.830  73.136  67.661  1.00  0.00    -0.339 N 
ATOM      6  C   UNL     1      89.863  74.005  67.090  1.00  0.00     0.120 C 
ATOM      7  C   UNL     1      87.500  73.279  67.050  1.00  0.00     0.120 C 
ATOM      8  C   UNL     1      89.971  73.824  65.579  1.00  0.00     0.022 C 
ATOM      9  C   UNL     1      87.567  73.108  65.533  1.00  0.00     0.022 C 
ATOM     10  C   UNL     1      88.616  74.022  64.907  1.00  0.00     0.004 C 
ENDBRANCH   1   3
BRANCH   2  11
ATOM     11  C   UNL     1      87.309  70.050  71.117  1.00  0.00     0.001 C 
ATOM     12  C   UNL     1      87.078  70.059  72.439  1.00  0.00     0.008 C 
BRANCH  12  13
ATOM     13  C   UNL     1      86.097  69.206  73.131  1.00  0.00    -0.022 A 
ATOM     14  C   UNL     1      85.029  68.686  72.413  1.00  0.00     0.058 A 
ATOM     15  C   UNL     1      86.268  68.945  74.493  1.00  0.00     0.012 A 
ATOM     16  C   UNL     1      84.137  67.892  73.105  1.00  0.00     0.166 A 
ATOM     17  C   UNL     1      85.349  68.138  75.168  1.00  0.00     0.051 A 
ATOM     18  O   UNL     1      83.031  67.293  72.583  1.00  0.00    -0.454 OA
ATOM     19  C   UNL     1      84.292  67.626  74.446  1.00  0.00     0.165 A 
ATOM     20  C   UNL     1      82.509  66.620  73.747  1.00  0.00     0.468 C 
ATOM     21  O   UNL     1      83.304  66.826  74.932  1.00  0.00    -0.454 OA
ENDBRANCH  12  13
ENDBRANCH   2  11
TORSDOF 3
ENDMDL
