MODEL 1
REMARK VINA RESULT:    -6.475      0.000      0.000
REMARK INTER + INTRA:         -11.469
REMARK INTER:                 -10.449
REMARK INTRA:                  -1.020
REMARK UNBOUND:                -1.020
REMARK SMILES COc1cc(CNC(=O)CCCCC/C=C/C(C)C)ccc1O
REMARK SMILES IDX 11 1 10 2 8 3 7 4 9 6 6 7 5 8 3 9 22 10 4 11 21 12 20 13
REMARK SMILES IDX 2 14 1 15 23 16 12 18 13 19 14 20 15 21 16 22 17 23 18 24
REMARK SMILES IDX 19 25
REMARK H PARENT 7 5 23 17
REMARK Flexibility Score: inf
ROOT
ATOM      1  C   UNL     1      94.056  95.560  74.885  1.00  0.00     0.010 C 
ENDROOT
BRANCH   1   2
ATOM      2  C   UNL     1      95.200  96.526  74.485  1.00  0.00     0.100 C 
BRANCH   2   3
ATOM      3  C   UNL     1      96.119  96.859  75.589  1.00  0.00     0.220 C 
ATOM      4  N   UNL     1      96.316  95.967  76.599  1.00  0.00    -0.352 N 
ATOM      5  H   UNL     1      95.739  95.139  76.549  1.00  0.00     0.163 HD
ATOM      6  O   UNL     1      96.731  97.952  75.545  1.00  0.00    -0.275 OA
BRANCH   4   7
ATOM      7  C   UNL     1      97.245  96.121  77.671  1.00  0.00     0.151 C 
BRANCH   7   8
ATOM      8  C   UNL     1      96.930  95.246  78.830  1.00  0.00    -0.025 A 
ATOM      9  C   UNL     1      97.652  93.992  80.819  1.00  0.00     0.160 A 
ATOM     10  C   UNL     1      96.330  93.533  81.009  1.00  0.00     0.157 A 
ATOM     11  C   UNL     1      97.943  94.837  79.728  1.00  0.00     0.056 A 
ATOM     12  C   UNL     1      95.311  93.947  80.132  1.00  0.00     0.050 A 
ATOM     13  C   UNL     1      95.606  94.806  79.056  1.00  0.00     0.009 A 
BRANCH   9  14
ATOM     14  O   UNL     1      98.633  93.666  81.717  1.00  0.00    -0.493 OA
ATOM     15  C   UNL     1      99.070  94.765  82.535  1.00  0.00     0.278 C 
ENDBRANCH   9  14
BRANCH  10  16
ATOM     16  O   UNL     1      96.014  92.697  82.029  1.00  0.00    -0.504 OA
ATOM     17  H   UNL     1      95.059  92.650  82.119  1.00  0.00     0.293 HD
ENDBRANCH  10  16
ENDBRANCH   7   8
ENDBRANCH   4   7
ENDBRANCH   2   3
ENDBRANCH   1   2
BRANCH   1  18
ATOM     18  C   UNL     1      93.104  96.217  75.917  1.00  0.00     0.001 C 
BRANCH  18  19
ATOM     19  C   UNL     1      92.597  95.240  77.008  1.00  0.00     0.004 C 
BRANCH  19  20
ATOM     20  C   UNL     1      91.053  95.069  76.943  1.00  0.00     0.027 C 
BRANCH  20  21
ATOM     21  C   UNL     1      90.622  93.685  76.847  1.00  0.00    -0.031 C 
ATOM     22  C   UNL     1      90.434  93.071  75.666  1.00  0.00    -0.028 C 
BRANCH  22  23
ATOM     23  C   UNL     1      90.006  91.680  75.536  1.00  0.00     0.005 C 
ATOM     24  C   UNL     1      91.077  90.857  74.771  1.00  0.00     0.012 C 
ATOM     25  C   UNL     1      89.692  91.082  76.935  1.00  0.00     0.012 C 
ENDBRANCH  22  23
ENDBRANCH  20  21
ENDBRANCH  19  20
ENDBRANCH  18  19
ENDBRANCH   1  18
TORSDOF 11
ENDMDL
MODEL 2
REMARK VINA RESULT:    -6.169     13.659     16.308
REMARK INTER + INTRA:         -10.975
REMARK INTER:                 -10.272
REMARK INTRA:                  -0.703
REMARK UNBOUND:                -1.020
REMARK SMILES COc1cc(CNC(=O)CCCCC/C=C/C(C)C)ccc1O
REMARK SMILES IDX 11 1 10 2 8 3 7 4 9 6 6 7 5 8 3 9 22 10 4 11 21 12 20 13
REMARK SMILES IDX 2 14 1 15 23 16 12 18 13 19 14 20 15 21 16 22 17 23 18 24
REMARK SMILES IDX 19 25
REMARK H PARENT 7 5 23 17
REMARK Flexibility Score: inf
ROOT
ATOM      1  C   UNL     1      95.654  80.339  83.574  1.00  0.00     0.010 C 
ENDROOT
BRANCH   1   2
ATOM      2  C   UNL     1      95.561  81.838  83.959  1.00  0.00     0.100 C 
BRANCH   2   3
ATOM      3  C   UNL     1      94.355  82.185  84.734  1.00  0.00     0.220 C 
ATOM      4  N   UNL     1      93.170  81.574  84.454  1.00  0.00    -0.352 N 
ATOM      5  H   UNL     1      93.194  80.955  83.655  1.00  0.00     0.163 HD
ATOM      6  O   UNL     1      94.465  83.014  85.668  1.00  0.00    -0.275 OA
BRANCH   4   7
ATOM      7  C   UNL     1      91.956  81.744  85.184  1.00  0.00     0.151 C 
BRANCH   7   8
ATOM      8  C   UNL     1      90.927  80.735  84.825  1.00  0.00    -0.025 A 
ATOM      9  C   UNL     1      88.601  80.160  84.269  1.00  0.00     0.160 A 
ATOM     10  C   UNL     1      88.957  78.796  84.194  1.00  0.00     0.157 A 
ATOM     11  C   UNL     1      89.585  81.117  84.592  1.00  0.00     0.056 A 
ATOM     12  C   UNL     1      90.292  78.406  84.407  1.00  0.00     0.050 A 
ATOM     13  C   UNL     1      91.272  79.370  84.710  1.00  0.00     0.009 A 
BRANCH   9  14
ATOM     14  O   UNL     1      87.324  80.559  83.977  1.00  0.00    -0.493 OA
ATOM     15  C   UNL     1      86.644  81.198  85.070  1.00  0.00     0.278 C 
ENDBRANCH   9  14
BRANCH  10  16
ATOM     16  O   UNL     1      88.035  77.841  83.914  1.00  0.00    -0.504 OA
ATOM     17  H   UNL     1      88.239  77.439  83.066  1.00  0.00     0.293 HD
ENDBRANCH  10  16
ENDBRANCH   7   8
ENDBRANCH   4   7
ENDBRANCH   2   3
ENDBRANCH   1   2
BRANCH   1  18
ATOM     18  C   UNL     1      96.391  80.153  82.223  1.00  0.00     0.001 C 
BRANCH  18  19
ATOM     19  C   UNL     1      97.366  81.308  81.882  1.00  0.00     0.004 C 
BRANCH  19  20
ATOM     20  C   UNL     1      96.929  82.057  80.592  1.00  0.00     0.027 C 
BRANCH  20  21
ATOM     21  C   UNL     1      97.502  81.508  79.375  1.00  0.00    -0.031 C 
ATOM     22  C   UNL     1      96.949  81.710  78.166  1.00  0.00    -0.028 C 
BRANCH  22  23
ATOM     23  C   UNL     1      97.503  81.178  76.923  1.00  0.00     0.005 C 
ATOM     24  C   UNL     1      99.006  80.837  77.107  1.00  0.00     0.012 C 
ATOM     25  C   UNL     1      96.674  79.953  76.448  1.00  0.00     0.012 C 
ENDBRANCH  22  23
ENDBRANCH  20  21
ENDBRANCH  19  20
ENDBRANCH  18  19
ENDBRANCH   1  18
TORSDOF 11
ENDMDL
MODEL 3
REMARK VINA RESULT:    -6.093      0.959      2.075
REMARK INTER + INTRA:         -10.853
REMARK INTER:                  -9.810
REMARK INTRA:                  -1.043
REMARK UNBOUND:                -1.020
REMARK SMILES COc1cc(CNC(=O)CCCCC/C=C/C(C)C)ccc1O
REMARK SMILES IDX 11 1 10 2 8 3 7 4 9 6 6 7 5 8 3 9 22 10 4 11 21 12 20 13
REMARK SMILES IDX 2 14 1 15 23 16 12 18 13 19 14 20 15 21 16 22 17 23 18 24
REMARK SMILES IDX 19 25
REMARK H PARENT 7 5 23 17
REMARK Flexibility Score: inf
ROOT
ATOM      1  C   UNL     1      94.188  95.809  75.053  1.00  0.00     0.010 C 
ENDROOT
BRANCH   1   2
ATOM      2  C   UNL     1      95.042  96.996  74.537  1.00  0.00     0.100 C 
BRANCH   2   3
ATOM      3  C   UNL     1      96.150  97.373  75.435  1.00  0.00     0.220 C 
ATOM      4  N   UNL     1      96.668  96.454  76.295  1.00  0.00    -0.352 N 
ATOM      5  H   UNL     1      96.186  95.566  76.304  1.00  0.00     0.163 HD
ATOM      6  O   UNL     1      96.615  98.535  75.350  1.00  0.00    -0.275 OA
BRANCH   4   7
ATOM      7  C   UNL     1      97.797  96.657  77.144  1.00  0.00     0.151 C 
BRANCH   7   8
ATOM      8  C   UNL     1      97.738  95.835  78.380  1.00  0.00    -0.025 A 
ATOM      9  C   UNL     1      96.445  94.551  80.033  1.00  0.00     0.160 A 
ATOM     10  C   UNL     1      97.626  94.311  80.769  1.00  0.00     0.157 A 
ATOM     11  C   UNL     1      96.508  95.318  78.851  1.00  0.00     0.056 A 
ATOM     12  C   UNL     1      98.857  94.806  80.301  1.00  0.00     0.050 A 
ATOM     13  C   UNL     1      98.915  95.553  79.110  1.00  0.00     0.009 A 
BRANCH   9  14
ATOM     14  O   UNL     1      95.256  94.001  80.432  1.00  0.00    -0.493 OA
ATOM     15  C   UNL     1      94.758  92.979  79.553  1.00  0.00     0.278 C 
ENDBRANCH   9  14
BRANCH  10  16
ATOM     16  O   UNL     1      97.604  93.603  81.926  1.00  0.00    -0.504 OA
ATOM     17  H   UNL     1      98.502  93.374  82.178  1.00  0.00     0.293 HD
ENDBRANCH  10  16
ENDBRANCH   7   8
ENDBRANCH   4   7
ENDBRANCH   2   3
ENDBRANCH   1   2
BRANCH   1  18
ATOM     18  C   UNL     1      93.313  96.232  76.260  1.00  0.00     0.001 C 
BRANCH  18  19
ATOM     19  C   UNL     1      92.658  95.041  77.003  1.00  0.00     0.004 C 
BRANCH  19  20
ATOM     20  C   UNL     1      91.118  95.019  76.794  1.00  0.00     0.027 C 
BRANCH  20  21
ATOM     21  C   UNL     1      90.582  93.693  76.539  1.00  0.00    -0.031 C 
ATOM     22  C   UNL     1      91.331  92.701  76.026  1.00  0.00    -0.028 C 
BRANCH  22  23
ATOM     23  C   UNL     1      90.824  91.357  75.763  1.00  0.00     0.005 C 
ATOM     24  C   UNL     1      89.706  90.996  76.777  1.00  0.00     0.012 C 
ATOM     25  C   UNL     1      90.344  91.243  74.290  1.00  0.00     0.012 C 
ENDBRANCH  22  23
ENDBRANCH  20  21
ENDBRANCH  19  20
ENDBRANCH  18  19
ENDBRANCH   1  18
TORSDOF 11
ENDMDL
MODEL 4
REMARK VINA RESULT:    -5.974     12.353     14.463
REMARK INTER + INTRA:         -10.661
REMARK INTER:                  -9.891
REMARK INTRA:                  -0.771
REMARK UNBOUND:                -1.020
REMARK SMILES COc1cc(CNC(=O)CCCCC/C=C/C(C)C)ccc1O
REMARK SMILES IDX 11 1 10 2 8 3 7 4 9 6 6 7 5 8 3 9 22 10 4 11 21 12 20 13
REMARK SMILES IDX 2 14 1 15 23 16 12 18 13 19 14 20 15 21 16 22 17 23 18 24
REMARK SMILES IDX 19 25
REMARK H PARENT 7 5 23 17
REMARK Flexibility Score: inf
ROOT
ATOM      1  C   UNL     1      97.580  81.613  77.710  1.00  0.00     0.010 C 
ENDROOT
BRANCH   1   2
ATOM      2  C   UNL     1      96.293  82.338  77.241  1.00  0.00     0.100 C 
BRANCH   2   3
ATOM      3  C   UNL     1      96.452  83.091  75.983  1.00  0.00     0.220 C 
ATOM      4  N   UNL     1      97.581  82.934  75.237  1.00  0.00    -0.352 N 
ATOM      5  H   UNL     1      98.284  82.342  75.657  1.00  0.00     0.163 HD
ATOM      6  O   UNL     1      95.514  83.834  75.610  1.00  0.00    -0.275 OA
BRANCH   4   7
ATOM      7  C   UNL     1      97.820  83.523  73.960  1.00  0.00     0.151 C 
BRANCH   7   8
ATOM      8  C   UNL     1      99.243  83.426  73.543  1.00  0.00    -0.025 A 
ATOM      9  C   UNL     1     101.081  84.089  72.049  1.00  0.00     0.160 A 
ATOM     10  C   UNL     1     101.946  83.195  72.718  1.00  0.00     0.157 A 
ATOM     11  C   UNL     1      99.737  84.191  72.460  1.00  0.00     0.056 A 
ATOM     12  C   UNL     1     101.470  82.442  73.807  1.00  0.00     0.050 A 
ATOM     13  C   UNL     1     100.132  82.564  74.223  1.00  0.00     0.009 A 
BRANCH   9  14
ATOM     14  O   UNL     1     101.556  84.891  71.045  1.00  0.00    -0.493 OA
ATOM     15  C   UNL     1     101.420  84.328  69.730  1.00  0.00     0.278 C 
ENDBRANCH   9  14
BRANCH  10  16
ATOM     16  O   UNL     1     103.239  83.046  72.336  1.00  0.00    -0.504 OA
ATOM     17  H   UNL     1     103.517  83.821  71.841  1.00  0.00     0.293 HD
ENDBRANCH  10  16
ENDBRANCH   7   8
ENDBRANCH   4   7
ENDBRANCH   2   3
ENDBRANCH   1   2
BRANCH   1  18
ATOM     18  C   UNL     1      97.539  81.330  79.234  1.00  0.00     0.001 C 
BRANCH  18  19
ATOM     19  C   UNL     1      97.531  79.821  79.587  1.00  0.00     0.004 C 
BRANCH  19  20
ATOM     20  C   UNL     1      97.223  79.594  81.093  1.00  0.00     0.027 C 
BRANCH  20  21
ATOM     21  C   UNL     1      96.743  80.782  81.778  1.00  0.00    -0.031 C 
ATOM     22  C   UNL     1      96.272  80.745  83.037  1.00  0.00    -0.028 C 
BRANCH  22  23
ATOM     23  C   UNL     1      95.787  81.922  83.754  1.00  0.00     0.005 C 
ATOM     24  C   UNL     1      95.875  83.178  82.848  1.00  0.00     0.012 C 
ATOM     25  C   UNL     1      94.347  81.674  84.281  1.00  0.00     0.012 C 
ENDBRANCH  22  23
ENDBRANCH  20  21
ENDBRANCH  19  20
ENDBRANCH  18  19
ENDBRANCH   1  18
TORSDOF 11
ENDMDL
MODEL 5
REMARK VINA RESULT:    -5.945      2.894      6.812
REMARK INTER + INTRA:         -10.615
REMARK INTER:                  -9.914
REMARK INTRA:                  -0.701
REMARK UNBOUND:                -1.020
REMARK SMILES COc1cc(CNC(=O)CCCCC/C=C/C(C)C)ccc1O
REMARK SMILES IDX 11 1 10 2 8 3 7 4 9 6 6 7 5 8 3 9 22 10 4 11 21 12 20 13
REMARK SMILES IDX 2 14 1 15 23 16 12 18 13 19 14 20 15 21 16 22 17 23 18 24
REMARK SMILES IDX 19 25
REMARK H PARENT 7 5 23 17
REMARK Flexibility Score: inf
ROOT
ATOM      1  C   UNL     1      95.004  93.382  78.500  1.00  0.00     0.010 C 
ENDROOT
BRANCH   1   2
ATOM      2  C   UNL     1      95.417  93.745  77.050  1.00  0.00     0.100 C 
BRANCH   2   3
ATOM      3  C   UNL     1      95.135  95.144  76.678  1.00  0.00     0.220 C 
ATOM      4  N   UNL     1      94.362  95.414  75.590  1.00  0.00    -0.352 N 
ATOM      5  H   UNL     1      94.089  94.601  75.056  1.00  0.00     0.163 HD
ATOM      6  O   UNL     1      95.588  96.057  77.409  1.00  0.00    -0.275 OA
BRANCH   4   7
ATOM      7  C   UNL     1      93.934  96.711  75.178  1.00  0.00     0.151 C 
BRANCH   7   8
ATOM      8  C   UNL     1      94.538  97.129  73.886  1.00  0.00    -0.025 A 
ATOM      9  C   UNL     1      94.731  98.744  72.041  1.00  0.00     0.160 A 
ATOM     10  C   UNL     1      95.655  97.894  71.395  1.00  0.00     0.157 A 
ATOM     11  C   UNL     1      94.173  98.351  73.275  1.00  0.00     0.056 A 
ATOM     12  C   UNL     1      96.038  96.684  72.001  1.00  0.00     0.050 A 
ATOM     13  C   UNL     1      95.492  96.309  73.243  1.00  0.00     0.009 A 
BRANCH   9  14
ATOM     14  O   UNL     1      94.418  99.964  71.502  1.00  0.00    -0.493 OA
ATOM     15  C   UNL     1      93.011 100.258  71.492  1.00  0.00     0.278 C 
ENDBRANCH   9  14
BRANCH  10  16
ATOM     16  O   UNL     1      96.192  98.221  70.193  1.00  0.00    -0.504 OA
ATOM     17  H   UNL     1      97.131  98.019  70.197  1.00  0.00     0.293 HD
ENDBRANCH  10  16
ENDBRANCH   7   8
ENDBRANCH   4   7
ENDBRANCH   2   3
ENDBRANCH   1   2
BRANCH   1  18
ATOM     18  C   UNL     1      93.468  93.474  78.684  1.00  0.00     0.001 C 
BRANCH  18  19
ATOM     19  C   UNL     1      92.662  92.978  77.457  1.00  0.00     0.004 C 
BRANCH  19  20
ATOM     20  C   UNL     1      91.135  93.176  77.663  1.00  0.00     0.027 C 
BRANCH  20  21
ATOM     21  C   UNL     1      90.316  92.289  76.855  1.00  0.00    -0.031 C 
ATOM     22  C   UNL     1      90.822  91.576  75.833  1.00  0.00    -0.028 C 
BRANCH  22  23
ATOM     23  C   UNL     1      90.027  90.672  75.005  1.00  0.00     0.005 C 
ATOM     24  C   UNL     1      89.361  91.454  73.842  1.00  0.00     0.012 C 
ATOM     25  C   UNL     1      90.905  89.496  74.498  1.00  0.00     0.012 C 
ENDBRANCH  22  23
ENDBRANCH  20  21
ENDBRANCH  19  20
ENDBRANCH  18  19
ENDBRANCH   1  18
TORSDOF 11
ENDMDL
MODEL 6
REMARK VINA RESULT:    -5.781      4.545      5.783
REMARK INTER + INTRA:         -10.350
REMARK INTER:                  -9.659
REMARK INTRA:                  -0.691
REMARK UNBOUND:                -1.020
REMARK SMILES COc1cc(CNC(=O)CCCCC/C=C/C(C)C)ccc1O
REMARK SMILES IDX 11 1 10 2 8 3 7 4 9 6 6 7 5 8 3 9 22 10 4 11 21 12 20 13
REMARK SMILES IDX 2 14 1 15 23 16 12 18 13 19 14 20 15 21 16 22 17 23 18 24
REMARK SMILES IDX 19 25
REMARK H PARENT 7 5 23 17
REMARK Flexibility Score: inf
ROOT
ATOM      1  C   UNL     1      94.522  98.837  73.694  1.00  0.00     0.010 C 
ENDROOT
BRANCH   1   2
ATOM      2  C   UNL     1      93.588  97.627  73.960  1.00  0.00     0.100 C 
BRANCH   2   3
ATOM      3  C   UNL     1      94.296  96.404  74.382  1.00  0.00     0.220 C 
ATOM      4  N   UNL     1      93.740  95.588  75.320  1.00  0.00    -0.352 N 
ATOM      5  H   UNL     1      92.881  95.936  75.725  1.00  0.00     0.163 HD
ATOM      6  O   UNL     1      95.386  96.126  73.828  1.00  0.00    -0.275 OA
BRANCH   4   7
ATOM      7  C   UNL     1      94.268  94.333  75.746  1.00  0.00     0.151 C 
BRANCH   7   8
ATOM      8  C   UNL     1      94.617  94.320  77.190  1.00  0.00    -0.025 A 
ATOM      9  C   UNL     1      95.776  95.317  79.116  1.00  0.00     0.160 A 
ATOM     10  C   UNL     1      95.325  94.258  79.934  1.00  0.00     0.157 A 
ATOM     11  C   UNL     1      95.427  95.335  77.751  1.00  0.00     0.056 A 
ATOM     12  C   UNL     1      94.505  93.252  79.391  1.00  0.00     0.050 A 
ATOM     13  C   UNL     1      94.145  93.288  78.031  1.00  0.00     0.009 A 
BRANCH   9  14
ATOM     14  O   UNL     1      96.502  96.346  79.654  1.00  0.00    -0.493 OA
ATOM     15  C   UNL     1      97.276  97.084  78.694  1.00  0.00     0.278 C 
ENDBRANCH   9  14
BRANCH  10  16
ATOM     16  O   UNL     1      95.661  94.188  81.247  1.00  0.00    -0.504 OA
ATOM     17  H   UNL     1      95.274  93.399  81.634  1.00  0.00     0.293 HD
ENDBRANCH  10  16
ENDBRANCH   7   8
ENDBRANCH   4   7
ENDBRANCH   2   3
ENDBRANCH   1   2
BRANCH   1  18
ATOM     18  C   UNL     1      93.852  99.862  72.744  1.00  0.00     0.001 C 
BRANCH  18  19
ATOM     19  C   UNL     1      92.510  99.371  72.144  1.00  0.00     0.004 C 
BRANCH  19  20
ATOM     20  C   UNL     1      92.318  99.885  70.690  1.00  0.00     0.027 C 
BRANCH  20  21
ATOM     21  C   UNL     1      91.340  99.128  69.927  1.00  0.00    -0.031 C 
ATOM     22  C   UNL     1      90.102  99.592  69.684  1.00  0.00    -0.028 C 
BRANCH  22  23
ATOM     23  C   UNL     1      89.098  98.859  68.917  1.00  0.00     0.005 C 
ATOM     24  C   UNL     1      88.341  99.821  67.964  1.00  0.00     0.012 C 
ATOM     25  C   UNL     1      89.761  97.677  68.158  1.00  0.00     0.012 C 
ENDBRANCH  22  23
ENDBRANCH  20  21
ENDBRANCH  19  20
ENDBRANCH  18  19
ENDBRANCH   1  18
TORSDOF 11
ENDMDL
MODEL 7
REMARK VINA RESULT:    -5.762      6.586     10.678
REMARK INTER + INTRA:         -10.320
REMARK INTER:                  -9.591
REMARK INTRA:                  -0.729
REMARK UNBOUND:                -1.020
REMARK SMILES COc1cc(CNC(=O)CCCCC/C=C/C(C)C)ccc1O
REMARK SMILES IDX 11 1 10 2 8 3 7 4 9 6 6 7 5 8 3 9 22 10 4 11 21 12 20 13
REMARK SMILES IDX 2 14 1 15 23 16 12 18 13 19 14 20 15 21 16 22 17 23 18 24
REMARK SMILES IDX 19 25
REMARK H PARENT 7 5 23 17
REMARK Flexibility Score: inf
ROOT
ATOM      1  C   UNL     1      94.880  98.380  73.027  1.00  0.00     0.010 C 
ENDROOT
BRANCH   1   2
ATOM      2  C   UNL     1      94.993  98.812  71.542  1.00  0.00     0.100 C 
BRANCH   2   3
ATOM      3  C   UNL     1      93.915  99.714  71.096  1.00  0.00     0.220 C 
ATOM      4  N   UNL     1      92.614  99.379  71.321  1.00  0.00    -0.352 N 
ATOM      5  H   UNL     1      92.479  98.465  71.730  1.00  0.00     0.163 HD
ATOM      6  O   UNL     1      94.232 100.798  70.551  1.00  0.00    -0.275 OA
BRANCH   4   7
ATOM      7  C   UNL     1      91.484 100.200  71.030  1.00  0.00     0.151 C 
BRANCH   7   8
ATOM      8  C   UNL     1      90.746  99.750  69.822  1.00  0.00    -0.025 A 
ATOM      9  C   UNL     1      90.371  99.834  67.392  1.00  0.00     0.160 A 
ATOM     10  C   UNL     1      89.298  98.926  67.527  1.00  0.00     0.157 A 
ATOM     11  C   UNL     1      91.080 100.245  68.539  1.00  0.00     0.056 A 
ATOM     12  C   UNL     1      88.967  98.414  68.795  1.00  0.00     0.050 A 
ATOM     13  C   UNL     1      89.693  98.814  69.933  1.00  0.00     0.009 A 
BRANCH   9  14
ATOM     14  O   UNL     1      90.757 100.271  66.153  1.00  0.00    -0.493 OA
ATOM     15  C   UNL     1      90.786 101.701  66.017  1.00  0.00     0.278 C 
ENDBRANCH   9  14
BRANCH  10  16
ATOM     16  O   UNL     1      88.572  98.528  66.453  1.00  0.00    -0.504 OA
ATOM     17  H   UNL     1      89.054  98.734  65.648  1.00  0.00     0.293 HD
ENDBRANCH  10  16
ENDBRANCH   7   8
ENDBRANCH   4   7
ENDBRANCH   2   3
ENDBRANCH   1   2
BRANCH   1  18
ATOM     18  C   UNL     1      95.937  97.302  73.378  1.00  0.00     0.001 C 
BRANCH  18  19
ATOM     19  C   UNL     1      95.485  96.327  74.494  1.00  0.00     0.004 C 
BRANCH  19  20
ATOM     20  C   UNL     1      94.096  96.723  75.066  1.00  0.00     0.027 C 
BRANCH  20  21
ATOM     21  C   UNL     1      93.230  95.589  75.338  1.00  0.00    -0.031 C 
ATOM     22  C   UNL     1      92.438  95.533  76.423  1.00  0.00    -0.028 C 
BRANCH  22  23
ATOM     23  C   UNL     1      91.553  94.410  76.722  1.00  0.00     0.005 C 
ATOM     24  C   UNL     1      92.050  93.654  77.983  1.00  0.00     0.012 C 
ATOM     25  C   UNL     1      90.088  94.905  76.871  1.00  0.00     0.012 C 
ENDBRANCH  22  23
ENDBRANCH  20  21
ENDBRANCH  19  20
ENDBRANCH  18  19
ENDBRANCH   1  18
TORSDOF 11
ENDMDL
MODEL 8
REMARK VINA RESULT:    -5.761     13.465     15.951
REMARK INTER + INTRA:         -10.317
REMARK INTER:                  -8.252
REMARK INTRA:                  -2.064
REMARK UNBOUND:                -1.020
REMARK SMILES COc1cc(CNC(=O)CCCCC/C=C/C(C)C)ccc1O
REMARK SMILES IDX 11 1 10 2 8 3 7 4 9 6 6 7 5 8 3 9 22 10 4 11 21 12 20 13
REMARK SMILES IDX 2 14 1 15 23 16 12 18 13 19 14 20 15 21 16 22 17 23 18 24
REMARK SMILES IDX 19 25
REMARK H PARENT 7 5 23 17
REMARK Flexibility Score: inf
ROOT
ATOM      1  C   UNL     1      97.567  81.225  78.069  1.00  0.00     0.010 C 
ENDROOT
BRANCH   1   2
ATOM      2  C   UNL     1      96.582  82.396  77.819  1.00  0.00     0.100 C 
BRANCH   2   3
ATOM      3  C   UNL     1      96.574  82.887  76.429  1.00  0.00     0.220 C 
ATOM      4  N   UNL     1      97.712  82.829  75.682  1.00  0.00    -0.352 N 
ATOM      5  H   UNL     1      98.528  82.505  76.183  1.00  0.00     0.163 HD
ATOM      6  O   UNL     1      95.495  83.313  75.954  1.00  0.00    -0.275 OA
BRANCH   4   7
ATOM      7  C   UNL     1      97.818  83.177  74.303  1.00  0.00     0.151 C 
BRANCH   7   8
ATOM      8  C   UNL     1      97.881  81.987  73.416  1.00  0.00    -0.025 A 
ATOM      9  C   UNL     1      99.086  80.609  71.773  1.00  0.00     0.160 A 
ATOM     10  C   UNL     1      97.974  79.744  71.684  1.00  0.00     0.157 A 
ATOM     11  C   UNL     1      99.028  81.727  72.630  1.00  0.00     0.056 A 
ATOM     12  C   UNL     1      96.834  79.984  72.473  1.00  0.00     0.050 A 
ATOM     13  C   UNL     1      96.792  81.091  73.341  1.00  0.00     0.009 A 
BRANCH   9  14
ATOM     14  O   UNL     1     100.233  80.337  71.076  1.00  0.00    -0.493 OA
ATOM     15  C   UNL     1     100.570  81.326  70.089  1.00  0.00     0.278 C 
ENDBRANCH   9  14
BRANCH  10  16
ATOM     16  O   UNL     1      97.978  78.674  70.851  1.00  0.00    -0.504 OA
ATOM     17  H   UNL     1      98.449  77.947  71.266  1.00  0.00     0.293 HD
ENDBRANCH  10  16
ENDBRANCH   7   8
ENDBRANCH   4   7
ENDBRANCH   2   3
ENDBRANCH   1   2
BRANCH   1  18
ATOM     18  C   UNL     1      97.138  79.957  77.287  1.00  0.00     0.001 C 
BRANCH  18  19
ATOM     19  C   UNL     1      98.297  79.280  76.514  1.00  0.00     0.004 C 
BRANCH  19  20
ATOM     20  C   UNL     1      99.616  80.092  76.644  1.00  0.00     0.027 C 
BRANCH  20  21
ATOM     21  C   UNL     1     100.491  79.974  75.490  1.00  0.00    -0.031 C 
ATOM     22  C   UNL     1     101.530  80.804  75.287  1.00  0.00    -0.028 C 
BRANCH  22  23
ATOM     23  C   UNL     1     102.431  80.708  74.141  1.00  0.00     0.005 C 
ATOM     24  C   UNL     1     102.464  82.055  73.370  1.00  0.00     0.012 C 
ATOM     25  C   UNL     1     103.843  80.259  74.605  1.00  0.00     0.012 C 
ENDBRANCH  22  23
ENDBRANCH  20  21
ENDBRANCH  19  20
ENDBRANCH  18  19
ENDBRANCH   1  18
TORSDOF 11
ENDMDL
MODEL 9
REMARK VINA RESULT:    -5.678     13.058     15.417
REMARK INTER + INTRA:         -10.183
REMARK INTER:                  -8.068
REMARK INTRA:                  -2.115
REMARK UNBOUND:                -1.020
REMARK SMILES COc1cc(CNC(=O)CCCCC/C=C/C(C)C)ccc1O
REMARK SMILES IDX 11 1 10 2 8 3 7 4 9 6 6 7 5 8 3 9 22 10 4 11 21 12 20 13
REMARK SMILES IDX 2 14 1 15 23 16 12 18 13 19 14 20 15 21 16 22 17 23 18 24
REMARK SMILES IDX 19 25
REMARK H PARENT 7 5 23 17
REMARK Flexibility Score: inf
ROOT
ATOM      1  C   UNL     1      96.061  82.040  77.302  1.00  0.00     0.010 C 
ENDROOT
BRANCH   1   2
ATOM      2  C   UNL     1      97.026  82.072  78.515  1.00  0.00     0.100 C 
BRANCH   2   3
ATOM      3  C   UNL     1      98.244  81.260  78.336  1.00  0.00     0.220 C 
ATOM      4  N   UNL     1      98.546  80.753  77.109  1.00  0.00    -0.352 N 
ATOM      5  H   UNL     1      97.845  80.919  76.400  1.00  0.00     0.163 HD
ATOM      6  O   UNL     1      98.998  81.091  79.323  1.00  0.00    -0.275 OA
BRANCH   4   7
ATOM      7  C   UNL     1      99.734  80.037  76.776  1.00  0.00     0.151 C 
BRANCH   7   8
ATOM      8  C   UNL     1      99.839  79.746  75.323  1.00  0.00    -0.025 A 
ATOM      9  C   UNL     1      98.794  79.097  73.193  1.00  0.00     0.160 A 
ATOM     10  C   UNL     1     100.056  79.139  72.562  1.00  0.00     0.157 A 
ATOM     11  C   UNL     1      98.696  79.391  74.569  1.00  0.00     0.056 A 
ATOM     12  C   UNL     1     101.197  79.507  73.299  1.00  0.00     0.050 A 
ATOM     13  C   UNL     1     101.088  79.819  74.667  1.00  0.00     0.009 A 
BRANCH   9  14
ATOM     14  O   UNL     1      97.665  78.825  72.467  1.00  0.00    -0.493 OA
ATOM     15  C   UNL     1      96.763  79.937  72.345  1.00  0.00     0.278 C 
ENDBRANCH   9  14
BRANCH  10  16
ATOM     16  O   UNL     1     100.198  78.836  71.247  1.00  0.00    -0.504 OA
ATOM     17  H   UNL     1     100.022  77.901  71.115  1.00  0.00     0.293 HD
ENDBRANCH  10  16
ENDBRANCH   7   8
ENDBRANCH   4   7
ENDBRANCH   2   3
ENDBRANCH   1   2
BRANCH   1  18
ATOM     18  C   UNL     1      95.592  83.468  76.923  1.00  0.00     0.001 C 
BRANCH  18  19
ATOM     19  C   UNL     1      96.055  83.923  75.515  1.00  0.00     0.004 C 
BRANCH  19  20
ATOM     20  C   UNL     1      96.806  82.784  74.770  1.00  0.00     0.027 C 
BRANCH  20  21
ATOM     21  C   UNL     1      97.759  83.262  73.782  1.00  0.00    -0.031 C 
ATOM     22  C   UNL     1      99.043  82.864  73.772  1.00  0.00    -0.028 C 
BRANCH  22  23
ATOM     23  C   UNL     1     100.024  83.321  72.790  1.00  0.00     0.005 C 
ATOM     24  C   UNL     1      99.641  84.729  72.262  1.00  0.00     0.012 C 
ATOM     25  C   UNL     1     101.451  83.288  73.402  1.00  0.00     0.012 C 
ENDBRANCH  22  23
ENDBRANCH  20  21
ENDBRANCH  19  20
ENDBRANCH  18  19
ENDBRANCH   1  18
TORSDOF 11
ENDMDL
MODEL 10
REMARK VINA RESULT:    -5.634     23.004     26.065
REMARK INTER + INTRA:         -10.113
REMARK INTER:                  -7.945
REMARK INTRA:                  -2.168
REMARK UNBOUND:                -1.020
REMARK SMILES COc1cc(CNC(=O)CCCCC/C=C/C(C)C)ccc1O
REMARK SMILES IDX 11 1 10 2 8 3 7 4 9 6 6 7 5 8 3 9 22 10 4 11 21 12 20 13
REMARK SMILES IDX 2 14 1 15 23 16 12 18 13 19 14 20 15 21 16 22 17 23 18 24
REMARK SMILES IDX 19 25
REMARK H PARENT 7 5 23 17
REMARK Flexibility Score: inf
ROOT
ATOM      1  C   UNL     1      70.350  83.842  65.351  1.00  0.00     0.010 C 
ENDROOT
BRANCH   1   2
ATOM      2  C   UNL     1      70.599  82.331  65.593  1.00  0.00     0.100 C 
BRANCH   2   3
ATOM      3  C   UNL     1      71.947  81.875  65.204  1.00  0.00     0.220 C 
ATOM      4  N   UNL     1      73.019  82.693  65.392  1.00  0.00    -0.352 N 
ATOM      5  H   UNL     1      72.791  83.617  65.733  1.00  0.00     0.163 HD
ATOM      6  O   UNL     1      72.073  80.717  64.742  1.00  0.00    -0.275 OA
BRANCH   4   7
ATOM      7  C   UNL     1      74.381  82.343  65.152  1.00  0.00     0.151 C 
BRANCH   7   8
ATOM      8  C   UNL     1      75.333  83.192  65.913  1.00  0.00    -0.025 A 
ATOM      9  C   UNL     1      75.866  84.567  67.882  1.00  0.00     0.160 A 
ATOM     10  C   UNL     1      77.136  84.856  67.336  1.00  0.00     0.157 A 
ATOM     11  C   UNL     1      74.972  83.747  67.164  1.00  0.00     0.056 A 
ATOM     12  C   UNL     1      77.512  84.296  66.101  1.00  0.00     0.050 A 
ATOM     13  C   UNL     1      76.622  83.462  65.400  1.00  0.00     0.009 A 
BRANCH   9  14
ATOM     14  O   UNL     1      75.523  85.035  69.123  1.00  0.00    -0.493 OA
ATOM     15  C   UNL     1      74.318  85.818  69.143  1.00  0.00     0.278 C 
ENDBRANCH   9  14
BRANCH  10  16
ATOM     16  O   UNL     1      78.014  85.664  67.981  1.00  0.00    -0.504 OA
ATOM     17  H   UNL     1      78.651  85.126  68.459  1.00  0.00     0.293 HD
ENDBRANCH  10  16
ENDBRANCH   7   8
ENDBRANCH   4   7
ENDBRANCH   2   3
ENDBRANCH   1   2
BRANCH   1  18
ATOM     18  C   UNL     1      70.446  84.644  66.674  1.00  0.00     0.001 C 
BRANCH  18  19
ATOM     19  C   UNL     1      71.551  85.731  66.665  1.00  0.00     0.004 C 
BRANCH  19  20
ATOM     20  C   UNL     1      71.963  86.108  65.215  1.00  0.00     0.027 C 
BRANCH  20  21
ATOM     21  C   UNL     1      73.401  86.191  65.019  1.00  0.00    -0.031 C 
ATOM     22  C   UNL     1      74.097  87.312  65.276  1.00  0.00    -0.028 C 
BRANCH  22  23
ATOM     23  C   UNL     1      75.542  87.426  65.095  1.00  0.00     0.005 C 
ATOM     24  C   UNL     1      75.862  88.131  63.750  1.00  0.00     0.012 C 
ATOM     25  C   UNL     1      76.180  88.156  66.309  1.00  0.00     0.012 C 
ENDBRANCH  22  23
ENDBRANCH  20  21
ENDBRANCH  19  20
ENDBRANCH  18  19
ENDBRANCH   1  18
TORSDOF 11
ENDMDL
