MODEL 1
REMARK VINA RESULT:    -6.605      0.000      0.000
REMARK INTER + INTRA:         -12.313
REMARK INTER:                 -10.853
REMARK INTRA:                  -1.460
REMARK UNBOUND:                -1.460
REMARK SMILES CCCCC[C@H](O)CC(=O)CCc1ccc(O)c(OC)c1
REMARK SMILES IDX 8 1 6 2 7 3 5 5 4 6 3 7 2 8 1 9 9 10 10 11 11 12 12 13 13 14
REMARK SMILES IDX 21 15 14 16 18 17 15 18 16 19 19 20 20 21 17 22
REMARK H PARENT 7 4 17 23
REMARK Flexibility Score: inf
ROOT
ATOM      1  C   UNL     1      92.041  93.169  76.896  1.00  0.00     0.107 C 
ENDROOT
BRANCH   1   2
ATOM      2  C   UNL     1      90.620  93.662  77.184  1.00  0.00     0.121 C 
BRANCH   2   3
ATOM      3  O   UNL     1      90.182  94.515  76.130  1.00  0.00    -0.393 OA
ATOM      4  H   UNL     1      90.531  94.160  75.294  1.00  0.00     0.210 HD
ENDBRANCH   2   3
BRANCH   2   5
ATOM      5  C   UNL     1      89.613  92.519  77.361  1.00  0.00     0.032 C 
BRANCH   5   6
ATOM      6  C   UNL     1      90.181  91.377  78.213  1.00  0.00     0.003 C 
BRANCH   6   7
ATOM      7  C   UNL     1      90.035  90.001  77.555  1.00  0.00    -0.000 C 
BRANCH   7   8
ATOM      8  C   UNL     1      89.619  88.899  78.528  1.00  0.00    -0.003 C 
ATOM      9  C   UNL     1      89.889  87.518  77.950  1.00  0.00     0.004 C 
ENDBRANCH   7   8
ENDBRANCH   6   7
ENDBRANCH   5   6
ENDBRANCH   2   5
ENDBRANCH   1   2
BRANCH   1  10
ATOM     10  C   UNL     1      92.769  94.019  75.868  1.00  0.00     0.135 C 
ATOM     11  O   UNL     1      93.478  94.964  76.215  1.00  0.00    -0.300 OA
BRANCH  10  12
ATOM     12  C   UNL     1      92.610  93.613  74.411  1.00  0.00     0.080 C 
BRANCH  12  13
ATOM     13  C   UNL     1      92.234  92.142  74.220  1.00  0.00     0.043 C 
BRANCH  13  14
ATOM     14  C   UNL     1      90.846  91.954  73.657  1.00  0.00    -0.044 A 
ATOM     15  C   UNL     1      90.144  90.775  73.911  1.00  0.00     0.054 A 
ATOM     16  C   UNL     1      90.266  92.959  72.883  1.00  0.00     0.008 A 
ATOM     17  C   UNL     1      88.861  90.603  73.391  1.00  0.00     0.160 A 
ATOM     18  C   UNL     1      88.983  92.786  72.363  1.00  0.00     0.050 A 
ATOM     19  C   UNL     1      88.281  91.608  72.617  1.00  0.00     0.157 A 
BRANCH  17  20
ATOM     20  O   UNL     1      88.185  89.448  73.645  1.00  0.00    -0.493 OA
ATOM     21  C   UNL     1      88.854  88.466  74.434  1.00  0.00     0.278 C 
ENDBRANCH  17  20
BRANCH  19  22
ATOM     22  O   UNL     1      87.029  91.451  72.104  1.00  0.00    -0.504 OA
ATOM     23  H   UNL     1      86.402  91.311  72.834  1.00  0.00     0.293 HD
ENDBRANCH  19  22
ENDBRANCH  13  14
ENDBRANCH  12  13
ENDBRANCH  10  12
ENDBRANCH   1  10
TORSDOF 12
ENDMDL
MODEL 2
REMARK VINA RESULT:    -6.600      2.271      6.333
REMARK INTER + INTRA:         -12.304
REMARK INTER:                 -10.983
REMARK INTRA:                  -1.321
REMARK UNBOUND:                -1.460
REMARK SMILES CCCCC[C@H](O)CC(=O)CCc1ccc(O)c(OC)c1
REMARK SMILES IDX 8 1 6 2 7 3 5 5 4 6 3 7 2 8 1 9 9 10 10 11 11 12 12 13 13 14
REMARK SMILES IDX 21 15 14 16 18 17 15 18 16 19 19 20 20 21 17 22
REMARK H PARENT 7 4 17 23
REMARK Flexibility Score: inf
ROOT
ATOM      1  C   UNL     1      89.175  90.782  76.193  1.00  0.00     0.107 C 
ENDROOT
BRANCH   1   2
ATOM      2  C   UNL     1      89.967  90.192  75.024  1.00  0.00     0.121 C 
BRANCH   2   3
ATOM      3  O   UNL     1      90.528  88.937  75.404  1.00  0.00    -0.393 OA
ATOM      4  H   UNL     1      89.937  88.236  75.078  1.00  0.00     0.210 HD
ENDBRANCH   2   3
BRANCH   2   5
ATOM      5  C   UNL     1      89.120  90.003  73.759  1.00  0.00     0.032 C 
BRANCH   5   6
ATOM      6  C   UNL     1      89.974  90.018  72.486  1.00  0.00     0.003 C 
BRANCH   6   7
ATOM      7  C   UNL     1      89.875  91.332  71.704  1.00  0.00    -0.000 C 
BRANCH   7   8
ATOM      8  C   UNL     1      88.843  92.305  72.271  1.00  0.00    -0.003 C 
ATOM      9  C   UNL     1      89.491  93.612  72.703  1.00  0.00     0.004 C 
ENDBRANCH   7   8
ENDBRANCH   6   7
ENDBRANCH   5   6
ENDBRANCH   2   5
ENDBRANCH   1   2
BRANCH   1  10
ATOM     10  C   UNL     1      89.870  90.603  77.533  1.00  0.00     0.135 C 
ATOM     11  O   UNL     1      89.812  89.533  78.139  1.00  0.00    -0.300 OA
BRANCH  10  12
ATOM     12  C   UNL     1      90.667  91.791  78.052  1.00  0.00     0.080 C 
BRANCH  12  13
ATOM     13  C   UNL     1      90.466  93.069  77.237  1.00  0.00     0.043 C 
BRANCH  13  14
ATOM     14  C   UNL     1      91.762  93.667  76.743  1.00  0.00    -0.044 A 
ATOM     15  C   UNL     1      92.905  93.607  77.540  1.00  0.00     0.054 A 
ATOM     16  C   UNL     1      91.815  94.279  75.491  1.00  0.00     0.008 A 
ATOM     17  C   UNL     1      94.102  94.159  77.083  1.00  0.00     0.160 A 
ATOM     18  C   UNL     1      93.012  94.831  75.034  1.00  0.00     0.050 A 
ATOM     19  C   UNL     1      94.156  94.771  75.830  1.00  0.00     0.157 A 
BRANCH  17  20
ATOM     20  O   UNL     1      95.213  94.095  77.870  1.00  0.00    -0.493 OA
ATOM     21  C   UNL     1      95.052  94.434  79.246  1.00  0.00     0.278 C 
ENDBRANCH  17  20
BRANCH  19  22
ATOM     22  O   UNL     1      95.319  95.313  75.373  1.00  0.00    -0.504 OA
ATOM     23  H   UNL     1      95.131  95.840  74.578  1.00  0.00     0.293 HD
ENDBRANCH  19  22
ENDBRANCH  13  14
ENDBRANCH  12  13
ENDBRANCH  10  12
ENDBRANCH   1  10
TORSDOF 12
ENDMDL
MODEL 3
REMARK VINA RESULT:    -6.441      1.961      4.976
REMARK INTER + INTRA:         -12.044
REMARK INTER:                 -11.067
REMARK INTRA:                  -0.977
REMARK UNBOUND:                -1.460
REMARK SMILES CCCCC[C@H](O)CC(=O)CCc1ccc(O)c(OC)c1
REMARK SMILES IDX 8 1 6 2 7 3 5 5 4 6 3 7 2 8 1 9 9 10 10 11 11 12 12 13 13 14
REMARK SMILES IDX 21 15 14 16 18 17 15 18 16 19 19 20 20 21 17 22
REMARK H PARENT 7 4 17 23
REMARK Flexibility Score: inf
ROOT
ATOM      1  C   UNL     1      92.514  94.012  75.140  1.00  0.00     0.107 C 
ENDROOT
BRANCH   1   2
ATOM      2  C   UNL     1      91.960  93.061  74.076  1.00  0.00     0.121 C 
BRANCH   2   3
ATOM      3  O   UNL     1      92.582  91.784  74.197  1.00  0.00    -0.393 OA
ATOM      4  H   UNL     1      92.269  91.379  75.025  1.00  0.00     0.210 HD
ENDBRANCH   2   3
BRANCH   2   5
ATOM      5  C   UNL     1      90.438  92.892  74.157  1.00  0.00     0.032 C 
BRANCH   5   6
ATOM      6  C   UNL     1      89.723  93.528  72.959  1.00  0.00     0.003 C 
BRANCH   6   7
ATOM      7  C   UNL     1      89.621  92.595  71.748  1.00  0.00    -0.000 C 
BRANCH   7   8
ATOM      8  C   UNL     1      89.477  91.120  72.122  1.00  0.00    -0.003 C 
ATOM      9  C   UNL     1      89.973  90.215  71.005  1.00  0.00     0.004 C 
ENDBRANCH   7   8
ENDBRANCH   6   7
ENDBRANCH   5   6
ENDBRANCH   2   5
ENDBRANCH   1   2
BRANCH   1  10
ATOM     10  C   UNL     1      91.571  94.205  76.316  1.00  0.00     0.135 C 
ATOM     11  O   UNL     1      90.851  95.201  76.393  1.00  0.00    -0.300 OA
BRANCH  10  12
ATOM     12  C   UNL     1      91.535  93.092  77.351  1.00  0.00     0.080 C 
BRANCH  12  13
ATOM     13  C   UNL     1      90.130  92.552  77.627  1.00  0.00     0.043 C 
BRANCH  13  14
ATOM     14  C   UNL     1      90.086  91.047  77.741  1.00  0.00    -0.044 A 
ATOM     15  C   UNL     1      90.164  90.258  76.594  1.00  0.00     0.054 A 
ATOM     16  C   UNL     1      89.967  90.447  78.995  1.00  0.00     0.008 A 
ATOM     17  C   UNL     1      90.124  88.867  76.701  1.00  0.00     0.160 A 
ATOM     18  C   UNL     1      89.926  89.056  79.102  1.00  0.00     0.050 A 
ATOM     19  C   UNL     1      90.005  88.267  77.955  1.00  0.00     0.157 A 
BRANCH  17  20
ATOM     20  O   UNL     1      90.201  88.106  75.573  1.00  0.00    -0.493 OA
ATOM     21  C   UNL     1      90.958  88.634  74.486  1.00  0.00     0.278 C 
ENDBRANCH  17  20
BRANCH  19  22
ATOM     22  O   UNL     1      89.964  86.911  78.072  1.00  0.00    -0.504 OA
ATOM     23  H   UNL     1      89.684  86.527  77.222  1.00  0.00     0.293 HD
ENDBRANCH  19  22
ENDBRANCH  13  14
ENDBRANCH  12  13
ENDBRANCH  10  12
ENDBRANCH   1  10
TORSDOF 12
ENDMDL
MODEL 4
REMARK VINA RESULT:    -6.361      1.280      2.389
REMARK INTER + INTRA:         -11.912
REMARK INTER:                  -9.792
REMARK INTRA:                  -2.120
REMARK UNBOUND:                -1.460
REMARK SMILES CCCCC[C@H](O)CC(=O)CCc1ccc(O)c(OC)c1
REMARK SMILES IDX 8 1 6 2 7 3 5 5 4 6 3 7 2 8 1 9 9 10 10 11 11 12 12 13 13 14
REMARK SMILES IDX 21 15 14 16 18 17 15 18 16 19 19 20 20 21 17 22
REMARK H PARENT 7 4 17 23
REMARK Flexibility Score: inf
ROOT
ATOM      1  C   UNL     1      92.108  93.329  76.481  1.00  0.00     0.107 C 
ENDROOT
BRANCH   1   2
ATOM      2  C   UNL     1      90.794  93.742  77.149  1.00  0.00     0.121 C 
BRANCH   2   3
ATOM      3  O   UNL     1      90.126  94.710  76.342  1.00  0.00    -0.393 OA
ATOM      4  H   UNL     1      90.272  94.472  75.410  1.00  0.00     0.210 HD
ENDBRANCH   2   3
BRANCH   2   5
ATOM      5  C   UNL     1      89.852  92.559  77.403  1.00  0.00     0.032 C 
BRANCH   5   6
ATOM      6  C   UNL     1      90.610  91.306  77.858  1.00  0.00     0.003 C 
BRANCH   6   7
ATOM      7  C   UNL     1      89.758  90.033  77.816  1.00  0.00    -0.000 C 
BRANCH   7   8
ATOM      8  C   UNL     1      89.883  89.172  79.071  1.00  0.00    -0.003 C 
ATOM      9  C   UNL     1      90.280  90.006  80.279  1.00  0.00     0.004 C 
ENDBRANCH   7   8
ENDBRANCH   6   7
ENDBRANCH   5   6
ENDBRANCH   2   5
ENDBRANCH   1   2
BRANCH   1  10
ATOM     10  C   UNL     1      92.238  93.838  75.055  1.00  0.00     0.135 C 
ATOM     11  O   UNL     1      92.684  94.962  74.823  1.00  0.00    -0.300 OA
BRANCH  10  12
ATOM     12  C   UNL     1      91.835  92.877  73.948  1.00  0.00     0.080 C 
BRANCH  12  13
ATOM     13  C   UNL     1      92.381  91.460  74.135  1.00  0.00     0.043 C 
BRANCH  13  14
ATOM     14  C   UNL     1      91.295  90.420  74.268  1.00  0.00    -0.044 A 
ATOM     15  C   UNL     1      89.960  90.776  74.073  1.00  0.00     0.054 A 
ATOM     16  C   UNL     1      91.626  89.103  74.588  1.00  0.00     0.008 A 
ATOM     17  C   UNL     1      88.957  89.814  74.195  1.00  0.00     0.160 A 
ATOM     18  C   UNL     1      90.623  88.141  74.710  1.00  0.00     0.050 A 
ATOM     19  C   UNL     1      89.289  88.496  74.514  1.00  0.00     0.157 A 
BRANCH  17  20
ATOM     20  O   UNL     1      87.657  90.173  74.002  1.00  0.00    -0.493 OA
ATOM     21  C   UNL     1      87.207  90.277  72.652  1.00  0.00     0.278 C 
ENDBRANCH  17  20
BRANCH  19  22
ATOM     22  O   UNL     1      88.318  87.549  74.637  1.00  0.00    -0.504 OA
ATOM     23  H   UNL     1      88.624  86.726  74.216  1.00  0.00     0.293 HD
ENDBRANCH  19  22
ENDBRANCH  13  14
ENDBRANCH  12  13
ENDBRANCH  10  12
ENDBRANCH   1  10
TORSDOF 12
ENDMDL
MODEL 5
REMARK VINA RESULT:    -6.094      2.960      5.333
REMARK INTER + INTRA:         -11.474
REMARK INTER:                 -10.163
REMARK INTRA:                  -1.310
REMARK UNBOUND:                -1.460
REMARK SMILES CCCCC[C@H](O)CC(=O)CCc1ccc(O)c(OC)c1
REMARK SMILES IDX 8 1 6 2 7 3 5 5 4 6 3 7 2 8 1 9 9 10 10 11 11 12 12 13 13 14
REMARK SMILES IDX 21 15 14 16 18 17 15 18 16 19 19 20 20 21 17 22
REMARK H PARENT 7 4 17 23
REMARK Flexibility Score: inf
ROOT
ATOM      1  C   UNL     1      94.660  94.010  75.474  1.00  0.00     0.107 C 
ENDROOT
BRANCH   1   2
ATOM      2  C   UNL     1      96.026  94.641  75.760  1.00  0.00     0.121 C 
BRANCH   2   3
ATOM      3  O   UNL     1      96.464  95.381  74.623  1.00  0.00    -0.393 OA
ATOM      4  H   UNL     1      97.161  94.864  74.182  1.00  0.00     0.210 HD
ENDBRANCH   2   3
BRANCH   2   5
ATOM      5  C   UNL     1      96.017  95.559  76.988  1.00  0.00     0.032 C 
BRANCH   5   6
ATOM      6  C   UNL     1      96.281  94.788  78.287  1.00  0.00     0.003 C 
BRANCH   6   7
ATOM      7  C   UNL     1      95.090  94.796  79.250  1.00  0.00    -0.000 C 
BRANCH   7   8
ATOM      8  C   UNL     1      95.490  94.935  80.718  1.00  0.00    -0.003 C 
ATOM      9  C   UNL     1      96.985  94.729  80.907  1.00  0.00     0.004 C 
ENDBRANCH   7   8
ENDBRANCH   6   7
ENDBRANCH   5   6
ENDBRANCH   2   5
ENDBRANCH   1   2
BRANCH   1  10
ATOM     10  C   UNL     1      93.552  95.038  75.313  1.00  0.00     0.135 C 
ATOM     11  O   UNL     1      93.702  96.022  74.589  1.00  0.00    -0.300 OA
BRANCH  10  12
ATOM     12  C   UNL     1      92.251  94.759  76.049  1.00  0.00     0.080 C 
BRANCH  12  13
ATOM     13  C   UNL     1      92.390  93.734  77.177  1.00  0.00     0.043 C 
BRANCH  13  14
ATOM     14  C   UNL     1      91.614  92.464  76.921  1.00  0.00    -0.044 A 
ATOM     15  C   UNL     1      91.724  91.815  75.691  1.00  0.00     0.054 A 
ATOM     16  C   UNL     1      90.788  91.940  77.916  1.00  0.00     0.008 A 
ATOM     17  C   UNL     1      91.007  90.641  75.457  1.00  0.00     0.160 A 
ATOM     18  C   UNL     1      90.072  90.766  77.681  1.00  0.00     0.050 A 
ATOM     19  C   UNL     1      90.181  90.117  76.451  1.00  0.00     0.157 A 
BRANCH  17  20
ATOM     20  O   UNL     1      91.122  90.016  74.251  1.00  0.00    -0.493 OA
ATOM     21  C   UNL     1      90.332  90.527  73.179  1.00  0.00     0.278 C 
ENDBRANCH  17  20
BRANCH  19  22
ATOM     22  O   UNL     1      89.477  88.971  76.234  1.00  0.00    -0.504 OA
ATOM     23  H   UNL     1      89.106  88.994  75.335  1.00  0.00     0.293 HD
ENDBRANCH  19  22
ENDBRANCH  13  14
ENDBRANCH  12  13
ENDBRANCH  10  12
ENDBRANCH   1  10
TORSDOF 12
ENDMDL
MODEL 6
REMARK VINA RESULT:    -6.085      3.775      7.373
REMARK INTER + INTRA:         -11.458
REMARK INTER:                 -10.274
REMARK INTRA:                  -1.184
REMARK UNBOUND:                -1.460
REMARK SMILES CCCCC[C@H](O)CC(=O)CCc1ccc(O)c(OC)c1
REMARK SMILES IDX 8 1 6 2 7 3 5 5 4 6 3 7 2 8 1 9 9 10 10 11 11 12 12 13 13 14
REMARK SMILES IDX 21 15 14 16 18 17 15 18 16 19 19 20 20 21 17 22
REMARK H PARENT 7 4 17 23
REMARK Flexibility Score: inf
ROOT
ATOM      1  C   UNL     1      93.048  93.955  75.667  1.00  0.00     0.107 C 
ENDROOT
BRANCH   1   2
ATOM      2  C   UNL     1      92.164  93.403  74.546  1.00  0.00     0.121 C 
BRANCH   2   3
ATOM      3  O   UNL     1      92.479  92.033  74.312  1.00  0.00    -0.393 OA
ATOM      4  H   UNL     1      91.670  91.512  74.461  1.00  0.00     0.210 HD
ENDBRANCH   2   3
BRANCH   2   5
ATOM      5  C   UNL     1      90.665  93.533  74.844  1.00  0.00     0.032 C 
BRANCH   5   6
ATOM      6  C   UNL     1      90.403  94.046  76.265  1.00  0.00     0.003 C 
BRANCH   6   7
ATOM      7  C   UNL     1      89.668  93.033  77.149  1.00  0.00    -0.000 C 
BRANCH   7   8
ATOM      8  C   UNL     1      90.589  91.992  77.782  1.00  0.00    -0.003 C 
ATOM      9  C   UNL     1      90.340  90.607  77.204  1.00  0.00     0.004 C 
ENDBRANCH   7   8
ENDBRANCH   6   7
ENDBRANCH   5   6
ENDBRANCH   2   5
ENDBRANCH   1   2
BRANCH   1  10
ATOM     10  C   UNL     1      94.074  94.962  75.176  1.00  0.00     0.135 C 
ATOM     11  O   UNL     1      93.725  96.052  74.722  1.00  0.00    -0.300 OA
BRANCH  10  12
ATOM     12  C   UNL     1      95.537  94.570  75.317  1.00  0.00     0.080 C 
BRANCH  12  13
ATOM     13  C   UNL     1      95.839  93.767  76.584  1.00  0.00     0.043 C 
BRANCH  13  14
ATOM     14  C   UNL     1      95.990  94.633  77.812  1.00  0.00    -0.044 A 
ATOM     15  C   UNL     1      95.431  94.228  79.024  1.00  0.00     0.054 A 
ATOM     16  C   UNL     1      96.688  95.838  77.733  1.00  0.00     0.008 A 
ATOM     17  C   UNL     1      95.572  95.029  80.158  1.00  0.00     0.160 A 
ATOM     18  C   UNL     1      96.829  96.639  78.867  1.00  0.00     0.050 A 
ATOM     19  C   UNL     1      96.270  96.234  80.079  1.00  0.00     0.157 A 
BRANCH  17  20
ATOM     20  O   UNL     1      95.022  94.623  81.337  1.00  0.00    -0.493 OA
ATOM     21  C   UNL     1      95.715  93.609  82.060  1.00  0.00     0.278 C 
ENDBRANCH  17  20
BRANCH  19  22
ATOM     22  O   UNL     1      96.414  97.024  81.179  1.00  0.00    -0.504 OA
ATOM     23  H   UNL     1      97.177  97.613  81.048  1.00  0.00     0.293 HD
ENDBRANCH  19  22
ENDBRANCH  13  14
ENDBRANCH  12  13
ENDBRANCH  10  12
ENDBRANCH   1  10
TORSDOF 12
ENDMDL
MODEL 7
REMARK VINA RESULT:    -5.687     27.175     28.839
REMARK INTER + INTRA:         -10.805
REMARK INTER:                  -9.096
REMARK INTRA:                  -1.708
REMARK UNBOUND:                -1.460
REMARK SMILES CCCCC[C@H](O)CC(=O)CCc1ccc(O)c(OC)c1
REMARK SMILES IDX 8 1 6 2 7 3 5 5 4 6 3 7 2 8 1 9 9 10 10 11 11 12 12 13 13 14
REMARK SMILES IDX 21 15 14 16 18 17 15 18 16 19 19 20 20 21 17 22
REMARK H PARENT 7 4 17 23
REMARK Flexibility Score: inf
ROOT
ATOM      1  C   UNL     1      63.773  83.379  75.251  1.00  0.00     0.107 C 
ENDROOT
BRANCH   1   2
ATOM      2  C   UNL     1      62.886  82.177  75.584  1.00  0.00     0.121 C 
BRANCH   2   3
ATOM      3  O   UNL     1      61.737  82.611  76.310  1.00  0.00    -0.393 OA
ATOM      4  H   UNL     1      61.846  82.330  77.235  1.00  0.00     0.210 HD
ENDBRANCH   2   3
BRANCH   2   5
ATOM      5  C   UNL     1      62.434  81.401  74.341  1.00  0.00     0.032 C 
BRANCH   5   6
ATOM      6  C   UNL     1      63.356  80.214  74.036  1.00  0.00     0.003 C 
BRANCH   6   7
ATOM      7  C   UNL     1      64.463  80.549  73.030  1.00  0.00    -0.000 C 
BRANCH   7   8
ATOM      8  C   UNL     1      65.846  80.061  73.457  1.00  0.00    -0.003 C 
ATOM      9  C   UNL     1      66.094  80.320  74.935  1.00  0.00     0.004 C 
ENDBRANCH   7   8
ENDBRANCH   6   7
ENDBRANCH   5   6
ENDBRANCH   2   5
ENDBRANCH   1   2
BRANCH   1  10
ATOM     10  C   UNL     1      63.060  84.435  74.423  1.00  0.00     0.135 C 
ATOM     11  O   UNL     1      62.260  85.213  74.943  1.00  0.00    -0.300 OA
BRANCH  10  12
ATOM     12  C   UNL     1      63.421  84.504  72.947  1.00  0.00     0.080 C 
BRANCH  12  13
ATOM     13  C   UNL     1      62.217  84.366  72.013  1.00  0.00     0.043 C 
BRANCH  13  14
ATOM     14  C   UNL     1      62.522  83.566  70.769  1.00  0.00    -0.044 A 
ATOM     15  C   UNL     1      63.077  84.195  69.654  1.00  0.00     0.054 A 
ATOM     16  C   UNL     1      62.249  82.198  70.735  1.00  0.00     0.008 A 
ATOM     17  C   UNL     1      63.359  83.455  68.505  1.00  0.00     0.160 A 
ATOM     18  C   UNL     1      62.532  81.458  69.587  1.00  0.00     0.050 A 
ATOM     19  C   UNL     1      63.086  82.087  68.472  1.00  0.00     0.157 A 
BRANCH  17  20
ATOM     20  O   UNL     1      63.901  84.079  67.422  1.00  0.00    -0.493 OA
ATOM     21  C   UNL     1      63.008  84.808  66.581  1.00  0.00     0.278 C 
ENDBRANCH  17  20
BRANCH  19  22
ATOM     22  O   UNL     1      63.358  81.354  67.356  1.00  0.00    -0.504 OA
ATOM     23  H   UNL     1      63.766  81.932  66.689  1.00  0.00     0.293 HD
ENDBRANCH  19  22
ENDBRANCH  13  14
ENDBRANCH  12  13
ENDBRANCH  10  12
ENDBRANCH   1  10
TORSDOF 12
ENDMDL
MODEL 8
REMARK VINA RESULT:    -5.672      3.020      6.158
REMARK INTER + INTRA:         -10.780
REMARK INTER:                  -9.850
REMARK INTRA:                  -0.931
REMARK UNBOUND:                -1.460
REMARK SMILES CCCCC[C@H](O)CC(=O)CCc1ccc(O)c(OC)c1
REMARK SMILES IDX 8 1 6 2 7 3 5 5 4 6 3 7 2 8 1 9 9 10 10 11 11 12 12 13 13 14
REMARK SMILES IDX 21 15 14 16 18 17 15 18 16 19 19 20 20 21 17 22
REMARK H PARENT 7 4 17 23
REMARK Flexibility Score: inf
ROOT
ATOM      1  C   UNL     1      94.624  93.784  75.376  1.00  0.00     0.107 C 
ENDROOT
BRANCH   1   2
ATOM      2  C   UNL     1      95.505  93.815  76.628  1.00  0.00     0.121 C 
BRANCH   2   3
ATOM      3  O   UNL     1      96.692  93.058  76.402  1.00  0.00    -0.393 OA
ATOM      4  H   UNL     1      96.621  92.234  76.916  1.00  0.00     0.210 HD
ENDBRANCH   2   3
BRANCH   2   5
ATOM      5  C   UNL     1      95.886  95.236  77.059  1.00  0.00     0.032 C 
BRANCH   5   6
ATOM      6  C   UNL     1      97.406  95.440  77.092  1.00  0.00     0.003 C 
BRANCH   6   7
ATOM      7  C   UNL     1      97.916  96.382  75.997  1.00  0.00    -0.000 C 
BRANCH   7   8
ATOM      8  C   UNL     1      96.836  96.809  75.005  1.00  0.00    -0.003 C 
ATOM      9  C   UNL     1      97.104  96.247  73.618  1.00  0.00     0.004 C 
ENDBRANCH   7   8
ENDBRANCH   6   7
ENDBRANCH   5   6
ENDBRANCH   2   5
ENDBRANCH   1   2
BRANCH   1  10
ATOM     10  C   UNL     1      93.145  93.950  75.684  1.00  0.00     0.135 C 
ATOM     11  O   UNL     1      92.369  94.397  74.840  1.00  0.00    -0.300 OA
BRANCH  10  12
ATOM     12  C   UNL     1      92.679  93.496  77.059  1.00  0.00     0.080 C 
BRANCH  12  13
ATOM     13  C   UNL     1      91.168  93.278  77.157  1.00  0.00     0.043 C 
BRANCH  13  14
ATOM     14  C   UNL     1      90.782  91.819  77.206  1.00  0.00    -0.044 A 
ATOM     15  C   UNL     1      90.905  91.026  76.065  1.00  0.00     0.054 A 
ATOM     16  C   UNL     1      90.303  91.264  78.393  1.00  0.00     0.008 A 
ATOM     17  C   UNL     1      90.549  89.678  76.112  1.00  0.00     0.160 A 
ATOM     18  C   UNL     1      89.947  89.916  78.440  1.00  0.00     0.050 A 
ATOM     19  C   UNL     1      90.070  89.123  77.299  1.00  0.00     0.157 A 
BRANCH  17  20
ATOM     20  O   UNL     1      90.673  88.913  74.991  1.00  0.00    -0.493 OA
ATOM     21  C   UNL     1      90.456  89.560  73.738  1.00  0.00     0.278 C 
ENDBRANCH  17  20
BRANCH  19  22
ATOM     22  O   UNL     1      89.719  87.809  77.357  1.00  0.00    -0.504 OA
ATOM     23  H   UNL     1      89.451  87.592  78.266  1.00  0.00     0.293 HD
ENDBRANCH  19  22
ENDBRANCH  13  14
ENDBRANCH  12  13
ENDBRANCH  10  12
ENDBRANCH   1  10
TORSDOF 12
ENDMDL
MODEL 9
REMARK VINA RESULT:    -5.645      4.946      8.718
REMARK INTER + INTRA:         -10.735
REMARK INTER:                  -9.452
REMARK INTRA:                  -1.284
REMARK UNBOUND:                -1.460
REMARK SMILES CCCCC[C@H](O)CC(=O)CCc1ccc(O)c(OC)c1
REMARK SMILES IDX 8 1 6 2 7 3 5 5 4 6 3 7 2 8 1 9 9 10 10 11 11 12 12 13 13 14
REMARK SMILES IDX 21 15 14 16 18 17 15 18 16 19 19 20 20 21 17 22
REMARK H PARENT 7 4 17 23
REMARK Flexibility Score: inf
ROOT
ATOM      1  C   UNL     1      96.155  95.028  75.299  1.00  0.00     0.107 C 
ENDROOT
BRANCH   1   2
ATOM      2  C   UNL     1      94.740  95.602  75.407  1.00  0.00     0.121 C 
BRANCH   2   3
ATOM      3  O   UNL     1      94.522  96.547  74.362  1.00  0.00    -0.393 OA
ATOM      4  H   UNL     1      93.589  96.822  74.400  1.00  0.00     0.210 HD
ENDBRANCH   2   3
BRANCH   2   5
ATOM      5  C   UNL     1      93.650  94.526  75.351  1.00  0.00     0.032 C 
BRANCH   5   6
ATOM      6  C   UNL     1      92.850  94.447  76.657  1.00  0.00     0.003 C 
BRANCH   6   7
ATOM      7  C   UNL     1      91.358  94.747  76.474  1.00  0.00    -0.000 C 
BRANCH   7   8
ATOM      8  C   UNL     1      90.488  93.494  76.393  1.00  0.00    -0.003 C 
ATOM      9  C   UNL     1      90.743  92.565  77.570  1.00  0.00     0.004 C 
ENDBRANCH   7   8
ENDBRANCH   6   7
ENDBRANCH   5   6
ENDBRANCH   2   5
ENDBRANCH   1   2
BRANCH   1  10
ATOM     10  C   UNL     1      97.238  96.051  75.600  1.00  0.00     0.135 C 
ATOM     11  O   UNL     1      97.597  96.862  74.747  1.00  0.00    -0.300 OA
BRANCH  10  12
ATOM     12  C   UNL     1      97.810  96.044  77.010  1.00  0.00     0.080 C 
BRANCH  12  13
ATOM     13  C   UNL     1      97.042  96.933  77.989  1.00  0.00     0.043 C 
BRANCH  13  14
ATOM     14  C   UNL     1      96.487  96.172  79.170  1.00  0.00    -0.044 A 
ATOM     15  C   UNL     1      96.570  96.714  80.452  1.00  0.00     0.054 A 
ATOM     16  C   UNL     1      95.891  94.925  78.976  1.00  0.00     0.008 A 
ATOM     17  C   UNL     1      96.056  96.010  81.541  1.00  0.00     0.160 A 
ATOM     18  C   UNL     1      95.376  94.221  80.065  1.00  0.00     0.050 A 
ATOM     19  C   UNL     1      95.460  94.763  81.348  1.00  0.00     0.157 A 
BRANCH  17  20
ATOM     20  O   UNL     1      96.143  96.550  82.789  1.00  0.00    -0.493 OA
ATOM     21  C   UNL     1      97.450  96.844  83.277  1.00  0.00     0.278 C 
ENDBRANCH  17  20
BRANCH  19  22
ATOM     22  O   UNL     1      94.954  94.067  82.403  1.00  0.00    -0.504 OA
ATOM     23  H   UNL     1      95.154  93.122  82.284  1.00  0.00     0.293 HD
ENDBRANCH  19  22
ENDBRANCH  13  14
ENDBRANCH  12  13
ENDBRANCH  10  12
ENDBRANCH   1  10
TORSDOF 12
ENDMDL
MODEL 10
REMARK VINA RESULT:    -5.427      2.811      5.634
REMARK INTER + INTRA:         -10.377
REMARK INTER:                  -9.440
REMARK INTRA:                  -0.937
REMARK UNBOUND:                -1.460
REMARK SMILES CCCCC[C@H](O)CC(=O)CCc1ccc(O)c(OC)c1
REMARK SMILES IDX 8 1 6 2 7 3 5 5 4 6 3 7 2 8 1 9 9 10 10 11 11 12 12 13 13 14
REMARK SMILES IDX 21 15 14 16 18 17 15 18 16 19 19 20 20 21 17 22
REMARK H PARENT 7 4 17 23
REMARK Flexibility Score: inf
ROOT
ATOM      1  C   UNL     1      93.741  94.714  75.924  1.00  0.00     0.107 C 
ENDROOT
BRANCH   1   2
ATOM      2  C   UNL     1      95.252  94.952  75.852  1.00  0.00     0.121 C 
BRANCH   2   3
ATOM      3  O   UNL     1      95.937  93.702  75.828  1.00  0.00    -0.393 OA
ATOM      4  H   UNL     1      95.544  93.161  75.122  1.00  0.00     0.210 HD
ENDBRANCH   2   3
BRANCH   2   5
ATOM      5  C   UNL     1      95.671  95.781  74.632  1.00  0.00     0.032 C 
BRANCH   5   6
ATOM      6  C   UNL     1      95.113  97.209  74.686  1.00  0.00     0.003 C 
BRANCH   6   7
ATOM      7  C   UNL     1      94.558  97.694  73.342  1.00  0.00    -0.000 C 
BRANCH   7   8
ATOM      8  C   UNL     1      93.610  98.885  73.466  1.00  0.00    -0.003 C 
ATOM      9  C   UNL     1      94.298 100.077  74.113  1.00  0.00     0.004 C 
ENDBRANCH   7   8
ENDBRANCH   6   7
ENDBRANCH   5   6
ENDBRANCH   2   5
ENDBRANCH   1   2
BRANCH   1  10
ATOM     10  C   UNL     1      93.311  93.998  77.194  1.00  0.00     0.135 C 
ATOM     11  O   UNL     1      94.016  94.021  78.203  1.00  0.00    -0.300 OA
BRANCH  10  12
ATOM     12  C   UNL     1      91.959  93.302  77.159  1.00  0.00     0.080 C 
BRANCH  12  13
ATOM     13  C   UNL     1      90.943  93.977  76.235  1.00  0.00     0.043 C 
BRANCH  13  14
ATOM     14  C   UNL     1      90.398  93.048  75.177  1.00  0.00    -0.044 A 
ATOM     15  C   UNL     1      89.826  91.830  75.544  1.00  0.00     0.054 A 
ATOM     16  C   UNL     1      90.466  93.409  73.831  1.00  0.00     0.008 A 
ATOM     17  C   UNL     1      89.321  90.973  74.566  1.00  0.00     0.160 A 
ATOM     18  C   UNL     1      89.961  92.552  72.852  1.00  0.00     0.050 A 
ATOM     19  C   UNL     1      89.389  91.334  73.220  1.00  0.00     0.157 A 
BRANCH  17  20
ATOM     20  O   UNL     1      88.766  89.786  74.937  1.00  0.00    -0.493 OA
ATOM     21  C   UNL     1      89.657  88.693  75.153  1.00  0.00     0.278 C 
ENDBRANCH  17  20
BRANCH  19  22
ATOM     22  O   UNL     1      88.900  90.506  72.255  1.00  0.00    -0.504 OA
ATOM     23  H   UNL     1      88.562  91.043  71.518  1.00  0.00     0.293 HD
ENDBRANCH  19  22
ENDBRANCH  13  14
ENDBRANCH  12  13
ENDBRANCH  10  12
ENDBRANCH   1  10
TORSDOF 12
ENDMDL
