MODEL 1
REMARK VINA RESULT:    -7.201      0.000      0.000
REMARK INTER + INTRA:          -8.847
REMARK INTER:                  -8.464
REMARK INTRA:                  -0.383
REMARK UNBOUND:                -0.383
REMARK SMILES O=C(/C=C/C=C/c1ccc2c(c1)OCO2)N1CCCCC1
REMARK SMILES IDX 3 1 4 2 2 3 1 4 16 5 17 6 21 7 18 8 20 9 19 10 5 11 6 12
REMARK SMILES IDX 7 13 12 14 8 15 11 16 9 17 13 18 10 19 14 20 15 21
REMARK H PARENT
REMARK Flexibility Score: inf
ROOT
ATOM      1  C   UNL     1      97.447  81.190  78.831  1.00  0.00     0.071 C 
ATOM      2  C   UNL     1      98.048  80.963  79.998  1.00  0.00     0.006 C 
ENDROOT
BRANCH   1   3
ATOM      3  C   UNL     1      98.209  80.925  77.594  1.00  0.00     0.246 C 
ATOM      4  O   UNL     1      99.033  80.010  77.619  1.00  0.00    -0.270 OA
ATOM      5  N   UNL     1      97.949  81.729  76.486  1.00  0.00    -0.339 N 
ATOM      6  C   UNL     1      98.693  81.493  75.245  1.00  0.00     0.120 C 
ATOM      7  C   UNL     1      97.007  82.858  76.433  1.00  0.00     0.120 C 
ATOM      8  C   UNL     1      97.754  81.322  74.056  1.00  0.00     0.022 C 
ATOM      9  C   UNL     1      96.049  82.723  75.250  1.00  0.00     0.022 C 
ATOM     10  C   UNL     1      96.799  82.505  73.939  1.00  0.00     0.004 C 
ENDBRANCH   1   3
BRANCH   2  11
ATOM     11  C   UNL     1      97.384  81.194  81.263  1.00  0.00     0.001 C 
ATOM     12  C   UNL     1      96.723  82.329  81.541  1.00  0.00     0.008 C 
BRANCH  12  13
ATOM     13  C   UNL     1      96.038  82.618  82.812  1.00  0.00    -0.022 A 
ATOM     14  C   UNL     1      96.017  83.922  83.287  1.00  0.00     0.058 A 
ATOM     15  C   UNL     1      95.427  81.571  83.506  1.00  0.00     0.012 A 
ATOM     16  C   UNL     1      95.363  84.143  84.481  1.00  0.00     0.166 A 
ATOM     17  C   UNL     1      94.772  81.823  84.713  1.00  0.00     0.051 A 
ATOM     18  O   UNL     1      95.234  85.344  85.110  1.00  0.00    -0.454 OA
ATOM     19  C   UNL     1      94.757  83.122  85.176  1.00  0.00     0.165 A 
ATOM     20  C   UNL     1      94.478  84.963  86.278  1.00  0.00     0.468 C 
ATOM     21  O   UNL     1      94.172  83.554  86.326  1.00  0.00    -0.454 OA
ENDBRANCH  12  13
ENDBRANCH   2  11
TORSDOF 3
ENDMDL
MODEL 2
REMARK VINA RESULT:    -7.160      2.113      2.932
REMARK INTER + INTRA:          -8.799
REMARK INTER:                  -8.687
REMARK INTRA:                  -0.112
REMARK UNBOUND:                -0.383
REMARK SMILES O=C(/C=C/C=C/c1ccc2c(c1)OCO2)N1CCCCC1
REMARK SMILES IDX 3 1 4 2 2 3 1 4 16 5 17 6 21 7 18 8 20 9 19 10 5 11 6 12
REMARK SMILES IDX 7 13 12 14 8 15 11 16 9 17 13 18 10 19 14 20 15 21
REMARK H PARENT
REMARK Flexibility Score: inf
ROOT
ATOM      1  C   UNL     1      96.210  82.210  77.276  1.00  0.00     0.071 C 
ATOM      2  C   UNL     1      97.220  82.237  78.144  1.00  0.00     0.006 C 
ENDROOT
BRANCH   1   3
ATOM      3  C   UNL     1      96.386  82.904  75.985  1.00  0.00     0.246 C 
ATOM      4  O   UNL     1      95.671  83.882  75.762  1.00  0.00    -0.270 OA
ATOM      5  N   UNL     1      97.344  82.405  75.104  1.00  0.00    -0.339 N 
ATOM      6  C   UNL     1      97.538  83.071  73.811  1.00  0.00     0.120 C 
ATOM      7  C   UNL     1      98.184  81.217  75.315  1.00  0.00     0.120 C 
ATOM      8  C   UNL     1      99.002  83.430  73.584  1.00  0.00     0.022 C 
ATOM      9  C   UNL     1      99.662  81.536  75.092  1.00  0.00     0.022 C 
ATOM     10  C   UNL     1      99.897  82.205  73.740  1.00  0.00     0.004 C 
ENDBRANCH   1   3
BRANCH   2  11
ATOM     11  C   UNL     1      97.142  81.586  79.435  1.00  0.00     0.001 C 
ATOM     12  C   UNL     1      96.623  82.183  80.519  1.00  0.00     0.008 C 
BRANCH  12  13
ATOM     13  C   UNL     1      96.526  81.572  81.855  1.00  0.00    -0.022 A 
ATOM     14  C   UNL     1      96.367  82.392  82.964  1.00  0.00     0.058 A 
ATOM     15  C   UNL     1      96.598  80.181  81.971  1.00  0.00     0.012 A 
ATOM     16  C   UNL     1      96.282  81.772  84.194  1.00  0.00     0.166 A 
ATOM     17  C   UNL     1      96.509  79.580  83.228  1.00  0.00     0.051 A 
ATOM     18  O   UNL     1      96.126  82.397  85.393  1.00  0.00    -0.454 OA
ATOM     19  C   UNL     1      96.351  80.404  84.323  1.00  0.00     0.165 A 
ATOM     20  C   UNL     1      96.105  81.269  86.291  1.00  0.00     0.468 C 
ATOM     21  O   UNL     1      96.247  80.000  85.619  1.00  0.00    -0.454 OA
ENDBRANCH  12  13
ENDBRANCH   2  11
TORSDOF 3
ENDMDL
MODEL 3
REMARK VINA RESULT:    -6.917     16.038     17.640
REMARK INTER + INTRA:          -8.514
REMARK INTER:                  -8.114
REMARK INTRA:                  -0.399
REMARK UNBOUND:                -0.383
REMARK SMILES O=C(/C=C/C=C/c1ccc2c(c1)OCO2)N1CCCCC1
REMARK SMILES IDX 3 1 4 2 2 3 1 4 16 5 17 6 21 7 18 8 20 9 19 10 5 11 6 12
REMARK SMILES IDX 7 13 12 14 8 15 11 16 9 17 13 18 10 19 14 20 15 21
REMARK H PARENT
REMARK Flexibility Score: inf
ROOT
ATOM      1  C   UNL     1      92.535  99.294  72.310  1.00  0.00     0.071 C 
ATOM      2  C   UNL     1      93.810  99.140  72.661  1.00  0.00     0.006 C 
ENDROOT
BRANCH   1   3
ATOM      3  C   UNL     1      92.231 100.175  71.165  1.00  0.00     0.246 C 
ATOM      4  O   UNL     1      93.042 101.064  70.900  1.00  0.00    -0.270 OA
ATOM      5  N   UNL     1      91.048  99.946  70.465  1.00  0.00    -0.339 N 
ATOM      6  C   UNL     1      90.716 100.809  69.326  1.00  0.00     0.120 C 
ATOM      7  C   UNL     1      90.036  98.927  70.778  1.00  0.00     0.120 C 
ATOM      8  C   UNL     1      90.411  99.989  68.077  1.00  0.00     0.022 C 
ATOM      9  C   UNL     1      89.699  98.085  69.548  1.00  0.00     0.022 C 
ATOM     10  C   UNL     1      89.322  98.957  68.353  1.00  0.00     0.004 C 
ENDBRANCH   1   3
BRANCH   2  11
ATOM     11  C   UNL     1      94.206  98.298  73.769  1.00  0.00     0.001 C 
ATOM     12  C   UNL     1      93.463  97.265  74.199  1.00  0.00     0.008 C 
BRANCH  12  13
ATOM     13  C   UNL     1      93.815  96.383  75.325  1.00  0.00    -0.022 A 
ATOM     14  C   UNL     1      92.829  95.587  75.893  1.00  0.00     0.058 A 
ATOM     15  C   UNL     1      95.132  96.371  75.791  1.00  0.00     0.012 A 
ATOM     16  C   UNL     1      93.207  94.777  76.944  1.00  0.00     0.166 A 
ATOM     17  C   UNL     1      95.486  95.542  76.857  1.00  0.00     0.051 A 
ATOM     18  O   UNL     1      92.392  93.930  77.631  1.00  0.00    -0.454 OA
ATOM     19  C   UNL     1      94.500  94.755  77.414  1.00  0.00     0.165 A 
ATOM     20  C   UNL     1      93.318  93.372  78.585  1.00  0.00     0.468 C 
ATOM     21  O   UNL     1      94.658  93.891  78.453  1.00  0.00    -0.454 OA
ENDBRANCH  12  13
ENDBRANCH   2  11
TORSDOF 3
ENDMDL
MODEL 4
REMARK VINA RESULT:    -6.902     12.725     14.641
REMARK INTER + INTRA:          -8.496
REMARK INTER:                  -8.123
REMARK INTRA:                  -0.374
REMARK UNBOUND:                -0.383
REMARK SMILES O=C(/C=C/C=C/c1ccc2c(c1)OCO2)N1CCCCC1
REMARK SMILES IDX 3 1 4 2 2 3 1 4 16 5 17 6 21 7 18 8 20 9 19 10 5 11 6 12
REMARK SMILES IDX 7 13 12 14 8 15 11 16 9 17 13 18 10 19 14 20 15 21
REMARK H PARENT
REMARK Flexibility Score: inf
ROOT
ATOM      1  C   UNL     1      96.195  94.702  80.038  1.00  0.00     0.071 C 
ATOM      2  C   UNL     1      95.453  94.962  78.963  1.00  0.00     0.006 C 
ENDROOT
BRANCH   1   3
ATOM      3  C   UNL     1      97.434  95.482  80.231  1.00  0.00     0.246 C 
ATOM      4  O   UNL     1      98.401  95.198  79.524  1.00  0.00    -0.270 OA
ATOM      5  N   UNL     1      97.427  96.482  81.203  1.00  0.00    -0.339 N 
ATOM      6  C   UNL     1      98.644  97.269  81.422  1.00  0.00     0.120 C 
ATOM      7  C   UNL     1      96.308  96.819  82.095  1.00  0.00     0.120 C 
ATOM      8  C   UNL     1      98.360  98.766  81.345  1.00  0.00     0.022 C 
ATOM      9  C   UNL     1      95.995  98.314  82.049  1.00  0.00     0.022 C 
ATOM     10  C   UNL     1      97.240  99.159  82.303  1.00  0.00     0.004 C 
ENDBRANCH   1   3
BRANCH   2  11
ATOM     11  C   UNL     1      94.223  94.250  78.687  1.00  0.00     0.001 C 
ATOM     12  C   UNL     1      93.775  94.030  77.440  1.00  0.00     0.008 C 
BRANCH  12  13
ATOM     13  C   UNL     1      92.529  93.321  77.104  1.00  0.00    -0.022 A 
ATOM     14  C   UNL     1      92.414  92.707  75.864  1.00  0.00     0.058 A 
ATOM     15  C   UNL     1      91.495  93.284  78.043  1.00  0.00     0.012 A 
ATOM     16  C   UNL     1      91.228  92.055  75.595  1.00  0.00     0.166 A 
ATOM     17  C   UNL     1      90.305  92.617  77.745  1.00  0.00     0.051 A 
ATOM     18  O   UNL     1      90.923  91.398  74.443  1.00  0.00    -0.454 OA
ATOM     19  C   UNL     1      90.202  92.011  76.510  1.00  0.00     0.165 A 
ATOM     20  C   UNL     1      89.589  90.935  74.736  1.00  0.00     0.468 C 
ATOM     21  O   UNL     1      89.125  91.320  76.047  1.00  0.00    -0.454 OA
ENDBRANCH  12  13
ENDBRANCH   2  11
TORSDOF 3
ENDMDL
MODEL 5
REMARK VINA RESULT:    -6.775      3.357      8.739
REMARK INTER + INTRA:          -8.347
REMARK INTER:                  -7.924
REMARK INTRA:                  -0.423
REMARK UNBOUND:                -0.383
REMARK SMILES O=C(/C=C/C=C/c1ccc2c(c1)OCO2)N1CCCCC1
REMARK SMILES IDX 3 1 4 2 2 3 1 4 16 5 17 6 21 7 18 8 20 9 19 10 5 11 6 12
REMARK SMILES IDX 7 13 12 14 8 15 11 16 9 17 13 18 10 19 14 20 15 21
REMARK H PARENT
REMARK Flexibility Score: inf
ROOT
ATOM      1  C   UNL     1      97.654  80.788  82.107  1.00  0.00     0.071 C 
ATOM      2  C   UNL     1      96.922  81.850  81.775  1.00  0.00     0.006 C 
ENDROOT
BRANCH   1   3
ATOM      3  C   UNL     1      97.845  80.497  83.542  1.00  0.00     0.246 C 
ATOM      4  O   UNL     1      98.385  81.362  84.231  1.00  0.00    -0.270 OA
ATOM      5  N   UNL     1      97.405  79.263  84.018  1.00  0.00    -0.339 N 
ATOM      6  C   UNL     1      97.586  78.943  85.437  1.00  0.00     0.120 C 
ATOM      7  C   UNL     1      96.798  78.189  83.218  1.00  0.00     0.120 C 
ATOM      8  C   UNL     1      96.274  78.504  86.080  1.00  0.00     0.022 C 
ATOM      9  C   UNL     1      95.480  77.718  83.833  1.00  0.00     0.022 C 
ATOM     10  C   UNL     1      95.645  77.351  85.305  1.00  0.00     0.004 C 
ENDBRANCH   1   3
BRANCH   2  11
ATOM     11  C   UNL     1      96.679  82.217  80.396  1.00  0.00     0.001 C 
ATOM     12  C   UNL     1      97.415  81.742  79.378  1.00  0.00     0.008 C 
BRANCH  12  13
ATOM     13  C   UNL     1      97.217  82.088  77.960  1.00  0.00    -0.022 A 
ATOM     14  C   UNL     1      98.236  81.828  77.053  1.00  0.00     0.058 A 
ATOM     15  C   UNL     1      96.009  82.668  77.566  1.00  0.00     0.012 A 
ATOM     16  C   UNL     1      98.003  82.169  75.736  1.00  0.00     0.166 A 
ATOM     17  C   UNL     1      95.800  83.003  76.227  1.00  0.00     0.051 A 
ATOM     18  O   UNL     1      98.872  81.998  74.702  1.00  0.00    -0.454 OA
ATOM     19  C   UNL     1      96.818  82.741  75.334  1.00  0.00     0.165 A 
ATOM     20  C   UNL     1      98.100  82.526  73.604  1.00  0.00     0.468 C 
ATOM     21  O   UNL     1      96.796  82.999  73.998  1.00  0.00    -0.454 OA
ENDBRANCH  12  13
ENDBRANCH   2  11
TORSDOF 3
ENDMDL
MODEL 6
REMARK VINA RESULT:    -6.755     12.392     13.320
REMARK INTER + INTRA:          -8.324
REMARK INTER:                  -7.952
REMARK INTRA:                  -0.372
REMARK UNBOUND:                -0.383
REMARK SMILES O=C(/C=C/C=C/c1ccc2c(c1)OCO2)N1CCCCC1
REMARK SMILES IDX 3 1 4 2 2 3 1 4 16 5 17 6 21 7 18 8 20 9 19 10 5 11 6 12
REMARK SMILES IDX 7 13 12 14 8 15 11 16 9 17 13 18 10 19 14 20 15 21
REMARK H PARENT
REMARK Flexibility Score: inf
ROOT
ATOM      1  C   UNL     1      93.537  94.717  77.359  1.00  0.00     0.071 C 
ATOM      2  C   UNL     1      94.563  94.288  78.092  1.00  0.00     0.006 C 
ENDROOT
BRANCH   1   3
ATOM      3  C   UNL     1      93.058  93.854  76.262  1.00  0.00     0.246 C 
ATOM      4  O   UNL     1      93.839  93.619  75.340  1.00  0.00    -0.270 OA
ATOM      5  N   UNL     1      91.754  93.367  76.341  1.00  0.00    -0.339 N 
ATOM      6  C   UNL     1      91.248  92.511  75.263  1.00  0.00     0.120 C 
ATOM      7  C   UNL     1      90.779  93.661  77.402  1.00  0.00     0.120 C 
ATOM      8  C   UNL     1      90.676  91.208  75.809  1.00  0.00     0.022 C 
ATOM      9  C   UNL     1      90.179  92.377  77.973  1.00  0.00     0.022 C 
ATOM     10  C   UNL     1      89.618  91.479  76.874  1.00  0.00     0.004 C 
ENDBRANCH   1   3
BRANCH   2  11
ATOM     11  C   UNL     1      95.103  95.063  79.188  1.00  0.00     0.001 C 
ATOM     12  C   UNL     1      96.167  94.665  79.905  1.00  0.00     0.008 C 
BRANCH  12  13
ATOM     13  C   UNL     1      96.751  95.410  81.033  1.00  0.00    -0.022 A 
ATOM     14  C   UNL     1      98.013  95.058  81.493  1.00  0.00     0.058 A 
ATOM     15  C   UNL     1      96.019  96.451  81.610  1.00  0.00     0.012 A 
ATOM     16  C   UNL     1      98.519  95.785  82.551  1.00  0.00     0.166 A 
ATOM     17  C   UNL     1      96.555  97.170  82.681  1.00  0.00     0.051 A 
ATOM     18  O   UNL     1      99.730  95.595  83.144  1.00  0.00    -0.454 OA
ATOM     19  C   UNL     1      97.810  96.813  83.130  1.00  0.00     0.165 A 
ATOM     20  C   UNL     1      99.703  96.619  84.159  1.00  0.00     0.468 C 
ATOM     21  O   UNL     1      98.487  97.396  84.156  1.00  0.00    -0.454 OA
ENDBRANCH  12  13
ENDBRANCH   2  11
TORSDOF 3
ENDMDL
MODEL 7
REMARK VINA RESULT:    -6.559     17.043     19.409
REMARK INTER + INTRA:          -8.092
REMARK INTER:                  -7.714
REMARK INTRA:                  -0.378
REMARK UNBOUND:                -0.383
REMARK SMILES O=C(/C=C/C=C/c1ccc2c(c1)OCO2)N1CCCCC1
REMARK SMILES IDX 3 1 4 2 2 3 1 4 16 5 17 6 21 7 18 8 20 9 19 10 5 11 6 12
REMARK SMILES IDX 7 13 12 14 8 15 11 16 9 17 13 18 10 19 14 20 15 21
REMARK H PARENT
REMARK Flexibility Score: inf
ROOT
ATOM      1  C   UNL     1      93.668  97.057  74.590  1.00  0.00     0.071 C 
ATOM      2  C   UNL     1      94.258  98.194  74.227  1.00  0.00     0.006 C 
ENDROOT
BRANCH   1   3
ATOM      3  C   UNL     1      94.459  96.081  75.366  1.00  0.00     0.246 C 
ATOM      4  O   UNL     1      95.678  96.251  75.420  1.00  0.00    -0.270 OA
ATOM      5  N   UNL     1      93.776  95.032  75.980  1.00  0.00    -0.339 N 
ATOM      6  C   UNL     1      94.536  94.044  76.753  1.00  0.00     0.120 C 
ATOM      7  C   UNL     1      92.331  94.772  75.901  1.00  0.00     0.120 C 
ATOM      8  C   UNL     1      93.967  93.880  78.158  1.00  0.00     0.022 C 
ATOM      9  C   UNL     1      91.724  94.597  77.293  1.00  0.00     0.022 C 
ATOM     10  C   UNL     1      92.478  93.552  78.110  1.00  0.00     0.004 C 
ENDBRANCH   1   3
BRANCH   2  11
ATOM     11  C   UNL     1      93.565  99.211  73.465  1.00  0.00     0.001 C 
ATOM     12  C   UNL     1      92.842  98.931  72.368  1.00  0.00     0.008 C 
BRANCH  12  13
ATOM     13  C   UNL     1      92.125  99.925  71.553  1.00  0.00    -0.022 A 
ATOM     14  C   UNL     1      91.421  99.501  70.434  1.00  0.00     0.058 A 
ATOM     15  C   UNL     1      92.174 101.271  71.927  1.00  0.00     0.012 A 
ATOM     16  C   UNL     1      90.765 100.470  69.703  1.00  0.00     0.166 A 
ATOM     17  C   UNL     1      91.501 102.230  71.168  1.00  0.00     0.051 A 
ATOM     18  O   UNL     1      90.026 100.258  68.579  1.00  0.00    -0.454 OA
ATOM     19  C   UNL     1      90.804 101.798  70.059  1.00  0.00     0.165 A 
ATOM     20  C   UNL     1      89.604 101.601  68.270  1.00  0.00     0.468 C 
ATOM     21  O   UNL     1      90.094 102.584  69.205  1.00  0.00    -0.454 OA
ENDBRANCH  12  13
ENDBRANCH   2  11
TORSDOF 3
ENDMDL
MODEL 8
REMARK VINA RESULT:    -6.385     13.300     14.700
REMARK INTER + INTRA:          -7.888
REMARK INTER:                  -7.496
REMARK INTRA:                  -0.392
REMARK UNBOUND:                -0.383
REMARK SMILES O=C(/C=C/C=C/c1ccc2c(c1)OCO2)N1CCCCC1
REMARK SMILES IDX 3 1 4 2 2 3 1 4 16 5 17 6 21 7 18 8 20 9 19 10 5 11 6 12
REMARK SMILES IDX 7 13 12 14 8 15 11 16 9 17 13 18 10 19 14 20 15 21
REMARK H PARENT
REMARK Flexibility Score: inf
ROOT
ATOM      1  C   UNL     1      94.903  95.112  78.892  1.00  0.00     0.071 C 
ATOM      2  C   UNL     1      95.616  94.647  79.916  1.00  0.00     0.006 C 
ENDROOT
BRANCH   1   3
ATOM      3  C   UNL     1      94.666  94.214  77.745  1.00  0.00     0.246 C 
ATOM      4  O   UNL     1      95.480  93.309  77.553  1.00  0.00    -0.270 OA
ATOM      5  N   UNL     1      93.543  94.451  76.954  1.00  0.00    -0.339 N 
ATOM      6  C   UNL     1      93.285  93.578  75.805  1.00  0.00     0.120 C 
ATOM      7  C   UNL     1      92.576  95.545  77.125  1.00  0.00     0.120 C 
ATOM      8  C   UNL     1      91.871  93.010  75.843  1.00  0.00     0.022 C 
ATOM      9  C   UNL     1      91.143  95.015  77.164  1.00  0.00     0.022 C 
ATOM     10  C   UNL     1      90.837  94.126  75.962  1.00  0.00     0.004 C 
ENDBRANCH   1   3
BRANCH   2  11
ATOM     11  C   UNL     1      95.900  95.453  81.085  1.00  0.00     0.001 C 
ATOM     12  C   UNL     1      96.055  96.785  81.028  1.00  0.00     0.008 C 
BRANCH  12  13
ATOM     13  C   UNL     1      96.353  97.650  82.182  1.00  0.00    -0.022 A 
ATOM     14  C   UNL     1      95.945  98.977  82.156  1.00  0.00     0.058 A 
ATOM     15  C   UNL     1      97.040  97.111  83.273  1.00  0.00     0.012 A 
ATOM     16  C   UNL     1      96.247  99.747  83.260  1.00  0.00     0.166 A 
ATOM     17  C   UNL     1      97.332  97.914  84.378  1.00  0.00     0.051 A 
ATOM     18  O   UNL     1      95.935 101.062  83.425  1.00  0.00    -0.454 OA
ATOM     19  C   UNL     1      96.922  99.230  84.342  1.00  0.00     0.165 A 
ATOM     20  C   UNL     1      96.490 101.314  84.732  1.00  0.00     0.468 C 
ATOM     21  O   UNL     1      97.118 100.156  85.320  1.00  0.00    -0.454 OA
ENDBRANCH  12  13
ENDBRANCH   2  11
TORSDOF 3
ENDMDL
MODEL 9
REMARK VINA RESULT:    -6.293     12.762     14.560
REMARK INTER + INTRA:          -7.780
REMARK INTER:                  -7.353
REMARK INTRA:                  -0.427
REMARK UNBOUND:                -0.383
REMARK SMILES O=C(/C=C/C=C/c1ccc2c(c1)OCO2)N1CCCCC1
REMARK SMILES IDX 3 1 4 2 2 3 1 4 16 5 17 6 21 7 18 8 20 9 19 10 5 11 6 12
REMARK SMILES IDX 7 13 12 14 8 15 11 16 9 17 13 18 10 19 14 20 15 21
REMARK H PARENT
REMARK Flexibility Score: inf
ROOT
ATOM      1  C   UNL     1      97.625  95.178  79.009  1.00  0.00     0.071 C 
ATOM      2  C   UNL     1      96.819  95.902  78.234  1.00  0.00     0.006 C 
ENDROOT
BRANCH   1   3
ATOM      3  C   UNL     1      98.760  95.861  79.659  1.00  0.00     0.246 C 
ATOM      4  O   UNL     1      99.746  96.114  78.965  1.00  0.00    -0.270 OA
ATOM      5  N   UNL     1      98.644  96.168  81.014  1.00  0.00    -0.339 N 
ATOM      6  C   UNL     1      99.758  96.841  81.689  1.00  0.00     0.120 C 
ATOM      7  C   UNL     1      97.505  95.842  81.885  1.00  0.00     0.120 C 
ATOM      8  C   UNL     1      99.291  98.098  82.415  1.00  0.00     0.022 C 
ATOM      9  C   UNL     1      97.009  97.078  82.634  1.00  0.00     0.022 C 
ATOM     10  C   UNL     1      98.145  97.784  83.371  1.00  0.00     0.004 C 
ENDBRANCH   1   3
BRANCH   2  11
ATOM     11  C   UNL     1      95.680  95.322  77.554  1.00  0.00     0.001 C 
ATOM     12  C   UNL     1      94.775  94.552  78.179  1.00  0.00     0.008 C 
BRANCH  12  13
ATOM     13  C   UNL     1      93.605  93.932  77.535  1.00  0.00    -0.022 A 
ATOM     14  C   UNL     1      92.570  93.456  78.329  1.00  0.00     0.058 A 
ATOM     15  C   UNL     1      93.569  93.839  76.141  1.00  0.00     0.012 A 
ATOM     16  C   UNL     1      91.496  92.884  77.679  1.00  0.00     0.166 A 
ATOM     17  C   UNL     1      92.469  93.254  75.510  1.00  0.00     0.051 A 
ATOM     18  O   UNL     1      90.389  92.360  78.276  1.00  0.00    -0.454 OA
ATOM     19  C   UNL     1      91.446  92.785  76.308  1.00  0.00     0.165 A 
ATOM     20  C   UNL     1      89.638  91.922  77.126  1.00  0.00     0.468 C 
ATOM     21  O   UNL     1      90.303  92.188  75.873  1.00  0.00    -0.454 OA
ENDBRANCH  12  13
ENDBRANCH   2  11
TORSDOF 3
ENDMDL
MODEL 10
REMARK VINA RESULT:    -6.206      8.872     11.214
REMARK INTER + INTRA:          -7.678
REMARK INTER:                  -7.295
REMARK INTRA:                  -0.383
REMARK UNBOUND:                -0.383
REMARK SMILES O=C(/C=C/C=C/c1ccc2c(c1)OCO2)N1CCCCC1
REMARK SMILES IDX 3 1 4 2 2 3 1 4 16 5 17 6 21 7 18 8 20 9 19 10 5 11 6 12
REMARK SMILES IDX 7 13 12 14 8 15 11 16 9 17 13 18 10 19 14 20 15 21
REMARK H PARENT
REMARK Flexibility Score: inf
ROOT
ATOM      1  C   UNL     1      94.091  85.482  88.178  1.00  0.00     0.071 C 
ATOM      2  C   UNL     1      94.176  84.670  87.126  1.00  0.00     0.006 C 
ENDROOT
BRANCH   1   3
ATOM      3  C   UNL     1      95.236  86.368  88.465  1.00  0.00     0.246 C 
ATOM      4  O   UNL     1      96.307  86.112  87.914  1.00  0.00    -0.270 OA
ATOM      5  N   UNL     1      95.030  87.431  89.344  1.00  0.00    -0.339 N 
ATOM      6  C   UNL     1      96.150  88.325  89.653  1.00  0.00     0.120 C 
ATOM      7  C   UNL     1      93.781  87.741  90.055  1.00  0.00     0.120 C 
ATOM      8  C   UNL     1      95.778  89.785  89.421  1.00  0.00     0.022 C 
ATOM      9  C   UNL     1      93.376  89.200  89.849  1.00  0.00     0.022 C 
ATOM     10  C   UNL     1      94.515  90.156  90.192  1.00  0.00     0.004 C 
ENDBRANCH   1   3
BRANCH   2  11
ATOM     11  C   UNL     1      93.106  83.765  86.764  1.00  0.00     0.001 C 
ATOM     12  C   UNL     1      92.040  83.547  87.552  1.00  0.00     0.008 C 
BRANCH  12  13
ATOM     13  C   UNL     1      90.929  82.633  87.237  1.00  0.00    -0.022 A 
ATOM     14  C   UNL     1      90.593  82.411  85.908  1.00  0.00     0.058 A 
ATOM     15  C   UNL     1      90.244  82.014  88.285  1.00  0.00     0.012 A 
ATOM     16  C   UNL     1      89.546  81.547  85.664  1.00  0.00     0.166 A 
ATOM     17  C   UNL     1      89.187  81.143  88.008  1.00  0.00     0.051 A 
ATOM     18  O   UNL     1      89.066  81.202  84.437  1.00  0.00    -0.454 OA
ATOM     19  C   UNL     1      88.862  80.929  86.685  1.00  0.00     0.165 A 
ATOM     20  C   UNL     1      88.003  80.298  84.802  1.00  0.00     0.468 C 
ATOM     21  O   UNL     1      87.868  80.120  86.227  1.00  0.00    -0.454 OA
ENDBRANCH  12  13
ENDBRANCH   2  11
TORSDOF 3
ENDMDL
