MODEL 1
REMARK VINA RESULT:    -6.774      0.000      0.000
REMARK INTER + INTRA:         -12.152
REMARK INTER:                 -11.329
REMARK INTRA:                  -0.823
REMARK UNBOUND:                -0.823
REMARK SMILES COc1cc(CNC(=O)CCCCCCCC(C)C)ccc1O
REMARK SMILES IDX 11 1 10 2 8 3 9 4 7 5 6 7 5 8 4 9 20 10 3 11 21 12 22 13
REMARK SMILES IDX 2 14 1 15 23 16 12 18 13 19 14 20 15 21 16 22 17 23 18 24
REMARK SMILES IDX 19 25
REMARK H PARENT 7 6 23 17
REMARK Flexibility Score: inf
ROOT
ATOM      1  C   UNL     1      95.955  83.949  82.810  1.00  0.00     0.010 C 
ENDROOT
BRANCH   1   2
ATOM      2  C   UNL     1      96.190  84.656  84.144  1.00  0.00     0.100 C 
BRANCH   2   3
ATOM      3  C   UNL     1      95.198  84.224  85.211  1.00  0.00     0.220 C 
ATOM      4  O   UNL     1      95.483  84.141  86.402  1.00  0.00    -0.275 OA
ATOM      5  N   UNL     1      93.956  83.935  84.664  1.00  0.00    -0.352 N 
ATOM      6  H   UNL     1      93.816  84.022  83.661  1.00  0.00     0.163 HD
BRANCH   5   7
ATOM      7  C   UNL     1      92.834  83.494  85.460  1.00  0.00     0.151 C 
BRANCH   7   8
ATOM      8  C   UNL     1      92.329  82.150  85.022  1.00  0.00    -0.025 A 
ATOM      9  C   UNL     1      91.063  82.040  84.460  1.00  0.00     0.056 A 
ATOM     10  C   UNL     1      93.134  81.028  85.182  1.00  0.00     0.009 A 
ATOM     11  C   UNL     1      90.594  80.791  84.053  1.00  0.00     0.160 A 
ATOM     12  C   UNL     1      92.664  79.779  84.775  1.00  0.00     0.050 A 
ATOM     13  C   UNL     1      91.395  79.660  84.211  1.00  0.00     0.157 A 
BRANCH  11  14
ATOM     14  O   UNL     1      89.351  80.688  83.504  1.00  0.00    -0.493 OA
ATOM     15  C   UNL     1      88.246  80.642  84.406  1.00  0.00     0.278 C 
ENDBRANCH  11  14
BRANCH  13  16
ATOM     16  O   UNL     1      90.948  78.435  83.817  1.00  0.00    -0.504 OA
ATOM     17  H   UNL     1      91.626  78.015  83.260  1.00  0.00     0.293 HD
ENDBRANCH  13  16
ENDBRANCH   7   8
ENDBRANCH   5   7
ENDBRANCH   2   3
ENDBRANCH   1   2
BRANCH   1  18
ATOM     18  C   UNL     1      96.609  82.567  82.728  1.00  0.00     0.001 C 
BRANCH  18  19
ATOM     19  C   UNL     1      96.976  82.089  81.319  1.00  0.00     0.000 C 
BRANCH  19  20
ATOM     20  C   UNL     1      97.085  83.229  80.302  1.00  0.00     0.000 C 
BRANCH  20  21
ATOM     21  C   UNL     1      97.538  82.766  78.913  1.00  0.00     0.000 C 
BRANCH  21  22
ATOM     22  C   UNL     1      96.672  83.321  77.777  1.00  0.00     0.003 C 
BRANCH  22  23
ATOM     23  C   UNL     1      97.488  83.997  76.657  1.00  0.00    -0.017 C 
ATOM     24  C   UNL     1      96.594  84.966  75.879  1.00  0.00     0.007 C 
ATOM     25  C   UNL     1      98.111  82.986  75.694  1.00  0.00     0.007 C 
ENDBRANCH  22  23
ENDBRANCH  21  22
ENDBRANCH  20  21
ENDBRANCH  19  20
ENDBRANCH  18  19
ENDBRANCH   1  18
TORSDOF 12
ENDMDL
MODEL 2
REMARK VINA RESULT:    -6.514     12.364     15.074
REMARK INTER + INTRA:         -11.716
REMARK INTER:                 -11.058
REMARK INTRA:                  -0.658
REMARK UNBOUND:                -0.823
REMARK SMILES COc1cc(CNC(=O)CCCCCCCC(C)C)ccc1O
REMARK SMILES IDX 11 1 10 2 8 3 9 4 7 5 6 7 5 8 4 9 20 10 3 11 21 12 22 13
REMARK SMILES IDX 2 14 1 15 23 16 12 18 13 19 14 20 15 21 16 22 17 23 18 24
REMARK SMILES IDX 19 25
REMARK H PARENT 7 6 23 17
REMARK Flexibility Score: inf
ROOT
ATOM      1  C   UNL     1      92.597  95.971  77.295  1.00  0.00     0.010 C 
ENDROOT
BRANCH   1   2
ATOM      2  C   UNL     1      93.238  94.986  78.271  1.00  0.00     0.100 C 
BRANCH   2   3
ATOM      3  C   UNL     1      94.756  95.016  78.210  1.00  0.00     0.220 C 
ATOM      4  O   UNL     1      95.433  94.073  77.809  1.00  0.00    -0.275 OA
ATOM      5  N   UNL     1      95.261  96.224  78.667  1.00  0.00    -0.352 N 
ATOM      6  H   UNL     1      94.622  96.945  78.991  1.00  0.00     0.163 HD
BRANCH   5   7
ATOM      7  C   UNL     1      96.676  96.511  78.723  1.00  0.00     0.151 C 
BRANCH   7   8
ATOM      8  C   UNL     1      97.242  96.279  80.093  1.00  0.00    -0.025 A 
ATOM      9  C   UNL     1      98.514  96.749  80.400  1.00  0.00     0.056 A 
ATOM     10  C   UNL     1      96.489  95.597  81.041  1.00  0.00     0.009 A 
ATOM     11  C   UNL     1      99.040  96.533  81.674  1.00  0.00     0.160 A 
ATOM     12  C   UNL     1      97.016  95.381  82.315  1.00  0.00     0.050 A 
ATOM     13  C   UNL     1      98.291  95.849  82.632  1.00  0.00     0.157 A 
BRANCH  11  14
ATOM     14  O   UNL     1     100.287  96.994  81.971  1.00  0.00    -0.493 OA
ATOM     15  C   UNL     1     100.454  98.409  82.045  1.00  0.00     0.278 C 
ENDBRANCH  11  14
BRANCH  13  16
ATOM     16  O   UNL     1      98.794  95.632  83.879  1.00  0.00    -0.504 OA
ATOM     17  H   UNL     1      98.286  94.922  84.306  1.00  0.00     0.293 HD
ENDBRANCH  13  16
ENDBRANCH   7   8
ENDBRANCH   5   7
ENDBRANCH   2   3
ENDBRANCH   1   2
BRANCH   1  18
ATOM     18  C   UNL     1      91.203  95.547  76.826  1.00  0.00     0.001 C 
BRANCH  18  19
ATOM     19  C   UNL     1      91.072  94.092  76.362  1.00  0.00     0.000 C 
BRANCH  19  20
ATOM     20  C   UNL     1      91.062  93.942  74.838  1.00  0.00     0.000 C 
BRANCH  20  21
ATOM     21  C   UNL     1      90.453  92.619  74.360  1.00  0.00     0.000 C 
BRANCH  21  22
ATOM     22  C   UNL     1      89.950  91.734  75.505  1.00  0.00     0.003 C 
BRANCH  22  23
ATOM     23  C   UNL     1      89.278  90.433  75.025  1.00  0.00    -0.017 C 
ATOM     24  C   UNL     1      90.348  89.405  74.650  1.00  0.00     0.007 C 
ATOM     25  C   UNL     1      88.344  90.660  73.836  1.00  0.00     0.007 C 
ENDBRANCH  22  23
ENDBRANCH  21  22
ENDBRANCH  20  21
ENDBRANCH  19  20
ENDBRANCH  18  19
ENDBRANCH   1  18
TORSDOF 12
ENDMDL
MODEL 3
REMARK VINA RESULT:    -6.330     13.695     16.835
REMARK INTER + INTRA:         -11.409
REMARK INTER:                  -9.764
REMARK INTRA:                  -1.645
REMARK UNBOUND:                -0.823
REMARK SMILES COc1cc(CNC(=O)CCCCCCCC(C)C)ccc1O
REMARK SMILES IDX 11 1 10 2 8 3 9 4 7 5 6 7 5 8 4 9 20 10 3 11 21 12 22 13
REMARK SMILES IDX 2 14 1 15 23 16 12 18 13 19 14 20 15 21 16 22 17 23 18 24
REMARK SMILES IDX 19 25
REMARK H PARENT 7 6 23 17
REMARK Flexibility Score: inf
ROOT
ATOM      1  C   UNL     1      94.889  94.864  79.353  1.00  0.00     0.010 C 
ENDROOT
BRANCH   1   2
ATOM      2  C   UNL     1      96.076  95.560  80.016  1.00  0.00     0.100 C 
BRANCH   2   3
ATOM      3  C   UNL     1      96.672  96.648  79.138  1.00  0.00     0.220 C 
ATOM      4  O   UNL     1      97.863  96.699  78.844  1.00  0.00    -0.275 OA
ATOM      5  N   UNL     1      95.709  97.559  78.731  1.00  0.00    -0.352 N 
ATOM      6  H   UNL     1      94.746  97.441  79.035  1.00  0.00     0.163 HD
BRANCH   5   7
ATOM      7  C   UNL     1      96.011  98.698  77.895  1.00  0.00     0.151 C 
BRANCH   7   8
ATOM      8  C   UNL     1      95.836  98.386  76.437  1.00  0.00    -0.025 A 
ATOM      9  C   UNL     1      96.950  98.329  75.607  1.00  0.00     0.056 A 
ATOM     10  C   UNL     1      94.562  98.157  75.932  1.00  0.00     0.009 A 
ATOM     11  C   UNL     1      96.787  98.040  74.252  1.00  0.00     0.160 A 
ATOM     12  C   UNL     1      94.400  97.867  74.576  1.00  0.00     0.050 A 
ATOM     13  C   UNL     1      95.512  97.809  73.736  1.00  0.00     0.157 A 
BRANCH  11  14
ATOM     14  O   UNL     1      97.881  97.986  73.442  1.00  0.00    -0.493 OA
ATOM     15  C   UNL     1      98.421  99.231  72.999  1.00  0.00     0.278 C 
ENDBRANCH  11  14
BRANCH  13  16
ATOM     16  O   UNL     1      95.340  97.525  72.416  1.00  0.00    -0.504 OA
ATOM     17  H   UNL     1      95.080  96.592  72.324  1.00  0.00     0.293 HD
ENDBRANCH  13  16
ENDBRANCH   7   8
ENDBRANCH   5   7
ENDBRANCH   2   3
ENDBRANCH   1   2
BRANCH   1  18
ATOM     18  C   UNL     1      95.186  94.366  77.936  1.00  0.00     0.001 C 
BRANCH  18  19
ATOM     19  C   UNL     1      94.074  94.590  76.906  1.00  0.00     0.000 C 
BRANCH  19  20
ATOM     20  C   UNL     1      92.943  95.485  77.422  1.00  0.00     0.000 C 
BRANCH  20  21
ATOM     21  C   UNL     1      91.620  94.739  77.628  1.00  0.00     0.000 C 
BRANCH  21  22
ATOM     22  C   UNL     1      90.528  95.156  76.638  1.00  0.00     0.003 C 
BRANCH  22  23
ATOM     23  C   UNL     1      89.943  93.977  75.836  1.00  0.00    -0.017 C 
ATOM     24  C   UNL     1      89.955  92.710  76.695  1.00  0.00     0.007 C 
ATOM     25  C   UNL     1      90.701  93.721  74.533  1.00  0.00     0.007 C 
ENDBRANCH  22  23
ENDBRANCH  21  22
ENDBRANCH  20  21
ENDBRANCH  19  20
ENDBRANCH  18  19
ENDBRANCH   1  18
TORSDOF 12
ENDMDL
MODEL 4
REMARK VINA RESULT:    -6.308      3.460      5.427
REMARK INTER + INTRA:         -11.372
REMARK INTER:                 -10.525
REMARK INTRA:                  -0.847
REMARK UNBOUND:                -0.823
REMARK SMILES COc1cc(CNC(=O)CCCCCCCC(C)C)ccc1O
REMARK SMILES IDX 11 1 10 2 8 3 9 4 7 5 6 7 5 8 4 9 20 10 3 11 21 12 22 13
REMARK SMILES IDX 2 14 1 15 23 16 12 18 13 19 14 20 15 21 16 22 17 23 18 24
REMARK SMILES IDX 19 25
REMARK H PARENT 7 6 23 17
REMARK Flexibility Score: inf
ROOT
ATOM      1  C   UNL     1      97.073  83.423  79.386  1.00  0.00     0.010 C 
ENDROOT
BRANCH   1   2
ATOM      2  C   UNL     1      97.551  81.990  79.609  1.00  0.00     0.100 C 
BRANCH   2   3
ATOM      3  C   UNL     1      97.051  81.411  80.923  1.00  0.00     0.220 C 
ATOM      4  O   UNL     1      96.974  80.206  81.142  1.00  0.00    -0.275 OA
ATOM      5  N   UNL     1      96.695  82.410  81.817  1.00  0.00    -0.352 N 
ATOM      6  H   UNL     1      96.783  83.385  81.542  1.00  0.00     0.163 HD
BRANCH   5   7
ATOM      7  C   UNL     1      96.180  82.131  83.138  1.00  0.00     0.151 C 
BRANCH   7   8
ATOM      8  C   UNL     1      95.744  83.381  83.845  1.00  0.00    -0.025 A 
ATOM      9  C   UNL     1      95.027  83.285  85.032  1.00  0.00     0.056 A 
ATOM     10  C   UNL     1      96.061  84.622  83.306  1.00  0.00     0.009 A 
ATOM     11  C   UNL     1      94.621  84.447  85.689  1.00  0.00     0.160 A 
ATOM     12  C   UNL     1      95.654  85.784  83.963  1.00  0.00     0.050 A 
ATOM     13  C   UNL     1      94.934  85.697  85.155  1.00  0.00     0.157 A 
BRANCH  11  14
ATOM     14  O   UNL     1      93.918  84.348  86.852  1.00  0.00    -0.493 OA
ATOM     15  C   UNL     1      93.753  83.041  87.400  1.00  0.00     0.278 C 
ENDBRANCH  11  14
BRANCH  13  16
ATOM     16  O   UNL     1      94.545  86.838  85.787  1.00  0.00    -0.504 OA
ATOM     17  H   UNL     1      94.926  87.603  85.323  1.00  0.00     0.293 HD
ENDBRANCH  13  16
ENDBRANCH   7   8
ENDBRANCH   5   7
ENDBRANCH   2   3
ENDBRANCH   1   2
BRANCH   1  18
ATOM     18  C   UNL     1      96.398  83.637  78.029  1.00  0.00     0.001 C 
BRANCH  18  19
ATOM     19  C   UNL     1      97.341  83.923  76.855  1.00  0.00     0.000 C 
BRANCH  19  20
ATOM     20  C   UNL     1      96.686  84.737  75.737  1.00  0.00     0.000 C 
BRANCH  20  21
ATOM     21  C   UNL     1      97.486  84.732  74.429  1.00  0.00     0.000 C 
BRANCH  21  22
ATOM     22  C   UNL     1      97.394  83.406  73.667  1.00  0.00     0.003 C 
BRANCH  22  23
ATOM     23  C   UNL     1      98.733  82.960  73.047  1.00  0.00    -0.017 C 
ATOM     24  C   UNL     1      99.548  82.180  74.082  1.00  0.00     0.007 C 
ATOM     25  C   UNL     1      99.558  84.137  72.525  1.00  0.00     0.007 C 
ENDBRANCH  22  23
ENDBRANCH  21  22
ENDBRANCH  20  21
ENDBRANCH  19  20
ENDBRANCH  18  19
ENDBRANCH   1  18
TORSDOF 12
ENDMDL
MODEL 5
REMARK VINA RESULT:    -6.284     14.477     18.683
REMARK INTER + INTRA:         -11.332
REMARK INTER:                 -10.172
REMARK INTRA:                  -1.160
REMARK UNBOUND:                -0.823
REMARK SMILES COc1cc(CNC(=O)CCCCCCCC(C)C)ccc1O
REMARK SMILES IDX 11 1 10 2 8 3 9 4 7 5 6 7 5 8 4 9 20 10 3 11 21 12 22 13
REMARK SMILES IDX 2 14 1 15 23 16 12 18 13 19 14 20 15 21 16 22 17 23 18 24
REMARK SMILES IDX 19 25
REMARK H PARENT 7 6 23 17
REMARK Flexibility Score: inf
ROOT
ATOM      1  C   UNL     1      92.824  95.718  75.710  1.00  0.00     0.010 C 
ENDROOT
BRANCH   1   2
ATOM      2  C   UNL     1      93.731  96.832  76.227  1.00  0.00     0.100 C 
BRANCH   2   3
ATOM      3  C   UNL     1      94.796  97.226  75.217  1.00  0.00     0.220 C 
ATOM      4  O   UNL     1      95.797  97.874  75.511  1.00  0.00    -0.275 OA
ATOM      5  N   UNL     1      94.485  96.770  73.944  1.00  0.00    -0.352 N 
ATOM      6  H   UNL     1      93.626  96.249  73.794  1.00  0.00     0.163 HD
BRANCH   5   7
ATOM      7  C   UNL     1      95.328  97.016  72.797  1.00  0.00     0.151 C 
BRANCH   7   8
ATOM      8  C   UNL     1      94.735  98.041  71.874  1.00  0.00    -0.025 A 
ATOM      9  C   UNL     1      95.316  98.266  70.632  1.00  0.00     0.056 A 
ATOM     10  C   UNL     1      93.611  98.754  72.272  1.00  0.00     0.009 A 
ATOM     11  C   UNL     1      94.765  99.218  69.775  1.00  0.00     0.160 A 
ATOM     12  C   UNL     1      93.061  99.708  71.414  1.00  0.00     0.050 A 
ATOM     13  C   UNL     1      93.637  99.940  70.166  1.00  0.00     0.157 A 
BRANCH  11  14
ATOM     14  O   UNL     1      95.338  99.436  68.558  1.00  0.00    -0.493 OA
ATOM     15  C   UNL     1      96.724  99.775  68.546  1.00  0.00     0.278 C 
ENDBRANCH  11  14
BRANCH  13  16
ATOM     16  O   UNL     1      93.090 100.872  69.338  1.00  0.00    -0.504 OA
ATOM     17  H   UNL     1      93.708 101.049  68.608  1.00  0.00     0.293 HD
ENDBRANCH  13  16
ENDBRANCH   7   8
ENDBRANCH   5   7
ENDBRANCH   2   3
ENDBRANCH   1   2
BRANCH   1  18
ATOM     18  C   UNL     1      91.544  95.542  76.533  1.00  0.00     0.001 C 
BRANCH  18  19
ATOM     19  C   UNL     1      91.631  94.543  77.691  1.00  0.00     0.000 C 
BRANCH  19  20
ATOM     20  C   UNL     1      90.326  93.781  77.933  1.00  0.00     0.000 C 
BRANCH  20  21
ATOM     21  C   UNL     1      89.582  93.421  76.642  1.00  0.00     0.000 C 
BRANCH  21  22
ATOM     22  C   UNL     1      89.947  92.035  76.098  1.00  0.00     0.003 C 
BRANCH  22  23
ATOM     23  C   UNL     1      90.639  92.078  74.722  1.00  0.00    -0.017 C 
ATOM     24  C   UNL     1      90.204  93.334  73.963  1.00  0.00     0.007 C 
ATOM     25  C   UNL     1      90.341  90.839  73.877  1.00  0.00     0.007 C 
ENDBRANCH  22  23
ENDBRANCH  21  22
ENDBRANCH  20  21
ENDBRANCH  19  20
ENDBRANCH  18  19
ENDBRANCH   1  18
TORSDOF 12
ENDMDL
MODEL 6
REMARK VINA RESULT:    -6.109     12.573     15.827
REMARK INTER + INTRA:         -11.040
REMARK INTER:                 -10.414
REMARK INTRA:                  -0.627
REMARK UNBOUND:                -0.823
REMARK SMILES COc1cc(CNC(=O)CCCCCCCC(C)C)ccc1O
REMARK SMILES IDX 11 1 10 2 8 3 9 4 7 5 6 7 5 8 4 9 20 10 3 11 21 12 22 13
REMARK SMILES IDX 2 14 1 15 23 16 12 18 13 19 14 20 15 21 16 22 17 23 18 24
REMARK SMILES IDX 19 25
REMARK H PARENT 7 6 23 17
REMARK Flexibility Score: inf
ROOT
ATOM      1  C   UNL     1      92.934  95.967  77.198  1.00  0.00     0.010 C 
ENDROOT
BRANCH   1   2
ATOM      2  C   UNL     1      93.839  95.434  78.307  1.00  0.00     0.100 C 
BRANCH   2   3
ATOM      3  C   UNL     1      95.096  96.269  78.480  1.00  0.00     0.220 C 
ATOM      4  O   UNL     1      96.229  95.820  78.332  1.00  0.00    -0.275 OA
ATOM      5  N   UNL     1      94.795  97.577  78.829  1.00  0.00    -0.352 N 
ATOM      6  H   UNL     1      93.824  97.856  78.941  1.00  0.00     0.163 HD
BRANCH   5   7
ATOM      7  C   UNL     1      95.810  98.579  79.062  1.00  0.00     0.151 C 
BRANCH   7   8
ATOM      8  C   UNL     1      96.128  98.726  80.522  1.00  0.00    -0.025 A 
ATOM      9  C   UNL     1      97.040  97.863  81.117  1.00  0.00     0.056 A 
ATOM     10  C   UNL     1      95.508  99.725  81.263  1.00  0.00     0.009 A 
ATOM     11  C   UNL     1      97.336  98.000  82.473  1.00  0.00     0.160 A 
ATOM     12  C   UNL     1      95.804  99.861  82.620  1.00  0.00     0.050 A 
ATOM     13  C   UNL     1      96.717  98.999  83.225  1.00  0.00     0.157 A 
BRANCH  11  14
ATOM     14  O   UNL     1      98.230  97.151  83.053  1.00  0.00    -0.493 OA
ATOM     15  C   UNL     1      98.142  95.773  82.694  1.00  0.00     0.278 C 
ENDBRANCH  11  14
BRANCH  13  16
ATOM     16  O   UNL     1      96.998  99.143  84.550  1.00  0.00    -0.504 OA
ATOM     17  H   UNL     1      97.360 100.033  84.702  1.00  0.00     0.293 HD
ENDBRANCH  13  16
ENDBRANCH   7   8
ENDBRANCH   5   7
ENDBRANCH   2   3
ENDBRANCH   1   2
BRANCH   1  18
ATOM     18  C   UNL     1      91.703  95.094  76.942  1.00  0.00     0.001 C 
BRANCH  18  19
ATOM     19  C   UNL     1      91.628  94.441  75.558  1.00  0.00     0.000 C 
BRANCH  19  20
ATOM     20  C   UNL     1      90.195  94.258  75.051  1.00  0.00     0.000 C 
BRANCH  20  21
ATOM     21  C   UNL     1      90.013  93.017  74.171  1.00  0.00     0.000 C 
BRANCH  21  22
ATOM     22  C   UNL     1      90.372  91.709  74.884  1.00  0.00     0.003 C 
BRANCH  22  23
ATOM     23  C   UNL     1      89.873  90.450  74.147  1.00  0.00    -0.017 C 
ATOM     24  C   UNL     1      88.401  90.622  73.768  1.00  0.00     0.007 C 
ATOM     25  C   UNL     1      90.045  89.178  74.978  1.00  0.00     0.007 C 
ENDBRANCH  22  23
ENDBRANCH  21  22
ENDBRANCH  20  21
ENDBRANCH  19  20
ENDBRANCH  18  19
ENDBRANCH   1  18
TORSDOF 12
ENDMDL
MODEL 7
REMARK VINA RESULT:    -5.934      2.743      5.140
REMARK INTER + INTRA:         -10.747
REMARK INTER:                  -9.953
REMARK INTRA:                  -0.793
REMARK UNBOUND:                -0.823
REMARK SMILES COc1cc(CNC(=O)CCCCCCCC(C)C)ccc1O
REMARK SMILES IDX 11 1 10 2 8 3 9 4 7 5 6 7 5 8 4 9 20 10 3 11 21 12 22 13
REMARK SMILES IDX 2 14 1 15 23 16 12 18 13 19 14 20 15 21 16 22 17 23 18 24
REMARK SMILES IDX 19 25
REMARK H PARENT 7 6 23 17
REMARK Flexibility Score: inf
ROOT
ATOM      1  C   UNL     1      97.111  82.938  77.964  1.00  0.00     0.010 C 
ENDROOT
BRANCH   1   2
ATOM      2  C   UNL     1      97.108  83.666  79.307  1.00  0.00     0.100 C 
BRANCH   2   3
ATOM      3  C   UNL     1      97.060  82.706  80.485  1.00  0.00     0.220 C 
ATOM      4  O   UNL     1      97.211  81.493  80.372  1.00  0.00    -0.275 OA
ATOM      5  N   UNL     1      96.819  83.373  81.677  1.00  0.00    -0.352 N 
ATOM      6  H   UNL     1      96.695  84.382  81.671  1.00  0.00     0.163 HD
BRANCH   5   7
ATOM      7  C   UNL     1      96.717  82.694  82.948  1.00  0.00     0.151 C 
BRANCH   7   8
ATOM      8  C   UNL     1      95.629  83.272  83.807  1.00  0.00    -0.025 A 
ATOM      9  C   UNL     1      94.539  82.484  84.157  1.00  0.00     0.056 A 
ATOM     10  C   UNL     1      95.724  84.587  84.243  1.00  0.00     0.009 A 
ATOM     11  C   UNL     1      93.528  83.021  84.955  1.00  0.00     0.160 A 
ATOM     12  C   UNL     1      94.713  85.124  85.040  1.00  0.00     0.050 A 
ATOM     13  C   UNL     1      93.615  84.341  85.397  1.00  0.00     0.157 A 
BRANCH  11  14
ATOM     14  O   UNL     1      92.461  82.246  85.295  1.00  0.00    -0.493 OA
ATOM     15  C   UNL     1      91.459  82.048  84.298  1.00  0.00     0.278 C 
ENDBRANCH  11  14
BRANCH  13  16
ATOM     16  O   UNL     1      92.635  84.876  86.177  1.00  0.00    -0.504 OA
ATOM     17  H   UNL     1      92.140  85.533  85.657  1.00  0.00     0.293 HD
ENDBRANCH  13  16
ENDBRANCH   7   8
ENDBRANCH   5   7
ENDBRANCH   2   3
ENDBRANCH   1   2
BRANCH   1  18
ATOM     18  C   UNL     1      97.106  83.883  76.759  1.00  0.00     0.001 C 
BRANCH  18  19
ATOM     19  C   UNL     1      98.074  83.521  75.628  1.00  0.00     0.000 C 
BRANCH  19  20
ATOM     20  C   UNL     1      97.471  83.710  74.233  1.00  0.00     0.000 C 
BRANCH  20  21
ATOM     21  C   UNL     1      98.466  84.269  73.209  1.00  0.00     0.000 C 
BRANCH  21  22
ATOM     22  C   UNL     1      99.281  85.453  73.741  1.00  0.00     0.003 C 
BRANCH  22  23
ATOM     23  C   UNL     1     100.804  85.262  73.602  1.00  0.00    -0.017 C 
ATOM     24  C   UNL     1     101.096  83.939  72.891  1.00  0.00     0.007 C 
ATOM     25  C   UNL     1     101.523  85.291  74.951  1.00  0.00     0.007 C 
ENDBRANCH  22  23
ENDBRANCH  21  22
ENDBRANCH  20  21
ENDBRANCH  19  20
ENDBRANCH  18  19
ENDBRANCH   1  18
TORSDOF 12
ENDMDL
MODEL 8
REMARK VINA RESULT:    -5.791     15.103     18.265
REMARK INTER + INTRA:         -10.508
REMARK INTER:                  -9.356
REMARK INTRA:                  -1.152
REMARK UNBOUND:                -0.823
REMARK SMILES COc1cc(CNC(=O)CCCCCCCC(C)C)ccc1O
REMARK SMILES IDX 11 1 10 2 8 3 9 4 7 5 6 7 5 8 4 9 20 10 3 11 21 12 22 13
REMARK SMILES IDX 2 14 1 15 23 16 12 18 13 19 14 20 15 21 16 22 17 23 18 24
REMARK SMILES IDX 19 25
REMARK H PARENT 7 6 23 17
REMARK Flexibility Score: inf
ROOT
ATOM      1  C   UNL     1      93.622  99.536  72.899  1.00  0.00     0.010 C 
ENDROOT
BRANCH   1   2
ATOM      2  C   UNL     1      94.284  99.843  74.241  1.00  0.00     0.100 C 
BRANCH   2   3
ATOM      3  C   UNL     1      94.722  98.584  74.972  1.00  0.00     0.220 C 
ATOM      4  O   UNL     1      95.546  98.585  75.881  1.00  0.00    -0.275 OA
ATOM      5  N   UNL     1      94.082  97.458  74.474  1.00  0.00    -0.352 N 
ATOM      6  H   UNL     1      93.421  97.554  73.709  1.00  0.00     0.163 HD
BRANCH   5   7
ATOM      7  C   UNL     1      94.324  96.129  74.988  1.00  0.00     0.151 C 
BRANCH   7   8
ATOM      8  C   UNL     1      93.123  95.574  75.696  1.00  0.00    -0.025 A 
ATOM      9  C   UNL     1      91.991  95.232  74.966  1.00  0.00     0.056 A 
ATOM     10  C   UNL     1      93.155  95.408  77.075  1.00  0.00     0.009 A 
ATOM     11  C   UNL     1      90.875  94.717  75.625  1.00  0.00     0.160 A 
ATOM     12  C   UNL     1      92.038  94.892  77.734  1.00  0.00     0.050 A 
ATOM     13  C   UNL     1      90.898  94.547  77.009  1.00  0.00     0.157 A 
BRANCH  11  14
ATOM     14  O   UNL     1      89.766  94.383  74.906  1.00  0.00    -0.493 OA
ATOM     15  C   UNL     1      89.825  93.175  74.149  1.00  0.00     0.278 C 
ENDBRANCH  11  14
BRANCH  13  16
ATOM     16  O   UNL     1      89.815  94.044  77.663  1.00  0.00    -0.504 OA
ATOM     17  H   UNL     1      89.308  94.779  78.049  1.00  0.00     0.293 HD
ENDBRANCH  13  16
ENDBRANCH   7   8
ENDBRANCH   5   7
ENDBRANCH   2   3
ENDBRANCH   1   2
BRANCH   1  18
ATOM     18  C   UNL     1      93.986 100.535  71.797  1.00  0.00     0.001 C 
BRANCH  18  19
ATOM     19  C   UNL     1      92.948 100.701  70.682  1.00  0.00     0.000 C 
BRANCH  19  20
ATOM     20  C   UNL     1      91.766  99.736  70.807  1.00  0.00     0.000 C 
BRANCH  20  21
ATOM     21  C   UNL     1      90.518 100.200  70.049  1.00  0.00     0.000 C 
BRANCH  21  22
ATOM     22  C   UNL     1      89.290 100.371  70.949  1.00  0.00     0.003 C 
BRANCH  22  23
ATOM     23  C   UNL     1      89.188 101.769  71.590  1.00  0.00    -0.017 C 
ATOM     24  C   UNL     1      89.767 102.818  70.638  1.00  0.00     0.007 C 
ATOM     25  C   UNL     1      89.905 101.849  72.939  1.00  0.00     0.007 C 
ENDBRANCH  22  23
ENDBRANCH  21  22
ENDBRANCH  20  21
ENDBRANCH  19  20
ENDBRANCH  18  19
ENDBRANCH   1  18
TORSDOF 12
ENDMDL
MODEL 9
REMARK VINA RESULT:    -5.739     21.908     23.846
REMARK INTER + INTRA:         -10.420
REMARK INTER:                  -9.619
REMARK INTRA:                  -0.802
REMARK UNBOUND:                -0.823
REMARK SMILES COc1cc(CNC(=O)CCCCCCCC(C)C)ccc1O
REMARK SMILES IDX 11 1 10 2 8 3 9 4 7 5 6 7 5 8 4 9 20 10 3 11 21 12 22 13
REMARK SMILES IDX 2 14 1 15 23 16 12 18 13 19 14 20 15 21 16 22 17 23 18 24
REMARK SMILES IDX 19 25
REMARK H PARENT 7 6 23 17
REMARK Flexibility Score: inf
ROOT
ATOM      1  C   UNL     1      73.014  90.234  71.183  1.00  0.00     0.010 C 
ENDROOT
BRANCH   1   2
ATOM      2  C   UNL     1      73.504  91.668  71.371  1.00  0.00     0.100 C 
BRANCH   2   3
ATOM      3  C   UNL     1      73.375  92.140  72.810  1.00  0.00     0.220 C 
ATOM      4  O   UNL     1      72.919  91.440  73.710  1.00  0.00    -0.275 OA
ATOM      5  N   UNL     1      73.826  93.442  72.962  1.00  0.00    -0.352 N 
ATOM      6  H   UNL     1      74.178  93.949  72.154  1.00  0.00     0.163 HD
BRANCH   5   7
ATOM      7  C   UNL     1      73.806  94.135  74.230  1.00  0.00     0.151 C 
BRANCH   7   8
ATOM      8  C   UNL     1      75.184  94.297  74.802  1.00  0.00    -0.025 A 
ATOM      9  C   UNL     1      76.269  94.460  73.949  1.00  0.00     0.056 A 
ATOM     10  C   UNL     1      75.362  94.282  76.180  1.00  0.00     0.009 A 
ATOM     11  C   UNL     1      77.549  94.610  74.481  1.00  0.00     0.160 A 
ATOM     12  C   UNL     1      76.643  94.432  76.712  1.00  0.00     0.050 A 
ATOM     13  C   UNL     1      77.737  94.596  75.863  1.00  0.00     0.157 A 
BRANCH  11  14
ATOM     14  O   UNL     1      78.610  94.769  73.641  1.00  0.00    -0.493 OA
ATOM     15  C   UNL     1      78.809  96.069  73.087  1.00  0.00     0.278 C 
ENDBRANCH  11  14
BRANCH  13  16
ATOM     16  O   UNL     1      78.982  94.742  76.395  1.00  0.00    -0.504 OA
ATOM     17  H   UNL     1      78.972  94.427  77.315  1.00  0.00     0.293 HD
ENDBRANCH  13  16
ENDBRANCH   7   8
ENDBRANCH   5   7
ENDBRANCH   2   3
ENDBRANCH   1   2
BRANCH   1  18
ATOM     18  C   UNL     1      73.922  89.392  70.283  1.00  0.00     0.001 C 
BRANCH  18  19
ATOM     19  C   UNL     1      75.033  90.158  69.556  1.00  0.00     0.000 C 
BRANCH  19  20
ATOM     20  C   UNL     1      76.152  89.253  69.034  1.00  0.00     0.000 C 
BRANCH  20  21
ATOM     21  C   UNL     1      75.656  87.879  68.567  1.00  0.00     0.000 C 
BRANCH  21  22
ATOM     22  C   UNL     1      76.646  86.746  68.860  1.00  0.00     0.003 C 
BRANCH  22  23
ATOM     23  C   UNL     1      75.965  85.387  69.112  1.00  0.00    -0.017 C 
ATOM     24  C   UNL     1      76.184  84.960  70.566  1.00  0.00     0.007 C 
ATOM     25  C   UNL     1      76.475  84.293  68.174  1.00  0.00     0.007 C 
ENDBRANCH  22  23
ENDBRANCH  21  22
ENDBRANCH  20  21
ENDBRANCH  19  20
ENDBRANCH  18  19
ENDBRANCH   1  18
TORSDOF 12
ENDMDL
MODEL 10
REMARK VINA RESULT:    -5.724     23.379     26.058
REMARK INTER + INTRA:         -10.396
REMARK INTER:                  -9.065
REMARK INTRA:                  -1.331
REMARK UNBOUND:                -0.823
REMARK SMILES COc1cc(CNC(=O)CCCCCCCC(C)C)ccc1O
REMARK SMILES IDX 11 1 10 2 8 3 9 4 7 5 6 7 5 8 4 9 20 10 3 11 21 12 22 13
REMARK SMILES IDX 2 14 1 15 23 16 12 18 13 19 14 20 15 21 16 22 17 23 18 24
REMARK SMILES IDX 19 25
REMARK H PARENT 7 6 23 17
REMARK Flexibility Score: inf
ROOT
ATOM      1  C   UNL     1      76.371  86.005  68.143  1.00  0.00     0.010 C 
ENDROOT
BRANCH   1   2
ATOM      2  C   UNL     1      77.598  85.406  67.458  1.00  0.00     0.100 C 
BRANCH   2   3
ATOM      3  C   UNL     1      77.238  84.261  66.525  1.00  0.00     0.220 C 
ATOM      4  O   UNL     1      78.075  83.562  65.962  1.00  0.00    -0.275 OA
ATOM      5  N   UNL     1      75.864  84.123  66.395  1.00  0.00    -0.352 N 
ATOM      6  H   UNL     1      75.246  84.757  66.893  1.00  0.00     0.163 HD
BRANCH   5   7
ATOM      7  C   UNL     1      75.254  83.114  65.559  1.00  0.00     0.151 C 
BRANCH   7   8
ATOM      8  C   UNL     1      73.770  83.306  65.441  1.00  0.00    -0.025 A 
ATOM      9  C   UNL     1      73.180  84.448  65.968  1.00  0.00     0.056 A 
ATOM     10  C   UNL     1      73.001  82.338  64.805  1.00  0.00     0.009 A 
ATOM     11  C   UNL     1      71.801  84.626  65.858  1.00  0.00     0.160 A 
ATOM     12  C   UNL     1      71.621  82.516  64.696  1.00  0.00     0.050 A 
ATOM     13  C   UNL     1      71.021  83.659  65.222  1.00  0.00     0.157 A 
BRANCH  11  14
ATOM     14  O   UNL     1      71.226  85.747  66.376  1.00  0.00    -0.493 OA
ATOM     15  C   UNL     1      72.104  86.786  66.805  1.00  0.00     0.278 C 
ENDBRANCH  11  14
BRANCH  13  16
ATOM     16  O   UNL     1      69.673  83.821  65.108  1.00  0.00    -0.504 OA
ATOM     17  H   UNL     1      69.350  83.276  64.370  1.00  0.00     0.293 HD
ENDBRANCH  13  16
ENDBRANCH   7   8
ENDBRANCH   5   7
ENDBRANCH   2   3
ENDBRANCH   1   2
BRANCH   1  18
ATOM     18  C   UNL     1      76.661  87.320  68.871  1.00  0.00     0.001 C 
BRANCH  18  19
ATOM     19  C   UNL     1      77.271  88.434  68.013  1.00  0.00     0.000 C 
BRANCH  19  20
ATOM     20  C   UNL     1      76.264  89.082  67.059  1.00  0.00     0.000 C 
BRANCH  20  21
ATOM     21  C   UNL     1      74.904  89.364  67.706  1.00  0.00     0.000 C 
BRANCH  21  22
ATOM     22  C   UNL     1      74.917  90.579  68.639  1.00  0.00     0.003 C 
BRANCH  22  23
ATOM     23  C   UNL     1      74.747  90.214  70.127  1.00  0.00    -0.017 C 
ATOM     24  C   UNL     1      73.636  89.171  70.279  1.00  0.00     0.007 C 
ATOM     25  C   UNL     1      74.432  91.431  70.997  1.00  0.00     0.007 C 
ENDBRANCH  22  23
ENDBRANCH  21  22
ENDBRANCH  20  21
ENDBRANCH  19  20
ENDBRANCH  18  19
ENDBRANCH   1  18
TORSDOF 12
ENDMDL
