MODEL 1
REMARK VINA RESULT:    -5.800      0.000      0.000
REMARK INTER + INTRA:         -10.738
REMARK INTER:                  -9.530
REMARK INTRA:                  -1.208
REMARK UNBOUND:                -1.208
REMARK SMILES CCCCC[C@H](O)CC(=O)CCc1ccc(O)c(OC)c1
REMARK SMILES IDX 8 1 6 2 7 3 5 5 4 6 3 7 2 8 1 9 9 10 10 11 11 12 12 13 13 14
REMARK SMILES IDX 21 15 14 16 18 17 15 18 16 19 19 20 20 21 17 22
REMARK H PARENT 7 4 17 23
REMARK Flexibility Score: inf
ROOT
ATOM      1  C   UNL     1      77.973  85.346  67.647  1.00  0.00     0.107 C 
ENDROOT
BRANCH   1   2
ATOM      2  C   UNL     1      77.935  85.395  69.176  1.00  0.00     0.121 C 
BRANCH   2   3
ATOM      3  O   UNL     1      77.952  86.751  69.617  1.00  0.00    -0.393 OA
ATOM      4  H   UNL     1      78.764  86.885  70.135  1.00  0.00     0.210 HD
ENDBRANCH   2   3
BRANCH   2   5
ATOM      5  C   UNL     1      76.711  84.686  69.769  1.00  0.00     0.032 C 
BRANCH   5   6
ATOM      6  C   UNL     1      75.745  85.669  70.441  1.00  0.00     0.003 C 
BRANCH   6   7
ATOM      7  C   UNL     1      74.415  85.818  69.695  1.00  0.00    -0.000 C 
BRANCH   7   8
ATOM      8  C   UNL     1      74.369  85.061  68.369  1.00  0.00    -0.003 C 
ATOM      9  C   UNL     1      74.323  86.017  67.186  1.00  0.00     0.004 C 
ENDBRANCH   7   8
ENDBRANCH   6   7
ENDBRANCH   5   6
ENDBRANCH   2   5
ENDBRANCH   1   2
BRANCH   1  10
ATOM     10  C   UNL     1      78.050  83.931  67.098  1.00  0.00     0.135 C 
ATOM     11  O   UNL     1      78.972  83.179  67.414  1.00  0.00    -0.300 OA
BRANCH  10  12
ATOM     12  C   UNL     1      76.916  83.491  66.185  1.00  0.00     0.080 C 
BRANCH  12  13
ATOM     13  C   UNL     1      77.048  82.049  65.692  1.00  0.00     0.043 C 
BRANCH  13  14
ATOM     14  C   UNL     1      75.820  81.559  64.961  1.00  0.00    -0.044 A 
ATOM     15  C   UNL     1      74.602  81.460  65.632  1.00  0.00     0.054 A 
ATOM     16  C   UNL     1      75.906  81.205  63.614  1.00  0.00     0.008 A 
ATOM     17  C   UNL     1      73.468  81.008  64.955  1.00  0.00     0.160 A 
ATOM     18  C   UNL     1      74.773  80.753  62.938  1.00  0.00     0.050 A 
ATOM     19  C   UNL     1      73.554  80.654  63.609  1.00  0.00     0.157 A 
BRANCH  17  20
ATOM     20  O   UNL     1      72.283  80.915  65.621  1.00  0.00    -0.493 OA
ATOM     21  C   UNL     1      71.633  82.139  65.960  1.00  0.00     0.278 C 
ENDBRANCH  17  20
BRANCH  19  22
ATOM     22  O   UNL     1      72.455  80.212  62.938  1.00  0.00    -0.504 OA
ATOM     23  H   UNL     1      71.666  80.655  63.294  1.00  0.00     0.293 HD
ENDBRANCH  19  22
ENDBRANCH  13  14
ENDBRANCH  12  13
ENDBRANCH  10  12
ENDBRANCH   1  10
TORSDOF 12
ENDMDL
MODEL 2
REMARK VINA RESULT:    -5.527      1.502      2.025
REMARK INTER + INTRA:         -10.289
REMARK INTER:                  -9.099
REMARK INTRA:                  -1.191
REMARK UNBOUND:                -1.208
REMARK SMILES CCCCC[C@H](O)CC(=O)CCc1ccc(O)c(OC)c1
REMARK SMILES IDX 8 1 6 2 7 3 5 5 4 6 3 7 2 8 1 9 9 10 10 11 11 12 12 13 13 14
REMARK SMILES IDX 21 15 14 16 18 17 15 18 16 19 19 20 20 21 17 22
REMARK H PARENT 7 4 17 23
REMARK Flexibility Score: inf
ROOT
ATOM      1  C   UNL     1      77.420  86.821  66.924  1.00  0.00     0.107 C 
ENDROOT
BRANCH   1   2
ATOM      2  C   UNL     1      77.321  86.690  68.446  1.00  0.00     0.121 C 
BRANCH   2   3
ATOM      3  O   UNL     1      78.624  86.755  69.022  1.00  0.00    -0.393 OA
ATOM      4  H   UNL     1      78.795  87.682  69.267  1.00  0.00     0.210 HD
ENDBRANCH   2   3
BRANCH   2   5
ATOM      5  C   UNL     1      76.432  87.764  69.085  1.00  0.00     0.032 C 
BRANCH   5   6
ATOM      6  C   UNL     1      75.481  87.176  70.134  1.00  0.00     0.003 C 
BRANCH   6   7
ATOM      7  C   UNL     1      75.187  85.688  69.920  1.00  0.00    -0.000 C 
BRANCH   7   8
ATOM      8  C   UNL     1      75.563  84.812  71.113  1.00  0.00    -0.003 C 
ATOM      9  C   UNL     1      76.859  84.056  70.860  1.00  0.00     0.004 C 
ENDBRANCH   7   8
ENDBRANCH   6   7
ENDBRANCH   5   6
ENDBRANCH   2   5
ENDBRANCH   1   2
BRANCH   1  10
ATOM     10  C   UNL     1      77.085  85.531  66.193  1.00  0.00     0.135 C 
ATOM     11  O   UNL     1      76.931  85.518  64.971  1.00  0.00    -0.300 OA
BRANCH  10  12
ATOM     12  C   UNL     1      76.999  84.270  67.038  1.00  0.00     0.080 C 
BRANCH  12  13
ATOM     13  C   UNL     1      77.380  82.996  66.282  1.00  0.00     0.043 C 
BRANCH  13  14
ATOM     14  C   UNL     1      76.192  82.292  65.672  1.00  0.00    -0.044 A 
ATOM     15  C   UNL     1      74.937  82.393  66.272  1.00  0.00     0.054 A 
ATOM     16  C   UNL     1      76.350  81.541  64.507  1.00  0.00     0.008 A 
ATOM     17  C   UNL     1      73.840  81.743  65.706  1.00  0.00     0.160 A 
ATOM     18  C   UNL     1      75.253  80.891  63.941  1.00  0.00     0.050 A 
ATOM     19  C   UNL     1      73.998  80.992  64.541  1.00  0.00     0.157 A 
BRANCH  17  20
ATOM     20  O   UNL     1      72.619  81.848  66.302  1.00  0.00    -0.493 OA
ATOM     21  C   UNL     1      71.924  83.083  66.142  1.00  0.00     0.278 C 
ENDBRANCH  17  20
BRANCH  19  22
ATOM     22  O   UNL     1      72.934  80.352  63.980  1.00  0.00    -0.504 OA
ATOM     23  H   UNL     1      72.696  79.589  64.533  1.00  0.00     0.293 HD
ENDBRANCH  19  22
ENDBRANCH  13  14
ENDBRANCH  12  13
ENDBRANCH  10  12
ENDBRANCH   1  10
TORSDOF 12
ENDMDL
MODEL 3
REMARK VINA RESULT:    -5.494      2.034      6.222
REMARK INTER + INTRA:         -10.235
REMARK INTER:                  -8.047
REMARK INTRA:                  -2.188
REMARK UNBOUND:                -1.208
REMARK SMILES CCCCC[C@H](O)CC(=O)CCc1ccc(O)c(OC)c1
REMARK SMILES IDX 8 1 6 2 7 3 5 5 4 6 3 7 2 8 1 9 9 10 10 11 11 12 12 13 13 14
REMARK SMILES IDX 21 15 14 16 18 17 15 18 16 19 19 20 20 21 17 22
REMARK H PARENT 7 4 17 23
REMARK Flexibility Score: inf
ROOT
ATOM      1  C   UNL     1      76.436  81.774  63.849  1.00  0.00     0.107 C 
ENDROOT
BRANCH   1   2
ATOM      2  C   UNL     1      76.159  82.972  62.938  1.00  0.00     0.121 C 
BRANCH   2   3
ATOM      3  O   UNL     1      74.767  83.280  62.955  1.00  0.00    -0.393 OA
ATOM      4  H   UNL     1      74.677  84.242  63.072  1.00  0.00     0.210 HD
ENDBRANCH   2   3
BRANCH   2   5
ATOM      5  C   UNL     1      76.957  84.221  63.328  1.00  0.00     0.032 C 
BRANCH   5   6
ATOM      6  C   UNL     1      76.085  85.265  64.035  1.00  0.00     0.003 C 
BRANCH   6   7
ATOM      7  C   UNL     1      76.814  86.587  64.297  1.00  0.00    -0.000 C 
BRANCH   7   8
ATOM      8  C   UNL     1      75.934  87.653  64.948  1.00  0.00    -0.003 C 
ATOM      9  C   UNL     1      75.314  87.145  66.241  1.00  0.00     0.004 C 
ENDBRANCH   7   8
ENDBRANCH   6   7
ENDBRANCH   5   6
ENDBRANCH   2   5
ENDBRANCH   1   2
BRANCH   1  10
ATOM     10  C   UNL     1      75.349  81.551  64.887  1.00  0.00     0.135 C 
ATOM     11  O   UNL     1      74.350  80.882  64.623  1.00  0.00    -0.300 OA
BRANCH  10  12
ATOM     12  C   UNL     1      75.585  82.154  66.263  1.00  0.00     0.080 C 
BRANCH  12  13
ATOM     13  C   UNL     1      77.056  82.454  66.559  1.00  0.00     0.043 C 
BRANCH  13  14
ATOM     14  C   UNL     1      77.249  83.687  67.409  1.00  0.00    -0.044 A 
ATOM     15  C   UNL     1      76.472  83.875  68.553  1.00  0.00     0.054 A 
ATOM     16  C   UNL     1      78.205  84.638  67.051  1.00  0.00     0.008 A 
ATOM     17  C   UNL     1      76.652  85.014  69.338  1.00  0.00     0.160 A 
ATOM     18  C   UNL     1      78.385  85.777  67.837  1.00  0.00     0.050 A 
ATOM     19  C   UNL     1      77.608  85.965  68.980  1.00  0.00     0.157 A 
BRANCH  17  20
ATOM     20  O   UNL     1      75.887  85.186  70.452  1.00  0.00    -0.493 OA
ATOM     21  C   UNL     1      75.936  84.157  71.438  1.00  0.00     0.278 C 
ENDBRANCH  17  20
BRANCH  19  22
ATOM     22  O   UNL     1      77.792  87.080  69.739  1.00  0.00    -0.504 OA
ATOM     23  H   UNL     1      77.140  87.753  69.478  1.00  0.00     0.293 HD
ENDBRANCH  19  22
ENDBRANCH  13  14
ENDBRANCH  12  13
ENDBRANCH  10  12
ENDBRANCH   1  10
TORSDOF 12
ENDMDL
MODEL 4
REMARK VINA RESULT:    -5.474      1.760      2.803
REMARK INTER + INTRA:         -10.203
REMARK INTER:                  -8.794
REMARK INTRA:                  -1.409
REMARK UNBOUND:                -1.208
REMARK SMILES CCCCC[C@H](O)CC(=O)CCc1ccc(O)c(OC)c1
REMARK SMILES IDX 8 1 6 2 7 3 5 5 4 6 3 7 2 8 1 9 9 10 10 11 11 12 12 13 13 14
REMARK SMILES IDX 21 15 14 16 18 17 15 18 16 19 19 20 20 21 17 22
REMARK H PARENT 7 4 17 23
REMARK Flexibility Score: inf
ROOT
ATOM      1  C   UNL     1      75.583  86.094  70.392  1.00  0.00     0.107 C 
ENDROOT
BRANCH   1   2
ATOM      2  C   UNL     1      76.232  87.216  69.578  1.00  0.00     0.121 C 
BRANCH   2   3
ATOM      3  O   UNL     1      76.091  88.456  70.267  1.00  0.00    -0.393 OA
ATOM      4  H   UNL     1      75.152  88.711  70.232  1.00  0.00     0.210 HD
ENDBRANCH   2   3
BRANCH   2   5
ATOM      5  C   UNL     1      77.717  86.966  69.288  1.00  0.00     0.032 C 
BRANCH   5   6
ATOM      6  C   UNL     1      78.010  86.918  67.784  1.00  0.00     0.003 C 
BRANCH   6   7
ATOM      7  C   UNL     1      76.944  87.621  66.935  1.00  0.00    -0.000 C 
BRANCH   7   8
ATOM      8  C   UNL     1      77.089  87.365  65.436  1.00  0.00    -0.003 C 
ATOM      9  C   UNL     1      76.765  85.920  65.087  1.00  0.00     0.004 C 
ENDBRANCH   7   8
ENDBRANCH   6   7
ENDBRANCH   5   6
ENDBRANCH   2   5
ENDBRANCH   1   2
BRANCH   1  10
ATOM     10  C   UNL     1      75.968  84.706  69.906  1.00  0.00     0.135 C 
ATOM     11  O   UNL     1      76.598  83.934  70.629  1.00  0.00    -0.300 OA
BRANCH  10  12
ATOM     12  C   UNL     1      75.499  84.317  68.512  1.00  0.00     0.080 C 
BRANCH  12  13
ATOM     13  C   UNL     1      76.525  83.502  67.723  1.00  0.00     0.043 C 
BRANCH  13  14
ATOM     14  C   UNL     1      75.902  82.667  66.629  1.00  0.00    -0.044 A 
ATOM     15  C   UNL     1      74.518  82.501  66.580  1.00  0.00     0.054 A 
ATOM     16  C   UNL     1      76.712  82.063  65.667  1.00  0.00     0.008 A 
ATOM     17  C   UNL     1      73.944  81.731  65.568  1.00  0.00     0.160 A 
ATOM     18  C   UNL     1      76.138  81.293  64.655  1.00  0.00     0.050 A 
ATOM     19  C   UNL     1      74.754  81.126  64.606  1.00  0.00     0.157 A 
BRANCH  17  20
ATOM     20  O   UNL     1      72.591  81.575  65.531  1.00  0.00    -0.493 OA
ATOM     21  C   UNL     1      71.817  82.435  66.365  1.00  0.00     0.278 C 
ENDBRANCH  17  20
BRANCH  19  22
ATOM     22  O   UNL     1      74.205  80.372  63.614  1.00  0.00    -0.504 OA
ATOM     23  H   UNL     1      74.885  79.775  63.257  1.00  0.00     0.293 HD
ENDBRANCH  19  22
ENDBRANCH  13  14
ENDBRANCH  12  13
ENDBRANCH  10  12
ENDBRANCH   1  10
TORSDOF 12
ENDMDL
MODEL 5
REMARK VINA RESULT:    -5.419      2.533      7.011
REMARK INTER + INTRA:         -10.112
REMARK INTER:                  -9.292
REMARK INTRA:                  -0.820
REMARK UNBOUND:                -1.208
REMARK SMILES CCCCC[C@H](O)CC(=O)CCc1ccc(O)c(OC)c1
REMARK SMILES IDX 8 1 6 2 7 3 5 5 4 6 3 7 2 8 1 9 9 10 10 11 11 12 12 13 13 14
REMARK SMILES IDX 21 15 14 16 18 17 15 18 16 19 19 20 20 21 17 22
REMARK H PARENT 7 4 17 23
REMARK Flexibility Score: inf
ROOT
ATOM      1  C   UNL     1      76.720  83.714  66.145  1.00  0.00     0.107 C 
ENDROOT
BRANCH   1   2
ATOM      2  C   UNL     1      76.490  82.290  65.631  1.00  0.00     0.121 C 
BRANCH   2   3
ATOM      3  O   UNL     1      77.618  81.476  65.944  1.00  0.00    -0.393 OA
ATOM      4  H   UNL     1      78.085  81.282  65.112  1.00  0.00     0.210 HD
ENDBRANCH   2   3
BRANCH   2   5
ATOM      5  C   UNL     1      75.224  81.642  66.204  1.00  0.00     0.032 C 
BRANCH   5   6
ATOM      6  C   UNL     1      74.310  81.090  65.104  1.00  0.00     0.003 C 
BRANCH   6   7
ATOM      7  C   UNL     1      72.845  81.507  65.267  1.00  0.00    -0.000 C 
BRANCH   7   8
ATOM      8  C   UNL     1      71.968  81.142  64.070  1.00  0.00    -0.003 C 
ATOM      9  C   UNL     1      72.313  79.763  63.530  1.00  0.00     0.004 C 
ENDBRANCH   7   8
ENDBRANCH   6   7
ENDBRANCH   5   6
ENDBRANCH   2   5
ENDBRANCH   1   2
BRANCH   1  10
ATOM     10  C   UNL     1      77.908  83.823  67.086  1.00  0.00     0.135 C 
ATOM     11  O   UNL     1      79.049  83.575  66.696  1.00  0.00    -0.300 OA
BRANCH  10  12
ATOM     12  C   UNL     1      77.616  84.293  68.503  1.00  0.00     0.080 C 
BRANCH  12  13
ATOM     13  C   UNL     1      78.262  85.635  68.851  1.00  0.00     0.043 C 
BRANCH  13  14
ATOM     14  C   UNL     1      77.317  86.803  68.704  1.00  0.00    -0.044 A 
ATOM     15  C   UNL     1      76.708  87.354  69.831  1.00  0.00     0.054 A 
ATOM     16  C   UNL     1      77.054  87.331  67.440  1.00  0.00     0.008 A 
ATOM     17  C   UNL     1      75.835  88.434  69.694  1.00  0.00     0.160 A 
ATOM     18  C   UNL     1      76.181  88.411  67.303  1.00  0.00     0.050 A 
ATOM     19  C   UNL     1      75.572  88.963  68.430  1.00  0.00     0.157 A 
BRANCH  17  20
ATOM     20  O   UNL     1      75.246  88.964  70.802  1.00  0.00    -0.493 OA
ATOM     21  C   UNL     1      74.046  88.342  71.258  1.00  0.00     0.278 C 
ENDBRANCH  17  20
BRANCH  19  22
ATOM     22  O   UNL     1      74.722  90.017  68.283  1.00  0.00    -0.504 OA
ATOM     23  H   UNL     1      74.611  90.456  69.144  1.00  0.00     0.293 HD
ENDBRANCH  19  22
ENDBRANCH  13  14
ENDBRANCH  12  13
ENDBRANCH  10  12
ENDBRANCH   1  10
TORSDOF 12
ENDMDL
MODEL 6
REMARK VINA RESULT:    -5.287      2.751      5.234
REMARK INTER + INTRA:          -9.896
REMARK INTER:                  -7.828
REMARK INTRA:                  -2.068
REMARK UNBOUND:                -1.208
REMARK SMILES CCCCC[C@H](O)CC(=O)CCc1ccc(O)c(OC)c1
REMARK SMILES IDX 8 1 6 2 7 3 5 5 4 6 3 7 2 8 1 9 9 10 10 11 11 12 12 13 13 14
REMARK SMILES IDX 21 15 14 16 18 17 15 18 16 19 19 20 20 21 17 22
REMARK H PARENT 7 4 17 23
REMARK Flexibility Score: inf
ROOT
ATOM      1  C   UNL     1      75.651  88.870  69.829  1.00  0.00     0.107 C 
ENDROOT
BRANCH   1   2
ATOM      2  C   UNL     1      74.765  89.588  68.808  1.00  0.00     0.121 C 
BRANCH   2   3
ATOM      3  O   UNL     1      74.556  90.939  69.213  1.00  0.00    -0.393 OA
ATOM      4  H   UNL     1      73.978  90.928  69.996  1.00  0.00     0.210 HD
ENDBRANCH   2   3
BRANCH   2   5
ATOM      5  C   UNL     1      75.348  89.571  67.390  1.00  0.00     0.032 C 
BRANCH   5   6
ATOM      6  C   UNL     1      76.355  88.430  67.195  1.00  0.00     0.003 C 
BRANCH   6   7
ATOM      7  C   UNL     1      75.897  87.386  66.171  1.00  0.00    -0.000 C 
BRANCH   7   8
ATOM      8  C   UNL     1      77.050  86.661  65.479  1.00  0.00    -0.003 C 
ATOM      9  C   UNL     1      76.600  86.024  64.173  1.00  0.00     0.004 C 
ENDBRANCH   7   8
ENDBRANCH   6   7
ENDBRANCH   5   6
ENDBRANCH   2   5
ENDBRANCH   1   2
BRANCH   1  10
ATOM     10  C   UNL     1      74.913  87.789  70.602  1.00  0.00     0.135 C 
ATOM     11  O   UNL     1      74.160  88.078  71.532  1.00  0.00    -0.300 OA
BRANCH  10  12
ATOM     12  C   UNL     1      75.122  86.356  70.138  1.00  0.00     0.080 C 
BRANCH  12  13
ATOM     13  C   UNL     1      76.594  85.962  70.003  1.00  0.00     0.043 C 
BRANCH  13  14
ATOM     14  C   UNL     1      76.845  84.989  68.875  1.00  0.00    -0.044 A 
ATOM     15  C   UNL     1      75.774  84.341  68.261  1.00  0.00     0.054 A 
ATOM     16  C   UNL     1      78.150  84.739  68.448  1.00  0.00     0.008 A 
ATOM     17  C   UNL     1      76.007  83.444  67.218  1.00  0.00     0.160 A 
ATOM     18  C   UNL     1      78.383  83.842  67.406  1.00  0.00     0.050 A 
ATOM     19  C   UNL     1      77.311  83.194  66.791  1.00  0.00     0.157 A 
BRANCH  17  20
ATOM     20  O   UNL     1      74.952  82.817  66.626  1.00  0.00    -0.493 OA
ATOM     21  C   UNL     1      73.947  83.646  66.046  1.00  0.00     0.278 C 
ENDBRANCH  17  20
BRANCH  19  22
ATOM     22  O   UNL     1      77.551  82.320  65.775  1.00  0.00    -0.504 OA
ATOM     23  H   UNL     1      78.026  82.784  65.063  1.00  0.00     0.293 HD
ENDBRANCH  19  22
ENDBRANCH  13  14
ENDBRANCH  12  13
ENDBRANCH  10  12
ENDBRANCH   1  10
TORSDOF 12
ENDMDL
MODEL 7
REMARK VINA RESULT:    -5.253      2.550      6.991
REMARK INTER + INTRA:          -9.839
REMARK INTER:                  -8.780
REMARK INTRA:                  -1.059
REMARK UNBOUND:                -1.208
REMARK SMILES CCCCC[C@H](O)CC(=O)CCc1ccc(O)c(OC)c1
REMARK SMILES IDX 8 1 6 2 7 3 5 5 4 6 3 7 2 8 1 9 9 10 10 11 11 12 12 13 13 14
REMARK SMILES IDX 21 15 14 16 18 17 15 18 16 19 19 20 20 21 17 22
REMARK H PARENT 7 4 17 23
REMARK Flexibility Score: inf
ROOT
ATOM      1  C   UNL     1      76.476  83.808  67.773  1.00  0.00     0.107 C 
ENDROOT
BRANCH   1   2
ATOM      2  C   UNL     1      75.687  83.992  66.474  1.00  0.00     0.121 C 
BRANCH   2   3
ATOM      3  O   UNL     1      76.563  83.873  65.355  1.00  0.00    -0.393 OA
ATOM      4  H   UNL     1      76.064  83.455  64.631  1.00  0.00     0.210 HD
ENDBRANCH   2   3
BRANCH   2   5
ATOM      5  C   UNL     1      74.536  82.990  66.324  1.00  0.00     0.032 C 
BRANCH   5   6
ATOM      6  C   UNL     1      75.042  81.553  66.146  1.00  0.00     0.003 C 
BRANCH   6   7
ATOM      7  C   UNL     1      74.591  80.909  64.831  1.00  0.00    -0.000 C 
BRANCH   7   8
ATOM      8  C   UNL     1      73.116  80.512  64.819  1.00  0.00    -0.003 C 
ATOM      9  C   UNL     1      72.681  80.038  63.441  1.00  0.00     0.004 C 
ENDBRANCH   7   8
ENDBRANCH   6   7
ENDBRANCH   5   6
ENDBRANCH   2   5
ENDBRANCH   1   2
BRANCH   1  10
ATOM     10  C   UNL     1      77.941  84.193  67.640  1.00  0.00     0.135 C 
ATOM     11  O   UNL     1      78.783  83.366  67.292  1.00  0.00    -0.300 OA
BRANCH  10  12
ATOM     12  C   UNL     1      78.291  85.648  67.912  1.00  0.00     0.080 C 
BRANCH  12  13
ATOM     13  C   UNL     1      77.751  86.171  69.245  1.00  0.00     0.043 C 
BRANCH  13  14
ATOM     14  C   UNL     1      76.760  87.298  69.080  1.00  0.00    -0.044 A 
ATOM     15  C   UNL     1      76.442  87.768  67.806  1.00  0.00     0.054 A 
ATOM     16  C   UNL     1      76.163  87.870  70.204  1.00  0.00     0.008 A 
ATOM     17  C   UNL     1      75.526  88.809  67.656  1.00  0.00     0.160 A 
ATOM     18  C   UNL     1      75.247  88.911  70.054  1.00  0.00     0.050 A 
ATOM     19  C   UNL     1      74.928  89.381  68.779  1.00  0.00     0.157 A 
BRANCH  17  20
ATOM     20  O   UNL     1      75.223  89.259  66.406  1.00  0.00    -0.493 OA
ATOM     21  C   UNL     1      75.052  88.276  65.387  1.00  0.00     0.278 C 
ENDBRANCH  17  20
BRANCH  19  22
ATOM     22  O   UNL     1      74.032  90.398  68.645  1.00  0.00    -0.504 OA
ATOM     23  H   UNL     1      73.139  90.023  68.560  1.00  0.00     0.293 HD
ENDBRANCH  19  22
ENDBRANCH  13  14
ENDBRANCH  12  13
ENDBRANCH  10  12
ENDBRANCH   1  10
TORSDOF 12
ENDMDL
MODEL 8
REMARK VINA RESULT:    -5.127      9.598     12.755
REMARK INTER + INTRA:          -9.633
REMARK INTER:                  -8.550
REMARK INTRA:                  -1.082
REMARK UNBOUND:                -1.208
REMARK SMILES CCCCC[C@H](O)CC(=O)CCc1ccc(O)c(OC)c1
REMARK SMILES IDX 8 1 6 2 7 3 5 5 4 6 3 7 2 8 1 9 9 10 10 11 11 12 12 13 13 14
REMARK SMILES IDX 21 15 14 16 18 17 15 18 16 19 19 20 20 21 17 22
REMARK H PARENT 7 4 17 23
REMARK Flexibility Score: inf
ROOT
ATOM      1  C   UNL     1      65.440  83.917  69.469  1.00  0.00     0.107 C 
ENDROOT
BRANCH   1   2
ATOM      2  C   UNL     1      66.905  83.713  69.075  1.00  0.00     0.121 C 
BRANCH   2   3
ATOM      3  O   UNL     1      67.473  84.955  68.665  1.00  0.00    -0.393 OA
ATOM      4  H   UNL     1      68.345  85.037  69.088  1.00  0.00     0.210 HD
ENDBRANCH   2   3
BRANCH   2   5
ATOM      5  C   UNL     1      67.753  83.119  70.206  1.00  0.00     0.032 C 
BRANCH   5   6
ATOM      6  C   UNL     1      69.235  83.023  69.826  1.00  0.00     0.003 C 
BRANCH   6   7
ATOM      7  C   UNL     1      70.159  83.769  70.794  1.00  0.00    -0.000 C 
BRANCH   7   8
ATOM      8  C   UNL     1      69.451  84.854  71.603  1.00  0.00    -0.003 C 
ATOM      9  C   UNL     1      69.762  86.241  71.061  1.00  0.00     0.004 C 
ENDBRANCH   7   8
ENDBRANCH   6   7
ENDBRANCH   5   6
ENDBRANCH   2   5
ENDBRANCH   1   2
BRANCH   1  10
ATOM     10  C   UNL     1      64.491  82.978  68.741  1.00  0.00     0.135 C 
ATOM     11  O   UNL     1      64.397  82.999  67.514  1.00  0.00    -0.300 OA
BRANCH  10  12
ATOM     12  C   UNL     1      63.711  81.996  69.601  1.00  0.00     0.080 C 
BRANCH  12  13
ATOM     13  C   UNL     1      64.415  81.629  70.909  1.00  0.00     0.043 C 
BRANCH  13  14
ATOM     14  C   UNL     1      63.614  81.995  72.135  1.00  0.00    -0.044 A 
ATOM     15  C   UNL     1      62.757  83.096  72.107  1.00  0.00     0.054 A 
ATOM     16  C   UNL     1      63.731  81.232  73.298  1.00  0.00     0.008 A 
ATOM     17  C   UNL     1      62.017  83.432  73.240  1.00  0.00     0.160 A 
ATOM     18  C   UNL     1      62.991  81.569  74.431  1.00  0.00     0.050 A 
ATOM     19  C   UNL     1      62.135  82.669  74.402  1.00  0.00     0.157 A 
BRANCH  17  20
ATOM     20  O   UNL     1      61.184  84.510  73.200  1.00  0.00    -0.493 OA
ATOM     21  C   UNL     1      60.150  84.493  72.218  1.00  0.00     0.278 C 
ENDBRANCH  17  20
BRANCH  19  22
ATOM     22  O   UNL     1      61.417  82.988  75.515  1.00  0.00    -0.504 OA
ATOM     23  H   UNL     1      60.839  82.241  75.745  1.00  0.00     0.293 HD
ENDBRANCH  19  22
ENDBRANCH  13  14
ENDBRANCH  12  13
ENDBRANCH  10  12
ENDBRANCH   1  10
TORSDOF 12
ENDMDL
MODEL 9
REMARK VINA RESULT:    -5.102      4.519      7.119
REMARK INTER + INTRA:          -9.592
REMARK INTER:                  -8.596
REMARK INTRA:                  -0.995
REMARK UNBOUND:                -1.208
REMARK SMILES CCCCC[C@H](O)CC(=O)CCc1ccc(O)c(OC)c1
REMARK SMILES IDX 8 1 6 2 7 3 5 5 4 6 3 7 2 8 1 9 9 10 10 11 11 12 12 13 13 14
REMARK SMILES IDX 21 15 14 16 18 17 15 18 16 19 19 20 20 21 17 22
REMARK H PARENT 7 4 17 23
REMARK Flexibility Score: inf
ROOT
ATOM      1  C   UNL     1      75.720  89.815  70.631  1.00  0.00     0.107 C 
ENDROOT
BRANCH   1   2
ATOM      2  C   UNL     1      74.835  90.850  69.931  1.00  0.00     0.121 C 
BRANCH   2   3
ATOM      3  O   UNL     1      73.669  90.215  69.410  1.00  0.00    -0.393 OA
ATOM      4  H   UNL     1      73.845  89.986  68.481  1.00  0.00     0.210 HD
ENDBRANCH   2   3
BRANCH   2   5
ATOM      5  C   UNL     1      74.414  92.001  70.853  1.00  0.00     0.032 C 
BRANCH   5   6
ATOM      6  C   UNL     1      75.313  92.106  72.090  1.00  0.00     0.003 C 
BRANCH   6   7
ATOM      7  C   UNL     1      76.439  93.134  71.937  1.00  0.00    -0.000 C 
BRANCH   7   8
ATOM      8  C   UNL     1      77.819  92.590  72.303  1.00  0.00    -0.003 C 
ATOM      9  C   UNL     1      78.793  93.716  72.615  1.00  0.00     0.004 C 
ENDBRANCH   7   8
ENDBRANCH   6   7
ENDBRANCH   5   6
ENDBRANCH   2   5
ENDBRANCH   1   2
BRANCH   1  10
ATOM     10  C   UNL     1      74.996  88.509  70.918  1.00  0.00     0.135 C 
ATOM     11  O   UNL     1      73.944  88.496  71.557  1.00  0.00    -0.300 OA
BRANCH  10  12
ATOM     12  C   UNL     1      75.615  87.245  70.340  1.00  0.00     0.080 C 
BRANCH  12  13
ATOM     13  C   UNL     1      76.986  87.469  69.701  1.00  0.00     0.043 C 
BRANCH  13  14
ATOM     14  C   UNL     1      77.321  86.442  68.645  1.00  0.00    -0.044 A 
ATOM     15  C   UNL     1      77.029  86.697  67.305  1.00  0.00     0.054 A 
ATOM     16  C   UNL     1      77.924  85.238  69.011  1.00  0.00     0.008 A 
ATOM     17  C   UNL     1      77.340  85.748  66.331  1.00  0.00     0.160 A 
ATOM     18  C   UNL     1      78.235  84.289  68.037  1.00  0.00     0.050 A 
ATOM     19  C   UNL     1      77.942  84.544  66.697  1.00  0.00     0.157 A 
BRANCH  17  20
ATOM     20  O   UNL     1      77.050  86.009  65.026  1.00  0.00    -0.493 OA
ATOM     21  C   UNL     1      76.084  87.027  64.767  1.00  0.00     0.278 C 
ENDBRANCH  17  20
BRANCH  19  22
ATOM     22  O   UNL     1      78.251  83.610  65.755  1.00  0.00    -0.504 OA
ATOM     23  H   UNL     1      78.020  83.958  64.876  1.00  0.00     0.293 HD
ENDBRANCH  19  22
ENDBRANCH  13  14
ENDBRANCH  12  13
ENDBRANCH  10  12
ENDBRANCH   1  10
TORSDOF 12
ENDMDL
MODEL 10
REMARK VINA RESULT:    -4.970     20.169     23.958
REMARK INTER + INTRA:          -9.374
REMARK INTER:                  -7.949
REMARK INTRA:                  -1.425
REMARK UNBOUND:                -1.208
REMARK SMILES CCCCC[C@H](O)CC(=O)CCc1ccc(O)c(OC)c1
REMARK SMILES IDX 8 1 6 2 7 3 5 5 4 6 3 7 2 8 1 9 9 10 10 11 11 12 12 13 13 14
REMARK SMILES IDX 21 15 14 16 18 17 15 18 16 19 19 20 20 21 17 22
REMARK H PARENT 7 4 17 23
REMARK Flexibility Score: inf
ROOT
ATOM      1  C   UNL     1      89.415  97.835  68.203  1.00  0.00     0.107 C 
ENDROOT
BRANCH   1   2
ATOM      2  C   UNL     1      89.326  97.288  69.630  1.00  0.00     0.121 C 
BRANCH   2   3
ATOM      3  O   UNL     1      89.956  96.010  69.698  1.00  0.00    -0.393 OA
ATOM      4  H   UNL     1      90.804  96.071  69.225  1.00  0.00     0.210 HD
ENDBRANCH   2   3
BRANCH   2   5
ATOM      5  C   UNL     1      89.960  98.219  70.670  1.00  0.00     0.032 C 
BRANCH   5   6
ATOM      6  C   UNL     1      88.928  99.153  71.313  1.00  0.00     0.003 C 
BRANCH   6   7
ATOM      7  C   UNL     1      89.347 100.627  71.291  1.00  0.00    -0.000 C 
BRANCH   7   8
ATOM      8  C   UNL     1      90.824 100.839  70.963  1.00  0.00    -0.003 C 
ATOM      9  C   UNL     1      91.638 101.105  72.220  1.00  0.00     0.004 C 
ENDBRANCH   7   8
ENDBRANCH   6   7
ENDBRANCH   5   6
ENDBRANCH   2   5
ENDBRANCH   1   2
BRANCH   1  10
ATOM     10  C   UNL     1      88.273  98.776  67.854  1.00  0.00     0.135 C 
ATOM     11  O   UNL     1      87.130  98.350  67.689  1.00  0.00    -0.300 OA
BRANCH  10  12
ATOM     12  C   UNL     1      88.612 100.256  67.768  1.00  0.00     0.080 C 
BRANCH  12  13
ATOM     13  C   UNL     1      90.055 100.533  67.339  1.00  0.00     0.043 C 
BRANCH  13  14
ATOM     14  C   UNL     1      90.316 101.991  67.049  1.00  0.00    -0.044 A 
ATOM     15  C   UNL     1      91.416 102.363  66.275  1.00  0.00     0.054 A 
ATOM     16  C   UNL     1      89.458 102.968  67.555  1.00  0.00     0.008 A 
ATOM     17  C   UNL     1      91.656 103.710  66.006  1.00  0.00     0.160 A 
ATOM     18  C   UNL     1      89.698 104.315  67.287  1.00  0.00     0.050 A 
ATOM     19  C   UNL     1      90.798 104.687  66.513  1.00  0.00     0.157 A 
BRANCH  17  20
ATOM     20  O   UNL     1      92.734 104.061  65.250  1.00  0.00    -0.493 OA
ATOM     21  C   UNL     1      93.899 103.247  65.366  1.00  0.00     0.278 C 
ENDBRANCH  17  20
BRANCH  19  22
ATOM     22  O   UNL     1      91.022 106.005  66.258  1.00  0.00    -0.504 OA
ATOM     23  H   UNL     1      90.671 106.535  66.994  1.00  0.00     0.293 HD
ENDBRANCH  19  22
ENDBRANCH  13  14
ENDBRANCH  12  13
ENDBRANCH  10  12
ENDBRANCH   1  10
TORSDOF 12
ENDMDL
