MODEL 1
REMARK VINA RESULT:    -6.352      0.000      0.000
REMARK INTER + INTRA:         -11.510
REMARK INTER:                 -10.622
REMARK INTRA:                  -0.888
REMARK UNBOUND:                -0.888
REMARK SMILES COc1cc(CNC(=O)CCCCCCCC(C)C)ccc1O
REMARK SMILES IDX 11 1 10 2 8 3 9 4 7 5 6 7 5 8 4 9 20 10 3 11 21 12 22 13
REMARK SMILES IDX 2 14 1 15 23 16 12 18 13 19 14 20 15 21 16 22 17 23 18 24
REMARK SMILES IDX 19 25
REMARK H PARENT 7 6 23 17
REMARK Flexibility Score: inf
ROOT
ATOM      1  C   UNL     1      92.233  95.030  77.575  1.00  0.00     0.010 C 
ENDROOT
BRANCH   1   2
ATOM      2  C   UNL     1      92.455  96.373  76.883  1.00  0.00     0.100 C 
BRANCH   2   3
ATOM      3  C   UNL     1      93.801  96.447  76.182  1.00  0.00     0.220 C 
ATOM      4  O   UNL     1      94.863  96.613  76.776  1.00  0.00    -0.275 OA
ATOM      5  N   UNL     1      93.668  96.312  74.808  1.00  0.00    -0.352 N 
ATOM      6  H   UNL     1      92.744  96.189  74.403  1.00  0.00     0.163 HD
BRANCH   5   7
ATOM      7  C   UNL     1      94.795  96.354  73.904  1.00  0.00     0.151 C 
BRANCH   7   8
ATOM      8  C   UNL     1      94.615  97.388  72.831  1.00  0.00    -0.025 A 
ATOM      9  C   UNL     1      95.511  97.442  71.770  1.00  0.00     0.056 A 
ATOM     10  C   UNL     1      93.554  98.282  72.909  1.00  0.00     0.009 A 
ATOM     11  C   UNL     1      95.344  98.403  70.773  1.00  0.00     0.160 A 
ATOM     12  C   UNL     1      93.387  99.244  71.912  1.00  0.00     0.050 A 
ATOM     13  C   UNL     1      94.282  99.305  70.844  1.00  0.00     0.157 A 
BRANCH  11  14
ATOM     14  O   UNL     1      96.225  98.452  69.735  1.00  0.00    -0.493 OA
ATOM     15  C   UNL     1      97.508  99.019  70.001  1.00  0.00     0.278 C 
ENDBRANCH  11  14
BRANCH  13  16
ATOM     16  O   UNL     1      94.108 100.247  69.877  1.00  0.00    -0.504 OA
ATOM     17  H   UNL     1      94.884 100.834  69.864  1.00  0.00     0.293 HD
ENDBRANCH  13  16
ENDBRANCH   7   8
ENDBRANCH   5   7
ENDBRANCH   2   3
ENDBRANCH   1   2
BRANCH   1  18
ATOM     18  C   UNL     1      90.841  94.441  77.331  1.00  0.00     0.001 C 
BRANCH  18  19
ATOM     19  C   UNL     1      90.205  94.777  75.978  1.00  0.00     0.000 C 
BRANCH  19  20
ATOM     20  C   UNL     1      90.855  94.039  74.804  1.00  0.00     0.000 C 
BRANCH  20  21
ATOM     21  C   UNL     1      90.041  92.837  74.314  1.00  0.00     0.000 C 
BRANCH  21  22
ATOM     22  C   UNL     1      90.385  91.533  75.042  1.00  0.00     0.003 C 
BRANCH  22  23
ATOM     23  C   UNL     1      89.244  90.497  75.021  1.00  0.00    -0.017 C 
ATOM     24  C   UNL     1      89.828  89.084  75.084  1.00  0.00     0.007 C 
ATOM     25  C   UNL     1      88.354  90.632  73.785  1.00  0.00     0.007 C 
ENDBRANCH  22  23
ENDBRANCH  21  22
ENDBRANCH  20  21
ENDBRANCH  19  20
ENDBRANCH  18  19
ENDBRANCH   1  18
TORSDOF 12
ENDMDL
MODEL 2
REMARK VINA RESULT:    -6.176      4.866      7.179
REMARK INTER + INTRA:         -11.216
REMARK INTER:                 -10.293
REMARK INTRA:                  -0.923
REMARK UNBOUND:                -0.888
REMARK SMILES COc1cc(CNC(=O)CCCCCCCC(C)C)ccc1O
REMARK SMILES IDX 11 1 10 2 8 3 9 4 7 5 6 7 5 8 4 9 20 10 3 11 21 12 22 13
REMARK SMILES IDX 2 14 1 15 23 16 12 18 13 19 14 20 15 21 16 22 17 23 18 24
REMARK SMILES IDX 19 25
REMARK H PARENT 7 6 23 17
REMARK Flexibility Score: inf
ROOT
ATOM      1  C   UNL     1      92.529  94.476  77.405  1.00  0.00     0.010 C 
ENDROOT
BRANCH   1   2
ATOM      2  C   UNL     1      93.202  95.841  77.537  1.00  0.00     0.100 C 
BRANCH   2   3
ATOM      3  C   UNL     1      94.681  95.728  77.867  1.00  0.00     0.220 C 
ATOM      4  O   UNL     1      95.265  94.654  77.986  1.00  0.00    -0.275 OA
ATOM      5  N   UNL     1      95.266  96.976  78.020  1.00  0.00    -0.352 N 
ATOM      6  H   UNL     1      94.699  97.813  77.913  1.00  0.00     0.163 HD
BRANCH   5   7
ATOM      7  C   UNL     1      96.663  97.152  78.345  1.00  0.00     0.151 C 
BRANCH   7   8
ATOM      8  C   UNL     1      96.861  97.519  79.787  1.00  0.00    -0.025 A 
ATOM      9  C   UNL     1      97.912  96.956  80.502  1.00  0.00     0.056 A 
ATOM     10  C   UNL     1      95.993  98.419  80.392  1.00  0.00     0.009 A 
ATOM     11  C   UNL     1      98.096  97.298  81.841  1.00  0.00     0.160 A 
ATOM     12  C   UNL     1      96.177  98.760  81.733  1.00  0.00     0.050 A 
ATOM     13  C   UNL     1      97.228  98.200  82.458  1.00  0.00     0.157 A 
BRANCH  11  14
ATOM     14  O   UNL     1      99.127  96.743  82.539  1.00  0.00    -0.493 OA
ATOM     15  C   UNL     1     100.424  97.302  82.332  1.00  0.00     0.278 C 
ENDBRANCH  11  14
BRANCH  13  16
ATOM     16  O   UNL     1      97.398  98.541  83.765  1.00  0.00    -0.504 OA
ATOM     17  H   UNL     1      98.207  98.118  84.100  1.00  0.00     0.293 HD
ENDBRANCH  13  16
ENDBRANCH   7   8
ENDBRANCH   5   7
ENDBRANCH   2   3
ENDBRANCH   1   2
BRANCH   1  18
ATOM     18  C   UNL     1      91.001  94.539  77.477  1.00  0.00     0.001 C 
BRANCH  18  19
ATOM     19  C   UNL     1      90.283  94.799  76.149  1.00  0.00     0.000 C 
BRANCH  19  20
ATOM     20  C   UNL     1      90.965  94.131  74.952  1.00  0.00     0.000 C 
BRANCH  20  21
ATOM     21  C   UNL     1      90.040  93.190  74.171  1.00  0.00     0.000 C 
BRANCH  21  22
ATOM     22  C   UNL     1      90.467  91.720  74.245  1.00  0.00     0.003 C 
BRANCH  22  23
ATOM     23  C   UNL     1      89.509  90.844  75.076  1.00  0.00    -0.017 C 
ATOM     24  C   UNL     1      89.546  91.284  76.542  1.00  0.00     0.007 C 
ATOM     25  C   UNL     1      89.843  89.355  74.978  1.00  0.00     0.007 C 
ENDBRANCH  22  23
ENDBRANCH  21  22
ENDBRANCH  20  21
ENDBRANCH  19  20
ENDBRANCH  18  19
ENDBRANCH   1  18
TORSDOF 12
ENDMDL
MODEL 3
REMARK VINA RESULT:    -6.127     28.378     32.273
REMARK INTER + INTRA:         -11.134
REMARK INTER:                 -10.402
REMARK INTRA:                  -0.732
REMARK UNBOUND:                -0.888
REMARK SMILES COc1cc(CNC(=O)CCCCCCCC(C)C)ccc1O
REMARK SMILES IDX 11 1 10 2 8 3 9 4 7 5 6 7 5 8 4 9 20 10 3 11 21 12 22 13
REMARK SMILES IDX 2 14 1 15 23 16 12 18 13 19 14 20 15 21 16 22 17 23 18 24
REMARK SMILES IDX 19 25
REMARK H PARENT 7 6 23 17
REMARK Flexibility Score: inf
ROOT
ATOM      1  C   UNL     1      80.602  65.637  70.386  1.00  0.00     0.010 C 
ENDROOT
BRANCH   1   2
ATOM      2  C   UNL     1      79.839  65.585  71.708  1.00  0.00     0.100 C 
BRANCH   2   3
ATOM      3  C   UNL     1      80.675  66.073  72.879  1.00  0.00     0.220 C 
ATOM      4  O   UNL     1      80.360  67.031  73.579  1.00  0.00    -0.275 OA
ATOM      5  N   UNL     1      81.822  65.309  73.040  1.00  0.00    -0.352 N 
ATOM      6  H   UNL     1      82.005  64.539  72.403  1.00  0.00     0.163 HD
BRANCH   5   7
ATOM      7  C   UNL     1      82.795  65.567  74.076  1.00  0.00     0.151 C 
BRANCH   7   8
ATOM      8  C   UNL     1      83.731  66.679  73.703  1.00  0.00    -0.025 A 
ATOM      9  C   UNL     1      84.374  67.401  74.702  1.00  0.00     0.056 A 
ATOM     10  C   UNL     1      83.946  66.976  72.363  1.00  0.00     0.009 A 
ATOM     11  C   UNL     1      85.244  68.435  74.355  1.00  0.00     0.160 A 
ATOM     12  C   UNL     1      84.816  68.010  72.016  1.00  0.00     0.050 A 
ATOM     13  C   UNL     1      85.465  68.740  73.012  1.00  0.00     0.157 A 
BRANCH  11  14
ATOM     14  O   UNL     1      85.871  69.141  75.337  1.00  0.00    -0.493 OA
ATOM     15  C   UNL     1      86.922  68.479  76.040  1.00  0.00     0.278 C 
ENDBRANCH  11  14
BRANCH  13  16
ATOM     16  O   UNL     1      86.312  69.746  72.660  1.00  0.00    -0.504 OA
ATOM     17  H   UNL     1      87.053  69.374  72.153  1.00  0.00     0.293 HD
ENDBRANCH  13  16
ENDBRANCH   7   8
ENDBRANCH   5   7
ENDBRANCH   2   3
ENDBRANCH   1   2
BRANCH   1  18
ATOM     18  C   UNL     1      80.808  64.262  69.745  1.00  0.00     0.001 C 
BRANCH  18  19
ATOM     19  C   UNL     1      79.536  63.561  69.255  1.00  0.00     0.000 C 
BRANCH  19  20
ATOM     20  C   UNL     1      78.561  64.504  68.545  1.00  0.00     0.000 C 
BRANCH  20  21
ATOM     21  C   UNL     1      77.779  63.831  67.411  1.00  0.00     0.000 C 
BRANCH  21  22
ATOM     22  C   UNL     1      76.832  64.787  66.678  1.00  0.00     0.003 C 
BRANCH  22  23
ATOM     23  C   UNL     1      75.359  64.641  67.108  1.00  0.00    -0.017 C 
ATOM     24  C   UNL     1      75.016  63.160  67.286  1.00  0.00     0.007 C 
ATOM     25  C   UNL     1      74.391  65.276  66.109  1.00  0.00     0.007 C 
ENDBRANCH  22  23
ENDBRANCH  21  22
ENDBRANCH  20  21
ENDBRANCH  19  20
ENDBRANCH  18  19
ENDBRANCH   1  18
TORSDOF 12
ENDMDL
MODEL 4
REMARK VINA RESULT:    -5.954      4.504      7.220
REMARK INTER + INTRA:         -10.845
REMARK INTER:                 -10.170
REMARK INTRA:                  -0.674
REMARK UNBOUND:                -0.888
REMARK SMILES COc1cc(CNC(=O)CCCCCCCC(C)C)ccc1O
REMARK SMILES IDX 11 1 10 2 8 3 9 4 7 5 6 7 5 8 4 9 20 10 3 11 21 12 22 13
REMARK SMILES IDX 2 14 1 15 23 16 12 18 13 19 14 20 15 21 16 22 17 23 18 24
REMARK SMILES IDX 19 25
REMARK H PARENT 7 6 23 17
REMARK Flexibility Score: inf
ROOT
ATOM      1  C   UNL     1      92.414  94.433  77.039  1.00  0.00     0.010 C 
ENDROOT
BRANCH   1   2
ATOM      2  C   UNL     1      93.118  95.788  76.992  1.00  0.00     0.100 C 
BRANCH   2   3
ATOM      3  C   UNL     1      94.623  95.665  77.169  1.00  0.00     0.220 C 
ATOM      4  O   UNL     1      95.260  94.668  76.841  1.00  0.00    -0.275 OA
ATOM      5  N   UNL     1      95.162  96.804  77.747  1.00  0.00    -0.352 N 
ATOM      6  H   UNL     1      94.552  97.578  77.996  1.00  0.00     0.163 HD
BRANCH   5   7
ATOM      7  C   UNL     1      96.572  96.945  78.033  1.00  0.00     0.151 C 
BRANCH   7   8
ATOM      8  C   UNL     1      96.902  96.537  79.439  1.00  0.00    -0.025 A 
ATOM      9  C   UNL     1      96.014  95.740  80.151  1.00  0.00     0.056 A 
ATOM     10  C   UNL     1      98.093  96.963  80.016  1.00  0.00     0.009 A 
ATOM     11  C   UNL     1      96.322  95.362  81.458  1.00  0.00     0.160 A 
ATOM     12  C   UNL     1      98.400  96.585  81.323  1.00  0.00     0.050 A 
ATOM     13  C   UNL     1      97.515  95.785  82.045  1.00  0.00     0.157 A 
BRANCH  11  14
ATOM     14  O   UNL     1      95.448  94.580  82.153  1.00  0.00    -0.493 OA
ATOM     15  C   UNL     1      94.464  93.877  81.396  1.00  0.00     0.278 C 
ENDBRANCH  11  14
BRANCH  13  16
ATOM     16  O   UNL     1      97.826  95.422  83.320  1.00  0.00    -0.504 OA
ATOM     17  H   UNL     1      97.041  95.029  83.738  1.00  0.00     0.293 HD
ENDBRANCH  13  16
ENDBRANCH   7   8
ENDBRANCH   5   7
ENDBRANCH   2   3
ENDBRANCH   1   2
BRANCH   1  18
ATOM     18  C   UNL     1      90.976  94.510  77.559  1.00  0.00     0.001 C 
BRANCH  18  19
ATOM     19  C   UNL     1      89.911  94.865  76.516  1.00  0.00     0.000 C 
BRANCH  19  20
ATOM     20  C   UNL     1      90.090  94.119  75.191  1.00  0.00     0.000 C 
BRANCH  20  21
ATOM     21  C   UNL     1      89.762  92.625  75.283  1.00  0.00     0.000 C 
BRANCH  21  22
ATOM     22  C   UNL     1      90.602  91.760  74.336  1.00  0.00     0.003 C 
BRANCH  22  23
ATOM     23  C   UNL     1      89.892  90.465  73.896  1.00  0.00    -0.017 C 
ATOM     24  C   UNL     1      88.383  90.704  73.813  1.00  0.00     0.007 C 
ATOM     25  C   UNL     1      90.175  89.293  74.838  1.00  0.00     0.007 C 
ENDBRANCH  22  23
ENDBRANCH  21  22
ENDBRANCH  20  21
ENDBRANCH  19  20
ENDBRANCH  18  19
ENDBRANCH   1  18
TORSDOF 12
ENDMDL
MODEL 5
REMARK VINA RESULT:    -5.930     15.923     18.958
REMARK INTER + INTRA:         -10.804
REMARK INTER:                  -9.942
REMARK INTRA:                  -0.862
REMARK UNBOUND:                -0.888
REMARK SMILES COc1cc(CNC(=O)CCCCCCCC(C)C)ccc1O
REMARK SMILES IDX 11 1 10 2 8 3 9 4 7 5 6 7 5 8 4 9 20 10 3 11 21 12 22 13
REMARK SMILES IDX 2 14 1 15 23 16 12 18 13 19 14 20 15 21 16 22 17 23 18 24
REMARK SMILES IDX 19 25
REMARK H PARENT 7 6 23 17
REMARK Flexibility Score: inf
ROOT
ATOM      1  C   UNL     1      74.550  90.628  70.361  1.00  0.00     0.010 C 
ENDROOT
BRANCH   1   2
ATOM      2  C   UNL     1      73.447  90.400  71.392  1.00  0.00     0.100 C 
BRANCH   2   3
ATOM      3  C   UNL     1      73.124  91.657  72.182  1.00  0.00     0.220 C 
ATOM      4  O   UNL     1      71.998  91.927  72.588  1.00  0.00    -0.275 OA
ATOM      5  N   UNL     1      74.251  92.443  72.371  1.00  0.00    -0.352 N 
ATOM      6  H   UNL     1      75.143  92.143  71.987  1.00  0.00     0.163 HD
BRANCH   5   7
ATOM      7  C   UNL     1      74.219  93.699  73.084  1.00  0.00     0.151 C 
BRANCH   7   8
ATOM      8  C   UNL     1      75.436  93.888  73.943  1.00  0.00    -0.025 A 
ATOM      9  C   UNL     1      75.286  94.192  75.291  1.00  0.00     0.056 A 
ATOM     10  C   UNL     1      76.700  93.758  73.381  1.00  0.00     0.009 A 
ATOM     11  C   UNL     1      76.417  94.367  76.088  1.00  0.00     0.160 A 
ATOM     12  C   UNL     1      77.831  93.934  74.179  1.00  0.00     0.050 A 
ATOM     13  C   UNL     1      77.690  94.239  75.532  1.00  0.00     0.157 A 
BRANCH  11  14
ATOM     14  O   UNL     1      76.267  94.665  77.409  1.00  0.00    -0.493 OA
ATOM     15  C   UNL     1      75.481  93.766  78.190  1.00  0.00     0.278 C 
ENDBRANCH  11  14
BRANCH  13  16
ATOM     16  O   UNL     1      78.802  94.407  76.301  1.00  0.00    -0.504 OA
ATOM     17  H   UNL     1      79.071  95.341  76.267  1.00  0.00     0.293 HD
ENDBRANCH  13  16
ENDBRANCH   7   8
ENDBRANCH   5   7
ENDBRANCH   2   3
ENDBRANCH   1   2
BRANCH   1  18
ATOM     18  C   UNL     1      74.981  89.351  69.635  1.00  0.00     0.001 C 
BRANCH  18  19
ATOM     19  C   UNL     1      76.115  89.515  68.617  1.00  0.00     0.000 C 
BRANCH  19  20
ATOM     20  C   UNL     1      77.064  88.315  68.570  1.00  0.00     0.000 C 
BRANCH  20  21
ATOM     21  C   UNL     1      76.519  87.137  67.756  1.00  0.00     0.000 C 
BRANCH  21  22
ATOM     22  C   UNL     1      77.093  85.783  68.188  1.00  0.00     0.003 C 
BRANCH  22  23
ATOM     23  C   UNL     1      76.067  84.879  68.898  1.00  0.00    -0.017 C 
ATOM     24  C   UNL     1      74.650  85.266  68.466  1.00  0.00     0.007 C 
ATOM     25  C   UNL     1      76.177  84.951  70.421  1.00  0.00     0.007 C 
ENDBRANCH  22  23
ENDBRANCH  21  22
ENDBRANCH  20  21
ENDBRANCH  19  20
ENDBRANCH  18  19
ENDBRANCH   1  18
TORSDOF 12
ENDMDL
MODEL 6
REMARK VINA RESULT:    -5.888     13.656     16.897
REMARK INTER + INTRA:         -10.735
REMARK INTER:                  -9.594
REMARK INTRA:                  -1.141
REMARK UNBOUND:                -0.888
REMARK SMILES COc1cc(CNC(=O)CCCCCCCC(C)C)ccc1O
REMARK SMILES IDX 11 1 10 2 8 3 9 4 7 5 6 7 5 8 4 9 20 10 3 11 21 12 22 13
REMARK SMILES IDX 2 14 1 15 23 16 12 18 13 19 14 20 15 21 16 22 17 23 18 24
REMARK SMILES IDX 19 25
REMARK H PARENT 7 6 23 17
REMARK Flexibility Score: inf
ROOT
ATOM      1  C   UNL     1      98.632  81.851  77.802  1.00  0.00     0.010 C 
ENDROOT
BRANCH   1   2
ATOM      2  C   UNL     1      97.684  81.030  78.673  1.00  0.00     0.100 C 
BRANCH   2   3
ATOM      3  C   UNL     1      98.158  80.934  80.113  1.00  0.00     0.220 C 
ATOM      4  O   UNL     1      99.343  80.947  80.435  1.00  0.00    -0.275 OA
ATOM      5  N   UNL     1      97.093  80.823  80.994  1.00  0.00    -0.352 N 
ATOM      6  H   UNL     1      96.143  80.809  80.634  1.00  0.00     0.163 HD
BRANCH   5   7
ATOM      7  C   UNL     1      97.267  80.708  82.424  1.00  0.00     0.151 C 
BRANCH   7   8
ATOM      8  C   UNL     1      96.960  81.995  83.132  1.00  0.00    -0.025 A 
ATOM      9  C   UNL     1      97.332  82.154  84.462  1.00  0.00     0.056 A 
ATOM     10  C   UNL     1      96.306  83.015  82.451  1.00  0.00     0.009 A 
ATOM     11  C   UNL     1      97.046  83.350  85.120  1.00  0.00     0.160 A 
ATOM     12  C   UNL     1      96.020  84.211  83.110  1.00  0.00     0.050 A 
ATOM     13  C   UNL     1      96.390  84.379  84.444  1.00  0.00     0.157 A 
BRANCH  11  14
ATOM     14  O   UNL     1      97.412  83.502  86.424  1.00  0.00    -0.493 OA
ATOM     15  C   UNL     1      98.804  83.407  86.721  1.00  0.00     0.278 C 
ENDBRANCH  11  14
BRANCH  13  16
ATOM     16  O   UNL     1      96.106  85.552  85.076  1.00  0.00    -0.504 OA
ATOM     17  H   UNL     1      96.860  85.800  85.637  1.00  0.00     0.293 HD
ENDBRANCH  13  16
ENDBRANCH   7   8
ENDBRANCH   5   7
ENDBRANCH   2   3
ENDBRANCH   1   2
BRANCH   1  18
ATOM     18  C   UNL     1      98.226  83.322  77.675  1.00  0.00     0.001 C 
BRANCH  18  19
ATOM     19  C   UNL     1      96.776  83.576  77.250  1.00  0.00     0.000 C 
BRANCH  19  20
ATOM     20  C   UNL     1      96.644  84.628  76.145  1.00  0.00     0.000 C 
BRANCH  20  21
ATOM     21  C   UNL     1      97.803  84.607  75.143  1.00  0.00     0.000 C 
BRANCH  21  22
ATOM     22  C   UNL     1      97.407  84.054  73.770  1.00  0.00     0.003 C 
BRANCH  22  23
ATOM     23  C   UNL     1      98.508  83.199  73.112  1.00  0.00    -0.017 C 
ATOM     24  C   UNL     1      99.262  82.411  74.185  1.00  0.00     0.007 C 
ATOM     25  C   UNL     1      99.496  84.039  72.301  1.00  0.00     0.007 C 
ENDBRANCH  22  23
ENDBRANCH  21  22
ENDBRANCH  20  21
ENDBRANCH  19  20
ENDBRANCH  18  19
ENDBRANCH   1  18
TORSDOF 12
ENDMDL
MODEL 7
REMARK VINA RESULT:    -5.784     13.126     15.981
REMARK INTER + INTRA:         -10.560
REMARK INTER:                  -9.452
REMARK INTRA:                  -1.108
REMARK UNBOUND:                -0.888
REMARK SMILES COc1cc(CNC(=O)CCCCCCCC(C)C)ccc1O
REMARK SMILES IDX 11 1 10 2 8 3 9 4 7 5 6 7 5 8 4 9 20 10 3 11 21 12 22 13
REMARK SMILES IDX 2 14 1 15 23 16 12 18 13 19 14 20 15 21 16 22 17 23 18 24
REMARK SMILES IDX 19 25
REMARK H PARENT 7 6 23 17
REMARK Flexibility Score: inf
ROOT
ATOM      1  C   UNL     1      96.240  81.637  83.746  1.00  0.00     0.010 C 
ENDROOT
BRANCH   1   2
ATOM      2  C   UNL     1      96.684  82.722  82.767  1.00  0.00     0.100 C 
BRANCH   2   3
ATOM      3  C   UNL     1      97.674  82.203  81.738  1.00  0.00     0.220 C 
ATOM      4  O   UNL     1      98.809  81.832  82.022  1.00  0.00    -0.275 OA
ATOM      5  N   UNL     1      97.133  82.212  80.460  1.00  0.00    -0.352 N 
ATOM      6  H   UNL     1      96.184  82.548  80.319  1.00  0.00     0.163 HD
BRANCH   5   7
ATOM      7  C   UNL     1      97.867  81.775  79.296  1.00  0.00     0.151 C 
BRANCH   7   8
ATOM      8  C   UNL     1      97.529  82.589  78.081  1.00  0.00    -0.025 A 
ATOM      9  C   UNL     1      98.165  82.321  76.874  1.00  0.00     0.056 A 
ATOM     10  C   UNL     1      96.583  83.603  78.175  1.00  0.00     0.009 A 
ATOM     11  C   UNL     1      97.851  83.078  75.746  1.00  0.00     0.160 A 
ATOM     12  C   UNL     1      96.269  84.360  77.046  1.00  0.00     0.050 A 
ATOM     13  C   UNL     1      96.903  84.098  75.831  1.00  0.00     0.157 A 
BRANCH  11  14
ATOM     14  O   UNL     1      98.477  82.813  74.565  1.00  0.00    -0.493 OA
ATOM     15  C   UNL     1      99.901  82.904  74.552  1.00  0.00     0.278 C 
ENDBRANCH  11  14
BRANCH  13  16
ATOM     16  O   UNL     1      96.587  84.844  74.736  1.00  0.00    -0.504 OA
ATOM     17  H   UNL     1      96.770  85.780  74.927  1.00  0.00     0.293 HD
ENDBRANCH  13  16
ENDBRANCH   7   8
ENDBRANCH   5   7
ENDBRANCH   2   3
ENDBRANCH   1   2
BRANCH   1  18
ATOM     18  C   UNL     1      95.892  80.309  83.069  1.00  0.00     0.001 C 
BRANCH  18  19
ATOM     19  C   UNL     1      95.862  79.083  83.987  1.00  0.00     0.000 C 
BRANCH  19  20
ATOM     20  C   UNL     1      94.446  78.574  84.271  1.00  0.00     0.000 C 
BRANCH  20  21
ATOM     21  C   UNL     1      93.654  79.475  85.225  1.00  0.00     0.000 C 
BRANCH  21  22
ATOM     22  C   UNL     1      92.329  79.967  84.633  1.00  0.00     0.003 C 
BRANCH  22  23
ATOM     23  C   UNL     1      92.292  81.489  84.390  1.00  0.00    -0.017 C 
ATOM     24  C   UNL     1      93.008  82.213  85.532  1.00  0.00     0.007 C 
ATOM     25  C   UNL     1      90.867  82.026  84.254  1.00  0.00     0.007 C 
ENDBRANCH  22  23
ENDBRANCH  21  22
ENDBRANCH  20  21
ENDBRANCH  19  20
ENDBRANCH  18  19
ENDBRANCH   1  18
TORSDOF 12
ENDMDL
MODEL 8
REMARK VINA RESULT:    -5.734      5.846      8.506
REMARK INTER + INTRA:         -10.477
REMARK INTER:                  -9.574
REMARK INTRA:                  -0.903
REMARK UNBOUND:                -0.888
REMARK SMILES COc1cc(CNC(=O)CCCCCCCC(C)C)ccc1O
REMARK SMILES IDX 11 1 10 2 8 3 9 4 7 5 6 7 5 8 4 9 20 10 3 11 21 12 22 13
REMARK SMILES IDX 2 14 1 15 23 16 12 18 13 19 14 20 15 21 16 22 17 23 18 24
REMARK SMILES IDX 19 25
REMARK H PARENT 7 6 23 17
REMARK Flexibility Score: inf
ROOT
ATOM      1  C   UNL     1      95.317  95.730  78.584  1.00  0.00     0.010 C 
ENDROOT
BRANCH   1   2
ATOM      2  C   UNL     1      94.888  94.425  79.251  1.00  0.00     0.100 C 
BRANCH   2   3
ATOM      3  C   UNL     1      95.151  94.426  80.748  1.00  0.00     0.220 C 
ATOM      4  O   UNL     1      94.417  93.871  81.561  1.00  0.00    -0.275 OA
ATOM      5  N   UNL     1      96.302  95.132  81.063  1.00  0.00    -0.352 N 
ATOM      6  H   UNL     1      96.842  95.569  80.320  1.00  0.00     0.163 HD
BRANCH   5   7
ATOM      7  C   UNL     1      96.776  95.295  82.418  1.00  0.00     0.151 C 
BRANCH   7   8
ATOM      8  C   UNL     1      98.133  95.933  82.466  1.00  0.00    -0.025 A 
ATOM      9  C   UNL     1      98.801  96.219  81.281  1.00  0.00     0.056 A 
ATOM     10  C   UNL     1      98.709  96.232  83.695  1.00  0.00     0.009 A 
ATOM     11  C   UNL     1     100.063  96.812  81.325  1.00  0.00     0.160 A 
ATOM     12  C   UNL     1      99.971  96.825  83.739  1.00  0.00     0.050 A 
ATOM     13  C   UNL     1     100.648  97.115  82.555  1.00  0.00     0.157 A 
BRANCH  11  14
ATOM     14  O   UNL     1     100.714  97.090  80.162  1.00  0.00    -0.493 OA
ATOM     15  C   UNL     1      99.908  97.362  79.016  1.00  0.00     0.278 C 
ENDBRANCH  11  14
BRANCH  13  16
ATOM     16  O   UNL     1     101.880  97.695  82.611  1.00  0.00    -0.504 OA
ATOM     17  H   UNL     1     101.772  98.654  82.734  1.00  0.00     0.293 HD
ENDBRANCH  13  16
ENDBRANCH   7   8
ENDBRANCH   5   7
ENDBRANCH   2   3
ENDBRANCH   1   2
BRANCH   1  18
ATOM     18  C   UNL     1      94.548  96.038  77.297  1.00  0.00     0.001 C 
BRANCH  18  19
ATOM     19  C   UNL     1      93.672  97.295  77.331  1.00  0.00     0.000 C 
BRANCH  19  20
ATOM     20  C   UNL     1      92.261  97.065  76.782  1.00  0.00     0.000 C 
BRANCH  20  21
ATOM     21  C   UNL     1      91.689  95.686  77.130  1.00  0.00     0.000 C 
BRANCH  21  22
ATOM     22  C   UNL     1      90.368  95.380  76.417  1.00  0.00     0.003 C 
BRANCH  22  23
ATOM     23  C   UNL     1      89.978  93.889  76.460  1.00  0.00    -0.017 C 
ATOM     24  C   UNL     1      90.283  93.314  77.845  1.00  0.00     0.007 C 
ATOM     25  C   UNL     1      90.696  93.065  75.391  1.00  0.00     0.007 C 
ENDBRANCH  22  23
ENDBRANCH  21  22
ENDBRANCH  20  21
ENDBRANCH  19  20
ENDBRANCH  18  19
ENDBRANCH   1  18
TORSDOF 12
ENDMDL
MODEL 9
REMARK VINA RESULT:    -5.705     19.041     21.380
REMARK INTER + INTRA:         -10.429
REMARK INTER:                  -8.434
REMARK INTRA:                  -1.996
REMARK UNBOUND:                -0.888
REMARK SMILES COc1cc(CNC(=O)CCCCCCCC(C)C)ccc1O
REMARK SMILES IDX 11 1 10 2 8 3 9 4 7 5 6 7 5 8 4 9 20 10 3 11 21 12 22 13
REMARK SMILES IDX 2 14 1 15 23 16 12 18 13 19 14 20 15 21 16 22 17 23 18 24
REMARK SMILES IDX 19 25
REMARK H PARENT 7 6 23 17
REMARK Flexibility Score: inf
ROOT
ATOM      1  C   UNL     1      74.309  87.700  65.840  1.00  0.00     0.010 C 
ENDROOT
BRANCH   1   2
ATOM      2  C   UNL     1      73.835  86.348  66.370  1.00  0.00     0.100 C 
BRANCH   2   3
ATOM      3  C   UNL     1      73.008  86.482  67.639  1.00  0.00     0.220 C 
ATOM      4  O   UNL     1      72.484  85.527  68.205  1.00  0.00    -0.275 OA
ATOM      5  N   UNL     1      72.923  87.802  68.055  1.00  0.00    -0.352 N 
ATOM      6  H   UNL     1      73.383  88.530  67.514  1.00  0.00     0.163 HD
BRANCH   5   7
ATOM      7  C   UNL     1      72.188  88.207  69.231  1.00  0.00     0.151 C 
BRANCH   7   8
ATOM      8  C   UNL     1      72.854  89.349  69.943  1.00  0.00    -0.025 A 
ATOM      9  C   UNL     1      72.106  90.164  70.784  1.00  0.00     0.056 A 
ATOM     10  C   UNL     1      74.210  89.580  69.753  1.00  0.00     0.009 A 
ATOM     11  C   UNL     1      72.724  91.225  71.446  1.00  0.00     0.160 A 
ATOM     12  C   UNL     1      74.829  90.642  70.414  1.00  0.00     0.050 A 
ATOM     13  C   UNL     1      74.086  91.465  71.260  1.00  0.00     0.157 A 
BRANCH  11  14
ATOM     14  O   UNL     1      71.987  92.022  72.269  1.00  0.00    -0.493 OA
ATOM     15  C   UNL     1      71.402  93.187  71.690  1.00  0.00     0.278 C 
ENDBRANCH  11  14
BRANCH  13  16
ATOM     16  O   UNL     1      74.701  92.497  71.901  1.00  0.00    -0.504 OA
ATOM     17  H   UNL     1      74.107  92.840  72.591  1.00  0.00     0.293 HD
ENDBRANCH  13  16
ENDBRANCH   7   8
ENDBRANCH   5   7
ENDBRANCH   2   3
ENDBRANCH   1   2
BRANCH   1  18
ATOM     18  C   UNL     1      75.831  87.860  65.851  1.00  0.00     0.001 C 
BRANCH  18  19
ATOM     19  C   UNL     1      76.368  89.057  66.643  1.00  0.00     0.000 C 
BRANCH  19  20
ATOM     20  C   UNL     1      77.202  88.651  67.862  1.00  0.00     0.000 C 
BRANCH  20  21
ATOM     21  C   UNL     1      77.459  87.143  67.950  1.00  0.00     0.000 C 
BRANCH  21  22
ATOM     22  C   UNL     1      76.811  86.488  69.174  1.00  0.00     0.003 C 
BRANCH  22  23
ATOM     23  C   UNL     1      76.108  85.153  68.857  1.00  0.00    -0.017 C 
ATOM     24  C   UNL     1      75.929  84.344  70.144  1.00  0.00     0.007 C 
ATOM     25  C   UNL     1      76.872  84.319  67.828  1.00  0.00     0.007 C 
ENDBRANCH  22  23
ENDBRANCH  21  22
ENDBRANCH  20  21
ENDBRANCH  19  20
ENDBRANCH  18  19
ENDBRANCH   1  18
TORSDOF 12
ENDMDL
MODEL 10
REMARK VINA RESULT:    -5.662     13.374     15.791
REMARK INTER + INTRA:         -10.356
REMARK INTER:                  -9.198
REMARK INTRA:                  -1.157
REMARK UNBOUND:                -0.888
REMARK SMILES COc1cc(CNC(=O)CCCCCCCC(C)C)ccc1O
REMARK SMILES IDX 11 1 10 2 8 3 9 4 7 5 6 7 5 8 4 9 20 10 3 11 21 12 22 13
REMARK SMILES IDX 2 14 1 15 23 16 12 18 13 19 14 20 15 21 16 22 17 23 18 24
REMARK SMILES IDX 19 25
REMARK H PARENT 7 6 23 17
REMARK Flexibility Score: inf
ROOT
ATOM      1  C   UNL     1      95.351  84.001  84.398  1.00  0.00     0.010 C 
ENDROOT
BRANCH   1   2
ATOM      2  C   UNL     1      96.044  84.386  83.093  1.00  0.00     0.100 C 
BRANCH   2   3
ATOM      3  C   UNL     1      96.406  83.173  82.251  1.00  0.00     0.220 C 
ATOM      4  O   UNL     1      95.994  82.041  82.488  1.00  0.00    -0.275 OA
ATOM      5  N   UNL     1      97.254  83.513  81.207  1.00  0.00    -0.352 N 
ATOM      6  H   UNL     1      97.552  84.478  81.096  1.00  0.00     0.163 HD
BRANCH   5   7
ATOM      7  C   UNL     1      97.757  82.544  80.260  1.00  0.00     0.151 C 
BRANCH   7   8
ATOM      8  C   UNL     1      97.593  83.008  78.842  1.00  0.00    -0.025 A 
ATOM      9  C   UNL     1      98.583  82.728  77.908  1.00  0.00     0.056 A 
ATOM     10  C   UNL     1      96.453  83.714  78.478  1.00  0.00     0.009 A 
ATOM     11  C   UNL     1      98.431  83.160  76.590  1.00  0.00     0.160 A 
ATOM     12  C   UNL     1      96.301  84.147  77.159  1.00  0.00     0.050 A 
ATOM     13  C   UNL     1      97.290  83.870  76.216  1.00  0.00     0.157 A 
BRANCH  11  14
ATOM     14  O   UNL     1      99.404  82.884  75.678  1.00  0.00    -0.493 OA
ATOM     15  C   UNL     1      99.638  81.509  75.376  1.00  0.00     0.278 C 
ENDBRANCH  11  14
BRANCH  13  16
ATOM     16  O   UNL     1      97.130  84.296  74.932  1.00  0.00    -0.504 OA
ATOM     17  H   UNL     1      96.880  85.236  74.940  1.00  0.00     0.293 HD
ENDBRANCH  13  16
ENDBRANCH   7   8
ENDBRANCH   5   7
ENDBRANCH   2   3
ENDBRANCH   1   2
BRANCH   1  18
ATOM     18  C   UNL     1      96.304  83.423  85.448  1.00  0.00     0.001 C 
BRANCH  18  19
ATOM     19  C   UNL     1      95.753  82.256  86.275  1.00  0.00     0.000 C 
BRANCH  19  20
ATOM     20  C   UNL     1      94.856  82.705  87.431  1.00  0.00     0.000 C 
BRANCH  20  21
ATOM     21  C   UNL     1      93.361  82.669  87.092  1.00  0.00     0.000 C 
BRANCH  21  22
ATOM     22  C   UNL     1      92.822  81.251  86.877  1.00  0.00     0.003 C 
BRANCH  22  23
ATOM     23  C   UNL     1      92.269  81.013  85.458  1.00  0.00    -0.017 C 
ATOM     24  C   UNL     1      93.205  80.078  84.688  1.00  0.00     0.007 C 
ATOM     25  C   UNL     1      92.085  82.314  84.675  1.00  0.00     0.007 C 
ENDBRANCH  22  23
ENDBRANCH  21  22
ENDBRANCH  20  21
ENDBRANCH  19  20
ENDBRANCH  18  19
ENDBRANCH   1  18
TORSDOF 12
ENDMDL
