MODEL 1
REMARK VINA RESULT:    -5.785      0.000      0.000
REMARK INTER + INTRA:          -9.983
REMARK INTER:                  -8.998
REMARK INTRA:                  -0.985
REMARK UNBOUND:                -0.985
REMARK SMILES COc1cc(CNC(=O)CCCCCC(C)C)ccc1O
REMARK SMILES IDX 10 1 8 2 7 3 9 5 6 6 5 7 3 8 20 9 4 10 19 11 18 12 2 13 1 14
REMARK SMILES IDX 21 15 11 17 12 18 13 19 14 20 15 21 16 22 17 23
REMARK H PARENT 7 4 21 16
REMARK Flexibility Score: inf
ROOT
ATOM      1  C   UNL     1      77.353  85.605  66.776  1.00  0.00     0.100 C 
ENDROOT
BRANCH   1   2
ATOM      2  C   UNL     1      77.670  84.196  66.463  1.00  0.00     0.220 C 
ATOM      3  N   UNL     1      76.667  83.274  66.433  1.00  0.00    -0.352 N 
ATOM      4  H   UNL     1      75.773  83.608  66.765  1.00  0.00     0.163 HD
ATOM      5  O   UNL     1      78.855  83.885  66.188  1.00  0.00    -0.275 OA
BRANCH   3   6
ATOM      6  C   UNL     1      76.801  81.927  65.980  1.00  0.00     0.151 C 
BRANCH   6   7
ATOM      7  C   UNL     1      75.630  81.456  65.193  1.00  0.00    -0.025 A 
ATOM      8  C   UNL     1      73.220  80.998  65.022  1.00  0.00     0.160 A 
ATOM      9  C   UNL     1      73.389  80.622  63.673  1.00  0.00     0.157 A 
ATOM     10  C   UNL     1      74.344  81.394  65.779  1.00  0.00     0.056 A 
ATOM     11  C   UNL     1      74.669  80.653  63.088  1.00  0.00     0.050 A 
ATOM     12  C   UNL     1      75.780  81.072  63.840  1.00  0.00     0.009 A 
BRANCH   8  13
ATOM     13  O   UNL     1      71.986  80.955  65.617  1.00  0.00    -0.493 OA
ATOM     14  C   UNL     1      71.715  82.079  66.477  1.00  0.00     0.278 C 
ENDBRANCH   8  13
BRANCH   9  15
ATOM     15  O   UNL     1      72.316  80.237  62.938  1.00  0.00    -0.504 OA
ATOM     16  H   UNL     1      72.256  79.279  62.936  1.00  0.00     0.293 HD
ENDBRANCH   9  15
ENDBRANCH   6   7
ENDBRANCH   3   6
ENDBRANCH   1   2
BRANCH   1  17
ATOM     17  C   UNL     1      78.098  86.166  68.017  1.00  0.00     0.010 C 
BRANCH  17  18
ATOM     18  C   UNL     1      78.167  85.121  69.165  1.00  0.00     0.001 C 
BRANCH  18  19
ATOM     19  C   UNL     1      77.213  85.440  70.346  1.00  0.00     0.000 C 
BRANCH  19  20
ATOM     20  C   UNL     1      75.716  85.262  69.958  1.00  0.00     0.003 C 
BRANCH  20  21
ATOM     21  C   UNL     1      74.875  86.579  69.952  1.00  0.00    -0.017 C 
ATOM     22  C   UNL     1      74.254  86.835  68.547  1.00  0.00     0.007 C 
ATOM     23  C   UNL     1      75.694  87.822  70.407  1.00  0.00     0.007 C 
ENDBRANCH  20  21
ENDBRANCH  19  20
ENDBRANCH  18  19
ENDBRANCH  17  18
ENDBRANCH   1  17
TORSDOF 10
ENDMDL
MODEL 2
REMARK VINA RESULT:    -5.703      2.686      4.432
REMARK INTER + INTRA:          -9.855
REMARK INTER:                  -8.229
REMARK INTRA:                  -1.627
REMARK UNBOUND:                -0.985
REMARK SMILES COc1cc(CNC(=O)CCCCCC(C)C)ccc1O
REMARK SMILES IDX 10 1 8 2 7 3 9 5 6 6 5 7 3 8 20 9 4 10 19 11 18 12 2 13 1 14
REMARK SMILES IDX 21 15 11 17 12 18 13 19 14 20 15 21 16 22 17 23
REMARK H PARENT 7 4 21 16
REMARK Flexibility Score: inf
ROOT
ATOM      1  C   UNL     1      75.215  88.855  68.658  1.00  0.00     0.100 C 
ENDROOT
BRANCH   1   2
ATOM      2  C   UNL     1      75.775  88.464  67.348  1.00  0.00     0.220 C 
ATOM      3  N   UNL     1      76.958  87.790  67.299  1.00  0.00    -0.352 N 
ATOM      4  H   UNL     1      77.444  87.720  68.182  1.00  0.00     0.163 HD
ATOM      5  O   UNL     1      75.125  88.725  66.306  1.00  0.00    -0.275 OA
BRANCH   3   6
ATOM      6  C   UNL     1      77.523  87.205  66.126  1.00  0.00     0.151 C 
BRANCH   6   7
ATOM      7  C   UNL     1      77.346  85.729  66.065  1.00  0.00    -0.025 A 
ATOM      8  C   UNL     1      76.243  83.752  65.106  1.00  0.00     0.160 A 
ATOM      9  C   UNL     1      77.055  82.916  65.902  1.00  0.00     0.157 A 
ATOM     10  C   UNL     1      76.381  85.152  65.206  1.00  0.00     0.056 A 
ATOM     11  C   UNL     1      77.999  83.479  66.779  1.00  0.00     0.050 A 
ATOM     12  C   UNL     1      78.148  84.874  66.857  1.00  0.00     0.009 A 
BRANCH   8  13
ATOM     13  O   UNL     1      75.304  83.224  64.259  1.00  0.00    -0.493 OA
ATOM     14  C   UNL     1      74.064  83.957  64.235  1.00  0.00     0.278 C 
ENDBRANCH   8  13
BRANCH   9  15
ATOM     15  O   UNL     1      76.929  81.568  65.814  1.00  0.00    -0.504 OA
ATOM     16  H   UNL     1      76.035  81.346  65.544  1.00  0.00     0.293 HD
ENDBRANCH   9  15
ENDBRANCH   6   7
ENDBRANCH   3   6
ENDBRANCH   1   2
BRANCH   1  17
ATOM     17  C   UNL     1      75.889  88.161  69.873  1.00  0.00     0.010 C 
BRANCH  17  18
ATOM     18  C   UNL     1      74.849  87.420  70.759  1.00  0.00     0.001 C 
BRANCH  18  19
ATOM     19  C   UNL     1      74.373  86.073  70.154  1.00  0.00     0.000 C 
BRANCH  19  20
ATOM     20  C   UNL     1      75.497  85.359  69.349  1.00  0.00     0.003 C 
BRANCH  20  21
ATOM     21  C   UNL     1      76.453  84.463  70.203  1.00  0.00    -0.017 C 
ATOM     22  C   UNL     1      75.792  84.083  71.561  1.00  0.00     0.007 C 
ATOM     23  C   UNL     1      77.840  85.123  70.450  1.00  0.00     0.007 C 
ENDBRANCH  20  21
ENDBRANCH  19  20
ENDBRANCH  18  19
ENDBRANCH  17  18
ENDBRANCH   1  17
TORSDOF 10
ENDMDL
MODEL 3
REMARK VINA RESULT:    -5.640     25.081     27.479
REMARK INTER + INTRA:          -9.758
REMARK INTER:                  -9.086
REMARK INTRA:                  -0.672
REMARK UNBOUND:                -0.985
REMARK SMILES COc1cc(CNC(=O)CCCCCC(C)C)ccc1O
REMARK SMILES IDX 10 1 8 2 7 3 9 5 6 6 5 7 3 8 20 9 4 10 19 11 18 12 2 13 1 14
REMARK SMILES IDX 21 15 11 17 12 18 13 19 14 20 15 21 16 22 17 23
REMARK H PARENT 7 4 21 16
REMARK Flexibility Score: inf
ROOT
ATOM      1  C   UNL     1      98.687  80.671  83.742  1.00  0.00     0.100 C 
ENDROOT
BRANCH   1   2
ATOM      2  C   UNL     1      99.673  81.217  82.786  1.00  0.00     0.220 C 
ATOM      3  N   UNL     1      99.369  81.254  81.458  1.00  0.00    -0.352 N 
ATOM      4  H   UNL     1      98.519  80.771  81.203  1.00  0.00     0.163 HD
ATOM      5  O   UNL     1     100.756  81.675  83.224  1.00  0.00    -0.275 OA
BRANCH   3   6
ATOM      6  C   UNL     1     100.148  81.906  80.455  1.00  0.00     0.151 C 
BRANCH   6   7
ATOM      7  C   UNL     1      99.320  82.608  79.437  1.00  0.00    -0.025 A 
ATOM      8  C   UNL     1      98.955  83.331  77.115  1.00  0.00     0.160 A 
ATOM      9  C   UNL     1      97.712  83.886  77.485  1.00  0.00     0.157 A 
ATOM     10  C   UNL     1      99.759  82.712  78.096  1.00  0.00     0.056 A 
ATOM     11  C   UNL     1      97.277  83.811  78.822  1.00  0.00     0.050 A 
ATOM     12  C   UNL     1      98.072  83.173  79.789  1.00  0.00     0.009 A 
BRANCH   8  13
ATOM     13  O   UNL     1      99.406  83.410  75.823  1.00  0.00    -0.493 OA
ATOM     14  C   UNL     1     100.372  84.456  75.607  1.00  0.00     0.278 C 
ENDBRANCH   8  13
BRANCH   9  15
ATOM     15  O   UNL     1      96.932  84.485  76.551  1.00  0.00    -0.504 OA
ATOM     16  H   UNL     1      96.563  85.294  76.912  1.00  0.00     0.293 HD
ENDBRANCH   9  15
ENDBRANCH   6   7
ENDBRANCH   3   6
ENDBRANCH   1   2
BRANCH   1  17
ATOM     17  C   UNL     1      97.773  81.742  84.398  1.00  0.00     0.010 C 
BRANCH  17  18
ATOM     18  C   UNL     1      97.761  83.062  83.580  1.00  0.00     0.001 C 
BRANCH  18  19
ATOM     19  C   UNL     1      96.811  84.141  84.165  1.00  0.00     0.000 C 
BRANCH  19  20
ATOM     20  C   UNL     1      97.426  84.855  85.404  1.00  0.00     0.003 C 
BRANCH  20  21
ATOM     21  C   UNL     1      96.532  84.836  86.687  1.00  0.00    -0.017 C 
ATOM     22  C   UNL     1      95.553  83.625  86.665  1.00  0.00     0.007 C 
ATOM     23  C   UNL     1      95.739  86.160  86.891  1.00  0.00     0.007 C 
ENDBRANCH  20  21
ENDBRANCH  19  20
ENDBRANCH  18  19
ENDBRANCH  17  18
ENDBRANCH   1  17
TORSDOF 10
ENDMDL
MODEL 4
REMARK VINA RESULT:    -5.632      2.269      6.897
REMARK INTER + INTRA:          -9.744
REMARK INTER:                  -8.577
REMARK INTRA:                  -1.167
REMARK UNBOUND:                -0.985
REMARK SMILES COc1cc(CNC(=O)CCCCCC(C)C)ccc1O
REMARK SMILES IDX 10 1 8 2 7 3 9 5 6 6 5 7 3 8 20 9 4 10 19 11 18 12 2 13 1 14
REMARK SMILES IDX 21 15 11 17 12 18 13 19 14 20 15 21 16 22 17 23
REMARK H PARENT 7 4 21 16
REMARK Flexibility Score: inf
ROOT
ATOM      1  C   UNL     1      75.105  81.484  64.936  1.00  0.00     0.100 C 
ENDROOT
BRANCH   1   2
ATOM      2  C   UNL     1      76.063  82.586  65.161  1.00  0.00     0.220 C 
ATOM      3  N   UNL     1      76.867  82.560  66.261  1.00  0.00    -0.352 N 
ATOM      4  H   UNL     1      76.651  81.833  66.928  1.00  0.00     0.163 HD
ATOM      5  O   UNL     1      76.145  83.505  64.310  1.00  0.00    -0.275 OA
BRANCH   3   6
ATOM      6  C   UNL     1      77.947  83.460  66.511  1.00  0.00     0.151 C 
BRANCH   6   7
ATOM      7  C   UNL     1      77.570  84.593  67.400  1.00  0.00    -0.025 A 
ATOM      8  C   UNL     1      76.493  85.431  69.445  1.00  0.00     0.160 A 
ATOM      9  C   UNL     1      76.910  86.740  69.126  1.00  0.00     0.157 A 
ATOM     10  C   UNL     1      76.809  84.369  68.571  1.00  0.00     0.056 A 
ATOM     11  C   UNL     1      77.645  86.978  67.950  1.00  0.00     0.050 A 
ATOM     12  C   UNL     1      77.977  85.913  67.096  1.00  0.00     0.009 A 
BRANCH   8  13
ATOM     13  O   UNL     1      75.760  85.180  70.575  1.00  0.00    -0.493 OA
ATOM     14  C   UNL     1      76.182  84.006  71.294  1.00  0.00     0.278 C 
ENDBRANCH   8  13
BRANCH   9  15
ATOM     15  O   UNL     1      76.610  87.768  69.958  1.00  0.00    -0.504 OA
ATOM     16  H   UNL     1      75.862  88.256  69.607  1.00  0.00     0.293 HD
ENDBRANCH   9  15
ENDBRANCH   6   7
ENDBRANCH   3   6
ENDBRANCH   1   2
BRANCH   1  17
ATOM     17  C   UNL     1      74.636  81.336  63.463  1.00  0.00     0.010 C 
BRANCH  17  18
ATOM     18  C   UNL     1      73.629  80.165  63.298  1.00  0.00     0.001 C 
BRANCH  18  19
ATOM     19  C   UNL     1      72.343  80.333  64.149  1.00  0.00     0.000 C 
BRANCH  19  20
ATOM     20  C   UNL     1      71.539  81.606  63.757  1.00  0.00     0.003 C 
BRANCH  20  21
ATOM     21  C   UNL     1      71.328  82.636  64.914  1.00  0.00    -0.017 C 
ATOM     22  C   UNL     1      72.188  83.914  64.684  1.00  0.00     0.007 C 
ATOM     23  C   UNL     1      71.627  82.037  66.319  1.00  0.00     0.007 C 
ENDBRANCH  20  21
ENDBRANCH  19  20
ENDBRANCH  18  19
ENDBRANCH  17  18
ENDBRANCH   1  17
TORSDOF 10
ENDMDL
MODEL 5
REMARK VINA RESULT:    -5.545     26.018     28.779
REMARK INTER + INTRA:          -9.609
REMARK INTER:                  -8.824
REMARK INTRA:                  -0.785
REMARK UNBOUND:                -0.985
REMARK SMILES COc1cc(CNC(=O)CCCCCC(C)C)ccc1O
REMARK SMILES IDX 10 1 8 2 7 3 9 5 6 6 5 7 3 8 20 9 4 10 19 11 18 12 2 13 1 14
REMARK SMILES IDX 21 15 11 17 12 18 13 19 14 20 15 21 16 22 17 23
REMARK H PARENT 7 4 21 16
REMARK Flexibility Score: inf
ROOT
ATOM      1  C   UNL     1      99.259  83.191  80.308  1.00  0.00     0.100 C 
ENDROOT
BRANCH   1   2
ATOM      2  C   UNL     1      99.387  82.757  81.715  1.00  0.00     0.220 C 
ATOM      3  N   UNL     1      98.289  82.773  82.523  1.00  0.00    -0.352 N 
ATOM      4  H   UNL     1      97.474  83.217  82.124  1.00  0.00     0.163 HD
ATOM      5  O   UNL     1     100.497  82.341  82.126  1.00  0.00    -0.275 OA
BRANCH   3   6
ATOM      6  C   UNL     1      98.229  82.224  83.839  1.00  0.00     0.151 C 
BRANCH   6   7
ATOM      7  C   UNL     1      97.780  83.206  84.863  1.00  0.00    -0.025 A 
ATOM      8  C   UNL     1      97.941  84.149  87.128  1.00  0.00     0.160 A 
ATOM      9  C   UNL     1      96.974  85.119  86.791  1.00  0.00     0.157 A 
ATOM     10  C   UNL     1      98.325  83.187  86.169  1.00  0.00     0.056 A 
ATOM     11  C   UNL     1      96.407  85.130  85.503  1.00  0.00     0.050 A 
ATOM     12  C   UNL     1      96.810  84.185  84.545  1.00  0.00     0.009 A 
BRANCH   8  13
ATOM     13  O   UNL     1      98.492  84.109  88.382  1.00  0.00    -0.493 OA
ATOM     14  C   UNL     1      98.143  82.929  89.133  1.00  0.00     0.278 C 
ENDBRANCH   8  13
BRANCH   9  15
ATOM     15  O   UNL     1      96.597  86.047  87.706  1.00  0.00    -0.504 OA
ATOM     16  H   UNL     1      96.323  86.849  87.256  1.00  0.00     0.293 HD
ENDBRANCH   9  15
ENDBRANCH   6   7
ENDBRANCH   3   6
ENDBRANCH   1   2
BRANCH   1  17
ATOM     17  C   UNL     1      98.292  82.324  79.458  1.00  0.00     0.010 C 
BRANCH  17  18
ATOM     18  C   UNL     1      97.300  83.202  78.646  1.00  0.00     0.001 C 
BRANCH  18  19
ATOM     19  C   UNL     1      98.002  84.186  77.674  1.00  0.00     0.000 C 
BRANCH  19  20
ATOM     20  C   UNL     1      98.356  83.517  76.314  1.00  0.00     0.003 C 
BRANCH  20  21
ATOM     21  C   UNL     1      99.833  83.722  75.842  1.00  0.00    -0.017 C 
ATOM     22  C   UNL     1     100.830  83.451  77.007  1.00  0.00     0.007 C 
ATOM     23  C   UNL     1     100.085  85.135  75.241  1.00  0.00     0.007 C 
ENDBRANCH  20  21
ENDBRANCH  19  20
ENDBRANCH  18  19
ENDBRANCH  17  18
ENDBRANCH   1  17
TORSDOF 10
ENDMDL
MODEL 6
REMARK VINA RESULT:    -5.442     20.763     24.530
REMARK INTER + INTRA:          -9.449
REMARK INTER:                  -8.361
REMARK INTRA:                  -1.088
REMARK UNBOUND:                -0.985
REMARK SMILES COc1cc(CNC(=O)CCCCCC(C)C)ccc1O
REMARK SMILES IDX 10 1 8 2 7 3 9 5 6 6 5 7 3 8 20 9 4 10 19 11 18 12 2 13 1 14
REMARK SMILES IDX 21 15 11 17 12 18 13 19 14 20 15 21 16 22 17 23
REMARK H PARENT 7 4 21 16
REMARK Flexibility Score: inf
ROOT
ATOM      1  C   UNL     1      89.703  98.797  71.055  1.00  0.00     0.100 C 
ENDROOT
BRANCH   1   2
ATOM      2  C   UNL     1      90.893  99.629  71.330  1.00  0.00     0.220 C 
ATOM      3  N   UNL     1      91.110 100.091  72.593  1.00  0.00    -0.352 N 
ATOM      4  H   UNL     1      90.350  99.934  73.239  1.00  0.00     0.163 HD
ATOM      5  O   UNL     1      91.705  99.857  70.399  1.00  0.00    -0.275 OA
BRANCH   3   6
ATOM      6  C   UNL     1      92.296 100.752  73.035  1.00  0.00     0.151 C 
BRANCH   6   7
ATOM      7  C   UNL     1      93.257  99.839  73.711  1.00  0.00    -0.025 A 
ATOM      8  C   UNL     1      95.466  98.763  73.812  1.00  0.00     0.160 A 
ATOM      9  C   UNL     1      95.110  98.154  75.034  1.00  0.00     0.157 A 
ATOM     10  C   UNL     1      94.531  99.587  73.149  1.00  0.00     0.056 A 
ATOM     11  C   UNL     1      93.837  98.377  75.589  1.00  0.00     0.050 A 
ATOM     12  C   UNL     1      92.919  99.217  74.936  1.00  0.00     0.009 A 
BRANCH   8  13
ATOM     13  O   UNL     1      96.694  98.544  73.246  1.00  0.00    -0.493 OA
ATOM     14  C   UNL     1      96.654  97.695  72.082  1.00  0.00     0.278 C 
ENDBRANCH   8  13
BRANCH   9  15
ATOM     15  O   UNL     1      96.001  97.359  75.679  1.00  0.00    -0.504 OA
ATOM     16  H   UNL     1      96.894  97.647  75.475  1.00  0.00     0.293 HD
ENDBRANCH   9  15
ENDBRANCH   6   7
ENDBRANCH   3   6
ENDBRANCH   1   2
BRANCH   1  17
ATOM     17  C   UNL     1      89.946  97.651  70.036  1.00  0.00     0.010 C 
BRANCH  17  18
ATOM     18  C   UNL     1      88.746  97.485  69.064  1.00  0.00     0.001 C 
BRANCH  18  19
ATOM     19  C   UNL     1      88.825  98.414  67.823  1.00  0.00     0.000 C 
BRANCH  19  20
ATOM     20  C   UNL     1      88.057  99.750  68.038  1.00  0.00     0.003 C 
BRANCH  20  21
ATOM     21  C   UNL     1      88.871 101.041  67.700  1.00  0.00    -0.017 C 
ATOM     22  C   UNL     1      90.243 100.680  67.058  1.00  0.00     0.007 C 
ATOM     23  C   UNL     1      89.086 101.961  68.937  1.00  0.00     0.007 C 
ENDBRANCH  20  21
ENDBRANCH  19  20
ENDBRANCH  18  19
ENDBRANCH  17  18
ENDBRANCH   1  17
TORSDOF 10
ENDMDL
MODEL 7
REMARK VINA RESULT:    -5.373     20.155     23.070
REMARK INTER + INTRA:          -9.342
REMARK INTER:                  -8.649
REMARK INTRA:                  -0.693
REMARK UNBOUND:                -0.985
REMARK SMILES COc1cc(CNC(=O)CCCCCC(C)C)ccc1O
REMARK SMILES IDX 10 1 8 2 7 3 9 5 6 6 5 7 3 8 20 9 4 10 19 11 18 12 2 13 1 14
REMARK SMILES IDX 21 15 11 17 12 18 13 19 14 20 15 21 16 22 17 23
REMARK H PARENT 7 4 21 16
REMARK Flexibility Score: inf
ROOT
ATOM      1  C   UNL     1      92.571  99.333  74.509  1.00  0.00     0.100 C 
ENDROOT
BRANCH   1   2
ATOM      2  C   UNL     1      92.301 100.388  73.509  1.00  0.00     0.220 C 
ATOM      3  N   UNL     1      92.143 100.044  72.199  1.00  0.00    -0.352 N 
ATOM      4  H   UNL     1      92.358  99.081  71.984  1.00  0.00     0.163 HD
ATOM      5  O   UNL     1      92.180 101.576  73.895  1.00  0.00    -0.275 OA
BRANCH   3   6
ATOM      6  C   UNL     1      91.711 100.928  71.164  1.00  0.00     0.151 C 
BRANCH   6   7
ATOM      7  C   UNL     1      90.648 100.343  70.303  1.00  0.00    -0.025 A 
ATOM      8  C   UNL     1      89.154  98.476  69.732  1.00  0.00     0.160 A 
ATOM      9  C   UNL     1      88.578  99.254  68.705  1.00  0.00     0.157 A 
ATOM     10  C   UNL     1      90.197  99.018  70.511  1.00  0.00     0.056 A 
ATOM     11  C   UNL     1      89.037 100.563  68.472  1.00  0.00     0.050 A 
ATOM     12  C   UNL     1      90.060 101.106  69.267  1.00  0.00     0.009 A 
BRANCH   8  13
ATOM     13  O   UNL     1      88.735  97.192  69.963  1.00  0.00    -0.493 OA
ATOM     14  C   UNL     1      89.809  96.236  70.050  1.00  0.00     0.278 C 
ENDBRANCH   8  13
BRANCH   9  15
ATOM     15  O   UNL     1      87.575  98.741  67.948  1.00  0.00    -0.504 OA
ATOM     16  H   UNL     1      87.944  98.166  67.275  1.00  0.00     0.293 HD
ENDBRANCH   9  15
ENDBRANCH   6   7
ENDBRANCH   3   6
ENDBRANCH   1   2
BRANCH   1  17
ATOM     17  C   UNL     1      94.077  99.108  74.808  1.00  0.00     0.010 C 
BRANCH  17  18
ATOM     18  C   UNL     1      94.285  98.124  75.992  1.00  0.00     0.001 C 
BRANCH  18  19
ATOM     19  C   UNL     1      94.294  96.634  75.560  1.00  0.00     0.000 C 
BRANCH  19  20
ATOM     20  C   UNL     1      93.840  95.686  76.708  1.00  0.00     0.003 C 
BRANCH  20  21
ATOM     21  C   UNL     1      92.344  95.238  76.641  1.00  0.00    -0.017 C 
ATOM     22  C   UNL     1      91.451  96.154  77.530  1.00  0.00     0.007 C 
ATOM     23  C   UNL     1      92.141  93.747  77.038  1.00  0.00     0.007 C 
ENDBRANCH  20  21
ENDBRANCH  19  20
ENDBRANCH  18  19
ENDBRANCH  17  18
ENDBRANCH   1  17
TORSDOF 10
ENDMDL
MODEL 8
REMARK VINA RESULT:    -5.338      2.274      6.424
REMARK INTER + INTRA:          -9.288
REMARK INTER:                  -7.693
REMARK INTRA:                  -1.594
REMARK UNBOUND:                -0.985
REMARK SMILES COc1cc(CNC(=O)CCCCCC(C)C)ccc1O
REMARK SMILES IDX 10 1 8 2 7 3 9 5 6 6 5 7 3 8 20 9 4 10 19 11 18 12 2 13 1 14
REMARK SMILES IDX 21 15 11 17 12 18 13 19 14 20 15 21 16 22 17 23
REMARK H PARENT 7 4 21 16
REMARK Flexibility Score: inf
ROOT
ATOM      1  C   UNL     1      74.064  81.125  62.976  1.00  0.00     0.100 C 
ENDROOT
BRANCH   1   2
ATOM      2  C   UNL     1      75.393  81.358  63.578  1.00  0.00     0.220 C 
ATOM      3  N   UNL     1      75.478  81.889  64.830  1.00  0.00    -0.352 N 
ATOM      4  H   UNL     1      74.602  82.215  65.213  1.00  0.00     0.163 HD
ATOM      5  O   UNL     1      76.419  81.021  62.938  1.00  0.00    -0.275 OA
BRANCH   3   6
ATOM      6  C   UNL     1      76.678  82.005  65.594  1.00  0.00     0.151 C 
BRANCH   6   7
ATOM      7  C   UNL     1      76.987  83.406  65.988  1.00  0.00    -0.025 A 
ATOM      8  C   UNL     1      77.961  85.009  67.579  1.00  0.00     0.160 A 
ATOM      9  C   UNL     1      77.634  86.069  66.707  1.00  0.00     0.157 A 
ATOM     10  C   UNL     1      77.619  83.687  67.223  1.00  0.00     0.056 A 
ATOM     11  C   UNL     1      76.981  85.804  65.489  1.00  0.00     0.050 A 
ATOM     12  C   UNL     1      76.665  84.483  65.130  1.00  0.00     0.009 A 
BRANCH   8  13
ATOM     13  O   UNL     1      78.579  85.247  68.778  1.00  0.00    -0.493 OA
ATOM     14  C   UNL     1      77.683  85.240  69.906  1.00  0.00     0.278 C 
ENDBRANCH   8  13
BRANCH   9  15
ATOM     15  O   UNL     1      77.957  87.344  67.041  1.00  0.00    -0.504 OA
ATOM     16  H   UNL     1      78.331  87.790  66.278  1.00  0.00     0.293 HD
ENDBRANCH   9  15
ENDBRANCH   6   7
ENDBRANCH   3   6
ENDBRANCH   1   2
BRANCH   1  17
ATOM     17  C   UNL     1      73.177  80.118  63.756  1.00  0.00     0.010 C 
BRANCH  17  18
ATOM     18  C   UNL     1      71.751  80.684  64.004  1.00  0.00     0.001 C 
BRANCH  18  19
ATOM     19  C   UNL     1      71.725  82.222  64.203  1.00  0.00     0.000 C 
BRANCH  19  20
ATOM     20  C   UNL     1      72.040  82.631  65.671  1.00  0.00     0.003 C 
BRANCH  20  21
ATOM     21  C   UNL     1      72.465  84.123  65.864  1.00  0.00    -0.017 C 
ATOM     22  C   UNL     1      73.073  84.702  64.552  1.00  0.00     0.007 C 
ATOM     23  C   UNL     1      73.459  84.321  67.045  1.00  0.00     0.007 C 
ENDBRANCH  20  21
ENDBRANCH  19  20
ENDBRANCH  18  19
ENDBRANCH  17  18
ENDBRANCH   1  17
TORSDOF 10
ENDMDL
MODEL 9
REMARK VINA RESULT:    -5.328     20.110     23.361
REMARK INTER + INTRA:          -9.271
REMARK INTER:                  -8.310
REMARK INTRA:                  -0.961
REMARK UNBOUND:                -0.985
REMARK SMILES COc1cc(CNC(=O)CCCCCC(C)C)ccc1O
REMARK SMILES IDX 10 1 8 2 7 3 9 5 6 6 5 7 3 8 20 9 4 10 19 11 18 12 2 13 1 14
REMARK SMILES IDX 21 15 11 17 12 18 13 19 14 20 15 21 16 22 17 23
REMARK H PARENT 7 4 21 16
REMARK Flexibility Score: inf
ROOT
ATOM      1  C   UNL     1      94.287 100.752  72.009  1.00  0.00     0.100 C 
ENDROOT
BRANCH   1   2
ATOM      2  C   UNL     1      92.825 100.871  71.834  1.00  0.00     0.220 C 
ATOM      3  N   UNL     1      92.037  99.775  72.019  1.00  0.00    -0.352 N 
ATOM      4  H   UNL     1      92.538  98.906  72.138  1.00  0.00     0.163 HD
ATOM      5  O   UNL     1      92.334 101.993  71.560  1.00  0.00    -0.275 OA
BRANCH   3   6
ATOM      6  C   UNL     1      90.609  99.785  72.053  1.00  0.00     0.151 C 
BRANCH   6   7
ATOM      7  C   UNL     1      89.992  99.135  70.866  1.00  0.00    -0.025 A 
ATOM      8  C   UNL     1      89.153  99.267  68.558  1.00  0.00     0.160 A 
ATOM      9  C   UNL     1      88.878  97.883  68.581  1.00  0.00     0.157 A 
ATOM     10  C   UNL     1      89.690  99.887  69.706  1.00  0.00     0.056 A 
ATOM     11  C   UNL     1      89.149  97.130  69.739  1.00  0.00     0.050 A 
ATOM     12  C   UNL     1      89.706  97.750  70.870  1.00  0.00     0.009 A 
BRANCH   8  13
ATOM     13  O   UNL     1      88.878 100.021  67.448  1.00  0.00    -0.493 OA
ATOM     14  C   UNL     1      89.887 101.006  67.149  1.00  0.00     0.278 C 
ENDBRANCH   8  13
BRANCH   9  15
ATOM     15  O   UNL     1      88.359  97.277  67.484  1.00  0.00    -0.504 OA
ATOM     16  H   UNL     1      88.233  96.343  67.664  1.00  0.00     0.293 HD
ENDBRANCH   9  15
ENDBRANCH   6   7
ENDBRANCH   3   6
ENDBRANCH   1   2
BRANCH   1  17
ATOM     17  C   UNL     1      94.720  99.704  73.069  1.00  0.00     0.010 C 
BRANCH  17  18
ATOM     18  C   UNL     1      94.780 100.322  74.493  1.00  0.00     0.001 C 
BRANCH  18  19
ATOM     19  C   UNL     1      93.543  99.980  75.366  1.00  0.00     0.000 C 
BRANCH  19  20
ATOM     20  C   UNL     1      93.027  98.534  75.113  1.00  0.00     0.003 C 
BRANCH  20  21
ATOM     21  C   UNL     1      93.619  97.445  76.066  1.00  0.00    -0.017 C 
ATOM     22  C   UNL     1      94.777  96.669  75.371  1.00  0.00     0.007 C 
ATOM     23  C   UNL     1      92.543  96.446  76.585  1.00  0.00     0.007 C 
ENDBRANCH  20  21
ENDBRANCH  19  20
ENDBRANCH  18  19
ENDBRANCH  17  18
ENDBRANCH   1  17
TORSDOF 10
ENDMDL
MODEL 10
REMARK VINA RESULT:    -5.304      2.431      6.176
REMARK INTER + INTRA:          -9.235
REMARK INTER:                  -7.410
REMARK INTRA:                  -1.824
REMARK UNBOUND:                -0.985
REMARK SMILES COc1cc(CNC(=O)CCCCCC(C)C)ccc1O
REMARK SMILES IDX 10 1 8 2 7 3 9 5 6 6 5 7 3 8 20 9 4 10 19 11 18 12 2 13 1 14
REMARK SMILES IDX 21 15 11 17 12 18 13 19 14 20 15 21 16 22 17 23
REMARK H PARENT 7 4 21 16
REMARK Flexibility Score: inf
ROOT
ATOM      1  C   UNL     1      76.449  81.310  64.696  1.00  0.00     0.100 C 
ENDROOT
BRANCH   1   2
ATOM      2  C   UNL     1      77.008  82.616  65.102  1.00  0.00     0.220 C 
ATOM      3  N   UNL     1      77.663  82.723  66.293  1.00  0.00    -0.352 N 
ATOM      4  H   UNL     1      77.602  81.908  66.886  1.00  0.00     0.163 HD
ATOM      5  O   UNL     1      76.906  83.592  64.319  1.00  0.00    -0.275 OA
BRANCH   3   6
ATOM      6  C   UNL     1      78.395  83.869  66.727  1.00  0.00     0.151 C 
BRANCH   6   7
ATOM      7  C   UNL     1      77.667  84.678  67.741  1.00  0.00    -0.025 A 
ATOM      8  C   UNL     1      76.717  86.825  68.475  1.00  0.00     0.160 A 
ATOM      9  C   UNL     1      76.222  86.204  69.641  1.00  0.00     0.157 A 
ATOM     10  C   UNL     1      77.452  86.063  67.542  1.00  0.00     0.056 A 
ATOM     11  C   UNL     1      76.453  84.834  69.863  1.00  0.00     0.050 A 
ATOM     12  C   UNL     1      77.165  84.076  68.918  1.00  0.00     0.009 A 
BRANCH   8  13
ATOM     13  O   UNL     1      76.520  88.162  68.250  1.00  0.00    -0.493 OA
ATOM     14  C   UNL     1      75.824  88.449  67.022  1.00  0.00     0.278 C 
ENDBRANCH   8  13
BRANCH   9  15
ATOM     15  O   UNL     1      75.516  86.928  70.546  1.00  0.00    -0.504 OA
ATOM     16  H   UNL     1      75.206  87.739  70.136  1.00  0.00     0.293 HD
ENDBRANCH   9  15
ENDBRANCH   6   7
ENDBRANCH   3   6
ENDBRANCH   1   2
BRANCH   1  17
ATOM     17  C   UNL     1      74.959  81.360  64.262  1.00  0.00     0.010 C 
BRANCH  17  18
ATOM     18  C   UNL     1      74.009  81.444  65.488  1.00  0.00     0.001 C 
BRANCH  18  19
ATOM     19  C   UNL     1      72.924  82.545  65.353  1.00  0.00     0.000 C 
BRANCH  19  20
ATOM     20  C   UNL     1      72.661  83.281  66.698  1.00  0.00     0.003 C 
BRANCH  20  21
ATOM     21  C   UNL     1      73.721  84.366  67.075  1.00  0.00    -0.017 C 
ATOM     22  C   UNL     1      73.141  85.372  68.113  1.00  0.00     0.007 C 
ATOM     23  C   UNL     1      74.267  85.134  65.836  1.00  0.00     0.007 C 
ENDBRANCH  20  21
ENDBRANCH  19  20
ENDBRANCH  18  19
ENDBRANCH  17  18
ENDBRANCH   1  17
TORSDOF 10
ENDMDL
