MODEL 1
REMARK VINA RESULT:    -5.236      0.000      0.000
REMARK INTER + INTRA:         -10.588
REMARK INTER:                  -8.450
REMARK INTRA:                  -2.138
REMARK UNBOUND:                -2.138
REMARK SMILES COc1cc(CNC(=O)CCCCCCC(C)C)ccc1O
REMARK SMILES IDX 11 1 10 2 8 3 7 4 9 6 6 7 5 8 3 9 21 10 4 11 20 12 19 13
REMARK SMILES IDX 2 14 1 15 22 16 12 18 13 19 14 20 15 21 16 22 17 23 18 24
REMARK H PARENT 7 5 22 17
REMARK Flexibility Score: inf
ROOT
ATOM      1  C   UNL     1      87.120 100.067  66.752  1.00  0.00     0.010 C 
ENDROOT
BRANCH   1   2
ATOM      2  C   UNL     1      88.351  99.208  66.349  1.00  0.00     0.100 C 
BRANCH   2   3
ATOM      3  C   UNL     1      89.133  98.727  67.510  1.00  0.00     0.220 C 
ATOM      4  N   UNL     1      88.879  99.209  68.760  1.00  0.00    -0.352 N 
ATOM      5  H   UNL     1      88.168  99.925  68.799  1.00  0.00     0.163 HD
ATOM      6  O   UNL     1      90.014  97.853  67.321  1.00  0.00    -0.275 OA
BRANCH   4   7
ATOM      7  C   UNL     1      89.528  98.778  69.961  1.00  0.00     0.151 C 
BRANCH   7   8
ATOM      8  C   UNL     1      90.411  99.818  70.557  1.00  0.00    -0.025 A 
ATOM      9  C   UNL     1      92.454 100.431  71.781  1.00  0.00     0.160 A 
ATOM     10  C   UNL     1      92.120 101.798  71.658  1.00  0.00     0.157 A 
ATOM     11  C   UNL     1      91.589  99.453  71.247  1.00  0.00     0.056 A 
ATOM     12  C   UNL     1      90.930 102.172  71.008  1.00  0.00     0.050 A 
ATOM     13  C   UNL     1      90.086 101.191  70.451  1.00  0.00     0.009 A 
BRANCH   9  14
ATOM     14  O   UNL     1      93.589 100.055  72.446  1.00  0.00    -0.493 OA
ATOM     15  C   UNL     1      94.580  99.444  71.601  1.00  0.00     0.278 C 
ENDBRANCH   9  14
BRANCH  10  16
ATOM     16  O   UNL     1      92.933 102.762  72.164  1.00  0.00    -0.504 OA
ATOM     17  H   UNL     1      92.838 102.791  73.119  1.00  0.00     0.293 HD
ENDBRANCH  10  16
ENDBRANCH   7   8
ENDBRANCH   4   7
ENDBRANCH   2   3
ENDBRANCH   1   2
BRANCH   1  18
ATOM     18  C   UNL     1      87.266 101.549  66.302  1.00  0.00     0.001 C 
BRANCH  18  19
ATOM     19  C   UNL     1      88.255 102.374  67.173  1.00  0.00     0.000 C 
BRANCH  19  20
ATOM     20  C   UNL     1      89.304 103.117  66.299  1.00  0.00     0.000 C 
BRANCH  20  21
ATOM     21  C   UNL     1      90.759 103.032  66.839  1.00  0.00     0.003 C 
BRANCH  21  22
ATOM     22  C   UNL     1      91.335 101.581  66.930  1.00  0.00    -0.017 C 
ATOM     23  C   UNL     1      92.676 101.577  67.717  1.00  0.00     0.007 C 
ATOM     24  C   UNL     1      91.514 100.892  65.545  1.00  0.00     0.007 C 
ENDBRANCH  21  22
ENDBRANCH  20  21
ENDBRANCH  19  20
ENDBRANCH  18  19
ENDBRANCH   1  18
TORSDOF 11
ENDMDL
MODEL 2
REMARK VINA RESULT:    -5.082      4.255      8.866
REMARK INTER + INTRA:         -10.339
REMARK INTER:                  -9.450
REMARK INTRA:                  -0.889
REMARK UNBOUND:                -2.138
REMARK SMILES COc1cc(CNC(=O)CCCCCCC(C)C)ccc1O
REMARK SMILES IDX 11 1 10 2 8 3 7 4 9 6 6 7 5 8 3 9 21 10 4 11 20 12 19 13
REMARK SMILES IDX 2 14 1 15 22 16 12 18 13 19 14 20 15 21 16 22 17 23 18 24
REMARK H PARENT 7 5 22 17
REMARK Flexibility Score: inf
ROOT
ATOM      1  C   UNL     1      95.059  98.179  74.329  1.00  0.00     0.010 C 
ENDROOT
BRANCH   1   2
ATOM      2  C   UNL     1      93.601  98.201  73.794  1.00  0.00     0.100 C 
BRANCH   2   3
ATOM      3  C   UNL     1      93.324  99.347  72.898  1.00  0.00     0.220 C 
ATOM      4  N   UNL     1      93.042  99.139  71.580  1.00  0.00    -0.352 N 
ATOM      5  H   UNL     1      93.086  98.174  71.287  1.00  0.00     0.163 HD
ATOM      6  O   UNL     1      93.330 100.505  73.384  1.00  0.00    -0.275 OA
BRANCH   4   7
ATOM      7  C   UNL     1      92.703 100.161  70.636  1.00  0.00     0.151 C 
BRANCH   7   8
ATOM      8  C   UNL     1      91.395  99.928  69.964  1.00  0.00    -0.025 A 
ATOM      9  C   UNL     1      89.563 100.732  68.534  1.00  0.00     0.160 A 
ATOM     10  C   UNL     1      88.925  99.477  68.642  1.00  0.00     0.157 A 
ATOM     11  C   UNL     1      90.781 100.954  69.210  1.00  0.00     0.056 A 
ATOM     12  C   UNL     1      89.506  98.461  69.422  1.00  0.00     0.050 A 
ATOM     13  C   UNL     1      90.738  98.679  70.069  1.00  0.00     0.009 A 
BRANCH   9  14
ATOM     14  O   UNL     1      88.986 101.741  67.811  1.00  0.00    -0.493 OA
ATOM     15  C   UNL     1      89.456 101.823  66.454  1.00  0.00     0.278 C 
ENDBRANCH   9  14
BRANCH  10  16
ATOM     16  O   UNL     1      87.749  99.236  68.004  1.00  0.00    -0.504 OA
ATOM     17  H   UNL     1      87.895  99.240  67.055  1.00  0.00     0.293 HD
ENDBRANCH  10  16
ENDBRANCH   7   8
ENDBRANCH   4   7
ENDBRANCH   2   3
ENDBRANCH   1   2
BRANCH   1  18
ATOM     18  C   UNL     1      95.429  96.809  74.966  1.00  0.00     0.001 C 
BRANCH  18  19
ATOM     19  C   UNL     1      94.812  95.588  74.228  1.00  0.00     0.000 C 
BRANCH  19  20
ATOM     20  C   UNL     1      94.025  94.668  75.203  1.00  0.00     0.000 C 
BRANCH  20  21
ATOM     21  C   UNL     1      92.988  95.414  76.086  1.00  0.00     0.003 C 
BRANCH  21  22
ATOM     22  C   UNL     1      93.001  95.003  77.595  1.00  0.00    -0.017 C 
ATOM     23  C   UNL     1      94.422  95.195  78.198  1.00  0.00     0.007 C 
ATOM     24  C   UNL     1      92.491  93.555  77.853  1.00  0.00     0.007 C 
ENDBRANCH  21  22
ENDBRANCH  20  21
ENDBRANCH  19  20
ENDBRANCH  18  19
ENDBRANCH   1  18
TORSDOF 11
ENDMDL
MODEL 3
REMARK VINA RESULT:    -5.042     19.707     22.436
REMARK INTER + INTRA:         -10.276
REMARK INTER:                  -9.529
REMARK INTRA:                  -0.746
REMARK UNBOUND:                -2.138
REMARK SMILES COc1cc(CNC(=O)CCCCCCC(C)C)ccc1O
REMARK SMILES IDX 11 1 10 2 8 3 7 4 9 6 6 7 5 8 3 9 21 10 4 11 20 12 19 13
REMARK SMILES IDX 2 14 1 15 22 16 12 18 13 19 14 20 15 21 16 22 17 23 18 24
REMARK H PARENT 7 5 22 17
REMARK Flexibility Score: inf
ROOT
ATOM      1  C   UNL     1      97.173  81.932  78.095  1.00  0.00     0.010 C 
ENDROOT
BRANCH   1   2
ATOM      2  C   UNL     1      95.951  82.661  77.472  1.00  0.00     0.100 C 
BRANCH   2   3
ATOM      3  C   UNL     1      96.069  82.857  76.010  1.00  0.00     0.220 C 
ATOM      4  N   UNL     1      96.718  81.936  75.241  1.00  0.00    -0.352 N 
ATOM      5  H   UNL     1      97.126  81.170  75.757  1.00  0.00     0.163 HD
ATOM      6  O   UNL     1      95.541  83.873  75.495  1.00  0.00    -0.275 OA
BRANCH   4   7
ATOM      7  C   UNL     1      96.844  81.990  73.817  1.00  0.00     0.151 C 
BRANCH   7   8
ATOM      8  C   UNL     1      98.203  82.396  73.363  1.00  0.00    -0.025 A 
ATOM      9  C   UNL     1     100.271  81.904  72.126  1.00  0.00     0.160 A 
ATOM     10  C   UNL     1     100.775  83.181  72.458  1.00  0.00     0.157 A 
ATOM     11  C   UNL     1      98.999  81.515  72.596  1.00  0.00     0.056 A 
ATOM     12  C   UNL     1     100.008  84.052  73.253  1.00  0.00     0.050 A 
ATOM     13  C   UNL     1      98.727  83.668  73.694  1.00  0.00     0.009 A 
BRANCH   9  14
ATOM     14  O   UNL     1     101.025  81.034  71.387  1.00  0.00    -0.493 OA
ATOM     15  C   UNL     1     100.420  80.663  70.134  1.00  0.00     0.278 C 
ENDBRANCH   9  14
BRANCH  10  16
ATOM     16  O   UNL     1     101.998  83.582  72.020  1.00  0.00    -0.504 OA
ATOM     17  H   UNL     1     101.890  84.218  71.309  1.00  0.00     0.293 HD
ENDBRANCH  10  16
ENDBRANCH   7   8
ENDBRANCH   4   7
ENDBRANCH   2   3
ENDBRANCH   1   2
BRANCH   1  18
ATOM     18  C   UNL     1      97.178  82.015  79.648  1.00  0.00     0.001 C 
BRANCH  18  19
ATOM     19  C   UNL     1      97.895  80.820  80.337  1.00  0.00     0.000 C 
BRANCH  19  20
ATOM     20  C   UNL     1      96.982  80.138  81.395  1.00  0.00     0.000 C 
BRANCH  20  21
ATOM     21  C   UNL     1      96.981  80.839  82.782  1.00  0.00     0.003 C 
BRANCH  21  22
ATOM     22  C   UNL     1      95.691  81.666  83.092  1.00  0.00    -0.017 C 
ATOM     23  C   UNL     1      95.978  83.189  82.964  1.00  0.00     0.007 C 
ATOM     24  C   UNL     1      95.059  81.344  84.478  1.00  0.00     0.007 C 
ENDBRANCH  21  22
ENDBRANCH  20  21
ENDBRANCH  19  20
ENDBRANCH  18  19
ENDBRANCH   1  18
TORSDOF 11
ENDMDL
MODEL 4
REMARK VINA RESULT:    -5.006     20.157     23.495
REMARK INTER + INTRA:         -10.217
REMARK INTER:                  -9.371
REMARK INTRA:                  -0.846
REMARK UNBOUND:                -2.138
REMARK SMILES COc1cc(CNC(=O)CCCCCCC(C)C)ccc1O
REMARK SMILES IDX 11 1 10 2 8 3 7 4 9 6 6 7 5 8 3 9 21 10 4 11 20 12 19 13
REMARK SMILES IDX 2 14 1 15 22 16 12 18 13 19 14 20 15 21 16 22 17 23 18 24
REMARK H PARENT 7 5 22 17
REMARK Flexibility Score: inf
ROOT
ATOM      1  C   UNL     1      96.318  80.547  82.336  1.00  0.00     0.010 C 
ENDROOT
BRANCH   1   2
ATOM      2  C   UNL     1      97.819  80.171  82.479  1.00  0.00     0.100 C 
BRANCH   2   3
ATOM      3  C   UNL     1      98.556  80.210  81.196  1.00  0.00     0.220 C 
ATOM      4  N   UNL     1      97.962  80.714  80.075  1.00  0.00    -0.352 N 
ATOM      5  H   UNL     1      97.002  80.998  80.199  1.00  0.00     0.163 HD
ATOM      6  O   UNL     1      99.740  79.795  81.169  1.00  0.00    -0.275 OA
BRANCH   4   7
ATOM      7  C   UNL     1      98.594  80.855  78.798  1.00  0.00     0.151 C 
BRANCH   7   8
ATOM      8  C   UNL     1      97.777  81.628  77.822  1.00  0.00    -0.025 A 
ATOM      9  C   UNL     1      97.474  82.563  75.568  1.00  0.00     0.160 A 
ATOM     10  C   UNL     1      96.207  83.061  75.942  1.00  0.00     0.157 A 
ATOM     11  C   UNL     1      98.256  81.868  76.514  1.00  0.00     0.056 A 
ATOM     12  C   UNL     1      95.736  82.862  77.253  1.00  0.00     0.050 A 
ATOM     13  C   UNL     1      96.510  82.142  78.184  1.00  0.00     0.009 A 
BRANCH   9  14
ATOM     14  O   UNL     1      97.959  82.785  74.308  1.00  0.00    -0.493 OA
ATOM     15  C   UNL     1      98.829  81.744  73.829  1.00  0.00     0.278 C 
ENDBRANCH   9  14
BRANCH  10  16
ATOM     16  O   UNL     1      95.433  83.736  75.052  1.00  0.00    -0.504 OA
ATOM     17  H   UNL     1      94.507  83.558  75.234  1.00  0.00     0.293 HD
ENDBRANCH  10  16
ENDBRANCH   7   8
ENDBRANCH   4   7
ENDBRANCH   2   3
ENDBRANCH   1   2
BRANCH   1  18
ATOM     18  C   UNL     1      95.782  81.304  83.585  1.00  0.00     0.001 C 
BRANCH  18  19
ATOM     19  C   UNL     1      96.545  82.623  83.894  1.00  0.00     0.000 C 
BRANCH  19  20
ATOM     20  C   UNL     1      95.742  83.870  83.429  1.00  0.00     0.000 C 
BRANCH  20  21
ATOM     21  C   UNL     1      95.348  84.838  84.579  1.00  0.00     0.003 C 
BRANCH  21  22
ATOM     22  C   UNL     1      95.011  84.135  85.935  1.00  0.00    -0.017 C 
ATOM     23  C   UNL     1      93.475  83.944  86.082  1.00  0.00     0.007 C 
ATOM     24  C   UNL     1      95.591  84.867  87.180  1.00  0.00     0.007 C 
ENDBRANCH  21  22
ENDBRANCH  20  21
ENDBRANCH  19  20
ENDBRANCH  18  19
ENDBRANCH   1  18
TORSDOF 11
ENDMDL
MODEL 5
REMARK VINA RESULT:    -4.916     22.003     24.797
REMARK INTER + INTRA:         -10.071
REMARK INTER:                  -9.568
REMARK INTRA:                  -0.503
REMARK UNBOUND:                -2.138
REMARK SMILES COc1cc(CNC(=O)CCCCCCC(C)C)ccc1O
REMARK SMILES IDX 11 1 10 2 8 3 7 4 9 6 6 7 5 8 3 9 21 10 4 11 20 12 19 13
REMARK SMILES IDX 2 14 1 15 22 16 12 18 13 19 14 20 15 21 16 22 17 23 18 24
REMARK H PARENT 7 5 22 17
REMARK Flexibility Score: inf
ROOT
ATOM      1  C   UNL     1      95.574  81.161  83.269  1.00  0.00     0.010 C 
ENDROOT
BRANCH   1   2
ATOM      2  C   UNL     1      95.826  81.309  84.795  1.00  0.00     0.100 C 
BRANCH   2   3
ATOM      3  C   UNL     1      94.869  82.222  85.459  1.00  0.00     0.220 C 
ATOM      4  N   UNL     1      93.528  82.097  85.235  1.00  0.00    -0.352 N 
ATOM      5  H   UNL     1      93.278  81.384  84.567  1.00  0.00     0.163 HD
ATOM      6  O   UNL     1      95.315  83.090  86.248  1.00  0.00    -0.275 OA
BRANCH   4   7
ATOM      7  C   UNL     1      92.509  82.882  85.864  1.00  0.00     0.151 C 
BRANCH   7   8
ATOM      8  C   UNL     1      91.214  82.160  86.001  1.00  0.00    -0.025 A 
ATOM      9  C   UNL     1      89.426  80.789  85.015  1.00  0.00     0.160 A 
ATOM     10  C   UNL     1      88.768  80.746  86.264  1.00  0.00     0.157 A 
ATOM     11  C   UNL     1      90.632  81.510  84.889  1.00  0.00     0.056 A 
ATOM     12  C   UNL     1      89.318  81.422  87.368  1.00  0.00     0.050 A 
ATOM     13  C   UNL     1      90.537  82.115  87.242  1.00  0.00     0.009 A 
BRANCH   9  14
ATOM     14  O   UNL     1      88.880  80.169  83.925  1.00  0.00    -0.493 OA
ATOM     15  C   UNL     1      89.545  78.946  83.560  1.00  0.00     0.278 C 
ENDBRANCH   9  14
BRANCH  10  16
ATOM     16  O   UNL     1      87.604  80.061  86.414  1.00  0.00    -0.504 OA
ATOM     17  H   UNL     1      87.512  79.785  87.330  1.00  0.00     0.293 HD
ENDBRANCH  10  16
ENDBRANCH   7   8
ENDBRANCH   4   7
ENDBRANCH   2   3
ENDBRANCH   1   2
BRANCH   1  18
ATOM     18  C   UNL     1      96.408  82.175  82.435  1.00  0.00     0.001 C 
BRANCH  18  19
ATOM     19  C   UNL     1      97.175  81.530  81.248  1.00  0.00     0.000 C 
BRANCH  19  20
ATOM     20  C   UNL     1      96.748  82.148  79.887  1.00  0.00     0.000 C 
BRANCH  20  21
ATOM     21  C   UNL     1      97.743  81.878  78.724  1.00  0.00     0.003 C 
BRANCH  21  22
ATOM     22  C   UNL     1      97.080  81.773  77.312  1.00  0.00    -0.017 C 
ATOM     23  C   UNL     1      98.114  82.106  76.199  1.00  0.00     0.007 C 
ATOM     24  C   UNL     1      95.805  82.654  77.153  1.00  0.00     0.007 C 
ENDBRANCH  21  22
ENDBRANCH  20  21
ENDBRANCH  19  20
ENDBRANCH  18  19
ENDBRANCH   1  18
TORSDOF 11
ENDMDL
MODEL 6
REMARK VINA RESULT:    -4.896     19.891     23.185
REMARK INTER + INTRA:         -10.040
REMARK INTER:                  -9.402
REMARK INTRA:                  -0.638
REMARK UNBOUND:                -2.138
REMARK SMILES COc1cc(CNC(=O)CCCCCCC(C)C)ccc1O
REMARK SMILES IDX 11 1 10 2 8 3 7 4 9 6 6 7 5 8 3 9 21 10 4 11 20 12 19 13
REMARK SMILES IDX 2 14 1 15 22 16 12 18 13 19 14 20 15 21 16 22 17 23 18 24
REMARK H PARENT 7 5 22 17
REMARK Flexibility Score: inf
ROOT
ATOM      1  C   UNL     1      97.759  81.570  78.042  1.00  0.00     0.010 C 
ENDROOT
BRANCH   1   2
ATOM      2  C   UNL     1      96.490  82.369  77.635  1.00  0.00     0.100 C 
BRANCH   2   3
ATOM      3  C   UNL     1      96.544  82.888  76.250  1.00  0.00     0.220 C 
ATOM      4  N   UNL     1      97.707  82.834  75.539  1.00  0.00    -0.352 N 
ATOM      5  H   UNL     1      98.496  82.464  76.050  1.00  0.00     0.163 HD
ATOM      6  O   UNL     1      95.495  83.353  75.741  1.00  0.00    -0.275 OA
BRANCH   4   7
ATOM      7  C   UNL     1      97.864  83.250  74.179  1.00  0.00     0.151 C 
BRANCH   7   8
ATOM      8  C   UNL     1      98.235  82.137  73.263  1.00  0.00    -0.025 A 
ATOM      9  C   UNL     1      97.714  79.966  72.230  1.00  0.00     0.160 A 
ATOM     10  C   UNL     1      98.913  80.030  71.487  1.00  0.00     0.157 A 
ATOM     11  C   UNL     1      97.394  81.009  73.125  1.00  0.00     0.056 A 
ATOM     12  C   UNL     1      99.777  81.128  71.645  1.00  0.00     0.050 A 
ATOM     13  C   UNL     1      99.437  82.180  72.518  1.00  0.00     0.009 A 
BRANCH   9  14
ATOM     14  O   UNL     1      96.886  78.883  72.114  1.00  0.00    -0.493 OA
ATOM     15  C   UNL     1      96.878  78.032  73.274  1.00  0.00     0.278 C 
ENDBRANCH   9  14
BRANCH  10  16
ATOM     16  O   UNL     1      99.248  79.039  70.619  1.00  0.00    -0.504 OA
ATOM     17  H   UNL     1     100.116  78.697  70.844  1.00  0.00     0.293 HD
ENDBRANCH  10  16
ENDBRANCH   7   8
ENDBRANCH   4   7
ENDBRANCH   2   3
ENDBRANCH   1   2
BRANCH   1  18
ATOM     18  C   UNL     1      97.617  80.917  79.446  1.00  0.00     0.001 C 
BRANCH  18  19
ATOM     19  C   UNL     1      97.006  81.863  80.519  1.00  0.00     0.000 C 
BRANCH  19  20
ATOM     20  C   UNL     1      96.745  81.117  81.857  1.00  0.00     0.000 C 
BRANCH  20  21
ATOM     21  C   UNL     1      95.904  81.926  82.884  1.00  0.00     0.003 C 
BRANCH  21  22
ATOM     22  C   UNL     1      95.416  81.100  84.119  1.00  0.00    -0.017 C 
ATOM     23  C   UNL     1      95.545  79.576  83.840  1.00  0.00     0.007 C 
ATOM     24  C   UNL     1      93.968  81.451  84.572  1.00  0.00     0.007 C 
ENDBRANCH  21  22
ENDBRANCH  20  21
ENDBRANCH  19  20
ENDBRANCH  18  19
ENDBRANCH   1  18
TORSDOF 11
ENDMDL
MODEL 7
REMARK VINA RESULT:    -4.878     20.252     22.964
REMARK INTER + INTRA:         -10.011
REMARK INTER:                  -8.783
REMARK INTRA:                  -1.228
REMARK UNBOUND:                -2.138
REMARK SMILES COc1cc(CNC(=O)CCCCCCC(C)C)ccc1O
REMARK SMILES IDX 11 1 10 2 8 3 7 4 9 6 6 7 5 8 3 9 21 10 4 11 20 12 19 13
REMARK SMILES IDX 2 14 1 15 22 16 12 18 13 19 14 20 15 21 16 22 17 23 18 24
REMARK H PARENT 7 5 22 17
REMARK Flexibility Score: inf
ROOT
ATOM      1  C   UNL     1      96.290  83.050  76.102  1.00  0.00     0.010 C 
ENDROOT
BRANCH   1   2
ATOM      2  C   UNL     1      96.247  81.668  76.810  1.00  0.00     0.100 C 
BRANCH   2   3
ATOM      3  C   UNL     1      97.231  81.543  77.909  1.00  0.00     0.220 C 
ATOM      4  N   UNL     1      97.095  80.561  78.847  1.00  0.00    -0.352 N 
ATOM      5  H   UNL     1      96.270  79.989  78.742  1.00  0.00     0.163 HD
ATOM      6  O   UNL     1      98.199  82.340  77.942  1.00  0.00    -0.275 OA
BRANCH   4   7
ATOM      7  C   UNL     1      98.012  80.308  79.916  1.00  0.00     0.151 C 
BRANCH   7   8
ATOM      8  C   UNL     1      97.649  81.009  81.179  1.00  0.00    -0.025 A 
ATOM      9  C   UNL     1      97.908  81.291  83.608  1.00  0.00     0.160 A 
ATOM     10  C   UNL     1      96.995  82.368  83.583  1.00  0.00     0.157 A 
ATOM     11  C   UNL     1      98.213  80.609  82.411  1.00  0.00     0.056 A 
ATOM     12  C   UNL     1      96.397  82.750  82.368  1.00  0.00     0.050 A 
ATOM     13  C   UNL     1      96.729  82.083  81.172  1.00  0.00     0.009 A 
BRANCH   9  14
ATOM     14  O   UNL     1      98.465  80.886  84.790  1.00  0.00    -0.493 OA
ATOM     15  C   UNL     1      97.845  79.715  85.352  1.00  0.00     0.278 C 
ENDBRANCH   9  14
BRANCH  10  16
ATOM     16  O   UNL     1      96.681  83.042  84.720  1.00  0.00    -0.504 OA
ATOM     17  H   UNL     1      95.753  83.285  84.701  1.00  0.00     0.293 HD
ENDBRANCH  10  16
ENDBRANCH   7   8
ENDBRANCH   4   7
ENDBRANCH   2   3
ENDBRANCH   1   2
BRANCH   1  18
ATOM     18  C   UNL     1      96.441  82.915  74.560  1.00  0.00     0.001 C 
BRANCH  18  19
ATOM     19  C   UNL     1      97.769  83.504  74.006  1.00  0.00     0.000 C 
BRANCH  19  20
ATOM     20  C   UNL     1      98.902  82.439  73.985  1.00  0.00     0.000 C 
BRANCH  20  21
ATOM     21  C   UNL     1      98.622  81.229  73.051  1.00  0.00     0.003 C 
BRANCH  21  22
ATOM     22  C   UNL     1      98.581  79.844  73.776  1.00  0.00    -0.017 C 
ATOM     23  C   UNL     1      97.136  79.269  73.768  1.00  0.00     0.007 C 
ATOM     24  C   UNL     1      99.144  79.881  75.227  1.00  0.00     0.007 C 
ENDBRANCH  21  22
ENDBRANCH  20  21
ENDBRANCH  19  20
ENDBRANCH  18  19
ENDBRANCH   1  18
TORSDOF 11
ENDMDL
MODEL 8
REMARK VINA RESULT:    -4.772     19.521     22.177
REMARK INTER + INTRA:          -9.840
REMARK INTER:                  -8.582
REMARK INTRA:                  -1.258
REMARK UNBOUND:                -2.138
REMARK SMILES COc1cc(CNC(=O)CCCCCCC(C)C)ccc1O
REMARK SMILES IDX 11 1 10 2 8 3 7 4 9 6 6 7 5 8 3 9 21 10 4 11 20 12 19 13
REMARK SMILES IDX 2 14 1 15 22 16 12 18 13 19 14 20 15 21 16 22 17 23 18 24
REMARK H PARENT 7 5 22 17
REMARK Flexibility Score: inf
ROOT
ATOM      1  C   UNL     1      97.335  82.067  78.122  1.00  0.00     0.010 C 
ENDROOT
BRANCH   1   2
ATOM      2  C   UNL     1      96.047  82.465  77.350  1.00  0.00     0.100 C 
BRANCH   2   3
ATOM      3  C   UNL     1      96.323  83.177  76.082  1.00  0.00     0.220 C 
ATOM      4  N   UNL     1      97.403  82.838  75.321  1.00  0.00    -0.352 N 
ATOM      5  H   UNL     1      97.989  82.118  75.719  1.00  0.00     0.163 HD
ATOM      6  O   UNL     1      95.530  84.079  75.713  1.00  0.00    -0.275 OA
BRANCH   4   7
ATOM      7  C   UNL     1      97.736  83.415  74.054  1.00  0.00     0.151 C 
BRANCH   7   8
ATOM      8  C   UNL     1      99.172  83.255  73.696  1.00  0.00    -0.025 A 
ATOM      9  C   UNL     1     101.133  83.966  72.393  1.00  0.00     0.160 A 
ATOM     10  C   UNL     1     101.920  82.987  73.039  1.00  0.00     0.157 A 
ATOM     11  C   UNL     1      99.764  84.080  72.712  1.00  0.00     0.056 A 
ATOM     12  C   UNL     1     101.333  82.135  73.991  1.00  0.00     0.050 A 
ATOM     13  C   UNL     1      99.972  82.273  74.326  1.00  0.00     0.009 A 
BRANCH   9  14
ATOM     14  O   UNL     1     101.685  84.774  71.436  1.00  0.00    -0.493 OA
ATOM     15  C   UNL     1     101.451  84.322  70.090  1.00  0.00     0.278 C 
ENDBRANCH   9  14
BRANCH  10  16
ATOM     16  O   UNL     1     103.241  82.854  72.750  1.00  0.00    -0.504 OA
ATOM     17  H   UNL     1     103.694  82.462  73.501  1.00  0.00     0.293 HD
ENDBRANCH  10  16
ENDBRANCH   7   8
ENDBRANCH   4   7
ENDBRANCH   2   3
ENDBRANCH   1   2
BRANCH   1  18
ATOM     18  C   UNL     1      97.072  81.879  79.644  1.00  0.00     0.001 C 
BRANCH  18  19
ATOM     19  C   UNL     1      98.044  80.877  80.328  1.00  0.00     0.000 C 
BRANCH  19  20
ATOM     20  C   UNL     1      98.752  79.965  79.287  1.00  0.00     0.000 C 
BRANCH  20  21
ATOM     21  C   UNL     1      97.892  78.764  78.803  1.00  0.00     0.003 C 
BRANCH  21  22
ATOM     22  C   UNL     1      97.961  78.495  77.264  1.00  0.00    -0.017 C 
ATOM     23  C   UNL     1      99.168  79.244  76.634  1.00  0.00     0.007 C 
ATOM     24  C   UNL     1      96.646  78.848  76.508  1.00  0.00     0.007 C 
ENDBRANCH  21  22
ENDBRANCH  20  21
ENDBRANCH  19  20
ENDBRANCH  18  19
ENDBRANCH   1  18
TORSDOF 11
ENDMDL
MODEL 9
REMARK VINA RESULT:    -4.733      9.499     13.482
REMARK INTER + INTRA:          -9.776
REMARK INTER:                  -9.031
REMARK INTRA:                  -0.745
REMARK UNBOUND:                -2.138
REMARK SMILES COc1cc(CNC(=O)CCCCCCC(C)C)ccc1O
REMARK SMILES IDX 11 1 10 2 8 3 7 4 9 6 6 7 5 8 3 9 21 10 4 11 20 12 19 13
REMARK SMILES IDX 2 14 1 15 22 16 12 18 13 19 14 20 15 21 16 22 17 23 18 24
REMARK H PARENT 7 5 22 17
REMARK Flexibility Score: inf
ROOT
ATOM      1  C   UNL     1      97.200  97.319  82.158  1.00  0.00     0.010 C 
ENDROOT
BRANCH   1   2
ATOM      2  C   UNL     1      96.034  96.303  82.005  1.00  0.00     0.100 C 
BRANCH   2   3
ATOM      3  C   UNL     1      96.080  95.547  80.734  1.00  0.00     0.220 C 
ATOM      4  N   UNL     1      95.369  94.392  80.593  1.00  0.00    -0.352 N 
ATOM      5  H   UNL     1      94.871  94.099  81.421  1.00  0.00     0.163 HD
ATOM      6  O   UNL     1      96.765  96.005  79.786  1.00  0.00    -0.275 OA
BRANCH   4   7
ATOM      7  C   UNL     1      95.291  93.610  79.396  1.00  0.00     0.151 C 
BRANCH   7   8
ATOM      8  C   UNL     1      94.067  93.886  78.593  1.00  0.00    -0.025 A 
ATOM      9  C   UNL     1      92.870  95.255  76.938  1.00  0.00     0.160 A 
ATOM     10  C   UNL     1      91.755  94.393  77.028  1.00  0.00     0.157 A 
ATOM     11  C   UNL     1      94.008  95.006  77.733  1.00  0.00     0.056 A 
ATOM     12  C   UNL     1      91.787  93.297  77.910  1.00  0.00     0.050 A 
ATOM     13  C   UNL     1      92.938  93.038  78.679  1.00  0.00     0.009 A 
BRANCH   9  14
ATOM     14  O   UNL     1      92.835  96.346  76.113  1.00  0.00    -0.493 OA
ATOM     15  C   UNL     1      93.499  96.142  74.852  1.00  0.00     0.278 C 
ENDBRANCH   9  14
BRANCH  10  16
ATOM     16  O   UNL     1      90.645  94.609  76.275  1.00  0.00    -0.504 OA
ATOM     17  H   UNL     1      90.452  95.549  76.254  1.00  0.00     0.293 HD
ENDBRANCH  10  16
ENDBRANCH   7   8
ENDBRANCH   4   7
ENDBRANCH   2   3
ENDBRANCH   1   2
BRANCH   1  18
ATOM     18  C   UNL     1      96.785  98.756  81.732  1.00  0.00     0.001 C 
BRANCH  18  19
ATOM     19  C   UNL     1      96.250  99.627  82.904  1.00  0.00     0.000 C 
BRANCH  19  20
ATOM     20  C   UNL     1      95.143 100.609  82.426  1.00  0.00     0.000 C 
BRANCH  20  21
ATOM     21  C   UNL     1      95.632 102.070  82.225  1.00  0.00     0.003 C 
BRANCH  21  22
ATOM     22  C   UNL     1      95.143 102.743  80.900  1.00  0.00    -0.017 C 
ATOM     23  C   UNL     1      93.606 102.974  80.943  1.00  0.00     0.007 C 
ATOM     24  C   UNL     1      95.541 101.957  79.616  1.00  0.00     0.007 C 
ENDBRANCH  21  22
ENDBRANCH  20  21
ENDBRANCH  19  20
ENDBRANCH  18  19
ENDBRANCH   1  18
TORSDOF 11
ENDMDL
MODEL 10
REMARK VINA RESULT:    -4.689     22.942     25.727
REMARK INTER + INTRA:          -9.705
REMARK INTER:                  -8.802
REMARK INTRA:                  -0.904
REMARK UNBOUND:                -2.138
REMARK SMILES COc1cc(CNC(=O)CCCCCCC(C)C)ccc1O
REMARK SMILES IDX 11 1 10 2 8 3 7 4 9 6 6 7 5 8 3 9 21 10 4 11 20 12 19 13
REMARK SMILES IDX 2 14 1 15 22 16 12 18 13 19 14 20 15 21 16 22 17 23 18 24
REMARK H PARENT 7 5 22 17
REMARK Flexibility Score: inf
ROOT
ATOM      1  C   UNL     1      95.358  80.240  84.276  1.00  0.00     0.010 C 
ENDROOT
BRANCH   1   2
ATOM      2  C   UNL     1      95.275  81.553  85.104  1.00  0.00     0.100 C 
BRANCH   2   3
ATOM      3  C   UNL     1      93.919  81.827  85.630  1.00  0.00     0.220 C 
ATOM      4  N   UNL     1      92.832  81.746  84.810  1.00  0.00    -0.352 N 
ATOM      5  H   UNL     1      93.046  81.535  83.846  1.00  0.00     0.163 HD
ATOM      6  O   UNL     1      93.791  82.111  86.846  1.00  0.00    -0.275 OA
BRANCH   4   7
ATOM      7  C   UNL     1      91.472  81.932  85.218  1.00  0.00     0.151 C 
BRANCH   7   8
ATOM      8  C   UNL     1      90.589  80.790  84.856  1.00  0.00    -0.025 A 
ATOM      9  C   UNL     1      90.295  78.398  84.362  1.00  0.00     0.160 A 
ATOM     10  C   UNL     1      88.905  78.599  84.208  1.00  0.00     0.157 A 
ATOM     11  C   UNL     1      91.127  79.496  84.666  1.00  0.00     0.056 A 
ATOM     12  C   UNL     1      88.364  79.889  84.356  1.00  0.00     0.050 A 
ATOM     13  C   UNL     1      89.196  80.975  84.688  1.00  0.00     0.009 A 
BRANCH   9  14
ATOM     14  O   UNL     1      90.837  77.155  84.182  1.00  0.00    -0.493 OA
ATOM     15  C   UNL     1      92.129  76.992  84.795  1.00  0.00     0.278 C 
ENDBRANCH   9  14
BRANCH  10  16
ATOM     16  O   UNL     1      88.080  77.560  83.914  1.00  0.00    -0.504 OA
ATOM     17  H   UNL     1      88.575  76.880  83.451  1.00  0.00     0.293 HD
ENDBRANCH  10  16
ENDBRANCH   7   8
ENDBRANCH   4   7
ENDBRANCH   2   3
ENDBRANCH   1   2
BRANCH   1  18
ATOM     18  C   UNL     1      95.976  80.473  82.868  1.00  0.00     0.001 C 
BRANCH  18  19
ATOM     19  C   UNL     1      96.078  81.972  82.468  1.00  0.00     0.000 C 
BRANCH  19  20
ATOM     20  C   UNL     1      96.795  82.151  81.100  1.00  0.00     0.000 C 
BRANCH  20  21
ATOM     21  C   UNL     1      97.727  80.971  80.710  1.00  0.00     0.003 C 
BRANCH  21  22
ATOM     22  C   UNL     1      98.022  80.855  79.179  1.00  0.00    -0.017 C 
ATOM     23  C   UNL     1      97.274  81.970  78.395  1.00  0.00     0.007 C 
ATOM     24  C   UNL     1      97.693  79.455  78.583  1.00  0.00     0.007 C 
ENDBRANCH  21  22
ENDBRANCH  20  21
ENDBRANCH  19  20
ENDBRANCH  18  19
ENDBRANCH   1  18
TORSDOF 11
ENDMDL
