MODEL 1
REMARK VINA RESULT:    -5.572      0.000      0.000
REMARK INTER + INTRA:          -9.932
REMARK INTER:                  -8.667
REMARK INTRA:                  -1.265
REMARK UNBOUND:                -1.265
REMARK SMILES CCCCC/C=C/C(=O)CCc1ccc(O)c(OC)c1
REMARK SMILES IDX 6 1 7 2 8 3 9 4 10 5 11 6 12 7 17 8 20 9 15 10 14 11 13 12
REMARK SMILES IDX 18 13 19 14 16 15 5 17 4 18 3 19 2 20 1 21
REMARK H PARENT 16 16
REMARK Flexibility Score: inf
ROOT
ATOM      1  C   UNL     1      62.095  83.794  69.740  1.00  0.00    -0.023 C 
ATOM      2  C   UNL     1      62.468  82.840  68.878  1.00  0.00     0.043 C 
ENDROOT
BRANCH   2   3
ATOM      3  C   UNL     1      63.825  82.237  68.980  1.00  0.00     0.155 C 
ATOM      4  O   UNL     1      64.202  81.353  68.213  1.00  0.00    -0.295 OA
BRANCH   3   5
ATOM      5  C   UNL     1      64.701  82.733  70.114  1.00  0.00     0.085 C 
BRANCH   5   6
ATOM      6  C   UNL     1      64.763  81.715  71.254  1.00  0.00     0.044 C 
BRANCH   6   7
ATOM      7  C   UNL     1      63.898  82.099  72.431  1.00  0.00    -0.044 A 
ATOM      8  C   UNL     1      63.367  83.627  74.204  1.00  0.00     0.160 A 
ATOM      9  C   UNL     1      64.166  83.273  73.117  1.00  0.00     0.054 A 
ATOM     10  C   UNL     1      62.311  82.802  74.591  1.00  0.00     0.157 A 
ATOM     11  C   UNL     1      62.054  81.623  73.891  1.00  0.00     0.050 A 
ATOM     12  C   UNL     1      62.853  81.269  72.804  1.00  0.00     0.008 A 
BRANCH   8  13
ATOM     13  O   UNL     1      63.628  84.781  74.879  1.00  0.00    -0.493 OA
ATOM     14  C   UNL     1      63.351  86.005  74.203  1.00  0.00     0.278 C 
ENDBRANCH   8  13
BRANCH  10  15
ATOM     15  O   UNL     1      61.523  83.137  75.651  1.00  0.00    -0.504 OA
ATOM     16  H   UNL     1      61.571  84.101  75.775  1.00  0.00     0.293 HD
ENDBRANCH  10  15
ENDBRANCH   6   7
ENDBRANCH   5   6
ENDBRANCH   3   5
ENDBRANCH   2   3
BRANCH   1  17
ATOM     17  C   UNL     1      60.746  84.451  69.703  1.00  0.00     0.027 C 
BRANCH  17  18
ATOM     18  C   UNL     1      60.126  84.632  71.093  1.00  0.00     0.004 C 
BRANCH  18  19
ATOM     19  C   UNL     1      58.727  85.255  71.065  1.00  0.00     0.000 C 
BRANCH  19  20
ATOM     20  C   UNL     1      58.764  86.714  71.524  1.00  0.00    -0.003 C 
ATOM     21  C   UNL     1      59.719  86.906  72.691  1.00  0.00     0.004 C 
ENDBRANCH  19  20
ENDBRANCH  18  19
ENDBRANCH  17  18
ENDBRANCH   1  17
TORSDOF 10
ENDMDL
MODEL 2
REMARK VINA RESULT:    -5.565     31.331     33.289
REMARK INTER + INTRA:          -9.921
REMARK INTER:                  -8.033
REMARK INTRA:                  -1.888
REMARK UNBOUND:                -1.265
REMARK SMILES CCCCC/C=C/C(=O)CCc1ccc(O)c(OC)c1
REMARK SMILES IDX 6 1 7 2 8 3 9 4 10 5 11 6 12 7 17 8 20 9 15 10 14 11 13 12
REMARK SMILES IDX 18 13 19 14 16 15 5 17 4 18 3 19 2 20 1 21
REMARK H PARENT 16 16
REMARK Flexibility Score: inf
ROOT
ATOM      1  C   UNL     1      90.713  99.096  70.938  1.00  0.00    -0.023 C 
ATOM      2  C   UNL     1      89.480  98.583  70.842  1.00  0.00     0.043 C 
ENDROOT
BRANCH   2   3
ATOM      3  C   UNL     1      89.190  97.534  69.827  1.00  0.00     0.155 C 
ATOM      4  O   UNL     1      89.618  96.387  69.939  1.00  0.00    -0.295 OA
BRANCH   3   5
ATOM      5  C   UNL     1      88.383  97.967  68.618  1.00  0.00     0.085 C 
BRANCH   5   6
ATOM      6  C   UNL     1      89.289  98.501  67.508  1.00  0.00     0.044 C 
BRANCH   6   7
ATOM      7  C   UNL     1      89.384 100.008  67.501  1.00  0.00    -0.044 A 
ATOM      8  C   UNL     1      90.598 102.008  66.965  1.00  0.00     0.160 A 
ATOM      9  C   UNL     1      90.511 100.616  66.971  1.00  0.00     0.054 A 
ATOM     10  C   UNL     1      89.558 102.774  67.489  1.00  0.00     0.157 A 
ATOM     11  C   UNL     1      88.429 102.148  68.020  1.00  0.00     0.050 A 
ATOM     12  C   UNL     1      88.342 100.756  68.026  1.00  0.00     0.008 A 
BRANCH   8  13
ATOM     13  O   UNL     1      91.705 102.607  66.445  1.00  0.00    -0.493 OA
ATOM     14  C   UNL     1      91.857 102.570  65.027  1.00  0.00     0.278 C 
ENDBRANCH   8  13
BRANCH  10  15
ATOM     15  O   UNL     1      89.631 104.134  67.489  1.00  0.00    -0.504 OA
ATOM     16  H   UNL     1      90.566 104.390  67.569  1.00  0.00     0.293 HD
ENDBRANCH  10  15
ENDBRANCH   6   7
ENDBRANCH   5   6
ENDBRANCH   3   5
ENDBRANCH   2   3
BRANCH   1  17
ATOM     17  C   UNL     1      91.085 100.156  71.934  1.00  0.00     0.027 C 
BRANCH  17  18
ATOM     18  C   UNL     1      90.427 101.510  71.646  1.00  0.00     0.004 C 
BRANCH  18  19
ATOM     19  C   UNL     1      91.244 102.401  70.706  1.00  0.00     0.000 C 
BRANCH  19  20
ATOM     20  C   UNL     1      92.740 102.104  70.824  1.00  0.00    -0.003 C 
ATOM     21  C   UNL     1      93.352 101.777  69.472  1.00  0.00     0.004 C 
ENDBRANCH  19  20
ENDBRANCH  18  19
ENDBRANCH  17  18
ENDBRANCH   1  17
TORSDOF 10
ENDMDL
MODEL 3
REMARK VINA RESULT:    -5.432     12.100     14.630
REMARK INTER + INTRA:          -9.714
REMARK INTER:                  -8.686
REMARK INTRA:                  -1.028
REMARK UNBOUND:                -1.265
REMARK SMILES CCCCC/C=C/C(=O)CCc1ccc(O)c(OC)c1
REMARK SMILES IDX 6 1 7 2 8 3 9 4 10 5 11 6 12 7 17 8 20 9 15 10 14 11 13 12
REMARK SMILES IDX 18 13 19 14 16 15 5 17 4 18 3 19 2 20 1 21
REMARK H PARENT 16 16
REMARK Flexibility Score: inf
ROOT
ATOM      1  C   UNL     1      75.442  81.087  64.175  1.00  0.00    -0.023 C 
ATOM      2  C   UNL     1      76.095  82.243  64.344  1.00  0.00     0.043 C 
ENDROOT
BRANCH   2   3
ATOM      3  C   UNL     1      77.132  82.361  65.405  1.00  0.00     0.155 C 
ATOM      4  O   UNL     1      77.498  81.390  66.065  1.00  0.00    -0.295 OA
BRANCH   3   5
ATOM      5  C   UNL     1      77.677  83.751  65.667  1.00  0.00     0.085 C 
BRANCH   5   6
ATOM      6  C   UNL     1      78.329  83.842  67.048  1.00  0.00     0.044 C 
BRANCH   6   7
ATOM      7  C   UNL     1      77.633  84.821  67.963  1.00  0.00    -0.044 A 
ATOM      8  C   UNL     1      75.680  85.487  69.188  1.00  0.00     0.160 A 
ATOM      9  C   UNL     1      76.322  84.582  68.342  1.00  0.00     0.054 A 
ATOM     10  C   UNL     1      76.356  86.619  69.642  1.00  0.00     0.157 A 
ATOM     11  C   UNL     1      77.676  86.846  69.250  1.00  0.00     0.050 A 
ATOM     12  C   UNL     1      78.318  85.941  68.405  1.00  0.00     0.008 A 
BRANCH   8  13
ATOM     13  O   UNL     1      74.391  85.254  69.563  1.00  0.00    -0.493 OA
ATOM     14  C   UNL     1      73.369  85.643  68.647  1.00  0.00     0.278 C 
ENDBRANCH   8  13
BRANCH  10  15
ATOM     15  O   UNL     1      75.740  87.509  70.468  1.00  0.00    -0.504 OA
ATOM     16  H   UNL     1      75.544  88.314  69.958  1.00  0.00     0.293 HD
ENDBRANCH  10  15
ENDBRANCH   6   7
ENDBRANCH   5   6
ENDBRANCH   3   5
ENDBRANCH   2   3
BRANCH   1  17
ATOM     17  C   UNL     1      74.384  80.888  63.130  1.00  0.00     0.027 C 
BRANCH  17  18
ATOM     18  C   UNL     1      72.985  81.297  63.603  1.00  0.00     0.004 C 
BRANCH  18  19
ATOM     19  C   UNL     1      72.532  80.573  64.875  1.00  0.00     0.000 C 
BRANCH  19  20
ATOM     20  C   UNL     1      71.898  81.548  65.869  1.00  0.00    -0.003 C 
ATOM     21  C   UNL     1      72.916  82.548  66.394  1.00  0.00     0.004 C 
ENDBRANCH  19  20
ENDBRANCH  18  19
ENDBRANCH  17  18
ENDBRANCH   1  17
TORSDOF 10
ENDMDL
MODEL 4
REMARK VINA RESULT:    -5.339     33.303     35.546
REMARK INTER + INTRA:          -9.570
REMARK INTER:                  -8.668
REMARK INTRA:                  -0.902
REMARK UNBOUND:                -1.265
REMARK SMILES CCCCC/C=C/C(=O)CCc1ccc(O)c(OC)c1
REMARK SMILES IDX 6 1 7 2 8 3 9 4 10 5 11 6 12 7 17 8 20 9 15 10 14 11 13 12
REMARK SMILES IDX 18 13 19 14 16 15 5 17 4 18 3 19 2 20 1 21
REMARK H PARENT 16 16
REMARK Flexibility Score: inf
ROOT
ATOM      1  C   UNL     1      93.334  94.384  79.435  1.00  0.00    -0.023 C 
ATOM      2  C   UNL     1      94.600  94.029  79.685  1.00  0.00     0.043 C 
ENDROOT
BRANCH   2   3
ATOM      3  C   UNL     1      95.046  93.814  81.089  1.00  0.00     0.155 C 
ATOM      4  O   UNL     1      94.616  92.887  81.772  1.00  0.00    -0.295 OA
BRANCH   3   5
ATOM      5  C   UNL     1      96.022  94.830  81.651  1.00  0.00     0.085 C 
BRANCH   5   6
ATOM      6  C   UNL     1      95.298  96.091  82.125  1.00  0.00     0.044 C 
BRANCH   6   7
ATOM      7  C   UNL     1      95.655  97.314  81.313  1.00  0.00    -0.044 A 
ATOM      8  C   UNL     1      96.253  98.305  79.211  1.00  0.00     0.160 A 
ATOM      9  C   UNL     1      95.924  97.176  79.960  1.00  0.00     0.054 A 
ATOM     10  C   UNL     1      96.310  99.557  79.823  1.00  0.00     0.157 A 
ATOM     11  C   UNL     1      96.037  99.680  81.186  1.00  0.00     0.050 A 
ATOM     12  C   UNL     1      95.707  98.550  81.936  1.00  0.00     0.008 A 
BRANCH   8  13
ATOM     13  O   UNL     1      96.518  98.173  77.881  1.00  0.00    -0.493 OA
ATOM     14  C   UNL     1      95.451  97.719  77.050  1.00  0.00     0.278 C 
ENDBRANCH   8  13
BRANCH  10  15
ATOM     15  O   UNL     1      96.629 100.667  79.102  1.00  0.00    -0.504 OA
ATOM     16  H   UNL     1      95.814 101.020  78.706  1.00  0.00     0.293 HD
ENDBRANCH  10  15
ENDBRANCH   6   7
ENDBRANCH   5   6
ENDBRANCH   3   5
ENDBRANCH   2   3
BRANCH   1  17
ATOM     17  C   UNL     1      92.807  94.620  78.049  1.00  0.00     0.027 C 
BRANCH  17  18
ATOM     18  C   UNL     1      91.872  93.507  77.564  1.00  0.00     0.004 C 
BRANCH  18  19
ATOM     19  C   UNL     1      90.586  93.383  78.388  1.00  0.00     0.000 C 
BRANCH  19  20
ATOM     20  C   UNL     1      89.363  93.794  77.567  1.00  0.00    -0.003 C 
ATOM     21  C   UNL     1      89.245  95.306  77.460  1.00  0.00     0.004 C 
ENDBRANCH  19  20
ENDBRANCH  18  19
ENDBRANCH  17  18
ENDBRANCH   1  17
TORSDOF 10
ENDMDL
MODEL 5
REMARK VINA RESULT:    -5.113      3.219      5.638
REMARK INTER + INTRA:          -9.218
REMARK INTER:                  -8.332
REMARK INTRA:                  -0.886
REMARK UNBOUND:                -1.265
REMARK SMILES CCCCC/C=C/C(=O)CCc1ccc(O)c(OC)c1
REMARK SMILES IDX 6 1 7 2 8 3 9 4 10 5 11 6 12 7 17 8 20 9 15 10 14 11 13 12
REMARK SMILES IDX 18 13 19 14 16 15 5 17 4 18 3 19 2 20 1 21
REMARK H PARENT 16 16
REMARK Flexibility Score: inf
ROOT
ATOM      1  C   UNL     1      64.368  81.806  72.196  1.00  0.00    -0.023 C 
ATOM      2  C   UNL     1      63.030  81.771  72.218  1.00  0.00     0.043 C 
ENDROOT
BRANCH   2   3
ATOM      3  C   UNL     1      62.297  82.177  73.448  1.00  0.00     0.155 C 
ATOM      4  O   UNL     1      61.105  82.475  73.424  1.00  0.00    -0.295 OA
BRANCH   3   5
ATOM      5  C   UNL     1      63.111  82.256  74.724  1.00  0.00     0.085 C 
BRANCH   5   6
ATOM      6  C   UNL     1      62.521  83.278  75.697  1.00  0.00     0.044 C 
BRANCH   6   7
ATOM      7  C   UNL     1      63.463  83.629  76.824  1.00  0.00    -0.044 A 
ATOM      8  C   UNL     1      63.814  84.305  79.099  1.00  0.00     0.160 A 
ATOM      9  C   UNL     1      62.943  83.982  78.059  1.00  0.00     0.054 A 
ATOM     10  C   UNL     1      65.193  84.273  78.891  1.00  0.00     0.157 A 
ATOM     11  C   UNL     1      65.701  83.917  77.641  1.00  0.00     0.050 A 
ATOM     12  C   UNL     1      64.830  83.593  76.601  1.00  0.00     0.008 A 
BRANCH   8  13
ATOM     13  O   UNL     1      63.306  84.652  80.315  1.00  0.00    -0.493 OA
ATOM     14  C   UNL     1      62.393  85.748  80.348  1.00  0.00     0.278 C 
ENDBRANCH   8  13
BRANCH  10  15
ATOM     15  O   UNL     1      66.054  84.587  79.899  1.00  0.00    -0.504 OA
ATOM     16  H   UNL     1      65.554  85.047  80.596  1.00  0.00     0.293 HD
ENDBRANCH  10  15
ENDBRANCH   6   7
ENDBRANCH   5   6
ENDBRANCH   3   5
ENDBRANCH   2   3
BRANCH   1  17
ATOM     17  C   UNL     1      65.180  81.413  70.996  1.00  0.00     0.027 C 
BRANCH  17  18
ATOM     18  C   UNL     1      65.733  82.615  70.224  1.00  0.00     0.004 C 
BRANCH  18  19
ATOM     19  C   UNL     1      65.041  82.851  68.878  1.00  0.00     0.000 C 
BRANCH  19  20
ATOM     20  C   UNL     1      64.083  81.707  68.542  1.00  0.00    -0.003 C 
ATOM     21  C   UNL     1      62.662  82.211  68.342  1.00  0.00     0.004 C 
ENDBRANCH  19  20
ENDBRANCH  18  19
ENDBRANCH  17  18
ENDBRANCH   1  17
TORSDOF 10
ENDMDL
MODEL 6
REMARK VINA RESULT:    -5.054     13.163     14.993
REMARK INTER + INTRA:          -9.127
REMARK INTER:                  -7.741
REMARK INTRA:                  -1.386
REMARK UNBOUND:                -1.265
REMARK SMILES CCCCC/C=C/C(=O)CCc1ccc(O)c(OC)c1
REMARK SMILES IDX 6 1 7 2 8 3 9 4 10 5 11 6 12 7 17 8 20 9 15 10 14 11 13 12
REMARK SMILES IDX 18 13 19 14 16 15 5 17 4 18 3 19 2 20 1 21
REMARK H PARENT 16 16
REMARK Flexibility Score: inf
ROOT
ATOM      1  C   UNL     1      75.592  84.314  66.933  1.00  0.00    -0.023 C 
ATOM      2  C   UNL     1      76.399  83.634  67.756  1.00  0.00     0.043 C 
ENDROOT
BRANCH   2   3
ATOM      3  C   UNL     1      77.820  84.047  67.910  1.00  0.00     0.155 C 
ATOM      4  O   UNL     1      78.715  83.568  67.217  1.00  0.00    -0.295 OA
BRANCH   3   5
ATOM      5  C   UNL     1      78.117  85.053  69.005  1.00  0.00     0.085 C 
BRANCH   5   6
ATOM      6  C   UNL     1      78.388  86.442  68.425  1.00  0.00     0.044 C 
BRANCH   6   7
ATOM      7  C   UNL     1      77.137  87.279  68.296  1.00  0.00    -0.044 A 
ATOM      8  C   UNL     1      75.151  88.204  69.275  1.00  0.00     0.160 A 
ATOM      9  C   UNL     1      76.305  87.430  69.394  1.00  0.00     0.054 A 
ATOM     10  C   UNL     1      74.843  88.816  68.060  1.00  0.00     0.157 A 
ATOM     11  C   UNL     1      75.690  88.654  66.963  1.00  0.00     0.050 A 
ATOM     12  C   UNL     1      76.845  87.880  67.083  1.00  0.00     0.008 A 
BRANCH   8  13
ATOM     13  O   UNL     1      74.331  88.354  70.353  1.00  0.00    -0.493 OA
ATOM     14  C   UNL     1      74.591  89.459  71.216  1.00  0.00     0.278 C 
ENDBRANCH   8  13
BRANCH  10  15
ATOM     15  O   UNL     1      73.719  89.574  67.931  1.00  0.00    -0.504 OA
ATOM     16  H   UNL     1      73.302  89.360  67.078  1.00  0.00     0.293 HD
ENDBRANCH  10  15
ENDBRANCH   6   7
ENDBRANCH   5   6
ENDBRANCH   3   5
ENDBRANCH   2   3
BRANCH   1  17
ATOM     17  C   UNL     1      74.148  83.961  66.722  1.00  0.00     0.027 C 
BRANCH  17  18
ATOM     18  C   UNL     1      73.891  83.252  65.388  1.00  0.00     0.004 C 
BRANCH  18  19
ATOM     19  C   UNL     1      73.669  81.743  65.527  1.00  0.00     0.000 C 
BRANCH  19  20
ATOM     20  C   UNL     1      74.998  80.986  65.510  1.00  0.00    -0.003 C 
ATOM     21  C   UNL     1      75.882  81.440  64.360  1.00  0.00     0.004 C 
ENDBRANCH  19  20
ENDBRANCH  18  19
ENDBRANCH  17  18
ENDBRANCH   1  17
TORSDOF 10
ENDMDL
MODEL 7
REMARK VINA RESULT:    -5.032      3.365      5.384
REMARK INTER + INTRA:          -9.092
REMARK INTER:                  -8.192
REMARK INTRA:                  -0.900
REMARK UNBOUND:                -1.265
REMARK SMILES CCCCC/C=C/C(=O)CCc1ccc(O)c(OC)c1
REMARK SMILES IDX 6 1 7 2 8 3 9 4 10 5 11 6 12 7 17 8 20 9 15 10 14 11 13 12
REMARK SMILES IDX 18 13 19 14 16 15 5 17 4 18 3 19 2 20 1 21
REMARK H PARENT 16 16
REMARK Flexibility Score: inf
ROOT
ATOM      1  C   UNL     1      64.057  81.471  72.130  1.00  0.00    -0.023 C 
ATOM      2  C   UNL     1      63.529  82.451  72.874  1.00  0.00     0.043 C 
ENDROOT
BRANCH   2   3
ATOM      3  C   UNL     1      62.406  82.154  73.803  1.00  0.00     0.155 C 
ATOM      4  O   UNL     1      61.431  81.493  73.452  1.00  0.00    -0.295 OA
BRANCH   3   5
ATOM      5  C   UNL     1      62.501  82.753  75.192  1.00  0.00     0.085 C 
BRANCH   5   6
ATOM      6  C   UNL     1      63.929  83.201  75.508  1.00  0.00     0.044 C 
BRANCH   6   7
ATOM      7  C   UNL     1      64.088  83.702  76.924  1.00  0.00    -0.044 A 
ATOM      8  C   UNL     1      65.506  84.400  78.730  1.00  0.00     0.160 A 
ATOM      9  C   UNL     1      65.360  83.936  77.422  1.00  0.00     0.054 A 
ATOM     10  C   UNL     1      64.380  84.623  79.521  1.00  0.00     0.157 A 
ATOM     11  C   UNL     1      63.106  84.382  79.005  1.00  0.00     0.050 A 
ATOM     12  C   UNL     1      62.960  83.918  77.698  1.00  0.00     0.008 A 
BRANCH   8  13
ATOM     13  O   UNL     1      66.756  84.631  79.222  1.00  0.00    -0.493 OA
ATOM     14  C   UNL     1      67.739  85.099  78.301  1.00  0.00     0.278 C 
ENDBRANCH   8  13
BRANCH  10  15
ATOM     15  O   UNL     1      64.510  85.076  80.799  1.00  0.00    -0.504 OA
ATOM     16  H   UNL     1      63.621  85.166  81.183  1.00  0.00     0.293 HD
ENDBRANCH  10  15
ENDBRANCH   6   7
ENDBRANCH   5   6
ENDBRANCH   3   5
ENDBRANCH   2   3
BRANCH   1  17
ATOM     17  C   UNL     1      65.190  81.689  71.169  1.00  0.00     0.027 C 
BRANCH  17  18
ATOM     18  C   UNL     1      64.753  82.370  69.868  1.00  0.00     0.004 C 
BRANCH  18  19
ATOM     19  C   UNL     1      63.588  81.665  69.167  1.00  0.00     0.000 C 
BRANCH  19  20
ATOM     20  C   UNL     1      62.544  82.672  68.682  1.00  0.00    -0.003 C 
ATOM     21  C   UNL     1      62.652  83.990  69.431  1.00  0.00     0.004 C 
ENDBRANCH  19  20
ENDBRANCH  18  19
ENDBRANCH  17  18
ENDBRANCH   1  17
TORSDOF 10
ENDMDL
MODEL 8
REMARK VINA RESULT:    -5.004     12.044     14.306
REMARK INTER + INTRA:          -9.049
REMARK INTER:                  -7.444
REMARK INTRA:                  -1.605
REMARK UNBOUND:                -1.265
REMARK SMILES CCCCC/C=C/C(=O)CCc1ccc(O)c(OC)c1
REMARK SMILES IDX 6 1 7 2 8 3 9 4 10 5 11 6 12 7 17 8 20 9 15 10 14 11 13 12
REMARK SMILES IDX 18 13 19 14 16 15 5 17 4 18 3 19 2 20 1 21
REMARK H PARENT 16 16
REMARK Flexibility Score: inf
ROOT
ATOM      1  C   UNL     1      75.627  84.147  66.857  1.00  0.00    -0.023 C 
ATOM      2  C   UNL     1      76.484  83.613  67.736  1.00  0.00     0.043 C 
ENDROOT
BRANCH   2   3
ATOM      3  C   UNL     1      77.902  84.063  67.757  1.00  0.00     0.155 C 
ATOM      4  O   UNL     1      78.766  83.519  67.073  1.00  0.00    -0.295 OA
BRANCH   3   5
ATOM      5  C   UNL     1      78.237  85.197  68.707  1.00  0.00     0.085 C 
BRANCH   5   6
ATOM      6  C   UNL     1      78.114  86.556  68.016  1.00  0.00     0.044 C 
BRANCH   6   7
ATOM      7  C   UNL     1      76.941  87.365  68.516  1.00  0.00    -0.044 A 
ATOM      8  C   UNL     1      75.106  88.848  68.076  1.00  0.00     0.160 A 
ATOM      9  C   UNL     1      76.190  88.101  67.613  1.00  0.00     0.054 A 
ATOM     10  C   UNL     1      74.787  88.849  69.433  1.00  0.00     0.157 A 
ATOM     11  C   UNL     1      75.554  88.103  70.330  1.00  0.00     0.050 A 
ATOM     12  C   UNL     1      76.637  87.356  69.867  1.00  0.00     0.008 A 
BRANCH   8  13
ATOM     13  O   UNL     1      74.366  89.573  67.190  1.00  0.00    -0.493 OA
ATOM     14  C   UNL     1      74.830  90.885  66.879  1.00  0.00     0.278 C 
ENDBRANCH   8  13
BRANCH  10  15
ATOM     15  O   UNL     1      73.731  89.574  69.897  1.00  0.00    -0.504 OA
ATOM     16  H   UNL     1      73.842  90.495  69.605  1.00  0.00     0.293 HD
ENDBRANCH  10  15
ENDBRANCH   6   7
ENDBRANCH   5   6
ENDBRANCH   3   5
ENDBRANCH   2   3
BRANCH   1  17
ATOM     17  C   UNL     1      74.183  83.746  66.772  1.00  0.00     0.027 C 
BRANCH  17  18
ATOM     18  C   UNL     1      73.227  84.828  67.287  1.00  0.00     0.004 C 
BRANCH  18  19
ATOM     19  C   UNL     1      73.622  85.396  68.654  1.00  0.00     0.000 C 
BRANCH  19  20
ATOM     20  C   UNL     1      72.433  85.400  69.615  1.00  0.00    -0.003 C 
ATOM     21  C   UNL     1      71.120  85.188  68.878  1.00  0.00     0.004 C 
ENDBRANCH  19  20
ENDBRANCH  18  19
ENDBRANCH  17  18
ENDBRANCH   1  17
TORSDOF 10
ENDMDL
MODEL 9
REMARK VINA RESULT:    -4.988     34.599     36.920
REMARK INTER + INTRA:          -9.023
REMARK INTER:                  -8.448
REMARK INTRA:                  -0.575
REMARK UNBOUND:                -1.265
REMARK SMILES CCCCC/C=C/C(=O)CCc1ccc(O)c(OC)c1
REMARK SMILES IDX 6 1 7 2 8 3 9 4 10 5 11 6 12 7 17 8 20 9 15 10 14 11 13 12
REMARK SMILES IDX 18 13 19 14 16 15 5 17 4 18 3 19 2 20 1 21
REMARK H PARENT 16 16
REMARK Flexibility Score: inf
ROOT
ATOM      1  C   UNL     1      96.643  82.354  85.908  1.00  0.00    -0.023 C 
ATOM      2  C   UNL     1      97.414  81.646  85.074  1.00  0.00     0.043 C 
ENDROOT
BRANCH   2   3
ATOM      3  C   UNL     1      98.497  82.322  84.310  1.00  0.00     0.155 C 
ATOM      4  O   UNL     1      99.638  82.426  84.756  1.00  0.00    -0.295 OA
BRANCH   3   5
ATOM      5  C   UNL     1      98.108  82.924  82.974  1.00  0.00     0.085 C 
BRANCH   5   6
ATOM      6  C   UNL     1      99.090  82.517  81.874  1.00  0.00     0.044 C 
BRANCH   6   7
ATOM      7  C   UNL     1      98.658  82.976  80.502  1.00  0.00    -0.044 A 
ATOM      8  C   UNL     1      99.170  83.371  78.191  1.00  0.00     0.160 A 
ATOM      9  C   UNL     1      99.570  82.947  79.458  1.00  0.00     0.054 A 
ATOM     10  C   UNL     1      97.866  83.820  77.984  1.00  0.00     0.157 A 
ATOM     11  C   UNL     1      96.960  83.844  79.045  1.00  0.00     0.050 A 
ATOM     12  C   UNL     1      97.360  83.420  80.312  1.00  0.00     0.008 A 
BRANCH   8  13
ATOM     13  O   UNL     1     100.064  83.343  77.163  1.00  0.00    -0.493 OA
ATOM     14  C   UNL     1     100.372  82.067  76.606  1.00  0.00     0.278 C 
ENDBRANCH   8  13
BRANCH  10  15
ATOM     15  O   UNL     1      97.464  84.237  76.751  1.00  0.00    -0.504 OA
ATOM     16  H   UNL     1      97.821  83.619  76.089  1.00  0.00     0.293 HD
ENDBRANCH  10  15
ENDBRANCH   6   7
ENDBRANCH   5   6
ENDBRANCH   3   5
ENDBRANCH   2   3
BRANCH   1  17
ATOM     17  C   UNL     1      95.531  81.748  86.714  1.00  0.00     0.027 C 
BRANCH  17  18
ATOM     18  C   UNL     1      94.219  82.533  86.615  1.00  0.00     0.004 C 
BRANCH  18  19
ATOM     19  C   UNL     1      92.977  81.643  86.509  1.00  0.00     0.000 C 
BRANCH  19  20
ATOM     20  C   UNL     1      93.312  80.187  86.836  1.00  0.00    -0.003 C 
ATOM     21  C   UNL     1      92.064  79.319  86.857  1.00  0.00     0.004 C 
ENDBRANCH  19  20
ENDBRANCH  18  19
ENDBRANCH  17  18
ENDBRANCH   1  17
TORSDOF 10
ENDMDL
MODEL 10
REMARK VINA RESULT:    -4.880     11.645     14.802
REMARK INTER + INTRA:          -8.855
REMARK INTER:                  -7.067
REMARK INTRA:                  -1.788
REMARK UNBOUND:                -1.265
REMARK SMILES CCCCC/C=C/C(=O)CCc1ccc(O)c(OC)c1
REMARK SMILES IDX 6 1 7 2 8 3 9 4 10 5 11 6 12 7 17 8 20 9 15 10 14 11 13 12
REMARK SMILES IDX 18 13 19 14 16 15 5 17 4 18 3 19 2 20 1 21
REMARK H PARENT 16 16
REMARK Flexibility Score: inf
ROOT
ATOM      1  C   UNL     1      74.211  85.978  69.103  1.00  0.00    -0.023 C 
ATOM      2  C   UNL     1      73.009  85.404  69.236  1.00  0.00     0.043 C 
ENDROOT
BRANCH   2   3
ATOM      3  C   UNL     1      72.106  85.290  68.059  1.00  0.00     0.155 C 
ATOM      4  O   UNL     1      71.440  86.243  67.658  1.00  0.00    -0.295 OA
BRANCH   3   5
ATOM      5  C   UNL     1      72.009  83.923  67.410  1.00  0.00     0.085 C 
BRANCH   5   6
ATOM      6  C   UNL     1      72.664  83.916  66.028  1.00  0.00     0.044 C 
BRANCH   6   7
ATOM      7  C   UNL     1      74.173  83.870  66.094  1.00  0.00    -0.044 A 
ATOM      8  C   UNL     1      76.307  84.698  65.374  1.00  0.00     0.160 A 
ATOM      9  C   UNL     1      74.914  84.742  65.313  1.00  0.00     0.054 A 
ATOM     10  C   UNL     1      76.940  83.784  66.215  1.00  0.00     0.157 A 
ATOM     11  C   UNL     1      76.180  82.912  66.996  1.00  0.00     0.050 A 
ATOM     12  C   UNL     1      74.787  82.955  66.934  1.00  0.00     0.008 A 
BRANCH   8  13
ATOM     13  O   UNL     1      77.038  85.555  64.607  1.00  0.00    -0.493 OA
ATOM     14  C   UNL     1      77.104  85.278  63.209  1.00  0.00     0.278 C 
ENDBRANCH   8  13
BRANCH  10  15
ATOM     15  O   UNL     1      78.300  83.733  66.284  1.00  0.00    -0.504 OA
ATOM     16  H   UNL     1      78.662  84.177  65.499  1.00  0.00     0.293 HD
ENDBRANCH  10  15
ENDBRANCH   6   7
ENDBRANCH   5   6
ENDBRANCH   3   5
ENDBRANCH   2   3
BRANCH   1  17
ATOM     17  C   UNL     1      75.178  86.131  70.241  1.00  0.00     0.027 C 
BRANCH  17  18
ATOM     18  C   UNL     1      76.198  84.990  70.320  1.00  0.00     0.004 C 
BRANCH  18  19
ATOM     19  C   UNL     1      77.622  85.413  69.947  1.00  0.00     0.000 C 
BRANCH  19  20
ATOM     20  C   UNL     1      77.652  86.849  69.422  1.00  0.00    -0.003 C 
ATOM     21  C   UNL     1      78.003  86.895  67.944  1.00  0.00     0.004 C 
ENDBRANCH  19  20
ENDBRANCH  18  19
ENDBRANCH  17  18
ENDBRANCH   1  17
TORSDOF 10
ENDMDL
