MODEL 1
REMARK VINA RESULT:    -7.218      0.000      0.000
REMARK INTER + INTRA:         -13.094
REMARK INTER:                 -12.281
REMARK INTRA:                  -0.813
REMARK UNBOUND:                -0.813
REMARK SMILES C=C(C)[C@]12C[C@@H](C)[C@@]34O[C@](Cc5ccccc5)(O[C@@H]1[C@@H]3C=C(COC(=O)Cc1ccc(O)cc1)C[C@]1(O)C(=O)C(C)=C[C@@H]41)O2
REMARK SMILES IDX 23 1 22 2 21 3 20 4 9 5 8 6 10 7 6 8 18 10 44 11 19 12 5 13
REMARK SMILES IDX 7 14 4 15 11 16 12 17 13 18 17 19 14 20 16 21 15 22 2 23
REMARK SMILES IDX 3 24 1 25 35 26 36 27 43 28 38 29 42 30 39 32 40 33 41 34
REMARK SMILES IDX 37 35 24 37 25 38 26 39 27 40 28 41 29 42 34 43 30 44 33 45
REMARK SMILES IDX 31 46 32 47
REMARK H PARENT 37 36 32 48
REMARK Flexibility Score: 90.00
ROOT
ATOM      1  C   UNL     1      95.465  98.039  73.030  1.00  0.00     0.264 C 
ENDROOT
BRANCH   1   2
ATOM      2  C   UNL     1      94.964  99.424  72.691  1.00  0.00    -0.033 C 
ATOM      3  C   UNL     1      94.330  99.626  71.517  1.00  0.00    -0.015 C 
BRANCH   3   4
ATOM      4  C   UNL     1      93.806 100.919  70.913  1.00  0.00     0.078 C 
ATOM      5  O   UNL     1      91.450 101.146  71.630  1.00  0.00    -0.319 OA
ATOM      6  C   UNL     1      92.770 101.765  71.741  1.00  0.00     0.095 CG0
ATOM      7  C   UNL     1      91.095 100.688  70.311  1.00  0.00     0.289 C 
ATOM      8  C   UNL     1      92.722 103.217  71.108  1.00  0.00     0.023 C 
ATOM      9  G   UNL     1      93.098 101.709  73.261  1.00  0.00     0.000 G0
ATOM     10  O   UNL     1      92.046  99.750  69.815  1.00  0.00    -0.320 OA
ATOM     11  O   UNL     1      91.065 101.748  69.358  1.00  0.00    -0.313 OA
ATOM     12  C   UNL     1      93.147 100.631  69.542  1.00  0.00     0.170 C 
ATOM     13  C   UNL     1      92.955 103.177  69.567  1.00  0.00     0.049 C 
ATOM     14  C   UNL     1      91.450 104.028  71.410  1.00  0.00     0.011 C 
ATOM     15  C   UNL     1      92.442 101.875  68.950  1.00  0.00     0.122 C 
BRANCH   7  16
ATOM     16  C   UNL     1      89.726 100.039  70.387  1.00  0.00     0.135 C 
BRANCH  16  17
ATOM     17  C   UNL     1      89.141  99.789  69.020  1.00  0.00    -0.040 A 
ATOM     18  C   UNL     1      88.428 100.796  68.371  1.00  0.00     0.004 A 
ATOM     19  C   UNL     1      89.315  98.549  68.405  1.00  0.00     0.004 A 
ATOM     20  C   UNL     1      87.888 100.564  67.106  1.00  0.00     0.000 A 
ATOM     21  C   UNL     1      88.774  98.317  67.140  1.00  0.00     0.000 A 
ATOM     22  C   UNL     1      88.061  99.325  66.491  1.00  0.00     0.000 A 
ENDBRANCH  16  17
ENDBRANCH   7  16
BRANCH  15  23
ATOM     23  C   UNL     1      92.490 101.890  67.456  1.00  0.00    -0.046 C 
ATOM     24  C   UNL     1      93.645 102.621  66.838  1.00  0.00     0.042 C 
ATOM     25  C   UNL     1      91.554 101.285  66.711  1.00  0.00     0.010 C 
ENDBRANCH  15  23
ENDBRANCH   3   4
BRANCH   2  26
ATOM     26  C   UNL     1      95.252 100.444  73.776  1.00  0.00     0.078 C 
BRANCH  26  27
ATOM     27  C   UNL     1      94.580 101.809  73.646  1.00  0.00     0.140 C 
ATOM     28  C   UNL     1      93.093 101.693  73.251  1.00  0.00     0.086 CG0
ATOM     29  C   UNL     1      94.508 102.548  74.966  1.00  0.00     0.190 C 
ATOM     30  C   UNL     1      92.406 102.645  74.190  1.00  0.00    -0.010 C 
ATOM     31  G   UNL     1      92.781 101.764  71.728  1.00  0.00     0.000 G0
ATOM     32  O   UNL     1      95.440 102.705  75.741  1.00  0.00    -0.291 OA
ATOM     33  C   UNL     1      93.166 103.121  75.181  1.00  0.00    -0.008 C 
ATOM     34  C   UNL     1      92.811 103.998  76.315  1.00  0.00     0.048 C 
BRANCH  27  35
ATOM     35  O   UNL     1      95.327 102.678  72.812  1.00  0.00    -0.381 OA
ATOM     36  H   UNL     1      95.796 103.317  73.376  1.00  0.00     0.212 HD
ENDBRANCH  27  35
ENDBRANCH  26  27
ENDBRANCH   2  26
ENDBRANCH   1   2
BRANCH   1  37
ATOM     37  O   UNL     1      96.118  98.073  74.281  1.00  0.00    -0.461 OA
BRANCH  37  38
ATOM     38  C   UNL     1      96.139  96.892  74.988  1.00  0.00     0.310 C 
ATOM     39  O   UNL     1      96.779  96.698  76.012  1.00  0.00    -0.252 OA
BRANCH  38  40
ATOM     40  C   UNL     1      95.253  95.880  74.304  1.00  0.00     0.158 C 
BRANCH  40  41
ATOM     41  C   UNL     1      94.119  95.406  75.176  1.00  0.00    -0.037 A 
ATOM     42  C   UNL     1      93.141  96.307  75.599  1.00  0.00     0.008 A 
ATOM     43  C   UNL     1      94.047  94.068  75.561  1.00  0.00     0.008 A 
ATOM     44  C   UNL     1      92.092  95.868  76.408  1.00  0.00     0.046 A 
ATOM     45  C   UNL     1      92.998  93.629  76.370  1.00  0.00     0.046 A 
ATOM     46  C   UNL     1      92.021  94.529  76.793  1.00  0.00     0.115 A 
BRANCH  46  47
ATOM     47  O   UNL     1      90.998  94.102  77.582  1.00  0.00    -0.508 OA
ATOM     48  H   UNL     1      90.428  93.506  77.065  1.00  0.00     0.293 HD
ENDBRANCH  46  47
ENDBRANCH  40  41
ENDBRANCH  38  40
ENDBRANCH  37  38
ENDBRANCH   1  37
TORSDOF 10
ENDMDL
MODEL 2
REMARK VINA RESULT:    -7.048     18.300     23.737
REMARK INTER + INTRA:         -12.805
REMARK INTER:                 -12.385
REMARK INTRA:                  -0.420
REMARK UNBOUND:                -0.813
REMARK SMILES C=C(C)[C@]12C[C@@H](C)[C@@]34O[C@](Cc5ccccc5)(O[C@@H]1[C@@H]3C=C(COC(=O)Cc1ccc(O)cc1)C[C@]1(O)C(=O)C(C)=C[C@@H]41)O2
REMARK SMILES IDX 23 1 22 2 21 3 20 4 9 5 8 6 10 7 6 8 18 10 44 11 19 12 5 13
REMARK SMILES IDX 7 14 4 15 11 16 12 17 13 18 17 19 14 20 16 21 15 22 2 23
REMARK SMILES IDX 3 24 1 25 35 26 36 27 43 28 38 29 42 30 39 32 40 33 41 34
REMARK SMILES IDX 37 35 24 37 25 38 26 39 27 40 28 41 29 42 34 43 30 44 33 45
REMARK SMILES IDX 31 46 32 47
REMARK H PARENT 37 36 32 48
REMARK Flexibility Score: 90.00
ROOT
ATOM      1  C   UNL     1      97.012  80.484  80.806  1.00  0.00     0.264 C 
ENDROOT
BRANCH   1   2
ATOM      2  C   UNL     1      97.045  80.510  82.317  1.00  0.00    -0.033 C 
ATOM      3  C   UNL     1      96.001  81.035  82.991  1.00  0.00    -0.015 C 
BRANCH   3   4
ATOM      4  C   UNL     1      95.825  81.245  84.486  1.00  0.00     0.078 C 
ATOM      5  O   UNL     1      94.693  79.232  85.369  1.00  0.00    -0.319 OA
ATOM      6  C   UNL     1      95.936  79.997  85.436  1.00  0.00     0.095 CG0
ATOM      7  C   UNL     1      93.486  80.018  85.376  1.00  0.00     0.289 C 
ATOM      8  C   UNL     1      96.141  80.534  86.912  1.00  0.00     0.023 C 
ATOM      9  G   UNL     1      97.027  79.010  84.927  1.00  0.00     0.000 G0
ATOM     10  O   UNL     1      93.469  80.950  84.299  1.00  0.00    -0.320 OA
ATOM     11  O   UNL     1      93.353  80.797  86.563  1.00  0.00    -0.313 OA
ATOM     12  C   UNL     1      94.446  81.893  84.767  1.00  0.00     0.170 C 
ATOM     13  C   UNL     1      95.391  81.882  87.140  1.00  0.00     0.049 C 
ATOM     14  C   UNL     1      95.769  79.548  88.033  1.00  0.00     0.011 C 
ATOM     15  C   UNL     1      94.130  81.980  86.280  1.00  0.00     0.122 C 
BRANCH   7  16
ATOM     16  C   UNL     1      92.304  79.075  85.258  1.00  0.00     0.135 C 
BRANCH  16  17
ATOM     17  C   UNL     1      90.994  79.773  85.525  1.00  0.00    -0.040 A 
ATOM     18  C   UNL     1      90.427  80.590  84.549  1.00  0.00     0.004 A 
ATOM     19  C   UNL     1      90.350  79.599  86.750  1.00  0.00     0.004 A 
ATOM     20  C   UNL     1      89.214  81.235  84.796  1.00  0.00     0.000 A 
ATOM     21  C   UNL     1      89.138  80.244  86.998  1.00  0.00     0.000 A 
ATOM     22  C   UNL     1      88.571  81.061  86.021  1.00  0.00     0.000 A 
ENDBRANCH  16  17
ENDBRANCH   7  16
BRANCH  15  23
ATOM     23  C   UNL     1      93.301  83.177  86.612  1.00  0.00    -0.046 C 
ATOM     24  C   UNL     1      93.944  84.513  86.382  1.00  0.00     0.042 C 
ATOM     25  C   UNL     1      92.052  83.065  87.090  1.00  0.00     0.010 C 
ENDBRANCH  15  23
ENDBRANCH   3   4
BRANCH   2  26
ATOM     26  C   UNL     1      98.311  79.904  82.895  1.00  0.00     0.078 C 
BRANCH  26  27
ATOM     27  C   UNL     1      98.349  79.677  84.405  1.00  0.00     0.140 C 
ATOM     28  C   UNL     1      97.055  79.020  84.929  1.00  0.00     0.086 CG0
ATOM     29  C   UNL     1      99.410  78.677  84.814  1.00  0.00     0.190 C 
ATOM     30  C   UNL     1      97.558  77.934  85.839  1.00  0.00    -0.010 C 
ATOM     31  G   UNL     1      95.950  79.992  85.437  1.00  0.00     0.000 G0
ATOM     32  O   UNL     1     100.575  78.691  84.447  1.00  0.00    -0.291 OA
ATOM     33  C   UNL     1      98.871  77.698  85.777  1.00  0.00    -0.008 C 
ATOM     34  C   UNL     1      99.686  76.669  86.455  1.00  0.00     0.048 C 
BRANCH  27  35
ATOM     35  O   UNL     1      98.713  80.859  85.098  1.00  0.00    -0.381 OA
ATOM     36  H   UNL     1      97.901  81.297  85.404  1.00  0.00     0.212 HD
ENDBRANCH  27  35
ENDBRANCH  26  27
ENDBRANCH   2  26
ENDBRANCH   1   2
BRANCH   1  37
ATOM     37  O   UNL     1      98.061  81.284  80.303  1.00  0.00    -0.461 OA
BRANCH  37  38
ATOM     38  C   UNL     1      98.812  80.732  79.291  1.00  0.00     0.310 C 
ATOM     39  O   UNL     1     100.035  80.714  79.254  1.00  0.00    -0.252 OA
BRANCH  38  40
ATOM     40  C   UNL     1      97.895  80.157  78.238  1.00  0.00     0.158 C 
BRANCH  40  41
ATOM     41  C   UNL     1      97.342  81.203  77.306  1.00  0.00    -0.037 A 
ATOM     42  C   UNL     1      96.406  82.127  77.771  1.00  0.00     0.008 A 
ATOM     43  C   UNL     1      97.764  81.249  75.977  1.00  0.00     0.008 A 
ATOM     44  C   UNL     1      95.892  83.095  76.908  1.00  0.00     0.046 A 
ATOM     45  C   UNL     1      97.251  82.217  75.114  1.00  0.00     0.046 A 
ATOM     46  C   UNL     1      96.315  83.140  75.579  1.00  0.00     0.115 A 
BRANCH  46  47
ATOM     47  O   UNL     1      95.814  84.084  74.737  1.00  0.00    -0.508 OA
ATOM     48  H   UNL     1      95.826  83.736  73.828  1.00  0.00     0.293 HD
ENDBRANCH  46  47
ENDBRANCH  40  41
ENDBRANCH  38  40
ENDBRANCH  37  38
ENDBRANCH   1  37
TORSDOF 10
ENDMDL
MODEL 3
REMARK VINA RESULT:    -6.854     20.187     23.937
REMARK INTER + INTRA:         -12.475
REMARK INTER:                 -12.157
REMARK INTRA:                  -0.319
REMARK UNBOUND:                -0.813
REMARK SMILES C=C(C)[C@]12C[C@@H](C)[C@@]34O[C@](Cc5ccccc5)(O[C@@H]1[C@@H]3C=C(COC(=O)Cc1ccc(O)cc1)C[C@]1(O)C(=O)C(C)=C[C@@H]41)O2
REMARK SMILES IDX 23 1 22 2 21 3 20 4 9 5 8 6 10 7 6 8 18 10 44 11 19 12 5 13
REMARK SMILES IDX 7 14 4 15 11 16 12 17 13 18 17 19 14 20 16 21 15 22 2 23
REMARK SMILES IDX 3 24 1 25 35 26 36 27 43 28 38 29 42 30 39 32 40 33 41 34
REMARK SMILES IDX 37 35 24 37 25 38 26 39 27 40 28 41 29 42 34 43 30 44 33 45
REMARK SMILES IDX 31 46 32 47
REMARK H PARENT 37 36 32 48
REMARK Flexibility Score: 90.00
ROOT
ATOM      1  C   UNL     1      96.130  82.066  83.983  1.00  0.00     0.264 C 
ENDROOT
BRANCH   1   2
ATOM      2  C   UNL     1      94.915  82.292  84.853  1.00  0.00    -0.033 C 
ATOM      3  C   UNL     1      93.811  81.542  84.652  1.00  0.00    -0.015 C 
BRANCH   3   4
ATOM      4  C   UNL     1      92.453  81.622  85.330  1.00  0.00     0.078 C 
ATOM      5  O   UNL     1      92.507  80.051  87.239  1.00  0.00    -0.319 OA
ATOM      6  C   UNL     1      92.387  81.466  86.894  1.00  0.00     0.095 CG0
ATOM      7  C   UNL     1      91.752  79.149  86.408  1.00  0.00     0.289 C 
ATOM      8  C   UNL     1      90.974  82.004  87.370  1.00  0.00     0.023 C 
ATOM      9  G   UNL     1      93.619  82.136  87.569  1.00  0.00     0.000 G0
ATOM     10  O   UNL     1      92.114  79.283  85.036  1.00  0.00    -0.320 OA
ATOM     11  O   UNL     1      90.350  79.405  86.463  1.00  0.00    -0.313 OA
ATOM     12  C   UNL     1      91.506  80.550  84.738  1.00  0.00     0.170 C 
ATOM     13  C   UNL     1      89.869  81.730  86.304  1.00  0.00     0.049 C 
ATOM     14  C   UNL     1      90.499  81.490  88.740  1.00  0.00     0.011 C 
ATOM     15  C   UNL     1      90.160  80.462  85.500  1.00  0.00     0.122 C 
BRANCH   7  16
ATOM     16  C   UNL     1      92.024  77.733  86.874  1.00  0.00     0.135 C 
BRANCH  16  17
ATOM     17  C   UNL     1      91.593  76.708  85.855  1.00  0.00    -0.040 A 
ATOM     18  C   UNL     1      92.468  76.321  84.841  1.00  0.00     0.004 A 
ATOM     19  C   UNL     1      90.318  76.147  85.929  1.00  0.00     0.004 A 
ATOM     20  C   UNL     1      92.069  75.372  83.899  1.00  0.00     0.000 A 
ATOM     21  C   UNL     1      89.919  75.198  84.987  1.00  0.00     0.000 A 
ATOM     22  C   UNL     1      90.794  74.811  83.972  1.00  0.00     0.000 A 
ENDBRANCH  16  17
ENDBRANCH   7  16
BRANCH  15  23
ATOM     23  C   UNL     1      89.030  80.081  84.600  1.00  0.00    -0.046 C 
ATOM     24  C   UNL     1      87.672  80.582  84.995  1.00  0.00     0.042 C 
ATOM     25  C   UNL     1      89.218  79.334  83.502  1.00  0.00     0.010 C 
ENDBRANCH  15  23
ENDBRANCH   3   4
BRANCH   2  26
ATOM     26  C   UNL     1      95.118  83.382  85.889  1.00  0.00     0.078 C 
BRANCH  26  27
ATOM     27  C   UNL     1      94.045  83.530  86.966  1.00  0.00     0.140 C 
ATOM     28  C   UNL     1      93.628  82.171  87.566  1.00  0.00     0.086 CG0
ATOM     29  C   UNL     1      94.543  84.282  88.182  1.00  0.00     0.190 C 
ATOM     30  C   UNL     1      93.621  82.429  89.047  1.00  0.00    -0.010 C 
ATOM     31  G   UNL     1      92.400  81.478  86.905  1.00  0.00     0.000 G0
ATOM     32  O   UNL     1      95.145  85.345  88.159  1.00  0.00    -0.291 OA
ATOM     33  C   UNL     1      94.154  83.594  89.427  1.00  0.00    -0.008 C 
ATOM     34  C   UNL     1      94.386  84.136  90.782  1.00  0.00     0.048 C 
BRANCH  27  35
ATOM     35  O   UNL     1      92.955  84.312  86.507  1.00  0.00    -0.381 OA
ATOM     36  H   UNL     1      92.132  83.919  86.844  1.00  0.00     0.212 HD
ENDBRANCH  27  35
ENDBRANCH  26  27
ENDBRANCH   2  26
ENDBRANCH   1   2
BRANCH   1  37
ATOM     37  O   UNL     1      96.167  80.715  83.576  1.00  0.00    -0.461 OA
BRANCH  37  38
ATOM     38  C   UNL     1      96.487  80.486  82.258  1.00  0.00     0.310 C 
ATOM     39  O   UNL     1      96.410  79.404  81.694  1.00  0.00    -0.252 OA
BRANCH  38  40
ATOM     40  C   UNL     1      96.947  81.776  81.620  1.00  0.00     0.158 C 
BRANCH  40  41
ATOM     41  C   UNL     1      97.383  81.601  80.189  1.00  0.00    -0.037 A 
ATOM     42  C   UNL     1      96.607  82.123  79.154  1.00  0.00     0.008 A 
ATOM     43  C   UNL     1      98.562  80.916  79.898  1.00  0.00     0.008 A 
ATOM     44  C   UNL     1      97.011  81.960  77.828  1.00  0.00     0.046 A 
ATOM     45  C   UNL     1      98.967  80.753  78.572  1.00  0.00     0.046 A 
ATOM     46  C   UNL     1      98.191  81.275  77.538  1.00  0.00     0.115 A 
BRANCH  46  47
ATOM     47  O   UNL     1      98.584  81.116  76.245  1.00  0.00    -0.508 OA
ATOM     48  H   UNL     1      98.506  80.176  76.004  1.00  0.00     0.293 HD
ENDBRANCH  46  47
ENDBRANCH  40  41
ENDBRANCH  38  40
ENDBRANCH  37  38
ENDBRANCH   1  37
TORSDOF 10
ENDMDL
MODEL 4
REMARK VINA RESULT:    -6.804     31.722     35.732
REMARK INTER + INTRA:         -12.390
REMARK INTER:                 -12.063
REMARK INTRA:                  -0.327
REMARK UNBOUND:                -0.813
REMARK SMILES C=C(C)[C@]12C[C@@H](C)[C@@]34O[C@](Cc5ccccc5)(O[C@@H]1[C@@H]3C=C(COC(=O)Cc1ccc(O)cc1)C[C@]1(O)C(=O)C(C)=C[C@@H]41)O2
REMARK SMILES IDX 23 1 22 2 21 3 20 4 9 5 8 6 10 7 6 8 18 10 44 11 19 12 5 13
REMARK SMILES IDX 7 14 4 15 11 16 12 17 13 18 17 19 14 20 16 21 15 22 2 23
REMARK SMILES IDX 3 24 1 25 35 26 36 27 43 28 38 29 42 30 39 32 40 33 41 34
REMARK SMILES IDX 37 35 24 37 25 38 26 39 27 40 28 41 29 42 34 43 30 44 33 45
REMARK SMILES IDX 31 46 32 47
REMARK H PARENT 37 36 32 48
REMARK Flexibility Score: 90.00
ROOT
ATOM      1  C   UNL     1      57.369  86.982  72.987  1.00  0.00     0.264 C 
ENDROOT
BRANCH   1   2
ATOM      2  C   UNL     1      58.532  86.446  73.789  1.00  0.00    -0.033 C 
ATOM      3  C   UNL     1      59.413  85.614  73.197  1.00  0.00    -0.015 C 
BRANCH   3   4
ATOM      4  C   UNL     1      60.608  84.888  73.795  1.00  0.00     0.078 C 
ATOM      5  O   UNL     1      62.588  86.318  73.409  1.00  0.00    -0.319 OA
ATOM      6  C   UNL     1      61.748  85.744  74.459  1.00  0.00     0.095 CG0
ATOM      7  C   UNL     1      62.914  85.427  72.326  1.00  0.00     0.289 C 
ATOM      8  C   UNL     1      62.621  84.769  75.353  1.00  0.00     0.023 C 
ATOM      9  G   UNL     1      61.154  86.978  75.199  1.00  0.00     0.000 G0
ATOM     10  O   UNL     1      61.739  84.921  71.700  1.00  0.00    -0.320 OA
ATOM     11  O   UNL     1      63.640  84.281  72.767  1.00  0.00    -0.313 OA
ATOM     12  C   UNL     1      61.286  84.011  72.714  1.00  0.00     0.170 C 
ATOM     13  C   UNL     1      62.694  83.339  74.736  1.00  0.00     0.049 C 
ATOM     14  C   UNL     1      64.044  85.260  75.671  1.00  0.00     0.011 C 
ATOM     15  C   UNL     1      62.608  83.376  73.210  1.00  0.00     0.122 C 
BRANCH   7  16
ATOM     16  C   UNL     1      63.746  86.192  71.316  1.00  0.00     0.135 C 
BRANCH  16  17
ATOM     17  C   UNL     1      65.200  85.795  71.361  1.00  0.00    -0.040 A 
ATOM     18  C   UNL     1      66.057  86.388  72.286  1.00  0.00     0.004 A 
ATOM     19  C   UNL     1      65.686  84.832  70.476  1.00  0.00     0.004 A 
ATOM     20  C   UNL     1      67.402  86.020  72.328  1.00  0.00     0.000 A 
ATOM     21  C   UNL     1      67.031  84.464  70.518  1.00  0.00     0.000 A 
ATOM     22  C   UNL     1      67.889  85.058  71.444  1.00  0.00     0.000 A 
ENDBRANCH  16  17
ENDBRANCH   7  16
BRANCH  15  23
ATOM     23  C   UNL     1      62.857  82.040  72.589  1.00  0.00    -0.046 C 
ATOM     24  C   UNL     1      62.748  80.855  73.502  1.00  0.00     0.042 C 
ATOM     25  C   UNL     1      63.160  81.907  71.289  1.00  0.00     0.010 C 
ENDBRANCH  15  23
ENDBRANCH   3   4
BRANCH   2  26
ATOM     26  C   UNL     1      58.552  86.951  75.220  1.00  0.00     0.078 C 
BRANCH  26  27
ATOM     27  C   UNL     1      59.826  86.708  76.028  1.00  0.00     0.140 C 
ATOM     28  C   UNL     1      61.101  86.978  75.202  1.00  0.00     0.086 CG0
ATOM     29  C   UNL     1      59.974  87.678  77.181  1.00  0.00     0.190 C 
ATOM     30  C   UNL     1      61.954  87.794  76.133  1.00  0.00    -0.010 C 
ATOM     31  G   UNL     1      61.722  85.748  74.478  1.00  0.00     0.000 G0
ATOM     32  O   UNL     1      59.105  87.946  77.997  1.00  0.00    -0.291 OA
ATOM     33  C   UNL     1      61.343  88.226  77.240  1.00  0.00    -0.008 C 
ATOM     34  C   UNL     1      61.838  89.104  78.319  1.00  0.00     0.048 C 
BRANCH  27  35
ATOM     35  O   UNL     1      59.807  85.437  76.655  1.00  0.00    -0.381 OA
ATOM     36  H   UNL     1      59.081  84.916  76.271  1.00  0.00     0.212 HD
ENDBRANCH  27  35
ENDBRANCH  26  27
ENDBRANCH   2  26
ENDBRANCH   1   2
BRANCH   1  37
ATOM     37  O   UNL     1      57.463  88.388  72.911  1.00  0.00    -0.461 OA
BRANCH  37  38
ATOM     38  C   UNL     1      57.441  88.931  71.646  1.00  0.00     0.310 C 
ATOM     39  O   UNL     1      57.767  90.076  71.368  1.00  0.00    -0.252 OA
BRANCH  38  40
ATOM     40  C   UNL     1      56.954  87.894  70.662  1.00  0.00     0.158 C 
BRANCH  40  41
ATOM     41  C   UNL     1      55.815  88.386  69.807  1.00  0.00    -0.037 A 
ATOM     42  C   UNL     1      55.138  89.556  70.151  1.00  0.00     0.008 A 
ATOM     43  C   UNL     1      55.437  87.671  68.670  1.00  0.00     0.008 A 
ATOM     44  C   UNL     1      54.083  90.010  69.359  1.00  0.00     0.046 A 
ATOM     45  C   UNL     1      54.383  88.126  67.878  1.00  0.00     0.046 A 
ATOM     46  C   UNL     1      53.706  89.295  68.222  1.00  0.00     0.115 A 
BRANCH  46  47
ATOM     47  O   UNL     1      52.677  89.738  67.451  1.00  0.00    -0.508 OA
ATOM     48  H   UNL     1      51.839  89.584  67.922  1.00  0.00     0.293 HD
ENDBRANCH  46  47
ENDBRANCH  40  41
ENDBRANCH  38  40
ENDBRANCH  37  38
ENDBRANCH   1  37
TORSDOF 10
ENDMDL
MODEL 5
REMARK VINA RESULT:    -6.658     17.977     23.592
REMARK INTER + INTRA:         -12.141
REMARK INTER:                 -11.203
REMARK INTRA:                  -0.938
REMARK UNBOUND:                -0.813
REMARK SMILES C=C(C)[C@]12C[C@@H](C)[C@@]34O[C@](Cc5ccccc5)(O[C@@H]1[C@@H]3C=C(COC(=O)Cc1ccc(O)cc1)C[C@]1(O)C(=O)C(C)=C[C@@H]41)O2
REMARK SMILES IDX 23 1 22 2 21 3 20 4 9 5 8 6 10 7 6 8 18 10 44 11 19 12 5 13
REMARK SMILES IDX 7 14 4 15 11 16 12 17 13 18 17 19 14 20 16 21 15 22 2 23
REMARK SMILES IDX 3 24 1 25 35 26 36 27 43 28 38 29 42 30 39 32 40 33 41 34
REMARK SMILES IDX 37 35 24 37 25 38 26 39 27 40 28 41 29 42 34 43 30 44 33 45
REMARK SMILES IDX 31 46 32 47
REMARK H PARENT 37 36 32 48
REMARK Flexibility Score: 90.00
ROOT
ATOM      1  C   UNL     1      96.747  81.805  77.224  1.00  0.00     0.264 C 
ENDROOT
BRANCH   1   2
ATOM      2  C   UNL     1      97.661  80.606  77.122  1.00  0.00    -0.033 C 
ATOM      3  C   UNL     1      98.709  80.502  77.966  1.00  0.00    -0.015 C 
BRANCH   3   4
ATOM      4  C   UNL     1      99.805  79.450  78.019  1.00  0.00     0.078 C 
ATOM      5  O   UNL     1      99.042  77.694  79.585  1.00  0.00    -0.319 OA
ATOM      6  C   UNL     1      99.387  77.942  78.186  1.00  0.00     0.095 CG0
ATOM      7  C   UNL     1      99.925  78.292  80.552  1.00  0.00     0.289 C 
ATOM      8  C   UNL     1     100.636  77.052  77.789  1.00  0.00     0.023 C 
ATOM      9  G   UNL     1      98.076  77.641  77.404  1.00  0.00     0.000 G0
ATOM     10  O   UNL     1     100.002  79.705  80.379  1.00  0.00    -0.320 OA
ATOM     11  O   UNL     1     101.264  77.816  80.433  1.00  0.00    -0.313 OA
ATOM     12  C   UNL     1     100.784  79.768  79.176  1.00  0.00     0.170 C 
ATOM     13  C   UNL     1     101.979  77.751  78.164  1.00  0.00     0.049 C 
ATOM     14  C   UNL     1     100.633  75.620  78.351  1.00  0.00     0.011 C 
ATOM     15  C   UNL     1     101.827  78.645  79.395  1.00  0.00     0.122 C 
BRANCH   7  16
ATOM     16  C   UNL     1      99.398  77.973  81.938  1.00  0.00     0.135 C 
BRANCH  16  17
ATOM     17  C   UNL     1      98.461  79.039  82.447  1.00  0.00    -0.040 A 
ATOM     18  C   UNL     1      97.170  79.138  81.930  1.00  0.00     0.004 A 
ATOM     19  C   UNL     1      98.887  79.927  83.435  1.00  0.00     0.004 A 
ATOM     20  C   UNL     1      96.302  80.124  82.402  1.00  0.00     0.000 A 
ATOM     21  C   UNL     1      98.020  80.913  83.906  1.00  0.00     0.000 A 
ATOM     22  C   UNL     1      96.728  81.011  83.390  1.00  0.00     0.000 A 
ENDBRANCH  16  17
ENDBRANCH   7  16
BRANCH  15  23
ATOM     23  C   UNL     1     103.135  79.181  79.880  1.00  0.00    -0.046 C 
ATOM     24  C   UNL     1     104.356  78.710  79.146  1.00  0.00     0.042 C 
ATOM     25  C   UNL     1     103.214  80.034  80.912  1.00  0.00     0.010 C 
ENDBRANCH  15  23
ENDBRANCH   3   4
BRANCH   2  26
ATOM     26  C   UNL     1      97.249  79.633  76.034  1.00  0.00     0.078 C 
BRANCH  26  27
ATOM     27  C   UNL     1      97.966  78.286  75.993  1.00  0.00     0.140 C 
ATOM     28  C   UNL     1      98.074  77.639  77.390  1.00  0.00     0.086 CG0
ATOM     29  C   UNL     1      97.197  77.242  75.211  1.00  0.00     0.190 C 
ATOM     30  C   UNL     1      97.667  76.213  77.148  1.00  0.00    -0.010 C 
ATOM     31  G   UNL     1      99.379  77.937  78.184  1.00  0.00     0.000 G0
ATOM     32  O   UNL     1      96.720  77.402  74.097  1.00  0.00    -0.291 OA
ATOM     33  C   UNL     1      97.144  75.963  75.943  1.00  0.00    -0.008 C 
ATOM     34  C   UNL     1      96.571  74.717  75.394  1.00  0.00     0.048 C 
BRANCH  27  35
ATOM     35  O   UNL     1      99.204  78.378  75.308  1.00  0.00    -0.381 OA
ATOM     36  H   UNL     1      99.023  78.544  74.368  1.00  0.00     0.212 HD
ENDBRANCH  27  35
ENDBRANCH  26  27
ENDBRANCH   2  26
ENDBRANCH   1   2
BRANCH   1  37
ATOM     37  O   UNL     1      97.247  82.844  76.410  1.00  0.00    -0.461 OA
BRANCH  37  38
ATOM     38  C   UNL     1      96.383  83.345  75.464  1.00  0.00     0.310 C 
ATOM     39  O   UNL     1      95.642  84.305  75.627  1.00  0.00    -0.252 OA
BRANCH  38  40
ATOM     40  C   UNL     1      96.491  82.527  74.200  1.00  0.00     0.158 C 
BRANCH  40  41
ATOM     41  C   UNL     1      97.869  82.566  73.591  1.00  0.00    -0.037 A 
ATOM     42  C   UNL     1      98.556  83.777  73.497  1.00  0.00     0.008 A 
ATOM     43  C   UNL     1      98.457  81.393  73.120  1.00  0.00     0.008 A 
ATOM     44  C   UNL     1      99.831  83.813  72.932  1.00  0.00     0.046 A 
ATOM     45  C   UNL     1      99.733  81.429  72.556  1.00  0.00     0.046 A 
ATOM     46  C   UNL     1     100.419  82.639  72.462  1.00  0.00     0.115 A 
BRANCH  46  47
ATOM     47  O   UNL     1     101.663  82.675  71.911  1.00  0.00    -0.508 OA
ATOM     48  H   UNL     1     101.990  81.764  71.809  1.00  0.00     0.293 HD
ENDBRANCH  46  47
ENDBRANCH  40  41
ENDBRANCH  38  40
ENDBRANCH  37  38
ENDBRANCH   1  37
TORSDOF 10
ENDMDL
MODEL 6
REMARK VINA RESULT:    -6.657     18.063     22.614
REMARK INTER + INTRA:         -12.139
REMARK INTER:                  -9.810
REMARK INTRA:                  -2.329
REMARK UNBOUND:                -0.813
REMARK SMILES C=C(C)[C@]12C[C@@H](C)[C@@]34O[C@](Cc5ccccc5)(O[C@@H]1[C@@H]3C=C(COC(=O)Cc1ccc(O)cc1)C[C@]1(O)C(=O)C(C)=C[C@@H]41)O2
REMARK SMILES IDX 23 1 22 2 21 3 20 4 9 5 8 6 10 7 6 8 18 10 44 11 19 12 5 13
REMARK SMILES IDX 7 14 4 15 11 16 12 17 13 18 17 19 14 20 16 21 15 22 2 23
REMARK SMILES IDX 3 24 1 25 35 26 36 27 43 28 38 29 42 30 39 32 40 33 41 34
REMARK SMILES IDX 37 35 24 37 25 38 26 39 27 40 28 41 29 42 34 43 30 44 33 45
REMARK SMILES IDX 31 46 32 47
REMARK H PARENT 37 36 32 48
REMARK Flexibility Score: 90.00
ROOT
ATOM      1  C   UNL     1      96.252  81.918  77.394  1.00  0.00     0.264 C 
ENDROOT
BRANCH   1   2
ATOM      2  C   UNL     1      97.030  80.636  77.578  1.00  0.00    -0.033 C 
ATOM      3  C   UNL     1      96.989  79.696  76.611  1.00  0.00    -0.015 C 
BRANCH   3   4
ATOM      4  C   UNL     1      97.612  78.309  76.586  1.00  0.00     0.078 C 
ATOM      5  O   UNL     1      99.820  78.530  75.496  1.00  0.00    -0.319 OA
ATOM      6  C   UNL     1      99.170  78.185  76.759  1.00  0.00     0.095 CG0
ATOM      7  C   UNL     1      99.196  77.991  74.315  1.00  0.00     0.289 C 
ATOM      8  C   UNL     1      99.494  76.677  77.120  1.00  0.00     0.023 C 
ATOM      9  G   UNL     1      99.701  79.243  77.770  1.00  0.00     0.000 G0
ATOM     10  O   UNL     1      97.835  78.399  74.217  1.00  0.00    -0.320 OA
ATOM     11  O   UNL     1      99.172  76.565  74.318  1.00  0.00    -0.313 OA
ATOM     12  C   UNL     1      97.256  77.597  75.258  1.00  0.00     0.170 C 
ATOM     13  C   UNL     1      98.498  75.697  76.428  1.00  0.00     0.049 C 
ATOM     14  C   UNL     1     100.936  76.224  76.834  1.00  0.00     0.011 C 
ATOM     15  C   UNL     1      97.997  76.247  75.092  1.00  0.00     0.122 C 
BRANCH   7  16
ATOM     16  C   UNL     1      99.968  78.480  73.105  1.00  0.00     0.135 C 
BRANCH  16  17
ATOM     17  C   UNL     1      99.101  78.554  71.873  1.00  0.00    -0.040 A 
ATOM     18  C   UNL     1      98.953  77.435  71.055  1.00  0.00     0.004 A 
ATOM     19  C   UNL     1      98.447  79.744  71.553  1.00  0.00     0.004 A 
ATOM     20  C   UNL     1      98.151  77.504  69.916  1.00  0.00     0.000 A 
ATOM     21  C   UNL     1      97.645  79.813  70.413  1.00  0.00     0.000 A 
ATOM     22  C   UNL     1      97.497  78.693  69.595  1.00  0.00     0.000 A 
ENDBRANCH  16  17
ENDBRANCH   7  16
BRANCH  15  23
ATOM     23  C   UNL     1      97.186  75.252  74.329  1.00  0.00    -0.046 C 
ATOM     24  C   UNL     1      97.847  74.640  73.129  1.00  0.00     0.042 C 
ATOM     25  C   UNL     1      95.938  74.923  74.695  1.00  0.00     0.010 C 
ENDBRANCH  15  23
ENDBRANCH   3   4
BRANCH   2  26
ATOM     26  C   UNL     1      97.794  80.585  78.888  1.00  0.00     0.078 C 
BRANCH  26  27
ATOM     27  C   UNL     1      98.818  79.464  79.055  1.00  0.00     0.140 C 
ATOM     28  C   UNL     1      99.682  79.269  77.791  1.00  0.00     0.086 CG0
ATOM     29  C   UNL     1      99.856  79.780  80.111  1.00  0.00     0.190 C 
ATOM     30  C   UNL     1     101.079  79.163  78.335  1.00  0.00    -0.010 C 
ATOM     31  G   UNL     1      99.176  78.205  76.774  1.00  0.00     0.000 G0
ATOM     32  O   UNL     1      99.618  80.188  81.238  1.00  0.00    -0.291 OA
ATOM     33  C   UNL     1     101.215  79.472  79.628  1.00  0.00    -0.008 C 
ATOM     34  C   UNL     1     102.431  79.557  80.463  1.00  0.00     0.048 C 
BRANCH  27  35
ATOM     35  O   UNL     1      98.211  78.272  79.523  1.00  0.00    -0.381 OA
ATOM     36  H   UNL     1      97.582  77.963  78.849  1.00  0.00     0.212 HD
ENDBRANCH  27  35
ENDBRANCH  26  27
ENDBRANCH   2  26
ENDBRANCH   1   2
BRANCH   1  37
ATOM     37  O   UNL     1      97.010  82.816  76.612  1.00  0.00    -0.461 OA
BRANCH  37  38
ATOM     38  C   UNL     1      96.425  83.246  75.443  1.00  0.00     0.310 C 
ATOM     39  O   UNL     1      95.630  84.171  75.354  1.00  0.00    -0.252 OA
BRANCH  38  40
ATOM     40  C   UNL     1      96.917  82.401  74.293  1.00  0.00     0.158 C 
BRANCH  40  41
ATOM     41  C   UNL     1      98.390  82.569  74.027  1.00  0.00    -0.037 A 
ATOM     42  C   UNL     1      98.832  83.553  73.144  1.00  0.00     0.008 A 
ATOM     43  C   UNL     1      99.313  81.740  74.665  1.00  0.00     0.008 A 
ATOM     44  C   UNL     1     100.197  83.708  72.897  1.00  0.00     0.046 A 
ATOM     45  C   UNL     1     100.677  81.895  74.419  1.00  0.00     0.046 A 
ATOM     46  C   UNL     1     101.119  82.878  73.535  1.00  0.00     0.115 A 
BRANCH  46  47
ATOM     47  O   UNL     1     102.450  83.030  73.294  1.00  0.00    -0.508 OA
ATOM     48  H   UNL     1     102.948  82.741  74.079  1.00  0.00     0.293 HD
ENDBRANCH  46  47
ENDBRANCH  40  41
ENDBRANCH  38  40
ENDBRANCH  37  38
ENDBRANCH   1  37
TORSDOF 10
ENDMDL
MODEL 7
REMARK VINA RESULT:    -6.633     18.219     22.234
REMARK INTER + INTRA:         -12.099
REMARK INTER:                 -10.361
REMARK INTRA:                  -1.738
REMARK UNBOUND:                -0.813
REMARK SMILES C=C(C)[C@]12C[C@@H](C)[C@@]34O[C@](Cc5ccccc5)(O[C@@H]1[C@@H]3C=C(COC(=O)Cc1ccc(O)cc1)C[C@]1(O)C(=O)C(C)=C[C@@H]41)O2
REMARK SMILES IDX 23 1 22 2 21 3 20 4 9 5 8 6 10 7 6 8 18 10 44 11 19 12 5 13
REMARK SMILES IDX 7 14 4 15 11 16 12 17 13 18 17 19 14 20 16 21 15 22 2 23
REMARK SMILES IDX 3 24 1 25 35 26 36 27 43 28 38 29 42 30 39 32 40 33 41 34
REMARK SMILES IDX 37 35 24 37 25 38 26 39 27 40 28 41 29 42 34 43 30 44 33 45
REMARK SMILES IDX 31 46 32 47
REMARK H PARENT 37 36 32 48
REMARK Flexibility Score: 90.00
ROOT
ATOM      1  C   UNL     1     103.527  79.798  74.912  1.00  0.00     0.264 C 
ENDROOT
BRANCH   1   2
ATOM      2  C   UNL     1     102.447  79.813  75.969  1.00  0.00    -0.033 C 
ATOM      3  C   UNL     1     101.239  80.331  75.669  1.00  0.00    -0.015 C 
BRANCH   3   4
ATOM      4  C   UNL     1     100.025  80.530  76.564  1.00  0.00     0.078 C 
ATOM      5  O   UNL     1      98.635  78.496  76.355  1.00  0.00    -0.319 OA
ATOM      6  C   UNL     1      99.426  79.278  77.303  1.00  0.00     0.095 CG0
ATOM      7  C   UNL     1      97.792  79.266  75.475  1.00  0.00     0.289 C 
ATOM      8  C   UNL     1      98.483  79.809  78.460  1.00  0.00     0.023 C 
ATOM      9  G   UNL     1     100.558  78.309  77.754  1.00  0.00     0.000 G0
ATOM     10  O   UNL     1      98.553  80.204  74.720  1.00  0.00    -0.320 OA
ATOM     11  O   UNL     1      96.826  80.036  76.187  1.00  0.00    -0.313 OA
ATOM     12  C   UNL     1      98.868  81.157  75.747  1.00  0.00     0.170 C 
ATOM     13  C   UNL     1      97.785  81.145  78.061  1.00  0.00     0.049 C 
ATOM     14  C   UNL     1      97.425  78.811  78.961  1.00  0.00     0.011 C 
ATOM     15  C   UNL     1      97.547  81.231  76.552  1.00  0.00     0.122 C 
BRANCH   7  16
ATOM     16  C   UNL     1      97.083  78.307  74.539  1.00  0.00     0.135 C 
BRANCH  16  17
ATOM     17  C   UNL     1      97.434  78.563  73.094  1.00  0.00    -0.040 A 
ATOM     18  C   UNL     1      98.454  77.833  72.485  1.00  0.00     0.004 A 
ATOM     19  C   UNL     1      96.739  79.530  72.370  1.00  0.00     0.004 A 
ATOM     20  C   UNL     1      98.778  78.069  71.148  1.00  0.00     0.000 A 
ATOM     21  C   UNL     1      97.063  79.767  71.033  1.00  0.00     0.000 A 
ATOM     22  C   UNL     1      98.083  79.036  70.423  1.00  0.00     0.000 A 
ENDBRANCH  16  17
ENDBRANCH   7  16
BRANCH  15  23
ATOM     23  C   UNL     1      96.721  82.415  76.168  1.00  0.00    -0.046 C 
ATOM     24  C   UNL     1      95.704  82.867  77.174  1.00  0.00     0.042 C 
ATOM     25  C   UNL     1      96.879  83.038  74.991  1.00  0.00     0.010 C 
ENDBRANCH  15  23
ENDBRANCH   3   4
BRANCH   2  26
ATOM     26  C   UNL     1     102.894  79.204  77.285  1.00  0.00     0.078 C 
BRANCH  26  27
ATOM     27  C   UNL     1     101.824  78.990  78.354  1.00  0.00     0.140 C 
ATOM     28  C   UNL     1     100.557  78.317  77.786  1.00  0.00     0.086 CG0
ATOM     29  C   UNL     1     102.260  78.012  79.424  1.00  0.00     0.190 C 
ATOM     30  C   UNL     1     100.246  77.248  78.796  1.00  0.00    -0.010 C 
ATOM     31  G   UNL     1      99.424  79.275  77.314  1.00  0.00     0.000 G0
ATOM     32  O   UNL     1     103.327  78.042  80.018  1.00  0.00    -0.291 OA
ATOM     33  C   UNL     1     101.195  77.032  79.712  1.00  0.00    -0.008 C 
ATOM     34  C   UNL     1     101.266  76.023  80.788  1.00  0.00     0.048 C 
BRANCH  27  35
ATOM     35  O   UNL     1     101.564  80.184  79.073  1.00  0.00    -0.381 OA
ATOM     36  H   UNL     1     100.776  80.044  79.625  1.00  0.00     0.212 HD
ENDBRANCH  27  35
ENDBRANCH  26  27
ENDBRANCH   2  26
ENDBRANCH   1   2
BRANCH   1  37
ATOM     37  O   UNL     1     103.008  79.243  73.722  1.00  0.00    -0.461 OA
BRANCH  37  38
ATOM     38  C   UNL     1     103.358  79.878  72.553  1.00  0.00     0.310 C 
ATOM     39  O   UNL     1     103.444  79.338  71.459  1.00  0.00    -0.252 OA
BRANCH  38  40
ATOM     40  C   UNL     1     103.618  81.339  72.831  1.00  0.00     0.158 C 
BRANCH  40  41
ATOM     41  C   UNL     1     102.377  82.187  72.726  1.00  0.00    -0.037 A 
ATOM     42  C   UNL     1     101.162  81.604  72.366  1.00  0.00     0.008 A 
ATOM     43  C   UNL     1     102.443  83.555  72.988  1.00  0.00     0.008 A 
ATOM     44  C   UNL     1     100.013  82.389  72.268  1.00  0.00     0.046 A 
ATOM     45  C   UNL     1     101.294  84.341  72.890  1.00  0.00     0.046 A 
ATOM     46  C   UNL     1     100.079  83.758  72.530  1.00  0.00     0.115 A 
BRANCH  46  47
ATOM     47  O   UNL     1      98.959  84.524  72.434  1.00  0.00    -0.508 OA
ATOM     48  H   UNL     1      98.246  83.992  72.038  1.00  0.00     0.293 HD
ENDBRANCH  46  47
ENDBRANCH  40  41
ENDBRANCH  38  40
ENDBRANCH  37  38
ENDBRANCH   1  37
TORSDOF 10
ENDMDL
MODEL 8
REMARK VINA RESULT:    -6.616     17.821     22.379
REMARK INTER + INTRA:         -12.069
REMARK INTER:                  -9.944
REMARK INTRA:                  -2.125
REMARK UNBOUND:                -0.813
REMARK SMILES C=C(C)[C@]12C[C@@H](C)[C@@]34O[C@](Cc5ccccc5)(O[C@@H]1[C@@H]3C=C(COC(=O)Cc1ccc(O)cc1)C[C@]1(O)C(=O)C(C)=C[C@@H]41)O2
REMARK SMILES IDX 23 1 22 2 21 3 20 4 9 5 8 6 10 7 6 8 18 10 44 11 19 12 5 13
REMARK SMILES IDX 7 14 4 15 11 16 12 17 13 18 17 19 14 20 16 21 15 22 2 23
REMARK SMILES IDX 3 24 1 25 35 26 36 27 43 28 38 29 42 30 39 32 40 33 41 34
REMARK SMILES IDX 37 35 24 37 25 38 26 39 27 40 28 41 29 42 34 43 30 44 33 45
REMARK SMILES IDX 31 46 32 47
REMARK H PARENT 37 36 32 48
REMARK Flexibility Score: 90.00
ROOT
ATOM      1  C   UNL     1      96.358  80.652  76.579  1.00  0.00     0.264 C 
ENDROOT
BRANCH   1   2
ATOM      2  C   UNL     1      97.366  79.647  76.071  1.00  0.00    -0.033 C 
ATOM      3  C   UNL     1      97.061  78.898  74.991  1.00  0.00    -0.015 C 
BRANCH   3   4
ATOM      4  C   UNL     1      97.858  77.780  74.336  1.00  0.00     0.078 C 
ATOM      5  O   UNL     1      99.210  78.814  72.543  1.00  0.00    -0.319 OA
ATOM      6  C   UNL     1      99.307  78.100  73.814  1.00  0.00     0.095 CG0
ATOM      7  C   UNL     1      98.226  78.303  71.623  1.00  0.00     0.289 C 
ATOM      8  C   UNL     1     100.049  76.720  73.585  1.00  0.00     0.023 C 
ATOM      9  G   UNL     1     100.029  79.098  74.765  1.00  0.00     0.000 G0
ATOM     10  O   UNL     1      96.926  78.298  72.206  1.00  0.00    -0.320 OA
ATOM     11  O   UNL     1      98.485  76.952  71.247  1.00  0.00    -0.313 OA
ATOM     12  C   UNL     1      97.070  77.209  73.132  1.00  0.00     0.170 C 
ATOM     13  C   UNL     1      99.059  75.607  73.124  1.00  0.00     0.049 C 
ATOM     14  C   UNL     1     101.248  76.766  72.621  1.00  0.00     0.011 C 
ATOM     15  C   UNL     1      97.895  76.184  72.316  1.00  0.00     0.122 C 
BRANCH   7  16
ATOM     16  C   UNL     1      98.230  79.180  70.387  1.00  0.00     0.135 C 
BRANCH  16  17
ATOM     17  C   UNL     1      99.563  79.855  70.176  1.00  0.00    -0.040 A 
ATOM     18  C   UNL     1     100.501  79.291  69.312  1.00  0.00     0.004 A 
ATOM     19  C   UNL     1      99.855  81.043  70.845  1.00  0.00     0.004 A 
ATOM     20  C   UNL     1     101.734  79.915  69.117  1.00  0.00     0.000 A 
ATOM     21  C   UNL     1     101.088  81.667  70.649  1.00  0.00     0.000 A 
ATOM     22  C   UNL     1     102.026  81.103  69.786  1.00  0.00     0.000 A 
ENDBRANCH  16  17
ENDBRANCH   7  16
BRANCH  15  23
ATOM     23  C   UNL     1      97.034  75.122  71.713  1.00  0.00    -0.046 C 
ATOM     24  C   UNL     1      95.888  74.642  72.554  1.00  0.00     0.042 C 
ATOM     25  C   UNL     1      97.272  74.627  70.489  1.00  0.00     0.010 C 
ENDBRANCH  15  23
ENDBRANCH   3   4
BRANCH   2  26
ATOM     26  C   UNL     1      98.648  79.626  76.882  1.00  0.00     0.078 C 
BRANCH  26  27
ATOM     27  C   UNL     1      99.827  78.848  76.302  1.00  0.00     0.140 C 
ATOM     28  C   UNL     1     100.004  79.097  74.790  1.00  0.00     0.086 CG0
ATOM     29  C   UNL     1     101.156  79.307  76.864  1.00  0.00     0.190 C 
ATOM     30  C   UNL     1     101.481  79.336  74.645  1.00  0.00    -0.010 C 
ATOM     31  G   UNL     1      99.298  78.084  73.842  1.00  0.00     0.000 G0
ATOM     32  O   UNL     1     101.407  79.464  78.050  1.00  0.00    -0.291 OA
ATOM     33  C   UNL     1     102.152  79.487  75.791  1.00  0.00    -0.008 C 
ATOM     34  C   UNL     1     103.574  79.811  76.025  1.00  0.00     0.048 C 
BRANCH  27  35
ATOM     35  O   UNL     1      99.766  77.476  76.654  1.00  0.00    -0.381 OA
ATOM     36  H   UNL     1      99.974  77.392  77.600  1.00  0.00     0.212 HD
ENDBRANCH  27  35
ENDBRANCH  26  27
ENDBRANCH   2  26
ENDBRANCH   1   2
BRANCH   1  37
ATOM     37  O   UNL     1      96.908  81.949  76.492  1.00  0.00    -0.461 OA
BRANCH  37  38
ATOM     38  C   UNL     1      96.434  82.743  75.472  1.00  0.00     0.310 C 
ATOM     39  O   UNL     1      95.641  83.663  75.609  1.00  0.00    -0.252 OA
BRANCH  38  40
ATOM     40  C   UNL     1      97.045  82.300  74.164  1.00  0.00     0.158 C 
BRANCH  40  41
ATOM     41  C   UNL     1      98.408  82.893  73.922  1.00  0.00    -0.037 A 
ATOM     42  C   UNL     1      99.526  82.356  74.561  1.00  0.00     0.008 A 
ATOM     43  C   UNL     1      98.553  83.979  73.059  1.00  0.00     0.008 A 
ATOM     44  C   UNL     1     100.789  82.906  74.337  1.00  0.00     0.046 A 
ATOM     45  C   UNL     1      99.816  84.529  72.834  1.00  0.00     0.046 A 
ATOM     46  C   UNL     1     100.933  83.993  73.473  1.00  0.00     0.115 A 
BRANCH  46  47
ATOM     47  O   UNL     1     102.165  84.529  73.255  1.00  0.00    -0.508 OA
ATOM     48  H   UNL     1     102.249  84.753  72.312  1.00  0.00     0.293 HD
ENDBRANCH  46  47
ENDBRANCH  40  41
ENDBRANCH  38  40
ENDBRANCH  37  38
ENDBRANCH   1  37
TORSDOF 10
ENDMDL
MODEL 9
REMARK VINA RESULT:    -6.552     30.050     33.923
REMARK INTER + INTRA:         -11.962
REMARK INTER:                  -9.893
REMARK INTRA:                  -2.069
REMARK UNBOUND:                -0.813
REMARK SMILES C=C(C)[C@]12C[C@@H](C)[C@@]34O[C@](Cc5ccccc5)(O[C@@H]1[C@@H]3C=C(COC(=O)Cc1ccc(O)cc1)C[C@]1(O)C(=O)C(C)=C[C@@H]41)O2
REMARK SMILES IDX 23 1 22 2 21 3 20 4 9 5 8 6 10 7 6 8 18 10 44 11 19 12 5 13
REMARK SMILES IDX 7 14 4 15 11 16 12 17 13 18 17 19 14 20 16 21 15 22 2 23
REMARK SMILES IDX 3 24 1 25 35 26 36 27 43 28 38 29 42 30 39 32 40 33 41 34
REMARK SMILES IDX 37 35 24 37 25 38 26 39 27 40 28 41 29 42 34 43 30 44 33 45
REMARK SMILES IDX 31 46 32 47
REMARK H PARENT 37 36 32 48
REMARK Flexibility Score: 90.00
ROOT
ATOM      1  C   UNL     1      62.293  89.562  70.118  1.00  0.00     0.264 C 
ENDROOT
BRANCH   1   2
ATOM      2  C   UNL     1      62.918  88.960  71.355  1.00  0.00    -0.033 C 
ATOM      3  C   UNL     1      62.121  88.553  72.364  1.00  0.00    -0.015 C 
BRANCH   3   4
ATOM      4  C   UNL     1      62.498  87.993  73.727  1.00  0.00     0.078 C 
ATOM      5  O   UNL     1      62.555  85.531  73.503  1.00  0.00    -0.319 OA
ATOM      6  C   UNL     1      63.389  86.698  73.783  1.00  0.00     0.095 CG0
ATOM      7  C   UNL     1      61.266  85.528  74.145  1.00  0.00     0.289 C 
ATOM      8  C   UNL     1      63.976  86.583  75.250  1.00  0.00     0.023 C 
ATOM      9  G   UNL     1      64.445  86.703  72.639  1.00  0.00     0.000 G0
ATOM     10  O   UNL     1      60.510  86.683  73.794  1.00  0.00    -0.320 OA
ATOM     11  O   UNL     1      61.368  85.553  75.567  1.00  0.00    -0.313 OA
ATOM     12  C   UNL     1      61.218  87.684  74.542  1.00  0.00     0.170 C 
ATOM     13  C   UNL     1      62.978  87.139  76.311  1.00  0.00     0.049 C 
ATOM     14  C   UNL     1      64.435  85.176  75.670  1.00  0.00     0.011 C 
ATOM     15  C   UNL     1      61.524  86.954  75.872  1.00  0.00     0.122 C 
BRANCH   7  16
ATOM     16  C   UNL     1      60.524  84.278  73.714  1.00  0.00     0.135 C 
BRANCH  16  17
ATOM     17  C   UNL     1      61.454  83.234  73.150  1.00  0.00    -0.040 A 
ATOM     18  C   UNL     1      62.043  82.294  73.995  1.00  0.00     0.004 A 
ATOM     19  C   UNL     1      61.724  83.209  71.782  1.00  0.00     0.004 A 
ATOM     20  C   UNL     1      62.903  81.328  73.472  1.00  0.00     0.000 A 
ATOM     21  C   UNL     1      62.584  82.242  71.259  1.00  0.00     0.000 A 
ATOM     22  C   UNL     1      63.173  81.302  72.104  1.00  0.00     0.000 A 
ENDBRANCH  16  17
ENDBRANCH   7  16
BRANCH  15  23
ATOM     23  C   UNL     1      60.550  87.313  76.947  1.00  0.00    -0.046 C 
ATOM     24  C   UNL     1      59.387  86.382  77.123  1.00  0.00     0.042 C 
ATOM     25  C   UNL     1      60.707  88.404  77.710  1.00  0.00     0.010 C 
ENDBRANCH  15  23
ENDBRANCH   3   4
BRANCH   2  26
ATOM     26  C   UNL     1      64.431  88.887  71.282  1.00  0.00     0.078 C 
BRANCH  26  27
ATOM     27  C   UNL     1      65.141  88.050  72.344  1.00  0.00     0.140 C 
ATOM     28  C   UNL     1      64.416  86.716  72.618  1.00  0.00     0.086 CG0
ATOM     29  C   UNL     1      66.512  87.588  71.898  1.00  0.00     0.190 C 
ATOM     30  C   UNL     1      65.529  85.706  72.622  1.00  0.00    -0.010 C 
ATOM     31  G   UNL     1      63.386  86.723  73.785  1.00  0.00     0.000 G0
ATOM     32  O   UNL     1      67.372  88.301  71.401  1.00  0.00    -0.291 OA
ATOM     33  C   UNL     1      66.713  86.158  72.196  1.00  0.00    -0.008 C 
ATOM     34  C   UNL     1      67.987  85.439  71.991  1.00  0.00     0.048 C 
BRANCH  27  35
ATOM     35  O   UNL     1      65.404  88.809  73.513  1.00  0.00    -0.381 OA
ATOM     36  H   UNL     1      66.121  88.376  74.005  1.00  0.00     0.212 HD
ENDBRANCH  27  35
ENDBRANCH  26  27
ENDBRANCH   2  26
ENDBRANCH   1   2
BRANCH   1  37
ATOM     37  O   UNL     1      62.776  88.888  68.976  1.00  0.00    -0.461 OA
BRANCH  37  38
ATOM     38  C   UNL     1      61.890  88.045  68.346  1.00  0.00     0.310 C 
ATOM     39  O   UNL     1      61.157  88.361  67.420  1.00  0.00    -0.252 OA
BRANCH  38  40
ATOM     40  C   UNL     1      61.963  86.675  68.977  1.00  0.00     0.158 C 
BRANCH  40  41
ATOM     41  C   UNL     1      60.631  86.192  69.490  1.00  0.00    -0.037 A 
ATOM     42  C   UNL     1      60.202  84.895  69.205  1.00  0.00     0.008 A 
ATOM     43  C   UNL     1      59.826  87.041  70.249  1.00  0.00     0.008 A 
ATOM     44  C   UNL     1      58.969  84.448  69.679  1.00  0.00     0.046 A 
ATOM     45  C   UNL     1      58.592  86.594  70.724  1.00  0.00     0.046 A 
ATOM     46  C   UNL     1      58.164  85.298  70.439  1.00  0.00     0.115 A 
BRANCH  46  47
ATOM     47  O   UNL     1      56.960  84.862  70.901  1.00  0.00    -0.508 OA
ATOM     48  H   UNL     1      56.827  85.201  71.803  1.00  0.00     0.293 HD
ENDBRANCH  46  47
ENDBRANCH  40  41
ENDBRANCH  38  40
ENDBRANCH  37  38
ENDBRANCH   1  37
TORSDOF 10
ENDMDL
MODEL 10
REMARK VINA RESULT:    -6.474     17.786     22.705
REMARK INTER + INTRA:         -11.828
REMARK INTER:                 -10.468
REMARK INTRA:                  -1.360
REMARK UNBOUND:                -0.813
REMARK SMILES C=C(C)[C@]12C[C@@H](C)[C@@]34O[C@](Cc5ccccc5)(O[C@@H]1[C@@H]3C=C(COC(=O)Cc1ccc(O)cc1)C[C@]1(O)C(=O)C(C)=C[C@@H]41)O2
REMARK SMILES IDX 23 1 22 2 21 3 20 4 9 5 8 6 10 7 6 8 18 10 44 11 19 12 5 13
REMARK SMILES IDX 7 14 4 15 11 16 12 17 13 18 17 19 14 20 16 21 15 22 2 23
REMARK SMILES IDX 3 24 1 25 35 26 36 27 43 28 38 29 42 30 39 32 40 33 41 34
REMARK SMILES IDX 37 35 24 37 25 38 26 39 27 40 28 41 29 42 34 43 30 44 33 45
REMARK SMILES IDX 31 46 32 47
REMARK H PARENT 37 36 32 48
REMARK Flexibility Score: 90.00
ROOT
ATOM      1  C   UNL     1      96.410  81.066  76.843  1.00  0.00     0.264 C 
ENDROOT
BRANCH   1   2
ATOM      2  C   UNL     1      97.398  79.974  76.503  1.00  0.00    -0.033 C 
ATOM      3  C   UNL     1      97.094  79.090  75.530  1.00  0.00    -0.015 C 
BRANCH   3   4
ATOM      4  C   UNL     1      97.870  77.871  75.057  1.00  0.00     0.078 C 
ATOM      5  O   UNL     1      99.315  78.617  73.194  1.00  0.00    -0.319 OA
ATOM      6  C   UNL     1      99.345  78.074  74.550  1.00  0.00     0.095 CG0
ATOM      7  C   UNL     1      98.343  78.021  72.314  1.00  0.00     0.289 C 
ATOM      8  C   UNL     1     100.045  76.653  74.530  1.00  0.00     0.023 C 
ATOM      9  G   UNL     1     100.073  79.166  75.389  1.00  0.00     0.000 G0
ATOM     10  O   UNL     1      97.026  78.133  72.845  1.00  0.00    -0.320 OA
ATOM     11  O   UNL     1      98.565  76.625  72.127  1.00  0.00    -0.313 OA
ATOM     12  C   UNL     1      97.101  77.172  73.909  1.00  0.00     0.170 C 
ATOM     13  C   UNL     1      99.030  75.521  74.183  1.00  0.00     0.049 C 
ATOM     14  C   UNL     1     101.275  76.534  73.613  1.00  0.00     0.011 C 
ATOM     15  C   UNL     1      97.915  76.022  73.265  1.00  0.00     0.122 C 
BRANCH   7  16
ATOM     16  C   UNL     1      98.418  78.727  70.974  1.00  0.00     0.135 C 
BRANCH  16  17
ATOM     17  C   UNL     1      98.448  77.754  69.822  1.00  0.00    -0.040 A 
ATOM     18  C   UNL     1      97.256  77.255  69.299  1.00  0.00     0.004 A 
ATOM     19  C   UNL     1      99.669  77.355  69.280  1.00  0.00     0.004 A 
ATOM     20  C   UNL     1      97.284  76.356  68.232  1.00  0.00     0.000 A 
ATOM     21  C   UNL     1      99.697  76.455  68.213  1.00  0.00     0.000 A 
ATOM     22  C   UNL     1      98.505  75.956  67.690  1.00  0.00     0.000 A 
ENDBRANCH  16  17
ENDBRANCH   7  16
BRANCH  15  23
ATOM     23  C   UNL     1      97.036  74.919  72.774  1.00  0.00    -0.046 C 
ATOM     24  C   UNL     1      97.236  73.578  73.416  1.00  0.00     0.042 C 
ATOM     25  C   UNL     1      96.120  75.115  71.814  1.00  0.00     0.010 C 
ENDBRANCH  15  23
ENDBRANCH   3   4
BRANCH   2  26
ATOM     26  C   UNL     1      98.661  80.032  77.341  1.00  0.00     0.078 C 
BRANCH  26  27
ATOM     27  C   UNL     1      99.811  79.113  76.933  1.00  0.00     0.140 C 
ATOM     28  C   UNL     1     100.079  79.151  75.414  1.00  0.00     0.086 CG0
ATOM     29  C   UNL     1     101.140  79.556  77.509  1.00  0.00     0.190 C 
ATOM     30  C   UNL     1     101.575  79.277  75.326  1.00  0.00    -0.010 C 
ATOM     31  G   UNL     1      99.352  78.070  74.563  1.00  0.00     0.000 G0
ATOM     32  O   UNL     1     101.342  79.850  78.678  1.00  0.00    -0.291 OA
ATOM     33  C   UNL     1     102.197  79.533  76.480  1.00  0.00    -0.008 C 
ATOM     34  C   UNL     1     103.625  79.795  76.754  1.00  0.00     0.048 C 
BRANCH  27  35
ATOM     35  O   UNL     1      99.638  77.804  77.451  1.00  0.00    -0.381 OA
ATOM     36  H   UNL     1      98.733  77.512  77.249  1.00  0.00     0.212 HD
ENDBRANCH  27  35
ENDBRANCH  26  27
ENDBRANCH   2  26
ENDBRANCH   1   2
BRANCH   1  37
ATOM     37  O   UNL     1      97.011  82.324  76.621  1.00  0.00    -0.461 OA
BRANCH  37  38
ATOM     38  C   UNL     1      96.513  83.058  75.568  1.00  0.00     0.310 C 
ATOM     39  O   UNL     1      95.757  84.014  75.674  1.00  0.00    -0.252 OA
BRANCH  38  40
ATOM     40  C   UNL     1      97.044  82.500  74.270  1.00  0.00     0.158 C 
BRANCH  40  41
ATOM     41  C   UNL     1      98.438  82.977  73.952  1.00  0.00    -0.037 A 
ATOM     42  C   UNL     1      98.626  84.040  73.068  1.00  0.00     0.008 A 
ATOM     43  C   UNL     1      99.539  82.357  74.539  1.00  0.00     0.008 A 
ATOM     44  C   UNL     1      99.916  84.481  72.772  1.00  0.00     0.046 A 
ATOM     45  C   UNL     1     100.830  82.798  74.245  1.00  0.00     0.046 A 
ATOM     46  C   UNL     1     101.018  83.860  73.361  1.00  0.00     0.115 A 
BRANCH  46  47
ATOM     47  O   UNL     1     102.276  84.290  73.072  1.00  0.00    -0.508 OA
ATOM     48  H   UNL     1     102.370  85.213  73.368  1.00  0.00     0.293 HD
ENDBRANCH  46  47
ENDBRANCH  40  41
ENDBRANCH  38  40
ENDBRANCH  37  38
ENDBRANCH   1  37
TORSDOF 10
ENDMDL
