MODEL 1
REMARK VINA RESULT:    -8.104      0.000      0.000
REMARK INTER + INTRA:          -9.903
REMARK INTER:                  -9.526
REMARK INTRA:                  -0.377
REMARK UNBOUND:                -0.377
REMARK SMILES O=C(/C=C/C=C/c1ccc2c(c1)OCO2)N1CCCCC1
REMARK SMILES IDX 3 1 4 2 2 3 1 4 16 5 17 6 21 7 18 8 20 9 19 10 5 11 6 12
REMARK SMILES IDX 7 13 12 14 8 15 11 16 9 17 13 18 10 19 14 20 15 21
REMARK H PARENT
REMARK Flexibility Score: inf
ROOT
ATOM      1  C   UNL     1      91.002  91.709  76.068  1.00  0.00     0.071 C 
ATOM      2  C   UNL     1      90.965  92.618  77.040  1.00  0.00     0.006 C 
ENDROOT
BRANCH   1   3
ATOM      3  C   UNL     1      89.723  91.125  75.615  1.00  0.00     0.246 C 
ATOM      4  O   UNL     1      88.797  91.085  76.425  1.00  0.00    -0.270 OA
ATOM      5  N   UNL     1      89.652  90.655  74.305  1.00  0.00    -0.339 N 
ATOM      6  C   UNL     1      88.398  90.065  73.827  1.00  0.00     0.120 C 
ATOM      7  C   UNL     1      90.748  90.645  73.324  1.00  0.00     0.120 C 
ATOM      8  C   UNL     1      87.932  90.720  72.531  1.00  0.00     0.022 C 
ATOM      9  C   UNL     1      90.318  91.290  72.007  1.00  0.00     0.022 C 
ATOM     10  C   UNL     1      89.028  90.675  71.472  1.00  0.00     0.004 C 
ENDBRANCH   1   3
BRANCH   2  11
ATOM     11  C   UNL     1      92.165  93.246  77.552  1.00  0.00     0.001 C 
ATOM     12  C   UNL     1      93.161  93.666  76.755  1.00  0.00     0.008 C 
BRANCH  12  13
ATOM     13  C   UNL     1      94.404  94.302  77.222  1.00  0.00    -0.022 A 
ATOM     14  C   UNL     1      94.640  94.404  78.586  1.00  0.00     0.058 A 
ATOM     15  C   UNL     1      95.314  94.787  76.278  1.00  0.00     0.012 A 
ATOM     16  C   UNL     1      95.819  95.008  78.975  1.00  0.00     0.166 A 
ATOM     17  C   UNL     1      96.499  95.393  76.699  1.00  0.00     0.051 A 
ATOM     18  O   UNL     1      96.230  95.203  80.258  1.00  0.00    -0.454 OA
ATOM     19  C   UNL     1      96.724  95.489  78.057  1.00  0.00     0.165 A 
ATOM     20  C   UNL     1      97.495  95.862  80.043  1.00  0.00     0.468 C 
ATOM     21  O   UNL     1      97.815  96.046  78.649  1.00  0.00    -0.454 OA
ENDBRANCH  12  13
ENDBRANCH   2  11
TORSDOF 3
ENDMDL
MODEL 2
REMARK VINA RESULT:    -7.665      2.739      9.211
REMARK INTER + INTRA:          -9.387
REMARK INTER:                  -9.007
REMARK INTRA:                  -0.380
REMARK UNBOUND:                -0.377
REMARK SMILES O=C(/C=C/C=C/c1ccc2c(c1)OCO2)N1CCCCC1
REMARK SMILES IDX 3 1 4 2 2 3 1 4 16 5 17 6 21 7 18 8 20 9 19 10 5 11 6 12
REMARK SMILES IDX 7 13 12 14 8 15 11 16 9 17 13 18 10 19 14 20 15 21
REMARK H PARENT
REMARK Flexibility Score: inf
ROOT
ATOM      1  C   UNL     1      94.942  94.065  77.338  1.00  0.00     0.071 C 
ATOM      2  C   UNL     1      93.679  94.454  77.171  1.00  0.00     0.006 C 
ENDROOT
BRANCH   1   3
ATOM      3  C   UNL     1      95.916  95.060  77.828  1.00  0.00     0.246 C 
ATOM      4  O   UNL     1      96.387  95.847  77.006  1.00  0.00    -0.270 OA
ATOM      5  N   UNL     1      96.241  95.039  79.184  1.00  0.00    -0.339 N 
ATOM      6  C   UNL     1      97.210  96.011  79.698  1.00  0.00     0.120 C 
ATOM      7  C   UNL     1      95.734  94.088  80.184  1.00  0.00     0.120 C 
ATOM      8  C   UNL     1      96.652  96.775  80.894  1.00  0.00     0.022 C 
ATOM      9  C   UNL     1      95.168  94.816  81.403  1.00  0.00     0.022 C 
ATOM     10  C   UNL     1      96.168  95.816  81.977  1.00  0.00     0.004 C 
ENDBRANCH   1   3
BRANCH   2  11
ATOM     11  C   UNL     1      92.652  93.552  76.696  1.00  0.00     0.001 C 
ATOM     12  C   UNL     1      92.173  93.592  75.442  1.00  0.00     0.008 C 
BRANCH  12  13
ATOM     13  C   UNL     1      91.125  92.705  74.909  1.00  0.00    -0.022 A 
ATOM     14  C   UNL     1      90.384  93.119  73.810  1.00  0.00     0.058 A 
ATOM     15  C   UNL     1      90.906  91.470  75.525  1.00  0.00     0.012 A 
ATOM     16  C   UNL     1      89.415  92.253  73.348  1.00  0.00     0.166 A 
ATOM     17  C   UNL     1      89.917  90.614  75.036  1.00  0.00     0.051 A 
ATOM     18  O   UNL     1      88.587  92.474  72.290  1.00  0.00    -0.454 OA
ATOM     19  C   UNL     1      89.187  91.034  73.944  1.00  0.00     0.165 A 
ATOM     20  C   UNL     1      87.813  91.257  72.287  1.00  0.00     0.468 C 
ATOM     21  O   UNL     1      88.189  90.338  73.334  1.00  0.00    -0.454 OA
ENDBRANCH  12  13
ENDBRANCH   2  11
TORSDOF 3
ENDMDL
MODEL 3
REMARK VINA RESULT:    -7.627      1.704      2.741
REMARK INTER + INTRA:          -9.341
REMARK INTER:                  -9.004
REMARK INTRA:                  -0.337
REMARK UNBOUND:                -0.377
REMARK SMILES O=C(/C=C/C=C/c1ccc2c(c1)OCO2)N1CCCCC1
REMARK SMILES IDX 3 1 4 2 2 3 1 4 16 5 17 6 21 7 18 8 20 9 19 10 5 11 6 12
REMARK SMILES IDX 7 13 12 14 8 15 11 16 9 17 13 18 10 19 14 20 15 21
REMARK H PARENT
REMARK Flexibility Score: inf
ROOT
ATOM      1  C   UNL     1      91.432  92.285  76.858  1.00  0.00     0.071 C 
ATOM      2  C   UNL     1      92.211  93.343  76.643  1.00  0.00     0.006 C 
ENDROOT
BRANCH   1   3
ATOM      3  C   UNL     1      90.521  91.863  75.775  1.00  0.00     0.246 C 
ATOM      4  O   UNL     1      90.347  92.645  74.840  1.00  0.00    -0.270 OA
ATOM      5  N   UNL     1      89.917  90.611  75.885  1.00  0.00    -0.339 N 
ATOM      6  C   UNL     1      89.004  90.166  74.828  1.00  0.00     0.120 C 
ATOM      7  C   UNL     1      90.066  89.670  77.006  1.00  0.00     0.120 C 
ATOM      8  C   UNL     1      89.395  88.793  74.295  1.00  0.00     0.022 C 
ATOM      9  C   UNL     1      90.455  88.278  76.510  1.00  0.00     0.022 C 
ATOM     10  C   UNL     1      89.503  87.777  75.428  1.00  0.00     0.004 C 
ENDBRANCH   1   3
BRANCH   2  11
ATOM     11  C   UNL     1      93.136  93.833  77.644  1.00  0.00     0.001 C 
ATOM     12  C   UNL     1      94.391  94.210  77.351  1.00  0.00     0.008 C 
BRANCH  12  13
ATOM     13  C   UNL     1      95.373  94.706  78.329  1.00  0.00    -0.022 A 
ATOM     14  C   UNL     1      96.449  95.462  77.882  1.00  0.00     0.058 A 
ATOM     15  C   UNL     1      95.196  94.403  79.681  1.00  0.00     0.012 A 
ATOM     16  C   UNL     1      97.342  95.905  78.835  1.00  0.00     0.166 A 
ATOM     17  C   UNL     1      96.116  94.865  80.625  1.00  0.00     0.051 A 
ATOM     18  O   UNL     1      98.454  96.654  78.600  1.00  0.00    -0.454 OA
ATOM     19  C   UNL     1      97.180  95.615  80.171  1.00  0.00     0.165 A 
ATOM     20  C   UNL     1      98.974  96.802  79.937  1.00  0.00     0.468 C 
ATOM     21  O   UNL     1      98.171  96.145  80.939  1.00  0.00    -0.454 OA
ENDBRANCH  12  13
ENDBRANCH   2  11
TORSDOF 3
ENDMDL
MODEL 4
REMARK VINA RESULT:    -7.393      2.710      9.195
REMARK INTER + INTRA:          -9.066
REMARK INTER:                  -8.739
REMARK INTRA:                  -0.327
REMARK UNBOUND:                -0.377
REMARK SMILES O=C(/C=C/C=C/c1ccc2c(c1)OCO2)N1CCCCC1
REMARK SMILES IDX 3 1 4 2 2 3 1 4 16 5 17 6 21 7 18 8 20 9 19 10 5 11 6 12
REMARK SMILES IDX 7 13 12 14 8 15 11 16 9 17 13 18 10 19 14 20 15 21
REMARK H PARENT
REMARK Flexibility Score: inf
ROOT
ATOM      1  C   UNL     1      94.864  94.488  78.080  1.00  0.00     0.071 C 
ATOM      2  C   UNL     1      93.605  94.053  78.107  1.00  0.00     0.006 C 
ENDROOT
BRANCH   1   3
ATOM      3  C   UNL     1      95.535  94.750  79.369  1.00  0.00     0.246 C 
ATOM      4  O   UNL     1      95.113  94.156  80.362  1.00  0.00    -0.270 OA
ATOM      5  N   UNL     1      96.597  95.653  79.377  1.00  0.00    -0.339 N 
ATOM      6  C   UNL     1      97.280  95.937  80.642  1.00  0.00     0.120 C 
ATOM      7  C   UNL     1      97.100  96.414  78.223  1.00  0.00     0.120 C 
ATOM      8  C   UNL     1      98.787  95.743  80.518  1.00  0.00     0.022 C 
ATOM      9  C   UNL     1      98.611  96.247  78.066  1.00  0.00     0.022 C 
ATOM     10  C   UNL     1      99.351  96.564  79.362  1.00  0.00     0.004 C 
ENDBRANCH   1   3
BRANCH   2  11
ATOM     11  C   UNL     1      92.864  93.770  76.897  1.00  0.00     0.001 C 
ATOM     12  C   UNL     1      91.777  92.981  76.878  1.00  0.00     0.008 C 
BRANCH  12  13
ATOM     13  C   UNL     1      90.992  92.653  75.676  1.00  0.00    -0.022 A 
ATOM     14  C   UNL     1      90.125  91.569  75.711  1.00  0.00     0.058 A 
ATOM     15  C   UNL     1      91.141  93.443  74.533  1.00  0.00     0.012 A 
ATOM     16  C   UNL     1      89.411  91.303  74.561  1.00  0.00     0.166 A 
ATOM     17  C   UNL     1      90.406  93.149  73.383  1.00  0.00     0.051 A 
ATOM     18  O   UNL     1      88.516  90.290  74.394  1.00  0.00    -0.454 OA
ATOM     19  C   UNL     1      89.547  92.071  73.427  1.00  0.00     0.165 A 
ATOM     20  C   UNL     1      88.105  90.508  73.029  1.00  0.00     0.468 C 
ATOM     21  O   UNL     1      88.756  91.637  72.409  1.00  0.00    -0.454 OA
ENDBRANCH  12  13
ENDBRANCH   2  11
TORSDOF 3
ENDMDL
MODEL 5
REMARK VINA RESULT:    -7.238      1.352      2.079
REMARK INTER + INTRA:          -8.884
REMARK INTER:                  -8.590
REMARK INTRA:                  -0.294
REMARK UNBOUND:                -0.377
REMARK SMILES O=C(/C=C/C=C/c1ccc2c(c1)OCO2)N1CCCCC1
REMARK SMILES IDX 3 1 4 2 2 3 1 4 16 5 17 6 21 7 18 8 20 9 19 10 5 11 6 12
REMARK SMILES IDX 7 13 12 14 8 15 11 16 9 17 13 18 10 19 14 20 15 21
REMARK H PARENT
REMARK Flexibility Score: inf
ROOT
ATOM      1  C   UNL     1      90.960  93.195  76.610  1.00  0.00     0.071 C 
ATOM      2  C   UNL     1      92.224  92.928  76.936  1.00  0.00     0.006 C 
ENDROOT
BRANCH   1   3
ATOM      3  C   UNL     1      90.085  92.064  76.241  1.00  0.00     0.246 C 
ATOM      4  O   UNL     1      89.573  91.419  77.157  1.00  0.00    -0.270 OA
ATOM      5  N   UNL     1      89.901  91.800  74.885  1.00  0.00    -0.339 N 
ATOM      6  C   UNL     1      89.041  90.681  74.488  1.00  0.00     0.120 C 
ATOM      7  C   UNL     1      90.529  92.519  73.767  1.00  0.00     0.120 C 
ATOM      8  C   UNL     1      87.970  91.124  73.498  1.00  0.00     0.022 C 
ATOM      9  C   UNL     1      89.486  92.978  72.748  1.00  0.00     0.022 C 
ATOM     10  C   UNL     1      88.594  91.825  72.295  1.00  0.00     0.004 C 
ENDBRANCH   1   3
BRANCH   2  11
ATOM     11  C   UNL     1      93.157  93.969  77.311  1.00  0.00     0.001 C 
ATOM     12  C   UNL     1      94.235  93.737  78.078  1.00  0.00     0.008 C 
BRANCH  12  13
ATOM     13  C   UNL     1      95.210  94.758  78.495  1.00  0.00    -0.022 A 
ATOM     14  C   UNL     1      96.063  95.305  77.546  1.00  0.00     0.058 A 
ATOM     15  C   UNL     1      95.252  95.148  79.836  1.00  0.00     0.012 A 
ATOM     16  C   UNL     1      96.959  96.259  77.985  1.00  0.00     0.166 A 
ATOM     17  C   UNL     1      96.169  96.115  80.253  1.00  0.00     0.051 A 
ATOM     18  O   UNL     1      97.873  96.909  77.214  1.00  0.00    -0.454 OA
ATOM     19  C   UNL     1      97.011  96.653  79.302  1.00  0.00     0.165 A 
ATOM     20  C   UNL     1      98.506  97.757  78.194  1.00  0.00     0.468 C 
ATOM     21  O   UNL     1      97.963  97.599  79.521  1.00  0.00    -0.454 OA
ENDBRANCH  12  13
ENDBRANCH   2  11
TORSDOF 3
ENDMDL
MODEL 6
REMARK VINA RESULT:    -6.972     12.310     13.944
REMARK INTER + INTRA:          -8.572
REMARK INTER:                  -8.245
REMARK INTRA:                  -0.326
REMARK UNBOUND:                -0.377
REMARK SMILES O=C(/C=C/C=C/c1ccc2c(c1)OCO2)N1CCCCC1
REMARK SMILES IDX 3 1 4 2 2 3 1 4 16 5 17 6 21 7 18 8 20 9 19 10 5 11 6 12
REMARK SMILES IDX 7 13 12 14 8 15 11 16 9 17 13 18 10 19 14 20 15 21
REMARK H PARENT
REMARK Flexibility Score: inf
ROOT
ATOM      1  C   UNL     1      96.186  83.650  84.043  1.00  0.00     0.071 C 
ATOM      2  C   UNL     1      96.571  82.636  83.270  1.00  0.00     0.006 C 
ENDROOT
BRANCH   1   3
ATOM      3  C   UNL     1      95.520  83.335  85.323  1.00  0.00     0.246 C 
ATOM      4  O   UNL     1      95.585  82.173  85.726  1.00  0.00    -0.270 OA
ATOM      5  N   UNL     1      94.860  84.369  85.984  1.00  0.00    -0.339 N 
ATOM      6  C   UNL     1      94.185  84.085  87.254  1.00  0.00     0.120 C 
ATOM      7  C   UNL     1      94.723  85.755  85.512  1.00  0.00     0.120 C 
ATOM      8  C   UNL     1      94.632  85.046  88.350  1.00  0.00     0.022 C 
ATOM      9  C   UNL     1      95.159  86.751  86.586  1.00  0.00     0.022 C 
ATOM     10  C   UNL     1      94.450  86.496  87.913  1.00  0.00     0.004 C 
ENDBRANCH   1   3
BRANCH   2  11
ATOM     11  C   UNL     1      97.231  82.845  81.999  1.00  0.00     0.001 C 
ATOM     12  C   UNL     1      96.786  82.305  80.853  1.00  0.00     0.008 C 
BRANCH  12  13
ATOM     13  C   UNL     1      97.422  82.478  79.536  1.00  0.00    -0.022 A 
ATOM     14  C   UNL     1      96.620  82.610  78.410  1.00  0.00     0.058 A 
ATOM     15  C   UNL     1      98.817  82.506  79.455  1.00  0.00     0.012 A 
ATOM     16  C   UNL     1      97.262  82.770  77.199  1.00  0.00     0.166 A 
ATOM     17  C   UNL     1      99.441  82.669  78.216  1.00  0.00     0.051 A 
ATOM     18  O   UNL     1      96.657  82.913  75.988  1.00  0.00    -0.454 OA
ATOM     19  C   UNL     1      98.635  82.799  77.104  1.00  0.00     0.165 A 
ATOM     20  C   UNL     1      97.803  83.036  75.121  1.00  0.00     0.468 C 
ATOM     21  O   UNL     1      99.061  82.964  75.823  1.00  0.00    -0.454 OA
ENDBRANCH  12  13
ENDBRANCH   2  11
TORSDOF 3
ENDMDL
MODEL 7
REMARK VINA RESULT:    -6.965      3.761      8.123
REMARK INTER + INTRA:          -8.563
REMARK INTER:                  -8.164
REMARK INTRA:                  -0.399
REMARK UNBOUND:                -0.377
REMARK SMILES O=C(/C=C/C=C/c1ccc2c(c1)OCO2)N1CCCCC1
REMARK SMILES IDX 3 1 4 2 2 3 1 4 16 5 17 6 21 7 18 8 20 9 19 10 5 11 6 12
REMARK SMILES IDX 7 13 12 14 8 15 11 16 9 17 13 18 10 19 14 20 15 21
REMARK H PARENT
REMARK Flexibility Score: inf
ROOT
ATOM      1  C   UNL     1      95.306  96.032  75.324  1.00  0.00     0.071 C 
ATOM      2  C   UNL     1      95.350  94.746  74.981  1.00  0.00     0.006 C 
ENDROOT
BRANCH   1   3
ATOM      3  C   UNL     1      96.236  96.961  74.652  1.00  0.00     0.246 C 
ATOM      4  O   UNL     1      97.436  96.846  74.903  1.00  0.00    -0.270 OA
ATOM      5  N   UNL     1      95.694  97.909  73.785  1.00  0.00    -0.339 N 
ATOM      6  C   UNL     1      96.592  98.849  73.108  1.00  0.00     0.120 C 
ATOM      7  C   UNL     1      94.266  98.106  73.496  1.00  0.00     0.120 C 
ATOM      8  C   UNL     1      96.369  98.844  71.600  1.00  0.00     0.022 C 
ATOM      9  C   UNL     1      94.002  98.111  71.991  1.00  0.00     0.022 C 
ATOM     10  C   UNL     1      94.904  99.103  71.263  1.00  0.00     0.004 C 
ENDBRANCH   1   3
BRANCH   2  11
ATOM     11  C   UNL     1      94.478  93.759  75.583  1.00  0.00     0.001 C 
ATOM     12  C   UNL     1      93.141  93.810  75.478  1.00  0.00     0.008 C 
BRANCH  12  13
ATOM     13  C   UNL     1      92.209  92.839  76.076  1.00  0.00    -0.022 A 
ATOM     14  C   UNL     1      91.806  91.740  75.330  1.00  0.00     0.058 A 
ATOM     15  C   UNL     1      91.756  93.050  77.381  1.00  0.00     0.012 A 
ATOM     16  C   UNL     1      90.933  90.859  75.933  1.00  0.00     0.166 A 
ATOM     17  C   UNL     1      90.872  92.142  77.968  1.00  0.00     0.051 A 
ATOM     18  O   UNL     1      90.423  89.729  75.370  1.00  0.00    -0.454 OA
ATOM     19  C   UNL     1      90.478  91.054  77.217  1.00  0.00     0.165 A 
ATOM     20  C   UNL     1      89.597  89.235  76.444  1.00  0.00     0.468 C 
ATOM     21  O   UNL     1      89.627  90.071  77.620  1.00  0.00    -0.454 OA
ENDBRANCH  12  13
ENDBRANCH   2  11
TORSDOF 3
ENDMDL
MODEL 8
REMARK VINA RESULT:    -6.864     21.903     25.578
REMARK INTER + INTRA:          -8.445
REMARK INTER:                  -8.126
REMARK INTRA:                  -0.320
REMARK UNBOUND:                -0.377
REMARK SMILES O=C(/C=C/C=C/c1ccc2c(c1)OCO2)N1CCCCC1
REMARK SMILES IDX 3 1 4 2 2 3 1 4 16 5 17 6 21 7 18 8 20 9 19 10 5 11 6 12
REMARK SMILES IDX 7 13 12 14 8 15 11 16 9 17 13 18 10 19 14 20 15 21
REMARK H PARENT
REMARK Flexibility Score: inf
ROOT
ATOM      1  C   UNL     1      83.902  68.879  72.085  1.00  0.00     0.071 C 
ATOM      2  C   UNL     1      85.198  69.052  71.830  1.00  0.00     0.006 C 
ENDROOT
BRANCH   1   3
ATOM      3  C   UNL     1      83.515  67.800  73.015  1.00  0.00     0.246 C 
ATOM      4  O   UNL     1      84.030  67.801  74.134  1.00  0.00    -0.270 OA
ATOM      5  N   UNL     1      82.599  66.851  72.564  1.00  0.00    -0.339 N 
ATOM      6  C   UNL     1      82.200  65.764  73.464  1.00  0.00     0.120 C 
ATOM      7  C   UNL     1      81.999  66.791  71.223  1.00  0.00     0.120 C 
ATOM      8  C   UNL     1      80.683  65.671  73.585  1.00  0.00     0.022 C 
ATOM      9  C   UNL     1      80.475  66.693  71.303  1.00  0.00     0.022 C 
ATOM     10  C   UNL     1      80.031  65.551  72.211  1.00  0.00     0.004 C 
ENDBRANCH   1   3
BRANCH   2  11
ATOM     11  C   UNL     1      85.675  70.083  70.932  1.00  0.00     0.001 C 
ATOM     12  C   UNL     1      86.787  69.944  70.193  1.00  0.00     0.008 C 
BRANCH  12  13
ATOM     13  C   UNL     1      87.321  70.962  69.272  1.00  0.00    -0.022 A 
ATOM     14  C   UNL     1      88.532  71.572  69.567  1.00  0.00     0.058 A 
ATOM     15  C   UNL     1      86.592  71.286  68.125  1.00  0.00     0.012 A 
ATOM     16  C   UNL     1      88.991  72.518  68.674  1.00  0.00     0.166 A 
ATOM     17  C   UNL     1      87.080  72.248  67.237  1.00  0.00     0.051 A 
ATOM     18  O   UNL     1      90.150  73.225  68.785  1.00  0.00    -0.454 OA
ATOM     19  C   UNL     1      88.285  72.847  67.540  1.00  0.00     0.165 A 
ATOM     20  C   UNL     1      90.092  74.035  67.593  1.00  0.00     0.468 C 
ATOM     21  O   UNL     1      88.911  73.801  66.799  1.00  0.00    -0.454 OA
ENDBRANCH  12  13
ENDBRANCH   2  11
TORSDOF 3
ENDMDL
MODEL 9
REMARK VINA RESULT:    -6.584     12.751     13.573
REMARK INTER + INTRA:          -8.116
REMARK INTER:                  -7.743
REMARK INTRA:                  -0.372
REMARK UNBOUND:                -0.377
REMARK SMILES O=C(/C=C/C=C/c1ccc2c(c1)OCO2)N1CCCCC1
REMARK SMILES IDX 3 1 4 2 2 3 1 4 16 5 17 6 21 7 18 8 20 9 19 10 5 11 6 12
REMARK SMILES IDX 7 13 12 14 8 15 11 16 9 17 13 18 10 19 14 20 15 21
REMARK H PARENT
REMARK Flexibility Score: inf
ROOT
ATOM      1  C   UNL     1      97.038  81.849  77.593  1.00  0.00     0.071 C 
ATOM      2  C   UNL     1      96.908  82.789  78.527  1.00  0.00     0.006 C 
ENDROOT
BRANCH   1   3
ATOM      3  C   UNL     1      97.491  82.262  76.250  1.00  0.00     0.246 C 
ATOM      4  O   UNL     1      96.655  82.761  75.496  1.00  0.00    -0.270 OA
ATOM      5  N   UNL     1      98.831  82.055  75.924  1.00  0.00    -0.339 N 
ATOM      6  C   UNL     1      99.309  82.451  74.596  1.00  0.00     0.120 C 
ATOM      7  C   UNL     1      99.846  81.422  76.779  1.00  0.00     0.120 C 
ATOM      8  C   UNL     1     100.534  83.353  74.690  1.00  0.00     0.022 C 
ATOM      9  C   UNL     1     101.094  82.297  76.897  1.00  0.00     0.022 C 
ATOM     10  C   UNL     1     101.631  82.700  75.526  1.00  0.00     0.004 C 
ENDBRANCH   1   3
BRANCH   2  11
ATOM     11  C   UNL     1      96.470  82.482  79.872  1.00  0.00     0.001 C 
ATOM     12  C   UNL     1      97.205  82.768  80.959  1.00  0.00     0.008 C 
BRANCH  12  13
ATOM     13  C   UNL     1      96.812  82.470  82.346  1.00  0.00    -0.022 A 
ATOM     14  C   UNL     1      96.604  83.521  83.229  1.00  0.00     0.058 A 
ATOM     15  C   UNL     1      96.658  81.138  82.736  1.00  0.00     0.012 A 
ATOM     16  C   UNL     1      96.236  83.192  84.518  1.00  0.00     0.166 A 
ATOM     17  C   UNL     1      96.286  80.833  84.047  1.00  0.00     0.051 A 
ATOM     18  O   UNL     1      95.989  84.073  85.527  1.00  0.00    -0.454 OA
ATOM     19  C   UNL     1      96.081  81.884  84.917  1.00  0.00     0.165 A 
ATOM     20  C   UNL     1      95.661  83.172  86.604  1.00  0.00     0.468 C 
ATOM     21  O   UNL     1      95.718  81.782  86.224  1.00  0.00    -0.454 OA
ENDBRANCH  12  13
ENDBRANCH   2  11
TORSDOF 3
ENDMDL
MODEL 10
REMARK VINA RESULT:    -6.555     13.021     14.460
REMARK INTER + INTRA:          -8.082
REMARK INTER:                  -7.728
REMARK INTRA:                  -0.354
REMARK UNBOUND:                -0.377
REMARK SMILES O=C(/C=C/C=C/c1ccc2c(c1)OCO2)N1CCCCC1
REMARK SMILES IDX 3 1 4 2 2 3 1 4 16 5 17 6 21 7 18 8 20 9 19 10 5 11 6 12
REMARK SMILES IDX 7 13 12 14 8 15 11 16 9 17 13 18 10 19 14 20 15 21
REMARK H PARENT
REMARK Flexibility Score: inf
ROOT
ATOM      1  C   UNL     1      95.687  81.758  83.894  1.00  0.00     0.071 C 
ATOM      2  C   UNL     1      96.582  82.420  83.162  1.00  0.00     0.006 C 
ENDROOT
BRANCH   1   3
ATOM      3  C   UNL     1      95.298  82.328  85.199  1.00  0.00     0.246 C 
ATOM      4  O   UNL     1      96.083  83.112  85.734  1.00  0.00    -0.270 OA
ATOM      5  N   UNL     1      94.073  81.939  85.739  1.00  0.00    -0.339 N 
ATOM      6  C   UNL     1      93.662  82.484  87.036  1.00  0.00     0.120 C 
ATOM      7  C   UNL     1      93.132  80.973  85.151  1.00  0.00     0.120 C 
ATOM      8  C   UNL     1      92.271  83.104  86.964  1.00  0.00     0.022 C 
ATOM      9  C   UNL     1      91.722  81.557  85.065  1.00  0.00     0.022 C 
ATOM     10  C   UNL     1      91.257  82.108  86.411  1.00  0.00     0.004 C 
ENDBRANCH   1   3
BRANCH   2  11
ATOM     11  C   UNL     1      97.026  81.941  81.871  1.00  0.00     0.001 C 
ATOM     12  C   UNL     1      96.722  82.564  80.721  1.00  0.00     0.008 C 
BRANCH  12  13
ATOM     13  C   UNL     1      97.140  82.116  79.382  1.00  0.00    -0.022 A 
ATOM     14  C   UNL     1      96.628  82.760  78.263  1.00  0.00     0.058 A 
ATOM     15  C   UNL     1      98.042  81.055  79.273  1.00  0.00     0.012 A 
ATOM     16  C   UNL     1      97.050  82.305  77.031  1.00  0.00     0.166 A 
ATOM     17  C   UNL     1      98.452  80.614  78.013  1.00  0.00     0.051 A 
ATOM     18  O   UNL     1      96.664  82.800  75.823  1.00  0.00    -0.454 OA
ATOM     19  C   UNL     1      97.937  81.261  76.909  1.00  0.00     0.165 A 
ATOM     20  C   UNL     1      97.409  81.950  74.927  1.00  0.00     0.468 C 
ATOM     21  O   UNL     1      98.219  80.971  75.609  1.00  0.00    -0.454 OA
ENDBRANCH  12  13
ENDBRANCH   2  11
TORSDOF 3
ENDMDL
