MODEL 1
REMARK VINA RESULT:    -7.440      0.000      0.000
REMARK INTER + INTRA:          -9.086
REMARK INTER:                  -8.745
REMARK INTRA:                  -0.341
REMARK UNBOUND:                -0.341
REMARK SMILES O=C(/C=C/C=C/c1ccc2c(c1)OCO2)N1CCCCC1
REMARK SMILES IDX 3 1 4 2 2 3 1 4 16 5 17 6 21 7 18 8 20 9 19 10 5 11 6 12
REMARK SMILES IDX 7 13 12 14 8 15 11 16 9 17 13 18 10 19 14 20 15 21
REMARK H PARENT
REMARK Flexibility Score: inf
ROOT
ATOM      1  C   UNL     1      96.405  82.358  82.718  1.00  0.00     0.071 C 
ATOM      2  C   UNL     1      96.920  81.712  81.674  1.00  0.00     0.006 C 
ENDROOT
BRANCH   1   3
ATOM      3  C   UNL     1      96.671  81.821  84.067  1.00  0.00     0.246 C 
ATOM      4  O   UNL     1      97.838  81.828  84.462  1.00  0.00    -0.270 OA
ATOM      5  N   UNL     1      95.588  81.339  84.800  1.00  0.00    -0.339 N 
ATOM      6  C   UNL     1      95.822  80.794  86.141  1.00  0.00     0.120 C 
ATOM      7  C   UNL     1      94.191  81.273  84.345  1.00  0.00     0.120 C 
ATOM      8  C   UNL     1      94.914  81.452  87.175  1.00  0.00     0.022 C 
ATOM      9  C   UNL     1      93.248  81.921  85.359  1.00  0.00     0.022 C 
ATOM     10  C   UNL     1      93.450  81.352  86.760  1.00  0.00     0.004 C 
ENDBRANCH   1   3
BRANCH   2  11
ATOM     11  C   UNL     1      96.714  82.161  80.313  1.00  0.00     0.001 C 
ATOM     12  C   UNL     1      97.380  81.643  79.268  1.00  0.00     0.008 C 
BRANCH  12  13
ATOM     13  C   UNL     1      97.215  82.067  77.868  1.00  0.00    -0.022 A 
ATOM     14  C   UNL     1      98.237  81.819  76.962  1.00  0.00     0.058 A 
ATOM     15  C   UNL     1      96.034  82.709  77.489  1.00  0.00     0.012 A 
ATOM     16  C   UNL     1      98.037  82.235  75.662  1.00  0.00     0.166 A 
ATOM     17  C   UNL     1      95.857  83.120  76.166  1.00  0.00     0.051 A 
ATOM     18  O   UNL     1      98.914  82.085  74.632  1.00  0.00    -0.454 OA
ATOM     19  C   UNL     1      96.878  82.868  75.274  1.00  0.00     0.165 A 
ATOM     20  C   UNL     1      98.178  82.695  73.553  1.00  0.00     0.468 C 
ATOM     21  O   UNL     1      96.885  83.194  73.953  1.00  0.00    -0.454 OA
ENDBRANCH  12  13
ENDBRANCH   2  11
TORSDOF 3
ENDMDL
MODEL 2
REMARK VINA RESULT:    -7.338      2.804      9.208
REMARK INTER + INTRA:          -8.966
REMARK INTER:                  -8.607
REMARK INTRA:                  -0.359
REMARK UNBOUND:                -0.341
REMARK SMILES O=C(/C=C/C=C/c1ccc2c(c1)OCO2)N1CCCCC1
REMARK SMILES IDX 3 1 4 2 2 3 1 4 16 5 17 6 21 7 18 8 20 9 19 10 5 11 6 12
REMARK SMILES IDX 7 13 12 14 8 15 11 16 9 17 13 18 10 19 14 20 15 21
REMARK H PARENT
REMARK Flexibility Score: inf
ROOT
ATOM      1  C   UNL     1      97.267  81.625  78.865  1.00  0.00     0.071 C 
ATOM      2  C   UNL     1      97.646  81.140  80.046  1.00  0.00     0.006 C 
ENDROOT
BRANCH   1   3
ATOM      3  C   UNL     1      98.173  81.436  77.714  1.00  0.00     0.246 C 
ATOM      4  O   UNL     1      99.130  80.675  77.861  1.00  0.00    -0.270 OA
ATOM      5  N   UNL     1      97.888  82.135  76.542  1.00  0.00    -0.339 N 
ATOM      6  C   UNL     1      98.772  81.972  75.384  1.00  0.00     0.120 C 
ATOM      7  C   UNL     1      96.783  83.085  76.343  1.00  0.00     0.120 C 
ATOM      8  C   UNL     1      97.987  81.591  74.133  1.00  0.00     0.022 C 
ATOM      9  C   UNL     1      95.973  82.738  75.094  1.00  0.00     0.022 C 
ATOM     10  C   UNL     1      96.866  82.591  73.866  1.00  0.00     0.004 C 
ENDBRANCH   1   3
BRANCH   2  11
ATOM     11  C   UNL     1      96.827  81.276  81.232  1.00  0.00     0.001 C 
ATOM     12  C   UNL     1      96.749  82.417  81.934  1.00  0.00     0.008 C 
BRANCH  12  13
ATOM     13  C   UNL     1      95.940  82.607  83.150  1.00  0.00    -0.022 A 
ATOM     14  C   UNL     1      95.895  83.862  83.743  1.00  0.00     0.058 A 
ATOM     15  C   UNL     1      95.239  81.518  83.674  1.00  0.00     0.012 A 
ATOM     16  C   UNL     1      95.123  83.990  84.879  1.00  0.00     0.166 A 
ATOM     17  C   UNL     1      94.465  81.676  84.826  1.00  0.00     0.051 A 
ATOM     18  O   UNL     1      94.952  85.130  85.603  1.00  0.00    -0.454 OA
ATOM     19  C   UNL     1      94.427  82.927  85.407  1.00  0.00     0.165 A 
ATOM     20  C   UNL     1      94.070  84.665  86.644  1.00  0.00     0.468 C 
ATOM     21  O   UNL     1      93.733  83.267  86.526  1.00  0.00    -0.454 OA
ENDBRANCH  12  13
ENDBRANCH   2  11
TORSDOF 3
ENDMDL
MODEL 3
REMARK VINA RESULT:    -7.078      1.920      2.564
REMARK INTER + INTRA:          -8.660
REMARK INTER:                  -8.349
REMARK INTRA:                  -0.311
REMARK UNBOUND:                -0.341
REMARK SMILES O=C(/C=C/C=C/c1ccc2c(c1)OCO2)N1CCCCC1
REMARK SMILES IDX 3 1 4 2 2 3 1 4 16 5 17 6 21 7 18 8 20 9 19 10 5 11 6 12
REMARK SMILES IDX 7 13 12 14 8 15 11 16 9 17 13 18 10 19 14 20 15 21
REMARK H PARENT
REMARK Flexibility Score: inf
ROOT
ATOM      1  C   UNL     1      95.671  82.619  83.676  1.00  0.00     0.071 C 
ATOM      2  C   UNL     1      96.328  81.844  82.815  1.00  0.00     0.006 C 
ENDROOT
BRANCH   1   3
ATOM      3  C   UNL     1      95.631  82.204  85.092  1.00  0.00     0.246 C 
ATOM      4  O   UNL     1      96.066  81.086  85.371  1.00  0.00    -0.270 OA
ATOM      5  N   UNL     1      95.100  83.102  86.017  1.00  0.00    -0.339 N 
ATOM      6  C   UNL     1      95.042  82.716  87.431  1.00  0.00     0.120 C 
ATOM      7  C   UNL     1      94.531  84.424  85.717  1.00  0.00     0.120 C 
ATOM      8  C   UNL     1      95.693  83.768  88.322  1.00  0.00     0.022 C 
ATOM      9  C   UNL     1      95.156  85.508  86.595  1.00  0.00     0.022 C 
ATOM     10  C   UNL     1      95.084  85.145  88.076  1.00  0.00     0.004 C 
ENDBRANCH   1   3
BRANCH   2  11
ATOM     11  C   UNL     1      96.422  82.167  81.407  1.00  0.00     0.001 C 
ATOM     12  C   UNL     1      97.135  81.431  80.539  1.00  0.00     0.008 C 
BRANCH  12  13
ATOM     13  C   UNL     1      97.271  81.718  79.101  1.00  0.00    -0.022 A 
ATOM     14  C   UNL     1      96.273  82.437  78.458  1.00  0.00     0.058 A 
ATOM     15  C   UNL     1      98.403  81.258  78.423  1.00  0.00     0.012 A 
ATOM     16  C   UNL     1      96.446  82.681  77.111  1.00  0.00     0.166 A 
ATOM     17  C   UNL     1      98.552  81.519  77.059  1.00  0.00     0.051 A 
ATOM     18  O   UNL     1      95.584  83.362  76.307  1.00  0.00    -0.454 OA
ATOM     19  C   UNL     1      97.555  82.235  76.430  1.00  0.00     0.165 A 
ATOM     20  C   UNL     1      96.276  83.295  75.043  1.00  0.00     0.468 C 
ATOM     21  O   UNL     1      97.528  82.581  75.114  1.00  0.00    -0.454 OA
ENDBRANCH  12  13
ENDBRANCH   2  11
TORSDOF 3
ENDMDL
MODEL 4
REMARK VINA RESULT:    -6.876     13.506     16.988
REMARK INTER + INTRA:          -8.423
REMARK INTER:                  -8.020
REMARK INTRA:                  -0.403
REMARK UNBOUND:                -0.341
REMARK SMILES O=C(/C=C/C=C/c1ccc2c(c1)OCO2)N1CCCCC1
REMARK SMILES IDX 3 1 4 2 2 3 1 4 16 5 17 6 21 7 18 8 20 9 19 10 5 11 6 12
REMARK SMILES IDX 7 13 12 14 8 15 11 16 9 17 13 18 10 19 14 20 15 21
REMARK H PARENT
REMARK Flexibility Score: inf
ROOT
ATOM      1  C   UNL     1      96.106  96.500  74.109  1.00  0.00     0.071 C 
ATOM      2  C   UNL     1      95.687  96.780  75.341  1.00  0.00     0.006 C 
ENDROOT
BRANCH   1   3
ATOM      3  C   UNL     1      97.199  97.316  73.544  1.00  0.00     0.246 C 
ATOM      4  O   UNL     1      98.115  97.641  74.301  1.00  0.00    -0.270 OA
ATOM      5  N   UNL     1      97.119  97.667  72.198  1.00  0.00    -0.339 N 
ATOM      6  C   UNL     1      98.188  98.481  71.610  1.00  0.00     0.120 C 
ATOM      7  C   UNL     1      96.022  97.336  71.277  1.00  0.00     0.120 C 
ATOM      8  C   UNL     1      98.753  97.834  70.351  1.00  0.00     0.022 C 
ATOM      9  C   UNL     1      96.550  96.687  69.997  1.00  0.00     0.022 C 
ATOM     10  C   UNL     1      97.645  97.528  69.348  1.00  0.00     0.004 C 
ENDBRANCH   1   3
BRANCH   2  11
ATOM     11  C   UNL     1      94.621  96.037  75.979  1.00  0.00     0.001 C 
ATOM     12  C   UNL     1      93.846  95.164  75.316  1.00  0.00     0.008 C 
BRANCH  12  13
ATOM     13  C   UNL     1      92.745  94.389  75.913  1.00  0.00    -0.022 A 
ATOM     14  C   UNL     1      92.466  93.122  75.419  1.00  0.00     0.058 A 
ATOM     15  C   UNL     1      92.011  94.951  76.960  1.00  0.00     0.012 A 
ATOM     16  C   UNL     1      91.426  92.435  76.011  1.00  0.00     0.166 A 
ATOM     17  C   UNL     1      90.963  94.233  77.541  1.00  0.00     0.051 A 
ATOM     18  O   UNL     1      90.998  91.187  75.672  1.00  0.00    -0.454 OA
ATOM     19  C   UNL     1      90.694  92.975  77.044  1.00  0.00     0.165 A 
ATOM     20  C   UNL     1      89.915  91.004  76.607  1.00  0.00     0.468 C 
ATOM     21  O   UNL     1      89.717  92.135  77.481  1.00  0.00    -0.454 OA
ENDBRANCH  12  13
ENDBRANCH   2  11
TORSDOF 3
ENDMDL
MODEL 5
REMARK VINA RESULT:    -6.865      2.028      2.236
REMARK INTER + INTRA:          -8.410
REMARK INTER:                  -7.975
REMARK INTRA:                  -0.435
REMARK UNBOUND:                -0.341
REMARK SMILES O=C(/C=C/C=C/c1ccc2c(c1)OCO2)N1CCCCC1
REMARK SMILES IDX 3 1 4 2 2 3 1 4 16 5 17 6 21 7 18 8 20 9 19 10 5 11 6 12
REMARK SMILES IDX 7 13 12 14 8 15 11 16 9 17 13 18 10 19 14 20 15 21
REMARK H PARENT
REMARK Flexibility Score: inf
ROOT
ATOM      1  C   UNL     1      97.845  80.868  82.185  1.00  0.00     0.071 C 
ATOM      2  C   UNL     1      96.898  81.747  81.860  1.00  0.00     0.006 C 
ENDROOT
BRANCH   1   3
ATOM      3  C   UNL     1      98.001  80.509  83.608  1.00  0.00     0.246 C 
ATOM      4  O   UNL     1      98.547  81.331  84.346  1.00  0.00    -0.270 OA
ATOM      5  N   UNL     1      97.526  79.265  84.021  1.00  0.00    -0.339 N 
ATOM      6  C   UNL     1      97.672  78.879  85.427  1.00  0.00     0.120 C 
ATOM      7  C   UNL     1      96.911  78.242  83.162  1.00  0.00     0.120 C 
ATOM      8  C   UNL     1      96.339  78.441  86.026  1.00  0.00     0.022 C 
ATOM      9  C   UNL     1      95.572  77.774  83.732  1.00  0.00     0.022 C 
ATOM     10  C   UNL     1      95.700  77.338  85.189  1.00  0.00     0.004 C 
ENDBRANCH   1   3
BRANCH   2  11
ATOM     11  C   UNL     1      96.669  82.161  80.492  1.00  0.00     0.001 C 
ATOM     12  C   UNL     1      97.376  81.678  79.459  1.00  0.00     0.008 C 
BRANCH  12  13
ATOM     13  C   UNL     1      97.191  82.070  78.051  1.00  0.00    -0.022 A 
ATOM     14  C   UNL     1      98.212  81.829  77.143  1.00  0.00     0.058 A 
ATOM     15  C   UNL     1      95.990  82.674  77.669  1.00  0.00     0.012 A 
ATOM     16  C   UNL     1      97.991  82.214  75.836  1.00  0.00     0.166 A 
ATOM     17  C   UNL     1      95.793  83.053  76.340  1.00  0.00     0.051 A 
ATOM     18  O   UNL     1      98.865  82.067  74.802  1.00  0.00    -0.454 OA
ATOM     19  C   UNL     1      96.814  82.810  75.445  1.00  0.00     0.165 A 
ATOM     20  C   UNL     1      98.105  82.637  73.717  1.00  0.00     0.468 C 
ATOM     21  O   UNL     1      96.803  83.110  74.118  1.00  0.00    -0.454 OA
ENDBRANCH  12  13
ENDBRANCH   2  11
TORSDOF 3
ENDMDL
MODEL 6
REMARK VINA RESULT:    -6.805     24.272     26.452
REMARK INTER + INTRA:          -8.340
REMARK INTER:                  -7.970
REMARK INTRA:                  -0.370
REMARK UNBOUND:                -0.341
REMARK SMILES O=C(/C=C/C=C/c1ccc2c(c1)OCO2)N1CCCCC1
REMARK SMILES IDX 3 1 4 2 2 3 1 4 16 5 17 6 21 7 18 8 20 9 19 10 5 11 6 12
REMARK SMILES IDX 7 13 12 14 8 15 11 16 9 17 13 18 10 19 14 20 15 21
REMARK H PARENT
REMARK Flexibility Score: inf
ROOT
ATOM      1  C   UNL     1      76.461  85.961  66.315  1.00  0.00     0.071 C 
ATOM      2  C   UNL     1      77.254  86.567  67.196  1.00  0.00     0.006 C 
ENDROOT
BRANCH   1   3
ATOM      3  C   UNL     1      76.757  84.556  65.967  1.00  0.00     0.246 C 
ATOM      4  O   UNL     1      77.879  84.127  66.238  1.00  0.00    -0.270 OA
ATOM      5  N   UNL     1      75.750  83.814  65.351  1.00  0.00    -0.339 N 
ATOM      6  C   UNL     1      76.016  82.419  64.989  1.00  0.00     0.120 C 
ATOM      7  C   UNL     1      74.417  84.305  64.972  1.00  0.00     0.120 C 
ATOM      8  C   UNL     1      74.948  81.485  65.548  1.00  0.00     0.022 C 
ATOM      9  C   UNL     1      73.317  83.391  65.512  1.00  0.00     0.022 C 
ATOM     10  C   UNL     1      73.553  81.934  65.125  1.00  0.00     0.004 C 
ENDBRANCH   1   3
BRANCH   2  11
ATOM     11  C   UNL     1      77.045  87.941  67.601  1.00  0.00     0.001 C 
ATOM     12  C   UNL     1      75.829  88.510  67.641  1.00  0.00     0.008 C 
BRANCH  12  13
ATOM     13  C   UNL     1      75.562  89.903  68.036  1.00  0.00    -0.022 A 
ATOM     14  C   UNL     1      75.635  90.904  67.076  1.00  0.00     0.058 A 
ATOM     15  C   UNL     1      75.241  90.180  69.367  1.00  0.00     0.012 A 
ATOM     16  C   UNL     1      75.375  92.193  67.494  1.00  0.00     0.166 A 
ATOM     17  C   UNL     1      74.983  91.495  69.763  1.00  0.00     0.051 A 
ATOM     18  O   UNL     1      75.398  93.306  66.710  1.00  0.00    -0.454 OA
ATOM     19  C   UNL     1      75.058  92.481  68.802  1.00  0.00     0.165 A 
ATOM     20  C   UNL     1      75.058  94.326  67.671  1.00  0.00     0.468 C 
ATOM     21  O   UNL     1      74.842  93.810  69.001  1.00  0.00    -0.454 OA
ENDBRANCH  12  13
ENDBRANCH   2  11
TORSDOF 3
ENDMDL
MODEL 7
REMARK VINA RESULT:    -6.360     23.890     25.970
REMARK INTER + INTRA:          -7.816
REMARK INTER:                  -7.429
REMARK INTRA:                  -0.387
REMARK UNBOUND:                -0.341
REMARK SMILES O=C(/C=C/C=C/c1ccc2c(c1)OCO2)N1CCCCC1
REMARK SMILES IDX 3 1 4 2 2 3 1 4 16 5 17 6 21 7 18 8 20 9 19 10 5 11 6 12
REMARK SMILES IDX 7 13 12 14 8 15 11 16 9 17 13 18 10 19 14 20 15 21
REMARK H PARENT
REMARK Flexibility Score: inf
ROOT
ATOM      1  C   UNL     1      75.166  91.106  69.422  1.00  0.00     0.071 C 
ATOM      2  C   UNL     1      74.331  90.069  69.407  1.00  0.00     0.006 C 
ENDROOT
BRANCH   1   3
ATOM      3  C   UNL     1      74.730  92.340  70.104  1.00  0.00     0.246 C 
ATOM      4  O   UNL     1      74.347  92.241  71.270  1.00  0.00    -0.270 OA
ATOM      5  N   UNL     1      74.775  93.532  69.382  1.00  0.00    -0.339 N 
ATOM      6  C   UNL     1      74.343  94.774  70.031  1.00  0.00     0.120 C 
ATOM      7  C   UNL     1      75.182  93.683  67.977  1.00  0.00     0.120 C 
ATOM      8  C   UNL     1      75.407  95.860  69.920  1.00  0.00     0.022 C 
ATOM      9  C   UNL     1      76.247  94.768  67.823  1.00  0.00     0.022 C 
ATOM     10  C   UNL     1      75.812  96.082  68.466  1.00  0.00     0.004 C 
ENDBRANCH   1   3
BRANCH   2  11
ATOM     11  C   UNL     1      74.669  88.817  68.764  1.00  0.00     0.001 C 
ATOM     12  C   UNL     1      75.897  88.552  68.292  1.00  0.00     0.008 C 
BRANCH  12  13
ATOM     13  C   UNL     1      76.293  87.301  67.623  1.00  0.00    -0.022 A 
ATOM     14  C   UNL     1      75.899  87.083  66.309  1.00  0.00     0.058 A 
ATOM     15  C   UNL     1      77.054  86.366  68.329  1.00  0.00     0.012 A 
ATOM     16  C   UNL     1      76.294  85.897  65.726  1.00  0.00     0.166 A 
ATOM     17  C   UNL     1      77.439  85.173  67.714  1.00  0.00     0.051 A 
ATOM     18  O   UNL     1      76.010  85.500  64.455  1.00  0.00    -0.454 OA
ATOM     19  C   UNL     1      77.044  84.967  66.409  1.00  0.00     0.165 A 
ATOM     20  C   UNL     1      76.665  84.216  64.415  1.00  0.00     0.468 C 
ATOM     21  O   UNL     1      77.323  83.871  65.652  1.00  0.00    -0.454 OA
ENDBRANCH  12  13
ENDBRANCH   2  11
TORSDOF 3
ENDMDL
MODEL 8
REMARK VINA RESULT:    -6.192     18.130     19.413
REMARK INTER + INTRA:          -7.619
REMARK INTER:                  -7.253
REMARK INTRA:                  -0.366
REMARK UNBOUND:                -0.341
REMARK SMILES O=C(/C=C/C=C/c1ccc2c(c1)OCO2)N1CCCCC1
REMARK SMILES IDX 3 1 4 2 2 3 1 4 16 5 17 6 21 7 18 8 20 9 19 10 5 11 6 12
REMARK SMILES IDX 7 13 12 14 8 15 11 16 9 17 13 18 10 19 14 20 15 21
REMARK H PARENT
REMARK Flexibility Score: inf
ROOT
ATOM      1  C   UNL     1      84.671  68.972  71.545  1.00  0.00     0.071 C 
ATOM      2  C   UNL     1      85.243  70.105  71.947  1.00  0.00     0.006 C 
ENDROOT
BRANCH   1   3
ATOM      3  C   UNL     1      83.898  68.194  72.534  1.00  0.00     0.246 C 
ATOM      4  O   UNL     1      83.922  68.579  73.704  1.00  0.00    -0.270 OA
ATOM      5  N   UNL     1      83.200  67.077  72.080  1.00  0.00    -0.339 N 
ATOM      6  C   UNL     1      82.429  66.281  73.040  1.00  0.00     0.120 C 
ATOM      7  C   UNL     1      83.184  66.562  70.703  1.00  0.00     0.120 C 
ATOM      8  C   UNL     1      80.987  66.096  72.579  1.00  0.00     0.022 C 
ATOM      9  C   UNL     1      81.753  66.359  70.205  1.00  0.00     0.022 C 
ATOM     10  C   UNL     1      80.934  65.509  71.172  1.00  0.00     0.004 C 
ENDBRANCH   1   3
BRANCH   2  11
ATOM     11  C   UNL     1      86.020  70.935  71.051  1.00  0.00     0.001 C 
ATOM     12  C   UNL     1      87.054  70.462  70.336  1.00  0.00     0.008 C 
BRANCH  12  13
ATOM     13  C   UNL     1      87.881  71.263  69.417  1.00  0.00    -0.022 A 
ATOM     14  C   UNL     1      89.162  71.630  69.808  1.00  0.00     0.058 A 
ATOM     15  C   UNL     1      87.354  71.631  68.177  1.00  0.00     0.012 A 
ATOM     16  C   UNL     1      89.898  72.379  68.913  1.00  0.00     0.166 A 
ATOM     17  C   UNL     1      88.121  72.390  67.291  1.00  0.00     0.051 A 
ATOM     18  O   UNL     1      91.166  72.836  69.109  1.00  0.00    -0.454 OA
ATOM     19  C   UNL     1      89.392  72.750  67.688  1.00  0.00     0.165 A 
ATOM     20  C   UNL     1      91.400  73.535  67.869  1.00  0.00     0.468 C 
ATOM     21  O   UNL     1      90.279  73.484  66.963  1.00  0.00    -0.454 OA
ENDBRANCH  12  13
ENDBRANCH   2  11
TORSDOF 3
ENDMDL
MODEL 9
REMARK VINA RESULT:    -6.123     14.285     17.906
REMARK INTER + INTRA:          -7.537
REMARK INTER:                  -7.158
REMARK INTRA:                  -0.379
REMARK UNBOUND:                -0.341
REMARK SMILES O=C(/C=C/C=C/c1ccc2c(c1)OCO2)N1CCCCC1
REMARK SMILES IDX 3 1 4 2 2 3 1 4 16 5 17 6 21 7 18 8 20 9 19 10 5 11 6 12
REMARK SMILES IDX 7 13 12 14 8 15 11 16 9 17 13 18 10 19 14 20 15 21
REMARK H PARENT
REMARK Flexibility Score: inf
ROOT
ATOM      1  C   UNL     1      97.199  97.459  73.468  1.00  0.00     0.071 C 
ATOM      2  C   UNL     1      96.802  97.834  74.683  1.00  0.00     0.006 C 
ENDROOT
BRANCH   1   3
ATOM      3  C   UNL     1      97.973  98.423  72.662  1.00  0.00     0.246 C 
ATOM      4  O   UNL     1      98.456  99.394  73.245  1.00  0.00    -0.270 OA
ATOM      5  N   UNL     1      98.101  98.174  71.296  1.00  0.00    -0.339 N 
ATOM      6  C   UNL     1      98.860  99.117  70.469  1.00  0.00     0.120 C 
ATOM      7  C   UNL     1      97.502  97.052  70.558  1.00  0.00     0.120 C 
ATOM      8  C   UNL     1      99.936  98.405  69.657  1.00  0.00     0.022 C 
ATOM      9  C   UNL     1      98.552  96.314  69.727  1.00  0.00     0.022 C 
ATOM     10  C   UNL     1      99.338  97.269  68.834  1.00  0.00     0.004 C 
ENDBRANCH   1   3
BRANCH   2  11
ATOM     11  C   UNL     1      96.039  96.958  75.547  1.00  0.00     0.001 C 
ATOM     12  C   UNL     1      94.846  96.451  75.196  1.00  0.00     0.008 C 
BRANCH  12  13
ATOM     13  C   UNL     1      94.025  95.564  76.038  1.00  0.00    -0.022 A 
ATOM     14  C   UNL     1      92.746  95.227  75.618  1.00  0.00     0.058 A 
ATOM     15  C   UNL     1      94.558  95.086  77.238  1.00  0.00     0.012 A 
ATOM     16  C   UNL     1      92.016  94.394  76.440  1.00  0.00     0.166 A 
ATOM     17  C   UNL     1      93.796  94.243  78.051  1.00  0.00     0.051 A 
ATOM     18  O   UNL     1      90.749  93.952  76.207  1.00  0.00    -0.454 OA
ATOM     19  C   UNL     1      92.527  93.915  77.625  1.00  0.00     0.165 A 
ATOM     20  C   UNL     1      90.521  93.141  77.377  1.00  0.00     0.468 C 
ATOM     21  O   UNL     1      91.645  93.113  78.282  1.00  0.00    -0.454 OA
ENDBRANCH  12  13
ENDBRANCH   2  11
TORSDOF 3
ENDMDL
MODEL 10
REMARK VINA RESULT:    -6.084      3.143      9.133
REMARK INTER + INTRA:          -7.492
REMARK INTER:                  -7.111
REMARK INTRA:                  -0.381
REMARK UNBOUND:                -0.341
REMARK SMILES O=C(/C=C/C=C/c1ccc2c(c1)OCO2)N1CCCCC1
REMARK SMILES IDX 3 1 4 2 2 3 1 4 16 5 17 6 21 7 18 8 20 9 19 10 5 11 6 12
REMARK SMILES IDX 7 13 12 14 8 15 11 16 9 17 13 18 10 19 14 20 15 21
REMARK H PARENT
REMARK Flexibility Score: inf
ROOT
ATOM      1  C   UNL     1      97.123  80.834  80.663  1.00  0.00     0.071 C 
ATOM      2  C   UNL     1      96.714  80.197  81.758  1.00  0.00     0.006 C 
ENDROOT
BRANCH   1   3
ATOM      3  C   UNL     1      97.795  80.046  79.611  1.00  0.00     0.246 C 
ATOM      4  O   UNL     1      98.176  78.913  79.904  1.00  0.00    -0.270 OA
ATOM      5  N   UNL     1      97.957  80.639  78.359  1.00  0.00    -0.339 N 
ATOM      6  C   UNL     1      98.625  79.883  77.296  1.00  0.00     0.120 C 
ATOM      7  C   UNL     1      97.556  82.003  77.985  1.00  0.00     0.120 C 
ATOM      8  C   UNL     1      97.779  79.839  76.028  1.00  0.00     0.022 C 
ATOM      9  C   UNL     1      96.707  82.001  76.714  1.00  0.00     0.022 C 
ATOM     10  C   UNL     1      97.392  81.245  75.579  1.00  0.00     0.004 C 
ENDBRANCH   1   3
BRANCH   2  11
ATOM     11  C   UNL     1      96.046  80.883  82.844  1.00  0.00     0.001 C 
ATOM     12  C   UNL     1      96.175  82.202  83.058  1.00  0.00     0.008 C 
BRANCH  12  13
ATOM     13  C   UNL     1      95.526  82.948  84.150  1.00  0.00    -0.022 A 
ATOM     14  C   UNL     1      94.900  82.244  85.169  1.00  0.00     0.058 A 
ATOM     15  C   UNL     1      95.559  84.344  84.129  1.00  0.00     0.012 A 
ATOM     16  C   UNL     1      94.307  82.987  86.170  1.00  0.00     0.166 A 
ATOM     17  C   UNL     1      94.951  85.071  85.155  1.00  0.00     0.051 A 
ATOM     18  O   UNL     1      93.646  82.486  87.250  1.00  0.00    -0.454 OA
ATOM     19  C   UNL     1      94.332  84.362  86.163  1.00  0.00     0.165 A 
ATOM     20  C   UNL     1      93.258  83.702  87.922  1.00  0.00     0.468 C 
ATOM     21  O   UNL     1      93.690  84.896  87.238  1.00  0.00    -0.454 OA
ENDBRANCH  12  13
ENDBRANCH   2  11
TORSDOF 3
ENDMDL
