MODEL 1
REMARK VINA RESULT:    -5.339      0.000      0.000
REMARK INTER + INTRA:         -10.402
REMARK INTER:                  -8.772
REMARK INTRA:                  -1.630
REMARK UNBOUND:                -1.630
REMARK SMILES CCCCC[C@H](O)CC(=O)CCc1ccc(O)c(OC)c1
REMARK SMILES IDX 8 1 6 2 7 3 5 5 4 6 3 7 2 8 1 9 9 10 10 11 11 12 12 13 13 14
REMARK SMILES IDX 21 15 14 16 18 17 15 18 16 19 19 20 20 21 17 22
REMARK H PARENT 7 4 17 23
REMARK Flexibility Score: inf
ROOT
ATOM      1  C   UNL     1      77.386  84.853  66.458  1.00  0.00     0.107 C 
ENDROOT
BRANCH   1   2
ATOM      2  C   UNL     1      77.131  84.825  67.967  1.00  0.00     0.121 C 
BRANCH   2   3
ATOM      3  O   UNL     1      77.442  86.096  68.534  1.00  0.00    -0.393 OA
ATOM      4  H   UNL     1      77.180  86.076  69.471  1.00  0.00     0.210 HD
ENDBRANCH   2   3
BRANCH   2   5
ATOM      5  C   UNL     1      75.688  84.452  68.325  1.00  0.00     0.032 C 
BRANCH   5   6
ATOM      6  C   UNL     1      75.017  85.519  69.199  1.00  0.00     0.003 C 
BRANCH   6   7
ATOM      7  C   UNL     1      73.880  86.259  68.487  1.00  0.00    -0.000 C 
BRANCH   7   8
ATOM      8  C   UNL     1      73.609  87.653  69.052  1.00  0.00    -0.003 C 
ATOM      9  C   UNL     1      74.747  88.611  68.733  1.00  0.00     0.004 C 
ENDBRANCH   7   8
ENDBRANCH   6   7
ENDBRANCH   5   6
ENDBRANCH   2   5
ENDBRANCH   1   2
BRANCH   1  10
ATOM     10  C   UNL     1      76.546  85.891  65.732  1.00  0.00     0.135 C 
ATOM     11  O   UNL     1      76.529  87.064  66.104  1.00  0.00    -0.300 OA
BRANCH  10  12
ATOM     12  C   UNL     1      75.778  85.412  64.509  1.00  0.00     0.080 C 
BRANCH  12  13
ATOM     13  C   UNL     1      76.070  83.960  64.129  1.00  0.00     0.043 C 
BRANCH  13  14
ATOM     14  C   UNL     1      74.909  83.032  64.398  1.00  0.00    -0.044 A 
ATOM     15  C   UNL     1      73.805  83.032  63.546  1.00  0.00     0.054 A 
ATOM     16  C   UNL     1      74.941  82.176  65.499  1.00  0.00     0.008 A 
ATOM     17  C   UNL     1      72.733  82.174  63.795  1.00  0.00     0.160 A 
ATOM     18  C   UNL     1      73.870  81.318  65.748  1.00  0.00     0.050 A 
ATOM     19  C   UNL     1      72.765  81.318  64.896  1.00  0.00     0.157 A 
BRANCH  17  20
ATOM     20  O   UNL     1      71.659  82.183  62.956  1.00  0.00    -0.493 OA
ATOM     21  C   UNL     1      70.719  83.243  63.118  1.00  0.00     0.278 C 
ENDBRANCH  17  20
BRANCH  19  22
ATOM     22  O   UNL     1      71.725  80.476  65.149  1.00  0.00    -0.504 OA
ATOM     23  H   UNL     1      70.955  80.758  64.626  1.00  0.00     0.293 HD
ENDBRANCH  19  22
ENDBRANCH  13  14
ENDBRANCH  12  13
ENDBRANCH  10  12
ENDBRANCH   1  10
TORSDOF 12
ENDMDL
MODEL 2
REMARK VINA RESULT:    -5.278      2.014      3.084
REMARK INTER + INTRA:         -10.302
REMARK INTER:                  -8.835
REMARK INTRA:                  -1.467
REMARK UNBOUND:                -1.630
REMARK SMILES CCCCC[C@H](O)CC(=O)CCc1ccc(O)c(OC)c1
REMARK SMILES IDX 8 1 6 2 7 3 5 5 4 6 3 7 2 8 1 9 9 10 10 11 11 12 12 13 13 14
REMARK SMILES IDX 21 15 14 16 18 17 15 18 16 19 19 20 20 21 17 22
REMARK H PARENT 7 4 17 23
REMARK Flexibility Score: inf
ROOT
ATOM      1  C   UNL     1      77.145  86.429  68.039  1.00  0.00     0.107 C 
ENDROOT
BRANCH   1   2
ATOM      2  C   UNL     1      75.802  87.158  67.964  1.00  0.00     0.121 C 
BRANCH   2   3
ATOM      3  O   UNL     1      74.916  86.643  68.956  1.00  0.00    -0.393 OA
ATOM      4  H   UNL     1      74.007  86.747  68.626  1.00  0.00     0.210 HD
ENDBRANCH   2   3
BRANCH   2   5
ATOM      5  C   UNL     1      75.932  88.676  68.143  1.00  0.00     0.032 C 
BRANCH   5   6
ATOM      6  C   UNL     1      76.795  89.313  67.048  1.00  0.00     0.003 C 
BRANCH   6   7
ATOM      7  C   UNL     1      75.989  89.769  65.828  1.00  0.00    -0.000 C 
BRANCH   7   8
ATOM      8  C   UNL     1      76.372  89.047  64.537  1.00  0.00    -0.003 C 
ATOM      9  C   UNL     1      75.595  87.749  64.376  1.00  0.00     0.004 C 
ENDBRANCH   7   8
ENDBRANCH   6   7
ENDBRANCH   5   6
ENDBRANCH   2   5
ENDBRANCH   1   2
BRANCH   1  10
ATOM     10  C   UNL     1      77.002  84.915  68.045  1.00  0.00     0.135 C 
ATOM     11  O   UNL     1      76.446  84.336  68.978  1.00  0.00    -0.300 OA
BRANCH  10  12
ATOM     12  C   UNL     1      77.536  84.175  66.829  1.00  0.00     0.080 C 
BRANCH  12  13
ATOM     13  C   UNL     1      76.695  84.376  65.567  1.00  0.00     0.043 C 
BRANCH  13  14
ATOM     14  C   UNL     1      75.474  83.488  65.522  1.00  0.00    -0.044 A 
ATOM     15  C   UNL     1      74.210  84.028  65.756  1.00  0.00     0.054 A 
ATOM     16  C   UNL     1      75.613  82.128  65.244  1.00  0.00     0.008 A 
ATOM     17  C   UNL     1      73.083  83.206  65.713  1.00  0.00     0.160 A 
ATOM     18  C   UNL     1      74.486  81.307  65.201  1.00  0.00     0.050 A 
ATOM     19  C   UNL     1      73.221  81.846  65.436  1.00  0.00     0.157 A 
BRANCH  17  20
ATOM     20  O   UNL     1      71.853  83.744  65.945  1.00  0.00    -0.493 OA
ATOM     21  C   UNL     1      71.249  84.466  64.873  1.00  0.00     0.278 C 
ENDBRANCH  17  20
BRANCH  19  22
ATOM     22  O   UNL     1      72.128  81.034  65.391  1.00  0.00    -0.504 OA
ATOM     23  H   UNL     1      72.370  80.158  65.737  1.00  0.00     0.293 HD
ENDBRANCH  19  22
ENDBRANCH  13  14
ENDBRANCH  12  13
ENDBRANCH  10  12
ENDBRANCH   1  10
TORSDOF 12
ENDMDL
MODEL 3
REMARK VINA RESULT:    -5.267      3.751      6.201
REMARK INTER + INTRA:         -10.283
REMARK INTER:                  -8.482
REMARK INTRA:                  -1.801
REMARK UNBOUND:                -1.630
REMARK SMILES CCCCC[C@H](O)CC(=O)CCc1ccc(O)c(OC)c1
REMARK SMILES IDX 8 1 6 2 7 3 5 5 4 6 3 7 2 8 1 9 9 10 10 11 11 12 12 13 13 14
REMARK SMILES IDX 21 15 14 16 18 17 15 18 16 19 19 20 20 21 17 22
REMARK H PARENT 7 4 17 23
REMARK Flexibility Score: inf
ROOT
ATOM      1  C   UNL     1      77.536  85.848  67.431  1.00  0.00     0.107 C 
ENDROOT
BRANCH   1   2
ATOM      2  C   UNL     1      76.821  84.605  66.894  1.00  0.00     0.121 C 
BRANCH   2   3
ATOM      3  O   UNL     1      77.769  83.566  66.659  1.00  0.00    -0.393 OA
ATOM      4  H   UNL     1      78.657  83.936  66.803  1.00  0.00     0.210 HD
ENDBRANCH   2   3
BRANCH   2   5
ATOM      5  C   UNL     1      75.727  84.088  67.835  1.00  0.00     0.032 C 
BRANCH   5   6
ATOM      6  C   UNL     1      75.894  84.624  69.263  1.00  0.00     0.003 C 
BRANCH   6   7
ATOM      7  C   UNL     1      74.630  85.292  69.811  1.00  0.00    -0.000 C 
BRANCH   7   8
ATOM      8  C   UNL     1      74.212  86.540  69.036  1.00  0.00    -0.003 C 
ATOM      9  C   UNL     1      72.802  86.403  68.482  1.00  0.00     0.004 C 
ENDBRANCH   7   8
ENDBRANCH   6   7
ENDBRANCH   5   6
ENDBRANCH   2   5
ENDBRANCH   1   2
BRANCH   1  10
ATOM     10  C   UNL     1      77.065  87.136  66.776  1.00  0.00     0.135 C 
ATOM     11  O   UNL     1      76.354  87.112  65.771  1.00  0.00    -0.300 OA
BRANCH  10  12
ATOM     12  C   UNL     1      77.479  88.435  67.450  1.00  0.00     0.080 C 
BRANCH  12  13
ATOM     13  C   UNL     1      76.710  89.659  66.951  1.00  0.00     0.043 C 
BRANCH  13  14
ATOM     14  C   UNL     1      75.403  89.874  67.677  1.00  0.00    -0.044 A 
ATOM     15  C   UNL     1      74.199  89.827  66.975  1.00  0.00     0.054 A 
ATOM     16  C   UNL     1      75.402  90.121  69.050  1.00  0.00     0.008 A 
ATOM     17  C   UNL     1      72.993  90.025  67.648  1.00  0.00     0.160 A 
ATOM     18  C   UNL     1      74.196  90.319  69.723  1.00  0.00     0.050 A 
ATOM     19  C   UNL     1      72.991  90.271  69.021  1.00  0.00     0.157 A 
BRANCH  17  20
ATOM     20  O   UNL     1      71.822  89.977  66.952  1.00  0.00    -0.493 OA
ATOM     21  C   UNL     1      71.905  90.118  65.535  1.00  0.00     0.278 C 
ENDBRANCH  17  20
BRANCH  19  22
ATOM     22  O   UNL     1      71.820  90.466  69.688  1.00  0.00    -0.504 OA
ATOM     23  H   UNL     1      71.623  89.676  70.220  1.00  0.00     0.293 HD
ENDBRANCH  19  22
ENDBRANCH  13  14
ENDBRANCH  12  13
ENDBRANCH  10  12
ENDBRANCH   1  10
TORSDOF 12
ENDMDL
MODEL 4
REMARK VINA RESULT:    -5.244     23.923     27.006
REMARK INTER + INTRA:         -10.246
REMARK INTER:                  -9.242
REMARK INTRA:                  -1.004
REMARK UNBOUND:                -1.630
REMARK SMILES CCCCC[C@H](O)CC(=O)CCc1ccc(O)c(OC)c1
REMARK SMILES IDX 8 1 6 2 7 3 5 5 4 6 3 7 2 8 1 9 9 10 10 11 11 12 12 13 13 14
REMARK SMILES IDX 21 15 14 16 18 17 15 18 16 19 19 20 20 21 17 22
REMARK H PARENT 7 4 17 23
REMARK Flexibility Score: inf
ROOT
ATOM      1  C   UNL     1      96.793  81.867  75.965  1.00  0.00     0.107 C 
ENDROOT
BRANCH   1   2
ATOM      2  C   UNL     1      96.427  82.960  74.958  1.00  0.00     0.121 C 
BRANCH   2   3
ATOM      3  O   UNL     1      96.490  84.238  75.587  1.00  0.00    -0.393 OA
ATOM      4  H   UNL     1      96.012  84.871  75.023  1.00  0.00     0.210 HD
ENDBRANCH   2   3
BRANCH   2   5
ATOM      5  C   UNL     1      97.330  82.961  73.719  1.00  0.00     0.032 C 
BRANCH   5   6
ATOM      6  C   UNL     1      98.669  82.261  73.981  1.00  0.00     0.003 C 
BRANCH   6   7
ATOM      7  C   UNL     1      99.846  83.233  74.112  1.00  0.00    -0.000 C 
BRANCH   7   8
ATOM      8  C   UNL     1      99.738  84.453  73.200  1.00  0.00    -0.003 C 
ATOM      9  C   UNL     1     100.215  84.135  71.791  1.00  0.00     0.004 C 
ENDBRANCH   7   8
ENDBRANCH   6   7
ENDBRANCH   5   6
ENDBRANCH   2   5
ENDBRANCH   1   2
BRANCH   1  10
ATOM     10  C   UNL     1      96.575  82.291  77.409  1.00  0.00     0.135 C 
ATOM     11  O   UNL     1      95.509  82.791  77.768  1.00  0.00    -0.300 OA
BRANCH  10  12
ATOM     12  C   UNL     1      97.717  82.022  78.378  1.00  0.00     0.080 C 
BRANCH  12  13
ATOM     13  C   UNL     1      97.612  80.674  79.092  1.00  0.00     0.043 C 
BRANCH  13  14
ATOM     14  C   UNL     1      97.648  80.797  80.597  1.00  0.00    -0.044 A 
ATOM     15  C   UNL     1      96.748  81.640  81.250  1.00  0.00     0.054 A 
ATOM     16  C   UNL     1      98.580  80.067  81.334  1.00  0.00     0.008 A 
ATOM     17  C   UNL     1      96.781  81.752  82.640  1.00  0.00     0.160 A 
ATOM     18  C   UNL     1      98.613  80.179  82.724  1.00  0.00     0.050 A 
ATOM     19  C   UNL     1      97.714  81.022  83.377  1.00  0.00     0.157 A 
BRANCH  17  20
ATOM     20  O   UNL     1      95.898  82.579  83.266  1.00  0.00    -0.493 OA
ATOM     21  C   UNL     1      96.184  83.976  83.233  1.00  0.00     0.278 C 
ENDBRANCH  17  20
BRANCH  19  22
ATOM     22  O   UNL     1      97.756  81.123  84.735  1.00  0.00    -0.504 OA
ATOM     23  H   UNL     1      97.681  80.234  85.121  1.00  0.00     0.293 HD
ENDBRANCH  19  22
ENDBRANCH  13  14
ENDBRANCH  12  13
ENDBRANCH  10  12
ENDBRANCH   1  10
TORSDOF 12
ENDMDL
MODEL 5
REMARK VINA RESULT:    -5.240      1.880      2.863
REMARK INTER + INTRA:         -10.240
REMARK INTER:                  -9.058
REMARK INTRA:                  -1.182
REMARK UNBOUND:                -1.630
REMARK SMILES CCCCC[C@H](O)CC(=O)CCc1ccc(O)c(OC)c1
REMARK SMILES IDX 8 1 6 2 7 3 5 5 4 6 3 7 2 8 1 9 9 10 10 11 11 12 12 13 13 14
REMARK SMILES IDX 21 15 14 16 18 17 15 18 16 19 19 20 20 21 17 22
REMARK H PARENT 7 4 17 23
REMARK Flexibility Score: inf
ROOT
ATOM      1  C   UNL     1      77.342  87.221  67.251  1.00  0.00     0.107 C 
ENDROOT
BRANCH   1   2
ATOM      2  C   UNL     1      76.483  88.066  66.308  1.00  0.00     0.121 C 
BRANCH   2   3
ATOM      3  O   UNL     1      75.254  87.395  66.040  1.00  0.00    -0.393 OA
ATOM      4  H   UNL     1      74.537  88.050  66.103  1.00  0.00     0.210 HD
ENDBRANCH   2   3
BRANCH   2   5
ATOM      5  C   UNL     1      76.184  89.465  66.860  1.00  0.00     0.032 C 
BRANCH   5   6
ATOM      6  C   UNL     1      76.075  89.470  68.390  1.00  0.00     0.003 C 
BRANCH   6   7
ATOM      7  C   UNL     1      74.643  89.270  68.897  1.00  0.00    -0.000 C 
BRANCH   7   8
ATOM      8  C   UNL     1      74.131  90.424  69.756  1.00  0.00    -0.003 C 
ATOM      9  C   UNL     1      75.144  91.556  69.824  1.00  0.00     0.004 C 
ENDBRANCH   7   8
ENDBRANCH   6   7
ENDBRANCH   5   6
ENDBRANCH   2   5
ENDBRANCH   1   2
BRANCH   1  10
ATOM     10  C   UNL     1      76.672  85.919  67.661  1.00  0.00     0.135 C 
ATOM     11  O   UNL     1      75.683  85.920  68.394  1.00  0.00    -0.300 OA
BRANCH  10  12
ATOM     12  C   UNL     1      77.258  84.640  67.084  1.00  0.00     0.080 C 
BRANCH  12  13
ATOM     13  C   UNL     1      76.809  84.349  65.651  1.00  0.00     0.043 C 
BRANCH  13  14
ATOM     14  C   UNL     1      75.572  83.485  65.582  1.00  0.00    -0.044 A 
ATOM     15  C   UNL     1      74.309  84.062  65.719  1.00  0.00     0.054 A 
ATOM     16  C   UNL     1      75.693  82.110  65.381  1.00  0.00     0.008 A 
ATOM     17  C   UNL     1      73.168  83.263  65.654  1.00  0.00     0.160 A 
ATOM     18  C   UNL     1      74.551  81.311  65.316  1.00  0.00     0.050 A 
ATOM     19  C   UNL     1      73.289  81.888  65.453  1.00  0.00     0.157 A 
BRANCH  17  20
ATOM     20  O   UNL     1      71.940  83.838  65.790  1.00  0.00    -0.493 OA
ATOM     21  C   UNL     1      71.869  85.044  66.549  1.00  0.00     0.278 C 
ENDBRANCH  17  20
BRANCH  19  22
ATOM     22  O   UNL     1      72.181  81.098  65.388  1.00  0.00    -0.504 OA
ATOM     23  H   UNL     1      71.474  81.498  65.923  1.00  0.00     0.293 HD
ENDBRANCH  19  22
ENDBRANCH  13  14
ENDBRANCH  12  13
ENDBRANCH  10  12
ENDBRANCH   1  10
TORSDOF 12
ENDMDL
MODEL 6
REMARK VINA RESULT:    -5.205     20.422     23.837
REMARK INTER + INTRA:         -10.182
REMARK INTER:                  -8.332
REMARK INTRA:                  -1.850
REMARK UNBOUND:                -1.630
REMARK SMILES CCCCC[C@H](O)CC(=O)CCc1ccc(O)c(OC)c1
REMARK SMILES IDX 8 1 6 2 7 3 5 5 4 6 3 7 2 8 1 9 9 10 10 11 11 12 12 13 13 14
REMARK SMILES IDX 21 15 14 16 18 17 15 18 16 19 19 20 20 21 17 22
REMARK H PARENT 7 4 17 23
REMARK Flexibility Score: inf
ROOT
ATOM      1  C   UNL     1      88.254  99.610  67.862  1.00  0.00     0.107 C 
ENDROOT
BRANCH   1   2
ATOM      2  C   UNL     1      88.800  98.218  67.533  1.00  0.00     0.121 C 
BRANCH   2   3
ATOM      3  O   UNL     1      89.502  98.256  66.293  1.00  0.00    -0.393 OA
ATOM      4  H   UNL     1      90.307  97.716  66.390  1.00  0.00     0.210 HD
ENDBRANCH   2   3
BRANCH   2   5
ATOM      5  C   UNL     1      89.727  97.664  68.621  1.00  0.00     0.032 C 
BRANCH   5   6
ATOM      6  C   UNL     1      89.993  98.690  69.730  1.00  0.00     0.003 C 
BRANCH   6   7
ATOM      7  C   UNL     1      91.387  99.321  69.651  1.00  0.00    -0.000 C 
BRANCH   7   8
ATOM      8  C   UNL     1      91.375 100.845  69.745  1.00  0.00    -0.003 C 
ATOM      9  C   UNL     1      92.695 101.440  69.280  1.00  0.00     0.004 C 
ENDBRANCH   7   8
ENDBRANCH   6   7
ENDBRANCH   5   6
ENDBRANCH   2   5
ENDBRANCH   1   2
BRANCH   1  10
ATOM     10  C   UNL     1      87.567 100.275  66.681  1.00  0.00     0.135 C 
ATOM     11  O   UNL     1      86.798  99.642  65.958  1.00  0.00    -0.300 OA
BRANCH  10  12
ATOM     12  C   UNL     1      87.844 101.757  66.477  1.00  0.00     0.080 C 
BRANCH  12  13
ATOM     13  C   UNL     1      89.108 102.249  67.183  1.00  0.00     0.043 C 
BRANCH  13  14
ATOM     14  C   UNL     1      90.306 102.325  66.267  1.00  0.00    -0.044 A 
ATOM     15  C   UNL     1      90.707 103.554  65.742  1.00  0.00     0.054 A 
ATOM     16  C   UNL     1      91.013 101.166  65.945  1.00  0.00     0.008 A 
ATOM     17  C   UNL     1      91.814 103.624  64.896  1.00  0.00     0.160 A 
ATOM     18  C   UNL     1      92.120 101.235  65.099  1.00  0.00     0.050 A 
ATOM     19  C   UNL     1      92.520 102.464  64.575  1.00  0.00     0.157 A 
BRANCH  17  20
ATOM     20  O   UNL     1      92.195 104.829  64.390  1.00  0.00    -0.493 OA
ATOM     21  C   UNL     1      92.531 105.850  65.328  1.00  0.00     0.278 C 
ENDBRANCH  17  20
BRANCH  19  22
ATOM     22  O   UNL     1      93.603 102.519  63.750  1.00  0.00    -0.504 OA
ATOM     23  H   UNL     1      94.410 102.567  64.290  1.00  0.00     0.293 HD
ENDBRANCH  19  22
ENDBRANCH  13  14
ENDBRANCH  12  13
ENDBRANCH  10  12
ENDBRANCH   1  10
TORSDOF 12
ENDMDL
MODEL 7
REMARK VINA RESULT:    -5.120     23.848     27.323
REMARK INTER + INTRA:         -10.043
REMARK INTER:                  -9.039
REMARK INTRA:                  -1.004
REMARK UNBOUND:                -1.630
REMARK SMILES CCCCC[C@H](O)CC(=O)CCc1ccc(O)c(OC)c1
REMARK SMILES IDX 8 1 6 2 7 3 5 5 4 6 3 7 2 8 1 9 9 10 10 11 11 12 12 13 13 14
REMARK SMILES IDX 21 15 14 16 18 17 15 18 16 19 19 20 20 21 17 22
REMARK H PARENT 7 4 17 23
REMARK Flexibility Score: inf
ROOT
ATOM      1  C   UNL     1      96.195  81.830  75.783  1.00  0.00     0.107 C 
ENDROOT
BRANCH   1   2
ATOM      2  C   UNL     1      96.424  82.881  74.693  1.00  0.00     0.121 C 
BRANCH   2   3
ATOM      3  O   UNL     1      96.818  84.115  75.288  1.00  0.00    -0.393 OA
ATOM      4  H   UNL     1      96.210  84.805  74.970  1.00  0.00     0.210 HD
ENDBRANCH   2   3
BRANCH   2   5
ATOM      5  C   UNL     1      97.479  82.457  73.664  1.00  0.00     0.032 C 
BRANCH   5   6
ATOM      6  C   UNL     1      98.779  83.257  73.807  1.00  0.00     0.003 C 
BRANCH   6   7
ATOM      7  C   UNL     1      99.831  82.557  74.673  1.00  0.00    -0.000 C 
BRANCH   7   8
ATOM      8  C   UNL     1     101.142  82.281  73.939  1.00  0.00    -0.003 C 
ATOM      9  C   UNL     1     101.798  81.003  74.439  1.00  0.00     0.004 C 
ENDBRANCH   7   8
ENDBRANCH   6   7
ENDBRANCH   5   6
ENDBRANCH   2   5
ENDBRANCH   1   2
BRANCH   1  10
ATOM     10  C   UNL     1      96.300  82.398  77.189  1.00  0.00     0.135 C 
ATOM     11  O   UNL     1      95.391  83.074  77.669  1.00  0.00    -0.300 OA
BRANCH  10  12
ATOM     12  C   UNL     1      97.556  82.047  77.973  1.00  0.00     0.080 C 
BRANCH  12  13
ATOM     13  C   UNL     1      97.405  80.804  78.851  1.00  0.00     0.043 C 
BRANCH  13  14
ATOM     14  C   UNL     1      97.426  81.116  80.329  1.00  0.00    -0.044 A 
ATOM     15  C   UNL     1      98.172  80.323  81.200  1.00  0.00     0.054 A 
ATOM     16  C   UNL     1      96.697  82.199  80.822  1.00  0.00     0.008 A 
ATOM     17  C   UNL     1      98.191  80.613  82.564  1.00  0.00     0.160 A 
ATOM     18  C   UNL     1      96.716  82.489  82.186  1.00  0.00     0.050 A 
ATOM     19  C   UNL     1      97.462  81.696  83.057  1.00  0.00     0.157 A 
BRANCH  17  20
ATOM     20  O   UNL     1      98.923  79.830  83.405  1.00  0.00    -0.493 OA
ATOM     21  C   UNL     1      98.530  78.464  83.527  1.00  0.00     0.278 C 
ENDBRANCH  17  20
BRANCH  19  22
ATOM     22  O   UNL     1      97.473  81.988  84.387  1.00  0.00    -0.504 OA
ATOM     23  H   UNL     1      97.744  82.915  84.506  1.00  0.00     0.293 HD
ENDBRANCH  19  22
ENDBRANCH  13  14
ENDBRANCH  12  13
ENDBRANCH  10  12
ENDBRANCH   1  10
TORSDOF 12
ENDMDL
MODEL 8
REMARK VINA RESULT:    -5.090      2.424      6.895
REMARK INTER + INTRA:          -9.993
REMARK INTER:                  -9.109
REMARK INTRA:                  -0.884
REMARK UNBOUND:                -1.630
REMARK SMILES CCCCC[C@H](O)CC(=O)CCc1ccc(O)c(OC)c1
REMARK SMILES IDX 8 1 6 2 7 3 5 5 4 6 3 7 2 8 1 9 9 10 10 11 11 12 12 13 13 14
REMARK SMILES IDX 21 15 14 16 18 17 15 18 16 19 19 20 20 21 17 22
REMARK H PARENT 7 4 17 23
REMARK Flexibility Score: inf
ROOT
ATOM      1  C   UNL     1      75.853  83.924  65.963  1.00  0.00     0.107 C 
ENDROOT
BRANCH   1   2
ATOM      2  C   UNL     1      76.044  83.123  64.673  1.00  0.00     0.121 C 
BRANCH   2   3
ATOM      3  O   UNL     1      76.344  81.765  64.986  1.00  0.00    -0.393 OA
ATOM      4  H   UNL     1      77.018  81.764  65.689  1.00  0.00     0.210 HD
ENDBRANCH   2   3
BRANCH   2   5
ATOM      5  C   UNL     1      74.818  83.169  63.752  1.00  0.00     0.032 C 
BRANCH   5   6
ATOM      6  C   UNL     1      73.675  82.288  64.270  1.00  0.00     0.003 C 
BRANCH   6   7
ATOM      7  C   UNL     1      73.061  81.393  63.188  1.00  0.00    -0.000 C 
BRANCH   7   8
ATOM      8  C   UNL     1      71.867  80.574  63.676  1.00  0.00    -0.003 C 
ATOM      9  C   UNL     1      71.258  81.177  64.932  1.00  0.00     0.004 C 
ENDBRANCH   7   8
ENDBRANCH   6   7
ENDBRANCH   5   6
ENDBRANCH   2   5
ENDBRANCH   1   2
BRANCH   1  10
ATOM     10  C   UNL     1      77.132  84.061  66.773  1.00  0.00     0.135 C 
ATOM     11  O   UNL     1      78.069  83.277  66.615  1.00  0.00    -0.300 OA
BRANCH  10  12
ATOM     12  C   UNL     1      77.204  85.231  67.742  1.00  0.00     0.080 C 
BRANCH  12  13
ATOM     13  C   UNL     1      77.293  86.595  67.053  1.00  0.00     0.043 C 
BRANCH  13  14
ATOM     14  C   UNL     1      76.423  87.644  67.704  1.00  0.00    -0.044 A 
ATOM     15  C   UNL     1      75.151  87.308  68.166  1.00  0.00     0.054 A 
ATOM     16  C   UNL     1      76.893  88.950  67.842  1.00  0.00     0.008 A 
ATOM     17  C   UNL     1      74.349  88.278  68.768  1.00  0.00     0.160 A 
ATOM     18  C   UNL     1      76.092  89.921  68.444  1.00  0.00     0.050 A 
ATOM     19  C   UNL     1      74.819  89.584  68.906  1.00  0.00     0.157 A 
BRANCH  17  20
ATOM     20  O   UNL     1      73.108  87.938  69.215  1.00  0.00    -0.493 OA
ATOM     21  C   UNL     1      72.064  87.875  68.245  1.00  0.00     0.278 C 
ENDBRANCH  17  20
BRANCH  19  22
ATOM     22  O   UNL     1      74.046  90.540  69.492  1.00  0.00    -0.504 OA
ATOM     23  H   UNL     1      74.613  91.278  69.774  1.00  0.00     0.293 HD
ENDBRANCH  19  22
ENDBRANCH  13  14
ENDBRANCH  12  13
ENDBRANCH  10  12
ENDBRANCH   1  10
TORSDOF 12
ENDMDL
MODEL 9
REMARK VINA RESULT:    -5.058      3.109      8.034
REMARK INTER + INTRA:          -9.941
REMARK INTER:                  -9.050
REMARK INTRA:                  -0.891
REMARK UNBOUND:                -1.630
REMARK SMILES CCCCC[C@H](O)CC(=O)CCc1ccc(O)c(OC)c1
REMARK SMILES IDX 8 1 6 2 7 3 5 5 4 6 3 7 2 8 1 9 9 10 10 11 11 12 12 13 13 14
REMARK SMILES IDX 21 15 14 16 18 17 15 18 16 19 19 20 20 21 17 22
REMARK H PARENT 7 4 17 23
REMARK Flexibility Score: inf
ROOT
ATOM      1  C   UNL     1      75.831  84.723  68.226  1.00  0.00     0.107 C 
ENDROOT
BRANCH   1   2
ATOM      2  C   UNL     1      76.950  85.173  67.285  1.00  0.00     0.121 C 
BRANCH   2   3
ATOM      3  O   UNL     1      78.035  85.705  68.042  1.00  0.00    -0.393 OA
ATOM      4  H   UNL     1      77.874  85.496  68.979  1.00  0.00     0.210 HD
ENDBRANCH   2   3
BRANCH   2   5
ATOM      5  C   UNL     1      77.469  84.043  66.386  1.00  0.00     0.032 C 
BRANCH   5   6
ATOM      6  C   UNL     1      76.946  84.164  64.949  1.00  0.00     0.003 C 
BRANCH   6   7
ATOM      7  C   UNL     1      75.636  83.404  64.715  1.00  0.00    -0.000 C 
BRANCH   7   8
ATOM      8  C   UNL     1      75.642  81.985  65.281  1.00  0.00    -0.003 C 
ATOM      9  C   UNL     1      74.255  81.570  65.748  1.00  0.00     0.004 C 
ENDBRANCH   7   8
ENDBRANCH   6   7
ENDBRANCH   5   6
ENDBRANCH   2   5
ENDBRANCH   1   2
BRANCH   1  10
ATOM     10  C   UNL     1      74.532  85.484  68.015  1.00  0.00     0.135 C 
ATOM     11  O   UNL     1      73.731  85.140  67.146  1.00  0.00    -0.300 OA
BRANCH  10  12
ATOM     12  C   UNL     1      74.264  86.650  68.954  1.00  0.00     0.080 C 
BRANCH  12  13
ATOM     13  C   UNL     1      74.730  88.001  68.407  1.00  0.00     0.043 C 
BRANCH  13  14
ATOM     14  C   UNL     1      74.197  89.174  69.194  1.00  0.00    -0.044 A 
ATOM     15  C   UNL     1      74.978  90.319  69.354  1.00  0.00     0.054 A 
ATOM     16  C   UNL     1      72.924  89.112  69.761  1.00  0.00     0.008 A 
ATOM     17  C   UNL     1      74.484  91.403  70.081  1.00  0.00     0.160 A 
ATOM     18  C   UNL     1      72.430  90.196  70.488  1.00  0.00     0.050 A 
ATOM     19  C   UNL     1      73.211  91.341  70.648  1.00  0.00     0.157 A 
BRANCH  17  20
ATOM     20  O   UNL     1      75.256  92.515  70.232  1.00  0.00    -0.493 OA
ATOM     21  C   UNL     1      75.186  93.497  69.199  1.00  0.00     0.278 C 
ENDBRANCH  17  20
BRANCH  19  22
ATOM     22  O   UNL     1      72.718  92.393  71.360  1.00  0.00    -0.504 OA
ATOM     23  H   UNL     1      71.916  92.724  70.921  1.00  0.00     0.293 HD
ENDBRANCH  19  22
ENDBRANCH  13  14
ENDBRANCH  12  13
ENDBRANCH  10  12
ENDBRANCH   1  10
TORSDOF 12
ENDMDL
MODEL 10
REMARK VINA RESULT:    -4.999      2.109      2.766
REMARK INTER + INTRA:          -9.843
REMARK INTER:                  -8.415
REMARK INTRA:                  -1.428
REMARK UNBOUND:                -1.630
REMARK SMILES CCCCC[C@H](O)CC(=O)CCc1ccc(O)c(OC)c1
REMARK SMILES IDX 8 1 6 2 7 3 5 5 4 6 3 7 2 8 1 9 9 10 10 11 11 12 12 13 13 14
REMARK SMILES IDX 21 15 14 16 18 17 15 18 16 19 19 20 20 21 17 22
REMARK H PARENT 7 4 17 23
REMARK Flexibility Score: inf
ROOT
ATOM      1  C   UNL     1      76.228  84.332  68.018  1.00  0.00     0.107 C 
ENDROOT
BRANCH   1   2
ATOM      2  C   UNL     1      76.773  85.658  68.555  1.00  0.00     0.121 C 
BRANCH   2   3
ATOM      3  O   UNL     1      77.941  86.030  67.827  1.00  0.00    -0.393 OA
ATOM      4  H   UNL     1      78.549  85.270  67.832  1.00  0.00     0.210 HD
ENDBRANCH   2   3
BRANCH   2   5
ATOM      5  C   UNL     1      75.751  86.799  68.486  1.00  0.00     0.032 C 
BRANCH   5   6
ATOM      6  C   UNL     1      76.040  87.764  67.330  1.00  0.00     0.003 C 
BRANCH   6   7
ATOM      7  C   UNL     1      75.105  87.572  66.131  1.00  0.00    -0.000 C 
BRANCH   7   8
ATOM      8  C   UNL     1      75.833  87.529  64.789  1.00  0.00    -0.003 C 
ATOM      9  C   UNL     1      76.206  88.926  64.316  1.00  0.00     0.004 C 
ENDBRANCH   7   8
ENDBRANCH   6   7
ENDBRANCH   5   6
ENDBRANCH   2   5
ENDBRANCH   1   2
BRANCH   1  10
ATOM     10  C   UNL     1      76.881  83.903  66.714  1.00  0.00     0.135 C 
ATOM     11  O   UNL     1      78.068  83.579  66.678  1.00  0.00    -0.300 OA
BRANCH  10  12
ATOM     12  C   UNL     1      75.985  83.855  65.486  1.00  0.00     0.080 C 
BRANCH  12  13
ATOM     13  C   UNL     1      75.422  82.463  65.191  1.00  0.00     0.043 C 
BRANCH  13  14
ATOM     14  C   UNL     1      73.914  82.411  65.250  1.00  0.00    -0.044 A 
ATOM     15  C   UNL     1      73.191  83.539  65.636  1.00  0.00     0.054 A 
ATOM     16  C   UNL     1      73.244  81.233  64.917  1.00  0.00     0.008 A 
ATOM     17  C   UNL     1      71.797  83.490  65.689  1.00  0.00     0.160 A 
ATOM     18  C   UNL     1      71.851  81.183  64.969  1.00  0.00     0.050 A 
ATOM     19  C   UNL     1      71.128  82.312  65.356  1.00  0.00     0.157 A 
BRANCH  17  20
ATOM     20  O   UNL     1      71.102  84.598  66.069  1.00  0.00    -0.493 OA
ATOM     21  C   UNL     1      71.015  85.664  65.125  1.00  0.00     0.278 C 
ENDBRANCH  17  20
BRANCH  19  22
ATOM     22  O   UNL     1      69.768  82.251  65.404  1.00  0.00    -0.504 OA
ATOM     23  H   UNL     1      69.400  82.881  64.761  1.00  0.00     0.293 HD
ENDBRANCH  19  22
ENDBRANCH  13  14
ENDBRANCH  12  13
ENDBRANCH  10  12
ENDBRANCH   1  10
TORSDOF 12
ENDMDL
