MODEL 1
REMARK VINA RESULT:    -8.132      0.000      0.000
REMARK INTER + INTRA:          -9.936
REMARK INTER:                  -9.558
REMARK INTRA:                  -0.378
REMARK UNBOUND:                -0.378
REMARK SMILES O=C(/C=C/C=C/c1ccc2c(c1)OCO2)N1CCCCC1
REMARK SMILES IDX 3 1 4 2 2 3 1 4 16 5 17 6 21 7 18 8 20 9 19 10 5 11 6 12
REMARK SMILES IDX 7 13 12 14 8 15 11 16 9 17 13 18 10 19 14 20 15 21
REMARK H PARENT
REMARK Flexibility Score: inf
ROOT
ATOM      1  C   UNL     1      90.973  91.615  76.091  1.00  0.00     0.071 C 
ATOM      2  C   UNL     1      90.924  92.556  77.032  1.00  0.00     0.006 C 
ENDROOT
BRANCH   1   3
ATOM      3  C   UNL     1      89.698  91.042  75.614  1.00  0.00     0.246 C 
ATOM      4  O   UNL     1      88.755  91.017  76.405  1.00  0.00    -0.270 OA
ATOM      5  N   UNL     1      89.650  90.564  74.305  1.00  0.00    -0.339 N 
ATOM      6  C   UNL     1      88.399  89.985  73.805  1.00  0.00     0.120 C 
ATOM      7  C   UNL     1      90.766  90.536  73.349  1.00  0.00     0.120 C 
ATOM      8  C   UNL     1      87.968  90.636  72.496  1.00  0.00     0.022 C 
ATOM      9  C   UNL     1      90.371  91.178  72.019  1.00  0.00     0.022 C 
ATOM     10  C   UNL     1      89.086  90.574  71.460  1.00  0.00     0.004 C 
ENDBRANCH   1   3
BRANCH   2  11
ATOM     11  C   UNL     1      92.119  93.176  77.562  1.00  0.00     0.001 C 
ATOM     12  C   UNL     1      93.124  93.605  76.781  1.00  0.00     0.008 C 
BRANCH  12  13
ATOM     13  C   UNL     1      94.363  94.234  77.267  1.00  0.00    -0.022 A 
ATOM     14  C   UNL     1      94.615  94.263  78.632  1.00  0.00     0.058 A 
ATOM     15  C   UNL     1      95.252  94.785  76.341  1.00  0.00     0.012 A 
ATOM     16  C   UNL     1      95.789  94.862  79.040  1.00  0.00     0.166 A 
ATOM     17  C   UNL     1      96.433  95.387  76.781  1.00  0.00     0.051 A 
ATOM     18  O   UNL     1      96.214  94.992  80.326  1.00  0.00    -0.454 OA
ATOM     19  C   UNL     1      96.674  95.410  78.139  1.00  0.00     0.165 A 
ATOM     20  C   UNL     1      97.466  95.682  80.134  1.00  0.00     0.468 C 
ATOM     21  O   UNL     1      97.764  95.950  78.749  1.00  0.00    -0.454 OA
ENDBRANCH  12  13
ENDBRANCH   2  11
TORSDOF 3
ENDMDL
MODEL 2
REMARK VINA RESULT:    -7.933      2.843      9.082
REMARK INTER + INTRA:          -9.702
REMARK INTER:                  -9.278
REMARK INTRA:                  -0.424
REMARK UNBOUND:                -0.378
REMARK SMILES O=C(/C=C/C=C/c1ccc2c(c1)OCO2)N1CCCCC1
REMARK SMILES IDX 3 1 4 2 2 3 1 4 16 5 17 6 21 7 18 8 20 9 19 10 5 11 6 12
REMARK SMILES IDX 7 13 12 14 8 15 11 16 9 17 13 18 10 19 14 20 15 21
REMARK H PARENT
REMARK Flexibility Score: inf
ROOT
ATOM      1  C   UNL     1      94.937  94.360  75.809  1.00  0.00     0.071 C 
ATOM      2  C   UNL     1      93.835  95.004  75.427  1.00  0.00     0.006 C 
ENDROOT
BRANCH   1   3
ATOM      3  C   UNL     1      96.071  95.161  76.312  1.00  0.00     0.246 C 
ATOM      4  O   UNL     1      96.705  95.827  75.492  1.00  0.00    -0.270 OA
ATOM      5  N   UNL     1      96.350  95.107  77.676  1.00  0.00    -0.339 N 
ATOM      6  C   UNL     1      97.474  95.887  78.204  1.00  0.00     0.120 C 
ATOM      7  C   UNL     1      95.646  94.290  78.676  1.00  0.00     0.120 C 
ATOM      8  C   UNL     1      97.040  96.767  79.371  1.00  0.00     0.022 C 
ATOM      9  C   UNL     1      95.198  95.138  79.866  1.00  0.00     0.022 C 
ATOM     10  C   UNL     1      96.355  95.940  80.454  1.00  0.00     0.004 C 
ENDBRANCH   1   3
BRANCH   2  11
ATOM     11  C   UNL     1      92.673  94.306  74.920  1.00  0.00     0.001 C 
ATOM     12  C   UNL     1      92.619  92.969  74.810  1.00  0.00     0.008 C 
BRANCH  12  13
ATOM     13  C   UNL     1      91.467  92.210  74.295  1.00  0.00    -0.022 A 
ATOM     14  C   UNL     1      90.519  92.863  73.520  1.00  0.00     0.058 A 
ATOM     15  C   UNL     1      91.360  90.850  74.601  1.00  0.00     0.012 A 
ATOM     16  C   UNL     1      89.459  92.110  73.060  1.00  0.00     0.166 A 
ATOM     17  C   UNL     1      90.276  90.112  74.122  1.00  0.00     0.051 A 
ATOM     18  O   UNL     1      88.431  92.564  72.291  1.00  0.00    -0.454 OA
ATOM     19  C   UNL     1      89.340  90.771  73.353  1.00  0.00     0.165 A 
ATOM     20  C   UNL     1      87.653  91.361  72.133  1.00  0.00     0.468 C 
ATOM     21  O   UNL     1      88.224  90.218  72.804  1.00  0.00    -0.454 OA
ENDBRANCH  12  13
ENDBRANCH   2  11
TORSDOF 3
ENDMDL
MODEL 3
REMARK VINA RESULT:    -7.547      1.644      2.170
REMARK INTER + INTRA:          -9.248
REMARK INTER:                  -8.846
REMARK INTRA:                  -0.401
REMARK UNBOUND:                -0.378
REMARK SMILES O=C(/C=C/C=C/c1ccc2c(c1)OCO2)N1CCCCC1
REMARK SMILES IDX 3 1 4 2 2 3 1 4 16 5 17 6 21 7 18 8 20 9 19 10 5 11 6 12
REMARK SMILES IDX 7 13 12 14 8 15 11 16 9 17 13 18 10 19 14 20 15 21
REMARK H PARENT
REMARK Flexibility Score: inf
ROOT
ATOM      1  C   UNL     1      91.352  93.234  75.624  1.00  0.00     0.071 C 
ATOM      2  C   UNL     1      92.391  93.810  75.022  1.00  0.00     0.006 C 
ENDROOT
BRANCH   1   3
ATOM      3  C   UNL     1      90.302  92.635  74.776  1.00  0.00     0.246 C 
ATOM      4  O   UNL     1      89.924  93.280  73.797  1.00  0.00    -0.270 OA
ATOM      5  N   UNL     1      89.808  91.384  75.141  1.00  0.00    -0.339 N 
ATOM      6  C   UNL     1      88.761  90.765  74.322  1.00  0.00     0.120 C 
ATOM      7  C   UNL     1      90.202  90.605  76.325  1.00  0.00     0.120 C 
ATOM      8  C   UNL     1      89.147  89.351  73.900  1.00  0.00     0.022 C 
ATOM      9  C   UNL     1      90.593  89.178  75.943  1.00  0.00     0.022 C 
ATOM     10  C   UNL     1      89.508  88.499  75.112  1.00  0.00     0.004 C 
ENDBRANCH   1   3
BRANCH   2  11
ATOM     11  C   UNL     1      93.468  94.425  75.767  1.00  0.00     0.001 C 
ATOM     12  C   UNL     1      93.924  93.928  76.929  1.00  0.00     0.008 C 
BRANCH  12  13
ATOM     13  C   UNL     1      95.010  94.517  77.731  1.00  0.00    -0.022 A 
ATOM     14  C   UNL     1      94.963  94.409  79.114  1.00  0.00     0.058 A 
ATOM     15  C   UNL     1      96.058  95.168  77.077  1.00  0.00     0.012 A 
ATOM     16  C   UNL     1      96.003  94.976  79.822  1.00  0.00     0.166 A 
ATOM     17  C   UNL     1      97.098  95.733  77.818  1.00  0.00     0.051 A 
ATOM     18  O   UNL     1      96.138  94.978  81.177  1.00  0.00    -0.454 OA
ATOM     19  C   UNL     1      97.042  95.620  79.192  1.00  0.00     0.165 A 
ATOM     20  C   UNL     1      97.380  95.696  81.327  1.00  0.00     0.468 C 
ATOM     21  O   UNL     1      97.959  96.107  80.072  1.00  0.00    -0.454 OA
ENDBRANCH  12  13
ENDBRANCH   2  11
TORSDOF 3
ENDMDL
MODEL 4
REMARK VINA RESULT:    -7.230      1.946      2.561
REMARK INTER + INTRA:          -8.875
REMARK INTER:                  -8.506
REMARK INTRA:                  -0.369
REMARK UNBOUND:                -0.378
REMARK SMILES O=C(/C=C/C=C/c1ccc2c(c1)OCO2)N1CCCCC1
REMARK SMILES IDX 3 1 4 2 2 3 1 4 16 5 17 6 21 7 18 8 20 9 19 10 5 11 6 12
REMARK SMILES IDX 7 13 12 14 8 15 11 16 9 17 13 18 10 19 14 20 15 21
REMARK H PARENT
REMARK Flexibility Score: inf
ROOT
ATOM      1  C   UNL     1      90.967  92.851  75.494  1.00  0.00     0.071 C 
ATOM      2  C   UNL     1      92.037  92.589  76.242  1.00  0.00     0.006 C 
ENDROOT
BRANCH   1   3
ATOM      3  C   UNL     1      89.954  91.789  75.335  1.00  0.00     0.246 C 
ATOM      4  O   UNL     1      89.218  91.557  76.295  1.00  0.00    -0.270 OA
ATOM      5  N   UNL     1      89.901  91.118  74.115  1.00  0.00    -0.339 N 
ATOM      6  C   UNL     1      88.909  90.054  73.930  1.00  0.00     0.120 C 
ATOM      7  C   UNL     1      90.791  91.336  72.964  1.00  0.00     0.120 C 
ATOM      8  C   UNL     1      88.075  90.283  72.674  1.00  0.00     0.022 C 
ATOM      9  C   UNL     1      89.991  91.565  71.682  1.00  0.00     0.022 C 
ATOM     10  C   UNL     1      88.968  90.457  71.449  1.00  0.00     0.004 C 
ENDBRANCH   1   3
BRANCH   2  11
ATOM     11  C   UNL     1      93.084  93.566  76.455  1.00  0.00     0.001 C 
ATOM     12  C   UNL     1      94.058  93.795  75.560  1.00  0.00     0.008 C 
BRANCH  12  13
ATOM     13  C   UNL     1      95.150  94.768  75.730  1.00  0.00    -0.022 A 
ATOM     14  C   UNL     1      95.039  96.018  75.135  1.00  0.00     0.058 A 
ATOM     15  C   UNL     1      96.268  94.408  76.486  1.00  0.00     0.012 A 
ATOM     16  C   UNL     1      96.087  96.896  75.323  1.00  0.00     0.166 A 
ATOM     17  C   UNL     1      97.314  95.316  76.660  1.00  0.00     0.051 A 
ATOM     18  O   UNL     1      96.168  98.160  74.824  1.00  0.00    -0.454 OA
ATOM     19  C   UNL     1      97.194  96.555  76.065  1.00  0.00     0.165 A 
ATOM     20  C   UNL     1      97.451  98.575  75.335  1.00  0.00     0.468 C 
ATOM     21  O   UNL     1      98.108  97.562  76.124  1.00  0.00    -0.454 OA
ENDBRANCH  12  13
ENDBRANCH   2  11
TORSDOF 3
ENDMDL
MODEL 5
REMARK VINA RESULT:    -7.083      3.003      9.136
REMARK INTER + INTRA:          -8.703
REMARK INTER:                  -8.304
REMARK INTRA:                  -0.399
REMARK UNBOUND:                -0.378
REMARK SMILES O=C(/C=C/C=C/c1ccc2c(c1)OCO2)N1CCCCC1
REMARK SMILES IDX 3 1 4 2 2 3 1 4 16 5 17 6 21 7 18 8 20 9 19 10 5 11 6 12
REMARK SMILES IDX 7 13 12 14 8 15 11 16 9 17 13 18 10 19 14 20 15 21
REMARK H PARENT
REMARK Flexibility Score: inf
ROOT
ATOM      1  C   UNL     1      95.759  94.955  76.428  1.00  0.00     0.071 C 
ATOM      2  C   UNL     1      94.718  95.408  75.732  1.00  0.00     0.006 C 
ENDROOT
BRANCH   1   3
ATOM      3  C   UNL     1      96.956  95.814  76.524  1.00  0.00     0.246 C 
ATOM      4  O   UNL     1      97.444  96.229  75.472  1.00  0.00    -0.270 OA
ATOM      5  N   UNL     1      97.456  96.092  77.795  1.00  0.00    -0.339 N 
ATOM      6  C   UNL     1      98.647  96.937  77.922  1.00  0.00     0.120 C 
ATOM      7  C   UNL     1      96.928  95.579  79.068  1.00  0.00     0.120 C 
ATOM      8  C   UNL     1      98.408  98.097  78.882  1.00  0.00     0.022 C 
ATOM      9  C   UNL     1      96.678  96.714  80.061  1.00  0.00     0.022 C 
ATOM     10  C   UNL     1      97.912  97.595  80.234  1.00  0.00     0.004 C 
ENDBRANCH   1   3
BRANCH   2  11
ATOM     11  C   UNL     1      93.500  94.639  75.581  1.00  0.00     0.001 C 
ATOM     12  C   UNL     1      93.066  93.776  76.513  1.00  0.00     0.008 C 
BRANCH  12  13
ATOM     13  C   UNL     1      91.842  92.964  76.408  1.00  0.00    -0.022 A 
ATOM     14  C   UNL     1      91.431  92.520  75.158  1.00  0.00     0.058 A 
ATOM     15  C   UNL     1      91.126  92.663  77.569  1.00  0.00     0.012 A 
ATOM     16  C   UNL     1      90.279  91.763  75.110  1.00  0.00     0.166 A 
ATOM     17  C   UNL     1      89.963  91.894  77.492  1.00  0.00     0.051 A 
ATOM     18  O   UNL     1      89.715  91.239  73.987  1.00  0.00    -0.454 OA
ATOM     19  C   UNL     1      89.564  91.458  76.245  1.00  0.00     0.165 A 
ATOM     20  C   UNL     1      88.565  90.570  74.544  1.00  0.00     0.468 C 
ATOM     21  O   UNL     1      88.463  90.705  75.977  1.00  0.00    -0.454 OA
ENDBRANCH  12  13
ENDBRANCH   2  11
TORSDOF 3
ENDMDL
MODEL 6
REMARK VINA RESULT:    -7.061      6.602      7.608
REMARK INTER + INTRA:          -8.677
REMARK INTER:                  -8.259
REMARK INTRA:                  -0.418
REMARK UNBOUND:                -0.378
REMARK SMILES O=C(/C=C/C=C/c1ccc2c(c1)OCO2)N1CCCCC1
REMARK SMILES IDX 3 1 4 2 2 3 1 4 16 5 17 6 21 7 18 8 20 9 19 10 5 11 6 12
REMARK SMILES IDX 7 13 12 14 8 15 11 16 9 17 13 18 10 19 14 20 15 21
REMARK H PARENT
REMARK Flexibility Score: inf
ROOT
ATOM      1  C   UNL     1      92.532  98.984  70.463  1.00  0.00     0.071 C 
ATOM      2  C   UNL     1      93.827  98.678  70.437  1.00  0.00     0.006 C 
ENDROOT
BRANCH   1   3
ATOM      3  C   UNL     1      91.945  99.622  69.268  1.00  0.00     0.246 C 
ATOM      4  O   UNL     1      92.377 100.728  68.943  1.00  0.00    -0.270 OA
ATOM      5  N   UNL     1      90.939  98.933  68.591  1.00  0.00    -0.339 N 
ATOM      6  C   UNL     1      90.333  99.544  67.404  1.00  0.00     0.120 C 
ATOM      7  C   UNL     1      90.366  97.634  68.974  1.00  0.00     0.120 C 
ATOM      8  C   UNL     1      90.370  98.596  66.210  1.00  0.00     0.022 C 
ATOM      9  C   UNL     1      90.381  96.655  67.800  1.00  0.00     0.022 C 
ATOM     10  C   UNL     1      89.731  97.255  66.557  1.00  0.00     0.004 C 
ENDBRANCH   1   3
BRANCH   2  11
ATOM     11  C   UNL     1      94.492  98.051  71.560  1.00  0.00     0.001 C 
ATOM     12  C   UNL     1      93.872  97.800  72.724  1.00  0.00     0.008 C 
BRANCH  12  13
ATOM     13  C   UNL     1      94.502  97.174  73.899  1.00  0.00    -0.022 A 
ATOM     14  C   UNL     1      93.905  96.059  74.471  1.00  0.00     0.058 A 
ATOM     15  C   UNL     1      95.684  97.719  74.405  1.00  0.00     0.012 A 
ATOM     16  C   UNL     1      94.532  95.507  75.569  1.00  0.00     0.166 A 
ATOM     17  C   UNL     1      96.298  97.140  75.518  1.00  0.00     0.051 A 
ATOM     18  O   UNL     1      94.106  94.420  76.269  1.00  0.00    -0.454 OA
ATOM     19  C   UNL     1      95.697  96.033  76.079  1.00  0.00     0.165 A 
ATOM     20  C   UNL     1      95.134  94.321  77.275  1.00  0.00     0.468 C 
ATOM     21  O   UNL     1      96.147  95.341  77.161  1.00  0.00    -0.454 OA
ENDBRANCH  12  13
ENDBRANCH   2  11
TORSDOF 3
ENDMDL
MODEL 7
REMARK VINA RESULT:    -7.033     26.519     28.953
REMARK INTER + INTRA:          -8.644
REMARK INTER:                  -8.258
REMARK INTRA:                  -0.385
REMARK UNBOUND:                -0.378
REMARK SMILES O=C(/C=C/C=C/c1ccc2c(c1)OCO2)N1CCCCC1
REMARK SMILES IDX 3 1 4 2 2 3 1 4 16 5 17 6 21 7 18 8 20 9 19 10 5 11 6 12
REMARK SMILES IDX 7 13 12 14 8 15 11 16 9 17 13 18 10 19 14 20 15 21
REMARK H PARENT
REMARK Flexibility Score: inf
ROOT
ATOM      1  C   UNL     1      62.847  84.288  76.025  1.00  0.00     0.071 C 
ATOM      2  C   UNL     1      63.719  85.284  75.876  1.00  0.00     0.006 C 
ENDROOT
BRANCH   1   3
ATOM      3  C   UNL     1      62.312  83.646  74.808  1.00  0.00     0.246 C 
ATOM      4  O   UNL     1      61.457  84.260  74.169  1.00  0.00    -0.270 OA
ATOM      5  N   UNL     1      62.804  82.387  74.468  1.00  0.00    -0.339 N 
ATOM      6  C   UNL     1      62.288  81.721  73.268  1.00  0.00     0.120 C 
ATOM      7  C   UNL     1      63.789  81.604  75.229  1.00  0.00     0.120 C 
ATOM      8  C   UNL     1      63.418  81.283  72.344  1.00  0.00     0.022 C 
ATOM      9  C   UNL     1      64.939  81.142  74.335  1.00  0.00     0.022 C 
ATOM     10  C   UNL     1      64.431  80.419  73.091  1.00  0.00     0.004 C 
ENDBRANCH   1   3
BRANCH   2  11
ATOM     11  C   UNL     1      64.298  85.975  77.008  1.00  0.00     0.001 C 
ATOM     12  C   UNL     1      65.479  85.628  77.545  1.00  0.00     0.008 C 
BRANCH  12  13
ATOM     13  C   UNL     1      66.109  86.290  78.700  1.00  0.00    -0.022 A 
ATOM     14  C   UNL     1      66.103  87.677  78.769  1.00  0.00     0.058 A 
ATOM     15  C   UNL     1      66.696  85.504  79.694  1.00  0.00     0.012 A 
ATOM     16  C   UNL     1      66.705  88.251  79.870  1.00  0.00     0.166 A 
ATOM     17  C   UNL     1      67.299  86.112  80.798  1.00  0.00     0.051 A 
ATOM     18  O   UNL     1      66.804  89.586  80.119  1.00  0.00    -0.454 OA
ATOM     19  C   UNL     1      67.288  87.490  80.857  1.00  0.00     0.165 A 
ATOM     20  C   UNL     1      67.514  89.578  81.375  1.00  0.00     0.468 C 
ATOM     21  O   UNL     1      67.824  88.252  81.849  1.00  0.00    -0.454 OA
ENDBRANCH  12  13
ENDBRANCH   2  11
TORSDOF 3
ENDMDL
MODEL 8
REMARK VINA RESULT:    -6.979      4.170      8.343
REMARK INTER + INTRA:          -8.580
REMARK INTER:                  -8.196
REMARK INTRA:                  -0.385
REMARK UNBOUND:                -0.378
REMARK SMILES O=C(/C=C/C=C/c1ccc2c(c1)OCO2)N1CCCCC1
REMARK SMILES IDX 3 1 4 2 2 3 1 4 16 5 17 6 21 7 18 8 20 9 19 10 5 11 6 12
REMARK SMILES IDX 7 13 12 14 8 15 11 16 9 17 13 18 10 19 14 20 15 21
REMARK H PARENT
REMARK Flexibility Score: inf
ROOT
ATOM      1  C   UNL     1      94.469  96.571  74.535  1.00  0.00     0.071 C 
ATOM      2  C   UNL     1      94.795  95.616  75.403  1.00  0.00     0.006 C 
ENDROOT
BRANCH   1   3
ATOM      3  C   UNL     1      95.508  97.549  74.156  1.00  0.00     0.246 C 
ATOM      4  O   UNL     1      96.486  97.657  74.896  1.00  0.00    -0.270 OA
ATOM      5  N   UNL     1      95.310  98.288  72.990  1.00  0.00    -0.339 N 
ATOM      6  C   UNL     1      96.322  99.271  72.591  1.00  0.00     0.120 C 
ATOM      7  C   UNL     1      94.136  98.220  72.107  1.00  0.00     0.120 C 
ATOM      8  C   UNL     1      96.776  99.051  71.152  1.00  0.00     0.022 C 
ATOM      9  C   UNL     1      94.551  98.003  70.652  1.00  0.00     0.022 C 
ATOM     10  C   UNL     1      95.584  99.031  70.200  1.00  0.00     0.004 C 
ENDBRANCH   1   3
BRANCH   2  11
ATOM     11  C   UNL     1      93.846  94.612  75.836  1.00  0.00     0.001 C 
ATOM     12  C   UNL     1      92.641  94.457  75.264  1.00  0.00     0.008 C 
BRANCH  12  13
ATOM     13  C   UNL     1      91.636  93.460  75.669  1.00  0.00    -0.022 A 
ATOM     14  C   UNL     1      91.491  92.303  74.916  1.00  0.00     0.058 A 
ATOM     15  C   UNL     1      90.855  93.707  76.800  1.00  0.00     0.012 A 
ATOM     16  C   UNL     1      90.537  91.399  75.335  1.00  0.00     0.166 A 
ATOM     17  C   UNL     1      89.896  92.774  77.202  1.00  0.00     0.051 A 
ATOM     18  O   UNL     1      90.244  90.212  74.735  1.00  0.00    -0.454 OA
ATOM     19  C   UNL     1      89.760  91.628  76.448  1.00  0.00     0.165 A 
ATOM     20  C   UNL     1      89.196  89.721  75.595  1.00  0.00     0.468 C 
ATOM     21  O   UNL     1      88.884  90.614  76.684  1.00  0.00    -0.454 OA
ENDBRANCH  12  13
ENDBRANCH   2  11
TORSDOF 3
ENDMDL
MODEL 9
REMARK VINA RESULT:    -6.958     12.212     13.939
REMARK INTER + INTRA:          -8.556
REMARK INTER:                  -8.250
REMARK INTRA:                  -0.306
REMARK UNBOUND:                -0.378
REMARK SMILES O=C(/C=C/C=C/c1ccc2c(c1)OCO2)N1CCCCC1
REMARK SMILES IDX 3 1 4 2 2 3 1 4 16 5 17 6 21 7 18 8 20 9 19 10 5 11 6 12
REMARK SMILES IDX 7 13 12 14 8 15 11 16 9 17 13 18 10 19 14 20 15 21
REMARK H PARENT
REMARK Flexibility Score: inf
ROOT
ATOM      1  C   UNL     1      96.349  83.718  83.968  1.00  0.00     0.071 C 
ATOM      2  C   UNL     1      96.347  82.802  83.002  1.00  0.00     0.006 C 
ENDROOT
BRANCH   1   3
ATOM      3  C   UNL     1      95.754  83.356  85.270  1.00  0.00     0.246 C 
ATOM      4  O   UNL     1      95.933  82.208  85.678  1.00  0.00    -0.270 OA
ATOM      5  N   UNL     1      95.028  84.334  85.948  1.00  0.00    -0.339 N 
ATOM      6  C   UNL     1      94.422  84.003  87.240  1.00  0.00     0.120 C 
ATOM      7  C   UNL     1      94.756  85.699  85.473  1.00  0.00     0.120 C 
ATOM      8  C   UNL     1      94.818  85.008  88.316  1.00  0.00     0.022 C 
ATOM      9  C   UNL     1      95.139  86.738  86.528  1.00  0.00     0.022 C 
ATOM     10  C   UNL     1      94.497  86.433  87.878  1.00  0.00     0.004 C 
ENDBRANCH   1   3
BRANCH   2  11
ATOM     11  C   UNL     1      96.905  83.063  81.693  1.00  0.00     0.001 C 
ATOM     12  C   UNL     1      96.972  82.128  80.731  1.00  0.00     0.008 C 
BRANCH  12  13
ATOM     13  C   UNL     1      97.537  82.337  79.387  1.00  0.00    -0.022 A 
ATOM     14  C   UNL     1      96.687  82.339  78.290  1.00  0.00     0.058 A 
ATOM     15  C   UNL     1      98.915  82.529  79.254  1.00  0.00     0.012 A 
ATOM     16  C   UNL     1      97.263  82.539  77.052  1.00  0.00     0.166 A 
ATOM     17  C   UNL     1      99.471  82.729  77.988  1.00  0.00     0.051 A 
ATOM     18  O   UNL     1      96.603  82.574  75.862  1.00  0.00    -0.454 OA
ATOM     19  C   UNL     1      98.617  82.729  76.905  1.00  0.00     0.165 A 
ATOM     20  C   UNL     1      97.695  82.807  74.949  1.00  0.00     0.468 C 
ATOM     21  O   UNL     1      98.977  82.907  75.604  1.00  0.00    -0.454 OA
ENDBRANCH  12  13
ENDBRANCH   2  11
TORSDOF 3
ENDMDL
MODEL 10
REMARK VINA RESULT:    -6.944     21.673     25.396
REMARK INTER + INTRA:          -8.539
REMARK INTER:                  -8.241
REMARK INTRA:                  -0.299
REMARK UNBOUND:                -0.378
REMARK SMILES O=C(/C=C/C=C/c1ccc2c(c1)OCO2)N1CCCCC1
REMARK SMILES IDX 3 1 4 2 2 3 1 4 16 5 17 6 21 7 18 8 20 9 19 10 5 11 6 12
REMARK SMILES IDX 7 13 12 14 8 15 11 16 9 17 13 18 10 19 14 20 15 21
REMARK H PARENT
REMARK Flexibility Score: inf
ROOT
ATOM      1  C   UNL     1      84.008  69.053  72.183  1.00  0.00     0.071 C 
ATOM      2  C   UNL     1      85.173  68.969  71.544  1.00  0.00     0.006 C 
ENDROOT
BRANCH   1   3
ATOM      3  C   UNL     1      83.575  67.897  72.994  1.00  0.00     0.246 C 
ATOM      4  O   UNL     1      84.043  67.790  74.128  1.00  0.00    -0.270 OA
ATOM      5  N   UNL     1      82.671  67.004  72.421  1.00  0.00    -0.339 N 
ATOM      6  C   UNL     1      82.227  65.844  73.200  1.00  0.00     0.120 C 
ATOM      7  C   UNL     1      82.126  67.074  71.057  1.00  0.00     0.120 C 
ATOM      8  C   UNL     1      80.706  65.756  73.251  1.00  0.00     0.022 C 
ATOM      9  C   UNL     1      80.600  66.985  71.066  1.00  0.00     0.022 C 
ATOM     10  C   UNL     1      80.110  65.769  71.847  1.00  0.00     0.004 C 
ENDBRANCH   1   3
BRANCH   2  11
ATOM     11  C   UNL     1      85.681  70.049  70.726  1.00  0.00     0.001 C 
ATOM     12  C   UNL     1      86.795  69.936  69.985  1.00  0.00     0.008 C 
BRANCH  12  13
ATOM     13  C   UNL     1      87.360  71.003  69.142  1.00  0.00    -0.022 A 
ATOM     14  C   UNL     1      88.566  71.586  69.508  1.00  0.00     0.058 A 
ATOM     15  C   UNL     1      86.666  71.401  67.996  1.00  0.00     0.012 A 
ATOM     16  C   UNL     1      89.055  72.581  68.686  1.00  0.00     0.166 A 
ATOM     17  C   UNL     1      87.185  72.411  67.183  1.00  0.00     0.051 A 
ATOM     18  O   UNL     1      90.213  73.272  68.873  1.00  0.00    -0.454 OA
ATOM     19  C   UNL     1      88.383  72.983  67.555  1.00  0.00     0.165 A 
ATOM     20  C   UNL     1      90.194  74.153  67.731  1.00  0.00     0.468 C 
ATOM     21  O   UNL     1      89.036  73.975  66.891  1.00  0.00    -0.454 OA
ENDBRANCH  12  13
ENDBRANCH   2  11
TORSDOF 3
ENDMDL
