MODEL 1
REMARK VINA RESULT:    -7.304      0.000      0.000
REMARK INTER + INTRA:          -8.911
REMARK INTER:                  -8.586
REMARK INTRA:                  -0.326
REMARK UNBOUND:                -0.326
REMARK SMILES O=C(/C=C/C=C/c1ccc2c(c1)OCO2)N1CCCCC1
REMARK SMILES IDX 3 1 4 2 2 3 1 4 16 5 17 6 21 7 18 8 20 9 19 10 5 11 6 12
REMARK SMILES IDX 7 13 12 14 8 15 11 16 9 17 13 18 10 19 14 20 15 21
REMARK H PARENT
REMARK Flexibility Score: inf
ROOT
ATOM      1  C   UNL     1      95.989  81.884  82.884  1.00  0.00     0.071 C 
ATOM      2  C   UNL     1      96.970  81.849  81.983  1.00  0.00     0.006 C 
ENDROOT
BRANCH   1   3
ATOM      3  C   UNL     1      96.292  81.435  84.257  1.00  0.00     0.246 C 
ATOM      4  O   UNL     1      97.477  81.291  84.561  1.00  0.00    -0.270 OA
ATOM      5  N   UNL     1      95.219  81.200  85.116  1.00  0.00    -0.339 N 
ATOM      6  C   UNL     1      95.488  80.748  86.484  1.00  0.00     0.120 C 
ATOM      7  C   UNL     1      93.793  81.317  84.776  1.00  0.00     0.120 C 
ATOM      8  C   UNL     1      94.789  81.633  87.510  1.00  0.00     0.022 C 
ATOM      9  C   UNL     1      93.055  82.195  85.786  1.00  0.00     0.022 C 
ATOM     10  C   UNL     1      93.294  81.730  87.220  1.00  0.00     0.004 C 
ENDBRANCH   1   3
BRANCH   2  11
ATOM     11  C   UNL     1      96.770  82.268  80.612  1.00  0.00     0.001 C 
ATOM     12  C   UNL     1      97.322  81.628  79.569  1.00  0.00     0.008 C 
BRANCH  12  13
ATOM     13  C   UNL     1      97.159  82.016  78.158  1.00  0.00    -0.022 A 
ATOM     14  C   UNL     1      98.206  81.800  77.272  1.00  0.00     0.058 A 
ATOM     15  C   UNL     1      95.953  82.591  77.748  1.00  0.00     0.012 A 
ATOM     16  C   UNL     1      98.005  82.179  75.961  1.00  0.00     0.166 A 
ATOM     17  C   UNL     1      95.777  82.966  76.414  1.00  0.00     0.051 A 
ATOM     18  O   UNL     1      98.904  82.053  74.947  1.00  0.00    -0.454 OA
ATOM     19  C   UNL     1      96.823  82.747  75.543  1.00  0.00     0.165 A 
ATOM     20  C   UNL     1      98.156  82.604  73.844  1.00  0.00     0.468 C 
ATOM     21  O   UNL     1      96.834  83.047  74.215  1.00  0.00    -0.454 OA
ENDBRANCH  12  13
ENDBRANCH   2  11
TORSDOF 3
ENDMDL
MODEL 2
REMARK VINA RESULT:    -7.273      2.888      9.230
REMARK INTER + INTRA:          -8.874
REMARK INTER:                  -8.510
REMARK INTRA:                  -0.364
REMARK UNBOUND:                -0.326
REMARK SMILES O=C(/C=C/C=C/c1ccc2c(c1)OCO2)N1CCCCC1
REMARK SMILES IDX 3 1 4 2 2 3 1 4 16 5 17 6 21 7 18 8 20 9 19 10 5 11 6 12
REMARK SMILES IDX 7 13 12 14 8 15 11 16 9 17 13 18 10 19 14 20 15 21
REMARK H PARENT
REMARK Flexibility Score: inf
ROOT
ATOM      1  C   UNL     1      97.386  81.278  78.696  1.00  0.00     0.071 C 
ATOM      2  C   UNL     1      97.879  81.071  79.915  1.00  0.00     0.006 C 
ENDROOT
BRANCH   1   3
ATOM      3  C   UNL     1      98.297  81.131  77.543  1.00  0.00     0.246 C 
ATOM      4  O   UNL     1      99.236  80.342  77.657  1.00  0.00    -0.270 OA
ATOM      5  N   UNL     1      98.037  81.896  76.408  1.00  0.00    -0.339 N 
ATOM      6  C   UNL     1      98.927  81.776  75.249  1.00  0.00     0.120 C 
ATOM      7  C   UNL     1      96.954  82.879  76.251  1.00  0.00     0.120 C 
ATOM      8  C   UNL     1      98.145  81.478  73.974  1.00  0.00     0.022 C 
ATOM      9  C   UNL     1      96.148  82.617  74.979  1.00  0.00     0.022 C 
ATOM     10  C   UNL     1      97.048  82.515  73.751  1.00  0.00     0.004 C 
ENDBRANCH   1   3
BRANCH   2  11
ATOM     11  C   UNL     1      97.065  81.192  81.105  1.00  0.00     0.001 C 
ATOM     12  C   UNL     1      96.862  82.362  81.731  1.00  0.00     0.008 C 
BRANCH  12  13
ATOM     13  C   UNL     1      96.051  82.540  82.947  1.00  0.00    -0.022 A 
ATOM     14  C   UNL     1      95.928  83.809  83.498  1.00  0.00     0.058 A 
ATOM     15  C   UNL     1      95.426  81.426  83.514  1.00  0.00     0.012 A 
ATOM     16  C   UNL     1      95.158  83.925  84.637  1.00  0.00     0.166 A 
ATOM     17  C   UNL     1      94.652  81.573  84.668  1.00  0.00     0.051 A 
ATOM     18  O   UNL     1      94.918  85.076  85.324  1.00  0.00    -0.454 OA
ATOM     19  C   UNL     1      94.537  82.837  85.206  1.00  0.00     0.165 A 
ATOM     20  C   UNL     1      94.076  84.589  86.389  1.00  0.00     0.468 C 
ATOM     21  O   UNL     1      93.830  83.170  86.321  1.00  0.00    -0.454 OA
ENDBRANCH  12  13
ENDBRANCH   2  11
TORSDOF 3
ENDMDL
MODEL 3
REMARK VINA RESULT:    -7.135      1.542      2.089
REMARK INTER + INTRA:          -8.712
REMARK INTER:                  -8.400
REMARK INTRA:                  -0.312
REMARK UNBOUND:                -0.326
REMARK SMILES O=C(/C=C/C=C/c1ccc2c(c1)OCO2)N1CCCCC1
REMARK SMILES IDX 3 1 4 2 2 3 1 4 16 5 17 6 21 7 18 8 20 9 19 10 5 11 6 12
REMARK SMILES IDX 7 13 12 14 8 15 11 16 9 17 13 18 10 19 14 20 15 21
REMARK H PARENT
REMARK Flexibility Score: inf
ROOT
ATOM      1  C   UNL     1      96.457  82.680  83.363  1.00  0.00     0.071 C 
ATOM      2  C   UNL     1      96.583  81.797  82.374  1.00  0.00     0.006 C 
ENDROOT
BRANCH   1   3
ATOM      3  C   UNL     1      96.286  82.166  84.736  1.00  0.00     0.246 C 
ATOM      4  O   UNL     1      96.889  81.134  85.036  1.00  0.00    -0.270 OA
ATOM      5  N   UNL     1      95.453  82.877  85.597  1.00  0.00    -0.339 N 
ATOM      6  C   UNL     1      95.259  82.388  86.965  1.00  0.00     0.120 C 
ATOM      7  C   UNL     1      94.684  84.085  85.262  1.00  0.00     0.120 C 
ATOM      8  C   UNL     1      95.544  83.478  87.993  1.00  0.00     0.022 C 
ATOM      9  C   UNL     1      94.940  85.202  86.273  1.00  0.00     0.022 C 
ATOM     10  C   UNL     1      94.717  84.728  87.706  1.00  0.00     0.004 C 
ENDBRANCH   1   3
BRANCH   2  11
ATOM     11  C   UNL     1      96.755  82.205  80.995  1.00  0.00     0.001 C 
ATOM     12  C   UNL     1      97.058  81.339  80.014  1.00  0.00     0.008 C 
BRANCH  12  13
ATOM     13  C   UNL     1      97.251  81.701  78.600  1.00  0.00    -0.022 A 
ATOM     14  C   UNL     1      96.259  82.417  77.944  1.00  0.00     0.058 A 
ATOM     15  C   UNL     1      98.429  81.312  77.956  1.00  0.00     0.012 A 
ATOM     16  C   UNL     1      96.486  82.732  76.620  1.00  0.00     0.166 A 
ATOM     17  C   UNL     1      98.632  81.644  76.615  1.00  0.00     0.051 A 
ATOM     18  O   UNL     1      95.640  83.423  75.808  1.00  0.00    -0.454 OA
ATOM     19  C   UNL     1      97.641  82.356  75.973  1.00  0.00     0.165 A 
ATOM     20  C   UNL     1      96.393  83.441  74.578  1.00  0.00     0.468 C 
ATOM     21  O   UNL     1      97.663  82.765  74.675  1.00  0.00    -0.454 OA
ENDBRANCH  12  13
ENDBRANCH   2  11
TORSDOF 3
ENDMDL
MODEL 4
REMARK VINA RESULT:    -6.890      2.252      2.583
REMARK INTER + INTRA:          -8.425
REMARK INTER:                  -7.991
REMARK INTRA:                  -0.434
REMARK UNBOUND:                -0.326
REMARK SMILES O=C(/C=C/C=C/c1ccc2c(c1)OCO2)N1CCCCC1
REMARK SMILES IDX 3 1 4 2 2 3 1 4 16 5 17 6 21 7 18 8 20 9 19 10 5 11 6 12
REMARK SMILES IDX 7 13 12 14 8 15 11 16 9 17 13 18 10 19 14 20 15 21
REMARK H PARENT
REMARK Flexibility Score: inf
ROOT
ATOM      1  C   UNL     1      97.814  81.174  82.038  1.00  0.00     0.071 C 
ATOM      2  C   UNL     1      96.785  81.913  81.630  1.00  0.00     0.006 C 
ENDROOT
BRANCH   1   3
ATOM      3  C   UNL     1      97.871  80.787  83.461  1.00  0.00     0.246 C 
ATOM      4  O   UNL     1      98.181  81.658  84.275  1.00  0.00    -0.270 OA
ATOM      5  N   UNL     1      97.575  79.465  83.788  1.00  0.00    -0.339 N 
ATOM      6  C   UNL     1      97.628  79.050  85.193  1.00  0.00     0.120 C 
ATOM      7  C   UNL     1      97.245  78.389  82.841  1.00  0.00     0.120 C 
ATOM      8  C   UNL     1      96.333  78.369  85.622  1.00  0.00     0.022 C 
ATOM      9  C   UNL     1      95.952  77.678  83.240  1.00  0.00     0.022 C 
ATOM     10  C   UNL     1      95.991  77.209  84.692  1.00  0.00     0.004 C 
ENDBRANCH   1   3
BRANCH   2  11
ATOM     11  C   UNL     1      96.642  82.342  80.254  1.00  0.00     0.001 C 
ATOM     12  C   UNL     1      97.250  81.718  79.232  1.00  0.00     0.008 C 
BRANCH  12  13
ATOM     13  C   UNL     1      97.146  82.116  77.818  1.00  0.00    -0.022 A 
ATOM     14  C   UNL     1      98.204  81.845  76.961  1.00  0.00     0.058 A 
ATOM     15  C   UNL     1      95.985  82.756  77.378  1.00  0.00     0.012 A 
ATOM     16  C   UNL     1      98.059  82.236  75.645  1.00  0.00     0.166 A 
ATOM     17  C   UNL     1      95.866  83.141  76.041  1.00  0.00     0.051 A 
ATOM     18  O   UNL     1      98.978  82.062  74.656  1.00  0.00    -0.454 OA
ATOM     19  C   UNL     1      96.922  82.867  75.197  1.00  0.00     0.165 A 
ATOM     20  C   UNL     1      98.290  82.655  73.535  1.00  0.00     0.468 C 
ATOM     21  O   UNL     1      96.985  83.168  73.872  1.00  0.00    -0.454 OA
ENDBRANCH  12  13
ENDBRANCH   2  11
TORSDOF 3
ENDMDL
MODEL 5
REMARK VINA RESULT:    -6.884      3.043      9.687
REMARK INTER + INTRA:          -8.417
REMARK INTER:                  -8.094
REMARK INTRA:                  -0.323
REMARK UNBOUND:                -0.326
REMARK SMILES O=C(/C=C/C=C/c1ccc2c(c1)OCO2)N1CCCCC1
REMARK SMILES IDX 3 1 4 2 2 3 1 4 16 5 17 6 21 7 18 8 20 9 19 10 5 11 6 12
REMARK SMILES IDX 7 13 12 14 8 15 11 16 9 17 13 18 10 19 14 20 15 21
REMARK H PARENT
REMARK Flexibility Score: inf
ROOT
ATOM      1  C   UNL     1      97.813  82.034  77.145  1.00  0.00     0.071 C 
ATOM      2  C   UNL     1      96.869  82.067  78.084  1.00  0.00     0.006 C 
ENDROOT
BRANCH   1   3
ATOM      3  C   UNL     1      97.478  82.553  75.805  1.00  0.00     0.246 C 
ATOM      4  O   UNL     1      96.384  83.102  75.664  1.00  0.00    -0.270 OA
ATOM      5  N   UNL     1      98.418  82.385  74.789  1.00  0.00    -0.339 N 
ATOM      6  C   UNL     1      98.111  82.886  73.446  1.00  0.00     0.120 C 
ATOM      7  C   UNL     1      99.712  81.697  74.908  1.00  0.00     0.120 C 
ATOM      8  C   UNL     1      99.222  83.789  72.921  1.00  0.00     0.022 C 
ATOM      9  C   UNL     1     100.853  82.571  74.388  1.00  0.00     0.022 C 
ATOM     10  C   UNL     1     100.573  83.084  72.978  1.00  0.00     0.004 C 
ENDBRANCH   1   3
BRANCH   2  11
ATOM     11  C   UNL     1      97.102  81.581  79.427  1.00  0.00     0.001 C 
ATOM     12  C   UNL     1      96.692  82.243  80.521  1.00  0.00     0.008 C 
BRANCH  12  13
ATOM     13  C   UNL     1      96.909  81.798  81.908  1.00  0.00    -0.022 A 
ATOM     14  C   UNL     1      97.930  80.897  82.177  1.00  0.00     0.058 A 
ATOM     15  C   UNL     1      96.080  82.296  82.917  1.00  0.00     0.012 A 
ATOM     16  C   UNL     1      98.095  80.511  83.491  1.00  0.00     0.166 A 
ATOM     17  C   UNL     1      96.269  81.888  84.239  1.00  0.00     0.051 A 
ATOM     18  O   UNL     1      99.033  79.640  83.955  1.00  0.00    -0.454 OA
ATOM     19  C   UNL     1      97.287  80.993  84.495  1.00  0.00     0.165 A 
ATOM     20  C   UNL     1      98.724  79.629  85.364  1.00  0.00     0.468 C 
ATOM     21  O   UNL     1      97.617  80.485  85.714  1.00  0.00    -0.454 OA
ENDBRANCH  12  13
ENDBRANCH   2  11
TORSDOF 3
ENDMDL
MODEL 6
REMARK VINA RESULT:    -6.860      1.850      3.024
REMARK INTER + INTRA:          -8.389
REMARK INTER:                  -8.030
REMARK INTRA:                  -0.360
REMARK UNBOUND:                -0.326
REMARK SMILES O=C(/C=C/C=C/c1ccc2c(c1)OCO2)N1CCCCC1
REMARK SMILES IDX 3 1 4 2 2 3 1 4 16 5 17 6 21 7 18 8 20 9 19 10 5 11 6 12
REMARK SMILES IDX 7 13 12 14 8 15 11 16 9 17 13 18 10 19 14 20 15 21
REMARK H PARENT
REMARK Flexibility Score: inf
ROOT
ATOM      1  C   UNL     1      94.670  81.619  84.100  1.00  0.00     0.071 C 
ATOM      2  C   UNL     1      95.522  82.520  83.614  1.00  0.00     0.006 C 
ENDROOT
BRANCH   1   3
ATOM      3  C   UNL     1      94.178  81.803  85.480  1.00  0.00     0.246 C 
ATOM      4  O   UNL     1      94.970  82.247  86.312  1.00  0.00    -0.270 OA
ATOM      5  N   UNL     1      92.854  81.458  85.748  1.00  0.00    -0.339 N 
ATOM      6  C   UNL     1      92.338  81.624  87.111  1.00  0.00     0.120 C 
ATOM      7  C   UNL     1      91.895  80.884  84.793  1.00  0.00     0.120 C 
ATOM      8  C   UNL     1      91.052  82.442  87.123  1.00  0.00     0.022 C 
ATOM      9  C   UNL     1      90.588  81.676  84.779  1.00  0.00     0.022 C 
ATOM     10  C   UNL     1      90.012  81.840  86.183  1.00  0.00     0.004 C 
ENDBRANCH   1   3
BRANCH   2  11
ATOM     11  C   UNL     1      96.060  82.426  82.273  1.00  0.00     0.001 C 
ATOM     12  C   UNL     1      96.892  81.443  81.892  1.00  0.00     0.008 C 
BRANCH  12  13
ATOM     13  C   UNL     1      97.473  81.304  80.546  1.00  0.00    -0.022 A 
ATOM     14  C   UNL     1      97.007  82.116  79.521  1.00  0.00     0.058 A 
ATOM     15  C   UNL     1      98.480  80.357  80.338  1.00  0.00     0.012 A 
ATOM     16  C   UNL     1      97.583  81.948  78.279  1.00  0.00     0.166 A 
ATOM     17  C   UNL     1      99.045  80.209  79.069  1.00  0.00     0.051 A 
ATOM     18  O   UNL     1      97.265  82.643  77.151  1.00  0.00    -0.454 OA
ATOM     19  C   UNL     1      98.575  81.020  78.058  1.00  0.00     0.165 A 
ATOM     20  C   UNL     1      98.168  82.048  76.198  1.00  0.00     0.468 C 
ATOM     21  O   UNL     1      99.003  81.017  76.766  1.00  0.00    -0.454 OA
ENDBRANCH  12  13
ENDBRANCH   2  11
TORSDOF 3
ENDMDL
MODEL 7
REMARK VINA RESULT:    -6.724      3.180      9.696
REMARK INTER + INTRA:          -8.229
REMARK INTER:                  -7.888
REMARK INTRA:                  -0.340
REMARK UNBOUND:                -0.326
REMARK SMILES O=C(/C=C/C=C/c1ccc2c(c1)OCO2)N1CCCCC1
REMARK SMILES IDX 3 1 4 2 2 3 1 4 16 5 17 6 21 7 18 8 20 9 19 10 5 11 6 12
REMARK SMILES IDX 7 13 12 14 8 15 11 16 9 17 13 18 10 19 14 20 15 21
REMARK H PARENT
REMARK Flexibility Score: inf
ROOT
ATOM      1  C   UNL     1      98.422  81.324  76.419  1.00  0.00     0.071 C 
ATOM      2  C   UNL     1      97.671  82.262  76.993  1.00  0.00     0.006 C 
ENDROOT
BRANCH   1   3
ATOM      3  C   UNL     1      99.020  81.622  75.103  1.00  0.00     0.246 C 
ATOM      4  O   UNL     1     100.088  82.236  75.089  1.00  0.00    -0.270 OA
ATOM      5  N   UNL     1      98.337  81.194  73.966  1.00  0.00    -0.339 N 
ATOM      6  C   UNL     1      98.904  81.480  72.645  1.00  0.00     0.120 C 
ATOM      7  C   UNL     1      97.041  80.499  73.942  1.00  0.00     0.120 C 
ATOM      8  C   UNL     1      99.016  80.214  71.801  1.00  0.00     0.022 C 
ATOM      9  C   UNL     1      97.112  79.224  73.101  1.00  0.00     0.022 C 
ATOM     10  C   UNL     1      97.673  79.498  71.709  1.00  0.00     0.004 C 
ENDBRANCH   1   3
BRANCH   2  11
ATOM     11  C   UNL     1      97.042  82.064  78.281  1.00  0.00     0.001 C 
ATOM     12  C   UNL     1      97.692  81.542  79.334  1.00  0.00     0.008 C 
BRANCH  12  13
ATOM     13  C   UNL     1      97.099  81.311  80.662  1.00  0.00    -0.022 A 
ATOM     14  C   UNL     1      96.650  82.398  81.400  1.00  0.00     0.058 A 
ATOM     15  C   UNL     1      97.005  80.003  81.144  1.00  0.00     0.012 A 
ATOM     16  C   UNL     1      96.102  82.131  82.638  1.00  0.00     0.166 A 
ATOM     17  C   UNL     1      96.446  79.761  82.401  1.00  0.00     0.051 A 
ATOM     18  O   UNL     1      95.609  83.054  83.508  1.00  0.00    -0.454 OA
ATOM     19  C   UNL     1      96.003  80.848  83.125  1.00  0.00     0.165 A 
ATOM     20  C   UNL     1      95.188  82.208  84.598  1.00  0.00     0.468 C 
ATOM     21  O   UNL     1      95.435  80.807  84.362  1.00  0.00    -0.454 OA
ENDBRANCH  12  13
ENDBRANCH   2  11
TORSDOF 3
ENDMDL
MODEL 8
REMARK VINA RESULT:    -6.624     13.908     15.869
REMARK INTER + INTRA:          -8.111
REMARK INTER:                  -7.697
REMARK INTRA:                  -0.414
REMARK UNBOUND:                -0.326
REMARK SMILES O=C(/C=C/C=C/c1ccc2c(c1)OCO2)N1CCCCC1
REMARK SMILES IDX 3 1 4 2 2 3 1 4 16 5 17 6 21 7 18 8 20 9 19 10 5 11 6 12
REMARK SMILES IDX 7 13 12 14 8 15 11 16 9 17 13 18 10 19 14 20 15 21
REMARK H PARENT
REMARK Flexibility Score: inf
ROOT
ATOM      1  C   UNL     1      94.283  95.203  75.738  1.00  0.00     0.071 C 
ATOM      2  C   UNL     1      93.811  96.250  75.063  1.00  0.00     0.006 C 
ENDROOT
BRANCH   1   3
ATOM      3  C   UNL     1      93.593  94.810  76.982  1.00  0.00     0.246 C 
ATOM      4  O   UNL     1      93.792  95.497  77.985  1.00  0.00    -0.270 OA
ATOM      5  N   UNL     1      92.768  93.687  76.941  1.00  0.00    -0.339 N 
ATOM      6  C   UNL     1      92.073  93.269  78.163  1.00  0.00     0.120 C 
ATOM      7  C   UNL     1      92.541  92.817  75.778  1.00  0.00     0.120 C 
ATOM      8  C   UNL     1      90.575  93.111  77.926  1.00  0.00     0.022 C 
ATOM      9  C   UNL     1      91.048  92.630  75.509  1.00  0.00     0.022 C 
ATOM     10  C   UNL     1      90.304  92.167  76.758  1.00  0.00     0.004 C 
ENDBRANCH   1   3
BRANCH   2  11
ATOM     11  C   UNL     1      94.420  96.711  73.834  1.00  0.00     0.001 C 
ATOM     12  C   UNL     1      95.711  96.492  73.536  1.00  0.00     0.008 C 
BRANCH  12  13
ATOM     13  C   UNL     1      96.382  96.945  72.305  1.00  0.00    -0.022 A 
ATOM     14  C   UNL     1      97.459  97.815  72.404  1.00  0.00     0.058 A 
ATOM     15  C   UNL     1      95.916  96.485  71.071  1.00  0.00     0.012 A 
ATOM     16  C   UNL     1      98.055  98.211  71.224  1.00  0.00     0.166 A 
ATOM     17  C   UNL     1      96.538  96.902  69.892  1.00  0.00     0.051 A 
ATOM     18  O   UNL     1      99.116  99.056  71.110  1.00  0.00    -0.454 OA
ATOM     19  C   UNL     1      97.607  97.766  70.001  1.00  0.00     0.165 A 
ATOM     20  C   UNL     1      99.285  99.092  69.679  1.00  0.00     0.468 C 
ATOM     21  O   UNL     1      98.331  98.277  68.969  1.00  0.00    -0.454 OA
ENDBRANCH  12  13
ENDBRANCH   2  11
TORSDOF 3
ENDMDL
MODEL 9
REMARK VINA RESULT:    -6.580      3.543      8.963
REMARK INTER + INTRA:          -8.059
REMARK INTER:                  -7.663
REMARK INTRA:                  -0.396
REMARK UNBOUND:                -0.326
REMARK SMILES O=C(/C=C/C=C/c1ccc2c(c1)OCO2)N1CCCCC1
REMARK SMILES IDX 3 1 4 2 2 3 1 4 16 5 17 6 21 7 18 8 20 9 19 10 5 11 6 12
REMARK SMILES IDX 7 13 12 14 8 15 11 16 9 17 13 18 10 19 14 20 15 21
REMARK H PARENT
REMARK Flexibility Score: inf
ROOT
ATOM      1  C   UNL     1      98.317  80.542  78.852  1.00  0.00     0.071 C 
ATOM      2  C   UNL     1      97.706  81.725  78.874  1.00  0.00     0.006 C 
ENDROOT
BRANCH   1   3
ATOM      3  C   UNL     1      99.028  80.150  77.618  1.00  0.00     0.246 C 
ATOM      4  O   UNL     1      98.484  80.404  76.543  1.00  0.00    -0.270 OA
ATOM      5  N   UNL     1     100.261  79.515  77.753  1.00  0.00    -0.339 N 
ATOM      6  C   UNL     1     100.988  79.109  76.546  1.00  0.00     0.120 C 
ATOM      7  C   UNL     1     100.920  79.155  79.017  1.00  0.00     0.120 C 
ATOM      8  C   UNL     1     102.416  79.642  76.550  1.00  0.00     0.022 C 
ATOM      9  C   UNL     1     102.359  79.670  79.058  1.00  0.00     0.022 C 
ATOM     10  C   UNL     1     103.148  79.237  77.825  1.00  0.00     0.004 C 
ENDBRANCH   1   3
BRANCH   2  11
ATOM     11  C   UNL     1      96.984  82.196  80.037  1.00  0.00     0.001 C 
ATOM     12  C   UNL     1      97.057  81.590  81.232  1.00  0.00     0.008 C 
BRANCH  12  13
ATOM     13  C   UNL     1      96.339  82.022  82.443  1.00  0.00    -0.022 A 
ATOM     14  C   UNL     1      96.289  83.374  82.753  1.00  0.00     0.058 A 
ATOM     15  C   UNL     1      95.727  81.057  83.248  1.00  0.00     0.012 A 
ATOM     16  C   UNL     1      95.604  83.729  83.897  1.00  0.00     0.166 A 
ATOM     17  C   UNL     1      95.041  81.445  84.401  1.00  0.00     0.051 A 
ATOM     18  O   UNL     1      95.443  84.996  84.370  1.00  0.00    -0.454 OA
ATOM     19  C   UNL     1      94.997  82.791  84.700  1.00  0.00     0.165 A 
ATOM     20  C   UNL     1      94.667  84.749  85.559  1.00  0.00     0.468 C 
ATOM     21  O   UNL     1      94.379  83.352  85.775  1.00  0.00    -0.454 OA
ENDBRANCH  12  13
ENDBRANCH   2  11
TORSDOF 3
ENDMDL
MODEL 10
REMARK VINA RESULT:    -6.423     14.915     18.070
REMARK INTER + INTRA:          -7.875
REMARK INTER:                  -7.495
REMARK INTRA:                  -0.380
REMARK UNBOUND:                -0.326
REMARK SMILES O=C(/C=C/C=C/c1ccc2c(c1)OCO2)N1CCCCC1
REMARK SMILES IDX 3 1 4 2 2 3 1 4 16 5 17 6 21 7 18 8 20 9 19 10 5 11 6 12
REMARK SMILES IDX 7 13 12 14 8 15 11 16 9 17 13 18 10 19 14 20 15 21
REMARK H PARENT
REMARK Flexibility Score: inf
ROOT
ATOM      1  C   UNL     1      95.681  97.990  73.304  1.00  0.00     0.071 C 
ATOM      2  C   UNL     1      95.252  96.732  73.219  1.00  0.00     0.006 C 
ENDROOT
BRANCH   1   3
ATOM      3  C   UNL     1      95.702  98.801  72.070  1.00  0.00     0.246 C 
ATOM      4  O   UNL     1      96.702  98.724  71.356  1.00  0.00    -0.270 OA
ATOM      5  N   UNL     1      94.594  99.602  71.800  1.00  0.00    -0.339 N 
ATOM      6  C   UNL     1      94.588 100.423  70.586  1.00  0.00     0.120 C 
ATOM      7  C   UNL     1      93.404  99.755  72.651  1.00  0.00     0.120 C 
ATOM      8  C   UNL     1      93.332 100.182  69.756  1.00  0.00     0.022 C 
ATOM      9  C   UNL     1      92.121  99.524  71.853  1.00  0.00     0.022 C 
ATOM     10  C   UNL     1      92.075 100.388  70.596  1.00  0.00     0.004 C 
ENDBRANCH   1   3
BRANCH   2  11
ATOM     11  C   UNL     1      95.195  95.859  74.373  1.00  0.00     0.001 C 
ATOM     12  C   UNL     1      94.296  96.015  75.358  1.00  0.00     0.008 C 
BRANCH  12  13
ATOM     13  C   UNL     1      94.199  95.163  76.555  1.00  0.00    -0.022 A 
ATOM     14  C   UNL     1      95.351  94.874  77.274  1.00  0.00     0.058 A 
ATOM     15  C   UNL     1      92.949  94.667  76.934  1.00  0.00     0.012 A 
ATOM     16  C   UNL     1      95.209  94.073  78.388  1.00  0.00     0.166 A 
ATOM     17  C   UNL     1      92.834  93.857  78.066  1.00  0.00     0.051 A 
ATOM     18  O   UNL     1      96.212  93.677  79.220  1.00  0.00    -0.454 OA
ATOM     19  C   UNL     1      93.984  93.577  78.774  1.00  0.00     0.165 A 
ATOM     20  C   UNL     1      95.481  92.878  80.172  1.00  0.00     0.468 C 
ATOM     21  O   UNL     1      94.067  92.810  79.895  1.00  0.00    -0.454 OA
ENDBRANCH  12  13
ENDBRANCH   2  11
TORSDOF 3
ENDMDL
