MODEL 1
REMARK VINA RESULT:    -5.940      0.000      0.000
REMARK INTER + INTRA:         -10.951
REMARK INTER:                  -9.760
REMARK INTRA:                  -1.191
REMARK UNBOUND:                -1.191
REMARK SMILES CCCCC[C@H](O)CC(=O)CCc1ccc(O)c(OC)c1
REMARK SMILES IDX 8 1 6 2 7 3 5 5 4 6 3 7 2 8 1 9 9 10 10 11 11 12 12 13 13 14
REMARK SMILES IDX 21 15 14 16 18 17 15 18 16 19 19 20 20 21 17 22
REMARK H PARENT 7 4 17 23
REMARK Flexibility Score: inf
ROOT
ATOM      1  C   UNL     1      91.431  95.926  76.825  1.00  0.00     0.107 C 
ENDROOT
BRANCH   1   2
ATOM      2  C   UNL     1      91.256  95.033  75.595  1.00  0.00     0.121 C 
BRANCH   2   3
ATOM      3  O   UNL     1      92.382  94.169  75.460  1.00  0.00    -0.393 OA
ATOM      4  H   UNL     1      93.132  94.583  75.921  1.00  0.00     0.210 HD
ENDBRANCH   2   3
BRANCH   2   5
ATOM      5  C   UNL     1      89.976  94.190  75.642  1.00  0.00     0.032 C 
BRANCH   5   6
ATOM      6  C   UNL     1      89.915  93.304  76.892  1.00  0.00     0.003 C 
BRANCH   6   7
ATOM      7  C   UNL     1      89.650  91.828  76.578  1.00  0.00    -0.000 C 
BRANCH   7   8
ATOM      8  C   UNL     1      89.983  91.440  75.138  1.00  0.00    -0.003 C 
ATOM      9  C   UNL     1      89.693  89.970  74.880  1.00  0.00     0.004 C 
ENDBRANCH   7   8
ENDBRANCH   6   7
ENDBRANCH   5   6
ENDBRANCH   2   5
ENDBRANCH   1   2
BRANCH   1  10
ATOM     10  C   UNL     1      92.686  95.604  77.621  1.00  0.00     0.135 C 
ATOM     11  O   UNL     1      92.757  94.585  78.307  1.00  0.00    -0.300 OA
BRANCH  10  12
ATOM     12  C   UNL     1      93.847  96.578  77.486  1.00  0.00     0.080 C 
BRANCH  12  13
ATOM     13  C   UNL     1      93.586  97.712  76.493  1.00  0.00     0.043 C 
BRANCH  13  14
ATOM     14  C   UNL     1      94.504  97.673  75.295  1.00  0.00    -0.044 A 
ATOM     15  C   UNL     1      95.673  98.434  75.286  1.00  0.00     0.054 A 
ATOM     16  C   UNL     1      94.183  96.874  74.197  1.00  0.00     0.008 A 
ATOM     17  C   UNL     1      96.521  98.396  74.178  1.00  0.00     0.160 A 
ATOM     18  C   UNL     1      95.030  96.837  73.089  1.00  0.00     0.050 A 
ATOM     19  C   UNL     1      96.199  97.598  73.080  1.00  0.00     0.157 A 
BRANCH  17  20
ATOM     20  O   UNL     1      97.659  99.144  74.180  1.00  0.00    -0.493 OA
ATOM     21  C   UNL     1      98.819  98.558  74.768  1.00  0.00     0.278 C 
ENDBRANCH  17  20
BRANCH  19  22
ATOM     22  O   UNL     1      97.019  97.553  71.993  1.00  0.00    -0.504 OA
ATOM     23  H   UNL     1      96.651  98.121  71.295  1.00  0.00     0.293 HD
ENDBRANCH  19  22
ENDBRANCH  13  14
ENDBRANCH  12  13
ENDBRANCH  10  12
ENDBRANCH   1  10
TORSDOF 12
ENDMDL
MODEL 2
REMARK VINA RESULT:    -5.872      3.449      5.029
REMARK INTER + INTRA:         -10.839
REMARK INTER:                 -10.137
REMARK INTRA:                  -0.702
REMARK UNBOUND:                -1.191
REMARK SMILES CCCCC[C@H](O)CC(=O)CCc1ccc(O)c(OC)c1
REMARK SMILES IDX 8 1 6 2 7 3 5 5 4 6 3 7 2 8 1 9 9 10 10 11 11 12 12 13 13 14
REMARK SMILES IDX 21 15 14 16 18 17 15 18 16 19 19 20 20 21 17 22
REMARK H PARENT 7 4 17 23
REMARK Flexibility Score: inf
ROOT
ATOM      1  C   UNL     1      91.408  95.964  76.723  1.00  0.00     0.107 C 
ENDROOT
BRANCH   1   2
ATOM      2  C   UNL     1      91.358  95.156  75.424  1.00  0.00     0.121 C 
BRANCH   2   3
ATOM      3  O   UNL     1      92.578  94.437  75.255  1.00  0.00    -0.393 OA
ATOM      4  H   UNL     1      93.273  94.913  75.742  1.00  0.00     0.210 HD
ENDBRANCH   2   3
BRANCH   2   5
ATOM      5  C   UNL     1      90.182  94.173  75.373  1.00  0.00     0.032 C 
BRANCH   5   6
ATOM      6  C   UNL     1      90.319  93.169  74.221  1.00  0.00     0.003 C 
BRANCH   6   7
ATOM      7  C   UNL     1      89.711  91.798  74.536  1.00  0.00    -0.000 C 
BRANCH   7   8
ATOM      8  C   UNL     1      90.133  90.703  73.558  1.00  0.00    -0.003 C 
ATOM      9  C   UNL     1      90.732  89.510  74.287  1.00  0.00     0.004 C 
ENDBRANCH   7   8
ENDBRANCH   6   7
ENDBRANCH   5   6
ENDBRANCH   2   5
ENDBRANCH   1   2
BRANCH   1  10
ATOM     10  C   UNL     1      92.604  95.618  77.594  1.00  0.00     0.135 C 
ATOM     11  O   UNL     1      92.588  94.629  78.327  1.00  0.00    -0.300 OA
BRANCH  10  12
ATOM     12  C   UNL     1      93.819  96.525  77.475  1.00  0.00     0.080 C 
BRANCH  12  13
ATOM     13  C   UNL     1      95.102  95.911  78.040  1.00  0.00     0.043 C 
BRANCH  13  14
ATOM     14  C   UNL     1      95.680  96.702  79.190  1.00  0.00    -0.044 A 
ATOM     15  C   UNL     1      96.638  96.125  80.022  1.00  0.00     0.054 A 
ATOM     16  C   UNL     1      95.254  98.011  79.418  1.00  0.00     0.008 A 
ATOM     17  C   UNL     1      97.172  96.857  81.083  1.00  0.00     0.160 A 
ATOM     18  C   UNL     1      95.788  98.743  80.479  1.00  0.00     0.050 A 
ATOM     19  C   UNL     1      96.747  98.166  81.312  1.00  0.00     0.157 A 
BRANCH  17  20
ATOM     20  O   UNL     1      98.108  96.282  81.890  1.00  0.00    -0.493 OA
ATOM     21  C   UNL     1      97.660  95.252  82.769  1.00  0.00     0.278 C 
ENDBRANCH  17  20
BRANCH  19  22
ATOM     22  O   UNL     1      97.260  98.890  82.344  1.00  0.00    -0.504 OA
ATOM     23  H   UNL     1      97.122  99.837  82.167  1.00  0.00     0.293 HD
ENDBRANCH  19  22
ENDBRANCH  13  14
ENDBRANCH  12  13
ENDBRANCH  10  12
ENDBRANCH   1  10
TORSDOF 12
ENDMDL
MODEL 3
REMARK VINA RESULT:    -5.766      1.824      2.189
REMARK INTER + INTRA:         -10.666
REMARK INTER:                  -9.555
REMARK INTRA:                  -1.111
REMARK UNBOUND:                -1.191
REMARK SMILES CCCCC[C@H](O)CC(=O)CCc1ccc(O)c(OC)c1
REMARK SMILES IDX 8 1 6 2 7 3 5 5 4 6 3 7 2 8 1 9 9 10 10 11 11 12 12 13 13 14
REMARK SMILES IDX 21 15 14 16 18 17 15 18 16 19 19 20 20 21 17 22
REMARK H PARENT 7 4 17 23
REMARK Flexibility Score: inf
ROOT
ATOM      1  C   UNL     1      92.475  95.569  77.583  1.00  0.00     0.107 C 
ENDROOT
BRANCH   1   2
ATOM      2  C   UNL     1      92.122  94.314  76.780  1.00  0.00     0.121 C 
BRANCH   2   3
ATOM      3  O   UNL     1      91.184  93.524  77.506  1.00  0.00    -0.393 OA
ATOM      4  H   UNL     1      90.801  92.875  76.889  1.00  0.00     0.210 HD
ENDBRANCH   2   3
BRANCH   2   5
ATOM      5  C   UNL     1      91.548  94.631  75.393  1.00  0.00     0.032 C 
BRANCH   5   6
ATOM      6  C   UNL     1      90.101  94.146  75.243  1.00  0.00     0.003 C 
BRANCH   6   7
ATOM      7  C   UNL     1      89.917  93.129  74.112  1.00  0.00    -0.000 C 
BRANCH   7   8
ATOM      8  C   UNL     1      90.337  91.710  74.491  1.00  0.00    -0.003 C 
ATOM      9  C   UNL     1      89.263  90.697  74.122  1.00  0.00     0.004 C 
ENDBRANCH   7   8
ENDBRANCH   6   7
ENDBRANCH   5   6
ENDBRANCH   2   5
ENDBRANCH   1   2
BRANCH   1  10
ATOM     10  C   UNL     1      93.902  95.559  78.106  1.00  0.00     0.135 C 
ATOM     11  O   UNL     1      94.265  94.728  78.938  1.00  0.00    -0.300 OA
BRANCH  10  12
ATOM     12  C   UNL     1      94.852  96.590  77.517  1.00  0.00     0.080 C 
BRANCH  12  13
ATOM     13  C   UNL     1      94.142  97.789  76.885  1.00  0.00     0.043 C 
BRANCH  13  14
ATOM     14  C   UNL     1      94.362  97.889  75.394  1.00  0.00    -0.044 A 
ATOM     15  C   UNL     1      94.418  99.140  74.779  1.00  0.00     0.054 A 
ATOM     16  C   UNL     1      94.510  96.730  74.632  1.00  0.00     0.008 A 
ATOM     17  C   UNL     1      94.622  99.231  73.402  1.00  0.00     0.160 A 
ATOM     18  C   UNL     1      94.715  96.821  73.255  1.00  0.00     0.050 A 
ATOM     19  C   UNL     1      94.770  98.071  72.640  1.00  0.00     0.157 A 
BRANCH  17  20
ATOM     20  O   UNL     1      94.674 100.458  72.812  1.00  0.00    -0.493 OA
ATOM     21  C   UNL     1      93.429 101.092  72.524  1.00  0.00     0.278 C 
ENDBRANCH  17  20
BRANCH  19  22
ATOM     22  O   UNL     1      94.970  98.147  71.295  1.00  0.00    -0.504 OA
ATOM     23  H   UNL     1      95.373  97.317  70.987  1.00  0.00     0.293 HD
ENDBRANCH  19  22
ENDBRANCH  13  14
ENDBRANCH  12  13
ENDBRANCH  10  12
ENDBRANCH   1  10
TORSDOF 12
ENDMDL
MODEL 4
REMARK VINA RESULT:    -5.638      2.418      3.630
REMARK INTER + INTRA:         -10.454
REMARK INTER:                  -9.371
REMARK INTRA:                  -1.083
REMARK UNBOUND:                -1.191
REMARK SMILES CCCCC[C@H](O)CC(=O)CCc1ccc(O)c(OC)c1
REMARK SMILES IDX 8 1 6 2 7 3 5 5 4 6 3 7 2 8 1 9 9 10 10 11 11 12 12 13 13 14
REMARK SMILES IDX 21 15 14 16 18 17 15 18 16 19 19 20 20 21 17 22
REMARK H PARENT 7 4 17 23
REMARK Flexibility Score: inf
ROOT
ATOM      1  C   UNL     1      93.536  96.731  76.993  1.00  0.00     0.107 C 
ENDROOT
BRANCH   1   2
ATOM      2  C   UNL     1      93.496  95.358  77.670  1.00  0.00     0.121 C 
BRANCH   2   3
ATOM      3  O   UNL     1      93.999  95.461  79.000  1.00  0.00    -0.393 OA
ATOM      4  H   UNL     1      94.494  96.296  79.067  1.00  0.00     0.210 HD
ENDBRANCH   2   3
BRANCH   2   5
ATOM      5  C   UNL     1      92.090  94.748  77.707  1.00  0.00     0.032 C 
BRANCH   5   6
ATOM      6  C   UNL     1      91.079  95.580  76.910  1.00  0.00     0.003 C 
BRANCH   6   7
ATOM      7  C   UNL     1      90.262  94.751  75.914  1.00  0.00    -0.000 C 
BRANCH   7   8
ATOM      8  C   UNL     1      91.119  93.938  74.946  1.00  0.00    -0.003 C 
ATOM      9  C   UNL     1      90.283  92.920  74.186  1.00  0.00     0.004 C 
ENDBRANCH   7   8
ENDBRANCH   6   7
ENDBRANCH   5   6
ENDBRANCH   2   5
ENDBRANCH   1   2
BRANCH   1  10
ATOM     10  C   UNL     1      94.949  97.247  76.774  1.00  0.00     0.135 C 
ATOM     11  O   UNL     1      95.756  97.292  77.702  1.00  0.00    -0.300 OA
BRANCH  10  12
ATOM     12  C   UNL     1      95.314  97.655  75.355  1.00  0.00     0.080 C 
BRANCH  12  13
ATOM     13  C   UNL     1      94.497  96.937  74.280  1.00  0.00     0.043 C 
BRANCH  13  14
ATOM     14  C   UNL     1      94.683  97.528  72.902  1.00  0.00    -0.044 A 
ATOM     15  C   UNL     1      93.897  98.605  72.493  1.00  0.00     0.054 A 
ATOM     16  C   UNL     1      95.642  96.996  72.040  1.00  0.00     0.008 A 
ATOM     17  C   UNL     1      94.071  99.151  71.221  1.00  0.00     0.160 A 
ATOM     18  C   UNL     1      95.816  97.542  70.768  1.00  0.00     0.050 A 
ATOM     19  C   UNL     1      95.030  98.619  70.358  1.00  0.00     0.157 A 
BRANCH  17  20
ATOM     20  O   UNL     1      93.297 100.202  70.832  1.00  0.00    -0.493 OA
ATOM     21  C   UNL     1      91.911 100.145  71.165  1.00  0.00     0.278 C 
ENDBRANCH  17  20
BRANCH  19  22
ATOM     22  O   UNL     1      95.209  99.143  69.114  1.00  0.00    -0.504 OA
ATOM     23  H   UNL     1      94.339  99.324  68.718  1.00  0.00     0.293 HD
ENDBRANCH  19  22
ENDBRANCH  13  14
ENDBRANCH  12  13
ENDBRANCH  10  12
ENDBRANCH   1  10
TORSDOF 12
ENDMDL
MODEL 5
REMARK VINA RESULT:    -5.572     12.225     14.454
REMARK INTER + INTRA:         -10.347
REMARK INTER:                  -9.490
REMARK INTRA:                  -0.857
REMARK UNBOUND:                -1.191
REMARK SMILES CCCCC[C@H](O)CC(=O)CCc1ccc(O)c(OC)c1
REMARK SMILES IDX 8 1 6 2 7 3 5 5 4 6 3 7 2 8 1 9 9 10 10 11 11 12 12 13 13 14
REMARK SMILES IDX 21 15 14 16 18 17 15 18 16 19 19 20 20 21 17 22
REMARK H PARENT 7 4 17 23
REMARK Flexibility Score: inf
ROOT
ATOM      1  C   UNL     1      98.156  81.744  82.217  1.00  0.00     0.107 C 
ENDROOT
BRANCH   1   2
ATOM      2  C   UNL     1      96.636  81.741  82.400  1.00  0.00     0.121 C 
BRANCH   2   3
ATOM      3  O   UNL     1      96.206  80.456  82.844  1.00  0.00    -0.393 OA
ATOM      4  H   UNL     1      96.588  80.302  83.725  1.00  0.00     0.210 HD
ENDBRANCH   2   3
BRANCH   2   5
ATOM      5  C   UNL     1      96.150  82.806  83.390  1.00  0.00     0.032 C 
BRANCH   5   6
ATOM      6  C   UNL     1      96.038  84.190  82.739  1.00  0.00     0.003 C 
BRANCH   6   7
ATOM      7  C   UNL     1      95.947  85.333  83.756  1.00  0.00    -0.000 C 
BRANCH   7   8
ATOM      8  C   UNL     1      94.888  85.109  84.834  1.00  0.00    -0.003 C 
ATOM      9  C   UNL     1      94.294  86.426  85.309  1.00  0.00     0.004 C 
ENDBRANCH   7   8
ENDBRANCH   6   7
ENDBRANCH   5   6
ENDBRANCH   2   5
ENDBRANCH   1   2
BRANCH   1  10
ATOM     10  C   UNL     1      98.586  82.151  80.817  1.00  0.00     0.135 C 
ATOM     11  O   UNL     1      99.734  82.537  80.594  1.00  0.00    -0.300 OA
BRANCH  10  12
ATOM     12  C   UNL     1      97.545  82.012  79.716  1.00  0.00     0.080 C 
BRANCH  12  13
ATOM     13  C   UNL     1      96.936  83.344  79.275  1.00  0.00     0.043 C 
BRANCH  13  14
ATOM     14  C   UNL     1      97.251  83.693  77.839  1.00  0.00    -0.044 A 
ATOM     15  C   UNL     1      98.430  83.232  77.252  1.00  0.00     0.054 A 
ATOM     16  C   UNL     1      96.364  84.476  77.101  1.00  0.00     0.008 A 
ATOM     17  C   UNL     1      98.720  83.554  75.926  1.00  0.00     0.160 A 
ATOM     18  C   UNL     1      96.654  84.798  75.775  1.00  0.00     0.050 A 
ATOM     19  C   UNL     1      97.832  84.337  75.188  1.00  0.00     0.157 A 
BRANCH  17  20
ATOM     20  O   UNL     1      99.874  83.098  75.364  1.00  0.00    -0.493 OA
ATOM     21  C   UNL     1     100.249  81.753  75.652  1.00  0.00     0.278 C 
ENDBRANCH  17  20
BRANCH  19  22
ATOM     22  O   UNL     1      98.104  84.658  73.893  1.00  0.00    -0.504 OA
ATOM     23  H   UNL     1      97.503  85.368  73.609  1.00  0.00     0.293 HD
ENDBRANCH  19  22
ENDBRANCH  13  14
ENDBRANCH  12  13
ENDBRANCH  10  12
ENDBRANCH   1  10
TORSDOF 12
ENDMDL
MODEL 6
REMARK VINA RESULT:    -5.541     14.528     18.281
REMARK INTER + INTRA:         -10.295
REMARK INTER:                  -9.592
REMARK INTRA:                  -0.704
REMARK UNBOUND:                -1.191
REMARK SMILES CCCCC[C@H](O)CC(=O)CCc1ccc(O)c(OC)c1
REMARK SMILES IDX 8 1 6 2 7 3 5 5 4 6 3 7 2 8 1 9 9 10 10 11 11 12 12 13 13 14
REMARK SMILES IDX 21 15 14 16 18 17 15 18 16 19 19 20 20 21 17 22
REMARK H PARENT 7 4 17 23
REMARK Flexibility Score: inf
ROOT
ATOM      1  C   UNL     1      95.766  80.653  83.685  1.00  0.00     0.107 C 
ENDROOT
BRANCH   1   2
ATOM      2  C   UNL     1      96.232  81.978  83.076  1.00  0.00     0.121 C 
BRANCH   2   3
ATOM      3  O   UNL     1      97.192  82.592  83.932  1.00  0.00    -0.393 OA
ATOM      4  H   UNL     1      96.768  83.360  84.353  1.00  0.00     0.210 HD
ENDBRANCH   2   3
BRANCH   2   5
ATOM      5  C   UNL     1      96.835  81.815  81.676  1.00  0.00     0.032 C 
BRANCH   5   6
ATOM      6  C   UNL     1      96.878  83.143  80.909  1.00  0.00     0.003 C 
BRANCH   6   7
ATOM      7  C   UNL     1      97.847  83.126  79.722  1.00  0.00    -0.000 C 
BRANCH   7   8
ATOM      8  C   UNL     1      97.163  83.324  78.371  1.00  0.00    -0.003 C 
ATOM      9  C   UNL     1      97.349  82.111  77.472  1.00  0.00     0.004 C 
ENDBRANCH   7   8
ENDBRANCH   6   7
ENDBRANCH   5   6
ENDBRANCH   2   5
ENDBRANCH   1   2
BRANCH   1  10
ATOM     10  C   UNL     1      94.824  80.838  84.864  1.00  0.00     0.135 C 
ATOM     11  O   UNL     1      95.229  81.301  85.931  1.00  0.00    -0.300 OA
BRANCH  10  12
ATOM     12  C   UNL     1      93.366  80.468  84.637  1.00  0.00     0.080 C 
BRANCH  12  13
ATOM     13  C   UNL     1      92.491  81.648  84.212  1.00  0.00     0.043 C 
BRANCH  13  14
ATOM     14  C   UNL     1      91.013  81.361  84.329  1.00  0.00    -0.044 A 
ATOM     15  C   UNL     1      90.535  80.065  84.128  1.00  0.00     0.054 A 
ATOM     16  C   UNL     1      90.125  82.391  84.638  1.00  0.00     0.008 A 
ATOM     17  C   UNL     1      89.170  79.801  84.237  1.00  0.00     0.160 A 
ATOM     18  C   UNL     1      88.759  82.127  84.748  1.00  0.00     0.050 A 
ATOM     19  C   UNL     1      88.282  80.832  84.547  1.00  0.00     0.157 A 
BRANCH  17  20
ATOM     20  O   UNL     1      88.715  78.532  84.038  1.00  0.00    -0.493 OA
ATOM     21  C   UNL     1      89.563  77.466  84.463  1.00  0.00     0.278 C 
ENDBRANCH  17  20
BRANCH  19  22
ATOM     22  O   UNL     1      86.947  80.586  84.656  1.00  0.00    -0.504 OA
ATOM     23  H   UNL     1      86.753  80.286  85.560  1.00  0.00     0.293 HD
ENDBRANCH  19  22
ENDBRANCH  13  14
ENDBRANCH  12  13
ENDBRANCH  10  12
ENDBRANCH   1  10
TORSDOF 12
ENDMDL
MODEL 7
REMARK VINA RESULT:    -5.407     13.605     15.975
REMARK INTER + INTRA:         -10.075
REMARK INTER:                  -8.715
REMARK INTRA:                  -1.360
REMARK UNBOUND:                -1.191
REMARK SMILES CCCCC[C@H](O)CC(=O)CCc1ccc(O)c(OC)c1
REMARK SMILES IDX 8 1 6 2 7 3 5 5 4 6 3 7 2 8 1 9 9 10 10 11 11 12 12 13 13 14
REMARK SMILES IDX 21 15 14 16 18 17 15 18 16 19 19 20 20 21 17 22
REMARK H PARENT 7 4 17 23
REMARK Flexibility Score: inf
ROOT
ATOM      1  C   UNL     1      90.998  94.530  91.282  1.00  0.00     0.107 C 
ENDROOT
BRANCH   1   2
ATOM      2  C   UNL     1      91.578  95.363  90.136  1.00  0.00     0.121 C 
BRANCH   2   3
ATOM      3  O   UNL     1      90.761  96.509  89.910  1.00  0.00    -0.393 OA
ATOM      4  H   UNL     1      91.145  97.006  89.167  1.00  0.00     0.210 HD
ENDBRANCH   2   3
BRANCH   2   5
ATOM      5  C   UNL     1      93.021  95.814  90.393  1.00  0.00     0.032 C 
BRANCH   5   6
ATOM      6  C   UNL     1      94.010  95.166  89.416  1.00  0.00     0.003 C 
BRANCH   6   7
ATOM      7  C   UNL     1      94.986  94.199  90.093  1.00  0.00    -0.000 C 
BRANCH   7   8
ATOM      8  C   UNL     1      95.519  94.705  91.432  1.00  0.00    -0.003 C 
ATOM      9  C   UNL     1      96.970  94.300  91.640  1.00  0.00     0.004 C 
ENDBRANCH   7   8
ENDBRANCH   6   7
ENDBRANCH   5   6
ENDBRANCH   2   5
ENDBRANCH   1   2
BRANCH   1  10
ATOM     10  C   UNL     1      91.760  93.237  91.525  1.00  0.00     0.135 C 
ATOM     11  O   UNL     1      92.434  93.082  92.543  1.00  0.00    -0.300 OA
BRANCH  10  12
ATOM     12  C   UNL     1      91.606  92.148  90.474  1.00  0.00     0.080 C 
BRANCH  12  13
ATOM     13  C   UNL     1      92.463  90.910  90.743  1.00  0.00     0.043 C 
BRANCH  13  14
ATOM     14  C   UNL     1      93.185  90.411  89.514  1.00  0.00    -0.044 A 
ATOM     15  C   UNL     1      93.361  89.042  89.315  1.00  0.00     0.054 A 
ATOM     16  C   UNL     1      93.676  91.321  88.577  1.00  0.00     0.008 A 
ATOM     17  C   UNL     1      94.027  88.583  88.178  1.00  0.00     0.160 A 
ATOM     18  C   UNL     1      94.342  90.862  87.441  1.00  0.00     0.050 A 
ATOM     19  C   UNL     1      94.518  89.493  87.242  1.00  0.00     0.157 A 
BRANCH  17  20
ATOM     20  O   UNL     1      94.193  87.243  87.995  1.00  0.00    -0.493 OA
ATOM     21  C   UNL     1      93.337  86.376  88.737  1.00  0.00     0.278 C 
ENDBRANCH  17  20
BRANCH  19  22
ATOM     22  O   UNL     1      95.170  89.057  86.128  1.00  0.00    -0.504 OA
ATOM     23  H   UNL     1      96.016  88.657  86.393  1.00  0.00     0.293 HD
ENDBRANCH  19  22
ENDBRANCH  13  14
ENDBRANCH  12  13
ENDBRANCH  10  12
ENDBRANCH   1  10
TORSDOF 12
ENDMDL
MODEL 8
REMARK VINA RESULT:    -5.385     12.522     15.460
REMARK INTER + INTRA:         -10.039
REMARK INTER:                  -8.696
REMARK INTRA:                  -1.342
REMARK UNBOUND:                -1.191
REMARK SMILES CCCCC[C@H](O)CC(=O)CCc1ccc(O)c(OC)c1
REMARK SMILES IDX 8 1 6 2 7 3 5 5 4 6 3 7 2 8 1 9 9 10 10 11 11 12 12 13 13 14
REMARK SMILES IDX 21 15 14 16 18 17 15 18 16 19 19 20 20 21 17 22
REMARK H PARENT 7 4 17 23
REMARK Flexibility Score: inf
ROOT
ATOM      1  C   UNL     1      97.939  83.592  74.454  1.00  0.00     0.107 C 
ENDROOT
BRANCH   1   2
ATOM      2  C   UNL     1      98.931  84.547  73.785  1.00  0.00     0.121 C 
BRANCH   2   3
ATOM      3  O   UNL     1      98.967  85.782  74.496  1.00  0.00    -0.393 OA
ATOM      4  H   UNL     1      99.895  85.966  74.726  1.00  0.00     0.210 HD
ENDBRANCH   2   3
BRANCH   2   5
ATOM      5  C   UNL     1     100.351  83.973  73.698  1.00  0.00     0.032 C 
BRANCH   5   6
ATOM      6  C   UNL     1     101.187  84.312  74.937  1.00  0.00     0.003 C 
BRANCH   6   7
ATOM      7  C   UNL     1     101.839  83.086  75.583  1.00  0.00    -0.000 C 
BRANCH   7   8
ATOM      8  C   UNL     1     100.833  82.078  76.136  1.00  0.00    -0.003 C 
ATOM      9  C   UNL     1     101.038  80.699  75.526  1.00  0.00     0.004 C 
ENDBRANCH   7   8
ENDBRANCH   6   7
ENDBRANCH   5   6
ENDBRANCH   2   5
ENDBRANCH   1   2
BRANCH   1  10
ATOM     10  C   UNL     1      97.230  84.210  75.648  1.00  0.00     0.135 C 
ATOM     11  O   UNL     1      96.269  84.963  75.492  1.00  0.00    -0.300 OA
BRANCH  10  12
ATOM     12  C   UNL     1      97.740  83.812  77.025  1.00  0.00     0.080 C 
BRANCH  12  13
ATOM     13  C   UNL     1      96.629  83.609  78.057  1.00  0.00     0.043 C 
BRANCH  13  14
ATOM     14  C   UNL     1      97.068  82.787  79.245  1.00  0.00    -0.044 A 
ATOM     15  C   UNL     1      96.875  83.271  80.538  1.00  0.00     0.054 A 
ATOM     16  C   UNL     1      97.666  81.542  79.048  1.00  0.00     0.008 A 
ATOM     17  C   UNL     1      97.280  82.511  81.635  1.00  0.00     0.160 A 
ATOM     18  C   UNL     1      98.071  80.781  80.145  1.00  0.00     0.050 A 
ATOM     19  C   UNL     1      97.878  81.266  81.438  1.00  0.00     0.157 A 
BRANCH  17  20
ATOM     20  O   UNL     1      97.088  82.995  82.894  1.00  0.00    -0.493 OA
ATOM     21  C   UNL     1      95.742  83.063  83.363  1.00  0.00     0.278 C 
ENDBRANCH  17  20
BRANCH  19  22
ATOM     22  O   UNL     1      98.278  80.514  82.501  1.00  0.00    -0.504 OA
ATOM     23  H   UNL     1      97.545  80.449  83.137  1.00  0.00     0.293 HD
ENDBRANCH  19  22
ENDBRANCH  13  14
ENDBRANCH  12  13
ENDBRANCH  10  12
ENDBRANCH   1  10
TORSDOF 12
ENDMDL
MODEL 9
REMARK VINA RESULT:    -5.321     12.549     15.549
REMARK INTER + INTRA:          -9.934
REMARK INTER:                  -9.399
REMARK INTRA:                  -0.536
REMARK UNBOUND:                -1.191
REMARK SMILES CCCCC[C@H](O)CC(=O)CCc1ccc(O)c(OC)c1
REMARK SMILES IDX 8 1 6 2 7 3 5 5 4 6 3 7 2 8 1 9 9 10 10 11 11 12 12 13 13 14
REMARK SMILES IDX 21 15 14 16 18 17 15 18 16 19 19 20 20 21 17 22
REMARK H PARENT 7 4 17 23
REMARK Flexibility Score: inf
ROOT
ATOM      1  C   UNL     1      97.679  83.467  79.318  1.00  0.00     0.107 C 
ENDROOT
BRANCH   1   2
ATOM      2  C   UNL     1      97.142  83.253  77.901  1.00  0.00     0.121 C 
BRANCH   2   3
ATOM      3  O   UNL     1      95.911  83.953  77.740  1.00  0.00    -0.393 OA
ATOM      4  H   UNL     1      95.992  84.520  76.952  1.00  0.00     0.210 HD
ENDBRANCH   2   3
BRANCH   2   5
ATOM      5  C   UNL     1      98.125  83.702  76.812  1.00  0.00     0.032 C 
BRANCH   5   6
ATOM      6  C   UNL     1      97.661  83.288  75.411  1.00  0.00     0.003 C 
BRANCH   6   7
ATOM      7  C   UNL     1      97.616  84.454  74.418  1.00  0.00    -0.000 C 
BRANCH   7   8
ATOM      8  C   UNL     1      98.462  84.225  73.166  1.00  0.00    -0.003 C 
ATOM      9  C   UNL     1      99.262  85.466  72.803  1.00  0.00     0.004 C 
ENDBRANCH   7   8
ENDBRANCH   6   7
ENDBRANCH   5   6
ENDBRANCH   2   5
ENDBRANCH   1   2
BRANCH   1  10
ATOM     10  C   UNL     1      97.897  82.167  80.075  1.00  0.00     0.135 C 
ATOM     11  O   UNL     1      98.835  81.421  79.795  1.00  0.00    -0.300 OA
BRANCH  10  12
ATOM     12  C   UNL     1      96.930  81.869  81.211  1.00  0.00     0.080 C 
BRANCH  12  13
ATOM     13  C   UNL     1      97.321  82.521  82.538  1.00  0.00     0.043 C 
BRANCH  13  14
ATOM     14  C   UNL     1      96.138  82.783  83.440  1.00  0.00    -0.044 A 
ATOM     15  C   UNL     1      96.053  83.982  84.148  1.00  0.00     0.054 A 
ATOM     16  C   UNL     1      95.131  81.825  83.565  1.00  0.00     0.008 A 
ATOM     17  C   UNL     1      94.959  84.223  84.981  1.00  0.00     0.160 A 
ATOM     18  C   UNL     1      94.038  82.067  84.397  1.00  0.00     0.050 A 
ATOM     19  C   UNL     1      93.952  83.265  85.105  1.00  0.00     0.157 A 
BRANCH  17  20
ATOM     20  O   UNL     1      94.887  85.397  85.668  1.00  0.00    -0.493 OA
ATOM     21  C   UNL     1      94.349  86.522  84.974  1.00  0.00     0.278 C 
ENDBRANCH  17  20
BRANCH  19  22
ATOM     22  O   UNL     1      92.880  83.490  85.915  1.00  0.00    -0.504 OA
ATOM     23  H   UNL     1      93.140  84.105  86.622  1.00  0.00     0.293 HD
ENDBRANCH  19  22
ENDBRANCH  13  14
ENDBRANCH  12  13
ENDBRANCH  10  12
ENDBRANCH   1  10
TORSDOF 12
ENDMDL
MODEL 10
REMARK VINA RESULT:    -5.261     13.077     16.274
REMARK INTER + INTRA:          -9.835
REMARK INTER:                  -8.885
REMARK INTRA:                  -0.950
REMARK UNBOUND:                -1.191
REMARK SMILES CCCCC[C@H](O)CC(=O)CCc1ccc(O)c(OC)c1
REMARK SMILES IDX 8 1 6 2 7 3 5 5 4 6 3 7 2 8 1 9 9 10 10 11 11 12 12 13 13 14
REMARK SMILES IDX 21 15 14 16 18 17 15 18 16 19 19 20 20 21 17 22
REMARK H PARENT 7 4 17 23
REMARK Flexibility Score: inf
ROOT
ATOM      1  C   UNL     1      98.990  81.744  80.347  1.00  0.00     0.107 C 
ENDROOT
BRANCH   1   2
ATOM      2  C   UNL     1      97.969  82.573  79.564  1.00  0.00     0.121 C 
BRANCH   2   3
ATOM      3  O   UNL     1      98.065  83.943  79.944  1.00  0.00    -0.393 OA
ATOM      4  H   UNL     1      98.661  83.998  80.712  1.00  0.00     0.210 HD
ENDBRANCH   2   3
BRANCH   2   5
ATOM      5  C   UNL     1      98.141  82.457  78.044  1.00  0.00     0.032 C 
BRANCH   5   6
ATOM      6  C   UNL     1      97.403  83.573  77.294  1.00  0.00     0.003 C 
BRANCH   6   7
ATOM      7  C   UNL     1      98.101  83.996  75.997  1.00  0.00    -0.000 C 
BRANCH   7   8
ATOM      8  C   UNL     1      97.134  84.321  74.860  1.00  0.00    -0.003 C 
ATOM      9  C   UNL     1      97.700  83.898  73.513  1.00  0.00     0.004 C 
ENDBRANCH   7   8
ENDBRANCH   6   7
ENDBRANCH   5   6
ENDBRANCH   2   5
ENDBRANCH   1   2
BRANCH   1  10
ATOM     10  C   UNL     1      98.480  80.359  80.710  1.00  0.00     0.135 C 
ATOM     11  O   UNL     1      99.207  79.370  80.609  1.00  0.00    -0.300 OA
BRANCH  10  12
ATOM     12  C   UNL     1      97.057  80.273  81.240  1.00  0.00     0.080 C 
BRANCH  12  13
ATOM     13  C   UNL     1      96.969  80.264  82.767  1.00  0.00     0.043 C 
BRANCH  13  14
ATOM     14  C   UNL     1      96.802  81.644  83.359  1.00  0.00    -0.044 A 
ATOM     15  C   UNL     1      97.379  81.949  84.591  1.00  0.00     0.054 A 
ATOM     16  C   UNL     1      96.069  82.612  82.672  1.00  0.00     0.008 A 
ATOM     17  C   UNL     1      97.224  83.224  85.136  1.00  0.00     0.160 A 
ATOM     18  C   UNL     1      95.914  83.887  83.217  1.00  0.00     0.050 A 
ATOM     19  C   UNL     1      96.492  84.193  84.449  1.00  0.00     0.157 A 
BRANCH  17  20
ATOM     20  O   UNL     1      97.792  83.511  86.341  1.00  0.00    -0.493 OA
ATOM     21  C   UNL     1      97.370  82.731  87.458  1.00  0.00     0.278 C 
ENDBRANCH  17  20
BRANCH  19  22
ATOM     22  O   UNL     1      96.334  85.441  84.971  1.00  0.00    -0.504 OA
ATOM     23  H   UNL     1      95.850  85.992  84.333  1.00  0.00     0.293 HD
ENDBRANCH  19  22
ENDBRANCH  13  14
ENDBRANCH  12  13
ENDBRANCH  10  12
ENDBRANCH   1  10
TORSDOF 12
ENDMDL
