MODEL 1
REMARK VINA RESULT:    -6.380      0.000      0.000
REMARK INTER + INTRA:         -11.293
REMARK INTER:                 -10.296
REMARK INTRA:                  -0.997
REMARK UNBOUND:                -0.997
REMARK SMILES COc1cc(CNC(=O)CCCCC/C=C/C(C)C)ccc1O
REMARK SMILES IDX 11 1 10 2 8 3 7 4 9 6 6 7 5 8 3 9 22 10 4 11 21 12 20 13
REMARK SMILES IDX 2 14 1 15 23 16 12 18 13 19 14 20 15 21 16 22 17 23 18 24
REMARK SMILES IDX 19 25
REMARK H PARENT 7 5 23 17
REMARK Flexibility Score: inf
ROOT
ATOM      1  C   UNL     1      89.785  99.465  71.444  1.00  0.00     0.010 C 
ENDROOT
BRANCH   1   2
ATOM      2  C   UNL     1      91.289  99.706  71.155  1.00  0.00     0.100 C 
BRANCH   2   3
ATOM      3  C   UNL     1      92.069 100.118  72.337  1.00  0.00     0.220 C 
ATOM      4  N   UNL     1      92.172  99.281  73.406  1.00  0.00    -0.352 N 
ATOM      5  H   UNL     1      91.624  98.435  73.334  1.00  0.00     0.163 HD
ATOM      6  O   UNL     1      92.656 101.225  72.307  1.00  0.00    -0.275 OA
BRANCH   4   7
ATOM      7  C   UNL     1      92.970  99.512  74.566  1.00  0.00     0.151 C 
BRANCH   7   8
ATOM      8  C   UNL     1      93.384  98.252  75.236  1.00  0.00    -0.025 A 
ATOM      9  C   UNL     1      92.903  96.391  76.770  1.00  0.00     0.160 A 
ATOM     10  C   UNL     1      94.200  95.877  76.552  1.00  0.00     0.157 A 
ATOM     11  C   UNL     1      92.508  97.577  76.119  1.00  0.00     0.056 A 
ATOM     12  C   UNL     1      95.073  96.531  75.664  1.00  0.00     0.050 A 
ATOM     13  C   UNL     1      94.664  97.704  75.002  1.00  0.00     0.009 A 
BRANCH   9  14
ATOM     14  O   UNL     1      92.015  95.715  77.565  1.00  0.00    -0.493 OA
ATOM     15  C   UNL     1      91.112  94.861  76.843  1.00  0.00     0.278 C 
ENDBRANCH   9  14
BRANCH  10  16
ATOM     16  O   UNL     1      94.628  94.754  77.182  1.00  0.00    -0.504 OA
ATOM     17  H   UNL     1      94.135  94.637  77.997  1.00  0.00     0.293 HD
ENDBRANCH  10  16
ENDBRANCH   7   8
ENDBRANCH   4   7
ENDBRANCH   2   3
ENDBRANCH   1   2
BRANCH   1  18
ATOM     18  C   UNL     1      89.377  98.008  71.106  1.00  0.00     0.001 C 
BRANCH  18  19
ATOM     19  C   UNL     1      89.842  97.540  69.704  1.00  0.00     0.004 C 
BRANCH  19  20
ATOM     20  C   UNL     1      88.748  97.790  68.630  1.00  0.00     0.027 C 
BRANCH  20  21
ATOM     21  C   UNL     1      89.008  98.946  67.788  1.00  0.00    -0.031 C 
ATOM     22  C   UNL     1      88.858 100.207  68.232  1.00  0.00    -0.028 C 
BRANCH  22  23
ATOM     23  C   UNL     1      89.117 101.389  67.414  1.00  0.00     0.005 C 
ATOM     24  C   UNL     1      88.451 102.638  68.048  1.00  0.00     0.012 C 
ATOM     25  C   UNL     1      90.645 101.575  67.208  1.00  0.00     0.012 C 
ENDBRANCH  22  23
ENDBRANCH  20  21
ENDBRANCH  19  20
ENDBRANCH  18  19
ENDBRANCH   1  18
TORSDOF 11
ENDMDL
MODEL 2
REMARK VINA RESULT:    -5.971      6.837      9.692
REMARK INTER + INTRA:         -10.634
REMARK INTER:                  -8.832
REMARK INTRA:                  -1.802
REMARK UNBOUND:                -0.997
REMARK SMILES COc1cc(CNC(=O)CCCCC/C=C/C(C)C)ccc1O
REMARK SMILES IDX 11 1 10 2 8 3 7 4 9 6 6 7 5 8 3 9 22 10 4 11 21 12 20 13
REMARK SMILES IDX 2 14 1 15 23 16 12 18 13 19 14 20 15 21 16 22 17 23 18 24
REMARK SMILES IDX 19 25
REMARK H PARENT 7 5 23 17
REMARK Flexibility Score: inf
ROOT
ATOM      1  C   UNL     1      92.586  95.684  78.574  1.00  0.00     0.010 C 
ENDROOT
BRANCH   1   2
ATOM      2  C   UNL     1      92.841  94.228  79.040  1.00  0.00     0.100 C 
BRANCH   2   3
ATOM      3  C   UNL     1      93.989  94.083  79.956  1.00  0.00     0.220 C 
ATOM      4  N   UNL     1      95.131  94.788  79.727  1.00  0.00    -0.352 N 
ATOM      5  H   UNL     1      95.131  95.325  78.871  1.00  0.00     0.163 HD
ATOM      6  O   UNL     1      93.863  93.336  80.955  1.00  0.00    -0.275 OA
BRANCH   4   7
ATOM      7  C   UNL     1      96.274  94.816  80.581  1.00  0.00     0.151 C 
BRANCH   7   8
ATOM      8  C   UNL     1      96.272  95.982  81.502  1.00  0.00    -0.025 A 
ATOM      9  C   UNL     1      97.346  97.306  83.274  1.00  0.00     0.160 A 
ATOM     10  C   UNL     1      96.237  98.180  83.292  1.00  0.00     0.157 A 
ATOM     11  C   UNL     1      97.351  96.211  82.387  1.00  0.00     0.056 A 
ATOM     12  C   UNL     1      95.165  97.972  82.404  1.00  0.00     0.050 A 
ATOM     13  C   UNL     1      95.187  96.888  81.508  1.00  0.00     0.009 A 
BRANCH   9  14
ATOM     14  O   UNL     1      98.432  97.550  84.072  1.00  0.00    -0.493 OA
ATOM     15  C   UNL     1      98.498  96.721  85.245  1.00  0.00     0.278 C 
ENDBRANCH   9  14
BRANCH  10  16
ATOM     16  O   UNL     1      96.180  99.229  84.151  1.00  0.00    -0.504 OA
ATOM     17  H   UNL     1      96.851  99.124  84.829  1.00  0.00     0.293 HD
ENDBRANCH  10  16
ENDBRANCH   7   8
ENDBRANCH   4   7
ENDBRANCH   2   3
ENDBRANCH   1   2
BRANCH   1  18
ATOM     18  C   UNL     1      92.047  95.720  77.121  1.00  0.00     0.001 C 
BRANCH  18  19
ATOM     19  C   UNL     1      92.944  96.521  76.143  1.00  0.00     0.004 C 
BRANCH  19  20
ATOM     20  C   UNL     1      94.445  96.162  76.328  1.00  0.00     0.027 C 
BRANCH  20  21
ATOM     21  C   UNL     1      95.299  97.317  76.553  1.00  0.00    -0.031 C 
ATOM     22  C   UNL     1      95.866  97.570  77.746  1.00  0.00    -0.028 C 
BRANCH  22  23
ATOM     23  C   UNL     1      96.732  98.718  78.003  1.00  0.00     0.005 C 
ATOM     24  C   UNL     1      95.882 100.004  78.177  1.00  0.00     0.012 C 
ATOM     25  C   UNL     1      97.641  98.440  79.231  1.00  0.00     0.012 C 
ENDBRANCH  22  23
ENDBRANCH  20  21
ENDBRANCH  19  20
ENDBRANCH  18  19
ENDBRANCH   1  18
TORSDOF 11
ENDMDL
MODEL 3
REMARK VINA RESULT:    -5.862     19.975     22.835
REMARK INTER + INTRA:         -10.458
REMARK INTER:                  -9.398
REMARK INTRA:                  -1.060
REMARK UNBOUND:                -0.997
REMARK SMILES COc1cc(CNC(=O)CCCCC/C=C/C(C)C)ccc1O
REMARK SMILES IDX 11 1 10 2 8 3 7 4 9 6 6 7 5 8 3 9 22 10 4 11 21 12 20 13
REMARK SMILES IDX 2 14 1 15 23 16 12 18 13 19 14 20 15 21 16 22 17 23 18 24
REMARK SMILES IDX 19 25
REMARK H PARENT 7 5 23 17
REMARK Flexibility Score: inf
ROOT
ATOM      1  C   UNL     1      78.275  85.574  68.423  1.00  0.00     0.010 C 
ENDROOT
BRANCH   1   2
ATOM      2  C   UNL     1      77.452  86.412  67.411  1.00  0.00     0.100 C 
BRANCH   2   3
ATOM      3  C   UNL     1      77.226  85.740  66.118  1.00  0.00     0.220 C 
ATOM      4  N   UNL     1      77.530  84.420  65.978  1.00  0.00    -0.352 N 
ATOM      5  H   UNL     1      77.972  84.001  66.784  1.00  0.00     0.163 HD
ATOM      6  O   UNL     1      76.717  86.403  65.183  1.00  0.00    -0.275 OA
BRANCH   4   7
ATOM      7  C   UNL     1      77.273  83.629  64.819  1.00  0.00     0.151 C 
BRANCH   7   8
ATOM      8  C   UNL     1      76.062  82.780  64.963  1.00  0.00    -0.025 A 
ATOM      9  C   UNL     1      73.875  82.336  65.996  1.00  0.00     0.160 A 
ATOM     10  C   UNL     1      73.778  81.128  65.272  1.00  0.00     0.157 A 
ATOM     11  C   UNL     1      75.018  83.147  65.844  1.00  0.00     0.056 A 
ATOM     12  C   UNL     1      74.803  80.761  64.380  1.00  0.00     0.050 A 
ATOM     13  C   UNL     1      75.931  81.586  64.218  1.00  0.00     0.009 A 
BRANCH   9  14
ATOM     14  O   UNL     1      72.844  82.746  66.800  1.00  0.00    -0.493 OA
ATOM     15  C   UNL     1      72.602  84.162  66.770  1.00  0.00     0.278 C 
ENDBRANCH   9  14
BRANCH  10  16
ATOM     16  O   UNL     1      72.709  80.306  65.412  1.00  0.00    -0.504 OA
ATOM     17  H   UNL     1      72.241  80.245  64.575  1.00  0.00     0.293 HD
ENDBRANCH  10  16
ENDBRANCH   7   8
ENDBRANCH   4   7
ENDBRANCH   2   3
ENDBRANCH   1   2
BRANCH   1  18
ATOM     18  C   UNL     1      77.408  84.459  69.062  1.00  0.00     0.001 C 
BRANCH  18  19
ATOM     19  C   UNL     1      77.222  84.616  70.593  1.00  0.00     0.004 C 
BRANCH  19  20
ATOM     20  C   UNL     1      75.718  84.709  70.974  1.00  0.00     0.027 C 
BRANCH  20  21
ATOM     21  C   UNL     1      75.017  85.804  70.325  1.00  0.00    -0.031 C 
ATOM     22  C   UNL     1      75.105  87.073  70.761  1.00  0.00    -0.028 C 
BRANCH  22  23
ATOM     23  C   UNL     1      74.418  88.196  70.128  1.00  0.00     0.005 C 
ATOM     24  C   UNL     1      73.796  89.122  71.206  1.00  0.00     0.012 C 
ATOM     25  C   UNL     1      75.390  88.957  69.186  1.00  0.00     0.012 C 
ENDBRANCH  22  23
ENDBRANCH  20  21
ENDBRANCH  19  20
ENDBRANCH  18  19
ENDBRANCH   1  18
TORSDOF 11
ENDMDL
MODEL 4
REMARK VINA RESULT:    -5.691     17.171     20.462
REMARK INTER + INTRA:         -10.181
REMARK INTER:                  -7.745
REMARK INTRA:                  -2.437
REMARK UNBOUND:                -0.997
REMARK SMILES COc1cc(CNC(=O)CCCCC/C=C/C(C)C)ccc1O
REMARK SMILES IDX 11 1 10 2 8 3 7 4 9 6 6 7 5 8 3 9 22 10 4 11 21 12 20 13
REMARK SMILES IDX 2 14 1 15 23 16 12 18 13 19 14 20 15 21 16 22 17 23 18 24
REMARK SMILES IDX 19 25
REMARK H PARENT 7 5 23 17
REMARK Flexibility Score: inf
ROOT
ATOM      1  C   UNL     1     101.690  78.550  78.365  1.00  0.00     0.010 C 
ENDROOT
BRANCH   1   2
ATOM      2  C   UNL     1     100.177  78.339  78.630  1.00  0.00     0.100 C 
BRANCH   2   3
ATOM      3  C   UNL     1      99.298  79.181  77.798  1.00  0.00     0.220 C 
ATOM      4  N   UNL     1      99.697  79.551  76.549  1.00  0.00    -0.352 N 
ATOM      5  H   UNL     1     100.636  79.266  76.305  1.00  0.00     0.163 HD
ATOM      6  O   UNL     1      98.176  79.505  78.254  1.00  0.00    -0.275 OA
BRANCH   4   7
ATOM      7  C   UNL     1      98.910  80.278  75.608  1.00  0.00     0.151 C 
BRANCH   7   8
ATOM      8  C   UNL     1      99.222  81.731  75.602  1.00  0.00    -0.025 A 
ATOM      9  C   UNL     1     100.797  83.575  75.191  1.00  0.00     0.160 A 
ATOM     10  C   UNL     1      99.830  84.500  75.644  1.00  0.00     0.157 A 
ATOM     11  C   UNL     1     100.489  82.199  75.182  1.00  0.00     0.056 A 
ATOM     12  C   UNL     1      98.561  84.046  76.048  1.00  0.00     0.050 A 
ATOM     13  C   UNL     1      98.256  82.673  76.017  1.00  0.00     0.009 A 
BRANCH   9  14
ATOM     14  O   UNL     1     102.003  84.013  74.713  1.00  0.00    -0.493 OA
ATOM     15  C   UNL     1     103.082  83.081  74.898  1.00  0.00     0.278 C 
ENDBRANCH   9  14
BRANCH  10  16
ATOM     16  O   UNL     1     100.096  85.829  75.695  1.00  0.00    -0.504 OA
ATOM     17  H   UNL     1      99.274  86.322  75.634  1.00  0.00     0.293 HD
ENDBRANCH  10  16
ENDBRANCH   7   8
ENDBRANCH   4   7
ENDBRANCH   2   3
ENDBRANCH   1   2
BRANCH   1  18
ATOM     18  C   UNL     1     102.218  79.803  79.109  1.00  0.00     0.001 C 
BRANCH  18  19
ATOM     19  C   UNL     1     102.591  80.976  78.168  1.00  0.00     0.004 C 
BRANCH  19  20
ATOM     20  C   UNL     1     101.802  82.266  78.530  1.00  0.00     0.027 C 
BRANCH  20  21
ATOM     21  C   UNL     1     100.529  82.008  79.183  1.00  0.00    -0.031 C 
ATOM     22  C   UNL     1      99.663  82.992  79.481  1.00  0.00    -0.028 C 
BRANCH  22  23
ATOM     23  C   UNL     1      98.374  82.766  80.131  1.00  0.00     0.005 C 
ATOM     24  C   UNL     1      98.440  83.199  81.620  1.00  0.00     0.012 C 
ATOM     25  C   UNL     1      97.245  83.497  79.355  1.00  0.00     0.012 C 
ENDBRANCH  22  23
ENDBRANCH  20  21
ENDBRANCH  19  20
ENDBRANCH  18  19
ENDBRANCH   1  18
TORSDOF 11
ENDMDL
MODEL 5
REMARK VINA RESULT:    -5.627     17.502     20.526
REMARK INTER + INTRA:         -10.078
REMARK INTER:                  -9.572
REMARK INTRA:                  -0.507
REMARK UNBOUND:                -0.997
REMARK SMILES COc1cc(CNC(=O)CCCCC/C=C/C(C)C)ccc1O
REMARK SMILES IDX 11 1 10 2 8 3 7 4 9 6 6 7 5 8 3 9 22 10 4 11 21 12 20 13
REMARK SMILES IDX 2 14 1 15 23 16 12 18 13 19 14 20 15 21 16 22 17 23 18 24
REMARK SMILES IDX 19 25
REMARK H PARENT 7 5 23 17
REMARK Flexibility Score: inf
ROOT
ATOM      1  C   UNL     1      97.072  83.185  85.164  1.00  0.00     0.010 C 
ENDROOT
BRANCH   1   2
ATOM      2  C   UNL     1      98.576  83.094  84.802  1.00  0.00     0.100 C 
BRANCH   2   3
ATOM      3  C   UNL     1      98.850  82.354  83.556  1.00  0.00     0.220 C 
ATOM      4  N   UNL     1      99.543  82.955  82.549  1.00  0.00    -0.352 N 
ATOM      5  H   UNL     1      99.765  83.927  82.712  1.00  0.00     0.163 HD
ATOM      6  O   UNL     1      98.465  81.164  83.473  1.00  0.00    -0.275 OA
BRANCH   4   7
ATOM      7  C   UNL     1      99.958  82.326  81.337  1.00  0.00     0.151 C 
BRANCH   7   8
ATOM      8  C   UNL     1      99.193  82.802  80.156  1.00  0.00    -0.025 A 
ATOM      9  C   UNL     1      99.114  83.476  77.792  1.00  0.00     0.160 A 
ATOM     10  C   UNL     1      97.737  83.760  77.919  1.00  0.00     0.157 A 
ATOM     11  C   UNL     1      99.833  83.008  78.911  1.00  0.00     0.056 A 
ATOM     12  C   UNL     1      97.087  83.542  79.148  1.00  0.00     0.050 A 
ATOM     13  C   UNL     1      97.807  83.056  80.255  1.00  0.00     0.009 A 
BRANCH   9  14
ATOM     14  O   UNL     1      99.738  83.601  76.578  1.00  0.00    -0.493 OA
ATOM     15  C   UNL     1     101.168  83.467  76.636  1.00  0.00     0.278 C 
ENDBRANCH   9  14
BRANCH  10  16
ATOM     16  O   UNL     1      97.016  84.239  76.875  1.00  0.00    -0.504 OA
ATOM     17  H   UNL     1      96.122  84.433  77.166  1.00  0.00     0.293 HD
ENDBRANCH  10  16
ENDBRANCH   7   8
ENDBRANCH   4   7
ENDBRANCH   2   3
ENDBRANCH   1   2
BRANCH   1  18
ATOM     18  C   UNL     1      96.857  84.007  86.461  1.00  0.00     0.001 C 
BRANCH  18  19
ATOM     19  C   UNL     1      96.110  85.346  86.233  1.00  0.00     0.004 C 
BRANCH  19  20
ATOM     20  C   UNL     1      95.300  85.764  87.492  1.00  0.00     0.027 C 
BRANCH  20  21
ATOM     21  C   UNL     1      95.923  86.827  88.261  1.00  0.00    -0.031 C 
ATOM     22  C   UNL     1      95.210  87.676  89.023  1.00  0.00    -0.028 C 
BRANCH  22  23
ATOM     23  C   UNL     1      95.806  88.751  89.812  1.00  0.00     0.005 C 
ATOM     24  C   UNL     1      94.950  90.040  89.700  1.00  0.00     0.012 C 
ATOM     25  C   UNL     1      95.995  88.295  91.285  1.00  0.00     0.012 C 
ENDBRANCH  22  23
ENDBRANCH  20  21
ENDBRANCH  19  20
ENDBRANCH  18  19
ENDBRANCH   1  18
TORSDOF 11
ENDMDL
MODEL 6
REMARK VINA RESULT:    -5.604      2.483      8.284
REMARK INTER + INTRA:         -10.041
REMARK INTER:                  -9.252
REMARK INTRA:                  -0.789
REMARK UNBOUND:                -0.997
REMARK SMILES COc1cc(CNC(=O)CCCCC/C=C/C(C)C)ccc1O
REMARK SMILES IDX 11 1 10 2 8 3 7 4 9 6 6 7 5 8 3 9 22 10 4 11 21 12 20 13
REMARK SMILES IDX 2 14 1 15 23 16 12 18 13 19 14 20 15 21 16 22 17 23 18 24
REMARK SMILES IDX 19 25
REMARK H PARENT 7 5 23 17
REMARK Flexibility Score: inf
ROOT
ATOM      1  C   UNL     1      95.755  97.898  74.867  1.00  0.00     0.010 C 
ENDROOT
BRANCH   1   2
ATOM      2  C   UNL     1      95.470  98.458  73.449  1.00  0.00     0.100 C 
BRANCH   2   3
ATOM      3  C   UNL     1      94.585  99.638  73.437  1.00  0.00     0.220 C 
ATOM      4  N   UNL     1      93.856  99.927  72.324  1.00  0.00    -0.352 N 
ATOM      5  H   UNL     1      94.038  99.325  71.533  1.00  0.00     0.163 HD
ATOM      6  O   UNL     1      94.499 100.329  74.480  1.00  0.00    -0.275 OA
BRANCH   4   7
ATOM      7  C   UNL     1      92.894 100.975  72.211  1.00  0.00     0.151 C 
BRANCH   7   8
ATOM      8  C   UNL     1      91.692 100.567  71.438  1.00  0.00    -0.025 A 
ATOM      9  C   UNL     1      89.979  98.894  70.876  1.00  0.00     0.160 A 
ATOM     10  C   UNL     1      89.432  99.777  69.920  1.00  0.00     0.157 A 
ATOM     11  C   UNL     1      91.109  99.292  71.620  1.00  0.00     0.056 A 
ATOM     12  C   UNL     1      89.993 101.055  69.742  1.00  0.00     0.050 A 
ATOM     13  C   UNL     1      91.109 101.451  70.503  1.00  0.00     0.009 A 
BRANCH   9  14
ATOM     14  O   UNL     1      89.388  97.683  71.119  1.00  0.00    -0.493 OA
ATOM     15  C   UNL     1      89.804  96.636  70.226  1.00  0.00     0.278 C 
ENDBRANCH   9  14
BRANCH  10  16
ATOM     16  O   UNL     1      88.363  99.423  69.163  1.00  0.00    -0.504 OA
ATOM     17  H   UNL     1      88.520  98.558  68.774  1.00  0.00     0.293 HD
ENDBRANCH  10  16
ENDBRANCH   7   8
ENDBRANCH   4   7
ENDBRANCH   2   3
ENDBRANCH   1   2
BRANCH   1  18
ATOM     18  C   UNL     1      94.823  96.703  75.193  1.00  0.00     0.001 C 
BRANCH  18  19
ATOM     19  C   UNL     1      93.692  97.049  76.194  1.00  0.00     0.004 C 
BRANCH  19  20
ATOM     20  C   UNL     1      93.936  96.383  77.577  1.00  0.00     0.027 C 
BRANCH  20  21
ATOM     21  C   UNL     1      92.883  95.466  77.978  1.00  0.00    -0.031 C 
ATOM     22  C   UNL     1      91.602  95.633  77.603  1.00  0.00    -0.028 C 
BRANCH  22  23
ATOM     23  C   UNL     1      90.522  94.726  77.984  1.00  0.00     0.005 C 
ATOM     24  C   UNL     1      89.217  95.097  77.231  1.00  0.00     0.012 C 
ATOM     25  C   UNL     1      90.947  93.253  77.738  1.00  0.00     0.012 C 
ENDBRANCH  22  23
ENDBRANCH  20  21
ENDBRANCH  19  20
ENDBRANCH  18  19
ENDBRANCH   1  18
TORSDOF 11
ENDMDL
MODEL 7
REMARK VINA RESULT:    -5.555     17.319     20.202
REMARK INTER + INTRA:          -9.963
REMARK INTER:                  -9.370
REMARK INTRA:                  -0.593
REMARK UNBOUND:                -0.997
REMARK SMILES COc1cc(CNC(=O)CCCCC/C=C/C(C)C)ccc1O
REMARK SMILES IDX 11 1 10 2 8 3 7 4 9 6 6 7 5 8 3 9 22 10 4 11 21 12 20 13
REMARK SMILES IDX 2 14 1 15 23 16 12 18 13 19 14 20 15 21 16 22 17 23 18 24
REMARK SMILES IDX 19 25
REMARK H PARENT 7 5 23 17
REMARK Flexibility Score: inf
ROOT
ATOM      1  C   UNL     1      97.662  84.523  84.982  1.00  0.00     0.010 C 
ENDROOT
BRANCH   1   2
ATOM      2  C   UNL     1      97.076  84.380  86.410  1.00  0.00     0.100 C 
BRANCH   2   3
ATOM      3  C   UNL     1      96.451  85.611  86.928  1.00  0.00     0.220 C 
ATOM      4  N   UNL     1      96.468  85.869  88.265  1.00  0.00    -0.352 N 
ATOM      5  H   UNL     1      96.861  85.130  88.832  1.00  0.00     0.163 HD
ATOM      6  O   UNL     1      95.951  86.416  86.108  1.00  0.00    -0.275 OA
BRANCH   4   7
ATOM      7  C   UNL     1      95.989  87.061  88.887  1.00  0.00     0.151 C 
BRANCH   7   8
ATOM      8  C   UNL     1      94.694  86.860  89.587  1.00  0.00    -0.025 A 
ATOM      9  C   UNL     1      92.992  87.624  91.189  1.00  0.00     0.160 A 
ATOM     10  C   UNL     1      92.249  86.445  90.961  1.00  0.00     0.157 A 
ATOM     11  C   UNL     1      94.211  87.818  90.509  1.00  0.00     0.056 A 
ATOM     12  C   UNL     1      92.712  85.493  90.034  1.00  0.00     0.050 A 
ATOM     13  C   UNL     1      93.920  85.704  89.344  1.00  0.00     0.009 A 
BRANCH   9  14
ATOM     14  O   UNL     1      92.507  88.596  92.023  1.00  0.00    -0.493 OA
ATOM     15  C   UNL     1      93.199  89.852  91.926  1.00  0.00     0.278 C 
ENDBRANCH   9  14
BRANCH  10  16
ATOM     16  O   UNL     1      91.085  86.206  91.616  1.00  0.00    -0.504 OA
ATOM     17  H   UNL     1      91.274  85.785  92.458  1.00  0.00     0.293 HD
ENDBRANCH  10  16
ENDBRANCH   7   8
ENDBRANCH   4   7
ENDBRANCH   2   3
ENDBRANCH   1   2
BRANCH   1  18
ATOM     18  C   UNL     1      97.457  83.224  84.160  1.00  0.00     0.001 C 
BRANCH  18  19
ATOM     19  C   UNL     1      97.612  83.423  82.631  1.00  0.00     0.004 C 
BRANCH  19  20
ATOM     20  C   UNL     1      98.942  82.809  82.111  1.00  0.00     0.027 C 
BRANCH  20  21
ATOM     21  C   UNL     1      99.171  83.026  80.693  1.00  0.00    -0.031 C 
ATOM     22  C   UNL     1      98.224  82.790  79.768  1.00  0.00    -0.028 C 
BRANCH  22  23
ATOM     23  C   UNL     1      98.421  83.004  78.336  1.00  0.00     0.005 C 
ATOM     24  C   UNL     1      97.579  84.214  77.852  1.00  0.00     0.012 C 
ATOM     25  C   UNL     1      99.932  83.173  78.021  1.00  0.00     0.012 C 
ENDBRANCH  22  23
ENDBRANCH  20  21
ENDBRANCH  19  20
ENDBRANCH  18  19
ENDBRANCH   1  18
TORSDOF 11
ENDMDL
MODEL 8
REMARK VINA RESULT:    -5.482     17.865     21.353
REMARK INTER + INTRA:          -9.844
REMARK INTER:                  -9.172
REMARK INTRA:                  -0.672
REMARK UNBOUND:                -0.997
REMARK SMILES COc1cc(CNC(=O)CCCCC/C=C/C(C)C)ccc1O
REMARK SMILES IDX 11 1 10 2 8 3 7 4 9 6 6 7 5 8 3 9 22 10 4 11 21 12 20 13
REMARK SMILES IDX 2 14 1 15 23 16 12 18 13 19 14 20 15 21 16 22 17 23 18 24
REMARK SMILES IDX 19 25
REMARK H PARENT 7 5 23 17
REMARK Flexibility Score: inf
ROOT
ATOM      1  C   UNL     1      97.602  82.326  84.875  1.00  0.00     0.010 C 
ENDROOT
BRANCH   1   2
ATOM      2  C   UNL     1      97.820  82.512  86.399  1.00  0.00     0.100 C 
BRANCH   2   3
ATOM      3  C   UNL     1      96.576  82.731  87.160  1.00  0.00     0.220 C 
ATOM      4  N   UNL     1      95.370  82.584  86.545  1.00  0.00    -0.352 N 
ATOM      5  H   UNL     1      95.422  82.398  85.553  1.00  0.00     0.163 HD
ATOM      6  O   UNL     1      96.665  83.011  88.379  1.00  0.00    -0.275 OA
BRANCH   4   7
ATOM      7  C   UNL     1      94.097  82.671  87.184  1.00  0.00     0.151 C 
BRANCH   7   8
ATOM      8  C   UNL     1      93.209  81.527  86.849  1.00  0.00    -0.025 A 
ATOM      9  C   UNL     1      91.004  80.652  86.202  1.00  0.00     0.160 A 
ATOM     10  C   UNL     1      91.509  79.335  86.264  1.00  0.00     0.157 A 
ATOM     11  C   UNL     1      91.854  81.736  86.504  1.00  0.00     0.056 A 
ATOM     12  C   UNL     1      92.860  79.117  86.589  1.00  0.00     0.050 A 
ATOM     13  C   UNL     1      93.707  80.205  86.870  1.00  0.00     0.009 A 
BRANCH   9  14
ATOM     14  O   UNL     1      89.714  80.881  85.801  1.00  0.00    -0.493 OA
ATOM     15  C   UNL     1      88.887  81.495  86.804  1.00  0.00     0.278 C 
ENDBRANCH   9  14
BRANCH  10  16
ATOM     16  O   UNL     1      90.717  78.264  86.009  1.00  0.00    -0.504 OA
ATOM     17  H   UNL     1      90.856  77.971  85.105  1.00  0.00     0.293 HD
ENDBRANCH  10  16
ENDBRANCH   7   8
ENDBRANCH   4   7
ENDBRANCH   2   3
ENDBRANCH   1   2
BRANCH   1  18
ATOM     18  C   UNL     1      97.413  83.692  84.167  1.00  0.00     0.001 C 
BRANCH  18  19
ATOM     19  C   UNL     1      97.513  83.613  82.623  1.00  0.00     0.004 C 
BRANCH  19  20
ATOM     20  C   UNL     1      98.724  82.745  82.177  1.00  0.00     0.027 C 
BRANCH  20  21
ATOM     21  C   UNL     1      99.059  82.887  80.771  1.00  0.00    -0.031 C 
ATOM     22  C   UNL     1      98.121  82.907  79.807  1.00  0.00    -0.028 C 
BRANCH  22  23
ATOM     23  C   UNL     1      98.424  83.054  78.386  1.00  0.00     0.005 C 
ATOM     24  C   UNL     1      97.633  84.247  77.787  1.00  0.00     0.012 C 
ATOM     25  C   UNL     1      99.956  83.197  78.176  1.00  0.00     0.012 C 
ENDBRANCH  22  23
ENDBRANCH  20  21
ENDBRANCH  19  20
ENDBRANCH  18  19
ENDBRANCH   1  18
TORSDOF 11
ENDMDL
MODEL 9
REMARK VINA RESULT:    -5.456     17.002     20.205
REMARK INTER + INTRA:          -9.802
REMARK INTER:                  -8.281
REMARK INTRA:                  -1.521
REMARK UNBOUND:                -0.997
REMARK SMILES COc1cc(CNC(=O)CCCCC/C=C/C(C)C)ccc1O
REMARK SMILES IDX 11 1 10 2 8 3 7 4 9 6 6 7 5 8 3 9 22 10 4 11 21 12 20 13
REMARK SMILES IDX 2 14 1 15 23 16 12 18 13 19 14 20 15 21 16 22 17 23 18 24
REMARK SMILES IDX 19 25
REMARK H PARENT 7 5 23 17
REMARK Flexibility Score: inf
ROOT
ATOM      1  C   UNL     1     103.741  80.491  79.331  1.00  0.00     0.010 C 
ENDROOT
BRANCH   1   2
ATOM      2  C   UNL     1     103.679  80.775  80.854  1.00  0.00     0.100 C 
BRANCH   2   3
ATOM      3  C   UNL     1     102.311  80.955  81.376  1.00  0.00     0.220 C 
ATOM      4  N   UNL     1     101.575  82.033  80.988  1.00  0.00    -0.352 N 
ATOM      5  H   UNL     1     102.069  82.693  80.404  1.00  0.00     0.163 HD
ATOM      6  O   UNL     1     101.845  80.078  82.140  1.00  0.00    -0.275 OA
BRANCH   4   7
ATOM      7  C   UNL     1     100.213  82.277  81.338  1.00  0.00     0.151 C 
BRANCH   7   8
ATOM      8  C   UNL     1      99.375  82.631  80.164  1.00  0.00    -0.025 A 
ATOM      9  C   UNL     1      99.034  82.711  77.729  1.00  0.00     0.160 A 
ATOM     10  C   UNL     1      97.795  83.359  77.925  1.00  0.00     0.157 A 
ATOM     11  C   UNL     1      99.817  82.360  78.848  1.00  0.00     0.056 A 
ATOM     12  C   UNL     1      97.337  83.617  79.230  1.00  0.00     0.050 A 
ATOM     13  C   UNL     1      98.116  83.247  80.342  1.00  0.00     0.009 A 
BRANCH   9  14
ATOM     14  O   UNL     1      99.448  82.376  76.468  1.00  0.00    -0.493 OA
ATOM     15  C   UNL     1      99.449  80.963  76.205  1.00  0.00     0.278 C 
ENDBRANCH   9  14
BRANCH  10  16
ATOM     16  O   UNL     1      97.023  83.738  76.876  1.00  0.00    -0.504 OA
ATOM     17  H   UNL     1      96.374  83.054  76.693  1.00  0.00     0.293 HD
ENDBRANCH  10  16
ENDBRANCH   7   8
ENDBRANCH   4   7
ENDBRANCH   2   3
ENDBRANCH   1   2
BRANCH   1  18
ATOM     18  C   UNL     1     104.362  81.687  78.565  1.00  0.00     0.001 C 
BRANCH  18  19
ATOM     19  C   UNL     1     104.455  81.465  77.034  1.00  0.00     0.004 C 
BRANCH  19  20
ATOM     20  C   UNL     1     103.083  81.697  76.343  1.00  0.00     0.027 C 
BRANCH  20  21
ATOM     21  C   UNL     1     102.944  83.013  75.744  1.00  0.00    -0.031 C 
ATOM     22  C   UNL     1     102.304  84.021  76.363  1.00  0.00    -0.028 C 
BRANCH  22  23
ATOM     23  C   UNL     1     102.153  85.356  75.791  1.00  0.00     0.005 C 
ATOM     24  C   UNL     1     103.357  85.686  74.869  1.00  0.00     0.012 C 
ATOM     25  C   UNL     1     100.793  85.472  75.050  1.00  0.00     0.012 C 
ENDBRANCH  22  23
ENDBRANCH  20  21
ENDBRANCH  19  20
ENDBRANCH  18  19
ENDBRANCH   1  18
TORSDOF 11
ENDMDL
MODEL 10
REMARK VINA RESULT:    -5.393     21.464     24.041
REMARK INTER + INTRA:          -9.701
REMARK INTER:                  -8.706
REMARK INTRA:                  -0.995
REMARK UNBOUND:                -0.997
REMARK SMILES COc1cc(CNC(=O)CCCCC/C=C/C(C)C)ccc1O
REMARK SMILES IDX 11 1 10 2 8 3 7 4 9 6 6 7 5 8 3 9 22 10 4 11 21 12 20 13
REMARK SMILES IDX 2 14 1 15 23 16 12 18 13 19 14 20 15 21 16 22 17 23 18 24
REMARK SMILES IDX 19 25
REMARK H PARENT 7 5 23 17
REMARK Flexibility Score: inf
ROOT
ATOM      1  C   UNL     1      71.357  83.076  67.042  1.00  0.00     0.010 C 
ENDROOT
BRANCH   1   2
ATOM      2  C   UNL     1      71.481  81.933  66.001  1.00  0.00     0.100 C 
BRANCH   2   3
ATOM      3  C   UNL     1      72.868  81.629  65.606  1.00  0.00     0.220 C 
ATOM      4  N   UNL     1      73.904  82.087  66.362  1.00  0.00    -0.352 N 
ATOM      5  H   UNL     1      73.633  82.687  67.129  1.00  0.00     0.163 HD
ATOM      6  O   UNL     1      73.057  80.913  64.594  1.00  0.00    -0.275 OA
BRANCH   4   7
ATOM      7  C   UNL     1      75.283  81.787  66.150  1.00  0.00     0.151 C 
BRANCH   7   8
ATOM      8  C   UNL     1      76.189  82.735  66.848  1.00  0.00    -0.025 A 
ATOM      9  C   UNL     1      76.584  84.415  68.600  1.00  0.00     0.160 A 
ATOM     10  C   UNL     1      77.909  84.582  68.141  1.00  0.00     0.157 A 
ATOM     11  C   UNL     1      75.733  83.502  67.946  1.00  0.00     0.056 A 
ATOM     12  C   UNL     1      78.379  83.812  67.060  1.00  0.00     0.050 A 
ATOM     13  C   UNL     1      77.529  82.888  66.425  1.00  0.00     0.009 A 
BRANCH   9  14
ATOM     14  O   UNL     1      76.144  85.095  69.705  1.00  0.00    -0.493 OA
ATOM     15  C   UNL     1      76.231  84.346  70.929  1.00  0.00     0.278 C 
ENDBRANCH   9  14
BRANCH  10  16
ATOM     16  O   UNL     1      78.751  85.471  68.724  1.00  0.00    -0.504 OA
ATOM     17  H   UNL     1      79.512  85.611  68.156  1.00  0.00     0.293 HD
ENDBRANCH  10  16
ENDBRANCH   7   8
ENDBRANCH   4   7
ENDBRANCH   2   3
ENDBRANCH   1   2
BRANCH   1  18
ATOM     18  C   UNL     1      70.063  82.929  67.883  1.00  0.00     0.001 C 
BRANCH  18  19
ATOM     19  C   UNL     1      70.138  83.619  69.268  1.00  0.00     0.004 C 
BRANCH  19  20
ATOM     20  C   UNL     1      71.386  84.540  69.376  1.00  0.00     0.027 C 
BRANCH  20  21
ATOM     21  C   UNL     1      71.129  85.794  70.063  1.00  0.00    -0.031 C 
ATOM     22  C   UNL     1      70.029  85.992  70.811  1.00  0.00    -0.028 C 
BRANCH  22  23
ATOM     23  C   UNL     1      69.745  87.238  71.518  1.00  0.00     0.005 C 
ATOM     24  C   UNL     1      70.958  88.201  71.420  1.00  0.00     0.012 C 
ATOM     25  C   UNL     1      68.439  87.877  70.975  1.00  0.00     0.012 C 
ENDBRANCH  22  23
ENDBRANCH  20  21
ENDBRANCH  19  20
ENDBRANCH  18  19
ENDBRANCH   1  18
TORSDOF 11
ENDMDL
