MODEL 1
REMARK VINA RESULT:    -6.293      0.000      0.000
REMARK INTER + INTRA:         -11.764
REMARK INTER:                 -10.340
REMARK INTRA:                  -1.424
REMARK UNBOUND:                -1.424
REMARK SMILES CCCCC[C@H](O)CC(=O)CCc1ccc(O)c(OC)c1
REMARK SMILES IDX 8 1 6 2 7 3 5 5 4 6 3 7 2 8 1 9 9 10 10 11 11 12 12 13 13 14
REMARK SMILES IDX 21 15 14 16 18 17 15 18 16 19 19 20 20 21 17 22
REMARK H PARENT 7 4 17 23
REMARK Flexibility Score: inf
ROOT
ATOM      1  C   UNL     1      94.402  98.248  75.276  1.00  0.00     0.107 C 
ENDROOT
BRANCH   1   2
ATOM      2  C   UNL     1      95.661  98.425  76.129  1.00  0.00     0.121 C 
BRANCH   2   3
ATOM      3  O   UNL     1      96.140  99.762  76.012  1.00  0.00    -0.393 OA
ATOM      4  H   UNL     1      96.843  99.886  76.674  1.00  0.00     0.210 HD
ENDBRANCH   2   3
BRANCH   2   5
ATOM      5  C   UNL     1      95.433  98.099  77.610  1.00  0.00     0.032 C 
BRANCH   5   6
ATOM      6  C   UNL     1      95.956  96.706  77.981  1.00  0.00     0.003 C 
BRANCH   6   7
ATOM      7  C   UNL     1      95.437  96.202  79.332  1.00  0.00    -0.000 C 
BRANCH   7   8
ATOM      8  C   UNL     1      95.141  94.704  79.354  1.00  0.00    -0.003 C 
ATOM      9  C   UNL     1      95.303  94.086  77.973  1.00  0.00     0.004 C 
ENDBRANCH   7   8
ENDBRANCH   6   7
ENDBRANCH   5   6
ENDBRANCH   2   5
ENDBRANCH   1   2
BRANCH   1  10
ATOM     10  C   UNL     1      94.439  96.998  74.412  1.00  0.00     0.135 C 
ATOM     11  O   UNL     1      94.982  97.008  73.308  1.00  0.00    -0.300 OA
BRANCH  10  12
ATOM     12  C   UNL     1      93.816  95.742  75.003  1.00  0.00     0.080 C 
BRANCH  12  13
ATOM     13  C   UNL     1      92.762  96.024  76.075  1.00  0.00     0.043 C 
BRANCH  13  14
ATOM     14  C   UNL     1      91.799  94.878  76.274  1.00  0.00    -0.044 A 
ATOM     15  C   UNL     1      91.335  94.157  75.174  1.00  0.00     0.054 A 
ATOM     16  C   UNL     1      91.375  94.540  77.560  1.00  0.00     0.008 A 
ATOM     17  C   UNL     1      90.446  93.098  75.360  1.00  0.00     0.160 A 
ATOM     18  C   UNL     1      90.486  93.481  77.745  1.00  0.00     0.050 A 
ATOM     19  C   UNL     1      90.022  92.760  76.645  1.00  0.00     0.157 A 
BRANCH  17  20
ATOM     20  O   UNL     1      89.999  92.401  74.278  1.00  0.00    -0.493 OA
ATOM     21  C   UNL     1      90.626  91.148  74.010  1.00  0.00     0.278 C 
ENDBRANCH  17  20
BRANCH  19  22
ATOM     22  O   UNL     1      89.154  91.728  76.839  1.00  0.00    -0.504 OA
ATOM     23  H   UNL     1      88.333  91.908  76.349  1.00  0.00     0.293 HD
ENDBRANCH  19  22
ENDBRANCH  13  14
ENDBRANCH  12  13
ENDBRANCH  10  12
ENDBRANCH   1  10
TORSDOF 12
ENDMDL
MODEL 2
REMARK VINA RESULT:    -5.990      2.752      7.784
REMARK INTER + INTRA:         -11.265
REMARK INTER:                 -10.686
REMARK INTRA:                  -0.579
REMARK UNBOUND:                -1.424
REMARK SMILES CCCCC[C@H](O)CC(=O)CCc1ccc(O)c(OC)c1
REMARK SMILES IDX 8 1 6 2 7 3 5 5 4 6 3 7 2 8 1 9 9 10 10 11 11 12 12 13 13 14
REMARK SMILES IDX 21 15 14 16 18 17 15 18 16 19 19 20 20 21 17 22
REMARK H PARENT 7 4 17 23
REMARK Flexibility Score: inf
ROOT
ATOM      1  C   UNL     1      91.049  94.248  77.542  1.00  0.00     0.107 C 
ENDROOT
BRANCH   1   2
ATOM      2  C   UNL     1      89.928  93.863  76.573  1.00  0.00     0.121 C 
BRANCH   2   3
ATOM      3  O   UNL     1      89.871  94.802  75.502  1.00  0.00    -0.393 OA
ATOM      4  H   UNL     1      89.718  94.306  74.679  1.00  0.00     0.210 HD
ENDBRANCH   2   3
BRANCH   2   5
ATOM      5  C   UNL     1      90.091  92.451  75.998  1.00  0.00     0.032 C 
BRANCH   5   6
ATOM      6  C   UNL     1      89.975  92.434  74.469  1.00  0.00     0.003 C 
BRANCH   6   7
ATOM      7  C   UNL     1      89.513  91.085  73.910  1.00  0.00    -0.000 C 
BRANCH   7   8
ATOM      8  C   UNL     1      90.537  89.965  74.088  1.00  0.00    -0.003 C 
ATOM      9  C   UNL     1      90.012  88.874  75.008  1.00  0.00     0.004 C 
ENDBRANCH   7   8
ENDBRANCH   6   7
ENDBRANCH   5   6
ENDBRANCH   2   5
ENDBRANCH   1   2
BRANCH   1  10
ATOM     10  C   UNL     1      92.270  94.823  76.843  1.00  0.00     0.135 C 
ATOM     11  O   UNL     1      92.546  94.503  75.686  1.00  0.00    -0.300 OA
BRANCH  10  12
ATOM     12  C   UNL     1      93.091  95.836  77.626  1.00  0.00     0.080 C 
BRANCH  12  13
ATOM     13  C   UNL     1      94.505  95.355  77.959  1.00  0.00     0.043 C 
BRANCH  13  14
ATOM     14  C   UNL     1      95.205  96.231  78.971  1.00  0.00    -0.044 A 
ATOM     15  C   UNL     1      95.991  95.654  79.968  1.00  0.00     0.054 A 
ATOM     16  C   UNL     1      95.065  97.618  78.907  1.00  0.00     0.008 A 
ATOM     17  C   UNL     1      96.638  96.465  80.901  1.00  0.00     0.160 A 
ATOM     18  C   UNL     1      95.712  98.428  79.840  1.00  0.00     0.050 A 
ATOM     19  C   UNL     1      96.498  97.851  80.837  1.00  0.00     0.157 A 
BRANCH  17  20
ATOM     20  O   UNL     1      97.402  95.890  81.871  1.00  0.00    -0.493 OA
ATOM     21  C   UNL     1      98.780  95.677  81.569  1.00  0.00     0.278 C 
ENDBRANCH  17  20
BRANCH  19  22
ATOM     22  O   UNL     1      97.125  98.653  81.743  1.00  0.00    -0.504 OA
ATOM     23  H   UNL     1      97.964  98.965  81.363  1.00  0.00     0.293 HD
ENDBRANCH  19  22
ENDBRANCH  13  14
ENDBRANCH  12  13
ENDBRANCH  10  12
ENDBRANCH   1  10
TORSDOF 12
ENDMDL
MODEL 3
REMARK VINA RESULT:    -5.891     13.475     16.000
REMARK INTER + INTRA:         -11.103
REMARK INTER:                 -10.119
REMARK INTRA:                  -0.984
REMARK UNBOUND:                -1.424
REMARK SMILES CCCCC[C@H](O)CC(=O)CCc1ccc(O)c(OC)c1
REMARK SMILES IDX 8 1 6 2 7 3 5 5 4 6 3 7 2 8 1 9 9 10 10 11 11 12 12 13 13 14
REMARK SMILES IDX 21 15 14 16 18 17 15 18 16 19 19 20 20 21 17 22
REMARK H PARENT 7 4 17 23
REMARK Flexibility Score: inf
ROOT
ATOM      1  C   UNL     1      93.157  81.876  84.319  1.00  0.00     0.107 C 
ENDROOT
BRANCH   1   2
ATOM      2  C   UNL     1      93.235  82.723  85.591  1.00  0.00     0.121 C 
BRANCH   2   3
ATOM      3  O   UNL     1      92.836  81.943  86.716  1.00  0.00    -0.393 OA
ATOM      4  H   UNL     1      92.650  82.554  87.451  1.00  0.00     0.210 HD
ENDBRANCH   2   3
BRANCH   2   5
ATOM      5  C   UNL     1      94.635  83.296  85.846  1.00  0.00     0.032 C 
BRANCH   5   6
ATOM      6  C   UNL     1      95.732  82.453  85.183  1.00  0.00     0.003 C 
BRANCH   6   7
ATOM      7  C   UNL     1      96.665  83.272  84.285  1.00  0.00    -0.000 C 
BRANCH   7   8
ATOM      8  C   UNL     1      95.929  84.144  83.270  1.00  0.00    -0.003 C 
ATOM      9  C   UNL     1      95.937  85.607  83.688  1.00  0.00     0.004 C 
ENDBRANCH   7   8
ENDBRANCH   6   7
ENDBRANCH   5   6
ENDBRANCH   2   5
ENDBRANCH   1   2
BRANCH   1  10
ATOM     10  C   UNL     1      92.475  80.535  84.536  1.00  0.00     0.135 C 
ATOM     11  O   UNL     1      93.023  79.644  85.184  1.00  0.00    -0.300 OA
BRANCH  10  12
ATOM     12  C   UNL     1      91.078  80.378  83.954  1.00  0.00     0.080 C 
BRANCH  12  13
ATOM     13  C   UNL     1      89.959  80.584  84.977  1.00  0.00     0.043 C 
BRANCH  13  14
ATOM     14  C   UNL     1      88.737  81.250  84.392  1.00  0.00    -0.044 A 
ATOM     15  C   UNL     1      88.347  82.511  84.843  1.00  0.00     0.054 A 
ATOM     16  C   UNL     1      87.999  80.604  83.399  1.00  0.00     0.008 A 
ATOM     17  C   UNL     1      87.218  83.126  84.300  1.00  0.00     0.160 A 
ATOM     18  C   UNL     1      86.871  81.219  82.857  1.00  0.00     0.050 A 
ATOM     19  C   UNL     1      86.480  82.480  83.308  1.00  0.00     0.157 A 
BRANCH  17  20
ATOM     20  O   UNL     1      86.846  84.357  84.749  1.00  0.00    -0.493 OA
ATOM     21  C   UNL     1      86.230  84.420  86.034  1.00  0.00     0.278 C 
ENDBRANCH  17  20
BRANCH  19  22
ATOM     22  O   UNL     1      85.376  83.071  82.771  1.00  0.00    -0.504 OA
ATOM     23  H   UNL     1      85.416  84.028  82.938  1.00  0.00     0.293 HD
ENDBRANCH  19  22
ENDBRANCH  13  14
ENDBRANCH  12  13
ENDBRANCH  10  12
ENDBRANCH   1  10
TORSDOF 12
ENDMDL
MODEL 4
REMARK VINA RESULT:    -5.733      2.908      6.985
REMARK INTER + INTRA:         -10.843
REMARK INTER:                  -9.642
REMARK INTRA:                  -1.201
REMARK UNBOUND:                -1.424
REMARK SMILES CCCCC[C@H](O)CC(=O)CCc1ccc(O)c(OC)c1
REMARK SMILES IDX 8 1 6 2 7 3 5 5 4 6 3 7 2 8 1 9 9 10 10 11 11 12 12 13 13 14
REMARK SMILES IDX 21 15 14 16 18 17 15 18 16 19 19 20 20 21 17 22
REMARK H PARENT 7 4 17 23
REMARK Flexibility Score: inf
ROOT
ATOM      1  C   UNL     1      93.862  94.867  76.281  1.00  0.00     0.107 C 
ENDROOT
BRANCH   1   2
ATOM      2  C   UNL     1      92.657  94.660  77.202  1.00  0.00     0.121 C 
BRANCH   2   3
ATOM      3  O   UNL     1      93.065  94.772  78.564  1.00  0.00    -0.393 OA
ATOM      4  H   UNL     1      92.355  94.402  79.118  1.00  0.00     0.210 HD
ENDBRANCH   2   3
BRANCH   2   5
ATOM      5  C   UNL     1      91.519  95.652  76.933  1.00  0.00     0.032 C 
BRANCH   5   6
ATOM      6  C   UNL     1      90.210  94.942  76.565  1.00  0.00     0.003 C 
BRANCH   6   7
ATOM      7  C   UNL     1      90.242  94.292  75.178  1.00  0.00    -0.000 C 
BRANCH   7   8
ATOM      8  C   UNL     1      90.285  92.765  75.219  1.00  0.00    -0.003 C 
ATOM      9  C   UNL     1      89.844  92.234  76.574  1.00  0.00     0.004 C 
ENDBRANCH   7   8
ENDBRANCH   6   7
ENDBRANCH   5   6
ENDBRANCH   2   5
ENDBRANCH   1   2
BRANCH   1  10
ATOM     10  C   UNL     1      94.619  96.153  76.570  1.00  0.00     0.135 C 
ATOM     11  O   UNL     1      95.232  96.303  77.627  1.00  0.00    -0.300 OA
BRANCH  10  12
ATOM     12  C   UNL     1      94.613  97.208  75.474  1.00  0.00     0.080 C 
BRANCH  12  13
ATOM     13  C   UNL     1      93.917  96.757  74.189  1.00  0.00     0.043 C 
BRANCH  13  14
ATOM     14  C   UNL     1      94.449  97.444  72.954  1.00  0.00    -0.044 A 
ATOM     15  C   UNL     1      95.653  97.026  72.387  1.00  0.00     0.054 A 
ATOM     16  C   UNL     1      93.736  98.498  72.381  1.00  0.00     0.008 A 
ATOM     17  C   UNL     1      96.143  97.661  71.246  1.00  0.00     0.160 A 
ATOM     18  C   UNL     1      94.227  99.133  71.240  1.00  0.00     0.050 A 
ATOM     19  C   UNL     1      95.430  98.715  70.673  1.00  0.00     0.157 A 
BRANCH  17  20
ATOM     20  O   UNL     1      97.321  97.244  70.701  1.00  0.00    -0.493 OA
ATOM     21  C   UNL     1      98.519  97.768  71.270  1.00  0.00     0.278 C 
ENDBRANCH  17  20
BRANCH  19  22
ATOM     22  O   UNL     1      95.899  99.342  69.559  1.00  0.00    -0.504 OA
ATOM     23  H   UNL     1      96.234  98.674  68.936  1.00  0.00     0.293 HD
ENDBRANCH  19  22
ENDBRANCH  13  14
ENDBRANCH  12  13
ENDBRANCH  10  12
ENDBRANCH   1  10
TORSDOF 12
ENDMDL
MODEL 5
REMARK VINA RESULT:    -5.488     13.275     16.516
REMARK INTER + INTRA:         -10.441
REMARK INTER:                  -9.513
REMARK INTRA:                  -0.927
REMARK UNBOUND:                -1.424
REMARK SMILES CCCCC[C@H](O)CC(=O)CCc1ccc(O)c(OC)c1
REMARK SMILES IDX 8 1 6 2 7 3 5 5 4 6 3 7 2 8 1 9 9 10 10 11 11 12 12 13 13 14
REMARK SMILES IDX 21 15 14 16 18 17 15 18 16 19 19 20 20 21 17 22
REMARK H PARENT 7 4 17 23
REMARK Flexibility Score: inf
ROOT
ATOM      1  C   UNL     1      91.581  80.449  84.179  1.00  0.00     0.107 C 
ENDROOT
BRANCH   1   2
ATOM      2  C   UNL     1      91.101  81.640  85.012  1.00  0.00     0.121 C 
BRANCH   2   3
ATOM      3  O   UNL     1      91.397  82.857  84.330  1.00  0.00    -0.393 OA
ATOM      4  H   UNL     1      91.828  82.629  83.488  1.00  0.00     0.210 HD
ENDBRANCH   2   3
BRANCH   2   5
ATOM      5  C   UNL     1      89.601  81.588  85.324  1.00  0.00     0.032 C 
BRANCH   5   6
ATOM      6  C   UNL     1      88.786  82.496  84.394  1.00  0.00     0.003 C 
BRANCH   6   7
ATOM      7  C   UNL     1      87.701  83.294  85.124  1.00  0.00    -0.000 C 
BRANCH   7   8
ATOM      8  C   UNL     1      86.353  83.291  84.407  1.00  0.00    -0.003 C 
ATOM      9  C   UNL     1      86.495  82.846  82.960  1.00  0.00     0.004 C 
ENDBRANCH   7   8
ENDBRANCH   6   7
ENDBRANCH   5   6
ENDBRANCH   2   5
ENDBRANCH   1   2
BRANCH   1  10
ATOM     10  C   UNL     1      92.739  79.701  84.820  1.00  0.00     0.135 C 
ATOM     11  O   UNL     1      92.735  78.473  84.895  1.00  0.00    -0.300 OA
BRANCH  10  12
ATOM     12  C   UNL     1      93.904  80.544  85.315  1.00  0.00     0.080 C 
BRANCH  12  13
ATOM     13  C   UNL     1      94.906  80.912  84.218  1.00  0.00     0.043 C 
BRANCH  13  14
ATOM     14  C   UNL     1      95.172  82.396  84.133  1.00  0.00    -0.044 A 
ATOM     15  C   UNL     1      94.780  83.236  85.175  1.00  0.00     0.054 A 
ATOM     16  C   UNL     1      95.811  82.926  83.012  1.00  0.00     0.008 A 
ATOM     17  C   UNL     1      95.028  84.606  85.096  1.00  0.00     0.160 A 
ATOM     18  C   UNL     1      96.058  84.297  82.932  1.00  0.00     0.050 A 
ATOM     19  C   UNL     1      95.666  85.137  83.975  1.00  0.00     0.157 A 
BRANCH  17  20
ATOM     20  O   UNL     1      94.640  85.417  86.120  1.00  0.00    -0.493 OA
ATOM     21  C   UNL     1      93.316  85.241  86.621  1.00  0.00     0.278 C 
ENDBRANCH  17  20
BRANCH  19  22
ATOM     22  O   UNL     1      95.913  86.473  83.886  1.00  0.00    -0.504 OA
ATOM     23  H   UNL     1      96.021  86.836  84.782  1.00  0.00     0.293 HD
ENDBRANCH  19  22
ENDBRANCH  13  14
ENDBRANCH  12  13
ENDBRANCH  10  12
ENDBRANCH   1  10
TORSDOF 12
ENDMDL
MODEL 6
REMARK VINA RESULT:    -5.390     12.183     14.348
REMARK INTER + INTRA:         -10.280
REMARK INTER:                  -9.562
REMARK INTRA:                  -0.718
REMARK UNBOUND:                -1.424
REMARK SMILES CCCCC[C@H](O)CC(=O)CCc1ccc(O)c(OC)c1
REMARK SMILES IDX 8 1 6 2 7 3 5 5 4 6 3 7 2 8 1 9 9 10 10 11 11 12 12 13 13 14
REMARK SMILES IDX 21 15 14 16 18 17 15 18 16 19 19 20 20 21 17 22
REMARK H PARENT 7 4 17 23
REMARK Flexibility Score: inf
ROOT
ATOM      1  C   UNL     1      97.751  83.001  76.398  1.00  0.00     0.107 C 
ENDROOT
BRANCH   1   2
ATOM      2  C   UNL     1      98.390  83.584  75.135  1.00  0.00     0.121 C 
BRANCH   2   3
ATOM      3  O   UNL     1      99.398  84.527  75.494  1.00  0.00    -0.393 OA
ATOM      4  H   UNL     1      99.103  85.405  75.195  1.00  0.00     0.210 HD
ENDBRANCH   2   3
BRANCH   2   5
ATOM      5  C   UNL     1      99.002  82.513  74.223  1.00  0.00     0.032 C 
BRANCH   5   6
ATOM      6  C   UNL     1      98.615  82.718  72.754  1.00  0.00     0.003 C 
BRANCH   6   7
ATOM      7  C   UNL     1      99.820  82.945  71.835  1.00  0.00    -0.000 C 
BRANCH   7   8
ATOM      8  C   UNL     1     100.593  84.225  72.145  1.00  0.00    -0.003 C 
ATOM      9  C   UNL     1      99.679  85.441  72.133  1.00  0.00     0.004 C 
ENDBRANCH   7   8
ENDBRANCH   6   7
ENDBRANCH   5   6
ENDBRANCH   2   5
ENDBRANCH   1   2
BRANCH   1  10
ATOM     10  C   UNL     1      96.725  83.929  77.029  1.00  0.00     0.135 C 
ATOM     11  O   UNL     1      96.217  84.844  76.381  1.00  0.00    -0.300 OA
BRANCH  10  12
ATOM     12  C   UNL     1      96.336  83.636  78.470  1.00  0.00     0.080 C 
BRANCH  12  13
ATOM     13  C   UNL     1      97.507  83.185  79.344  1.00  0.00     0.043 C 
BRANCH  13  14
ATOM     14  C   UNL     1      97.069  82.603  80.667  1.00  0.00    -0.044 A 
ATOM     15  C   UNL     1      96.539  83.435  81.653  1.00  0.00     0.054 A 
ATOM     16  C   UNL     1      97.195  81.234  80.903  1.00  0.00     0.008 A 
ATOM     17  C   UNL     1      96.133  82.897  82.875  1.00  0.00     0.160 A 
ATOM     18  C   UNL     1      96.790  80.696  82.124  1.00  0.00     0.050 A 
ATOM     19  C   UNL     1      96.260  81.528  83.110  1.00  0.00     0.157 A 
BRANCH  17  20
ATOM     20  O   UNL     1      95.617  83.719  83.830  1.00  0.00    -0.493 OA
ATOM     21  C   UNL     1      96.548  84.427  84.648  1.00  0.00     0.278 C 
ENDBRANCH  17  20
BRANCH  19  22
ATOM     22  O   UNL     1      95.868  80.991  84.299  1.00  0.00    -0.504 OA
ATOM     23  H   UNL     1      95.355  81.654  84.792  1.00  0.00     0.293 HD
ENDBRANCH  19  22
ENDBRANCH  13  14
ENDBRANCH  12  13
ENDBRANCH  10  12
ENDBRANCH   1  10
TORSDOF 12
ENDMDL
MODEL 7
REMARK VINA RESULT:    -5.298     19.708     23.162
REMARK INTER + INTRA:         -10.128
REMARK INTER:                  -9.025
REMARK INTRA:                  -1.103
REMARK UNBOUND:                -1.424
REMARK SMILES CCCCC[C@H](O)CC(=O)CCc1ccc(O)c(OC)c1
REMARK SMILES IDX 8 1 6 2 7 3 5 5 4 6 3 7 2 8 1 9 9 10 10 11 11 12 12 13 13 14
REMARK SMILES IDX 21 15 14 16 18 17 15 18 16 19 19 20 20 21 17 22
REMARK H PARENT 7 4 17 23
REMARK Flexibility Score: inf
ROOT
ATOM      1  C   UNL     1      75.641  83.944  66.615  1.00  0.00     0.107 C 
ENDROOT
BRANCH   1   2
ATOM      2  C   UNL     1      76.023  83.792  65.141  1.00  0.00     0.121 C 
BRANCH   2   3
ATOM      3  O   UNL     1      77.046  82.807  65.006  1.00  0.00    -0.393 OA
ATOM      4  H   UNL     1      76.748  82.157  64.346  1.00  0.00     0.210 HD
ENDBRANCH   2   3
BRANCH   2   5
ATOM      5  C   UNL     1      74.835  83.411  64.249  1.00  0.00     0.032 C 
BRANCH   5   6
ATOM      6  C   UNL     1      73.515  83.383  65.029  1.00  0.00     0.003 C 
BRANCH   6   7
ATOM      7  C   UNL     1      72.711  82.096  64.813  1.00  0.00    -0.000 C 
BRANCH   7   8
ATOM      8  C   UNL     1      71.199  82.313  64.806  1.00  0.00    -0.003 C 
ATOM      9  C   UNL     1      70.794  83.427  65.760  1.00  0.00     0.004 C 
ENDBRANCH   7   8
ENDBRANCH   6   7
ENDBRANCH   5   6
ENDBRANCH   2   5
ENDBRANCH   1   2
BRANCH   1  10
ATOM     10  C   UNL     1      76.814  84.341  67.497  1.00  0.00     0.135 C 
ATOM     11  O   UNL     1      77.963  84.344  67.057  1.00  0.00    -0.300 OA
BRANCH  10  12
ATOM     12  C   UNL     1      76.483  84.773  68.918  1.00  0.00     0.080 C 
BRANCH  12  13
ATOM     13  C   UNL     1      77.214  86.042  69.361  1.00  0.00     0.043 C 
BRANCH  13  14
ATOM     14  C   UNL     1      76.700  87.289  68.681  1.00  0.00    -0.044 A 
ATOM     15  C   UNL     1      75.389  87.712  68.898  1.00  0.00     0.054 A 
ATOM     16  C   UNL     1      77.537  88.017  67.835  1.00  0.00     0.008 A 
ATOM     17  C   UNL     1      74.916  88.864  68.271  1.00  0.00     0.160 A 
ATOM     18  C   UNL     1      77.064  89.169  67.207  1.00  0.00     0.050 A 
ATOM     19  C   UNL     1      75.753  89.593  67.425  1.00  0.00     0.157 A 
BRANCH  17  20
ATOM     20  O   UNL     1      73.633  89.268  68.490  1.00  0.00    -0.493 OA
ATOM     21  C   UNL     1      72.622  88.263  68.453  1.00  0.00     0.278 C 
ENDBRANCH  17  20
BRANCH  19  22
ATOM     22  O   UNL     1      75.302  90.719  66.806  1.00  0.00    -0.504 OA
ATOM     23  H   UNL     1      74.511  90.500  66.286  1.00  0.00     0.293 HD
ENDBRANCH  19  22
ENDBRANCH  13  14
ENDBRANCH  12  13
ENDBRANCH  10  12
ENDBRANCH   1  10
TORSDOF 12
ENDMDL
MODEL 8
REMARK VINA RESULT:    -5.206     29.293     33.338
REMARK INTER + INTRA:          -9.977
REMARK INTER:                  -9.097
REMARK INTRA:                  -0.880
REMARK UNBOUND:                -1.424
REMARK SMILES CCCCC[C@H](O)CC(=O)CCc1ccc(O)c(OC)c1
REMARK SMILES IDX 8 1 6 2 7 3 5 5 4 6 3 7 2 8 1 9 9 10 10 11 11 12 12 13 13 14
REMARK SMILES IDX 21 15 14 16 18 17 15 18 16 19 19 20 20 21 17 22
REMARK H PARENT 7 4 17 23
REMARK Flexibility Score: inf
ROOT
ATOM      1  C   UNL     1      78.978  65.183  70.125  1.00  0.00     0.107 C 
ENDROOT
BRANCH   1   2
ATOM      2  C   UNL     1      79.280  64.198  68.993  1.00  0.00     0.121 C 
BRANCH   2   3
ATOM      3  O   UNL     1      80.377  63.364  69.358  1.00  0.00    -0.393 OA
ATOM      4  H   UNL     1      80.029  62.633  69.898  1.00  0.00     0.210 HD
ENDBRANCH   2   3
BRANCH   2   5
ATOM      5  C   UNL     1      78.078  63.319  68.626  1.00  0.00     0.032 C 
BRANCH   5   6
ATOM      6  C   UNL     1      76.873  64.151  68.172  1.00  0.00     0.003 C 
BRANCH   6   7
ATOM      7  C   UNL     1      77.174  65.046  66.965  1.00  0.00    -0.000 C 
BRANCH   7   8
ATOM      8  C   UNL     1      75.986  65.901  66.526  1.00  0.00    -0.003 C 
ATOM      9  C   UNL     1      74.689  65.109  66.562  1.00  0.00     0.004 C 
ENDBRANCH   7   8
ENDBRANCH   6   7
ENDBRANCH   5   6
ENDBRANCH   2   5
ENDBRANCH   1   2
BRANCH   1  10
ATOM     10  C   UNL     1      80.222  65.871  70.663  1.00  0.00     0.135 C 
ATOM     11  O   UNL     1      81.200  66.066  69.942  1.00  0.00    -0.300 OA
BRANCH  10  12
ATOM     12  C   UNL     1      80.171  66.339  72.110  1.00  0.00     0.080 C 
BRANCH  12  13
ATOM     13  C   UNL     1      80.946  65.440  73.074  1.00  0.00     0.043 C 
BRANCH  13  14
ATOM     14  C   UNL     1      82.323  65.970  73.400  1.00  0.00    -0.044 A 
ATOM     15  C   UNL     1      83.242  65.161  74.067  1.00  0.00     0.054 A 
ATOM     16  C   UNL     1      82.674  67.269  73.032  1.00  0.00     0.008 A 
ATOM     17  C   UNL     1      84.514  65.651  74.366  1.00  0.00     0.160 A 
ATOM     18  C   UNL     1      83.945  67.760  73.331  1.00  0.00     0.050 A 
ATOM     19  C   UNL     1      84.865  66.950  73.999  1.00  0.00     0.157 A 
BRANCH  17  20
ATOM     20  O   UNL     1      85.403  64.852  75.019  1.00  0.00    -0.493 OA
ATOM     21  C   UNL     1      85.762  63.627  74.382  1.00  0.00     0.278 C 
ENDBRANCH  17  20
BRANCH  19  22
ATOM     22  O   UNL     1      86.103  67.440  74.286  1.00  0.00    -0.504 OA
ATOM     23  H   UNL     1      86.008  68.278  74.771  1.00  0.00     0.293 HD
ENDBRANCH  19  22
ENDBRANCH  13  14
ENDBRANCH  12  13
ENDBRANCH  10  12
ENDBRANCH   1  10
TORSDOF 12
ENDMDL
MODEL 9
REMARK VINA RESULT:    -5.101      3.373      7.413
REMARK INTER + INTRA:          -9.806
REMARK INTER:                  -8.728
REMARK INTRA:                  -1.077
REMARK UNBOUND:                -1.424
REMARK SMILES CCCCC[C@H](O)CC(=O)CCc1ccc(O)c(OC)c1
REMARK SMILES IDX 8 1 6 2 7 3 5 5 4 6 3 7 2 8 1 9 9 10 10 11 11 12 12 13 13 14
REMARK SMILES IDX 21 15 14 16 18 17 15 18 16 19 19 20 20 21 17 22
REMARK H PARENT 7 4 17 23
REMARK Flexibility Score: inf
ROOT
ATOM      1  C   UNL     1      94.040  97.091  77.881  1.00  0.00     0.107 C 
ENDROOT
BRANCH   1   2
ATOM      2  C   UNL     1      94.221  95.609  78.219  1.00  0.00     0.121 C 
BRANCH   2   3
ATOM      3  O   UNL     1      94.791  95.476  79.519  1.00  0.00    -0.393 OA
ATOM      4  H   UNL     1      95.065  94.549  79.630  1.00  0.00     0.210 HD
ENDBRANCH   2   3
BRANCH   2   5
ATOM      5  C   UNL     1      92.910  94.815  78.159  1.00  0.00     0.032 C 
BRANCH   5   6
ATOM      6  C   UNL     1      91.931  95.396  77.131  1.00  0.00     0.003 C 
BRANCH   6   7
ATOM      7  C   UNL     1      90.579  94.675  77.107  1.00  0.00    -0.000 C 
BRANCH   7   8
ATOM      8  C   UNL     1      90.027  94.458  75.699  1.00  0.00    -0.003 C 
ATOM      9  C   UNL     1      90.873  93.464  74.919  1.00  0.00     0.004 C 
ENDBRANCH   7   8
ENDBRANCH   6   7
ENDBRANCH   5   6
ENDBRANCH   2   5
ENDBRANCH   1   2
BRANCH   1  10
ATOM     10  C   UNL     1      95.063  97.603  76.881  1.00  0.00     0.135 C 
ATOM     11  O   UNL     1      95.143  97.118  75.752  1.00  0.00    -0.300 OA
BRANCH  10  12
ATOM     12  C   UNL     1      95.939  98.762  77.334  1.00  0.00     0.080 C 
BRANCH  12  13
ATOM     13  C   UNL     1      97.332  98.335  77.798  1.00  0.00     0.043 C 
BRANCH  13  14
ATOM     14  C   UNL     1      97.354  97.829  79.221  1.00  0.00    -0.044 A 
ATOM     15  C   UNL     1      96.536  98.420  80.184  1.00  0.00     0.054 A 
ATOM     16  C   UNL     1      98.192  96.770  79.572  1.00  0.00     0.008 A 
ATOM     17  C   UNL     1      96.555  97.951  81.498  1.00  0.00     0.160 A 
ATOM     18  C   UNL     1      98.211  96.301  80.886  1.00  0.00     0.050 A 
ATOM     19  C   UNL     1      97.394  96.892  81.849  1.00  0.00     0.157 A 
BRANCH  17  20
ATOM     20  O   UNL     1      95.753  98.537  82.430  1.00  0.00    -0.493 OA
ATOM     21  C   UNL     1      96.198  99.774  82.984  1.00  0.00     0.278 C 
ENDBRANCH  17  20
BRANCH  19  22
ATOM     22  O   UNL     1      97.422  96.426  83.128  1.00  0.00    -0.504 OA
ATOM     23  H   UNL     1      97.298  95.462  83.117  1.00  0.00     0.293 HD
ENDBRANCH  19  22
ENDBRANCH  13  14
ENDBRANCH  12  13
ENDBRANCH  10  12
ENDBRANCH   1  10
TORSDOF 12
ENDMDL
MODEL 10
REMARK VINA RESULT:    -5.050     19.911     22.474
REMARK INTER + INTRA:          -9.722
REMARK INTER:                  -7.841
REMARK INTRA:                  -1.881
REMARK UNBOUND:                -1.424
REMARK SMILES CCCCC[C@H](O)CC(=O)CCc1ccc(O)c(OC)c1
REMARK SMILES IDX 8 1 6 2 7 3 5 5 4 6 3 7 2 8 1 9 9 10 10 11 11 12 12 13 13 14
REMARK SMILES IDX 21 15 14 16 18 17 15 18 16 19 19 20 20 21 17 22
REMARK H PARENT 7 4 17 23
REMARK Flexibility Score: inf
ROOT
ATOM      1  C   UNL     1      75.673  83.943  66.425  1.00  0.00     0.107 C 
ENDROOT
BRANCH   1   2
ATOM      2  C   UNL     1      75.288  85.119  65.524  1.00  0.00     0.121 C 
BRANCH   2   3
ATOM      3  O   UNL     1      74.847  84.633  64.258  1.00  0.00    -0.393 OA
ATOM      4  H   UNL     1      73.949  84.276  64.372  1.00  0.00     0.210 HD
ENDBRANCH   2   3
BRANCH   2   5
ATOM      5  C   UNL     1      74.196  86.008  66.131  1.00  0.00     0.032 C 
BRANCH   5   6
ATOM      6  C   UNL     1      73.048  85.185  66.728  1.00  0.00     0.003 C 
BRANCH   6   7
ATOM      7  C   UNL     1      72.802  85.473  68.212  1.00  0.00    -0.000 C 
BRANCH   7   8
ATOM      8  C   UNL     1      71.805  86.602  68.460  1.00  0.00    -0.003 C 
ATOM      9  C   UNL     1      70.439  86.060  68.851  1.00  0.00     0.004 C 
ENDBRANCH   7   8
ENDBRANCH   6   7
ENDBRANCH   5   6
ENDBRANCH   2   5
ENDBRANCH   1   2
BRANCH   1  10
ATOM     10  C   UNL     1      76.821  84.265  67.367  1.00  0.00     0.135 C 
ATOM     11  O   UNL     1      77.989  84.229  66.977  1.00  0.00    -0.300 OA
BRANCH  10  12
ATOM     12  C   UNL     1      76.447  84.673  68.783  1.00  0.00     0.080 C 
BRANCH  12  13
ATOM     13  C   UNL     1      77.188  85.916  69.281  1.00  0.00     0.043 C 
BRANCH  13  14
ATOM     14  C   UNL     1      76.695  87.194  68.643  1.00  0.00    -0.044 A 
ATOM     15  C   UNL     1      75.498  87.770  69.069  1.00  0.00     0.054 A 
ATOM     16  C   UNL     1      77.438  87.797  67.628  1.00  0.00     0.008 A 
ATOM     17  C   UNL     1      75.045  88.950  68.479  1.00  0.00     0.160 A 
ATOM     18  C   UNL     1      76.985  88.977  67.039  1.00  0.00     0.050 A 
ATOM     19  C   UNL     1      75.788  89.553  67.464  1.00  0.00     0.157 A 
BRANCH  17  20
ATOM     20  O   UNL     1      73.874  89.503  68.903  1.00  0.00    -0.493 OA
ATOM     21  C   UNL     1      73.651  89.550  70.311  1.00  0.00     0.278 C 
ENDBRANCH  17  20
BRANCH  19  22
ATOM     22  O   UNL     1      75.355  90.706  66.881  1.00  0.00    -0.504 OA
ATOM     23  H   UNL     1      75.956  91.430  67.128  1.00  0.00     0.293 HD
ENDBRANCH  19  22
ENDBRANCH  13  14
ENDBRANCH  12  13
ENDBRANCH  10  12
ENDBRANCH   1  10
TORSDOF 12
ENDMDL
