MODEL 1
REMARK VINA RESULT:    -8.120      0.000      0.000
REMARK INTER + INTRA:          -9.921
REMARK INTER:                  -9.544
REMARK INTRA:                  -0.377
REMARK UNBOUND:                -0.377
REMARK SMILES O=C(/C=C/C=C/c1ccc2c(c1)OCO2)N1CCCCC1
REMARK SMILES IDX 3 1 4 2 2 3 1 4 16 5 17 6 21 7 18 8 20 9 19 10 5 11 6 12
REMARK SMILES IDX 7 13 12 14 8 15 11 16 9 17 13 18 10 19 14 20 15 21
REMARK H PARENT
REMARK Flexibility Score: inf
ROOT
ATOM      1  C   UNL     1      91.016  91.689  76.040  1.00  0.00     0.071 C 
ATOM      2  C   UNL     1      90.970  92.558  77.048  1.00  0.00     0.006 C 
ENDROOT
BRANCH   1   3
ATOM      3  C   UNL     1      89.745  91.096  75.576  1.00  0.00     0.246 C 
ATOM      4  O   UNL     1      88.805  91.070  76.371  1.00  0.00    -0.270 OA
ATOM      5  N   UNL     1      89.697  90.602  74.273  1.00  0.00    -0.339 N 
ATOM      6  C   UNL     1      88.451  90.003  73.786  1.00  0.00     0.120 C 
ATOM      7  C   UNL     1      90.809  90.575  73.312  1.00  0.00     0.120 C 
ATOM      8  C   UNL     1      88.007  90.634  72.470  1.00  0.00     0.022 C 
ATOM      9  C   UNL     1      90.402  91.197  71.976  1.00  0.00     0.022 C 
ATOM     10  C   UNL     1      89.121  90.571  71.430  1.00  0.00     0.004 C 
ENDBRANCH   1   3
BRANCH   2  11
ATOM     11  C   UNL     1      92.161  93.191  77.573  1.00  0.00     0.001 C 
ATOM     12  C   UNL     1      93.159  93.627  76.787  1.00  0.00     0.008 C 
BRANCH  12  13
ATOM     13  C   UNL     1      94.394  94.269  77.267  1.00  0.00    -0.022 A 
ATOM     14  C   UNL     1      94.619  94.361  78.634  1.00  0.00     0.058 A 
ATOM     15  C   UNL     1      95.305  94.769  76.334  1.00  0.00     0.012 A 
ATOM     16  C   UNL     1      95.790  94.971  79.035  1.00  0.00     0.166 A 
ATOM     17  C   UNL     1      96.483  95.381  76.768  1.00  0.00     0.051 A 
ATOM     18  O   UNL     1      96.192  95.158  80.323  1.00  0.00    -0.454 OA
ATOM     19  C   UNL     1      96.698  95.467  78.128  1.00  0.00     0.165 A 
ATOM     20  C   UNL     1      97.453  95.828  80.123  1.00  0.00     0.468 C 
ATOM     21  O   UNL     1      97.780  96.028  78.732  1.00  0.00    -0.454 OA
ENDBRANCH  12  13
ENDBRANCH   2  11
TORSDOF 3
ENDMDL
MODEL 2
REMARK VINA RESULT:    -7.884      1.755      2.407
REMARK INTER + INTRA:          -9.643
REMARK INTER:                  -9.315
REMARK INTRA:                  -0.328
REMARK UNBOUND:                -0.377
REMARK SMILES O=C(/C=C/C=C/c1ccc2c(c1)OCO2)N1CCCCC1
REMARK SMILES IDX 3 1 4 2 2 3 1 4 16 5 17 6 21 7 18 8 20 9 19 10 5 11 6 12
REMARK SMILES IDX 7 13 12 14 8 15 11 16 9 17 13 18 10 19 14 20 15 21
REMARK H PARENT
REMARK Flexibility Score: inf
ROOT
ATOM      1  C   UNL     1      91.216  92.281  76.919  1.00  0.00     0.071 C 
ATOM      2  C   UNL     1      92.044  93.277  76.608  1.00  0.00     0.006 C 
ENDROOT
BRANCH   1   3
ATOM      3  C   UNL     1      90.286  91.801  75.877  1.00  0.00     0.246 C 
ATOM      4  O   UNL     1      89.983  92.586  74.979  1.00  0.00    -0.270 OA
ATOM      5  N   UNL     1      89.811  90.495  75.983  1.00  0.00    -0.339 N 
ATOM      6  C   UNL     1      88.882  89.991  74.967  1.00  0.00     0.120 C 
ATOM      7  C   UNL     1      90.114  89.544  77.064  1.00  0.00     0.120 C 
ATOM      8  C   UNL     1      89.369  88.675  74.370  1.00  0.00     0.022 C 
ATOM      9  C   UNL     1      90.603  88.208  76.504  1.00  0.00     0.022 C 
ATOM     10  C   UNL     1      89.639  87.646  75.463  1.00  0.00     0.004 C 
ENDBRANCH   1   3
BRANCH   2  11
ATOM     11  C   UNL     1      92.991  93.815  77.561  1.00  0.00     0.001 C 
ATOM     12  C   UNL     1      94.258  94.117  77.236  1.00  0.00     0.008 C 
BRANCH  12  13
ATOM     13  C   UNL     1      95.263  94.658  78.166  1.00  0.00    -0.022 A 
ATOM     14  C   UNL     1      95.145  94.385  79.522  1.00  0.00     0.058 A 
ATOM     15  C   UNL     1      96.309  95.433  77.658  1.00  0.00     0.012 A 
ATOM     16  C   UNL     1      96.111  94.914  80.353  1.00  0.00     0.166 A 
ATOM     17  C   UNL     1      97.273  95.957  78.522  1.00  0.00     0.051 A 
ATOM     18  O   UNL     1      96.171  94.763  81.705  1.00  0.00    -0.454 OA
ATOM     19  C   UNL     1      97.147  95.679  79.867  1.00  0.00     0.165 A 
ATOM     20  C   UNL     1      97.360  95.518  82.014  1.00  0.00     0.468 C 
ATOM     21  O   UNL     1      97.984  96.102  80.853  1.00  0.00    -0.454 OA
ENDBRANCH  12  13
ENDBRANCH   2  11
TORSDOF 3
ENDMDL
MODEL 3
REMARK VINA RESULT:    -7.864      2.789      9.106
REMARK INTER + INTRA:          -9.620
REMARK INTER:                  -9.208
REMARK INTRA:                  -0.412
REMARK UNBOUND:                -0.377
REMARK SMILES O=C(/C=C/C=C/c1ccc2c(c1)OCO2)N1CCCCC1
REMARK SMILES IDX 3 1 4 2 2 3 1 4 16 5 17 6 21 7 18 8 20 9 19 10 5 11 6 12
REMARK SMILES IDX 7 13 12 14 8 15 11 16 9 17 13 18 10 19 14 20 15 21
REMARK H PARENT
REMARK Flexibility Score: inf
ROOT
ATOM      1  C   UNL     1      94.744  94.322  75.980  1.00  0.00     0.071 C 
ATOM      2  C   UNL     1      93.702  94.934  75.421  1.00  0.00     0.006 C 
ENDROOT
BRANCH   1   3
ATOM      3  C   UNL     1      95.889  95.150  76.407  1.00  0.00     0.246 C 
ATOM      4  O   UNL     1      96.469  95.808  75.542  1.00  0.00    -0.270 OA
ATOM      5  N   UNL     1      96.240  95.128  77.756  1.00  0.00    -0.339 N 
ATOM      6  C   UNL     1      97.377  95.936  78.208  1.00  0.00     0.120 C 
ATOM      7  C   UNL     1      95.602  94.322  78.807  1.00  0.00     0.120 C 
ATOM      8  C   UNL     1      96.991  96.834  79.379  1.00  0.00     0.022 C 
ATOM      9  C   UNL     1      95.203  95.187  80.002  1.00  0.00     0.022 C 
ATOM     10  C   UNL     1      96.376  96.019  80.513  1.00  0.00     0.004 C 
ENDBRANCH   1   3
BRANCH   2  11
ATOM     11  C   UNL     1      92.534  94.207  74.971  1.00  0.00     0.001 C 
ATOM     12  C   UNL     1      92.513  92.870  74.845  1.00  0.00     0.008 C 
BRANCH  12  13
ATOM     13  C   UNL     1      91.357  92.083  74.384  1.00  0.00    -0.022 A 
ATOM     14  C   UNL     1      90.431  92.675  73.536  1.00  0.00     0.058 A 
ATOM     15  C   UNL     1      91.224  90.760  74.814  1.00  0.00     0.012 A 
ATOM     16  C   UNL     1      89.366  91.898  73.132  1.00  0.00     0.166 A 
ATOM     17  C   UNL     1      90.135  89.996  74.389  1.00  0.00     0.051 A 
ATOM     18  O   UNL     1      88.357  92.293  72.307  1.00  0.00    -0.454 OA
ATOM     19  C   UNL     1      89.221  90.594  73.546  1.00  0.00     0.165 A 
ATOM     20  C   UNL     1      87.562  91.091  72.250  1.00  0.00     0.468 C 
ATOM     21  O   UNL     1      88.104  90.009  73.034  1.00  0.00    -0.454 OA
ENDBRANCH  12  13
ENDBRANCH   2  11
TORSDOF 3
ENDMDL
MODEL 4
REMARK VINA RESULT:    -7.698      1.716      2.661
REMARK INTER + INTRA:          -9.425
REMARK INTER:                  -9.088
REMARK INTRA:                  -0.337
REMARK UNBOUND:                -0.377
REMARK SMILES O=C(/C=C/C=C/c1ccc2c(c1)OCO2)N1CCCCC1
REMARK SMILES IDX 3 1 4 2 2 3 1 4 16 5 17 6 21 7 18 8 20 9 19 10 5 11 6 12
REMARK SMILES IDX 7 13 12 14 8 15 11 16 9 17 13 18 10 19 14 20 15 21
REMARK H PARENT
REMARK Flexibility Score: inf
ROOT
ATOM      1  C   UNL     1      91.109  92.358  76.901  1.00  0.00     0.071 C 
ATOM      2  C   UNL     1      92.097  93.184  76.566  1.00  0.00     0.006 C 
ENDROOT
BRANCH   1   3
ATOM      3  C   UNL     1      90.209  91.881  75.832  1.00  0.00     0.246 C 
ATOM      4  O   UNL     1      89.945  92.664  74.919  1.00  0.00    -0.270 OA
ATOM      5  N   UNL     1      89.717  90.580  75.929  1.00  0.00    -0.339 N 
ATOM      6  C   UNL     1      88.817  90.080  74.885  1.00  0.00     0.120 C 
ATOM      7  C   UNL     1      89.974  89.633  77.024  1.00  0.00     0.120 C 
ATOM      8  C   UNL     1      89.311  88.756  74.312  1.00  0.00     0.022 C 
ATOM      9  C   UNL     1      90.468  88.289  76.489  1.00  0.00     0.022 C 
ATOM     10  C   UNL     1      89.534  87.731  75.419  1.00  0.00     0.004 C 
ENDBRANCH   1   3
BRANCH   2  11
ATOM     11  C   UNL     1      93.029  93.705  77.543  1.00  0.00     0.001 C 
ATOM     12  C   UNL     1      94.284  94.068  77.230  1.00  0.00     0.008 C 
BRANCH  12  13
ATOM     13  C   UNL     1      95.274  94.595  78.184  1.00  0.00    -0.022 A 
ATOM     14  C   UNL     1      96.255  95.465  77.728  1.00  0.00     0.058 A 
ATOM     15  C   UNL     1      95.199  94.204  79.523  1.00  0.00     0.012 A 
ATOM     16  C   UNL     1      97.159  95.932  78.660  1.00  0.00     0.166 A 
ATOM     17  C   UNL     1      96.127  94.693  80.445  1.00  0.00     0.051 A 
ATOM     18  O   UNL     1      98.190  96.787  78.413  1.00  0.00    -0.454 OA
ATOM     19  C   UNL     1      97.097  95.557  79.982  1.00  0.00     0.165 A 
ATOM     20  C   UNL     1      98.769  96.907  79.728  1.00  0.00     0.468 C 
ATOM     21  O   UNL     1      98.081  96.129  80.729  1.00  0.00    -0.454 OA
ENDBRANCH  12  13
ENDBRANCH   2  11
TORSDOF 3
ENDMDL
MODEL 5
REMARK VINA RESULT:    -7.511      2.653      9.117
REMARK INTER + INTRA:          -9.205
REMARK INTER:                  -8.873
REMARK INTRA:                  -0.332
REMARK UNBOUND:                -0.377
REMARK SMILES O=C(/C=C/C=C/c1ccc2c(c1)OCO2)N1CCCCC1
REMARK SMILES IDX 3 1 4 2 2 3 1 4 16 5 17 6 21 7 18 8 20 9 19 10 5 11 6 12
REMARK SMILES IDX 7 13 12 14 8 15 11 16 9 17 13 18 10 19 14 20 15 21
REMARK H PARENT
REMARK Flexibility Score: inf
ROOT
ATOM      1  C   UNL     1      94.589  94.072  77.648  1.00  0.00     0.071 C 
ATOM      2  C   UNL     1      93.263  94.147  77.554  1.00  0.00     0.006 C 
ENDROOT
BRANCH   1   3
ATOM      3  C   UNL     1      95.223  94.514  78.906  1.00  0.00     0.246 C 
ATOM      4  O   UNL     1      94.829  93.998  79.953  1.00  0.00    -0.270 OA
ATOM      5  N   UNL     1      96.219  95.486  78.825  1.00  0.00    -0.339 N 
ATOM      6  C   UNL     1      96.863  95.949  80.058  1.00  0.00     0.120 C 
ATOM      7  C   UNL     1      96.683  96.155  77.601  1.00  0.00     0.120 C 
ATOM      8  C   UNL     1      98.381  95.850  79.965  1.00  0.00     0.022 C 
ATOM      9  C   UNL     1      98.204  96.081  77.473  1.00  0.00     0.022 C 
ATOM     10  C   UNL     1      98.902  96.584  78.733  1.00  0.00     0.004 C 
ENDBRANCH   1   3
BRANCH   2  11
ATOM     11  C   UNL     1      92.552  93.738  76.361  1.00  0.00     0.001 C 
ATOM     12  C   UNL     1      91.347  93.147  76.401  1.00  0.00     0.008 C 
BRANCH  12  13
ATOM     13  C   UNL     1      90.584  92.705  75.222  1.00  0.00    -0.022 A 
ATOM     14  C   UNL     1      89.780  91.577  75.322  1.00  0.00     0.058 A 
ATOM     15  C   UNL     1      90.690  93.432  74.034  1.00  0.00     0.012 A 
ATOM     16  C   UNL     1      89.085  91.202  74.190  1.00  0.00     0.166 A 
ATOM     17  C   UNL     1      89.975  93.030  72.904  1.00  0.00     0.051 A 
ATOM     18  O   UNL     1      88.250  90.132  74.085  1.00  0.00    -0.454 OA
ATOM     19  C   UNL     1      89.179  91.909  73.013  1.00  0.00     0.165 A 
ATOM     20  C   UNL     1      87.830  90.245  72.710  1.00  0.00     0.468 C 
ATOM     21  O   UNL     1      88.416  91.371  72.024  1.00  0.00    -0.454 OA
ENDBRANCH  12  13
ENDBRANCH   2  11
TORSDOF 3
ENDMDL
MODEL 6
REMARK VINA RESULT:    -7.383      2.480      4.208
REMARK INTER + INTRA:          -9.055
REMARK INTER:                  -8.708
REMARK INTRA:                  -0.347
REMARK UNBOUND:                -0.377
REMARK SMILES O=C(/C=C/C=C/c1ccc2c(c1)OCO2)N1CCCCC1
REMARK SMILES IDX 3 1 4 2 2 3 1 4 16 5 17 6 21 7 18 8 20 9 19 10 5 11 6 12
REMARK SMILES IDX 7 13 12 14 8 15 11 16 9 17 13 18 10 19 14 20 15 21
REMARK H PARENT
REMARK Flexibility Score: inf
ROOT
ATOM      1  C   UNL     1      93.100  93.796  77.123  1.00  0.00     0.071 C 
ATOM      2  C   UNL     1      94.420  93.968  77.103  1.00  0.00     0.006 C 
ENDROOT
BRANCH   1   3
ATOM      3  C   UNL     1      92.489  92.981  76.054  1.00  0.00     0.246 C 
ATOM      4  O   UNL     1      93.065  92.945  74.966  1.00  0.00    -0.270 OA
ATOM      5  N   UNL     1      91.302  92.311  76.345  1.00  0.00    -0.339 N 
ATOM      6  C   UNL     1      90.669  91.498  75.302  1.00  0.00     0.120 C 
ATOM      7  C   UNL     1      90.563  92.365  77.615  1.00  0.00     0.120 C 
ATOM      8  C   UNL     1      90.389  90.082  75.793  1.00  0.00     0.022 C 
ATOM      9  C   UNL     1      90.259  90.961  78.139  1.00  0.00     0.022 C 
ATOM     10  C   UNL     1      89.574  90.101  77.081  1.00  0.00     0.004 C 
ENDBRANCH   1   3
BRANCH   2  11
ATOM     11  C   UNL     1      95.109  94.750  78.107  1.00  0.00     0.001 C 
ATOM     12  C   UNL     1      95.458  94.251  79.304  1.00  0.00     0.008 C 
BRANCH  12  13
ATOM     13  C   UNL     1      96.152  95.004  80.363  1.00  0.00    -0.022 A 
ATOM     14  C   UNL     1      97.528  95.171  80.282  1.00  0.00     0.058 A 
ATOM     15  C   UNL     1      95.405  95.528  81.421  1.00  0.00     0.012 A 
ATOM     16  C   UNL     1      98.132  95.884  81.297  1.00  0.00     0.166 A 
ATOM     17  C   UNL     1      96.043  96.245  82.435  1.00  0.00     0.051 A 
ATOM     18  O   UNL     1      99.462  96.154  81.400  1.00  0.00    -0.454 OA
ATOM     19  C   UNL     1      97.410  96.407  82.346  1.00  0.00     0.165 A 
ATOM     20  C   UNL     1      99.496  96.906  82.630  1.00  0.00     0.468 C 
ATOM     21  O   UNL     1      98.197  97.070  83.236  1.00  0.00    -0.454 OA
ENDBRANCH  12  13
ENDBRANCH   2  11
TORSDOF 3
ENDMDL
MODEL 7
REMARK VINA RESULT:    -7.334      2.749      9.411
REMARK INTER + INTRA:          -8.997
REMARK INTER:                  -8.661
REMARK INTRA:                  -0.336
REMARK UNBOUND:                -0.377
REMARK SMILES O=C(/C=C/C=C/c1ccc2c(c1)OCO2)N1CCCCC1
REMARK SMILES IDX 3 1 4 2 2 3 1 4 16 5 17 6 21 7 18 8 20 9 19 10 5 11 6 12
REMARK SMILES IDX 7 13 12 14 8 15 11 16 9 17 13 18 10 19 14 20 15 21
REMARK H PARENT
REMARK Flexibility Score: inf
ROOT
ATOM      1  C   UNL     1      95.576  94.533  78.397  1.00  0.00     0.071 C 
ATOM      2  C   UNL     1      95.043  94.577  77.178  1.00  0.00     0.006 C 
ENDROOT
BRANCH   1   3
ATOM      3  C   UNL     1      96.650  95.493  78.722  1.00  0.00     0.246 C 
ATOM      4  O   UNL     1      97.196  96.074  77.783  1.00  0.00    -0.270 OA
ATOM      5  N   UNL     1      96.977  95.672  80.065  1.00  0.00    -0.339 N 
ATOM      6  C   UNL     1      98.043  96.615  80.418  1.00  0.00     0.120 C 
ATOM      7  C   UNL     1      96.380  94.964  81.207  1.00  0.00     0.120 C 
ATOM      8  C   UNL     1      97.571  97.626  81.457  1.00  0.00     0.022 C 
ATOM      9  C   UNL     1      95.897  95.946  82.275  1.00  0.00     0.022 C 
ATOM     10  C   UNL     1      96.996  96.922  82.682  1.00  0.00     0.004 C 
ENDBRANCH   1   3
BRANCH   2  11
ATOM     11  C   UNL     1      93.986  93.678  76.766  1.00  0.00     0.001 C 
ATOM     12  C   UNL     1      92.685  93.956  76.944  1.00  0.00     0.008 C 
BRANCH  12  13
ATOM     13  C   UNL     1      91.572  93.075  76.553  1.00  0.00    -0.022 A 
ATOM     14  C   UNL     1      91.386  92.778  75.210  1.00  0.00     0.058 A 
ATOM     15  C   UNL     1      90.733  92.562  77.546  1.00  0.00     0.012 A 
ATOM     16  C   UNL     1      90.330  91.948  74.893  1.00  0.00     0.166 A 
ATOM     17  C   UNL     1      89.672  91.724  77.196  1.00  0.00     0.051 A 
ATOM     18  O   UNL     1      89.982  91.542  73.641  1.00  0.00    -0.454 OA
ATOM     19  C   UNL     1      89.495  91.435  75.859  1.00  0.00     0.165 A 
ATOM     20  C   UNL     1      88.836  90.715  73.928  1.00  0.00     0.468 C 
ATOM     21  O   UNL     1      88.521  90.643  75.334  1.00  0.00    -0.454 OA
ENDBRANCH  12  13
ENDBRANCH   2  11
TORSDOF 3
ENDMDL
MODEL 8
REMARK VINA RESULT:    -6.968     21.709     25.354
REMARK INTER + INTRA:          -8.566
REMARK INTER:                  -8.236
REMARK INTRA:                  -0.330
REMARK UNBOUND:                -0.377
REMARK SMILES O=C(/C=C/C=C/c1ccc2c(c1)OCO2)N1CCCCC1
REMARK SMILES IDX 3 1 4 2 2 3 1 4 16 5 17 6 21 7 18 8 20 9 19 10 5 11 6 12
REMARK SMILES IDX 7 13 12 14 8 15 11 16 9 17 13 18 10 19 14 20 15 21
REMARK H PARENT
REMARK Flexibility Score: inf
ROOT
ATOM      1  C   UNL     1      84.041  69.137  71.950  1.00  0.00     0.071 C 
ATOM      2  C   UNL     1      85.259  69.108  71.413  1.00  0.00     0.006 C 
ENDROOT
BRANCH   1   3
ATOM      3  C   UNL     1      83.657  68.040  72.861  1.00  0.00     0.246 C 
ATOM      4  O   UNL     1      84.175  68.021  73.978  1.00  0.00    -0.270 OA
ATOM      5  N   UNL     1      82.740  67.099  72.395  1.00  0.00    -0.339 N 
ATOM      6  C   UNL     1      82.344  65.995  73.274  1.00  0.00     0.120 C 
ATOM      7  C   UNL     1      82.137  67.063  71.054  1.00  0.00     0.120 C 
ATOM      8  C   UNL     1      80.827  65.898  73.398  1.00  0.00     0.022 C 
ATOM      9  C   UNL     1      80.614  66.962  71.136  1.00  0.00     0.022 C 
ATOM     10  C   UNL     1      80.172  65.803  72.024  1.00  0.00     0.004 C 
ENDBRANCH   1   3
BRANCH   2  11
ATOM     11  C   UNL     1      85.726  70.138  70.509  1.00  0.00     0.001 C 
ATOM     12  C   UNL     1      86.971  70.153  70.007  1.00  0.00     0.008 C 
BRANCH  12  13
ATOM     13  C   UNL     1      87.500  71.179  69.092  1.00  0.00    -0.022 A 
ATOM     14  C   UNL     1      88.713  71.787  69.387  1.00  0.00     0.058 A 
ATOM     15  C   UNL     1      86.765  71.513  67.951  1.00  0.00     0.012 A 
ATOM     16  C   UNL     1      89.166  72.741  68.499  1.00  0.00     0.166 A 
ATOM     17  C   UNL     1      87.248  72.482  67.070  1.00  0.00     0.051 A 
ATOM     18  O   UNL     1      90.325  73.447  68.610  1.00  0.00    -0.454 OA
ATOM     19  C   UNL     1      88.454  73.080  67.372  1.00  0.00     0.165 A 
ATOM     20  C   UNL     1      90.261  74.268  67.426  1.00  0.00     0.468 C 
ATOM     21  O   UNL     1      89.077  74.040  66.635  1.00  0.00    -0.454 OA
ENDBRANCH  12  13
ENDBRANCH   2  11
TORSDOF 3
ENDMDL
MODEL 9
REMARK VINA RESULT:    -6.951     26.513     28.780
REMARK INTER + INTRA:          -8.547
REMARK INTER:                  -8.137
REMARK INTRA:                  -0.410
REMARK UNBOUND:                -0.377
REMARK SMILES O=C(/C=C/C=C/c1ccc2c(c1)OCO2)N1CCCCC1
REMARK SMILES IDX 3 1 4 2 2 3 1 4 16 5 17 6 21 7 18 8 20 9 19 10 5 11 6 12
REMARK SMILES IDX 7 13 12 14 8 15 11 16 9 17 13 18 10 19 14 20 15 21
REMARK H PARENT
REMARK Flexibility Score: inf
ROOT
ATOM      1  C   UNL     1      63.339  84.189  76.034  1.00  0.00     0.071 C 
ATOM      2  C   UNL     1      64.196  85.169  75.755  1.00  0.00     0.006 C 
ENDROOT
BRANCH   1   3
ATOM      3  C   UNL     1      62.764  83.428  74.908  1.00  0.00     0.246 C 
ATOM      4  O   UNL     1      61.843  83.950  74.279  1.00  0.00    -0.270 OA
ATOM      5  N   UNL     1      63.297  82.169  74.635  1.00  0.00    -0.339 N 
ATOM      6  C   UNL     1      62.743  81.387  73.526  1.00  0.00     0.120 C 
ATOM      7  C   UNL     1      64.364  81.495  75.390  1.00  0.00     0.120 C 
ATOM      8  C   UNL     1      63.836  80.927  72.567  1.00  0.00     0.022 C 
ATOM      9  C   UNL     1      65.480  81.014  74.462  1.00  0.00     0.022 C 
ATOM     10  C   UNL     1      64.934  80.173  73.312  1.00  0.00     0.004 C 
ENDBRANCH   1   3
BRANCH   2  11
ATOM     11  C   UNL     1      64.812  85.971  76.791  1.00  0.00     0.001 C 
ATOM     12  C   UNL     1      65.513  85.436  77.804  1.00  0.00     0.008 C 
BRANCH  12  13
ATOM     13  C   UNL     1      66.152  86.204  78.887  1.00  0.00    -0.022 A 
ATOM     14  C   UNL     1      66.081  87.590  78.865  1.00  0.00     0.058 A 
ATOM     15  C   UNL     1      66.812  85.514  79.907  1.00  0.00     0.012 A 
ATOM     16  C   UNL     1      66.694  88.264  79.901  1.00  0.00     0.166 A 
ATOM     17  C   UNL     1      67.424  86.222  80.944  1.00  0.00     0.051 A 
ATOM     18  O   UNL     1      66.738  89.616  80.058  1.00  0.00    -0.454 OA
ATOM     19  C   UNL     1      67.348  87.599  80.913  1.00  0.00     0.165 A 
ATOM     20  C   UNL     1      67.492  89.726  81.283  1.00  0.00     0.468 C 
ATOM     21  O   UNL     1      67.882  88.450  81.830  1.00  0.00    -0.454 OA
ENDBRANCH  12  13
ENDBRANCH   2  11
TORSDOF 3
ENDMDL
MODEL 10
REMARK VINA RESULT:    -6.895      2.269      3.371
REMARK INTER + INTRA:          -8.481
REMARK INTER:                  -8.113
REMARK INTRA:                  -0.368
REMARK UNBOUND:                -0.377
REMARK SMILES O=C(/C=C/C=C/c1ccc2c(c1)OCO2)N1CCCCC1
REMARK SMILES IDX 3 1 4 2 2 3 1 4 16 5 17 6 21 7 18 8 20 9 19 10 5 11 6 12
REMARK SMILES IDX 7 13 12 14 8 15 11 16 9 17 13 18 10 19 14 20 15 21
REMARK H PARENT
REMARK Flexibility Score: inf
ROOT
ATOM      1  C   UNL     1      92.250  92.708  76.482  1.00  0.00     0.071 C 
ATOM      2  C   UNL     1      92.699  93.669  77.287  1.00  0.00     0.006 C 
ENDROOT
BRANCH   1   3
ATOM      3  C   UNL     1      90.883  92.198  76.704  1.00  0.00     0.246 C 
ATOM      4  O   UNL     1      90.197  92.760  77.558  1.00  0.00    -0.270 OA
ATOM      5  N   UNL     1      90.462  91.113  75.937  1.00  0.00    -0.339 N 
ATOM      6  C   UNL     1      89.111  90.581  76.138  1.00  0.00     0.120 C 
ATOM      7  C   UNL     1      91.266  90.388  74.941  1.00  0.00     0.120 C 
ATOM      8  C   UNL     1      88.343  90.496  74.823  1.00  0.00     0.022 C 
ATOM      9  C   UNL     1      90.527  90.279  73.607  1.00  0.00     0.022 C 
ATOM     10  C   UNL     1      89.126  89.700  73.784  1.00  0.00     0.004 C 
ENDBRANCH   1   3
BRANCH   2  11
ATOM     11  C   UNL     1      94.025  94.233  77.149  1.00  0.00     0.001 C 
ATOM     12  C   UNL     1      94.399  94.955  76.081  1.00  0.00     0.008 C 
BRANCH  12  13
ATOM     13  C   UNL     1      95.735  95.544  75.886  1.00  0.00    -0.022 A 
ATOM     14  C   UNL     1      96.105  95.976  74.619  1.00  0.00     0.058 A 
ATOM     15  C   UNL     1      96.595  95.651  76.982  1.00  0.00     0.012 A 
ATOM     16  C   UNL     1      97.366  96.520  74.487  1.00  0.00     0.166 A 
ATOM     17  C   UNL     1      97.866  96.205  76.819  1.00  0.00     0.051 A 
ATOM     18  O   UNL     1      97.911  96.998  73.334  1.00  0.00    -0.454 OA
ATOM     19  C   UNL     1      98.223  96.632  75.557  1.00  0.00     0.165 A 
ATOM     20  C   UNL     1      99.208  97.423  73.800  1.00  0.00     0.468 C 
ATOM     21  O   UNL     1      99.413  97.194  75.209  1.00  0.00    -0.454 OA
ENDBRANCH  12  13
ENDBRANCH   2  11
TORSDOF 3
ENDMDL
