MODEL 1
REMARK VINA RESULT:    -6.735      0.000      0.000
REMARK INTER + INTRA:         -11.741
REMARK INTER:                 -10.870
REMARK INTRA:                  -0.872
REMARK UNBOUND:                -0.872
REMARK SMILES COc1cc(CNC(=O)CCCCC/C=C/C(C)C)ccc1O
REMARK SMILES IDX 11 1 10 2 8 3 7 4 9 6 6 7 5 8 3 9 22 10 4 11 21 12 20 13
REMARK SMILES IDX 2 14 1 15 23 16 12 18 13 19 14 20 15 21 16 22 17 23 18 24
REMARK SMILES IDX 19 25
REMARK H PARENT 7 5 23 17
REMARK Flexibility Score: inf
ROOT
ATOM      1  C   UNL     1      89.843  93.630  76.587  1.00  0.00     0.010 C 
ENDROOT
BRANCH   1   2
ATOM      2  C   UNL     1      90.823  94.824  76.451  1.00  0.00     0.100 C 
BRANCH   2   3
ATOM      3  C   UNL     1      92.156  94.451  75.943  1.00  0.00     0.220 C 
ATOM      4  N   UNL     1      93.215  94.391  76.797  1.00  0.00    -0.352 N 
ATOM      5  H   UNL     1      93.012  94.690  77.741  1.00  0.00     0.163 HD
ATOM      6  O   UNL     1      92.270  94.156  74.729  1.00  0.00    -0.275 OA
BRANCH   4   7
ATOM      7  C   UNL     1      94.530  93.953  76.459  1.00  0.00     0.151 C 
BRANCH   7   8
ATOM      8  C   UNL     1      95.581  94.616  77.274  1.00  0.00    -0.025 A 
ATOM      9  C   UNL     1      96.400  95.443  79.440  1.00  0.00     0.160 A 
ATOM     10  C   UNL     1      97.567  95.931  78.812  1.00  0.00     0.157 A 
ATOM     11  C   UNL     1      95.414  94.799  78.666  1.00  0.00     0.056 A 
ATOM     12  C   UNL     1      97.752  95.740  77.431  1.00  0.00     0.050 A 
ATOM     13  C   UNL     1      96.771  95.079  76.668  1.00  0.00     0.009 A 
BRANCH   9  14
ATOM     14  O   UNL     1      96.250  95.545  80.798  1.00  0.00    -0.493 OA
ATOM     15  C   UNL     1      96.687  94.386  81.526  1.00  0.00     0.278 C 
ENDBRANCH   9  14
BRANCH  10  16
ATOM     16  O   UNL     1      98.527  96.582  79.516  1.00  0.00    -0.504 OA
ATOM     17  H   UNL     1      98.205  96.763  80.402  1.00  0.00     0.293 HD
ENDBRANCH  10  16
ENDBRANCH   7   8
ENDBRANCH   4   7
ENDBRANCH   2   3
ENDBRANCH   1   2
BRANCH   1  18
ATOM     18  C   UNL     1      90.430  92.526  77.503  1.00  0.00     0.001 C 
BRANCH  18  19
ATOM     19  C   UNL     1      90.229  91.090  76.956  1.00  0.00     0.004 C 
BRANCH  19  20
ATOM     20  C   UNL     1      91.057  90.856  75.662  1.00  0.00     0.027 C 
BRANCH  20  21
ATOM     21  C   UNL     1      90.352  91.216  74.444  1.00  0.00    -0.031 C 
ATOM     22  C   UNL     1      90.984  91.378  73.268  1.00  0.00    -0.028 C 
BRANCH  22  23
ATOM     23  C   UNL     1      90.304  91.734  72.025  1.00  0.00     0.005 C 
ATOM     24  C   UNL     1      89.846  90.454  71.277  1.00  0.00     0.012 C 
ATOM     25  C   UNL     1      89.124  92.700  72.317  1.00  0.00     0.012 C 
ENDBRANCH  22  23
ENDBRANCH  20  21
ENDBRANCH  19  20
ENDBRANCH  18  19
ENDBRANCH   1  18
TORSDOF 11
ENDMDL
MODEL 2
REMARK VINA RESULT:    -6.733      1.830      3.159
REMARK INTER + INTRA:         -11.737
REMARK INTER:                 -10.933
REMARK INTRA:                  -0.805
REMARK UNBOUND:                -0.872
REMARK SMILES COc1cc(CNC(=O)CCCCC/C=C/C(C)C)ccc1O
REMARK SMILES IDX 11 1 10 2 8 3 7 4 9 6 6 7 5 8 3 9 22 10 4 11 21 12 20 13
REMARK SMILES IDX 2 14 1 15 23 16 12 18 13 19 14 20 15 21 16 22 17 23 18 24
REMARK SMILES IDX 19 25
REMARK H PARENT 7 5 23 17
REMARK Flexibility Score: inf
ROOT
ATOM      1  C   UNL     1      92.514  93.110  76.083  1.00  0.00     0.010 C 
ENDROOT
BRANCH   1   2
ATOM      2  C   UNL     1      93.482  93.869  75.139  1.00  0.00     0.100 C 
BRANCH   2   3
ATOM      3  C   UNL     1      94.840  94.045  75.687  1.00  0.00     0.220 C 
ATOM      4  N   UNL     1      95.007  94.303  77.014  1.00  0.00    -0.352 N 
ATOM      5  H   UNL     1      94.148  94.430  77.530  1.00  0.00     0.163 HD
ATOM      6  O   UNL     1      95.817  93.911  74.913  1.00  0.00    -0.275 OA
BRANCH   4   7
ATOM      7  C   UNL     1      96.260  94.398  77.689  1.00  0.00     0.151 C 
BRANCH   7   8
ATOM      8  C   UNL     1      96.116  94.824  79.105  1.00  0.00    -0.025 A 
ATOM      9  C   UNL     1      96.321  96.546  80.849  1.00  0.00     0.160 A 
ATOM     10  C   UNL     1      95.890  95.615  81.819  1.00  0.00     0.157 A 
ATOM     11  C   UNL     1      96.439  96.143  79.504  1.00  0.00     0.056 A 
ATOM     12  C   UNL     1      95.550  94.306  81.431  1.00  0.00     0.050 A 
ATOM     13  C   UNL     1      95.652  93.916  80.083  1.00  0.00     0.009 A 
BRANCH   9  14
ATOM     14  O   UNL     1      96.570  97.846  81.201  1.00  0.00    -0.493 OA
ATOM     15  C   UNL     1      96.853  98.712  80.089  1.00  0.00     0.278 C 
ENDBRANCH   9  14
BRANCH  10  16
ATOM     16  O   UNL     1      95.790  95.955  83.128  1.00  0.00    -0.504 OA
ATOM     17  H   UNL     1      96.585  95.679  83.592  1.00  0.00     0.293 HD
ENDBRANCH  10  16
ENDBRANCH   7   8
ENDBRANCH   4   7
ENDBRANCH   2   3
ENDBRANCH   1   2
BRANCH   1  18
ATOM     18  C   UNL     1      91.448  94.066  76.676  1.00  0.00     0.001 C 
BRANCH  18  19
ATOM     19  C   UNL     1      90.021  93.463  76.713  1.00  0.00     0.004 C 
BRANCH  19  20
ATOM     20  C   UNL     1      89.976  92.165  77.567  1.00  0.00     0.027 C 
BRANCH  20  21
ATOM     21  C   UNL     1      89.782  90.956  76.785  1.00  0.00    -0.031 C 
ATOM     22  C   UNL     1      89.019  90.931  75.678  1.00  0.00    -0.028 C 
BRANCH  22  23
ATOM     23  C   UNL     1      88.809  89.735  74.867  1.00  0.00     0.005 C 
ATOM     24  C   UNL     1      88.800  90.101  73.359  1.00  0.00     0.012 C 
ATOM     25  C   UNL     1      89.879  88.661  75.206  1.00  0.00     0.012 C 
ENDBRANCH  22  23
ENDBRANCH  20  21
ENDBRANCH  19  20
ENDBRANCH  18  19
ENDBRANCH   1  18
TORSDOF 11
ENDMDL
MODEL 3
REMARK VINA RESULT:    -6.428      1.899      2.809
REMARK INTER + INTRA:         -11.245
REMARK INTER:                 -10.411
REMARK INTRA:                  -0.834
REMARK UNBOUND:                -0.872
REMARK SMILES COc1cc(CNC(=O)CCCCC/C=C/C(C)C)ccc1O
REMARK SMILES IDX 11 1 10 2 8 3 7 4 9 6 6 7 5 8 3 9 22 10 4 11 21 12 20 13
REMARK SMILES IDX 2 14 1 15 23 16 12 18 13 19 14 20 15 21 16 22 17 23 18 24
REMARK SMILES IDX 19 25
REMARK H PARENT 7 5 23 17
REMARK Flexibility Score: inf
ROOT
ATOM      1  C   UNL     1      92.756  94.563  75.998  1.00  0.00     0.010 C 
ENDROOT
BRANCH   1   2
ATOM      2  C   UNL     1      93.981  93.713  75.572  1.00  0.00     0.100 C 
BRANCH   2   3
ATOM      3  C   UNL     1      95.278  94.278  75.989  1.00  0.00     0.220 C 
ATOM      4  N   UNL     1      95.345  95.088  77.082  1.00  0.00    -0.352 N 
ATOM      5  H   UNL     1      94.452  95.306  77.500  1.00  0.00     0.163 HD
ATOM      6  O   UNL     1      96.302  93.960  75.339  1.00  0.00    -0.275 OA
BRANCH   4   7
ATOM      7  C   UNL     1      96.542  95.619  77.648  1.00  0.00     0.151 C 
BRANCH   7   8
ATOM      8  C   UNL     1      96.436  95.832  79.114  1.00  0.00    -0.025 A 
ATOM      9  C   UNL     1      95.549  95.168  81.310  1.00  0.00     0.160 A 
ATOM     10  C   UNL     1      96.195  96.274  81.904  1.00  0.00     0.157 A 
ATOM     11  C   UNL     1      95.667  94.961  79.921  1.00  0.00     0.056 A 
ATOM     12  C   UNL     1      96.977  97.137  81.115  1.00  0.00     0.050 A 
ATOM     13  C   UNL     1      97.105  96.912  79.732  1.00  0.00     0.009 A 
BRANCH   9  14
ATOM     14  O   UNL     1      94.858  94.273  82.083  1.00  0.00    -0.493 OA
ATOM     15  C   UNL     1      95.608  93.098  82.434  1.00  0.00     0.278 C 
ENDBRANCH   9  14
BRANCH  10  16
ATOM     16  O   UNL     1      96.084  96.525  83.233  1.00  0.00    -0.504 OA
ATOM     17  H   UNL     1      96.246  95.717  83.726  1.00  0.00     0.293 HD
ENDBRANCH  10  16
ENDBRANCH   7   8
ENDBRANCH   4   7
ENDBRANCH   2   3
ENDBRANCH   1   2
BRANCH   1  18
ATOM     18  C   UNL     1      91.718  93.704  76.763  1.00  0.00     0.001 C 
BRANCH  18  19
ATOM     19  C   UNL     1      90.247  94.045  76.414  1.00  0.00     0.004 C 
BRANCH  19  20
ATOM     20  C   UNL     1      89.970  93.869  74.894  1.00  0.00     0.027 C 
BRANCH  20  21
ATOM     21  C   UNL     1      90.427  92.597  74.361  1.00  0.00    -0.031 C 
ATOM     22  C   UNL     1      90.046  92.146  73.152  1.00  0.00    -0.028 C 
BRANCH  22  23
ATOM     23  C   UNL     1      90.490  90.876  72.586  1.00  0.00     0.005 C 
ATOM     24  C   UNL     1      89.947  89.691  73.428  1.00  0.00     0.012 C 
ATOM     25  C   UNL     1      90.072  90.778  71.093  1.00  0.00     0.012 C 
ENDBRANCH  22  23
ENDBRANCH  20  21
ENDBRANCH  19  20
ENDBRANCH  18  19
ENDBRANCH   1  18
TORSDOF 11
ENDMDL
MODEL 4
REMARK VINA RESULT:    -6.286      4.506      7.657
REMARK INTER + INTRA:         -11.016
REMARK INTER:                 -10.196
REMARK INTRA:                  -0.820
REMARK UNBOUND:                -0.872
REMARK SMILES COc1cc(CNC(=O)CCCCC/C=C/C(C)C)ccc1O
REMARK SMILES IDX 11 1 10 2 8 3 7 4 9 6 6 7 5 8 3 9 22 10 4 11 21 12 20 13
REMARK SMILES IDX 2 14 1 15 23 16 12 18 13 19 14 20 15 21 16 22 17 23 18 24
REMARK SMILES IDX 19 25
REMARK H PARENT 7 5 23 17
REMARK Flexibility Score: inf
ROOT
ATOM      1  C   UNL     1      94.067  97.126  74.348  1.00  0.00     0.010 C 
ENDROOT
BRANCH   1   2
ATOM      2  C   UNL     1      95.307  96.218  74.555  1.00  0.00     0.100 C 
BRANCH   2   3
ATOM      3  C   UNL     1      94.995  94.901  75.141  1.00  0.00     0.220 C 
ATOM      4  N   UNL     1      93.791  94.694  75.742  1.00  0.00    -0.352 N 
ATOM      5  H   UNL     1      93.205  95.515  75.806  1.00  0.00     0.163 HD
ATOM      6  O   UNL     1      95.844  93.985  75.032  1.00  0.00    -0.275 OA
BRANCH   4   7
ATOM      7  C   UNL     1      93.326  93.448  76.260  1.00  0.00     0.151 C 
BRANCH   7   8
ATOM      8  C   UNL     1      92.129  92.941  75.541  1.00  0.00    -0.025 A 
ATOM      9  C   UNL     1      90.396  91.225  75.222  1.00  0.00     0.160 A 
ATOM     10  C   UNL     1      89.877  91.953  74.129  1.00  0.00     0.157 A 
ATOM     11  C   UNL     1      91.521  91.719  75.913  1.00  0.00     0.056 A 
ATOM     12  C   UNL     1      90.463  93.178  73.760  1.00  0.00     0.050 A 
ATOM     13  C   UNL     1      91.574  93.674  74.467  1.00  0.00     0.009 A 
BRANCH   9  14
ATOM     14  O   UNL     1      89.780  90.077  75.645  1.00  0.00    -0.493 OA
ATOM     15  C   UNL     1      89.871  89.847  77.060  1.00  0.00     0.278 C 
ENDBRANCH   9  14
BRANCH  10  16
ATOM     16  O   UNL     1      88.813  91.498  73.420  1.00  0.00    -0.504 OA
ATOM     17  H   UNL     1      88.761  90.542  73.501  1.00  0.00     0.293 HD
ENDBRANCH  10  16
ENDBRANCH   7   8
ENDBRANCH   4   7
ENDBRANCH   2   3
ENDBRANCH   1   2
BRANCH   1  18
ATOM     18  C   UNL     1      94.082  97.781  72.943  1.00  0.00     0.001 C 
BRANCH  18  19
ATOM     19  C   UNL     1      93.513  99.222  72.921  1.00  0.00     0.004 C 
BRANCH  19  20
ATOM     20  C   UNL     1      93.327  99.736  71.466  1.00  0.00     0.027 C 
BRANCH  20  21
ATOM     21  C   UNL     1      92.484  98.881  70.648  1.00  0.00    -0.031 C 
ATOM     22  C   UNL     1      92.060  99.248  69.425  1.00  0.00    -0.028 C 
BRANCH  22  23
ATOM     23  C   UNL     1      91.218  98.410  68.576  1.00  0.00     0.005 C 
ATOM     24  C   UNL     1      90.133  97.699  69.428  1.00  0.00     0.012 C 
ATOM     25  C   UNL     1      90.605  99.255  67.427  1.00  0.00     0.012 C 
ENDBRANCH  22  23
ENDBRANCH  20  21
ENDBRANCH  19  20
ENDBRANCH  18  19
ENDBRANCH   1  18
TORSDOF 11
ENDMDL
MODEL 5
REMARK VINA RESULT:    -6.210      5.017      7.694
REMARK INTER + INTRA:         -10.894
REMARK INTER:                 -10.336
REMARK INTRA:                  -0.558
REMARK UNBOUND:                -0.872
REMARK SMILES COc1cc(CNC(=O)CCCCC/C=C/C(C)C)ccc1O
REMARK SMILES IDX 11 1 10 2 8 3 7 4 9 6 6 7 5 8 3 9 22 10 4 11 21 12 20 13
REMARK SMILES IDX 2 14 1 15 23 16 12 18 13 19 14 20 15 21 16 22 17 23 18 24
REMARK SMILES IDX 19 25
REMARK H PARENT 7 5 23 17
REMARK Flexibility Score: inf
ROOT
ATOM      1  C   UNL     1      93.671  98.573  73.159  1.00  0.00     0.010 C 
ENDROOT
BRANCH   1   2
ATOM      2  C   UNL     1      95.139  98.231  73.524  1.00  0.00     0.100 C 
BRANCH   2   3
ATOM      3  C   UNL     1      95.271  97.216  74.586  1.00  0.00     0.220 C 
ATOM      4  N   UNL     1      94.338  96.231  74.703  1.00  0.00    -0.352 N 
ATOM      5  H   UNL     1      93.554  96.316  74.071  1.00  0.00     0.163 HD
ATOM      6  O   UNL     1      96.275  97.266  75.336  1.00  0.00    -0.275 OA
BRANCH   4   7
ATOM      7  C   UNL     1      94.397  95.137  75.618  1.00  0.00     0.151 C 
BRANCH   7   8
ATOM      8  C   UNL     1      93.137  94.350  75.649  1.00  0.00    -0.025 A 
ATOM      9  C   UNL     1      91.795  92.436  74.884  1.00  0.00     0.160 A 
ATOM     10  C   UNL     1      90.711  92.882  75.672  1.00  0.00     0.157 A 
ATOM     11  C   UNL     1      92.994  93.177  74.871  1.00  0.00     0.056 A 
ATOM     12  C   UNL     1      90.848  94.038  76.463  1.00  0.00     0.050 A 
ATOM     13  C   UNL     1      92.056  94.761  76.459  1.00  0.00     0.009 A 
BRANCH   9  14
ATOM     14  O   UNL     1      91.703  91.265  74.179  1.00  0.00    -0.493 OA
ATOM     15  C   UNL     1      91.162  91.417  72.856  1.00  0.00     0.278 C 
ENDBRANCH   9  14
BRANCH  10  16
ATOM     16  O   UNL     1      89.531  92.214  75.690  1.00  0.00    -0.504 OA
ATOM     17  H   UNL     1      89.154  92.206  74.807  1.00  0.00     0.293 HD
ENDBRANCH  10  16
ENDBRANCH   7   8
ENDBRANCH   4   7
ENDBRANCH   2   3
ENDBRANCH   1   2
BRANCH   1  18
ATOM     18  C   UNL     1      93.414  98.383  71.642  1.00  0.00     0.001 C 
BRANCH  18  19
ATOM     19  C   UNL     1      92.171  99.147  71.120  1.00  0.00     0.004 C 
BRANCH  19  20
ATOM     20  C   UNL     1      92.291  99.458  69.602  1.00  0.00     0.027 C 
BRANCH  20  21
ATOM     21  C   UNL     1      91.285  98.797  68.789  1.00  0.00    -0.031 C 
ATOM     22  C   UNL     1      91.272  98.888  67.447  1.00  0.00    -0.028 C 
BRANCH  22  23
ATOM     23  C   UNL     1      90.278  98.232  66.601  1.00  0.00     0.005 C 
ATOM     24  C   UNL     1      89.814  96.901  67.250  1.00  0.00     0.012 C 
ATOM     25  C   UNL     1      89.094  99.196  66.318  1.00  0.00     0.012 C 
ENDBRANCH  22  23
ENDBRANCH  20  21
ENDBRANCH  19  20
ENDBRANCH  18  19
ENDBRANCH   1  18
TORSDOF 11
ENDMDL
MODEL 6
REMARK VINA RESULT:    -6.191      3.827      5.710
REMARK INTER + INTRA:         -10.863
REMARK INTER:                  -9.828
REMARK INTRA:                  -1.035
REMARK UNBOUND:                -0.872
REMARK SMILES COc1cc(CNC(=O)CCCCC/C=C/C(C)C)ccc1O
REMARK SMILES IDX 11 1 10 2 8 3 7 4 9 6 6 7 5 8 3 9 22 10 4 11 21 12 20 13
REMARK SMILES IDX 2 14 1 15 23 16 12 18 13 19 14 20 15 21 16 22 17 23 18 24
REMARK SMILES IDX 19 25
REMARK H PARENT 7 5 23 17
REMARK Flexibility Score: inf
ROOT
ATOM      1  C   UNL     1      92.563  93.763  75.522  1.00  0.00     0.010 C 
ENDROOT
BRANCH   1   2
ATOM      2  C   UNL     1      93.987  93.535  76.092  1.00  0.00     0.100 C 
BRANCH   2   3
ATOM      3  C   UNL     1      95.010  94.438  75.531  1.00  0.00     0.220 C 
ATOM      4  N   UNL     1      94.882  95.785  75.686  1.00  0.00    -0.352 N 
ATOM      5  H   UNL     1      94.023  96.079  76.129  1.00  0.00     0.163 HD
ATOM      6  O   UNL     1      96.001  93.930  74.956  1.00  0.00    -0.275 OA
BRANCH   4   7
ATOM      7  C   UNL     1      95.841  96.760  75.280  1.00  0.00     0.151 C 
BRANCH   7   8
ATOM      8  C   UNL     1      95.613  97.246  73.895  1.00  0.00    -0.025 A 
ATOM      9  C   UNL     1      94.134  98.225  72.191  1.00  0.00     0.160 A 
ATOM     10  C   UNL     1      95.167  98.121  71.235  1.00  0.00     0.157 A 
ATOM     11  C   UNL     1      94.361  97.780  73.509  1.00  0.00     0.056 A 
ATOM     12  C   UNL     1      96.422  97.608  71.611  1.00  0.00     0.050 A 
ATOM     13  C   UNL     1      96.647  97.183  72.934  1.00  0.00     0.009 A 
BRANCH   9  14
ATOM     14  O   UNL     1      92.938  98.804  71.858  1.00  0.00    -0.493 OA
ATOM     15  C   UNL     1      92.828 100.187  72.235  1.00  0.00     0.278 C 
ENDBRANCH   9  14
BRANCH  10  16
ATOM     16  O   UNL     1      94.980  98.512  69.949  1.00  0.00    -0.504 OA
ATOM     17  H   UNL     1      95.513  97.964  69.368  1.00  0.00     0.293 HD
ENDBRANCH  10  16
ENDBRANCH   7   8
ENDBRANCH   4   7
ENDBRANCH   2   3
ENDBRANCH   1   2
BRANCH   1  18
ATOM     18  C   UNL     1      91.544  94.038  76.657  1.00  0.00     0.001 C 
BRANCH  18  19
ATOM     19  C   UNL     1      91.217  92.791  77.517  1.00  0.00     0.004 C 
BRANCH  19  20
ATOM     20  C   UNL     1      89.746  92.332  77.314  1.00  0.00     0.027 C 
BRANCH  20  21
ATOM     21  C   UNL     1      89.617  91.113  76.533  1.00  0.00    -0.031 C 
ATOM     22  C   UNL     1      90.677  90.354  76.204  1.00  0.00    -0.028 C 
BRANCH  22  23
ATOM     23  C   UNL     1      90.579  89.122  75.425  1.00  0.00     0.005 C 
ATOM     24  C   UNL     1      90.833  87.890  76.334  1.00  0.00     0.012 C 
ATOM     25  C   UNL     1      89.206  89.050  74.704  1.00  0.00     0.012 C 
ENDBRANCH  22  23
ENDBRANCH  20  21
ENDBRANCH  19  20
ENDBRANCH  18  19
ENDBRANCH   1  18
TORSDOF 11
ENDMDL
MODEL 7
REMARK VINA RESULT:    -6.082     14.051     16.619
REMARK INTER + INTRA:         -10.687
REMARK INTER:                  -9.260
REMARK INTRA:                  -1.427
REMARK UNBOUND:                -0.872
REMARK SMILES COc1cc(CNC(=O)CCCCC/C=C/C(C)C)ccc1O
REMARK SMILES IDX 11 1 10 2 8 3 7 4 9 6 6 7 5 8 3 9 22 10 4 11 21 12 20 13
REMARK SMILES IDX 2 14 1 15 23 16 12 18 13 19 14 20 15 21 16 22 17 23 18 24
REMARK SMILES IDX 19 25
REMARK H PARENT 7 5 23 17
REMARK Flexibility Score: inf
ROOT
ATOM      1  C   UNL     1      80.512  86.228  85.494  1.00  0.00     0.010 C 
ENDROOT
BRANCH   1   2
ATOM      2  C   UNL     1      81.892  86.297  86.198  1.00  0.00     0.100 C 
BRANCH   2   3
ATOM      3  C   UNL     1      81.812  86.425  87.665  1.00  0.00     0.220 C 
ATOM      4  N   UNL     1      82.036  87.632  88.255  1.00  0.00    -0.352 N 
ATOM      5  H   UNL     1      82.324  88.364  87.620  1.00  0.00     0.163 HD
ATOM      6  O   UNL     1      81.495  85.413  88.334  1.00  0.00    -0.275 OA
BRANCH   4   7
ATOM      7  C   UNL     1      81.897  87.914  89.646  1.00  0.00     0.151 C 
BRANCH   7   8
ATOM      8  C   UNL     1      82.629  89.140  90.057  1.00  0.00    -0.025 A 
ATOM      9  C   UNL     1      83.380  91.436  89.594  1.00  0.00     0.160 A 
ATOM     10  C   UNL     1      84.072  91.457  90.824  1.00  0.00     0.157 A 
ATOM     11  C   UNL     1      82.672  90.277  89.216  1.00  0.00     0.056 A 
ATOM     12  C   UNL     1      84.022  90.338  91.676  1.00  0.00     0.050 A 
ATOM     13  C   UNL     1      83.297  89.192  91.301  1.00  0.00     0.009 A 
BRANCH   9  14
ATOM     14  O   UNL     1      83.350  92.550  88.797  1.00  0.00    -0.493 OA
ATOM     15  C   UNL     1      82.191  93.379  88.990  1.00  0.00     0.278 C 
ENDBRANCH   9  14
BRANCH  10  16
ATOM     16  O   UNL     1      84.788  92.542  91.212  1.00  0.00    -0.504 OA
ATOM     17  H   UNL     1      85.607  92.579  90.712  1.00  0.00     0.293 HD
ENDBRANCH  10  16
ENDBRANCH   7   8
ENDBRANCH   4   7
ENDBRANCH   2   3
ENDBRANCH   1   2
BRANCH   1  18
ATOM     18  C   UNL     1      79.946  87.647  85.233  1.00  0.00     0.001 C 
BRANCH  18  19
ATOM     19  C   UNL     1      80.539  88.333  83.976  1.00  0.00     0.004 C 
BRANCH  19  20
ATOM     20  C   UNL     1      81.155  89.717  84.324  1.00  0.00     0.027 C 
BRANCH  20  21
ATOM     21  C   UNL     1      82.507  89.640  84.848  1.00  0.00    -0.031 C 
ATOM     22  C   UNL     1      83.417  90.608  84.638  1.00  0.00    -0.028 C 
BRANCH  22  23
ATOM     23  C   UNL     1      84.782  90.563  85.156  1.00  0.00     0.005 C 
ATOM     24  C   UNL     1      85.195  91.954  85.706  1.00  0.00     0.012 C 
ATOM     25  C   UNL     1      84.914  89.444  86.224  1.00  0.00     0.012 C 
ENDBRANCH  22  23
ENDBRANCH  20  21
ENDBRANCH  19  20
ENDBRANCH  18  19
ENDBRANCH   1  18
TORSDOF 11
ENDMDL
MODEL 8
REMARK VINA RESULT:    -6.058     14.000     16.630
REMARK INTER + INTRA:         -10.649
REMARK INTER:                  -8.760
REMARK INTRA:                  -1.889
REMARK UNBOUND:                -0.872
REMARK SMILES COc1cc(CNC(=O)CCCCC/C=C/C(C)C)ccc1O
REMARK SMILES IDX 11 1 10 2 8 3 7 4 9 6 6 7 5 8 3 9 22 10 4 11 21 12 20 13
REMARK SMILES IDX 2 14 1 15 23 16 12 18 13 19 14 20 15 21 16 22 17 23 18 24
REMARK SMILES IDX 19 25
REMARK H PARENT 7 5 23 17
REMARK Flexibility Score: inf
ROOT
ATOM      1  C   UNL     1      80.933  86.047  84.643  1.00  0.00     0.010 C 
ENDROOT
BRANCH   1   2
ATOM      2  C   UNL     1      80.232  85.933  86.022  1.00  0.00     0.100 C 
BRANCH   2   3
ATOM      3  C   UNL     1      81.117  86.207  87.169  1.00  0.00     0.220 C 
ATOM      4  N   UNL     1      80.851  87.256  87.995  1.00  0.00    -0.352 N 
ATOM      5  H   UNL     1      80.075  87.835  87.705  1.00  0.00     0.163 HD
ATOM      6  O   UNL     1      82.079  85.431  87.378  1.00  0.00    -0.275 OA
BRANCH   4   7
ATOM      7  C   UNL     1      81.564  87.574  89.189  1.00  0.00     0.151 C 
BRANCH   7   8
ATOM      8  C   UNL     1      81.978  89.000  89.246  1.00  0.00    -0.025 A 
ATOM      9  C   UNL     1      83.440  90.766  90.136  1.00  0.00     0.160 A 
ATOM     10  C   UNL     1      82.727  91.730  89.391  1.00  0.00     0.157 A 
ATOM     11  C   UNL     1      83.055  89.412  90.065  1.00  0.00     0.056 A 
ATOM     12  C   UNL     1      81.665  91.330  88.560  1.00  0.00     0.050 A 
ATOM     13  C   UNL     1      81.299  89.974  88.480  1.00  0.00     0.009 A 
BRANCH   9  14
ATOM     14  O   UNL     1      84.531  91.132  90.879  1.00  0.00    -0.493 OA
ATOM     15  C   UNL     1      84.218  91.538  92.222  1.00  0.00     0.278 C 
ENDBRANCH   9  14
BRANCH  10  16
ATOM     16  O   UNL     1      83.048  93.047  89.453  1.00  0.00    -0.504 OA
ATOM     17  H   UNL     1      82.466  93.545  88.873  1.00  0.00     0.293 HD
ENDBRANCH  10  16
ENDBRANCH   7   8
ENDBRANCH   4   7
ENDBRANCH   2   3
ENDBRANCH   1   2
BRANCH   1  18
ATOM     18  C   UNL     1      81.579  87.444  84.457  1.00  0.00     0.001 C 
BRANCH  18  19
ATOM     19  C   UNL     1      80.563  88.556  84.094  1.00  0.00     0.004 C 
BRANCH  19  20
ATOM     20  C   UNL     1      81.162  89.970  84.333  1.00  0.00     0.027 C 
BRANCH  20  21
ATOM     21  C   UNL     1      82.386  89.962  85.115  1.00  0.00    -0.031 C 
ATOM     22  C   UNL     1      83.424  90.770  84.833  1.00  0.00    -0.028 C 
BRANCH  22  23
ATOM     23  C   UNL     1      84.666  90.790  85.602  1.00  0.00     0.005 C 
ATOM     24  C   UNL     1      84.590  89.773  86.772  1.00  0.00     0.012 C 
ATOM     25  C   UNL     1      85.879  90.527  84.670  1.00  0.00     0.012 C 
ENDBRANCH  22  23
ENDBRANCH  20  21
ENDBRANCH  19  20
ENDBRANCH  18  19
ENDBRANCH   1  18
TORSDOF 11
ENDMDL
MODEL 9
REMARK VINA RESULT:    -5.830      4.404      6.200
REMARK INTER + INTRA:         -10.281
REMARK INTER:                  -9.202
REMARK INTRA:                  -1.080
REMARK UNBOUND:                -0.872
REMARK SMILES COc1cc(CNC(=O)CCCCC/C=C/C(C)C)ccc1O
REMARK SMILES IDX 11 1 10 2 8 3 7 4 9 6 6 7 5 8 3 9 22 10 4 11 21 12 20 13
REMARK SMILES IDX 2 14 1 15 23 16 12 18 13 19 14 20 15 21 16 22 17 23 18 24
REMARK SMILES IDX 19 25
REMARK H PARENT 7 5 23 17
REMARK Flexibility Score: inf
ROOT
ATOM      1  C   UNL     1      94.028  93.856  75.337  1.00  0.00     0.010 C 
ENDROOT
BRANCH   1   2
ATOM      2  C   UNL     1      95.452  94.366  75.681  1.00  0.00     0.100 C 
BRANCH   2   3
ATOM      3  C   UNL     1      95.868  95.551  74.909  1.00  0.00     0.220 C 
ATOM      4  N   UNL     1      95.369  96.778  75.228  1.00  0.00    -0.352 N 
ATOM      5  H   UNL     1      94.667  96.771  75.955  1.00  0.00     0.163 HD
ATOM      6  O   UNL     1      96.712  95.400  73.994  1.00  0.00    -0.275 OA
BRANCH   4   7
ATOM      7  C   UNL     1      95.759  98.013  74.630  1.00  0.00     0.151 C 
BRANCH   7   8
ATOM      8  C   UNL     1      94.796  98.477  73.598  1.00  0.00    -0.025 A 
ATOM      9  C   UNL     1      93.001  99.998  72.881  1.00  0.00     0.160 A 
ATOM     10  C   UNL     1      92.925  99.323  71.643  1.00  0.00     0.157 A 
ATOM     11  C   UNL     1      93.928  99.565  73.851  1.00  0.00     0.056 A 
ATOM     12  C   UNL     1      93.796  98.251  71.374  1.00  0.00     0.050 A 
ATOM     13  C   UNL     1      94.732  97.838  72.340  1.00  0.00     0.009 A 
BRANCH   9  14
ATOM     14  O   UNL     1      92.220 101.097  73.119  1.00  0.00    -0.493 OA
ATOM     15  C   UNL     1      92.915 102.349  72.999  1.00  0.00     0.278 C 
ENDBRANCH   9  14
BRANCH  10  16
ATOM     16  O   UNL     1      92.028  99.690  70.694  1.00  0.00    -0.504 OA
ATOM     17  H   UNL     1      91.257  99.120  70.746  1.00  0.00     0.293 HD
ENDBRANCH  10  16
ENDBRANCH   7   8
ENDBRANCH   4   7
ENDBRANCH   2   3
ENDBRANCH   1   2
BRANCH   1  18
ATOM     18  C   UNL     1      92.972  94.455  76.299  1.00  0.00     0.001 C 
BRANCH  18  19
ATOM     19  C   UNL     1      92.158  93.388  77.073  1.00  0.00     0.004 C 
BRANCH  19  20
ATOM     20  C   UNL     1      90.633  93.538  76.812  1.00  0.00     0.027 C 
BRANCH  20  21
ATOM     21  C   UNL     1      90.274  93.492  75.405  1.00  0.00    -0.031 C 
ATOM     22  C   UNL     1      90.146  92.333  74.733  1.00  0.00    -0.028 C 
BRANCH  22  23
ATOM     23  C   UNL     1      89.781  92.253  73.321  1.00  0.00     0.005 C 
ATOM     24  C   UNL     1      89.523  93.672  72.750  1.00  0.00     0.012 C 
ATOM     25  C   UNL     1      90.875  91.488  72.527  1.00  0.00     0.012 C 
ENDBRANCH  22  23
ENDBRANCH  20  21
ENDBRANCH  19  20
ENDBRANCH  18  19
ENDBRANCH   1  18
TORSDOF 11
ENDMDL
MODEL 10
REMARK VINA RESULT:    -5.697     14.286     17.128
REMARK INTER + INTRA:         -10.067
REMARK INTER:                  -8.514
REMARK INTRA:                  -1.553
REMARK UNBOUND:                -0.872
REMARK SMILES COc1cc(CNC(=O)CCCCC/C=C/C(C)C)ccc1O
REMARK SMILES IDX 11 1 10 2 8 3 7 4 9 6 6 7 5 8 3 9 22 10 4 11 21 12 20 13
REMARK SMILES IDX 2 14 1 15 23 16 12 18 13 19 14 20 15 21 16 22 17 23 18 24
REMARK SMILES IDX 19 25
REMARK H PARENT 7 5 23 17
REMARK Flexibility Score: inf
ROOT
ATOM      1  C   UNL     1      80.911  86.207  87.548  1.00  0.00     0.010 C 
ENDROOT
BRANCH   1   2
ATOM      2  C   UNL     1      80.319  86.178  86.115  1.00  0.00     0.100 C 
BRANCH   2   3
ATOM      3  C   UNL     1      80.874  87.207  85.216  1.00  0.00     0.220 C 
ATOM      4  N   UNL     1      80.529  88.514  85.387  1.00  0.00    -0.352 N 
ATOM      5  H   UNL     1      79.834  88.676  86.102  1.00  0.00     0.163 HD
ATOM      6  O   UNL     1      81.689  86.850  84.334  1.00  0.00    -0.275 OA
BRANCH   4   7
ATOM      7  C   UNL     1      81.064  89.615  84.654  1.00  0.00     0.151 C 
BRANCH   7   8
ATOM      8  C   UNL     1      82.373  90.074  85.186  1.00  0.00    -0.025 A 
ATOM      9  C   UNL     1      83.755  90.884  87.052  1.00  0.00     0.160 A 
ATOM     10  C   UNL     1      84.861  91.000  86.181  1.00  0.00     0.157 A 
ATOM     11  C   UNL     1      82.520  90.431  86.547  1.00  0.00     0.056 A 
ATOM     12  C   UNL     1      84.731  90.632  84.830  1.00  0.00     0.050 A 
ATOM     13  C   UNL     1      83.499  90.162  84.338  1.00  0.00     0.009 A 
BRANCH   9  14
ATOM     14  O   UNL     1      83.894  91.156  88.387  1.00  0.00    -0.493 OA
ATOM     15  C   UNL     1      83.079  92.244  88.853  1.00  0.00     0.278 C 
ENDBRANCH   9  14
BRANCH  10  16
ATOM     16  O   UNL     1      86.059  91.459  86.621  1.00  0.00    -0.504 OA
ATOM     17  H   UNL     1      86.443  90.820  87.227  1.00  0.00     0.293 HD
ENDBRANCH  10  16
ENDBRANCH   7   8
ENDBRANCH   4   7
ENDBRANCH   2   3
ENDBRANCH   1   2
BRANCH   1  18
ATOM     18  C   UNL     1      79.846  86.645  88.585  1.00  0.00     0.001 C 
BRANCH  18  19
ATOM     19  C   UNL     1      79.811  88.175  88.833  1.00  0.00     0.004 C 
BRANCH  19  20
ATOM     20  C   UNL     1      79.837  88.503  90.352  1.00  0.00     0.027 C 
BRANCH  20  21
ATOM     21  C   UNL     1      81.142  88.327  90.966  1.00  0.00    -0.031 C 
ATOM     22  C   UNL     1      82.210  89.061  90.609  1.00  0.00    -0.028 C 
BRANCH  22  23
ATOM     23  C   UNL     1      83.533  88.912  91.210  1.00  0.00     0.005 C 
ATOM     24  C   UNL     1      83.987  90.251  91.849  1.00  0.00     0.012 C 
ATOM     25  C   UNL     1      83.529  87.742  92.231  1.00  0.00     0.012 C 
ENDBRANCH  22  23
ENDBRANCH  20  21
ENDBRANCH  19  20
ENDBRANCH  18  19
ENDBRANCH   1  18
TORSDOF 11
ENDMDL
