MODEL 1
REMARK VINA RESULT:    -6.554      0.000      0.000
REMARK INTER + INTRA:         -11.131
REMARK INTER:                 -10.193
REMARK INTRA:                  -0.937
REMARK UNBOUND:                -0.937
REMARK SMILES CCCCC/C=C/C(=O)CCc1ccc(O)c(OC)c1
REMARK SMILES IDX 6 1 7 2 8 3 9 4 10 5 11 6 12 7 17 8 20 9 15 10 14 11 13 12
REMARK SMILES IDX 18 13 19 14 16 15 5 17 4 18 3 19 2 20 1 21
REMARK H PARENT 16 16
REMARK Flexibility Score: inf
ROOT
ATOM      1  C   UNL     1      94.855  94.072  75.732  1.00  0.00    -0.023 C 
ATOM      2  C   UNL     1      93.667  93.706  76.229  1.00  0.00     0.043 C 
ENDROOT
BRANCH   2   3
ATOM      3  C   UNL     1      92.414  94.157  75.565  1.00  0.00     0.155 C 
ATOM      4  O   UNL     1      92.259  94.075  74.348  1.00  0.00    -0.295 OA
BRANCH   3   5
ATOM      5  C   UNL     1      91.358  94.773  76.461  1.00  0.00     0.085 C 
BRANCH   5   6
ATOM      6  C   UNL     1      90.000  94.097  76.265  1.00  0.00     0.044 C 
BRANCH   6   7
ATOM      7  C   UNL     1      89.999  92.647  76.688  1.00  0.00    -0.044 A 
ATOM      8  C   UNL     1      89.624  90.335  76.168  1.00  0.00     0.160 A 
ATOM      9  C   UNL     1      89.624  91.674  75.776  1.00  0.00     0.054 A 
ATOM     10  C   UNL     1      89.998  89.987  77.466  1.00  0.00     0.157 A 
ATOM     11  C   UNL     1      90.372  90.979  78.373  1.00  0.00     0.050 A 
ATOM     12  C   UNL     1      90.372  92.318  77.981  1.00  0.00     0.008 A 
BRANCH   8  13
ATOM     13  O   UNL     1      89.256  89.375  75.273  1.00  0.00    -0.493 OA
ATOM     14  C   UNL     1      88.731  89.821  74.024  1.00  0.00     0.278 C 
ENDBRANCH   8  13
BRANCH  10  15
ATOM     15  O   UNL     1      90.002  88.683  77.860  1.00  0.00    -0.504 OA
ATOM     16  H   UNL     1      90.273  88.647  78.793  1.00  0.00     0.293 HD
ENDBRANCH  10  15
ENDBRANCH   6   7
ENDBRANCH   5   6
ENDBRANCH   3   5
ENDBRANCH   2   3
BRANCH   1  17
ATOM     17  C   UNL     1      96.163  93.659  76.343  1.00  0.00     0.027 C 
BRANCH  17  18
ATOM     18  C   UNL     1      97.022  94.849  76.785  1.00  0.00     0.004 C 
BRANCH  18  19
ATOM     19  C   UNL     1      96.285  95.831  77.701  1.00  0.00     0.000 C 
BRANCH  19  20
ATOM     20  C   UNL     1      96.049  95.224  79.085  1.00  0.00    -0.003 C 
ATOM     21  C   UNL     1      96.654  96.085  80.182  1.00  0.00     0.004 C 
ENDBRANCH  19  20
ENDBRANCH  18  19
ENDBRANCH  17  18
ENDBRANCH   1  17
TORSDOF 10
ENDMDL
MODEL 2
REMARK VINA RESULT:    -6.300      3.187      7.509
REMARK INTER + INTRA:         -10.736
REMARK INTER:                  -9.972
REMARK INTRA:                  -0.764
REMARK UNBOUND:                -0.937
REMARK SMILES CCCCC/C=C/C(=O)CCc1ccc(O)c(OC)c1
REMARK SMILES IDX 6 1 7 2 8 3 9 4 10 5 11 6 12 7 17 8 20 9 15 10 14 11 13 12
REMARK SMILES IDX 18 13 19 14 16 15 5 17 4 18 3 19 2 20 1 21
REMARK H PARENT 16 16
REMARK Flexibility Score: inf
ROOT
ATOM      1  C   UNL     1      93.299  93.856  76.060  1.00  0.00    -0.023 C 
ATOM      2  C   UNL     1      94.292  94.211  75.236  1.00  0.00     0.043 C 
ENDROOT
BRANCH   2   3
ATOM      3  C   UNL     1      95.673  94.375  75.767  1.00  0.00     0.155 C 
ATOM      4  O   UNL     1      96.494  93.461  75.733  1.00  0.00    -0.295 OA
BRANCH   3   5
ATOM      5  C   UNL     1      95.999  95.713  76.401  1.00  0.00     0.085 C 
BRANCH   5   6
ATOM      6  C   UNL     1      97.087  95.572  77.467  1.00  0.00     0.044 C 
BRANCH   6   7
ATOM      7  C   UNL     1      96.528  95.308  78.845  1.00  0.00    -0.044 A 
ATOM      8  C   UNL     1      96.029  96.076  81.063  1.00  0.00     0.160 A 
ATOM      9  C   UNL     1      96.545  96.321  79.790  1.00  0.00     0.054 A 
ATOM     10  C   UNL     1      95.503  94.823  81.374  1.00  0.00     0.157 A 
ATOM     11  C   UNL     1      95.494  93.812  80.411  1.00  0.00     0.050 A 
ATOM     12  C   UNL     1      96.010  94.057  79.138  1.00  0.00     0.008 A 
BRANCH   8  13
ATOM     13  O   UNL     1      96.044  97.071  81.994  1.00  0.00    -0.493 OA
ATOM     14  C   UNL     1      96.333  98.388  81.531  1.00  0.00     0.278 C 
ENDBRANCH   8  13
BRANCH  10  15
ATOM     15  O   UNL     1      94.995  94.572  82.612  1.00  0.00    -0.504 OA
ATOM     16  H   UNL     1      95.717  94.247  83.178  1.00  0.00     0.293 HD
ENDBRANCH  10  15
ENDBRANCH   6   7
ENDBRANCH   5   6
ENDBRANCH   3   5
ENDBRANCH   2   3
BRANCH   1  17
ATOM     17  C   UNL     1      91.881  93.671  75.603  1.00  0.00     0.027 C 
BRANCH  17  18
ATOM     18  C   UNL     1      90.850  94.095  76.654  1.00  0.00     0.004 C 
BRANCH  18  19
ATOM     19  C   UNL     1      90.023  92.930  77.208  1.00  0.00     0.000 C 
BRANCH  19  20
ATOM     20  C   UNL     1      90.918  91.888  77.879  1.00  0.00    -0.003 C 
ATOM     21  C   UNL     1      90.126  90.999  78.824  1.00  0.00     0.004 C 
ENDBRANCH  19  20
ENDBRANCH  18  19
ENDBRANCH  17  18
ENDBRANCH   1  17
TORSDOF 10
ENDMDL
MODEL 3
REMARK VINA RESULT:    -6.086      1.338      1.686
REMARK INTER + INTRA:         -10.403
REMARK INTER:                  -9.572
REMARK INTRA:                  -0.831
REMARK UNBOUND:                -0.937
REMARK SMILES CCCCC/C=C/C(=O)CCc1ccc(O)c(OC)c1
REMARK SMILES IDX 6 1 7 2 8 3 9 4 10 5 11 6 12 7 17 8 20 9 15 10 14 11 13 12
REMARK SMILES IDX 18 13 19 14 16 15 5 17 4 18 3 19 2 20 1 21
REMARK H PARENT 16 16
REMARK Flexibility Score: inf
ROOT
ATOM      1  C   UNL     1      94.673  94.696  77.010  1.00  0.00    -0.023 C 
ATOM      2  C   UNL     1      94.106  94.040  75.989  1.00  0.00     0.043 C 
ENDROOT
BRANCH   2   3
ATOM      3  C   UNL     1      93.201  94.763  75.055  1.00  0.00     0.155 C 
ATOM      4  O   UNL     1      93.510  95.844  74.558  1.00  0.00    -0.295 OA
BRANCH   3   5
ATOM      5  C   UNL     1      91.854  94.121  74.787  1.00  0.00     0.085 C 
BRANCH   5   6
ATOM      6  C   UNL     1      91.012  94.043  76.062  1.00  0.00     0.044 C 
BRANCH   6   7
ATOM      7  C   UNL     1      90.765  92.625  76.517  1.00  0.00    -0.044 A 
ATOM      8  C   UNL     1      90.556  90.289  76.007  1.00  0.00     0.160 A 
ATOM      9  C   UNL     1      90.784  91.599  75.585  1.00  0.00     0.054 A 
ATOM     10  C   UNL     1      90.312  90.021  77.353  1.00  0.00     0.157 A 
ATOM     11  C   UNL     1      90.296  91.065  78.280  1.00  0.00     0.050 A 
ATOM     12  C   UNL     1      90.523  92.375  77.858  1.00  0.00     0.008 A 
BRANCH   8  13
ATOM     13  O   UNL     1      90.574  89.279  75.093  1.00  0.00    -0.493 OA
ATOM     14  C   UNL     1      89.424  89.135  74.262  1.00  0.00     0.278 C 
ENDBRANCH   8  13
BRANCH  10  15
ATOM     15  O   UNL     1      90.088  88.746  77.777  1.00  0.00    -0.504 OA
ATOM     16  H   UNL     1      90.017  88.755  78.747  1.00  0.00     0.293 HD
ENDBRANCH  10  15
ENDBRANCH   6   7
ENDBRANCH   5   6
ENDBRANCH   3   5
ENDBRANCH   2   3
BRANCH   1  17
ATOM     17  C   UNL     1      95.596  94.040  77.995  1.00  0.00     0.027 C 
BRANCH  17  18
ATOM     18  C   UNL     1      95.287  94.412  79.449  1.00  0.00     0.004 C 
BRANCH  18  19
ATOM     19  C   UNL     1      96.470  95.053  80.183  1.00  0.00     0.000 C 
BRANCH  19  20
ATOM     20  C   UNL     1      96.300  94.948  81.699  1.00  0.00    -0.003 C 
ATOM     21  C   UNL     1      95.863  93.552  82.116  1.00  0.00     0.004 C 
ENDBRANCH  19  20
ENDBRANCH  18  19
ENDBRANCH  17  18
ENDBRANCH   1  17
TORSDOF 10
ENDMDL
MODEL 4
REMARK VINA RESULT:    -5.743     24.669     28.013
REMARK INTER + INTRA:          -9.869
REMARK INTER:                  -8.520
REMARK INTRA:                  -1.349
REMARK UNBOUND:                -0.937
REMARK SMILES CCCCC/C=C/C(=O)CCc1ccc(O)c(OC)c1
REMARK SMILES IDX 6 1 7 2 8 3 9 4 10 5 11 6 12 7 17 8 20 9 15 10 14 11 13 12
REMARK SMILES IDX 18 13 19 14 16 15 5 17 4 18 3 19 2 20 1 21
REMARK H PARENT 16 16
REMARK Flexibility Score: inf
ROOT
ATOM      1  C   UNL     1      80.133  64.790  73.008  1.00  0.00    -0.023 C 
ATOM      2  C   UNL     1      81.025  65.570  72.385  1.00  0.00     0.043 C 
ENDROOT
BRANCH   2   3
ATOM      3  C   UNL     1      80.611  66.368  71.199  1.00  0.00     0.155 C 
ATOM      4  O   UNL     1      79.802  65.941  70.379  1.00  0.00    -0.295 OA
BRANCH   3   5
ATOM      5  C   UNL     1      81.281  67.718  71.026  1.00  0.00     0.085 C 
BRANCH   5   6
ATOM      6  C   UNL     1      81.798  68.257  72.361  1.00  0.00     0.044 C 
BRANCH   6   7
ATOM      7  C   UNL     1      83.227  68.739  72.285  1.00  0.00    -0.044 A 
ATOM      8  C   UNL     1      85.475  68.705  73.125  1.00  0.00     0.160 A 
ATOM      9  C   UNL     1      84.155  68.259  73.196  1.00  0.00     0.054 A 
ATOM     10  C   UNL     1      85.850  69.625  72.146  1.00  0.00     0.157 A 
ATOM     11  C   UNL     1      84.903  70.099  71.237  1.00  0.00     0.050 A 
ATOM     12  C   UNL     1      83.583  69.654  71.308  1.00  0.00     0.008 A 
BRANCH   8  13
ATOM     13  O   UNL     1      86.389  68.234  74.019  1.00  0.00    -0.493 OA
ATOM     14  C   UNL     1      86.323  68.751  75.347  1.00  0.00     0.278 C 
ENDBRANCH   8  13
BRANCH  10  15
ATOM     15  O   UNL     1      87.135  70.067  72.067  1.00  0.00    -0.504 OA
ATOM     16  H   UNL     1      87.633  69.695  72.815  1.00  0.00     0.293 HD
ENDBRANCH  10  15
ENDBRANCH   6   7
ENDBRANCH   5   6
ENDBRANCH   3   5
ENDBRANCH   2   3
BRANCH   1  17
ATOM     17  C   UNL     1      80.471  63.955  74.209  1.00  0.00     0.027 C 
BRANCH  17  18
ATOM     18  C   UNL     1      81.828  64.310  74.826  1.00  0.00     0.004 C 
BRANCH  18  19
ATOM     19  C   UNL     1      81.721  64.972  76.203  1.00  0.00     0.000 C 
BRANCH  19  20
ATOM     20  C   UNL     1      81.669  66.496  76.080  1.00  0.00    -0.003 C 
ATOM     21  C   UNL     1      83.007  67.129  76.430  1.00  0.00     0.004 C 
ENDBRANCH  19  20
ENDBRANCH  18  19
ENDBRANCH  17  18
ENDBRANCH   1  17
TORSDOF 10
ENDMDL
MODEL 5
REMARK VINA RESULT:    -5.660     27.313     29.094
REMARK INTER + INTRA:          -9.740
REMARK INTER:                  -8.791
REMARK INTRA:                  -0.949
REMARK UNBOUND:                -0.937
REMARK SMILES CCCCC/C=C/C(=O)CCc1ccc(O)c(OC)c1
REMARK SMILES IDX 6 1 7 2 8 3 9 4 10 5 11 6 12 7 17 8 20 9 15 10 14 11 13 12
REMARK SMILES IDX 18 13 19 14 16 15 5 17 4 18 3 19 2 20 1 21
REMARK H PARENT 16 16
REMARK Flexibility Score: inf
ROOT
ATOM      1  C   UNL     1      85.225  65.586  77.059  1.00  0.00    -0.023 C 
ATOM      2  C   UNL     1      84.188  64.797  77.364  1.00  0.00     0.043 C 
ENDROOT
BRANCH   2   3
ATOM      3  C   UNL     1      83.166  64.483  76.329  1.00  0.00     0.155 C 
ATOM      4  O   UNL     1      83.452  63.882  75.295  1.00  0.00    -0.295 OA
BRANCH   3   5
ATOM      5  C   UNL     1      81.761  64.989  76.591  1.00  0.00     0.085 C 
BRANCH   5   6
ATOM      6  C   UNL     1      81.538  66.363  75.957  1.00  0.00     0.044 C 
BRANCH   6   7
ATOM      7  C   UNL     1      81.123  66.281  74.508  1.00  0.00    -0.044 A 
ATOM      8  C   UNL     1      81.182  67.170  72.279  1.00  0.00     0.160 A 
ATOM      9  C   UNL     1      81.566  67.247  73.618  1.00  0.00     0.054 A 
ATOM     10  C   UNL     1      80.361  66.129  71.847  1.00  0.00     0.157 A 
ATOM     11  C   UNL     1      79.922  65.164  72.755  1.00  0.00     0.050 A 
ATOM     12  C   UNL     1      80.306  65.241  74.094  1.00  0.00     0.008 A 
BRANCH   8  13
ATOM     13  O   UNL     1      81.617  68.118  71.403  1.00  0.00    -0.493 OA
ATOM     14  C   UNL     1      82.985  68.054  71.004  1.00  0.00     0.278 C 
ENDBRANCH   8  13
BRANCH  10  15
ATOM     15  O   UNL     1      79.979  66.043  70.543  1.00  0.00    -0.504 OA
ATOM     16  H   UNL     1      80.715  66.357  69.988  1.00  0.00     0.293 HD
ENDBRANCH  10  15
ENDBRANCH   6   7
ENDBRANCH   5   6
ENDBRANCH   3   5
ENDBRANCH   2   3
BRANCH   1  17
ATOM     17  C   UNL     1      86.297  65.950  78.045  1.00  0.00     0.027 C 
BRANCH  17  18
ATOM     18  C   UNL     1      86.474  64.907  79.154  1.00  0.00     0.004 C 
BRANCH  18  19
ATOM     19  C   UNL     1      86.221  65.458  80.561  1.00  0.00     0.000 C 
BRANCH  19  20
ATOM     20  C   UNL     1      85.531  64.418  81.445  1.00  0.00    -0.003 C 
ATOM     21  C   UNL     1      85.045  63.230  80.631  1.00  0.00     0.004 C 
ENDBRANCH  19  20
ENDBRANCH  18  19
ENDBRANCH  17  18
ENDBRANCH   1  17
TORSDOF 10
ENDMDL
MODEL 6
REMARK VINA RESULT:    -5.646     16.710     19.037
REMARK INTER + INTRA:          -9.718
REMARK INTER:                  -9.001
REMARK INTRA:                  -0.717
REMARK UNBOUND:                -0.937
REMARK SMILES CCCCC/C=C/C(=O)CCc1ccc(O)c(OC)c1
REMARK SMILES IDX 6 1 7 2 8 3 9 4 10 5 11 6 12 7 17 8 20 9 15 10 14 11 13 12
REMARK SMILES IDX 18 13 19 14 16 15 5 17 4 18 3 19 2 20 1 21
REMARK H PARENT 16 16
REMARK Flexibility Score: inf
ROOT
ATOM      1  C   UNL     1      77.289  93.223  64.846  1.00  0.00    -0.023 C 
ATOM      2  C   UNL     1      77.181  91.982  64.356  1.00  0.00     0.043 C 
ENDROOT
BRANCH   2   3
ATOM      3  C   UNL     1      75.969  91.170  64.653  1.00  0.00     0.155 C 
ATOM      4  O   UNL     1      74.835  91.623  64.515  1.00  0.00    -0.295 OA
BRANCH   3   5
ATOM      5  C   UNL     1      76.207  89.770  65.185  1.00  0.00     0.085 C 
BRANCH   5   6
ATOM      6  C   UNL     1      77.626  89.291  64.875  1.00  0.00     0.044 C 
BRANCH   6   7
ATOM      7  C   UNL     1      77.842  87.836  65.215  1.00  0.00    -0.044 A 
ATOM      8  C   UNL     1      77.886  85.533  64.541  1.00  0.00     0.160 A 
ATOM      9  C   UNL     1      77.685  86.877  64.227  1.00  0.00     0.054 A 
ATOM     10  C   UNL     1      78.239  85.165  65.839  1.00  0.00     0.157 A 
ATOM     11  C   UNL     1      78.393  86.142  66.823  1.00  0.00     0.050 A 
ATOM     12  C   UNL     1      78.193  87.486  66.509  1.00  0.00     0.008 A 
BRANCH   8  13
ATOM     13  O   UNL     1      77.732  84.588  63.571  1.00  0.00    -0.493 OA
ATOM     14  C   UNL     1      76.402  84.155  63.292  1.00  0.00     0.278 C 
ENDBRANCH   8  13
BRANCH  10  15
ATOM     15  O   UNL     1      78.438  83.856  66.158  1.00  0.00    -0.504 OA
ATOM     16  H   UNL     1      79.263  83.560  65.736  1.00  0.00     0.293 HD
ENDBRANCH  10  15
ENDBRANCH   6   7
ENDBRANCH   5   6
ENDBRANCH   3   5
ENDBRANCH   2   3
BRANCH   1  17
ATOM     17  C   UNL     1      78.477  94.104  64.593  1.00  0.00     0.027 C 
BRANCH  17  18
ATOM     18  C   UNL     1      78.510  95.343  65.494  1.00  0.00     0.004 C 
BRANCH  18  19
ATOM     19  C   UNL     1      79.732  95.398  66.417  1.00  0.00     0.000 C 
BRANCH  19  20
ATOM     20  C   UNL     1      79.315  95.628  67.871  1.00  0.00    -0.003 C 
ATOM     21  C   UNL     1      77.860  95.250  68.100  1.00  0.00     0.004 C 
ENDBRANCH  19  20
ENDBRANCH  18  19
ENDBRANCH  17  18
ENDBRANCH   1  17
TORSDOF 10
ENDMDL
MODEL 7
REMARK VINA RESULT:    -5.573     12.250     13.731
REMARK INTER + INTRA:          -9.605
REMARK INTER:                  -8.165
REMARK INTRA:                  -1.440
REMARK UNBOUND:                -0.937
REMARK SMILES CCCCC/C=C/C(=O)CCc1ccc(O)c(OC)c1
REMARK SMILES IDX 6 1 7 2 8 3 9 4 10 5 11 6 12 7 17 8 20 9 15 10 14 11 13 12
REMARK SMILES IDX 18 13 19 14 16 15 5 17 4 18 3 19 2 20 1 21
REMARK H PARENT 16 16
REMARK Flexibility Score: inf
ROOT
ATOM      1  C   UNL     1      99.732  82.336  77.052  1.00  0.00    -0.023 C 
ATOM      2  C   UNL     1      98.716  81.877  76.310  1.00  0.00     0.043 C 
ENDROOT
BRANCH   2   3
ATOM      3  C   UNL     1      97.395  82.559  76.360  1.00  0.00     0.155 C 
ATOM      4  O   UNL     1      96.658  82.619  75.378  1.00  0.00    -0.295 OA
BRANCH   3   5
ATOM      5  C   UNL     1      97.025  83.223  77.672  1.00  0.00     0.085 C 
BRANCH   5   6
ATOM      6  C   UNL     1      96.310  82.247  78.607  1.00  0.00     0.044 C 
BRANCH   6   7
ATOM      7  C   UNL     1      97.088  81.968  79.872  1.00  0.00    -0.044 A 
ATOM      8  C   UNL     1      97.753  82.619  82.084  1.00  0.00     0.160 A 
ATOM      9  C   UNL     1      97.035  82.877  80.916  1.00  0.00     0.054 A 
ATOM     10  C   UNL     1      98.515  81.456  82.192  1.00  0.00     0.157 A 
ATOM     11  C   UNL     1      98.559  80.550  81.131  1.00  0.00     0.050 A 
ATOM     12  C   UNL     1      97.841  80.808  79.963  1.00  0.00     0.008 A 
BRANCH   8  13
ATOM     13  O   UNL     1      97.702  83.511  83.112  1.00  0.00    -0.493 OA
ATOM     14  C   UNL     1      96.507  83.536  83.891  1.00  0.00     0.278 C 
ENDBRANCH   8  13
BRANCH  10  15
ATOM     15  O   UNL     1      99.220  81.193  83.327  1.00  0.00    -0.504 OA
ATOM     16  H   UNL     1      99.644  80.323  83.228  1.00  0.00     0.293 HD
ENDBRANCH  10  15
ENDBRANCH   6   7
ENDBRANCH   5   6
ENDBRANCH   3   5
ENDBRANCH   2   3
BRANCH   1  17
ATOM     17  C   UNL     1     101.094  81.705  77.058  1.00  0.00     0.027 C 
BRANCH  17  18
ATOM     18  C   UNL     1     101.358  80.856  78.306  1.00  0.00     0.004 C 
BRANCH  18  19
ATOM     19  C   UNL     1     102.838  80.520  78.518  1.00  0.00     0.000 C 
BRANCH  19  20
ATOM     20  C   UNL     1     103.114  80.137  79.972  1.00  0.00    -0.003 C 
ATOM     21  C   UNL     1     102.124  80.795  80.920  1.00  0.00     0.004 C 
ENDBRANCH  19  20
ENDBRANCH  18  19
ENDBRANCH  17  18
ENDBRANCH   1  17
TORSDOF 10
ENDMDL
MODEL 8
REMARK VINA RESULT:    -5.478     18.713     20.752
REMARK INTER + INTRA:          -9.457
REMARK INTER:                  -7.881
REMARK INTRA:                  -1.576
REMARK UNBOUND:                -0.937
REMARK SMILES CCCCC/C=C/C(=O)CCc1ccc(O)c(OC)c1
REMARK SMILES IDX 6 1 7 2 8 3 9 4 10 5 11 6 12 7 17 8 20 9 15 10 14 11 13 12
REMARK SMILES IDX 18 13 19 14 16 15 5 17 4 18 3 19 2 20 1 21
REMARK H PARENT 16 16
REMARK Flexibility Score: inf
ROOT
ATOM      1  C   UNL     1      75.104  88.340  67.363  1.00  0.00    -0.023 C 
ATOM      2  C   UNL     1      74.499  88.002  68.509  1.00  0.00     0.043 C 
ENDROOT
BRANCH   2   3
ATOM      3  C   UNL     1      73.152  87.372  68.480  1.00  0.00     0.155 C 
ATOM      4  O   UNL     1      72.121  88.039  68.542  1.00  0.00    -0.295 OA
BRANCH   3   5
ATOM      5  C   UNL     1      73.116  85.857  68.423  1.00  0.00     0.085 C 
BRANCH   5   6
ATOM      6  C   UNL     1      73.364  85.348  67.002  1.00  0.00     0.044 C 
BRANCH   6   7
ATOM      7  C   UNL     1      74.776  84.854  66.793  1.00  0.00    -0.044 A 
ATOM      8  C   UNL     1      76.533  84.161  65.314  1.00  0.00     0.160 A 
ATOM      9  C   UNL     1      75.229  84.617  65.506  1.00  0.00     0.054 A 
ATOM     10  C   UNL     1      77.367  83.948  66.411  1.00  0.00     0.157 A 
ATOM     11  C   UNL     1      76.896  84.191  67.702  1.00  0.00     0.050 A 
ATOM     12  C   UNL     1      75.591  84.647  67.894  1.00  0.00     0.008 A 
BRANCH   8  13
ATOM     13  O   UNL     1      76.981  83.927  64.048  1.00  0.00    -0.493 OA
ATOM     14  C   UNL     1      77.414  85.057  63.294  1.00  0.00     0.278 C 
ENDBRANCH   8  13
BRANCH  10  15
ATOM     15  O   UNL     1      78.642  83.503  66.236  1.00  0.00    -0.504 OA
ATOM     16  H   UNL     1      79.121  83.611  67.076  1.00  0.00     0.293 HD
ENDBRANCH  10  15
ENDBRANCH   6   7
ENDBRANCH   5   6
ENDBRANCH   3   5
ENDBRANCH   2   3
BRANCH   1  17
ATOM     17  C   UNL     1      76.460  88.979  67.308  1.00  0.00     0.027 C 
BRANCH  17  18
ATOM     18  C   UNL     1      77.596  87.967  67.124  1.00  0.00     0.004 C 
BRANCH  18  19
ATOM     19  C   UNL     1      78.177  87.948  65.707  1.00  0.00     0.000 C 
BRANCH  19  20
ATOM     20  C   UNL     1      77.734  89.177  64.912  1.00  0.00    -0.003 C 
ATOM     21  C   UNL     1      77.390  88.817  63.475  1.00  0.00     0.004 C 
ENDBRANCH  19  20
ENDBRANCH  18  19
ENDBRANCH  17  18
ENDBRANCH   1  17
TORSDOF 10
ENDMDL
MODEL 9
REMARK VINA RESULT:    -5.446     12.592     15.488
REMARK INTER + INTRA:          -9.408
REMARK INTER:                  -8.220
REMARK INTRA:                  -1.188
REMARK UNBOUND:                -0.937
REMARK SMILES CCCCC/C=C/C(=O)CCc1ccc(O)c(OC)c1
REMARK SMILES IDX 6 1 7 2 8 3 9 4 10 5 11 6 12 7 17 8 20 9 15 10 14 11 13 12
REMARK SMILES IDX 18 13 19 14 16 15 5 17 4 18 3 19 2 20 1 21
REMARK H PARENT 16 16
REMARK Flexibility Score: inf
ROOT
ATOM      1  C   UNL     1      83.093  90.118  89.242  1.00  0.00    -0.023 C 
ATOM      2  C   UNL     1      81.777  90.363  89.286  1.00  0.00     0.043 C 
ENDROOT
BRANCH   2   3
ATOM      3  C   UNL     1      80.900  89.546  90.168  1.00  0.00     0.155 C 
ATOM      4  O   UNL     1      80.856  89.722  91.383  1.00  0.00    -0.295 OA
BRANCH   3   5
ATOM      5  C   UNL     1      80.100  88.448  89.494  1.00  0.00     0.085 C 
BRANCH   5   6
ATOM      6  C   UNL     1      79.874  88.753  88.013  1.00  0.00     0.044 C 
BRANCH   6   7
ATOM      7  C   UNL     1      80.491  87.721  87.099  1.00  0.00    -0.044 A 
ATOM      8  C   UNL     1      81.162  87.034  84.900  1.00  0.00     0.160 A 
ATOM      9  C   UNL     1      80.591  87.988  85.743  1.00  0.00     0.054 A 
ATOM     10  C   UNL     1      81.625  85.828  85.423  1.00  0.00     0.157 A 
ATOM     11  C   UNL     1      81.518  85.574  86.791  1.00  0.00     0.050 A 
ATOM     12  C   UNL     1      80.947  86.528  87.634  1.00  0.00     0.008 A 
BRANCH   8  13
ATOM     13  O   UNL     1      81.260  87.294  83.566  1.00  0.00    -0.493 OA
ATOM     14  C   UNL     1      80.136  86.959  82.755  1.00  0.00     0.278 C 
ENDBRANCH   8  13
BRANCH  10  15
ATOM     15  O   UNL     1      82.185  84.889  84.610  1.00  0.00    -0.504 OA
ATOM     16  H   UNL     1      83.055  84.650  84.973  1.00  0.00     0.293 HD
ENDBRANCH  10  15
ENDBRANCH   6   7
ENDBRANCH   5   6
ENDBRANCH   3   5
ENDBRANCH   2   3
BRANCH   1  17
ATOM     17  C   UNL     1      84.044  90.896  88.380  1.00  0.00     0.027 C 
BRANCH  17  18
ATOM     18  C   UNL     1      84.518  90.115  87.151  1.00  0.00     0.004 C 
BRANCH  18  19
ATOM     19  C   UNL     1      85.526  90.880  86.288  1.00  0.00     0.000 C 
BRANCH  19  20
ATOM     20  C   UNL     1      85.229  90.698  84.799  1.00  0.00    -0.003 C 
ATOM     21  C   UNL     1      83.795  90.246  84.568  1.00  0.00     0.004 C 
ENDBRANCH  19  20
ENDBRANCH  18  19
ENDBRANCH  17  18
ENDBRANCH   1  17
TORSDOF 10
ENDMDL
MODEL 10
REMARK VINA RESULT:    -5.267     26.740     29.197
REMARK INTER + INTRA:          -9.129
REMARK INTER:                  -8.499
REMARK INTRA:                  -0.630
REMARK UNBOUND:                -0.937
REMARK SMILES CCCCC/C=C/C(=O)CCc1ccc(O)c(OC)c1
REMARK SMILES IDX 6 1 7 2 8 3 9 4 10 5 11 6 12 7 17 8 20 9 15 10 14 11 13 12
REMARK SMILES IDX 18 13 19 14 16 15 5 17 4 18 3 19 2 20 1 21
REMARK H PARENT 16 16
REMARK Flexibility Score: inf
ROOT
ATOM      1  C   UNL     1      63.703  84.260  76.057  1.00  0.00    -0.023 C 
ATOM      2  C   UNL     1      64.800  84.996  75.835  1.00  0.00     0.043 C 
ENDROOT
BRANCH   2   3
ATOM      3  C   UNL     1      65.008  86.262  76.589  1.00  0.00     0.155 C 
ATOM      4  O   UNL     1      65.328  87.307  76.027  1.00  0.00    -0.295 OA
BRANCH   3   5
ATOM      5  C   UNL     1      64.858  86.184  78.096  1.00  0.00     0.085 C 
BRANCH   5   6
ATOM      6  C   UNL     1      66.168  86.534  78.804  1.00  0.00     0.044 C 
BRANCH   6   7
ATOM      7  C   UNL     1      66.284  85.901  80.170  1.00  0.00    -0.044 A 
ATOM      8  C   UNL     1      65.409  85.556  82.378  1.00  0.00     0.160 A 
ATOM      9  C   UNL     1      65.301  86.141  81.116  1.00  0.00     0.054 A 
ATOM     10  C   UNL     1      66.498  84.739  82.677  1.00  0.00     0.157 A 
ATOM     11  C   UNL     1      67.481  84.507  81.714  1.00  0.00     0.050 A 
ATOM     12  C   UNL     1      67.373  85.092  80.453  1.00  0.00     0.008 A 
BRANCH   8  13
ATOM     13  O   UNL     1      64.442  85.790  83.309  1.00  0.00    -0.493 OA
ATOM     14  C   UNL     1      63.368  86.647  82.928  1.00  0.00     0.278 C 
ENDBRANCH   8  13
BRANCH  10  15
ATOM     15  O   UNL     1      66.615  84.162  83.905  1.00  0.00    -0.504 OA
ATOM     16  H   UNL     1      65.726  84.085  84.292  1.00  0.00     0.293 HD
ENDBRANCH  10  15
ENDBRANCH   6   7
ENDBRANCH   5   6
ENDBRANCH   3   5
ENDBRANCH   2   3
BRANCH   1  17
ATOM     17  C   UNL     1      63.420  82.973  75.339  1.00  0.00     0.027 C 
BRANCH  17  18
ATOM     18  C   UNL     1      64.400  81.853  75.701  1.00  0.00     0.004 C 
BRANCH  18  19
ATOM     19  C   UNL     1      64.595  80.822  74.584  1.00  0.00     0.000 C 
BRANCH  19  20
ATOM     20  C   UNL     1      63.325  80.671  73.745  1.00  0.00    -0.003 C 
ATOM     21  C   UNL     1      63.562  81.074  72.299  1.00  0.00     0.004 C 
ENDBRANCH  19  20
ENDBRANCH  18  19
ENDBRANCH  17  18
ENDBRANCH   1  17
TORSDOF 10
ENDMDL
