MODEL 1
REMARK VINA RESULT:    -6.990      0.000      0.000
REMARK INTER + INTRA:         -12.077
REMARK INTER:                 -11.280
REMARK INTRA:                  -0.797
REMARK UNBOUND:                -0.797
REMARK SMILES COc1cc(CNC(=O)CCCCC/C=C/C(C)C)ccc1O
REMARK SMILES IDX 11 1 10 2 8 3 7 4 9 6 6 7 5 8 3 9 22 10 4 11 21 12 20 13
REMARK SMILES IDX 2 14 1 15 23 16 12 18 13 19 14 20 15 21 16 22 17 23 18 24
REMARK SMILES IDX 19 25
REMARK H PARENT 7 5 23 17
REMARK Flexibility Score: inf
ROOT
ATOM      1  C   UNL     1      91.827  95.089  77.247  1.00  0.00     0.010 C 
ENDROOT
BRANCH   1   2
ATOM      2  C   UNL     1      92.640  96.409  77.191  1.00  0.00     0.100 C 
BRANCH   2   3
ATOM      3  C   UNL     1      94.023  96.283  77.688  1.00  0.00     0.220 C 
ATOM      4  N   UNL     1      94.925  97.272  77.440  1.00  0.00    -0.352 N 
ATOM      5  H   UNL     1      94.583  98.016  76.847  1.00  0.00     0.163 HD
ATOM      6  O   UNL     1      94.322  95.273  78.369  1.00  0.00    -0.275 OA
BRANCH   4   7
ATOM      7  C   UNL     1      96.260  97.323  77.941  1.00  0.00     0.151 C 
BRANCH   7   8
ATOM      8  C   UNL     1      96.317  97.696  79.378  1.00  0.00    -0.025 A 
ATOM      9  C   UNL     1      97.026  97.215  81.684  1.00  0.00     0.160 A 
ATOM     10  C   UNL     1      96.377  98.388  82.127  1.00  0.00     0.157 A 
ATOM     11  C   UNL     1      96.984  96.874  80.316  1.00  0.00     0.056 A 
ATOM     12  C   UNL     1      95.725  99.222  81.200  1.00  0.00     0.050 A 
ATOM     13  C   UNL     1      95.704  98.884  79.834  1.00  0.00     0.009 A 
BRANCH   9  14
ATOM     14  O   UNL     1      97.738  96.443  82.563  1.00  0.00    -0.493 OA
ATOM     15  C   UNL     1      98.840  95.737  81.968  1.00  0.00     0.278 C 
ENDBRANCH   9  14
BRANCH  10  16
ATOM     16  O   UNL     1      96.370  98.737  83.438  1.00  0.00    -0.504 OA
ATOM     17  H   UNL     1      97.202  99.161  83.660  1.00  0.00     0.293 HD
ENDBRANCH  10  16
ENDBRANCH   7   8
ENDBRANCH   4   7
ENDBRANCH   2   3
ENDBRANCH   1   2
BRANCH   1  18
ATOM     18  C   UNL     1      90.544  95.186  76.382  1.00  0.00     0.001 C 
BRANCH  18  19
ATOM     19  C   UNL     1      89.409  94.238  76.843  1.00  0.00     0.004 C 
BRANCH  19  20
ATOM     20  C   UNL     1      89.973  92.874  77.332  1.00  0.00     0.027 C 
BRANCH  20  21
ATOM     21  C   UNL     1      89.629  91.756  76.470  1.00  0.00    -0.031 C 
ATOM     22  C   UNL     1      90.121  91.632  75.225  1.00  0.00    -0.028 C 
BRANCH  22  23
ATOM     23  C   UNL     1      89.800  90.518  74.336  1.00  0.00     0.005 C 
ATOM     24  C   UNL     1      89.987  89.167  75.076  1.00  0.00     0.012 C 
ATOM     25  C   UNL     1      88.365  90.684  73.765  1.00  0.00     0.012 C 
ENDBRANCH  22  23
ENDBRANCH  20  21
ENDBRANCH  19  20
ENDBRANCH  18  19
ENDBRANCH   1  18
TORSDOF 11
ENDMDL
MODEL 2
REMARK VINA RESULT:    -6.776      1.689      2.180
REMARK INTER + INTRA:         -11.733
REMARK INTER:                 -11.027
REMARK INTRA:                  -0.705
REMARK UNBOUND:                -0.797
REMARK SMILES COc1cc(CNC(=O)CCCCC/C=C/C(C)C)ccc1O
REMARK SMILES IDX 11 1 10 2 8 3 7 4 9 6 6 7 5 8 3 9 22 10 4 11 21 12 20 13
REMARK SMILES IDX 2 14 1 15 23 16 12 18 13 19 14 20 15 21 16 22 17 23 18 24
REMARK SMILES IDX 19 25
REMARK H PARENT 7 5 23 17
REMARK Flexibility Score: inf
ROOT
ATOM      1  C   UNL     1      92.052  95.320  75.349  1.00  0.00     0.010 C 
ENDROOT
BRANCH   1   2
ATOM      2  C   UNL     1      93.598  95.255  75.243  1.00  0.00     0.100 C 
BRANCH   2   3
ATOM      3  C   UNL     1      94.300  96.211  76.119  1.00  0.00     0.220 C 
ATOM      4  N   UNL     1      95.044  95.753  77.164  1.00  0.00    -0.352 N 
ATOM      5  H   UNL     1      94.997  94.753  77.308  1.00  0.00     0.163 HD
ATOM      6  O   UNL     1      94.225  97.433  75.849  1.00  0.00    -0.275 OA
BRANCH   4   7
ATOM      7  C   UNL     1      95.848  96.557  78.025  1.00  0.00     0.151 C 
BRANCH   7   8
ATOM      8  C   UNL     1      95.956  95.995  79.397  1.00  0.00    -0.025 A 
ATOM      9  C   UNL     1      96.975  96.003  81.635  1.00  0.00     0.160 A 
ATOM     10  C   UNL     1      96.195  94.883  81.993  1.00  0.00     0.157 A 
ATOM     11  C   UNL     1      96.857  96.544  80.338  1.00  0.00     0.056 A 
ATOM     12  C   UNL     1      95.283  94.338  81.071  1.00  0.00     0.050 A 
ATOM     13  C   UNL     1      95.156  94.897  79.785  1.00  0.00     0.009 A 
BRANCH   9  14
ATOM     14  O   UNL     1      97.801  96.595  82.553  1.00  0.00    -0.493 OA
ATOM     15  C   UNL     1      99.088  96.967  82.033  1.00  0.00     0.278 C 
ENDBRANCH   9  14
BRANCH  10  16
ATOM     16  O   UNL     1      96.300  94.314  83.221  1.00  0.00    -0.504 OA
ATOM     17  H   UNL     1      97.170  93.920  83.317  1.00  0.00     0.293 HD
ENDBRANCH  10  16
ENDBRANCH   7   8
ENDBRANCH   4   7
ENDBRANCH   2   3
ENDBRANCH   1   2
BRANCH   1  18
ATOM     18  C   UNL     1      91.588  95.226  76.825  1.00  0.00     0.001 C 
BRANCH  18  19
ATOM     19  C   UNL     1      90.105  94.810  76.987  1.00  0.00     0.004 C 
BRANCH  19  20
ATOM     20  C   UNL     1      89.967  93.277  77.209  1.00  0.00     0.027 C 
BRANCH  20  21
ATOM     21  C   UNL     1      90.076  92.497  75.988  1.00  0.00    -0.031 C 
ATOM     22  C   UNL     1      89.650  91.224  75.908  1.00  0.00    -0.028 C 
BRANCH  22  23
ATOM     23  C   UNL     1      89.740  90.415  74.695  1.00  0.00     0.005 C 
ATOM     24  C   UNL     1      89.964  88.924  75.059  1.00  0.00     0.012 C 
ATOM     25  C   UNL     1      88.478  90.625  73.816  1.00  0.00     0.012 C 
ENDBRANCH  22  23
ENDBRANCH  20  21
ENDBRANCH  19  20
ENDBRANCH  18  19
ENDBRANCH   1  18
TORSDOF 11
ENDMDL
MODEL 3
REMARK VINA RESULT:    -6.383      3.906      5.894
REMARK INTER + INTRA:         -11.098
REMARK INTER:                 -10.375
REMARK INTRA:                  -0.722
REMARK UNBOUND:                -0.797
REMARK SMILES COc1cc(CNC(=O)CCCCC/C=C/C(C)C)ccc1O
REMARK SMILES IDX 11 1 10 2 8 3 7 4 9 6 6 7 5 8 3 9 22 10 4 11 21 12 20 13
REMARK SMILES IDX 2 14 1 15 23 16 12 18 13 19 14 20 15 21 16 22 17 23 18 24
REMARK SMILES IDX 19 25
REMARK H PARENT 7 5 23 17
REMARK Flexibility Score: inf
ROOT
ATOM      1  C   UNL     1      91.983  95.188  77.878  1.00  0.00     0.010 C 
ENDROOT
BRANCH   1   2
ATOM      2  C   UNL     1      93.357  94.693  77.358  1.00  0.00     0.100 C 
BRANCH   2   3
ATOM      3  C   UNL     1      94.348  95.768  77.163  1.00  0.00     0.220 C 
ATOM      4  N   UNL     1      94.293  96.546  76.046  1.00  0.00    -0.352 N 
ATOM      5  H   UNL     1      93.591  96.269  75.374  1.00  0.00     0.163 HD
ATOM      6  O   UNL     1      95.199  95.964  78.062  1.00  0.00    -0.275 OA
BRANCH   4   7
ATOM      7  C   UNL     1      95.124  97.675  75.781  1.00  0.00     0.151 C 
BRANCH   7   8
ATOM      8  C   UNL     1      95.695  97.655  74.409  1.00  0.00    -0.025 A 
ATOM      9  C   UNL     1      97.496  98.229  72.836  1.00  0.00     0.160 A 
ATOM     10  C   UNL     1      96.753  97.660  71.779  1.00  0.00     0.157 A 
ATOM     11  C   UNL     1      96.959  98.230  74.139  1.00  0.00     0.056 A 
ATOM     12  C   UNL     1      95.503  97.070  72.038  1.00  0.00     0.050 A 
ATOM     13  C   UNL     1      94.982  97.058  73.345  1.00  0.00     0.009 A 
BRANCH   9  14
ATOM     14  O   UNL     1      98.752  98.727  72.611  1.00  0.00    -0.493 OA
ATOM     15  C   UNL     1      99.020  99.970  73.280  1.00  0.00     0.278 C 
ENDBRANCH   9  14
BRANCH  10  16
ATOM     16  O   UNL     1      97.223  97.664  70.506  1.00  0.00    -0.504 OA
ATOM     17  H   UNL     1      98.112  98.026  70.494  1.00  0.00     0.293 HD
ENDBRANCH  10  16
ENDBRANCH   7   8
ENDBRANCH   4   7
ENDBRANCH   2   3
ENDBRANCH   1   2
BRANCH   1  18
ATOM     18  C   UNL     1      90.860  94.172  77.546  1.00  0.00     0.001 C 
BRANCH  18  19
ATOM     19  C   UNL     1      89.964  94.600  76.356  1.00  0.00     0.004 C 
BRANCH  19  20
ATOM     20  C   UNL     1      90.567  94.141  74.999  1.00  0.00     0.027 C 
BRANCH  20  21
ATOM     21  C   UNL     1      90.029  92.881  74.517  1.00  0.00    -0.031 C 
ATOM     22  C   UNL     1      90.148  91.735  75.212  1.00  0.00    -0.028 C 
BRANCH  22  23
ATOM     23  C   UNL     1      89.614  90.454  74.758  1.00  0.00     0.005 C 
ATOM     24  C   UNL     1      88.427  90.680  73.785  1.00  0.00     0.012 C 
ATOM     25  C   UNL     1      90.742  89.597  74.122  1.00  0.00     0.012 C 
ENDBRANCH  22  23
ENDBRANCH  20  21
ENDBRANCH  19  20
ENDBRANCH  18  19
ENDBRANCH   1  18
TORSDOF 11
ENDMDL
MODEL 4
REMARK VINA RESULT:    -6.203      3.490      5.677
REMARK INTER + INTRA:         -10.807
REMARK INTER:                  -9.735
REMARK INTRA:                  -1.073
REMARK UNBOUND:                -0.797
REMARK SMILES COc1cc(CNC(=O)CCCCC/C=C/C(C)C)ccc1O
REMARK SMILES IDX 11 1 10 2 8 3 7 4 9 6 6 7 5 8 3 9 22 10 4 11 21 12 20 13
REMARK SMILES IDX 2 14 1 15 23 16 12 18 13 19 14 20 15 21 16 22 17 23 18 24
REMARK SMILES IDX 19 25
REMARK H PARENT 7 5 23 17
REMARK Flexibility Score: inf
ROOT
ATOM      1  C   UNL     1      93.233  94.748  78.690  1.00  0.00     0.010 C 
ENDROOT
BRANCH   1   2
ATOM      2  C   UNL     1      94.733  95.046  78.946  1.00  0.00     0.100 C 
BRANCH   2   3
ATOM      3  C   UNL     1      95.153  96.400  78.540  1.00  0.00     0.220 C 
ATOM      4  N   UNL     1      95.816  96.580  77.364  1.00  0.00    -0.352 N 
ATOM      5  H   UNL     1      96.041  95.726  76.872  1.00  0.00     0.163 HD
ATOM      6  O   UNL     1      94.849  97.365  79.280  1.00  0.00    -0.275 OA
BRANCH   4   7
ATOM      7  C   UNL     1      96.192  97.839  76.808  1.00  0.00     0.151 C 
BRANCH   7   8
ATOM      8  C   UNL     1      95.537  98.106  75.501  1.00  0.00    -0.025 A 
ATOM      9  C   UNL     1      95.082  99.608  73.608  1.00  0.00     0.160 A 
ATOM     10  C   UNL     1      94.241  98.629  73.035  1.00  0.00     0.157 A 
ATOM     11  C   UNL     1      95.715  99.343  74.839  1.00  0.00     0.056 A 
ATOM     12  C   UNL     1      94.070  97.388  73.676  1.00  0.00     0.050 A 
ATOM     13  C   UNL     1      94.722  97.125  74.895  1.00  0.00     0.009 A 
BRANCH   9  14
ATOM     14  O   UNL     1      95.324 100.784  72.949  1.00  0.00    -0.493 OA
ATOM     15  C   UNL     1      96.654 101.297  73.132  1.00  0.00     0.278 C 
ENDBRANCH   9  14
BRANCH  10  16
ATOM     16  O   UNL     1      93.590  98.855  71.866  1.00  0.00    -0.504 OA
ATOM     17  H   UNL     1      93.966  98.299  71.179  1.00  0.00     0.293 HD
ENDBRANCH  10  16
ENDBRANCH   7   8
ENDBRANCH   4   7
ENDBRANCH   2   3
ENDBRANCH   1   2
BRANCH   1  18
ATOM     18  C   UNL     1      92.877  94.912  77.190  1.00  0.00     0.001 C 
BRANCH  18  19
ATOM     19  C   UNL     1      91.432  95.413  76.944  1.00  0.00     0.004 C 
BRANCH  19  20
ATOM     20  C   UNL     1      90.890  94.927  75.571  1.00  0.00     0.027 C 
BRANCH  20  21
ATOM     21  C   UNL     1      90.466  93.537  75.569  1.00  0.00    -0.031 C 
ATOM     22  C   UNL     1      90.090  92.902  74.445  1.00  0.00    -0.028 C 
BRANCH  22  23
ATOM     23  C   UNL     1      89.664  91.505  74.409  1.00  0.00     0.005 C 
ATOM     24  C   UNL     1      90.670  90.657  73.587  1.00  0.00     0.012 C 
ATOM     25  C   UNL     1      89.477  90.963  75.853  1.00  0.00     0.012 C 
ENDBRANCH  22  23
ENDBRANCH  20  21
ENDBRANCH  19  20
ENDBRANCH  18  19
ENDBRANCH   1  18
TORSDOF 11
ENDMDL
MODEL 5
REMARK VINA RESULT:    -6.027     13.088     15.994
REMARK INTER + INTRA:         -10.523
REMARK INTER:                  -9.671
REMARK INTRA:                  -0.852
REMARK UNBOUND:                -0.797
REMARK SMILES COc1cc(CNC(=O)CCCCC/C=C/C(C)C)ccc1O
REMARK SMILES IDX 11 1 10 2 8 3 7 4 9 6 6 7 5 8 3 9 22 10 4 11 21 12 20 13
REMARK SMILES IDX 2 14 1 15 23 16 12 18 13 19 14 20 15 21 16 22 17 23 18 24
REMARK SMILES IDX 19 25
REMARK H PARENT 7 5 23 17
REMARK Flexibility Score: inf
ROOT
ATOM      1  C   UNL     1      97.760  81.648  81.741  1.00  0.00     0.010 C 
ENDROOT
BRANCH   1   2
ATOM      2  C   UNL     1      96.676  82.719  82.028  1.00  0.00     0.100 C 
BRANCH   2   3
ATOM      3  C   UNL     1      96.040  82.589  83.353  1.00  0.00     0.220 C 
ATOM      4  N   UNL     1      94.808  83.126  83.569  1.00  0.00    -0.352 N 
ATOM      5  H   UNL     1      94.438  83.658  82.793  1.00  0.00     0.163 HD
ATOM      6  O   UNL     1      96.644  81.943  84.242  1.00  0.00    -0.275 OA
BRANCH   4   7
ATOM      7  C   UNL     1      94.042  82.990  84.765  1.00  0.00     0.151 C 
BRANCH   7   8
ATOM      8  C   UNL     1      93.077  81.862  84.702  1.00  0.00    -0.025 A 
ATOM      9  C   UNL     1      90.790  81.023  84.362  1.00  0.00     0.160 A 
ATOM     10  C   UNL     1      91.232  79.711  84.635  1.00  0.00     0.157 A 
ATOM     11  C   UNL     1      91.713  82.089  84.406  1.00  0.00     0.056 A 
ATOM     12  C   UNL     1      92.590  79.471  84.914  1.00  0.00     0.050 A 
ATOM     13  C   UNL     1      93.508  80.537  84.937  1.00  0.00     0.009 A 
BRANCH   9  14
ATOM     14  O   UNL     1      89.489  81.256  84.003  1.00  0.00    -0.493 OA
ATOM     15  C   UNL     1      88.843  82.286  84.770  1.00  0.00     0.278 C 
ENDBRANCH   9  14
BRANCH  10  16
ATOM     16  O   UNL     1      90.371  78.662  84.631  1.00  0.00    -0.504 OA
ATOM     17  H   UNL     1      90.432  78.195  85.468  1.00  0.00     0.293 HD
ENDBRANCH  10  16
ENDBRANCH   7   8
ENDBRANCH   4   7
ENDBRANCH   2   3
ENDBRANCH   1   2
BRANCH   1  18
ATOM     18  C   UNL     1      97.457  80.884  80.426  1.00  0.00     0.001 C 
BRANCH  18  19
ATOM     19  C   UNL     1      98.690  80.161  79.827  1.00  0.00     0.004 C 
BRANCH  19  20
ATOM     20  C   UNL     1      99.398  81.039  78.758  1.00  0.00     0.027 C 
BRANCH  20  21
ATOM     21  C   UNL     1      98.749  82.319  78.530  1.00  0.00    -0.031 C 
ATOM     22  C   UNL     1      98.114  82.608  77.380  1.00  0.00    -0.028 C 
BRANCH  22  23
ATOM     23  C   UNL     1      97.447  83.882  77.122  1.00  0.00     0.005 C 
ATOM     24  C   UNL     1      97.256  84.089  75.596  1.00  0.00     0.012 C 
ATOM     25  C   UNL     1      96.105  83.953  77.899  1.00  0.00     0.012 C 
ENDBRANCH  22  23
ENDBRANCH  20  21
ENDBRANCH  19  20
ENDBRANCH  18  19
ENDBRANCH   1  18
TORSDOF 11
ENDMDL
MODEL 6
REMARK VINA RESULT:    -6.020      3.405      6.397
REMARK INTER + INTRA:         -10.512
REMARK INTER:                  -9.594
REMARK INTRA:                  -0.917
REMARK UNBOUND:                -0.797
REMARK SMILES COc1cc(CNC(=O)CCCCC/C=C/C(C)C)ccc1O
REMARK SMILES IDX 11 1 10 2 8 3 7 4 9 6 6 7 5 8 3 9 22 10 4 11 21 12 20 13
REMARK SMILES IDX 2 14 1 15 23 16 12 18 13 19 14 20 15 21 16 22 17 23 18 24
REMARK SMILES IDX 19 25
REMARK H PARENT 7 5 23 17
REMARK Flexibility Score: inf
ROOT
ATOM      1  C   UNL     1      95.849  96.724  79.441  1.00  0.00     0.010 C 
ENDROOT
BRANCH   1   2
ATOM      2  C   UNL     1      97.396  96.820  79.478  1.00  0.00     0.100 C 
BRANCH   2   3
ATOM      3  C   UNL     1      97.978  97.559  78.342  1.00  0.00     0.220 C 
ATOM      4  N   UNL     1      97.180  97.966  77.317  1.00  0.00    -0.352 N 
ATOM      5  H   UNL     1      96.221  97.655  77.381  1.00  0.00     0.163 HD
ATOM      6  O   UNL     1      99.202  97.830  78.373  1.00  0.00    -0.275 OA
BRANCH   4   7
ATOM      7  C   UNL     1      97.594  98.767  76.211  1.00  0.00     0.151 C 
BRANCH   7   8
ATOM      8  C   UNL     1      97.052  98.279  74.917  1.00  0.00    -0.025 A 
ATOM      9  C   UNL     1      95.226  97.283  73.604  1.00  0.00     0.160 A 
ATOM     10  C   UNL     1      96.044  97.300  72.454  1.00  0.00     0.157 A 
ATOM     11  C   UNL     1      95.738  97.764  74.827  1.00  0.00     0.056 A 
ATOM     12  C   UNL     1      97.347  97.826  72.528  1.00  0.00     0.050 A 
ATOM     13  C   UNL     1      97.844  98.322  73.747  1.00  0.00     0.009 A 
BRANCH   9  14
ATOM     14  O   UNL     1      93.927  96.855  73.524  1.00  0.00    -0.493 OA
ATOM     15  C   UNL     1      93.602  95.790  74.434  1.00  0.00     0.278 C 
ENDBRANCH   9  14
BRANCH  10  16
ATOM     16  O   UNL     1      95.600  96.821  71.265  1.00  0.00    -0.504 OA
ATOM     17  H   UNL     1      95.732  97.484  70.584  1.00  0.00     0.293 HD
ENDBRANCH  10  16
ENDBRANCH   7   8
ENDBRANCH   4   7
ENDBRANCH   2   3
ENDBRANCH   1   2
BRANCH   1  18
ATOM     18  C   UNL     1      95.383  95.256  79.267  1.00  0.00     0.001 C 
BRANCH  18  19
ATOM     19  C   UNL     1      94.533  95.019  77.993  1.00  0.00     0.004 C 
BRANCH  19  20
ATOM     20  C   UNL     1      93.017  95.208  78.280  1.00  0.00     0.027 C 
BRANCH  20  21
ATOM     21  C   UNL     1      92.153  94.573  77.299  1.00  0.00    -0.031 C 
ATOM     22  C   UNL     1      90.826  94.449  77.483  1.00  0.00    -0.028 C 
BRANCH  22  23
ATOM     23  C   UNL     1      89.930  93.822  76.515  1.00  0.00     0.005 C 
ATOM     24  C   UNL     1      90.474  94.016  75.075  1.00  0.00     0.012 C 
ATOM     25  C   UNL     1      89.720  92.324  76.869  1.00  0.00     0.012 C 
ENDBRANCH  22  23
ENDBRANCH  20  21
ENDBRANCH  19  20
ENDBRANCH  18  19
ENDBRANCH   1  18
TORSDOF 11
ENDMDL
MODEL 7
REMARK VINA RESULT:    -6.011     14.668     17.646
REMARK INTER + INTRA:         -10.498
REMARK INTER:                  -9.389
REMARK INTRA:                  -1.109
REMARK UNBOUND:                -0.797
REMARK SMILES COc1cc(CNC(=O)CCCCC/C=C/C(C)C)ccc1O
REMARK SMILES IDX 11 1 10 2 8 3 7 4 9 6 6 7 5 8 3 9 22 10 4 11 21 12 20 13
REMARK SMILES IDX 2 14 1 15 23 16 12 18 13 19 14 20 15 21 16 22 17 23 18 24
REMARK SMILES IDX 19 25
REMARK H PARENT 7 5 23 17
REMARK Flexibility Score: inf
ROOT
ATOM      1  C   UNL     1      94.069  83.339  85.024  1.00  0.00     0.010 C 
ENDROOT
BRANCH   1   2
ATOM      2  C   UNL     1      92.792  82.861  85.764  1.00  0.00     0.100 C 
BRANCH   2   3
ATOM      3  C   UNL     1      92.015  81.848  85.025  1.00  0.00     0.220 C 
ATOM      4  N   UNL     1      90.839  81.390  85.538  1.00  0.00    -0.352 N 
ATOM      5  H   UNL     1      90.616  81.740  86.459  1.00  0.00     0.163 HD
ATOM      6  O   UNL     1      92.443  81.464  83.912  1.00  0.00    -0.275 OA
BRANCH   4   7
ATOM      7  C   UNL     1      89.946  80.489  84.886  1.00  0.00     0.151 C 
BRANCH   7   8
ATOM      8  C   UNL     1      88.754  81.174  84.321  1.00  0.00    -0.025 A 
ATOM      9  C   UNL     1      87.221  83.096  84.267  1.00  0.00     0.160 A 
ATOM     10  C   UNL     1      86.449  82.451  83.275  1.00  0.00     0.157 A 
ATOM     11  C   UNL     1      88.360  82.450  84.788  1.00  0.00     0.056 A 
ATOM     12  C   UNL     1      86.841  81.190  82.791  1.00  0.00     0.050 A 
ATOM     13  C   UNL     1      87.991  80.560  83.303  1.00  0.00     0.009 A 
BRANCH   9  14
ATOM     14  O   UNL     1      86.898  84.360  84.682  1.00  0.00    -0.493 OA
ATOM     15  C   UNL     1      86.278  84.414  85.977  1.00  0.00     0.278 C 
ENDBRANCH   9  14
BRANCH  10  16
ATOM     16  O   UNL     1      85.330  83.026  82.769  1.00  0.00    -0.504 OA
ATOM     17  H   UNL     1      85.550  83.496  81.960  1.00  0.00     0.293 HD
ENDBRANCH  10  16
ENDBRANCH   7   8
ENDBRANCH   4   7
ENDBRANCH   2   3
ENDBRANCH   1   2
BRANCH   1  18
ATOM     18  C   UNL     1      95.346  82.987  85.828  1.00  0.00     0.001 C 
BRANCH  18  19
ATOM     19  C   UNL     1      95.629  81.466  85.915  1.00  0.00     0.004 C 
BRANCH  19  20
ATOM     20  C   UNL     1      95.782  81.001  87.390  1.00  0.00     0.027 C 
BRANCH  20  21
ATOM     21  C   UNL     1      94.532  80.989  88.131  1.00  0.00    -0.031 C 
ATOM     22  C   UNL     1      94.318  81.788  89.191  1.00  0.00    -0.028 C 
BRANCH  22  23
ATOM     23  C   UNL     1      93.072  81.804  89.954  1.00  0.00     0.005 C 
ATOM     24  C   UNL     1      92.958  80.524  90.824  1.00  0.00     0.012 C 
ATOM     25  C   UNL     1      92.977  83.103  90.800  1.00  0.00     0.012 C 
ENDBRANCH  22  23
ENDBRANCH  20  21
ENDBRANCH  19  20
ENDBRANCH  18  19
ENDBRANCH   1  18
TORSDOF 11
ENDMDL
MODEL 8
REMARK VINA RESULT:    -5.970     12.717     15.638
REMARK INTER + INTRA:         -10.432
REMARK INTER:                  -9.577
REMARK INTRA:                  -0.855
REMARK UNBOUND:                -0.797
REMARK SMILES COc1cc(CNC(=O)CCCCC/C=C/C(C)C)ccc1O
REMARK SMILES IDX 11 1 10 2 8 3 7 4 9 6 6 7 5 8 3 9 22 10 4 11 21 12 20 13
REMARK SMILES IDX 2 14 1 15 23 16 12 18 13 19 14 20 15 21 16 22 17 23 18 24
REMARK SMILES IDX 19 25
REMARK H PARENT 7 5 23 17
REMARK Flexibility Score: inf
ROOT
ATOM      1  C   UNL     1      96.427  79.102  83.107  1.00  0.00     0.010 C 
ENDROOT
BRANCH   1   2
ATOM      2  C   UNL     1      96.343  80.518  82.480  1.00  0.00     0.100 C 
BRANCH   2   3
ATOM      3  C   UNL     1      97.351  80.772  81.435  1.00  0.00     0.220 C 
ATOM      4  N   UNL     1      97.489  82.024  80.916  1.00  0.00    -0.352 N 
ATOM      5  H   UNL     1      96.812  82.696  81.250  1.00  0.00     0.163 HD
ATOM      6  O   UNL     1      98.091  79.825  81.077  1.00  0.00    -0.275 OA
BRANCH   4   7
ATOM      7  C   UNL     1      98.483  82.427  79.975  1.00  0.00     0.151 C 
BRANCH   7   8
ATOM      8  C   UNL     1      97.898  83.011  78.740  1.00  0.00    -0.025 A 
ATOM      9  C   UNL     1      98.071  83.565  76.350  1.00  0.00     0.160 A 
ATOM     10  C   UNL     1      96.799  84.175  76.401  1.00  0.00     0.157 A 
ATOM     11  C   UNL     1      98.614  82.997  77.520  1.00  0.00     0.056 A 
ATOM     12  C   UNL     1      96.070  84.180  77.604  1.00  0.00     0.050 A 
ATOM     13  C   UNL     1      96.612  83.593  78.763  1.00  0.00     0.009 A 
BRANCH   9  14
ATOM     14  O   UNL     1      98.750  83.477  75.164  1.00  0.00    -0.493 OA
ATOM     15  C   UNL     1     100.033  82.836  75.267  1.00  0.00     0.278 C 
ENDBRANCH   9  14
BRANCH  10  16
ATOM     16  O   UNL     1      96.253  84.759  75.304  1.00  0.00    -0.504 OA
ATOM     17  H   UNL     1      96.816  85.479  75.012  1.00  0.00     0.293 HD
ENDBRANCH  10  16
ENDBRANCH   7   8
ENDBRANCH   4   7
ENDBRANCH   2   3
ENDBRANCH   1   2
BRANCH   1  18
ATOM     18  C   UNL     1      95.670  79.042  84.458  1.00  0.00     0.001 C 
BRANCH  18  19
ATOM     19  C   UNL     1      94.721  77.824  84.587  1.00  0.00     0.004 C 
BRANCH  19  20
ATOM     20  C   UNL     1      93.244  78.223  84.314  1.00  0.00     0.027 C 
BRANCH  20  21
ATOM     21  C   UNL     1      92.943  79.606  84.643  1.00  0.00    -0.031 C 
ATOM     22  C   UNL     1      91.686  80.086  84.650  1.00  0.00    -0.028 C 
BRANCH  22  23
ATOM     23  C   UNL     1      91.350  81.468  84.981  1.00  0.00     0.005 C 
ATOM     24  C   UNL     1      92.515  82.415  84.587  1.00  0.00     0.012 C 
ATOM     25  C   UNL     1      90.010  81.871  84.307  1.00  0.00     0.012 C 
ENDBRANCH  22  23
ENDBRANCH  20  21
ENDBRANCH  19  20
ENDBRANCH  18  19
ENDBRANCH   1  18
TORSDOF 11
ENDMDL
MODEL 9
REMARK VINA RESULT:    -5.839      5.798      8.287
REMARK INTER + INTRA:         -10.220
REMARK INTER:                  -9.334
REMARK INTRA:                  -0.886
REMARK UNBOUND:                -0.797
REMARK SMILES COc1cc(CNC(=O)CCCCC/C=C/C(C)C)ccc1O
REMARK SMILES IDX 11 1 10 2 8 3 7 4 9 6 6 7 5 8 3 9 22 10 4 11 21 12 20 13
REMARK SMILES IDX 2 14 1 15 23 16 12 18 13 19 14 20 15 21 16 22 17 23 18 24
REMARK SMILES IDX 19 25
REMARK H PARENT 7 5 23 17
REMARK Flexibility Score: inf
ROOT
ATOM      1  C   UNL     1      93.880  96.828  74.607  1.00  0.00     0.010 C 
ENDROOT
BRANCH   1   2
ATOM      2  C   UNL     1      94.895  97.027  73.451  1.00  0.00     0.100 C 
BRANCH   2   3
ATOM      3  C   UNL     1      94.616  98.201  72.603  1.00  0.00     0.220 C 
ATOM      4  N   UNL     1      94.397  99.416  73.177  1.00  0.00    -0.352 N 
ATOM      5  H   UNL     1      94.371  99.406  74.188  1.00  0.00     0.163 HD
ATOM      6  O   UNL     1      94.628  98.052  71.358  1.00  0.00    -0.275 OA
BRANCH   4   7
ATOM      7  C   UNL     1      94.213 100.644  72.475  1.00  0.00     0.151 C 
BRANCH   7   8
ATOM      8  C   UNL     1      92.872 101.241  72.708  1.00  0.00    -0.025 A 
ATOM      9  C   UNL     1      90.500 101.469  72.100  1.00  0.00     0.160 A 
ATOM     10  C   UNL     1      90.329 102.424  73.126  1.00  0.00     0.157 A 
ATOM     11  C   UNL     1      91.770 100.892  71.893  1.00  0.00     0.056 A 
ATOM     12  C   UNL     1      91.414 102.766  73.953  1.00  0.00     0.050 A 
ATOM     13  C   UNL     1      92.674 102.171  73.753  1.00  0.00     0.009 A 
BRANCH   9  14
ATOM     14  O   UNL     1      89.431 101.064  71.345  1.00  0.00    -0.493 OA
ATOM     15  C   UNL     1      89.712  99.956  70.474  1.00  0.00     0.278 C 
ENDBRANCH   9  14
BRANCH  10  16
ATOM     16  O   UNL     1      89.131 103.023  73.339  1.00  0.00    -0.504 OA
ATOM     17  H   UNL     1      89.147 103.476  74.185  1.00  0.00     0.293 HD
ENDBRANCH  10  16
ENDBRANCH   7   8
ENDBRANCH   4   7
ENDBRANCH   2   3
ENDBRANCH   1   2
BRANCH   1  18
ATOM     18  C   UNL     1      94.404  97.452  75.925  1.00  0.00     0.001 C 
BRANCH  18  19
ATOM     19  C   UNL     1      93.430  97.294  77.120  1.00  0.00     0.004 C 
BRANCH  19  20
ATOM     20  C   UNL     1      93.527  95.876  77.747  1.00  0.00     0.027 C 
BRANCH  20  21
ATOM     21  C   UNL     1      92.299  95.106  77.644  1.00  0.00    -0.031 C 
ATOM     22  C   UNL     1      91.981  94.406  76.540  1.00  0.00    -0.028 C 
BRANCH  22  23
ATOM     23  C   UNL     1      90.758  93.617  76.407  1.00  0.00     0.005 C 
ATOM     24  C   UNL     1      89.994  93.577  77.757  1.00  0.00     0.012 C 
ATOM     25  C   UNL     1      89.884  94.175  75.251  1.00  0.00     0.012 C 
ENDBRANCH  22  23
ENDBRANCH  20  21
ENDBRANCH  19  20
ENDBRANCH  18  19
ENDBRANCH   1  18
TORSDOF 11
ENDMDL
MODEL 10
REMARK VINA RESULT:    -5.771     22.510     27.345
REMARK INTER + INTRA:         -10.110
REMARK INTER:                  -9.325
REMARK INTRA:                  -0.785
REMARK UNBOUND:                -0.797
REMARK SMILES COc1cc(CNC(=O)CCCCC/C=C/C(C)C)ccc1O
REMARK SMILES IDX 11 1 10 2 8 3 7 4 9 6 6 7 5 8 3 9 22 10 4 11 21 12 20 13
REMARK SMILES IDX 2 14 1 15 23 16 12 18 13 19 14 20 15 21 16 22 17 23 18 24
REMARK SMILES IDX 19 25
REMARK H PARENT 7 5 23 17
REMARK Flexibility Score: inf
ROOT
ATOM      1  C   UNL     1      70.677  84.127  67.987  1.00  0.00     0.010 C 
ENDROOT
BRANCH   1   2
ATOM      2  C   UNL     1      70.461  83.592  66.547  1.00  0.00     0.100 C 
BRANCH   2   3
ATOM      3  C   UNL     1      71.706  83.201  65.860  1.00  0.00     0.220 C 
ATOM      4  N   UNL     1      72.799  84.011  65.923  1.00  0.00    -0.352 N 
ATOM      5  H   UNL     1      72.645  84.891  66.396  1.00  0.00     0.163 HD
ATOM      6  O   UNL     1      71.735  82.099  65.262  1.00  0.00    -0.275 OA
BRANCH   4   7
ATOM      7  C   UNL     1      74.087  83.710  65.388  1.00  0.00     0.151 C 
BRANCH   7   8
ATOM      8  C   UNL     1      75.193  84.242  66.226  1.00  0.00    -0.025 A 
ATOM      9  C   UNL     1      75.976  85.631  68.099  1.00  0.00     0.160 A 
ATOM     10  C   UNL     1      77.312  85.298  67.786  1.00  0.00     0.157 A 
ATOM     11  C   UNL     1      74.928  85.109  67.312  1.00  0.00     0.056 A 
ATOM     12  C   UNL     1      77.585  84.423  66.718  1.00  0.00     0.050 A 
ATOM     13  C   UNL     1      76.533  83.891  65.950  1.00  0.00     0.009 A 
BRANCH   9  14
ATOM     14  O   UNL     1      75.693  86.410  69.189  1.00  0.00    -0.493 OA
ATOM     15  C   UNL     1      75.221  87.728  68.863  1.00  0.00     0.278 C 
ENDBRANCH   9  14
BRANCH  10  16
ATOM     16  O   UNL     1      78.349  85.801  68.500  1.00  0.00    -0.504 OA
ATOM     17  H   UNL     1      78.666  85.135  69.116  1.00  0.00     0.293 HD
ENDBRANCH  10  16
ENDBRANCH   7   8
ENDBRANCH   4   7
ENDBRANCH   2   3
ENDBRANCH   1   2
BRANCH   1  18
ATOM     18  C   UNL     1      69.577  83.607  68.947  1.00  0.00     0.001 C 
BRANCH  18  19
ATOM     19  C   UNL     1      68.136  83.938  68.483  1.00  0.00     0.004 C 
BRANCH  19  20
ATOM     20  C   UNL     1      67.171  84.086  69.691  1.00  0.00     0.027 C 
BRANCH  20  21
ATOM     21  C   UNL     1      65.887  83.434  69.497  1.00  0.00    -0.031 C 
ATOM     22  C   UNL     1      65.782  82.179  69.027  1.00  0.00    -0.028 C 
BRANCH  22  23
ATOM     23  C   UNL     1      64.507  81.494  68.825  1.00  0.00     0.005 C 
ATOM     24  C   UNL     1      63.388  82.189  69.645  1.00  0.00     0.012 C 
ATOM     25  C   UNL     1      64.171  81.421  67.311  1.00  0.00     0.012 C 
ENDBRANCH  22  23
ENDBRANCH  20  21
ENDBRANCH  19  20
ENDBRANCH  18  19
ENDBRANCH   1  18
TORSDOF 11
ENDMDL
