MODEL 1
REMARK VINA RESULT:    -5.062      0.000      0.000
REMARK INTER + INTRA:         -10.210
REMARK INTER:                  -8.169
REMARK INTRA:                  -2.041
REMARK UNBOUND:                -2.041
REMARK SMILES COc1cc(CNC(=O)CCCCCCC(C)C)ccc1O
REMARK SMILES IDX 11 1 10 2 8 3 7 4 9 6 6 7 5 8 3 9 21 10 4 11 20 12 19 13
REMARK SMILES IDX 2 14 1 15 22 16 12 18 13 19 14 20 15 21 16 22 17 23 18 24
REMARK H PARENT 7 5 22 17
REMARK Flexibility Score: inf
ROOT
ATOM      1  C   UNL     1      80.188  65.224  73.262  1.00  0.00     0.010 C 
ENDROOT
BRANCH   1   2
ATOM      2  C   UNL     1      80.385  66.464  74.177  1.00  0.00     0.100 C 
BRANCH   2   3
ATOM      3  C   UNL     1      81.145  66.165  75.412  1.00  0.00     0.220 C 
ATOM      4  N   UNL     1      81.549  64.889  75.680  1.00  0.00    -0.352 N 
ATOM      5  H   UNL     1      81.248  64.201  75.005  1.00  0.00     0.163 HD
ATOM      6  O   UNL     1      81.429  67.110  76.187  1.00  0.00    -0.275 OA
BRANCH   4   7
ATOM      7  C   UNL     1      82.335  64.492  76.809  1.00  0.00     0.151 C 
BRANCH   7   8
ATOM      8  C   UNL     1      83.799  64.501  76.536  1.00  0.00    -0.025 A 
ATOM      9  C   UNL     1      85.972  65.651  76.609  1.00  0.00     0.160 A 
ATOM     10  C   UNL     1      86.596  64.510  76.059  1.00  0.00     0.157 A 
ATOM     11  C   UNL     1      84.578  65.644  76.825  1.00  0.00     0.056 A 
ATOM     12  C   UNL     1      85.826  63.380  75.731  1.00  0.00     0.050 A 
ATOM     13  C   UNL     1      84.439  63.370  75.976  1.00  0.00     0.009 A 
BRANCH   9  14
ATOM     14  O   UNL     1      86.706  66.769  76.896  1.00  0.00    -0.493 OA
ATOM     15  C   UNL     1      86.302  67.433  78.107  1.00  0.00     0.278 C 
ENDBRANCH   9  14
BRANCH  10  16
ATOM     16  O   UNL     1      87.937  64.488  75.839  1.00  0.00    -0.504 OA
ATOM     17  H   UNL     1      88.397  64.742  76.643  1.00  0.00     0.293 HD
ENDBRANCH  10  16
ENDBRANCH   7   8
ENDBRANCH   4   7
ENDBRANCH   2   3
ENDBRANCH   1   2
BRANCH   1  18
ATOM     18  C   UNL     1      80.419  65.560  71.761  1.00  0.00     0.001 C 
BRANCH  18  19
ATOM     19  C   UNL     1      80.262  67.070  71.425  1.00  0.00     0.000 C 
BRANCH  19  20
ATOM     20  C   UNL     1      81.618  67.706  71.007  1.00  0.00     0.000 C 
BRANCH  20  21
ATOM     21  C   UNL     1      82.807  66.707  70.972  1.00  0.00     0.003 C 
BRANCH  21  22
ATOM     22  C   UNL     1      83.838  66.881  72.135  1.00  0.00    -0.017 C 
ATOM     23  C   UNL     1      83.964  65.564  72.951  1.00  0.00     0.007 C 
ATOM     24  C   UNL     1      83.520  68.078  73.078  1.00  0.00     0.007 C 
ENDBRANCH  21  22
ENDBRANCH  20  21
ENDBRANCH  19  20
ENDBRANCH  18  19
ENDBRANCH   1  18
TORSDOF 11
ENDMDL
MODEL 2
REMARK VINA RESULT:    -4.849      1.071      2.199
REMARK INTER + INTRA:          -9.866
REMARK INTER:                  -8.076
REMARK INTRA:                  -1.791
REMARK UNBOUND:                -2.041
REMARK SMILES COc1cc(CNC(=O)CCCCCCC(C)C)ccc1O
REMARK SMILES IDX 11 1 10 2 8 3 7 4 9 6 6 7 5 8 3 9 21 10 4 11 20 12 19 13
REMARK SMILES IDX 2 14 1 15 22 16 12 18 13 19 14 20 15 21 16 22 17 23 18 24
REMARK H PARENT 7 5 22 17
REMARK Flexibility Score: inf
ROOT
ATOM      1  C   UNL     1      80.161  65.287  73.308  1.00  0.00     0.010 C 
ENDROOT
BRANCH   1   2
ATOM      2  C   UNL     1      80.388  66.513  74.236  1.00  0.00     0.100 C 
BRANCH   2   3
ATOM      3  C   UNL     1      81.253  66.213  75.399  1.00  0.00     0.220 C 
ATOM      4  N   UNL     1      81.756  64.958  75.579  1.00  0.00    -0.352 N 
ATOM      5  H   UNL     1      81.453  64.281  74.894  1.00  0.00     0.163 HD
ATOM      6  O   UNL     1      81.530  67.141  76.198  1.00  0.00    -0.275 OA
BRANCH   4   7
ATOM      7  C   UNL     1      82.646  64.567  76.630  1.00  0.00     0.151 C 
BRANCH   7   8
ATOM      8  C   UNL     1      84.076  64.842  76.322  1.00  0.00    -0.025 A 
ATOM      9  C   UNL     1      86.042  64.525  74.879  1.00  0.00     0.160 A 
ATOM     10  C   UNL     1      86.789  65.397  75.701  1.00  0.00     0.157 A 
ATOM     11  C   UNL     1      84.700  64.240  75.205  1.00  0.00     0.056 A 
ATOM     12  C   UNL     1      86.190  65.972  76.837  1.00  0.00     0.050 A 
ATOM     13  C   UNL     1      84.841  65.706  77.140  1.00  0.00     0.009 A 
BRANCH   9  14
ATOM     14  O   UNL     1      86.626  63.930  73.794  1.00  0.00    -0.493 OA
ATOM     15  C   UNL     1      86.162  64.442  72.532  1.00  0.00     0.278 C 
ENDBRANCH   9  14
BRANCH  10  16
ATOM     16  O   UNL     1      88.084  65.688  75.412  1.00  0.00    -0.504 OA
ATOM     17  H   UNL     1      88.330  66.511  75.842  1.00  0.00     0.293 HD
ENDBRANCH  10  16
ENDBRANCH   7   8
ENDBRANCH   4   7
ENDBRANCH   2   3
ENDBRANCH   1   2
BRANCH   1  18
ATOM     18  C   UNL     1      80.718  65.524  71.875  1.00  0.00     0.001 C 
BRANCH  18  19
ATOM     19  C   UNL     1      80.168  66.808  71.193  1.00  0.00     0.000 C 
BRANCH  19  20
ATOM     20  C   UNL     1      81.314  67.779  70.794  1.00  0.00     0.000 C 
BRANCH  20  21
ATOM     21  C   UNL     1      82.704  67.397  71.372  1.00  0.00     0.003 C 
BRANCH  21  22
ATOM     22  C   UNL     1      83.228  68.352  72.493  1.00  0.00    -0.017 C 
ATOM     23  C   UNL     1      83.972  69.566  71.869  1.00  0.00     0.007 C 
ATOM     24  C   UNL     1      84.129  67.645  73.548  1.00  0.00     0.007 C 
ENDBRANCH  21  22
ENDBRANCH  20  21
ENDBRANCH  19  20
ENDBRANCH  18  19
ENDBRANCH   1  18
TORSDOF 11
ENDMDL
MODEL 3
REMARK VINA RESULT:    -4.841     23.001     26.453
REMARK INTER + INTRA:          -9.854
REMARK INTER:                  -9.312
REMARK INTRA:                  -0.542
REMARK UNBOUND:                -2.041
REMARK SMILES COc1cc(CNC(=O)CCCCCCC(C)C)ccc1O
REMARK SMILES IDX 11 1 10 2 8 3 7 4 9 6 6 7 5 8 3 9 21 10 4 11 20 12 19 13
REMARK SMILES IDX 2 14 1 15 22 16 12 18 13 19 14 20 15 21 16 22 17 23 18 24
REMARK H PARENT 7 5 22 17
REMARK Flexibility Score: inf
ROOT
ATOM      1  C   UNL     1      97.292  83.841  84.557  1.00  0.00     0.010 C 
ENDROOT
BRANCH   1   2
ATOM      2  C   UNL     1      96.158  84.857  84.244  1.00  0.00     0.100 C 
BRANCH   2   3
ATOM      3  C   UNL     1      95.220  85.052  85.372  1.00  0.00     0.220 C 
ATOM      4  N   UNL     1      95.573  85.829  86.436  1.00  0.00    -0.352 N 
ATOM      5  H   UNL     1      96.511  86.199  86.395  1.00  0.00     0.163 HD
ATOM      6  O   UNL     1      94.089  84.508  85.314  1.00  0.00    -0.275 OA
BRANCH   4   7
ATOM      7  C   UNL     1      94.729  86.135  87.552  1.00  0.00     0.151 C 
BRANCH   7   8
ATOM      8  C   UNL     1      94.733  87.579  87.911  1.00  0.00    -0.025 A 
ATOM      9  C   UNL     1      93.952  89.419  89.344  1.00  0.00     0.160 A 
ATOM     10  C   UNL     1      94.768  90.324  88.631  1.00  0.00     0.157 A 
ATOM     11  C   UNL     1      93.926  88.060  88.967  1.00  0.00     0.056 A 
ATOM     12  C   UNL     1      95.546  89.865  87.553  1.00  0.00     0.050 A 
ATOM     13  C   UNL     1      95.538  88.501  87.201  1.00  0.00     0.009 A 
BRANCH   9  14
ATOM     14  O   UNL     1      93.161  89.862  90.369  1.00  0.00    -0.493 OA
ATOM     15  C   UNL     1      93.024  88.918  91.446  1.00  0.00     0.278 C 
ENDBRANCH   9  14
BRANCH  10  16
ATOM     16  O   UNL     1      94.812  91.639  88.971  1.00  0.00    -0.504 OA
ATOM     17  H   UNL     1      94.442  92.166  88.258  1.00  0.00     0.293 HD
ENDBRANCH  10  16
ENDBRANCH   7   8
ENDBRANCH   4   7
ENDBRANCH   2   3
ENDBRANCH   1   2
BRANCH   1  18
ATOM     18  C   UNL     1      97.783  83.098  83.283  1.00  0.00     0.001 C 
BRANCH  18  19
ATOM     19  C   UNL     1      96.831  83.250  82.063  1.00  0.00     0.000 C 
BRANCH  19  20
ATOM     20  C   UNL     1      97.442  82.623  80.779  1.00  0.00     0.000 C 
BRANCH  20  21
ATOM     21  C   UNL     1      96.455  82.530  79.583  1.00  0.00     0.003 C 
BRANCH  21  22
ATOM     22  C   UNL     1      97.132  82.589  78.174  1.00  0.00    -0.017 C 
ATOM     23  C   UNL     1      96.794  81.312  77.355  1.00  0.00     0.007 C 
ATOM     24  C   UNL     1      98.672  82.810  78.229  1.00  0.00     0.007 C 
ENDBRANCH  21  22
ENDBRANCH  20  21
ENDBRANCH  19  20
ENDBRANCH  18  19
ENDBRANCH   1  18
TORSDOF 11
ENDMDL
MODEL 4
REMARK VINA RESULT:    -4.820     24.578     27.141
REMARK INTER + INTRA:          -9.820
REMARK INTER:                  -8.790
REMARK INTRA:                  -1.030
REMARK UNBOUND:                -2.041
REMARK SMILES COc1cc(CNC(=O)CCCCCCC(C)C)ccc1O
REMARK SMILES IDX 11 1 10 2 8 3 7 4 9 6 6 7 5 8 3 9 21 10 4 11 20 12 19 13
REMARK SMILES IDX 2 14 1 15 22 16 12 18 13 19 14 20 15 21 16 22 17 23 18 24
REMARK H PARENT 7 5 22 17
REMARK Flexibility Score: inf
ROOT
ATOM      1  C   UNL     1      63.773  84.968  73.660  1.00  0.00     0.010 C 
ENDROOT
BRANCH   1   2
ATOM      2  C   UNL     1      65.069  84.829  74.505  1.00  0.00     0.100 C 
BRANCH   2   3
ATOM      3  C   UNL     1      65.260  85.935  75.470  1.00  0.00     0.220 C 
ATOM      4  N   UNL     1      66.279  85.891  76.376  1.00  0.00    -0.352 N 
ATOM      5  H   UNL     1      66.831  85.047  76.348  1.00  0.00     0.163 HD
ATOM      6  O   UNL     1      64.481  86.918  75.420  1.00  0.00    -0.275 OA
BRANCH   4   7
ATOM      7  C   UNL     1      66.595  86.924  77.315  1.00  0.00     0.151 C 
BRANCH   7   8
ATOM      8  C   UNL     1      66.271  86.557  78.721  1.00  0.00    -0.025 A 
ATOM      9  C   UNL     1      64.757  86.669  80.657  1.00  0.00     0.160 A 
ATOM     10  C   UNL     1      65.625  85.827  81.386  1.00  0.00     0.157 A 
ATOM     11  C   UNL     1      65.095  87.042  79.339  1.00  0.00     0.056 A 
ATOM     12  C   UNL     1      66.817  85.369  80.796  1.00  0.00     0.050 A 
ATOM     13  C   UNL     1      67.134  85.722  79.470  1.00  0.00     0.009 A 
BRANCH   9  14
ATOM     14  O   UNL     1      63.615  87.151  81.235  1.00  0.00    -0.493 OA
ATOM     15  C   UNL     1      63.711  88.525  81.652  1.00  0.00     0.278 C 
ENDBRANCH   9  14
BRANCH  10  16
ATOM     16  O   UNL     1      65.325  85.452  82.658  1.00  0.00    -0.504 OA
ATOM     17  H   UNL     1      66.054  84.943  83.021  1.00  0.00     0.293 HD
ENDBRANCH  10  16
ENDBRANCH   7   8
ENDBRANCH   4   7
ENDBRANCH   2   3
ENDBRANCH   1   2
BRANCH   1  18
ATOM     18  C   UNL     1      62.515  84.472  74.430  1.00  0.00     0.001 C 
BRANCH  18  19
ATOM     19  C   UNL     1      62.839  83.501  75.600  1.00  0.00     0.000 C 
BRANCH  19  20
ATOM     20  C   UNL     1      62.628  82.017  75.186  1.00  0.00     0.000 C 
BRANCH  20  21
ATOM     21  C   UNL     1      63.943  81.205  75.032  1.00  0.00     0.003 C 
BRANCH  21  22
ATOM     22  C   UNL     1      64.088  80.454  73.667  1.00  0.00    -0.017 C 
ATOM     23  C   UNL     1      65.560  80.007  73.446  1.00  0.00     0.007 C 
ATOM     24  C   UNL     1      63.577  81.274  72.446  1.00  0.00     0.007 C 
ENDBRANCH  21  22
ENDBRANCH  20  21
ENDBRANCH  19  20
ENDBRANCH  18  19
ENDBRANCH   1  18
TORSDOF 11
ENDMDL
MODEL 5
REMARK VINA RESULT:    -4.776     25.449     28.191
REMARK INTER + INTRA:          -9.749
REMARK INTER:                  -9.076
REMARK INTRA:                  -0.673
REMARK UNBOUND:                -2.041
REMARK SMILES COc1cc(CNC(=O)CCCCCCC(C)C)ccc1O
REMARK SMILES IDX 11 1 10 2 8 3 7 4 9 6 6 7 5 8 3 9 21 10 4 11 20 12 19 13
REMARK SMILES IDX 2 14 1 15 22 16 12 18 13 19 14 20 15 21 16 22 17 23 18 24
REMARK H PARENT 7 5 22 17
REMARK Flexibility Score: inf
ROOT
ATOM      1  C   UNL     1      77.093  89.766  64.910  1.00  0.00     0.010 C 
ENDROOT
BRANCH   1   2
ATOM      2  C   UNL     1      77.496  90.727  63.758  1.00  0.00     0.100 C 
BRANCH   2   3
ATOM      3  C   UNL     1      77.030  92.117  63.966  1.00  0.00     0.220 C 
ATOM      4  N   UNL     1      77.071  92.679  65.208  1.00  0.00    -0.352 N 
ATOM      5  H   UNL     1      77.393  92.062  65.939  1.00  0.00     0.163 HD
ATOM      6  O   UNL     1      76.622  92.769  62.974  1.00  0.00    -0.275 OA
BRANCH   4   7
ATOM      7  C   UNL     1      76.703  94.027  65.517  1.00  0.00     0.151 C 
BRANCH   7   8
ATOM      8  C   UNL     1      77.625  94.679  66.489  1.00  0.00    -0.025 A 
ATOM      9  C   UNL     1      78.088  95.507  68.758  1.00  0.00     0.160 A 
ATOM     10  C   UNL     1      79.390  95.879  68.359  1.00  0.00     0.157 A 
ATOM     11  C   UNL     1      77.210  94.928  67.817  1.00  0.00     0.056 A 
ATOM     12  C   UNL     1      79.800  95.673  67.029  1.00  0.00     0.050 A 
ATOM     13  C   UNL     1      78.929  95.067  66.103  1.00  0.00     0.009 A 
BRANCH   9  14
ATOM     14  O   UNL     1      77.665  95.740  70.038  1.00  0.00    -0.493 OA
ATOM     15  C   UNL     1      77.078  94.589  70.674  1.00  0.00     0.278 C 
ENDBRANCH   9  14
BRANCH  10  16
ATOM     16  O   UNL     1      80.256  96.441  69.243  1.00  0.00    -0.504 OA
ATOM     17  H   UNL     1      80.961  96.881  68.763  1.00  0.00     0.293 HD
ENDBRANCH  10  16
ENDBRANCH   7   8
ENDBRANCH   4   7
ENDBRANCH   2   3
ENDBRANCH   1   2
BRANCH   1  18
ATOM     18  C   UNL     1      77.734  88.358  64.751  1.00  0.00     0.001 C 
BRANCH  18  19
ATOM     19  C   UNL     1      78.354  87.800  66.062  1.00  0.00     0.000 C 
BRANCH  19  20
ATOM     20  C   UNL     1      77.292  87.678  67.191  1.00  0.00     0.000 C 
BRANCH  20  21
ATOM     21  C   UNL     1      76.422  86.393  67.113  1.00  0.00     0.003 C 
BRANCH  21  22
ATOM     22  C   UNL     1      77.109  85.108  67.680  1.00  0.00    -0.017 C 
ATOM     23  C   UNL     1      77.469  84.130  66.527  1.00  0.00     0.007 C 
ATOM     24  C   UNL     1      76.269  84.379  68.770  1.00  0.00     0.007 C 
ENDBRANCH  21  22
ENDBRANCH  20  21
ENDBRANCH  19  20
ENDBRANCH  18  19
ENDBRANCH   1  18
TORSDOF 11
ENDMDL
MODEL 6
REMARK VINA RESULT:    -4.764     24.465     26.901
REMARK INTER + INTRA:          -9.730
REMARK INTER:                  -8.846
REMARK INTRA:                  -0.884
REMARK UNBOUND:                -2.041
REMARK SMILES COc1cc(CNC(=O)CCCCCCC(C)C)ccc1O
REMARK SMILES IDX 11 1 10 2 8 3 7 4 9 6 6 7 5 8 3 9 21 10 4 11 20 12 19 13
REMARK SMILES IDX 2 14 1 15 22 16 12 18 13 19 14 20 15 21 16 22 17 23 18 24
REMARK H PARENT 7 5 22 17
REMARK Flexibility Score: inf
ROOT
ATOM      1  C   UNL     1      62.876  85.062  74.485  1.00  0.00     0.010 C 
ENDROOT
BRANCH   1   2
ATOM      2  C   UNL     1      63.924  84.761  75.592  1.00  0.00     0.100 C 
BRANCH   2   3
ATOM      3  C   UNL     1      63.924  85.761  76.683  1.00  0.00     0.220 C 
ATOM      4  N   UNL     1      64.934  85.780  77.600  1.00  0.00    -0.352 N 
ATOM      5  H   UNL     1      65.620  85.047  77.487  1.00  0.00     0.163 HD
ATOM      6  O   UNL     1      62.993  86.601  76.730  1.00  0.00    -0.275 OA
BRANCH   4   7
ATOM      7  C   UNL     1      65.071  86.732  78.660  1.00  0.00     0.151 C 
BRANCH   7   8
ATOM      8  C   UNL     1      65.656  86.151  79.900  1.00  0.00    -0.025 A 
ATOM      9  C   UNL     1      65.587  85.825  82.337  1.00  0.00     0.160 A 
ATOM     10  C   UNL     1      66.739  85.011  82.262  1.00  0.00     0.157 A 
ATOM     11  C   UNL     1      65.067  86.403  81.160  1.00  0.00     0.056 A 
ATOM     12  C   UNL     1      67.357  84.785  81.019  1.00  0.00     0.050 A 
ATOM     13  C   UNL     1      66.814  85.341  79.844  1.00  0.00     0.009 A 
BRANCH   9  14
ATOM     14  O   UNL     1      65.001  86.083  83.546  1.00  0.00    -0.493 OA
ATOM     15  C   UNL     1      63.568  85.950  83.536  1.00  0.00     0.278 C 
ENDBRANCH   9  14
BRANCH  10  16
ATOM     16  O   UNL     1      67.263  84.442  83.379  1.00  0.00    -0.504 OA
ATOM     17  H   UNL     1      66.618  84.480  84.090  1.00  0.00     0.293 HD
ENDBRANCH  10  16
ENDBRANCH   7   8
ENDBRANCH   4   7
ENDBRANCH   2   3
ENDBRANCH   1   2
BRANCH   1  18
ATOM     18  C   UNL     1      63.146  84.250  73.186  1.00  0.00     0.001 C 
BRANCH  18  19
ATOM     19  C   UNL     1      62.008  83.255  72.821  1.00  0.00     0.000 C 
BRANCH  19  20
ATOM     20  C   UNL     1      62.279  81.839  73.403  1.00  0.00     0.000 C 
BRANCH  20  21
ATOM     21  C   UNL     1      63.537  81.139  72.817  1.00  0.00     0.003 C 
BRANCH  21  22
ATOM     22  C   UNL     1      64.781  81.141  73.764  1.00  0.00    -0.017 C 
ATOM     23  C   UNL     1      65.688  79.911  73.472  1.00  0.00     0.007 C 
ATOM     24  C   UNL     1      64.417  81.202  75.277  1.00  0.00     0.007 C 
ENDBRANCH  21  22
ENDBRANCH  20  21
ENDBRANCH  19  20
ENDBRANCH  18  19
ENDBRANCH   1  18
TORSDOF 11
ENDMDL
MODEL 7
REMARK VINA RESULT:    -4.678      2.668      4.316
REMARK INTER + INTRA:          -9.591
REMARK INTER:                  -8.041
REMARK INTRA:                  -1.550
REMARK UNBOUND:                -2.041
REMARK SMILES COc1cc(CNC(=O)CCCCCCC(C)C)ccc1O
REMARK SMILES IDX 11 1 10 2 8 3 7 4 9 6 6 7 5 8 3 9 21 10 4 11 20 12 19 13
REMARK SMILES IDX 2 14 1 15 22 16 12 18 13 19 14 20 15 21 16 22 17 23 18 24
REMARK H PARENT 7 5 22 17
REMARK Flexibility Score: inf
ROOT
ATOM      1  C   UNL     1      80.177  66.247  71.580  1.00  0.00     0.010 C 
ENDROOT
BRANCH   1   2
ATOM      2  C   UNL     1      80.798  67.629  71.924  1.00  0.00     0.100 C 
BRANCH   2   3
ATOM      3  C   UNL     1      82.278  67.622  71.926  1.00  0.00     0.220 C 
ATOM      4  N   UNL     1      82.967  67.804  73.089  1.00  0.00    -0.352 N 
ATOM      5  H   UNL     1      82.389  67.982  73.897  1.00  0.00     0.163 HD
ATOM      6  O   UNL     1      82.880  67.420  70.843  1.00  0.00    -0.275 OA
BRANCH   4   7
ATOM      7  C   UNL     1      84.391  67.759  73.222  1.00  0.00     0.151 C 
BRANCH   7   8
ATOM      8  C   UNL     1      84.875  68.268  74.535  1.00  0.00    -0.025 A 
ATOM      9  C   UNL     1      86.485  69.585  75.846  1.00  0.00     0.160 A 
ATOM     10  C   UNL     1      85.778  69.278  77.029  1.00  0.00     0.157 A 
ATOM     11  C   UNL     1      86.041  69.064  74.613  1.00  0.00     0.056 A 
ATOM     12  C   UNL     1      84.638  68.455  76.969  1.00  0.00     0.050 A 
ATOM     13  C   UNL     1      84.183  67.962  75.730  1.00  0.00     0.009 A 
BRANCH   9  14
ATOM     14  O   UNL     1      87.617  70.352  75.898  1.00  0.00    -0.493 OA
ATOM     15  C   UNL     1      88.145  70.697  74.604  1.00  0.00     0.278 C 
ENDBRANCH   9  14
BRANCH  10  16
ATOM     16  O   UNL     1      86.184  69.765  78.230  1.00  0.00    -0.504 OA
ATOM     17  H   UNL     1      85.596  70.474  78.503  1.00  0.00     0.293 HD
ENDBRANCH  10  16
ENDBRANCH   7   8
ENDBRANCH   4   7
ENDBRANCH   2   3
ENDBRANCH   1   2
BRANCH   1  18
ATOM     18  C   UNL     1      80.404  65.204  72.712  1.00  0.00     0.001 C 
BRANCH  18  19
ATOM     19  C   UNL     1      80.187  65.774  74.142  1.00  0.00     0.000 C 
BRANCH  19  20
ATOM     20  C   UNL     1      81.222  65.200  75.149  1.00  0.00     0.000 C 
BRANCH  20  21
ATOM     21  C   UNL     1      82.418  64.464  74.484  1.00  0.00     0.003 C 
BRANCH  21  22
ATOM     22  C   UNL     1      83.773  64.599  75.253  1.00  0.00    -0.017 C 
ATOM     23  C   UNL     1      84.965  64.235  74.322  1.00  0.00     0.007 C 
ATOM     24  C   UNL     1      83.833  63.764  76.566  1.00  0.00     0.007 C 
ENDBRANCH  21  22
ENDBRANCH  20  21
ENDBRANCH  19  20
ENDBRANCH  18  19
ENDBRANCH   1  18
TORSDOF 11
ENDMDL
MODEL 8
REMARK VINA RESULT:    -4.567     24.193     26.871
REMARK INTER + INTRA:          -9.412
REMARK INTER:                  -8.624
REMARK INTRA:                  -0.788
REMARK UNBOUND:                -2.041
REMARK SMILES COc1cc(CNC(=O)CCCCCCC(C)C)ccc1O
REMARK SMILES IDX 11 1 10 2 8 3 7 4 9 6 6 7 5 8 3 9 21 10 4 11 20 12 19 13
REMARK SMILES IDX 2 14 1 15 22 16 12 18 13 19 14 20 15 21 16 22 17 23 18 24
REMARK H PARENT 7 5 22 17
REMARK Flexibility Score: inf
ROOT
ATOM      1  C   UNL     1      77.269  91.933  63.661  1.00  0.00     0.010 C 
ENDROOT
BRANCH   1   2
ATOM      2  C   UNL     1      75.890  91.967  64.375  1.00  0.00     0.100 C 
BRANCH   2   3
ATOM      3  C   UNL     1      75.872  91.215  65.649  1.00  0.00     0.220 C 
ATOM      4  N   UNL     1      76.278  89.912  65.687  1.00  0.00    -0.352 N 
ATOM      5  H   UNL     1      76.533  89.525  64.790  1.00  0.00     0.163 HD
ATOM      6  O   UNL     1      75.502  91.807  66.692  1.00  0.00    -0.275 OA
BRANCH   4   7
ATOM      7  C   UNL     1      76.359  89.106  66.867  1.00  0.00     0.151 C 
BRANCH   7   8
ATOM      8  C   UNL     1      76.953  87.763  66.620  1.00  0.00    -0.025 A 
ATOM      9  C   UNL     1      77.345  85.444  67.337  1.00  0.00     0.160 A 
ATOM     10  C   UNL     1      78.045  85.189  66.138  1.00  0.00     0.157 A 
ATOM     11  C   UNL     1      76.821  86.732  67.577  1.00  0.00     0.056 A 
ATOM     12  C   UNL     1      78.217  86.219  65.195  1.00  0.00     0.050 A 
ATOM     13  C   UNL     1      77.666  87.494  65.428  1.00  0.00     0.009 A 
BRANCH   9  14
ATOM     14  O   UNL     1      77.207  84.460  68.278  1.00  0.00    -0.493 OA
ATOM     15  C   UNL     1      75.839  84.183  68.631  1.00  0.00     0.278 C 
ENDBRANCH   9  14
BRANCH  10  16
ATOM     16  O   UNL     1      78.562  83.959  65.881  1.00  0.00    -0.504 OA
ATOM     17  H   UNL     1      77.956  83.469  65.320  1.00  0.00     0.293 HD
ENDBRANCH  10  16
ENDBRANCH   7   8
ENDBRANCH   4   7
ENDBRANCH   2   3
ENDBRANCH   1   2
BRANCH   1  18
ATOM     18  C   UNL     1      78.314  92.849  64.360  1.00  0.00     0.001 C 
BRANCH  18  19
ATOM     19  C   UNL     1      77.814  94.301  64.600  1.00  0.00     0.000 C 
BRANCH  19  20
ATOM     20  C   UNL     1      77.971  94.722  66.088  1.00  0.00     0.000 C 
BRANCH  20  21
ATOM     21  C   UNL     1      79.301  95.461  66.405  1.00  0.00     0.003 C 
BRANCH  21  22
ATOM     22  C   UNL     1      79.478  95.867  67.904  1.00  0.00    -0.017 C 
ATOM     23  C   UNL     1      78.229  95.453  68.731  1.00  0.00     0.007 C 
ATOM     24  C   UNL     1      79.793  97.378  68.110  1.00  0.00     0.007 C 
ENDBRANCH  21  22
ENDBRANCH  20  21
ENDBRANCH  19  20
ENDBRANCH  18  19
ENDBRANCH   1  18
TORSDOF 11
ENDMDL
MODEL 9
REMARK VINA RESULT:    -4.446     21.070     23.437
REMARK INTER + INTRA:          -9.216
REMARK INTER:                  -8.358
REMARK INTRA:                  -0.858
REMARK UNBOUND:                -2.041
REMARK SMILES COc1cc(CNC(=O)CCCCCCC(C)C)ccc1O
REMARK SMILES IDX 11 1 10 2 8 3 7 4 9 6 6 7 5 8 3 9 21 10 4 11 20 12 19 13
REMARK SMILES IDX 2 14 1 15 22 16 12 18 13 19 14 20 15 21 16 22 17 23 18 24
REMARK H PARENT 7 5 22 17
REMARK Flexibility Score: inf
ROOT
ATOM      1  C   UNL     1      97.066  81.985  81.906  1.00  0.00     0.010 C 
ENDROOT
BRANCH   1   2
ATOM      2  C   UNL     1      98.164  82.721  82.721  1.00  0.00     0.100 C 
BRANCH   2   3
ATOM      3  C   UNL     1      97.616  83.613  83.768  1.00  0.00     0.220 C 
ATOM      4  N   UNL     1      97.427  83.150  85.037  1.00  0.00    -0.352 N 
ATOM      5  H   UNL     1      97.645  82.173  85.166  1.00  0.00     0.163 HD
ATOM      6  O   UNL     1      97.356  84.804  83.468  1.00  0.00    -0.275 OA
BRANCH   4   7
ATOM      7  C   UNL     1      96.960  83.933  86.141  1.00  0.00     0.151 C 
BRANCH   7   8
ATOM      8  C   UNL     1      95.479  83.920  86.285  1.00  0.00    -0.025 A 
ATOM      9  C   UNL     1      93.350  82.688  86.285  1.00  0.00     0.160 A 
ATOM     10  C   UNL     1      92.659  83.878  86.601  1.00  0.00     0.157 A 
ATOM     11  C   UNL     1      94.749  82.722  86.111  1.00  0.00     0.056 A 
ATOM     12  C   UNL     1      93.369  85.085  86.738  1.00  0.00     0.050 A 
ATOM     13  C   UNL     1      94.769  85.105  86.592  1.00  0.00     0.009 A 
BRANCH   9  14
ATOM     14  O   UNL     1      92.664  81.517  86.110  1.00  0.00    -0.493 OA
ATOM     15  C   UNL     1      93.133  80.731  84.999  1.00  0.00     0.278 C 
ENDBRANCH   9  14
BRANCH  10  16
ATOM     16  O   UNL     1      91.311  83.876  86.772  1.00  0.00    -0.504 OA
ATOM     17  H   UNL     1      90.924  84.599  86.273  1.00  0.00     0.293 HD
ENDBRANCH  10  16
ENDBRANCH   7   8
ENDBRANCH   4   7
ENDBRANCH   2   3
ENDBRANCH   1   2
BRANCH   1  18
ATOM     18  C   UNL     1      97.030  82.444  80.420  1.00  0.00     0.001 C 
BRANCH  18  19
ATOM     19  C   UNL     1      98.435  82.729  79.818  1.00  0.00     0.000 C 
BRANCH  19  20
ATOM     20  C   UNL     1      98.573  82.142  78.386  1.00  0.00     0.000 C 
BRANCH  20  21
ATOM     21  C   UNL     1      97.218  81.815  77.698  1.00  0.00     0.003 C 
BRANCH  21  22
ATOM     22  C   UNL     1      96.961  82.594  76.366  1.00  0.00    -0.017 C 
ATOM     23  C   UNL     1      97.525  81.800  75.154  1.00  0.00     0.007 C 
ATOM     24  C   UNL     1      97.519  84.047  76.374  1.00  0.00     0.007 C 
ENDBRANCH  21  22
ENDBRANCH  20  21
ENDBRANCH  19  20
ENDBRANCH  18  19
ENDBRANCH   1  18
TORSDOF 11
ENDMDL
MODEL 10
REMARK VINA RESULT:    -4.361      2.619      5.314
REMARK INTER + INTRA:          -9.080
REMARK INTER:                  -7.512
REMARK INTRA:                  -1.568
REMARK UNBOUND:                -2.041
REMARK SMILES COc1cc(CNC(=O)CCCCCCC(C)C)ccc1O
REMARK SMILES IDX 11 1 10 2 8 3 7 4 9 6 6 7 5 8 3 9 21 10 4 11 20 12 19 13
REMARK SMILES IDX 2 14 1 15 22 16 12 18 13 19 14 20 15 21 16 22 17 23 18 24
REMARK H PARENT 7 5 22 17
REMARK Flexibility Score: inf
ROOT
ATOM      1  C   UNL     1      81.394  64.464  74.724  1.00  0.00     0.010 C 
ENDROOT
BRANCH   1   2
ATOM      2  C   UNL     1      80.224  64.895  73.798  1.00  0.00     0.100 C 
BRANCH   2   3
ATOM      3  C   UNL     1      80.623  65.883  72.772  1.00  0.00     0.220 C 
ATOM      4  N   UNL     1      81.506  65.539  71.790  1.00  0.00    -0.352 N 
ATOM      5  H   UNL     1      81.872  64.601  71.863  1.00  0.00     0.163 HD
ATOM      6  O   UNL     1      80.115  67.031  72.812  1.00  0.00    -0.275 OA
BRANCH   4   7
ATOM      7  C   UNL     1      81.919  66.390  70.716  1.00  0.00     0.151 C 
BRANCH   7   8
ATOM      8  C   UNL     1      83.019  67.320  71.093  1.00  0.00    -0.025 A 
ATOM      9  C   UNL     1      85.364  67.697  71.730  1.00  0.00     0.160 A 
ATOM     10  C   UNL     1      85.131  69.089  71.771  1.00  0.00     0.157 A 
ATOM     11  C   UNL     1      84.304  66.823  71.410  1.00  0.00     0.056 A 
ATOM     12  C   UNL     1      83.847  69.592  71.496  1.00  0.00     0.050 A 
ATOM     13  C   UNL     1      82.800  68.716  71.149  1.00  0.00     0.009 A 
BRANCH   9  14
ATOM     14  O   UNL     1      86.600  67.194  72.035  1.00  0.00    -0.493 OA
ATOM     15  C   UNL     1      86.696  65.765  71.890  1.00  0.00     0.278 C 
ENDBRANCH   9  14
BRANCH  10  16
ATOM     16  O   UNL     1      86.134  69.954  72.078  1.00  0.00    -0.504 OA
ATOM     17  H   UNL     1      86.314  70.515  71.320  1.00  0.00     0.293 HD
ENDBRANCH  10  16
ENDBRANCH   7   8
ENDBRANCH   4   7
ENDBRANCH   2   3
ENDBRANCH   1   2
BRANCH   1  18
ATOM     18  C   UNL     1      81.396  65.244  76.070  1.00  0.00     0.001 C 
BRANCH  18  19
ATOM     19  C   UNL     1      82.085  66.635  75.987  1.00  0.00     0.000 C 
BRANCH  19  20
ATOM     20  C   UNL     1      83.401  66.573  75.161  1.00  0.00     0.000 C 
BRANCH  20  21
ATOM     21  C   UNL     1      84.326  67.808  75.344  1.00  0.00     0.003 C 
BRANCH  21  22
ATOM     22  C   UNL     1      84.662  68.154  76.832  1.00  0.00    -0.017 C 
ATOM     23  C   UNL     1      85.495  69.464  76.910  1.00  0.00     0.007 C 
ATOM     24  C   UNL     1      85.383  67.004  77.594  1.00  0.00     0.007 C 
ENDBRANCH  21  22
ENDBRANCH  20  21
ENDBRANCH  19  20
ENDBRANCH  18  19
ENDBRANCH   1  18
TORSDOF 11
ENDMDL
