MODEL 1
REMARK VINA RESULT:    -6.420      0.000      0.000
REMARK INTER + INTRA:         -11.409
REMARK INTER:                 -10.549
REMARK INTRA:                  -0.860
REMARK UNBOUND:                -0.860
REMARK SMILES CCCCC[C@H](O)CC(=O)CCc1ccc(O)c(OC)c1
REMARK SMILES IDX 8 1 6 2 7 3 5 5 4 6 3 7 2 8 1 9 9 10 10 11 11 12 12 13 13 14
REMARK SMILES IDX 21 15 14 16 18 17 15 18 16 19 19 20 20 21 17 22
REMARK H PARENT 7 4 17 23
REMARK Flexibility Score: inf
ROOT
ATOM      1  C   UNL     1      90.936  95.492  76.730  1.00  0.00     0.107 C 
ENDROOT
BRANCH   1   2
ATOM      2  C   UNL     1      89.833  94.484  76.398  1.00  0.00     0.121 C 
BRANCH   2   3
ATOM      3  O   UNL     1      89.600  94.469  74.992  1.00  0.00    -0.393 OA
ATOM      4  H   UNL     1      89.077  93.674  74.786  1.00  0.00     0.210 HD
ENDBRANCH   2   3
BRANCH   2   5
ATOM      5  C   UNL     1      90.158  93.062  76.871  1.00  0.00     0.032 C 
BRANCH   5   6
ATOM      6  C   UNL     1      90.223  92.067  75.706  1.00  0.00     0.003 C 
BRANCH   6   7
ATOM      7  C   UNL     1      89.473  90.760  75.982  1.00  0.00    -0.000 C 
BRANCH   7   8
ATOM      8  C   UNL     1      89.624  89.722  74.872  1.00  0.00    -0.003 C 
ATOM      9  C   UNL     1      90.747  90.092  73.916  1.00  0.00     0.004 C 
ENDBRANCH   7   8
ENDBRANCH   6   7
ENDBRANCH   5   6
ENDBRANCH   2   5
ENDBRANCH   1   2
BRANCH   1  10
ATOM     10  C   UNL     1      92.258  95.174  76.051  1.00  0.00     0.135 C 
ATOM     11  O   UNL     1      92.302  94.885  74.855  1.00  0.00    -0.300 OA
BRANCH  10  12
ATOM     12  C   UNL     1      93.509  95.278  76.910  1.00  0.00     0.080 C 
BRANCH  12  13
ATOM     13  C   UNL     1      93.715  96.661  77.531  1.00  0.00     0.043 C 
BRANCH  13  14
ATOM     14  C   UNL     1      94.762  96.671  78.620  1.00  0.00    -0.044 A 
ATOM     15  C   UNL     1      95.250  97.883  79.108  1.00  0.00     0.054 A 
ATOM     16  C   UNL     1      95.241  95.467  79.137  1.00  0.00     0.008 A 
ATOM     17  C   UNL     1      96.216  97.891  80.114  1.00  0.00     0.160 A 
ATOM     18  C   UNL     1      96.207  95.475  80.143  1.00  0.00     0.050 A 
ATOM     19  C   UNL     1      96.695  96.687  80.631  1.00  0.00     0.157 A 
BRANCH  17  20
ATOM     20  O   UNL     1      96.685  99.081  80.583  1.00  0.00    -0.493 OA
ATOM     21  C   UNL     1      95.937  99.709  81.622  1.00  0.00     0.278 C 
ENDBRANCH  17  20
BRANCH  19  22
ATOM     22  O   UNL     1      97.638  96.682  81.614  1.00  0.00    -0.504 OA
ATOM     23  H   UNL     1      97.337  97.248  82.345  1.00  0.00     0.293 HD
ENDBRANCH  19  22
ENDBRANCH  13  14
ENDBRANCH  12  13
ENDBRANCH  10  12
ENDBRANCH   1  10
TORSDOF 12
ENDMDL
MODEL 2
REMARK VINA RESULT:    -6.310     13.218     16.073
REMARK INTER + INTRA:         -11.228
REMARK INTER:                 -10.445
REMARK INTRA:                  -0.784
REMARK UNBOUND:                -0.860
REMARK SMILES CCCCC[C@H](O)CC(=O)CCc1ccc(O)c(OC)c1
REMARK SMILES IDX 8 1 6 2 7 3 5 5 4 6 3 7 2 8 1 9 9 10 10 11 11 12 12 13 13 14
REMARK SMILES IDX 21 15 14 16 18 17 15 18 16 19 19 20 20 21 17 22
REMARK H PARENT 7 4 17 23
REMARK Flexibility Score: inf
ROOT
ATOM      1  C   UNL     1      94.517  82.216  84.336  1.00  0.00     0.107 C 
ENDROOT
BRANCH   1   2
ATOM      2  C   UNL     1      95.261  83.530  84.087  1.00  0.00     0.121 C 
BRANCH   2   3
ATOM      3  O   UNL     1      96.114  83.820  85.192  1.00  0.00    -0.393 OA
ATOM      4  H   UNL     1      96.408  82.973  85.570  1.00  0.00     0.210 HD
ENDBRANCH   2   3
BRANCH   2   5
ATOM      5  C   UNL     1      96.092  83.515  82.798  1.00  0.00     0.032 C 
BRANCH   5   6
ATOM      6  C   UNL     1      96.559  82.101  82.430  1.00  0.00     0.003 C 
BRANCH   6   7
ATOM      7  C   UNL     1      96.985  81.966  80.965  1.00  0.00    -0.000 C 
BRANCH   7   8
ATOM      8  C   UNL     1      97.338  83.297  80.304  1.00  0.00    -0.003 C 
ATOM      9  C   UNL     1      96.667  83.437  78.947  1.00  0.00     0.004 C 
ENDBRANCH   7   8
ENDBRANCH   6   7
ENDBRANCH   5   6
ENDBRANCH   2   5
ENDBRANCH   1   2
BRANCH   1  10
ATOM     10  C   UNL     1      93.630  82.258  85.570  1.00  0.00     0.135 C 
ATOM     11  O   UNL     1      94.118  82.257  86.700  1.00  0.00    -0.300 OA
BRANCH  10  12
ATOM     12  C   UNL     1      92.131  82.345  85.329  1.00  0.00     0.080 C 
BRANCH  12  13
ATOM     13  C   UNL     1      91.603  81.299  84.345  1.00  0.00     0.043 C 
BRANCH  13  14
ATOM     14  C   UNL     1      90.104  81.352  84.173  1.00  0.00    -0.044 A 
ATOM     15  C   UNL     1      89.423  82.557  84.345  1.00  0.00     0.054 A 
ATOM     16  C   UNL     1      89.400  80.194  83.842  1.00  0.00     0.008 A 
ATOM     17  C   UNL     1      88.039  82.605  84.184  1.00  0.00     0.160 A 
ATOM     18  C   UNL     1      88.015  80.241  83.681  1.00  0.00     0.050 A 
ATOM     19  C   UNL     1      87.334  81.447  83.853  1.00  0.00     0.157 A 
BRANCH  17  20
ATOM     20  O   UNL     1      87.385  83.788  84.355  1.00  0.00    -0.493 OA
ATOM     21  C   UNL     1      86.877  84.065  85.659  1.00  0.00     0.278 C 
ENDBRANCH  17  20
BRANCH  19  22
ATOM     22  O   UNL     1      85.982  81.481  83.694  1.00  0.00    -0.504 OA
ATOM     23  H   UNL     1      85.651  80.571  83.600  1.00  0.00     0.293 HD
ENDBRANCH  19  22
ENDBRANCH  13  14
ENDBRANCH  12  13
ENDBRANCH  10  12
ENDBRANCH   1  10
TORSDOF 12
ENDMDL
MODEL 3
REMARK VINA RESULT:    -6.163     13.003     16.081
REMARK INTER + INTRA:         -10.986
REMARK INTER:                 -10.265
REMARK INTRA:                  -0.721
REMARK UNBOUND:                -0.860
REMARK SMILES CCCCC[C@H](O)CC(=O)CCc1ccc(O)c(OC)c1
REMARK SMILES IDX 8 1 6 2 7 3 5 5 4 6 3 7 2 8 1 9 9 10 10 11 11 12 12 13 13 14
REMARK SMILES IDX 21 15 14 16 18 17 15 18 16 19 19 20 20 21 17 22
REMARK H PARENT 7 4 17 23
REMARK Flexibility Score: inf
ROOT
ATOM      1  C   UNL     1      96.086  81.404  83.278  1.00  0.00     0.107 C 
ENDROOT
BRANCH   1   2
ATOM      2  C   UNL     1      96.541  82.196  82.049  1.00  0.00     0.121 C 
BRANCH   2   3
ATOM      3  O   UNL     1      97.065  83.459  82.455  1.00  0.00    -0.393 OA
ATOM      4  H   UNL     1      97.148  83.449  83.424  1.00  0.00     0.210 HD
ENDBRANCH   2   3
BRANCH   2   5
ATOM      5  C   UNL     1      97.594  81.457  81.215  1.00  0.00     0.032 C 
BRANCH   5   6
ATOM      6  C   UNL     1      98.241  82.369  80.164  1.00  0.00     0.003 C 
BRANCH   6   7
ATOM      7  C   UNL     1      97.524  82.337  78.810  1.00  0.00    -0.000 C 
BRANCH   7   8
ATOM      8  C   UNL     1      96.651  83.563  78.551  1.00  0.00    -0.003 C 
ATOM      9  C   UNL     1      96.649  83.941  77.078  1.00  0.00     0.004 C 
ENDBRANCH   7   8
ENDBRANCH   6   7
ENDBRANCH   5   6
ENDBRANCH   2   5
ENDBRANCH   1   2
BRANCH   1  10
ATOM     10  C   UNL     1      95.019  82.122  84.088  1.00  0.00     0.135 C 
ATOM     11  O   UNL     1      95.188  83.280  84.471  1.00  0.00    -0.300 OA
BRANCH  10  12
ATOM     12  C   UNL     1      93.733  81.355  84.353  1.00  0.00     0.080 C 
BRANCH  12  13
ATOM     13  C   UNL     1      92.504  82.251  84.512  1.00  0.00     0.043 C 
BRANCH  13  14
ATOM     14  C   UNL     1      91.201  81.495  84.396  1.00  0.00    -0.044 A 
ATOM     15  C   UNL     1      89.990  82.158  84.594  1.00  0.00     0.054 A 
ATOM     16  C   UNL     1      91.211  80.134  84.092  1.00  0.00     0.008 A 
ATOM     17  C   UNL     1      88.788  81.458  84.487  1.00  0.00     0.160 A 
ATOM     18  C   UNL     1      90.008  79.434  83.984  1.00  0.00     0.050 A 
ATOM     19  C   UNL     1      88.797  80.097  84.182  1.00  0.00     0.157 A 
BRANCH  17  20
ATOM     20  O   UNL     1      87.611  82.116  84.683  1.00  0.00    -0.493 OA
ATOM     21  C   UNL     1      87.377  83.277  83.888  1.00  0.00     0.278 C 
ENDBRANCH  17  20
BRANCH  19  22
ATOM     22  O   UNL     1      87.629  79.404  84.075  1.00  0.00    -0.504 OA
ATOM     23  H   UNL     1      87.205  79.627  83.228  1.00  0.00     0.293 HD
ENDBRANCH  19  22
ENDBRANCH  13  14
ENDBRANCH  12  13
ENDBRANCH  10  12
ENDBRANCH   1  10
TORSDOF 12
ENDMDL
MODEL 4
REMARK VINA RESULT:    -6.062     12.022     14.354
REMARK INTER + INTRA:         -10.820
REMARK INTER:                 -10.091
REMARK INTRA:                  -0.729
REMARK UNBOUND:                -0.860
REMARK SMILES CCCCC[C@H](O)CC(=O)CCc1ccc(O)c(OC)c1
REMARK SMILES IDX 8 1 6 2 7 3 5 5 4 6 3 7 2 8 1 9 9 10 10 11 11 12 12 13 13 14
REMARK SMILES IDX 21 15 14 16 18 17 15 18 16 19 19 20 20 21 17 22
REMARK H PARENT 7 4 17 23
REMARK Flexibility Score: inf
ROOT
ATOM      1  C   UNL     1      96.255  83.588  82.366  1.00  0.00     0.107 C 
ENDROOT
BRANCH   1   2
ATOM      2  C   UNL     1      95.638  83.668  83.764  1.00  0.00     0.121 C 
BRANCH   2   3
ATOM      3  O   UNL     1      95.154  84.987  84.004  1.00  0.00    -0.393 OA
ATOM      4  H   UNL     1      94.337  85.103  83.488  1.00  0.00     0.210 HD
ENDBRANCH   2   3
BRANCH   2   5
ATOM      5  C   UNL     1      94.497  82.665  83.975  1.00  0.00     0.032 C 
BRANCH   5   6
ATOM      6  C   UNL     1      93.529  83.117  85.075  1.00  0.00     0.003 C 
BRANCH   6   7
ATOM      7  C   UNL     1      92.135  82.494  84.948  1.00  0.00    -0.000 C 
BRANCH   7   8
ATOM      8  C   UNL     1      92.145  81.084  84.361  1.00  0.00    -0.003 C 
ATOM      9  C   UNL     1      90.848  80.778  83.629  1.00  0.00     0.004 C 
ENDBRANCH   7   8
ENDBRANCH   6   7
ENDBRANCH   5   6
ENDBRANCH   2   5
ENDBRANCH   1   2
BRANCH   1  10
ATOM     10  C   UNL     1      97.211  82.417  82.202  1.00  0.00     0.135 C 
ATOM     11  O   UNL     1      97.857  81.990  83.158  1.00  0.00    -0.300 OA
BRANCH  10  12
ATOM     12  C   UNL     1      97.287  81.786  80.820  1.00  0.00     0.080 C 
BRANCH  12  13
ATOM     13  C   UNL     1      98.367  82.396  79.924  1.00  0.00     0.043 C 
BRANCH  13  14
ATOM     14  C   UNL     1      97.810  83.021  78.667  1.00  0.00    -0.044 A 
ATOM     15  C   UNL     1      98.559  83.011  77.491  1.00  0.00     0.054 A 
ATOM     16  C   UNL     1      96.545  83.610  78.684  1.00  0.00     0.008 A 
ATOM     17  C   UNL     1      98.043  83.589  76.331  1.00  0.00     0.160 A 
ATOM     18  C   UNL     1      96.029  84.188  77.524  1.00  0.00     0.050 A 
ATOM     19  C   UNL     1      96.778  84.177  76.347  1.00  0.00     0.157 A 
BRANCH  17  20
ATOM     20  O   UNL     1      98.785  83.573  75.188  1.00  0.00    -0.493 OA
ATOM     21  C   UNL     1      99.574  82.410  74.943  1.00  0.00     0.278 C 
ENDBRANCH  17  20
BRANCH  19  22
ATOM     22  O   UNL     1      96.264  84.744  75.221  1.00  0.00    -0.504 OA
ATOM     23  H   UNL     1      95.515  84.208  74.910  1.00  0.00     0.293 HD
ENDBRANCH  19  22
ENDBRANCH  13  14
ENDBRANCH  12  13
ENDBRANCH  10  12
ENDBRANCH   1  10
TORSDOF 12
ENDMDL
MODEL 5
REMARK VINA RESULT:    -5.973     12.405     13.939
REMARK INTER + INTRA:         -10.675
REMARK INTER:                  -9.775
REMARK INTRA:                  -0.900
REMARK UNBOUND:                -0.860
REMARK SMILES CCCCC[C@H](O)CC(=O)CCc1ccc(O)c(OC)c1
REMARK SMILES IDX 8 1 6 2 7 3 5 5 4 6 3 7 2 8 1 9 9 10 10 11 11 12 12 13 13 14
REMARK SMILES IDX 21 15 14 16 18 17 15 18 16 19 19 20 20 21 17 22
REMARK H PARENT 7 4 17 23
REMARK Flexibility Score: inf
ROOT
ATOM      1  C   UNL     1      98.350  83.878  75.847  1.00  0.00     0.107 C 
ENDROOT
BRANCH   1   2
ATOM      2  C   UNL     1      98.099  83.385  74.420  1.00  0.00     0.121 C 
BRANCH   2   3
ATOM      3  O   UNL     1      96.889  83.949  73.919  1.00  0.00    -0.393 OA
ATOM      4  H   UNL     1      96.631  83.444  73.128  1.00  0.00     0.210 HD
ENDBRANCH   2   3
BRANCH   2   5
ATOM      5  C   UNL     1      99.247  83.719  73.459  1.00  0.00     0.032 C 
BRANCH   5   6
ATOM      6  C   UNL     1      99.076  85.100  72.815  1.00  0.00     0.003 C 
BRANCH   6   7
ATOM      7  C   UNL     1     100.119  86.120  73.284  1.00  0.00    -0.000 C 
BRANCH   7   8
ATOM      8  C   UNL     1     101.459  85.495  73.666  1.00  0.00    -0.003 C 
ATOM      9  C   UNL     1     101.883  85.906  75.068  1.00  0.00     0.004 C 
ENDBRANCH   7   8
ENDBRANCH   6   7
ENDBRANCH   5   6
ENDBRANCH   2   5
ENDBRANCH   1   2
BRANCH   1  10
ATOM     10  C   UNL     1      97.076  84.006  76.666  1.00  0.00     0.135 C 
ATOM     11  O   UNL     1      96.231  84.859  76.394  1.00  0.00    -0.300 OA
BRANCH  10  12
ATOM     12  C   UNL     1      96.887  83.004  77.794  1.00  0.00     0.080 C 
BRANCH  12  13
ATOM     13  C   UNL     1      97.704  83.327  79.047  1.00  0.00     0.043 C 
BRANCH  13  14
ATOM     14  C   UNL     1      97.255  82.552  80.263  1.00  0.00    -0.044 A 
ATOM     15  C   UNL     1      96.691  83.223  81.348  1.00  0.00     0.054 A 
ATOM     16  C   UNL     1      97.403  81.165  80.300  1.00  0.00     0.008 A 
ATOM     17  C   UNL     1      96.275  82.506  82.471  1.00  0.00     0.160 A 
ATOM     18  C   UNL     1      96.988  80.449  81.423  1.00  0.00     0.050 A 
ATOM     19  C   UNL     1      96.424  81.119  82.508  1.00  0.00     0.157 A 
BRANCH  17  20
ATOM     20  O   UNL     1      95.727  83.172  83.525  1.00  0.00    -0.493 OA
ATOM     21  C   UNL     1      96.570  84.087  84.224  1.00  0.00     0.278 C 
ENDBRANCH  17  20
BRANCH  19  22
ATOM     22  O   UNL     1      96.022  80.409  83.598  1.00  0.00    -0.504 OA
ATOM     23  H   UNL     1      95.268  80.863  84.012  1.00  0.00     0.293 HD
ENDBRANCH  19  22
ENDBRANCH  13  14
ENDBRANCH  12  13
ENDBRANCH  10  12
ENDBRANCH   1  10
TORSDOF 12
ENDMDL
MODEL 6
REMARK VINA RESULT:    -5.953     28.131     32.368
REMARK INTER + INTRA:         -10.641
REMARK INTER:                  -9.810
REMARK INTRA:                  -0.831
REMARK UNBOUND:                -0.860
REMARK SMILES CCCCC[C@H](O)CC(=O)CCc1ccc(O)c(OC)c1
REMARK SMILES IDX 8 1 6 2 7 3 5 5 4 6 3 7 2 8 1 9 9 10 10 11 11 12 12 13 13 14
REMARK SMILES IDX 21 15 14 16 18 17 15 18 16 19 19 20 20 21 17 22
REMARK H PARENT 7 4 17 23
REMARK Flexibility Score: inf
ROOT
ATOM      1  C   UNL     1      79.095  65.354  70.091  1.00  0.00     0.107 C 
ENDROOT
BRANCH   1   2
ATOM      2  C   UNL     1      79.194  64.324  68.962  1.00  0.00     0.121 C 
BRANCH   2   3
ATOM      3  O   UNL     1      80.186  63.352  69.281  1.00  0.00    -0.393 OA
ATOM      4  H   UNL     1      79.779  62.693  69.870  1.00  0.00     0.210 HD
ENDBRANCH   2   3
BRANCH   2   5
ATOM      5  C   UNL     1      77.864  63.615  68.679  1.00  0.00     0.032 C 
BRANCH   5   6
ATOM      6  C   UNL     1      77.517  63.617  67.185  1.00  0.00     0.003 C 
BRANCH   6   7
ATOM      7  C   UNL     1      76.033  63.882  66.908  1.00  0.00    -0.000 C 
BRANCH   7   8
ATOM      8  C   UNL     1      75.156  63.813  68.156  1.00  0.00    -0.003 C 
ATOM      9  C   UNL     1      74.549  65.169  68.484  1.00  0.00     0.004 C 
ENDBRANCH   7   8
ENDBRANCH   6   7
ENDBRANCH   5   6
ENDBRANCH   2   5
ENDBRANCH   1   2
BRANCH   1  10
ATOM     10  C   UNL     1      80.451  65.839  70.575  1.00  0.00     0.135 C 
ATOM     11  O   UNL     1      81.332  66.157  69.776  1.00  0.00    -0.300 OA
BRANCH  10  12
ATOM     12  C   UNL     1      80.638  65.951  72.081  1.00  0.00     0.080 C 
BRANCH  12  13
ATOM     13  C   UNL     1      81.873  65.215  72.604  1.00  0.00     0.043 C 
BRANCH  13  14
ATOM     14  C   UNL     1      82.818  66.113  73.366  1.00  0.00    -0.044 A 
ATOM     15  C   UNL     1      83.394  67.216  72.735  1.00  0.00     0.054 A 
ATOM     16  C   UNL     1      83.115  65.839  74.701  1.00  0.00     0.008 A 
ATOM     17  C   UNL     1      84.267  68.045  73.440  1.00  0.00     0.160 A 
ATOM     18  C   UNL     1      83.987  66.669  75.407  1.00  0.00     0.050 A 
ATOM     19  C   UNL     1      84.563  67.771  74.776  1.00  0.00     0.157 A 
BRANCH  17  20
ATOM     20  O   UNL     1      84.824  69.118  72.814  1.00  0.00    -0.493 OA
ATOM     21  C   UNL     1      85.999  68.880  72.041  1.00  0.00     0.278 C 
ENDBRANCH  17  20
BRANCH  19  22
ATOM     22  O   UNL     1      85.413  68.573  75.475  1.00  0.00    -0.504 OA
ATOM     23  H   UNL     1      85.547  68.197  76.362  1.00  0.00     0.293 HD
ENDBRANCH  19  22
ENDBRANCH  13  14
ENDBRANCH  12  13
ENDBRANCH  10  12
ENDBRANCH   1  10
TORSDOF 12
ENDMDL
MODEL 7
REMARK VINA RESULT:    -5.744     12.377     14.987
REMARK INTER + INTRA:         -10.297
REMARK INTER:                  -9.216
REMARK INTRA:                  -1.081
REMARK UNBOUND:                -0.860
REMARK SMILES CCCCC[C@H](O)CC(=O)CCc1ccc(O)c(OC)c1
REMARK SMILES IDX 8 1 6 2 7 3 5 5 4 6 3 7 2 8 1 9 9 10 10 11 11 12 12 13 13 14
REMARK SMILES IDX 21 15 14 16 18 17 15 18 16 19 19 20 20 21 17 22
REMARK H PARENT 7 4 17 23
REMARK Flexibility Score: inf
ROOT
ATOM      1  C   UNL     1      98.333  83.955  75.731  1.00  0.00     0.107 C 
ENDROOT
BRANCH   1   2
ATOM      2  C   UNL     1      98.162  83.284  74.366  1.00  0.00     0.121 C 
BRANCH   2   3
ATOM      3  O   UNL     1      96.891  83.622  73.817  1.00  0.00    -0.393 OA
ATOM      4  H   UNL     1      96.666  82.949  73.150  1.00  0.00     0.210 HD
ENDBRANCH   2   3
BRANCH   2   5
ATOM      5  C   UNL     1      99.261  83.667  73.367  1.00  0.00     0.032 C 
BRANCH   5   6
ATOM      6  C   UNL     1      99.060  85.078  72.802  1.00  0.00     0.003 C 
BRANCH   6   7
ATOM      7  C   UNL     1     100.151  86.065  73.231  1.00  0.00    -0.000 C 
BRANCH   7   8
ATOM      8  C   UNL     1     101.452  85.389  73.661  1.00  0.00    -0.003 C 
ATOM      9  C   UNL     1     101.924  85.903  75.012  1.00  0.00     0.004 C 
ENDBRANCH   7   8
ENDBRANCH   6   7
ENDBRANCH   5   6
ENDBRANCH   2   5
ENDBRANCH   1   2
BRANCH   1  10
ATOM     10  C   UNL     1      97.011  84.328  76.381  1.00  0.00     0.135 C 
ATOM     11  O   UNL     1      96.301  85.216  75.907  1.00  0.00    -0.300 OA
BRANCH  10  12
ATOM     12  C   UNL     1      96.600  83.523  77.604  1.00  0.00     0.080 C 
BRANCH  12  13
ATOM     13  C   UNL     1      97.728  83.329  78.620  1.00  0.00     0.043 C 
BRANCH  13  14
ATOM     14  C   UNL     1      97.611  82.039  79.395  1.00  0.00    -0.044 A 
ATOM     15  C   UNL     1      97.998  80.834  78.809  1.00  0.00     0.054 A 
ATOM     16  C   UNL     1      97.114  82.052  80.699  1.00  0.00     0.008 A 
ATOM     17  C   UNL     1      97.891  79.643  79.527  1.00  0.00     0.160 A 
ATOM     18  C   UNL     1      97.007  80.861  81.417  1.00  0.00     0.050 A 
ATOM     19  C   UNL     1      97.394  79.656  80.830  1.00  0.00     0.157 A 
BRANCH  17  20
ATOM     20  O   UNL     1      98.272  78.472  78.943  1.00  0.00    -0.493 OA
ATOM     21  C   UNL     1      97.537  78.051  77.795  1.00  0.00     0.278 C 
ENDBRANCH  17  20
BRANCH  19  22
ATOM     22  O   UNL     1      97.284  78.500  81.541  1.00  0.00    -0.504 OA
ATOM     23  H   UNL     1      97.367  78.701  82.489  1.00  0.00     0.293 HD
ENDBRANCH  19  22
ENDBRANCH  13  14
ENDBRANCH  12  13
ENDBRANCH  10  12
ENDBRANCH   1  10
TORSDOF 12
ENDMDL
MODEL 8
REMARK VINA RESULT:    -5.742      3.552      5.554
REMARK INTER + INTRA:         -10.294
REMARK INTER:                  -9.470
REMARK INTRA:                  -0.824
REMARK UNBOUND:                -0.860
REMARK SMILES CCCCC[C@H](O)CC(=O)CCc1ccc(O)c(OC)c1
REMARK SMILES IDX 8 1 6 2 7 3 5 5 4 6 3 7 2 8 1 9 9 10 10 11 11 12 12 13 13 14
REMARK SMILES IDX 21 15 14 16 18 17 15 18 16 19 19 20 20 21 17 22
REMARK H PARENT 7 4 17 23
REMARK Flexibility Score: inf
ROOT
ATOM      1  C   UNL     1      92.024  95.230  77.475  1.00  0.00     0.107 C 
ENDROOT
BRANCH   1   2
ATOM      2  C   UNL     1      90.840  95.340  76.511  1.00  0.00     0.121 C 
BRANCH   2   3
ATOM      3  O   UNL     1      91.296  95.206  75.167  1.00  0.00    -0.393 OA
ATOM      4  H   UNL     1      91.666  96.063  74.891  1.00  0.00     0.210 HD
ENDBRANCH   2   3
BRANCH   2   5
ATOM      5  C   UNL     1      89.748  94.298  76.779  1.00  0.00     0.032 C 
BRANCH   5   6
ATOM      6  C   UNL     1      90.282  92.864  76.675  1.00  0.00     0.003 C 
BRANCH   6   7
ATOM      7  C   UNL     1      90.004  92.211  75.317  1.00  0.00    -0.000 C 
BRANCH   7   8
ATOM      8  C   UNL     1      89.543  90.758  75.420  1.00  0.00    -0.003 C 
ATOM      9  C   UNL     1      90.249  89.879  74.399  1.00  0.00     0.004 C 
ENDBRANCH   7   8
ENDBRANCH   6   7
ENDBRANCH   5   6
ENDBRANCH   2   5
ENDBRANCH   1   2
BRANCH   1  10
ATOM     10  C   UNL     1      93.353  95.587  76.829  1.00  0.00     0.135 C 
ATOM     11  O   UNL     1      94.001  94.744  76.209  1.00  0.00    -0.300 OA
BRANCH  10  12
ATOM     12  C   UNL     1      93.804  97.034  76.953  1.00  0.00     0.080 C 
BRANCH  12  13
ATOM     13  C   UNL     1      95.133  97.326  76.252  1.00  0.00     0.043 C 
BRANCH  13  14
ATOM     14  C   UNL     1      94.959  97.994  74.909  1.00  0.00    -0.044 A 
ATOM     15  C   UNL     1      95.309  97.316  73.742  1.00  0.00     0.054 A 
ATOM     16  C   UNL     1      94.449  99.291  74.837  1.00  0.00     0.008 A 
ATOM     17  C   UNL     1      95.147  97.934  72.502  1.00  0.00     0.160 A 
ATOM     18  C   UNL     1      94.287  99.909  73.597  1.00  0.00     0.050 A 
ATOM     19  C   UNL     1      94.637  99.230  72.429  1.00  0.00     0.157 A 
BRANCH  17  20
ATOM     20  O   UNL     1      95.493  97.262  71.368  1.00  0.00    -0.493 OA
ATOM     21  C   UNL     1      96.875  97.255  71.014  1.00  0.00     0.278 C 
ENDBRANCH  17  20
BRANCH  19  22
ATOM     22  O   UNL     1      94.475  99.844  71.224  1.00  0.00    -0.504 OA
ATOM     23  H   UNL     1      95.350 100.035  70.846  1.00  0.00     0.293 HD
ENDBRANCH  19  22
ENDBRANCH  13  14
ENDBRANCH  12  13
ENDBRANCH  10  12
ENDBRANCH   1  10
TORSDOF 12
ENDMDL
MODEL 9
REMARK VINA RESULT:    -5.693     12.754     14.815
REMARK INTER + INTRA:         -10.214
REMARK INTER:                  -8.605
REMARK INTRA:                  -1.609
REMARK UNBOUND:                -0.860
REMARK SMILES CCCCC[C@H](O)CC(=O)CCc1ccc(O)c(OC)c1
REMARK SMILES IDX 8 1 6 2 7 3 5 5 4 6 3 7 2 8 1 9 9 10 10 11 11 12 12 13 13 14
REMARK SMILES IDX 21 15 14 16 18 17 15 18 16 19 19 20 20 21 17 22
REMARK H PARENT 7 4 17 23
REMARK Flexibility Score: inf
ROOT
ATOM      1  C   UNL     1      97.787  82.594  76.415  1.00  0.00     0.107 C 
ENDROOT
BRANCH   1   2
ATOM      2  C   UNL     1      98.785  83.085  75.364  1.00  0.00     0.121 C 
BRANCH   2   3
ATOM      3  O   UNL     1      99.236  84.396  75.700  1.00  0.00    -0.393 OA
ATOM      4  H   UNL     1      99.855  84.315  76.446  1.00  0.00     0.210 HD
ENDBRANCH   2   3
BRANCH   2   5
ATOM      5  C   UNL     1      99.998  82.159  75.209  1.00  0.00     0.032 C 
BRANCH   5   6
ATOM      6  C   UNL     1     101.009  82.338  76.348  1.00  0.00     0.003 C 
BRANCH   6   7
ATOM      7  C   UNL     1     101.470  81.012  76.962  1.00  0.00    -0.000 C 
BRANCH   7   8
ATOM      8  C   UNL     1     100.635  80.571  78.163  1.00  0.00    -0.003 C 
ATOM      9  C   UNL     1     100.914  81.438  79.381  1.00  0.00     0.004 C 
ENDBRANCH   7   8
ENDBRANCH   6   7
ENDBRANCH   5   6
ENDBRANCH   2   5
ENDBRANCH   1   2
BRANCH   1  10
ATOM     10  C   UNL     1      96.851  83.687  76.904  1.00  0.00     0.135 C 
ATOM     11  O   UNL     1      96.373  84.509  76.122  1.00  0.00    -0.300 OA
BRANCH  10  12
ATOM     12  C   UNL     1      96.509  83.679  78.386  1.00  0.00     0.080 C 
BRANCH  12  13
ATOM     13  C   UNL     1      97.695  83.337  79.289  1.00  0.00     0.043 C 
BRANCH  13  14
ATOM     14  C   UNL     1      97.340  82.367  80.392  1.00  0.00    -0.044 A 
ATOM     15  C   UNL     1      96.930  82.845  81.636  1.00  0.00     0.054 A 
ATOM     16  C   UNL     1      97.421  80.993  80.164  1.00  0.00     0.008 A 
ATOM     17  C   UNL     1      96.601  81.949  82.653  1.00  0.00     0.160 A 
ATOM     18  C   UNL     1      97.092  80.097  81.181  1.00  0.00     0.050 A 
ATOM     19  C   UNL     1      96.683  80.575  82.426  1.00  0.00     0.157 A 
BRANCH  17  20
ATOM     20  O   UNL     1      96.203  82.428  83.865  1.00  0.00    -0.493 OA
ATOM     21  C   UNL     1      95.373  83.588  83.862  1.00  0.00     0.278 C 
ENDBRANCH  17  20
BRANCH  19  22
ATOM     22  O   UNL     1      96.364  79.690  83.411  1.00  0.00    -0.504 OA
ATOM     23  H   UNL     1      96.628  78.797  83.132  1.00  0.00     0.293 HD
ENDBRANCH  19  22
ENDBRANCH  13  14
ENDBRANCH  12  13
ENDBRANCH  10  12
ENDBRANCH   1  10
TORSDOF 12
ENDMDL
MODEL 10
REMARK VINA RESULT:    -5.599     12.575     15.205
REMARK INTER + INTRA:         -10.059
REMARK INTER:                  -8.538
REMARK INTRA:                  -1.521
REMARK UNBOUND:                -0.860
REMARK SMILES CCCCC[C@H](O)CC(=O)CCc1ccc(O)c(OC)c1
REMARK SMILES IDX 8 1 6 2 7 3 5 5 4 6 3 7 2 8 1 9 9 10 10 11 11 12 12 13 13 14
REMARK SMILES IDX 21 15 14 16 18 17 15 18 16 19 19 20 20 21 17 22
REMARK H PARENT 7 4 17 23
REMARK Flexibility Score: inf
ROOT
ATOM      1  C   UNL     1      98.807  80.003  81.557  1.00  0.00     0.107 C 
ENDROOT
BRANCH   1   2
ATOM      2  C   UNL     1      97.851  80.498  82.645  1.00  0.00     0.121 C 
BRANCH   2   3
ATOM      3  O   UNL     1      98.551  81.341  83.557  1.00  0.00    -0.393 OA
ATOM      4  H   UNL     1      98.158  81.217  84.438  1.00  0.00     0.210 HD
ENDBRANCH   2   3
BRANCH   2   5
ATOM      5  C   UNL     1      96.642  81.256  82.083  1.00  0.00     0.032 C 
BRANCH   5   6
ATOM      6  C   UNL     1      96.722  82.760  82.369  1.00  0.00     0.003 C 
BRANCH   6   7
ATOM      7  C   UNL     1      95.618  83.258  83.307  1.00  0.00    -0.000 C 
BRANCH   7   8
ATOM      8  C   UNL     1      95.028  82.163  84.194  1.00  0.00    -0.003 C 
ATOM      9  C   UNL     1      93.510  82.248  84.244  1.00  0.00     0.004 C 
ENDBRANCH   7   8
ENDBRANCH   6   7
ENDBRANCH   5   6
ENDBRANCH   2   5
ENDBRANCH   1   2
BRANCH   1  10
ATOM     10  C   UNL     1      99.909  80.999  81.234  1.00  0.00     0.135 C 
ATOM     11  O   UNL     1     100.899  81.104  81.958  1.00  0.00    -0.300 OA
BRANCH  10  12
ATOM     12  C   UNL     1      99.741  81.813  79.960  1.00  0.00     0.080 C 
BRANCH  12  13
ATOM     13  C   UNL     1      98.686  81.250  79.005  1.00  0.00     0.043 C 
BRANCH  13  14
ATOM     14  C   UNL     1      98.019  82.313  78.166  1.00  0.00    -0.044 A 
ATOM     15  C   UNL     1      98.548  82.655  76.922  1.00  0.00     0.054 A 
ATOM     16  C   UNL     1      96.872  82.954  78.636  1.00  0.00     0.008 A 
ATOM     17  C   UNL     1      97.930  83.637  76.148  1.00  0.00     0.160 A 
ATOM     18  C   UNL     1      96.254  83.936  77.862  1.00  0.00     0.050 A 
ATOM     19  C   UNL     1      96.784  84.278  76.618  1.00  0.00     0.157 A 
BRANCH  17  20
ATOM     20  O   UNL     1      98.457  83.964  74.934  1.00  0.00    -0.493 OA
ATOM     21  C   UNL     1      98.947  82.891  74.131  1.00  0.00     0.278 C 
ENDBRANCH  17  20
BRANCH  19  22
ATOM     22  O   UNL     1      96.171  85.238  75.871  1.00  0.00    -0.504 OA
ATOM     23  H   UNL     1      95.244  85.316  76.153  1.00  0.00     0.293 HD
ENDBRANCH  19  22
ENDBRANCH  13  14
ENDBRANCH  12  13
ENDBRANCH  10  12
ENDBRANCH   1  10
TORSDOF 12
ENDMDL
