MODEL 1
REMARK VINA RESULT:    -6.412      0.000      0.000
REMARK INTER + INTRA:         -11.700
REMARK INTER:                 -10.348
REMARK INTRA:                  -1.351
REMARK UNBOUND:                -1.351
REMARK SMILES CCCCCCCCC(=O)NCc1ccc(O)c(OC)c1
REMARK SMILES IDX 7 1 6 2 5 3 4 4 3 5 2 6 1 7 8 8 9 9 10 10 11 11 12 13 13 14
REMARK SMILES IDX 21 15 14 16 18 17 15 18 16 19 19 20 20 21 17 22
REMARK H PARENT 11 12 17 23
REMARK Flexibility Score: inf
ROOT
ATOM      1  C   UNL     1      92.093  93.056  77.464  1.00  0.00     0.010 C 
ENDROOT
BRANCH   1   2
ATOM      2  C   UNL     1      90.630  93.446  77.106  1.00  0.00     0.001 C 
BRANCH   2   3
ATOM      3  C   UNL     1      89.667  92.224  77.151  1.00  0.00     0.000 C 
BRANCH   3   4
ATOM      4  C   UNL     1      90.396  90.851  77.175  1.00  0.00    -0.000 C 
BRANCH   4   5
ATOM      5  C   UNL     1      90.004  89.984  78.405  1.00  0.00    -0.000 C 
BRANCH   5   6
ATOM      6  C   UNL     1      90.398  90.648  79.752  1.00  0.00    -0.003 C 
ATOM      7  C   UNL     1      90.568  89.626  80.898  1.00  0.00     0.004 C 
ENDBRANCH   5   6
ENDBRANCH   4   5
ENDBRANCH   3   4
ENDBRANCH   2   3
ENDBRANCH   1   2
BRANCH   1   8
ATOM      8  C   UNL     1      93.139  93.485  76.398  1.00  0.00     0.100 C 
BRANCH   8   9
ATOM      9  C   UNL     1      92.624  93.276  75.023  1.00  0.00     0.220 C 
ATOM     10  O   UNL     1      92.365  94.285  74.324  1.00  0.00    -0.275 OA
ATOM     11  N   UNL     1      92.467  92.014  74.525  1.00  0.00    -0.352 N 
ATOM     12  H   UNL     1      92.622  91.278  75.198  1.00  0.00     0.163 HD
BRANCH  11  13
ATOM     13  C   UNL     1      92.117  91.685  73.178  1.00  0.00     0.151 C 
BRANCH  13  14
ATOM     14  C   UNL     1      90.696  91.277  73.008  1.00  0.00    -0.025 A 
ATOM     15  C   UNL     1      90.201  90.129  73.670  1.00  0.00     0.056 A 
ATOM     16  C   UNL     1      89.820  92.022  72.185  1.00  0.00     0.009 A 
ATOM     17  C   UNL     1      88.849  89.739  73.533  1.00  0.00     0.160 A 
ATOM     18  C   UNL     1      88.474  91.640  72.045  1.00  0.00     0.050 A 
ATOM     19  C   UNL     1      87.987  90.498  72.709  1.00  0.00     0.157 A 
BRANCH  17  20
ATOM     20  O   UNL     1      88.381  88.602  74.142  1.00  0.00    -0.493 OA
ATOM     21  C   UNL     1      89.346  87.946  74.983  1.00  0.00     0.278 C 
ENDBRANCH  17  20
BRANCH  19  22
ATOM     22  O   UNL     1      86.693  90.122  72.545  1.00  0.00    -0.504 OA
ATOM     23  H   UNL     1      86.585  89.714  71.683  1.00  0.00     0.293 HD
ENDBRANCH  19  22
ENDBRANCH  13  14
ENDBRANCH  11  13
ENDBRANCH   8   9
ENDBRANCH   1   8
TORSDOF 11
ENDMDL
MODEL 2
REMARK VINA RESULT:    -5.616      4.628      8.609
REMARK INTER + INTRA:         -10.415
REMARK INTER:                  -9.739
REMARK INTRA:                  -0.676
REMARK UNBOUND:                -1.351
REMARK SMILES CCCCCCCCC(=O)NCc1ccc(O)c(OC)c1
REMARK SMILES IDX 7 1 6 2 5 3 4 4 3 5 2 6 1 7 8 8 9 9 10 10 11 11 12 13 13 14
REMARK SMILES IDX 21 15 14 16 18 17 15 18 16 19 19 20 20 21 17 22
REMARK H PARENT 11 12 17 23
REMARK Flexibility Score: inf
ROOT
ATOM      1  C   UNL     1      91.019  92.416  77.600  1.00  0.00     0.010 C 
ENDROOT
BRANCH   1   2
ATOM      2  C   UNL     1      89.756  91.748  76.983  1.00  0.00     0.001 C 
BRANCH   2   3
ATOM      3  C   UNL     1      89.857  91.616  75.434  1.00  0.00     0.000 C 
BRANCH   3   4
ATOM      4  C   UNL     1      89.989  90.149  74.937  1.00  0.00    -0.000 C 
BRANCH   4   5
ATOM      5  C   UNL     1      89.642  89.109  76.040  1.00  0.00    -0.000 C 
BRANCH   5   6
ATOM      6  C   UNL     1      90.774  88.067  76.254  1.00  0.00    -0.003 C 
ATOM      7  C   UNL     1      91.449  87.635  74.933  1.00  0.00     0.004 C 
ENDBRANCH   5   6
ENDBRANCH   4   5
ENDBRANCH   3   4
ENDBRANCH   2   3
ENDBRANCH   1   2
BRANCH   1   8
ATOM      8  C   UNL     1      91.496  93.684  76.838  1.00  0.00     0.100 C 
BRANCH   8   9
ATOM      9  C   UNL     1      92.975  93.734  76.748  1.00  0.00     0.220 C 
ATOM     10  O   UNL     1      93.504  93.676  75.612  1.00  0.00    -0.275 OA
ATOM     11  N   UNL     1      93.735  93.869  77.874  1.00  0.00    -0.352 N 
ATOM     12  H   UNL     1      93.215  93.818  78.738  1.00  0.00     0.163 HD
BRANCH  11  13
ATOM     13  C   UNL     1      95.152  94.069  77.907  1.00  0.00     0.151 C 
BRANCH  13  14
ATOM     14  C   UNL     1      95.666  94.511  79.232  1.00  0.00    -0.025 A 
ATOM     15  C   UNL     1      96.279  95.779  79.371  1.00  0.00     0.056 A 
ATOM     16  C   UNL     1      95.556  93.677  80.368  1.00  0.00     0.009 A 
ATOM     17  C   UNL     1      96.757  96.219  80.627  1.00  0.00     0.160 A 
ATOM     18  C   UNL     1      96.028  94.110  81.621  1.00  0.00     0.050 A 
ATOM     19  C   UNL     1      96.634  95.373  81.753  1.00  0.00     0.157 A 
BRANCH  17  20
ATOM     20  O   UNL     1      97.389  97.430  80.751  1.00  0.00    -0.493 OA
ATOM     21  C   UNL     1      97.877  97.970  79.511  1.00  0.00     0.278 C 
ENDBRANCH  17  20
BRANCH  19  22
ATOM     22  O   UNL     1      97.112  95.771  82.960  1.00  0.00    -0.504 OA
ATOM     23  H   UNL     1      97.641  95.066  83.342  1.00  0.00     0.293 HD
ENDBRANCH  19  22
ENDBRANCH  13  14
ENDBRANCH  11  13
ENDBRANCH   8   9
ENDBRANCH   1   8
TORSDOF 11
ENDMDL
MODEL 3
REMARK VINA RESULT:    -5.567      4.220      8.003
REMARK INTER + INTRA:         -10.335
REMARK INTER:                  -9.659
REMARK INTRA:                  -0.677
REMARK UNBOUND:                -1.351
REMARK SMILES CCCCCCCCC(=O)NCc1ccc(O)c(OC)c1
REMARK SMILES IDX 7 1 6 2 5 3 4 4 3 5 2 6 1 7 8 8 9 9 10 10 11 11 12 13 13 14
REMARK SMILES IDX 21 15 14 16 18 17 15 18 16 19 19 20 20 21 17 22
REMARK H PARENT 11 12 17 23
REMARK Flexibility Score: inf
ROOT
ATOM      1  C   UNL     1      90.876  92.288  77.594  1.00  0.00     0.010 C 
ENDROOT
BRANCH   1   2
ATOM      2  C   UNL     1      89.575  91.643  77.036  1.00  0.00     0.001 C 
BRANCH   2   3
ATOM      3  C   UNL     1      89.739  91.167  75.562  1.00  0.00     0.000 C 
BRANCH   3   4
ATOM      4  C   UNL     1      89.368  89.673  75.342  1.00  0.00    -0.000 C 
BRANCH   4   5
ATOM      5  C   UNL     1      89.792  88.767  76.532  1.00  0.00    -0.000 C 
BRANCH   5   6
ATOM      6  C   UNL     1      91.013  87.870  76.193  1.00  0.00    -0.003 C 
ATOM      7  C   UNL     1      90.960  87.301  74.758  1.00  0.00     0.004 C 
ENDBRANCH   5   6
ENDBRANCH   4   5
ENDBRANCH   3   4
ENDBRANCH   2   3
ENDBRANCH   1   2
BRANCH   1   8
ATOM      8  C   UNL     1      91.298  93.591  76.858  1.00  0.00     0.100 C 
BRANCH   8   9
ATOM      9  C   UNL     1      92.722  93.542  76.448  1.00  0.00     0.220 C 
ATOM     10  O   UNL     1      92.987  93.435  75.226  1.00  0.00    -0.275 OA
ATOM     11  N   UNL     1      93.716  93.641  77.379  1.00  0.00    -0.352 N 
ATOM     12  H   UNL     1      93.394  93.636  78.335  1.00  0.00     0.163 HD
BRANCH  11  13
ATOM     13  C   UNL     1      95.116  93.749  77.099  1.00  0.00     0.151 C 
BRANCH  13  14
ATOM     14  C   UNL     1      95.869  94.551  78.099  1.00  0.00    -0.025 A 
ATOM     15  C   UNL     1      95.950  94.118  79.445  1.00  0.00     0.056 A 
ATOM     16  C   UNL     1      96.510  95.756  77.730  1.00  0.00     0.009 A 
ATOM     17  C   UNL     1      96.677  94.862  80.403  1.00  0.00     0.160 A 
ATOM     18  C   UNL     1      97.236  96.500  78.678  1.00  0.00     0.050 A 
ATOM     19  C   UNL     1      97.315  96.061  80.014  1.00  0.00     0.157 A 
BRANCH  17  20
ATOM     20  O   UNL     1      96.720  94.463  81.715  1.00  0.00    -0.493 OA
ATOM     21  C   UNL     1      95.669  93.555  82.089  1.00  0.00     0.278 C 
ENDBRANCH  17  20
BRANCH  19  22
ATOM     22  O   UNL     1      97.995  96.801  80.928  1.00  0.00    -0.504 OA
ATOM     23  H   UNL     1      97.591  96.691  81.792  1.00  0.00     0.293 HD
ENDBRANCH  19  22
ENDBRANCH  13  14
ENDBRANCH  11  13
ENDBRANCH   8   9
ENDBRANCH   1   8
TORSDOF 11
ENDMDL
MODEL 4
REMARK VINA RESULT:    -5.126     25.150     27.827
REMARK INTER + INTRA:          -9.624
REMARK INTER:                  -9.073
REMARK INTRA:                  -0.551
REMARK UNBOUND:                -1.351
REMARK SMILES CCCCCCCCC(=O)NCc1ccc(O)c(OC)c1
REMARK SMILES IDX 7 1 6 2 5 3 4 4 3 5 2 6 1 7 8 8 9 9 10 10 11 11 12 13 13 14
REMARK SMILES IDX 21 15 14 16 18 17 15 18 16 19 19 20 20 21 17 22
REMARK H PARENT 11 12 17 23
REMARK Flexibility Score: inf
ROOT
ATOM      1  C   UNL     1      64.383  81.693  75.935  1.00  0.00     0.010 C 
ENDROOT
BRANCH   1   2
ATOM      2  C   UNL     1      64.891  80.956  74.663  1.00  0.00     0.001 C 
BRANCH   2   3
ATOM      3  C   UNL     1      63.721  80.436  73.777  1.00  0.00     0.000 C 
BRANCH   3   4
ATOM      4  C   UNL     1      63.818  80.876  72.288  1.00  0.00    -0.000 C 
BRANCH   4   5
ATOM      5  C   UNL     1      62.492  81.489  71.756  1.00  0.00    -0.000 C 
BRANCH   5   6
ATOM      6  C   UNL     1      62.710  82.394  70.513  1.00  0.00    -0.003 C 
ATOM      7  C   UNL     1      62.778  81.595  69.193  1.00  0.00     0.004 C 
ENDBRANCH   5   6
ENDBRANCH   4   5
ENDBRANCH   3   4
ENDBRANCH   2   3
ENDBRANCH   1   2
BRANCH   1   8
ATOM      8  C   UNL     1      63.009  82.397  75.749  1.00  0.00     0.100 C 
BRANCH   8   9
ATOM      9  C   UNL     1      63.141  83.871  75.840  1.00  0.00     0.220 C 
ATOM     10  O   UNL     1      62.095  84.560  75.893  1.00  0.00    -0.275 OA
ATOM     11  N   UNL     1      64.374  84.455  75.893  1.00  0.00    -0.352 N 
ATOM     12  H   UNL     1      65.145  83.818  75.756  1.00  0.00     0.163 HD
BRANCH  11  13
ATOM     13  C   UNL     1      64.632  85.844  76.123  1.00  0.00     0.151 C 
BRANCH  13  14
ATOM     14  C   UNL     1      64.830  86.191  77.555  1.00  0.00    -0.025 A 
ATOM     15  C   UNL     1      66.036  85.847  78.211  1.00  0.00     0.056 A 
ATOM     16  C   UNL     1      63.822  86.862  78.287  1.00  0.00     0.009 A 
ATOM     17  C   UNL     1      66.245  86.186  79.568  1.00  0.00     0.160 A 
ATOM     18  C   UNL     1      64.025  87.202  79.636  1.00  0.00     0.050 A 
ATOM     19  C   UNL     1      65.229  86.860  80.282  1.00  0.00     0.157 A 
BRANCH  17  20
ATOM     20  O   UNL     1      67.398  85.815  80.214  1.00  0.00    -0.493 OA
ATOM     21  C   UNL     1      67.225  84.747  81.162  1.00  0.00     0.278 C 
ENDBRANCH  17  20
BRANCH  19  22
ATOM     22  O   UNL     1      65.403  87.168  81.592  1.00  0.00    -0.504 OA
ATOM     23  H   UNL     1      64.901  87.958  81.805  1.00  0.00     0.293 HD
ENDBRANCH  19  22
ENDBRANCH  13  14
ENDBRANCH  11  13
ENDBRANCH   8   9
ENDBRANCH   1   8
TORSDOF 11
ENDMDL
MODEL 5
REMARK VINA RESULT:    -4.990     23.049     26.706
REMARK INTER + INTRA:          -9.404
REMARK INTER:                  -7.533
REMARK INTRA:                  -1.871
REMARK UNBOUND:                -1.351
REMARK SMILES CCCCCCCCC(=O)NCc1ccc(O)c(OC)c1
REMARK SMILES IDX 7 1 6 2 5 3 4 4 3 5 2 6 1 7 8 8 9 9 10 10 11 11 12 13 13 14
REMARK SMILES IDX 21 15 14 16 18 17 15 18 16 19 19 20 20 21 17 22
REMARK H PARENT 11 12 17 23
REMARK Flexibility Score: inf
ROOT
ATOM      1  C   UNL     1      80.198  66.700  72.243  1.00  0.00     0.010 C 
ENDROOT
BRANCH   1   2
ATOM      2  C   UNL     1      80.897  66.982  70.882  1.00  0.00     0.001 C 
BRANCH   2   3
ATOM      3  C   UNL     1      81.879  68.188  70.963  1.00  0.00     0.000 C 
BRANCH   3   4
ATOM      4  C   UNL     1      83.378  67.778  70.957  1.00  0.00    -0.000 C 
BRANCH   4   5
ATOM      5  C   UNL     1      83.585  66.256  71.200  1.00  0.00    -0.000 C 
BRANCH   5   6
ATOM      6  C   UNL     1      84.226  65.954  72.582  1.00  0.00    -0.003 C 
ATOM      7  C   UNL     1      83.992  64.500  73.048  1.00  0.00     0.004 C 
ENDBRANCH   5   6
ENDBRANCH   4   5
ENDBRANCH   3   4
ENDBRANCH   2   3
ENDBRANCH   1   2
BRANCH   1   8
ATOM      8  C   UNL     1      80.216  65.203  72.661  1.00  0.00     0.100 C 
BRANCH   8   9
ATOM      9  C   UNL     1      80.567  65.048  74.094  1.00  0.00     0.220 C 
ATOM     10  O   UNL     1      80.606  63.890  74.575  1.00  0.00    -0.275 OA
ATOM     11  N   UNL     1      80.866  66.140  74.857  1.00  0.00    -0.352 N 
ATOM     12  H   UNL     1      80.719  67.025  74.395  1.00  0.00     0.163 HD
BRANCH  11  13
ATOM     13  C   UNL     1      81.352  66.111  76.203  1.00  0.00     0.151 C 
BRANCH  13  14
ATOM     14  C   UNL     1      82.836  66.113  76.306  1.00  0.00    -0.025 A 
ATOM     15  C   UNL     1      83.569  67.287  76.011  1.00  0.00     0.056 A 
ATOM     16  C   UNL     1      83.539  64.949  76.694  1.00  0.00     0.009 A 
ATOM     17  C   UNL     1      84.979  67.308  76.121  1.00  0.00     0.160 A 
ATOM     18  C   UNL     1      84.940  64.964  76.807  1.00  0.00     0.050 A 
ATOM     19  C   UNL     1      85.663  66.136  76.515  1.00  0.00     0.157 A 
BRANCH  17  20
ATOM     20  O   UNL     1      85.691  68.435  75.795  1.00  0.00    -0.493 OA
ATOM     21  C   UNL     1      85.665  69.461  76.802  1.00  0.00     0.278 C 
ENDBRANCH  17  20
BRANCH  19  22
ATOM     22  O   UNL     1      87.018  66.133  76.600  1.00  0.00    -0.504 OA
ATOM     23  H   UNL     1      87.391  65.844  75.764  1.00  0.00     0.293 HD
ENDBRANCH  19  22
ENDBRANCH  13  14
ENDBRANCH  11  13
ENDBRANCH   8   9
ENDBRANCH   1   8
TORSDOF 11
ENDMDL
MODEL 6
REMARK VINA RESULT:    -4.962     13.260     15.032
REMARK INTER + INTRA:          -9.359
REMARK INTER:                  -8.049
REMARK INTRA:                  -1.311
REMARK UNBOUND:                -1.351
REMARK SMILES CCCCCCCCC(=O)NCc1ccc(O)c(OC)c1
REMARK SMILES IDX 7 1 6 2 5 3 4 4 3 5 2 6 1 7 8 8 9 9 10 10 11 11 12 13 13 14
REMARK SMILES IDX 21 15 14 16 18 17 15 18 16 19 19 20 20 21 17 22
REMARK H PARENT 11 12 17 23
REMARK Flexibility Score: inf
ROOT
ATOM      1  C   UNL     1      81.543  91.771  89.385  1.00  0.00     0.010 C 
ENDROOT
BRANCH   1   2
ATOM      2  C   UNL     1      81.686  91.227  90.836  1.00  0.00     0.001 C 
BRANCH   2   3
ATOM      3  C   UNL     1      81.002  89.840  91.016  1.00  0.00     0.000 C 
BRANCH   3   4
ATOM      4  C   UNL     1      81.958  88.635  90.786  1.00  0.00    -0.000 C 
BRANCH   4   5
ATOM      5  C   UNL     1      81.786  87.992  89.381  1.00  0.00    -0.000 C 
BRANCH   5   6
ATOM      6  C   UNL     1      80.716  86.868  89.367  1.00  0.00    -0.003 C 
ATOM      7  C   UNL     1      79.446  87.257  88.578  1.00  0.00     0.004 C 
ENDBRANCH   5   6
ENDBRANCH   4   5
ENDBRANCH   3   4
ENDBRANCH   2   3
ENDBRANCH   1   2
BRANCH   1   8
ATOM      8  C   UNL     1      82.789  92.549  88.879  1.00  0.00     0.100 C 
BRANCH   8   9
ATOM      9  C   UNL     1      83.216  92.072  87.541  1.00  0.00     0.220 C 
ATOM     10  O   UNL     1      84.096  92.725  86.930  1.00  0.00    -0.275 OA
ATOM     11  N   UNL     1      82.682  90.935  87.007  1.00  0.00    -0.352 N 
ATOM     12  H   UNL     1      81.923  90.538  87.542  1.00  0.00     0.163 HD
BRANCH  11  13
ATOM     13  C   UNL     1      83.109  90.299  85.798  1.00  0.00     0.151 C 
BRANCH  13  14
ATOM     14  C   UNL     1      82.177  89.247  85.310  1.00  0.00    -0.025 A 
ATOM     15  C   UNL     1      82.224  87.943  85.859  1.00  0.00     0.056 A 
ATOM     16  C   UNL     1      81.235  89.526  84.293  1.00  0.00     0.009 A 
ATOM     17  C   UNL     1      81.333  86.938  85.418  1.00  0.00     0.160 A 
ATOM     18  C   UNL     1      80.346  88.531  83.850  1.00  0.00     0.050 A 
ATOM     19  C   UNL     1      80.396  87.237  84.403  1.00  0.00     0.157 A 
BRANCH  17  20
ATOM     20  O   UNL     1      81.408  85.664  85.921  1.00  0.00    -0.493 OA
ATOM     21  C   UNL     1      82.746  85.226  86.217  1.00  0.00     0.278 C 
ENDBRANCH  17  20
BRANCH  19  22
ATOM     22  O   UNL     1      79.551  86.275  83.949  1.00  0.00    -0.504 OA
ATOM     23  H   UNL     1      79.815  85.424  84.306  1.00  0.00     0.293 HD
ENDBRANCH  19  22
ENDBRANCH  13  14
ENDBRANCH  11  13
ENDBRANCH   8   9
ENDBRANCH   1   8
TORSDOF 11
ENDMDL
MODEL 7
REMARK VINA RESULT:    -4.834     23.112     26.487
REMARK INTER + INTRA:          -9.152
REMARK INTER:                  -7.548
REMARK INTRA:                  -1.605
REMARK UNBOUND:                -1.351
REMARK SMILES CCCCCCCCC(=O)NCc1ccc(O)c(OC)c1
REMARK SMILES IDX 7 1 6 2 5 3 4 4 3 5 2 6 1 7 8 8 9 9 10 10 11 11 12 13 13 14
REMARK SMILES IDX 21 15 14 16 18 17 15 18 16 19 19 20 20 21 17 22
REMARK H PARENT 11 12 17 23
REMARK Flexibility Score: inf
ROOT
ATOM      1  C   UNL     1      81.362  65.647  70.617  1.00  0.00     0.010 C 
ENDROOT
BRANCH   1   2
ATOM      2  C   UNL     1      82.660  66.496  70.494  1.00  0.00     0.001 C 
BRANCH   2   3
ATOM      3  C   UNL     1      83.581  66.349  71.741  1.00  0.00     0.000 C 
BRANCH   3   4
ATOM      4  C   UNL     1      83.896  67.697  72.450  1.00  0.00    -0.000 C 
BRANCH   4   5
ATOM      5  C   UNL     1      83.245  68.916  71.737  1.00  0.00    -0.000 C 
BRANCH   5   6
ATOM      6  C   UNL     1      84.195  70.143  71.669  1.00  0.00    -0.003 C 
ATOM      7  C   UNL     1      85.415  69.907  70.753  1.00  0.00     0.004 C 
ENDBRANCH   5   6
ENDBRANCH   4   5
ENDBRANCH   3   4
ENDBRANCH   2   3
ENDBRANCH   1   2
BRANCH   1   8
ATOM      8  C   UNL     1      80.238  66.331  71.445  1.00  0.00     0.100 C 
BRANCH   8   9
ATOM      9  C   UNL     1      80.270  65.895  72.862  1.00  0.00     0.220 C 
ATOM     10  O   UNL     1      79.890  64.731  73.135  1.00  0.00    -0.275 OA
ATOM     11  N   UNL     1      80.729  66.734  73.836  1.00  0.00    -0.352 N 
ATOM     12  H   UNL     1      80.926  67.673  73.520  1.00  0.00     0.163 HD
BRANCH  11  13
ATOM     13  C   UNL     1      80.940  66.386  75.208  1.00  0.00     0.151 C 
BRANCH  13  14
ATOM     14  C   UNL     1      82.328  65.947  75.510  1.00  0.00    -0.025 A 
ATOM     15  C   UNL     1      83.268  66.866  76.036  1.00  0.00     0.056 A 
ATOM     16  C   UNL     1      82.736  64.613  75.276  1.00  0.00     0.009 A 
ATOM     17  C   UNL     1      84.586  66.458  76.344  1.00  0.00     0.160 A 
ATOM     18  C   UNL     1      84.045  64.201  75.582  1.00  0.00     0.050 A 
ATOM     19  C   UNL     1      84.974  65.120  76.107  1.00  0.00     0.157 A 
BRANCH  17  20
ATOM     20  O   UNL     1      85.508  67.360  76.813  1.00  0.00    -0.493 OA
ATOM     21  C   UNL     1      85.027  68.715  76.874  1.00  0.00     0.278 C 
ENDBRANCH  17  20
BRANCH  19  22
ATOM     22  O   UNL     1      86.244  64.720  76.373  1.00  0.00    -0.504 OA
ATOM     23  H   UNL     1      86.834  65.058  75.696  1.00  0.00     0.293 HD
ENDBRANCH  19  22
ENDBRANCH  13  14
ENDBRANCH  11  13
ENDBRANCH   8   9
ENDBRANCH   1   8
TORSDOF 11
ENDMDL
MODEL 8
REMARK VINA RESULT:    -4.790     12.460     14.556
REMARK INTER + INTRA:          -9.081
REMARK INTER:                  -7.210
REMARK INTRA:                  -1.871
REMARK UNBOUND:                -1.351
REMARK SMILES CCCCCCCCC(=O)NCc1ccc(O)c(OC)c1
REMARK SMILES IDX 7 1 6 2 5 3 4 4 3 5 2 6 1 7 8 8 9 9 10 10 11 11 12 13 13 14
REMARK SMILES IDX 21 15 14 16 18 17 15 18 16 19 19 20 20 21 17 22
REMARK H PARENT 11 12 17 23
REMARK Flexibility Score: inf
ROOT
ATOM      1  C   UNL     1      98.260  81.377  74.931  1.00  0.00     0.010 C 
ENDROOT
BRANCH   1   2
ATOM      2  C   UNL     1      99.577  82.081  74.495  1.00  0.00     0.001 C 
BRANCH   2   3
ATOM      3  C   UNL     1     100.801  81.618  75.338  1.00  0.00     0.000 C 
BRANCH   3   4
ATOM      4  C   UNL     1     101.012  82.440  76.641  1.00  0.00    -0.000 C 
BRANCH   4   5
ATOM      5  C   UNL     1     100.585  81.662  77.918  1.00  0.00    -0.000 C 
BRANCH   5   6
ATOM      6  C   UNL     1     101.422  80.373  78.138  1.00  0.00    -0.003 C 
ATOM      7  C   UNL     1     102.441  80.509  79.291  1.00  0.00     0.004 C 
ENDBRANCH   5   6
ENDBRANCH   4   5
ENDBRANCH   3   4
ENDBRANCH   2   3
ENDBRANCH   1   2
BRANCH   1   8
ATOM      8  C   UNL     1      97.098  82.357  75.252  1.00  0.00     0.100 C 
BRANCH   8   9
ATOM      9  C   UNL     1      97.158  82.823  76.659  1.00  0.00     0.220 C 
ATOM     10  O   UNL     1      97.695  83.932  76.896  1.00  0.00    -0.275 OA
ATOM     11  N   UNL     1      96.614  82.073  77.662  1.00  0.00    -0.352 N 
ATOM     12  H   UNL     1      96.287  81.163  77.372  1.00  0.00     0.163 HD
BRANCH  11  13
ATOM     13  C   UNL     1      96.484  82.475  79.029  1.00  0.00     0.151 C 
BRANCH  13  14
ATOM     14  C   UNL     1      97.548  81.938  79.918  1.00  0.00    -0.025 A 
ATOM     15  C   UNL     1      97.789  80.544  79.980  1.00  0.00     0.056 A 
ATOM     16  C   UNL     1      98.333  82.802  80.716  1.00  0.00     0.009 A 
ATOM     17  C   UNL     1      98.809  80.021  80.808  1.00  0.00     0.160 A 
ATOM     18  C   UNL     1      99.350  82.287  81.540  1.00  0.00     0.050 A 
ATOM     19  C   UNL     1      99.586  80.900  81.595  1.00  0.00     0.157 A 
BRANCH  17  20
ATOM     20  O   UNL     1      99.012  78.667  80.898  1.00  0.00    -0.493 OA
ATOM     21  C   UNL     1      98.072  77.985  81.747  1.00  0.00     0.278 C 
ENDBRANCH  17  20
BRANCH  19  22
ATOM     22  O   UNL     1     100.552  80.411  82.414  1.00  0.00    -0.504 OA
ATOM     23  H   UNL     1     101.233  79.986  81.887  1.00  0.00     0.293 HD
ENDBRANCH  19  22
ENDBRANCH  13  14
ENDBRANCH  11  13
ENDBRANCH   8   9
ENDBRANCH   1   8
TORSDOF 11
ENDMDL
MODEL 9
REMARK VINA RESULT:    -4.783      6.231     10.043
REMARK INTER + INTRA:          -9.070
REMARK INTER:                  -8.470
REMARK INTRA:                  -0.600
REMARK UNBOUND:                -1.351
REMARK SMILES CCCCCCCCC(=O)NCc1ccc(O)c(OC)c1
REMARK SMILES IDX 7 1 6 2 5 3 4 4 3 5 2 6 1 7 8 8 9 9 10 10 11 11 12 13 13 14
REMARK SMILES IDX 21 15 14 16 18 17 15 18 16 19 19 20 20 21 17 22
REMARK H PARENT 11 12 17 23
REMARK Flexibility Score: inf
ROOT
ATOM      1  C   UNL     1      92.872  99.644  70.551  1.00  0.00     0.010 C 
ENDROOT
BRANCH   1   2
ATOM      2  C   UNL     1      91.508  99.864  69.835  1.00  0.00     0.001 C 
BRANCH   2   3
ATOM      3  C   UNL     1      91.653 100.723  68.544  1.00  0.00     0.000 C 
BRANCH   3   4
ATOM      4  C   UNL     1      91.443  99.919  67.230  1.00  0.00    -0.000 C 
BRANCH   4   5
ATOM      5  C   UNL     1      89.987 100.016  66.693  1.00  0.00    -0.000 C 
BRANCH   5   6
ATOM      6  C   UNL     1      89.387  98.627  66.343  1.00  0.00    -0.003 C 
ATOM      7  C   UNL     1      90.109  97.464  67.057  1.00  0.00     0.004 C 
ENDBRANCH   5   6
ENDBRANCH   4   5
ENDBRANCH   3   4
ENDBRANCH   2   3
ENDBRANCH   1   2
BRANCH   1   8
ATOM      8  C   UNL     1      92.870  98.458  71.556  1.00  0.00     0.100 C 
BRANCH   8   9
ATOM      9  C   UNL     1      94.205  98.272  72.174  1.00  0.00     0.220 C 
ATOM     10  O   UNL     1      95.217  98.626  71.522  1.00  0.00    -0.275 OA
ATOM     11  N   UNL     1      94.322  97.756  73.433  1.00  0.00    -0.352 N 
ATOM     12  H   UNL     1      93.455  97.426  73.830  1.00  0.00     0.163 HD
BRANCH  11  13
ATOM     13  C   UNL     1      95.534  97.660  74.188  1.00  0.00     0.151 C 
BRANCH  13  14
ATOM     14  C   UNL     1      95.547  96.537  75.163  1.00  0.00    -0.025 A 
ATOM     15  C   UNL     1      94.599  95.491  75.058  1.00  0.00     0.056 A 
ATOM     16  C   UNL     1      96.497  96.494  76.209  1.00  0.00     0.009 A 
ATOM     17  C   UNL     1      94.611  94.408  75.967  1.00  0.00     0.160 A 
ATOM     18  C   UNL     1      96.514  95.419  77.116  1.00  0.00     0.050 A 
ATOM     19  C   UNL     1      95.570  94.381  77.004  1.00  0.00     0.157 A 
BRANCH  17  20
ATOM     20  O   UNL     1      93.665  93.417  75.889  1.00  0.00    -0.493 OA
ATOM     21  C   UNL     1      92.736  93.573  74.801  1.00  0.00     0.278 C 
ENDBRANCH  17  20
BRANCH  19  22
ATOM     22  O   UNL     1      95.578  93.361  77.901  1.00  0.00    -0.504 OA
ATOM     23  H   UNL     1      94.679  93.060  78.050  1.00  0.00     0.293 HD
ENDBRANCH  19  22
ENDBRANCH  13  14
ENDBRANCH  11  13
ENDBRANCH   8   9
ENDBRANCH   1   8
TORSDOF 11
ENDMDL
MODEL 10
REMARK VINA RESULT:    -4.734     11.713     14.143
REMARK INTER + INTRA:          -8.991
REMARK INTER:                  -8.017
REMARK INTRA:                  -0.974
REMARK UNBOUND:                -1.351
REMARK SMILES CCCCCCCCC(=O)NCc1ccc(O)c(OC)c1
REMARK SMILES IDX 7 1 6 2 5 3 4 4 3 5 2 6 1 7 8 8 9 9 10 10 11 11 12 13 13 14
REMARK SMILES IDX 21 15 14 16 18 17 15 18 16 19 19 20 20 21 17 22
REMARK H PARENT 11 12 17 23
REMARK Flexibility Score: inf
ROOT
ATOM      1  C   UNL     1      97.729  81.954  78.968  1.00  0.00     0.010 C 
ENDROOT
BRANCH   1   2
ATOM      2  C   UNL     1      96.654  82.825  78.256  1.00  0.00     0.001 C 
BRANCH   2   3
ATOM      3  C   UNL     1      97.132  83.326  76.861  1.00  0.00     0.000 C 
BRANCH   3   4
ATOM      4  C   UNL     1      97.161  82.216  75.773  1.00  0.00    -0.000 C 
BRANCH   4   5
ATOM      5  C   UNL     1      98.521  82.148  75.021  1.00  0.00    -0.000 C 
BRANCH   5   6
ATOM      6  C   UNL     1      99.591  83.087  75.640  1.00  0.00    -0.003 C 
ATOM      7  C   UNL     1     100.607  82.336  76.530  1.00  0.00     0.004 C 
ENDBRANCH   5   6
ENDBRANCH   4   5
ENDBRANCH   3   4
ENDBRANCH   2   3
ENDBRANCH   1   2
BRANCH   1   8
ATOM      8  C   UNL     1      98.688  82.763  79.886  1.00  0.00     0.100 C 
BRANCH   8   9
ATOM      9  C   UNL     1      98.569  82.337  81.301  1.00  0.00     0.220 C 
ATOM     10  O   UNL     1      98.880  81.158  81.596  1.00  0.00    -0.275 OA
ATOM     11  N   UNL     1      98.158  83.219  82.259  1.00  0.00    -0.352 N 
ATOM     12  H   UNL     1      97.850  84.111  81.901  1.00  0.00     0.163 HD
BRANCH  11  13
ATOM     13  C   UNL     1      98.137  82.972  83.668  1.00  0.00     0.151 C 
BRANCH  13  14
ATOM     14  C   UNL     1      96.771  82.790  84.227  1.00  0.00    -0.025 A 
ATOM     15  C   UNL     1      96.132  83.855  84.907  1.00  0.00     0.056 A 
ATOM     16  C   UNL     1      96.089  81.558  84.095  1.00  0.00     0.009 A 
ATOM     17  C   UNL     1      94.827  83.702  85.429  1.00  0.00     0.160 A 
ATOM     18  C   UNL     1      94.791  81.401  84.610  1.00  0.00     0.050 A 
ATOM     19  C   UNL     1      94.160  82.465  85.283  1.00  0.00     0.157 A 
BRANCH  17  20
ATOM     20  O   UNL     1      94.226  84.721  86.124  1.00  0.00    -0.493 OA
ATOM     21  C   UNL     1      95.145  85.686  86.666  1.00  0.00     0.278 C 
ENDBRANCH  17  20
BRANCH  19  22
ATOM     22  O   UNL     1      92.916  82.294  85.801  1.00  0.00    -0.504 OA
ATOM     23  H   UNL     1      92.318  82.007  85.108  1.00  0.00     0.293 HD
ENDBRANCH  19  22
ENDBRANCH  13  14
ENDBRANCH  11  13
ENDBRANCH   8   9
ENDBRANCH   1   8
TORSDOF 11
ENDMDL
