MODEL 1
REMARK VINA RESULT:    -5.840      0.000      0.000
REMARK INTER + INTRA:         -10.529
REMARK INTER:                  -9.425
REMARK INTRA:                  -1.104
REMARK UNBOUND:                -1.104
REMARK SMILES COc1cc(CNC(=O)CCCCCCC(C)C)ccc1O
REMARK SMILES IDX 11 1 10 2 8 3 7 4 9 6 6 7 5 8 3 9 21 10 4 11 20 12 19 13
REMARK SMILES IDX 2 14 1 15 22 16 12 18 13 19 14 20 15 21 16 22 17 23 18 24
REMARK H PARENT 7 5 22 17
REMARK Flexibility Score: inf
ROOT
ATOM      1  C   UNL     1      95.121  94.392  78.671  1.00  0.00     0.010 C 
ENDROOT
BRANCH   1   2
ATOM      2  C   UNL     1      94.253  93.830  79.831  1.00  0.00     0.100 C 
BRANCH   2   3
ATOM      3  C   UNL     1      94.872  94.007  81.164  1.00  0.00     0.220 C 
ATOM      4  N   UNL     1      95.424  95.204  81.514  1.00  0.00    -0.352 N 
ATOM      5  H   UNL     1      95.407  95.904  80.787  1.00  0.00     0.163 HD
ATOM      6  O   UNL     1      94.855  93.042  81.968  1.00  0.00    -0.275 OA
BRANCH   4   7
ATOM      7  C   UNL     1      95.997  95.508  82.790  1.00  0.00     0.151 C 
BRANCH   7   8
ATOM      8  C   UNL     1      95.892  96.948  83.152  1.00  0.00    -0.025 A 
ATOM      9  C   UNL     1      96.240  98.768  84.769  1.00  0.00     0.160 A 
ATOM     10  C   UNL     1      95.737  99.699  83.834  1.00  0.00     0.157 A 
ATOM     11  C   UNL     1      96.296  97.401  84.429  1.00  0.00     0.056 A 
ATOM     12  C   UNL     1      95.296  99.256  82.574  1.00  0.00     0.050 A 
ATOM     13  C   UNL     1      95.382  97.892  82.230  1.00  0.00     0.009 A 
BRANCH   9  14
ATOM     14  O   UNL     1      96.635  99.183  86.012  1.00  0.00    -0.493 OA
ATOM     15  C   UNL     1      96.139  98.360  87.083  1.00  0.00     0.278 C 
ENDBRANCH   9  14
BRANCH  10  16
ATOM     16  O   UNL     1      95.670 101.022  84.135  1.00  0.00    -0.504 OA
ATOM     17  H   UNL     1      96.275 101.217  84.854  1.00  0.00     0.293 HD
ENDBRANCH  10  16
ENDBRANCH   7   8
ENDBRANCH   4   7
ENDBRANCH   2   3
ENDBRANCH   1   2
BRANCH   1  18
ATOM     18  C   UNL     1      94.573  95.743  78.129  1.00  0.00     0.001 C 
BRANCH  18  19
ATOM     19  C   UNL     1      94.043  95.662  76.669  1.00  0.00     0.000 C 
BRANCH  19  20
ATOM     20  C   UNL     1      92.528  96.004  76.591  1.00  0.00     0.000 C 
BRANCH  20  21
ATOM     21  C   UNL     1      91.774  95.868  77.943  1.00  0.00     0.003 C 
BRANCH  21  22
ATOM     22  C   UNL     1      90.757  94.681  78.003  1.00  0.00    -0.017 C 
ATOM     23  C   UNL     1      91.414  93.375  77.477  1.00  0.00     0.007 C 
ATOM     24  C   UNL     1      89.423  94.962  77.251  1.00  0.00     0.007 C 
ENDBRANCH  21  22
ENDBRANCH  20  21
ENDBRANCH  19  20
ENDBRANCH  18  19
ENDBRANCH   1  18
TORSDOF 11
ENDMDL
MODEL 2
REMARK VINA RESULT:    -5.585      2.000      2.293
REMARK INTER + INTRA:         -10.118
REMARK INTER:                  -9.022
REMARK INTRA:                  -1.095
REMARK UNBOUND:                -1.104
REMARK SMILES COc1cc(CNC(=O)CCCCCCC(C)C)ccc1O
REMARK SMILES IDX 11 1 10 2 8 3 7 4 9 6 6 7 5 8 3 9 21 10 4 11 20 12 19 13
REMARK SMILES IDX 2 14 1 15 22 16 12 18 13 19 14 20 15 21 16 22 17 23 18 24
REMARK H PARENT 7 5 22 17
REMARK Flexibility Score: inf
ROOT
ATOM      1  C   UNL     1      94.705  94.604  78.466  1.00  0.00     0.010 C 
ENDROOT
BRANCH   1   2
ATOM      2  C   UNL     1      93.942  93.933  79.642  1.00  0.00     0.100 C 
BRANCH   2   3
ATOM      3  C   UNL     1      94.754  93.813  80.873  1.00  0.00     0.220 C 
ATOM      4  N   UNL     1      95.732  94.725  81.146  1.00  0.00    -0.352 N 
ATOM      5  H   UNL     1      95.864  95.426  80.432  1.00  0.00     0.163 HD
ATOM      6  O   UNL     1      94.507  92.872  81.667  1.00  0.00    -0.275 OA
BRANCH   4   7
ATOM      7  C   UNL     1      96.538  94.743  82.329  1.00  0.00     0.151 C 
BRANCH   7   8
ATOM      8  C   UNL     1      97.443  95.923  82.404  1.00  0.00    -0.025 A 
ATOM      9  C   UNL     1      98.465  97.743  83.704  1.00  0.00     0.160 A 
ATOM     10  C   UNL     1      99.199  98.146  82.567  1.00  0.00     0.157 A 
ATOM     11  C   UNL     1      97.580  96.648  83.609  1.00  0.00     0.056 A 
ATOM     12  C   UNL     1      99.042  97.455  81.352  1.00  0.00     0.050 A 
ATOM     13  C   UNL     1      98.179  96.345  81.272  1.00  0.00     0.009 A 
BRANCH   9  14
ATOM     14  O   UNL     1      98.580  98.432  84.881  1.00  0.00    -0.493 OA
ATOM     15  C   UNL     1      98.715  97.586  86.037  1.00  0.00     0.278 C 
ENDBRANCH   9  14
BRANCH  10  16
ATOM     16  O   UNL     1     100.057  99.197  82.629  1.00  0.00    -0.504 OA
ATOM     17  H   UNL     1     100.853  98.933  83.098  1.00  0.00     0.293 HD
ENDBRANCH  10  16
ENDBRANCH   7   8
ENDBRANCH   4   7
ENDBRANCH   2   3
ENDBRANCH   1   2
BRANCH   1  18
ATOM     18  C   UNL     1      94.170  96.031  78.158  1.00  0.00     0.001 C 
BRANCH  18  19
ATOM     19  C   UNL     1      93.706  96.221  76.686  1.00  0.00     0.000 C 
BRANCH  19  20
ATOM     20  C   UNL     1      92.184  96.528  76.601  1.00  0.00     0.000 C 
BRANCH  20  21
ATOM     21  C   UNL     1      91.318  95.746  77.628  1.00  0.00     0.003 C 
BRANCH  21  22
ATOM     22  C   UNL     1      90.592  94.491  77.044  1.00  0.00    -0.017 C 
ATOM     23  C   UNL     1      89.424  94.056  77.974  1.00  0.00     0.007 C 
ATOM     24  C   UNL     1      91.544  93.290  76.767  1.00  0.00     0.007 C 
ENDBRANCH  21  22
ENDBRANCH  20  21
ENDBRANCH  19  20
ENDBRANCH  18  19
ENDBRANCH   1  18
TORSDOF 11
ENDMDL
MODEL 3
REMARK VINA RESULT:    -5.482      1.371      2.141
REMARK INTER + INTRA:          -9.952
REMARK INTER:                  -8.856
REMARK INTRA:                  -1.096
REMARK UNBOUND:                -1.104
REMARK SMILES COc1cc(CNC(=O)CCCCCCC(C)C)ccc1O
REMARK SMILES IDX 11 1 10 2 8 3 7 4 9 6 6 7 5 8 3 9 21 10 4 11 20 12 19 13
REMARK SMILES IDX 2 14 1 15 22 16 12 18 13 19 14 20 15 21 16 22 17 23 18 24
REMARK H PARENT 7 5 22 17
REMARK Flexibility Score: inf
ROOT
ATOM      1  C   UNL     1      95.142  94.473  78.567  1.00  0.00     0.010 C 
ENDROOT
BRANCH   1   2
ATOM      2  C   UNL     1      94.192  93.806  79.599  1.00  0.00     0.100 C 
BRANCH   2   3
ATOM      3  C   UNL     1      94.703  93.865  80.987  1.00  0.00     0.220 C 
ATOM      4  N   UNL     1      95.290  95.003  81.458  1.00  0.00    -0.352 N 
ATOM      5  H   UNL     1      95.375  95.745  80.778  1.00  0.00     0.163 HD
ATOM      6  O   UNL     1      94.561  92.858  81.723  1.00  0.00    -0.275 OA
BRANCH   4   7
ATOM      7  C   UNL     1      95.766  95.195  82.794  1.00  0.00     0.151 C 
BRANCH   7   8
ATOM      8  C   UNL     1      96.380  96.534  83.011  1.00  0.00    -0.025 A 
ATOM      9  C   UNL     1      96.294  98.980  82.771  1.00  0.00     0.160 A 
ATOM     10  C   UNL     1      97.522  99.093  83.460  1.00  0.00     0.157 A 
ATOM     11  C   UNL     1      95.743  97.703  82.536  1.00  0.00     0.056 A 
ATOM     12  C   UNL     1      98.185  97.934  83.904  1.00  0.00     0.050 A 
ATOM     13  C   UNL     1      97.614  96.664  83.691  1.00  0.00     0.009 A 
BRANCH   9  14
ATOM     14  O   UNL     1      95.661 100.098  82.301  1.00  0.00    -0.493 OA
ATOM     15  C   UNL     1      95.919 100.369  80.911  1.00  0.00     0.278 C 
ENDBRANCH   9  14
BRANCH  10  16
ATOM     16  O   UNL     1      98.077 100.310  83.699  1.00  0.00    -0.504 OA
ATOM     17  H   UNL     1      98.619 100.264  84.490  1.00  0.00     0.293 HD
ENDBRANCH  10  16
ENDBRANCH   7   8
ENDBRANCH   4   7
ENDBRANCH   2   3
ENDBRANCH   1   2
BRANCH   1  18
ATOM     18  C   UNL     1      94.464  95.661  77.826  1.00  0.00     0.001 C 
BRANCH  18  19
ATOM     19  C   UNL     1      93.684  95.239  76.549  1.00  0.00     0.000 C 
BRANCH  19  20
ATOM     20  C   UNL     1      92.300  95.943  76.465  1.00  0.00     0.000 C 
BRANCH  20  21
ATOM     21  C   UNL     1      91.519  95.975  77.807  1.00  0.00     0.003 C 
BRANCH  21  22
ATOM     22  C   UNL     1      90.312  94.983  77.882  1.00  0.00    -0.017 C 
ATOM     23  C   UNL     1      90.731  93.671  78.602  1.00  0.00     0.007 C 
ATOM     24  C   UNL     1      89.677  94.666  76.496  1.00  0.00     0.007 C 
ENDBRANCH  21  22
ENDBRANCH  20  21
ENDBRANCH  19  20
ENDBRANCH  18  19
ENDBRANCH   1  18
TORSDOF 11
ENDMDL
MODEL 4
REMARK VINA RESULT:    -5.479      1.777      2.244
REMARK INTER + INTRA:          -9.947
REMARK INTER:                  -8.827
REMARK INTRA:                  -1.120
REMARK UNBOUND:                -1.104
REMARK SMILES COc1cc(CNC(=O)CCCCCCC(C)C)ccc1O
REMARK SMILES IDX 11 1 10 2 8 3 7 4 9 6 6 7 5 8 3 9 21 10 4 11 20 12 19 13
REMARK SMILES IDX 2 14 1 15 22 16 12 18 13 19 14 20 15 21 16 22 17 23 18 24
REMARK H PARENT 7 5 22 17
REMARK Flexibility Score: inf
ROOT
ATOM      1  C   UNL     1      95.380  94.543  78.638  1.00  0.00     0.010 C 
ENDROOT
BRANCH   1   2
ATOM      2  C   UNL     1      95.026  94.022  80.058  1.00  0.00     0.100 C 
BRANCH   2   3
ATOM      3  C   UNL     1      95.421  94.955  81.138  1.00  0.00     0.220 C 
ATOM      4  N   UNL     1      94.620  96.009  81.466  1.00  0.00    -0.352 N 
ATOM      5  H   UNL     1      93.795  96.106  80.891  1.00  0.00     0.163 HD
ATOM      6  O   UNL     1      96.492  94.739  81.758  1.00  0.00    -0.275 OA
BRANCH   4   7
ATOM      7  C   UNL     1      94.869  96.938  82.526  1.00  0.00     0.151 C 
BRANCH   7   8
ATOM      8  C   UNL     1      95.359  98.259  82.045  1.00  0.00    -0.025 A 
ATOM      9  C   UNL     1      95.728 100.661  82.426  1.00  0.00     0.160 A 
ATOM     10  C   UNL     1      96.329 100.773  81.154  1.00  0.00     0.157 A 
ATOM     11  C   UNL     1      95.231  99.411  82.854  1.00  0.00     0.056 A 
ATOM     12  C   UNL     1      96.426  99.641  80.323  1.00  0.00     0.050 A 
ATOM     13  C   UNL     1      95.955  98.391  80.769  1.00  0.00     0.009 A 
BRANCH   9  14
ATOM     14  O   UNL     1      95.593 101.763  83.226  1.00  0.00    -0.493 OA
ATOM     15  C   UNL     1      94.786 101.536  84.395  1.00  0.00     0.278 C 
ENDBRANCH   9  14
BRANCH  10  16
ATOM     16  O   UNL     1      96.815 101.964  80.715  1.00  0.00    -0.504 OA
ATOM     17  H   UNL     1      97.528 101.807  80.091  1.00  0.00     0.293 HD
ENDBRANCH  10  16
ENDBRANCH   7   8
ENDBRANCH   4   7
ENDBRANCH   2   3
ENDBRANCH   1   2
BRANCH   1  18
ATOM     18  C   UNL     1      94.164  94.483  77.671  1.00  0.00     0.001 C 
BRANCH  18  19
ATOM     19  C   UNL     1      93.379  95.821  77.567  1.00  0.00     0.000 C 
BRANCH  19  20
ATOM     20  C   UNL     1      92.013  95.741  78.306  1.00  0.00     0.000 C 
BRANCH  20  21
ATOM     21  C   UNL     1      91.568  94.297  78.667  1.00  0.00     0.003 C 
BRANCH  21  22
ATOM     22  C   UNL     1      90.398  93.740  77.792  1.00  0.00    -0.017 C 
ATOM     23  C   UNL     1      90.958  92.952  76.574  1.00  0.00     0.007 C 
ATOM     24  C   UNL     1      89.394  94.833  77.320  1.00  0.00     0.007 C 
ENDBRANCH  21  22
ENDBRANCH  20  21
ENDBRANCH  19  20
ENDBRANCH  18  19
ENDBRANCH   1  18
TORSDOF 11
ENDMDL
MODEL 5
REMARK VINA RESULT:    -5.461     24.664     28.258
REMARK INTER + INTRA:          -9.918
REMARK INTER:                  -9.037
REMARK INTRA:                  -0.881
REMARK UNBOUND:                -1.104
REMARK SMILES COc1cc(CNC(=O)CCCCCCC(C)C)ccc1O
REMARK SMILES IDX 11 1 10 2 8 3 7 4 9 6 6 7 5 8 3 9 21 10 4 11 20 12 19 13
REMARK SMILES IDX 2 14 1 15 22 16 12 18 13 19 14 20 15 21 16 22 17 23 18 24
REMARK H PARENT 7 5 22 17
REMARK Flexibility Score: inf
ROOT
ATOM      1  C   UNL     1      70.690  83.099  66.206  1.00  0.00     0.010 C 
ENDROOT
BRANCH   1   2
ATOM      2  C   UNL     1      71.675  81.907  66.351  1.00  0.00     0.100 C 
BRANCH   2   3
ATOM      3  C   UNL     1      72.995  82.160  65.732  1.00  0.00     0.220 C 
ATOM      4  N   UNL     1      74.131  81.667  66.305  1.00  0.00    -0.352 N 
ATOM      5  H   UNL     1      73.985  81.176  67.175  1.00  0.00     0.163 HD
ATOM      6  O   UNL     1      73.042  82.815  64.662  1.00  0.00    -0.275 OA
BRANCH   4   7
ATOM      7  C   UNL     1      75.452  81.799  65.768  1.00  0.00     0.151 C 
BRANCH   7   8
ATOM      8  C   UNL     1      76.307  82.743  66.537  1.00  0.00    -0.025 A 
ATOM      9  C   UNL     1      76.667  84.162  68.514  1.00  0.00     0.160 A 
ATOM     10  C   UNL     1      77.948  84.510  68.033  1.00  0.00     0.157 A 
ATOM     11  C   UNL     1      75.850  83.298  67.755  1.00  0.00     0.056 A 
ATOM     12  C   UNL     1      78.398  83.996  66.803  1.00  0.00     0.050 A 
ATOM     13  C   UNL     1      77.589  83.111  66.065  1.00  0.00     0.009 A 
BRANCH   9  14
ATOM     14  O   UNL     1      76.205  84.688  69.689  1.00  0.00    -0.493 OA
ATOM     15  C   UNL     1      75.050  85.533  69.532  1.00  0.00     0.278 C 
ENDBRANCH   9  14
BRANCH  10  16
ATOM     16  O   UNL     1      78.756  85.342  68.742  1.00  0.00    -0.504 OA
ATOM     17  H   UNL     1      79.210  84.841  69.424  1.00  0.00     0.293 HD
ENDBRANCH  10  16
ENDBRANCH   7   8
ENDBRANCH   4   7
ENDBRANCH   2   3
ENDBRANCH   1   2
BRANCH   1  18
ATOM     18  C   UNL     1      69.429  82.932  67.102  1.00  0.00     0.001 C 
BRANCH  18  19
ATOM     19  C   UNL     1      69.749  82.830  68.620  1.00  0.00     0.000 C 
BRANCH  19  20
ATOM     20  C   UNL     1      70.607  84.032  69.106  1.00  0.00     0.000 C 
BRANCH  20  21
ATOM     21  C   UNL     1      70.748  84.131  70.650  1.00  0.00     0.003 C 
BRANCH  21  22
ATOM     22  C   UNL     1      69.755  85.128  71.332  1.00  0.00    -0.017 C 
ATOM     23  C   UNL     1      68.549  84.361  71.944  1.00  0.00     0.007 C 
ATOM     24  C   UNL     1      69.257  86.260  70.385  1.00  0.00     0.007 C 
ENDBRANCH  21  22
ENDBRANCH  20  21
ENDBRANCH  19  20
ENDBRANCH  18  19
ENDBRANCH   1  18
TORSDOF 11
ENDMDL
MODEL 6
REMARK VINA RESULT:    -5.461     13.096     14.623
REMARK INTER + INTRA:          -9.917
REMARK INTER:                  -8.955
REMARK INTRA:                  -0.962
REMARK UNBOUND:                -1.104
REMARK SMILES COc1cc(CNC(=O)CCCCCCC(C)C)ccc1O
REMARK SMILES IDX 11 1 10 2 8 3 7 4 9 6 6 7 5 8 3 9 21 10 4 11 20 12 19 13
REMARK SMILES IDX 2 14 1 15 22 16 12 18 13 19 14 20 15 21 16 22 17 23 18 24
REMARK H PARENT 7 5 22 17
REMARK Flexibility Score: inf
ROOT
ATOM      1  C   UNL     1      97.801  82.939  79.377  1.00  0.00     0.010 C 
ENDROOT
BRANCH   1   2
ATOM      2  C   UNL     1      99.207  82.380  79.730  1.00  0.00     0.100 C 
BRANCH   2   3
ATOM      3  C   UNL     1      99.449  82.284  81.187  1.00  0.00     0.220 C 
ATOM      4  N   UNL     1      98.549  81.651  81.995  1.00  0.00    -0.352 N 
ATOM      5  H   UNL     1      97.723  81.315  81.523  1.00  0.00     0.163 HD
ATOM      6  O   UNL     1     100.506  82.773  81.655  1.00  0.00    -0.275 OA
BRANCH   4   7
ATOM      7  C   UNL     1      98.704  81.447  83.403  1.00  0.00     0.151 C 
BRANCH   7   8
ATOM      8  C   UNL     1      97.773  82.271  84.222  1.00  0.00    -0.025 A 
ATOM      9  C   UNL     1      96.261  82.496  86.148  1.00  0.00     0.160 A 
ATOM     10  C   UNL     1      96.030  83.848  85.812  1.00  0.00     0.157 A 
ATOM     11  C   UNL     1      97.114  81.714  85.341  1.00  0.00     0.056 A 
ATOM     12  C   UNL     1      96.650  84.403  84.678  1.00  0.00     0.050 A 
ATOM     13  C   UNL     1      97.523  83.625  83.894  1.00  0.00     0.009 A 
BRANCH   9  14
ATOM     14  O   UNL     1      95.632  81.935  87.226  1.00  0.00    -0.493 OA
ATOM     15  C   UNL     1      94.449  81.189  86.885  1.00  0.00     0.278 C 
ENDBRANCH   9  14
BRANCH  10  16
ATOM     16  O   UNL     1      95.212  84.624  86.571  1.00  0.00    -0.504 OA
ATOM     17  H   UNL     1      95.408  84.482  87.500  1.00  0.00     0.293 HD
ENDBRANCH  10  16
ENDBRANCH   7   8
ENDBRANCH   4   7
ENDBRANCH   2   3
ENDBRANCH   1   2
BRANCH   1  18
ATOM     18  C   UNL     1      97.856  83.977  78.220  1.00  0.00     0.001 C 
BRANCH  18  19
ATOM     19  C   UNL     1      97.571  83.368  76.818  1.00  0.00     0.000 C 
BRANCH  19  20
ATOM     20  C   UNL     1      98.887  83.079  76.042  1.00  0.00     0.000 C 
BRANCH  20  21
ATOM     21  C   UNL     1      99.766  84.335  75.788  1.00  0.00     0.003 C 
BRANCH  21  22
ATOM     22  C   UNL     1     101.307  84.074  75.849  1.00  0.00    -0.017 C 
ATOM     23  C   UNL     1     101.670  83.253  77.118  1.00  0.00     0.007 C 
ATOM     24  C   UNL     1     102.164  85.372  75.775  1.00  0.00     0.007 C 
ENDBRANCH  21  22
ENDBRANCH  20  21
ENDBRANCH  19  20
ENDBRANCH  18  19
ENDBRANCH   1  18
TORSDOF 11
ENDMDL
MODEL 7
REMARK VINA RESULT:    -5.360     12.499     15.028
REMARK INTER + INTRA:          -9.754
REMARK INTER:                  -9.093
REMARK INTRA:                  -0.662
REMARK UNBOUND:                -1.104
REMARK SMILES COc1cc(CNC(=O)CCCCCCC(C)C)ccc1O
REMARK SMILES IDX 11 1 10 2 8 3 7 4 9 6 6 7 5 8 3 9 21 10 4 11 20 12 19 13
REMARK SMILES IDX 2 14 1 15 22 16 12 18 13 19 14 20 15 21 16 22 17 23 18 24
REMARK H PARENT 7 5 22 17
REMARK Flexibility Score: inf
ROOT
ATOM      1  C   UNL     1      97.119  83.946  83.883  1.00  0.00     0.010 C 
ENDROOT
BRANCH   1   2
ATOM      2  C   UNL     1      97.506  84.928  85.023  1.00  0.00     0.100 C 
BRANCH   2   3
ATOM      3  C   UNL     1      96.396  85.199  85.964  1.00  0.00     0.220 C 
ATOM      4  N   UNL     1      95.804  84.176  86.644  1.00  0.00    -0.352 N 
ATOM      5  H   UNL     1      96.155  83.258  86.413  1.00  0.00     0.163 HD
ATOM      6  O   UNL     1      96.032  86.388  86.138  1.00  0.00    -0.275 OA
BRANCH   4   7
ATOM      7  C   UNL     1      94.765  84.323  87.618  1.00  0.00     0.151 C 
BRANCH   7   8
ATOM      8  C   UNL     1      93.639  83.369  87.424  1.00  0.00    -0.025 A 
ATOM      9  C   UNL     1      91.288  82.747  87.790  1.00  0.00     0.160 A 
ATOM     10  C   UNL     1      91.475  81.577  87.021  1.00  0.00     0.157 A 
ATOM     11  C   UNL     1      92.374  83.622  88.001  1.00  0.00     0.056 A 
ATOM     12  C   UNL     1      92.740  81.294  86.474  1.00  0.00     0.050 A 
ATOM     13  C   UNL     1      93.812  82.188  86.664  1.00  0.00     0.009 A 
BRANCH   9  14
ATOM     14  O   UNL     1      90.072  83.012  88.360  1.00  0.00    -0.493 OA
ATOM     15  C   UNL     1      90.056  82.855  89.790  1.00  0.00     0.278 C 
ENDBRANCH   9  14
BRANCH  10  16
ATOM     16  O   UNL     1      90.447  80.715  86.803  1.00  0.00    -0.504 OA
ATOM     17  H   UNL     1      90.784  79.915  86.392  1.00  0.00     0.293 HD
ENDBRANCH  10  16
ENDBRANCH   7   8
ENDBRANCH   4   7
ENDBRANCH   2   3
ENDBRANCH   1   2
BRANCH   1  18
ATOM     18  C   UNL     1      97.824  82.568  84.030  1.00  0.00     0.001 C 
BRANCH  18  19
ATOM     19  C   UNL     1      99.128  82.439  83.193  1.00  0.00     0.000 C 
BRANCH  19  20
ATOM     20  C   UNL     1      98.830  81.979  81.738  1.00  0.00     0.000 C 
BRANCH  20  21
ATOM     21  C   UNL     1      98.531  83.142  80.752  1.00  0.00     0.003 C 
BRANCH  21  22
ATOM     22  C   UNL     1      98.034  82.686  79.340  1.00  0.00    -0.017 C 
ATOM     23  C   UNL     1      99.182  81.987  78.560  1.00  0.00     0.007 C 
ATOM     24  C   UNL     1      97.421  83.838  78.491  1.00  0.00     0.007 C 
ENDBRANCH  21  22
ENDBRANCH  20  21
ENDBRANCH  19  20
ENDBRANCH  18  19
ENDBRANCH   1  18
TORSDOF 11
ENDMDL
MODEL 8
REMARK VINA RESULT:    -5.328     24.498     28.037
REMARK INTER + INTRA:          -9.703
REMARK INTER:                  -8.011
REMARK INTRA:                  -1.692
REMARK UNBOUND:                -1.104
REMARK SMILES COc1cc(CNC(=O)CCCCCCC(C)C)ccc1O
REMARK SMILES IDX 11 1 10 2 8 3 7 4 9 6 6 7 5 8 3 9 21 10 4 11 20 12 19 13
REMARK SMILES IDX 2 14 1 15 22 16 12 18 13 19 14 20 15 21 16 22 17 23 18 24
REMARK H PARENT 7 5 22 17
REMARK Flexibility Score: inf
ROOT
ATOM      1  C   UNL     1      73.825  80.443  63.632  1.00  0.00     0.010 C 
ENDROOT
BRANCH   1   2
ATOM      2  C   UNL     1      74.233  81.783  62.959  1.00  0.00     0.100 C 
BRANCH   2   3
ATOM      3  C   UNL     1      75.656  82.134  63.170  1.00  0.00     0.220 C 
ATOM      4  N   UNL     1      76.000  83.370  63.633  1.00  0.00    -0.352 N 
ATOM      5  H   UNL     1      75.223  84.001  63.765  1.00  0.00     0.163 HD
ATOM      6  O   UNL     1      76.531  81.264  62.938  1.00  0.00    -0.275 OA
BRANCH   4   7
ATOM      7  C   UNL     1      77.332  83.800  63.929  1.00  0.00     0.151 C 
BRANCH   7   8
ATOM      8  C   UNL     1      77.487  84.319  65.316  1.00  0.00    -0.025 A 
ATOM      9  C   UNL     1      77.110  86.088  66.983  1.00  0.00     0.160 A 
ATOM     10  C   UNL     1      77.740  85.296  67.968  1.00  0.00     0.157 A 
ATOM     11  C   UNL     1      77.006  85.602  65.662  1.00  0.00     0.056 A 
ATOM     12  C   UNL     1      78.258  84.034  67.626  1.00  0.00     0.050 A 
ATOM     13  C   UNL     1      78.124  83.543  66.313  1.00  0.00     0.009 A 
BRANCH   9  14
ATOM     14  O   UNL     1      76.638  87.333  67.295  1.00  0.00    -0.493 OA
ATOM     15  C   UNL     1      75.260  87.344  67.709  1.00  0.00     0.278 C 
ENDBRANCH   9  14
BRANCH  10  16
ATOM     16  O   UNL     1      77.856  85.739  69.248  1.00  0.00    -0.504 OA
ATOM     17  H   UNL     1      78.748  85.575  69.563  1.00  0.00     0.293 HD
ENDBRANCH  10  16
ENDBRANCH   7   8
ENDBRANCH   4   7
ENDBRANCH   2   3
ENDBRANCH   1   2
BRANCH   1  18
ATOM     18  C   UNL     1      72.313  80.405  63.993  1.00  0.00     0.001 C 
BRANCH  18  19
ATOM     19  C   UNL     1      71.568  81.742  63.717  1.00  0.00     0.000 C 
BRANCH  19  20
ATOM     20  C   UNL     1      71.267  82.512  65.034  1.00  0.00     0.000 C 
BRANCH  20  21
ATOM     21  C   UNL     1      72.216  82.156  66.211  1.00  0.00     0.003 C 
BRANCH  21  22
ATOM     22  C   UNL     1      73.498  83.047  66.305  1.00  0.00    -0.017 C 
ATOM     23  C   UNL     1      74.732  82.185  66.694  1.00  0.00     0.007 C 
ATOM     24  C   UNL     1      73.350  84.256  67.275  1.00  0.00     0.007 C 
ENDBRANCH  21  22
ENDBRANCH  20  21
ENDBRANCH  19  20
ENDBRANCH  18  19
ENDBRANCH   1  18
TORSDOF 11
ENDMDL
MODEL 9
REMARK VINA RESULT:    -5.292     23.574     26.934
REMARK INTER + INTRA:          -9.645
REMARK INTER:                  -7.980
REMARK INTRA:                  -1.665
REMARK UNBOUND:                -1.104
REMARK SMILES COc1cc(CNC(=O)CCCCCCC(C)C)ccc1O
REMARK SMILES IDX 11 1 10 2 8 3 7 4 9 6 6 7 5 8 3 9 21 10 4 11 20 12 19 13
REMARK SMILES IDX 2 14 1 15 22 16 12 18 13 19 14 20 15 21 16 22 17 23 18 24
REMARK H PARENT 7 5 22 17
REMARK Flexibility Score: inf
ROOT
ATOM      1  C   UNL     1      73.148  82.010  66.018  1.00  0.00     0.010 C 
ENDROOT
BRANCH   1   2
ATOM      2  C   UNL     1      74.078  81.080  65.191  1.00  0.00     0.100 C 
BRANCH   2   3
ATOM      3  C   UNL     1      75.486  81.536  65.163  1.00  0.00     0.220 C 
ATOM      4  N   UNL     1      75.972  82.334  66.158  1.00  0.00    -0.352 N 
ATOM      5  H   UNL     1      75.291  82.603  66.852  1.00  0.00     0.163 HD
ATOM      6  O   UNL     1      76.224  81.153  64.223  1.00  0.00    -0.275 OA
BRANCH   4   7
ATOM      7  C   UNL     1      77.325  82.787  66.266  1.00  0.00     0.151 C 
BRANCH   7   8
ATOM      8  C   UNL     1      77.474  83.987  67.135  1.00  0.00    -0.025 A 
ATOM      9  C   UNL     1      77.537  84.999  69.376  1.00  0.00     0.160 A 
ATOM     10  C   UNL     1      77.801  86.261  68.801  1.00  0.00     0.157 A 
ATOM     11  C   UNL     1      77.358  83.877  68.540  1.00  0.00     0.056 A 
ATOM     12  C   UNL     1      77.881  86.390  67.403  1.00  0.00     0.050 A 
ATOM     13  C   UNL     1      77.729  85.261  66.575  1.00  0.00     0.009 A 
BRANCH   9  14
ATOM     14  O   UNL     1      77.419  84.869  70.733  1.00  0.00    -0.493 OA
ATOM     15  C   UNL     1      76.306  84.053  71.143  1.00  0.00     0.278 C 
ENDBRANCH   9  14
BRANCH  10  16
ATOM     16  O   UNL     1      77.977  87.359  69.582  1.00  0.00    -0.504 OA
ATOM     17  H   UNL     1      77.995  87.095  70.505  1.00  0.00     0.293 HD
ENDBRANCH  10  16
ENDBRANCH   7   8
ENDBRANCH   4   7
ENDBRANCH   2   3
ENDBRANCH   1   2
BRANCH   1  18
ATOM     18  C   UNL     1      71.716  82.093  65.416  1.00  0.00     0.001 C 
BRANCH  18  19
ATOM     19  C   UNL     1      70.844  83.226  66.029  1.00  0.00     0.000 C 
BRANCH  19  20
ATOM     20  C   UNL     1      71.210  83.487  67.517  1.00  0.00     0.000 C 
BRANCH  20  21
ATOM     21  C   UNL     1      71.793  84.901  67.791  1.00  0.00     0.003 C 
BRANCH  21  22
ATOM     22  C   UNL     1      73.355  84.977  67.765  1.00  0.00    -0.017 C 
ATOM     23  C   UNL     1      73.881  85.767  68.996  1.00  0.00     0.007 C 
ATOM     24  C   UNL     1      73.930  85.573  66.447  1.00  0.00     0.007 C 
ENDBRANCH  21  22
ENDBRANCH  20  21
ENDBRANCH  19  20
ENDBRANCH  18  19
ENDBRANCH   1  18
TORSDOF 11
ENDMDL
MODEL 10
REMARK VINA RESULT:    -5.223     19.005     21.939
REMARK INTER + INTRA:          -9.534
REMARK INTER:                  -8.510
REMARK INTRA:                  -1.024
REMARK UNBOUND:                -1.104
REMARK SMILES COc1cc(CNC(=O)CCCCCCC(C)C)ccc1O
REMARK SMILES IDX 11 1 10 2 8 3 7 4 9 6 6 7 5 8 3 9 21 10 4 11 20 12 19 13
REMARK SMILES IDX 2 14 1 15 22 16 12 18 13 19 14 20 15 21 16 22 17 23 18 24
REMARK H PARENT 7 5 22 17
REMARK Flexibility Score: inf
ROOT
ATOM      1  C   UNL     1      74.819  88.717  68.587  1.00  0.00     0.010 C 
ENDROOT
BRANCH   1   2
ATOM      2  C   UNL     1      75.297  88.659  70.064  1.00  0.00     0.100 C 
BRANCH   2   3
ATOM      3  C   UNL     1      74.912  89.852  70.851  1.00  0.00     0.220 C 
ATOM      4  N   UNL     1      75.384  91.085  70.508  1.00  0.00    -0.352 N 
ATOM      5  H   UNL     1      76.026  91.089  69.730  1.00  0.00     0.163 HD
ATOM      6  O   UNL     1      74.127  89.706  71.820  1.00  0.00    -0.275 OA
BRANCH   4   7
ATOM      7  C   UNL     1      75.035  92.313  71.157  1.00  0.00     0.151 C 
BRANCH   7   8
ATOM      8  C   UNL     1      75.832  92.573  72.387  1.00  0.00    -0.025 A 
ATOM      9  C   UNL     1      75.937  92.969  74.812  1.00  0.00     0.160 A 
ATOM     10  C   UNL     1      77.346  93.025  74.745  1.00  0.00     0.157 A 
ATOM     11  C   UNL     1      75.191  92.763  73.633  1.00  0.00     0.056 A 
ATOM     12  C   UNL     1      77.994  92.877  73.505  1.00  0.00     0.050 A 
ATOM     13  C   UNL     1      77.244  92.642  72.336  1.00  0.00     0.009 A 
BRANCH   9  14
ATOM     14  O   UNL     1      75.295  93.152  76.007  1.00  0.00    -0.493 OA
ATOM     15  C   UNL     1      74.965  91.924  76.681  1.00  0.00     0.278 C 
ENDBRANCH   9  14
BRANCH  10  16
ATOM     16  O   UNL     1      78.090  93.224  75.864  1.00  0.00    -0.504 OA
ATOM     17  H   UNL     1      78.418  94.127  75.874  1.00  0.00     0.293 HD
ENDBRANCH  10  16
ENDBRANCH   7   8
ENDBRANCH   4   7
ENDBRANCH   2   3
ENDBRANCH   1   2
BRANCH   1  18
ATOM     18  C   UNL     1      76.004  88.868  67.592  1.00  0.00     0.001 C 
BRANCH  18  19
ATOM     19  C   UNL     1      76.462  87.526  66.954  1.00  0.00     0.000 C 
BRANCH  19  20
ATOM     20  C   UNL     1      77.899  87.140  67.405  1.00  0.00     0.000 C 
BRANCH  20  21
ATOM     21  C   UNL     1      77.972  86.494  68.816  1.00  0.00     0.003 C 
BRANCH  21  22
ATOM     22  C   UNL     1      77.230  85.123  68.943  1.00  0.00    -0.017 C 
ATOM     23  C   UNL     1      77.147  84.685  70.432  1.00  0.00     0.007 C 
ATOM     24  C   UNL     1      77.855  83.991  68.076  1.00  0.00     0.007 C 
ENDBRANCH  21  22
ENDBRANCH  20  21
ENDBRANCH  19  20
ENDBRANCH  18  19
ENDBRANCH   1  18
TORSDOF 11
ENDMDL
