MODEL 1
REMARK VINA RESULT:    -6.143      0.000      0.000
REMARK INTER + INTRA:         -10.368
REMARK INTER:                  -9.555
REMARK INTRA:                  -0.813
REMARK UNBOUND:                -0.813
REMARK SMILES COc1cc(CNC(=O)CCCCCC(C)C)ccc1O
REMARK SMILES IDX 10 1 8 2 7 3 9 5 6 6 5 7 3 8 20 9 4 10 19 11 18 12 2 13 1 14
REMARK SMILES IDX 21 15 11 17 12 18 13 19 14 20 15 21 16 22 17 23
REMARK H PARENT 7 4 21 16
REMARK Flexibility Score: inf
ROOT
ATOM      1  C   UNL     1      93.958  98.542  72.053  1.00  0.00     0.100 C 
ENDROOT
BRANCH   1   2
ATOM      2  C   UNL     1      94.168  98.214  73.478  1.00  0.00     0.220 C 
ATOM      3  N   UNL     1      93.996  96.930  73.902  1.00  0.00    -0.352 N 
ATOM      4  H   UNL     1      93.599  96.305  73.215  1.00  0.00     0.163 HD
ATOM      5  O   UNL     1      94.543  99.119  74.262  1.00  0.00    -0.275 OA
BRANCH   3   6
ATOM      6  C   UNL     1      94.329  96.442  75.202  1.00  0.00     0.151 C 
BRANCH   6   7
ATOM      7  C   UNL     1      93.185  95.788  75.892  1.00  0.00    -0.025 A 
ATOM      8  C   UNL     1      90.941  94.786  75.818  1.00  0.00     0.160 A 
ATOM      9  C   UNL     1      91.034  94.481  77.193  1.00  0.00     0.157 A 
ATOM     10  C   UNL     1      92.008  95.454  75.181  1.00  0.00     0.056 A 
ATOM     11  C   UNL     1      92.189  94.833  77.915  1.00  0.00     0.050 A 
ATOM     12  C   UNL     1      93.258  95.476  77.270  1.00  0.00     0.009 A 
BRANCH   8  13
ATOM     13  O   UNL     1      89.817  94.470  75.100  1.00  0.00    -0.493 OA
ATOM     14  C   UNL     1      89.980  93.329  74.236  1.00  0.00     0.278 C 
ENDBRANCH   8  13
BRANCH   9  15
ATOM     15  O   UNL     1      90.012  93.841  77.815  1.00  0.00    -0.504 OA
ATOM     16  H   UNL     1      89.960  94.134  78.728  1.00  0.00     0.293 HD
ENDBRANCH   9  15
ENDBRANCH   6   7
ENDBRANCH   3   6
ENDBRANCH   1   2
BRANCH   1  17
ATOM     17  C   UNL     1      92.698  99.405  71.775  1.00  0.00     0.010 C 
BRANCH  17  18
ATOM     18  C   UNL     1      92.851 100.239  70.473  1.00  0.00     0.001 C 
BRANCH  18  19
ATOM     19  C   UNL     1      91.502 100.516  69.758  1.00  0.00     0.000 C 
BRANCH  19  20
ATOM     20  C   UNL     1      90.321  99.737  70.406  1.00  0.00     0.003 C 
BRANCH  20  21
ATOM     21  C   UNL     1      89.169 100.633  70.968  1.00  0.00    -0.017 C 
ATOM     22  C   UNL     1      88.499 101.455  69.828  1.00  0.00     0.007 C 
ATOM     23  C   UNL     1      89.643 101.584  72.105  1.00  0.00     0.007 C 
ENDBRANCH  20  21
ENDBRANCH  19  20
ENDBRANCH  18  19
ENDBRANCH  17  18
ENDBRANCH   1  17
TORSDOF 10
ENDMDL
MODEL 2
REMARK VINA RESULT:    -5.901     14.914     16.941
REMARK INTER + INTRA:          -9.990
REMARK INTER:                  -9.371
REMARK INTRA:                  -0.619
REMARK UNBOUND:                -0.813
REMARK SMILES COc1cc(CNC(=O)CCCCCC(C)C)ccc1O
REMARK SMILES IDX 10 1 8 2 7 3 9 5 6 6 5 7 3 8 20 9 4 10 19 11 18 12 2 13 1 14
REMARK SMILES IDX 21 15 11 17 12 18 13 19 14 20 15 21 16 22 17 23
REMARK H PARENT 7 4 21 16
REMARK Flexibility Score: inf
ROOT
ATOM      1  C   UNL     1      97.889  81.842  79.355  1.00  0.00     0.100 C 
ENDROOT
BRANCH   1   2
ATOM      2  C   UNL     1      97.811  81.804  80.830  1.00  0.00     0.220 C 
ATOM      3  N   UNL     1      96.594  81.880  81.438  1.00  0.00    -0.352 N 
ATOM      4  H   UNL     1      95.823  82.093  80.821  1.00  0.00     0.163 HD
ATOM      5  O   UNL     1      98.868  81.660  81.493  1.00  0.00    -0.275 OA
BRANCH   3   6
ATOM      6  C   UNL     1      96.358  81.683  82.833  1.00  0.00     0.151 C 
BRANCH   6   7
ATOM      7  C   UNL     1      95.947  82.927  83.537  1.00  0.00    -0.025 A 
ATOM      8  C   UNL     1      94.970  84.044  85.498  1.00  0.00     0.160 A 
ATOM      9  C   UNL     1      95.225  85.300  84.908  1.00  0.00     0.157 A 
ATOM     10  C   UNL     1      95.315  82.866  84.802  1.00  0.00     0.056 A 
ATOM     11  C   UNL     1      95.829  85.372  83.639  1.00  0.00     0.050 A 
ATOM     12  C   UNL     1      96.192  84.196  82.961  1.00  0.00     0.009 A 
BRANCH   8  13
ATOM     13  O   UNL     1      94.365  83.951  86.724  1.00  0.00    -0.493 OA
ATOM     14  C   UNL     1      95.046  83.078  87.645  1.00  0.00     0.278 C 
ENDBRANCH   8  13
BRANCH   9  15
ATOM     15  O   UNL     1      94.896  86.438  85.568  1.00  0.00    -0.504 OA
ATOM     16  H   UNL     1      94.007  86.358  85.921  1.00  0.00     0.293 HD
ENDBRANCH   9  15
ENDBRANCH   6   7
ENDBRANCH   3   6
ENDBRANCH   1   2
BRANCH   1  17
ATOM     17  C   UNL     1      97.845  83.271  78.750  1.00  0.00     0.010 C 
BRANCH  17  18
ATOM     18  C   UNL     1      96.489  83.553  78.046  1.00  0.00     0.001 C 
BRANCH  18  19
ATOM     19  C   UNL     1      96.631  84.397  76.752  1.00  0.00     0.000 C 
BRANCH  19  20
ATOM     20  C   UNL     1      97.867  83.975  75.906  1.00  0.00     0.003 C 
BRANCH  20  21
ATOM     21  C   UNL     1      97.817  84.406  74.404  1.00  0.00    -0.017 C 
ATOM     22  C   UNL     1      97.579  83.176  73.480  1.00  0.00     0.007 C 
ATOM     23  C   UNL     1      99.094  85.174  73.953  1.00  0.00     0.007 C 
ENDBRANCH  20  21
ENDBRANCH  19  20
ENDBRANCH  18  19
ENDBRANCH  17  18
ENDBRANCH   1  17
TORSDOF 10
ENDMDL
MODEL 3
REMARK VINA RESULT:    -5.803      4.003      6.174
REMARK INTER + INTRA:          -9.838
REMARK INTER:                  -8.853
REMARK INTRA:                  -0.985
REMARK UNBOUND:                -0.813
REMARK SMILES COc1cc(CNC(=O)CCCCCC(C)C)ccc1O
REMARK SMILES IDX 10 1 8 2 7 3 9 5 6 6 5 7 3 8 20 9 4 10 19 11 18 12 2 13 1 14
REMARK SMILES IDX 21 15 11 17 12 18 13 19 14 20 15 21 16 22 17 23
REMARK H PARENT 7 4 21 16
REMARK Flexibility Score: inf
ROOT
ATOM      1  C   UNL     1      95.654  99.048  74.892  1.00  0.00     0.100 C 
ENDROOT
BRANCH   1   2
ATOM      2  C   UNL     1      95.193  97.760  74.333  1.00  0.00     0.220 C 
ATOM      3  N   UNL     1      94.261  97.031  75.011  1.00  0.00    -0.352 N 
ATOM      4  H   UNL     1      94.045  97.374  75.936  1.00  0.00     0.163 HD
ATOM      5  O   UNL     1      95.640  97.383  73.222  1.00  0.00    -0.275 OA
BRANCH   3   6
ATOM      6  C   UNL     1      93.605  95.867  74.510  1.00  0.00     0.151 C 
BRANCH   6   7
ATOM      7  C   UNL     1      92.726  95.213  75.516  1.00  0.00    -0.025 A 
ATOM      8  C   UNL     1      90.918  93.638  76.066  1.00  0.00     0.160 A 
ATOM      9  C   UNL     1      91.097  93.917  77.438  1.00  0.00     0.157 A 
ATOM     10  C   UNL     1      91.721  94.301  75.113  1.00  0.00     0.056 A 
ATOM     11  C   UNL     1      92.075  94.841  77.848  1.00  0.00     0.050 A 
ATOM     12  C   UNL     1      92.887  95.480  76.895  1.00  0.00     0.009 A 
BRANCH   8  13
ATOM     13  O   UNL     1      89.958  92.757  75.645  1.00  0.00    -0.493 OA
ATOM     14  C   UNL     1      90.116  92.334  74.277  1.00  0.00     0.278 C 
ENDBRANCH   8  13
BRANCH   9  15
ATOM     15  O   UNL     1      90.329  93.287  78.362  1.00  0.00    -0.504 OA
ATOM     16  H   UNL     1      89.946  93.936  78.957  1.00  0.00     0.293 HD
ENDBRANCH   9  15
ENDBRANCH   6   7
ENDBRANCH   3   6
ENDBRANCH   1   2
BRANCH   1  17
ATOM     17  C   UNL     1      95.684  99.097  76.443  1.00  0.00     0.010 C 
BRANCH  17  18
ATOM     18  C   UNL     1      96.713  98.091  77.028  1.00  0.00     0.001 C 
BRANCH  18  19
ATOM     19  C   UNL     1      96.105  97.132  78.086  1.00  0.00     0.000 C 
BRANCH  19  20
ATOM     20  C   UNL     1      95.260  97.891  79.150  1.00  0.00     0.003 C 
BRANCH  20  21
ATOM     21  C   UNL     1      96.090  98.614  80.260  1.00  0.00    -0.017 C 
ATOM     22  C   UNL     1      97.016  97.608  81.005  1.00  0.00     0.007 C 
ATOM     23  C   UNL     1      95.197  99.376  81.282  1.00  0.00     0.007 C 
ENDBRANCH  20  21
ENDBRANCH  19  20
ENDBRANCH  18  19
ENDBRANCH  17  18
ENDBRANCH   1  17
TORSDOF 10
ENDMDL
MODEL 4
REMARK VINA RESULT:    -5.753     14.525     17.038
REMARK INTER + INTRA:          -9.760
REMARK INTER:                  -8.961
REMARK INTRA:                  -0.799
REMARK UNBOUND:                -0.813
REMARK SMILES COc1cc(CNC(=O)CCCCCC(C)C)ccc1O
REMARK SMILES IDX 10 1 8 2 7 3 9 5 6 6 5 7 3 8 20 9 4 10 19 11 18 12 2 13 1 14
REMARK SMILES IDX 21 15 11 17 12 18 13 19 14 20 15 21 16 22 17 23
REMARK H PARENT 7 4 21 16
REMARK Flexibility Score: inf
ROOT
ATOM      1  C   UNL     1      97.953  83.231  79.765  1.00  0.00     0.100 C 
ENDROOT
BRANCH   1   2
ATOM      2  C   UNL     1      97.887  82.397  80.983  1.00  0.00     0.220 C 
ATOM      3  N   UNL     1      97.458  82.952  82.152  1.00  0.00    -0.352 N 
ATOM      4  H   UNL     1      97.337  83.954  82.127  1.00  0.00     0.163 HD
ATOM      5  O   UNL     1      98.188  81.181  80.906  1.00  0.00    -0.275 OA
BRANCH   3   6
ATOM      6  C   UNL     1      97.182  82.229  83.352  1.00  0.00     0.151 C 
BRANCH   6   7
ATOM      7  C   UNL     1      95.856  82.559  83.942  1.00  0.00    -0.025 A 
ATOM      8  C   UNL     1      94.396  84.110  85.171  1.00  0.00     0.160 A 
ATOM      9  C   UNL     1      93.315  83.218  85.006  1.00  0.00     0.157 A 
ATOM     10  C   UNL     1      95.664  83.767  84.654  1.00  0.00     0.056 A 
ATOM     11  C   UNL     1      93.502  82.003  84.322  1.00  0.00     0.050 A 
ATOM     12  C   UNL     1      94.760  81.678  83.789  1.00  0.00     0.009 A 
BRANCH   8  13
ATOM     13  O   UNL     1      94.240  85.289  85.851  1.00  0.00    -0.493 OA
ATOM     14  C   UNL     1      94.254  86.455  85.004  1.00  0.00     0.278 C 
ENDBRANCH   8  13
BRANCH   9  15
ATOM     15  O   UNL     1      92.093  83.538  85.501  1.00  0.00    -0.504 OA
ATOM     16  H   UNL     1      91.811  82.860  86.120  1.00  0.00     0.293 HD
ENDBRANCH   9  15
ENDBRANCH   6   7
ENDBRANCH   3   6
ENDBRANCH   1   2
BRANCH   1  17
ATOM     17  C   UNL     1      96.807  82.970  78.750  1.00  0.00     0.010 C 
BRANCH  17  18
ATOM     18  C   UNL     1      97.293  82.119  77.545  1.00  0.00     0.001 C 
BRANCH  18  19
ATOM     19  C   UNL     1      98.715  82.500  77.055  1.00  0.00     0.000 C 
BRANCH  19  20
ATOM     20  C   UNL     1      98.696  83.713  76.080  1.00  0.00     0.003 C 
BRANCH  20  21
ATOM     21  C   UNL     1      97.382  83.872  75.249  1.00  0.00    -0.017 C 
ATOM     22  C   UNL     1      97.689  83.891  73.722  1.00  0.00     0.007 C 
ATOM     23  C   UNL     1      96.565  85.136  75.645  1.00  0.00     0.007 C 
ENDBRANCH  20  21
ENDBRANCH  19  20
ENDBRANCH  18  19
ENDBRANCH  17  18
ENDBRANCH   1  17
TORSDOF 10
ENDMDL
MODEL 5
REMARK VINA RESULT:    -5.752     14.636     17.162
REMARK INTER + INTRA:          -9.759
REMARK INTER:                  -9.147
REMARK INTRA:                  -0.612
REMARK UNBOUND:                -0.813
REMARK SMILES COc1cc(CNC(=O)CCCCCC(C)C)ccc1O
REMARK SMILES IDX 10 1 8 2 7 3 9 5 6 6 5 7 3 8 20 9 4 10 19 11 18 12 2 13 1 14
REMARK SMILES IDX 21 15 11 17 12 18 13 19 14 20 15 21 16 22 17 23
REMARK H PARENT 7 4 21 16
REMARK Flexibility Score: inf
ROOT
ATOM      1  C   UNL     1      96.357  83.900  77.758  1.00  0.00     0.100 C 
ENDROOT
BRANCH   1   2
ATOM      2  C   UNL     1      96.654  84.325  76.374  1.00  0.00     0.220 C 
ATOM      3  N   UNL     1      97.380  83.505  75.563  1.00  0.00    -0.352 N 
ATOM      4  H   UNL     1      97.784  82.702  76.023  1.00  0.00     0.163 HD
ATOM      5  O   UNL     1      96.193  85.417  75.961  1.00  0.00    -0.275 OA
BRANCH   3   6
ATOM      6  C   UNL     1      97.591  83.709  74.166  1.00  0.00     0.151 C 
BRANCH   6   7
ATOM      7  C   UNL     1      98.951  84.223  73.849  1.00  0.00    -0.025 A 
ATOM      8  C   UNL     1     100.607  85.000  72.206  1.00  0.00     0.160 A 
ATOM      9  C   UNL     1     101.517  85.265  73.251  1.00  0.00     0.157 A 
ATOM     10  C   UNL     1      99.337  84.464  72.509  1.00  0.00     0.056 A 
ATOM     11  C   UNL     1     101.152  85.003  74.585  1.00  0.00     0.050 A 
ATOM     12  C   UNL     1      99.878  84.492  74.882  1.00  0.00     0.009 A 
BRANCH   8  13
ATOM     13  O   UNL     1     100.949  85.229  70.899  1.00  0.00    -0.493 OA
ATOM     14  C   UNL     1     101.161  84.027  70.134  1.00  0.00     0.278 C 
ENDBRANCH   8  13
BRANCH   9  15
ATOM     15  O   UNL     1     102.740  85.778  72.971  1.00  0.00    -0.504 OA
ATOM     16  H   UNL     1     102.839  85.869  72.020  1.00  0.00     0.293 HD
ENDBRANCH   9  15
ENDBRANCH   6   7
ENDBRANCH   3   6
ENDBRANCH   1   2
BRANCH   1  17
ATOM     17  C   UNL     1      97.325  82.822  78.316  1.00  0.00     0.010 C 
BRANCH  17  18
ATOM     18  C   UNL     1      97.719  83.115  79.790  1.00  0.00     0.001 C 
BRANCH  18  19
ATOM     19  C   UNL     1      97.083  82.129  80.805  1.00  0.00     0.000 C 
BRANCH  19  20
ATOM     20  C   UNL     1      97.633  82.332  82.247  1.00  0.00     0.003 C 
BRANCH  20  21
ATOM     21  C   UNL     1      96.589  82.859  83.284  1.00  0.00    -0.017 C 
ATOM     22  C   UNL     1      95.475  81.800  83.538  1.00  0.00     0.007 C 
ATOM     23  C   UNL     1      95.951  84.215  82.864  1.00  0.00     0.007 C 
ENDBRANCH  20  21
ENDBRANCH  19  20
ENDBRANCH  18  19
ENDBRANCH  17  18
ENDBRANCH   1  17
TORSDOF 10
ENDMDL
MODEL 6
REMARK VINA RESULT:    -5.623     14.928     17.787
REMARK INTER + INTRA:          -9.558
REMARK INTER:                  -8.748
REMARK INTRA:                  -0.810
REMARK UNBOUND:                -0.813
REMARK SMILES COc1cc(CNC(=O)CCCCCC(C)C)ccc1O
REMARK SMILES IDX 10 1 8 2 7 3 9 5 6 6 5 7 3 8 20 9 4 10 19 11 18 12 2 13 1 14
REMARK SMILES IDX 21 15 11 17 12 18 13 19 14 20 15 21 16 22 17 23
REMARK H PARENT 7 4 21 16
REMARK Flexibility Score: inf
ROOT
ATOM      1  C   UNL     1      95.873  83.012  83.165  1.00  0.00     0.100 C 
ENDROOT
BRANCH   1   2
ATOM      2  C   UNL     1      96.853  82.419  82.231  1.00  0.00     0.220 C 
ATOM      3  N   UNL     1      96.874  82.831  80.932  1.00  0.00    -0.352 N 
ATOM      4  H   UNL     1      96.109  83.435  80.665  1.00  0.00     0.163 HD
ATOM      5  O   UNL     1      97.675  81.576  82.665  1.00  0.00    -0.275 OA
BRANCH   3   6
ATOM      6  C   UNL     1      97.869  82.474  79.973  1.00  0.00     0.151 C 
BRANCH   6   7
ATOM      7  C   UNL     1      97.598  83.024  78.617  1.00  0.00    -0.025 A 
ATOM      8  C   UNL     1      98.224  83.271  76.252  1.00  0.00     0.160 A 
ATOM      9  C   UNL     1      97.047  84.014  76.020  1.00  0.00     0.157 A 
ATOM     10  C   UNL     1      98.501  82.797  77.552  1.00  0.00     0.056 A 
ATOM     11  C   UNL     1      96.155  84.268  77.078  1.00  0.00     0.050 A 
ATOM     12  C   UNL     1      96.425  83.772  78.365  1.00  0.00     0.009 A 
BRANCH   8  13
ATOM     13  O   UNL     1      99.115  83.029  75.240  1.00  0.00    -0.493 OA
ATOM     14  C   UNL     1     100.171  84.005  75.148  1.00  0.00     0.278 C 
ENDBRANCH   8  13
BRANCH   9  15
ATOM     15  O   UNL     1      96.772  84.476  74.775  1.00  0.00    -0.504 OA
ATOM     16  H   UNL     1      96.429  85.370  74.833  1.00  0.00     0.293 HD
ENDBRANCH   9  15
ENDBRANCH   6   7
ENDBRANCH   3   6
ENDBRANCH   1   2
BRANCH   1  17
ATOM     17  C   UNL     1      95.920  84.562  83.240  1.00  0.00     0.010 C 
BRANCH  17  18
ATOM     18  C   UNL     1      95.725  85.071  84.695  1.00  0.00     0.001 C 
BRANCH  18  19
ATOM     19  C   UNL     1      94.306  85.640  84.963  1.00  0.00     0.000 C 
BRANCH  19  20
ATOM     20  C   UNL     1      93.680  85.066  86.267  1.00  0.00     0.003 C 
BRANCH  20  21
ATOM     21  C   UNL     1      93.737  83.509  86.398  1.00  0.00    -0.017 C 
ATOM     22  C   UNL     1      92.727  82.833  85.425  1.00  0.00     0.007 C 
ATOM     23  C   UNL     1      93.490  83.015  87.853  1.00  0.00     0.007 C 
ENDBRANCH  20  21
ENDBRANCH  19  20
ENDBRANCH  18  19
ENDBRANCH  17  18
ENDBRANCH   1  17
TORSDOF 10
ENDMDL
MODEL 7
REMARK VINA RESULT:    -5.593      3.542      7.974
REMARK INTER + INTRA:          -9.511
REMARK INTER:                  -8.647
REMARK INTRA:                  -0.865
REMARK UNBOUND:                -0.813
REMARK SMILES COc1cc(CNC(=O)CCCCCC(C)C)ccc1O
REMARK SMILES IDX 10 1 8 2 7 3 9 5 6 6 5 7 3 8 20 9 4 10 19 11 18 12 2 13 1 14
REMARK SMILES IDX 21 15 11 17 12 18 13 19 14 20 15 21 16 22 17 23
REMARK H PARENT 7 4 21 16
REMARK Flexibility Score: inf
ROOT
ATOM      1  C   UNL     1      94.289  97.117  75.922  1.00  0.00     0.100 C 
ENDROOT
BRANCH   1   2
ATOM      2  C   UNL     1      94.348  98.021  74.754  1.00  0.00     0.220 C 
ATOM      3  N   UNL     1      94.064  97.533  73.514  1.00  0.00    -0.352 N 
ATOM      4  H   UNL     1      93.957  96.529  73.467  1.00  0.00     0.163 HD
ATOM      5  O   UNL     1      94.618  99.233  74.936  1.00  0.00    -0.275 OA
BRANCH   3   6
ATOM      6  C   UNL     1      93.914  98.323  72.334  1.00  0.00     0.151 C 
BRANCH   6   7
ATOM      7  C   UNL     1      95.073  98.214  71.408  1.00  0.00    -0.025 A 
ATOM      8  C   UNL     1      96.285  98.981  69.410  1.00  0.00     0.160 A 
ATOM      9  C   UNL     1      97.313  98.053  69.680  1.00  0.00     0.157 A 
ATOM     10  C   UNL     1      95.163  99.043  70.264  1.00  0.00     0.056 A 
ATOM     11  C   UNL     1      97.221  97.205  70.800  1.00  0.00     0.050 A 
ATOM     12  C   UNL     1      96.113  97.289  71.660  1.00  0.00     0.009 A 
BRANCH   8  13
ATOM     13  O   UNL     1      96.347  99.802  68.315  1.00  0.00    -0.493 OA
ATOM     14  C   UNL     1      95.408  99.458  67.277  1.00  0.00     0.278 C 
ENDBRANCH   8  13
BRANCH   9  15
ATOM     15  O   UNL     1      98.395  97.984  68.864  1.00  0.00    -0.504 OA
ATOM     16  H   UNL     1      98.139  98.230  67.973  1.00  0.00     0.293 HD
ENDBRANCH   9  15
ENDBRANCH   6   7
ENDBRANCH   3   6
ENDBRANCH   1   2
BRANCH   1  17
ATOM     17  C   UNL     1      93.536  95.784  75.660  1.00  0.00     0.010 C 
BRANCH  17  18
ATOM     18  C   UNL     1      93.492  94.892  76.931  1.00  0.00     0.001 C 
BRANCH  18  19
ATOM     19  C   UNL     1      92.167  95.021  77.728  1.00  0.00     0.000 C 
BRANCH  19  20
ATOM     20  C   UNL     1      91.023  95.638  76.872  1.00  0.00     0.003 C 
BRANCH  20  21
ATOM     21  C   UNL     1      89.943  94.619  76.383  1.00  0.00    -0.017 C 
ATOM     22  C   UNL     1      89.831  93.414  77.363  1.00  0.00     0.007 C 
ATOM     23  C   UNL     1      90.205  94.108  74.936  1.00  0.00     0.007 C 
ENDBRANCH  20  21
ENDBRANCH  19  20
ENDBRANCH  18  19
ENDBRANCH  17  18
ENDBRANCH   1  17
TORSDOF 10
ENDMDL
MODEL 8
REMARK VINA RESULT:    -5.578     15.709     17.713
REMARK INTER + INTRA:          -9.488
REMARK INTER:                  -8.532
REMARK INTRA:                  -0.956
REMARK UNBOUND:                -0.813
REMARK SMILES COc1cc(CNC(=O)CCCCCC(C)C)ccc1O
REMARK SMILES IDX 10 1 8 2 7 3 9 5 6 6 5 7 3 8 20 9 4 10 19 11 18 12 2 13 1 14
REMARK SMILES IDX 21 15 11 17 12 18 13 19 14 20 15 21 16 22 17 23
REMARK H PARENT 7 4 21 16
REMARK Flexibility Score: inf
ROOT
ATOM      1  C   UNL     1      97.518  83.523  79.623  1.00  0.00     0.100 C 
ENDROOT
BRANCH   1   2
ATOM      2  C   UNL     1      97.242  82.585  80.731  1.00  0.00     0.220 C 
ATOM      3  N   UNL     1      97.134  83.063  82.003  1.00  0.00    -0.352 N 
ATOM      4  H   UNL     1      97.388  84.035  82.114  1.00  0.00     0.163 HD
ATOM      5  O   UNL     1      97.069  81.369  80.470  1.00  0.00    -0.275 OA
BRANCH   3   6
ATOM      6  C   UNL     1      96.703  82.304  83.132  1.00  0.00     0.151 C 
BRANCH   6   7
ATOM      7  C   UNL     1      95.593  82.952  83.882  1.00  0.00    -0.025 A 
ATOM      8  C   UNL     1      93.286  82.912  84.732  1.00  0.00     0.160 A 
ATOM      9  C   UNL     1      93.500  84.154  85.365  1.00  0.00     0.157 A 
ATOM     10  C   UNL     1      94.327  82.328  83.979  1.00  0.00     0.056 A 
ATOM     11  C   UNL     1      94.746  84.797  85.253  1.00  0.00     0.050 A 
ATOM     12  C   UNL     1      95.787  84.199  84.522  1.00  0.00     0.009 A 
BRANCH   8  13
ATOM     13  O   UNL     1      92.073  82.279  84.813  1.00  0.00    -0.493 OA
ATOM     14  C   UNL     1      92.037  81.212  85.780  1.00  0.00     0.278 C 
ENDBRANCH   8  13
BRANCH   9  15
ATOM     15  O   UNL     1      92.505  84.726  86.090  1.00  0.00    -0.504 OA
ATOM     16  H   UNL     1      92.710  85.651  86.241  1.00  0.00     0.293 HD
ENDBRANCH   9  15
ENDBRANCH   6   7
ENDBRANCH   3   6
ENDBRANCH   1   2
BRANCH   1  17
ATOM     17  C   UNL     1      96.431  83.541  78.515  1.00  0.00     0.010 C 
BRANCH  17  18
ATOM     18  C   UNL     1      97.010  84.008  77.152  1.00  0.00     0.001 C 
BRANCH  18  19
ATOM     19  C   UNL     1      98.358  83.330  76.790  1.00  0.00     0.000 C 
BRANCH  19  20
ATOM     20  C   UNL     1      98.175  81.841  76.376  1.00  0.00     0.003 C 
BRANCH  20  21
ATOM     21  C   UNL     1      99.168  80.841  77.052  1.00  0.00    -0.017 C 
ATOM     22  C   UNL     1      98.404  79.634  77.673  1.00  0.00     0.007 C 
ATOM     23  C   UNL     1     100.066  81.516  78.130  1.00  0.00     0.007 C 
ENDBRANCH  20  21
ENDBRANCH  19  20
ENDBRANCH  18  19
ENDBRANCH  17  18
ENDBRANCH   1  17
TORSDOF 10
ENDMDL
MODEL 9
REMARK VINA RESULT:    -5.504      5.691      8.605
REMARK INTER + INTRA:          -9.373
REMARK INTER:                  -8.768
REMARK INTRA:                  -0.606
REMARK UNBOUND:                -0.813
REMARK SMILES COc1cc(CNC(=O)CCCCCC(C)C)ccc1O
REMARK SMILES IDX 10 1 8 2 7 3 9 5 6 6 5 7 3 8 20 9 4 10 19 11 18 12 2 13 1 14
REMARK SMILES IDX 21 15 11 17 12 18 13 19 14 20 15 21 16 22 17 23
REMARK H PARENT 7 4 21 16
REMARK Flexibility Score: inf
ROOT
ATOM      1  C   UNL     1      94.051  96.643  77.929  1.00  0.00     0.100 C 
ENDROOT
BRANCH   1   2
ATOM      2  C   UNL     1      95.361  97.193  78.336  1.00  0.00     0.220 C 
ATOM      3  N   UNL     1      96.283  96.370  78.911  1.00  0.00    -0.352 N 
ATOM      4  H   UNL     1      95.944  95.448  79.142  1.00  0.00     0.163 HD
ATOM      5  O   UNL     1      95.614  98.400  78.103  1.00  0.00    -0.275 OA
BRANCH   3   6
ATOM      6  C   UNL     1      97.638  96.723  79.191  1.00  0.00     0.151 C 
BRANCH   6   7
ATOM      7  C   UNL     1      97.907  96.899  80.644  1.00  0.00    -0.025 A 
ATOM      8  C   UNL     1      97.682  98.213  82.710  1.00  0.00     0.160 A 
ATOM      9  C   UNL     1      98.362  97.204  83.424  1.00  0.00     0.157 A 
ATOM     10  C   UNL     1      97.475  98.064  81.322  1.00  0.00     0.056 A 
ATOM     11  C   UNL     1      98.820  96.054  82.754  1.00  0.00     0.050 A 
ATOM     12  C   UNL     1      98.590  95.900  81.376  1.00  0.00     0.009 A 
BRANCH   8  13
ATOM     13  O   UNL     1      97.246  99.349  83.340  1.00  0.00    -0.493 OA
ATOM     14  C   UNL     1      95.820  99.546  83.265  1.00  0.00     0.278 C 
ENDBRANCH   8  13
BRANCH   9  15
ATOM     15  O   UNL     1      98.568  97.339  84.758  1.00  0.00    -0.504 OA
ATOM     16  H   UNL     1      99.466  97.638  84.915  1.00  0.00     0.293 HD
ENDBRANCH   9  15
ENDBRANCH   6   7
ENDBRANCH   3   6
ENDBRANCH   1   2
BRANCH   1  17
ATOM     17  C   UNL     1      93.768  95.211  78.458  1.00  0.00     0.010 C 
BRANCH  17  18
ATOM     18  C   UNL     1      92.522  94.585  77.773  1.00  0.00     0.001 C 
BRANCH  18  19
ATOM     19  C   UNL     1      91.778  95.566  76.830  1.00  0.00     0.000 C 
BRANCH  19  20
ATOM     20  C   UNL     1      90.265  95.225  76.701  1.00  0.00     0.003 C 
BRANCH  20  21
ATOM     21  C   UNL     1      89.939  94.017  75.763  1.00  0.00    -0.017 C 
ATOM     22  C   UNL     1      89.859  92.690  76.575  1.00  0.00     0.007 C 
ATOM     23  C   UNL     1      90.955  93.867  74.594  1.00  0.00     0.007 C 
ENDBRANCH  20  21
ENDBRANCH  19  20
ENDBRANCH  18  19
ENDBRANCH  17  18
ENDBRANCH   1  17
TORSDOF 10
ENDMDL
MODEL 10
REMARK VINA RESULT:    -5.462     14.436     17.913
REMARK INTER + INTRA:          -9.308
REMARK INTER:                  -8.578
REMARK INTRA:                  -0.731
REMARK UNBOUND:                -0.813
REMARK SMILES COc1cc(CNC(=O)CCCCCC(C)C)ccc1O
REMARK SMILES IDX 10 1 8 2 7 3 9 5 6 6 5 7 3 8 20 9 4 10 19 11 18 12 2 13 1 14
REMARK SMILES IDX 21 15 11 17 12 18 13 19 14 20 15 21 16 22 17 23
REMARK H PARENT 7 4 21 16
REMARK Flexibility Score: inf
ROOT
ATOM      1  C   UNL     1      97.092  82.859  78.010  1.00  0.00     0.100 C 
ENDROOT
BRANCH   1   2
ATOM      2  C   UNL     1      96.879  83.872  76.956  1.00  0.00     0.220 C 
ATOM      3  N   UNL     1      97.678  83.868  75.852  1.00  0.00    -0.352 N 
ATOM      4  H   UNL     1      98.463  83.235  75.898  1.00  0.00     0.163 HD
ATOM      5  O   UNL     1      95.936  84.692  77.081  1.00  0.00    -0.275 OA
BRANCH   3   6
ATOM      6  C   UNL     1      97.476  84.670  74.688  1.00  0.00     0.151 C 
BRANCH   6   7
ATOM      7  C   UNL     1      98.418  84.345  73.583  1.00  0.00    -0.025 A 
ATOM      8  C   UNL     1      99.380  82.717  72.012  1.00  0.00     0.160 A 
ATOM      9  C   UNL     1     100.162  83.739  71.435  1.00  0.00     0.157 A 
ATOM     10  C   UNL     1      98.527  83.022  73.094  1.00  0.00     0.056 A 
ATOM     11  C   UNL     1     100.081  85.054  71.931  1.00  0.00     0.050 A 
ATOM     12  C   UNL     1      99.212  85.356  72.993  1.00  0.00     0.009 A 
BRANCH   8  13
ATOM     13  O   UNL     1      99.459  81.427  71.557  1.00  0.00    -0.493 OA
ATOM     14  C   UNL     1      98.304  81.001  70.809  1.00  0.00     0.278 C 
ENDBRANCH   8  13
BRANCH   9  15
ATOM     15  O   UNL     1     100.987  83.456  70.395  1.00  0.00    -0.504 OA
ATOM     16  H   UNL     1     101.842  83.867  70.544  1.00  0.00     0.293 HD
ENDBRANCH   9  15
ENDBRANCH   6   7
ENDBRANCH   3   6
ENDBRANCH   1   2
BRANCH   1  17
ATOM     17  C   UNL     1      97.382  83.451  79.415  1.00  0.00     0.010 C 
BRANCH  17  18
ATOM     18  C   UNL     1      97.137  82.406  80.539  1.00  0.00     0.001 C 
BRANCH  18  19
ATOM     19  C   UNL     1      98.415  82.061  81.348  1.00  0.00     0.000 C 
BRANCH  19  20
ATOM     20  C   UNL     1      99.714  82.285  80.521  1.00  0.00     0.003 C 
BRANCH  20  21
ATOM     21  C   UNL     1     100.251  81.018  79.778  1.00  0.00    -0.017 C 
ATOM     22  C   UNL     1     100.845  79.992  80.788  1.00  0.00     0.007 C 
ATOM     23  C   UNL     1     101.302  81.360  78.683  1.00  0.00     0.007 C 
ENDBRANCH  20  21
ENDBRANCH  19  20
ENDBRANCH  18  19
ENDBRANCH  17  18
ENDBRANCH   1  17
TORSDOF 10
ENDMDL
