MODEL 1
REMARK VINA RESULT:    -6.271      0.000      0.000
REMARK INTER + INTRA:         -10.828
REMARK INTER:                 -10.121
REMARK INTRA:                  -0.707
REMARK UNBOUND:                -0.707
REMARK SMILES CCCCCCCCC(=O)NCc1ccc(O)c(OC)c1
REMARK SMILES IDX 7 1 6 2 5 3 4 4 3 5 2 6 1 7 8 8 9 9 10 10 11 11 12 13 13 14
REMARK SMILES IDX 21 15 14 16 18 17 15 18 16 19 19 20 20 21 17 22
REMARK H PARENT 11 12 17 23
REMARK Flexibility Score: inf
ROOT
ATOM      1  C   UNL     1      92.422  94.181  74.968  1.00  0.00     0.010 C 
ENDROOT
BRANCH   1   2
ATOM      2  C   UNL     1      91.357  94.336  76.091  1.00  0.00     0.001 C 
BRANCH   2   3
ATOM      3  C   UNL     1      91.472  93.220  77.171  1.00  0.00     0.000 C 
BRANCH   3   4
ATOM      4  C   UNL     1      90.105  92.604  77.583  1.00  0.00    -0.000 C 
BRANCH   4   5
ATOM      5  C   UNL     1      90.254  91.206  78.249  1.00  0.00    -0.000 C 
BRANCH   5   6
ATOM      6  C   UNL     1      89.772  90.053  77.329  1.00  0.00    -0.003 C 
ATOM      7  C   UNL     1      89.069  90.560  76.050  1.00  0.00     0.004 C 
ENDBRANCH   5   6
ENDBRANCH   4   5
ENDBRANCH   3   4
ENDBRANCH   2   3
ENDBRANCH   1   2
BRANCH   1   8
ATOM      8  C   UNL     1      93.609  95.178  75.084  1.00  0.00     0.100 C 
BRANCH   8   9
ATOM      9  C   UNL     1      94.767  94.562  75.774  1.00  0.00     0.220 C 
ATOM     10  O   UNL     1      95.715  94.129  75.075  1.00  0.00    -0.275 OA
ATOM     11  N   UNL     1      94.808  94.496  77.137  1.00  0.00    -0.352 N 
ATOM     12  H   UNL     1      93.959  94.792  77.595  1.00  0.00     0.163 HD
BRANCH  11  13
ATOM     13  C   UNL     1      95.923  94.057  77.920  1.00  0.00     0.151 C 
BRANCH  13  14
ATOM     14  C   UNL     1      95.939  94.602  79.303  1.00  0.00    -0.025 A 
ATOM     15  C   UNL     1      96.306  95.950  79.534  1.00  0.00     0.056 A 
ATOM     16  C   UNL     1      95.592  93.791  80.408  1.00  0.00     0.009 A 
ATOM     17  C   UNL     1      96.309  96.487  80.842  1.00  0.00     0.160 A 
ATOM     18  C   UNL     1      95.592  94.319  81.711  1.00  0.00     0.050 A 
ATOM     19  C   UNL     1      95.956  95.661  81.933  1.00  0.00     0.157 A 
BRANCH  17  20
ATOM     20  O   UNL     1      96.706  97.781  81.068  1.00  0.00    -0.493 OA
ATOM     21  C   UNL     1      97.003  98.523  79.872  1.00  0.00     0.278 C 
ENDBRANCH  17  20
BRANCH  19  22
ATOM     22  O   UNL     1      95.979  96.155  83.198  1.00  0.00    -0.504 OA
ATOM     23  H   UNL     1      95.889  95.433  83.825  1.00  0.00     0.293 HD
ENDBRANCH  19  22
ENDBRANCH  13  14
ENDBRANCH  11  13
ENDBRANCH   8   9
ENDBRANCH   1   8
TORSDOF 11
ENDMDL
MODEL 2
REMARK VINA RESULT:    -5.856     14.174     16.597
REMARK INTER + INTRA:         -10.158
REMARK INTER:                  -8.633
REMARK INTRA:                  -1.525
REMARK UNBOUND:                -0.707
REMARK SMILES CCCCCCCCC(=O)NCc1ccc(O)c(OC)c1
REMARK SMILES IDX 7 1 6 2 5 3 4 4 3 5 2 6 1 7 8 8 9 9 10 10 11 11 12 13 13 14
REMARK SMILES IDX 21 15 14 16 18 17 15 18 16 19 19 20 20 21 17 22
REMARK H PARENT 11 12 17 23
REMARK Flexibility Score: inf
ROOT
ATOM      1  C   UNL     1      81.406  86.216  87.421  1.00  0.00     0.010 C 
ENDROOT
BRANCH   1   2
ATOM      2  C   UNL     1      81.578  85.802  85.931  1.00  0.00     0.001 C 
BRANCH   2   3
ATOM      3  C   UNL     1      80.267  85.992  85.112  1.00  0.00     0.000 C 
BRANCH   3   4
ATOM      4  C   UNL     1      80.379  87.062  83.990  1.00  0.00    -0.000 C 
BRANCH   4   5
ATOM      5  C   UNL     1      79.472  88.299  84.248  1.00  0.00    -0.000 C 
BRANCH   5   6
ATOM      6  C   UNL     1      80.248  89.483  84.887  1.00  0.00    -0.003 C 
ATOM      7  C   UNL     1      81.772  89.398  84.653  1.00  0.00     0.004 C 
ENDBRANCH   5   6
ENDBRANCH   4   5
ENDBRANCH   3   4
ENDBRANCH   2   3
ENDBRANCH   1   2
BRANCH   1   8
ATOM      8  C   UNL     1      80.087  86.986  87.712  1.00  0.00     0.100 C 
BRANCH   8   9
ATOM      9  C   UNL     1      80.278  88.002  88.775  1.00  0.00     0.220 C 
ATOM     10  O   UNL     1      80.801  87.641  89.857  1.00  0.00    -0.275 OA
ATOM     11  N   UNL     1      79.918  89.302  88.565  1.00  0.00    -0.352 N 
ATOM     12  H   UNL     1      79.428  89.465  87.698  1.00  0.00     0.163 HD
BRANCH  11  13
ATOM     13  C   UNL     1      80.179  90.395  89.451  1.00  0.00     0.151 C 
BRANCH  13  14
ATOM     14  C   UNL     1      81.227  91.330  88.961  1.00  0.00    -0.025 A 
ATOM     15  C   UNL     1      82.185  90.893  88.016  1.00  0.00     0.056 A 
ATOM     16  C   UNL     1      81.289  92.662  89.430  1.00  0.00     0.009 A 
ATOM     17  C   UNL     1      83.176  91.775  87.528  1.00  0.00     0.160 A 
ATOM     18  C   UNL     1      82.272  93.545  88.948  1.00  0.00     0.050 A 
ATOM     19  C   UNL     1      83.220  93.105  88.005  1.00  0.00     0.157 A 
BRANCH  17  20
ATOM     20  O   UNL     1      84.130  91.338  86.643  1.00  0.00    -0.493 OA
ATOM     21  C   UNL     1      84.730  90.080  86.998  1.00  0.00     0.278 C 
ENDBRANCH  17  20
BRANCH  19  22
ATOM     22  O   UNL     1      84.182  93.956  87.566  1.00  0.00    -0.504 OA
ATOM     23  H   UNL     1      83.833  94.850  87.546  1.00  0.00     0.293 HD
ENDBRANCH  19  22
ENDBRANCH  13  14
ENDBRANCH  11  13
ENDBRANCH   8   9
ENDBRANCH   1   8
TORSDOF 11
ENDMDL
MODEL 3
REMARK VINA RESULT:    -5.834      3.438      8.821
REMARK INTER + INTRA:         -10.122
REMARK INTER:                  -9.211
REMARK INTRA:                  -0.911
REMARK UNBOUND:                -0.707
REMARK SMILES CCCCCCCCC(=O)NCc1ccc(O)c(OC)c1
REMARK SMILES IDX 7 1 6 2 5 3 4 4 3 5 2 6 1 7 8 8 9 9 10 10 11 11 12 13 13 14
REMARK SMILES IDX 21 15 14 16 18 17 15 18 16 19 19 20 20 21 17 22
REMARK H PARENT 11 12 17 23
REMARK Flexibility Score: inf
ROOT
ATOM      1  C   UNL     1      95.671  95.566  76.352  1.00  0.00     0.010 C 
ENDROOT
BRANCH   1   2
ATOM      2  C   UNL     1      97.077  94.985  76.679  1.00  0.00     0.001 C 
BRANCH   2   3
ATOM      3  C   UNL     1      97.857  95.868  77.696  1.00  0.00     0.000 C 
BRANCH   3   4
ATOM      4  C   UNL     1      96.941  96.725  78.615  1.00  0.00    -0.000 C 
BRANCH   4   5
ATOM      5  C   UNL     1      96.831  96.152  80.056  1.00  0.00    -0.000 C 
BRANCH   5   6
ATOM      6  C   UNL     1      95.486  95.417  80.305  1.00  0.00    -0.003 C 
ATOM      7  C   UNL     1      95.570  93.901  80.021  1.00  0.00     0.004 C 
ENDBRANCH   5   6
ENDBRANCH   4   5
ENDBRANCH   3   4
ENDBRANCH   2   3
ENDBRANCH   1   2
BRANCH   1   8
ATOM      8  C   UNL     1      94.835  94.684  75.383  1.00  0.00     0.100 C 
BRANCH   8   9
ATOM      9  C   UNL     1      93.643  94.118  76.060  1.00  0.00     0.220 C 
ATOM     10  O   UNL     1      93.453  94.405  77.267  1.00  0.00    -0.275 OA
ATOM     11  N   UNL     1      92.764  93.331  75.374  1.00  0.00    -0.352 N 
ATOM     12  H   UNL     1      93.058  93.094  74.438  1.00  0.00     0.163 HD
BRANCH  11  13
ATOM     13  C   UNL     1      91.513  92.845  75.872  1.00  0.00     0.151 C 
BRANCH  13  14
ATOM     14  C   UNL     1      90.561  92.433  74.806  1.00  0.00    -0.025 A 
ATOM     15  C   UNL     1      89.929  91.168  74.866  1.00  0.00     0.056 A 
ATOM     16  C   UNL     1      90.274  93.289  73.718  1.00  0.00     0.009 A 
ATOM     17  C   UNL     1      89.009  90.769  73.869  1.00  0.00     0.160 A 
ATOM     18  C   UNL     1      89.358  92.899  72.724  1.00  0.00     0.050 A 
ATOM     19  C   UNL     1      88.731  91.640  72.791  1.00  0.00     0.157 A 
BRANCH  17  20
ATOM     20  O   UNL     1      88.430  89.526  73.906  1.00  0.00    -0.493 OA
ATOM     21  C   UNL     1      89.166  88.556  74.673  1.00  0.00     0.278 C 
ENDBRANCH  17  20
BRANCH  19  22
ATOM     22  O   UNL     1      87.870  91.261  71.812  1.00  0.00    -0.504 OA
ATOM     23  H   UNL     1      87.150  90.756  72.197  1.00  0.00     0.293 HD
ENDBRANCH  19  22
ENDBRANCH  13  14
ENDBRANCH  11  13
ENDBRANCH   8   9
ENDBRANCH   1   8
TORSDOF 11
ENDMDL
MODEL 4
REMARK VINA RESULT:    -5.783      3.306      7.476
REMARK INTER + INTRA:         -10.040
REMARK INTER:                  -9.393
REMARK INTRA:                  -0.648
REMARK UNBOUND:                -0.707
REMARK SMILES CCCCCCCCC(=O)NCc1ccc(O)c(OC)c1
REMARK SMILES IDX 7 1 6 2 5 3 4 4 3 5 2 6 1 7 8 8 9 9 10 10 11 11 12 13 13 14
REMARK SMILES IDX 21 15 14 16 18 17 15 18 16 19 19 20 20 21 17 22
REMARK H PARENT 11 12 17 23
REMARK Flexibility Score: inf
ROOT
ATOM      1  C   UNL     1      95.046  95.343  75.689  1.00  0.00     0.010 C 
ENDROOT
BRANCH   1   2
ATOM      2  C   UNL     1      96.532  95.137  76.102  1.00  0.00     0.001 C 
BRANCH   2   3
ATOM      3  C   UNL     1      96.731  95.210  77.644  1.00  0.00     0.000 C 
BRANCH   3   4
ATOM      4  C   UNL     1      95.402  95.172  78.450  1.00  0.00    -0.000 C 
BRANCH   4   5
ATOM      5  C   UNL     1      95.407  94.089  79.566  1.00  0.00    -0.000 C 
BRANCH   5   6
ATOM      6  C   UNL     1      95.586  94.696  80.984  1.00  0.00    -0.003 C 
ATOM      7  C   UNL     1      95.953  93.637  82.048  1.00  0.00     0.004 C 
ENDBRANCH   5   6
ENDBRANCH   4   5
ENDBRANCH   3   4
ENDBRANCH   2   3
ENDBRANCH   1   2
BRANCH   1   8
ATOM      8  C   UNL     1      94.321  94.032  75.273  1.00  0.00     0.100 C 
BRANCH   8   9
ATOM      9  C   UNL     1      92.915  94.021  75.743  1.00  0.00     0.220 C 
ATOM     10  O   UNL     1      92.277  95.101  75.737  1.00  0.00    -0.275 OA
ATOM     11  N   UNL     1      92.326  92.856  76.143  1.00  0.00    -0.352 N 
ATOM     12  H   UNL     1      92.953  92.066  76.191  1.00  0.00     0.163 HD
BRANCH  11  13
ATOM     13  C   UNL     1      90.945  92.691  76.481  1.00  0.00     0.151 C 
BRANCH  13  14
ATOM     14  C   UNL     1      90.599  91.319  76.939  1.00  0.00    -0.025 A 
ATOM     15  C   UNL     1      90.302  91.076  78.302  1.00  0.00     0.056 A 
ATOM     16  C   UNL     1      90.563  90.236  76.030  1.00  0.00     0.009 A 
ATOM     17  C   UNL     1      89.954  89.781  78.748  1.00  0.00     0.160 A 
ATOM     18  C   UNL     1      90.216  88.946  76.468  1.00  0.00     0.050 A 
ATOM     19  C   UNL     1      89.919  88.712  77.824  1.00  0.00     0.157 A 
BRANCH  17  20
ATOM     20  O   UNL     1      89.707  89.540  80.077  1.00  0.00    -0.493 OA
ATOM     21  C   UNL     1      90.847  89.737  80.932  1.00  0.00     0.278 C 
ENDBRANCH  17  20
BRANCH  19  22
ATOM     22  O   UNL     1      89.613  87.457  78.242  1.00  0.00    -0.504 OA
ATOM     23  H   UNL     1      88.778  87.473  78.716  1.00  0.00     0.293 HD
ENDBRANCH  19  22
ENDBRANCH  13  14
ENDBRANCH  11  13
ENDBRANCH   8   9
ENDBRANCH   1   8
TORSDOF 11
ENDMDL
MODEL 5
REMARK VINA RESULT:    -5.686     29.054     31.136
REMARK INTER + INTRA:          -9.883
REMARK INTER:                  -9.080
REMARK INTRA:                  -0.803
REMARK UNBOUND:                -0.707
REMARK SMILES CCCCCCCCC(=O)NCc1ccc(O)c(OC)c1
REMARK SMILES IDX 7 1 6 2 5 3 4 4 3 5 2 6 1 7 8 8 9 9 10 10 11 11 12 13 13 14
REMARK SMILES IDX 21 15 14 16 18 17 15 18 16 19 19 20 20 21 17 22
REMARK H PARENT 11 12 17 23
REMARK Flexibility Score: inf
ROOT
ATOM      1  C   UNL     1      63.988  84.192  75.113  1.00  0.00     0.010 C 
ENDROOT
BRANCH   1   2
ATOM      2  C   UNL     1      64.350  82.714  75.435  1.00  0.00     0.001 C 
BRANCH   2   3
ATOM      3  C   UNL     1      63.116  81.770  75.333  1.00  0.00     0.000 C 
BRANCH   3   4
ATOM      4  C   UNL     1      63.119  80.869  74.065  1.00  0.00    -0.000 C 
BRANCH   4   5
ATOM      5  C   UNL     1      64.426  81.007  73.234  1.00  0.00    -0.000 C 
BRANCH   5   6
ATOM      6  C   UNL     1      65.424  79.847  73.497  1.00  0.00    -0.003 C 
ATOM      7  C   UNL     1      66.630  80.277  74.361  1.00  0.00     0.004 C 
ENDBRANCH   5   6
ENDBRANCH   4   5
ENDBRANCH   3   4
ENDBRANCH   2   3
ENDBRANCH   1   2
BRANCH   1   8
ATOM      8  C   UNL     1      62.715  84.702  75.844  1.00  0.00     0.100 C 
BRANCH   8   9
ATOM      9  C   UNL     1      63.029  85.834  76.749  1.00  0.00     0.220 C 
ATOM     10  O   UNL     1      62.079  86.521  77.196  1.00  0.00    -0.275 OA
ATOM     11  N   UNL     1      64.320  86.100  77.105  1.00  0.00    -0.352 N 
ATOM     12  H   UNL     1      65.010  85.544  76.621  1.00  0.00     0.163 HD
BRANCH  11  13
ATOM     13  C   UNL     1      64.738  87.067  78.073  1.00  0.00     0.151 C 
BRANCH  13  14
ATOM     14  C   UNL     1      65.309  86.471  79.311  1.00  0.00    -0.025 A 
ATOM     15  C   UNL     1      64.648  86.636  80.551  1.00  0.00     0.056 A 
ATOM     16  C   UNL     1      66.517  85.737  79.273  1.00  0.00     0.009 A 
ATOM     17  C   UNL     1      65.170  86.060  81.733  1.00  0.00     0.160 A 
ATOM     18  C   UNL     1      67.041  85.162  80.445  1.00  0.00     0.050 A 
ATOM     19  C   UNL     1      66.376  85.327  81.675  1.00  0.00     0.157 A 
BRANCH  17  20
ATOM     20  O   UNL     1      64.550  86.256  82.941  1.00  0.00    -0.493 OA
ATOM     21  C   UNL     1      64.799  87.545  83.529  1.00  0.00     0.278 C 
ENDBRANCH  17  20
BRANCH  19  22
ATOM     22  O   UNL     1      66.904  84.790  82.805  1.00  0.00    -0.504 OA
ATOM     23  H   UNL     1      66.222  84.726  83.478  1.00  0.00     0.293 HD
ENDBRANCH  19  22
ENDBRANCH  13  14
ENDBRANCH  11  13
ENDBRANCH   8   9
ENDBRANCH   1   8
TORSDOF 11
ENDMDL
MODEL 6
REMARK VINA RESULT:    -5.628      3.530      8.700
REMARK INTER + INTRA:          -9.790
REMARK INTER:                  -9.015
REMARK INTRA:                  -0.775
REMARK UNBOUND:                -0.707
REMARK SMILES CCCCCCCCC(=O)NCc1ccc(O)c(OC)c1
REMARK SMILES IDX 7 1 6 2 5 3 4 4 3 5 2 6 1 7 8 8 9 9 10 10 11 11 12 13 13 14
REMARK SMILES IDX 21 15 14 16 18 17 15 18 16 19 19 20 20 21 17 22
REMARK H PARENT 11 12 17 23
REMARK Flexibility Score: inf
ROOT
ATOM      1  C   UNL     1      93.754  94.847  76.335  1.00  0.00     0.010 C 
ENDROOT
BRANCH   1   2
ATOM      2  C   UNL     1      94.778  93.676  76.376  1.00  0.00     0.001 C 
BRANCH   2   3
ATOM      3  C   UNL     1      96.112  94.035  75.658  1.00  0.00     0.000 C 
BRANCH   3   4
ATOM      4  C   UNL     1      96.636  95.462  75.984  1.00  0.00    -0.000 C 
BRANCH   4   5
ATOM      5  C   UNL     1      97.250  95.565  77.410  1.00  0.00    -0.000 C 
BRANCH   5   6
ATOM      6  C   UNL     1      96.970  96.936  78.082  1.00  0.00    -0.003 C 
ATOM      7  C   UNL     1      97.226  96.921  79.605  1.00  0.00     0.004 C 
ENDBRANCH   5   6
ENDBRANCH   4   5
ENDBRANCH   3   4
ENDBRANCH   2   3
ENDBRANCH   1   2
BRANCH   1   8
ATOM      8  C   UNL     1      92.758  94.771  75.144  1.00  0.00     0.100 C 
BRANCH   8   9
ATOM      9  C   UNL     1      91.612  93.883  75.456  1.00  0.00     0.220 C 
ATOM     10  O   UNL     1      91.224  93.807  76.646  1.00  0.00    -0.275 OA
ATOM     11  N   UNL     1      90.981  93.191  74.462  1.00  0.00    -0.352 N 
ATOM     12  H   UNL     1      91.427  93.256  73.559  1.00  0.00     0.163 HD
BRANCH  11  13
ATOM     13  C   UNL     1      89.786  92.418  74.611  1.00  0.00     0.151 C 
BRANCH  13  14
ATOM     14  C   UNL     1      90.025  90.953  74.704  1.00  0.00    -0.025 A 
ATOM     15  C   UNL     1      89.810  90.272  75.926  1.00  0.00     0.056 A 
ATOM     16  C   UNL     1      90.472  90.217  73.582  1.00  0.00     0.009 A 
ATOM     17  C   UNL     1      90.016  88.877  76.025  1.00  0.00     0.160 A 
ATOM     18  C   UNL     1      90.677  88.829  73.674  1.00  0.00     0.050 A 
ATOM     19  C   UNL     1      90.459  88.157  74.892  1.00  0.00     0.157 A 
BRANCH  17  20
ATOM     20  O   UNL     1      89.848  88.226  77.221  1.00  0.00    -0.493 OA
ATOM     21  C   UNL     1      89.705  89.102  78.353  1.00  0.00     0.278 C 
ENDBRANCH  17  20
BRANCH  19  22
ATOM     22  O   UNL     1      90.687  86.822  74.977  1.00  0.00    -0.504 OA
ATOM     23  H   UNL     1      89.910  86.387  75.336  1.00  0.00     0.293 HD
ENDBRANCH  19  22
ENDBRANCH  13  14
ENDBRANCH  11  13
ENDBRANCH   8   9
ENDBRANCH   1   8
TORSDOF 11
ENDMDL
MODEL 7
REMARK VINA RESULT:    -5.520      6.678     10.699
REMARK INTER + INTRA:          -9.614
REMARK INTER:                  -8.768
REMARK INTRA:                  -0.847
REMARK UNBOUND:                -0.707
REMARK SMILES CCCCCCCCC(=O)NCc1ccc(O)c(OC)c1
REMARK SMILES IDX 7 1 6 2 5 3 4 4 3 5 2 6 1 7 8 8 9 9 10 10 11 11 12 13 13 14
REMARK SMILES IDX 21 15 14 16 18 17 15 18 16 19 19 20 20 21 17 22
REMARK H PARENT 11 12 17 23
REMARK Flexibility Score: inf
ROOT
ATOM      1  C   UNL     1      94.817  97.744  74.368  1.00  0.00     0.010 C 
ENDROOT
BRANCH   1   2
ATOM      2  C   UNL     1      95.904  96.691  74.727  1.00  0.00     0.001 C 
BRANCH   2   3
ATOM      3  C   UNL     1      95.413  95.684  75.809  1.00  0.00     0.000 C 
BRANCH   3   4
ATOM      4  C   UNL     1      95.349  94.212  75.312  1.00  0.00    -0.000 C 
BRANCH   4   5
ATOM      5  C   UNL     1      93.897  93.656  75.270  1.00  0.00    -0.000 C 
BRANCH   5   6
ATOM      6  C   UNL     1      92.827  94.781  75.297  1.00  0.00    -0.003 C 
ATOM      7  C   UNL     1      91.831  94.633  76.468  1.00  0.00     0.004 C 
ENDBRANCH   5   6
ENDBRANCH   4   5
ENDBRANCH   3   4
ENDBRANCH   2   3
ENDBRANCH   1   2
BRANCH   1   8
ATOM      8  C   UNL     1      94.064  97.444  73.042  1.00  0.00     0.100 C 
BRANCH   8   9
ATOM      9  C   UNL     1      93.585  98.691  72.398  1.00  0.00     0.220 C 
ATOM     10  O   UNL     1      93.268  99.656  73.134  1.00  0.00    -0.275 OA
ATOM     11  N   UNL     1      93.521  98.790  71.038  1.00  0.00    -0.352 N 
ATOM     12  H   UNL     1      93.715  97.929  70.547  1.00  0.00     0.163 HD
BRANCH  11  13
ATOM     13  C   UNL     1      93.213  99.976  70.300  1.00  0.00     0.151 C 
BRANCH  13  14
ATOM     14  C   UNL     1      92.190  99.776  69.239  1.00  0.00    -0.025 A 
ATOM     15  C   UNL     1      91.380  98.616  69.241  1.00  0.00     0.056 A 
ATOM     16  C   UNL     1      92.009 100.733  68.214  1.00  0.00     0.009 A 
ATOM     17  C   UNL     1      90.391  98.420  68.250  1.00  0.00     0.160 A 
ATOM     18  C   UNL     1      91.026 100.545  67.226  1.00  0.00     0.050 A 
ATOM     19  C   UNL     1      90.222  99.389  67.235  1.00  0.00     0.157 A 
BRANCH  17  20
ATOM     20  O   UNL     1      89.635  97.275  68.229  1.00  0.00    -0.493 OA
ATOM     21  C   UNL     1      90.331  96.120  67.728  1.00  0.00     0.278 C 
ENDBRANCH  17  20
BRANCH  19  22
ATOM     22  O   UNL     1      89.295  99.203  66.261  1.00  0.00    -0.504 OA
ATOM     23  H   UNL     1      88.778 100.005  66.155  1.00  0.00     0.293 HD
ENDBRANCH  19  22
ENDBRANCH  13  14
ENDBRANCH  11  13
ENDBRANCH   8   9
ENDBRANCH   1   8
TORSDOF 11
ENDMDL
MODEL 8
REMARK VINA RESULT:    -5.313      3.130      8.367
REMARK INTER + INTRA:          -9.280
REMARK INTER:                  -8.806
REMARK INTRA:                  -0.474
REMARK UNBOUND:                -0.707
REMARK SMILES CCCCCCCCC(=O)NCc1ccc(O)c(OC)c1
REMARK SMILES IDX 7 1 6 2 5 3 4 4 3 5 2 6 1 7 8 8 9 9 10 10 11 11 12 13 13 14
REMARK SMILES IDX 21 15 14 16 18 17 15 18 16 19 19 20 20 21 17 22
REMARK H PARENT 11 12 17 23
REMARK Flexibility Score: inf
ROOT
ATOM      1  C   UNL     1      95.815  95.698  76.444  1.00  0.00     0.010 C 
ENDROOT
BRANCH   1   2
ATOM      2  C   UNL     1      97.216  95.575  77.110  1.00  0.00     0.001 C 
BRANCH   2   3
ATOM      3  C   UNL     1      97.122  95.425  78.657  1.00  0.00     0.000 C 
BRANCH   3   4
ATOM      4  C   UNL     1      95.685  95.129  79.172  1.00  0.00    -0.000 C 
BRANCH   4   5
ATOM      5  C   UNL     1      95.473  95.574  80.647  1.00  0.00    -0.000 C 
BRANCH   5   6
ATOM      6  C   UNL     1      96.260  96.865  80.999  1.00  0.00    -0.003 C 
ATOM      7  C   UNL     1      96.398  97.087  82.521  1.00  0.00     0.004 C 
ENDBRANCH   5   6
ENDBRANCH   4   5
ENDBRANCH   3   4
ENDBRANCH   2   3
ENDBRANCH   1   2
BRANCH   1   8
ATOM      8  C   UNL     1      95.281  94.365  75.849  1.00  0.00     0.100 C 
BRANCH   8   9
ATOM      9  C   UNL     1      93.935  94.542  75.253  1.00  0.00     0.220 C 
ATOM     10  O   UNL     1      93.596  95.689  74.877  1.00  0.00    -0.275 OA
ATOM     11  N   UNL     1      93.102  93.472  75.092  1.00  0.00    -0.352 N 
ATOM     12  H   UNL     1      93.439  92.615  75.506  1.00  0.00     0.163 HD
BRANCH  11  13
ATOM     13  C   UNL     1      91.846  93.486  74.407  1.00  0.00     0.151 C 
BRANCH  13  14
ATOM     14  C   UNL     1      91.130  92.183  74.437  1.00  0.00    -0.025 A 
ATOM     15  C   UNL     1      90.385  91.805  75.580  1.00  0.00     0.056 A 
ATOM     16  C   UNL     1      91.181  91.300  73.333  1.00  0.00     0.009 A 
ATOM     17  C   UNL     1      89.685  90.577  75.616  1.00  0.00     0.160 A 
ATOM     18  C   UNL     1      90.487  90.078  73.362  1.00  0.00     0.050 A 
ATOM     19  C   UNL     1      89.745  89.709  74.502  1.00  0.00     0.157 A 
BRANCH  17  20
ATOM     20  O   UNL     1      88.999  90.193  76.740  1.00  0.00    -0.493 OA
ATOM     21  C   UNL     1      89.830  89.648  77.780  1.00  0.00     0.278 C 
ENDBRANCH  17  20
BRANCH  19  22
ATOM     22  O   UNL     1      89.101  88.515  74.531  1.00  0.00    -0.504 OA
ATOM     23  H   UNL     1      88.173  88.647  74.320  1.00  0.00     0.293 HD
ENDBRANCH  19  22
ENDBRANCH  13  14
ENDBRANCH  11  13
ENDBRANCH   8   9
ENDBRANCH   1   8
TORSDOF 11
ENDMDL
MODEL 9
REMARK VINA RESULT:    -5.155     18.152     20.621
REMARK INTER + INTRA:          -9.026
REMARK INTER:                  -8.439
REMARK INTRA:                  -0.587
REMARK UNBOUND:                -0.707
REMARK SMILES CCCCCCCCC(=O)NCc1ccc(O)c(OC)c1
REMARK SMILES IDX 7 1 6 2 5 3 4 4 3 5 2 6 1 7 8 8 9 9 10 10 11 11 12 13 13 14
REMARK SMILES IDX 21 15 14 16 18 17 15 18 16 19 19 20 20 21 17 22
REMARK H PARENT 11 12 17 23
REMARK Flexibility Score: inf
ROOT
ATOM      1  C   UNL     1      77.577  90.985  64.122  1.00  0.00     0.010 C 
ENDROOT
BRANCH   1   2
ATOM      2  C   UNL     1      76.892  89.679  64.618  1.00  0.00     0.001 C 
BRANCH   2   3
ATOM      3  C   UNL     1      77.914  88.525  64.840  1.00  0.00     0.000 C 
BRANCH   3   4
ATOM      4  C   UNL     1      77.961  88.002  66.303  1.00  0.00    -0.000 C 
BRANCH   4   5
ATOM      5  C   UNL     1      78.300  86.486  66.388  1.00  0.00    -0.000 C 
BRANCH   5   6
ATOM      6  C   UNL     1      77.998  85.886  67.787  1.00  0.00    -0.003 C 
ATOM      7  C   UNL     1      76.811  84.897  67.773  1.00  0.00     0.004 C 
ENDBRANCH   5   6
ENDBRANCH   4   5
ENDBRANCH   3   4
ENDBRANCH   2   3
ENDBRANCH   1   2
BRANCH   1   8
ATOM      8  C   UNL     1      76.585  92.041  63.558  1.00  0.00     0.100 C 
BRANCH   8   9
ATOM      9  C   UNL     1      77.085  93.420  63.772  1.00  0.00     0.220 C 
ATOM     10  O   UNL     1      76.426  94.373  63.293  1.00  0.00    -0.275 OA
ATOM     11  N   UNL     1      78.220  93.641  64.499  1.00  0.00    -0.352 N 
ATOM     12  H   UNL     1      78.717  92.803  64.763  1.00  0.00     0.163 HD
BRANCH  11  13
ATOM     13  C   UNL     1      78.723  94.921  64.893  1.00  0.00     0.151 C 
BRANCH  13  14
ATOM     14  C   UNL     1      78.658  95.169  66.359  1.00  0.00    -0.025 A 
ATOM     15  C   UNL     1      77.468  94.894  67.075  1.00  0.00     0.056 A 
ATOM     16  C   UNL     1      79.773  95.682  67.060  1.00  0.00     0.009 A 
ATOM     17  C   UNL     1      77.396  95.107  68.470  1.00  0.00     0.160 A 
ATOM     18  C   UNL     1      79.708  95.896  68.448  1.00  0.00     0.050 A 
ATOM     19  C   UNL     1      78.522  95.618  69.155  1.00  0.00     0.157 A 
BRANCH  17  20
ATOM     20  O   UNL     1      76.229  94.881  69.155  1.00  0.00    -0.493 OA
ATOM     21  C   UNL     1      75.232  95.901  68.974  1.00  0.00     0.278 C 
ENDBRANCH  17  20
BRANCH  19  22
ATOM     22  O   UNL     1      78.461  95.853  70.490  1.00  0.00    -0.504 OA
ATOM     23  H   UNL     1      77.786  95.295  70.883  1.00  0.00     0.293 HD
ENDBRANCH  19  22
ENDBRANCH  13  14
ENDBRANCH  11  13
ENDBRANCH   8   9
ENDBRANCH   1   8
TORSDOF 11
ENDMDL
MODEL 10
REMARK VINA RESULT:    -5.107     14.165     15.982
REMARK INTER + INTRA:          -8.949
REMARK INTER:                  -7.879
REMARK INTRA:                  -1.070
REMARK UNBOUND:                -0.707
REMARK SMILES CCCCCCCCC(=O)NCc1ccc(O)c(OC)c1
REMARK SMILES IDX 7 1 6 2 5 3 4 4 3 5 2 6 1 7 8 8 9 9 10 10 11 11 12 13 13 14
REMARK SMILES IDX 21 15 14 16 18 17 15 18 16 19 19 20 20 21 17 22
REMARK H PARENT 11 12 17 23
REMARK Flexibility Score: inf
ROOT
ATOM      1  C   UNL     1      80.434  89.552  86.644  1.00  0.00     0.010 C 
ENDROOT
BRANCH   1   2
ATOM      2  C   UNL     1      81.008  89.156  85.253  1.00  0.00     0.001 C 
BRANCH   2   3
ATOM      3  C   UNL     1      79.897  88.673  84.275  1.00  0.00     0.000 C 
BRANCH   3   4
ATOM      4  C   UNL     1      79.991  87.163  83.916  1.00  0.00    -0.000 C 
BRANCH   4   5
ATOM      5  C   UNL     1      80.112  86.254  85.172  1.00  0.00    -0.000 C 
BRANCH   5   6
ATOM      6  C   UNL     1      81.407  85.399  85.166  1.00  0.00    -0.003 C 
ATOM      7  C   UNL     1      82.382  85.777  86.303  1.00  0.00     0.004 C 
ENDBRANCH   5   6
ENDBRANCH   4   5
ENDBRANCH   3   4
ENDBRANCH   2   3
ENDBRANCH   1   2
BRANCH   1   8
ATOM      8  C   UNL     1      81.102  88.809  87.835  1.00  0.00     0.100 C 
BRANCH   8   9
ATOM      9  C   UNL     1      81.787  89.757  88.747  1.00  0.00     0.220 C 
ATOM     10  O   UNL     1      82.877  89.407  89.260  1.00  0.00    -0.275 OA
ATOM     11  N   UNL     1      81.253  90.989  88.996  1.00  0.00    -0.352 N 
ATOM     12  H   UNL     1      80.335  91.133  88.603  1.00  0.00     0.163 HD
BRANCH  11  13
ATOM     13  C   UNL     1      81.882  92.038  89.739  1.00  0.00     0.151 C 
BRANCH  13  14
ATOM     14  C   UNL     1      82.371  93.162  88.896  1.00  0.00    -0.025 A 
ATOM     15  C   UNL     1      81.876  94.472  89.101  1.00  0.00     0.056 A 
ATOM     16  C   UNL     1      83.328  92.945  87.879  1.00  0.00     0.009 A 
ATOM     17  C   UNL     1      82.344  95.554  88.319  1.00  0.00     0.160 A 
ATOM     18  C   UNL     1      83.798  94.017  87.099  1.00  0.00     0.050 A 
ATOM     19  C   UNL     1      83.304  95.319  87.309  1.00  0.00     0.157 A 
BRANCH  17  20
ATOM     20  O   UNL     1      81.832  96.816  88.490  1.00  0.00    -0.493 OA
ATOM     21  C   UNL     1      80.425  96.923  88.213  1.00  0.00     0.278 C 
ENDBRANCH  17  20
BRANCH  19  22
ATOM     22  O   UNL     1      83.744  96.342  86.533  1.00  0.00    -0.504 OA
ATOM     23  H   UNL     1      84.528  96.729  86.928  1.00  0.00     0.293 HD
ENDBRANCH  19  22
ENDBRANCH  13  14
ENDBRANCH  11  13
ENDBRANCH   8   9
ENDBRANCH   1   8
TORSDOF 11
ENDMDL
