MODEL 1
REMARK VINA RESULT:    -5.900      0.000      0.000
REMARK INTER + INTRA:         -10.486
REMARK INTER:                  -9.521
REMARK INTRA:                  -0.964
REMARK UNBOUND:                -0.964
REMARK SMILES CCCCCCCCC(=O)NCc1ccc(O)c(OC)c1
REMARK SMILES IDX 7 1 6 2 5 3 4 4 3 5 2 6 1 7 8 8 9 9 10 10 11 11 12 13 13 14
REMARK SMILES IDX 21 15 14 16 18 17 15 18 16 19 19 20 20 21 17 22
REMARK H PARENT 11 12 17 23
REMARK Flexibility Score: inf
ROOT
ATOM      1  C   UNL     1      93.326  95.078  76.557  1.00  0.00     0.010 C 
ENDROOT
BRANCH   1   2
ATOM      2  C   UNL     1      92.538  95.701  77.745  1.00  0.00     0.001 C 
BRANCH   2   3
ATOM      3  C   UNL     1      91.230  96.406  77.280  1.00  0.00     0.000 C 
BRANCH   3   4
ATOM      4  C   UNL     1      89.946  95.561  77.511  1.00  0.00    -0.000 C 
BRANCH   4   5
ATOM      5  C   UNL     1      89.815  94.381  76.506  1.00  0.00    -0.000 C 
BRANCH   5   6
ATOM      6  C   UNL     1      90.065  93.001  77.172  1.00  0.00    -0.003 C 
ATOM      7  C   UNL     1      89.817  93.016  78.697  1.00  0.00     0.004 C 
ENDBRANCH   5   6
ENDBRANCH   4   5
ENDBRANCH   3   4
ENDBRANCH   2   3
ENDBRANCH   1   2
BRANCH   1   8
ATOM      8  C   UNL     1      94.237  96.090  75.807  1.00  0.00     0.100 C 
BRANCH   8   9
ATOM      9  C   UNL     1      94.796  97.103  76.734  1.00  0.00     0.220 C 
ATOM     10  O   UNL     1      94.388  98.285  76.641  1.00  0.00    -0.275 OA
ATOM     11  N   UNL     1      95.711  96.745  77.683  1.00  0.00    -0.352 N 
ATOM     12  H   UNL     1      96.034  95.791  77.613  1.00  0.00     0.163 HD
BRANCH  11  13
ATOM     13  C   UNL     1      96.216  97.594  78.719  1.00  0.00     0.151 C 
BRANCH  13  14
ATOM     14  C   UNL     1      96.527  96.877  79.985  1.00  0.00    -0.025 A 
ATOM     15  C   UNL     1      95.726  95.787  80.402  1.00  0.00     0.056 A 
ATOM     16  C   UNL     1      97.619  97.269  80.792  1.00  0.00     0.009 A 
ATOM     17  C   UNL     1      96.020  95.085  81.593  1.00  0.00     0.160 A 
ATOM     18  C   UNL     1      97.917  96.575  81.978  1.00  0.00     0.050 A 
ATOM     19  C   UNL     1      97.118  95.490  82.386  1.00  0.00     0.157 A 
BRANCH  17  20
ATOM     20  O   UNL     1      95.217  94.056  82.017  1.00  0.00    -0.493 OA
ATOM     21  C   UNL     1      94.886  93.106  80.989  1.00  0.00     0.278 C 
ENDBRANCH  17  20
BRANCH  19  22
ATOM     22  O   UNL     1      97.398  94.843  83.546  1.00  0.00    -0.504 OA
ATOM     23  H   UNL     1      96.735  94.165  83.702  1.00  0.00     0.293 HD
ENDBRANCH  19  22
ENDBRANCH  13  14
ENDBRANCH  11  13
ENDBRANCH   8   9
ENDBRANCH   1   8
TORSDOF 11
ENDMDL
MODEL 2
REMARK VINA RESULT:    -5.554      6.323     10.162
REMARK INTER + INTRA:          -9.928
REMARK INTER:                  -9.218
REMARK INTRA:                  -0.710
REMARK UNBOUND:                -0.964
REMARK SMILES CCCCCCCCC(=O)NCc1ccc(O)c(OC)c1
REMARK SMILES IDX 7 1 6 2 5 3 4 4 3 5 2 6 1 7 8 8 9 9 10 10 11 11 12 13 13 14
REMARK SMILES IDX 21 15 14 16 18 17 15 18 16 19 19 20 20 21 17 22
REMARK H PARENT 11 12 17 23
REMARK Flexibility Score: inf
ROOT
ATOM      1  C   UNL     1      93.292  98.357  74.907  1.00  0.00     0.010 C 
ENDROOT
BRANCH   1   2
ATOM      2  C   UNL     1      92.517  97.547  75.986  1.00  0.00     0.001 C 
BRANCH   2   3
ATOM      3  C   UNL     1      93.175  96.164  76.270  1.00  0.00     0.000 C 
BRANCH   3   4
ATOM      4  C   UNL     1      92.474  95.357  77.399  1.00  0.00    -0.000 C 
BRANCH   4   5
ATOM      5  C   UNL     1      92.026  93.942  76.934  1.00  0.00    -0.000 C 
BRANCH   5   6
ATOM      6  C   UNL     1      90.530  93.660  77.240  1.00  0.00    -0.003 C 
ATOM      7  C   UNL     1      89.709  94.951  77.460  1.00  0.00     0.004 C 
ENDBRANCH   5   6
ENDBRANCH   4   5
ENDBRANCH   3   4
ENDBRANCH   2   3
ENDBRANCH   1   2
BRANCH   1   8
ATOM      8  C   UNL     1      93.364  99.883  75.197  1.00  0.00     0.100 C 
BRANCH   8   9
ATOM      9  C   UNL     1      92.613 100.661  74.182  1.00  0.00     0.220 C 
ATOM     10  O   UNL     1      92.444 101.888  74.379  1.00  0.00    -0.275 OA
ATOM     11  N   UNL     1      92.146 100.056  73.051  1.00  0.00    -0.352 N 
ATOM     12  H   UNL     1      92.260  99.053  73.035  1.00  0.00     0.163 HD
BRANCH  11  13
ATOM     13  C   UNL     1      91.535 100.720  71.940  1.00  0.00     0.151 C 
BRANCH  13  14
ATOM     14  C   UNL     1      90.624  99.852  71.147  1.00  0.00    -0.025 A 
ATOM     15  C   UNL     1      89.974 100.363  69.998  1.00  0.00     0.056 A 
ATOM     16  C   UNL     1      90.387  98.510  71.525  1.00  0.00     0.009 A 
ATOM     17  C   UNL     1      89.119  99.544  69.225  1.00  0.00     0.160 A 
ATOM     18  C   UNL     1      89.538  97.691  70.760  1.00  0.00     0.050 A 
ATOM     19  C   UNL     1      88.897  98.205  69.616  1.00  0.00     0.157 A 
BRANCH  17  20
ATOM     20  O   UNL     1      88.458 100.053  68.136  1.00  0.00    -0.493 OA
ATOM     21  C   UNL     1      89.157 101.116  67.466  1.00  0.00     0.278 C 
ENDBRANCH  17  20
BRANCH  19  22
ATOM     22  O   UNL     1      88.058  97.414  68.900  1.00  0.00    -0.504 OA
ATOM     23  H   UNL     1      87.728  97.902  68.141  1.00  0.00     0.293 HD
ENDBRANCH  19  22
ENDBRANCH  13  14
ENDBRANCH  11  13
ENDBRANCH   8   9
ENDBRANCH   1   8
TORSDOF 11
ENDMDL
MODEL 3
REMARK VINA RESULT:    -5.548     22.023     24.445
REMARK INTER + INTRA:          -9.919
REMARK INTER:                  -7.872
REMARK INTRA:                  -2.046
REMARK UNBOUND:                -0.964
REMARK SMILES CCCCCCCCC(=O)NCc1ccc(O)c(OC)c1
REMARK SMILES IDX 7 1 6 2 5 3 4 4 3 5 2 6 1 7 8 8 9 9 10 10 11 11 12 13 13 14
REMARK SMILES IDX 21 15 14 16 18 17 15 18 16 19 19 20 20 21 17 22
REMARK H PARENT 11 12 17 23
REMARK Flexibility Score: inf
ROOT
ATOM      1  C   UNL     1      75.225  81.388  65.652  1.00  0.00     0.010 C 
ENDROOT
BRANCH   1   2
ATOM      2  C   UNL     1      73.929  82.031  66.225  1.00  0.00     0.001 C 
BRANCH   2   3
ATOM      3  C   UNL     1      73.706  83.478  65.695  1.00  0.00     0.000 C 
BRANCH   3   4
ATOM      4  C   UNL     1      73.953  84.582  66.762  1.00  0.00    -0.000 C 
BRANCH   4   5
ATOM      5  C   UNL     1      74.807  85.763  66.218  1.00  0.00    -0.000 C 
BRANCH   5   6
ATOM      6  C   UNL     1      74.273  87.146  66.679  1.00  0.00    -0.003 C 
ATOM      7  C   UNL     1      73.466  87.070  67.994  1.00  0.00     0.004 C 
ENDBRANCH   5   6
ENDBRANCH   4   5
ENDBRANCH   3   4
ENDBRANCH   2   3
ENDBRANCH   1   2
BRANCH   1   8
ATOM      8  C   UNL     1      75.924  82.246  64.561  1.00  0.00     0.100 C 
BRANCH   8   9
ATOM      9  C   UNL     1      77.050  83.026  65.127  1.00  0.00     0.220 C 
ATOM     10  O   UNL     1      77.578  83.913  64.414  1.00  0.00    -0.275 OA
ATOM     11  N   UNL     1      77.479  82.800  66.403  1.00  0.00    -0.352 N 
ATOM     12  H   UNL     1      77.045  82.009  66.855  1.00  0.00     0.163 HD
BRANCH  11  13
ATOM     13  C   UNL     1      78.454  83.576  67.108  1.00  0.00     0.151 C 
BRANCH  13  14
ATOM     14  C   UNL     1      77.873  84.680  67.917  1.00  0.00    -0.025 A 
ATOM     15  C   UNL     1      76.957  84.394  68.958  1.00  0.00     0.056 A 
ATOM     16  C   UNL     1      78.219  86.027  67.663  1.00  0.00     0.009 A 
ATOM     17  C   UNL     1      76.410  85.432  69.747  1.00  0.00     0.160 A 
ATOM     18  C   UNL     1      77.679  87.064  68.445  1.00  0.00     0.050 A 
ATOM     19  C   UNL     1      76.771  86.773  69.481  1.00  0.00     0.157 A 
BRANCH  17  20
ATOM     20  O   UNL     1      75.491  85.157  70.728  1.00  0.00    -0.493 OA
ATOM     21  C   UNL     1      75.856  84.063  71.588  1.00  0.00     0.278 C 
ENDBRANCH  17  20
BRANCH  19  22
ATOM     22  O   UNL     1      76.234  87.782  70.212  1.00  0.00    -0.504 OA
ATOM     23  H   UNL     1      76.936  88.258  70.664  1.00  0.00     0.293 HD
ENDBRANCH  19  22
ENDBRANCH  13  14
ENDBRANCH  11  13
ENDBRANCH   8   9
ENDBRANCH   1   8
TORSDOF 11
ENDMDL
MODEL 4
REMARK VINA RESULT:    -5.449      6.022      9.794
REMARK INTER + INTRA:          -9.759
REMARK INTER:                  -9.172
REMARK INTRA:                  -0.587
REMARK UNBOUND:                -0.964
REMARK SMILES CCCCCCCCC(=O)NCc1ccc(O)c(OC)c1
REMARK SMILES IDX 7 1 6 2 5 3 4 4 3 5 2 6 1 7 8 8 9 9 10 10 11 11 12 13 13 14
REMARK SMILES IDX 21 15 14 16 18 17 15 18 16 19 19 20 20 21 17 22
REMARK H PARENT 11 12 17 23
REMARK Flexibility Score: inf
ROOT
ATOM      1  C   UNL     1      93.995  97.536  75.279  1.00  0.00     0.010 C 
ENDROOT
BRANCH   1   2
ATOM      2  C   UNL     1      93.854  96.466  76.400  1.00  0.00     0.001 C 
BRANCH   2   3
ATOM      3  C   UNL     1      92.387  96.335  76.907  1.00  0.00     0.000 C 
BRANCH   3   4
ATOM      4  C   UNL     1      92.267  95.691  78.317  1.00  0.00    -0.000 C 
BRANCH   4   5
ATOM      5  C   UNL     1      91.352  94.434  78.327  1.00  0.00    -0.000 C 
BRANCH   5   6
ATOM      6  C   UNL     1      89.982  94.689  77.644  1.00  0.00    -0.003 C 
ATOM      7  C   UNL     1      89.719  93.740  76.454  1.00  0.00     0.004 C 
ENDBRANCH   5   6
ENDBRANCH   4   5
ENDBRANCH   3   4
ENDBRANCH   2   3
ENDBRANCH   1   2
BRANCH   1   8
ATOM      8  C   UNL     1      92.909  98.647  75.329  1.00  0.00     0.100 C 
BRANCH   8   9
ATOM      9  C   UNL     1      93.077  99.617  74.220  1.00  0.00     0.220 C 
ATOM     10  O   UNL     1      94.116 100.319  74.196  1.00  0.00    -0.275 OA
ATOM     11  N   UNL     1      92.135  99.717  73.237  1.00  0.00    -0.352 N 
ATOM     12  H   UNL     1      91.302  99.171  73.400  1.00  0.00     0.163 HD
BRANCH  11  13
ATOM     13  C   UNL     1      92.247 100.506  72.049  1.00  0.00     0.151 C 
BRANCH  13  14
ATOM     14  C   UNL     1      91.147 100.284  71.073  1.00  0.00    -0.025 A 
ATOM     15  C   UNL     1      90.458  99.048  71.046  1.00  0.00     0.056 A 
ATOM     16  C   UNL     1      90.773 101.294  70.157  1.00  0.00     0.009 A 
ATOM     17  C   UNL     1      89.399  98.829  70.136  1.00  0.00     0.160 A 
ATOM     18  C   UNL     1      89.719 101.083  69.250  1.00  0.00     0.050 A 
ATOM     19  C   UNL     1      89.036  99.852  69.231  1.00  0.00     0.157 A 
BRANCH  17  20
ATOM     20  O   UNL     1      88.760  97.615  70.082  1.00  0.00    -0.493 OA
ATOM     21  C   UNL     1      89.446  96.622  69.300  1.00  0.00     0.278 C 
ENDBRANCH  17  20
BRANCH  19  22
ATOM     22  O   UNL     1      88.039  99.647  68.333  1.00  0.00    -0.504 OA
ATOM     23  H   UNL     1      88.360  99.838  67.448  1.00  0.00     0.293 HD
ENDBRANCH  19  22
ENDBRANCH  13  14
ENDBRANCH  11  13
ENDBRANCH   8   9
ENDBRANCH   1   8
TORSDOF 11
ENDMDL
MODEL 5
REMARK VINA RESULT:    -5.315     12.639     15.069
REMARK INTER + INTRA:          -9.542
REMARK INTER:                  -8.754
REMARK INTRA:                  -0.787
REMARK UNBOUND:                -0.964
REMARK SMILES CCCCCCCCC(=O)NCc1ccc(O)c(OC)c1
REMARK SMILES IDX 7 1 6 2 5 3 4 4 3 5 2 6 1 7 8 8 9 9 10 10 11 11 12 13 13 14
REMARK SMILES IDX 21 15 14 16 18 17 15 18 16 19 19 20 20 21 17 22
REMARK H PARENT 11 12 17 23
REMARK Flexibility Score: inf
ROOT
ATOM      1  C   UNL     1      97.168  83.573  84.325  1.00  0.00     0.010 C 
ENDROOT
BRANCH   1   2
ATOM      2  C   UNL     1      97.798  83.405  82.913  1.00  0.00     0.001 C 
BRANCH   2   3
ATOM      3  C   UNL     1      98.795  82.210  82.851  1.00  0.00     0.000 C 
BRANCH   3   4
ATOM      4  C   UNL     1      99.202  81.807  81.406  1.00  0.00    -0.000 C 
BRANCH   4   5
ATOM      5  C   UNL     1      99.338  83.032  80.457  1.00  0.00    -0.000 C 
BRANCH   5   6
ATOM      6  C   UNL     1      98.542  82.855  79.136  1.00  0.00    -0.003 C 
ATOM      7  C   UNL     1      97.138  83.496  79.190  1.00  0.00     0.004 C 
ENDBRANCH   5   6
ENDBRANCH   4   5
ENDBRANCH   3   4
ENDBRANCH   2   3
ENDBRANCH   1   2
BRANCH   1   8
ATOM      8  C   UNL     1      97.416  84.969  84.963  1.00  0.00     0.100 C 
BRANCH   8   9
ATOM      9  C   UNL     1      96.476  85.226  86.081  1.00  0.00     0.220 C 
ATOM     10  O   UNL     1      95.922  86.350  86.146  1.00  0.00    -0.275 OA
ATOM     11  N   UNL     1      96.204  84.251  86.996  1.00  0.00    -0.352 N 
ATOM     12  H   UNL     1      96.768  83.419  86.901  1.00  0.00     0.163 HD
BRANCH  11  13
ATOM     13  C   UNL     1      95.217  84.327  88.030  1.00  0.00     0.151 C 
BRANCH  13  14
ATOM     14  C   UNL     1      93.974  83.567  87.733  1.00  0.00    -0.025 A 
ATOM     15  C   UNL     1      92.766  83.888  88.397  1.00  0.00     0.056 A 
ATOM     16  C   UNL     1      93.975  82.513  86.790  1.00  0.00     0.009 A 
ATOM     17  C   UNL     1      91.573  83.186  88.111  1.00  0.00     0.160 A 
ATOM     18  C   UNL     1      92.791  81.811  86.501  1.00  0.00     0.050 A 
ATOM     19  C   UNL     1      91.592  82.138  87.163  1.00  0.00     0.157 A 
BRANCH  17  20
ATOM     20  O   UNL     1      90.413  83.471  88.786  1.00  0.00    -0.493 OA
ATOM     21  C   UNL     1      90.614  84.107  90.061  1.00  0.00     0.278 C 
ENDBRANCH  17  20
BRANCH  19  22
ATOM     22  O   UNL     1      90.461  81.436  86.898  1.00  0.00    -0.504 OA
ATOM     23  H   UNL     1      90.689  80.524  86.702  1.00  0.00     0.293 HD
ENDBRANCH  19  22
ENDBRANCH  13  14
ENDBRANCH  11  13
ENDBRANCH   8   9
ENDBRANCH   1   8
TORSDOF 11
ENDMDL
MODEL 6
REMARK VINA RESULT:    -5.264     12.823     15.091
REMARK INTER + INTRA:          -9.460
REMARK INTER:                  -8.284
REMARK INTRA:                  -1.176
REMARK UNBOUND:                -0.964
REMARK SMILES CCCCCCCCC(=O)NCc1ccc(O)c(OC)c1
REMARK SMILES IDX 7 1 6 2 5 3 4 4 3 5 2 6 1 7 8 8 9 9 10 10 11 11 12 13 13 14
REMARK SMILES IDX 21 15 14 16 18 17 15 18 16 19 19 20 20 21 17 22
REMARK H PARENT 11 12 17 23
REMARK Flexibility Score: inf
ROOT
ATOM      1  C   UNL     1     101.373  81.649  80.258  1.00  0.00     0.010 C 
ENDROOT
BRANCH   1   2
ATOM      2  C   UNL     1     100.452  82.284  79.177  1.00  0.00     0.001 C 
BRANCH   2   3
ATOM      3  C   UNL     1      99.317  83.148  79.803  1.00  0.00     0.000 C 
BRANCH   3   4
ATOM      4  C   UNL     1      97.920  82.904  79.166  1.00  0.00    -0.000 C 
BRANCH   4   5
ATOM      5  C   UNL     1      97.500  84.037  78.187  1.00  0.00    -0.000 C 
BRANCH   5   6
ATOM      6  C   UNL     1      97.666  83.629  76.698  1.00  0.00    -0.003 C 
ATOM      7  C   UNL     1      99.060  83.977  76.132  1.00  0.00     0.004 C 
ENDBRANCH   5   6
ENDBRANCH   4   5
ENDBRANCH   3   4
ENDBRANCH   2   3
ENDBRANCH   1   2
BRANCH   1   8
ATOM      8  C   UNL     1     101.133  80.129  80.475  1.00  0.00     0.100 C 
BRANCH   8   9
ATOM      9  C   UNL     1      99.960  79.886  81.349  1.00  0.00     0.220 C 
ATOM     10  O   UNL     1      99.076  79.090  80.952  1.00  0.00    -0.275 OA
ATOM     11  N   UNL     1      99.865  80.496  82.567  1.00  0.00    -0.352 N 
ATOM     12  H   UNL     1     100.584  81.181  82.749  1.00  0.00     0.163 HD
BRANCH  11  13
ATOM     13  C   UNL     1      98.861  80.238  83.555  1.00  0.00     0.151 C 
BRANCH  13  14
ATOM     14  C   UNL     1      98.104  81.447  83.973  1.00  0.00    -0.025 A 
ATOM     15  C   UNL     1      97.325  81.427  85.154  1.00  0.00     0.056 A 
ATOM     16  C   UNL     1      98.143  82.632  83.201  1.00  0.00     0.009 A 
ATOM     17  C   UNL     1      96.613  82.575  85.573  1.00  0.00     0.160 A 
ATOM     18  C   UNL     1      97.438  83.777  83.613  1.00  0.00     0.050 A 
ATOM     19  C   UNL     1      96.667  83.751  84.792  1.00  0.00     0.157 A 
BRANCH  17  20
ATOM     20  O   UNL     1      95.825  82.540  86.696  1.00  0.00    -0.493 OA
ATOM     21  C   UNL     1      94.483  82.079  86.460  1.00  0.00     0.278 C 
ENDBRANCH  17  20
BRANCH  19  22
ATOM     22  O   UNL     1      95.969  84.853  85.166  1.00  0.00    -0.504 OA
ATOM     23  H   UNL     1      95.996  85.504  84.461  1.00  0.00     0.293 HD
ENDBRANCH  19  22
ENDBRANCH  13  14
ENDBRANCH  11  13
ENDBRANCH   8   9
ENDBRANCH   1   8
TORSDOF 11
ENDMDL
MODEL 7
REMARK VINA RESULT:    -5.225     21.776     25.019
REMARK INTER + INTRA:          -9.397
REMARK INTER:                  -8.082
REMARK INTRA:                  -1.315
REMARK UNBOUND:                -0.964
REMARK SMILES CCCCCCCCC(=O)NCc1ccc(O)c(OC)c1
REMARK SMILES IDX 7 1 6 2 5 3 4 4 3 5 2 6 1 7 8 8 9 9 10 10 11 11 12 13 13 14
REMARK SMILES IDX 21 15 14 16 18 17 15 18 16 19 19 20 20 21 17 22
REMARK H PARENT 11 12 17 23
REMARK Flexibility Score: inf
ROOT
ATOM      1  C   UNL     1      76.255  87.563  68.090  1.00  0.00     0.010 C 
ENDROOT
BRANCH   1   2
ATOM      2  C   UNL     1      75.521  88.717  68.833  1.00  0.00     0.001 C 
BRANCH   2   3
ATOM      3  C   UNL     1      75.657  88.602  70.380  1.00  0.00     0.000 C 
BRANCH   3   4
ATOM      4  C   UNL     1      74.547  87.739  71.044  1.00  0.00    -0.000 C 
BRANCH   4   5
ATOM      5  C   UNL     1      73.123  88.093  70.529  1.00  0.00    -0.000 C 
BRANCH   5   6
ATOM      6  C   UNL     1      72.412  86.883  69.865  1.00  0.00    -0.003 C 
ATOM      7  C   UNL     1      73.360  85.686  69.628  1.00  0.00     0.004 C 
ENDBRANCH   5   6
ENDBRANCH   4   5
ENDBRANCH   3   4
ENDBRANCH   2   3
ENDBRANCH   1   2
BRANCH   1   8
ATOM      8  C   UNL     1      77.621  87.177  68.723  1.00  0.00     0.100 C 
BRANCH   8   9
ATOM      9  C   UNL     1      78.076  85.846  68.253  1.00  0.00     0.220 C 
ATOM     10  O   UNL     1      78.630  85.081  69.078  1.00  0.00    -0.275 OA
ATOM     11  N   UNL     1      77.869  85.459  66.960  1.00  0.00    -0.352 N 
ATOM     12  H   UNL     1      77.496  86.182  66.362  1.00  0.00     0.163 HD
BRANCH  11  13
ATOM     13  C   UNL     1      78.133  84.158  66.425  1.00  0.00     0.151 C 
BRANCH  13  14
ATOM     14  C   UNL     1      76.915  83.321  66.252  1.00  0.00    -0.025 A 
ATOM     15  C   UNL     1      75.653  83.805  66.672  1.00  0.00     0.056 A 
ATOM     16  C   UNL     1      76.994  82.034  65.673  1.00  0.00     0.009 A 
ATOM     17  C   UNL     1      74.484  83.028  66.499  1.00  0.00     0.160 A 
ATOM     18  C   UNL     1      75.836  81.257  65.497  1.00  0.00     0.050 A 
ATOM     19  C   UNL     1      74.583  81.745  65.914  1.00  0.00     0.157 A 
BRANCH  17  20
ATOM     20  O   UNL     1      73.269  83.480  66.946  1.00  0.00    -0.493 OA
ATOM     21  C   UNL     1      72.652  84.455  66.086  1.00  0.00     0.278 C 
ENDBRANCH  17  20
BRANCH  19  22
ATOM     22  O   UNL     1      73.474  80.976  65.765  1.00  0.00    -0.504 OA
ATOM     23  H   UNL     1      73.091  80.796  66.627  1.00  0.00     0.293 HD
ENDBRANCH  19  22
ENDBRANCH  13  14
ENDBRANCH  11  13
ENDBRANCH   8   9
ENDBRANCH   1   8
TORSDOF 11
ENDMDL
MODEL 8
REMARK VINA RESULT:    -5.094      5.406      6.788
REMARK INTER + INTRA:          -9.185
REMARK INTER:                  -8.659
REMARK INTRA:                  -0.526
REMARK UNBOUND:                -0.964
REMARK SMILES CCCCCCCCC(=O)NCc1ccc(O)c(OC)c1
REMARK SMILES IDX 7 1 6 2 5 3 4 4 3 5 2 6 1 7 8 8 9 9 10 10 11 11 12 13 13 14
REMARK SMILES IDX 21 15 14 16 18 17 15 18 16 19 19 20 20 21 17 22
REMARK H PARENT 11 12 17 23
REMARK Flexibility Score: inf
ROOT
ATOM      1  C   UNL     1      91.820  99.637  72.013  1.00  0.00     0.010 C 
ENDROOT
BRANCH   1   2
ATOM      2  C   UNL     1      90.338  99.467  71.571  1.00  0.00     0.001 C 
BRANCH   2   3
ATOM      3  C   UNL     1      90.153  98.283  70.577  1.00  0.00     0.000 C 
BRANCH   3   4
ATOM      4  C   UNL     1      88.855  98.376  69.726  1.00  0.00    -0.000 C 
BRANCH   4   5
ATOM      5  C   UNL     1      89.117  98.175  68.206  1.00  0.00    -0.000 C 
BRANCH   5   6
ATOM      6  C   UNL     1      89.372  99.514  67.463  1.00  0.00    -0.003 C 
ATOM      7  C   UNL     1      88.653 100.712  68.121  1.00  0.00     0.004 C 
ENDBRANCH   5   6
ENDBRANCH   4   5
ENDBRANCH   3   4
ENDBRANCH   2   3
ENDBRANCH   1   2
BRANCH   1   8
ATOM      8  C   UNL     1      92.010 100.592  73.225  1.00  0.00     0.100 C 
BRANCH   8   9
ATOM      9  C   UNL     1      93.165 100.182  74.059  1.00  0.00     0.220 C 
ATOM     10  O   UNL     1      93.952 101.071  74.464  1.00  0.00    -0.275 OA
ATOM     11  N   UNL     1      93.345  98.872  74.400  1.00  0.00    -0.352 N 
ATOM     12  H   UNL     1      92.706  98.232  73.951  1.00  0.00     0.163 HD
BRANCH  11  13
ATOM     13  C   UNL     1      94.331  98.373  75.309  1.00  0.00     0.151 C 
BRANCH  13  14
ATOM     14  C   UNL     1      93.803  97.383  76.285  1.00  0.00    -0.025 A 
ATOM     15  C   UNL     1      94.615  96.935  77.355  1.00  0.00     0.056 A 
ATOM     16  C   UNL     1      92.491  96.870  76.162  1.00  0.00     0.009 A 
ATOM     17  C   UNL     1      94.120  96.007  78.300  1.00  0.00     0.160 A 
ATOM     18  C   UNL     1      91.993  95.948  77.100  1.00  0.00     0.050 A 
ATOM     19  C   UNL     1      92.805  95.508  78.163  1.00  0.00     0.157 A 
BRANCH  17  20
ATOM     20  O   UNL     1      94.922  95.542  79.312  1.00  0.00    -0.493 OA
ATOM     21  C   UNL     1      95.549  94.278  79.033  1.00  0.00     0.278 C 
ENDBRANCH  17  20
BRANCH  19  22
ATOM     22  O   UNL     1      92.325  94.597  79.048  1.00  0.00    -0.504 OA
ATOM     23  H   UNL     1      92.641  93.722  78.809  1.00  0.00     0.293 HD
ENDBRANCH  19  22
ENDBRANCH  13  14
ENDBRANCH  11  13
ENDBRANCH   8   9
ENDBRANCH   1   8
TORSDOF 11
ENDMDL
MODEL 9
REMARK VINA RESULT:    -5.040     29.735     33.135
REMARK INTER + INTRA:          -9.098
REMARK INTER:                  -7.452
REMARK INTRA:                  -1.646
REMARK UNBOUND:                -0.964
REMARK SMILES CCCCCCCCC(=O)NCc1ccc(O)c(OC)c1
REMARK SMILES IDX 7 1 6 2 5 3 4 4 3 5 2 6 1 7 8 8 9 9 10 10 11 11 12 13 13 14
REMARK SMILES IDX 21 15 14 16 18 17 15 18 16 19 19 20 20 21 17 22
REMARK H PARENT 11 12 17 23
REMARK Flexibility Score: inf
ROOT
ATOM      1  C   UNL     1      67.784  85.390  70.460  1.00  0.00     0.010 C 
ENDROOT
BRANCH   1   2
ATOM      2  C   UNL     1      68.315  85.912  71.826  1.00  0.00     0.001 C 
BRANCH   2   3
ATOM      3  C   UNL     1      67.162  86.240  72.820  1.00  0.00     0.000 C 
BRANCH   3   4
ATOM      4  C   UNL     1      67.002  85.195  73.960  1.00  0.00    -0.000 C 
BRANCH   4   5
ATOM      5  C   UNL     1      65.543  84.675  74.097  1.00  0.00    -0.000 C 
BRANCH   5   6
ATOM      6  C   UNL     1      64.968  84.880  75.525  1.00  0.00    -0.003 C 
ATOM      7  C   UNL     1      64.957  83.581  76.360  1.00  0.00     0.004 C 
ENDBRANCH   5   6
ENDBRANCH   4   5
ENDBRANCH   3   4
ENDBRANCH   2   3
ENDBRANCH   1   2
BRANCH   1   8
ATOM      8  C   UNL     1      67.749  83.840  70.348  1.00  0.00     0.100 C 
BRANCH   8   9
ATOM      9  C   UNL     1      66.356  83.334  70.299  1.00  0.00     0.220 C 
ATOM     10  O   UNL     1      65.555  83.873  69.499  1.00  0.00    -0.275 OA
ATOM     11  N   UNL     1      65.970  82.288  71.087  1.00  0.00    -0.352 N 
ATOM     12  H   UNL     1      66.666  81.988  71.754  1.00  0.00     0.163 HD
BRANCH  11  13
ATOM     13  C   UNL     1      64.705  81.621  71.031  1.00  0.00     0.151 C 
BRANCH  13  14
ATOM     14  C   UNL     1      63.791  81.969  72.152  1.00  0.00    -0.025 A 
ATOM     15  C   UNL     1      62.981  83.127  72.078  1.00  0.00     0.056 A 
ATOM     16  C   UNL     1      63.718  81.157  73.307  1.00  0.00     0.009 A 
ATOM     17  C   UNL     1      62.096  83.461  73.128  1.00  0.00     0.160 A 
ATOM     18  C   UNL     1      62.838  81.483  74.355  1.00  0.00     0.050 A 
ATOM     19  C   UNL     1      62.033  82.635  74.274  1.00  0.00     0.157 A 
BRANCH  17  20
ATOM     20  O   UNL     1      61.342  84.607  73.073  1.00  0.00    -0.493 OA
ATOM     21  C   UNL     1      60.136  84.481  72.299  1.00  0.00     0.278 C 
ENDBRANCH  17  20
BRANCH  19  22
ATOM     22  O   UNL     1      61.207  82.956  75.302  1.00  0.00    -0.504 OA
ATOM     23  H   UNL     1      60.490  82.319  75.348  1.00  0.00     0.293 HD
ENDBRANCH  19  22
ENDBRANCH  13  14
ENDBRANCH  11  13
ENDBRANCH   8   9
ENDBRANCH   1   8
TORSDOF 11
ENDMDL
MODEL 10
REMARK VINA RESULT:    -4.967      2.673      4.233
REMARK INTER + INTRA:          -8.980
REMARK INTER:                  -8.159
REMARK INTRA:                  -0.820
REMARK UNBOUND:                -0.964
REMARK SMILES CCCCCCCCC(=O)NCc1ccc(O)c(OC)c1
REMARK SMILES IDX 7 1 6 2 5 3 4 4 3 5 2 6 1 7 8 8 9 9 10 10 11 11 12 13 13 14
REMARK SMILES IDX 21 15 14 16 18 17 15 18 16 19 19 20 20 21 17 22
REMARK H PARENT 11 12 17 23
REMARK Flexibility Score: inf
ROOT
ATOM      1  C   UNL     1      95.221  94.801  78.864  1.00  0.00     0.010 C 
ENDROOT
BRANCH   1   2
ATOM      2  C   UNL     1      94.266  94.848  77.637  1.00  0.00     0.001 C 
BRANCH   2   3
ATOM      3  C   UNL     1      93.574  96.235  77.482  1.00  0.00     0.000 C 
BRANCH   3   4
ATOM      4  C   UNL     1      92.146  96.158  76.871  1.00  0.00    -0.000 C 
BRANCH   4   5
ATOM      5  C   UNL     1      91.107  95.543  77.851  1.00  0.00    -0.000 C 
BRANCH   5   6
ATOM      6  C   UNL     1      90.007  94.728  77.119  1.00  0.00    -0.003 C 
ATOM      7  C   UNL     1      89.309  93.701  78.037  1.00  0.00     0.004 C 
ENDBRANCH   5   6
ENDBRANCH   4   5
ENDBRANCH   3   4
ENDBRANCH   2   3
ENDBRANCH   1   2
BRANCH   1   8
ATOM      8  C   UNL     1      94.799  93.773  79.951  1.00  0.00     0.100 C 
BRANCH   8   9
ATOM      9  C   UNL     1      94.945  94.338  81.314  1.00  0.00     0.220 C 
ATOM     10  O   UNL     1      95.219  93.556  82.256  1.00  0.00    -0.275 OA
ATOM     11  N   UNL     1      94.811  95.680  81.527  1.00  0.00    -0.352 N 
ATOM     12  H   UNL     1      94.506  96.203  80.719  1.00  0.00     0.163 HD
BRANCH  11  13
ATOM     13  C   UNL     1      95.066  96.360  82.760  1.00  0.00     0.151 C 
BRANCH  13  14
ATOM     14  C   UNL     1      95.942  97.554  82.619  1.00  0.00    -0.025 A 
ATOM     15  C   UNL     1      96.917  97.605  81.594  1.00  0.00     0.056 A 
ATOM     16  C   UNL     1      95.820  98.653  83.500  1.00  0.00     0.009 A 
ATOM     17  C   UNL     1      97.745  98.740  81.437  1.00  0.00     0.160 A 
ATOM     18  C   UNL     1      96.640  99.786  83.348  1.00  0.00     0.050 A 
ATOM     19  C   UNL     1      97.606  99.831  82.325  1.00  0.00     0.157 A 
BRANCH  17  20
ATOM     20  O   UNL     1      98.718  98.770  80.470  1.00  0.00    -0.493 OA
ATOM     21  C   UNL     1      99.894  98.008  80.795  1.00  0.00     0.278 C 
ENDBRANCH  17  20
BRANCH  19  22
ATOM     22  O   UNL     1      98.411 100.917  82.204  1.00  0.00    -0.504 OA
ATOM     23  H   UNL     1      98.763 101.153  83.065  1.00  0.00     0.293 HD
ENDBRANCH  19  22
ENDBRANCH  13  14
ENDBRANCH  11  13
ENDBRANCH   8   9
ENDBRANCH   1   8
TORSDOF 11
ENDMDL
