MODEL 1
REMARK VINA RESULT:    -5.446      0.000      0.000
REMARK INTER + INTRA:         -10.311
REMARK INTER:                  -8.948
REMARK INTRA:                  -1.363
REMARK UNBOUND:                -1.363
REMARK SMILES CCCCC[C@H](O)CC(=O)CCc1ccc(O)c(OC)c1
REMARK SMILES IDX 8 1 6 2 7 3 5 5 4 6 3 7 2 8 1 9 9 10 10 11 11 12 12 13 13 14
REMARK SMILES IDX 21 15 14 16 18 17 15 18 16 19 19 20 20 21 17 22
REMARK H PARENT 7 4 17 23
REMARK Flexibility Score: inf
ROOT
ATOM      1  C   UNL     1      90.514  99.144  68.850  1.00  0.00     0.107 C 
ENDROOT
BRANCH   1   2
ATOM      2  C   UNL     1      89.576  99.299  70.050  1.00  0.00     0.121 C 
BRANCH   2   3
ATOM      3  O   UNL     1      89.565  98.094  70.813  1.00  0.00    -0.393 OA
ATOM      4  H   UNL     1      88.643  97.789  70.874  1.00  0.00     0.210 HD
ENDBRANCH   2   3
BRANCH   2   5
ATOM      5  C   UNL     1      89.957 100.470  70.963  1.00  0.00     0.032 C 
BRANCH   5   6
ATOM      6  C   UNL     1      91.437 100.849  70.828  1.00  0.00     0.003 C 
BRANCH   6   7
ATOM      7  C   UNL     1      92.320 100.241  71.922  1.00  0.00    -0.000 C 
BRANCH   7   8
ATOM      8  C   UNL     1      93.502  99.440  71.380  1.00  0.00    -0.003 C 
ATOM      9  C   UNL     1      94.033 100.041  70.087  1.00  0.00     0.004 C 
ENDBRANCH   7   8
ENDBRANCH   6   7
ENDBRANCH   5   6
ENDBRANCH   2   5
ENDBRANCH   1   2
BRANCH   1  10
ATOM     10  C   UNL     1      89.963  98.217  67.779  1.00  0.00     0.135 C 
ATOM     11  O   UNL     1      89.846  97.009  67.986  1.00  0.00    -0.300 OA
BRANCH  10  12
ATOM     12  C   UNL     1      89.528  98.866  66.474  1.00  0.00     0.080 C 
BRANCH  12  13
ATOM     13  C   UNL     1      88.094  99.399  66.500  1.00  0.00     0.043 C 
BRANCH  13  14
ATOM     14  C   UNL     1      88.022 100.905  66.412  1.00  0.00    -0.044 A 
ATOM     15  C   UNL     1      89.191 101.665  66.464  1.00  0.00     0.054 A 
ATOM     16  C   UNL     1      86.785 101.537  66.280  1.00  0.00     0.008 A 
ATOM     17  C   UNL     1      89.122 103.055  66.382  1.00  0.00     0.160 A 
ATOM     18  C   UNL     1      86.716 102.928  66.198  1.00  0.00     0.050 A 
ATOM     19  C   UNL     1      87.885 103.687  66.250  1.00  0.00     0.157 A 
BRANCH  17  20
ATOM     20  O   UNL     1      90.271 103.787  66.434  1.00  0.00    -0.493 OA
ATOM     21  C   UNL     1      91.021 103.730  67.646  1.00  0.00     0.278 C 
ENDBRANCH  17  20
BRANCH  19  22
ATOM     22  O   UNL     1      87.806 105.044  66.169  1.00  0.00    -0.504 OA
ATOM     23  H   UNL     1      88.448 105.436  66.785  1.00  0.00     0.293 HD
ENDBRANCH  19  22
ENDBRANCH  13  14
ENDBRANCH  12  13
ENDBRANCH  10  12
ENDBRANCH   1  10
TORSDOF 12
ENDMDL
MODEL 2
REMARK VINA RESULT:    -5.442     19.338     21.895
REMARK INTER + INTRA:         -10.304
REMARK INTER:                  -9.396
REMARK INTRA:                  -0.908
REMARK UNBOUND:                -1.363
REMARK SMILES CCCCC[C@H](O)CC(=O)CCc1ccc(O)c(OC)c1
REMARK SMILES IDX 8 1 6 2 7 3 5 5 4 6 3 7 2 8 1 9 9 10 10 11 11 12 12 13 13 14
REMARK SMILES IDX 21 15 14 16 18 17 15 18 16 19 19 20 20 21 17 22
REMARK H PARENT 7 4 17 23
REMARK Flexibility Score: inf
ROOT
ATOM      1  C   UNL     1      75.735  84.077  66.344  1.00  0.00     0.107 C 
ENDROOT
BRANCH   1   2
ATOM      2  C   UNL     1      75.764  83.605  64.888  1.00  0.00     0.121 C 
BRANCH   2   3
ATOM      3  O   UNL     1      76.899  84.154  64.225  1.00  0.00    -0.393 OA
ATOM      4  H   UNL     1      76.822  85.124  64.255  1.00  0.00     0.210 HD
ENDBRANCH   2   3
BRANCH   2   5
ATOM      5  C   UNL     1      75.789  82.078  64.753  1.00  0.00     0.032 C 
BRANCH   5   6
ATOM      6  C   UNL     1      74.487  81.530  64.156  1.00  0.00     0.003 C 
BRANCH   6   7
ATOM      7  C   UNL     1      73.361  81.388  65.184  1.00  0.00    -0.000 C 
BRANCH   7   8
ATOM      8  C   UNL     1      72.002  81.070  64.563  1.00  0.00    -0.003 C 
ATOM      9  C   UNL     1      70.870  81.720  65.344  1.00  0.00     0.004 C 
ENDBRANCH   7   8
ENDBRANCH   6   7
ENDBRANCH   5   6
ENDBRANCH   2   5
ENDBRANCH   1   2
BRANCH   1  10
ATOM     10  C   UNL     1      77.122  84.242  66.945  1.00  0.00     0.135 C 
ATOM     11  O   UNL     1      78.028  83.456  66.668  1.00  0.00    -0.300 OA
BRANCH  10  12
ATOM     12  C   UNL     1      77.332  85.441  67.857  1.00  0.00     0.080 C 
BRANCH  12  13
ATOM     13  C   UNL     1      77.281  86.784  67.127  1.00  0.00     0.043 C 
BRANCH  13  14
ATOM     14  C   UNL     1      76.366  87.785  67.792  1.00  0.00    -0.044 A 
ATOM     15  C   UNL     1      75.113  87.383  68.256  1.00  0.00     0.054 A 
ATOM     16  C   UNL     1      76.774  89.110  67.942  1.00  0.00     0.008 A 
ATOM     17  C   UNL     1      74.268  88.308  68.871  1.00  0.00     0.160 A 
ATOM     18  C   UNL     1      75.929  90.035  68.557  1.00  0.00     0.050 A 
ATOM     19  C   UNL     1      74.676  89.633  69.021  1.00  0.00     0.157 A 
BRANCH  17  20
ATOM     20  O   UNL     1      73.047  87.904  69.319  1.00  0.00    -0.493 OA
ATOM     21  C   UNL     1      72.033  87.693  68.338  1.00  0.00     0.278 C 
ENDBRANCH  17  20
BRANCH  19  22
ATOM     22  O   UNL     1      73.860  90.545  69.619  1.00  0.00    -0.504 OA
ATOM     23  H   UNL     1      74.336  90.957  70.361  1.00  0.00     0.293 HD
ENDBRANCH  19  22
ENDBRANCH  13  14
ENDBRANCH  12  13
ENDBRANCH  10  12
ENDBRANCH   1  10
TORSDOF 12
ENDMDL
MODEL 3
REMARK VINA RESULT:    -5.331     18.251     20.600
REMARK INTER + INTRA:         -10.121
REMARK INTER:                  -9.012
REMARK INTRA:                  -1.109
REMARK UNBOUND:                -1.363
REMARK SMILES CCCCC[C@H](O)CC(=O)CCc1ccc(O)c(OC)c1
REMARK SMILES IDX 8 1 6 2 7 3 5 5 4 6 3 7 2 8 1 9 9 10 10 11 11 12 12 13 13 14
REMARK SMILES IDX 21 15 14 16 18 17 15 18 16 19 19 20 20 21 17 22
REMARK H PARENT 7 4 17 23
REMARK Flexibility Score: inf
ROOT
ATOM      1  C   UNL     1      76.276  84.637  67.256  1.00  0.00     0.107 C 
ENDROOT
BRANCH   1   2
ATOM      2  C   UNL     1      77.454  84.437  66.300  1.00  0.00     0.121 C 
BRANCH   2   3
ATOM      3  O   UNL     1      78.175  83.261  66.660  1.00  0.00    -0.393 OA
ATOM      4  H   UNL     1      77.829  82.950  67.515  1.00  0.00     0.210 HD
ENDBRANCH   2   3
BRANCH   2   5
ATOM      5  C   UNL     1      77.025  84.335  64.831  1.00  0.00     0.032 C 
BRANCH   5   6
ATOM      6  C   UNL     1      75.499  84.312  64.677  1.00  0.00     0.003 C 
BRANCH   6   7
ATOM      7  C   UNL     1      74.985  83.084  63.917  1.00  0.00    -0.000 C 
BRANCH   7   8
ATOM      8  C   UNL     1      75.339  81.758  64.586  1.00  0.00    -0.003 C 
ATOM      9  C   UNL     1      74.369  81.427  65.710  1.00  0.00     0.004 C 
ENDBRANCH   7   8
ENDBRANCH   6   7
ENDBRANCH   5   6
ENDBRANCH   2   5
ENDBRANCH   1   2
BRANCH   1  10
ATOM     10  C   UNL     1      76.600  85.567  68.414  1.00  0.00     0.135 C 
ATOM     11  O   UNL     1      76.488  85.189  69.580  1.00  0.00    -0.300 OA
BRANCH  10  12
ATOM     12  C   UNL     1      77.107  86.955  68.052  1.00  0.00     0.080 C 
BRANCH  12  13
ATOM     13  C   UNL     1      76.079  87.812  67.310  1.00  0.00     0.043 C 
BRANCH  13  14
ATOM     14  C   UNL     1      75.193  88.609  68.238  1.00  0.00    -0.044 A 
ATOM     15  C   UNL     1      75.634  89.830  68.746  1.00  0.00     0.054 A 
ATOM     16  C   UNL     1      73.932  88.122  68.586  1.00  0.00     0.008 A 
ATOM     17  C   UNL     1      74.814  90.566  69.602  1.00  0.00     0.160 A 
ATOM     18  C   UNL     1      73.112  88.858  69.442  1.00  0.00     0.050 A 
ATOM     19  C   UNL     1      73.554  90.080  69.950  1.00  0.00     0.157 A 
BRANCH  17  20
ATOM     20  O   UNL     1      75.256  91.758  70.092  1.00  0.00    -0.493 OA
ATOM     21  C   UNL     1      74.977  92.922  69.316  1.00  0.00     0.278 C 
ENDBRANCH  17  20
BRANCH  19  22
ATOM     22  O   UNL     1      72.745  90.789  70.785  1.00  0.00    -0.504 OA
ATOM     23  H   UNL     1      72.068  91.247  70.257  1.00  0.00     0.293 HD
ENDBRANCH  19  22
ENDBRANCH  13  14
ENDBRANCH  12  13
ENDBRANCH  10  12
ENDBRANCH   1  10
TORSDOF 12
ENDMDL
MODEL 4
REMARK VINA RESULT:    -5.330     19.364     21.957
REMARK INTER + INTRA:         -10.120
REMARK INTER:                  -8.894
REMARK INTRA:                  -1.227
REMARK UNBOUND:                -1.363
REMARK SMILES CCCCC[C@H](O)CC(=O)CCc1ccc(O)c(OC)c1
REMARK SMILES IDX 8 1 6 2 7 3 5 5 4 6 3 7 2 8 1 9 9 10 10 11 11 12 12 13 13 14
REMARK SMILES IDX 21 15 14 16 18 17 15 18 16 19 19 20 20 21 17 22
REMARK H PARENT 7 4 17 23
REMARK Flexibility Score: inf
ROOT
ATOM      1  C   UNL     1      77.345  87.140  67.392  1.00  0.00     0.107 C 
ENDROOT
BRANCH   1   2
ATOM      2  C   UNL     1      76.682  88.055  66.360  1.00  0.00     0.121 C 
BRANCH   2   3
ATOM      3  O   UNL     1      75.458  87.475  65.915  1.00  0.00    -0.393 OA
ATOM      4  H   UNL     1      75.634  87.018  65.074  1.00  0.00     0.210 HD
ENDBRANCH   2   3
BRANCH   2   5
ATOM      5  C   UNL     1      76.407  89.465  66.898  1.00  0.00     0.032 C 
BRANCH   5   6
ATOM      6  C   UNL     1      76.114  89.461  68.403  1.00  0.00     0.003 C 
BRANCH   6   7
ATOM      7  C   UNL     1      74.620  89.378  68.730  1.00  0.00    -0.000 C 
BRANCH   7   8
ATOM      8  C   UNL     1      74.177  90.353  69.820  1.00  0.00    -0.003 C 
ATOM      9  C   UNL     1      75.053  91.596  69.841  1.00  0.00     0.004 C 
ENDBRANCH   7   8
ENDBRANCH   6   7
ENDBRANCH   5   6
ENDBRANCH   2   5
ENDBRANCH   1   2
BRANCH   1  10
ATOM     10  C   UNL     1      76.592  85.837  67.604  1.00  0.00     0.135 C 
ATOM     11  O   UNL     1      75.526  85.815  68.218  1.00  0.00    -0.300 OA
BRANCH  10  12
ATOM     12  C   UNL     1      77.200  84.589  66.982  1.00  0.00     0.080 C 
BRANCH  12  13
ATOM     13  C   UNL     1      76.711  84.309  65.560  1.00  0.00     0.043 C 
BRANCH  13  14
ATOM     14  C   UNL     1      75.445  83.487  65.520  1.00  0.00    -0.044 A 
ATOM     15  C   UNL     1      74.205  84.120  65.435  1.00  0.00     0.054 A 
ATOM     16  C   UNL     1      75.516  82.094  65.570  1.00  0.00     0.008 A 
ATOM     17  C   UNL     1      73.036  83.359  65.397  1.00  0.00     0.160 A 
ATOM     18  C   UNL     1      74.347  81.334  65.532  1.00  0.00     0.050 A 
ATOM     19  C   UNL     1      73.107  81.967  65.447  1.00  0.00     0.157 A 
BRANCH  17  20
ATOM     20  O   UNL     1      71.830  83.988  65.314  1.00  0.00    -0.493 OA
ATOM     21  C   UNL     1      71.373  84.670  66.481  1.00  0.00     0.278 C 
ENDBRANCH  17  20
BRANCH  19  22
ATOM     22  O   UNL     1      71.973  81.214  65.411  1.00  0.00    -0.504 OA
ATOM     23  H   UNL     1      71.263  81.687  65.879  1.00  0.00     0.293 HD
ENDBRANCH  19  22
ENDBRANCH  13  14
ENDBRANCH  12  13
ENDBRANCH  10  12
ENDBRANCH   1  10
TORSDOF 12
ENDMDL
MODEL 5
REMARK VINA RESULT:    -5.251     20.650     23.738
REMARK INTER + INTRA:          -9.990
REMARK INTER:                  -9.258
REMARK INTRA:                  -0.732
REMARK UNBOUND:                -1.363
REMARK SMILES CCCCC[C@H](O)CC(=O)CCc1ccc(O)c(OC)c1
REMARK SMILES IDX 8 1 6 2 7 3 5 5 4 6 3 7 2 8 1 9 9 10 10 11 11 12 12 13 13 14
REMARK SMILES IDX 21 15 14 16 18 17 15 18 16 19 19 20 20 21 17 22
REMARK H PARENT 7 4 17 23
REMARK Flexibility Score: inf
ROOT
ATOM      1  C   UNL     1      97.601  82.358  75.566  1.00  0.00     0.107 C 
ENDROOT
BRANCH   1   2
ATOM      2  C   UNL     1      97.722  82.839  74.118  1.00  0.00     0.121 C 
BRANCH   2   3
ATOM      3  O   UNL     1      98.220  84.175  74.092  1.00  0.00    -0.393 OA
ATOM      4  H   UNL     1      98.960  84.228  74.721  1.00  0.00     0.210 HD
ENDBRANCH   2   3
BRANCH   2   5
ATOM      5  C   UNL     1      98.628  81.945  73.262  1.00  0.00     0.032 C 
BRANCH   5   6
ATOM      6  C   UNL     1     100.084  82.428  73.267  1.00  0.00     0.003 C 
BRANCH   6   7
ATOM      7  C   UNL     1     100.866  81.984  74.507  1.00  0.00    -0.000 C 
BRANCH   7   8
ATOM      8  C   UNL     1     101.275  80.512  74.479  1.00  0.00    -0.003 C 
ATOM      9  C   UNL     1     102.324  80.208  75.537  1.00  0.00     0.004 C 
ENDBRANCH   7   8
ENDBRANCH   6   7
ENDBRANCH   5   6
ENDBRANCH   2   5
ENDBRANCH   1   2
BRANCH   1  10
ATOM     10  C   UNL     1      96.368  82.898  76.272  1.00  0.00     0.135 C 
ATOM     11  O   UNL     1      95.573  83.631  75.685  1.00  0.00    -0.300 OA
BRANCH  10  12
ATOM     12  C   UNL     1      96.154  82.448  77.709  1.00  0.00     0.080 C 
BRANCH  12  13
ATOM     13  C   UNL     1      97.445  82.052  78.429  1.00  0.00     0.043 C 
BRANCH  13  14
ATOM     14  C   UNL     1      97.199  81.388  79.763  1.00  0.00    -0.044 A 
ATOM     15  C   UNL     1      96.703  82.134  80.832  1.00  0.00     0.054 A 
ATOM     16  C   UNL     1      97.469  80.029  79.925  1.00  0.00     0.008 A 
ATOM     17  C   UNL     1      96.476  81.519  82.064  1.00  0.00     0.160 A 
ATOM     18  C   UNL     1      97.242  79.415  81.157  1.00  0.00     0.050 A 
ATOM     19  C   UNL     1      96.745  80.160  82.226  1.00  0.00     0.157 A 
BRANCH  17  20
ATOM     20  O   UNL     1      95.992  82.257  83.102  1.00  0.00    -0.493 OA
ATOM     21  C   UNL     1      96.302  83.650  83.107  1.00  0.00     0.278 C 
ENDBRANCH  17  20
BRANCH  19  22
ATOM     22  O   UNL     1      96.528  79.549  83.424  1.00  0.00    -0.504 OA
ATOM     23  H   UNL     1      95.644  79.142  83.416  1.00  0.00     0.293 HD
ENDBRANCH  19  22
ENDBRANCH  13  14
ENDBRANCH  12  13
ENDBRANCH  10  12
ENDBRANCH   1  10
TORSDOF 12
ENDMDL
MODEL 6
REMARK VINA RESULT:    -5.244     20.079     23.784
REMARK INTER + INTRA:          -9.979
REMARK INTER:                  -9.096
REMARK INTRA:                  -0.882
REMARK UNBOUND:                -1.363
REMARK SMILES CCCCC[C@H](O)CC(=O)CCc1ccc(O)c(OC)c1
REMARK SMILES IDX 8 1 6 2 7 3 5 5 4 6 3 7 2 8 1 9 9 10 10 11 11 12 12 13 13 14
REMARK SMILES IDX 21 15 14 16 18 17 15 18 16 19 19 20 20 21 17 22
REMARK H PARENT 7 4 17 23
REMARK Flexibility Score: inf
ROOT
ATOM      1  C   UNL     1      97.331  82.342  76.627  1.00  0.00     0.107 C 
ENDROOT
BRANCH   1   2
ATOM      2  C   UNL     1      96.165  82.835  75.767  1.00  0.00     0.121 C 
BRANCH   2   3
ATOM      3  O   UNL     1      95.480  83.889  76.439  1.00  0.00    -0.393 OA
ATOM      4  H   UNL     1      96.139  84.557  76.694  1.00  0.00     0.210 HD
ENDBRANCH   2   3
BRANCH   2   5
ATOM      5  C   UNL     1      96.606  83.323  74.381  1.00  0.00     0.032 C 
BRANCH   5   6
ATOM      6  C   UNL     1      97.951  82.720  73.959  1.00  0.00     0.003 C 
BRANCH   6   7
ATOM      7  C   UNL     1      98.968  83.769  73.498  1.00  0.00    -0.000 C 
BRANCH   7   8
ATOM      8  C   UNL     1     100.404  83.455  73.913  1.00  0.00    -0.003 C 
ATOM      9  C   UNL     1     100.499  82.099  74.596  1.00  0.00     0.004 C 
ENDBRANCH   7   8
ENDBRANCH   6   7
ENDBRANCH   5   6
ENDBRANCH   2   5
ENDBRANCH   1   2
BRANCH   1  10
ATOM     10  C   UNL     1      97.206  80.878  77.017  1.00  0.00     0.135 C 
ATOM     11  O   UNL     1      96.915  80.023  76.181  1.00  0.00    -0.300 OA
BRANCH  10  12
ATOM     12  C   UNL     1      97.503  80.531  78.468  1.00  0.00     0.080 C 
BRANCH  12  13
ATOM     13  C   UNL     1      97.431  81.730  79.414  1.00  0.00     0.043 C 
BRANCH  13  14
ATOM     14  C   UNL     1      97.067  81.347  80.829  1.00  0.00    -0.044 A 
ATOM     15  C   UNL     1      96.898  82.336  81.798  1.00  0.00     0.054 A 
ATOM     16  C   UNL     1      96.899  80.004  81.166  1.00  0.00     0.008 A 
ATOM     17  C   UNL     1      96.560  81.981  83.104  1.00  0.00     0.160 A 
ATOM     18  C   UNL     1      96.562  79.648  82.472  1.00  0.00     0.050 A 
ATOM     19  C   UNL     1      96.392  80.637  83.441  1.00  0.00     0.157 A 
BRANCH  17  20
ATOM     20  O   UNL     1      96.398  82.955  84.043  1.00  0.00    -0.493 OA
ATOM     21  C   UNL     1      95.752  84.156  83.625  1.00  0.00     0.278 C 
ENDBRANCH  17  20
BRANCH  19  22
ATOM     22  O   UNL     1      96.063  80.278  84.713  1.00  0.00    -0.504 OA
ATOM     23  H   UNL     1      96.153  79.314  84.803  1.00  0.00     0.293 HD
ENDBRANCH  19  22
ENDBRANCH  13  14
ENDBRANCH  12  13
ENDBRANCH  10  12
ENDBRANCH   1  10
TORSDOF 12
ENDMDL
MODEL 7
REMARK VINA RESULT:    -5.194     20.201     24.229
REMARK INTER + INTRA:          -9.897
REMARK INTER:                  -9.120
REMARK INTRA:                  -0.777
REMARK UNBOUND:                -1.363
REMARK SMILES CCCCC[C@H](O)CC(=O)CCc1ccc(O)c(OC)c1
REMARK SMILES IDX 8 1 6 2 7 3 5 5 4 6 3 7 2 8 1 9 9 10 10 11 11 12 12 13 13 14
REMARK SMILES IDX 21 15 14 16 18 17 15 18 16 19 19 20 20 21 17 22
REMARK H PARENT 7 4 17 23
REMARK Flexibility Score: inf
ROOT
ATOM      1  C   UNL     1      97.396  82.365  76.530  1.00  0.00     0.107 C 
ENDROOT
BRANCH   1   2
ATOM      2  C   UNL     1      96.234  82.772  75.621  1.00  0.00     0.121 C 
BRANCH   2   3
ATOM      3  O   UNL     1      95.550  83.890  76.181  1.00  0.00    -0.393 OA
ATOM      4  H   UNL     1      96.211  84.579  76.370  1.00  0.00     0.210 HD
ENDBRANCH   2   3
BRANCH   2   5
ATOM      5  C   UNL     1      96.680  83.117  74.194  1.00  0.00     0.032 C 
BRANCH   5   6
ATOM      6  C   UNL     1      98.076  82.565  73.878  1.00  0.00     0.003 C 
BRANCH   6   7
ATOM      7  C   UNL     1      99.083  83.652  73.489  1.00  0.00    -0.000 C 
BRANCH   7   8
ATOM      8  C   UNL     1     100.499  83.384  73.996  1.00  0.00    -0.003 C 
ATOM      9  C   UNL     1     100.628  81.979  74.563  1.00  0.00     0.004 C 
ENDBRANCH   7   8
ENDBRANCH   6   7
ENDBRANCH   5   6
ENDBRANCH   2   5
ENDBRANCH   1   2
BRANCH   1  10
ATOM     10  C   UNL     1      97.130  81.082  77.299  1.00  0.00     0.135 C 
ATOM     11  O   UNL     1      96.580  80.122  76.759  1.00  0.00    -0.300 OA
BRANCH  10  12
ATOM     12  C   UNL     1      97.615  81.037  78.740  1.00  0.00     0.080 C 
BRANCH  12  13
ATOM     13  C   UNL     1      96.887  82.014  79.665  1.00  0.00     0.043 C 
BRANCH  13  14
ATOM     14  C   UNL     1      97.121  81.729  81.130  1.00  0.00    -0.044 A 
ATOM     15  C   UNL     1      97.885  80.627  81.513  1.00  0.00     0.054 A 
ATOM     16  C   UNL     1      96.574  82.570  82.099  1.00  0.00     0.008 A 
ATOM     17  C   UNL     1      98.102  80.366  82.866  1.00  0.00     0.160 A 
ATOM     18  C   UNL     1      96.790  82.308  83.452  1.00  0.00     0.050 A 
ATOM     19  C   UNL     1      97.554  81.206  83.835  1.00  0.00     0.157 A 
BRANCH  17  20
ATOM     20  O   UNL     1      98.849  79.286  83.228  1.00  0.00    -0.493 OA
ATOM     21  C   UNL     1     100.058  79.062  82.505  1.00  0.00     0.278 C 
ENDBRANCH  17  20
BRANCH  19  22
ATOM     22  O   UNL     1      97.758  80.961  85.159  1.00  0.00    -0.504 OA
ATOM     23  H   UNL     1      98.429  80.262  85.252  1.00  0.00     0.293 HD
ENDBRANCH  19  22
ENDBRANCH  13  14
ENDBRANCH  12  13
ENDBRANCH  10  12
ENDBRANCH   1  10
TORSDOF 12
ENDMDL
MODEL 8
REMARK VINA RESULT:    -5.193     18.992     21.559
REMARK INTER + INTRA:          -9.895
REMARK INTER:                  -8.648
REMARK INTRA:                  -1.247
REMARK UNBOUND:                -1.363
REMARK SMILES CCCCC[C@H](O)CC(=O)CCc1ccc(O)c(OC)c1
REMARK SMILES IDX 8 1 6 2 7 3 5 5 4 6 3 7 2 8 1 9 9 10 10 11 11 12 12 13 13 14
REMARK SMILES IDX 21 15 14 16 18 17 15 18 16 19 19 20 20 21 17 22
REMARK H PARENT 7 4 17 23
REMARK Flexibility Score: inf
ROOT
ATOM      1  C   UNL     1      75.423  83.565  66.315  1.00  0.00     0.107 C 
ENDROOT
BRANCH   1   2
ATOM      2  C   UNL     1      75.561  83.403  64.799  1.00  0.00     0.121 C 
BRANCH   2   3
ATOM      3  O   UNL     1      76.697  84.129  64.336  1.00  0.00    -0.393 OA
ATOM      4  H   UNL     1      77.486  83.585  64.505  1.00  0.00     0.210 HD
ENDBRANCH   2   3
BRANCH   2   5
ATOM      5  C   UNL     1      75.684  81.939  64.361  1.00  0.00     0.032 C 
BRANCH   5   6
ATOM      6  C   UNL     1      74.887  81.650  63.083  1.00  0.00     0.003 C 
BRANCH   6   7
ATOM      7  C   UNL     1      73.390  81.943  63.224  1.00  0.00    -0.000 C 
BRANCH   7   8
ATOM      8  C   UNL     1      72.684  81.048  64.241  1.00  0.00    -0.003 C 
ATOM      9  C   UNL     1      71.831  81.865  65.200  1.00  0.00     0.004 C 
ENDBRANCH   7   8
ENDBRANCH   6   7
ENDBRANCH   5   6
ENDBRANCH   2   5
ENDBRANCH   1   2
BRANCH   1  10
ATOM     10  C   UNL     1      76.717  83.992  66.988  1.00  0.00     0.135 C 
ATOM     11  O   UNL     1      77.781  83.428  66.730  1.00  0.00    -0.300 OA
BRANCH  10  12
ATOM     12  C   UNL     1      76.631  85.167  67.950  1.00  0.00     0.080 C 
BRANCH  12  13
ATOM     13  C   UNL     1      77.611  86.297  67.629  1.00  0.00     0.043 C 
BRANCH  13  14
ATOM     14  C   UNL     1      76.949  87.488  66.978  1.00  0.00    -0.044 A 
ATOM     15  C   UNL     1      76.199  87.319  65.814  1.00  0.00     0.054 A 
ATOM     16  C   UNL     1      77.088  88.757  67.541  1.00  0.00     0.008 A 
ATOM     17  C   UNL     1      75.587  88.420  65.214  1.00  0.00     0.160 A 
ATOM     18  C   UNL     1      76.476  89.857  66.941  1.00  0.00     0.050 A 
ATOM     19  C   UNL     1      75.726  89.689  65.777  1.00  0.00     0.157 A 
BRANCH  17  20
ATOM     20  O   UNL     1      74.857  88.243  64.077  1.00  0.00    -0.493 OA
ATOM     21  C   UNL     1      75.546  87.729  62.938  1.00  0.00     0.278 C 
ENDBRANCH  17  20
BRANCH  19  22
ATOM     22  O   UNL     1      75.133  90.771  65.200  1.00  0.00    -0.504 OA
ATOM     23  H   UNL     1      75.079  90.627  64.239  1.00  0.00     0.293 HD
ENDBRANCH  19  22
ENDBRANCH  13  14
ENDBRANCH  12  13
ENDBRANCH  10  12
ENDBRANCH   1  10
TORSDOF 12
ENDMDL
MODEL 9
REMARK VINA RESULT:    -5.118     17.777     19.711
REMARK INTER + INTRA:          -9.772
REMARK INTER:                  -8.249
REMARK INTRA:                  -1.522
REMARK UNBOUND:                -1.363
REMARK SMILES CCCCC[C@H](O)CC(=O)CCc1ccc(O)c(OC)c1
REMARK SMILES IDX 8 1 6 2 7 3 5 5 4 6 3 7 2 8 1 9 9 10 10 11 11 12 12 13 13 14
REMARK SMILES IDX 21 15 14 16 18 17 15 18 16 19 19 20 20 21 17 22
REMARK H PARENT 7 4 17 23
REMARK Flexibility Score: inf
ROOT
ATOM      1  C   UNL     1      77.474  87.930  67.107  1.00  0.00     0.107 C 
ENDROOT
BRANCH   1   2
ATOM      2  C   UNL     1      77.152  86.435  67.046  1.00  0.00     0.121 C 
BRANCH   2   3
ATOM      3  O   UNL     1      77.973  85.726  67.971  1.00  0.00    -0.393 OA
ATOM      4  H   UNL     1      77.735  84.784  67.919  1.00  0.00     0.210 HD
ENDBRANCH   2   3
BRANCH   2   5
ATOM      5  C   UNL     1      75.679  86.125  67.338  1.00  0.00     0.032 C 
BRANCH   5   6
ATOM      6  C   UNL     1      75.458  85.696  68.794  1.00  0.00     0.003 C 
BRANCH   6   7
ATOM      7  C   UNL     1      73.993  85.782  69.236  1.00  0.00    -0.000 C 
BRANCH   7   8
ATOM      8  C   UNL     1      73.014  85.963  68.077  1.00  0.00    -0.003 C 
ATOM      9  C   UNL     1      71.642  86.392  68.574  1.00  0.00     0.004 C 
ENDBRANCH   7   8
ENDBRANCH   6   7
ENDBRANCH   5   6
ENDBRANCH   2   5
ENDBRANCH   1   2
BRANCH   1  10
ATOM     10  C   UNL     1      76.492  88.783  66.319  1.00  0.00     0.135 C 
ATOM     11  O   UNL     1      76.366  88.643  65.103  1.00  0.00    -0.300 OA
BRANCH  10  12
ATOM     12  C   UNL     1      75.656  89.772  67.116  1.00  0.00     0.080 C 
BRANCH  12  13
ATOM     13  C   UNL     1      75.908  89.716  68.624  1.00  0.00     0.043 C 
BRANCH  13  14
ATOM     14  C   UNL     1      74.742  90.225  69.439  1.00  0.00    -0.044 A 
ATOM     15  C   UNL     1      74.807  91.481  70.041  1.00  0.00     0.054 A 
ATOM     16  C   UNL     1      73.601  89.437  69.589  1.00  0.00     0.008 A 
ATOM     17  C   UNL     1      73.729  91.950  70.792  1.00  0.00     0.160 A 
ATOM     18  C   UNL     1      72.523  89.906  70.340  1.00  0.00     0.050 A 
ATOM     19  C   UNL     1      72.588  91.162  70.942  1.00  0.00     0.157 A 
BRANCH  17  20
ATOM     20  O   UNL     1      73.804  93.179  71.376  1.00  0.00    -0.493 OA
ATOM     21  C   UNL     1      73.738  94.312  70.512  1.00  0.00     0.278 C 
ENDBRANCH  17  20
BRANCH  19  22
ATOM     22  O   UNL     1      71.529  91.609  71.673  1.00  0.00    -0.504 OA
ATOM     23  H   UNL     1      71.755  91.565  72.618  1.00  0.00     0.293 HD
ENDBRANCH  19  22
ENDBRANCH  13  14
ENDBRANCH  12  13
ENDBRANCH  10  12
ENDBRANCH   1  10
TORSDOF 12
ENDMDL
MODEL 10
REMARK VINA RESULT:    -4.981     20.269     24.032
REMARK INTER + INTRA:          -9.548
REMARK INTER:                  -7.684
REMARK INTRA:                  -1.864
REMARK UNBOUND:                -1.363
REMARK SMILES CCCCC[C@H](O)CC(=O)CCc1ccc(O)c(OC)c1
REMARK SMILES IDX 8 1 6 2 7 3 5 5 4 6 3 7 2 8 1 9 9 10 10 11 11 12 12 13 13 14
REMARK SMILES IDX 21 15 14 16 18 17 15 18 16 19 19 20 20 21 17 22
REMARK H PARENT 7 4 17 23
REMARK Flexibility Score: inf
ROOT
ATOM      1  C   UNL     1      96.883  82.480  74.311  1.00  0.00     0.107 C 
ENDROOT
BRANCH   1   2
ATOM      2  C   UNL     1      96.556  83.298  75.562  1.00  0.00     0.121 C 
BRANCH   2   3
ATOM      3  O   UNL     1      95.544  84.257  75.262  1.00  0.00    -0.393 OA
ATOM      4  H   UNL     1      95.649  85.003  75.878  1.00  0.00     0.210 HD
ENDBRANCH   2   3
BRANCH   2   5
ATOM      5  C   UNL     1      96.097  82.432  76.742  1.00  0.00     0.032 C 
BRANCH   5   6
ATOM      6  C   UNL     1      97.274  81.975  77.613  1.00  0.00     0.003 C 
BRANCH   6   7
ATOM      7  C   UNL     1      97.001  82.099  79.115  1.00  0.00    -0.000 C 
BRANCH   7   8
ATOM      8  C   UNL     1      97.962  81.287  79.981  1.00  0.00    -0.003 C 
ATOM      9  C   UNL     1      97.446  79.874  80.208  1.00  0.00     0.004 C 
ENDBRANCH   7   8
ENDBRANCH   6   7
ENDBRANCH   5   6
ENDBRANCH   2   5
ENDBRANCH   1   2
BRANCH   1  10
ATOM     10  C   UNL     1      98.271  82.764  73.759  1.00  0.00     0.135 C 
ATOM     11  O   UNL     1      98.595  83.901  73.416  1.00  0.00    -0.300 OA
BRANCH  10  12
ATOM     12  C   UNL     1      99.236  81.590  73.700  1.00  0.00     0.080 C 
BRANCH  12  13
ATOM     13  C   UNL     1     100.119  81.457  74.943  1.00  0.00     0.043 C 
BRANCH  13  14
ATOM     14  C   UNL     1      99.752  80.272  75.805  1.00  0.00    -0.044 A 
ATOM     15  C   UNL     1     100.408  80.063  77.018  1.00  0.00     0.054 A 
ATOM     16  C   UNL     1      98.757  79.388  75.388  1.00  0.00     0.008 A 
ATOM     17  C   UNL     1     100.068  78.969  77.814  1.00  0.00     0.160 A 
ATOM     18  C   UNL     1      98.417  78.294  76.184  1.00  0.00     0.050 A 
ATOM     19  C   UNL     1      99.073  78.085  77.397  1.00  0.00     0.157 A 
BRANCH  17  20
ATOM     20  O   UNL     1     100.716  78.774  78.997  1.00  0.00    -0.493 OA
ATOM     21  C   UNL     1     101.537  79.841  79.469  1.00  0.00     0.278 C 
ENDBRANCH  17  20
BRANCH  19  22
ATOM     22  O   UNL     1      98.732  77.013  78.166  1.00  0.00    -0.504 OA
ATOM     23  H   UNL     1      97.864  77.179  78.573  1.00  0.00     0.293 HD
ENDBRANCH  19  22
ENDBRANCH  13  14
ENDBRANCH  12  13
ENDBRANCH  10  12
ENDBRANCH   1  10
TORSDOF 12
ENDMDL
