MODEL 1
REMARK VINA RESULT:    -6.289      0.000      0.000
REMARK INTER + INTRA:         -11.140
REMARK INTER:                  -9.782
REMARK INTRA:                  -1.358
REMARK UNBOUND:                -1.358
REMARK SMILES COc1cc(CNC(=O)CCCC/C=C/C(C)C)ccc1O
REMARK SMILES IDX 10 1 8 2 7 3 9 5 6 6 5 7 3 8 21 9 4 10 20 11 19 12 2 13 1 14
REMARK SMILES IDX 22 15 11 17 12 18 13 19 14 20 15 21 16 22 17 23 18 24
REMARK H PARENT 7 4 22 16
REMARK Flexibility Score: inf
ROOT
ATOM      1  C   UNL     1      95.960  98.304  74.932  1.00  0.00     0.100 C 
ENDROOT
BRANCH   1   2
ATOM      2  C   UNL     1      96.949  97.426  75.586  1.00  0.00     0.220 C 
ATOM      3  N   UNL     1      96.772  97.024  76.876  1.00  0.00    -0.352 N 
ATOM      4  H   UNL     1      95.945  97.392  77.327  1.00  0.00     0.163 HD
ATOM      5  O   UNL     1      97.938  97.045  74.914  1.00  0.00    -0.275 OA
BRANCH   3   6
ATOM      6  C   UNL     1      97.651  96.152  77.587  1.00  0.00     0.151 C 
BRANCH   6   7
ATOM      7  C   UNL     1      96.897  95.168  78.410  1.00  0.00    -0.025 A 
ATOM      8  C   UNL     1      95.815  94.554  80.535  1.00  0.00     0.160 A 
ATOM      9  C   UNL     1      95.441  93.310  79.986  1.00  0.00     0.157 A 
ATOM     10  C   UNL     1      96.540  95.469  79.743  1.00  0.00     0.056 A 
ATOM     11  C   UNL     1      95.806  92.987  78.665  1.00  0.00     0.050 A 
ATOM     12  C   UNL     1      96.520  93.912  77.878  1.00  0.00     0.009 A 
BRANCH   8  13
ATOM     13  O   UNL     1      95.520  94.846  81.842  1.00  0.00    -0.493 OA
ATOM     14  C   UNL     1      95.906  96.172  82.249  1.00  0.00     0.278 C 
ENDBRANCH   8  13
BRANCH   9  15
ATOM     15  O   UNL     1      94.732  92.412  80.717  1.00  0.00    -0.504 OA
ATOM     16  H   UNL     1      94.699  91.573  80.251  1.00  0.00     0.293 HD
ENDBRANCH   9  15
ENDBRANCH   6   7
ENDBRANCH   3   6
ENDBRANCH   1   2
BRANCH   1  17
ATOM     17  C   UNL     1      95.059  97.516  73.944  1.00  0.00     0.010 C 
BRANCH  17  18
ATOM     18  C   UNL     1      93.887  96.779  74.650  1.00  0.00     0.005 C 
BRANCH  18  19
ATOM     19  C   UNL     1      94.241  95.308  75.002  1.00  0.00     0.027 C 
BRANCH  19  20
ATOM     20  C   UNL     1      93.362  94.764  76.025  1.00  0.00    -0.031 C 
ATOM     21  C   UNL     1      92.273  94.017  75.768  1.00  0.00    -0.028 C 
BRANCH  21  22
ATOM     22  C   UNL     1      91.414  93.463  76.814  1.00  0.00     0.005 C 
ATOM     23  C   UNL     1      90.797  92.096  76.408  1.00  0.00     0.012 C 
ATOM     24  C   UNL     1      92.201  93.340  78.145  1.00  0.00     0.012 C 
ENDBRANCH  21  22
ENDBRANCH  19  20
ENDBRANCH  18  19
ENDBRANCH  17  18
ENDBRANCH   1  17
TORSDOF 10
ENDMDL
MODEL 2
REMARK VINA RESULT:    -5.850     12.463     14.032
REMARK INTER + INTRA:         -10.458
REMARK INTER:                  -9.674
REMARK INTRA:                  -0.784
REMARK UNBOUND:                -1.358
REMARK SMILES COc1cc(CNC(=O)CCCC/C=C/C(C)C)ccc1O
REMARK SMILES IDX 10 1 8 2 7 3 9 5 6 6 5 7 3 8 21 9 4 10 20 11 19 12 2 13 1 14
REMARK SMILES IDX 22 15 11 17 12 18 13 19 14 20 15 21 16 22 17 23 18 24
REMARK H PARENT 7 4 22 16
REMARK Flexibility Score: inf
ROOT
ATOM      1  C   UNL     1      98.113  81.772  77.862  1.00  0.00     0.100 C 
ENDROOT
BRANCH   1   2
ATOM      2  C   UNL     1      98.255  81.228  79.227  1.00  0.00     0.220 C 
ATOM      3  N   UNL     1      97.162  81.067  80.024  1.00  0.00    -0.352 N 
ATOM      4  H   UNL     1      96.288  81.368  79.616  1.00  0.00     0.163 HD
ATOM      5  O   UNL     1      99.401  80.898  79.617  1.00  0.00    -0.275 OA
BRANCH   3   6
ATOM      6  C   UNL     1      97.188  80.522  81.344  1.00  0.00     0.151 C 
BRANCH   6   7
ATOM      7  C   UNL     1      96.515  81.421  82.321  1.00  0.00    -0.025 A 
ATOM      8  C   UNL     1      95.081  81.721  84.299  1.00  0.00     0.160 A 
ATOM      9  C   UNL     1      95.241  83.119  84.204  1.00  0.00     0.157 A 
ATOM     10  C   UNL     1      95.717  80.886  83.357  1.00  0.00     0.056 A 
ATOM     11  C   UNL     1      96.018  83.668  83.164  1.00  0.00     0.050 A 
ATOM     12  C   UNL     1      96.659  82.825  82.235  1.00  0.00     0.009 A 
BRANCH   8  13
ATOM     13  O   UNL     1      94.272  81.187  85.269  1.00  0.00    -0.493 OA
ATOM     14  C   UNL     1      92.889  81.078  84.886  1.00  0.00     0.278 C 
ENDBRANCH   8  13
BRANCH   9  15
ATOM     15  O   UNL     1      94.653  83.951  85.103  1.00  0.00    -0.504 OA
ATOM     16  H   UNL     1      94.575  83.504  85.949  1.00  0.00     0.293 HD
ENDBRANCH   9  15
ENDBRANCH   6   7
ENDBRANCH   3   6
ENDBRANCH   1   2
BRANCH   1  17
ATOM     17  C   UNL     1      96.632  81.766  77.395  1.00  0.00     0.010 C 
BRANCH  17  18
ATOM     18  C   UNL     1      96.222  83.078  76.670  1.00  0.00     0.005 C 
BRANCH  18  19
ATOM     19  C   UNL     1      95.956  82.858  75.156  1.00  0.00     0.027 C 
BRANCH  19  20
ATOM     20  C   UNL     1      97.185  82.628  74.412  1.00  0.00    -0.031 C 
ATOM     21  C   UNL     1      97.995  83.606  73.968  1.00  0.00    -0.028 C 
BRANCH  21  22
ATOM     22  C   UNL     1      99.237  83.351  73.238  1.00  0.00     0.005 C 
ATOM     23  C   UNL     1      99.644  84.545  72.331  1.00  0.00     0.012 C 
ATOM     24  C   UNL     1     100.376  82.995  74.229  1.00  0.00     0.012 C 
ENDBRANCH  21  22
ENDBRANCH  19  20
ENDBRANCH  18  19
ENDBRANCH  17  18
ENDBRANCH   1  17
TORSDOF 10
ENDMDL
MODEL 3
REMARK VINA RESULT:    -5.838      5.663      9.272
REMARK INTER + INTRA:         -10.438
REMARK INTER:                  -9.784
REMARK INTRA:                  -0.654
REMARK UNBOUND:                -1.358
REMARK SMILES COc1cc(CNC(=O)CCCC/C=C/C(C)C)ccc1O
REMARK SMILES IDX 10 1 8 2 7 3 9 5 6 6 5 7 3 8 21 9 4 10 20 11 19 12 2 13 1 14
REMARK SMILES IDX 22 15 11 17 12 18 13 19 14 20 15 21 16 22 17 23 18 24
REMARK H PARENT 7 4 22 16
REMARK Flexibility Score: inf
ROOT
ATOM      1  C   UNL     1      95.075  97.772  72.886  1.00  0.00     0.100 C 
ENDROOT
BRANCH   1   2
ATOM      2  C   UNL     1      94.102  98.853  72.633  1.00  0.00     0.220 C 
ATOM      3  N   UNL     1      93.940  99.356  71.377  1.00  0.00    -0.352 N 
ATOM      4  H   UNL     1      94.543  98.951  70.674  1.00  0.00     0.163 HD
ATOM      5  O   UNL     1      93.418  99.272  73.598  1.00  0.00    -0.275 OA
BRANCH   3   6
ATOM      6  C   UNL     1      93.006 100.377  71.022  1.00  0.00     0.151 C 
BRANCH   6   7
ATOM      7  C   UNL     1      91.801  99.808  70.360  1.00  0.00    -0.025 A 
ATOM      8  C   UNL     1      90.458  99.450  68.327  1.00  0.00     0.160 A 
ATOM      9  C   UNL     1      89.518  98.713  69.077  1.00  0.00     0.157 A 
ATOM     10  C   UNL     1      91.588  99.992  68.975  1.00  0.00     0.056 A 
ATOM     11  C   UNL     1      89.707  98.538  70.462  1.00  0.00     0.050 A 
ATOM     12  C   UNL     1      90.845  99.072  71.098  1.00  0.00     0.009 A 
BRANCH   8  13
ATOM     13  O   UNL     1      90.245  99.680  66.992  1.00  0.00    -0.493 OA
ATOM     14  C   UNL     1      89.842 101.027  66.685  1.00  0.00     0.278 C 
ENDBRANCH   8  13
BRANCH   9  15
ATOM     15  O   UNL     1      88.426  98.167  68.482  1.00  0.00    -0.504 OA
ATOM     16  H   UNL     1      88.544  98.173  67.529  1.00  0.00     0.293 HD
ENDBRANCH   9  15
ENDBRANCH   6   7
ENDBRANCH   3   6
ENDBRANCH   1   2
BRANCH   1  17
ATOM     17  C   UNL     1      94.852  97.116  74.275  1.00  0.00     0.010 C 
BRANCH  17  18
ATOM     18  C   UNL     1      94.808  95.563  74.210  1.00  0.00     0.005 C 
BRANCH  18  19
ATOM     19  C   UNL     1      94.586  94.919  75.606  1.00  0.00     0.027 C 
BRANCH  19  20
ATOM     20  C   UNL     1      93.203  94.512  75.807  1.00  0.00    -0.031 C 
ATOM     21  C   UNL     1      92.724  94.006  76.958  1.00  0.00    -0.028 C 
BRANCH  21  22
ATOM     22  C   UNL     1      91.325  93.621  77.144  1.00  0.00     0.005 C 
ATOM     23  C   UNL     1      90.345  94.775  76.793  1.00  0.00     0.012 C 
ATOM     24  C   UNL     1      91.004  92.351  76.315  1.00  0.00     0.012 C 
ENDBRANCH  21  22
ENDBRANCH  19  20
ENDBRANCH  18  19
ENDBRANCH  17  18
ENDBRANCH   1  17
TORSDOF 10
ENDMDL
MODEL 4
REMARK VINA RESULT:    -5.824     12.749     15.259
REMARK INTER + INTRA:         -10.417
REMARK INTER:                  -9.922
REMARK INTRA:                  -0.495
REMARK UNBOUND:                -1.358
REMARK SMILES COc1cc(CNC(=O)CCCC/C=C/C(C)C)ccc1O
REMARK SMILES IDX 10 1 8 2 7 3 9 5 6 6 5 7 3 8 21 9 4 10 20 11 19 12 2 13 1 14
REMARK SMILES IDX 22 15 11 17 12 18 13 19 14 20 15 21 16 22 17 23 18 24
REMARK H PARENT 7 4 22 16
REMARK Flexibility Score: inf
ROOT
ATOM      1  C   UNL     1      96.469  81.908  82.615  1.00  0.00     0.100 C 
ENDROOT
BRANCH   1   2
ATOM      2  C   UNL     1      96.992  81.249  81.403  1.00  0.00     0.220 C 
ATOM      3  N   UNL     1      97.639  81.972  80.447  1.00  0.00    -0.352 N 
ATOM      4  H   UNL     1      97.700  82.964  80.631  1.00  0.00     0.163 HD
ATOM      5  O   UNL     1      96.844  80.007  81.293  1.00  0.00    -0.275 OA
BRANCH   3   6
ATOM      6  C   UNL     1      98.209  81.426  79.257  1.00  0.00     0.151 C 
BRANCH   6   7
ATOM      7  C   UNL     1      97.543  81.961  78.037  1.00  0.00    -0.025 A 
ATOM      8  C   UNL     1      97.607  82.479  75.631  1.00  0.00     0.160 A 
ATOM      9  C   UNL     1      96.283  82.958  75.698  1.00  0.00     0.157 A 
ATOM     10  C   UNL     1      98.225  81.987  76.800  1.00  0.00     0.056 A 
ATOM     11  C   UNL     1      95.597  82.956  76.929  1.00  0.00     0.050 A 
ATOM     12  C   UNL     1      96.218  82.452  78.088  1.00  0.00     0.009 A 
BRANCH   8  13
ATOM     13  O   UNL     1      98.302  82.540  74.450  1.00  0.00    -0.493 OA
ATOM     14  C   UNL     1      99.732  82.545  74.609  1.00  0.00     0.278 C 
ENDBRANCH   8  13
BRANCH   9  15
ATOM     15  O   UNL     1      95.654  83.426  74.589  1.00  0.00    -0.504 OA
ATOM     16  H   UNL     1      96.112  84.205  74.265  1.00  0.00     0.293 HD
ENDBRANCH   9  15
ENDBRANCH   6   7
ENDBRANCH   3   6
ENDBRANCH   1   2
BRANCH   1  17
ATOM     17  C   UNL     1      95.546  80.961  83.428  1.00  0.00     0.010 C 
BRANCH  17  18
ATOM     18  C   UNL     1      94.801  81.688  84.583  1.00  0.00     0.005 C 
BRANCH  18  19
ATOM     19  C   UNL     1      93.296  81.312  84.644  1.00  0.00     0.027 C 
BRANCH  19  20
ATOM     20  C   UNL     1      92.638  81.875  85.814  1.00  0.00    -0.031 C 
ATOM     21  C   UNL     1      91.569  81.324  86.419  1.00  0.00    -0.028 C 
BRANCH  21  22
ATOM     22  C   UNL     1      90.936  81.897  87.606  1.00  0.00     0.005 C 
ATOM     23  C   UNL     1      90.965  83.451  87.598  1.00  0.00     0.012 C 
ATOM     24  C   UNL     1      89.484  81.372  87.745  1.00  0.00     0.012 C 
ENDBRANCH  21  22
ENDBRANCH  19  20
ENDBRANCH  18  19
ENDBRANCH  17  18
ENDBRANCH   1  17
TORSDOF 10
ENDMDL
MODEL 5
REMARK VINA RESULT:    -5.427      9.525     13.634
REMARK INTER + INTRA:          -9.799
REMARK INTER:                  -8.951
REMARK INTRA:                  -0.848
REMARK UNBOUND:                -1.358
REMARK SMILES COc1cc(CNC(=O)CCCC/C=C/C(C)C)ccc1O
REMARK SMILES IDX 10 1 8 2 7 3 9 5 6 6 5 7 3 8 21 9 4 10 20 11 19 12 2 13 1 14
REMARK SMILES IDX 22 15 11 17 12 18 13 19 14 20 15 21 16 22 17 23 18 24
REMARK H PARENT 7 4 22 16
REMARK Flexibility Score: inf
ROOT
ATOM      1  C   UNL     1      89.938  98.088  70.057  1.00  0.00     0.100 C 
ENDROOT
BRANCH   1   2
ATOM      2  C   UNL     1      89.541  98.191  68.640  1.00  0.00     0.220 C 
ATOM      3  N   UNL     1      88.607  99.102  68.248  1.00  0.00    -0.352 N 
ATOM      4  H   UNL     1      88.213  99.657  68.996  1.00  0.00     0.163 HD
ATOM      5  O   UNL     1      90.104  97.437  67.811  1.00  0.00    -0.275 OA
BRANCH   3   6
ATOM      6  C   UNL     1      88.178  99.303  66.901  1.00  0.00     0.151 C 
BRANCH   6   7
ATOM      7  C   UNL     1      87.869 100.734  66.633  1.00  0.00    -0.025 A 
ATOM      8  C   UNL     1      88.614 103.073  66.439  1.00  0.00     0.160 A 
ATOM      9  C   UNL     1      87.300 103.464  66.107  1.00  0.00     0.157 A 
ATOM     10  C   UNL     1      88.885 101.713  66.701  1.00  0.00     0.056 A 
ATOM     11  C   UNL     1      86.273 102.502  66.055  1.00  0.00     0.050 A 
ATOM     12  C   UNL     1      86.555 101.145  66.306  1.00  0.00     0.009 A 
BRANCH   8  13
ATOM     13  O   UNL     1      89.604 104.015  66.555  1.00  0.00    -0.493 OA
ATOM     14  C   UNL     1      90.701 103.829  65.643  1.00  0.00     0.278 C 
ENDBRANCH   8  13
BRANCH   9  15
ATOM     15  O   UNL     1      87.008 104.763  65.836  1.00  0.00    -0.504 OA
ATOM     16  H   UNL     1      87.568 105.075  65.121  1.00  0.00     0.293 HD
ENDBRANCH   9  15
ENDBRANCH   6   7
ENDBRANCH   3   6
ENDBRANCH   1   2
BRANCH   1  17
ATOM     17  C   UNL     1      90.147  99.487  70.697  1.00  0.00     0.010 C 
BRANCH  17  18
ATOM     18  C   UNL     1      91.578  99.682  71.272  1.00  0.00     0.005 C 
BRANCH  18  19
ATOM     19  C   UNL     1      92.593 100.137  70.189  1.00  0.00     0.027 C 
BRANCH  19  20
ATOM     20  C   UNL     1      93.807  99.334  70.205  1.00  0.00    -0.031 C 
ATOM     21  C   UNL     1      94.434  98.935  71.326  1.00  0.00    -0.028 C 
BRANCH  21  22
ATOM     22  C   UNL     1      95.643  98.112  71.319  1.00  0.00     0.005 C 
ATOM     23  C   UNL     1      95.831  97.352  69.977  1.00  0.00     0.012 C 
ATOM     24  C   UNL     1      96.886  98.982  71.640  1.00  0.00     0.012 C 
ENDBRANCH  21  22
ENDBRANCH  19  20
ENDBRANCH  18  19
ENDBRANCH  17  18
ENDBRANCH   1  17
TORSDOF 10
ENDMDL
MODEL 6
REMARK VINA RESULT:    -5.314     23.396     27.161
REMARK INTER + INTRA:          -9.623
REMARK INTER:                  -8.737
REMARK INTRA:                  -0.886
REMARK UNBOUND:                -1.358
REMARK SMILES COc1cc(CNC(=O)CCCC/C=C/C(C)C)ccc1O
REMARK SMILES IDX 10 1 8 2 7 3 9 5 6 6 5 7 3 8 21 9 4 10 20 11 19 12 2 13 1 14
REMARK SMILES IDX 22 15 11 17 12 18 13 19 14 20 15 21 16 22 17 23 18 24
REMARK H PARENT 7 4 22 16
REMARK Flexibility Score: inf
ROOT
ATOM      1  C   UNL     1      70.662  81.962  65.623  1.00  0.00     0.100 C 
ENDROOT
BRANCH   1   2
ATOM      2  C   UNL     1      72.031  81.746  65.116  1.00  0.00     0.220 C 
ATOM      3  N   UNL     1      73.084  82.415  65.664  1.00  0.00    -0.352 N 
ATOM      4  H   UNL     1      72.841  83.063  66.401  1.00  0.00     0.163 HD
ATOM      5  O   UNL     1      72.195  80.917  64.189  1.00  0.00    -0.275 OA
BRANCH   3   6
ATOM      6  C   UNL     1      74.446  82.254  65.268  1.00  0.00     0.151 C 
BRANCH   6   7
ATOM      7  C   UNL     1      75.345  83.174  66.018  1.00  0.00    -0.025 A 
ATOM      8  C   UNL     1      75.683  84.828  67.810  1.00  0.00     0.160 A 
ATOM      9  C   UNL     1      77.049  84.919  67.470  1.00  0.00     0.157 A 
ATOM     10  C   UNL     1      74.845  83.960  67.080  1.00  0.00     0.056 A 
ATOM     11  C   UNL     1      77.558  84.157  66.400  1.00  0.00     0.050 A 
ATOM     12  C   UNL     1      76.716  83.283  65.685  1.00  0.00     0.009 A 
BRANCH   8  13
ATOM     13  O   UNL     1      75.169  85.617  68.807  1.00  0.00    -0.493 OA
ATOM     14  C   UNL     1      74.894  84.911  70.031  1.00  0.00     0.278 C 
ENDBRANCH   8  13
BRANCH   9  15
ATOM     15  O   UNL     1      77.886  85.736  68.161  1.00  0.00    -0.504 OA
ATOM     16  H   UNL     1      77.384  86.459  68.544  1.00  0.00     0.293 HD
ENDBRANCH   9  15
ENDBRANCH   6   7
ENDBRANCH   3   6
ENDBRANCH   1   2
BRANCH   1  17
ATOM     17  C   UNL     1      70.230  83.447  65.493  1.00  0.00     0.010 C 
BRANCH  17  18
ATOM     18  C   UNL     1      69.670  84.033  66.820  1.00  0.00     0.005 C 
BRANCH  18  19
ATOM     19  C   UNL     1      70.708  84.918  67.560  1.00  0.00     0.027 C 
BRANCH  19  20
ATOM     20  C   UNL     1      70.119  85.629  68.684  1.00  0.00    -0.031 C 
ATOM     21  C   UNL     1      69.476  85.032  69.704  1.00  0.00    -0.028 C 
BRANCH  21  22
ATOM     22  C   UNL     1      68.907  85.766  70.834  1.00  0.00     0.005 C 
ATOM     23  C   UNL     1      68.641  87.258  70.494  1.00  0.00     0.012 C 
ATOM     24  C   UNL     1      67.611  85.071  71.328  1.00  0.00     0.012 C 
ENDBRANCH  21  22
ENDBRANCH  19  20
ENDBRANCH  18  19
ENDBRANCH  17  18
ENDBRANCH   1  17
TORSDOF 10
ENDMDL
MODEL 7
REMARK VINA RESULT:    -5.284     13.501     16.219
REMARK INTER + INTRA:          -9.576
REMARK INTER:                  -8.977
REMARK INTRA:                  -0.599
REMARK UNBOUND:                -1.358
REMARK SMILES COc1cc(CNC(=O)CCCC/C=C/C(C)C)ccc1O
REMARK SMILES IDX 10 1 8 2 7 3 9 5 6 6 5 7 3 8 21 9 4 10 20 11 19 12 2 13 1 14
REMARK SMILES IDX 22 15 11 17 12 18 13 19 14 20 15 21 16 22 17 23 18 24
REMARK H PARENT 7 4 22 16
REMARK Flexibility Score: inf
ROOT
ATOM      1  C   UNL     1      93.347  84.619  86.989  1.00  0.00     0.100 C 
ENDROOT
BRANCH   1   2
ATOM      2  C   UNL     1      92.958  83.229  86.686  1.00  0.00     0.220 C 
ATOM      3  N   UNL     1      92.372  82.918  85.496  1.00  0.00    -0.352 N 
ATOM      4  H   UNL     1      92.214  83.705  84.880  1.00  0.00     0.163 HD
ATOM      5  O   UNL     1      93.206  82.345  87.541  1.00  0.00    -0.275 OA
BRANCH   3   6
ATOM      6  C   UNL     1      91.988  81.603  85.094  1.00  0.00     0.151 C 
BRANCH   6   7
ATOM      7  C   UNL     1      90.535  81.366  85.312  1.00  0.00    -0.025 A 
ATOM      8  C   UNL     1      88.226  81.369  84.457  1.00  0.00     0.160 A 
ATOM      9  C   UNL     1      87.763  80.901  85.704  1.00  0.00     0.157 A 
ATOM     10  C   UNL     1      89.606  81.599  84.274  1.00  0.00     0.056 A 
ATOM     11  C   UNL     1      88.676  80.683  86.755  1.00  0.00     0.050 A 
ATOM     12  C   UNL     1      90.053  80.904  86.559  1.00  0.00     0.009 A 
BRANCH   8  13
ATOM     13  O   UNL     1      87.334  81.646  83.452  1.00  0.00    -0.493 OA
ATOM     14  C   UNL     1      86.785  82.976  83.505  1.00  0.00     0.278 C 
ENDBRANCH   8  13
BRANCH   9  15
ATOM     15  O   UNL     1      86.443  80.657  85.910  1.00  0.00    -0.504 OA
ATOM     16  H   UNL     1      86.329  80.187  86.739  1.00  0.00     0.293 HD
ENDBRANCH   9  15
ENDBRANCH   6   7
ENDBRANCH   3   6
ENDBRANCH   1   2
BRANCH   1  17
ATOM     17  C   UNL     1      94.805  84.916  86.546  1.00  0.00     0.010 C 
BRANCH  17  18
ATOM     18  C   UNL     1      95.671  85.523  87.686  1.00  0.00     0.005 C 
BRANCH  18  19
ATOM     19  C   UNL     1      95.972  87.029  87.461  1.00  0.00     0.027 C 
BRANCH  19  20
ATOM     20  C   UNL     1      95.355  87.868  88.477  1.00  0.00    -0.031 C 
ATOM     21  C   UNL     1      95.246  89.206  88.389  1.00  0.00    -0.028 C 
BRANCH  21  22
ATOM     22  C   UNL     1      94.604  90.028  89.415  1.00  0.00     0.005 C 
ATOM     23  C   UNL     1      94.629  89.351  90.813  1.00  0.00     0.012 C 
ATOM     24  C   UNL     1      95.262  91.431  89.467  1.00  0.00     0.012 C 
ENDBRANCH  21  22
ENDBRANCH  19  20
ENDBRANCH  18  19
ENDBRANCH  17  18
ENDBRANCH   1  17
TORSDOF 10
ENDMDL
MODEL 8
REMARK VINA RESULT:    -5.208     10.093     14.059
REMARK INTER + INTRA:          -9.459
REMARK INTER:                  -7.859
REMARK INTRA:                  -1.600
REMARK UNBOUND:                -1.358
REMARK SMILES COc1cc(CNC(=O)CCCC/C=C/C(C)C)ccc1O
REMARK SMILES IDX 10 1 8 2 7 3 9 5 6 6 5 7 3 8 21 9 4 10 20 11 19 12 2 13 1 14
REMARK SMILES IDX 22 15 11 17 12 18 13 19 14 20 15 21 16 22 17 23 18 24
REMARK H PARENT 7 4 22 16
REMARK Flexibility Score: inf
ROOT
ATOM      1  C   UNL     1      90.393  98.716  70.166  1.00  0.00     0.100 C 
ENDROOT
BRANCH   1   2
ATOM      2  C   UNL     1      91.486  99.667  69.885  1.00  0.00     0.220 C 
ATOM      3  N   UNL     1      91.234 100.838  69.235  1.00  0.00    -0.352 N 
ATOM      4  H   UNL     1      90.272 100.972  68.956  1.00  0.00     0.163 HD
ATOM      5  O   UNL     1      92.641  99.376  70.281  1.00  0.00    -0.275 OA
BRANCH   3   6
ATOM      6  C   UNL     1      92.212 101.837  68.944  1.00  0.00     0.151 C 
BRANCH   6   7
ATOM      7  C   UNL     1      92.223 102.186  67.498  1.00  0.00    -0.025 A 
ATOM      8  C   UNL     1      92.512 103.859  65.714  1.00  0.00     0.160 A 
ATOM      9  C   UNL     1      92.266 102.867  64.743  1.00  0.00     0.157 A 
ATOM     10  C   UNL     1      92.486 103.511  67.081  1.00  0.00     0.056 A 
ATOM     11  C   UNL     1      91.984 101.546  65.144  1.00  0.00     0.050 A 
ATOM     12  C   UNL     1      91.971 101.205  66.511  1.00  0.00     0.009 A 
BRANCH   8  13
ATOM     13  O   UNL     1      92.722 105.159  65.331  1.00  0.00    -0.493 OA
ATOM     14  C   UNL     1      94.085 105.600  65.475  1.00  0.00     0.278 C 
ENDBRANCH   8  13
BRANCH   9  15
ATOM     15  O   UNL     1      92.297 103.166  63.418  1.00  0.00    -0.504 OA
ATOM     16  H   UNL     1      91.948 102.427  62.914  1.00  0.00     0.293 HD
ENDBRANCH   9  15
ENDBRANCH   6   7
ENDBRANCH   3   6
ENDBRANCH   1   2
BRANCH   1  17
ATOM     17  C   UNL     1      89.202  98.908  69.189  1.00  0.00     0.010 C 
BRANCH  17  18
ATOM     18  C   UNL     1      89.189  97.861  68.039  1.00  0.00     0.005 C 
BRANCH  18  19
ATOM     19  C   UNL     1      89.106  98.525  66.638  1.00  0.00     0.027 C 
BRANCH  19  20
ATOM     20  C   UNL     1      88.805  99.946  66.722  1.00  0.00    -0.031 C 
ATOM     21  C   UNL     1      87.569 100.465  66.603  1.00  0.00    -0.028 C 
BRANCH  21  22
ATOM     22  C   UNL     1      87.287 101.896  66.710  1.00  0.00     0.005 C 
ATOM     23  C   UNL     1      88.495 102.770  66.274  1.00  0.00     0.012 C 
ATOM     24  C   UNL     1      86.020 102.255  65.891  1.00  0.00     0.012 C 
ENDBRANCH  21  22
ENDBRANCH  19  20
ENDBRANCH  18  19
ENDBRANCH  17  18
ENDBRANCH   1  17
TORSDOF 10
ENDMDL
MODEL 9
REMARK VINA RESULT:    -5.142      3.964      7.319
REMARK INTER + INTRA:          -9.357
REMARK INTER:                  -8.741
REMARK INTRA:                  -0.615
REMARK UNBOUND:                -1.358
REMARK SMILES COc1cc(CNC(=O)CCCC/C=C/C(C)C)ccc1O
REMARK SMILES IDX 10 1 8 2 7 3 9 5 6 6 5 7 3 8 21 9 4 10 20 11 19 12 2 13 1 14
REMARK SMILES IDX 22 15 11 17 12 18 13 19 14 20 15 21 16 22 17 23 18 24
REMARK H PARENT 7 4 22 16
REMARK Flexibility Score: inf
ROOT
ATOM      1  C   UNL     1      97.011  96.751  80.703  1.00  0.00     0.100 C 
ENDROOT
BRANCH   1   2
ATOM      2  C   UNL     1      96.295  95.478  80.494  1.00  0.00     0.220 C 
ATOM      3  N   UNL     1      96.415  94.803  79.317  1.00  0.00    -0.352 N 
ATOM      4  H   UNL     1      96.997  95.252  78.624  1.00  0.00     0.163 HD
ATOM      5  O   UNL     1      95.596  95.030  81.435  1.00  0.00    -0.275 OA
BRANCH   3   6
ATOM      6  C   UNL     1      95.791  93.551  79.028  1.00  0.00     0.151 C 
BRANCH   6   7
ATOM      7  C   UNL     1      94.542  93.733  78.238  1.00  0.00    -0.025 A 
ATOM      8  C   UNL     1      93.397  94.588  76.233  1.00  0.00     0.160 A 
ATOM      9  C   UNL     1      92.175  94.071  76.710  1.00  0.00     0.157 A 
ATOM     10  C   UNL     1      94.567  94.417  77.002  1.00  0.00     0.056 A 
ATOM     11  C   UNL     1      92.130  93.404  77.950  1.00  0.00     0.050 A 
ATOM     12  C   UNL     1      93.306  93.227  78.705  1.00  0.00     0.009 A 
BRANCH   8  13
ATOM     13  O   UNL     1      93.433  95.296  75.059  1.00  0.00    -0.493 OA
ATOM     14  C   UNL     1      94.760  95.511  74.544  1.00  0.00     0.278 C 
ENDBRANCH   8  13
BRANCH   9  15
ATOM     15  O   UNL     1      91.032  94.207  75.989  1.00  0.00    -0.504 OA
ATOM     16  H   UNL     1      91.193  94.788  75.241  1.00  0.00     0.293 HD
ENDBRANCH   9  15
ENDBRANCH   6   7
ENDBRANCH   3   6
ENDBRANCH   1   2
BRANCH   1  17
ATOM     17  C   UNL     1      96.299  97.643  81.755  1.00  0.00     0.010 C 
BRANCH  17  18
ATOM     18  C   UNL     1      96.386  99.159  81.422  1.00  0.00     0.005 C 
BRANCH  18  19
ATOM     19  C   UNL     1      95.887 100.051  82.591  1.00  0.00     0.027 C 
BRANCH  19  20
ATOM     20  C   UNL     1      95.168 101.224  82.117  1.00  0.00    -0.031 C 
ATOM     21  C   UNL     1      93.872 101.474  82.379  1.00  0.00    -0.028 C 
BRANCH  21  22
ATOM     22  C   UNL     1      93.175 102.670  81.908  1.00  0.00     0.005 C 
ATOM     23  C   UNL     1      92.586 103.507  83.077  1.00  0.00     0.012 C 
ATOM     24  C   UNL     1      94.121 103.532  81.032  1.00  0.00     0.012 C 
ENDBRANCH  21  22
ENDBRANCH  19  20
ENDBRANCH  18  19
ENDBRANCH  17  18
ENDBRANCH   1  17
TORSDOF 10
ENDMDL
MODEL 10
REMARK VINA RESULT:    -5.040      6.959     10.617
REMARK INTER + INTRA:          -9.198
REMARK INTER:                  -8.343
REMARK INTRA:                  -0.855
REMARK UNBOUND:                -1.358
REMARK SMILES COc1cc(CNC(=O)CCCC/C=C/C(C)C)ccc1O
REMARK SMILES IDX 10 1 8 2 7 3 9 5 6 6 5 7 3 8 21 9 4 10 20 11 19 12 2 13 1 14
REMARK SMILES IDX 22 15 11 17 12 18 13 19 14 20 15 21 16 22 17 23 18 24
REMARK H PARENT 7 4 22 16
REMARK Flexibility Score: inf
ROOT
ATOM      1  C   UNL     1      94.101 101.646  71.143  1.00  0.00     0.100 C 
ENDROOT
BRANCH   1   2
ATOM      2  C   UNL     1      92.695 101.729  70.703  1.00  0.00     0.220 C 
ATOM      3  N   UNL     1      91.701 101.185  71.460  1.00  0.00    -0.352 N 
ATOM      4  H   UNL     1      92.011 100.719  72.301  1.00  0.00     0.163 HD
ATOM      5  O   UNL     1      92.444 102.331  69.631  1.00  0.00    -0.275 OA
BRANCH   3   6
ATOM      6  C   UNL     1      90.310 101.239  71.140  1.00  0.00     0.151 C 
BRANCH   6   7
ATOM      7  C   UNL     1      89.931 100.177  70.168  1.00  0.00    -0.025 A 
ATOM      8  C   UNL     1      89.096  99.525  67.946  1.00  0.00     0.160 A 
ATOM      9  C   UNL     1      89.222  98.165  68.297  1.00  0.00     0.157 A 
ATOM     10  C   UNL     1      89.449 100.517  68.884  1.00  0.00     0.056 A 
ATOM     11  C   UNL     1      89.683  97.811  69.580  1.00  0.00     0.050 A 
ATOM     12  C   UNL     1      90.044  98.809  70.507  1.00  0.00     0.009 A 
BRANCH   8  13
ATOM     13  O   UNL     1      88.586  99.875  66.721  1.00  0.00    -0.493 OA
ATOM     14  C   UNL     1      87.162 100.083  66.717  1.00  0.00     0.278 C 
ENDBRANCH   8  13
BRANCH   9  15
ATOM     15  O   UNL     1      88.904  97.185  67.412  1.00  0.00    -0.504 OA
ATOM     16  H   UNL     1      88.020  97.336  67.070  1.00  0.00     0.293 HD
ENDBRANCH   9  15
ENDBRANCH   6   7
ENDBRANCH   3   6
ENDBRANCH   1   2
BRANCH   1  17
ATOM     17  C   UNL     1      94.889 100.573  70.343  1.00  0.00     0.010 C 
BRANCH  17  18
ATOM     18  C   UNL     1      94.460  99.121  70.695  1.00  0.00     0.005 C 
BRANCH  18  19
ATOM     19  C   UNL     1      95.606  98.312  71.361  1.00  0.00     0.027 C 
BRANCH  19  20
ATOM     20  C   UNL     1      95.226  97.800  72.669  1.00  0.00    -0.031 C 
ATOM     21  C   UNL     1      95.569  96.585  73.135  1.00  0.00    -0.028 C 
BRANCH  21  22
ATOM     22  C   UNL     1      95.192  96.098  74.462  1.00  0.00     0.005 C 
ATOM     23  C   UNL     1      96.051  96.736  75.589  1.00  0.00     0.012 C 
ATOM     24  C   UNL     1      93.681  96.342  74.713  1.00  0.00     0.012 C 
ENDBRANCH  21  22
ENDBRANCH  19  20
ENDBRANCH  18  19
ENDBRANCH  17  18
ENDBRANCH   1  17
TORSDOF 10
ENDMDL
