MODEL 1
REMARK VINA RESULT:    -7.196      0.000      0.000
REMARK INTER + INTRA:          -8.857
REMARK INTER:                  -8.458
REMARK INTRA:                  -0.399
REMARK UNBOUND:                -0.399
REMARK SMILES O=C(/C=C/C=C/c1ccc2c(c1)OCO2)N1CCCCC1
REMARK SMILES IDX 3 1 4 2 2 3 1 4 16 5 17 6 21 7 18 8 20 9 19 10 5 11 6 12
REMARK SMILES IDX 7 13 12 14 8 15 11 16 9 17 13 18 10 19 14 20 15 21
REMARK H PARENT
REMARK Flexibility Score: inf
ROOT
ATOM      1  C   UNL     1      99.050  82.818  81.067  1.00  0.00     0.071 C 
ATOM      2  C   UNL     1      99.104  82.008  82.122  1.00  0.00     0.006 C 
ENDROOT
BRANCH   1   3
ATOM      3  C   UNL     1      99.854  82.467  79.879  1.00  0.00     0.246 C 
ATOM      4  O   UNL     1     100.845  81.756  80.053  1.00  0.00    -0.270 OA
ATOM      5  N   UNL     1      99.443  82.966  78.645  1.00  0.00    -0.339 N 
ATOM      6  C   UNL     1     100.225  82.638  77.449  1.00  0.00     0.120 C 
ATOM      7  C   UNL     1      98.294  83.852  78.405  1.00  0.00     0.120 C 
ATOM      8  C   UNL     1      99.344  82.050  76.351  1.00  0.00     0.022 C 
ATOM      9  C   UNL     1      97.388  83.298  77.306  1.00  0.00     0.022 C 
ATOM     10  C   UNL     1      98.172  82.974  76.037  1.00  0.00     0.004 C 
ENDBRANCH   1   3
BRANCH   2  11
ATOM     11  C   UNL     1      98.352  82.269  83.331  1.00  0.00     0.001 C 
ATOM     12  C   UNL     1      97.738  83.440  83.567  1.00  0.00     0.008 C 
BRANCH  12  13
ATOM     13  C   UNL     1      96.968  83.760  84.780  1.00  0.00    -0.022 A 
ATOM     14  C   UNL     1      96.854  85.086  85.178  1.00  0.00     0.058 A 
ATOM     15  C   UNL     1      96.373  82.721  85.500  1.00  0.00     0.012 A 
ATOM     16  C   UNL     1      96.123  85.336  86.321  1.00  0.00     0.166 A 
ATOM     17  C   UNL     1      95.638  83.003  86.653  1.00  0.00     0.051 A 
ATOM     18  O   UNL     1      95.897  86.560  86.872  1.00  0.00    -0.454 OA
ATOM     19  C   UNL     1      95.531  84.323  87.039  1.00  0.00     0.165 A 
ATOM     20  C   UNL     1      95.097  86.203  88.017  1.00  0.00     0.468 C 
ATOM     21  O   UNL     1      94.860  84.785  88.130  1.00  0.00    -0.454 OA
ENDBRANCH  12  13
ENDBRANCH   2  11
TORSDOF 3
ENDMDL
MODEL 2
REMARK VINA RESULT:    -7.095     23.945     26.131
REMARK INTER + INTRA:          -8.738
REMARK INTER:                  -8.324
REMARK INTRA:                  -0.415
REMARK UNBOUND:                -0.399
REMARK SMILES O=C(/C=C/C=C/c1ccc2c(c1)OCO2)N1CCCCC1
REMARK SMILES IDX 3 1 4 2 2 3 1 4 16 5 17 6 21 7 18 8 20 9 19 10 5 11 6 12
REMARK SMILES IDX 7 13 12 14 8 15 11 16 9 17 13 18 10 19 14 20 15 21
REMARK H PARENT
REMARK Flexibility Score: inf
ROOT
ATOM      1  C   UNL     1      75.908  91.699  71.410  1.00  0.00     0.071 C 
ATOM      2  C   UNL     1      74.841  90.903  71.361  1.00  0.00     0.006 C 
ENDROOT
BRANCH   1   3
ATOM      3  C   UNL     1      75.708  93.102  71.825  1.00  0.00     0.246 C 
ATOM      4  O   UNL     1      74.799  93.732  71.282  1.00  0.00    -0.270 OA
ATOM      5  N   UNL     1      76.563  93.620  72.796  1.00  0.00    -0.339 N 
ATOM      6  C   UNL     1      76.393  95.012  73.224  1.00  0.00     0.120 C 
ATOM      7  C   UNL     1      77.685  92.914  73.432  1.00  0.00     0.120 C 
ATOM      8  C   UNL     1      76.272  95.118  74.740  1.00  0.00     0.022 C 
ATOM      9  C   UNL     1      77.601  93.001  74.956  1.00  0.00     0.022 C 
ATOM     10  C   UNL     1      77.452  94.443  75.432  1.00  0.00     0.004 C 
ENDBRANCH   1   3
BRANCH   2  11
ATOM     11  C   UNL     1      74.936  89.513  70.967  1.00  0.00     0.001 C 
ATOM     12  C   UNL     1      76.059  88.977  70.462  1.00  0.00     0.008 C 
BRANCH  12  13
ATOM     13  C   UNL     1      76.208  87.574  70.038  1.00  0.00    -0.022 A 
ATOM     14  C   UNL     1      77.352  87.194  69.350  1.00  0.00     0.058 A 
ATOM     15  C   UNL     1      75.191  86.664  70.339  1.00  0.00     0.012 A 
ATOM     16  C   UNL     1      77.446  85.870  68.975  1.00  0.00     0.166 A 
ATOM     17  C   UNL     1      75.312  85.329  69.946  1.00  0.00     0.051 A 
ATOM     18  O   UNL     1      78.482  85.304  68.296  1.00  0.00    -0.454 OA
ATOM     19  C   UNL     1      76.453  84.962  69.264  1.00  0.00     0.165 A 
ATOM     20  C   UNL     1      78.029  83.939  68.192  1.00  0.00     0.468 C 
ATOM     21  O   UNL     1      76.743  83.714  68.804  1.00  0.00    -0.454 OA
ENDBRANCH  12  13
ENDBRANCH   2  11
TORSDOF 3
ENDMDL
MODEL 3
REMARK VINA RESULT:    -7.048      2.784      8.660
REMARK INTER + INTRA:          -8.684
REMARK INTER:                  -8.503
REMARK INTRA:                  -0.181
REMARK UNBOUND:                -0.399
REMARK SMILES O=C(/C=C/C=C/c1ccc2c(c1)OCO2)N1CCCCC1
REMARK SMILES IDX 3 1 4 2 2 3 1 4 16 5 17 6 21 7 18 8 20 9 19 10 5 11 6 12
REMARK SMILES IDX 7 13 12 14 8 15 11 16 9 17 13 18 10 19 14 20 15 21
REMARK H PARENT
REMARK Flexibility Score: inf
ROOT
ATOM      1  C   UNL     1      98.552  83.043  85.229  1.00  0.00     0.071 C 
ATOM      2  C   UNL     1      97.938  82.273  84.333  1.00  0.00     0.006 C 
ENDROOT
BRANCH   1   3
ATOM      3  C   UNL     1      98.057  83.021  86.620  1.00  0.00     0.246 C 
ATOM      4  O   UNL     1      98.717  82.393  87.448  1.00  0.00    -0.270 OA
ATOM      5  N   UNL     1      96.876  83.706  86.900  1.00  0.00    -0.339 N 
ATOM      6  C   UNL     1      96.357  83.698  88.271  1.00  0.00     0.120 C 
ATOM      7  C   UNL     1      96.038  84.427  85.930  1.00  0.00     0.120 C 
ATOM      8  C   UNL     1      96.092  85.112  88.775  1.00  0.00     0.022 C 
ATOM      9  C   UNL     1      95.746  85.851  86.402  1.00  0.00     0.022 C 
ATOM     10  C   UNL     1      95.178  85.871  87.818  1.00  0.00     0.004 C 
ENDBRANCH   1   3
BRANCH   2  11
ATOM     11  C   UNL     1      98.350  82.227  82.946  1.00  0.00     0.001 C 
ATOM     12  C   UNL     1      98.013  83.175  82.056  1.00  0.00     0.008 C 
BRANCH  12  13
ATOM     13  C   UNL     1      98.398  83.174  80.635  1.00  0.00    -0.022 A 
ATOM     14  C   UNL     1      97.442  83.482  79.676  1.00  0.00     0.058 A 
ATOM     15  C   UNL     1      99.715  82.862  80.290  1.00  0.00     0.012 A 
ATOM     16  C   UNL     1      97.850  83.468  78.358  1.00  0.00     0.166 A 
ATOM     17  C   UNL     1     100.101  82.855  78.947  1.00  0.00     0.051 A 
ATOM     18  O   UNL     1      97.068  83.739  77.277  1.00  0.00    -0.454 OA
ATOM     19  C   UNL     1      99.144  83.163  78.003  1.00  0.00     0.165 A 
ATOM     20  C   UNL     1      98.015  83.570  76.203  1.00  0.00     0.468 C 
ATOM     21  O   UNL     1      99.335  83.205  76.656  1.00  0.00    -0.454 OA
ENDBRANCH  12  13
ENDBRANCH   2  11
TORSDOF 3
ENDMDL
MODEL 4
REMARK VINA RESULT:    -6.875     17.200     18.877
REMARK INTER + INTRA:          -8.480
REMARK INTER:                  -8.094
REMARK INTRA:                  -0.386
REMARK UNBOUND:                -0.399
REMARK SMILES O=C(/C=C/C=C/c1ccc2c(c1)OCO2)N1CCCCC1
REMARK SMILES IDX 3 1 4 2 2 3 1 4 16 5 17 6 21 7 18 8 20 9 19 10 5 11 6 12
REMARK SMILES IDX 7 13 12 14 8 15 11 16 9 17 13 18 10 19 14 20 15 21
REMARK H PARENT
REMARK Flexibility Score: inf
ROOT
ATOM      1  C   UNL     1      91.588  99.677  71.766  1.00  0.00     0.071 C 
ATOM      2  C   UNL     1      91.909 100.472  72.785  1.00  0.00     0.006 C 
ENDROOT
BRANCH   1   3
ATOM      3  C   UNL     1      90.654 100.196  70.747  1.00  0.00     0.246 C 
ATOM      4  O   UNL     1      90.717 101.396  70.477  1.00  0.00    -0.270 OA
ATOM      5  N   UNL     1      89.763  99.297  70.164  1.00  0.00    -0.339 N 
ATOM      6  C   UNL     1      88.821  99.785  69.152  1.00  0.00     0.120 C 
ATOM      7  C   UNL     1      89.629  97.870  70.492  1.00  0.00     0.120 C 
ATOM      8  C   UNL     1      88.896  98.956  67.875  1.00  0.00     0.022 C 
ATOM      9  C   UNL     1      89.696  97.004  69.234  1.00  0.00     0.022 C 
ATOM     10  C   UNL     1      88.704  97.472  68.173  1.00  0.00     0.004 C 
ENDBRANCH   1   3
BRANCH   2  11
ATOM     11  C   UNL     1      92.815 100.052  73.833  1.00  0.00     0.001 C 
ATOM     12  C   UNL     1      92.682  98.885  74.485  1.00  0.00     0.008 C 
BRANCH  12  13
ATOM     13  C   UNL     1      93.568  98.414  75.562  1.00  0.00    -0.022 A 
ATOM     14  C   UNL     1      93.345  97.163  76.121  1.00  0.00     0.058 A 
ATOM     15  C   UNL     1      94.611  99.239  75.991  1.00  0.00     0.012 A 
ATOM     16  C   UNL     1      94.202  96.765  77.127  1.00  0.00     0.166 A 
ATOM     17  C   UNL     1      95.463  98.810  77.011  1.00  0.00     0.051 A 
ATOM     18  O   UNL     1      94.149  95.582  77.799  1.00  0.00    -0.454 OA
ATOM     19  C   UNL     1      95.233  97.566  77.560  1.00  0.00     0.165 A 
ATOM     20  C   UNL     1      95.263  95.730  78.703  1.00  0.00     0.468 C 
ATOM     21  O   UNL     1      95.955  96.986  78.557  1.00  0.00    -0.454 OA
ENDBRANCH  12  13
ENDBRANCH   2  11
TORSDOF 3
ENDMDL
MODEL 5
REMARK VINA RESULT:    -6.874      2.105      2.803
REMARK INTER + INTRA:          -8.479
REMARK INTER:                  -8.108
REMARK INTRA:                  -0.371
REMARK UNBOUND:                -0.399
REMARK SMILES O=C(/C=C/C=C/c1ccc2c(c1)OCO2)N1CCCCC1
REMARK SMILES IDX 3 1 4 2 2 3 1 4 16 5 17 6 21 7 18 8 20 9 19 10 5 11 6 12
REMARK SMILES IDX 7 13 12 14 8 15 11 16 9 17 13 18 10 19 14 20 15 21
REMARK H PARENT
REMARK Flexibility Score: inf
ROOT
ATOM      1  C   UNL     1      98.123  82.565  79.293  1.00  0.00     0.071 C 
ATOM      2  C   UNL     1      98.263  83.405  80.317  1.00  0.00     0.006 C 
ENDROOT
BRANCH   1   3
ATOM      3  C   UNL     1      98.095  83.131  77.929  1.00  0.00     0.246 C 
ATOM      4  O   UNL     1      97.057  83.684  77.564  1.00  0.00    -0.270 OA
ATOM      5  N   UNL     1      99.241  82.998  77.147  1.00  0.00    -0.339 N 
ATOM      6  C   UNL     1      99.241  83.545  75.786  1.00  0.00     0.120 C 
ATOM      7  C   UNL     1     100.480  82.306  77.531  1.00  0.00     0.120 C 
ATOM      8  C   UNL     1     100.434  84.466  75.557  1.00  0.00     0.022 C 
ATOM      9  C   UNL     1     101.702  83.198  77.312  1.00  0.00     0.022 C 
ATOM     10  C   UNL     1     101.743  83.760  75.893  1.00  0.00     0.004 C 
ENDBRANCH   1   3
BRANCH   2  11
ATOM     11  C   UNL     1      98.301  82.945  81.689  1.00  0.00     0.001 C 
ATOM     12  C   UNL     1      97.658  83.577  82.685  1.00  0.00     0.008 C 
BRANCH  12  13
ATOM     13  C   UNL     1      97.670  83.158  84.096  1.00  0.00    -0.022 A 
ATOM     14  C   UNL     1      97.597  84.125  85.089  1.00  0.00     0.058 A 
ATOM     15  C   UNL     1      97.755  81.796  84.398  1.00  0.00     0.012 A 
ATOM     16  C   UNL     1      97.611  83.684  86.396  1.00  0.00     0.166 A 
ATOM     17  C   UNL     1      97.768  81.377  85.731  1.00  0.00     0.051 A 
ATOM     18  O   UNL     1      97.550  84.471  87.505  1.00  0.00    -0.454 OA
ATOM     19  C   UNL     1      97.694  82.347  86.709  1.00  0.00     0.165 A 
ATOM     20  C   UNL     1      97.603  83.479  88.550  1.00  0.00     0.468 C 
ATOM     21  O   UNL     1      97.695  82.129  88.052  1.00  0.00    -0.454 OA
ENDBRANCH  12  13
ENDBRANCH   2  11
TORSDOF 3
ENDMDL
MODEL 6
REMARK VINA RESULT:    -6.781      3.681      9.006
REMARK INTER + INTRA:          -8.369
REMARK INTER:                  -8.029
REMARK INTRA:                  -0.340
REMARK UNBOUND:                -0.399
REMARK SMILES O=C(/C=C/C=C/c1ccc2c(c1)OCO2)N1CCCCC1
REMARK SMILES IDX 3 1 4 2 2 3 1 4 16 5 17 6 21 7 18 8 20 9 19 10 5 11 6 12
REMARK SMILES IDX 7 13 12 14 8 15 11 16 9 17 13 18 10 19 14 20 15 21
REMARK H PARENT
REMARK Flexibility Score: inf
ROOT
ATOM      1  C   UNL     1      98.619  82.863  85.271  1.00  0.00     0.071 C 
ATOM      2  C   UNL     1      97.923  82.190  84.357  1.00  0.00     0.006 C 
ENDROOT
BRANCH   1   3
ATOM      3  C   UNL     1      98.139  82.839  86.667  1.00  0.00     0.246 C 
ATOM      4  O   UNL     1      96.976  82.485  86.863  1.00  0.00    -0.270 OA
ATOM      5  N   UNL     1      99.031  83.223  87.667  1.00  0.00    -0.339 N 
ATOM      6  C   UNL     1      98.581  83.215  89.063  1.00  0.00     0.120 C 
ATOM      7  C   UNL     1     100.410  83.694  87.468  1.00  0.00     0.120 C 
ATOM      8  C   UNL     1      99.529  82.414  89.949  1.00  0.00     0.022 C 
ATOM      9  C   UNL     1     101.392  82.917  88.344  1.00  0.00     0.022 C 
ATOM     10  C   UNL     1     100.963  82.916  89.809  1.00  0.00     0.004 C 
ENDBRANCH   1   3
BRANCH   2  11
ATOM     11  C   UNL     1      98.314  82.154  82.964  1.00  0.00     0.001 C 
ATOM     12  C   UNL     1      98.052  83.156  82.110  1.00  0.00     0.008 C 
BRANCH  12  13
ATOM     13  C   UNL     1      98.419  83.168  80.684  1.00  0.00    -0.022 A 
ATOM     14  C   UNL     1      97.453  83.491  79.740  1.00  0.00     0.058 A 
ATOM     15  C   UNL     1      99.731  82.854  80.319  1.00  0.00     0.012 A 
ATOM     16  C   UNL     1      97.845  83.489  78.417  1.00  0.00     0.166 A 
ATOM     17  C   UNL     1     100.100  82.859  78.972  1.00  0.00     0.051 A 
ATOM     18  O   UNL     1      97.051  83.775  77.349  1.00  0.00    -0.454 OA
ATOM     19  C   UNL     1      99.133  83.182  78.043  1.00  0.00     0.165 A 
ATOM     20  C   UNL     1      97.984  83.614  76.262  1.00  0.00     0.468 C 
ATOM     21  O   UNL     1      99.307  83.237  76.695  1.00  0.00    -0.454 OA
ENDBRANCH  12  13
ENDBRANCH   2  11
TORSDOF 3
ENDMDL
MODEL 7
REMARK VINA RESULT:    -6.632      2.942      8.706
REMARK INTER + INTRA:          -8.194
REMARK INTER:                  -7.849
REMARK INTRA:                  -0.345
REMARK UNBOUND:                -0.399
REMARK SMILES O=C(/C=C/C=C/c1ccc2c(c1)OCO2)N1CCCCC1
REMARK SMILES IDX 3 1 4 2 2 3 1 4 16 5 17 6 21 7 18 8 20 9 19 10 5 11 6 12
REMARK SMILES IDX 7 13 12 14 8 15 11 16 9 17 13 18 10 19 14 20 15 21
REMARK H PARENT
REMARK Flexibility Score: inf
ROOT
ATOM      1  C   UNL     1      97.868  81.237  84.156  1.00  0.00     0.071 C 
ATOM      2  C   UNL     1      98.815  81.931  83.528  1.00  0.00     0.006 C 
ENDROOT
BRANCH   1   3
ATOM      3  C   UNL     1      97.882  81.221  85.632  1.00  0.00     0.246 C 
ATOM      4  O   UNL     1      98.550  80.347  86.185  1.00  0.00    -0.270 OA
ATOM      5  N   UNL     1      97.136  82.191  86.299  1.00  0.00    -0.339 N 
ATOM      6  C   UNL     1      97.126  82.197  87.765  1.00  0.00     0.120 C 
ATOM      7  C   UNL     1      96.292  83.221  85.675  1.00  0.00     0.120 C 
ATOM      8  C   UNL     1      97.496  83.569  88.319  1.00  0.00     0.022 C 
ATOM      9  C   UNL     1      96.631  84.612  86.208  1.00  0.00     0.022 C 
ATOM     10  C   UNL     1      96.601  84.655  87.733  1.00  0.00     0.004 C 
ENDBRANCH   1   3
BRANCH   2  11
ATOM     11  C   UNL     1      98.885  82.006  82.084  1.00  0.00     0.001 C 
ATOM     12  C   UNL     1      98.466  83.077  81.391  1.00  0.00     0.008 C 
BRANCH  12  13
ATOM     13  C   UNL     1      98.506  83.203  79.924  1.00  0.00    -0.022 A 
ATOM     14  C   UNL     1      99.713  83.021  79.263  1.00  0.00     0.058 A 
ATOM     15  C   UNL     1      97.326  83.502  79.237  1.00  0.00     0.012 A 
ATOM     16  C   UNL     1      99.700  83.148  77.889  1.00  0.00     0.166 A 
ATOM     17  C   UNL     1      97.342  83.625  77.846  1.00  0.00     0.051 A 
ATOM     18  O   UNL     1     100.774  83.009  77.065  1.00  0.00    -0.454 OA
ATOM     19  C   UNL     1      98.546  83.442  77.199  1.00  0.00     0.165 A 
ATOM     20  C   UNL     1     100.166  83.248  75.779  1.00  0.00     0.468 C 
ATOM     21  O   UNL     1      98.753  83.524  75.857  1.00  0.00    -0.454 OA
ENDBRANCH  12  13
ENDBRANCH   2  11
TORSDOF 3
ENDMDL
MODEL 8
REMARK VINA RESULT:    -6.340      1.767      2.797
REMARK INTER + INTRA:          -7.851
REMARK INTER:                  -7.477
REMARK INTRA:                  -0.374
REMARK UNBOUND:                -0.399
REMARK SMILES O=C(/C=C/C=C/c1ccc2c(c1)OCO2)N1CCCCC1
REMARK SMILES IDX 3 1 4 2 2 3 1 4 16 5 17 6 21 7 18 8 20 9 19 10 5 11 6 12
REMARK SMILES IDX 7 13 12 14 8 15 11 16 9 17 13 18 10 19 14 20 15 21
REMARK H PARENT
REMARK Flexibility Score: inf
ROOT
ATOM      1  C   UNL     1      99.576  82.446  79.003  1.00  0.00     0.071 C 
ATOM      2  C   UNL     1      98.664  83.325  79.413  1.00  0.00     0.006 C 
ENDROOT
BRANCH   1   3
ATOM      3  C   UNL     1     100.204  82.661  77.684  1.00  0.00     0.246 C 
ATOM      4  O   UNL     1     101.045  83.556  77.594  1.00  0.00    -0.270 OA
ATOM      5  N   UNL     1      99.801  81.842  76.631  1.00  0.00    -0.339 N 
ATOM      6  C   UNL     1     100.403  82.036  75.308  1.00  0.00     0.120 C 
ATOM      7  C   UNL     1      98.770  80.795  76.690  1.00  0.00     0.120 C 
ATOM      8  C   UNL     1     100.966  80.730  74.756  1.00  0.00     0.022 C 
ATOM      9  C   UNL     1      99.296  79.469  76.140  1.00  0.00     0.022 C 
ATOM     10  C   UNL     1      99.904  79.636  74.751  1.00  0.00     0.004 C 
ENDBRANCH   1   3
BRANCH   2  11
ATOM     11  C   UNL     1      97.993  83.199  80.690  1.00  0.00     0.001 C 
ATOM     12  C   UNL     1      98.643  82.902  81.826  1.00  0.00     0.008 C 
BRANCH  12  13
ATOM     13  C   UNL     1      98.010  82.753  83.147  1.00  0.00    -0.022 A 
ATOM     14  C   UNL     1      97.384  83.850  83.724  1.00  0.00     0.058 A 
ATOM     15  C   UNL     1      98.057  81.511  83.785  1.00  0.00     0.012 A 
ATOM     16  C   UNL     1      96.805  83.662  84.962  1.00  0.00     0.166 A 
ATOM     17  C   UNL     1      97.462  81.349  85.039  1.00  0.00     0.051 A 
ATOM     18  O   UNL     1      96.149  84.608  85.688  1.00  0.00    -0.454 OA
ATOM     19  C   UNL     1      96.843  82.445  85.602  1.00  0.00     0.165 A 
ATOM     20  C   UNL     1      95.779  83.850  86.857  1.00  0.00     0.468 C 
ATOM     21  O   UNL     1      96.216  82.476  86.809  1.00  0.00    -0.454 OA
ENDBRANCH  12  13
ENDBRANCH   2  11
TORSDOF 3
ENDMDL
MODEL 9
REMARK VINA RESULT:    -6.205     24.872     26.964
REMARK INTER + INTRA:          -7.692
REMARK INTER:                  -7.318
REMARK INTRA:                  -0.374
REMARK UNBOUND:                -0.399
REMARK SMILES O=C(/C=C/C=C/c1ccc2c(c1)OCO2)N1CCCCC1
REMARK SMILES IDX 3 1 4 2 2 3 1 4 16 5 17 6 21 7 18 8 20 9 19 10 5 11 6 12
REMARK SMILES IDX 7 13 12 14 8 15 11 16 9 17 13 18 10 19 14 20 15 21
REMARK H PARENT
REMARK Flexibility Score: inf
ROOT
ATOM      1  C   UNL     1      75.285  91.842  70.493  1.00  0.00     0.071 C 
ATOM      2  C   UNL     1      74.905  90.833  71.274  1.00  0.00     0.006 C 
ENDROOT
BRANCH   1   3
ATOM      3  C   UNL     1      75.163  93.214  71.022  1.00  0.00     0.246 C 
ATOM      4  O   UNL     1      75.086  93.348  72.244  1.00  0.00    -0.270 OA
ATOM      5  N   UNL     1      75.138  94.265  70.106  1.00  0.00    -0.339 N 
ATOM      6  C   UNL     1      75.013  95.639  70.602  1.00  0.00     0.120 C 
ATOM      7  C   UNL     1      75.182  94.141  68.642  1.00  0.00     0.120 C 
ATOM      8  C   UNL     1      76.114  96.535  70.045  1.00  0.00     0.022 C 
ATOM      9  C   UNL     1      76.273  95.029  68.044  1.00  0.00     0.022 C 
ATOM     10  C   UNL     1      76.150  96.474  68.522  1.00  0.00     0.004 C 
ENDBRANCH   1   3
BRANCH   2  11
ATOM     11  C   UNL     1      74.986  89.453  70.843  1.00  0.00     0.001 C 
ATOM     12  C   UNL     1      76.130  88.889  70.424  1.00  0.00     0.008 C 
BRANCH  12  13
ATOM     13  C   UNL     1      76.267  87.495  69.968  1.00  0.00    -0.022 A 
ATOM     14  C   UNL     1      77.407  87.122  69.270  1.00  0.00     0.058 A 
ATOM     15  C   UNL     1      75.244  86.587  70.250  1.00  0.00     0.012 A 
ATOM     16  C   UNL     1      77.490  85.806  68.864  1.00  0.00     0.166 A 
ATOM     17  C   UNL     1      75.353  85.260  69.827  1.00  0.00     0.051 A 
ATOM     18  O   UNL     1      78.520  85.247  68.171  1.00  0.00    -0.454 OA
ATOM     19  C   UNL     1      76.490  84.899  69.135  1.00  0.00     0.165 A 
ATOM     20  C   UNL     1      78.057  83.888  68.037  1.00  0.00     0.468 C 
ATOM     21  O   UNL     1      76.769  83.660  68.646  1.00  0.00    -0.454 OA
ENDBRANCH  12  13
ENDBRANCH   2  11
TORSDOF 3
ENDMDL
MODEL 10
REMARK VINA RESULT:    -6.073     19.134     21.225
REMARK INTER + INTRA:          -7.537
REMARK INTER:                  -7.202
REMARK INTRA:                  -0.335
REMARK UNBOUND:                -0.399
REMARK SMILES O=C(/C=C/C=C/c1ccc2c(c1)OCO2)N1CCCCC1
REMARK SMILES IDX 3 1 4 2 2 3 1 4 16 5 17 6 21 7 18 8 20 9 19 10 5 11 6 12
REMARK SMILES IDX 7 13 12 14 8 15 11 16 9 17 13 18 10 19 14 20 15 21
REMARK H PARENT
REMARK Flexibility Score: inf
ROOT
ATOM      1  C   UNL     1      88.126  70.471  71.408  1.00  0.00     0.071 C 
ATOM      2  C   UNL     1      89.262  70.767  70.780  1.00  0.00     0.006 C 
ENDROOT
BRANCH   1   3
ATOM      3  C   UNL     1      88.207  69.707  72.669  1.00  0.00     0.246 C 
ATOM      4  O   UNL     1      89.036  70.073  73.503  1.00  0.00    -0.270 OA
ATOM      5  N   UNL     1      87.347  68.622  72.828  1.00  0.00    -0.339 N 
ATOM      6  C   UNL     1      87.409  67.841  74.067  1.00  0.00     0.120 C 
ATOM      7  C   UNL     1      86.378  68.128  71.838  1.00  0.00     0.120 C 
ATOM      8  C   UNL     1      86.034  67.714  74.715  1.00  0.00     0.022 C 
ATOM      9  C   UNL     1      84.986  67.984  72.451  1.00  0.00     0.022 C 
ATOM     10  C   UNL     1      85.016  67.150  73.729  1.00  0.00     0.004 C 
ENDBRANCH   1   3
BRANCH   2  11
ATOM     11  C   UNL     1      89.284  71.511  69.539  1.00  0.00     0.001 C 
ATOM     12  C   UNL     1      89.931  72.680  69.404  1.00  0.00     0.008 C 
BRANCH  12  13
ATOM     13  C   UNL     1      89.979  73.481  68.169  1.00  0.00    -0.022 A 
ATOM     14  C   UNL     1      91.208  73.924  67.699  1.00  0.00     0.058 A 
ATOM     15  C   UNL     1      88.786  73.773  67.504  1.00  0.00     0.012 A 
ATOM     16  C   UNL     1      91.201  74.671  66.538  1.00  0.00     0.166 A 
ATOM     17  C   UNL     1      88.808  74.531  66.331  1.00  0.00     0.051 A 
ATOM     18  O   UNL     1      92.296  75.195  65.920  1.00  0.00    -0.454 OA
ATOM     19  C   UNL     1      90.034  74.966  65.872  1.00  0.00     0.165 A 
ATOM     20  C   UNL     1      91.685  75.853  64.792  1.00  0.00     0.468 C 
ATOM     21  O   UNL     1      90.250  75.712  64.755  1.00  0.00    -0.454 OA
ENDBRANCH  12  13
ENDBRANCH   2  11
TORSDOF 3
ENDMDL
