MODEL 1
REMARK VINA RESULT:    -6.825      0.000      0.000
REMARK INTER + INTRA:         -12.253
REMARK INTER:                 -11.613
REMARK INTRA:                  -0.640
REMARK UNBOUND:                -0.640
REMARK SMILES C=C(C)[C@]12C[C@@H](C)[C@@]34O[C@](Cc5ccccc5)(O[C@@H]1[C@@H]3C=C(COC(=O)Cc1ccc(O)cc1)C[C@]1(O)C(=O)C(C)=C[C@@H]41)O2
REMARK SMILES IDX 23 1 22 2 21 3 20 4 9 5 8 6 10 7 6 8 18 10 44 11 19 12 5 13
REMARK SMILES IDX 7 14 4 15 11 16 12 17 13 18 17 19 14 20 16 21 15 22 2 23
REMARK SMILES IDX 3 24 1 25 35 26 36 27 43 28 38 29 42 30 39 32 40 33 41 34
REMARK SMILES IDX 37 35 24 37 25 38 26 39 27 40 28 41 29 42 34 43 30 44 33 45
REMARK SMILES IDX 31 46 32 47
REMARK H PARENT 37 36 32 48
REMARK Flexibility Score: 90.00
ROOT
ATOM      1  C   UNL     1      91.174  78.844  84.618  1.00  0.00     0.264 C 
ENDROOT
BRANCH   1   2
ATOM      2  C   UNL     1      92.040  77.637  84.335  1.00  0.00    -0.033 C 
ATOM      3  C   UNL     1      91.491  76.558  83.739  1.00  0.00    -0.015 C 
BRANCH   3   4
ATOM      4  C   UNL     1      92.117  75.210  83.419  1.00  0.00     0.078 C 
ATOM      5  O   UNL     1      92.974  75.345  81.103  1.00  0.00    -0.319 OA
ATOM      6  C   UNL     1      93.389  75.176  82.494  1.00  0.00     0.095 CG0
ATOM      7  C   UNL     1      91.801  74.604  80.717  1.00  0.00     0.289 C 
ATOM      8  C   UNL     1      94.071  73.757  82.668  1.00  0.00     0.023 C 
ATOM      9  G   UNL     1      94.310  76.399  82.775  1.00  0.00     0.000 G0
ATOM     10  O   UNL     1      90.684  74.937  81.536  1.00  0.00    -0.320 OA
ATOM     11  O   UNL     1      91.978  73.196  80.861  1.00  0.00    -0.313 OA
ATOM     12  C   UNL     1      91.066  74.285  82.758  1.00  0.00     0.170 C 
ATOM     13  C   UNL     1      93.013  72.642  82.930  1.00  0.00     0.049 C 
ATOM     14  C   UNL     1      94.996  73.322  81.518  1.00  0.00     0.011 C 
ATOM     15  C   UNL     1      91.679  72.957  82.252  1.00  0.00     0.122 C 
BRANCH   7  16
ATOM     16  C   UNL     1      91.490  74.928  79.269  1.00  0.00     0.135 C 
BRANCH  16  17
ATOM     17  C   UNL     1      91.576  73.708  78.385  1.00  0.00    -0.040 A 
ATOM     18  C   UNL     1      90.410  73.087  77.939  1.00  0.00     0.004 A 
ATOM     19  C   UNL     1      92.822  73.204  78.013  1.00  0.00     0.004 A 
ATOM     20  C   UNL     1      90.489  71.959  77.121  1.00  0.00     0.000 A 
ATOM     21  C   UNL     1      92.901  72.076  77.195  1.00  0.00     0.000 A 
ATOM     22  C   UNL     1      91.735  71.454  76.750  1.00  0.00     0.000 A 
ENDBRANCH  16  17
ENDBRANCH   7  16
BRANCH  15  23
ATOM     23  C   UNL     1      90.710  71.823  82.336  1.00  0.00    -0.046 C 
ATOM     24  C   UNL     1      89.876  71.757  83.581  1.00  0.00     0.042 C 
ATOM     25  C   UNL     1      90.594  70.915  81.356  1.00  0.00     0.010 C 
ENDBRANCH  15  23
ENDBRANCH   3   4
BRANCH   2  26
ATOM     26  C   UNL     1      93.479  77.820  84.777  1.00  0.00     0.078 C 
BRANCH  26  27
ATOM     27  C   UNL     1      94.491  76.776  84.308  1.00  0.00     0.140 C 
ATOM     28  C   UNL     1      94.304  76.409  82.821  1.00  0.00     0.086 CG0
ATOM     29  C   UNL     1      95.914  77.293  84.339  1.00  0.00     0.190 C 
ATOM     30  C   UNL     1      95.704  76.440  82.274  1.00  0.00    -0.010 C 
ATOM     31  G   UNL     1      93.397  75.179  82.527  1.00  0.00     0.000 G0
ATOM     32  O   UNL     1      96.438  77.869  85.280  1.00  0.00    -0.291 OA
ATOM     33  C   UNL     1      96.627  76.958  83.091  1.00  0.00    -0.008 C 
ATOM     34  C   UNL     1      98.063  77.217  82.862  1.00  0.00     0.048 C 
BRANCH  27  35
ATOM     35  O   UNL     1      94.520  75.655  85.175  1.00  0.00    -0.381 OA
ATOM     36  H   UNL     1      94.397  74.852  84.642  1.00  0.00     0.212 HD
ENDBRANCH  27  35
ENDBRANCH  26  27
ENDBRANCH   2  26
ENDBRANCH   1   2
BRANCH   1  37
ATOM     37  O   UNL     1      91.970  80.009  84.574  1.00  0.00    -0.461 OA
BRANCH  37  38
ATOM     38  C   UNL     1      91.293  81.206  84.537  1.00  0.00     0.310 C 
ATOM     39  O   UNL     1      91.648  82.195  83.911  1.00  0.00    -0.252 OA
BRANCH  38  40
ATOM     40  C   UNL     1      90.048  81.107  85.386  1.00  0.00     0.158 C 
BRANCH  40  41
ATOM     41  C   UNL     1      88.822  81.645  84.696  1.00  0.00    -0.037 A 
ATOM     42  C   UNL     1      88.401  82.952  84.939  1.00  0.00     0.008 A 
ATOM     43  C   UNL     1      88.106  80.835  83.814  1.00  0.00     0.008 A 
ATOM     44  C   UNL     1      87.265  83.450  84.300  1.00  0.00     0.046 A 
ATOM     45  C   UNL     1      86.969  81.332  83.175  1.00  0.00     0.046 A 
ATOM     46  C   UNL     1      86.549  82.639  83.418  1.00  0.00     0.115 A 
BRANCH  46  47
ATOM     47  O   UNL     1      85.440  83.125  82.796  1.00  0.00    -0.508 OA
ATOM     48  H   UNL     1      85.630  84.021  82.467  1.00  0.00     0.293 HD
ENDBRANCH  46  47
ENDBRANCH  40  41
ENDBRANCH  38  40
ENDBRANCH  37  38
ENDBRANCH   1  37
TORSDOF 10
ENDMDL
MODEL 2
REMARK VINA RESULT:    -6.586     21.512     26.569
REMARK INTER + INTRA:         -11.846
REMARK INTER:                 -11.016
REMARK INTRA:                  -0.830
REMARK UNBOUND:                -0.640
REMARK SMILES C=C(C)[C@]12C[C@@H](C)[C@@]34O[C@](Cc5ccccc5)(O[C@@H]1[C@@H]3C=C(COC(=O)Cc1ccc(O)cc1)C[C@]1(O)C(=O)C(C)=C[C@@H]41)O2
REMARK SMILES IDX 23 1 22 2 21 3 20 4 9 5 8 6 10 7 6 8 18 10 44 11 19 12 5 13
REMARK SMILES IDX 7 14 4 15 11 16 12 17 13 18 17 19 14 20 16 21 15 22 2 23
REMARK SMILES IDX 3 24 1 25 35 26 36 27 43 28 38 29 42 30 39 32 40 33 41 34
REMARK SMILES IDX 37 35 24 37 25 38 26 39 27 40 28 41 29 42 34 43 30 44 33 45
REMARK SMILES IDX 31 46 32 47
REMARK H PARENT 37 36 32 48
REMARK Flexibility Score: 90.00
ROOT
ATOM      1  C   UNL     1      95.078  97.493  74.467  1.00  0.00     0.264 C 
ENDROOT
BRANCH   1   2
ATOM      2  C   UNL     1      95.044  98.889  73.889  1.00  0.00    -0.033 C 
ATOM      3  C   UNL     1      94.355  99.114  72.751  1.00  0.00    -0.015 C 
BRANCH   3   4
ATOM      4  C   UNL     1      94.228 100.391  71.936  1.00  0.00     0.078 C 
ATOM      5  O   UNL     1      92.196 101.554  72.731  1.00  0.00    -0.319 OA
ATOM      6  C   UNL     1      93.650 101.673  72.640  1.00  0.00     0.095 CG0
ATOM      7  C   UNL     1      91.546 101.043  71.552  1.00  0.00     0.289 C 
ATOM      8  C   UNL     1      94.017 102.923  71.737  1.00  0.00     0.023 C 
ATOM      9  G   UNL     1      94.126 101.755  74.119  1.00  0.00     0.000 G0
ATOM     10  O   UNL     1      92.054  99.761  71.195  1.00  0.00    -0.320 OA
ATOM     11  O   UNL     1      91.758 101.872  70.412  1.00  0.00    -0.313 OA
ATOM     12  C   UNL     1      93.346 100.135  70.690  1.00  0.00     0.170 C 
ATOM     13  C   UNL     1      94.031 102.550  70.223  1.00  0.00     0.049 C 
ATOM     14  C   UNL     1      93.143 104.171  71.947  1.00  0.00     0.011 C 
ATOM     15  C   UNL     1      93.035 101.433  69.906  1.00  0.00     0.122 C 
BRANCH   7  16
ATOM     16  C   UNL     1      90.059 100.944  71.835  1.00  0.00     0.135 C 
BRANCH  16  17
ATOM     17  C   UNL     1      89.563 102.102  72.665  1.00  0.00    -0.040 A 
ATOM     18  C   UNL     1      89.498 101.987  74.053  1.00  0.00     0.004 A 
ATOM     19  C   UNL     1      89.170 103.286  72.043  1.00  0.00     0.004 A 
ATOM     20  C   UNL     1      89.040 103.058  74.821  1.00  0.00     0.000 A 
ATOM     21  C   UNL     1      88.711 104.357  72.811  1.00  0.00     0.000 A 
ATOM     22  C   UNL     1      88.646 104.243  74.200  1.00  0.00     0.000 A 
ENDBRANCH  16  17
ENDBRANCH   7  16
BRANCH  15  23
ATOM     23  C   UNL     1      92.900 101.185  68.439  1.00  0.00    -0.046 C 
ATOM     24  C   UNL     1      91.499 101.129  67.904  1.00  0.00     0.042 C 
ATOM     25  C   UNL     1      93.968 101.021  67.645  1.00  0.00     0.010 C 
ENDBRANCH  15  23
ENDBRANCH   3   4
BRANCH   2  26
ATOM     26  C   UNL     1      95.821  99.895  74.716  1.00  0.00     0.078 C 
BRANCH  26  27
ATOM     27  C   UNL     1      95.630 101.372  74.378  1.00  0.00     0.140 C 
ATOM     28  C   UNL     1      94.150 101.726  74.123  1.00  0.00     0.086 CG0
ATOM     29  C   UNL     1      95.988 102.283  75.534  1.00  0.00     0.190 C 
ATOM     30  C   UNL     1      93.952 102.991  74.911  1.00  0.00    -0.010 C 
ATOM     31  G   UNL     1      93.676 101.667  72.642  1.00  0.00     0.000 G0
ATOM     32  O   UNL     1      97.014 102.219  76.194  1.00  0.00    -0.291 OA
ATOM     33  C   UNL     1      94.954 103.316  75.734  1.00  0.00    -0.008 C 
ATOM     34  C   UNL     1      95.067 104.425  76.703  1.00  0.00     0.048 C 
BRANCH  27  35
ATOM     35  O   UNL     1      96.504 101.784  73.340  1.00  0.00    -0.381 OA
ATOM     36  H   UNL     1      97.089 102.477  73.689  1.00  0.00     0.212 HD
ENDBRANCH  27  35
ENDBRANCH  26  27
ENDBRANCH   2  26
ENDBRANCH   1   2
BRANCH   1  37
ATOM     37  O   UNL     1      93.760  96.997  74.570  1.00  0.00    -0.461 OA
BRANCH  37  38
ATOM     38  C   UNL     1      93.537  96.065  75.557  1.00  0.00     0.310 C 
ATOM     39  O   UNL     1      93.594  94.853  75.404  1.00  0.00    -0.252 OA
BRANCH  38  40
ATOM     40  C   UNL     1      93.211  96.771  76.851  1.00  0.00     0.158 C 
BRANCH  40  41
ATOM     41  C   UNL     1      94.262  96.568  77.912  1.00  0.00    -0.037 A 
ATOM     42  C   UNL     1      94.372  95.337  78.558  1.00  0.00     0.008 A 
ATOM     43  C   UNL     1      95.124  97.611  78.248  1.00  0.00     0.008 A 
ATOM     44  C   UNL     1      95.344  95.149  79.541  1.00  0.00     0.046 A 
ATOM     45  C   UNL     1      96.097  97.423  79.231  1.00  0.00     0.046 A 
ATOM     46  C   UNL     1      96.207  96.193  79.877  1.00  0.00     0.115 A 
BRANCH  46  47
ATOM     47  O   UNL     1      97.155  96.009  80.836  1.00  0.00    -0.508 OA
ATOM     48  H   UNL     1      97.950  95.627  80.425  1.00  0.00     0.293 HD
ENDBRANCH  46  47
ENDBRANCH  40  41
ENDBRANCH  38  40
ENDBRANCH  37  38
ENDBRANCH   1  37
TORSDOF 10
ENDMDL
MODEL 3
REMARK VINA RESULT:    -6.328     21.385     25.581
REMARK INTER + INTRA:         -11.407
REMARK INTER:                 -10.969
REMARK INTRA:                  -0.438
REMARK UNBOUND:                -0.640
REMARK SMILES C=C(C)[C@]12C[C@@H](C)[C@@]34O[C@](Cc5ccccc5)(O[C@@H]1[C@@H]3C=C(COC(=O)Cc1ccc(O)cc1)C[C@]1(O)C(=O)C(C)=C[C@@H]41)O2
REMARK SMILES IDX 23 1 22 2 21 3 20 4 9 5 8 6 10 7 6 8 18 10 44 11 19 12 5 13
REMARK SMILES IDX 7 14 4 15 11 16 12 17 13 18 17 19 14 20 16 21 15 22 2 23
REMARK SMILES IDX 3 24 1 25 35 26 36 27 43 28 38 29 42 30 39 32 40 33 41 34
REMARK SMILES IDX 37 35 24 37 25 38 26 39 27 40 28 41 29 42 34 43 30 44 33 45
REMARK SMILES IDX 31 46 32 47
REMARK H PARENT 37 36 32 48
REMARK Flexibility Score: 90.00
ROOT
ATOM      1  C   UNL     1      91.550 100.662  71.253  1.00  0.00     0.264 C 
ENDROOT
BRANCH   1   2
ATOM      2  C   UNL     1      93.000 100.452  71.623  1.00  0.00    -0.033 C 
ATOM      3  C   UNL     1      93.305  99.960  72.842  1.00  0.00    -0.015 C 
BRANCH   3   4
ATOM      4  C   UNL     1      94.667  99.731  73.477  1.00  0.00     0.078 C 
ATOM      5  O   UNL     1      95.309  97.394  72.983  1.00  0.00    -0.319 OA
ATOM      6  C   UNL     1      95.686  98.786  72.742  1.00  0.00     0.095 CG0
ATOM      7  C   UNL     1      94.913  97.090  74.334  1.00  0.00     0.289 C 
ATOM      8  C   UNL     1      97.120  99.054  73.359  1.00  0.00     0.023 C 
ATOM      9  G   UNL     1      95.582  98.953  71.198  1.00  0.00     0.000 G0
ATOM     10  O   UNL     1      93.820  97.904  74.750  1.00  0.00    -0.320 OA
ATOM     11  O   UNL     1      95.957  97.338  75.274  1.00  0.00    -0.313 OA
ATOM     12  C   UNL     1      94.491  99.164  74.907  1.00  0.00     0.170 C 
ATOM     13  C   UNL     1      97.032  99.422  74.872  1.00  0.00     0.049 C 
ATOM     14  C   UNL     1      98.145  97.922  73.169  1.00  0.00     0.011 C 
ATOM     15  C   UNL     1      95.838  98.749  75.550  1.00  0.00     0.122 C 
BRANCH   7  16
ATOM     16  C   UNL     1      94.516  95.628  74.395  1.00  0.00     0.135 C 
BRANCH  16  17
ATOM     17  C   UNL     1      93.524  95.356  75.498  1.00  0.00    -0.040 A 
ATOM     18  C   UNL     1      92.163  95.276  75.208  1.00  0.00     0.004 A 
ATOM     19  C   UNL     1      93.970  95.184  76.808  1.00  0.00     0.004 A 
ATOM     20  C   UNL     1      91.245  95.024  76.229  1.00  0.00     0.000 A 
ATOM     21  C   UNL     1      93.053  94.932  77.829  1.00  0.00     0.000 A 
ATOM     22  C   UNL     1      91.691  94.852  77.539  1.00  0.00     0.000 A 
ENDBRANCH  16  17
ENDBRANCH   7  16
BRANCH  15  23
ATOM     23  C   UNL     1      95.836  98.940  77.031  1.00  0.00    -0.046 C 
ATOM     24  C   UNL     1      96.648 100.088  77.552  1.00  0.00     0.042 C 
ATOM     25  C   UNL     1      95.147  98.131  77.850  1.00  0.00     0.010 C 
ENDBRANCH  15  23
ENDBRANCH   3   4
BRANCH   2  26
ATOM     26  C   UNL     1      93.959 100.838  70.513  1.00  0.00     0.078 C 
BRANCH  26  27
ATOM     27  C   UNL     1      95.420 100.424  70.679  1.00  0.00     0.140 C 
ATOM     28  C   UNL     1      95.562  98.977  71.194  1.00  0.00     0.086 CG0
ATOM     29  C   UNL     1      96.162 100.373  69.359  1.00  0.00     0.190 C 
ATOM     30  C   UNL     1      96.620  98.390  70.302  1.00  0.00    -0.010 C 
ATOM     31  G   UNL     1      95.685  98.808  72.737  1.00  0.00     0.000 G0
ATOM     32  O   UNL     1      96.155 101.251  68.509  1.00  0.00    -0.291 OA
ATOM     33  C   UNL     1      96.958  99.137  69.247  1.00  0.00    -0.008 C 
ATOM     34  C   UNL     1      97.885  98.846  68.133  1.00  0.00     0.048 C 
BRANCH  27  35
ATOM     35  O   UNL     1      96.146 101.376  71.438  1.00  0.00    -0.381 OA
ATOM     36  H   UNL     1      96.562 100.918  72.188  1.00  0.00     0.212 HD
ENDBRANCH  27  35
ENDBRANCH  26  27
ENDBRANCH   2  26
ENDBRANCH   1   2
BRANCH   1  37
ATOM     37  O   UNL     1      90.895 101.344  72.301  1.00  0.00    -0.461 OA
BRANCH  37  38
ATOM     38  C   UNL     1      89.672 101.896  71.996  1.00  0.00     0.310 C 
ATOM     39  O   UNL     1      89.256 102.963  72.425  1.00  0.00    -0.252 OA
BRANCH  38  40
ATOM     40  C   UNL     1      88.928 100.982  71.052  1.00  0.00     0.158 C 
BRANCH  40  41
ATOM     41  C   UNL     1      88.309 101.715  69.890  1.00  0.00    -0.037 A 
ATOM     42  C   UNL     1      86.925 101.872  69.821  1.00  0.00     0.008 A 
ATOM     43  C   UNL     1      89.120 102.236  68.882  1.00  0.00     0.008 A 
ATOM     44  C   UNL     1      86.352 102.549  68.745  1.00  0.00     0.046 A 
ATOM     45  C   UNL     1      88.548 102.914  67.805  1.00  0.00     0.046 A 
ATOM     46  C   UNL     1      87.164 103.070  67.737  1.00  0.00     0.115 A 
BRANCH  46  47
ATOM     47  O   UNL     1      86.605 103.731  66.686  1.00  0.00    -0.508 OA
ATOM     48  H   UNL     1      86.103 104.493  67.024  1.00  0.00     0.293 HD
ENDBRANCH  46  47
ENDBRANCH  40  41
ENDBRANCH  38  40
ENDBRANCH  37  38
ENDBRANCH   1  37
TORSDOF 10
ENDMDL
MODEL 4
REMARK VINA RESULT:    -6.322     10.054     13.493
REMARK INTER + INTRA:         -11.397
REMARK INTER:                  -9.711
REMARK INTRA:                  -1.686
REMARK UNBOUND:                -0.640
REMARK SMILES C=C(C)[C@]12C[C@@H](C)[C@@]34O[C@](Cc5ccccc5)(O[C@@H]1[C@@H]3C=C(COC(=O)Cc1ccc(O)cc1)C[C@]1(O)C(=O)C(C)=C[C@@H]41)O2
REMARK SMILES IDX 23 1 22 2 21 3 20 4 9 5 8 6 10 7 6 8 18 10 44 11 19 12 5 13
REMARK SMILES IDX 7 14 4 15 11 16 12 17 13 18 17 19 14 20 16 21 15 22 2 23
REMARK SMILES IDX 3 24 1 25 35 26 36 27 43 28 38 29 42 30 39 32 40 33 41 34
REMARK SMILES IDX 37 35 24 37 25 38 26 39 27 40 28 41 29 42 34 43 30 44 33 45
REMARK SMILES IDX 31 46 32 47
REMARK H PARENT 37 36 32 48
REMARK Flexibility Score: 90.00
ROOT
ATOM      1  C   UNL     1     102.602  83.999  74.855  1.00  0.00     0.264 C 
ENDROOT
BRANCH   1   2
ATOM      2  C   UNL     1     102.358  82.558  75.240  1.00  0.00    -0.033 C 
ATOM      3  C   UNL     1     101.920  82.273  76.483  1.00  0.00    -0.015 C 
BRANCH   3   4
ATOM      4  C   UNL     1     101.675  80.920  77.134  1.00  0.00     0.078 C 
ATOM      5  O   UNL     1      99.301  80.351  76.739  1.00  0.00    -0.319 OA
ATOM      6  C   UNL     1     100.668  79.929  76.442  1.00  0.00     0.095 CG0
ATOM      7  C   UNL     1      99.065  80.761  78.100  1.00  0.00     0.289 C 
ATOM      8  C   UNL     1     100.916  78.489  77.055  1.00  0.00     0.023 C 
ATOM      9  G   UNL     1     100.775  80.024  74.892  1.00  0.00     0.000 G0
ATOM     10  O   UNL     1      99.930  81.828  78.477  1.00  0.00    -0.320 OA
ATOM     11  O   UNL     1      99.318  79.713  79.033  1.00  0.00    -0.313 OA
ATOM     12  C   UNL     1     101.174  81.118  78.585  1.00  0.00     0.170 C 
ATOM     13  C   UNL     1     101.349  78.570  78.551  1.00  0.00     0.049 C 
ATOM     14  C   UNL     1      99.745  77.501  76.916  1.00  0.00     0.011 C 
ATOM     15  C   UNL     1     100.743  79.788  79.250  1.00  0.00     0.122 C 
BRANCH   7  16
ATOM     16  C   UNL     1      97.620  81.204  78.220  1.00  0.00     0.135 C 
BRANCH  16  17
ATOM     17  C   UNL     1      97.342  82.448  77.414  1.00  0.00    -0.040 A 
ATOM     18  C   UNL     1      96.552  83.465  77.950  1.00  0.00     0.004 A 
ATOM     19  C   UNL     1      97.874  82.581  76.132  1.00  0.00     0.004 A 
ATOM     20  C   UNL     1      96.295  84.616  77.204  1.00  0.00     0.000 A 
ATOM     21  C   UNL     1      97.617  83.732  75.386  1.00  0.00     0.000 A 
ATOM     22  C   UNL     1      96.828  84.749  75.923  1.00  0.00     0.000 A 
ENDBRANCH  16  17
ENDBRANCH   7  16
BRANCH  15  23
ATOM     23  C   UNL     1     100.995  79.788  80.723  1.00  0.00    -0.046 C 
ATOM     24  C   UNL     1     102.427  79.919  81.149  1.00  0.00     0.042 C 
ATOM     25  C   UNL     1      99.998  79.678  81.613  1.00  0.00     0.010 C 
ENDBRANCH  15  23
ENDBRANCH   3   4
BRANCH   2  26
ATOM     26  C   UNL     1     102.649  81.584  74.113  1.00  0.00     0.078 C 
BRANCH  26  27
ATOM     27  C   UNL     1     102.212  80.134  74.315  1.00  0.00     0.140 C 
ATOM     28  C   UNL     1     100.786  80.029  74.894  1.00  0.00     0.086 CG0
ATOM     29  C   UNL     1     102.088  79.379  73.008  1.00  0.00     0.190 C 
ATOM     30  C   UNL     1     100.138  78.975  74.041  1.00  0.00    -0.010 C 
ATOM     31  G   UNL     1     100.682  79.928  76.444  1.00  0.00     0.000 G0
ATOM     32  O   UNL     1     102.928  79.357  72.121  1.00  0.00    -0.291 OA
ATOM     33  C   UNL     1     100.831  78.609  72.959  1.00  0.00    -0.008 C 
ATOM     34  C   UNL     1     100.473  77.676  71.870  1.00  0.00     0.048 C 
BRANCH  27  35
ATOM     35  O   UNL     1     103.181  79.397  75.041  1.00  0.00    -0.381 OA
ATOM     36  H   UNL     1     103.873  80.011  75.339  1.00  0.00     0.212 HD
ENDBRANCH  27  35
ENDBRANCH  26  27
ENDBRANCH   2  26
ENDBRANCH   1   2
BRANCH   1  37
ATOM     37  O   UNL     1     102.233  84.191  73.506  1.00  0.00    -0.461 OA
BRANCH  37  38
ATOM     38  C   UNL     1     101.201  85.072  73.278  1.00  0.00     0.310 C 
ATOM     39  O   UNL     1     100.715  85.817  74.117  1.00  0.00    -0.252 OA
BRANCH  38  40
ATOM     40  C   UNL     1     100.766  84.974  71.835  1.00  0.00     0.158 C 
BRANCH  40  41
ATOM     41  C   UNL     1     100.178  83.631  71.488  1.00  0.00    -0.037 A 
ATOM     42  C   UNL     1      99.208  83.060  72.312  1.00  0.00     0.008 A 
ATOM     43  C   UNL     1     100.604  82.958  70.343  1.00  0.00     0.008 A 
ATOM     44  C   UNL     1      98.665  81.816  71.992  1.00  0.00     0.046 A 
ATOM     45  C   UNL     1     100.060  81.714  70.022  1.00  0.00     0.046 A 
ATOM     46  C   UNL     1      99.091  81.143  70.846  1.00  0.00     0.115 A 
BRANCH  46  47
ATOM     47  O   UNL     1      98.560  79.929  70.534  1.00  0.00    -0.508 OA
ATOM     48  H   UNL     1      97.783  79.770  71.097  1.00  0.00     0.293 HD
ENDBRANCH  46  47
ENDBRANCH  40  41
ENDBRANCH  38  40
ENDBRANCH  37  38
ENDBRANCH   1  37
TORSDOF 10
ENDMDL
MODEL 5
REMARK VINA RESULT:    -6.234     20.275     24.727
REMARK INTER + INTRA:         -11.247
REMARK INTER:                 -11.738
REMARK INTRA:                   0.492
REMARK UNBOUND:                -0.640
REMARK SMILES C=C(C)[C@]12C[C@@H](C)[C@@]34O[C@](Cc5ccccc5)(O[C@@H]1[C@@H]3C=C(COC(=O)Cc1ccc(O)cc1)C[C@]1(O)C(=O)C(C)=C[C@@H]41)O2
REMARK SMILES IDX 23 1 22 2 21 3 20 4 9 5 8 6 10 7 6 8 18 10 44 11 19 12 5 13
REMARK SMILES IDX 7 14 4 15 11 16 12 17 13 18 17 19 14 20 16 21 15 22 2 23
REMARK SMILES IDX 3 24 1 25 35 26 36 27 43 28 38 29 42 30 39 32 40 33 41 34
REMARK SMILES IDX 37 35 24 37 25 38 26 39 27 40 28 41 29 42 34 43 30 44 33 45
REMARK SMILES IDX 31 46 32 47
REMARK H PARENT 37 36 32 48
REMARK Flexibility Score: 90.00
ROOT
ATOM      1  C   UNL     1      93.606  95.962  74.804  1.00  0.00     0.264 C 
ENDROOT
BRANCH   1   2
ATOM      2  C   UNL     1      94.630  97.041  74.539  1.00  0.00    -0.033 C 
ATOM      3  C   UNL     1      94.619  97.683  73.352  1.00  0.00    -0.015 C 
BRANCH   3   4
ATOM      4  C   UNL     1      95.575  98.737  72.817  1.00  0.00     0.078 C 
ATOM      5  O   UNL     1      94.631 100.940  73.427  1.00  0.00    -0.319 OA
ATOM      6  C   UNL     1      95.774 100.058  73.648  1.00  0.00     0.095 CG0
ATOM      7  C   UNL     1      94.177 101.028  72.062  1.00  0.00     0.289 C 
ATOM      8  C   UNL     1      97.091 100.763  73.119  1.00  0.00     0.023 C 
ATOM      9  G   UNL     1      95.744  99.759  75.176  1.00  0.00     0.000 G0
ATOM     10  O   UNL     1      93.828  99.745  71.549  1.00  0.00    -0.320 OA
ATOM     11  O   UNL     1      95.183 101.532  71.187  1.00  0.00    -0.313 OA
ATOM     12  C   UNL     1      95.136  99.172  71.397  1.00  0.00     0.170 C 
ATOM     13  C   UNL     1      97.297 100.518  71.593  1.00  0.00     0.049 C 
ATOM     14  C   UNL     1      97.198 102.269  73.413  1.00  0.00     0.011 C 
ATOM     15  C   UNL     1      95.964 100.364  70.859  1.00  0.00     0.122 C 
BRANCH   7  16
ATOM     16  C   UNL     1      92.968 101.943  72.022  1.00  0.00     0.135 C 
BRANCH  16  17
ATOM     17  C   UNL     1      91.858 101.377  71.172  1.00  0.00    -0.040 A 
ATOM     18  C   UNL     1      90.591 101.180  71.720  1.00  0.00     0.004 A 
ATOM     19  C   UNL     1      92.100 101.051  69.838  1.00  0.00     0.004 A 
ATOM     20  C   UNL     1      89.564 100.657  70.933  1.00  0.00     0.000 A 
ATOM     21  C   UNL     1      91.072 100.528  69.051  1.00  0.00     0.000 A 
ATOM     22  C   UNL     1      89.806 100.332  69.599  1.00  0.00     0.000 A 
ENDBRANCH  16  17
ENDBRANCH   7  16
BRANCH  15  23
ATOM     23  C   UNL     1      96.129 100.310  69.375  1.00  0.00    -0.046 C 
ATOM     24  C   UNL     1      95.137 101.098  68.570  1.00  0.00     0.042 C 
ATOM     25  C   UNL     1      97.107  99.599  68.796  1.00  0.00     0.010 C 
ENDBRANCH  15  23
ENDBRANCH   3   4
BRANCH   2  26
ATOM     26  C   UNL     1      95.571  97.269  75.707  1.00  0.00     0.078 C 
BRANCH  26  27
ATOM     27  C   UNL     1      96.490  98.487  75.636  1.00  0.00     0.140 C 
ATOM     28  C   UNL     1      95.744  99.755  75.171  1.00  0.00     0.086 CG0
ATOM     29  C   UNL     1      97.015  98.899  76.995  1.00  0.00     0.190 C 
ATOM     30  C   UNL     1      96.208 100.808  76.137  1.00  0.00    -0.010 C 
ATOM     31  G   UNL     1      95.781 100.051  73.643  1.00  0.00     0.000 G0
ATOM     32  O   UNL     1      97.516  98.147  77.818  1.00  0.00    -0.291 OA
ATOM     33  C   UNL     1      96.900 100.356  77.188  1.00  0.00    -0.008 C 
ATOM     34  C   UNL     1      97.433 101.082  78.359  1.00  0.00     0.048 C 
BRANCH  27  35
ATOM     35  O   UNL     1      97.664  98.207  74.891  1.00  0.00    -0.381 OA
ATOM     36  H   UNL     1      98.108  97.442  75.294  1.00  0.00     0.212 HD
ENDBRANCH  27  35
ENDBRANCH  26  27
ENDBRANCH   2  26
ENDBRANCH   1   2
BRANCH   1  37
ATOM     37  O   UNL     1      93.566  95.687  76.188  1.00  0.00    -0.461 OA
BRANCH  37  38
ATOM     38  C   UNL     1      92.399  96.016  76.840  1.00  0.00     0.310 C 
ATOM     39  O   UNL     1      91.879  97.123  76.832  1.00  0.00    -0.252 OA
BRANCH  38  40
ATOM     40  C   UNL     1      91.865  94.802  77.561  1.00  0.00     0.158 C 
BRANCH  40  41
ATOM     41  C   UNL     1      91.075  93.885  76.664  1.00  0.00    -0.037 A 
ATOM     42  C   UNL     1      91.101  94.070  75.282  1.00  0.00     0.008 A 
ATOM     43  C   UNL     1      90.318  92.852  77.215  1.00  0.00     0.008 A 
ATOM     44  C   UNL     1      90.368  93.222  74.451  1.00  0.00     0.046 A 
ATOM     45  C   UNL     1      89.587  92.003  76.384  1.00  0.00     0.046 A 
ATOM     46  C   UNL     1      89.611  92.188  75.003  1.00  0.00     0.115 A 
BRANCH  46  47
ATOM     47  O   UNL     1      88.897  91.360  74.192  1.00  0.00    -0.508 OA
ATOM     48  H   UNL     1      89.515  90.827  73.662  1.00  0.00     0.293 HD
ENDBRANCH  46  47
ENDBRANCH  40  41
ENDBRANCH  38  40
ENDBRANCH  37  38
ENDBRANCH   1  37
TORSDOF 10
ENDMDL
MODEL 6
REMARK VINA RESULT:    -6.133     19.447     23.940
REMARK INTER + INTRA:         -11.076
REMARK INTER:                 -10.091
REMARK INTRA:                  -0.985
REMARK UNBOUND:                -0.640
REMARK SMILES C=C(C)[C@]12C[C@@H](C)[C@@]34O[C@](Cc5ccccc5)(O[C@@H]1[C@@H]3C=C(COC(=O)Cc1ccc(O)cc1)C[C@]1(O)C(=O)C(C)=C[C@@H]41)O2
REMARK SMILES IDX 23 1 22 2 21 3 20 4 9 5 8 6 10 7 6 8 18 10 44 11 19 12 5 13
REMARK SMILES IDX 7 14 4 15 11 16 12 17 13 18 17 19 14 20 16 21 15 22 2 23
REMARK SMILES IDX 3 24 1 25 35 26 36 27 43 28 38 29 42 30 39 32 40 33 41 34
REMARK SMILES IDX 37 35 24 37 25 38 26 39 27 40 28 41 29 42 34 43 30 44 33 45
REMARK SMILES IDX 31 46 32 47
REMARK H PARENT 37 36 32 48
REMARK Flexibility Score: 90.00
ROOT
ATOM      1  C   UNL     1      95.752  96.213  79.967  1.00  0.00     0.264 C 
ENDROOT
BRANCH   1   2
ATOM      2  C   UNL     1      96.610  97.456  79.927  1.00  0.00    -0.033 C 
ATOM      3  C   UNL     1      97.315  97.734  78.811  1.00  0.00    -0.015 C 
BRANCH   3   4
ATOM      4  C   UNL     1      98.298  98.864  78.547  1.00  0.00     0.078 C 
ATOM      5  O   UNL     1      97.011 100.719  77.540  1.00  0.00    -0.319 OA
ATOM      6  C   UNL     1      97.798 100.346  78.714  1.00  0.00     0.095 CG0
ATOM      7  C   UNL     1      97.553 100.296  76.275  1.00  0.00     0.289 C 
ATOM      8  C   UNL     1      99.077 101.276  78.804  1.00  0.00     0.023 C 
ATOM      9  G   UNL     1      96.801 100.463  79.903  1.00  0.00     0.000 G0
ATOM     10  O   UNL     1      97.730  98.883  76.234  1.00  0.00    -0.320 OA
ATOM     11  O   UNL     1      98.842 100.853  76.024  1.00  0.00    -0.313 OA
ATOM     12  C   UNL     1      98.861  98.746  77.109  1.00  0.00     0.170 C 
ATOM     13  C   UNL     1     100.249 100.723  77.938  1.00  0.00     0.049 C 
ATOM     14  C   UNL     1      98.843 102.757  78.459  1.00  0.00     0.011 C 
ATOM     15  C   UNL     1      99.739  99.959  76.715  1.00  0.00     0.122 C 
BRANCH   7  16
ATOM     16  C   UNL     1      96.596 100.725  75.180  1.00  0.00     0.135 C 
BRANCH  16  17
ATOM     17  C   UNL     1      96.109  99.554  74.363  1.00  0.00    -0.040 A 
ATOM     18  C   UNL     1      96.868  99.087  73.291  1.00  0.00     0.004 A 
ATOM     19  C   UNL     1      94.898  98.939  74.682  1.00  0.00     0.004 A 
ATOM     20  C   UNL     1      96.417  98.004  72.536  1.00  0.00     0.000 A 
ATOM     21  C   UNL     1      94.447  97.856  73.927  1.00  0.00     0.000 A 
ATOM     22  C   UNL     1      95.206  97.389  72.854  1.00  0.00     0.000 A 
ENDBRANCH  16  17
ENDBRANCH   7  16
BRANCH  15  23
ATOM     23  C   UNL     1     100.837  99.577  75.777  1.00  0.00    -0.046 C 
ATOM     24  C   UNL     1     102.134 100.312  75.942  1.00  0.00     0.042 C 
ATOM     25  C   UNL     1     100.673  98.631  74.841  1.00  0.00     0.010 C 
ENDBRANCH  15  23
ENDBRANCH   3   4
BRANCH   2  26
ATOM     26  C   UNL     1      96.551  98.262  81.211  1.00  0.00     0.078 C 
BRANCH  26  27
ATOM     27  C   UNL     1      97.178  99.654  81.190  1.00  0.00     0.140 C 
ATOM     28  C   UNL     1      96.815 100.439  79.913  1.00  0.00     0.086 CG0
ATOM     29  C   UNL     1      96.639 100.550  82.286  1.00  0.00     0.190 C 
ATOM     30  C   UNL     1      96.432 101.797  80.433  1.00  0.00    -0.010 C 
ATOM     31  G   UNL     1      97.822 100.330  78.731  1.00  0.00     0.000 G0
ATOM     32  O   UNL     1      96.539 100.244  83.465  1.00  0.00    -0.291 OA
ATOM     33  C   UNL     1      96.298 101.884  81.759  1.00  0.00    -0.008 C 
ATOM     34  C   UNL     1      95.861 103.020  82.598  1.00  0.00     0.048 C 
BRANCH  27  35
ATOM     35  O   UNL     1      98.571  99.600  81.452  1.00  0.00    -0.381 OA
ATOM     36  H   UNL     1      98.722  99.897  82.366  1.00  0.00     0.212 HD
ENDBRANCH  27  35
ENDBRANCH  26  27
ENDBRANCH   2  26
ENDBRANCH   1   2
BRANCH   1  37
ATOM     37  O   UNL     1      96.097  95.373  78.886  1.00  0.00    -0.461 OA
BRANCH  37  38
ATOM     38  C   UNL     1      95.048  94.806  78.199  1.00  0.00     0.310 C 
ATOM     39  O   UNL     1      94.930  93.613  77.957  1.00  0.00    -0.252 OA
BRANCH  38  40
ATOM     40  C   UNL     1      94.072  95.883  77.792  1.00  0.00     0.158 C 
BRANCH  40  41
ATOM     41  C   UNL     1      92.887  95.346  77.032  1.00  0.00    -0.037 A 
ATOM     42  C   UNL     1      91.765  94.886  77.722  1.00  0.00     0.008 A 
ATOM     43  C   UNL     1      92.911  95.307  75.638  1.00  0.00     0.008 A 
ATOM     44  C   UNL     1      90.668  94.387  77.019  1.00  0.00     0.046 A 
ATOM     45  C   UNL     1      91.814  94.809  74.934  1.00  0.00     0.046 A 
ATOM     46  C   UNL     1      90.693  94.349  75.624  1.00  0.00     0.115 A 
BRANCH  46  47
ATOM     47  O   UNL     1      89.623  93.862  74.938  1.00  0.00    -0.508 OA
ATOM     48  H   UNL     1      89.326  94.534  74.300  1.00  0.00     0.293 HD
ENDBRANCH  46  47
ENDBRANCH  40  41
ENDBRANCH  38  40
ENDBRANCH  37  38
ENDBRANCH   1  37
TORSDOF 10
ENDMDL
MODEL 7
REMARK VINA RESULT:    -6.030      9.224     12.894
REMARK INTER + INTRA:         -10.901
REMARK INTER:                  -8.983
REMARK INTRA:                  -1.918
REMARK UNBOUND:                -0.640
REMARK SMILES C=C(C)[C@]12C[C@@H](C)[C@@]34O[C@](Cc5ccccc5)(O[C@@H]1[C@@H]3C=C(COC(=O)Cc1ccc(O)cc1)C[C@]1(O)C(=O)C(C)=C[C@@H]41)O2
REMARK SMILES IDX 23 1 22 2 21 3 20 4 9 5 8 6 10 7 6 8 18 10 44 11 19 12 5 13
REMARK SMILES IDX 7 14 4 15 11 16 12 17 13 18 17 19 14 20 16 21 15 22 2 23
REMARK SMILES IDX 3 24 1 25 35 26 36 27 43 28 38 29 42 30 39 32 40 33 41 34
REMARK SMILES IDX 37 35 24 37 25 38 26 39 27 40 28 41 29 42 34 43 30 44 33 45
REMARK SMILES IDX 31 46 32 47
REMARK H PARENT 37 36 32 48
REMARK Flexibility Score: 90.00
ROOT
ATOM      1  C   UNL     1     102.839  83.070  75.195  1.00  0.00     0.264 C 
ENDROOT
BRANCH   1   2
ATOM      2  C   UNL     1     101.802  82.187  75.849  1.00  0.00    -0.033 C 
ATOM      3  C   UNL     1     102.133  80.924  76.190  1.00  0.00    -0.015 C 
BRANCH   3   4
ATOM      4  C   UNL     1     101.264  79.826  76.782  1.00  0.00     0.078 C 
ATOM      5  O   UNL     1     101.498  79.967  79.240  1.00  0.00    -0.319 OA
ATOM      6  C   UNL     1     100.535  80.102  78.148  1.00  0.00     0.095 CG0
ATOM      7  C   UNL     1     102.396  78.846  79.133  1.00  0.00     0.289 C 
ATOM      8  C   UNL     1      99.399  79.011  78.315  1.00  0.00     0.023 C 
ATOM      9  G   UNL     1     100.059  81.581  78.232  1.00  0.00     0.000 G0
ATOM     10  O   UNL     1     103.137  78.889  77.917  1.00  0.00    -0.320 OA
ATOM     11  O   UNL     1     101.706  77.598  79.119  1.00  0.00    -0.313 OA
ATOM     12  C   UNL     1     102.104  78.540  76.981  1.00  0.00     0.170 C 
ATOM     13  C   UNL     1      99.814  77.650  77.677  1.00  0.00     0.049 C 
ATOM     14  C   UNL     1      98.917  78.772  79.756  1.00  0.00     0.011 C 
ATOM     15  C   UNL     1     101.327  77.435  77.737  1.00  0.00     0.122 C 
BRANCH   7  16
ATOM     16  C   UNL     1     103.345  78.884  80.314  1.00  0.00     0.135 C 
BRANCH  16  17
ATOM     17  C   UNL     1     102.695  79.466  81.545  1.00  0.00    -0.040 A 
ATOM     18  C   UNL     1     101.756  78.720  82.257  1.00  0.00     0.004 A 
ATOM     19  C   UNL     1     103.034  80.750  81.970  1.00  0.00     0.004 A 
ATOM     20  C   UNL     1     101.156  79.259  83.395  1.00  0.00     0.000 A 
ATOM     21  C   UNL     1     102.434  81.289  83.108  1.00  0.00     0.000 A 
ATOM     22  C   UNL     1     101.495  80.543  83.820  1.00  0.00     0.000 A 
ENDBRANCH  16  17
ENDBRANCH   7  16
BRANCH  15  23
ATOM     23  C   UNL     1     101.730  76.065  77.298  1.00  0.00    -0.046 C 
ATOM     24  C   UNL     1     101.873  75.038  78.382  1.00  0.00     0.042 C 
ATOM     25  C   UNL     1     101.951  75.770  76.008  1.00  0.00     0.010 C 
ENDBRANCH  15  23
ENDBRANCH   3   4
BRANCH   2  26
ATOM     26  C   UNL     1     100.468  82.881  76.048  1.00  0.00     0.078 C 
BRANCH  26  27
ATOM     27  C   UNL     1      99.427  82.162  76.903  1.00  0.00     0.140 C 
ATOM     28  C   UNL     1     100.036  81.580  78.196  1.00  0.00     0.086 CG0
ATOM     29  C   UNL     1      98.366  83.101  77.438  1.00  0.00     0.190 C 
ATOM     30  C   UNL     1      99.053  81.986  79.259  1.00  0.00    -0.010 C 
ATOM     31  G   UNL     1     100.515  80.101  78.123  1.00  0.00     0.000 G0
ATOM     32  O   UNL     1      97.748  83.921  76.775  1.00  0.00    -0.291 OA
ATOM     33  C   UNL     1      98.120  82.861  78.872  1.00  0.00    -0.008 C 
ATOM     34  C   UNL     1      97.061  83.531  79.655  1.00  0.00     0.048 C 
BRANCH  27  35
ATOM     35  O   UNL     1      98.692  81.219  76.142  1.00  0.00    -0.381 OA
ATOM     36  H   UNL     1      99.255  80.440  75.993  1.00  0.00     0.212 HD
ENDBRANCH  27  35
ENDBRANCH  26  27
ENDBRANCH   2  26
ENDBRANCH   1   2
BRANCH   1  37
ATOM     37  O   UNL     1     102.998  82.683  73.846  1.00  0.00    -0.461 OA
BRANCH  37  38
ATOM     38  C   UNL     1     102.944  83.694  72.914  1.00  0.00     0.310 C 
ATOM     39  O   UNL     1     103.683  84.668  72.891  1.00  0.00    -0.252 OA
BRANCH  38  40
ATOM     40  C   UNL     1     101.835  83.412  71.929  1.00  0.00     0.158 C 
BRANCH  40  41
ATOM     41  C   UNL     1     100.464  83.674  72.497  1.00  0.00    -0.037 A 
ATOM     42  C   UNL     1     100.133  84.947  72.961  1.00  0.00     0.008 A 
ATOM     43  C   UNL     1      99.526  82.644  72.559  1.00  0.00     0.008 A 
ATOM     44  C   UNL     1      98.864  85.190  73.488  1.00  0.00     0.046 A 
ATOM     45  C   UNL     1      98.257  82.886  73.085  1.00  0.00     0.046 A 
ATOM     46  C   UNL     1      97.926  84.159  73.550  1.00  0.00     0.115 A 
BRANCH  46  47
ATOM     47  O   UNL     1      96.689  84.396  74.064  1.00  0.00    -0.508 OA
ATOM     48  H   UNL     1      96.352  83.576  74.467  1.00  0.00     0.293 HD
ENDBRANCH  46  47
ENDBRANCH  40  41
ENDBRANCH  38  40
ENDBRANCH  37  38
ENDBRANCH   1  37
TORSDOF 10
ENDMDL
MODEL 8
REMARK VINA RESULT:    -5.982     21.586     26.213
REMARK INTER + INTRA:         -10.819
REMARK INTER:                 -10.074
REMARK INTRA:                  -0.745
REMARK UNBOUND:                -0.640
REMARK SMILES C=C(C)[C@]12C[C@@H](C)[C@@]34O[C@](Cc5ccccc5)(O[C@@H]1[C@@H]3C=C(COC(=O)Cc1ccc(O)cc1)C[C@]1(O)C(=O)C(C)=C[C@@H]41)O2
REMARK SMILES IDX 23 1 22 2 21 3 20 4 9 5 8 6 10 7 6 8 18 10 44 11 19 12 5 13
REMARK SMILES IDX 7 14 4 15 11 16 12 17 13 18 17 19 14 20 16 21 15 22 2 23
REMARK SMILES IDX 3 24 1 25 35 26 36 27 43 28 38 29 42 30 39 32 40 33 41 34
REMARK SMILES IDX 37 35 24 37 25 38 26 39 27 40 28 41 29 42 34 43 30 44 33 45
REMARK SMILES IDX 31 46 32 47
REMARK H PARENT 37 36 32 48
REMARK Flexibility Score: 90.00
ROOT
ATOM      1  C   UNL     1      95.984  97.845  75.629  1.00  0.00     0.264 C 
ENDROOT
BRANCH   1   2
ATOM      2  C   UNL     1      96.131  99.091  74.788  1.00  0.00    -0.033 C 
ATOM      3  C   UNL     1      95.370  99.234  73.682  1.00  0.00    -0.015 C 
BRANCH   3   4
ATOM      4  C   UNL     1      95.380 100.341  72.640  1.00  0.00     0.078 C 
ATOM      5  O   UNL     1      93.714 102.021  73.359  1.00  0.00    -0.319 OA
ATOM      6  C   UNL     1      95.142 101.820  73.118  1.00  0.00     0.095 CG0
ATOM      7  C   UNL     1      92.837 101.449  72.369  1.00  0.00     0.289 C 
ATOM      8  C   UNL     1      95.616 102.783  71.953  1.00  0.00     0.023 C 
ATOM      9  G   UNL     1      95.807 102.069  74.503  1.00  0.00     0.000 G0
ATOM     10  O   UNL     1      93.051 100.047  72.236  1.00  0.00    -0.320 OA
ATOM     11  O   UNL     1      93.053 101.997  71.071  1.00  0.00    -0.313 OA
ATOM     12  C   UNL     1      94.315 100.050  71.554  1.00  0.00     0.170 C 
ATOM     13  C   UNL     1      95.370 102.148  70.550  1.00  0.00     0.049 C 
ATOM     14  C   UNL     1      95.021 104.201  71.982  1.00  0.00     0.011 C 
ATOM     15  C   UNL     1      94.154 101.220  70.554  1.00  0.00     0.122 C 
BRANCH   7  16
ATOM     16  C   UNL     1      91.406 101.711  72.795  1.00  0.00     0.135 C 
BRANCH  16  17
ATOM     17  C   UNL     1      90.462 101.748  71.619  1.00  0.00    -0.040 A 
ATOM     18  C   UNL     1      89.978 100.559  71.075  1.00  0.00     0.004 A 
ATOM     19  C   UNL     1      90.075 102.973  71.076  1.00  0.00     0.004 A 
ATOM     20  C   UNL     1      89.105 100.594  69.987  1.00  0.00     0.000 A 
ATOM     21  C   UNL     1      89.202 103.007  69.988  1.00  0.00     0.000 A 
ATOM     22  C   UNL     1      88.718 101.818  69.444  1.00  0.00     0.000 A 
ENDBRANCH  16  17
ENDBRANCH   7  16
BRANCH  15  23
ATOM     23  C   UNL     1      93.791 100.744  69.185  1.00  0.00    -0.046 C 
ATOM     24  C   UNL     1      92.886 101.639  68.391  1.00  0.00     0.042 C 
ATOM     25  C   UNL     1      94.247  99.582  68.695  1.00  0.00     0.010 C 
ENDBRANCH  15  23
ENDBRANCH   3   4
BRANCH   2  26
ATOM     26  C   UNL     1      97.160 100.062  75.336  1.00  0.00     0.078 C 
BRANCH  26  27
ATOM     27  C   UNL     1      97.222 101.448  74.696  1.00  0.00     0.140 C 
ATOM     28  C   UNL     1      95.822 102.068  74.509  1.00  0.00     0.086 CG0
ATOM     29  C   UNL     1      97.912 102.464  75.581  1.00  0.00     0.190 C 
ATOM     30  C   UNL     1      95.992 103.475  75.010  1.00  0.00    -0.010 C 
ATOM     31  G   UNL     1      95.143 101.825  73.130  1.00  0.00     0.000 G0
ATOM     32  O   UNL     1      98.987 102.303  76.139  1.00  0.00    -0.291 OA
ATOM     33  C   UNL     1      97.144 103.722  75.642  1.00  0.00    -0.008 C 
ATOM     34  C   UNL     1      97.611 104.947  76.324  1.00  0.00     0.048 C 
BRANCH  27  35
ATOM     35  O   UNL     1      98.007 101.439  73.515  1.00  0.00    -0.381 OA
ATOM     36  H   UNL     1      97.527 101.929  72.825  1.00  0.00     0.212 HD
ENDBRANCH  27  35
ENDBRANCH  26  27
ENDBRANCH   2  26
ENDBRANCH   1   2
BRANCH   1  37
ATOM     37  O   UNL     1      94.665  97.769  76.125  1.00  0.00    -0.461 OA
BRANCH  37  38
ATOM     38  C   UNL     1      94.512  97.175  77.357  1.00  0.00     0.310 C 
ATOM     39  O   UNL     1      94.381  97.774  78.415  1.00  0.00    -0.252 OA
BRANCH  38  40
ATOM     40  C   UNL     1      94.529  95.673  77.197  1.00  0.00     0.158 C 
BRANCH  40  41
ATOM     41  C   UNL     1      93.203  95.114  76.753  1.00  0.00    -0.037 A 
ATOM     42  C   UNL     1      92.917  94.991  75.393  1.00  0.00     0.008 A 
ATOM     43  C   UNL     1      92.260  94.719  77.701  1.00  0.00     0.008 A 
ATOM     44  C   UNL     1      91.689  94.474  74.982  1.00  0.00     0.046 A 
ATOM     45  C   UNL     1      91.031  94.201  77.291  1.00  0.00     0.046 A 
ATOM     46  C   UNL     1      90.745  94.078  75.932  1.00  0.00     0.115 A 
BRANCH  46  47
ATOM     47  O   UNL     1      89.547  93.574  75.530  1.00  0.00    -0.508 OA
ATOM     48  H   UNL     1      89.435  92.685  75.910  1.00  0.00     0.293 HD
ENDBRANCH  46  47
ENDBRANCH  40  41
ENDBRANCH  38  40
ENDBRANCH  37  38
ENDBRANCH   1  37
TORSDOF 10
ENDMDL
MODEL 9
REMARK VINA RESULT:    -5.969     16.903     23.903
REMARK INTER + INTRA:         -10.796
REMARK INTER:                 -10.339
REMARK INTRA:                  -0.457
REMARK UNBOUND:                -0.640
REMARK SMILES C=C(C)[C@]12C[C@@H](C)[C@@]34O[C@](Cc5ccccc5)(O[C@@H]1[C@@H]3C=C(COC(=O)Cc1ccc(O)cc1)C[C@]1(O)C(=O)C(C)=C[C@@H]41)O2
REMARK SMILES IDX 23 1 22 2 21 3 20 4 9 5 8 6 10 7 6 8 18 10 44 11 19 12 5 13
REMARK SMILES IDX 7 14 4 15 11 16 12 17 13 18 17 19 14 20 16 21 15 22 2 23
REMARK SMILES IDX 3 24 1 25 35 26 36 27 43 28 38 29 42 30 39 32 40 33 41 34
REMARK SMILES IDX 37 35 24 37 25 38 26 39 27 40 28 41 29 42 34 43 30 44 33 45
REMARK SMILES IDX 31 46 32 47
REMARK H PARENT 37 36 32 48
REMARK Flexibility Score: 90.00
ROOT
ATOM      1  C   UNL     1      92.884  94.171  91.117  1.00  0.00     0.264 C 
ENDROOT
BRANCH   1   2
ATOM      2  C   UNL     1      92.370  95.572  91.357  1.00  0.00    -0.033 C 
ATOM      3  C   UNL     1      93.207  96.618  91.199  1.00  0.00    -0.015 C 
BRANCH   3   4
ATOM      4  C   UNL     1      92.962  98.097  91.449  1.00  0.00     0.078 C 
ATOM      5  O   UNL     1      92.162  99.064  89.318  1.00  0.00    -0.319 OA
ATOM      6  C   UNL     1      91.768  98.794  90.699  1.00  0.00     0.095 CG0
ATOM      7  C   UNL     1      93.497  99.578  89.149  1.00  0.00     0.289 C 
ATOM      8  C   UNL     1      91.473 100.165  91.437  1.00  0.00     0.023 C 
ATOM      9  G   UNL     1      90.553  97.829  90.574  1.00  0.00     0.000 G0
ATOM     10  O   UNL     1      94.467  98.691  89.701  1.00  0.00    -0.320 OA
ATOM     11  O   UNL     1      93.688 100.822  89.817  1.00  0.00    -0.313 OA
ATOM     12  C   UNL     1      94.235  98.907  91.102  1.00  0.00     0.170 C 
ATOM     13  C   UNL     1      92.778 100.796  92.015  1.00  0.00     0.049 C 
ATOM     14  C   UNL     1      90.725 101.218  90.602  1.00  0.00     0.011 C 
ATOM     15  C   UNL     1      94.002 100.436  91.171  1.00  0.00     0.122 C 
BRANCH   7  16
ATOM     16  C   UNL     1      93.752  99.757  87.665  1.00  0.00     0.135 C 
BRANCH  16  17
ATOM     17  C   UNL     1      93.767 101.211  87.265  1.00  0.00    -0.040 A 
ATOM     18  C   UNL     1      92.573 101.927  87.189  1.00  0.00     0.004 A 
ATOM     19  C   UNL     1      94.977 101.839  86.970  1.00  0.00     0.004 A 
ATOM     20  C   UNL     1      92.588 103.272  86.819  1.00  0.00     0.000 A 
ATOM     21  C   UNL     1      94.992 103.185  86.601  1.00  0.00     0.000 A 
ATOM     22  C   UNL     1      93.798 103.900  86.525  1.00  0.00     0.000 A 
ENDBRANCH  16  17
ENDBRANCH   7  16
BRANCH  15  23
ATOM     23  C   UNL     1      95.229 101.173  91.598  1.00  0.00    -0.046 C 
ATOM     24  C   UNL     1      95.994 100.577  92.743  1.00  0.00     0.042 C 
ATOM     25  C   UNL     1      95.625 102.303  90.993  1.00  0.00     0.010 C 
ENDBRANCH  15  23
ENDBRANCH   3   4
BRANCH   2  26
ATOM     26  C   UNL     1      90.906  95.609  91.754  1.00  0.00     0.078 C 
BRANCH  26  27
ATOM     27  C   UNL     1      90.239  96.981  91.833  1.00  0.00     0.140 C 
ATOM     28  C   UNL     1      90.535  97.846  90.591  1.00  0.00     0.086 CG0
ATOM     29  C   UNL     1      88.727  96.893  91.815  1.00  0.00     0.190 C 
ATOM     30  C   UNL     1      89.188  98.408  90.227  1.00  0.00    -0.010 C 
ATOM     31  G   UNL     1      91.758  98.802  90.697  1.00  0.00     0.000 G0
ATOM     32  O   UNL     1      88.053  96.150  92.514  1.00  0.00    -0.291 OA
ATOM     33  C   UNL     1      88.150  97.873  90.877  1.00  0.00    -0.008 C 
ATOM     34  C   UNL     1      86.702  98.118  90.720  1.00  0.00     0.048 C 
BRANCH  27  35
ATOM     35  O   UNL     1      90.526  97.627  93.062  1.00  0.00    -0.381 OA
ATOM     36  H   UNL     1      90.623  98.579  92.893  1.00  0.00     0.212 HD
ENDBRANCH  27  35
ENDBRANCH  26  27
ENDBRANCH   2  26
ENDBRANCH   1   2
BRANCH   1  37
ATOM     37  O   UNL     1      92.226  93.277  91.989  1.00  0.00    -0.461 OA
BRANCH  37  38
ATOM     38  C   UNL     1      92.288  91.944  91.653  1.00  0.00     0.310 C 
ATOM     39  O   UNL     1      92.700  91.054  92.383  1.00  0.00    -0.252 OA
BRANCH  38  40
ATOM     40  C   UNL     1      91.770  91.755  90.247  1.00  0.00     0.158 C 
BRANCH  40  41
ATOM     41  C   UNL     1      92.654  90.866  89.410  1.00  0.00    -0.037 A 
ATOM     42  C   UNL     1      93.622  91.429  88.578  1.00  0.00     0.008 A 
ATOM     43  C   UNL     1      92.504  89.481  89.466  1.00  0.00     0.008 A 
ATOM     44  C   UNL     1      94.439  90.607  87.803  1.00  0.00     0.046 A 
ATOM     45  C   UNL     1      93.321  88.658  88.691  1.00  0.00     0.046 A 
ATOM     46  C   UNL     1      94.289  89.220  87.859  1.00  0.00     0.115 A 
BRANCH  46  47
ATOM     47  O   UNL     1      95.086  88.418  87.102  1.00  0.00    -0.508 OA
ATOM     48  H   UNL     1      94.920  87.490  87.343  1.00  0.00     0.293 HD
ENDBRANCH  46  47
ENDBRANCH  40  41
ENDBRANCH  38  40
ENDBRANCH  37  38
ENDBRANCH   1  37
TORSDOF 10
ENDMDL
MODEL 10
REMARK VINA RESULT:    -5.731     21.398     25.439
REMARK INTER + INTRA:         -10.393
REMARK INTER:                  -9.869
REMARK INTRA:                  -0.523
REMARK UNBOUND:                -0.640
REMARK SMILES C=C(C)[C@]12C[C@@H](C)[C@@]34O[C@](Cc5ccccc5)(O[C@@H]1[C@@H]3C=C(COC(=O)Cc1ccc(O)cc1)C[C@]1(O)C(=O)C(C)=C[C@@H]41)O2
REMARK SMILES IDX 23 1 22 2 21 3 20 4 9 5 8 6 10 7 6 8 18 10 44 11 19 12 5 13
REMARK SMILES IDX 7 14 4 15 11 16 12 17 13 18 17 19 14 20 16 21 15 22 2 23
REMARK SMILES IDX 3 24 1 25 35 26 36 27 43 28 38 29 42 30 39 32 40 33 41 34
REMARK SMILES IDX 37 35 24 37 25 38 26 39 27 40 28 41 29 42 34 43 30 44 33 45
REMARK SMILES IDX 31 46 32 47
REMARK H PARENT 37 36 32 48
REMARK Flexibility Score: 90.00
ROOT
ATOM      1  C   UNL     1      92.209 100.386  72.353  1.00  0.00     0.264 C 
ENDROOT
BRANCH   1   2
ATOM      2  C   UNL     1      93.698 100.204  72.534  1.00  0.00    -0.033 C 
ATOM      3  C   UNL     1      94.220 100.247  73.777  1.00  0.00    -0.015 C 
BRANCH   3   4
ATOM      4  C   UNL     1      95.674 100.169  74.216  1.00  0.00     0.078 C 
ATOM      5  O   UNL     1      96.162  97.788  74.673  1.00  0.00    -0.319 OA
ATOM      6  C   UNL     1      96.515  98.906  73.801  1.00  0.00     0.095 CG0
ATOM      7  C   UNL     1      96.026  98.116  76.069  1.00  0.00     0.289 C 
ATOM      8  C   UNL     1      98.045  99.263  73.999  1.00  0.00     0.023 C 
ATOM      9  G   UNL     1      96.120  98.424  72.374  1.00  0.00     0.000 G0
ATOM     10  O   UNL     1      95.049  99.134  76.269  1.00  0.00    -0.320 OA
ATOM     11  O   UNL     1      97.234  98.627  76.627  1.00  0.00    -0.313 OA
ATOM     12  C   UNL     1      95.763 100.271  75.759  1.00  0.00     0.170 C 
ATOM     13  C   UNL     1      98.255 100.235  75.200  1.00  0.00     0.049 C 
ATOM     14  C   UNL     1      98.991  98.058  74.147  1.00  0.00     0.011 C 
ATOM     15  C   UNL     1      97.199 100.029  76.287  1.00  0.00     0.122 C 
BRANCH   7  16
ATOM     16  C   UNL     1      95.618  96.861  76.814  1.00  0.00     0.135 C 
BRANCH  16  17
ATOM     17  C   UNL     1      94.235  96.398  76.430  1.00  0.00    -0.040 A 
ATOM     18  C   UNL     1      93.133  96.780  77.194  1.00  0.00     0.004 A 
ATOM     19  C   UNL     1      94.058  95.588  75.308  1.00  0.00     0.004 A 
ATOM     20  C   UNL     1      91.854  96.352  76.838  1.00  0.00     0.000 A 
ATOM     21  C   UNL     1      92.779  95.160  74.952  1.00  0.00     0.000 A 
ATOM     22  C   UNL     1      91.678  95.542  75.717  1.00  0.00     0.000 A 
ENDBRANCH  16  17
ENDBRANCH   7  16
BRANCH  15  23
ATOM     23  C   UNL     1      97.484 100.819  77.522  1.00  0.00    -0.046 C 
ATOM     24  C   UNL     1      97.166 100.148  78.825  1.00  0.00     0.042 C 
ATOM     25  C   UNL     1      97.994 102.058  77.469  1.00  0.00     0.010 C 
ENDBRANCH  15  23
ENDBRANCH   3   4
BRANCH   2  26
ATOM     26  C   UNL     1      94.434  99.979  71.227  1.00  0.00     0.078 C 
BRANCH  26  27
ATOM     27  C   UNL     1      95.898  99.552  71.315  1.00  0.00     0.140 C 
ATOM     28  C   UNL     1      96.121  98.445  72.366  1.00  0.00     0.086 CG0
ATOM     29  C   UNL     1      96.388  98.895  70.042  1.00  0.00     0.190 C 
ATOM     30  C   UNL     1      96.995  97.453  71.649  1.00  0.00    -0.010 C 
ATOM     31  G   UNL     1      96.519  98.923  73.792  1.00  0.00     0.000 G0
ATOM     32  O   UNL     1      96.234  99.337  68.913  1.00  0.00    -0.291 OA
ATOM     33  C   UNL     1      97.142  97.663  70.338  1.00  0.00    -0.008 C 
ATOM     34  C   UNL     1      97.850  96.859  69.320  1.00  0.00     0.048 C 
BRANCH  27  35
ATOM     35  O   UNL     1      96.756 100.670  71.471  1.00  0.00    -0.381 OA
ATOM     36  H   UNL     1      96.230 101.416  71.807  1.00  0.00     0.212 HD
ENDBRANCH  27  35
ENDBRANCH  26  27
ENDBRANCH   2  26
ENDBRANCH   1   2
BRANCH   1  37
ATOM     37  O   UNL     1      91.969 101.570  71.622  1.00  0.00    -0.461 OA
BRANCH  37  38
ATOM     38  C   UNL     1      91.211 102.530  72.252  1.00  0.00     0.310 C 
ATOM     39  O   UNL     1      90.972 103.642  71.803  1.00  0.00    -0.252 OA
BRANCH  38  40
ATOM     40  C   UNL     1      90.722 101.996  73.577  1.00  0.00     0.158 C 
BRANCH  40  41
ATOM     41  C   UNL     1      90.190 103.074  74.485  1.00  0.00    -0.037 A 
ATOM     42  C   UNL     1      91.073 103.874  75.211  1.00  0.00     0.008 A 
ATOM     43  C   UNL     1      88.815 103.274  74.600  1.00  0.00     0.008 A 
ATOM     44  C   UNL     1      90.581 104.872  76.052  1.00  0.00     0.046 A 
ATOM     45  C   UNL     1      88.322 104.272  75.441  1.00  0.00     0.046 A 
ATOM     46  C   UNL     1      89.204 105.070  76.167  1.00  0.00     0.115 A 
BRANCH  46  47
ATOM     47  O   UNL     1      88.724 106.044  76.988  1.00  0.00    -0.508 OA
ATOM     48  H   UNL     1      87.904 106.403  76.606  1.00  0.00     0.293 HD
ENDBRANCH  46  47
ENDBRANCH  40  41
ENDBRANCH  38  40
ENDBRANCH  37  38
ENDBRANCH   1  37
TORSDOF 10
ENDMDL
