MODEL 1
REMARK VINA RESULT:    -5.645      0.000      0.000
REMARK INTER + INTRA:          -9.834
REMARK INTER:                  -8.780
REMARK INTRA:                  -1.054
REMARK UNBOUND:                -1.054
REMARK SMILES COc1cc(CNC(=O)CCCCCC(C)C)ccc1O
REMARK SMILES IDX 10 1 8 2 7 3 9 5 6 6 5 7 3 8 20 9 4 10 19 11 18 12 2 13 1 14
REMARK SMILES IDX 21 15 11 17 12 18 13 19 14 20 15 21 16 22 17 23
REMARK H PARENT 7 4 21 16
REMARK Flexibility Score: inf
ROOT
ATOM      1  C   UNL     1      97.011  94.528  81.119  1.00  0.00     0.100 C 
ENDROOT
BRANCH   1   2
ATOM      2  C   UNL     1      95.961  93.640  80.578  1.00  0.00     0.220 C 
ATOM      3  N   UNL     1      95.527  93.819  79.299  1.00  0.00    -0.352 N 
ATOM      4  H   UNL     1      95.873  94.653  78.845  1.00  0.00     0.163 HD
ATOM      5  O   UNL     1      95.520  92.711  81.297  1.00  0.00    -0.275 OA
BRANCH   3   6
ATOM      6  C   UNL     1      94.652  92.935  78.597  1.00  0.00     0.151 C 
BRANCH   6   7
ATOM      7  C   UNL     1      93.428  93.609  78.085  1.00  0.00    -0.025 A 
ATOM      8  C   UNL     1      91.019  93.568  77.592  1.00  0.00     0.160 A 
ATOM      9  C   UNL     1      91.084  94.914  77.173  1.00  0.00     0.157 A 
ATOM     10  C   UNL     1      92.194  92.919  78.027  1.00  0.00     0.056 A 
ATOM     11  C   UNL     1      92.311  95.602  77.201  1.00  0.00     0.050 A 
ATOM     12  C   UNL     1      93.473  94.957  77.659  1.00  0.00     0.009 A 
BRANCH   8  13
ATOM     13  O   UNL     1      89.838  92.874  77.553  1.00  0.00    -0.493 OA
ATOM     14  C   UNL     1      89.907  91.650  76.797  1.00  0.00     0.278 C 
ENDBRANCH   8  13
BRANCH   9  15
ATOM     15  O   UNL     1      89.961  95.547  76.751  1.00  0.00    -0.504 OA
ATOM     16  H   UNL     1      89.606  96.079  77.466  1.00  0.00     0.293 HD
ENDBRANCH   9  15
ENDBRANCH   6   7
ENDBRANCH   3   6
ENDBRANCH   1   2
BRANCH   1  17
ATOM     17  C   UNL     1      97.048  95.940  80.474  1.00  0.00     0.010 C 
BRANCH  17  18
ATOM     18  C   UNL     1      98.427  96.234  79.821  1.00  0.00     0.001 C 
BRANCH  18  19
ATOM     19  C   UNL     1      98.438  96.027  78.283  1.00  0.00     0.000 C 
BRANCH  19  20
ATOM     20  C   UNL     1      97.091  96.444  77.624  1.00  0.00     0.003 C 
BRANCH  20  21
ATOM     21  C   UNL     1      97.182  97.663  76.650  1.00  0.00    -0.017 C 
ATOM     22  C   UNL     1      97.979  97.290  75.366  1.00  0.00     0.007 C 
ATOM     23  C   UNL     1      97.804  98.924  77.317  1.00  0.00     0.007 C 
ENDBRANCH  20  21
ENDBRANCH  19  20
ENDBRANCH  18  19
ENDBRANCH  17  18
ENDBRANCH   1  17
TORSDOF 10
ENDMDL
MODEL 2
REMARK VINA RESULT:    -5.644     13.064     15.261
REMARK INTER + INTRA:          -9.833
REMARK INTER:                  -9.198
REMARK INTRA:                  -0.635
REMARK UNBOUND:                -1.054
REMARK SMILES COc1cc(CNC(=O)CCCCCC(C)C)ccc1O
REMARK SMILES IDX 10 1 8 2 7 3 9 5 6 6 5 7 3 8 20 9 4 10 19 11 18 12 2 13 1 14
REMARK SMILES IDX 21 15 11 17 12 18 13 19 14 20 15 21 16 22 17 23
REMARK H PARENT 7 4 21 16
REMARK Flexibility Score: inf
ROOT
ATOM      1  C   UNL     1      96.350  82.299  77.732  1.00  0.00     0.100 C 
ENDROOT
BRANCH   1   2
ATOM      2  C   UNL     1      96.504  82.904  76.393  1.00  0.00     0.220 C 
ATOM      3  N   UNL     1      97.662  82.710  75.700  1.00  0.00    -0.352 N 
ATOM      4  H   UNL     1      98.401  82.263  76.223  1.00  0.00     0.163 HD
ATOM      5  O   UNL     1      95.546  83.550  75.902  1.00  0.00    -0.275 OA
BRANCH   3   6
ATOM      6  C   UNL     1      97.878  83.086  74.339  1.00  0.00     0.151 C 
BRANCH   6   7
ATOM      7  C   UNL     1      97.865  81.929  73.404  1.00  0.00    -0.025 A 
ATOM      8  C   UNL     1      99.031  80.461  71.812  1.00  0.00     0.160 A 
ATOM      9  C   UNL     1      97.860  79.685  71.674  1.00  0.00     0.157 A 
ATOM     10  C   UNL     1      99.020  81.588  72.661  1.00  0.00     0.056 A 
ATOM     11  C   UNL     1      96.698  80.031  72.388  1.00  0.00     0.050 A 
ATOM     12  C   UNL     1      96.702  81.140  73.251  1.00  0.00     0.009 A 
BRANCH   8  13
ATOM     13  O   UNL     1     100.167  80.154  71.111  1.00  0.00    -0.493 OA
ATOM     14  C   UNL     1     100.678  81.246  70.323  1.00  0.00     0.278 C 
ENDBRANCH   8  13
BRANCH   9  15
ATOM     15  O   UNL     1      97.859  78.601  70.859  1.00  0.00    -0.504 OA
ATOM     16  H   UNL     1      98.112  78.867  69.972  1.00  0.00     0.293 HD
ENDBRANCH   9  15
ENDBRANCH   6   7
ENDBRANCH   3   6
ENDBRANCH   1   2
BRANCH   1  17
ATOM     17  C   UNL     1      97.329  81.129  78.020  1.00  0.00     0.010 C 
BRANCH  17  18
ATOM     18  C   UNL     1      97.691  81.044  79.529  1.00  0.00     0.001 C 
BRANCH  18  19
ATOM     19  C   UNL     1      96.981  82.118  80.394  1.00  0.00     0.000 C 
BRANCH  19  20
ATOM     20  C   UNL     1      97.088  81.812  81.917  1.00  0.00     0.003 C 
BRANCH  20  21
ATOM     21  C   UNL     1      95.821  82.180  82.755  1.00  0.00    -0.017 C 
ATOM     22  C   UNL     1      96.000  83.559  83.457  1.00  0.00     0.007 C 
ATOM     23  C   UNL     1      95.452  81.091  83.803  1.00  0.00     0.007 C 
ENDBRANCH  20  21
ENDBRANCH  19  20
ENDBRANCH  18  19
ENDBRANCH  17  18
ENDBRANCH   1  17
TORSDOF 10
ENDMDL
MODEL 3
REMARK VINA RESULT:    -5.561     13.823     15.395
REMARK INTER + INTRA:          -9.703
REMARK INTER:                  -9.062
REMARK INTRA:                  -0.641
REMARK UNBOUND:                -1.054
REMARK SMILES COc1cc(CNC(=O)CCCCCC(C)C)ccc1O
REMARK SMILES IDX 10 1 8 2 7 3 9 5 6 6 5 7 3 8 20 9 4 10 19 11 18 12 2 13 1 14
REMARK SMILES IDX 21 15 11 17 12 18 13 19 14 20 15 21 16 22 17 23
REMARK H PARENT 7 4 21 16
REMARK Flexibility Score: inf
ROOT
ATOM      1  C   UNL     1      95.006  81.959  85.364  1.00  0.00     0.100 C 
ENDROOT
BRANCH   1   2
ATOM      2  C   UNL     1      93.700  82.140  86.032  1.00  0.00     0.220 C 
ATOM      3  N   UNL     1      92.564  82.186  85.279  1.00  0.00    -0.352 N 
ATOM      4  H   UNL     1      92.717  82.225  84.282  1.00  0.00     0.163 HD
ATOM      5  O   UNL     1      93.661  82.205  87.284  1.00  0.00    -0.275 OA
BRANCH   3   6
ATOM      6  C   UNL     1      91.234  82.183  85.799  1.00  0.00     0.151 C 
BRANCH   6   7
ATOM      7  C   UNL     1      90.399  81.077  85.257  1.00  0.00    -0.025 A 
ATOM      8  C   UNL     1      88.273  80.275  84.317  1.00  0.00     0.160 A 
ATOM      9  C   UNL     1      88.829  78.987  84.163  1.00  0.00     0.157 A 
ATOM     10  C   UNL     1      89.054  81.307  84.879  1.00  0.00     0.056 A 
ATOM     11  C   UNL     1      90.156  78.742  84.560  1.00  0.00     0.050 A 
ATOM     12  C   UNL     1      90.937  79.779  85.097  1.00  0.00     0.009 A 
BRANCH   8  13
ATOM     13  O   UNL     1      86.976  80.530  83.955  1.00  0.00    -0.493 OA
ATOM     14  C   UNL     1      86.310  81.481  84.809  1.00  0.00     0.278 C 
ENDBRANCH   8  13
BRANCH   9  15
ATOM     15  O   UNL     1      88.086  77.988  83.625  1.00  0.00    -0.504 OA
ATOM     16  H   UNL     1      87.571  77.565  84.316  1.00  0.00     0.293 HD
ENDBRANCH   9  15
ENDBRANCH   6   7
ENDBRANCH   3   6
ENDBRANCH   1   2
BRANCH   1  17
ATOM     17  C   UNL     1      94.922  81.840  83.818  1.00  0.00     0.010 C 
BRANCH  17  18
ATOM     18  C   UNL     1      95.994  80.864  83.260  1.00  0.00     0.001 C 
BRANCH  18  19
ATOM     19  C   UNL     1      97.158  81.582  82.527  1.00  0.00     0.000 C 
BRANCH  19  20
ATOM     20  C   UNL     1      96.738  82.097  81.119  1.00  0.00     0.003 C 
BRANCH  20  21
ATOM     21  C   UNL     1      97.553  81.500  79.927  1.00  0.00    -0.017 C 
ATOM     22  C   UNL     1      97.011  82.025  78.565  1.00  0.00     0.007 C 
ATOM     23  C   UNL     1      97.575  79.943  79.929  1.00  0.00     0.007 C 
ENDBRANCH  20  21
ENDBRANCH  19  20
ENDBRANCH  18  19
ENDBRANCH  17  18
ENDBRANCH   1  17
TORSDOF 10
ENDMDL
MODEL 4
REMARK VINA RESULT:    -5.441     21.898     25.913
REMARK INTER + INTRA:          -9.517
REMARK INTER:                  -8.920
REMARK INTRA:                  -0.597
REMARK UNBOUND:                -1.054
REMARK SMILES COc1cc(CNC(=O)CCCCCC(C)C)ccc1O
REMARK SMILES IDX 10 1 8 2 7 3 9 5 6 6 5 7 3 8 20 9 4 10 19 11 18 12 2 13 1 14
REMARK SMILES IDX 21 15 11 17 12 18 13 19 14 20 15 21 16 22 17 23
REMARK H PARENT 7 4 21 16
REMARK Flexibility Score: inf
ROOT
ATOM      1  C   UNL     1      76.352  83.321  64.943  1.00  0.00     0.100 C 
ENDROOT
BRANCH   1   2
ATOM      2  C   UNL     1      76.815  83.976  66.184  1.00  0.00     0.220 C 
ATOM      3  N   UNL     1      76.001  84.869  66.815  1.00  0.00    -0.352 N 
ATOM      4  H   UNL     1      75.169  85.122  66.301  1.00  0.00     0.163 HD
ATOM      5  O   UNL     1      77.936  83.662  66.656  1.00  0.00    -0.275 OA
BRANCH   3   6
ATOM      6  C   UNL     1      76.247  85.439  68.100  1.00  0.00     0.151 C 
BRANCH   6   7
ATOM      7  C   UNL     1      76.015  86.908  68.142  1.00  0.00    -0.025 A 
ATOM      8  C   UNL     1      74.587  88.826  68.717  1.00  0.00     0.160 A 
ATOM      9  C   UNL     1      75.600  89.707  68.283  1.00  0.00     0.157 A 
ATOM     10  C   UNL     1      74.793  87.433  68.627  1.00  0.00     0.056 A 
ATOM     11  C   UNL     1      76.809  89.196  67.775  1.00  0.00     0.050 A 
ATOM     12  C   UNL     1      77.017  87.808  67.710  1.00  0.00     0.009 A 
BRANCH   8  13
ATOM     13  O   UNL     1      73.396  89.303  69.197  1.00  0.00    -0.493 OA
ATOM     14  C   UNL     1      72.246  88.569  68.735  1.00  0.00     0.278 C 
ENDBRANCH   8  13
BRANCH   9  15
ATOM     15  O   UNL     1      75.412  91.048  68.364  1.00  0.00    -0.504 OA
ATOM     16  H   UNL     1      74.501  91.257  68.144  1.00  0.00     0.293 HD
ENDBRANCH   9  15
ENDBRANCH   6   7
ENDBRANCH   3   6
ENDBRANCH   1   2
BRANCH   1  17
ATOM     17  C   UNL     1      75.644  81.958  65.166  1.00  0.00     0.010 C 
BRANCH  17  18
ATOM     18  C   UNL     1      74.114  82.059  64.919  1.00  0.00     0.001 C 
BRANCH  18  19
ATOM     19  C   UNL     1      73.678  81.529  63.527  1.00  0.00     0.000 C 
BRANCH  19  20
ATOM     20  C   UNL     1      72.484  82.335  62.938  1.00  0.00     0.003 C 
BRANCH  20  21
ATOM     21  C   UNL     1      71.097  81.620  63.026  1.00  0.00    -0.017 C 
ATOM     22  C   UNL     1      70.324  82.063  64.303  1.00  0.00     0.007 C 
ATOM     23  C   UNL     1      71.213  80.068  62.984  1.00  0.00     0.007 C 
ENDBRANCH  20  21
ENDBRANCH  19  20
ENDBRANCH  18  19
ENDBRANCH  17  18
ENDBRANCH   1  17
TORSDOF 10
ENDMDL
MODEL 5
REMARK VINA RESULT:    -5.209     12.824     15.198
REMARK INTER + INTRA:          -9.155
REMARK INTER:                  -8.529
REMARK INTRA:                  -0.626
REMARK UNBOUND:                -1.054
REMARK SMILES COc1cc(CNC(=O)CCCCCC(C)C)ccc1O
REMARK SMILES IDX 10 1 8 2 7 3 9 5 6 6 5 7 3 8 20 9 4 10 19 11 18 12 2 13 1 14
REMARK SMILES IDX 21 15 11 17 12 18 13 19 14 20 15 21 16 22 17 23
REMARK H PARENT 7 4 21 16
REMARK Flexibility Score: inf
ROOT
ATOM      1  C   UNL     1      97.738  79.436  81.682  1.00  0.00     0.100 C 
ENDROOT
BRANCH   1   2
ATOM      2  C   UNL     1      98.128  79.478  80.258  1.00  0.00     0.220 C 
ATOM      3  N   UNL     1      98.319  80.683  79.651  1.00  0.00    -0.352 N 
ATOM      4  H   UNL     1      98.046  81.484  80.202  1.00  0.00     0.163 HD
ATOM      5  O   UNL     1      98.317  78.398  79.646  1.00  0.00    -0.275 OA
BRANCH   3   6
ATOM      6  C   UNL     1      98.861  80.868  78.343  1.00  0.00     0.151 C 
BRANCH   6   7
ATOM      7  C   UNL     1      97.963  81.642  77.444  1.00  0.00    -0.025 A 
ATOM      8  C   UNL     1      97.506  82.669  75.256  1.00  0.00     0.160 A 
ATOM      9  C   UNL     1      96.227  83.059  75.709  1.00  0.00     0.157 A 
ATOM     10  C   UNL     1      98.372  81.980  76.132  1.00  0.00     0.056 A 
ATOM     11  C   UNL     1      95.821  82.752  77.021  1.00  0.00     0.050 A 
ATOM     12  C   UNL     1      96.679  82.044  77.880  1.00  0.00     0.009 A 
BRANCH   8  13
ATOM     13  O   UNL     1      97.929  82.976  73.990  1.00  0.00    -0.493 OA
ATOM     14  C   UNL     1      98.193  81.822  73.169  1.00  0.00     0.278 C 
ENDBRANCH   8  13
BRANCH   9  15
ATOM     15  O   UNL     1      95.388  83.723  74.877  1.00  0.00    -0.504 OA
ATOM     16  H   UNL     1      95.896  84.152  74.184  1.00  0.00     0.293 HD
ENDBRANCH   9  15
ENDBRANCH   6   7
ENDBRANCH   3   6
ENDBRANCH   1   2
BRANCH   1  17
ATOM     17  C   UNL     1      96.972  80.694  82.172  1.00  0.00     0.010 C 
BRANCH  17  18
ATOM     18  C   UNL     1      95.814  80.321  83.138  1.00  0.00     0.001 C 
BRANCH  18  19
ATOM     19  C   UNL     1      95.502  81.424  84.183  1.00  0.00     0.000 C 
BRANCH  19  20
ATOM     20  C   UNL     1      93.979  81.540  84.480  1.00  0.00     0.003 C 
BRANCH  20  21
ATOM     21  C   UNL     1      93.326  80.257  85.089  1.00  0.00    -0.017 C 
ATOM     22  C   UNL     1      91.809  80.481  85.360  1.00  0.00     0.007 C 
ATOM     23  C   UNL     1      94.035  79.777  86.389  1.00  0.00     0.007 C 
ENDBRANCH  20  21
ENDBRANCH  19  20
ENDBRANCH  18  19
ENDBRANCH  17  18
ENDBRANCH   1  17
TORSDOF 10
ENDMDL
MODEL 6
REMARK VINA RESULT:    -5.190     13.451     15.526
REMARK INTER + INTRA:          -9.127
REMARK INTER:                  -8.217
REMARK INTRA:                  -0.910
REMARK UNBOUND:                -1.054
REMARK SMILES COc1cc(CNC(=O)CCCCCC(C)C)ccc1O
REMARK SMILES IDX 10 1 8 2 7 3 9 5 6 6 5 7 3 8 20 9 4 10 19 11 18 12 2 13 1 14
REMARK SMILES IDX 21 15 11 17 12 18 13 19 14 20 15 21 16 22 17 23
REMARK H PARENT 7 4 21 16
REMARK Flexibility Score: inf
ROOT
ATOM      1  C   UNL     1      97.131  82.069  78.935  1.00  0.00     0.100 C 
ENDROOT
BRANCH   1   2
ATOM      2  C   UNL     1      96.729  82.377  77.546  1.00  0.00     0.220 C 
ATOM      3  N   UNL     1      97.646  82.265  76.544  1.00  0.00    -0.352 N 
ATOM      4  H   UNL     1      98.594  82.101  76.851  1.00  0.00     0.163 HD
ATOM      5  O   UNL     1      95.538  82.695  77.314  1.00  0.00    -0.275 OA
BRANCH   3   6
ATOM      6  C   UNL     1      97.354  82.362  75.149  1.00  0.00     0.151 C 
BRANCH   6   7
ATOM      7  C   UNL     1      97.204  81.037  74.490  1.00  0.00    -0.025 A 
ATOM      8  C   UNL     1      96.950  79.686  72.451  1.00  0.00     0.160 A 
ATOM      9  C   UNL     1      96.986  78.509  73.229  1.00  0.00     0.157 A 
ATOM     10  C   UNL     1      97.040  80.942  73.088  1.00  0.00     0.056 A 
ATOM     11  C   UNL     1      97.122  78.592  74.627  1.00  0.00     0.050 A 
ATOM     12  C   UNL     1      97.236  79.846  75.253  1.00  0.00     0.009 A 
BRANCH   8  13
ATOM     13  O   UNL     1      96.798  79.627  71.091  1.00  0.00    -0.493 OA
ATOM     14  C   UNL     1      98.042  79.544  70.370  1.00  0.00     0.278 C 
ENDBRANCH   8  13
BRANCH   9  15
ATOM     15  O   UNL     1      96.897  77.296  72.627  1.00  0.00    -0.504 OA
ATOM     16  H   UNL     1      96.935  77.408  71.675  1.00  0.00     0.293 HD
ENDBRANCH   9  15
ENDBRANCH   6   7
ENDBRANCH   3   6
ENDBRANCH   1   2
BRANCH   1  17
ATOM     17  C   UNL     1      98.419  81.211  79.051  1.00  0.00     0.010 C 
BRANCH  17  18
ATOM     18  C   UNL     1      98.527  80.526  80.441  1.00  0.00     0.001 C 
BRANCH  18  19
ATOM     19  C   UNL     1      97.276  79.688  80.815  1.00  0.00     0.000 C 
BRANCH  19  20
ATOM     20  C   UNL     1      96.516  80.279  82.038  1.00  0.00     0.003 C 
BRANCH  20  21
ATOM     21  C   UNL     1      97.129  81.592  82.625  1.00  0.00    -0.017 C 
ATOM     22  C   UNL     1      97.576  81.384  84.102  1.00  0.00     0.007 C 
ATOM     23  C   UNL     1      96.163  82.808  82.525  1.00  0.00     0.007 C 
ENDBRANCH  20  21
ENDBRANCH  19  20
ENDBRANCH  18  19
ENDBRANCH  17  18
ENDBRANCH   1  17
TORSDOF 10
ENDMDL
MODEL 7
REMARK VINA RESULT:    -5.003     21.751     25.012
REMARK INTER + INTRA:          -8.835
REMARK INTER:                  -8.097
REMARK INTRA:                  -0.739
REMARK UNBOUND:                -1.054
REMARK SMILES COc1cc(CNC(=O)CCCCCC(C)C)ccc1O
REMARK SMILES IDX 10 1 8 2 7 3 9 5 6 6 5 7 3 8 20 9 4 10 19 11 18 12 2 13 1 14
REMARK SMILES IDX 21 15 11 17 12 18 13 19 14 20 15 21 16 22 17 23
REMARK H PARENT 7 4 21 16
REMARK Flexibility Score: inf
ROOT
ATOM      1  C   UNL     1      75.833  88.214  66.265  1.00  0.00     0.100 C 
ENDROOT
BRANCH   1   2
ATOM      2  C   UNL     1      76.307  86.833  66.488  1.00  0.00     0.220 C 
ATOM      3  N   UNL     1      75.484  85.787  66.195  1.00  0.00    -0.352 N 
ATOM      4  H   UNL     1      74.536  86.045  65.962  1.00  0.00     0.163 HD
ATOM      5  O   UNL     1      77.477  86.650  66.904  1.00  0.00    -0.275 OA
BRANCH   3   6
ATOM      6  C   UNL     1      75.869  84.412  66.197  1.00  0.00     0.151 C 
BRANCH   6   7
ATOM      7  C   UNL     1      74.734  83.487  65.934  1.00  0.00    -0.025 A 
ATOM      8  C   UNL     1      72.343  83.115  65.500  1.00  0.00     0.160 A 
ATOM      9  C   UNL     1      72.584  81.731  65.367  1.00  0.00     0.157 A 
ATOM     10  C   UNL     1      73.415  83.981  65.801  1.00  0.00     0.056 A 
ATOM     11  C   UNL     1      73.888  81.225  65.524  1.00  0.00     0.050 A 
ATOM     12  C   UNL     1      74.955  82.096  65.800  1.00  0.00     0.009 A 
BRANCH   8  13
ATOM     13  O   UNL     1      71.078  83.626  65.370  1.00  0.00    -0.493 OA
ATOM     14  C   UNL     1      70.487  84.041  66.617  1.00  0.00     0.278 C 
ENDBRANCH   8  13
BRANCH   9  15
ATOM     15  O   UNL     1      71.560  80.890  65.080  1.00  0.00    -0.504 OA
ATOM     16  H   UNL     1      70.928  81.336  64.511  1.00  0.00     0.293 HD
ENDBRANCH   9  15
ENDBRANCH   6   7
ENDBRANCH   3   6
ENDBRANCH   1   2
BRANCH   1  17
ATOM     17  C   UNL     1      76.713  89.307  66.931  1.00  0.00     0.010 C 
BRANCH  17  18
ATOM     18  C   UNL     1      76.349  89.500  68.428  1.00  0.00     0.001 C 
BRANCH  18  19
ATOM     19  C   UNL     1      74.847  89.261  68.734  1.00  0.00     0.000 C 
BRANCH  19  20
ATOM     20  C   UNL     1      74.178  90.498  69.402  1.00  0.00     0.003 C 
BRANCH  20  21
ATOM     21  C   UNL     1      75.074  91.777  69.468  1.00  0.00    -0.017 C 
ATOM     22  C   UNL     1      74.944  92.475  70.854  1.00  0.00     0.007 C 
ATOM     23  C   UNL     1      74.764  92.792  68.329  1.00  0.00     0.007 C 
ENDBRANCH  20  21
ENDBRANCH  19  20
ENDBRANCH  18  19
ENDBRANCH  17  18
ENDBRANCH   1  17
TORSDOF 10
ENDMDL
MODEL 8
REMARK VINA RESULT:    -4.932     25.727     30.393
REMARK INTER + INTRA:          -8.725
REMARK INTER:                  -7.334
REMARK INTRA:                  -1.391
REMARK UNBOUND:                -1.054
REMARK SMILES COc1cc(CNC(=O)CCCCCC(C)C)ccc1O
REMARK SMILES IDX 10 1 8 2 7 3 9 5 6 6 5 7 3 8 20 9 4 10 19 11 18 12 2 13 1 14
REMARK SMILES IDX 21 15 11 17 12 18 13 19 14 20 15 21 16 22 17 23
REMARK H PARENT 7 4 21 16
REMARK Flexibility Score: inf
ROOT
ATOM      1  C   UNL     1      82.646  64.447  75.471  1.00  0.00     0.100 C 
ENDROOT
BRANCH   1   2
ATOM      2  C   UNL     1      83.548  65.550  75.862  1.00  0.00     0.220 C 
ATOM      3  N   UNL     1      83.885  66.497  74.942  1.00  0.00    -0.352 N 
ATOM      4  H   UNL     1      83.588  66.297  73.997  1.00  0.00     0.163 HD
ATOM      5  O   UNL     1      83.953  65.614  77.048  1.00  0.00    -0.275 OA
BRANCH   3   6
ATOM      6  C   UNL     1      84.600  67.700  75.225  1.00  0.00     0.151 C 
BRANCH   6   7
ATOM      7  C   UNL     1      84.701  68.610  74.052  1.00  0.00    -0.025 A 
ATOM      8  C   UNL     1      85.538  70.682  73.027  1.00  0.00     0.160 A 
ATOM      9  C   UNL     1      84.950  70.310  71.799  1.00  0.00     0.157 A 
ATOM     10  C   UNL     1      85.395  69.840  74.149  1.00  0.00     0.056 A 
ATOM     11  C   UNL     1      84.235  69.102  71.698  1.00  0.00     0.050 A 
ATOM     12  C   UNL     1      84.116  68.256  72.814  1.00  0.00     0.009 A 
BRANCH   8  13
ATOM     13  O   UNL     1      86.222  71.863  73.151  1.00  0.00    -0.493 OA
ATOM     14  C   UNL     1      86.597  72.178  74.506  1.00  0.00     0.278 C 
ENDBRANCH   8  13
BRANCH   9  15
ATOM     15  O   UNL     1      85.080  71.114  70.715  1.00  0.00    -0.504 OA
ATOM     16  H   UNL     1      84.210  71.365  70.395  1.00  0.00     0.293 HD
ENDBRANCH   9  15
ENDBRANCH   6   7
ENDBRANCH   3   6
ENDBRANCH   1   2
BRANCH   1  17
ATOM     17  C   UNL     1      81.177  64.627  75.940  1.00  0.00     0.010 C 
BRANCH  17  18
ATOM     18  C   UNL     1      80.403  65.618  75.029  1.00  0.00     0.001 C 
BRANCH  18  19
ATOM     19  C   UNL     1      80.411  65.214  73.531  1.00  0.00     0.000 C 
BRANCH  19  20
ATOM     20  C   UNL     1      80.876  66.379  72.610  1.00  0.00     0.003 C 
BRANCH  20  21
ATOM     21  C   UNL     1      81.739  65.945  71.380  1.00  0.00    -0.017 C 
ATOM     22  C   UNL     1      80.846  65.318  70.269  1.00  0.00     0.007 C 
ATOM     23  C   UNL     1      82.884  64.963  71.762  1.00  0.00     0.007 C 
ENDBRANCH  20  21
ENDBRANCH  19  20
ENDBRANCH  18  19
ENDBRANCH  17  18
ENDBRANCH   1  17
TORSDOF 10
ENDMDL
MODEL 9
REMARK VINA RESULT:    -4.917      4.228      7.702
REMARK INTER + INTRA:          -8.702
REMARK INTER:                  -8.082
REMARK INTRA:                  -0.620
REMARK UNBOUND:                -1.054
REMARK SMILES COc1cc(CNC(=O)CCCCCC(C)C)ccc1O
REMARK SMILES IDX 10 1 8 2 7 3 9 5 6 6 5 7 3 8 20 9 4 10 19 11 18 12 2 13 1 14
REMARK SMILES IDX 21 15 11 17 12 18 13 19 14 20 15 21 16 22 17 23
REMARK H PARENT 7 4 21 16
REMARK Flexibility Score: inf
ROOT
ATOM      1  C   UNL     1      95.490  95.312  79.216  1.00  0.00     0.100 C 
ENDROOT
BRANCH   1   2
ATOM      2  C   UNL     1      96.476  95.824  80.189  1.00  0.00     0.220 C 
ATOM      3  N   UNL     1      96.043  96.339  81.374  1.00  0.00    -0.352 N 
ATOM      4  H   UNL     1      95.042  96.455  81.447  1.00  0.00     0.163 HD
ATOM      5  O   UNL     1      97.699  95.735  79.921  1.00  0.00    -0.275 OA
BRANCH   3   6
ATOM      6  C   UNL     1      96.884  96.706  82.468  1.00  0.00     0.151 C 
BRANCH   6   7
ATOM      7  C   UNL     1      96.593  98.066  82.998  1.00  0.00    -0.025 A 
ATOM      8  C   UNL     1      95.616 100.304  82.708  1.00  0.00     0.160 A 
ATOM      9  C   UNL     1      95.980 100.632  84.032  1.00  0.00     0.157 A 
ATOM     10  C   UNL     1      95.942  99.031  82.194  1.00  0.00     0.056 A 
ATOM     11  C   UNL     1      96.651  99.689  84.832  1.00  0.00     0.050 A 
ATOM     12  C   UNL     1      96.951  98.414  84.322  1.00  0.00     0.009 A 
BRANCH   8  13
ATOM     13  O   UNL     1      94.980 101.214  81.906  1.00  0.00    -0.493 OA
ATOM     14  C   UNL     1      95.755 101.626  80.763  1.00  0.00     0.278 C 
ENDBRANCH   8  13
BRANCH   9  15
ATOM     15  O   UNL     1      95.673 101.853  84.535  1.00  0.00    -0.504 OA
ATOM     16  H   UNL     1      95.030 102.282  83.966  1.00  0.00     0.293 HD
ENDBRANCH   9  15
ENDBRANCH   6   7
ENDBRANCH   3   6
ENDBRANCH   1   2
BRANCH   1  17
ATOM     17  C   UNL     1      95.962  94.061  78.426  1.00  0.00     0.010 C 
BRANCH  17  18
ATOM     18  C   UNL     1      94.878  93.572  77.426  1.00  0.00     0.001 C 
BRANCH  18  19
ATOM     19  C   UNL     1      93.506  94.272  77.615  1.00  0.00     0.000 C 
BRANCH  19  20
ATOM     20  C   UNL     1      92.437  93.316  78.219  1.00  0.00     0.003 C 
BRANCH  20  21
ATOM     21  C   UNL     1      91.072  93.285  77.456  1.00  0.00    -0.017 C 
ATOM     22  C   UNL     1      91.085  92.201  76.339  1.00  0.00     0.007 C 
ATOM     23  C   UNL     1      90.684  94.667  76.855  1.00  0.00     0.007 C 
ENDBRANCH  20  21
ENDBRANCH  19  20
ENDBRANCH  18  19
ENDBRANCH  17  18
ENDBRANCH   1  17
TORSDOF 10
ENDMDL
MODEL 10
REMARK VINA RESULT:    -4.888      3.524      7.888
REMARK INTER + INTRA:          -8.657
REMARK INTER:                  -8.060
REMARK INTRA:                  -0.597
REMARK UNBOUND:                -1.054
REMARK SMILES COc1cc(CNC(=O)CCCCCC(C)C)ccc1O
REMARK SMILES IDX 10 1 8 2 7 3 9 5 6 6 5 7 3 8 20 9 4 10 19 11 18 12 2 13 1 14
REMARK SMILES IDX 21 15 11 17 12 18 13 19 14 20 15 21 16 22 17 23
REMARK H PARENT 7 4 21 16
REMARK Flexibility Score: inf
ROOT
ATOM      1  C   UNL     1      96.991  94.272  78.693  1.00  0.00     0.100 C 
ENDROOT
BRANCH   1   2
ATOM      2  C   UNL     1      96.974  94.680  80.113  1.00  0.00     0.220 C 
ATOM      3  N   UNL     1      96.071  95.612  80.531  1.00  0.00    -0.352 N 
ATOM      4  H   UNL     1      95.552  96.062  79.791  1.00  0.00     0.163 HD
ATOM      5  O   UNL     1      97.766  94.128  80.915  1.00  0.00    -0.275 OA
BRANCH   3   6
ATOM      6  C   UNL     1      95.829  95.968  81.892  1.00  0.00     0.151 C 
BRANCH   6   7
ATOM      7  C   UNL     1      96.545  97.205  82.308  1.00  0.00    -0.025 A 
ATOM      8  C   UNL     1      98.473  98.295  83.376  1.00  0.00     0.160 A 
ATOM      9  C   UNL     1      97.941  99.558  83.042  1.00  0.00     0.157 A 
ATOM     10  C   UNL     1      97.763  97.127  83.024  1.00  0.00     0.056 A 
ATOM     11  C   UNL     1      96.717  99.647  82.354  1.00  0.00     0.050 A 
ATOM     12  C   UNL     1      96.027  98.480  81.985  1.00  0.00     0.009 A 
BRANCH   8  13
ATOM     13  O   UNL     1      99.654  98.187  84.063  1.00  0.00    -0.493 OA
ATOM     14  C   UNL     1     100.561  97.212  83.512  1.00  0.00     0.278 C 
ENDBRANCH   8  13
BRANCH   9  15
ATOM     15  O   UNL     1      98.614 100.687  83.377  1.00  0.00    -0.504 OA
ATOM     16  H   UNL     1      99.403 100.762  82.836  1.00  0.00     0.293 HD
ENDBRANCH   9  15
ENDBRANCH   6   7
ENDBRANCH   3   6
ENDBRANCH   1   2
BRANCH   1  17
ATOM     17  C   UNL     1      95.875  93.266  78.304  1.00  0.00     0.010 C 
BRANCH  17  18
ATOM     18  C   UNL     1      94.669  93.981  77.634  1.00  0.00     0.001 C 
BRANCH  18  19
ATOM     19  C   UNL     1      93.316  93.703  78.343  1.00  0.00     0.000 C 
BRANCH  19  20
ATOM     20  C   UNL     1      92.288  93.014  77.398  1.00  0.00     0.003 C 
BRANCH  20  21
ATOM     21  C   UNL     1      90.793  93.378  77.674  1.00  0.00    -0.017 C 
ATOM     22  C   UNL     1      89.861  92.171  77.356  1.00  0.00     0.007 C 
ATOM     23  C   UNL     1      90.322  94.637  76.890  1.00  0.00     0.007 C 
ENDBRANCH  20  21
ENDBRANCH  19  20
ENDBRANCH  18  19
ENDBRANCH  17  18
ENDBRANCH   1  17
TORSDOF 10
ENDMDL
