MODEL 1
REMARK VINA RESULT:    -5.937      0.000      0.000
REMARK INTER + INTRA:         -10.177
REMARK INTER:                  -9.234
REMARK INTRA:                  -0.943
REMARK UNBOUND:                -0.943
REMARK SMILES COc1cc(CNC(=O)CCCC/C=C/C(C)C)ccc1O
REMARK SMILES IDX 10 1 8 2 7 3 9 5 6 6 5 7 3 8 21 9 4 10 20 11 19 12 2 13 1 14
REMARK SMILES IDX 22 15 11 17 12 18 13 19 14 20 15 21 16 22 17 23 18 24
REMARK H PARENT 7 4 22 16
REMARK Flexibility Score: inf
ROOT
ATOM      1  C   UNL     1      99.526  81.802  79.476  1.00  0.00     0.100 C 
ENDROOT
BRANCH   1   2
ATOM      2  C   UNL     1      99.295  81.107  80.757  1.00  0.00     0.220 C 
ATOM      3  N   UNL     1      99.012  81.814  81.887  1.00  0.00    -0.352 N 
ATOM      4  H   UNL     1      99.002  82.818  81.770  1.00  0.00     0.163 HD
ATOM      5  O   UNL     1      99.343  79.853  80.767  1.00  0.00    -0.275 OA
BRANCH   3   6
ATOM      6  C   UNL     1      98.742  81.236  83.164  1.00  0.00     0.151 C 
BRANCH   6   7
ATOM      7  C   UNL     1      97.852  82.106  83.981  1.00  0.00    -0.025 A 
ATOM      8  C   UNL     1      96.349  82.402  85.908  1.00  0.00     0.160 A 
ATOM      9  C   UNL     1      96.167  83.757  85.559  1.00  0.00     0.157 A 
ATOM     10  C   UNL     1      97.187  81.590  85.116  1.00  0.00     0.056 A 
ATOM     11  C   UNL     1      96.808  84.280  84.419  1.00  0.00     0.050 A 
ATOM     12  C   UNL     1      97.652  83.465  83.641  1.00  0.00     0.009 A 
BRANCH   8  13
ATOM     13  O   UNL     1      95.676  81.871  86.979  1.00  0.00    -0.493 OA
ATOM     14  C   UNL     1      96.215  80.623  87.451  1.00  0.00     0.278 C 
ENDBRANCH   8  13
BRANCH   9  15
ATOM     15  O   UNL     1      95.378  84.569  86.309  1.00  0.00    -0.504 OA
ATOM     16  H   UNL     1      95.038  84.080  87.062  1.00  0.00     0.293 HD
ENDBRANCH   9  15
ENDBRANCH   6   7
ENDBRANCH   3   6
ENDBRANCH   1   2
BRANCH   1  17
ATOM     17  C   UNL     1      98.912  83.228  79.480  1.00  0.00     0.010 C 
BRANCH  17  18
ATOM     18  C   UNL     1      97.462  83.264  78.919  1.00  0.00     0.005 C 
BRANCH  18  19
ATOM     19  C   UNL     1      97.428  83.507  77.386  1.00  0.00     0.027 C 
BRANCH  19  20
ATOM     20  C   UNL     1      98.672  84.080  76.895  1.00  0.00    -0.031 C 
ATOM     21  C   UNL     1      99.420  83.538  75.917  1.00  0.00    -0.028 C 
BRANCH  21  22
ATOM     22  C   UNL     1     100.658  84.143  75.425  1.00  0.00     0.005 C 
ATOM     23  C   UNL     1     100.441  85.590  74.905  1.00  0.00     0.012 C 
ATOM     24  C   UNL     1     101.747  84.109  76.529  1.00  0.00     0.012 C 
ENDBRANCH  21  22
ENDBRANCH  19  20
ENDBRANCH  18  19
ENDBRANCH  17  18
ENDBRANCH   1  17
TORSDOF 10
ENDMDL
MODEL 2
REMARK VINA RESULT:    -5.925      3.073      9.091
REMARK INTER + INTRA:         -10.159
REMARK INTER:                  -9.618
REMARK INTRA:                  -0.540
REMARK UNBOUND:                -0.943
REMARK SMILES COc1cc(CNC(=O)CCCC/C=C/C(C)C)ccc1O
REMARK SMILES IDX 10 1 8 2 7 3 9 5 6 6 5 7 3 8 21 9 4 10 20 11 19 12 2 13 1 14
REMARK SMILES IDX 22 15 11 17 12 18 13 19 14 20 15 21 16 22 17 23 18 24
REMARK H PARENT 7 4 22 16
REMARK Flexibility Score: inf
ROOT
ATOM      1  C   UNL     1      98.392  82.824  85.034  1.00  0.00     0.100 C 
ENDROOT
BRANCH   1   2
ATOM      2  C   UNL     1      99.252  82.451  83.895  1.00  0.00     0.220 C 
ATOM      3  N   UNL     1      99.046  82.998  82.664  1.00  0.00    -0.352 N 
ATOM      4  H   UNL     1      98.265  83.637  82.606  1.00  0.00     0.163 HD
ATOM      5  O   UNL     1     100.187  81.639  84.100  1.00  0.00    -0.275 OA
BRANCH   3   6
ATOM      6  C   UNL     1      99.841  82.728  81.508  1.00  0.00     0.151 C 
BRANCH   6   7
ATOM      7  C   UNL     1      99.101  83.034  80.253  1.00  0.00    -0.025 A 
ATOM      8  C   UNL     1      99.087  83.332  77.809  1.00  0.00     0.160 A 
ATOM      9  C   UNL     1      97.702  83.595  77.848  1.00  0.00     0.157 A 
ATOM     10  C   UNL     1      99.773  83.056  79.011  1.00  0.00     0.056 A 
ATOM     11  C   UNL     1      97.022  83.596  79.082  1.00  0.00     0.050 A 
ATOM     12  C   UNL     1      97.713  83.308  80.275  1.00  0.00     0.009 A 
BRANCH   8  13
ATOM     13  O   UNL     1      99.766  83.395  76.619  1.00  0.00    -0.493 OA
ATOM     14  C   UNL     1     100.181  82.114  76.111  1.00  0.00     0.278 C 
ENDBRANCH   8  13
BRANCH   9  15
ATOM     15  O   UNL     1      97.010  83.851  76.709  1.00  0.00    -0.504 OA
ATOM     16  H   UNL     1      96.647  84.739  76.746  1.00  0.00     0.293 HD
ENDBRANCH   9  15
ENDBRANCH   6   7
ENDBRANCH   3   6
ENDBRANCH   1   2
BRANCH   1  17
ATOM     17  C   UNL     1      97.047  82.050  85.013  1.00  0.00     0.010 C 
BRANCH  17  18
ATOM     18  C   UNL     1      96.422  81.885  86.427  1.00  0.00     0.005 C 
BRANCH  18  19
ATOM     19  C   UNL     1      95.102  82.687  86.587  1.00  0.00     0.027 C 
BRANCH  19  20
ATOM     20  C   UNL     1      93.940  81.816  86.682  1.00  0.00    -0.031 C 
ATOM     21  C   UNL     1      92.667  82.251  86.685  1.00  0.00    -0.028 C 
BRANCH  21  22
ATOM     22  C   UNL     1      91.513  81.355  86.763  1.00  0.00     0.005 C 
ATOM     23  C   UNL     1      90.206  82.035  86.270  1.00  0.00     0.012 C 
ATOM     24  C   UNL     1      91.792  80.052  85.969  1.00  0.00     0.012 C 
ENDBRANCH  21  22
ENDBRANCH  19  20
ENDBRANCH  18  19
ENDBRANCH  17  18
ENDBRANCH   1  17
TORSDOF 10
ENDMDL
MODEL 3
REMARK VINA RESULT:    -5.760     25.613     27.836
REMARK INTER + INTRA:          -9.901
REMARK INTER:                  -8.969
REMARK INTRA:                  -0.932
REMARK UNBOUND:                -0.943
REMARK SMILES COc1cc(CNC(=O)CCCC/C=C/C(C)C)ccc1O
REMARK SMILES IDX 10 1 8 2 7 3 9 5 6 6 5 7 3 8 21 9 4 10 20 11 19 12 2 13 1 14
REMARK SMILES IDX 22 15 11 17 12 18 13 19 14 20 15 21 16 22 17 23 18 24
REMARK H PARENT 7 4 22 16
REMARK Flexibility Score: inf
ROOT
ATOM      1  C   UNL     1      75.920  81.511  65.101  1.00  0.00     0.100 C 
ENDROOT
BRANCH   1   2
ATOM      2  C   UNL     1      76.850  82.613  65.413  1.00  0.00     0.220 C 
ATOM      3  N   UNL     1      77.345  82.764  66.674  1.00  0.00    -0.352 N 
ATOM      4  H   UNL     1      77.008  82.090  67.348  1.00  0.00     0.163 HD
ATOM      5  O   UNL     1      77.186  83.386  64.484  1.00  0.00    -0.275 OA
BRANCH   3   6
ATOM      6  C   UNL     1      78.273  83.774  67.070  1.00  0.00     0.151 C 
BRANCH   6   7
ATOM      7  C   UNL     1      77.627  84.801  67.932  1.00  0.00    -0.025 A 
ATOM      8  C   UNL     1      75.769  85.491  69.393  1.00  0.00     0.160 A 
ATOM      9  C   UNL     1      76.390  86.741  69.594  1.00  0.00     0.157 A 
ATOM     10  C   UNL     1      76.391  84.535  68.563  1.00  0.00     0.056 A 
ATOM     11  C   UNL     1      77.613  87.028  68.956  1.00  0.00     0.050 A 
ATOM     12  C   UNL     1      78.232  86.063  68.138  1.00  0.00     0.009 A 
BRANCH   8  13
ATOM     13  O   UNL     1      74.546  85.232  69.959  1.00  0.00    -0.493 OA
ATOM     14  C   UNL     1      73.429  85.498  69.092  1.00  0.00     0.278 C 
ENDBRANCH   8  13
BRANCH   9  15
ATOM     15  O   UNL     1      75.824  87.679  70.397  1.00  0.00    -0.504 OA
ATOM     16  H   UNL     1      75.459  87.255  71.177  1.00  0.00     0.293 HD
ENDBRANCH   9  15
ENDBRANCH   6   7
ENDBRANCH   3   6
ENDBRANCH   1   2
BRANCH   1  17
ATOM     17  C   UNL     1      75.688  81.374  63.572  1.00  0.00     0.010 C 
BRANCH  17  18
ATOM     18  C   UNL     1      74.231  80.965  63.216  1.00  0.00     0.005 C 
BRANCH  18  19
ATOM     19  C   UNL     1      73.431  80.486  64.457  1.00  0.00     0.027 C 
BRANCH  19  20
ATOM     20  C   UNL     1      72.283  81.337  64.731  1.00  0.00    -0.031 C 
ATOM     21  C   UNL     1      72.113  82.035  65.869  1.00  0.00    -0.028 C 
BRANCH  21  22
ATOM     22  C   UNL     1      70.959  82.900  66.114  1.00  0.00     0.005 C 
ATOM     23  C   UNL     1      69.975  82.924  64.912  1.00  0.00     0.012 C 
ATOM     24  C   UNL     1      70.234  82.470  67.415  1.00  0.00     0.012 C 
ENDBRANCH  21  22
ENDBRANCH  19  20
ENDBRANCH  18  19
ENDBRANCH  17  18
ENDBRANCH   1  17
TORSDOF 10
ENDMDL
MODEL 4
REMARK VINA RESULT:    -5.675     17.093     20.352
REMARK INTER + INTRA:          -9.770
REMARK INTER:                  -9.108
REMARK INTRA:                  -0.663
REMARK UNBOUND:                -0.943
REMARK SMILES COc1cc(CNC(=O)CCCC/C=C/C(C)C)ccc1O
REMARK SMILES IDX 10 1 8 2 7 3 9 5 6 6 5 7 3 8 21 9 4 10 20 11 19 12 2 13 1 14
REMARK SMILES IDX 22 15 11 17 12 18 13 19 14 20 15 21 16 22 17 23 18 24
REMARK H PARENT 7 4 22 16
REMARK Flexibility Score: inf
ROOT
ATOM      1  C   UNL     1      93.193  99.170  75.162  1.00  0.00     0.100 C 
ENDROOT
BRANCH   1   2
ATOM      2  C   UNL     1      93.181  99.674  73.776  1.00  0.00     0.220 C 
ATOM      3  N   UNL     1      92.006 100.009  73.172  1.00  0.00    -0.352 N 
ATOM      4  H   UNL     1      91.180  99.861  73.735  1.00  0.00     0.163 HD
ATOM      5  O   UNL     1      94.280  99.807  73.184  1.00  0.00    -0.275 OA
BRANCH   3   6
ATOM      6  C   UNL     1      91.890 100.535  71.849  1.00  0.00     0.151 C 
BRANCH   6   7
ATOM      7  C   UNL     1      90.857  99.810  71.061  1.00  0.00    -0.025 A 
ATOM      8  C   UNL     1      89.509  99.587  69.013  1.00  0.00     0.160 A 
ATOM      9  C   UNL     1      88.902  98.427  69.537  1.00  0.00     0.157 A 
ATOM     10  C   UNL     1      90.478 100.268  69.780  1.00  0.00     0.056 A 
ATOM     11  C   UNL     1      89.256  97.969  70.822  1.00  0.00     0.050 A 
ATOM     12  C   UNL     1      90.233  98.649  71.575  1.00  0.00     0.009 A 
BRANCH   8  13
ATOM     13  O   UNL     1      89.120 100.074  67.791  1.00  0.00    -0.493 OA
ATOM     14  C   UNL     1      88.408 101.324  67.856  1.00  0.00     0.278 C 
ENDBRANCH   8  13
BRANCH   9  15
ATOM     15  O   UNL     1      87.976  97.741  68.819  1.00  0.00    -0.504 OA
ATOM     16  H   UNL     1      87.199  98.291  68.689  1.00  0.00     0.293 HD
ENDBRANCH   9  15
ENDBRANCH   6   7
ENDBRANCH   3   6
ENDBRANCH   1   2
BRANCH   1  17
ATOM     17  C   UNL     1      92.841  97.659  75.224  1.00  0.00     0.010 C 
BRANCH  17  18
ATOM     18  C   UNL     1      93.177  97.016  76.600  1.00  0.00     0.005 C 
BRANCH  18  19
ATOM     19  C   UNL     1      94.638  96.495  76.667  1.00  0.00     0.027 C 
BRANCH  19  20
ATOM     20  C   UNL     1      94.991  96.026  77.999  1.00  0.00    -0.031 C 
ATOM     21  C   UNL     1      94.098  95.606  78.913  1.00  0.00    -0.028 C 
BRANCH  21  22
ATOM     22  C   UNL     1      94.476  95.119  80.240  1.00  0.00     0.005 C 
ATOM     23  C   UNL     1      95.614  94.063  80.177  1.00  0.00     0.012 C 
ATOM     24  C   UNL     1      94.874  96.307  81.153  1.00  0.00     0.012 C 
ENDBRANCH  21  22
ENDBRANCH  19  20
ENDBRANCH  18  19
ENDBRANCH  17  18
ENDBRANCH   1  17
TORSDOF 10
ENDMDL
MODEL 5
REMARK VINA RESULT:    -5.549     23.874     25.131
REMARK INTER + INTRA:          -9.573
REMARK INTER:                  -8.998
REMARK INTRA:                  -0.575
REMARK UNBOUND:                -0.943
REMARK SMILES COc1cc(CNC(=O)CCCC/C=C/C(C)C)ccc1O
REMARK SMILES IDX 10 1 8 2 7 3 9 5 6 6 5 7 3 8 21 9 4 10 20 11 19 12 2 13 1 14
REMARK SMILES IDX 22 15 11 17 12 18 13 19 14 20 15 21 16 22 17 23 18 24
REMARK H PARENT 7 4 22 16
REMARK Flexibility Score: inf
ROOT
ATOM      1  C   UNL     1      75.501  92.466  71.508  1.00  0.00     0.100 C 
ENDROOT
BRANCH   1   2
ATOM      2  C   UNL     1      76.681  92.564  72.388  1.00  0.00     0.220 C 
ATOM      3  N   UNL     1      76.545  92.953  73.687  1.00  0.00    -0.352 N 
ATOM      4  H   UNL     1      75.601  93.180  73.967  1.00  0.00     0.163 HD
ATOM      5  O   UNL     1      77.802  92.258  71.913  1.00  0.00    -0.275 OA
BRANCH   3   6
ATOM      6  C   UNL     1      77.616  93.048  74.627  1.00  0.00     0.151 C 
BRANCH   6   7
ATOM      7  C   UNL     1      77.117  93.356  75.995  1.00  0.00    -0.025 A 
ATOM      8  C   UNL     1      75.374  93.148  77.722  1.00  0.00     0.160 A 
ATOM      9  C   UNL     1      76.158  93.916  78.607  1.00  0.00     0.157 A 
ATOM     10  C   UNL     1      75.859  92.877  76.425  1.00  0.00     0.056 A 
ATOM     11  C   UNL     1      77.406  94.416  78.185  1.00  0.00     0.050 A 
ATOM     12  C   UNL     1      77.887  94.131  76.893  1.00  0.00     0.009 A 
BRANCH   8  13
ATOM     13  O   UNL     1      74.130  92.714  78.104  1.00  0.00    -0.493 OA
ATOM     14  C   UNL     1      73.669  91.551  77.392  1.00  0.00     0.278 C 
ENDBRANCH   8  13
BRANCH   9  15
ATOM     15  O   UNL     1      75.727  94.184  79.866  1.00  0.00    -0.504 OA
ATOM     16  H   UNL     1      74.769  94.120  79.898  1.00  0.00     0.293 HD
ENDBRANCH   9  15
ENDBRANCH   6   7
ENDBRANCH   3   6
ENDBRANCH   1   2
BRANCH   1  17
ATOM     17  C   UNL     1      74.808  91.083  71.631  1.00  0.00     0.010 C 
BRANCH  17  18
ATOM     18  C   UNL     1      75.327  90.051  70.590  1.00  0.00     0.005 C 
BRANCH  18  19
ATOM     19  C   UNL     1      74.698  88.645  70.787  1.00  0.00     0.027 C 
BRANCH  19  20
ATOM     20  C   UNL     1      75.624  87.578  70.441  1.00  0.00    -0.031 C 
ATOM     21  C   UNL     1      75.309  86.270  70.455  1.00  0.00    -0.028 C 
BRANCH  21  22
ATOM     22  C   UNL     1      76.251  85.214  70.084  1.00  0.00     0.005 C 
ATOM     23  C   UNL     1      77.673  85.768  69.792  1.00  0.00     0.012 C 
ATOM     24  C   UNL     1      76.297  84.125  71.187  1.00  0.00     0.012 C 
ENDBRANCH  21  22
ENDBRANCH  19  20
ENDBRANCH  18  19
ENDBRANCH  17  18
ENDBRANCH   1  17
TORSDOF 10
ENDMDL
MODEL 6
REMARK VINA RESULT:    -5.487     25.165     27.660
REMARK INTER + INTRA:          -9.477
REMARK INTER:                  -8.009
REMARK INTRA:                  -1.467
REMARK UNBOUND:                -0.943
REMARK SMILES COc1cc(CNC(=O)CCCC/C=C/C(C)C)ccc1O
REMARK SMILES IDX 10 1 8 2 7 3 9 5 6 6 5 7 3 8 21 9 4 10 20 11 19 12 2 13 1 14
REMARK SMILES IDX 22 15 11 17 12 18 13 19 14 20 15 21 16 22 17 23 18 24
REMARK H PARENT 7 4 22 16
REMARK Flexibility Score: inf
ROOT
ATOM      1  C   UNL     1      72.361  83.262  64.683  1.00  0.00     0.100 C 
ENDROOT
BRANCH   1   2
ATOM      2  C   UNL     1      73.740  83.657  64.335  1.00  0.00     0.220 C 
ATOM      3  N   UNL     1      74.792  82.858  64.667  1.00  0.00    -0.352 N 
ATOM      4  H   UNL     1      74.547  82.019  65.174  1.00  0.00     0.163 HD
ATOM      5  O   UNL     1      73.908  84.731  63.709  1.00  0.00    -0.275 OA
BRANCH   3   6
ATOM      6  C   UNL     1      76.157  83.133  64.349  1.00  0.00     0.151 C 
BRANCH   6   7
ATOM      7  C   UNL     1      76.868  83.767  65.493  1.00  0.00    -0.025 A 
ATOM      8  C   UNL     1      77.468  85.782  66.774  1.00  0.00     0.160 A 
ATOM      9  C   UNL     1      78.201  84.989  67.680  1.00  0.00     0.157 A 
ATOM     10  C   UNL     1      76.811  85.165  65.689  1.00  0.00     0.056 A 
ATOM     11  C   UNL     1      78.282  83.596  67.487  1.00  0.00     0.050 A 
ATOM     12  C   UNL     1      77.613  82.987  66.408  1.00  0.00     0.009 A 
BRANCH   8  13
ATOM     13  O   UNL     1      77.440  87.146  66.920  1.00  0.00    -0.493 OA
ATOM     14  C   UNL     1      76.288  87.776  66.330  1.00  0.00     0.278 C 
ENDBRANCH   8  13
BRANCH   9  15
ATOM     15  O   UNL     1      78.834  85.550  68.743  1.00  0.00    -0.504 OA
ATOM     16  H   UNL     1      78.953  84.891  69.430  1.00  0.00     0.293 HD
ENDBRANCH   9  15
ENDBRANCH   6   7
ENDBRANCH   3   6
ENDBRANCH   1   2
BRANCH   1  17
ATOM     17  C   UNL     1      72.180  83.106  66.217  1.00  0.00     0.010 C 
BRANCH  17  18
ATOM     18  C   UNL     1      73.234  83.904  67.035  1.00  0.00     0.005 C 
BRANCH  18  19
ATOM     19  C   UNL     1      72.662  85.231  67.601  1.00  0.00     0.027 C 
BRANCH  19  20
ATOM     20  C   UNL     1      73.361  85.659  68.804  1.00  0.00    -0.031 C 
ATOM     21  C   UNL     1      74.577  85.216  69.170  1.00  0.00    -0.028 C 
BRANCH  21  22
ATOM     22  C   UNL     1      75.270  85.675  70.374  1.00  0.00     0.005 C 
ATOM     23  C   UNL     1      76.290  84.628  70.902  1.00  0.00     0.012 C 
ATOM     24  C   UNL     1      75.963  87.037  70.107  1.00  0.00     0.012 C 
ENDBRANCH  21  22
ENDBRANCH  19  20
ENDBRANCH  18  19
ENDBRANCH  17  18
ENDBRANCH   1  17
TORSDOF 10
ENDMDL
MODEL 7
REMARK VINA RESULT:    -5.478     26.140     28.638
REMARK INTER + INTRA:          -9.463
REMARK INTER:                  -8.608
REMARK INTRA:                  -0.855
REMARK UNBOUND:                -0.943
REMARK SMILES COc1cc(CNC(=O)CCCC/C=C/C(C)C)ccc1O
REMARK SMILES IDX 10 1 8 2 7 3 9 5 6 6 5 7 3 8 21 9 4 10 20 11 19 12 2 13 1 14
REMARK SMILES IDX 22 15 11 17 12 18 13 19 14 20 15 21 16 22 17 23 18 24
REMARK H PARENT 7 4 22 16
REMARK Flexibility Score: inf
ROOT
ATOM      1  C   UNL     1      76.484  86.813  65.933  1.00  0.00     0.100 C 
ENDROOT
BRANCH   1   2
ATOM      2  C   UNL     1      75.680  85.733  66.536  1.00  0.00     0.220 C 
ATOM      3  N   UNL     1      76.019  84.428  66.342  1.00  0.00    -0.352 N 
ATOM      4  H   UNL     1      76.825  84.280  65.751  1.00  0.00     0.163 HD
ATOM      5  O   UNL     1      74.696  86.053  67.247  1.00  0.00    -0.275 OA
BRANCH   3   6
ATOM      6  C   UNL     1      75.328  83.313  66.906  1.00  0.00     0.151 C 
BRANCH   6   7
ATOM      7  C   UNL     1      74.547  82.575  65.875  1.00  0.00    -0.025 A 
ATOM      8  C   UNL     1      72.615  82.451  64.354  1.00  0.00     0.160 A 
ATOM      9  C   UNL     1      73.057  81.192  63.895  1.00  0.00     0.157 A 
ATOM     10  C   UNL     1      73.362  83.129  65.340  1.00  0.00     0.056 A 
ATOM     11  C   UNL     1      74.226  80.619  64.434  1.00  0.00     0.050 A 
ATOM     12  C   UNL     1      74.972  81.309  65.410  1.00  0.00     0.009 A 
BRANCH   8  13
ATOM     13  O   UNL     1      71.443  82.982  63.880  1.00  0.00    -0.493 OA
ATOM     14  C   UNL     1      70.367  82.975  64.836  1.00  0.00     0.278 C 
ENDBRANCH   8  13
BRANCH   9  15
ATOM     15  O   UNL     1      72.368  80.519  62.938  1.00  0.00    -0.504 OA
ATOM     16  H   UNL     1      71.730  79.934  63.353  1.00  0.00     0.293 HD
ENDBRANCH   9  15
ENDBRANCH   6   7
ENDBRANCH   3   6
ENDBRANCH   1   2
BRANCH   1  17
ATOM     17  C   UNL     1      77.243  87.632  67.012  1.00  0.00     0.010 C 
BRANCH  17  18
ATOM     18  C   UNL     1      77.976  86.735  68.048  1.00  0.00     0.005 C 
BRANCH  18  19
ATOM     19  C   UNL     1      77.500  87.002  69.502  1.00  0.00     0.027 C 
BRANCH  19  20
ATOM     20  C   UNL     1      76.438  87.995  69.556  1.00  0.00    -0.031 C 
ATOM     21  C   UNL     1      75.663  88.214  70.634  1.00  0.00    -0.028 C 
BRANCH  21  22
ATOM     22  C   UNL     1      74.613  89.232  70.674  1.00  0.00     0.005 C 
ATOM     23  C   UNL     1      73.451  88.842  71.629  1.00  0.00     0.012 C 
ATOM     24  C   UNL     1      75.214  90.607  71.065  1.00  0.00     0.012 C 
ENDBRANCH  21  22
ENDBRANCH  19  20
ENDBRANCH  18  19
ENDBRANCH  17  18
ENDBRANCH   1  17
TORSDOF 10
ENDMDL
MODEL 8
REMARK VINA RESULT:    -5.441     17.207     20.426
REMARK INTER + INTRA:          -9.406
REMARK INTER:                  -8.779
REMARK INTRA:                  -0.627
REMARK UNBOUND:                -0.943
REMARK SMILES COc1cc(CNC(=O)CCCC/C=C/C(C)C)ccc1O
REMARK SMILES IDX 10 1 8 2 7 3 9 5 6 6 5 7 3 8 21 9 4 10 20 11 19 12 2 13 1 14
REMARK SMILES IDX 22 15 11 17 12 18 13 19 14 20 15 21 16 22 17 23 18 24
REMARK H PARENT 7 4 22 16
REMARK Flexibility Score: inf
ROOT
ATOM      1  C   UNL     1      94.101  99.202  73.814  1.00  0.00     0.100 C 
ENDROOT
BRANCH   1   2
ATOM      2  C   UNL     1      93.351 100.312  73.196  1.00  0.00     0.220 C 
ATOM      3  N   UNL     1      92.036 100.162  72.871  1.00  0.00    -0.352 N 
ATOM      4  H   UNL     1      91.651  99.248  73.065  1.00  0.00     0.163 HD
ATOM      5  O   UNL     1      93.951 101.397  73.002  1.00  0.00    -0.275 OA
BRANCH   3   6
ATOM      6  C   UNL     1      91.216 101.181  72.301  1.00  0.00     0.151 C 
BRANCH   6   7
ATOM      7  C   UNL     1      90.391 100.655  71.179  1.00  0.00    -0.025 A 
ATOM      8  C   UNL     1      89.120  98.813  70.153  1.00  0.00     0.160 A 
ATOM      9  C   UNL     1      88.802  99.642  69.057  1.00  0.00     0.157 A 
ATOM     10  C   UNL     1      89.913  99.326  71.201  1.00  0.00     0.056 A 
ATOM     11  C   UNL     1      89.288 100.963  69.011  1.00  0.00     0.050 A 
ATOM     12  C   UNL     1      90.069 101.470  70.068  1.00  0.00     0.009 A 
BRANCH   8  13
ATOM     13  O   UNL     1      88.704  97.506  70.170  1.00  0.00    -0.493 OA
ATOM     14  C   UNL     1      89.779  96.548  70.156  1.00  0.00     0.278 C 
ENDBRANCH   8  13
BRANCH   9  15
ATOM     15  O   UNL     1      88.030  99.183  68.038  1.00  0.00    -0.504 OA
ATOM     16  H   UNL     1      88.021  98.223  68.050  1.00  0.00     0.293 HD
ENDBRANCH   9  15
ENDBRANCH   6   7
ENDBRANCH   3   6
ENDBRANCH   1   2
BRANCH   1  17
ATOM     17  C   UNL     1      93.706  99.003  75.302  1.00  0.00     0.010 C 
BRANCH  17  18
ATOM     18  C   UNL     1      94.698  98.088  76.075  1.00  0.00     0.005 C 
BRANCH  18  19
ATOM     19  C   UNL     1      94.560  96.595  75.672  1.00  0.00     0.027 C 
BRANCH  19  20
ATOM     20  C   UNL     1      93.798  95.833  76.650  1.00  0.00    -0.031 C 
ATOM     21  C   UNL     1      92.998  94.796  76.343  1.00  0.00    -0.028 C 
BRANCH  21  22
ATOM     22  C   UNL     1      92.255  94.031  77.344  1.00  0.00     0.005 C 
ATOM     23  C   UNL     1      91.322  94.932  78.201  1.00  0.00     0.012 C 
ATOM     24  C   UNL     1      91.452  92.893  76.663  1.00  0.00     0.012 C 
ENDBRANCH  21  22
ENDBRANCH  19  20
ENDBRANCH  18  19
ENDBRANCH  17  18
ENDBRANCH   1  17
TORSDOF 10
ENDMDL
MODEL 9
REMARK VINA RESULT:    -5.416     36.210     37.964
REMARK INTER + INTRA:          -9.366
REMARK INTER:                  -8.053
REMARK INTRA:                  -1.314
REMARK UNBOUND:                -0.943
REMARK SMILES COc1cc(CNC(=O)CCCC/C=C/C(C)C)ccc1O
REMARK SMILES IDX 10 1 8 2 7 3 9 5 6 6 5 7 3 8 21 9 4 10 20 11 19 12 2 13 1 14
REMARK SMILES IDX 22 15 11 17 12 18 13 19 14 20 15 21 16 22 17 23 18 24
REMARK H PARENT 7 4 22 16
REMARK Flexibility Score: inf
ROOT
ATOM      1  C   UNL     1      64.672  81.939  69.934  1.00  0.00     0.100 C 
ENDROOT
BRANCH   1   2
ATOM      2  C   UNL     1      64.195  83.314  69.693  1.00  0.00     0.220 C 
ATOM      3  N   UNL     1      62.915  83.540  69.283  1.00  0.00    -0.352 N 
ATOM      4  H   UNL     1      62.358  82.708  69.144  1.00  0.00     0.163 HD
ATOM      5  O   UNL     1      64.991  84.262  69.898  1.00  0.00    -0.275 OA
BRANCH   3   6
ATOM      6  C   UNL     1      62.348  84.830  69.053  1.00  0.00     0.151 C 
BRANCH   6   7
ATOM      7  C   UNL     1      61.395  85.208  70.132  1.00  0.00    -0.025 A 
ATOM      8  C   UNL     1      59.720  86.766  71.043  1.00  0.00     0.160 A 
ATOM      9  C   UNL     1      59.559  85.935  72.171  1.00  0.00     0.157 A 
ATOM     10  C   UNL     1      60.637  86.397  70.037  1.00  0.00     0.056 A 
ATOM     11  C   UNL     1      60.323  84.757  72.290  1.00  0.00     0.050 A 
ATOM     12  C   UNL     1      61.227  84.390  71.274  1.00  0.00     0.009 A 
BRANCH   8  13
ATOM     13  O   UNL     1      59.028  87.947  70.955  1.00  0.00    -0.493 OA
ATOM     14  C   UNL     1      58.099  88.002  69.856  1.00  0.00     0.278 C 
ENDBRANCH   8  13
BRANCH   9  15
ATOM     15  O   UNL     1      58.676  86.255  73.152  1.00  0.00    -0.504 OA
ATOM     16  H   UNL     1      58.082  85.516  73.302  1.00  0.00     0.293 HD
ENDBRANCH   9  15
ENDBRANCH   6   7
ENDBRANCH   3   6
ENDBRANCH   1   2
BRANCH   1  17
ATOM     17  C   UNL     1      64.796  81.634  71.451  1.00  0.00     0.010 C 
BRANCH  17  18
ATOM     18  C   UNL     1      63.422  81.618  72.179  1.00  0.00     0.005 C 
BRANCH  18  19
ATOM     19  C   UNL     1      63.546  81.181  73.664  1.00  0.00     0.027 C 
BRANCH  19  20
ATOM     20  C   UNL     1      63.568  82.320  74.569  1.00  0.00    -0.031 C 
ATOM     21  C   UNL     1      62.486  82.797  75.211  1.00  0.00    -0.028 C 
BRANCH  21  22
ATOM     22  C   UNL     1      62.535  83.931  76.133  1.00  0.00     0.005 C 
ATOM     23  C   UNL     1      63.829  83.936  76.993  1.00  0.00     0.012 C 
ATOM     24  C   UNL     1      62.385  85.263  75.352  1.00  0.00     0.012 C 
ENDBRANCH  21  22
ENDBRANCH  19  20
ENDBRANCH  18  19
ENDBRANCH  17  18
ENDBRANCH   1  17
TORSDOF 10
ENDMDL
MODEL 10
REMARK VINA RESULT:    -5.359     13.945     15.649
REMARK INTER + INTRA:          -9.278
REMARK INTER:                  -8.605
REMARK INTRA:                  -0.673
REMARK UNBOUND:                -0.943
REMARK SMILES COc1cc(CNC(=O)CCCC/C=C/C(C)C)ccc1O
REMARK SMILES IDX 10 1 8 2 7 3 9 5 6 6 5 7 3 8 21 9 4 10 20 11 19 12 2 13 1 14
REMARK SMILES IDX 22 15 11 17 12 18 13 19 14 20 15 21 16 22 17 23 18 24
REMARK H PARENT 7 4 22 16
REMARK Flexibility Score: inf
ROOT
ATOM      1  C   UNL     1      94.528  96.438  80.763  1.00  0.00     0.100 C 
ENDROOT
BRANCH   1   2
ATOM      2  C   UNL     1      95.361  96.319  81.975  1.00  0.00     0.220 C 
ATOM      3  N   UNL     1      96.299  97.264  82.265  1.00  0.00    -0.352 N 
ATOM      4  H   UNL     1      96.379  98.008  81.585  1.00  0.00     0.163 HD
ATOM      5  O   UNL     1      95.164  95.340  82.735  1.00  0.00    -0.275 OA
BRANCH   3   6
ATOM      6  C   UNL     1      97.131  97.257  83.425  1.00  0.00     0.151 C 
BRANCH   6   7
ATOM      7  C   UNL     1      96.616  98.180  84.473  1.00  0.00    -0.025 A 
ATOM      8  C   UNL     1      95.555 100.313  85.096  1.00  0.00     0.160 A 
ATOM      9  C   UNL     1      95.611  99.944  86.457  1.00  0.00     0.157 A 
ATOM     10  C   UNL     1      96.059  99.430  84.119  1.00  0.00     0.056 A 
ATOM     11  C   UNL     1      96.181  98.710  86.826  1.00  0.00     0.050 A 
ATOM     12  C   UNL     1      96.671  97.830  85.842  1.00  0.00     0.009 A 
BRANCH   8  13
ATOM     13  O   UNL     1      95.061 101.541  84.737  1.00  0.00    -0.493 OA
ATOM     14  C   UNL     1      94.327 101.539  83.498  1.00  0.00     0.278 C 
ENDBRANCH   8  13
BRANCH   9  15
ATOM     15  O   UNL     1      95.122 100.765  87.421  1.00  0.00    -0.504 OA
ATOM     16  H   UNL     1      95.849 101.117  87.941  1.00  0.00     0.293 HD
ENDBRANCH   9  15
ENDBRANCH   6   7
ENDBRANCH   3   6
ENDBRANCH   1   2
BRANCH   1  17
ATOM     17  C   UNL     1      95.341  96.133  79.477  1.00  0.00     0.010 C 
BRANCH  17  18
ATOM     18  C   UNL     1      94.878  94.831  78.763  1.00  0.00     0.005 C 
BRANCH  18  19
ATOM     19  C   UNL     1      93.795  94.068  79.571  1.00  0.00     0.027 C 
BRANCH  19  20
ATOM     20  C   UNL     1      92.452  94.338  79.079  1.00  0.00    -0.031 C 
ATOM     21  C   UNL     1      91.992  93.938  77.880  1.00  0.00    -0.028 C 
BRANCH  21  22
ATOM     22  C   UNL     1      90.632  94.204  77.413  1.00  0.00     0.005 C 
ATOM     23  C   UNL     1      89.569  93.386  78.197  1.00  0.00     0.012 C 
ATOM     24  C   UNL     1      90.327  95.723  77.488  1.00  0.00     0.012 C 
ENDBRANCH  21  22
ENDBRANCH  19  20
ENDBRANCH  18  19
ENDBRANCH  17  18
ENDBRANCH   1  17
TORSDOF 10
ENDMDL
