MODEL 1
REMARK VINA RESULT:    -5.424      0.000      0.000
REMARK INTER + INTRA:         -10.746
REMARK INTER:                  -8.912
REMARK INTRA:                  -1.834
REMARK UNBOUND:                -1.834
REMARK SMILES CCCCC[C@H](O)CC(=O)CCc1ccc(O)c(OC)c1
REMARK SMILES IDX 8 1 6 2 7 3 5 5 4 6 3 7 2 8 1 9 9 10 10 11 11 12 12 13 13 14
REMARK SMILES IDX 21 15 14 16 18 17 15 18 16 19 19 20 20 21 17 22
REMARK H PARENT 7 4 17 23
REMARK Flexibility Score: inf
ROOT
ATOM      1  C   UNL     1      82.947  91.436  87.761  1.00  0.00     0.107 C 
ENDROOT
BRANCH   1   2
ATOM      2  C   UNL     1      83.477  90.500  88.849  1.00  0.00     0.121 C 
BRANCH   2   3
ATOM      3  O   UNL     1      84.303  91.230  89.754  1.00  0.00    -0.393 OA
ATOM      4  H   UNL     1      84.253  92.171  89.510  1.00  0.00     0.210 HD
ENDBRANCH   2   3
BRANCH   2   5
ATOM      5  C   UNL     1      82.362  89.801  89.636  1.00  0.00     0.032 C 
BRANCH   5   6
ATOM      6  C   UNL     1      81.905  88.504  88.958  1.00  0.00     0.003 C 
BRANCH   6   7
ATOM      7  C   UNL     1      80.589  88.652  88.188  1.00  0.00    -0.000 C 
BRANCH   7   8
ATOM      8  C   UNL     1      79.499  87.684  88.644  1.00  0.00    -0.003 C 
ATOM      9  C   UNL     1      80.092  86.476  89.352  1.00  0.00     0.004 C 
ENDBRANCH   7   8
ENDBRANCH   6   7
ENDBRANCH   5   6
ENDBRANCH   2   5
ENDBRANCH   1   2
BRANCH   1  10
ATOM     10  C   UNL     1      83.988  91.774  86.706  1.00  0.00     0.135 C 
ATOM     11  O   UNL     1      84.443  92.913  86.608  1.00  0.00    -0.300 OA
BRANCH  10  12
ATOM     12  C   UNL     1      84.461  90.628  85.823  1.00  0.00     0.080 C 
BRANCH  12  13
ATOM     13  C   UNL     1      83.450  90.223  84.749  1.00  0.00     0.043 C 
BRANCH  13  14
ATOM     14  C   UNL     1      82.823  88.872  85.006  1.00  0.00    -0.044 A 
ATOM     15  C   UNL     1      81.593  88.554  84.432  1.00  0.00     0.054 A 
ATOM     16  C   UNL     1      83.477  87.944  85.816  1.00  0.00     0.008 A 
ATOM     17  C   UNL     1      81.016  87.306  84.669  1.00  0.00     0.160 A 
ATOM     18  C   UNL     1      82.900  86.696  86.053  1.00  0.00     0.050 A 
ATOM     19  C   UNL     1      81.669  86.377  85.480  1.00  0.00     0.157 A 
BRANCH  17  20
ATOM     20  O   UNL     1      79.813  87.006  84.104  1.00  0.00    -0.493 OA
ATOM     21  C   UNL     1      79.749  87.003  82.679  1.00  0.00     0.278 C 
ENDBRANCH  17  20
BRANCH  19  22
ATOM     22  O   UNL     1      81.116  85.156  85.719  1.00  0.00    -0.504 OA
ATOM     23  H   UNL     1      81.546  84.760  86.496  1.00  0.00     0.293 HD
ENDBRANCH  19  22
ENDBRANCH  13  14
ENDBRANCH  12  13
ENDBRANCH  10  12
ENDBRANCH   1  10
TORSDOF 12
ENDMDL
MODEL 2
REMARK VINA RESULT:    -5.376      2.285      4.854
REMARK INTER + INTRA:         -10.667
REMARK INTER:                  -9.217
REMARK INTRA:                  -1.450
REMARK UNBOUND:                -1.834
REMARK SMILES CCCCC[C@H](O)CC(=O)CCc1ccc(O)c(OC)c1
REMARK SMILES IDX 8 1 6 2 7 3 5 5 4 6 3 7 2 8 1 9 9 10 10 11 11 12 12 13 13 14
REMARK SMILES IDX 21 15 14 16 18 17 15 18 16 19 19 20 20 21 17 22
REMARK H PARENT 7 4 17 23
REMARK Flexibility Score: inf
ROOT
ATOM      1  C   UNL     1      83.649  90.568  85.586  1.00  0.00     0.107 C 
ENDROOT
BRANCH   1   2
ATOM      2  C   UNL     1      84.476  90.356  86.857  1.00  0.00     0.121 C 
BRANCH   2   3
ATOM      3  O   UNL     1      85.752  90.975  86.711  1.00  0.00    -0.393 OA
ATOM      4  H   UNL     1      86.361  90.553  87.343  1.00  0.00     0.210 HD
ENDBRANCH   2   3
BRANCH   2   5
ATOM      5  C   UNL     1      83.792  90.901  88.116  1.00  0.00     0.032 C 
BRANCH   5   6
ATOM      6  C   UNL     1      82.651  91.869  87.779  1.00  0.00     0.003 C 
BRANCH   6   7
ATOM      7  C   UNL     1      82.918  93.305  88.242  1.00  0.00    -0.000 C 
BRANCH   7   8
ATOM      8  C   UNL     1      83.800  94.103  87.283  1.00  0.00    -0.003 C 
ATOM      9  C   UNL     1      83.799  95.584  87.631  1.00  0.00     0.004 C 
ENDBRANCH   7   8
ENDBRANCH   6   7
ENDBRANCH   5   6
ENDBRANCH   2   5
ENDBRANCH   1   2
BRANCH   1  10
ATOM     10  C   UNL     1      83.020  89.286  85.065  1.00  0.00     0.135 C 
ATOM     11  O   UNL     1      83.627  88.217  85.116  1.00  0.00    -0.300 OA
BRANCH  10  12
ATOM     12  C   UNL     1      81.601  89.393  84.526  1.00  0.00     0.080 C 
BRANCH  12  13
ATOM     13  C   UNL     1      80.568  89.779  85.587  1.00  0.00     0.043 C 
BRANCH  13  14
ATOM     14  C   UNL     1      80.476  88.779  86.715  1.00  0.00    -0.044 A 
ATOM     15  C   UNL     1      80.518  89.215  88.039  1.00  0.00     0.054 A 
ATOM     16  C   UNL     1      80.347  87.419  86.431  1.00  0.00     0.008 A 
ATOM     17  C   UNL     1      80.432  88.290  89.080  1.00  0.00     0.160 A 
ATOM     18  C   UNL     1      80.260  86.494  87.472  1.00  0.00     0.050 A 
ATOM     19  C   UNL     1      80.303  86.930  88.797  1.00  0.00     0.157 A 
BRANCH  17  20
ATOM     20  O   UNL     1      80.475  88.727  90.370  1.00  0.00    -0.493 OA
ATOM     21  C   UNL     1      80.376  90.135  90.580  1.00  0.00     0.278 C 
ENDBRANCH  17  20
BRANCH  19  22
ATOM     22  O   UNL     1      80.217  86.018  89.804  1.00  0.00    -0.504 OA
ATOM     23  H   UNL     1      79.403  85.498  89.693  1.00  0.00     0.293 HD
ENDBRANCH  19  22
ENDBRANCH  13  14
ENDBRANCH  12  13
ENDBRANCH  10  12
ENDBRANCH   1  10
TORSDOF 12
ENDMDL
MODEL 3
REMARK VINA RESULT:    -5.360     12.931     15.316
REMARK INTER + INTRA:         -10.641
REMARK INTER:                  -9.784
REMARK INTRA:                  -0.857
REMARK UNBOUND:                -1.834
REMARK SMILES CCCCC[C@H](O)CC(=O)CCc1ccc(O)c(OC)c1
REMARK SMILES IDX 8 1 6 2 7 3 5 5 4 6 3 7 2 8 1 9 9 10 10 11 11 12 12 13 13 14
REMARK SMILES IDX 21 15 14 16 18 17 15 18 16 19 19 20 20 21 17 22
REMARK H PARENT 7 4 17 23
REMARK Flexibility Score: inf
ROOT
ATOM      1  C   UNL     1      95.527  93.656  77.238  1.00  0.00     0.107 C 
ENDROOT
BRANCH   1   2
ATOM      2  C   UNL     1      96.088  94.626  78.280  1.00  0.00     0.121 C 
BRANCH   2   3
ATOM      3  O   UNL     1      96.198  95.931  77.717  1.00  0.00    -0.393 OA
ATOM      4  H   UNL     1      96.696  96.484  78.344  1.00  0.00     0.210 HD
ENDBRANCH   2   3
BRANCH   2   5
ATOM      5  C   UNL     1      95.237  94.696  79.554  1.00  0.00     0.032 C 
BRANCH   5   6
ATOM      6  C   UNL     1      96.085  94.550  80.823  1.00  0.00     0.003 C 
BRANCH   6   7
ATOM      7  C   UNL     1      95.509  95.302  82.027  1.00  0.00    -0.000 C 
BRANCH   7   8
ATOM      8  C   UNL     1      96.344  96.510  82.450  1.00  0.00    -0.003 C 
ATOM      9  C   UNL     1      96.360  97.579  81.369  1.00  0.00     0.004 C 
ENDBRANCH   7   8
ENDBRANCH   6   7
ENDBRANCH   5   6
ENDBRANCH   2   5
ENDBRANCH   1   2
BRANCH   1  10
ATOM     10  C   UNL     1      94.549  94.314  76.277  1.00  0.00     0.135 C 
ATOM     11  O   UNL     1      94.920  94.719  75.176  1.00  0.00    -0.300 OA
BRANCH  10  12
ATOM     12  C   UNL     1      93.100  94.400  76.732  1.00  0.00     0.080 C 
BRANCH  12  13
ATOM     13  C   UNL     1      92.113  93.744  75.765  1.00  0.00     0.043 C 
BRANCH  13  14
ATOM     14  C   UNL     1      91.453  92.512  76.337  1.00  0.00    -0.044 A 
ATOM     15  C   UNL     1      91.341  91.357  75.564  1.00  0.00     0.054 A 
ATOM     16  C   UNL     1      90.955  92.530  77.640  1.00  0.00     0.008 A 
ATOM     17  C   UNL     1      90.732  90.219  76.094  1.00  0.00     0.160 A 
ATOM     18  C   UNL     1      90.346  91.392  78.171  1.00  0.00     0.050 A 
ATOM     19  C   UNL     1      90.235  90.237  77.397  1.00  0.00     0.157 A 
BRANCH  17  20
ATOM     20  O   UNL     1      90.628  89.097  75.329  1.00  0.00    -0.493 OA
ATOM     21  C   UNL     1      90.167  89.266  73.989  1.00  0.00     0.278 C 
ENDBRANCH  17  20
BRANCH  19  22
ATOM     22  O   UNL     1      89.638  89.133  77.926  1.00  0.00    -0.504 OA
ATOM     23  H   UNL     1      90.305  88.610  78.404  1.00  0.00     0.293 HD
ENDBRANCH  19  22
ENDBRANCH  13  14
ENDBRANCH  12  13
ENDBRANCH  10  12
ENDBRANCH   1  10
TORSDOF 12
ENDMDL
MODEL 4
REMARK VINA RESULT:    -5.328      1.293      2.369
REMARK INTER + INTRA:         -10.588
REMARK INTER:                  -8.690
REMARK INTRA:                  -1.899
REMARK UNBOUND:                -1.834
REMARK SMILES CCCCC[C@H](O)CC(=O)CCc1ccc(O)c(OC)c1
REMARK SMILES IDX 8 1 6 2 7 3 5 5 4 6 3 7 2 8 1 9 9 10 10 11 11 12 12 13 13 14
REMARK SMILES IDX 21 15 14 16 18 17 15 18 16 19 19 20 20 21 17 22
REMARK H PARENT 7 4 17 23
REMARK Flexibility Score: inf
ROOT
ATOM      1  C   UNL     1      83.458  90.155  89.429  1.00  0.00     0.107 C 
ENDROOT
BRANCH   1   2
ATOM      2  C   UNL     1      82.112  89.537  89.814  1.00  0.00     0.121 C 
BRANCH   2   3
ATOM      3  O   UNL     1      81.075  90.504  89.661  1.00  0.00    -0.393 OA
ATOM      4  H   UNL     1      80.564  90.526  90.489  1.00  0.00     0.210 HD
ENDBRANCH   2   3
BRANCH   2   5
ATOM      5  C   UNL     1      81.765  88.291  88.989  1.00  0.00     0.032 C 
BRANCH   5   6
ATOM      6  C   UNL     1      80.399  88.415  88.304  1.00  0.00     0.003 C 
BRANCH   6   7
ATOM      7  C   UNL     1      79.535  87.157  88.445  1.00  0.00    -0.000 C 
BRANCH   7   8
ATOM      8  C   UNL     1      79.570  86.543  89.843  1.00  0.00    -0.003 C 
ATOM      9  C   UNL     1      78.677  87.309  90.807  1.00  0.00     0.004 C 
ENDBRANCH   7   8
ENDBRANCH   6   7
ENDBRANCH   5   6
ENDBRANCH   2   5
ENDBRANCH   1   2
BRANCH   1  10
ATOM     10  C   UNL     1      83.439  90.824  88.064  1.00  0.00     0.135 C 
ATOM     11  O   UNL     1      83.036  91.979  87.932  1.00  0.00    -0.300 OA
BRANCH  10  12
ATOM     12  C   UNL     1      83.981  90.011  86.898  1.00  0.00     0.080 C 
BRANCH  12  13
ATOM     13  C   UNL     1      83.283  90.302  85.569  1.00  0.00     0.043 C 
BRANCH  13  14
ATOM     14  C   UNL     1      82.256  89.259  85.198  1.00  0.00    -0.044 A 
ATOM     15  C   UNL     1      82.528  87.907  85.408  1.00  0.00     0.054 A 
ATOM     16  C   UNL     1      81.035  89.648  84.646  1.00  0.00     0.008 A 
ATOM     17  C   UNL     1      81.578  86.944  85.066  1.00  0.00     0.160 A 
ATOM     18  C   UNL     1      80.085  88.685  84.304  1.00  0.00     0.050 A 
ATOM     19  C   UNL     1      80.357  87.333  84.514  1.00  0.00     0.157 A 
BRANCH  17  20
ATOM     20  O   UNL     1      81.855  85.626  85.275  1.00  0.00    -0.493 OA
ATOM     21  C   UNL     1      82.729  85.311  86.357  1.00  0.00     0.278 C 
ENDBRANCH  17  20
BRANCH  19  22
ATOM     22  O   UNL     1      79.422  86.402  84.176  1.00  0.00    -0.504 OA
ATOM     23  H   UNL     1      79.569  85.599  84.705  1.00  0.00     0.293 HD
ENDBRANCH  19  22
ENDBRANCH  13  14
ENDBRANCH  12  13
ENDBRANCH  10  12
ENDBRANCH   1  10
TORSDOF 12
ENDMDL
MODEL 5
REMARK VINA RESULT:    -5.312      1.909      5.872
REMARK INTER + INTRA:         -10.562
REMARK INTER:                  -8.934
REMARK INTRA:                  -1.628
REMARK UNBOUND:                -1.834
REMARK SMILES CCCCC[C@H](O)CC(=O)CCc1ccc(O)c(OC)c1
REMARK SMILES IDX 8 1 6 2 7 3 5 5 4 6 3 7 2 8 1 9 9 10 10 11 11 12 12 13 13 14
REMARK SMILES IDX 21 15 14 16 18 17 15 18 16 19 19 20 20 21 17 22
REMARK H PARENT 7 4 17 23
REMARK Flexibility Score: inf
ROOT
ATOM      1  C   UNL     1      80.189  86.590  88.054  1.00  0.00     0.107 C 
ENDROOT
BRANCH   1   2
ATOM      2  C   UNL     1      81.649  86.346  87.665  1.00  0.00     0.121 C 
BRANCH   2   3
ATOM      3  O   UNL     1      82.249  85.435  88.584  1.00  0.00    -0.393 OA
ATOM      4  H   UNL     1      81.533  84.953  89.034  1.00  0.00     0.210 HD
ENDBRANCH   2   3
BRANCH   2   5
ATOM      5  C   UNL     1      81.808  85.803  86.240  1.00  0.00     0.032 C 
BRANCH   5   6
ATOM      6  C   UNL     1      80.555  86.043  85.389  1.00  0.00     0.003 C 
BRANCH   6   7
ATOM      7  C   UNL     1      80.861  86.235  83.900  1.00  0.00    -0.000 C 
BRANCH   7   8
ATOM      8  C   UNL     1      80.198  87.470  83.293  1.00  0.00    -0.003 C 
ATOM      9  C   UNL     1      79.404  88.242  84.336  1.00  0.00     0.004 C 
ENDBRANCH   7   8
ENDBRANCH   6   7
ENDBRANCH   5   6
ENDBRANCH   2   5
ENDBRANCH   1   2
BRANCH   1  10
ATOM     10  C   UNL     1      80.040  87.426  89.314  1.00  0.00     0.135 C 
ATOM     11  O   UNL     1      80.256  86.942  90.425  1.00  0.00    -0.300 OA
BRANCH  10  12
ATOM     12  C   UNL     1      79.660  88.887  89.122  1.00  0.00     0.080 C 
BRANCH  12  13
ATOM     13  C   UNL     1      80.001  89.433  87.735  1.00  0.00     0.043 C 
BRANCH  13  14
ATOM     14  C   UNL     1      81.447  89.850  87.602  1.00  0.00    -0.044 A 
ATOM     15  C   UNL     1      82.197  90.141  88.742  1.00  0.00     0.054 A 
ATOM     16  C   UNL     1      82.032  89.944  86.339  1.00  0.00     0.008 A 
ATOM     17  C   UNL     1      83.532  90.525  88.618  1.00  0.00     0.160 A 
ATOM     18  C   UNL     1      83.367  90.328  86.215  1.00  0.00     0.050 A 
ATOM     19  C   UNL     1      84.117  90.619  87.354  1.00  0.00     0.157 A 
BRANCH  17  20
ATOM     20  O   UNL     1      84.255  90.807  89.738  1.00  0.00    -0.493 OA
ATOM     21  C   UNL     1      83.810  91.901  90.537  1.00  0.00     0.278 C 
ENDBRANCH  17  20
BRANCH  19  22
ATOM     22  O   UNL     1      85.420  90.993  87.221  1.00  0.00    -0.504 OA
ATOM     23  H   UNL     1      85.476  91.963  87.257  1.00  0.00     0.293 HD
ENDBRANCH  19  22
ENDBRANCH  13  14
ENDBRANCH  12  13
ENDBRANCH  10  12
ENDBRANCH   1  10
TORSDOF 12
ENDMDL
MODEL 6
REMARK VINA RESULT:    -5.231      2.055      5.464
REMARK INTER + INTRA:         -10.429
REMARK INTER:                  -9.075
REMARK INTRA:                  -1.354
REMARK UNBOUND:                -1.834
REMARK SMILES CCCCC[C@H](O)CC(=O)CCc1ccc(O)c(OC)c1
REMARK SMILES IDX 8 1 6 2 7 3 5 5 4 6 3 7 2 8 1 9 9 10 10 11 11 12 12 13 13 14
REMARK SMILES IDX 21 15 14 16 18 17 15 18 16 19 19 20 20 21 17 22
REMARK H PARENT 7 4 17 23
REMARK Flexibility Score: inf
ROOT
ATOM      1  C   UNL     1      80.519  86.852  88.191  1.00  0.00     0.107 C 
ENDROOT
BRANCH   1   2
ATOM      2  C   UNL     1      81.829  86.365  87.568  1.00  0.00     0.121 C 
BRANCH   2   3
ATOM      3  O   UNL     1      82.484  85.466  88.460  1.00  0.00    -0.393 OA
ATOM      4  H   UNL     1      83.290  85.904  88.785  1.00  0.00     0.210 HD
ENDBRANCH   2   3
BRANCH   2   5
ATOM      5  C   UNL     1      81.630  85.675  86.213  1.00  0.00     0.032 C 
BRANCH   5   6
ATOM      6  C   UNL     1      80.263  85.999  85.597  1.00  0.00     0.003 C 
BRANCH   6   7
ATOM      7  C   UNL     1      80.354  86.508  84.154  1.00  0.00    -0.000 C 
BRANCH   7   8
ATOM      8  C   UNL     1      80.579  88.015  84.050  1.00  0.00    -0.003 C 
ATOM      9  C   UNL     1      79.318  88.790  84.403  1.00  0.00     0.004 C 
ENDBRANCH   7   8
ENDBRANCH   6   7
ENDBRANCH   5   6
ENDBRANCH   2   5
ENDBRANCH   1   2
BRANCH   1  10
ATOM     10  C   UNL     1      80.729  87.862  89.308  1.00  0.00     0.135 C 
ATOM     11  O   UNL     1      81.366  87.564  90.318  1.00  0.00    -0.300 OA
BRANCH  10  12
ATOM     12  C   UNL     1      80.156  89.253  89.086  1.00  0.00     0.080 C 
BRANCH  12  13
ATOM     13  C   UNL     1      80.275  89.744  87.642  1.00  0.00     0.043 C 
BRANCH  13  14
ATOM     14  C   UNL     1      81.572  90.467  87.367  1.00  0.00    -0.044 A 
ATOM     15  C   UNL     1      82.403  90.039  86.332  1.00  0.00     0.054 A 
ATOM     16  C   UNL     1      81.940  91.562  88.150  1.00  0.00     0.008 A 
ATOM     17  C   UNL     1      83.601  90.708  86.078  1.00  0.00     0.160 A 
ATOM     18  C   UNL     1      83.138  92.230  87.897  1.00  0.00     0.050 A 
ATOM     19  C   UNL     1      83.968  91.803  86.861  1.00  0.00     0.157 A 
BRANCH  17  20
ATOM     20  O   UNL     1      84.404  90.281  85.064  1.00  0.00    -0.493 OA
ATOM     21  C   UNL     1      85.734  89.895  85.409  1.00  0.00     0.278 C 
ENDBRANCH  17  20
BRANCH  19  22
ATOM     22  O   UNL     1      85.135  92.463  86.623  1.00  0.00    -0.504 OA
ATOM     23  H   UNL     1      85.290  92.498  85.663  1.00  0.00     0.293 HD
ENDBRANCH  19  22
ENDBRANCH  13  14
ENDBRANCH  12  13
ENDBRANCH  10  12
ENDBRANCH   1  10
TORSDOF 12
ENDMDL
MODEL 7
REMARK VINA RESULT:    -5.216     13.491     15.529
REMARK INTER + INTRA:         -10.405
REMARK INTER:                  -9.720
REMARK INTRA:                  -0.684
REMARK UNBOUND:                -1.834
REMARK SMILES CCCCC[C@H](O)CC(=O)CCc1ccc(O)c(OC)c1
REMARK SMILES IDX 8 1 6 2 7 3 5 5 4 6 3 7 2 8 1 9 9 10 10 11 11 12 12 13 13 14
REMARK SMILES IDX 21 15 14 16 18 17 15 18 16 19 19 20 20 21 17 22
REMARK H PARENT 7 4 17 23
REMARK Flexibility Score: inf
ROOT
ATOM      1  C   UNL     1      92.395  94.361  75.537  1.00  0.00     0.107 C 
ENDROOT
BRANCH   1   2
ATOM      2  C   UNL     1      93.710  93.922  76.185  1.00  0.00     0.121 C 
BRANCH   2   3
ATOM      3  O   UNL     1      94.632  93.513  75.178  1.00  0.00    -0.393 OA
ATOM      4  H   UNL     1      95.474  93.297  75.616  1.00  0.00     0.210 HD
ENDBRANCH   2   3
BRANCH   2   5
ATOM      5  C   UNL     1      94.353  95.020  77.042  1.00  0.00     0.032 C 
BRANCH   5   6
ATOM      6  C   UNL     1      95.856  94.790  77.241  1.00  0.00     0.003 C 
BRANCH   6   7
ATOM      7  C   UNL     1      96.296  94.889  78.705  1.00  0.00    -0.000 C 
BRANCH   7   8
ATOM      8  C   UNL     1      95.221  94.450  79.698  1.00  0.00    -0.003 C 
ATOM      9  C   UNL     1      95.196  95.354  80.921  1.00  0.00     0.004 C 
ENDBRANCH   7   8
ENDBRANCH   6   7
ENDBRANCH   5   6
ENDBRANCH   2   5
ENDBRANCH   1   2
BRANCH   1  10
ATOM     10  C   UNL     1      91.181  94.098  76.414  1.00  0.00     0.135 C 
ATOM     11  O   UNL     1      90.235  94.884  76.437  1.00  0.00    -0.300 OA
BRANCH  10  12
ATOM     12  C   UNL     1      91.186  92.804  77.213  1.00  0.00     0.080 C 
BRANCH  12  13
ATOM     13  C   UNL     1      91.543  91.569  76.382  1.00  0.00     0.043 C 
BRANCH  13  14
ATOM     14  C   UNL     1      90.440  91.150  75.440  1.00  0.00    -0.044 A 
ATOM     15  C   UNL     1      90.741  90.802  74.123  1.00  0.00     0.054 A 
ATOM     16  C   UNL     1      89.119  91.111  75.887  1.00  0.00     0.008 A 
ATOM     17  C   UNL     1      89.722  90.414  73.254  1.00  0.00     0.160 A 
ATOM     18  C   UNL     1      88.099  90.723  75.018  1.00  0.00     0.050 A 
ATOM     19  C   UNL     1      88.401  90.375  73.701  1.00  0.00     0.157 A 
BRANCH  17  20
ATOM     20  O   UNL     1      90.028  90.077  71.970  1.00  0.00    -0.493 OA
ATOM     21  C   UNL     1      90.266  91.148  71.058  1.00  0.00     0.278 C 
ENDBRANCH  17  20
BRANCH  19  22
ATOM     22  O   UNL     1      87.397  89.998  72.862  1.00  0.00    -0.504 OA
ATOM     23  H   UNL     1      86.552  90.339  73.204  1.00  0.00     0.293 HD
ENDBRANCH  19  22
ENDBRANCH  13  14
ENDBRANCH  12  13
ENDBRANCH  10  12
ENDBRANCH   1  10
TORSDOF 12
ENDMDL
MODEL 8
REMARK VINA RESULT:    -5.115      2.349      4.975
REMARK INTER + INTRA:         -10.238
REMARK INTER:                  -8.755
REMARK INTRA:                  -1.483
REMARK UNBOUND:                -1.834
REMARK SMILES CCCCC[C@H](O)CC(=O)CCc1ccc(O)c(OC)c1
REMARK SMILES IDX 8 1 6 2 7 3 5 5 4 6 3 7 2 8 1 9 9 10 10 11 11 12 12 13 13 14
REMARK SMILES IDX 21 15 14 16 18 17 15 18 16 19 19 20 20 21 17 22
REMARK H PARENT 7 4 17 23
REMARK Flexibility Score: inf
ROOT
ATOM      1  C   UNL     1      83.308  90.053  84.838  1.00  0.00     0.107 C 
ENDROOT
BRANCH   1   2
ATOM      2  C   UNL     1      82.928  88.618  85.210  1.00  0.00     0.121 C 
BRANCH   2   3
ATOM      3  O   UNL     1      84.085  87.910  85.650  1.00  0.00    -0.393 OA
ATOM      4  H   UNL     1      84.049  87.856  86.621  1.00  0.00     0.210 HD
ENDBRANCH   2   3
BRANCH   2   5
ATOM      5  C   UNL     1      81.849  88.546  86.297  1.00  0.00     0.032 C 
BRANCH   5   6
ATOM      6  C   UNL     1      80.588  87.822  85.810  1.00  0.00     0.003 C 
BRANCH   6   7
ATOM      7  C   UNL     1      79.851  88.569  84.694  1.00  0.00    -0.000 C 
BRANCH   7   8
ATOM      8  C   UNL     1      80.268  88.138  83.290  1.00  0.00    -0.003 C 
ATOM      9  C   UNL     1      80.442  86.629  83.202  1.00  0.00     0.004 C 
ENDBRANCH   7   8
ENDBRANCH   6   7
ENDBRANCH   5   6
ENDBRANCH   2   5
ENDBRANCH   1   2
BRANCH   1  10
ATOM     10  C   UNL     1      84.776  90.363  85.083  1.00  0.00     0.135 C 
ATOM     11  O   UNL     1      85.643  89.982  84.297  1.00  0.00    -0.300 OA
BRANCH  10  12
ATOM     12  C   UNL     1      85.100  91.198  86.312  1.00  0.00     0.080 C 
BRANCH  12  13
ATOM     13  C   UNL     1      83.917  92.019  86.828  1.00  0.00     0.043 C 
BRANCH  13  14
ATOM     14  C   UNL     1      83.251  91.405  88.036  1.00  0.00    -0.044 A 
ATOM     15  C   UNL     1      81.989  91.843  88.436  1.00  0.00     0.054 A 
ATOM     16  C   UNL     1      83.900  90.398  88.752  1.00  0.00     0.008 A 
ATOM     17  C   UNL     1      81.375  91.273  89.552  1.00  0.00     0.160 A 
ATOM     18  C   UNL     1      83.286  89.829  89.868  1.00  0.00     0.050 A 
ATOM     19  C   UNL     1      82.024  90.267  90.268  1.00  0.00     0.157 A 
BRANCH  17  20
ATOM     20  O   UNL     1      80.142  91.710  89.933  1.00  0.00    -0.493 OA
ATOM     21  C   UNL     1      79.026  91.237  89.180  1.00  0.00     0.278 C 
ENDBRANCH  17  20
BRANCH  19  22
ATOM     22  O   UNL     1      81.434  89.704  91.359  1.00  0.00    -0.504 OA
ATOM     23  H   UNL     1      81.890  90.013  92.160  1.00  0.00     0.293 HD
ENDBRANCH  19  22
ENDBRANCH  13  14
ENDBRANCH  12  13
ENDBRANCH  10  12
ENDBRANCH   1  10
TORSDOF 12
ENDMDL
MODEL 9
REMARK VINA RESULT:    -5.049      3.477      7.196
REMARK INTER + INTRA:         -10.130
REMARK INTER:                  -9.056
REMARK INTRA:                  -1.074
REMARK UNBOUND:                -1.834
REMARK SMILES CCCCC[C@H](O)CC(=O)CCc1ccc(O)c(OC)c1
REMARK SMILES IDX 8 1 6 2 7 3 5 5 4 6 3 7 2 8 1 9 9 10 10 11 11 12 12 13 13 14
REMARK SMILES IDX 21 15 14 16 18 17 15 18 16 19 19 20 20 21 17 22
REMARK H PARENT 7 4 17 23
REMARK Flexibility Score: inf
ROOT
ATOM      1  C   UNL     1      84.109  91.175  86.009  1.00  0.00     0.107 C 
ENDROOT
BRANCH   1   2
ATOM      2  C   UNL     1      84.223  89.940  85.111  1.00  0.00     0.121 C 
BRANCH   2   3
ATOM      3  O   UNL     1      85.366  89.175  85.485  1.00  0.00    -0.393 OA
ATOM      4  H   UNL     1      86.077  89.372  84.850  1.00  0.00     0.210 HD
ENDBRANCH   2   3
BRANCH   2   5
ATOM      5  C   UNL     1      82.979  89.046  85.159  1.00  0.00     0.032 C 
BRANCH   5   6
ATOM      6  C   UNL     1      81.759  89.720  84.520  1.00  0.00     0.003 C 
BRANCH   6   7
ATOM      7  C   UNL     1      80.439  89.371  85.216  1.00  0.00    -0.000 C 
BRANCH   7   8
ATOM      8  C   UNL     1      79.527  88.473  84.382  1.00  0.00    -0.003 C 
ATOM      9  C   UNL     1      80.325  87.636  83.395  1.00  0.00     0.004 C 
ENDBRANCH   7   8
ENDBRANCH   6   7
ENDBRANCH   5   6
ENDBRANCH   2   5
ENDBRANCH   1   2
BRANCH   1  10
ATOM     10  C   UNL     1      83.687  90.840  87.430  1.00  0.00     0.135 C 
ATOM     11  O   UNL     1      84.321  90.029  88.104  1.00  0.00    -0.300 OA
BRANCH  10  12
ATOM     12  C   UNL     1      82.481  91.589  87.978  1.00  0.00     0.080 C 
BRANCH  12  13
ATOM     13  C   UNL     1      82.838  92.650  89.020  1.00  0.00     0.043 C 
BRANCH  13  14
ATOM     14  C   UNL     1      82.644  94.061  88.519  1.00  0.00    -0.044 A 
ATOM     15  C   UNL     1      81.571  94.824  88.980  1.00  0.00     0.054 A 
ATOM     16  C   UNL     1      83.538  94.601  87.594  1.00  0.00     0.008 A 
ATOM     17  C   UNL     1      81.393  96.128  88.517  1.00  0.00     0.160 A 
ATOM     18  C   UNL     1      83.360  95.905  87.130  1.00  0.00     0.050 A 
ATOM     19  C   UNL     1      82.287  96.668  87.592  1.00  0.00     0.157 A 
BRANCH  17  20
ATOM     20  O   UNL     1      80.342  96.864  88.974  1.00  0.00    -0.493 OA
ATOM     21  C   UNL     1      80.466  97.431  90.277  1.00  0.00     0.278 C 
ENDBRANCH  17  20
BRANCH  19  22
ATOM     22  O   UNL     1      82.124  97.940  87.132  1.00  0.00    -0.504 OA
ATOM     23  H   UNL     1      82.967  98.418  87.216  1.00  0.00     0.293 HD
ENDBRANCH  19  22
ENDBRANCH  13  14
ENDBRANCH  12  13
ENDBRANCH  10  12
ENDBRANCH   1  10
TORSDOF 12
ENDMDL
MODEL 10
REMARK VINA RESULT:    -5.045     23.935     26.122
REMARK INTER + INTRA:         -10.123
REMARK INTER:                  -9.304
REMARK INTRA:                  -0.819
REMARK UNBOUND:                -1.834
REMARK SMILES CCCCC[C@H](O)CC(=O)CCc1ccc(O)c(OC)c1
REMARK SMILES IDX 8 1 6 2 7 3 5 5 4 6 3 7 2 8 1 9 9 10 10 11 11 12 12 13 13 14
REMARK SMILES IDX 21 15 14 16 18 17 15 18 16 19 19 20 20 21 17 22
REMARK H PARENT 7 4 17 23
REMARK Flexibility Score: inf
ROOT
ATOM      1  C   UNL     1      83.300  65.937  75.501  1.00  0.00     0.107 C 
ENDROOT
BRANCH   1   2
ATOM      2  C   UNL     1      81.824  66.216  75.793  1.00  0.00     0.121 C 
BRANCH   2   3
ATOM      3  O   UNL     1      81.712  67.175  76.842  1.00  0.00    -0.393 OA
ATOM      4  H   UNL     1      82.092  68.012  76.522  1.00  0.00     0.210 HD
ENDBRANCH   2   3
BRANCH   2   5
ATOM      5  C   UNL     1      81.053  66.718  74.566  1.00  0.00     0.032 C 
BRANCH   5   6
ATOM      6  C   UNL     1      79.877  65.801  74.209  1.00  0.00     0.003 C 
BRANCH   6   7
ATOM      7  C   UNL     1      80.142  64.925  72.980  1.00  0.00    -0.000 C 
BRANCH   7   8
ATOM      8  C   UNL     1      80.961  65.623  71.896  1.00  0.00    -0.003 C 
ATOM      9  C   UNL     1      80.076  66.463  70.987  1.00  0.00     0.004 C 
ENDBRANCH   7   8
ENDBRANCH   6   7
ENDBRANCH   5   6
ENDBRANCH   2   5
ENDBRANCH   1   2
BRANCH   1  10
ATOM     10  C   UNL     1      83.703  64.499  75.787  1.00  0.00     0.135 C 
ATOM     11  O   UNL     1      84.262  63.816  74.930  1.00  0.00    -0.300 OA
BRANCH  10  12
ATOM     12  C   UNL     1      83.420  63.978  77.188  1.00  0.00     0.080 C 
BRANCH  12  13
ATOM     13  C   UNL     1      84.603  63.243  77.821  1.00  0.00     0.043 C 
BRANCH  13  14
ATOM     14  C   UNL     1      85.148  63.941  79.044  1.00  0.00    -0.044 A 
ATOM     15  C   UNL     1      85.819  65.157  78.913  1.00  0.00     0.054 A 
ATOM     16  C   UNL     1      84.980  63.369  80.306  1.00  0.00     0.008 A 
ATOM     17  C   UNL     1      86.321  65.801  80.043  1.00  0.00     0.160 A 
ATOM     18  C   UNL     1      85.482  64.014  81.436  1.00  0.00     0.050 A 
ATOM     19  C   UNL     1      86.153  65.230  81.305  1.00  0.00     0.157 A 
BRANCH  17  20
ATOM     20  O   UNL     1      86.975  66.988  79.903  1.00  0.00    -0.493 OA
ATOM     21  C   UNL     1      88.287  66.943  79.344  1.00  0.00     0.278 C 
ENDBRANCH  17  20
BRANCH  19  22
ATOM     22  O   UNL     1      86.639  65.849  82.416  1.00  0.00    -0.504 OA
ATOM     23  H   UNL     1      86.630  65.222  83.159  1.00  0.00     0.293 HD
ENDBRANCH  19  22
ENDBRANCH  13  14
ENDBRANCH  12  13
ENDBRANCH  10  12
ENDBRANCH   1  10
TORSDOF 12
ENDMDL
