MODEL 1
REMARK VINA RESULT:    -6.219      0.000      0.000
REMARK INTER + INTRA:         -10.656
REMARK INTER:                 -10.036
REMARK INTRA:                  -0.619
REMARK UNBOUND:                -0.619
REMARK SMILES COc1cc(CNC(=O)CCCCCCC(C)C)ccc1O
REMARK SMILES IDX 11 1 10 2 8 3 7 4 9 6 6 7 5 8 3 9 21 10 4 11 20 12 19 13
REMARK SMILES IDX 2 14 1 15 22 16 12 18 13 19 14 20 15 21 16 22 17 23 18 24
REMARK H PARENT 7 5 22 17
REMARK Flexibility Score: inf
ROOT
ATOM      1  C   UNL     1      95.658  80.045  83.293  1.00  0.00     0.010 C 
ENDROOT
BRANCH   1   2
ATOM      2  C   UNL     1      95.782  81.433  83.979  1.00  0.00     0.100 C 
BRANCH   2   3
ATOM      3  C   UNL     1      94.517  81.899  84.590  1.00  0.00     0.220 C 
ATOM      4  N   UNL     1      93.393  81.128  84.520  1.00  0.00    -0.352 N 
ATOM      5  H   UNL     1      93.500  80.274  83.994  1.00  0.00     0.163 HD
ATOM      6  O   UNL     1      94.509  83.000  85.193  1.00  0.00    -0.275 OA
BRANCH   4   7
ATOM      7  C   UNL     1      92.134  81.447  85.121  1.00  0.00     0.151 C 
BRANCH   7   8
ATOM      8  C   UNL     1      91.076  80.439  84.837  1.00  0.00    -0.025 A 
ATOM      9  C   UNL     1      88.746  79.902  84.261  1.00  0.00     0.160 A 
ATOM     10  C   UNL     1      89.063  78.526  84.250  1.00  0.00     0.157 A 
ATOM     11  C   UNL     1      89.748  80.845  84.572  1.00  0.00     0.056 A 
ATOM     12  C   UNL     1      90.372  78.108  84.550  1.00  0.00     0.050 A 
ATOM     13  C   UNL     1      91.374  79.056  84.831  1.00  0.00     0.009 A 
BRANCH   9  14
ATOM     14  O   UNL     1      87.466  80.318  84.009  1.00  0.00    -0.493 OA
ATOM     15  C   UNL     1      86.905  81.132  85.055  1.00  0.00     0.278 C 
ENDBRANCH   9  14
BRANCH  10  16
ATOM     16  O   UNL     1      88.118  77.596  83.955  1.00  0.00    -0.504 OA
ATOM     17  H   UNL     1      88.083  76.942  84.658  1.00  0.00     0.293 HD
ENDBRANCH  10  16
ENDBRANCH   7   8
ENDBRANCH   4   7
ENDBRANCH   2   3
ENDBRANCH   1   2
BRANCH   1  18
ATOM     18  C   UNL     1      96.844  79.759  82.328  1.00  0.00     0.001 C 
BRANCH  18  19
ATOM     19  C   UNL     1      97.344  81.016  81.561  1.00  0.00     0.000 C 
BRANCH  19  20
ATOM     20  C   UNL     1      97.352  80.783  80.024  1.00  0.00     0.000 C 
BRANCH  20  21
ATOM     21  C   UNL     1      97.290  82.087  79.182  1.00  0.00     0.003 C 
BRANCH  21  22
ATOM     22  C   UNL     1      97.037  81.863  77.655  1.00  0.00    -0.017 C 
ATOM     23  C   UNL     1      95.777  82.647  77.191  1.00  0.00     0.007 C 
ATOM     24  C   UNL     1      96.924  80.362  77.253  1.00  0.00     0.007 C 
ENDBRANCH  21  22
ENDBRANCH  20  21
ENDBRANCH  19  20
ENDBRANCH  18  19
ENDBRANCH   1  18
TORSDOF 11
ENDMDL
MODEL 2
REMARK VINA RESULT:    -6.043     16.492     19.769
REMARK INTER + INTRA:         -10.372
REMARK INTER:                  -8.460
REMARK INTRA:                  -1.912
REMARK UNBOUND:                -0.619
REMARK SMILES COc1cc(CNC(=O)CCCCCCC(C)C)ccc1O
REMARK SMILES IDX 11 1 10 2 8 3 7 4 9 6 6 7 5 8 3 9 21 10 4 11 20 12 19 13
REMARK SMILES IDX 2 14 1 15 22 16 12 18 13 19 14 20 15 21 16 22 17 23 18 24
REMARK H PARENT 7 5 22 17
REMARK Flexibility Score: inf
ROOT
ATOM      1  C   UNL     1      82.733  63.908  76.520  1.00  0.00     0.010 C 
ENDROOT
BRANCH   1   2
ATOM      2  C   UNL     1      83.555  64.427  75.307  1.00  0.00     0.100 C 
BRANCH   2   3
ATOM      3  C   UNL     1      84.180  65.747  75.546  1.00  0.00     0.220 C 
ATOM      4  N   UNL     1      85.157  66.207  74.712  1.00  0.00    -0.352 N 
ATOM      5  H   UNL     1      85.424  65.565  73.981  1.00  0.00     0.163 HD
ATOM      6  O   UNL     1      83.777  66.438  76.513  1.00  0.00    -0.275 OA
BRANCH   4   7
ATOM      7  C   UNL     1      85.791  67.487  74.810  1.00  0.00     0.151 C 
BRANCH   7   8
ATOM      8  C   UNL     1      85.335  68.448  73.768  1.00  0.00    -0.025 A 
ATOM      9  C   UNL     1      85.040  70.762  72.988  1.00  0.00     0.160 A 
ATOM     10  C   UNL     1      84.511  70.286  71.769  1.00  0.00     0.157 A 
ATOM     11  C   UNL     1      85.430  69.842  73.984  1.00  0.00     0.056 A 
ATOM     12  C   UNL     1      84.375  68.902  71.557  1.00  0.00     0.050 A 
ATOM     13  C   UNL     1      84.794  67.988  72.544  1.00  0.00     0.009 A 
BRANCH   9  14
ATOM     14  O   UNL     1      85.140  72.107  73.220  1.00  0.00    -0.493 OA
ATOM     15  C   UNL     1      85.989  72.443  74.332  1.00  0.00     0.278 C 
ENDBRANCH   9  14
BRANCH  10  16
ATOM     16  O   UNL     1      84.126  71.149  70.792  1.00  0.00    -0.504 OA
ATOM     17  H   UNL     1      84.050  72.033  71.160  1.00  0.00     0.293 HD
ENDBRANCH  10  16
ENDBRANCH   7   8
ENDBRANCH   4   7
ENDBRANCH   2   3
ENDBRANCH   1   2
BRANCH   1  18
ATOM     18  C   UNL     1      81.233  63.698  76.166  1.00  0.00     0.001 C 
BRANCH  18  19
ATOM     19  C   UNL     1      80.307  64.846  76.657  1.00  0.00     0.000 C 
BRANCH  19  20
ATOM     20  C   UNL     1      79.812  65.726  75.475  1.00  0.00     0.000 C 
BRANCH  20  21
ATOM     21  C   UNL     1      80.190  65.179  74.070  1.00  0.00     0.003 C 
BRANCH  21  22
ATOM     22  C   UNL     1      80.809  66.241  73.103  1.00  0.00    -0.017 C 
ATOM     23  C   UNL     1      81.885  65.585  72.193  1.00  0.00     0.007 C 
ATOM     24  C   UNL     1      81.396  67.485  73.833  1.00  0.00     0.007 C 
ENDBRANCH  21  22
ENDBRANCH  20  21
ENDBRANCH  19  20
ENDBRANCH  18  19
ENDBRANCH   1  18
TORSDOF 11
ENDMDL
MODEL 3
REMARK VINA RESULT:    -5.885     15.338     18.333
REMARK INTER + INTRA:         -10.116
REMARK INTER:                  -9.342
REMARK INTRA:                  -0.774
REMARK UNBOUND:                -0.619
REMARK SMILES COc1cc(CNC(=O)CCCCCCC(C)C)ccc1O
REMARK SMILES IDX 11 1 10 2 8 3 7 4 9 6 6 7 5 8 3 9 21 10 4 11 20 12 19 13
REMARK SMILES IDX 2 14 1 15 22 16 12 18 13 19 14 20 15 21 16 22 17 23 18 24
REMARK H PARENT 7 5 22 17
REMARK Flexibility Score: inf
ROOT
ATOM      1  C   UNL     1      94.718  98.666  72.898  1.00  0.00     0.010 C 
ENDROOT
BRANCH   1   2
ATOM      2  C   UNL     1      94.367  98.047  74.279  1.00  0.00     0.100 C 
BRANCH   2   3
ATOM      3  C   UNL     1      94.631  96.592  74.352  1.00  0.00     0.220 C 
ATOM      4  N   UNL     1      94.282  95.883  75.465  1.00  0.00    -0.352 N 
ATOM      5  H   UNL     1      93.887  96.438  76.210  1.00  0.00     0.163 HD
ATOM      6  O   UNL     1      95.158  96.026  73.364  1.00  0.00    -0.275 OA
BRANCH   4   7
ATOM      7  C   UNL     1      94.434  94.469  75.625  1.00  0.00     0.151 C 
BRANCH   7   8
ATOM      8  C   UNL     1      93.245  93.816  76.238  1.00  0.00    -0.025 A 
ATOM      9  C   UNL     1      91.212  92.452  76.011  1.00  0.00     0.160 A 
ATOM     10  C   UNL     1      91.000  92.532  77.404  1.00  0.00     0.157 A 
ATOM     11  C   UNL     1      92.320  93.109  75.437  1.00  0.00     0.056 A 
ATOM     12  C   UNL     1      91.892  93.265  78.207  1.00  0.00     0.050 A 
ATOM     13  C   UNL     1      93.013  93.895  77.631  1.00  0.00     0.009 A 
BRANCH   9  14
ATOM     14  O   UNL     1      90.328  91.774  75.215  1.00  0.00    -0.493 OA
ATOM     15  C   UNL     1      90.915  90.665  74.510  1.00  0.00     0.278 C 
ENDBRANCH   9  14
BRANCH  10  16
ATOM     16  O   UNL     1      89.939  91.910  77.984  1.00  0.00    -0.504 OA
ATOM     17  H   UNL     1      89.269  91.735  77.320  1.00  0.00     0.293 HD
ENDBRANCH  10  16
ENDBRANCH   7   8
ENDBRANCH   4   7
ENDBRANCH   2   3
ENDBRANCH   1   2
BRANCH   1  18
ATOM     18  C   UNL     1      93.448  98.991  72.061  1.00  0.00     0.001 C 
BRANCH  18  19
ATOM     19  C   UNL     1      93.758  99.505  70.627  1.00  0.00     0.000 C 
BRANCH  19  20
ATOM     20  C   UNL     1      92.738 100.588  70.174  1.00  0.00     0.000 C 
BRANCH  20  21
ATOM     21  C   UNL     1      91.359 100.501  70.887  1.00  0.00     0.003 C 
BRANCH  21  22
ATOM     22  C   UNL     1      90.219  99.869  70.023  1.00  0.00    -0.017 C 
ATOM     23  C   UNL     1      89.839  98.464  70.569  1.00  0.00     0.007 C 
ATOM     24  C   UNL     1      90.554  99.792  68.505  1.00  0.00     0.007 C 
ENDBRANCH  21  22
ENDBRANCH  20  21
ENDBRANCH  19  20
ENDBRANCH  18  19
ENDBRANCH   1  18
TORSDOF 11
ENDMDL
MODEL 4
REMARK VINA RESULT:    -5.789      5.856      7.733
REMARK INTER + INTRA:          -9.962
REMARK INTER:                  -8.852
REMARK INTRA:                  -1.110
REMARK UNBOUND:                -0.619
REMARK SMILES COc1cc(CNC(=O)CCCCCCC(C)C)ccc1O
REMARK SMILES IDX 11 1 10 2 8 3 7 4 9 6 6 7 5 8 3 9 21 10 4 11 20 12 19 13
REMARK SMILES IDX 2 14 1 15 22 16 12 18 13 19 14 20 15 21 16 22 17 23 18 24
REMARK H PARENT 7 5 22 17
REMARK Flexibility Score: inf
ROOT
ATOM      1  C   UNL     1      97.776  81.511  76.838  1.00  0.00     0.010 C 
ENDROOT
BRANCH   1   2
ATOM      2  C   UNL     1      97.657  79.966  76.722  1.00  0.00     0.100 C 
BRANCH   2   3
ATOM      3  C   UNL     1      97.633  79.281  78.034  1.00  0.00     0.220 C 
ATOM      4  N   UNL     1      98.132  79.898  79.144  1.00  0.00    -0.352 N 
ATOM      5  H   UNL     1      98.540  80.806  78.973  1.00  0.00     0.163 HD
ATOM      6  O   UNL     1      97.123  78.136  78.106  1.00  0.00    -0.275 OA
BRANCH   4   7
ATOM      7  C   UNL     1      98.110  79.360  80.470  1.00  0.00     0.151 C 
BRANCH   7   8
ATOM      8  C   UNL     1      97.745  80.365  81.505  1.00  0.00    -0.025 A 
ATOM      9  C   UNL     1      97.788  81.125  83.844  1.00  0.00     0.160 A 
ATOM     10  C   UNL     1      97.091  82.297  83.478  1.00  0.00     0.157 A 
ATOM     11  C   UNL     1      98.092  80.161  82.860  1.00  0.00     0.056 A 
ATOM     12  C   UNL     1      96.706  82.494  82.139  1.00  0.00     0.050 A 
ATOM     13  C   UNL     1      97.039  81.541  81.157  1.00  0.00     0.009 A 
BRANCH   9  14
ATOM     14  O   UNL     1      98.132  80.905  85.150  1.00  0.00    -0.493 OA
ATOM     15  C   UNL     1      97.229  80.030  85.849  1.00  0.00     0.278 C 
ENDBRANCH   9  14
BRANCH  10  16
ATOM     16  O   UNL     1      96.783  83.243  84.405  1.00  0.00    -0.504 OA
ATOM     17  H   UNL     1      96.862  82.865  85.284  1.00  0.00     0.293 HD
ENDBRANCH  10  16
ENDBRANCH   7   8
ENDBRANCH   4   7
ENDBRANCH   2   3
ENDBRANCH   1   2
BRANCH   1  18
ATOM     18  C   UNL     1      96.401  82.186  77.108  1.00  0.00     0.001 C 
BRANCH  18  19
ATOM     19  C   UNL     1      95.994  83.230  76.031  1.00  0.00     0.000 C 
BRANCH  19  20
ATOM     20  C   UNL     1      96.397  82.766  74.603  1.00  0.00     0.000 C 
BRANCH  20  21
ATOM     21  C   UNL     1      97.510  83.627  73.943  1.00  0.00     0.003 C 
BRANCH  21  22
ATOM     22  C   UNL     1      98.808  82.837  73.570  1.00  0.00    -0.017 C 
ATOM     23  C   UNL     1      99.671  83.653  72.568  1.00  0.00     0.007 C 
ATOM     24  C   UNL     1      98.533  81.408  73.016  1.00  0.00     0.007 C 
ENDBRANCH  21  22
ENDBRANCH  20  21
ENDBRANCH  19  20
ENDBRANCH  18  19
ENDBRANCH   1  18
TORSDOF 11
ENDMDL
MODEL 5
REMARK VINA RESULT:    -5.749     22.587     26.031
REMARK INTER + INTRA:          -9.898
REMARK INTER:                  -8.626
REMARK INTRA:                  -1.272
REMARK UNBOUND:                -0.619
REMARK SMILES COc1cc(CNC(=O)CCCCCCC(C)C)ccc1O
REMARK SMILES IDX 11 1 10 2 8 3 7 4 9 6 6 7 5 8 3 9 21 10 4 11 20 12 19 13
REMARK SMILES IDX 2 14 1 15 22 16 12 18 13 19 14 20 15 21 16 22 17 23 18 24
REMARK H PARENT 7 5 22 17
REMARK Flexibility Score: inf
ROOT
ATOM      1  C   UNL     1      90.546  98.934  70.756  1.00  0.00     0.010 C 
ENDROOT
BRANCH   1   2
ATOM      2  C   UNL     1      89.710  97.892  69.963  1.00  0.00     0.100 C 
BRANCH   2   3
ATOM      3  C   UNL     1      89.564  98.229  68.529  1.00  0.00     0.220 C 
ATOM      4  N   UNL     1      88.405  98.780  68.065  1.00  0.00    -0.352 N 
ATOM      5  H   UNL     1      87.681  98.884  68.760  1.00  0.00     0.163 HD
ATOM      6  O   UNL     1      90.534  98.020  67.760  1.00  0.00    -0.275 OA
BRANCH   4   7
ATOM      7  C   UNL     1      88.171  99.199  66.716  1.00  0.00     0.151 C 
BRANCH   7   8
ATOM      8  C   UNL     1      88.099 100.678  66.565  1.00  0.00    -0.025 A 
ATOM      9  C   UNL     1      89.220 102.865  66.463  1.00  0.00     0.160 A 
ATOM     10  C   UNL     1      87.976 103.494  66.235  1.00  0.00     0.157 A 
ATOM     11  C   UNL     1      89.269 101.467  66.645  1.00  0.00     0.056 A 
ATOM     12  C   UNL     1      86.800 102.724  66.193  1.00  0.00     0.050 A 
ATOM     13  C   UNL     1      86.860 101.325  66.346  1.00  0.00     0.009 A 
BRANCH   9  14
ATOM     14  O   UNL     1      90.365 103.609  66.545  1.00  0.00    -0.493 OA
ATOM     15  C   UNL     1      91.174 103.562  65.355  1.00  0.00     0.278 C 
ENDBRANCH   9  14
BRANCH  10  16
ATOM     16  O   UNL     1      87.898 104.839  66.058  1.00  0.00    -0.504 OA
ATOM     17  H   UNL     1      88.253 105.284  66.831  1.00  0.00     0.293 HD
ENDBRANCH  10  16
ENDBRANCH   7   8
ENDBRANCH   4   7
ENDBRANCH   2   3
ENDBRANCH   1   2
BRANCH   1  18
ATOM     18  C   UNL     1      89.809 100.297  70.892  1.00  0.00     0.001 C 
BRANCH  18  19
ATOM     19  C   UNL     1      90.453 101.443  70.062  1.00  0.00     0.000 C 
BRANCH  19  20
ATOM     20  C   UNL     1      91.691 102.046  70.784  1.00  0.00     0.000 C 
BRANCH  20  21
ATOM     21  C   UNL     1      91.508 102.228  72.316  1.00  0.00     0.003 C 
BRANCH  21  22
ATOM     22  C   UNL     1      92.813 102.033  73.155  1.00  0.00    -0.017 C 
ATOM     23  C   UNL     1      93.296 100.557  73.073  1.00  0.00     0.007 C 
ATOM     24  C   UNL     1      92.676 102.480  74.640  1.00  0.00     0.007 C 
ENDBRANCH  21  22
ENDBRANCH  20  21
ENDBRANCH  19  20
ENDBRANCH  18  19
ENDBRANCH   1  18
TORSDOF 11
ENDMDL
MODEL 6
REMARK VINA RESULT:    -5.733     19.463     22.948
REMARK INTER + INTRA:          -9.871
REMARK INTER:                  -8.472
REMARK INTRA:                  -1.398
REMARK UNBOUND:                -0.619
REMARK SMILES COc1cc(CNC(=O)CCCCCCC(C)C)ccc1O
REMARK SMILES IDX 11 1 10 2 8 3 7 4 9 6 6 7 5 8 3 9 21 10 4 11 20 12 19 13
REMARK SMILES IDX 2 14 1 15 22 16 12 18 13 19 14 20 15 21 16 22 17 23 18 24
REMARK H PARENT 7 5 22 17
REMARK Flexibility Score: inf
ROOT
ATOM      1  C   UNL     1      89.709  99.958  70.799  1.00  0.00     0.010 C 
ENDROOT
BRANCH   1   2
ATOM      2  C   UNL     1      90.693 100.844  69.985  1.00  0.00     0.100 C 
BRANCH   2   3
ATOM      3  C   UNL     1      92.065 100.857  70.541  1.00  0.00     0.220 C 
ATOM      4  N   UNL     1      92.261 100.928  71.890  1.00  0.00    -0.352 N 
ATOM      5  H   UNL     1      91.416 101.013  72.435  1.00  0.00     0.163 HD
ATOM      6  O   UNL     1      93.036 100.776  69.749  1.00  0.00    -0.275 OA
BRANCH   4   7
ATOM      7  C   UNL     1      93.535 100.890  72.542  1.00  0.00     0.151 C 
BRANCH   7   8
ATOM      8  C   UNL     1      94.003  99.507  72.833  1.00  0.00    -0.025 A 
ATOM      9  C   UNL     1      95.569  97.657  72.416  1.00  0.00     0.160 A 
ATOM     10  C   UNL     1      94.930  96.888  73.414  1.00  0.00     0.157 A 
ATOM     11  C   UNL     1      95.090  98.950  72.121  1.00  0.00     0.056 A 
ATOM     12  C   UNL     1      93.823  97.416  74.102  1.00  0.00     0.050 A 
ATOM     13  C   UNL     1      93.369  98.720  73.823  1.00  0.00     0.009 A 
BRANCH   9  14
ATOM     14  O   UNL     1      96.622  97.138  71.713  1.00  0.00    -0.493 OA
ATOM     15  C   UNL     1      96.238  96.497  70.483  1.00  0.00     0.278 C 
ENDBRANCH   9  14
BRANCH  10  16
ATOM     16  O   UNL     1      95.369  95.638  73.718  1.00  0.00    -0.504 OA
ATOM     17  H   UNL     1      94.999  95.009  73.094  1.00  0.00     0.293 HD
ENDBRANCH  10  16
ENDBRANCH   7   8
ENDBRANCH   4   7
ENDBRANCH   2   3
ENDBRANCH   1   2
BRANCH   1  18
ATOM     18  C   UNL     1      89.945  98.441  70.554  1.00  0.00     0.001 C 
BRANCH  18  19
ATOM     19  C   UNL     1      90.212  98.081  69.065  1.00  0.00     0.000 C 
BRANCH  19  20
ATOM     20  C   UNL     1      88.925  98.218  68.204  1.00  0.00     0.000 C 
BRANCH  20  21
ATOM     21  C   UNL     1      89.192  98.517  66.702  1.00  0.00     0.003 C 
BRANCH  21  22
ATOM     22  C   UNL     1      89.124 100.032  66.319  1.00  0.00    -0.017 C 
ATOM     23  C   UNL     1      90.548 100.655  66.313  1.00  0.00     0.007 C 
ATOM     24  C   UNL     1      88.169 100.864  67.224  1.00  0.00     0.007 C 
ENDBRANCH  21  22
ENDBRANCH  20  21
ENDBRANCH  19  20
ENDBRANCH  18  19
ENDBRANCH   1  18
TORSDOF 11
ENDMDL
MODEL 7
REMARK VINA RESULT:    -5.648     32.213     37.151
REMARK INTER + INTRA:          -9.734
REMARK INTER:                  -9.148
REMARK INTRA:                  -0.586
REMARK UNBOUND:                -0.619
REMARK SMILES COc1cc(CNC(=O)CCCCCCC(C)C)ccc1O
REMARK SMILES IDX 11 1 10 2 8 3 7 4 9 6 6 7 5 8 3 9 21 10 4 11 20 12 19 13
REMARK SMILES IDX 2 14 1 15 22 16 12 18 13 19 14 20 15 21 16 22 17 23 18 24
REMARK H PARENT 7 5 22 17
REMARK Flexibility Score: inf
ROOT
ATOM      1  C   UNL     1      56.839  86.757  71.749  1.00  0.00     0.010 C 
ENDROOT
BRANCH   1   2
ATOM      2  C   UNL     1      57.497  85.349  71.745  1.00  0.00     0.100 C 
BRANCH   2   3
ATOM      3  C   UNL     1      58.685  85.257  72.623  1.00  0.00     0.220 C 
ATOM      4  N   UNL     1      59.414  84.105  72.678  1.00  0.00    -0.352 N 
ATOM      5  H   UNL     1      59.047  83.348  72.120  1.00  0.00     0.163 HD
ATOM      6  O   UNL     1      59.018  86.265  73.293  1.00  0.00    -0.275 OA
BRANCH   4   7
ATOM      7  C   UNL     1      60.609  83.919  73.444  1.00  0.00     0.151 C 
BRANCH   7   8
ATOM      8  C   UNL     1      61.695  83.244  72.681  1.00  0.00    -0.025 A 
ATOM      9  C   UNL     1      63.165  83.137  70.712  1.00  0.00     0.160 A 
ATOM     10  C   UNL     1      63.794  81.990  71.241  1.00  0.00     0.157 A 
ATOM     11  C   UNL     1      62.110  83.744  71.425  1.00  0.00     0.056 A 
ATOM     12  C   UNL     1      63.364  81.460  72.471  1.00  0.00     0.050 A 
ATOM     13  C   UNL     1      62.330  82.087  73.192  1.00  0.00     0.009 A 
BRANCH   9  14
ATOM     14  O   UNL     1      63.549  83.638  69.498  1.00  0.00    -0.493 OA
ATOM     15  C   UNL     1      62.663  83.288  68.420  1.00  0.00     0.278 C 
ENDBRANCH   9  14
BRANCH  10  16
ATOM     16  O   UNL     1      64.813  81.384  70.575  1.00  0.00    -0.504 OA
ATOM     17  H   UNL     1      65.051  81.911  69.809  1.00  0.00     0.293 HD
ENDBRANCH  10  16
ENDBRANCH   7   8
ENDBRANCH   4   7
ENDBRANCH   2   3
ENDBRANCH   1   2
BRANCH   1  18
ATOM     18  C   UNL     1      56.565  87.280  70.310  1.00  0.00     0.001 C 
BRANCH  18  19
ATOM     19  C   UNL     1      56.237  88.799  70.247  1.00  0.00     0.000 C 
BRANCH  19  20
ATOM     20  C   UNL     1      55.398  89.151  68.987  1.00  0.00     0.000 C 
BRANCH  20  21
ATOM     21  C   UNL     1      53.923  89.533  69.290  1.00  0.00     0.003 C 
BRANCH  21  22
ATOM     22  C   UNL     1      52.921  89.228  68.129  1.00  0.00    -0.017 C 
ATOM     23  C   UNL     1      53.176  87.809  67.549  1.00  0.00     0.007 C 
ATOM     24  C   UNL     1      52.938  90.293  66.992  1.00  0.00     0.007 C 
ENDBRANCH  21  22
ENDBRANCH  20  21
ENDBRANCH  19  20
ENDBRANCH  18  19
ENDBRANCH   1  18
TORSDOF 11
ENDMDL
MODEL 8
REMARK VINA RESULT:    -5.588      6.585     12.002
REMARK INTER + INTRA:          -9.638
REMARK INTER:                  -8.750
REMARK INTRA:                  -0.888
REMARK UNBOUND:                -0.619
REMARK SMILES COc1cc(CNC(=O)CCCCCCC(C)C)ccc1O
REMARK SMILES IDX 11 1 10 2 8 3 7 4 9 6 6 7 5 8 3 9 21 10 4 11 20 12 19 13
REMARK SMILES IDX 2 14 1 15 22 16 12 18 13 19 14 20 15 21 16 22 17 23 18 24
REMARK H PARENT 7 5 22 17
REMARK Flexibility Score: inf
ROOT
ATOM      1  C   UNL     1      98.181  80.792  78.308  1.00  0.00     0.010 C 
ENDROOT
BRANCH   1   2
ATOM      2  C   UNL     1      97.413  82.048  77.810  1.00  0.00     0.100 C 
BRANCH   2   3
ATOM      3  C   UNL     1      97.140  82.029  76.356  1.00  0.00     0.220 C 
ATOM      4  N   UNL     1      97.342  83.147  75.601  1.00  0.00    -0.352 N 
ATOM      5  H   UNL     1      97.639  83.959  76.123  1.00  0.00     0.163 HD
ATOM      6  O   UNL     1      96.743  80.959  75.833  1.00  0.00    -0.275 OA
BRANCH   4   7
ATOM      7  C   UNL     1      97.168  83.230  74.183  1.00  0.00     0.151 C 
BRANCH   7   8
ATOM      8  C   UNL     1      98.441  83.080  73.426  1.00  0.00    -0.025 A 
ATOM      9  C   UNL     1     100.098  81.647  72.310  1.00  0.00     0.160 A 
ATOM     10  C   UNL     1     100.843  82.789  71.944  1.00  0.00     0.157 A 
ATOM     11  C   UNL     1      98.915  81.799  73.062  1.00  0.00     0.056 A 
ATOM     12  C   UNL     1     100.402  84.067  72.333  1.00  0.00     0.050 A 
ATOM     13  C   UNL     1      99.204  84.214  73.059  1.00  0.00     0.009 A 
BRANCH   9  14
ATOM     14  O   UNL     1     100.539  80.397  71.970  1.00  0.00    -0.493 OA
ATOM     15  C   UNL     1      99.525  79.379  72.061  1.00  0.00     0.278 C 
ENDBRANCH   9  14
BRANCH  10  16
ATOM     16  O   UNL     1     101.987  82.672  71.220  1.00  0.00    -0.504 OA
ATOM     17  H   UNL     1     102.250  81.749  71.185  1.00  0.00     0.293 HD
ENDBRANCH  10  16
ENDBRANCH   7   8
ENDBRANCH   4   7
ENDBRANCH   2   3
ENDBRANCH   1   2
BRANCH   1  18
ATOM     18  C   UNL     1      98.552  80.890  79.815  1.00  0.00     0.001 C 
BRANCH  18  19
ATOM     19  C   UNL     1      97.823  79.846  80.708  1.00  0.00     0.000 C 
BRANCH  19  20
ATOM     20  C   UNL     1      96.713  80.508  81.572  1.00  0.00     0.000 C 
BRANCH  20  21
ATOM     21  C   UNL     1      96.666  82.057  81.471  1.00  0.00     0.003 C 
BRANCH  21  22
ATOM     22  C   UNL     1      97.028  82.807  82.795  1.00  0.00    -0.017 C 
ATOM     23  C   UNL     1      97.486  81.796  83.884  1.00  0.00     0.007 C 
ATOM     24  C   UNL     1      95.881  83.710  83.336  1.00  0.00     0.007 C 
ENDBRANCH  21  22
ENDBRANCH  20  21
ENDBRANCH  19  20
ENDBRANCH  18  19
ENDBRANCH   1  18
TORSDOF 11
ENDMDL
MODEL 9
REMARK VINA RESULT:    -5.539     14.709     17.677
REMARK INTER + INTRA:          -9.558
REMARK INTER:                  -8.716
REMARK INTRA:                  -0.843
REMARK UNBOUND:                -0.619
REMARK SMILES COc1cc(CNC(=O)CCCCCCC(C)C)ccc1O
REMARK SMILES IDX 11 1 10 2 8 3 7 4 9 6 6 7 5 8 3 9 21 10 4 11 20 12 19 13
REMARK SMILES IDX 2 14 1 15 22 16 12 18 13 19 14 20 15 21 16 22 17 23 18 24
REMARK H PARENT 7 5 22 17
REMARK Flexibility Score: inf
ROOT
ATOM      1  C   UNL     1      94.501  98.533  72.512  1.00  0.00     0.010 C 
ENDROOT
BRANCH   1   2
ATOM      2  C   UNL     1      94.109  98.004  73.920  1.00  0.00     0.100 C 
BRANCH   2   3
ATOM      3  C   UNL     1      94.528  96.604  74.156  1.00  0.00     0.220 C 
ATOM      4  N   UNL     1      93.837  95.817  75.030  1.00  0.00    -0.352 N 
ATOM      5  H   UNL     1      93.078  96.281  75.507  1.00  0.00     0.163 HD
ATOM      6  O   UNL     1      95.512  96.155  73.520  1.00  0.00    -0.275 OA
BRANCH   4   7
ATOM      7  C   UNL     1      94.112  94.437  75.295  1.00  0.00     0.151 C 
BRANCH   7   8
ATOM      8  C   UNL     1      93.042  93.765  76.082  1.00  0.00    -0.025 A 
ATOM      9  C   UNL     1      91.086  92.278  76.181  1.00  0.00     0.160 A 
ATOM     10  C   UNL     1      91.026  92.447  77.582  1.00  0.00     0.157 A 
ATOM     11  C   UNL     1      92.080  92.952  75.441  1.00  0.00     0.056 A 
ATOM     12  C   UNL     1      91.954  93.284  78.227  1.00  0.00     0.050 A 
ATOM     13  C   UNL     1      92.962  93.931  77.485  1.00  0.00     0.009 A 
BRANCH   9  14
ATOM     14  O   UNL     1      90.164  91.497  75.539  1.00  0.00    -0.493 OA
ATOM     15  C   UNL     1      90.738  90.378  74.840  1.00  0.00     0.278 C 
ENDBRANCH   9  14
BRANCH  10  16
ATOM     16  O   UNL     1      90.078  91.811  78.320  1.00  0.00    -0.504 OA
ATOM     17  H   UNL     1      89.456  92.456  78.665  1.00  0.00     0.293 HD
ENDBRANCH  10  16
ENDBRANCH   7   8
ENDBRANCH   4   7
ENDBRANCH   2   3
ENDBRANCH   1   2
BRANCH   1  18
ATOM     18  C   UNL     1      95.373  99.818  72.590  1.00  0.00     0.001 C 
BRANCH  18  19
ATOM     19  C   UNL     1      96.556  99.835  71.582  1.00  0.00     0.000 C 
BRANCH  19  20
ATOM     20  C   UNL     1      96.064  99.646  70.119  1.00  0.00     0.000 C 
BRANCH  20  21
ATOM     21  C   UNL     1      96.982  98.742  69.250  1.00  0.00     0.003 C 
BRANCH  21  22
ATOM     22  C   UNL     1      97.538  97.480  69.987  1.00  0.00    -0.017 C 
ATOM     23  C   UNL     1      98.747  96.886  69.210  1.00  0.00     0.007 C 
ATOM     24  C   UNL     1      96.464  96.383  70.246  1.00  0.00     0.007 C 
ENDBRANCH  21  22
ENDBRANCH  20  21
ENDBRANCH  19  20
ENDBRANCH  18  19
ENDBRANCH   1  18
TORSDOF 11
ENDMDL
MODEL 10
REMARK VINA RESULT:    -5.492     22.504     25.670
REMARK INTER + INTRA:          -9.483
REMARK INTER:                  -8.065
REMARK INTRA:                  -1.418
REMARK UNBOUND:                -0.619
REMARK SMILES COc1cc(CNC(=O)CCCCCCC(C)C)ccc1O
REMARK SMILES IDX 11 1 10 2 8 3 7 4 9 6 6 7 5 8 3 9 21 10 4 11 20 12 19 13
REMARK SMILES IDX 2 14 1 15 22 16 12 18 13 19 14 20 15 21 16 22 17 23 18 24
REMARK H PARENT 7 5 22 17
REMARK Flexibility Score: inf
ROOT
ATOM      1  C   UNL     1      90.445  99.187  71.082  1.00  0.00     0.010 C 
ENDROOT
BRANCH   1   2
ATOM      2  C   UNL     1      89.915  97.989  70.246  1.00  0.00     0.100 C 
BRANCH   2   3
ATOM      3  C   UNL     1      89.874  98.263  68.792  1.00  0.00     0.220 C 
ATOM      4  N   UNL     1      88.678  98.406  68.151  1.00  0.00    -0.352 N 
ATOM      5  H   UNL     1      87.868  98.267  68.735  1.00  0.00     0.163 HD
ATOM      6  O   UNL     1      90.959  98.384  68.172  1.00  0.00    -0.275 OA
BRANCH   4   7
ATOM      7  C   UNL     1      88.517  98.729  66.765  1.00  0.00     0.151 C 
BRANCH   7   8
ATOM      8  C   UNL     1      87.970 100.095  66.541  1.00  0.00    -0.025 A 
ATOM      9  C   UNL     1      88.315 102.523  66.350  1.00  0.00     0.160 A 
ATOM     10  C   UNL     1      86.943 102.698  66.070  1.00  0.00     0.157 A 
ATOM     11  C   UNL     1      88.814 101.227  66.601  1.00  0.00     0.056 A 
ATOM     12  C   UNL     1      86.085 101.583  66.045  1.00  0.00     0.050 A 
ATOM     13  C   UNL     1      86.595 100.290  66.268  1.00  0.00     0.009 A 
BRANCH   9  14
ATOM     14  O   UNL     1      89.151 103.604  66.415  1.00  0.00    -0.493 OA
ATOM     15  C   UNL     1      89.400 104.065  67.756  1.00  0.00     0.278 C 
ENDBRANCH   9  14
BRANCH  10  16
ATOM     16  O   UNL     1      86.434 103.934  65.825  1.00  0.00    -0.504 OA
ATOM     17  H   UNL     1      86.598 104.502  66.582  1.00  0.00     0.293 HD
ENDBRANCH  10  16
ENDBRANCH   7   8
ENDBRANCH   4   7
ENDBRANCH   2   3
ENDBRANCH   1   2
BRANCH   1  18
ATOM     18  C   UNL     1      89.842 100.542  70.614  1.00  0.00     0.001 C 
BRANCH  18  19
ATOM     19  C   UNL     1      90.908 101.580  70.164  1.00  0.00     0.000 C 
BRANCH  19  20
ATOM     20  C   UNL     1      92.123 101.608  71.133  1.00  0.00     0.000 C 
BRANCH  20  21
ATOM     21  C   UNL     1      93.496 101.790  70.429  1.00  0.00     0.003 C 
BRANCH  21  22
ATOM     22  C   UNL     1      93.932 100.585  69.533  1.00  0.00    -0.017 C 
ATOM     23  C   UNL     1      94.023  99.284  70.379  1.00  0.00     0.007 C 
ATOM     24  C   UNL     1      95.263 100.828  68.762  1.00  0.00     0.007 C 
ENDBRANCH  21  22
ENDBRANCH  20  21
ENDBRANCH  19  20
ENDBRANCH  18  19
ENDBRANCH   1  18
TORSDOF 11
ENDMDL
