MODEL 1
REMARK VINA RESULT:    -6.612      0.000      0.000
REMARK INTER + INTRA:         -11.241
REMARK INTER:                 -10.285
REMARK INTRA:                  -0.956
REMARK UNBOUND:                -0.956
REMARK SMILES COc1cc(CNC(=O)CCCC/C=C/C(C)C)ccc1O
REMARK SMILES IDX 10 1 8 2 7 3 9 5 6 6 5 7 3 8 21 9 4 10 20 11 19 12 2 13 1 14
REMARK SMILES IDX 22 15 11 17 12 18 13 19 14 20 15 21 16 22 17 23 18 24
REMARK H PARENT 7 4 22 16
REMARK Flexibility Score: inf
ROOT
ATOM      1  C   UNL     1      94.051  93.699  75.311  1.00  0.00     0.100 C 
ENDROOT
BRANCH   1   2
ATOM      2  C   UNL     1      92.667  93.501  75.784  1.00  0.00     0.220 C 
ATOM      3  N   UNL     1      91.675  93.186  74.905  1.00  0.00    -0.352 N 
ATOM      4  H   UNL     1      91.963  93.128  73.938  1.00  0.00     0.163 HD
ATOM      5  O   UNL     1      92.441  93.608  77.013  1.00  0.00    -0.275 OA
BRANCH   3   6
ATOM      6  C   UNL     1      90.314  92.943  75.265  1.00  0.00     0.151 C 
BRANCH   6   7
ATOM      7  C   UNL     1      89.975  91.497  75.175  1.00  0.00    -0.025 A 
ATOM      8  C   UNL     1      90.006  89.238  76.154  1.00  0.00     0.160 A 
ATOM      9  C   UNL     1      89.318  88.739  75.028  1.00  0.00     0.157 A 
ATOM     10  C   UNL     1      90.330  90.609  76.215  1.00  0.00     0.056 A 
ATOM     11  C   UNL     1      88.974  89.609  73.974  1.00  0.00     0.050 A 
ATOM     12  C   UNL     1      89.291  90.979  74.050  1.00  0.00     0.009 A 
BRANCH   8  13
ATOM     13  O   UNL     1      90.401  88.384  77.152  1.00  0.00    -0.493 OA
ATOM     14  C   UNL     1      89.630  88.500  78.362  1.00  0.00     0.278 C 
ENDBRANCH   8  13
BRANCH   9  15
ATOM     15  O   UNL     1      88.980  87.427  74.944  1.00  0.00    -0.504 OA
ATOM     16  H   UNL     1      89.303  86.962  75.718  1.00  0.00     0.293 HD
ENDBRANCH   9  15
ENDBRANCH   6   7
ENDBRANCH   3   6
ENDBRANCH   1   2
BRANCH   1  17
ATOM     17  C   UNL     1      94.517  95.167  75.503  1.00  0.00     0.010 C 
BRANCH  17  18
ATOM     18  C   UNL     1      95.714  95.298  76.486  1.00  0.00     0.005 C 
BRANCH  18  19
ATOM     19  C   UNL     1      96.038  93.960  77.204  1.00  0.00     0.027 C 
BRANCH  19  20
ATOM     20  C   UNL     1      95.834  94.047  78.642  1.00  0.00    -0.031 C 
ATOM     21  C   UNL     1      95.510  95.179  79.293  1.00  0.00    -0.028 C 
BRANCH  21  22
ATOM     22  C   UNL     1      95.290  95.239  80.738  1.00  0.00     0.005 C 
ATOM     23  C   UNL     1      95.863  93.996  81.473  1.00  0.00     0.012 C 
ATOM     24  C   UNL     1      95.885  96.548  81.317  1.00  0.00     0.012 C 
ENDBRANCH  21  22
ENDBRANCH  19  20
ENDBRANCH  18  19
ENDBRANCH  17  18
ENDBRANCH   1  17
TORSDOF 10
ENDMDL
MODEL 2
REMARK VINA RESULT:    -6.456      1.767      2.334
REMARK INTER + INTRA:         -10.998
REMARK INTER:                 -10.069
REMARK INTRA:                  -0.929
REMARK UNBOUND:                -0.956
REMARK SMILES COc1cc(CNC(=O)CCCC/C=C/C(C)C)ccc1O
REMARK SMILES IDX 10 1 8 2 7 3 9 5 6 6 5 7 3 8 21 9 4 10 20 11 19 12 2 13 1 14
REMARK SMILES IDX 22 15 11 17 12 18 13 19 14 20 15 21 16 22 17 23 18 24
REMARK H PARENT 7 4 22 16
REMARK Flexibility Score: inf
ROOT
ATOM      1  C   UNL     1      95.043  94.006  75.364  1.00  0.00     0.100 C 
ENDROOT
BRANCH   1   2
ATOM      2  C   UNL     1      93.637  93.790  75.757  1.00  0.00     0.220 C 
ATOM      3  N   UNL     1      92.625  94.071  74.889  1.00  0.00    -0.352 N 
ATOM      4  H   UNL     1      92.919  94.448  73.999  1.00  0.00     0.163 HD
ATOM      5  O   UNL     1      93.407  93.321  76.898  1.00  0.00    -0.275 OA
BRANCH   3   6
ATOM      6  C   UNL     1      91.238  93.868  75.161  1.00  0.00     0.151 C 
BRANCH   6   7
ATOM      7  C   UNL     1      90.609  92.971  74.153  1.00  0.00    -0.025 A 
ATOM      8  C   UNL     1      90.233  90.709  73.256  1.00  0.00     0.160 A 
ATOM      9  C   UNL     1      89.402  91.245  72.250  1.00  0.00     0.157 A 
ATOM     10  C   UNL     1      90.829  91.576  74.196  1.00  0.00     0.056 A 
ATOM     11  C   UNL     1      89.189  92.636  72.184  1.00  0.00     0.050 A 
ATOM     12  C   UNL     1      89.779  93.493  73.133  1.00  0.00     0.009 A 
BRANCH   8  13
ATOM     13  O   UNL     1      90.496  89.363  73.286  1.00  0.00    -0.493 OA
ATOM     14  C   UNL     1      90.809  88.855  74.596  1.00  0.00     0.278 C 
ENDBRANCH   8  13
BRANCH   9  15
ATOM     15  O   UNL     1      88.802  90.437  71.339  1.00  0.00    -0.504 OA
ATOM     16  H   UNL     1      89.208  90.567  70.479  1.00  0.00     0.293 HD
ENDBRANCH   9  15
ENDBRANCH   6   7
ENDBRANCH   3   6
ENDBRANCH   1   2
BRANCH   1  17
ATOM     17  C   UNL     1      95.347  95.511  75.131  1.00  0.00     0.010 C 
BRANCH  17  18
ATOM     18  C   UNL     1      96.124  96.160  76.311  1.00  0.00     0.005 C 
BRANCH  18  19
ATOM     19  C   UNL     1      96.879  95.110  77.170  1.00  0.00     0.027 C 
BRANCH  19  20
ATOM     20  C   UNL     1      96.651  95.302  78.594  1.00  0.00    -0.031 C 
ATOM     21  C   UNL     1      95.513  94.968  79.229  1.00  0.00    -0.028 C 
BRANCH  21  22
ATOM     22  C   UNL     1      95.312  95.152  80.666  1.00  0.00     0.005 C 
ATOM     23  C   UNL     1      95.856  93.956  81.495  1.00  0.00     0.012 C 
ATOM     24  C   UNL     1      95.956  96.485  81.131  1.00  0.00     0.012 C 
ENDBRANCH  21  22
ENDBRANCH  19  20
ENDBRANCH  18  19
ENDBRANCH  17  18
ENDBRANCH   1  17
TORSDOF 10
ENDMDL
MODEL 3
REMARK VINA RESULT:    -5.601     26.780     29.111
REMARK INTER + INTRA:          -9.668
REMARK INTER:                  -9.010
REMARK INTRA:                  -0.658
REMARK UNBOUND:                -0.956
REMARK SMILES COc1cc(CNC(=O)CCCC/C=C/C(C)C)ccc1O
REMARK SMILES IDX 10 1 8 2 7 3 9 5 6 6 5 7 3 8 21 9 4 10 20 11 19 12 2 13 1 14
REMARK SMILES IDX 22 15 11 17 12 18 13 19 14 20 15 21 16 22 17 23 18 24
REMARK H PARENT 7 4 22 16
REMARK Flexibility Score: inf
ROOT
ATOM      1  C   UNL     1      65.179  86.262  77.082  1.00  0.00     0.100 C 
ENDROOT
BRANCH   1   2
ATOM      2  C   UNL     1      66.264  86.127  78.072  1.00  0.00     0.220 C 
ATOM      3  N   UNL     1      65.989  85.752  79.353  1.00  0.00    -0.352 N 
ATOM      4  H   UNL     1      65.009  85.606  79.553  1.00  0.00     0.163 HD
ATOM      5  O   UNL     1      67.441  86.344  77.694  1.00  0.00    -0.275 OA
BRANCH   3   6
ATOM      6  C   UNL     1      66.968  85.562  80.375  1.00  0.00     0.151 C 
BRANCH   6   7
ATOM      7  C   UNL     1      66.336  85.394  81.712  1.00  0.00    -0.025 A 
ATOM      8  C   UNL     1      66.424  84.525  84.014  1.00  0.00     0.160 A 
ATOM      9  C   UNL     1      65.154  85.082  84.274  1.00  0.00     0.157 A 
ATOM     10  C   UNL     1      67.001  84.684  82.737  1.00  0.00     0.056 A 
ATOM     11  C   UNL     1      64.471  85.776  83.256  1.00  0.00     0.050 A 
ATOM     12  C   UNL     1      65.060  85.940  81.987  1.00  0.00     0.009 A 
BRANCH   8  13
ATOM     13  O   UNL     1      67.064  83.792  84.981  1.00  0.00    -0.493 OA
ATOM     14  C   UNL     1      68.080  84.521  85.694  1.00  0.00     0.278 C 
ENDBRANCH   8  13
BRANCH   9  15
ATOM     15  O   UNL     1      64.577  84.958  85.496  1.00  0.00    -0.504 OA
ATOM     16  H   UNL     1      63.622  84.944  85.400  1.00  0.00     0.293 HD
ENDBRANCH   9  15
ENDBRANCH   6   7
ENDBRANCH   3   6
ENDBRANCH   1   2
BRANCH   1  17
ATOM     17  C   UNL     1      65.707  86.114  75.630  1.00  0.00     0.010 C 
BRANCH  17  18
ATOM     18  C   UNL     1      65.050  84.931  74.865  1.00  0.00     0.005 C 
BRANCH  18  19
ATOM     19  C   UNL     1      64.300  83.958  75.814  1.00  0.00     0.027 C 
BRANCH  19  20
ATOM     20  C   UNL     1      63.965  82.703  75.158  1.00  0.00    -0.031 C 
ATOM     21  C   UNL     1      64.763  82.076  74.273  1.00  0.00    -0.028 C 
BRANCH  21  22
ATOM     22  C   UNL     1      64.414  80.804  73.641  1.00  0.00     0.005 C 
ATOM     23  C   UNL     1      63.657  81.001  72.298  1.00  0.00     0.012 C 
ATOM     24  C   UNL     1      65.687  79.941  73.436  1.00  0.00     0.012 C 
ENDBRANCH  21  22
ENDBRANCH  19  20
ENDBRANCH  18  19
ENDBRANCH  17  18
ENDBRANCH   1  17
TORSDOF 10
ENDMDL
MODEL 4
REMARK VINA RESULT:    -5.575     11.829     13.462
REMARK INTER + INTRA:          -9.627
REMARK INTER:                  -8.570
REMARK INTRA:                  -1.057
REMARK UNBOUND:                -0.956
REMARK SMILES COc1cc(CNC(=O)CCCC/C=C/C(C)C)ccc1O
REMARK SMILES IDX 10 1 8 2 7 3 9 5 6 6 5 7 3 8 21 9 4 10 20 11 19 12 2 13 1 14
REMARK SMILES IDX 22 15 11 17 12 18 13 19 14 20 15 21 16 22 17 23 18 24
REMARK H PARENT 7 4 22 16
REMARK Flexibility Score: inf
ROOT
ATOM      1  C   UNL     1      96.780  83.213  77.731  1.00  0.00     0.100 C 
ENDROOT
BRANCH   1   2
ATOM      2  C   UNL     1      97.416  83.213  76.400  1.00  0.00     0.220 C 
ATOM      3  N   UNL     1      98.709  83.616  76.251  1.00  0.00    -0.352 N 
ATOM      4  H   UNL     1      99.160  83.924  77.101  1.00  0.00     0.163 HD
ATOM      5  O   UNL     1      96.741  82.811  75.421  1.00  0.00    -0.275 OA
BRANCH   3   6
ATOM      6  C   UNL     1      99.424  83.623  75.015  1.00  0.00     0.151 C 
BRANCH   6   7
ATOM      7  C   UNL     1     100.738  82.935  75.139  1.00  0.00    -0.025 A 
ATOM      8  C   UNL     1     102.274  81.494  76.415  1.00  0.00     0.160 A 
ATOM      9  C   UNL     1     103.230  81.600  75.384  1.00  0.00     0.157 A 
ATOM     10  C   UNL     1     101.039  82.164  76.284  1.00  0.00     0.056 A 
ATOM     11  C   UNL     1     102.952  82.381  74.245  1.00  0.00     0.050 A 
ATOM     12  C   UNL     1     101.711  83.036  74.118  1.00  0.00     0.009 A 
BRANCH   8  13
ATOM     13  O   UNL     1     102.566  80.789  77.554  1.00  0.00    -0.493 OA
ATOM     14  C   UNL     1     101.529  80.830  78.552  1.00  0.00     0.278 C 
ENDBRANCH   8  13
BRANCH   9  15
ATOM     15  O   UNL     1     104.423  80.957  75.472  1.00  0.00    -0.504 OA
ATOM     16  H   UNL     1     104.279  80.008  75.454  1.00  0.00     0.293 HD
ENDBRANCH   9  15
ENDBRANCH   6   7
ENDBRANCH   3   6
ENDBRANCH   1   2
BRANCH   1  17
ATOM     17  C   UNL     1      96.508  81.770  78.236  1.00  0.00     0.010 C 
BRANCH  17  18
ATOM     18  C   UNL     1      97.468  81.338  79.380  1.00  0.00     0.005 C 
BRANCH  18  19
ATOM     19  C   UNL     1      98.348  82.513  79.887  1.00  0.00     0.027 C 
BRANCH  19  20
ATOM     20  C   UNL     1      97.983  82.928  81.233  1.00  0.00    -0.031 C 
ATOM     21  C   UNL     1      96.738  82.850  81.738  1.00  0.00    -0.028 C 
BRANCH  21  22
ATOM     22  C   UNL     1      96.398  83.255  83.101  1.00  0.00     0.005 C 
ATOM     23  C   UNL     1      95.878  82.067  83.957  1.00  0.00     0.012 C 
ATOM     24  C   UNL     1      97.617  83.933  83.779  1.00  0.00     0.012 C 
ENDBRANCH  21  22
ENDBRANCH  19  20
ENDBRANCH  18  19
ENDBRANCH  17  18
ENDBRANCH   1  17
TORSDOF 10
ENDMDL
MODEL 5
REMARK VINA RESULT:    -5.564     29.764     31.575
REMARK INTER + INTRA:          -9.610
REMARK INTER:                  -8.001
REMARK INTRA:                  -1.609
REMARK UNBOUND:                -0.956
REMARK SMILES COc1cc(CNC(=O)CCCC/C=C/C(C)C)ccc1O
REMARK SMILES IDX 10 1 8 2 7 3 9 5 6 6 5 7 3 8 21 9 4 10 20 11 19 12 2 13 1 14
REMARK SMILES IDX 22 15 11 17 12 18 13 19 14 20 15 21 16 22 17 23 18 24
REMARK H PARENT 7 4 22 16
REMARK Flexibility Score: inf
ROOT
ATOM      1  C   UNL     1      61.727  86.295  74.451  1.00  0.00     0.100 C 
ENDROOT
BRANCH   1   2
ATOM      2  C   UNL     1      61.027  85.460  73.455  1.00  0.00     0.220 C 
ATOM      3  N   UNL     1      61.539  84.253  73.083  1.00  0.00    -0.352 N 
ATOM      4  H   UNL     1      62.418  84.010  73.518  1.00  0.00     0.163 HD
ATOM      5  O   UNL     1      59.943  85.882  72.985  1.00  0.00    -0.275 OA
BRANCH   3   6
ATOM      6  C   UNL     1      60.924  83.358  72.155  1.00  0.00     0.151 C 
BRANCH   6   7
ATOM      7  C   UNL     1      61.759  83.177  70.936  1.00  0.00    -0.025 A 
ATOM      8  C   UNL     1      62.975  84.144  69.026  1.00  0.00     0.160 A 
ATOM      9  C   UNL     1      63.368  82.851  68.621  1.00  0.00     0.157 A 
ATOM     10  C   UNL     1      62.174  84.294  70.177  1.00  0.00     0.056 A 
ATOM     11  C   UNL     1      62.945  81.726  69.356  1.00  0.00     0.050 A 
ATOM     12  C   UNL     1      62.155  81.887  70.511  1.00  0.00     0.009 A 
BRANCH   8  13
ATOM     13  O   UNL     1      63.329  85.237  68.276  1.00  0.00    -0.493 OA
ATOM     14  C   UNL     1      62.245  85.803  67.517  1.00  0.00     0.278 C 
ENDBRANCH   8  13
BRANCH   9  15
ATOM     15  O   UNL     1      64.150  82.672  67.525  1.00  0.00    -0.504 OA
ATOM     16  H   UNL     1      63.608  82.380  66.788  1.00  0.00     0.293 HD
ENDBRANCH   9  15
ENDBRANCH   6   7
ENDBRANCH   3   6
ENDBRANCH   1   2
BRANCH   1  17
ATOM     17  C   UNL     1      63.195  85.834  74.653  1.00  0.00     0.010 C 
BRANCH  17  18
ATOM     18  C   UNL     1      63.404  85.042  75.975  1.00  0.00     0.005 C 
BRANCH  18  19
ATOM     19  C   UNL     1      64.580  84.033  75.879  1.00  0.00     0.027 C 
BRANCH  19  20
ATOM     20  C   UNL     1      64.189  82.797  75.220  1.00  0.00    -0.031 C 
ATOM     21  C   UNL     1      64.696  82.371  74.048  1.00  0.00    -0.028 C 
BRANCH  21  22
ATOM     22  C   UNL     1      64.302  81.114  73.413  1.00  0.00     0.005 C 
ATOM     23  C   UNL     1      65.387  80.012  73.562  1.00  0.00     0.012 C 
ATOM     24  C   UNL     1      62.942  80.630  73.979  1.00  0.00     0.012 C 
ENDBRANCH  21  22
ENDBRANCH  19  20
ENDBRANCH  18  19
ENDBRANCH  17  18
ENDBRANCH   1  17
TORSDOF 10
ENDMDL
MODEL 6
REMARK VINA RESULT:    -5.505     26.701     29.148
REMARK INTER + INTRA:          -9.518
REMARK INTER:                  -8.898
REMARK INTRA:                  -0.620
REMARK UNBOUND:                -0.956
REMARK SMILES COc1cc(CNC(=O)CCCC/C=C/C(C)C)ccc1O
REMARK SMILES IDX 10 1 8 2 7 3 9 5 6 6 5 7 3 8 21 9 4 10 20 11 19 12 2 13 1 14
REMARK SMILES IDX 22 15 11 17 12 18 13 19 14 20 15 21 16 22 17 23 18 24
REMARK H PARENT 7 4 22 16
REMARK Flexibility Score: inf
ROOT
ATOM      1  C   UNL     1      64.586  86.558  76.597  1.00  0.00     0.100 C 
ENDROOT
BRANCH   1   2
ATOM      2  C   UNL     1      65.798  86.614  77.437  1.00  0.00     0.220 C 
ATOM      3  N   UNL     1      65.908  85.829  78.545  1.00  0.00    -0.352 N 
ATOM      4  H   UNL     1      65.103  85.249  78.738  1.00  0.00     0.163 HD
ATOM      5  O   UNL     1      66.725  87.384  77.088  1.00  0.00    -0.275 OA
BRANCH   3   6
ATOM      6  C   UNL     1      67.048  85.785  79.403  1.00  0.00     0.151 C 
BRANCH   6   7
ATOM      7  C   UNL     1      66.660  85.509  80.814  1.00  0.00    -0.025 A 
ATOM      8  C   UNL     1      65.162  85.910  82.727  1.00  0.00     0.160 A 
ATOM      9  C   UNL     1      65.894  84.980  83.495  1.00  0.00     0.157 A 
ATOM     10  C   UNL     1      65.553  86.167  81.396  1.00  0.00     0.056 A 
ATOM     11  C   UNL     1      67.012  84.332  82.934  1.00  0.00     0.050 A 
ATOM     12  C   UNL     1      67.387  84.586  81.601  1.00  0.00     0.009 A 
BRANCH   8  13
ATOM     13  O   UNL     1      64.114  86.592  83.289  1.00  0.00    -0.493 OA
ATOM     14  C   UNL     1      63.140  87.059  82.337  1.00  0.00     0.278 C 
ENDBRANCH   8  13
BRANCH   9  15
ATOM     15  O   UNL     1      65.537  84.700  84.775  1.00  0.00    -0.504 OA
ATOM     16  H   UNL     1      66.294  84.820  85.353  1.00  0.00     0.293 HD
ENDBRANCH   9  15
ENDBRANCH   6   7
ENDBRANCH   3   6
ENDBRANCH   1   2
BRANCH   1  17
ATOM     17  C   UNL     1      64.918  86.781  75.097  1.00  0.00     0.010 C 
BRANCH  17  18
ATOM     18  C   UNL     1      64.660  85.520  74.226  1.00  0.00     0.005 C 
BRANCH  18  19
ATOM     19  C   UNL     1      64.687  84.211  75.060  1.00  0.00     0.027 C 
BRANCH  19  20
ATOM     20  C   UNL     1      64.434  83.035  74.240  1.00  0.00    -0.031 C 
ATOM     21  C   UNL     1      64.777  81.782  74.590  1.00  0.00    -0.028 C 
BRANCH  21  22
ATOM     22  C   UNL     1      64.496  80.611  73.759  1.00  0.00     0.005 C 
ATOM     23  C   UNL     1      63.725  80.982  72.462  1.00  0.00     0.012 C 
ATOM     24  C   UNL     1      65.811  79.861  73.426  1.00  0.00     0.012 C 
ENDBRANCH  21  22
ENDBRANCH  19  20
ENDBRANCH  18  19
ENDBRANCH  17  18
ENDBRANCH   1  17
TORSDOF 10
ENDMDL
MODEL 7
REMARK VINA RESULT:    -5.501     25.201     28.642
REMARK INTER + INTRA:          -9.513
REMARK INTER:                  -8.367
REMARK INTRA:                  -1.145
REMARK UNBOUND:                -0.956
REMARK SMILES COc1cc(CNC(=O)CCCC/C=C/C(C)C)ccc1O
REMARK SMILES IDX 10 1 8 2 7 3 9 5 6 6 5 7 3 8 21 9 4 10 20 11 19 12 2 13 1 14
REMARK SMILES IDX 22 15 11 17 12 18 13 19 14 20 15 21 16 22 17 23 18 24
REMARK H PARENT 7 4 22 16
REMARK Flexibility Score: inf
ROOT
ATOM      1  C   UNL     1      80.185  65.261  73.320  1.00  0.00     0.100 C 
ENDROOT
BRANCH   1   2
ATOM      2  C   UNL     1      80.988  64.156  73.877  1.00  0.00     0.220 C 
ATOM      3  N   UNL     1      82.328  64.305  74.073  1.00  0.00    -0.352 N 
ATOM      4  H   UNL     1      82.704  65.199  73.788  1.00  0.00     0.163 HD
ATOM      5  O   UNL     1      80.398  63.092  74.185  1.00  0.00    -0.275 OA
BRANCH   3   6
ATOM      6  C   UNL     1      83.186  63.311  74.635  1.00  0.00     0.151 C 
BRANCH   6   7
ATOM      7  C   UNL     1      83.899  63.821  75.837  1.00  0.00    -0.025 A 
ATOM      8  C   UNL     1      84.814  65.707  77.130  1.00  0.00     0.160 A 
ATOM      9  C   UNL     1      85.242  64.813  78.133  1.00  0.00     0.157 A 
ATOM     10  C   UNL     1      84.149  65.203  75.992  1.00  0.00     0.056 A 
ATOM     11  C   UNL     1      85.017  63.430  77.983  1.00  0.00     0.050 A 
ATOM     12  C   UNL     1      84.342  62.938  76.849  1.00  0.00     0.009 A 
BRANCH   8  13
ATOM     13  O   UNL     1      85.088  67.046  77.239  1.00  0.00    -0.493 OA
ATOM     14  C   UNL     1      84.094  67.900  76.644  1.00  0.00     0.278 C 
ENDBRANCH   8  13
BRANCH   9  15
ATOM     15  O   UNL     1      85.872  65.266  79.247  1.00  0.00    -0.504 OA
ATOM     16  H   UNL     1      86.607  64.685  79.459  1.00  0.00     0.293 HD
ENDBRANCH   9  15
ENDBRANCH   6   7
ENDBRANCH   3   6
ENDBRANCH   1   2
BRANCH   1  17
ATOM     17  C   UNL     1      80.528  66.616  73.996  1.00  0.00     0.010 C 
BRANCH  17  18
ATOM     18  C   UNL     1      80.607  67.794  72.985  1.00  0.00     0.005 C 
BRANCH  18  19
ATOM     19  C   UNL     1      81.166  67.352  71.605  1.00  0.00     0.027 C 
BRANCH  19  20
ATOM     20  C   UNL     1      82.462  67.950  71.323  1.00  0.00    -0.031 C 
ATOM     21  C   UNL     1      83.419  68.150  72.247  1.00  0.00    -0.028 C 
BRANCH  21  22
ATOM     22  C   UNL     1      84.724  68.735  71.937  1.00  0.00     0.005 C 
ATOM     23  C   UNL     1      84.598  70.078  71.165  1.00  0.00     0.012 C 
ATOM     24  C   UNL     1      85.552  68.918  73.235  1.00  0.00     0.012 C 
ENDBRANCH  21  22
ENDBRANCH  19  20
ENDBRANCH  18  19
ENDBRANCH  17  18
ENDBRANCH   1  17
TORSDOF 10
ENDMDL
MODEL 8
REMARK VINA RESULT:    -5.444     25.066     28.505
REMARK INTER + INTRA:          -9.423
REMARK INTER:                  -8.106
REMARK INTRA:                  -1.317
REMARK UNBOUND:                -0.956
REMARK SMILES COc1cc(CNC(=O)CCCC/C=C/C(C)C)ccc1O
REMARK SMILES IDX 10 1 8 2 7 3 9 5 6 6 5 7 3 8 21 9 4 10 20 11 19 12 2 13 1 14
REMARK SMILES IDX 22 15 11 17 12 18 13 19 14 20 15 21 16 22 17 23 18 24
REMARK H PARENT 7 4 22 16
REMARK Flexibility Score: inf
ROOT
ATOM      1  C   UNL     1      84.949  63.211  80.262  1.00  0.00     0.100 C 
ENDROOT
BRANCH   1   2
ATOM      2  C   UNL     1      85.190  63.336  78.811  1.00  0.00     0.220 C 
ATOM      3  N   UNL     1      84.163  63.204  77.926  1.00  0.00    -0.352 N 
ATOM      4  H   UNL     1      83.265  62.997  78.342  1.00  0.00     0.163 HD
ATOM      5  O   UNL     1      86.356  63.589  78.424  1.00  0.00    -0.275 OA
BRANCH   3   6
ATOM      6  C   UNL     1      84.285  63.339  76.509  1.00  0.00     0.151 C 
BRANCH   6   7
ATOM      7  C   UNL     1      83.269  64.277  75.960  1.00  0.00    -0.025 A 
ATOM      8  C   UNL     1      82.109  65.266  74.026  1.00  0.00     0.160 A 
ATOM      9  C   UNL     1      81.322  66.048  74.896  1.00  0.00     0.157 A 
ATOM     10  C   UNL     1      83.075  64.391  74.565  1.00  0.00     0.056 A 
ATOM     11  C   UNL     1      81.517  65.960  76.289  1.00  0.00     0.050 A 
ATOM     12  C   UNL     1      82.476  65.074  76.818  1.00  0.00     0.009 A 
BRANCH   8  13
ATOM     13  O   UNL     1      81.969  65.397  72.667  1.00  0.00    -0.493 OA
ATOM     14  C   UNL     1      82.881  66.337  72.071  1.00  0.00     0.278 C 
ENDBRANCH   8  13
BRANCH   9  15
ATOM     15  O   UNL     1      80.374  66.890  74.410  1.00  0.00    -0.504 OA
ATOM     16  H   UNL     1      80.227  67.603  75.037  1.00  0.00     0.293 HD
ENDBRANCH   9  15
ENDBRANCH   6   7
ENDBRANCH   3   6
ENDBRANCH   1   2
BRANCH   1  17
ATOM     17  C   UNL     1      86.233  63.506  81.083  1.00  0.00     0.010 C 
BRANCH  17  18
ATOM     18  C   UNL     1      86.103  64.773  81.973  1.00  0.00     0.005 C 
BRANCH  18  19
ATOM     19  C   UNL     1      87.014  65.933  81.487  1.00  0.00     0.027 C 
BRANCH  19  20
ATOM     20  C   UNL     1      86.521  66.537  80.258  1.00  0.00    -0.031 C 
ATOM     21  C   UNL     1      87.297  67.185  79.370  1.00  0.00    -0.028 C 
BRANCH  21  22
ATOM     22  C   UNL     1      86.783  67.769  78.132  1.00  0.00     0.005 C 
ATOM     23  C   UNL     1      85.465  67.091  77.663  1.00  0.00     0.012 C 
ATOM     24  C   UNL     1      86.589  69.298  78.300  1.00  0.00     0.012 C 
ENDBRANCH  21  22
ENDBRANCH  19  20
ENDBRANCH  18  19
ENDBRANCH  17  18
ENDBRANCH   1  17
TORSDOF 10
ENDMDL
MODEL 9
REMARK VINA RESULT:    -5.414     26.410     28.944
REMARK INTER + INTRA:          -9.376
REMARK INTER:                  -7.510
REMARK INTRA:                  -1.866
REMARK UNBOUND:                -0.956
REMARK SMILES COc1cc(CNC(=O)CCCC/C=C/C(C)C)ccc1O
REMARK SMILES IDX 10 1 8 2 7 3 9 5 6 6 5 7 3 8 21 9 4 10 20 11 19 12 2 13 1 14
REMARK SMILES IDX 22 15 11 17 12 18 13 19 14 20 15 21 16 22 17 23 18 24
REMARK H PARENT 7 4 22 16
REMARK Flexibility Score: inf
ROOT
ATOM      1  C   UNL     1      85.095  65.076  76.768  1.00  0.00     0.100 C 
ENDROOT
BRANCH   1   2
ATOM      2  C   UNL     1      83.631  65.236  76.663  1.00  0.00     0.220 C 
ATOM      3  N   UNL     1      83.094  66.397  76.195  1.00  0.00    -0.352 N 
ATOM      4  H   UNL     1      83.767  67.115  75.961  1.00  0.00     0.163 HD
ATOM      5  O   UNL     1      82.905  64.268  76.993  1.00  0.00    -0.275 OA
BRANCH   3   6
ATOM      6  C   UNL     1      81.697  66.640  76.025  1.00  0.00     0.151 C 
BRANCH   6   7
ATOM      7  C   UNL     1      81.282  66.472  74.606  1.00  0.00    -0.025 A 
ATOM      8  C   UNL     1      81.360  67.222  72.262  1.00  0.00     0.160 A 
ATOM      9  C   UNL     1      80.515  66.155  71.892  1.00  0.00     0.157 A 
ATOM     10  C   UNL     1      81.733  67.372  73.614  1.00  0.00     0.056 A 
ATOM     11  C   UNL     1      80.041  65.262  72.873  1.00  0.00     0.050 A 
ATOM     12  C   UNL     1      80.429  65.412  74.219  1.00  0.00     0.009 A 
BRANCH   8  13
ATOM     13  O   UNL     1      81.770  68.133  71.322  1.00  0.00    -0.493 OA
ATOM     14  C   UNL     1      82.937  68.885  71.703  1.00  0.00     0.278 C 
ENDBRANCH   8  13
BRANCH   9  15
ATOM     15  O   UNL     1      80.147  65.976  70.597  1.00  0.00    -0.504 OA
ATOM     16  H   UNL     1      79.210  66.158  70.501  1.00  0.00     0.293 HD
ENDBRANCH   9  15
ENDBRANCH   6   7
ENDBRANCH   3   6
ENDBRANCH   1   2
BRANCH   1  17
ATOM     17  C   UNL     1      85.642  64.098  75.694  1.00  0.00     0.010 C 
BRANCH  17  18
ATOM     18  C   UNL     1      85.729  64.739  74.280  1.00  0.00     0.005 C 
BRANCH  18  19
ATOM     19  C   UNL     1      84.484  64.418  73.409  1.00  0.00     0.027 C 
BRANCH  19  20
ATOM     20  C   UNL     1      84.442  65.222  72.197  1.00  0.00    -0.031 C 
ATOM     21  C   UNL     1      83.863  64.828  71.048  1.00  0.00    -0.028 C 
BRANCH  21  22
ATOM     22  C   UNL     1      83.815  65.662  69.847  1.00  0.00     0.005 C 
ATOM     23  C   UNL     1      85.084  66.545  69.691  1.00  0.00     0.012 C 
ATOM     24  C   UNL     1      83.598  64.780  68.590  1.00  0.00     0.012 C 
ENDBRANCH  21  22
ENDBRANCH  19  20
ENDBRANCH  18  19
ENDBRANCH  17  18
ENDBRANCH   1  17
TORSDOF 10
ENDMDL
MODEL 10
REMARK VINA RESULT:    -5.403     19.710     23.304
REMARK INTER + INTRA:          -9.359
REMARK INTER:                  -8.282
REMARK INTRA:                  -1.077
REMARK UNBOUND:                -0.956
REMARK SMILES COc1cc(CNC(=O)CCCC/C=C/C(C)C)ccc1O
REMARK SMILES IDX 10 1 8 2 7 3 9 5 6 6 5 7 3 8 21 9 4 10 20 11 19 12 2 13 1 14
REMARK SMILES IDX 22 15 11 17 12 18 13 19 14 20 15 21 16 22 17 23 18 24
REMARK H PARENT 7 4 22 16
REMARK Flexibility Score: inf
ROOT
ATOM      1  C   UNL     1      76.410  82.037  64.811  1.00  0.00     0.100 C 
ENDROOT
BRANCH   1   2
ATOM      2  C   UNL     1      75.036  81.535  64.619  1.00  0.00     0.220 C 
ATOM      3  N   UNL     1      74.207  82.120  63.709  1.00  0.00    -0.352 N 
ATOM      4  H   UNL     1      74.601  82.912  63.220  1.00  0.00     0.163 HD
ATOM      5  O   UNL     1      74.666  80.546  65.296  1.00  0.00    -0.275 OA
BRANCH   3   6
ATOM      6  C   UNL     1      72.875  81.691  63.426  1.00  0.00     0.151 C 
BRANCH   6   7
ATOM      7  C   UNL     1      71.882  82.374  64.300  1.00  0.00    -0.025 A 
ATOM      8  C   UNL     1      71.239  84.306  65.684  1.00  0.00     0.160 A 
ATOM      9  C   UNL     1      69.995  83.699  65.954  1.00  0.00     0.157 A 
ATOM     10  C   UNL     1      72.171  83.637  64.863  1.00  0.00     0.056 A 
ATOM     11  C   UNL     1      69.701  82.430  65.416  1.00  0.00     0.050 A 
ATOM     12  C   UNL     1      70.633  81.776  64.587  1.00  0.00     0.009 A 
BRANCH   8  13
ATOM     13  O   UNL     1      71.556  85.510  66.259  1.00  0.00    -0.493 OA
ATOM     14  C   UNL     1      72.784  86.085  65.778  1.00  0.00     0.278 C 
ENDBRANCH   8  13
BRANCH   9  15
ATOM     15  O   UNL     1      69.070  84.321  66.730  1.00  0.00    -0.504 OA
ATOM     16  H   UNL     1      69.424  84.445  67.614  1.00  0.00     0.293 HD
ENDBRANCH   9  15
ENDBRANCH   6   7
ENDBRANCH   3   6
ENDBRANCH   1   2
BRANCH   1  17
ATOM     17  C   UNL     1      76.417  83.486  65.368  1.00  0.00     0.010 C 
BRANCH  17  18
ATOM     18  C   UNL     1      75.742  83.602  66.764  1.00  0.00     0.005 C 
BRANCH  18  19
ATOM     19  C   UNL     1      76.602  84.414  67.770  1.00  0.00     0.027 C 
BRANCH  19  20
ATOM     20  C   UNL     1      76.654  85.827  67.429  1.00  0.00    -0.031 C 
ATOM     21  C   UNL     1      77.793  86.531  67.294  1.00  0.00    -0.028 C 
BRANCH  21  22
ATOM     22  C   UNL     1      77.822  87.948  66.931  1.00  0.00     0.005 C 
ATOM     23  C   UNL     1      78.059  88.162  65.410  1.00  0.00     0.012 C 
ATOM     24  C   UNL     1      76.515  88.646  67.391  1.00  0.00     0.012 C 
ENDBRANCH  21  22
ENDBRANCH  19  20
ENDBRANCH  18  19
ENDBRANCH  17  18
ENDBRANCH   1  17
TORSDOF 10
ENDMDL
