MODEL 1
REMARK VINA RESULT:    -5.803      0.000      0.000
REMARK INTER + INTRA:         -10.326
REMARK INTER:                  -9.534
REMARK INTRA:                  -0.792
REMARK UNBOUND:                -0.792
REMARK SMILES CCCCC[C@H](O)CC(=O)CCc1ccc(O)c(OC)c1
REMARK SMILES IDX 8 1 6 2 7 3 5 5 4 6 3 7 2 8 1 9 9 10 10 11 11 12 12 13 13 14
REMARK SMILES IDX 21 15 14 16 18 17 15 18 16 19 19 20 20 21 17 22
REMARK H PARENT 7 4 17 23
REMARK Flexibility Score: inf
ROOT
ATOM      1  C   UNL     1      96.653  80.476  82.059  1.00  0.00     0.107 C 
ENDROOT
BRANCH   1   2
ATOM      2  C   UNL     1      96.918  81.811  82.759  1.00  0.00     0.121 C 
BRANCH   2   3
ATOM      3  O   UNL     1      97.036  82.850  81.789  1.00  0.00    -0.393 OA
ATOM      4  H   UNL     1      97.168  82.432  80.920  1.00  0.00     0.210 HD
ENDBRANCH   2   3
BRANCH   2   5
ATOM      5  C   UNL     1      95.827  82.186  83.770  1.00  0.00     0.032 C 
BRANCH   5   6
ATOM      6  C   UNL     1      94.937  80.990  84.128  1.00  0.00     0.003 C 
BRANCH   6   7
ATOM      7  C   UNL     1      93.555  81.396  84.649  1.00  0.00    -0.000 C 
BRANCH   7   8
ATOM      8  C   UNL     1      92.761  80.237  85.247  1.00  0.00    -0.003 C 
ATOM      9  C   UNL     1      93.499  78.917  85.084  1.00  0.00     0.004 C 
ENDBRANCH   7   8
ENDBRANCH   6   7
ENDBRANCH   5   6
ENDBRANCH   2   5
ENDBRANCH   1   2
BRANCH   1  10
ATOM     10  C   UNL     1      97.821  80.008  81.207  1.00  0.00     0.135 C 
ATOM     11  O   UNL     1      98.865  79.613  81.726  1.00  0.00    -0.300 OA
BRANCH  10  12
ATOM     12  C   UNL     1      97.611  80.013  79.700  1.00  0.00     0.080 C 
BRANCH  12  13
ATOM     13  C   UNL     1      98.412  81.093  78.972  1.00  0.00     0.043 C 
BRANCH  13  14
ATOM     14  C   UNL     1      97.621  81.788  77.889  1.00  0.00    -0.044 A 
ATOM     15  C   UNL     1      98.169  81.946  76.616  1.00  0.00     0.054 A 
ATOM     16  C   UNL     1      96.341  82.271  78.163  1.00  0.00     0.008 A 
ATOM     17  C   UNL     1      97.436  82.587  75.617  1.00  0.00     0.160 A 
ATOM     18  C   UNL     1      95.608  82.912  77.163  1.00  0.00     0.050 A 
ATOM     19  C   UNL     1      96.156  83.070  75.891  1.00  0.00     0.157 A 
BRANCH  17  20
ATOM     20  O   UNL     1      97.982  82.736  74.378  1.00  0.00    -0.493 OA
ATOM     21  C   UNL     1      97.711  81.713  73.422  1.00  0.00     0.278 C 
ENDBRANCH  17  20
BRANCH  19  22
ATOM     22  O   UNL     1      95.432  83.698  74.923  1.00  0.00    -0.504 OA
ATOM     23  H   UNL     1      94.887  83.039  74.458  1.00  0.00     0.293 HD
ENDBRANCH  19  22
ENDBRANCH  13  14
ENDBRANCH  12  13
ENDBRANCH  10  12
ENDBRANCH   1  10
TORSDOF 12
ENDMDL
MODEL 2
REMARK VINA RESULT:    -5.681     19.742     22.964
REMARK INTER + INTRA:         -10.126
REMARK INTER:                  -8.894
REMARK INTRA:                  -1.232
REMARK UNBOUND:                -0.792
REMARK SMILES CCCCC[C@H](O)CC(=O)CCc1ccc(O)c(OC)c1
REMARK SMILES IDX 8 1 6 2 7 3 5 5 4 6 3 7 2 8 1 9 9 10 10 11 11 12 12 13 13 14
REMARK SMILES IDX 21 15 14 16 18 17 15 18 16 19 19 20 20 21 17 22
REMARK H PARENT 7 4 17 23
REMARK Flexibility Score: inf
ROOT
ATOM      1  C   UNL     1      91.340  99.110  69.318  1.00  0.00     0.107 C 
ENDROOT
BRANCH   1   2
ATOM      2  C   UNL     1      91.130 100.431  70.064  1.00  0.00     0.121 C 
BRANCH   2   3
ATOM      3  O   UNL     1      89.742 100.757  70.088  1.00  0.00    -0.393 OA
ATOM      4  H   UNL     1      89.634 101.558  70.630  1.00  0.00     0.210 HD
ENDBRANCH   2   3
BRANCH   2   5
ATOM      5  C   UNL     1      91.666 100.401  71.500  1.00  0.00     0.032 C 
BRANCH   5   6
ATOM      6  C   UNL     1      92.998  99.648  71.602  1.00  0.00     0.003 C 
BRANCH   6   7
ATOM      7  C   UNL     1      93.364  99.255  73.037  1.00  0.00    -0.000 C 
BRANCH   7   8
ATOM      8  C   UNL     1      93.973  97.859  73.153  1.00  0.00    -0.003 C 
ATOM      9  C   UNL     1      94.151  97.451  74.607  1.00  0.00     0.004 C 
ENDBRANCH   7   8
ENDBRANCH   6   7
ENDBRANCH   5   6
ENDBRANCH   2   5
ENDBRANCH   1   2
BRANCH   1  10
ATOM     10  C   UNL     1      90.088  98.250  69.266  1.00  0.00     0.135 C 
ATOM     11  O   UNL     1      89.540  97.866  70.300  1.00  0.00    -0.300 OA
BRANCH  10  12
ATOM     12  C   UNL     1      89.533  97.936  67.885  1.00  0.00     0.080 C 
BRANCH  12  13
ATOM     13  C   UNL     1      89.942  98.948  66.813  1.00  0.00     0.043 C 
BRANCH  13  14
ATOM     14  C   UNL     1      88.915 100.034  66.602  1.00  0.00    -0.044 A 
ATOM     15  C   UNL     1      89.310 101.372  66.567  1.00  0.00     0.054 A 
ATOM     16  C   UNL     1      87.570  99.700  66.441  1.00  0.00     0.008 A 
ATOM     17  C   UNL     1      88.360 102.374  66.371  1.00  0.00     0.160 A 
ATOM     18  C   UNL     1      86.620 100.702  66.244  1.00  0.00     0.050 A 
ATOM     19  C   UNL     1      87.015 102.040  66.210  1.00  0.00     0.157 A 
BRANCH  17  20
ATOM     20  O   UNL     1      88.758 103.677  66.339  1.00  0.00    -0.493 OA
ATOM     21  C   UNL     1      90.103 103.934  65.940  1.00  0.00     0.278 C 
ENDBRANCH  17  20
BRANCH  19  22
ATOM     22  O   UNL     1      86.079 103.010  66.017  1.00  0.00    -0.504 OA
ATOM     23  H   UNL     1      86.315 103.788  66.550  1.00  0.00     0.293 HD
ENDBRANCH  19  22
ENDBRANCH  13  14
ENDBRANCH  12  13
ENDBRANCH  10  12
ENDBRANCH   1  10
TORSDOF 12
ENDMDL
MODEL 3
REMARK VINA RESULT:    -5.661     12.634     15.402
REMARK INTER + INTRA:         -10.093
REMARK INTER:                  -9.112
REMARK INTRA:                  -0.981
REMARK UNBOUND:                -0.792
REMARK SMILES CCCCC[C@H](O)CC(=O)CCc1ccc(O)c(OC)c1
REMARK SMILES IDX 8 1 6 2 7 3 5 5 4 6 3 7 2 8 1 9 9 10 10 11 11 12 12 13 13 14
REMARK SMILES IDX 21 15 14 16 18 17 15 18 16 19 19 20 20 21 17 22
REMARK H PARENT 7 4 17 23
REMARK Flexibility Score: inf
ROOT
ATOM      1  C   UNL     1      93.668  93.374  78.620  1.00  0.00     0.107 C 
ENDROOT
BRANCH   1   2
ATOM      2  C   UNL     1      92.869  93.562  77.328  1.00  0.00     0.121 C 
BRANCH   2   3
ATOM      3  O   UNL     1      91.886  92.536  77.214  1.00  0.00    -0.393 OA
ATOM      4  H   UNL     1      92.046  92.062  76.380  1.00  0.00     0.210 HD
ENDBRANCH   2   3
BRANCH   2   5
ATOM      5  C   UNL     1      92.184  94.931  77.241  1.00  0.00     0.032 C 
BRANCH   5   6
ATOM      6  C   UNL     1      92.909  95.878  76.277  1.00  0.00     0.003 C 
BRANCH   6   7
ATOM      7  C   UNL     1      93.925  95.167  75.378  1.00  0.00    -0.000 C 
BRANCH   7   8
ATOM      8  C   UNL     1      94.453  96.040  74.241  1.00  0.00    -0.003 C 
ATOM      9  C   UNL     1      93.863  97.441  74.298  1.00  0.00     0.004 C 
ENDBRANCH   7   8
ENDBRANCH   6   7
ENDBRANCH   5   6
ENDBRANCH   2   5
ENDBRANCH   1   2
BRANCH   1  10
ATOM     10  C   UNL     1      95.168  93.511  78.419  1.00  0.00     0.135 C 
ATOM     11  O   UNL     1      95.836  92.575  77.980  1.00  0.00    -0.300 OA
BRANCH  10  12
ATOM     12  C   UNL     1      95.778  94.866  78.742  1.00  0.00     0.080 C 
BRANCH  12  13
ATOM     13  C   UNL     1      95.568  95.305  80.192  1.00  0.00     0.043 C 
BRANCH  13  14
ATOM     14  C   UNL     1      96.814  95.178  81.036  1.00  0.00    -0.044 A 
ATOM     15  C   UNL     1      97.141  96.177  81.953  1.00  0.00     0.054 A 
ATOM     16  C   UNL     1      97.638  94.061  80.897  1.00  0.00     0.008 A 
ATOM     17  C   UNL     1      98.292  96.058  82.733  1.00  0.00     0.160 A 
ATOM     18  C   UNL     1      98.789  93.942  81.677  1.00  0.00     0.050 A 
ATOM     19  C   UNL     1      99.116  94.940  82.594  1.00  0.00     0.157 A 
BRANCH  17  20
ATOM     20  O   UNL     1      98.601  97.040  83.625  1.00  0.00    -0.493 OA
ATOM     21  C   UNL     1      97.534  97.553  84.420  1.00  0.00     0.278 C 
ENDBRANCH  17  20
BRANCH  19  22
ATOM     22  O   UNL     1     100.242  94.813  83.349  1.00  0.00    -0.504 OA
ATOM     23  H   UNL     1     100.359  93.877  83.589  1.00  0.00     0.293 HD
ENDBRANCH  19  22
ENDBRANCH  13  14
ENDBRANCH  12  13
ENDBRANCH  10  12
ENDBRANCH   1  10
TORSDOF 12
ENDMDL
MODEL 4
REMARK VINA RESULT:    -5.504      1.963      2.407
REMARK INTER + INTRA:          -9.834
REMARK INTER:                  -9.142
REMARK INTRA:                  -0.693
REMARK UNBOUND:                -0.792
REMARK SMILES CCCCC[C@H](O)CC(=O)CCc1ccc(O)c(OC)c1
REMARK SMILES IDX 8 1 6 2 7 3 5 5 4 6 3 7 2 8 1 9 9 10 10 11 11 12 12 13 13 14
REMARK SMILES IDX 21 15 14 16 18 17 15 18 16 19 19 20 20 21 17 22
REMARK H PARENT 7 4 17 23
REMARK Flexibility Score: inf
ROOT
ATOM      1  C   UNL     1      96.547  82.767  82.922  1.00  0.00     0.107 C 
ENDROOT
BRANCH   1   2
ATOM      2  C   UNL     1      95.985  82.004  84.124  1.00  0.00     0.121 C 
BRANCH   2   3
ATOM      3  O   UNL     1      97.054  81.530  84.939  1.00  0.00    -0.393 OA
ATOM      4  H   UNL     1      96.966  80.564  85.013  1.00  0.00     0.210 HD
ENDBRANCH   2   3
BRANCH   2   5
ATOM      5  C   UNL     1      95.033  82.848  84.980  1.00  0.00     0.032 C 
BRANCH   5   6
ATOM      6  C   UNL     1      93.885  82.014  85.559  1.00  0.00     0.003 C 
BRANCH   6   7
ATOM      7  C   UNL     1      93.206  82.671  86.765  1.00  0.00    -0.000 C 
BRANCH   7   8
ATOM      8  C   UNL     1      93.152  84.195  86.682  1.00  0.00    -0.003 C 
ATOM      9  C   UNL     1      93.571  84.837  87.996  1.00  0.00     0.004 C 
ENDBRANCH   7   8
ENDBRANCH   6   7
ENDBRANCH   5   6
ENDBRANCH   2   5
ENDBRANCH   1   2
BRANCH   1  10
ATOM     10  C   UNL     1      97.164  81.856  81.873  1.00  0.00     0.135 C 
ATOM     11  O   UNL     1      97.946  80.961  82.193  1.00  0.00    -0.300 OA
BRANCH  10  12
ATOM     12  C   UNL     1      96.730  82.083  80.433  1.00  0.00     0.080 C 
BRANCH  12  13
ATOM     13  C   UNL     1      97.748  81.595  79.400  1.00  0.00     0.043 C 
BRANCH  13  14
ATOM     14  C   UNL     1      97.386  81.980  77.985  1.00  0.00    -0.044 A 
ATOM     15  C   UNL     1      98.283  81.737  76.945  1.00  0.00     0.054 A 
ATOM     16  C   UNL     1      96.154  82.579  77.719  1.00  0.00     0.008 A 
ATOM     17  C   UNL     1      97.947  82.093  75.638  1.00  0.00     0.160 A 
ATOM     18  C   UNL     1      95.818  82.935  76.413  1.00  0.00     0.050 A 
ATOM     19  C   UNL     1      96.715  82.692  75.373  1.00  0.00     0.157 A 
BRANCH  17  20
ATOM     20  O   UNL     1      98.831  81.851  74.630  1.00  0.00    -0.493 OA
ATOM     21  C   UNL     1      99.941  82.739  74.515  1.00  0.00     0.278 C 
ENDBRANCH  17  20
BRANCH  19  22
ATOM     22  O   UNL     1      96.376  83.043  74.101  1.00  0.00    -0.504 OA
ATOM     23  H   UNL     1      96.368  84.013  74.032  1.00  0.00     0.293 HD
ENDBRANCH  19  22
ENDBRANCH  13  14
ENDBRANCH  12  13
ENDBRANCH  10  12
ENDBRANCH   1  10
TORSDOF 12
ENDMDL
MODEL 5
REMARK VINA RESULT:    -5.453     21.018     23.792
REMARK INTER + INTRA:          -9.751
REMARK INTER:                  -7.915
REMARK INTRA:                  -1.837
REMARK UNBOUND:                -0.792
REMARK SMILES CCCCC[C@H](O)CC(=O)CCc1ccc(O)c(OC)c1
REMARK SMILES IDX 8 1 6 2 7 3 5 5 4 6 3 7 2 8 1 9 9 10 10 11 11 12 12 13 13 14
REMARK SMILES IDX 21 15 14 16 18 17 15 18 16 19 19 20 20 21 17 22
REMARK H PARENT 7 4 17 23
REMARK Flexibility Score: inf
ROOT
ATOM      1  C   UNL     1      89.595  98.501  69.787  1.00  0.00     0.107 C 
ENDROOT
BRANCH   1   2
ATOM      2  C   UNL     1      90.440  98.187  68.549  1.00  0.00     0.121 C 
BRANCH   2   3
ATOM      3  O   UNL     1      90.446  96.781  68.312  1.00  0.00    -0.393 OA
ATOM      4  H   UNL     1      89.540  96.453  68.450  1.00  0.00     0.210 HD
ENDBRANCH   2   3
BRANCH   2   5
ATOM      5  C   UNL     1      89.951  98.910  67.289  1.00  0.00     0.032 C 
BRANCH   5   6
ATOM      6  C   UNL     1      88.789  99.866  67.587  1.00  0.00     0.003 C 
BRANCH   6   7
ATOM      7  C   UNL     1      88.591 100.935  66.508  1.00  0.00    -0.000 C 
BRANCH   7   8
ATOM      8  C   UNL     1      87.135 101.359  66.326  1.00  0.00    -0.003 C 
ATOM      9  C   UNL     1      86.206 100.155  66.294  1.00  0.00     0.004 C 
ENDBRANCH   7   8
ENDBRANCH   6   7
ENDBRANCH   5   6
ENDBRANCH   2   5
ENDBRANCH   1   2
BRANCH   1  10
ATOM     10  C   UNL     1      90.325  99.363  70.804  1.00  0.00     0.135 C 
ATOM     11  O   UNL     1      91.355  98.965  71.348  1.00  0.00    -0.300 OA
BRANCH  10  12
ATOM     12  C   UNL     1      89.743 100.743  71.071  1.00  0.00     0.080 C 
BRANCH  12  13
ATOM     13  C   UNL     1      90.759 101.877  70.926  1.00  0.00     0.043 C 
BRANCH  13  14
ATOM     14  C   UNL     1      90.937 102.334  69.497  1.00  0.00    -0.044 A 
ATOM     15  C   UNL     1      91.926 101.759  68.699  1.00  0.00     0.054 A 
ATOM     16  C   UNL     1      90.112 103.330  68.976  1.00  0.00     0.008 A 
ATOM     17  C   UNL     1      92.089 102.181  67.380  1.00  0.00     0.160 A 
ATOM     18  C   UNL     1      90.275 103.752  67.657  1.00  0.00     0.050 A 
ATOM     19  C   UNL     1      91.264 103.178  66.859  1.00  0.00     0.157 A 
BRANCH  17  20
ATOM     20  O   UNL     1      93.059 101.612  66.610  1.00  0.00    -0.493 OA
ATOM     21  C   UNL     1      94.401 102.039  66.839  1.00  0.00     0.278 C 
ENDBRANCH  17  20
BRANCH  19  22
ATOM     22  O   UNL     1      91.413 103.598  65.572  1.00  0.00    -0.504 OA
ATOM     23  H   UNL     1      90.908 104.419  65.446  1.00  0.00     0.293 HD
ENDBRANCH  19  22
ENDBRANCH  13  14
ENDBRANCH  12  13
ENDBRANCH  10  12
ENDBRANCH   1  10
TORSDOF 12
ENDMDL
MODEL 6
REMARK VINA RESULT:    -5.405      3.596      8.632
REMARK INTER + INTRA:          -9.673
REMARK INTER:                  -8.982
REMARK INTRA:                  -0.691
REMARK UNBOUND:                -0.792
REMARK SMILES CCCCC[C@H](O)CC(=O)CCc1ccc(O)c(OC)c1
REMARK SMILES IDX 8 1 6 2 7 3 5 5 4 6 3 7 2 8 1 9 9 10 10 11 11 12 12 13 13 14
REMARK SMILES IDX 21 15 14 16 18 17 15 18 16 19 19 20 20 21 17 22
REMARK H PARENT 7 4 17 23
REMARK Flexibility Score: inf
ROOT
ATOM      1  C   UNL     1      95.570  82.482  83.047  1.00  0.00     0.107 C 
ENDROOT
BRANCH   1   2
ATOM      2  C   UNL     1      97.076  82.388  82.791  1.00  0.00     0.121 C 
BRANCH   2   3
ATOM      3  O   UNL     1      97.740  81.939  83.971  1.00  0.00    -0.393 OA
ATOM      4  H   UNL     1      98.550  81.474  83.698  1.00  0.00     0.210 HD
ENDBRANCH   2   3
BRANCH   2   5
ATOM      5  C   UNL     1      97.430  81.455  81.627  1.00  0.00     0.032 C 
BRANCH   5   6
ATOM      6  C   UNL     1      96.985  82.026  80.275  1.00  0.00     0.003 C 
BRANCH   6   7
ATOM      7  C   UNL     1      97.802  81.495  79.093  1.00  0.00    -0.000 C 
BRANCH   7   8
ATOM      8  C   UNL     1      97.375  82.071  77.745  1.00  0.00    -0.003 C 
ATOM      9  C   UNL     1      95.921  82.517  77.769  1.00  0.00     0.004 C 
ENDBRANCH   7   8
ENDBRANCH   6   7
ENDBRANCH   5   6
ENDBRANCH   2   5
ENDBRANCH   1   2
BRANCH   1  10
ATOM     10  C   UNL     1      95.049  81.378  83.952  1.00  0.00     0.135 C 
ATOM     11  O   UNL     1      95.526  80.244  83.906  1.00  0.00    -0.300 OA
BRANCH  10  12
ATOM     12  C   UNL     1      93.953  81.761  84.934  1.00  0.00     0.080 C 
BRANCH  12  13
ATOM     13  C   UNL     1      93.227  80.561  85.545  1.00  0.00     0.043 C 
BRANCH  13  14
ATOM     14  C   UNL     1      91.815  80.401  85.035  1.00  0.00    -0.044 A 
ATOM     15  C   UNL     1      91.314  79.130  84.752  1.00  0.00     0.054 A 
ATOM     16  C   UNL     1      91.010  81.526  84.847  1.00  0.00     0.008 A 
ATOM     17  C   UNL     1      90.009  78.984  84.282  1.00  0.00     0.160 A 
ATOM     18  C   UNL     1      89.705  81.379  84.376  1.00  0.00     0.050 A 
ATOM     19  C   UNL     1      89.205  80.108  84.093  1.00  0.00     0.157 A 
BRANCH  17  20
ATOM     20  O   UNL     1      89.532  77.738  84.008  1.00  0.00    -0.493 OA
ATOM     21  C   UNL     1      90.332  76.632  84.421  1.00  0.00     0.278 C 
ENDBRANCH  17  20
BRANCH  19  22
ATOM     22  O   UNL     1      87.929  79.978  83.635  1.00  0.00    -0.504 OA
ATOM     23  H   UNL     1      87.361  80.623  84.090  1.00  0.00     0.293 HD
ENDBRANCH  19  22
ENDBRANCH  13  14
ENDBRANCH  12  13
ENDBRANCH  10  12
ENDBRANCH   1  10
TORSDOF 12
ENDMDL
MODEL 7
REMARK VINA RESULT:    -5.391      4.277      6.907
REMARK INTER + INTRA:          -9.649
REMARK INTER:                  -8.379
REMARK INTRA:                  -1.271
REMARK UNBOUND:                -0.792
REMARK SMILES CCCCC[C@H](O)CC(=O)CCc1ccc(O)c(OC)c1
REMARK SMILES IDX 8 1 6 2 7 3 5 5 4 6 3 7 2 8 1 9 9 10 10 11 11 12 12 13 13 14
REMARK SMILES IDX 21 15 14 16 18 17 15 18 16 19 19 20 20 21 17 22
REMARK H PARENT 7 4 17 23
REMARK Flexibility Score: inf
ROOT
ATOM      1  C   UNL     1      96.426  82.220  77.459  1.00  0.00     0.107 C 
ENDROOT
BRANCH   1   2
ATOM      2  C   UNL     1      97.795  81.778  77.980  1.00  0.00     0.121 C 
BRANCH   2   3
ATOM      3  O   UNL     1      98.038  82.360  79.258  1.00  0.00    -0.393 OA
ATOM      4  H   UNL     1      98.832  82.917  79.186  1.00  0.00     0.210 HD
ENDBRANCH   2   3
BRANCH   2   5
ATOM      5  C   UNL     1      97.934  80.254  78.084  1.00  0.00     0.032 C 
BRANCH   5   6
ATOM      6  C   UNL     1      97.072  79.524  77.047  1.00  0.00     0.003 C 
BRANCH   6   7
ATOM      7  C   UNL     1      97.880  78.967  75.871  1.00  0.00    -0.000 C 
BRANCH   7   8
ATOM      8  C   UNL     1      97.044  78.150  74.887  1.00  0.00    -0.003 C 
ATOM      9  C   UNL     1      97.046  78.780  73.502  1.00  0.00     0.004 C 
ENDBRANCH   7   8
ENDBRANCH   6   7
ENDBRANCH   5   6
ENDBRANCH   2   5
ENDBRANCH   1   2
BRANCH   1  10
ATOM     10  C   UNL     1      96.500  82.939  76.122  1.00  0.00     0.135 C 
ATOM     11  O   UNL     1      95.555  83.614  75.713  1.00  0.00    -0.300 OA
BRANCH  10  12
ATOM     12  C   UNL     1      97.807  82.816  75.353  1.00  0.00     0.080 C 
BRANCH  12  13
ATOM     13  C   UNL     1      97.625  82.381  73.898  1.00  0.00     0.043 C 
BRANCH  13  14
ATOM     14  C   UNL     1      98.777  82.790  73.010  1.00  0.00    -0.044 A 
ATOM     15  C   UNL     1      99.412  81.841  72.210  1.00  0.00     0.054 A 
ATOM     16  C   UNL     1      99.204  84.118  72.991  1.00  0.00     0.008 A 
ATOM     17  C   UNL     1     100.475  82.220  71.389  1.00  0.00     0.160 A 
ATOM     18  C   UNL     1     100.267  84.497  72.170  1.00  0.00     0.050 A 
ATOM     19  C   UNL     1     100.902  83.548  71.370  1.00  0.00     0.157 A 
BRANCH  17  20
ATOM     20  O   UNL     1     101.088  81.284  70.613  1.00  0.00    -0.493 OA
ATOM     21  C   UNL     1     100.424  80.904  69.409  1.00  0.00     0.278 C 
ENDBRANCH  17  20
BRANCH  19  22
ATOM     22  O   UNL     1     101.939  83.930  70.573  1.00  0.00    -0.504 OA
ATOM     23  H   UNL     1     102.337  83.139  70.171  1.00  0.00     0.293 HD
ENDBRANCH  19  22
ENDBRANCH  13  14
ENDBRANCH  12  13
ENDBRANCH  10  12
ENDBRANCH   1  10
TORSDOF 12
ENDMDL
MODEL 8
REMARK VINA RESULT:    -5.390      4.498      7.014
REMARK INTER + INTRA:          -9.648
REMARK INTER:                  -7.768
REMARK INTRA:                  -1.880
REMARK UNBOUND:                -0.792
REMARK SMILES CCCCC[C@H](O)CC(=O)CCc1ccc(O)c(OC)c1
REMARK SMILES IDX 8 1 6 2 7 3 5 5 4 6 3 7 2 8 1 9 9 10 10 11 11 12 12 13 13 14
REMARK SMILES IDX 21 15 14 16 18 17 15 18 16 19 19 20 20 21 17 22
REMARK H PARENT 7 4 17 23
REMARK Flexibility Score: inf
ROOT
ATOM      1  C   UNL     1      96.004  82.506  77.212  1.00  0.00     0.107 C 
ENDROOT
BRANCH   1   2
ATOM      2  C   UNL     1      97.389  81.959  77.565  1.00  0.00     0.121 C 
BRANCH   2   3
ATOM      3  O   UNL     1      97.773  82.414  78.860  1.00  0.00    -0.393 OA
ATOM      4  H   UNL     1      96.960  82.575  79.371  1.00  0.00     0.210 HD
ENDBRANCH   2   3
BRANCH   2   5
ATOM      5  C   UNL     1      97.458  80.428  77.526  1.00  0.00     0.032 C 
BRANCH   5   6
ATOM      6  C   UNL     1      98.419  79.921  76.443  1.00  0.00     0.003 C 
BRANCH   6   7
ATOM      7  C   UNL     1      99.820  80.535  76.540  1.00  0.00    -0.000 C 
BRANCH   7   8
ATOM      8  C   UNL     1     100.932  79.598  76.073  1.00  0.00    -0.003 C 
ATOM      9  C   UNL     1     102.149  79.685  76.982  1.00  0.00     0.004 C 
ENDBRANCH   7   8
ENDBRANCH   6   7
ENDBRANCH   5   6
ENDBRANCH   2   5
ENDBRANCH   1   2
BRANCH   1  10
ATOM     10  C   UNL     1      95.996  83.335  75.938  1.00  0.00     0.135 C 
ATOM     11  O   UNL     1      95.628  84.509  75.949  1.00  0.00    -0.300 OA
BRANCH  10  12
ATOM     12  C   UNL     1      96.506  82.652  74.678  1.00  0.00     0.080 C 
BRANCH  12  13
ATOM     13  C   UNL     1      97.674  83.383  74.012  1.00  0.00     0.043 C 
BRANCH  13  14
ATOM     14  C   UNL     1      98.752  82.448  73.517  1.00  0.00    -0.044 A 
ATOM     15  C   UNL     1     100.095  82.799  73.652  1.00  0.00     0.054 A 
ATOM     16  C   UNL     1      98.404  81.234  72.926  1.00  0.00     0.008 A 
ATOM     17  C   UNL     1     101.091  81.935  73.196  1.00  0.00     0.160 A 
ATOM     18  C   UNL     1      99.399  80.369  72.469  1.00  0.00     0.050 A 
ATOM     19  C   UNL     1     100.742  80.720  72.604  1.00  0.00     0.157 A 
BRANCH  17  20
ATOM     20  O   UNL     1     102.399  82.288  73.332  1.00  0.00    -0.493 OA
ATOM     21  C   UNL     1     102.915  83.238  72.400  1.00  0.00     0.278 C 
ENDBRANCH  17  20
BRANCH  19  22
ATOM     22  O   UNL     1     101.705  79.868  72.154  1.00  0.00    -0.504 OA
ATOM     23  H   UNL     1     101.284  79.155  71.645  1.00  0.00     0.293 HD
ENDBRANCH  19  22
ENDBRANCH  13  14
ENDBRANCH  12  13
ENDBRANCH  10  12
ENDBRANCH   1  10
TORSDOF 12
ENDMDL
MODEL 9
REMARK VINA RESULT:    -5.343     12.862     15.135
REMARK INTER + INTRA:          -9.570
REMARK INTER:                  -8.482
REMARK INTRA:                  -1.088
REMARK UNBOUND:                -0.792
REMARK SMILES CCCCC[C@H](O)CC(=O)CCc1ccc(O)c(OC)c1
REMARK SMILES IDX 8 1 6 2 7 3 5 5 4 6 3 7 2 8 1 9 9 10 10 11 11 12 12 13 13 14
REMARK SMILES IDX 21 15 14 16 18 17 15 18 16 19 19 20 20 21 17 22
REMARK H PARENT 7 4 17 23
REMARK Flexibility Score: inf
ROOT
ATOM      1  C   UNL     1      94.135  93.853  78.460  1.00  0.00     0.107 C 
ENDROOT
BRANCH   1   2
ATOM      2  C   UNL     1      94.155  94.805  77.261  1.00  0.00     0.121 C 
BRANCH   2   3
ATOM      3  O   UNL     1      94.281  94.058  76.053  1.00  0.00    -0.393 OA
ATOM      4  H   UNL     1      93.384  93.885  75.716  1.00  0.00     0.210 HD
ENDBRANCH   2   3
BRANCH   2   5
ATOM      5  C   UNL     1      92.908  95.693  77.178  1.00  0.00     0.032 C 
BRANCH   5   6
ATOM      6  C   UNL     1      91.883  95.156  76.172  1.00  0.00     0.003 C 
BRANCH   6   7
ATOM      7  C   UNL     1      90.691  94.458  76.834  1.00  0.00    -0.000 C 
BRANCH   7   8
ATOM      8  C   UNL     1      90.833  92.938  76.903  1.00  0.00    -0.003 C 
ATOM      9  C   UNL     1      89.809  92.329  77.849  1.00  0.00     0.004 C 
ENDBRANCH   7   8
ENDBRANCH   6   7
ENDBRANCH   5   6
ENDBRANCH   2   5
ENDBRANCH   1   2
BRANCH   1  10
ATOM     10  C   UNL     1      95.464  93.153  78.687  1.00  0.00     0.135 C 
ATOM     11  O   UNL     1      95.966  92.447  77.813  1.00  0.00    -0.300 OA
BRANCH  10  12
ATOM     12  C   UNL     1      96.151  93.410  80.020  1.00  0.00     0.080 C 
BRANCH  12  13
ATOM     13  C   UNL     1      97.269  94.451  79.946  1.00  0.00     0.043 C 
BRANCH  13  14
ATOM     14  C   UNL     1      97.134  95.541  80.983  1.00  0.00    -0.044 A 
ATOM     15  C   UNL     1      98.035  95.610  82.045  1.00  0.00     0.054 A 
ATOM     16  C   UNL     1      96.106  96.479  80.877  1.00  0.00     0.008 A 
ATOM     17  C   UNL     1      97.910  96.617  83.001  1.00  0.00     0.160 A 
ATOM     18  C   UNL     1      95.980  97.486  81.834  1.00  0.00     0.050 A 
ATOM     19  C   UNL     1      96.882  97.555  82.896  1.00  0.00     0.157 A 
BRANCH  17  20
ATOM     20  O   UNL     1      98.796  96.674  84.034  1.00  0.00    -0.493 OA
ATOM     21  C   UNL     1      99.993  95.909  83.904  1.00  0.00     0.278 C 
ENDBRANCH  17  20
BRANCH  19  22
ATOM     22  O   UNL     1      96.749  98.543  83.824  1.00  0.00    -0.504 OA
ATOM     23  H   UNL     1      96.461  99.359  83.379  1.00  0.00     0.293 HD
ENDBRANCH  19  22
ENDBRANCH  13  14
ENDBRANCH  12  13
ENDBRANCH  10  12
ENDBRANCH   1  10
TORSDOF 12
ENDMDL
MODEL 10
REMARK VINA RESULT:    -5.326     21.554     25.085
REMARK INTER + INTRA:          -9.543
REMARK INTER:                  -7.046
REMARK INTRA:                  -2.497
REMARK UNBOUND:                -0.792
REMARK SMILES CCCCC[C@H](O)CC(=O)CCc1ccc(O)c(OC)c1
REMARK SMILES IDX 8 1 6 2 7 3 5 5 4 6 3 7 2 8 1 9 9 10 10 11 11 12 12 13 13 14
REMARK SMILES IDX 21 15 14 16 18 17 15 18 16 19 19 20 20 21 17 22
REMARK H PARENT 7 4 17 23
REMARK Flexibility Score: inf
ROOT
ATOM      1  C   UNL     1      90.753  98.581  68.635  1.00  0.00     0.107 C 
ENDROOT
BRANCH   1   2
ATOM      2  C   UNL     1      89.620  98.087  67.733  1.00  0.00     0.121 C 
BRANCH   2   3
ATOM      3  O   UNL     1      88.476  97.769  68.523  1.00  0.00    -0.393 OA
ATOM      4  H   UNL     1      87.691  98.114  68.063  1.00  0.00     0.210 HD
ENDBRANCH   2   3
BRANCH   2   5
ATOM      5  C   UNL     1      89.223  99.103  66.656  1.00  0.00     0.032 C 
BRANCH   5   6
ATOM      6  C   UNL     1      87.956  99.880  67.035  1.00  0.00     0.003 C 
BRANCH   6   7
ATOM      7  C   UNL     1      87.722 101.121  66.168  1.00  0.00    -0.000 C 
BRANCH   7   8
ATOM      8  C   UNL     1      87.300 102.354  66.964  1.00  0.00    -0.003 C 
ATOM      9  C   UNL     1      86.674 103.408  66.064  1.00  0.00     0.004 C 
ENDBRANCH   7   8
ENDBRANCH   6   7
ENDBRANCH   5   6
ENDBRANCH   2   5
ENDBRANCH   1   2
BRANCH   1  10
ATOM     10  C   UNL     1      90.257  99.371  69.836  1.00  0.00     0.135 C 
ATOM     11  O   UNL     1      89.821  98.797  70.834  1.00  0.00    -0.300 OA
BRANCH  10  12
ATOM     12  C   UNL     1      90.372 100.885  69.751  1.00  0.00     0.080 C 
BRANCH  12  13
ATOM     13  C   UNL     1      91.489 101.366  68.823  1.00  0.00     0.043 C 
BRANCH  13  14
ATOM     14  C   UNL     1      91.054 102.481  67.903  1.00  0.00    -0.044 A 
ATOM     15  C   UNL     1      90.462 103.630  68.429  1.00  0.00     0.054 A 
ATOM     16  C   UNL     1      91.245 102.363  66.526  1.00  0.00     0.008 A 
ATOM     17  C   UNL     1      90.062 104.660  67.577  1.00  0.00     0.160 A 
ATOM     18  C   UNL     1      90.844 103.393  65.674  1.00  0.00     0.050 A 
ATOM     19  C   UNL     1      90.253 104.541  66.200  1.00  0.00     0.157 A 
BRANCH  17  20
ATOM     20  O   UNL     1      89.485 105.776  68.103  1.00  0.00    -0.493 OA
ATOM     21  C   UNL     1      88.177 105.632  68.653  1.00  0.00     0.278 C 
ENDBRANCH  17  20
BRANCH  19  22
ATOM     22  O   UNL     1      89.866 105.540  65.359  1.00  0.00    -0.504 OA
ATOM     23  H   UNL     1      88.895 105.602  65.366  1.00  0.00     0.293 HD
ENDBRANCH  19  22
ENDBRANCH  13  14
ENDBRANCH  12  13
ENDBRANCH  10  12
ENDBRANCH   1  10
TORSDOF 12
ENDMDL
