MODEL 1
REMARK VINA RESULT:    -6.860      0.000      0.000
REMARK INTER + INTRA:         -11.701
REMARK INTER:                 -11.071
REMARK INTRA:                  -0.630
REMARK UNBOUND:                -0.630
REMARK SMILES COc1cc(CNC(=O)CCCCC/C=C/C(C)C)ccc1O
REMARK SMILES IDX 11 1 10 2 8 3 7 4 9 6 6 7 5 8 3 9 22 10 4 11 21 12 20 13
REMARK SMILES IDX 2 14 1 15 23 16 12 18 13 19 14 20 15 21 16 22 17 23 18 24
REMARK SMILES IDX 19 25
REMARK H PARENT 7 5 23 17
REMARK Flexibility Score: inf
ROOT
ATOM      1  C   UNL     1      94.474  97.804  72.638  1.00  0.00     0.010 C 
ENDROOT
BRANCH   1   2
ATOM      2  C   UNL     1      94.619  97.808  74.181  1.00  0.00     0.100 C 
BRANCH   2   3
ATOM      3  C   UNL     1      94.940  96.490  74.758  1.00  0.00     0.220 C 
ATOM      4  N   UNL     1      93.951  95.572  74.943  1.00  0.00    -0.352 N 
ATOM      5  H   UNL     1      93.021  95.905  74.729  1.00  0.00     0.163 HD
ATOM      6  O   UNL     1      96.137  96.233  75.027  1.00  0.00    -0.275 OA
BRANCH   4   7
ATOM      7  C   UNL     1      94.138  94.232  75.398  1.00  0.00     0.151 C 
BRANCH   7   8
ATOM      8  C   UNL     1      92.857  93.562  75.744  1.00  0.00    -0.025 A 
ATOM      9  C   UNL     1      90.722  92.551  75.059  1.00  0.00     0.160 A 
ATOM     10  C   UNL     1      90.392  92.333  76.414  1.00  0.00     0.157 A 
ATOM     11  C   UNL     1      91.946  93.171  74.735  1.00  0.00     0.056 A 
ATOM     12  C   UNL     1      91.298  92.702  77.425  1.00  0.00     0.050 A 
ATOM     13  C   UNL     1      92.526  93.303  77.092  1.00  0.00     0.009 A 
BRANCH   9  14
ATOM     14  O   UNL     1      89.888  92.116  74.063  1.00  0.00    -0.493 OA
ATOM     15  C   UNL     1      89.725  93.050  72.983  1.00  0.00     0.278 C 
ENDBRANCH   9  14
BRANCH  10  16
ATOM     16  O   UNL     1      89.212  91.765  76.769  1.00  0.00    -0.504 OA
ATOM     17  H   UNL     1      88.809  92.279  77.473  1.00  0.00     0.293 HD
ENDBRANCH  10  16
ENDBRANCH   7   8
ENDBRANCH   4   7
ENDBRANCH   2   3
ENDBRANCH   1   2
BRANCH   1  18
ATOM     18  C   UNL     1      93.481  98.897  72.166  1.00  0.00     0.001 C 
BRANCH  18  19
ATOM     19  C   UNL     1      92.752  98.548  70.844  1.00  0.00     0.004 C 
BRANCH  19  20
ATOM     20  C   UNL     1      92.120  99.811  70.194  1.00  0.00     0.027 C 
BRANCH  20  21
ATOM     21  C   UNL     1      91.287  99.520  69.040  1.00  0.00    -0.031 C 
ATOM     22  C   UNL     1      90.603  98.368  68.920  1.00  0.00    -0.028 C 
BRANCH  22  23
ATOM     23  C   UNL     1      89.753  98.047  67.776  1.00  0.00     0.005 C 
ATOM     24  C   UNL     1      89.902  99.130  66.675  1.00  0.00     0.012 C 
ATOM     25  C   UNL     1      90.076  96.623  67.250  1.00  0.00     0.012 C 
ENDBRANCH  22  23
ENDBRANCH  20  21
ENDBRANCH  19  20
ENDBRANCH  18  19
ENDBRANCH   1  18
TORSDOF 11
ENDMDL
MODEL 2
REMARK VINA RESULT:    -6.385     27.748     30.218
REMARK INTER + INTRA:         -10.934
REMARK INTER:                 -10.229
REMARK INTRA:                  -0.705
REMARK UNBOUND:                -0.630
REMARK SMILES COc1cc(CNC(=O)CCCCC/C=C/C(C)C)ccc1O
REMARK SMILES IDX 11 1 10 2 8 3 7 4 9 6 6 7 5 8 3 9 22 10 4 11 21 12 20 13
REMARK SMILES IDX 2 14 1 15 23 16 12 18 13 19 14 20 15 21 16 22 17 23 18 24
REMARK SMILES IDX 19 25
REMARK H PARENT 7 5 23 17
REMARK Flexibility Score: inf
ROOT
ATOM      1  C   UNL     1      63.938  85.710  76.337  1.00  0.00     0.010 C 
ENDROOT
BRANCH   1   2
ATOM      2  C   UNL     1      65.362  85.996  75.793  1.00  0.00     0.100 C 
BRANCH   2   3
ATOM      3  C   UNL     1      66.367  86.242  76.844  1.00  0.00     0.220 C 
ATOM      4  N   UNL     1      66.144  85.800  78.112  1.00  0.00    -0.352 N 
ATOM      5  H   UNL     1      65.236  85.382  78.259  1.00  0.00     0.163 HD
ATOM      6  O   UNL     1      67.431  86.824  76.526  1.00  0.00    -0.275 OA
BRANCH   4   7
ATOM      7  C   UNL     1      67.069  85.885  79.195  1.00  0.00     0.151 C 
BRANCH   7   8
ATOM      8  C   UNL     1      66.408  85.782  80.522  1.00  0.00    -0.025 A 
ATOM      9  C   UNL     1      66.336  84.879  82.808  1.00  0.00     0.160 A 
ATOM     10  C   UNL     1      65.113  85.548  83.033  1.00  0.00     0.157 A 
ATOM     11  C   UNL     1      66.968  84.994  81.554  1.00  0.00     0.056 A 
ATOM     12  C   UNL     1      64.555  86.349  82.020  1.00  0.00     0.050 A 
ATOM     13  C   UNL     1      65.203  86.474  80.777  1.00  0.00     0.009 A 
BRANCH   9  14
ATOM     14  O   UNL     1      66.932  84.168  83.816  1.00  0.00    -0.493 OA
ATOM     15  C   UNL     1      67.544  84.985  84.829  1.00  0.00     0.278 C 
ENDBRANCH   9  14
BRANCH  10  16
ATOM     16  O   UNL     1      64.458  85.441  84.216  1.00  0.00    -0.504 OA
ATOM     17  H   UNL     1      64.752  86.137  84.808  1.00  0.00     0.293 HD
ENDBRANCH  10  16
ENDBRANCH   7   8
ENDBRANCH   4   7
ENDBRANCH   2   3
ENDBRANCH   1   2
BRANCH   1  18
ATOM     18  C   UNL     1      63.068  84.989  75.275  1.00  0.00     0.001 C 
BRANCH  18  19
ATOM     19  C   UNL     1      61.859  84.226  75.873  1.00  0.00     0.004 C 
BRANCH  19  20
ATOM     20  C   UNL     1      62.202  82.732  76.131  1.00  0.00     0.027 C 
BRANCH  20  21
ATOM     21  C   UNL     1      62.456  81.973  74.919  1.00  0.00    -0.031 C 
ATOM     22  C   UNL     1      63.607  81.307  74.716  1.00  0.00    -0.028 C 
BRANCH  22  23
ATOM     23  C   UNL     1      63.890  80.531  73.511  1.00  0.00     0.005 C 
ATOM     24  C   UNL     1      63.464  81.324  72.247  1.00  0.00     0.012 C 
ATOM     25  C   UNL     1      65.389  80.124  73.475  1.00  0.00     0.012 C 
ENDBRANCH  22  23
ENDBRANCH  20  21
ENDBRANCH  19  20
ENDBRANCH  18  19
ENDBRANCH   1  18
TORSDOF 11
ENDMDL
MODEL 3
REMARK VINA RESULT:    -6.079     14.617     17.534
REMARK INTER + INTRA:         -10.440
REMARK INTER:                  -9.597
REMARK INTRA:                  -0.843
REMARK UNBOUND:                -0.630
REMARK SMILES COc1cc(CNC(=O)CCCCC/C=C/C(C)C)ccc1O
REMARK SMILES IDX 11 1 10 2 8 3 7 4 9 6 6 7 5 8 3 9 22 10 4 11 21 12 20 13
REMARK SMILES IDX 2 14 1 15 23 16 12 18 13 19 14 20 15 21 16 22 17 23 18 24
REMARK SMILES IDX 19 25
REMARK H PARENT 7 5 23 17
REMARK Flexibility Score: inf
ROOT
ATOM      1  C   UNL     1      76.389  93.366  65.078  1.00  0.00     0.010 C 
ENDROOT
BRANCH   1   2
ATOM      2  C   UNL     1      77.106  92.681  63.886  1.00  0.00     0.100 C 
BRANCH   2   3
ATOM      3  C   UNL     1      76.631  91.313  63.605  1.00  0.00     0.220 C 
ATOM      4  N   UNL     1      77.530  90.313  63.394  1.00  0.00    -0.352 N 
ATOM      5  H   UNL     1      78.496  90.611  63.376  1.00  0.00     0.163 HD
ATOM      6  O   UNL     1      75.395  91.100  63.608  1.00  0.00    -0.275 OA
BRANCH   4   7
ATOM      7  C   UNL     1      77.210  88.935  63.209  1.00  0.00     0.151 C 
BRANCH   7   8
ATOM      8  C   UNL     1      77.621  88.092  64.362  1.00  0.00    -0.025 A 
ATOM      9  C   UNL     1      78.070  85.880  65.338  1.00  0.00     0.160 A 
ATOM     10  C   UNL     1      78.356  86.486  66.580  1.00  0.00     0.157 A 
ATOM     11  C   UNL     1      77.697  86.685  64.242  1.00  0.00     0.056 A 
ATOM     12  C   UNL     1      78.300  87.886  66.706  1.00  0.00     0.050 A 
ATOM     13  C   UNL     1      77.946  88.684  65.603  1.00  0.00     0.009 A 
BRANCH   9  14
ATOM     14  O   UNL     1      78.207  84.526  65.181  1.00  0.00    -0.493 OA
ATOM     15  C   UNL     1      76.979  83.791  65.322  1.00  0.00     0.278 C 
ENDBRANCH   9  14
BRANCH  10  16
ATOM     16  O   UNL     1      78.691  85.746  67.666  1.00  0.00    -0.504 OA
ATOM     17  H   UNL     1      78.185  86.046  68.426  1.00  0.00     0.293 HD
ENDBRANCH  10  16
ENDBRANCH   7   8
ENDBRANCH   4   7
ENDBRANCH   2   3
ENDBRANCH   1   2
BRANCH   1  18
ATOM     18  C   UNL     1      77.332  94.361  65.801  1.00  0.00     0.001 C 
BRANCH  18  19
ATOM     19  C   UNL     1      78.672  94.600  65.061  1.00  0.00     0.004 C 
BRANCH  19  20
ATOM     20  C   UNL     1      79.684  95.370  65.955  1.00  0.00     0.027 C 
BRANCH  20  21
ATOM     21  C   UNL     1      79.114  95.851  67.202  1.00  0.00    -0.031 C 
ATOM     22  C   UNL     1      79.749  95.720  68.380  1.00  0.00    -0.028 C 
BRANCH  22  23
ATOM     23  C   UNL     1      79.206  96.197  69.649  1.00  0.00     0.005 C 
ATOM     24  C   UNL     1      78.943  97.725  69.581  1.00  0.00     0.012 C 
ATOM     25  C   UNL     1      77.929  95.396  70.023  1.00  0.00     0.012 C 
ENDBRANCH  22  23
ENDBRANCH  20  21
ENDBRANCH  19  20
ENDBRANCH  18  19
ENDBRANCH   1  18
TORSDOF 11
ENDMDL
MODEL 4
REMARK VINA RESULT:    -6.061     26.602     30.158
REMARK INTER + INTRA:         -10.411
REMARK INTER:                  -9.094
REMARK INTRA:                  -1.316
REMARK UNBOUND:                -0.630
REMARK SMILES COc1cc(CNC(=O)CCCCC/C=C/C(C)C)ccc1O
REMARK SMILES IDX 11 1 10 2 8 3 7 4 9 6 6 7 5 8 3 9 22 10 4 11 21 12 20 13
REMARK SMILES IDX 2 14 1 15 23 16 12 18 13 19 14 20 15 21 16 22 17 23 18 24
REMARK SMILES IDX 19 25
REMARK H PARENT 7 5 23 17
REMARK Flexibility Score: inf
ROOT
ATOM      1  C   UNL     1      81.765  65.380  76.434  1.00  0.00     0.010 C 
ENDROOT
BRANCH   1   2
ATOM      2  C   UNL     1      81.953  66.840  75.947  1.00  0.00     0.100 C 
BRANCH   2   3
ATOM      3  C   UNL     1      83.350  67.310  75.986  1.00  0.00     0.220 C 
ATOM      4  N   UNL     1      83.952  67.743  74.843  1.00  0.00    -0.352 N 
ATOM      5  H   UNL     1      83.394  67.637  74.007  1.00  0.00     0.163 HD
ATOM      6  O   UNL     1      83.940  67.335  77.092  1.00  0.00    -0.275 OA
BRANCH   4   7
ATOM      7  C   UNL     1      85.258  68.310  74.757  1.00  0.00     0.151 C 
BRANCH   7   8
ATOM      8  C   UNL     1      85.558  68.854  73.407  1.00  0.00    -0.025 A 
ATOM      9  C   UNL     1      87.165  69.737  71.769  1.00  0.00     0.160 A 
ATOM     10  C   UNL     1      86.114  69.941  70.848  1.00  0.00     0.157 A 
ATOM     11  C   UNL     1      86.879  69.205  73.042  1.00  0.00     0.056 A 
ATOM     12  C   UNL     1      84.799  69.580  71.194  1.00  0.00     0.050 A 
ATOM     13  C   UNL     1      84.524  69.030  72.461  1.00  0.00     0.009 A 
BRANCH   9  14
ATOM     14  O   UNL     1      88.460  70.003  71.411  1.00  0.00    -0.493 OA
ATOM     15  C   UNL     1      89.413  69.816  72.470  1.00  0.00     0.278 C 
ENDBRANCH   9  14
BRANCH  10  16
ATOM     16  O   UNL     1      86.343  70.477  69.624  1.00  0.00    -0.504 OA
ATOM     17  H   UNL     1      85.646  71.103  69.413  1.00  0.00     0.293 HD
ENDBRANCH  10  16
ENDBRANCH   7   8
ENDBRANCH   4   7
ENDBRANCH   2   3
ENDBRANCH   1   2
BRANCH   1  18
ATOM     18  C   UNL     1      82.711  64.412  75.679  1.00  0.00     0.001 C 
BRANCH  18  19
ATOM     19  C   UNL     1      82.223  64.047  74.254  1.00  0.00     0.004 C 
BRANCH  19  20
ATOM     20  C   UNL     1      80.672  64.076  74.162  1.00  0.00     0.027 C 
BRANCH  20  21
ATOM     21  C   UNL     1      80.167  64.877  73.060  1.00  0.00    -0.031 C 
ATOM     22  C   UNL     1      80.772  66.008  72.657  1.00  0.00    -0.028 C 
BRANCH  22  23
ATOM     23  C   UNL     1      80.293  66.832  71.550  1.00  0.00     0.005 C 
ATOM     24  C   UNL     1      81.405  67.812  71.089  1.00  0.00     0.012 C 
ATOM     25  C   UNL     1      79.783  65.932  70.392  1.00  0.00     0.012 C 
ENDBRANCH  22  23
ENDBRANCH  20  21
ENDBRANCH  19  20
ENDBRANCH  18  19
ENDBRANCH   1  18
TORSDOF 11
ENDMDL
MODEL 5
REMARK VINA RESULT:    -6.046     27.659     31.006
REMARK INTER + INTRA:         -10.386
REMARK INTER:                  -7.723
REMARK INTRA:                  -2.663
REMARK UNBOUND:                -0.630
REMARK SMILES COc1cc(CNC(=O)CCCCC/C=C/C(C)C)ccc1O
REMARK SMILES IDX 11 1 10 2 8 3 7 4 9 6 6 7 5 8 3 9 22 10 4 11 21 12 20 13
REMARK SMILES IDX 2 14 1 15 23 16 12 18 13 19 14 20 15 21 16 22 17 23 18 24
REMARK SMILES IDX 19 25
REMARK H PARENT 7 5 23 17
REMARK Flexibility Score: inf
ROOT
ATOM      1  C   UNL     1      83.275  64.032  76.965  1.00  0.00     0.010 C 
ENDROOT
BRANCH   1   2
ATOM      2  C   UNL     1      82.054  64.973  76.796  1.00  0.00     0.100 C 
BRANCH   2   3
ATOM      3  C   UNL     1      82.407  66.348  76.395  1.00  0.00     0.220 C 
ATOM      4  N   UNL     1      83.676  66.805  76.584  1.00  0.00    -0.352 N 
ATOM      5  H   UNL     1      84.286  66.163  77.071  1.00  0.00     0.163 HD
ATOM      6  O   UNL     1      81.527  67.053  75.846  1.00  0.00    -0.275 OA
BRANCH   4   7
ATOM      7  C   UNL     1      84.174  68.071  76.156  1.00  0.00     0.151 C 
BRANCH   7   8
ATOM      8  C   UNL     1      84.852  68.003  74.835  1.00  0.00    -0.025 A 
ATOM      9  C   UNL     1      84.797  68.262  72.390  1.00  0.00     0.160 A 
ATOM     10  C   UNL     1      86.135  67.818  72.314  1.00  0.00     0.157 A 
ATOM     11  C   UNL     1      84.164  68.342  73.647  1.00  0.00     0.056 A 
ATOM     12  C   UNL     1      86.835  67.494  73.491  1.00  0.00     0.050 A 
ATOM     13  C   UNL     1      86.201  67.595  74.744  1.00  0.00     0.009 A 
BRANCH   9  14
ATOM     14  O   UNL     1      84.136  68.664  71.260  1.00  0.00    -0.493 OA
ATOM     15  C   UNL     1      83.881  70.077  71.199  1.00  0.00     0.278 C 
ENDBRANCH   9  14
BRANCH  10  16
ATOM     16  O   UNL     1      86.772  67.700  71.122  1.00  0.00    -0.504 OA
ATOM     17  H   UNL     1      86.153  67.878  70.410  1.00  0.00     0.293 HD
ENDBRANCH  10  16
ENDBRANCH   7   8
ENDBRANCH   4   7
ENDBRANCH   2   3
ENDBRANCH   1   2
BRANCH   1  18
ATOM     18  C   UNL     1      83.636  63.338  75.627  1.00  0.00     0.001 C 
BRANCH  18  19
ATOM     19  C   UNL     1      84.818  64.005  74.878  1.00  0.00     0.004 C 
BRANCH  19  20
ATOM     20  C   UNL     1      84.379  64.535  73.484  1.00  0.00     0.027 C 
BRANCH  20  21
ATOM     21  C   UNL     1      82.940  64.545  73.289  1.00  0.00    -0.031 C 
ATOM     22  C   UNL     1      82.318  65.497  72.572  1.00  0.00    -0.028 C 
BRANCH  22  23
ATOM     23  C   UNL     1      80.874  65.532  72.352  1.00  0.00     0.005 C 
ATOM     24  C   UNL     1      80.144  64.702  73.441  1.00  0.00     0.012 C 
ATOM     25  C   UNL     1      80.375  67.002  72.297  1.00  0.00     0.012 C 
ENDBRANCH  22  23
ENDBRANCH  20  21
ENDBRANCH  19  20
ENDBRANCH  18  19
ENDBRANCH   1  18
TORSDOF 11
ENDMDL
MODEL 6
REMARK VINA RESULT:    -5.999     15.303     17.997
REMARK INTER + INTRA:         -10.311
REMARK INTER:                  -9.388
REMARK INTRA:                  -0.922
REMARK UNBOUND:                -0.630
REMARK SMILES COc1cc(CNC(=O)CCCCC/C=C/C(C)C)ccc1O
REMARK SMILES IDX 11 1 10 2 8 3 7 4 9 6 6 7 5 8 3 9 22 10 4 11 21 12 20 13
REMARK SMILES IDX 2 14 1 15 23 16 12 18 13 19 14 20 15 21 16 22 17 23 18 24
REMARK SMILES IDX 19 25
REMARK H PARENT 7 5 23 17
REMARK Flexibility Score: inf
ROOT
ATOM      1  C   UNL     1      77.939  91.174  63.694  1.00  0.00     0.010 C 
ENDROOT
BRANCH   1   2
ATOM      2  C   UNL     1      77.475  89.837  63.061  1.00  0.00     0.100 C 
BRANCH   2   3
ATOM      3  C   UNL     1      77.488  88.694  63.993  1.00  0.00     0.220 C 
ATOM      4  N   UNL     1      77.995  88.848  65.247  1.00  0.00    -0.352 N 
ATOM      5  H   UNL     1      78.407  89.754  65.427  1.00  0.00     0.163 HD
ATOM      6  O   UNL     1      76.989  87.609  63.612  1.00  0.00    -0.275 OA
BRANCH   4   7
ATOM      7  C   UNL     1      77.981  87.859  66.275  1.00  0.00     0.151 C 
BRANCH   7   8
ATOM      8  C   UNL     1      76.729  87.882  67.074  1.00  0.00    -0.025 A 
ATOM      9  C   UNL     1      74.783  86.721  68.030  1.00  0.00     0.160 A 
ATOM     10  C   UNL     1      74.312  87.944  68.555  1.00  0.00     0.157 A 
ATOM     11  C   UNL     1      75.981  86.701  67.287  1.00  0.00     0.056 A 
ATOM     12  C   UNL     1      75.057  89.123  68.365  1.00  0.00     0.050 A 
ATOM     13  C   UNL     1      76.262  89.090  67.639  1.00  0.00     0.009 A 
BRANCH   9  14
ATOM     14  O   UNL     1      74.112  85.555  68.284  1.00  0.00    -0.493 OA
ATOM     15  C   UNL     1      74.812  84.652  69.156  1.00  0.00     0.278 C 
ENDBRANCH   9  14
BRANCH  10  16
ATOM     16  O   UNL     1      73.149  88.012  69.251  1.00  0.00    -0.504 OA
ATOM     17  H   UNL     1      73.307  87.751  70.162  1.00  0.00     0.293 HD
ENDBRANCH  10  16
ENDBRANCH   7   8
ENDBRANCH   4   7
ENDBRANCH   2   3
ENDBRANCH   1   2
BRANCH   1  18
ATOM     18  C   UNL     1      76.727  92.041  64.122  1.00  0.00     0.001 C 
BRANCH  18  19
ATOM     19  C   UNL     1      76.991  93.565  64.038  1.00  0.00     0.004 C 
BRANCH  19  20
ATOM     20  C   UNL     1      78.431  93.918  64.506  1.00  0.00     0.027 C 
BRANCH  20  21
ATOM     21  C   UNL     1      78.472  94.873  65.600  1.00  0.00    -0.031 C 
ATOM     22  C   UNL     1      79.618  95.209  66.219  1.00  0.00    -0.028 C 
BRANCH  22  23
ATOM     23  C   UNL     1      79.694  96.169  67.317  1.00  0.00     0.005 C 
ATOM     24  C   UNL     1      79.304  97.587  66.821  1.00  0.00     0.012 C 
ATOM     25  C   UNL     1      78.811  95.697  68.504  1.00  0.00     0.012 C 
ENDBRANCH  22  23
ENDBRANCH  20  21
ENDBRANCH  19  20
ENDBRANCH  18  19
ENDBRANCH   1  18
TORSDOF 11
ENDMDL
MODEL 7
REMARK VINA RESULT:    -5.902     28.534     31.317
REMARK INTER + INTRA:         -10.154
REMARK INTER:                  -8.317
REMARK INTRA:                  -1.837
REMARK UNBOUND:                -0.630
REMARK SMILES COc1cc(CNC(=O)CCCCC/C=C/C(C)C)ccc1O
REMARK SMILES IDX 11 1 10 2 8 3 7 4 9 6 6 7 5 8 3 9 22 10 4 11 21 12 20 13
REMARK SMILES IDX 2 14 1 15 23 16 12 18 13 19 14 20 15 21 16 22 17 23 18 24
REMARK SMILES IDX 19 25
REMARK H PARENT 7 5 23 17
REMARK Flexibility Score: inf
ROOT
ATOM      1  C   UNL     1      80.347  65.151  73.288  1.00  0.00     0.010 C 
ENDROOT
BRANCH   1   2
ATOM      2  C   UNL     1      80.474  66.366  74.243  1.00  0.00     0.100 C 
BRANCH   2   3
ATOM      3  C   UNL     1      81.228  66.083  75.478  1.00  0.00     0.220 C 
ATOM      4  N   UNL     1      81.617  64.809  75.757  1.00  0.00    -0.352 N 
ATOM      5  H   UNL     1      81.283  64.113  75.105  1.00  0.00     0.163 HD
ATOM      6  O   UNL     1      81.529  67.044  76.226  1.00  0.00    -0.275 OA
BRANCH   4   7
ATOM      7  C   UNL     1      82.430  64.412  76.861  1.00  0.00     0.151 C 
BRANCH   7   8
ATOM      8  C   UNL     1      83.882  64.463  76.550  1.00  0.00    -0.025 A 
ATOM      9  C   UNL     1      86.161  65.206  77.101  1.00  0.00     0.160 A 
ATOM     10  C   UNL     1      86.643  64.601  75.921  1.00  0.00     0.157 A 
ATOM     11  C   UNL     1      84.785  65.141  77.402  1.00  0.00     0.056 A 
ATOM     12  C   UNL     1      85.757  63.909  75.074  1.00  0.00     0.050 A 
ATOM     13  C   UNL     1      84.388  63.832  75.392  1.00  0.00     0.009 A 
BRANCH   9  14
ATOM     14  O   UNL     1      87.027  65.806  77.976  1.00  0.00    -0.493 OA
ATOM     15  C   UNL     1      86.429  66.831  78.787  1.00  0.00     0.278 C 
ENDBRANCH   9  14
BRANCH  10  16
ATOM     16  O   UNL     1      87.955  64.665  75.581  1.00  0.00    -0.504 OA
ATOM     17  H   UNL     1      88.036  64.699  74.624  1.00  0.00     0.293 HD
ENDBRANCH  10  16
ENDBRANCH   7   8
ENDBRANCH   4   7
ENDBRANCH   2   3
ENDBRANCH   1   2
BRANCH   1  18
ATOM     18  C   UNL     1      80.202  65.610  71.815  1.00  0.00     0.001 C 
BRANCH  18  19
ATOM     19  C   UNL     1      80.237  67.149  71.635  1.00  0.00     0.004 C 
BRANCH  19  20
ATOM     20  C   UNL     1      81.526  67.603  70.895  1.00  0.00     0.027 C 
BRANCH  20  21
ATOM     21  C   UNL     1      82.452  68.343  71.735  1.00  0.00    -0.031 C 
ATOM     22  C   UNL     1      83.343  67.732  72.536  1.00  0.00    -0.028 C 
BRANCH  22  23
ATOM     23  C   UNL     1      84.290  68.447  73.388  1.00  0.00     0.005 C 
ATOM     24  C   UNL     1      84.713  67.556  74.587  1.00  0.00     0.012 C 
ATOM     25  C   UNL     1      85.507  68.927  72.552  1.00  0.00     0.012 C 
ENDBRANCH  22  23
ENDBRANCH  20  21
ENDBRANCH  19  20
ENDBRANCH  18  19
ENDBRANCH   1  18
TORSDOF 11
ENDMDL
MODEL 8
REMARK VINA RESULT:    -5.839     28.597     31.292
REMARK INTER + INTRA:         -10.052
REMARK INTER:                  -7.937
REMARK INTRA:                  -2.116
REMARK UNBOUND:                -0.630
REMARK SMILES COc1cc(CNC(=O)CCCCC/C=C/C(C)C)ccc1O
REMARK SMILES IDX 11 1 10 2 8 3 7 4 9 6 6 7 5 8 3 9 22 10 4 11 21 12 20 13
REMARK SMILES IDX 2 14 1 15 23 16 12 18 13 19 14 20 15 21 16 22 17 23 18 24
REMARK SMILES IDX 19 25
REMARK H PARENT 7 5 23 17
REMARK Flexibility Score: inf
ROOT
ATOM      1  C   UNL     1      80.547  67.035  71.500  1.00  0.00     0.010 C 
ENDROOT
BRANCH   1   2
ATOM      2  C   UNL     1      80.320  65.570  71.953  1.00  0.00     0.100 C 
BRANCH   2   3
ATOM      3  C   UNL     1      80.372  65.378  73.414  1.00  0.00     0.220 C 
ATOM      4  N   UNL     1      80.962  66.319  74.201  1.00  0.00    -0.352 N 
ATOM      5  H   UNL     1      81.401  67.076  73.695  1.00  0.00     0.163 HD
ATOM      6  O   UNL     1      79.828  64.358  73.900  1.00  0.00    -0.275 OA
BRANCH   4   7
ATOM      7  C   UNL     1      80.995  66.305  75.627  1.00  0.00     0.151 C 
BRANCH   7   8
ATOM      8  C   UNL     1      82.332  65.941  76.165  1.00  0.00    -0.025 A 
ATOM      9  C   UNL     1      84.565  66.596  76.961  1.00  0.00     0.160 A 
ATOM     10  C   UNL     1      84.899  65.236  77.138  1.00  0.00     0.157 A 
ATOM     11  C   UNL     1      83.289  66.938  76.468  1.00  0.00     0.056 A 
ATOM     12  C   UNL     1      83.950  64.237  76.856  1.00  0.00     0.050 A 
ATOM     13  C   UNL     1      82.671  64.587  76.383  1.00  0.00     0.009 A 
BRANCH   9  14
ATOM     14  O   UNL     1      85.450  67.579  77.316  1.00  0.00    -0.493 OA
ATOM     15  C   UNL     1      85.169  68.862  76.732  1.00  0.00     0.278 C 
ENDBRANCH   9  14
BRANCH  10  16
ATOM     16  O   UNL     1      86.126  64.864  77.584  1.00  0.00    -0.504 OA
ATOM     17  H   UNL     1      86.230  63.915  77.477  1.00  0.00     0.293 HD
ENDBRANCH  10  16
ENDBRANCH   7   8
ENDBRANCH   4   7
ENDBRANCH   2   3
ENDBRANCH   1   2
BRANCH   1  18
ATOM     18  C   UNL     1      81.939  67.209  70.843  1.00  0.00     0.001 C 
BRANCH  18  19
ATOM     19  C   UNL     1      82.584  68.594  71.104  1.00  0.00     0.004 C 
BRANCH  19  20
ATOM     20  C   UNL     1      83.507  68.563  72.354  1.00  0.00     0.027 C 
BRANCH  20  21
ATOM     21  C   UNL     1      83.871  67.221  72.778  1.00  0.00    -0.031 C 
ATOM     22  C   UNL     1      84.970  66.596  72.320  1.00  0.00    -0.028 C 
BRANCH  22  23
ATOM     23  C   UNL     1      85.366  65.251  72.731  1.00  0.00     0.005 C 
ATOM     24  C   UNL     1      86.384  65.323  73.900  1.00  0.00     0.012 C 
ATOM     25  C   UNL     1      84.112  64.409  73.093  1.00  0.00     0.012 C 
ENDBRANCH  22  23
ENDBRANCH  20  21
ENDBRANCH  19  20
ENDBRANCH  18  19
ENDBRANCH   1  18
TORSDOF 11
ENDMDL
MODEL 9
REMARK VINA RESULT:    -5.806     27.852     31.335
REMARK INTER + INTRA:          -9.999
REMARK INTER:                  -8.859
REMARK INTRA:                  -1.139
REMARK UNBOUND:                -0.630
REMARK SMILES COc1cc(CNC(=O)CCCCC/C=C/C(C)C)ccc1O
REMARK SMILES IDX 11 1 10 2 8 3 7 4 9 6 6 7 5 8 3 9 22 10 4 11 21 12 20 13
REMARK SMILES IDX 2 14 1 15 23 16 12 18 13 19 14 20 15 21 16 22 17 23 18 24
REMARK SMILES IDX 19 25
REMARK H PARENT 7 5 23 17
REMARK Flexibility Score: inf
ROOT
ATOM      1  C   UNL     1      81.905  64.820  73.552  1.00  0.00     0.010 C 
ENDROOT
BRANCH   1   2
ATOM      2  C   UNL     1      82.428  65.569  74.805  1.00  0.00     0.100 C 
BRANCH   2   3
ATOM      3  C   UNL     1      82.652  64.699  75.974  1.00  0.00     0.220 C 
ATOM      4  N   UNL     1      83.814  63.997  76.084  1.00  0.00    -0.352 N 
ATOM      5  H   UNL     1      84.430  64.073  75.286  1.00  0.00     0.163 HD
ATOM      6  O   UNL     1      81.772  64.662  76.866  1.00  0.00    -0.275 OA
BRANCH   4   7
ATOM      7  C   UNL     1      84.198  63.199  77.203  1.00  0.00     0.151 C 
BRANCH   7   8
ATOM      8  C   UNL     1      84.903  63.983  78.250  1.00  0.00    -0.025 A 
ATOM      9  C   UNL     1      86.181  65.970  78.933  1.00  0.00     0.160 A 
ATOM     10  C   UNL     1      86.292  65.449  80.240  1.00  0.00     0.157 A 
ATOM     11  C   UNL     1      85.496  65.231  77.947  1.00  0.00     0.056 A 
ATOM     12  C   UNL     1      85.692  64.217  80.557  1.00  0.00     0.050 A 
ATOM     13  C   UNL     1      84.993  63.494  79.572  1.00  0.00     0.009 A 
BRANCH   9  14
ATOM     14  O   UNL     1      86.686  67.209  78.636  1.00  0.00    -0.493 OA
ATOM     15  C   UNL     1      85.870  67.975  77.734  1.00  0.00     0.278 C 
ENDBRANCH   9  14
BRANCH  10  16
ATOM     16  O   UNL     1      86.967  66.115  81.210  1.00  0.00    -0.504 OA
ATOM     17  H   UNL     1      87.769  66.492  80.840  1.00  0.00     0.293 HD
ENDBRANCH  10  16
ENDBRANCH   7   8
ENDBRANCH   4   7
ENDBRANCH   2   3
ENDBRANCH   1   2
BRANCH   1  18
ATOM     18  C   UNL     1      80.444  65.225  73.228  1.00  0.00     0.001 C 
BRANCH  18  19
ATOM     19  C   UNL     1      80.227  65.644  71.752  1.00  0.00     0.004 C 
BRANCH  19  20
ATOM     20  C   UNL     1      80.266  67.189  71.589  1.00  0.00     0.027 C 
BRANCH  20  21
ATOM     21  C   UNL     1      81.590  67.713  71.300  1.00  0.00    -0.031 C 
ATOM     22  C   UNL     1      82.331  68.346  72.227  1.00  0.00    -0.028 C 
BRANCH  22  23
ATOM     23  C   UNL     1      83.667  68.879  71.970  1.00  0.00     0.005 C 
ATOM     24  C   UNL     1      84.538  67.818  71.247  1.00  0.00     0.012 C 
ATOM     25  C   UNL     1      83.570  70.207  71.173  1.00  0.00     0.012 C 
ENDBRANCH  22  23
ENDBRANCH  20  21
ENDBRANCH  19  20
ENDBRANCH  18  19
ENDBRANCH   1  18
TORSDOF 11
ENDMDL
MODEL 10
REMARK VINA RESULT:    -5.787     14.958     17.032
REMARK INTER + INTRA:          -9.969
REMARK INTER:                  -8.778
REMARK INTRA:                  -1.191
REMARK UNBOUND:                -0.630
REMARK SMILES COc1cc(CNC(=O)CCCCC/C=C/C(C)C)ccc1O
REMARK SMILES IDX 11 1 10 2 8 3 7 4 9 6 6 7 5 8 3 9 22 10 4 11 21 12 20 13
REMARK SMILES IDX 2 14 1 15 23 16 12 18 13 19 14 20 15 21 16 22 17 23 18 24
REMARK SMILES IDX 19 25
REMARK H PARENT 7 5 23 17
REMARK Flexibility Score: inf
ROOT
ATOM      1  C   UNL     1      99.463  81.128  80.020  1.00  0.00     0.010 C 
ENDROOT
BRANCH   1   2
ATOM      2  C   UNL     1     100.366  81.170  81.280  1.00  0.00     0.100 C 
BRANCH   2   3
ATOM      3  C   UNL     1      99.636  80.985  82.548  1.00  0.00     0.220 C 
ATOM      4  N   UNL     1      99.496  82.030  83.409  1.00  0.00    -0.352 N 
ATOM      5  H   UNL     1      99.987  82.870  83.135  1.00  0.00     0.163 HD
ATOM      6  O   UNL     1      99.122  79.865  82.781  1.00  0.00    -0.275 OA
BRANCH   4   7
ATOM      7  C   UNL     1      98.736  82.015  84.617  1.00  0.00     0.151 C 
BRANCH   7   8
ATOM      8  C   UNL     1      97.664  83.043  84.630  1.00  0.00    -0.025 A 
ATOM      9  C   UNL     1      95.767  84.136  85.751  1.00  0.00     0.160 A 
ATOM     10  C   UNL     1      95.585  84.971  84.627  1.00  0.00     0.157 A 
ATOM     11  C   UNL     1      96.798  83.174  85.741  1.00  0.00     0.056 A 
ATOM     12  C   UNL     1      96.451  84.860  83.524  1.00  0.00     0.050 A 
ATOM     13  C   UNL     1      97.489  83.911  83.529  1.00  0.00     0.009 A 
BRANCH   9  14
ATOM     14  O   UNL     1      94.986  84.294  86.865  1.00  0.00    -0.493 OA
ATOM     15  C   UNL     1      94.188  83.145  87.191  1.00  0.00     0.278 C 
ENDBRANCH   9  14
BRANCH  10  16
ATOM     16  O   UNL     1      94.588  85.889  84.585  1.00  0.00    -0.504 OA
ATOM     17  H   UNL     1      93.847  85.581  85.113  1.00  0.00     0.293 HD
ENDBRANCH  10  16
ENDBRANCH   7   8
ENDBRANCH   4   7
ENDBRANCH   2   3
ENDBRANCH   1   2
BRANCH   1  18
ATOM     18  C   UNL     1      98.552  82.380  79.943  1.00  0.00     0.001 C 
BRANCH  18  19
ATOM     19  C   UNL     1      97.038  82.049  79.940  1.00  0.00     0.004 C 
BRANCH  19  20
ATOM     20  C   UNL     1      96.304  82.767  78.773  1.00  0.00     0.027 C 
BRANCH  20  21
ATOM     21  C   UNL     1      96.751  82.349  77.455  1.00  0.00    -0.031 C 
ATOM     22  C   UNL     1      97.399  83.179  76.619  1.00  0.00    -0.028 C 
BRANCH  22  23
ATOM     23  C   UNL     1      97.866  82.788  75.291  1.00  0.00     0.005 C 
ATOM     24  C   UNL     1      99.174  83.545  74.937  1.00  0.00     0.012 C 
ATOM     25  C   UNL     1      98.037  81.247  75.215  1.00  0.00     0.012 C 
ENDBRANCH  22  23
ENDBRANCH  20  21
ENDBRANCH  19  20
ENDBRANCH  18  19
ENDBRANCH   1  18
TORSDOF 11
ENDMDL
