MODEL 1
REMARK VINA RESULT:    -6.200      0.000      0.000
REMARK INTER + INTRA:         -12.107
REMARK INTER:                 -10.912
REMARK INTRA:                  -1.195
REMARK UNBOUND:                -1.195
REMARK SMILES C=C(C)[C@]12C[C@@H](C)[C@@]34O[C@](Cc5ccccc5)(O[C@@H]1[C@@H]3C=C(COC(=O)Cc1ccc(O)c(OC)c1)C[C@]1(O)C(=O)C(C)=C[C@@H]41)O2
REMARK SMILES IDX 23 1 22 2 21 3 20 4 9 5 8 6 10 7 6 8 18 9 46 10 19 11 5 12
REMARK SMILES IDX 7 13 4 14 45 15 38 16 44 17 40 18 42 20 41 21 43 22 39 23
REMARK SMILES IDX 11 25 12 26 13 27 17 28 14 29 16 30 15 31 2 32 3 33 1 34
REMARK SMILES IDX 37 35 24 37 25 38 26 39 27 40 28 41 36 42 29 43 33 44 30 45
REMARK SMILES IDX 31 46 34 47 35 48 32 49
REMARK H PARENT 39 24 32 50
REMARK Flexibility Score: 90.00
ROOT
ATOM      1  C   UNL     1      96.021  88.435  89.094  1.00  0.00     0.264 C 
ENDROOT
BRANCH   1   2
ATOM      2  C   UNL     1      95.538  87.029  88.819  1.00  0.00    -0.033 C 
ATOM      3  C   UNL     1      96.241  86.243  87.980  1.00  0.00    -0.015 C 
BRANCH   3   4
ATOM      4  C   UNL     1      95.931  84.839  87.486  1.00  0.00     0.078 C 
ATOM      5  O   UNL     1      97.029  83.266  89.048  1.00  0.00    -0.319 OA
ATOM      6  C   UNL     1      95.725  83.699  88.551  1.00  0.00     0.095 C 
ATOM      7  C   UNL     1      98.052  83.116  88.045  1.00  0.00     0.289 C 
ATOM      8  C   UNL     1      95.013  82.484  87.823  1.00  0.00     0.023 C 
ATOM      9  O   UNL     1      98.253  84.330  87.325  1.00  0.00    -0.320 OA
ATOM     10  O   UNL     1      97.709  82.140  87.064  1.00  0.00    -0.313 OA
ATOM     11  C   UNL     1      97.054  84.356  86.535  1.00  0.00     0.170 C 
ATOM     12  C   UNL     1      95.457  82.373  86.332  1.00  0.00     0.049 C 
ATOM     13  C   UNL     1      95.175  81.118  88.507  1.00  0.00     0.011 C 
ATOM     14  C   UNL     1      96.889  82.870  86.129  1.00  0.00     0.122 C 
BRANCH   6  15
ATOM     15  C   UNL     1      94.992  84.246  89.810  1.00  0.00     0.086 C 
ATOM     16  C   UNL     1      93.817  85.210  89.548  1.00  0.00     0.140 CG0
ATOM     17  C   UNL     1      94.432  83.278  90.815  1.00  0.00    -0.010 C 
ATOM     18  C   UNL     1      92.862  84.875  90.674  1.00  0.00     0.190 C 
ATOM     19  G   UNL     1      94.256  86.673  89.568  1.00  0.00     0.000 G0
ATOM     20  C   UNL     1      93.250  83.617  91.340  1.00  0.00    -0.008 C 
ATOM     21  O   UNL     1      91.869  85.519  90.976  1.00  0.00    -0.291 OA
ATOM     22  C   UNL     1      92.454  82.960  92.397  1.00  0.00     0.048 C 
BRANCH  16  23
ATOM     23  O   UNL     1      93.077  84.907  88.376  1.00  0.00    -0.381 OA
ATOM     24  H   UNL     1      93.679  84.507  87.728  1.00  0.00     0.212 HD
ENDBRANCH  16  23
ENDBRANCH   6  15
BRANCH   7  25
ATOM     25  C   UNL     1      99.339  82.710  88.734  1.00  0.00     0.135 C 
BRANCH  25  26
ATOM     26  C   UNL     1     100.051  81.604  87.996  1.00  0.00    -0.040 A 
ATOM     27  C   UNL     1      99.786  80.271  88.314  1.00  0.00     0.004 A 
ATOM     28  C   UNL     1     100.972  81.912  86.996  1.00  0.00     0.004 A 
ATOM     29  C   UNL     1     100.444  79.247  87.632  1.00  0.00     0.000 A 
ATOM     30  C   UNL     1     101.630  80.888  86.314  1.00  0.00     0.000 A 
ATOM     31  C   UNL     1     101.366  79.556  86.632  1.00  0.00     0.000 A 
ENDBRANCH  25  26
ENDBRANCH   7  25
BRANCH  14  32
ATOM     32  C   UNL     1      97.399  82.606  84.750  1.00  0.00    -0.046 C 
ATOM     33  C   UNL     1      97.213  83.710  83.752  1.00  0.00     0.042 C 
ATOM     34  C   UNL     1      97.989  81.447  84.422  1.00  0.00     0.010 C 
ENDBRANCH  14  32
ENDBRANCH   3   4
BRANCH   2  35
ATOM     35  C   UNL     1      94.268  86.679  89.571  1.00  0.00     0.078 CG0
ATOM     36  G   UNL     1      93.807  85.223  89.526  1.00  0.00     0.000 G0
ENDBRANCH   2  35
ENDBRANCH   1   2
BRANCH   1  37
ATOM     37  O   UNL     1      97.040  88.396  90.069  1.00  0.00    -0.461 OA
BRANCH  37  38
ATOM     38  C   UNL     1      96.861  89.203  91.169  1.00  0.00     0.310 C 
ATOM     39  O   UNL     1      97.427  90.271  91.356  1.00  0.00    -0.252 OA
BRANCH  38  40
ATOM     40  C   UNL     1      95.860  88.566  92.104  1.00  0.00     0.158 C 
BRANCH  40  41
ATOM     41  C   UNL     1      94.778  89.517  92.544  1.00  0.00    -0.033 A 
ATOM     42  C   UNL     1      94.248  90.437  91.638  1.00  0.00     0.054 A 
ATOM     43  C   UNL     1      94.306  89.478  93.856  1.00  0.00     0.008 A 
ATOM     44  C   UNL     1      93.246  91.318  92.046  1.00  0.00     0.160 A 
ATOM     45  C   UNL     1      93.304  90.360  94.263  1.00  0.00     0.050 A 
ATOM     46  C   UNL     1      92.774  91.280  93.359  1.00  0.00     0.157 A 
BRANCH  44  47
ATOM     47  O   UNL     1      92.736  92.212  91.153  1.00  0.00    -0.493 OA
ATOM     48  C   UNL     1      93.469  93.421  90.956  1.00  0.00     0.278 C 
ENDBRANCH  44  47
BRANCH  46  49
ATOM     49  O   UNL     1      91.795  92.134  93.767  1.00  0.00    -0.504 OA
ATOM     50  H   UNL     1      92.038  93.039  93.510  1.00  0.00     0.293 HD
ENDBRANCH  46  49
ENDBRANCH  40  41
ENDBRANCH  38  40
ENDBRANCH  37  38
ENDBRANCH   1  37
TORSDOF 11
ENDMDL
MODEL 2
REMARK VINA RESULT:    -6.064      2.851      9.474
REMARK INTER + INTRA:         -11.868
REMARK INTER:                 -10.925
REMARK INTRA:                  -0.943
REMARK UNBOUND:                -1.195
REMARK SMILES C=C(C)[C@]12C[C@@H](C)[C@@]34O[C@](Cc5ccccc5)(O[C@@H]1[C@@H]3C=C(COC(=O)Cc1ccc(O)c(OC)c1)C[C@]1(O)C(=O)C(C)=C[C@@H]41)O2
REMARK SMILES IDX 23 1 22 2 21 3 20 4 9 5 8 6 10 7 6 8 18 9 46 10 19 11 5 12
REMARK SMILES IDX 7 13 4 14 45 15 38 16 44 17 40 18 42 20 41 21 43 22 39 23
REMARK SMILES IDX 11 25 12 26 13 27 17 28 14 29 16 30 15 31 2 32 3 33 1 34
REMARK SMILES IDX 37 35 24 37 25 38 26 39 27 40 28 41 36 42 29 43 33 44 30 45
REMARK SMILES IDX 31 46 34 47 35 48 32 49
REMARK H PARENT 39 24 32 50
REMARK Flexibility Score: 90.00
ROOT
ATOM      1  C   UNL     1      97.206  81.320  87.297  1.00  0.00     0.264 C 
ENDROOT
BRANCH   1   2
ATOM      2  C   UNL     1      95.927  81.617  88.045  1.00  0.00    -0.033 C 
ATOM      3  C   UNL     1      95.955  82.472  89.087  1.00  0.00    -0.015 C 
BRANCH   3   4
ATOM      4  C   UNL     1      94.839  82.873  90.037  1.00  0.00     0.078 C 
ATOM      5  O   UNL     1      93.785  84.903  89.094  1.00  0.00    -0.319 OA
ATOM      6  C   UNL     1      93.530  83.505  89.430  1.00  0.00     0.095 C 
ATOM      7  C   UNL     1      94.536  85.646  90.074  1.00  0.00     0.289 C 
ATOM      8  C   UNL     1      92.402  83.430  90.541  1.00  0.00     0.023 C 
ATOM      9  O   UNL     1      95.798  85.034  90.330  1.00  0.00    -0.320 OA
ATOM     10  O   UNL     1      93.873  85.703  91.334  1.00  0.00    -0.313 OA
ATOM     11  C   UNL     1      95.374  83.885  91.080  1.00  0.00     0.170 C 
ATOM     12  C   UNL     1      93.000  83.584  91.973  1.00  0.00     0.049 C 
ATOM     13  C   UNL     1      91.237  84.416  90.364  1.00  0.00     0.011 C 
ATOM     14  C   UNL     1      94.249  84.466  91.973  1.00  0.00     0.122 C 
BRANCH   6  15
ATOM     15  C   UNL     1      93.175  82.837  88.070  1.00  0.00     0.086 C 
ATOM     16  C   UNL     1      93.340  81.305  88.001  1.00  0.00     0.140 CG0
ATOM     17  C   UNL     1      91.817  83.070  87.468  1.00  0.00    -0.010 C 
ATOM     18  C   UNL     1      92.216  80.897  87.072  1.00  0.00     0.190 C 
ATOM     19  G   UNL     1      94.714  80.895  87.472  1.00  0.00     0.000 G0
ATOM     20  C   UNL     1      91.264  82.006  86.876  1.00  0.00    -0.008 C 
ATOM     21  O   UNL     1      92.070  79.788  86.582  1.00  0.00    -0.291 OA
ATOM     22  C   UNL     1      89.999  81.889  86.121  1.00  0.00     0.048 C 
BRANCH  16  23
ATOM     23  O   UNL     1      93.034  80.639  89.215  1.00  0.00    -0.381 OA
ATOM     24  H   UNL     1      93.866  80.446  89.678  1.00  0.00     0.212 HD
ENDBRANCH  16  23
ENDBRANCH   6  15
BRANCH   7  25
ATOM     25  C   UNL     1      94.746  87.051  89.547  1.00  0.00     0.135 C 
BRANCH  25  26
ATOM     26  C   UNL     1      94.666  88.083  90.644  1.00  0.00    -0.040 A 
ATOM     27  C   UNL     1      95.830  88.515  91.282  1.00  0.00     0.004 A 
ATOM     28  C   UNL     1      93.430  88.607  91.021  1.00  0.00     0.004 A 
ATOM     29  C   UNL     1      95.757  89.470  92.296  1.00  0.00     0.000 A 
ATOM     30  C   UNL     1      93.357  89.562  92.036  1.00  0.00     0.000 A 
ATOM     31  C   UNL     1      94.521  89.993  92.673  1.00  0.00     0.000 A 
ENDBRANCH  25  26
ENDBRANCH   7  25
BRANCH  14  32
ATOM     32  C   UNL     1      94.733  84.777  93.352  1.00  0.00    -0.046 C 
ATOM     33  C   UNL     1      93.740  85.425  94.272  1.00  0.00     0.042 C 
ATOM     34  C   UNL     1      95.983  84.493  93.746  1.00  0.00     0.010 C 
ENDBRANCH  14  32
ENDBRANCH   3   4
BRANCH   2  35
ATOM     35  C   UNL     1      94.725  80.879  87.485  1.00  0.00     0.078 CG0
ATOM     36  G   UNL     1      93.348  81.299  87.995  1.00  0.00     0.000 G0
ENDBRANCH   2  35
ENDBRANCH   1   2
BRANCH   1  37
ATOM     37  O   UNL     1      98.035  82.462  87.319  1.00  0.00    -0.461 OA
BRANCH  37  38
ATOM     38  C   UNL     1      98.192  83.123  86.123  1.00  0.00     0.310 C 
ATOM     39  O   UNL     1      98.832  84.154  85.969  1.00  0.00    -0.252 OA
BRANCH  38  40
ATOM     40  C   UNL     1      97.453  82.380  85.035  1.00  0.00     0.158 C 
BRANCH  40  41
ATOM     41  C   UNL     1      98.188  82.380  83.720  1.00  0.00    -0.033 A 
ATOM     42  C   UNL     1      99.312  81.571  83.550  1.00  0.00     0.054 A 
ATOM     43  C   UNL     1      97.745  83.187  82.673  1.00  0.00     0.008 A 
ATOM     44  C   UNL     1      99.993  81.571  82.332  1.00  0.00     0.160 A 
ATOM     45  C   UNL     1      98.425  83.187  81.455  1.00  0.00     0.050 A 
ATOM     46  C   UNL     1      99.549  82.379  81.284  1.00  0.00     0.157 A 
BRANCH  44  47
ATOM     47  O   UNL     1     101.089  80.777  82.177  1.00  0.00    -0.493 OA
ATOM     48  C   UNL     1     100.893  79.519  81.533  1.00  0.00     0.278 C 
ENDBRANCH  44  47
BRANCH  46  49
ATOM     49  O   UNL     1     100.205  82.386  80.091  1.00  0.00    -0.504 OA
ATOM     50  H   UNL     1      99.892  81.639  79.553  1.00  0.00     0.293 HD
ENDBRANCH  46  49
ENDBRANCH  40  41
ENDBRANCH  38  40
ENDBRANCH  37  38
ENDBRANCH   1  37
TORSDOF 11
ENDMDL
MODEL 3
REMARK VINA RESULT:    -5.913     10.761     15.013
REMARK INTER + INTRA:         -11.601
REMARK INTER:                  -8.775
REMARK INTRA:                  -2.826
REMARK UNBOUND:                -1.195
REMARK SMILES C=C(C)[C@]12C[C@@H](C)[C@@]34O[C@](Cc5ccccc5)(O[C@@H]1[C@@H]3C=C(COC(=O)Cc1ccc(O)c(OC)c1)C[C@]1(O)C(=O)C(C)=C[C@@H]41)O2
REMARK SMILES IDX 23 1 22 2 21 3 20 4 9 5 8 6 10 7 6 8 18 9 46 10 19 11 5 12
REMARK SMILES IDX 7 13 4 14 45 15 38 16 44 17 40 18 42 20 41 21 43 22 39 23
REMARK SMILES IDX 11 25 12 26 13 27 17 28 14 29 16 30 15 31 2 32 3 33 1 34
REMARK SMILES IDX 37 35 24 37 25 38 26 39 27 40 28 41 36 42 29 43 33 44 30 45
REMARK SMILES IDX 31 46 34 47 35 48 32 49
REMARK H PARENT 39 24 32 50
REMARK Flexibility Score: 90.00
ROOT
ATOM      1  C   UNL     1      99.338  76.120  77.610  1.00  0.00     0.264 C 
ENDROOT
BRANCH   1   2
ATOM      2  C   UNL     1      99.216  77.492  76.989  1.00  0.00    -0.033 C 
ATOM      3  C   UNL     1      99.159  78.575  77.790  1.00  0.00    -0.015 C 
BRANCH   3   4
ATOM      4  C   UNL     1      98.961  80.037  77.422  1.00  0.00     0.078 C 
ATOM      5  O   UNL     1     101.214  81.028  77.173  1.00  0.00    -0.319 OA
ATOM      6  C   UNL     1      99.992  80.708  76.440  1.00  0.00     0.095 C 
ATOM      7  C   UNL     1     101.016  81.597  78.482  1.00  0.00     0.289 C 
ATOM      8  C   UNL     1      99.339  82.047  75.900  1.00  0.00     0.023 C 
ATOM      9  O   UNL     1     100.239  80.734  79.308  1.00  0.00    -0.320 OA
ATOM     10  O   UNL     1     100.303  82.830  78.434  1.00  0.00    -0.313 OA
ATOM     11  C   UNL     1      98.947  80.905  78.705  1.00  0.00     0.170 C 
ATOM     12  C   UNL     1      98.426  82.711  76.977  1.00  0.00     0.049 C 
ATOM     13  C   UNL     1     100.327  83.090  75.355  1.00  0.00     0.011 C 
ATOM     14  C   UNL     1      98.920  82.422  78.395  1.00  0.00     0.122 C 
BRANCH   6  15
ATOM     15  C   UNL     1     100.448  79.699  75.346  1.00  0.00     0.086 C 
ATOM     16  C   UNL     1      99.340  78.830  74.717  1.00  0.00     0.140 CG0
ATOM     17  C   UNL     1     101.217  80.201  74.156  1.00  0.00    -0.010 C 
ATOM     18  C   UNL     1      99.817  78.677  73.288  1.00  0.00     0.190 C 
ATOM     19  G   UNL     1      99.184  77.488  75.430  1.00  0.00     0.000 G0
ATOM     20  C   UNL     1     100.905  79.627  72.989  1.00  0.00    -0.008 C 
ATOM     21  O   UNL     1      99.344  77.911  72.462  1.00  0.00    -0.291 OA
ATOM     22  C   UNL     1     101.502  79.808  71.650  1.00  0.00     0.048 C 
BRANCH  16  23
ATOM     23  O   UNL     1      98.094  79.495  74.588  1.00  0.00    -0.381 OA
ATOM     24  H   UNL     1      97.863  79.535  73.645  1.00  0.00     0.212 HD
ENDBRANCH  16  23
ENDBRANCH   6  15
BRANCH   7  25
ATOM     25  C   UNL     1     102.376  81.822  79.113  1.00  0.00     0.135 C 
BRANCH  25  26
ATOM     26  C   UNL     1     102.490  81.157  80.462  1.00  0.00    -0.040 A 
ATOM     27  C   UNL     1     103.215  79.972  80.596  1.00  0.00     0.004 A 
ATOM     28  C   UNL     1     101.873  81.727  81.575  1.00  0.00     0.004 A 
ATOM     29  C   UNL     1     103.321  79.357  81.843  1.00  0.00     0.000 A 
ATOM     30  C   UNL     1     101.979  81.111  82.823  1.00  0.00     0.000 A 
ATOM     31  C   UNL     1     102.703  79.926  82.956  1.00  0.00     0.000 A 
ENDBRANCH  25  26
ENDBRANCH   7  25
BRANCH  14  32
ATOM     32  C   UNL     1      98.172  83.194  79.432  1.00  0.00    -0.046 C 
ATOM     33  C   UNL     1      97.050  84.056  78.935  1.00  0.00     0.042 C 
ATOM     34  C   UNL     1      98.487  83.121  80.734  1.00  0.00     0.010 C 
ENDBRANCH  14  32
ENDBRANCH   3   4
BRANCH   2  35
ATOM     35  C   UNL     1      99.182  77.458  75.473  1.00  0.00     0.078 CG0
ATOM     36  G   UNL     1      99.349  78.788  74.740  1.00  0.00     0.000 G0
ENDBRANCH   2  35
ENDBRANCH   1   2
BRANCH   1  37
ATOM     37  O   UNL     1     100.703  75.807  77.787  1.00  0.00    -0.461 OA
BRANCH  37  38
ATOM     38  C   UNL     1     101.059  75.314  79.020  1.00  0.00     0.310 C 
ATOM     39  O   UNL     1     100.864  74.168  79.403  1.00  0.00    -0.252 OA
BRANCH  38  40
ATOM     40  C   UNL     1     101.727  76.404  79.825  1.00  0.00     0.158 C 
BRANCH  40  41
ATOM     41  C   UNL     1     100.887  76.878  80.984  1.00  0.00    -0.033 A 
ATOM     42  C   UNL     1     100.876  76.156  82.178  1.00  0.00     0.054 A 
ATOM     43  C   UNL     1     100.122  78.037  80.863  1.00  0.00     0.008 A 
ATOM     44  C   UNL     1     100.099  76.594  83.250  1.00  0.00     0.160 A 
ATOM     45  C   UNL     1      99.344  78.475  81.935  1.00  0.00     0.050 A 
ATOM     46  C   UNL     1      99.332  77.754  83.128  1.00  0.00     0.157 A 
BRANCH  44  47
ATOM     47  O   UNL     1     100.096  75.881  84.411  1.00  0.00    -0.493 OA
ATOM     48  C   UNL     1      99.141  74.827  84.522  1.00  0.00     0.278 C 
ENDBRANCH  44  47
BRANCH  46  49
ATOM     49  O   UNL     1      98.571  78.192  84.169  1.00  0.00    -0.504 OA
ATOM     50  H   UNL     1      98.902  79.058  84.461  1.00  0.00     0.293 HD
ENDBRANCH  46  49
ENDBRANCH  40  41
ENDBRANCH  38  40
ENDBRANCH  37  38
ENDBRANCH   1  37
TORSDOF 11
ENDMDL
MODEL 4
REMARK VINA RESULT:    -5.899     34.069     36.613
REMARK INTER + INTRA:         -11.576
REMARK INTER:                  -9.460
REMARK INTRA:                  -2.116
REMARK UNBOUND:                -1.195
REMARK SMILES C=C(C)[C@]12C[C@@H](C)[C@@]34O[C@](Cc5ccccc5)(O[C@@H]1[C@@H]3C=C(COC(=O)Cc1ccc(O)c(OC)c1)C[C@]1(O)C(=O)C(C)=C[C@@H]41)O2
REMARK SMILES IDX 23 1 22 2 21 3 20 4 9 5 8 6 10 7 6 8 18 9 46 10 19 11 5 12
REMARK SMILES IDX 7 13 4 14 45 15 38 16 44 17 40 18 42 20 41 21 43 22 39 23
REMARK SMILES IDX 11 25 12 26 13 27 17 28 14 29 16 30 15 31 2 32 3 33 1 34
REMARK SMILES IDX 37 35 24 37 25 38 26 39 27 40 28 41 36 42 29 43 33 44 30 45
REMARK SMILES IDX 31 46 34 47 35 48 32 49
REMARK H PARENT 39 24 32 50
REMARK Flexibility Score: 90.00
ROOT
ATOM      1  C   UNL     1      65.747  88.493  70.140  1.00  0.00     0.264 C 
ENDROOT
BRANCH   1   2
ATOM      2  C   UNL     1      64.822  88.147  71.284  1.00  0.00    -0.033 C 
ATOM      3  C   UNL     1      63.687  87.464  71.032  1.00  0.00    -0.015 C 
BRANCH   3   4
ATOM      4  C   UNL     1      62.569  87.068  71.982  1.00  0.00     0.078 C 
ATOM      5  O   UNL     1      63.102  84.800  72.814  1.00  0.00    -0.319 OA
ATOM      6  C   UNL     1      62.929  86.188  73.237  1.00  0.00     0.095 C 
ATOM      7  C   UNL     1      62.126  84.316  71.872  1.00  0.00     0.289 C 
ATOM      8  C   UNL     1      61.715  86.279  74.251  1.00  0.00     0.023 C 
ATOM      9  O   UNL     1      62.102  85.118  70.694  1.00  0.00    -0.320 OA
ATOM     10  O   UNL     1      60.801  84.361  72.395  1.00  0.00    -0.313 OA
ATOM     11  C   UNL     1      61.469  86.300  71.207  1.00  0.00     0.170 C 
ATOM     12  C   UNL     1      60.354  86.419  73.502  1.00  0.00     0.049 C 
ATOM     13  C   UNL     1      61.621  85.135  75.272  1.00  0.00     0.011 C 
ATOM     14  C   UNL     1      60.381  85.718  72.143  1.00  0.00     0.122 C 
BRANCH   6  15
ATOM     15  C   UNL     1      64.316  86.594  73.815  1.00  0.00     0.086 C 
ATOM     16  C   UNL     1      64.595  88.108  73.913  1.00  0.00     0.140 CG0
ATOM     17  C   UNL     1      64.732  86.073  75.162  1.00  0.00    -0.010 C 
ATOM     18  C   UNL     1      65.440  88.203  75.166  1.00  0.00     0.190 C 
ATOM     19  G   UNL     1      65.317  88.643  72.678  1.00  0.00     0.000 G0
ATOM     20  C   UNL     1      65.390  86.945  75.934  1.00  0.00    -0.008 C 
ATOM     21  O   UNL     1      66.048  89.196  75.536  1.00  0.00    -0.291 OA
ATOM     22  C   UNL     1      66.012  86.759  77.261  1.00  0.00     0.048 C 
BRANCH  16  23
ATOM     23  O   UNL     1      63.448  88.884  74.219  1.00  0.00    -0.381 OA
ATOM     24  H   UNL     1      63.050  88.536  75.034  1.00  0.00     0.212 HD
ENDBRANCH  16  23
ENDBRANCH   6  15
BRANCH   7  25
ATOM     25  C   UNL     1      62.480  82.887  71.513  1.00  0.00     0.135 C 
BRANCH  25  26
ATOM     26  C   UNL     1      63.511  82.820  70.413  1.00  0.00    -0.040 A 
ATOM     27  C   UNL     1      64.823  83.223  70.663  1.00  0.00     0.004 A 
ATOM     28  C   UNL     1      63.153  82.354  69.149  1.00  0.00     0.004 A 
ATOM     29  C   UNL     1      65.777  83.161  69.647  1.00  0.00     0.000 A 
ATOM     30  C   UNL     1      64.107  82.292  68.133  1.00  0.00     0.000 A 
ATOM     31  C   UNL     1      65.419  82.696  68.382  1.00  0.00     0.000 A 
ENDBRANCH  25  26
ENDBRANCH   7  25
BRANCH  14  32
ATOM     32  C   UNL     1      59.038  85.681  71.489  1.00  0.00    -0.046 C 
ATOM     33  C   UNL     1      58.296  84.381  71.572  1.00  0.00     0.042 C 
ATOM     34  C   UNL     1      58.525  86.751  70.863  1.00  0.00     0.010 C 
ENDBRANCH  14  32
ENDBRANCH   3   4
BRANCH   2  35
ATOM     35  C   UNL     1      65.330  88.636  72.628  1.00  0.00     0.078 CG0
ATOM     36  G   UNL     1      64.618  88.115  73.876  1.00  0.00     0.000 G0
ENDBRANCH   2  35
ENDBRANCH   1   2
BRANCH   1  37
ATOM     37  O   UNL     1      65.289  87.862  68.964  1.00  0.00    -0.461 OA
BRANCH  37  38
ATOM     38  C   UNL     1      66.140  86.942  68.396  1.00  0.00     0.310 C 
ATOM     39  O   UNL     1      65.788  85.969  67.743  1.00  0.00    -0.252 OA
BRANCH  38  40
ATOM     40  C   UNL     1      67.570  87.320  68.703  1.00  0.00     0.158 C 
BRANCH  40  41
ATOM     41  C   UNL     1      68.333  86.220  69.395  1.00  0.00    -0.033 A 
ATOM     42  C   UNL     1      69.107  85.332  68.647  1.00  0.00     0.054 A 
ATOM     43  C   UNL     1      68.267  86.090  70.782  1.00  0.00     0.008 A 
ATOM     44  C   UNL     1      69.813  84.313  69.287  1.00  0.00     0.160 A 
ATOM     45  C   UNL     1      68.973  85.072  71.422  1.00  0.00     0.050 A 
ATOM     46  C   UNL     1      69.746  84.183  70.675  1.00  0.00     0.157 A 
BRANCH  44  47
ATOM     47  O   UNL     1      70.565  83.452  68.546  1.00  0.00    -0.493 OA
ATOM     48  C   UNL     1      70.114  83.172  67.222  1.00  0.00     0.278 C 
ENDBRANCH  44  47
BRANCH  46  49
ATOM     49  O   UNL     1      70.433  83.194  71.311  1.00  0.00    -0.504 OA
ATOM     50  H   UNL     1      69.952  82.943  72.117  1.00  0.00     0.293 HD
ENDBRANCH  46  49
ENDBRANCH  40  41
ENDBRANCH  38  40
ENDBRANCH  37  38
ENDBRANCH   1  37
TORSDOF 11
ENDMDL
MODEL 5
REMARK VINA RESULT:    -5.841     21.069     26.015
REMARK INTER + INTRA:         -11.474
REMARK INTER:                 -10.588
REMARK INTRA:                  -0.886
REMARK UNBOUND:                -1.195
REMARK SMILES C=C(C)[C@]12C[C@@H](C)[C@@]34O[C@](Cc5ccccc5)(O[C@@H]1[C@@H]3C=C(COC(=O)Cc1ccc(O)c(OC)c1)C[C@]1(O)C(=O)C(C)=C[C@@H]41)O2
REMARK SMILES IDX 23 1 22 2 21 3 20 4 9 5 8 6 10 7 6 8 18 9 46 10 19 11 5 12
REMARK SMILES IDX 7 13 4 14 45 15 38 16 44 17 40 18 42 20 41 21 43 22 39 23
REMARK SMILES IDX 11 25 12 26 13 27 17 28 14 29 16 30 15 31 2 32 3 33 1 34
REMARK SMILES IDX 37 35 24 37 25 38 26 39 27 40 28 41 36 42 29 43 33 44 30 45
REMARK SMILES IDX 31 46 34 47 35 48 32 49
REMARK H PARENT 39 24 32 50
REMARK Flexibility Score: 90.00
ROOT
ATOM      1  C   UNL     1      89.404  70.421  72.645  1.00  0.00     0.264 C 
ENDROOT
BRANCH   1   2
ATOM      2  C   UNL     1      89.831  70.347  71.198  1.00  0.00    -0.033 C 
ATOM      3  C   UNL     1      89.767  71.455  70.433  1.00  0.00    -0.015 C 
BRANCH   3   4
ATOM      4  C   UNL     1      90.060  71.624  68.952  1.00  0.00     0.078 C 
ATOM      5  O   UNL     1      92.443  72.257  68.756  1.00  0.00    -0.319 OA
ATOM      6  C   UNL     1      91.482  71.210  68.418  1.00  0.00     0.095 C 
ATOM      7  C   UNL     1      91.981  73.606  68.555  1.00  0.00     0.289 C 
ATOM      8  C   UNL     1      91.383  71.079  66.842  1.00  0.00     0.023 C 
ATOM      9  O   UNL     1      90.794  73.863  69.301  1.00  0.00    -0.320 OA
ATOM     10  O   UNL     1      91.644  73.866  67.195  1.00  0.00    -0.313 OA
ATOM     11  C   UNL     1      89.847  73.101  68.538  1.00  0.00     0.170 C 
ATOM     12  C   UNL     1      90.364  72.099  66.246  1.00  0.00     0.049 C 
ATOM     13  C   UNL     1      92.717  71.188  66.086  1.00  0.00     0.011 C 
ATOM     14  C   UNL     1      90.291  73.378  67.080  1.00  0.00     0.122 C 
BRANCH   6  15
ATOM     15  C   UNL     1      92.005  69.947  69.162  1.00  0.00     0.086 C 
ATOM     16  C   UNL     1      90.973  68.827  69.408  1.00  0.00     0.140 CG0
ATOM     17  C   UNL     1      93.196  69.211  68.617  1.00  0.00    -0.010 C 
ATOM     18  C   UNL     1      91.817  67.575  69.292  1.00  0.00     0.190 C 
ATOM     19  G   UNL     1      90.298  68.953  70.773  1.00  0.00     0.000 G0
ATOM     20  C   UNL     1      93.133  67.878  68.700  1.00  0.00    -0.008 C 
ATOM     21  O   UNL     1      91.456  66.448  69.594  1.00  0.00    -0.291 OA
ATOM     22  C   UNL     1      94.138  66.854  68.347  1.00  0.00     0.048 C 
BRANCH  16  23
ATOM     23  O   UNL     1      90.017  68.688  68.369  1.00  0.00    -0.381 OA
ATOM     24  H   UNL     1      89.751  69.576  68.077  1.00  0.00     0.212 HD
ENDBRANCH  16  23
ENDBRANCH   6  15
BRANCH   7  25
ATOM     25  C   UNL     1      93.078  74.555  68.995  1.00  0.00     0.135 C 
BRANCH  25  26
ATOM     26  C   UNL     1      93.086  74.756  70.490  1.00  0.00    -0.040 A 
ATOM     27  C   UNL     1      92.931  76.036  71.022  1.00  0.00     0.004 A 
ATOM     28  C   UNL     1      93.246  73.662  71.340  1.00  0.00     0.004 A 
ATOM     29  C   UNL     1      92.938  76.222  72.405  1.00  0.00     0.000 A 
ATOM     30  C   UNL     1      93.253  73.848  72.723  1.00  0.00     0.000 A 
ATOM     31  C   UNL     1      93.099  75.129  73.255  1.00  0.00     0.000 A 
ENDBRANCH  25  26
ENDBRANCH   7  25
BRANCH  14  32
ATOM     32  C   UNL     1      89.462  74.439  66.433  1.00  0.00    -0.046 C 
ATOM     33  C   UNL     1      88.233  74.867  67.178  1.00  0.00     0.042 C 
ATOM     34  C   UNL     1      89.798  74.979  65.251  1.00  0.00     0.010 C 
ENDBRANCH  14  32
ENDBRANCH   3   4
BRANCH   2  35
ATOM     35  C   UNL     1      90.304  68.965  70.788  1.00  0.00     0.078 CG0
ATOM     36  G   UNL     1      90.980  68.834  69.424  1.00  0.00     0.000 G0
ENDBRANCH   2  35
ENDBRANCH   1   2
BRANCH   1  37
ATOM     37  O   UNL     1      88.531  69.350  72.931  1.00  0.00    -0.461 OA
BRANCH  37  38
ATOM     38  C   UNL     1      87.274  69.427  72.377  1.00  0.00     0.310 C 
ATOM     39  O   UNL     1      86.543  70.407  72.427  1.00  0.00    -0.252 OA
BRANCH  38  40
ATOM     40  C   UNL     1      86.938  68.117  71.703  1.00  0.00     0.158 C 
BRANCH  40  41
ATOM     41  C   UNL     1      86.013  67.254  72.521  1.00  0.00    -0.033 A 
ATOM     42  C   UNL     1      86.527  66.450  73.539  1.00  0.00     0.054 A 
ATOM     43  C   UNL     1      84.643  67.260  72.262  1.00  0.00     0.008 A 
ATOM     44  C   UNL     1      85.670  65.651  74.297  1.00  0.00     0.160 A 
ATOM     45  C   UNL     1      83.786  66.461  73.020  1.00  0.00     0.050 A 
ATOM     46  C   UNL     1      84.299  65.657  74.037  1.00  0.00     0.157 A 
BRANCH  44  47
ATOM     47  O   UNL     1      86.184  64.870  75.287  1.00  0.00    -0.493 OA
ATOM     48  C   UNL     1      87.300  64.047  74.951  1.00  0.00     0.278 C 
ENDBRANCH  44  47
BRANCH  46  49
ATOM     49  O   UNL     1      83.453  64.882  74.770  1.00  0.00    -0.504 OA
ATOM     50  H   UNL     1      83.695  63.948  74.652  1.00  0.00     0.293 HD
ENDBRANCH  46  49
ENDBRANCH  40  41
ENDBRANCH  38  40
ENDBRANCH  37  38
ENDBRANCH   1  37
TORSDOF 11
ENDMDL
MODEL 6
REMARK VINA RESULT:    -5.679     23.367     26.516
REMARK INTER + INTRA:         -11.190
REMARK INTER:                 -10.025
REMARK INTRA:                  -1.165
REMARK UNBOUND:                -1.195
REMARK SMILES C=C(C)[C@]12C[C@@H](C)[C@@]34O[C@](Cc5ccccc5)(O[C@@H]1[C@@H]3C=C(COC(=O)Cc1ccc(O)c(OC)c1)C[C@]1(O)C(=O)C(C)=C[C@@H]41)O2
REMARK SMILES IDX 23 1 22 2 21 3 20 4 9 5 8 6 10 7 6 8 18 9 46 10 19 11 5 12
REMARK SMILES IDX 7 13 4 14 45 15 38 16 44 17 40 18 42 20 41 21 43 22 39 23
REMARK SMILES IDX 11 25 12 26 13 27 17 28 14 29 16 30 15 31 2 32 3 33 1 34
REMARK SMILES IDX 37 35 24 37 25 38 26 39 27 40 28 41 36 42 29 43 33 44 30 45
REMARK SMILES IDX 31 46 34 47 35 48 32 49
REMARK H PARENT 39 24 32 50
REMARK Flexibility Score: 90.00
ROOT
ATOM      1  C   UNL     1      87.848  70.525  72.960  1.00  0.00     0.264 C 
ENDROOT
BRANCH   1   2
ATOM      2  C   UNL     1      87.242  69.337  73.671  1.00  0.00    -0.033 C 
ATOM      3  C   UNL     1      86.298  68.606  73.046  1.00  0.00    -0.015 C 
BRANCH   3   4
ATOM      4  C   UNL     1      85.489  67.428  73.565  1.00  0.00     0.078 C 
ATOM      5  O   UNL     1      86.723  65.376  72.941  1.00  0.00    -0.319 OA
ATOM      6  C   UNL     1      86.264  66.160  74.086  1.00  0.00     0.095 C 
ATOM      7  C   UNL     1      85.769  65.229  71.872  1.00  0.00     0.289 C 
ATOM      8  C   UNL     1      85.247  65.294  74.939  1.00  0.00     0.023 C 
ATOM      9  O   UNL     1      85.348  66.497  71.377  1.00  0.00    -0.320 OA
ATOM     10  O   UNL     1      84.580  64.567  72.296  1.00  0.00    -0.313 OA
ATOM     11  C   UNL     1      84.518  66.931  72.466  1.00  0.00     0.170 C 
ATOM     12  C   UNL     1      83.795  65.403  74.380  1.00  0.00     0.049 C 
ATOM     13  C   UNL     1      85.621  63.812  75.105  1.00  0.00     0.011 C 
ATOM     14  C   UNL     1      83.786  65.626  72.868  1.00  0.00     0.122 C 
BRANCH   6  15
ATOM     15  C   UNL     1      87.570  66.575  74.822  1.00  0.00     0.086 C 
ATOM     16  C   UNL     1      87.460  67.786  75.771  1.00  0.00     0.140 CG0
ATOM     17  C   UNL     1      88.309  65.555  75.642  1.00  0.00    -0.010 C 
ATOM     18  C   UNL     1      88.435  67.427  76.873  1.00  0.00     0.190 C 
ATOM     19  G   UNL     1      87.822  69.098  75.075  1.00  0.00     0.000 G0
ATOM     20  C   UNL     1      88.830  66.009  76.787  1.00  0.00    -0.008 C 
ATOM     21  O   UNL     1      88.815  68.181  77.756  1.00  0.00    -0.291 OA
ATOM     22  C   UNL     1      89.675  65.323  77.786  1.00  0.00     0.048 C 
BRANCH  16  23
ATOM     23  O   UNL     1      86.213  67.881  76.439  1.00  0.00    -0.381 OA
ATOM     24  H   UNL     1      85.654  68.513  75.958  1.00  0.00     0.212 HD
ENDBRANCH  16  23
ENDBRANCH   6  15
BRANCH   7  25
ATOM     25  C   UNL     1      86.422  64.435  70.759  1.00  0.00     0.135 C 
BRANCH  25  26
ATOM     26  C   UNL     1      87.855  64.849  70.534  1.00  0.00    -0.040 A 
ATOM     27  C   UNL     1      88.881  64.216  71.237  1.00  0.00     0.004 A 
ATOM     28  C   UNL     1      88.155  65.862  69.624  1.00  0.00     0.004 A 
ATOM     29  C   UNL     1      90.207  64.598  71.030  1.00  0.00     0.000 A 
ATOM     30  C   UNL     1      89.480  66.244  69.417  1.00  0.00     0.000 A 
ATOM     31  C   UNL     1      90.506  65.612  70.120  1.00  0.00     0.000 A 
ENDBRANCH  25  26
ENDBRANCH   7  25
BRANCH  14  32
ATOM     32  C   UNL     1      82.412  65.552  72.284  1.00  0.00    -0.046 C 
ATOM     33  C   UNL     1      82.325  65.143  70.844  1.00  0.00     0.042 C 
ATOM     34  C   UNL     1      81.318  65.835  73.008  1.00  0.00     0.010 C 
ENDBRANCH  14  32
ENDBRANCH   3   4
BRANCH   2  35
ATOM     35  C   UNL     1      87.817  69.118  75.058  1.00  0.00     0.078 CG0
ATOM     36  G   UNL     1      87.465  67.808  75.761  1.00  0.00     0.000 G0
ENDBRANCH   2  35
ENDBRANCH   1   2
BRANCH   1  37
ATOM     37  O   UNL     1      88.167  70.162  71.634  1.00  0.00    -0.461 OA
BRANCH  37  38
ATOM     38  C   UNL     1      89.485  69.852  71.389  1.00  0.00     0.310 C 
ATOM     39  O   UNL     1      90.353  69.748  72.244  1.00  0.00    -0.252 OA
BRANCH  38  40
ATOM     40  C   UNL     1      89.691  69.662  69.904  1.00  0.00     0.158 C 
BRANCH  40  41
ATOM     41  C   UNL     1      90.129  70.923  69.205  1.00  0.00    -0.033 A 
ATOM     42  C   UNL     1      91.371  70.973  68.570  1.00  0.00     0.054 A 
ATOM     43  C   UNL     1      89.294  72.039  69.192  1.00  0.00     0.008 A 
ATOM     44  C   UNL     1      91.776  72.140  67.923  1.00  0.00     0.160 A 
ATOM     45  C   UNL     1      89.699  73.207  68.545  1.00  0.00     0.050 A 
ATOM     46  C   UNL     1      90.940  73.258  67.911  1.00  0.00     0.157 A 
BRANCH  44  47
ATOM     47  O   UNL     1      92.991  72.177  67.307  1.00  0.00    -0.493 OA
ATOM     48  C   UNL     1      93.415  70.990  66.639  1.00  0.00     0.278 C 
ENDBRANCH  44  47
BRANCH  46  49
ATOM     49  O   UNL     1      91.325  74.402  67.281  1.00  0.00    -0.504 OA
ATOM     50  H   UNL     1      90.561  74.776  66.810  1.00  0.00     0.293 HD
ENDBRANCH  46  49
ENDBRANCH  40  41
ENDBRANCH  38  40
ENDBRANCH  37  38
ENDBRANCH   1  37
TORSDOF 11
ENDMDL
MODEL 7
REMARK VINA RESULT:    -5.652      3.129      7.980
REMARK INTER + INTRA:         -11.143
REMARK INTER:                 -10.474
REMARK INTRA:                  -0.669
REMARK UNBOUND:                -1.195
REMARK SMILES C=C(C)[C@]12C[C@@H](C)[C@@]34O[C@](Cc5ccccc5)(O[C@@H]1[C@@H]3C=C(COC(=O)Cc1ccc(O)c(OC)c1)C[C@]1(O)C(=O)C(C)=C[C@@H]41)O2
REMARK SMILES IDX 23 1 22 2 21 3 20 4 9 5 8 6 10 7 6 8 18 9 46 10 19 11 5 12
REMARK SMILES IDX 7 13 4 14 45 15 38 16 44 17 40 18 42 20 41 21 43 22 39 23
REMARK SMILES IDX 11 25 12 26 13 27 17 28 14 29 16 30 15 31 2 32 3 33 1 34
REMARK SMILES IDX 37 35 24 37 25 38 26 39 27 40 28 41 36 42 29 43 33 44 30 45
REMARK SMILES IDX 31 46 34 47 35 48 32 49
REMARK H PARENT 39 24 32 50
REMARK Flexibility Score: 90.00
ROOT
ATOM      1  C   UNL     1      92.455  82.233  90.641  1.00  0.00     0.264 C 
ENDROOT
BRANCH   1   2
ATOM      2  C   UNL     1      93.862  82.716  90.376  1.00  0.00    -0.033 C 
ATOM      3  C   UNL     1      94.817  81.821  90.053  1.00  0.00    -0.015 C 
BRANCH   3   4
ATOM      4  C   UNL     1      96.303  82.038  89.818  1.00  0.00     0.078 C 
ATOM      5  O   UNL     1      96.599  82.427  87.393  1.00  0.00    -0.319 OA
ATOM      6  C   UNL     1      96.743  83.058  88.703  1.00  0.00     0.095 C 
ATOM      7  C   UNL     1      97.048  81.061  87.314  1.00  0.00     0.289 C 
ATOM      8  C   UNL     1      98.269  83.410  88.949  1.00  0.00     0.023 C 
ATOM      9  O   UNL     1      96.368  80.238  88.258  1.00  0.00    -0.320 OA
ATOM     10  O   UNL     1      98.434  80.929  87.615  1.00  0.00    -0.313 OA
ATOM     11  C   UNL     1      96.983  80.690  89.475  1.00  0.00     0.170 C 
ATOM     12  C   UNL     1      99.047  82.192  89.536  1.00  0.00     0.049 C 
ATOM     13  C   UNL     1      99.024  83.960  87.729  1.00  0.00     0.011 C 
ATOM     14  C   UNL     1      98.465  80.863  89.056  1.00  0.00     0.122 C 
BRANCH   6  15
ATOM     15  C   UNL     1      95.776  84.276  88.656  1.00  0.00     0.086 C 
ATOM     16  C   UNL     1      95.328  84.842  90.020  1.00  0.00     0.140 CG0
ATOM     17  C   UNL     1      96.172  85.502  87.882  1.00  0.00    -0.010 C 
ATOM     18  C   UNL     1      95.207  86.324  89.734  1.00  0.00     0.190 C 
ATOM     19  G   UNL     1      94.012  84.228  90.495  1.00  0.00     0.000 G0
ATOM     20  C   UNL     1      95.842  86.668  88.448  1.00  0.00    -0.008 C 
ATOM     21  O   UNL     1      94.702  87.150  90.480  1.00  0.00    -0.291 OA
ATOM     22  C   UNL     1      95.996  88.048  87.944  1.00  0.00     0.048 C 
BRANCH  16  23
ATOM     23  O   UNL     1      96.325  84.771  91.025  1.00  0.00    -0.381 OA
ATOM     24  H   UNL     1      97.181  85.000  90.626  1.00  0.00     0.212 HD
ENDBRANCH  16  23
ENDBRANCH   6  15
BRANCH   7  25
ATOM     25  C   UNL     1      96.784  80.555  85.910  1.00  0.00     0.135 C 
BRANCH  25  26
ATOM     26  C   UNL     1      97.328  81.491  84.860  1.00  0.00    -0.040 A 
ATOM     27  C   UNL     1      96.959  82.837  84.868  1.00  0.00     0.004 A 
ATOM     28  C   UNL     1      98.199  81.013  83.881  1.00  0.00     0.004 A 
ATOM     29  C   UNL     1      97.462  83.704  83.897  1.00  0.00     0.000 A 
ATOM     30  C   UNL     1      98.701  81.880  82.910  1.00  0.00     0.000 A 
ATOM     31  C   UNL     1      98.332  83.225  82.919  1.00  0.00     0.000 A 
ENDBRANCH  25  26
ENDBRANCH   7  25
BRANCH  14  32
ATOM     32  C   UNL     1      99.301  79.691  89.455  1.00  0.00    -0.046 C 
ATOM     33  C   UNL     1      98.903  78.366  88.878  1.00  0.00     0.042 C 
ATOM     34  C   UNL     1     100.349  79.818  90.284  1.00  0.00     0.010 C 
ENDBRANCH  14  32
ENDBRANCH   3   4
BRANCH   2  35
ATOM     35  C   UNL     1      94.009  84.220  90.510  1.00  0.00     0.078 CG0
ATOM     36  G   UNL     1      95.318  84.840  90.023  1.00  0.00     0.000 G0
ENDBRANCH   2  35
ENDBRANCH   1   2
BRANCH   1  37
ATOM     37  O   UNL     1      92.009  81.468  89.542  1.00  0.00    -0.461 OA
BRANCH  37  38
ATOM     38  C   UNL     1      91.220  82.123  88.625  1.00  0.00     0.310 C 
ATOM     39  O   UNL     1      91.369  83.285  88.273  1.00  0.00    -0.252 OA
BRANCH  38  40
ATOM     40  C   UNL     1      90.145  81.187  88.125  1.00  0.00     0.158 C 
BRANCH  40  41
ATOM     41  C   UNL     1      90.694  80.045  87.309  1.00  0.00    -0.033 A 
ATOM     42  C   UNL     1      91.053  78.850  87.935  1.00  0.00     0.054 A 
ATOM     43  C   UNL     1      90.843  80.181  85.929  1.00  0.00     0.008 A 
ATOM     44  C   UNL     1      91.561  77.793  87.181  1.00  0.00     0.160 A 
ATOM     45  C   UNL     1      91.351  79.123  85.175  1.00  0.00     0.050 A 
ATOM     46  C   UNL     1      91.710  77.930  85.800  1.00  0.00     0.157 A 
BRANCH  44  47
ATOM     47  O   UNL     1      91.908  76.632  87.803  1.00  0.00    -0.493 OA
ATOM     48  C   UNL     1      93.300  76.332  87.887  1.00  0.00     0.278 C 
ENDBRANCH  44  47
BRANCH  46  49
ATOM     49  O   UNL     1      92.204  76.904  85.053  1.00  0.00    -0.504 OA
ATOM     50  H   UNL     1      93.139  77.080  84.851  1.00  0.00     0.293 HD
ENDBRANCH  46  49
ENDBRANCH  40  41
ENDBRANCH  38  40
ENDBRANCH  37  38
ENDBRANCH   1  37
TORSDOF 11
ENDMDL
MODEL 8
REMARK VINA RESULT:    -5.618     25.731     28.862
REMARK INTER + INTRA:         -11.083
REMARK INTER:                  -9.241
REMARK INTRA:                  -1.842
REMARK UNBOUND:                -1.195
REMARK SMILES C=C(C)[C@]12C[C@@H](C)[C@@]34O[C@](Cc5ccccc5)(O[C@@H]1[C@@H]3C=C(COC(=O)Cc1ccc(O)c(OC)c1)C[C@]1(O)C(=O)C(C)=C[C@@H]41)O2
REMARK SMILES IDX 23 1 22 2 21 3 20 4 9 5 8 6 10 7 6 8 18 9 46 10 19 11 5 12
REMARK SMILES IDX 7 13 4 14 45 15 38 16 44 17 40 18 42 20 41 21 43 22 39 23
REMARK SMILES IDX 11 25 12 26 13 27 17 28 14 29 16 30 15 31 2 32 3 33 1 34
REMARK SMILES IDX 37 35 24 37 25 38 26 39 27 40 28 41 36 42 29 43 33 44 30 45
REMARK SMILES IDX 31 46 34 47 35 48 32 49
REMARK H PARENT 39 24 32 50
REMARK Flexibility Score: 90.00
ROOT
ATOM      1  C   UNL     1      75.660  99.662  73.650  1.00  0.00     0.264 C 
ENDROOT
BRANCH   1   2
ATOM      2  C   UNL     1      75.954  98.751  72.480  1.00  0.00    -0.033 C 
ATOM      3  C   UNL     1      76.381  99.286  71.319  1.00  0.00    -0.015 C 
BRANCH   3   4
ATOM      4  C   UNL     1      76.668  98.605  69.991  1.00  0.00     0.078 C 
ATOM      5  O   UNL     1      79.066  97.999  69.994  1.00  0.00    -0.319 OA
ATOM      6  C   UNL     1      77.719  97.434  69.961  1.00  0.00     0.095 C 
ATOM      7  C   UNL     1      79.272  99.151  69.155  1.00  0.00     0.289 C 
ATOM      8  C   UNL     1      77.517  96.642  68.603  1.00  0.00     0.023 C 
ATOM      9  O   UNL     1      78.364 100.200  69.484  1.00  0.00    -0.320 OA
ATOM     10  O   UNL     1      79.046  98.864  67.777  1.00  0.00    -0.313 OA
ATOM     11  C   UNL     1      77.146  99.653  68.955  1.00  0.00     0.170 C 
ATOM     12  C   UNL     1      77.063  97.590  67.451  1.00  0.00     0.049 C 
ATOM     13  C   UNL     1      78.724  95.812  68.138  1.00  0.00     0.011 C 
ATOM     14  C   UNL     1      77.618  99.004  67.630  1.00  0.00     0.122 C 
BRANCH   6  15
ATOM     15  C   UNL     1      77.626  96.576  71.256  1.00  0.00     0.086 C 
ATOM     16  C   UNL     1      76.203  96.256  71.759  1.00  0.00     0.140 CG0
ATOM     17  C   UNL     1      78.323  95.245  71.310  1.00  0.00    -0.010 C 
ATOM     18  C   UNL     1      76.369  94.871  72.347  1.00  0.00     0.190 C 
ATOM     19  G   UNL     1      75.712  97.274  72.787  1.00  0.00     0.000 G0
ATOM     20  C   UNL     1      77.655  94.274  71.940  1.00  0.00    -0.008 C 
ATOM     21  O   UNL     1      75.540  94.287  73.028  1.00  0.00    -0.291 OA
ATOM     22  C   UNL     1      78.060  92.888  72.252  1.00  0.00     0.048 C 
BRANCH  16  23
ATOM     23  O   UNL     1      75.256  96.071  70.720  1.00  0.00    -0.381 OA
ATOM     24  H   UNL     1      74.391  96.382  71.035  1.00  0.00     0.212 HD
ENDBRANCH  16  23
ENDBRANCH   6  15
BRANCH   7  25
ATOM     25  C   UNL     1      80.697  99.630  69.345  1.00  0.00     0.135 C 
BRANCH  25  26
ATOM     26  C   UNL     1      80.797 101.135  69.310  1.00  0.00    -0.040 A 
ATOM     27  C   UNL     1      81.136 101.838  70.467  1.00  0.00     0.004 A 
ATOM     28  C   UNL     1      80.552 101.823  68.122  1.00  0.00     0.004 A 
ATOM     29  C   UNL     1      81.229 103.230  70.435  1.00  0.00     0.000 A 
ATOM     30  C   UNL     1      80.645 103.215  68.090  1.00  0.00     0.000 A 
ATOM     31  C   UNL     1      80.984 103.918  69.247  1.00  0.00     0.000 A 
ENDBRANCH  25  26
ENDBRANCH   7  25
BRANCH  14  32
ATOM     32  C   UNL     1      77.350  99.879  66.450  1.00  0.00    -0.046 C 
ATOM     33  C   UNL     1      75.913 100.222  66.192  1.00  0.00     0.042 C 
ATOM     34  C   UNL     1      78.338 100.334  65.664  1.00  0.00     0.010 C 
ENDBRANCH  14  32
ENDBRANCH   3   4
BRANCH   2  35
ATOM     35  C   UNL     1      75.722  97.285  72.795  1.00  0.00     0.078 CG0
ATOM     36  G   UNL     1      76.234  96.263  71.781  1.00  0.00     0.000 G0
ENDBRANCH   2  35
ENDBRANCH   1   2
BRANCH   1  37
ATOM     37  O   UNL     1      75.982  98.996  74.852  1.00  0.00    -0.461 OA
BRANCH  37  38
ATOM     38  C   UNL     1      77.135  99.402  75.482  1.00  0.00     0.310 C 
ATOM     39  O   UNL     1      77.893 100.269  75.070  1.00  0.00    -0.252 OA
BRANCH  38  40
ATOM     40  C   UNL     1      77.317  98.614  76.758  1.00  0.00     0.158 C 
BRANCH  40  41
ATOM     41  C   UNL     1      77.482  97.135  76.516  1.00  0.00    -0.033 A 
ATOM     42  C   UNL     1      76.832  96.217  77.343  1.00  0.00     0.054 A 
ATOM     43  C   UNL     1      78.282  96.684  75.467  1.00  0.00     0.008 A 
ATOM     44  C   UNL     1      76.984  94.849  77.120  1.00  0.00     0.160 A 
ATOM     45  C   UNL     1      78.434  95.315  75.244  1.00  0.00     0.050 A 
ATOM     46  C   UNL     1      77.785  94.398  76.070  1.00  0.00     0.157 A 
BRANCH  44  47
ATOM     47  O   UNL     1      76.345  93.963  77.933  1.00  0.00    -0.493 OA
ATOM     48  C   UNL     1      75.110  93.426  77.464  1.00  0.00     0.278 C 
ENDBRANCH  44  47
BRANCH  46  49
ATOM     49  O   UNL     1      77.940  93.064  75.842  1.00  0.00    -0.504 OA
ATOM     50  H   UNL     1      78.358  92.656  76.619  1.00  0.00     0.293 HD
ENDBRANCH  46  49
ENDBRANCH  40  41
ENDBRANCH  38  40
ENDBRANCH  37  38
ENDBRANCH   1  37
TORSDOF 11
ENDMDL
MODEL 9
REMARK VINA RESULT:    -5.271      3.336      9.644
REMARK INTER + INTRA:         -10.472
REMARK INTER:                 -10.065
REMARK INTRA:                  -0.407
REMARK UNBOUND:                -1.195
REMARK SMILES C=C(C)[C@]12C[C@@H](C)[C@@]34O[C@](Cc5ccccc5)(O[C@@H]1[C@@H]3C=C(COC(=O)Cc1ccc(O)c(OC)c1)C[C@]1(O)C(=O)C(C)=C[C@@H]41)O2
REMARK SMILES IDX 23 1 22 2 21 3 20 4 9 5 8 6 10 7 6 8 18 9 46 10 19 11 5 12
REMARK SMILES IDX 7 13 4 14 45 15 38 16 44 17 40 18 42 20 41 21 43 22 39 23
REMARK SMILES IDX 11 25 12 26 13 27 17 28 14 29 16 30 15 31 2 32 3 33 1 34
REMARK SMILES IDX 37 35 24 37 25 38 26 39 27 40 28 41 36 42 29 43 33 44 30 45
REMARK SMILES IDX 31 46 34 47 35 48 32 49
REMARK H PARENT 39 24 32 50
REMARK Flexibility Score: 90.00
ROOT
ATOM      1  C   UNL     1      97.865  80.645  86.751  1.00  0.00     0.264 C 
ENDROOT
BRANCH   1   2
ATOM      2  C   UNL     1      96.512  80.640  87.424  1.00  0.00    -0.033 C 
ATOM      3  C   UNL     1      96.262  81.527  88.407  1.00  0.00    -0.015 C 
BRANCH   3   4
ATOM      4  C   UNL     1      95.027  81.675  89.281  1.00  0.00     0.078 C 
ATOM      5  O   UNL     1      93.529  83.284  88.146  1.00  0.00    -0.319 OA
ATOM      6  C   UNL     1      93.635  81.893  88.580  1.00  0.00     0.095 C 
ATOM      7  C   UNL     1      94.001  84.262  89.092  1.00  0.00     0.289 C 
ATOM      8  C   UNL     1      92.506  81.592  89.650  1.00  0.00     0.023 C 
ATOM      9  O   UNL     1      95.363  84.028  89.442  1.00  0.00    -0.320 OA
ATOM     10  O   UNL     1      93.277  84.222  90.319  1.00  0.00    -0.313 OA
ATOM     11  C   UNL     1      95.216  82.859  90.262  1.00  0.00     0.170 C 
ATOM     12  C   UNL     1      92.960  81.992  91.087  1.00  0.00     0.049 C 
ATOM     13  C   UNL     1      91.132  82.216  89.355  1.00  0.00     0.011 C 
ATOM     14  C   UNL     1      93.929  83.174  91.066  1.00  0.00     0.122 C 
BRANCH   6  15
ATOM     15  C   UNL     1      93.545  81.068  87.263  1.00  0.00     0.086 C 
ATOM     16  C   UNL     1      94.115  79.635  87.318  1.00  0.00     0.140 CG0
ATOM     17  C   UNL     1      92.210  80.888  86.596  1.00  0.00    -0.010 C 
ATOM     18  C   UNL     1      93.193  78.882  86.383  1.00  0.00     0.190 C 
ATOM     19  G   UNL     1      95.575  79.577  86.873  1.00  0.00     0.000 G0
ATOM     20  C   UNL     1      91.993  79.679  86.067  1.00  0.00    -0.008 C 
ATOM     21  O   UNL     1      93.374  77.745  85.974  1.00  0.00    -0.291 OA
ATOM     22  C   UNL     1      90.849  79.178  85.278  1.00  0.00     0.048 C 
BRANCH  16  23
ATOM     23  O   UNL     1      93.929  78.992  88.568  1.00  0.00    -0.381 OA
ATOM     24  H   UNL     1      93.901  79.671  89.262  1.00  0.00     0.212 HD
ENDBRANCH  16  23
ENDBRANCH   6  15
BRANCH   7  25
ATOM     25  C   UNL     1      93.861  85.635  88.467  1.00  0.00     0.135 C 
BRANCH  25  26
ATOM     26  C   UNL     1      94.598  86.692  89.253  1.00  0.00    -0.040 A 
ATOM     27  C   UNL     1      93.957  87.355  90.300  1.00  0.00     0.004 A 
ATOM     28  C   UNL     1      95.919  87.004  88.934  1.00  0.00     0.004 A 
ATOM     29  C   UNL     1      94.638  88.332  91.026  1.00  0.00     0.000 A 
ATOM     30  C   UNL     1      96.600  87.981  89.661  1.00  0.00     0.000 A 
ATOM     31  C   UNL     1      95.959  88.645  90.707  1.00  0.00     0.000 A 
ENDBRANCH  25  26
ENDBRANCH   7  25
BRANCH  14  32
ATOM     32  C   UNL     1      94.235  83.692  92.433  1.00  0.00    -0.046 C 
ATOM     33  C   UNL     1      93.782  82.838  93.581  1.00  0.00     0.042 C 
ATOM     34  C   UNL     1      94.878  84.853  92.625  1.00  0.00     0.010 C 
ENDBRANCH  14  32
ENDBRANCH   3   4
BRANCH   2  35
ATOM     35  C   UNL     1      95.574  79.587  86.864  1.00  0.00     0.078 CG0
ATOM     36  G   UNL     1      94.116  79.637  87.319  1.00  0.00     0.000 G0
ENDBRANCH   2  35
ENDBRANCH   1   2
BRANCH   1  37
ATOM     37  O   UNL     1      98.232  81.974  86.449  1.00  0.00    -0.461 OA
BRANCH  37  38
ATOM     38  C   UNL     1      99.176  82.135  85.462  1.00  0.00     0.310 C 
ATOM     39  O   UNL     1     100.359  81.845  85.567  1.00  0.00    -0.252 OA
BRANCH  38  40
ATOM     40  C   UNL     1      98.524  82.724  84.233  1.00  0.00     0.158 C 
BRANCH  40  41
ATOM     41  C   UNL     1      98.934  82.030  82.960  1.00  0.00    -0.033 A 
ATOM     42  C   UNL     1      98.556  82.558  81.724  1.00  0.00     0.054 A 
ATOM     43  C   UNL     1      99.691  80.860  83.016  1.00  0.00     0.008 A 
ATOM     44  C   UNL     1      98.935  81.915  80.546  1.00  0.00     0.160 A 
ATOM     45  C   UNL     1     100.070  80.217  81.837  1.00  0.00     0.050 A 
ATOM     46  C   UNL     1      99.692  80.744  80.603  1.00  0.00     0.157 A 
BRANCH  44  47
ATOM     47  O   UNL     1      98.559  82.439  79.346  1.00  0.00    -0.493 OA
ATOM     48  C   UNL     1      97.662  83.548  79.376  1.00  0.00     0.278 C 
ENDBRANCH  44  47
BRANCH  46  49
ATOM     49  O   UNL     1     100.069  80.109  79.459  1.00  0.00    -0.504 OA
ATOM     50  H   UNL     1      99.443  79.388  79.276  1.00  0.00     0.293 HD
ENDBRANCH  46  49
ENDBRANCH  40  41
ENDBRANCH  38  40
ENDBRANCH  37  38
ENDBRANCH   1  37
TORSDOF 11
ENDMDL
MODEL 10
REMARK VINA RESULT:    -5.195     33.620     35.945
REMARK INTER + INTRA:         -10.338
REMARK INTER:                  -8.356
REMARK INTRA:                  -1.982
REMARK UNBOUND:                -1.195
REMARK SMILES C=C(C)[C@]12C[C@@H](C)[C@@]34O[C@](Cc5ccccc5)(O[C@@H]1[C@@H]3C=C(COC(=O)Cc1ccc(O)c(OC)c1)C[C@]1(O)C(=O)C(C)=C[C@@H]41)O2
REMARK SMILES IDX 23 1 22 2 21 3 20 4 9 5 8 6 10 7 6 8 18 9 46 10 19 11 5 12
REMARK SMILES IDX 7 13 4 14 45 15 38 16 44 17 40 18 42 20 41 21 43 22 39 23
REMARK SMILES IDX 11 25 12 26 13 27 17 28 14 29 16 30 15 31 2 32 3 33 1 34
REMARK SMILES IDX 37 35 24 37 25 38 26 39 27 40 28 41 36 42 29 43 33 44 30 45
REMARK SMILES IDX 31 46 34 47 35 48 32 49
REMARK H PARENT 39 24 32 50
REMARK Flexibility Score: 90.00
ROOT
ATOM      1  C   UNL     1      66.694  88.171  72.990  1.00  0.00     0.264 C 
ENDROOT
BRANCH   1   2
ATOM      2  C   UNL     1      65.578  87.446  73.706  1.00  0.00    -0.033 C 
ATOM      3  C   UNL     1      64.528  86.987  72.996  1.00  0.00    -0.015 C 
BRANCH   3   4
ATOM      4  C   UNL     1      63.260  86.304  73.481  1.00  0.00     0.078 C 
ATOM      5  O   UNL     1      63.690  83.868  73.435  1.00  0.00    -0.319 OA
ATOM      6  C   UNL     1      63.397  84.985  74.330  1.00  0.00     0.095 C 
ATOM      7  C   UNL     1      62.930  83.843  72.212  1.00  0.00     0.289 C 
ATOM      8  C   UNL     1      62.008  84.730  75.048  1.00  0.00     0.023 C 
ATOM      9  O   UNL     1      63.110  85.043  71.465  1.00  0.00    -0.320 OA
ATOM     10  O   UNL     1      61.528  83.743  72.449  1.00  0.00    -0.313 OA
ATOM     11  C   UNL     1      62.354  85.958  72.274  1.00  0.00     0.170 C 
ATOM     12  C   UNL     1      60.814  85.220  74.173  1.00  0.00     0.049 C 
ATOM     13  C   UNL     1      61.753  83.282  75.496  1.00  0.00     0.011 C 
ATOM     14  C   UNL     1      61.124  85.109  72.679  1.00  0.00     0.122 C 
BRANCH   6  15
ATOM     15  C   UNL     1      64.633  85.062  75.272  1.00  0.00     0.086 C 
ATOM     16  C   UNL     1      64.857  86.408  75.992  1.00  0.00     0.140 CG0
ATOM     17  C   UNL     1      64.785  84.048  76.372  1.00  0.00    -0.010 C 
ATOM     18  C   UNL     1      65.435  85.975  77.323  1.00  0.00     0.190 C 
ATOM     19  G   UNL     1      65.799  87.328  75.217  1.00  0.00     0.000 G0
ATOM     20  C   UNL     1      65.259  84.524  77.528  1.00  0.00    -0.008 C 
ATOM     21  O   UNL     1      65.937  86.717  78.153  1.00  0.00    -0.291 OA
ATOM     22  C   UNL     1      65.609  83.816  78.776  1.00  0.00     0.048 C 
BRANCH  16  23
ATOM     23  O   UNL     1      63.657  87.076  76.346  1.00  0.00    -0.381 OA
ATOM     24  H   UNL     1      63.035  86.421  76.704  1.00  0.00     0.212 HD
ENDBRANCH  16  23
ENDBRANCH   6  15
BRANCH   7  25
ATOM     25  C   UNL     1      63.389  82.655  71.391  1.00  0.00     0.135 C 
BRANCH  25  26
ATOM     26  C   UNL     1      64.576  82.993  70.523  1.00  0.00    -0.040 A 
ATOM     27  C   UNL     1      65.869  82.867  71.031  1.00  0.00     0.004 A 
ATOM     28  C   UNL     1      64.381  83.430  69.213  1.00  0.00     0.004 A 
ATOM     29  C   UNL     1      66.967  83.179  70.229  1.00  0.00     0.000 A 
ATOM     30  C   UNL     1      65.479  83.742  68.411  1.00  0.00     0.000 A 
ATOM     31  C   UNL     1      66.772  83.617  68.920  1.00  0.00     0.000 A 
ENDBRANCH  25  26
ENDBRANCH   7  25
BRANCH  14  32
ATOM     32  C   UNL     1      59.935  85.399  71.823  1.00  0.00    -0.046 C 
ATOM     33  C   UNL     1      58.746  84.504  72.015  1.00  0.00     0.042 C 
ATOM     34  C   UNL     1      59.929  86.402  70.932  1.00  0.00     0.010 C 
ENDBRANCH  14  32
ENDBRANCH   3   4
BRANCH   2  35
ATOM     35  C   UNL     1      65.811  87.323  75.200  1.00  0.00     0.078 CG0
ATOM     36  G   UNL     1      64.871  86.405  75.981  1.00  0.00     0.000 G0
ENDBRANCH   2  35
ENDBRANCH   1   2
BRANCH   1  37
ATOM     37  O   UNL     1      67.784  87.291  72.813  1.00  0.00    -0.461 OA
BRANCH  37  38
ATOM     38  C   UNL     1      68.331  87.247  71.552  1.00  0.00     0.310 C 
ATOM     39  O   UNL     1      69.473  87.583  71.270  1.00  0.00    -0.252 OA
BRANCH  38  40
ATOM     40  C   UNL     1      67.306  86.723  70.575  1.00  0.00     0.158 C 
BRANCH  40  41
ATOM     41  C   UNL     1      67.129  87.614  69.373  1.00  0.00    -0.033 A 
ATOM     42  C   UNL     1      66.518  88.860  69.512  1.00  0.00     0.054 A 
ATOM     43  C   UNL     1      67.577  87.193  68.121  1.00  0.00     0.008 A 
ATOM     44  C   UNL     1      66.354  89.686  68.400  1.00  0.00     0.160 A 
ATOM     45  C   UNL     1      67.413  88.018  67.008  1.00  0.00     0.050 A 
ATOM     46  C   UNL     1      66.802  89.264  67.147  1.00  0.00     0.157 A 
BRANCH  44  47
ATOM     47  O   UNL     1      65.756  90.900  68.548  1.00  0.00    -0.493 OA
ATOM     48  C   UNL     1      66.017  91.608  69.759  1.00  0.00     0.278 C 
ENDBRANCH  44  47
BRANCH  46  49
ATOM     49  O   UNL     1      66.649  90.061  66.053  1.00  0.00    -0.504 OA
ATOM     50  H   UNL     1      65.937  90.701  66.225  1.00  0.00     0.293 HD
ENDBRANCH  46  49
ENDBRANCH  40  41
ENDBRANCH  38  40
ENDBRANCH  37  38
ENDBRANCH   1  37
TORSDOF 11
ENDMDL
