MODEL 1
REMARK VINA RESULT:    -6.314      0.000      0.000
REMARK INTER + INTRA:         -10.243
REMARK INTER:                  -9.820
REMARK INTRA:                  -0.423
REMARK UNBOUND:                -0.423
REMARK SMILES COc1cc(CNC(=O)CCCCCC(C)C)ccc1O
REMARK SMILES IDX 10 1 8 2 7 3 9 5 6 6 5 7 3 8 20 9 4 10 19 11 18 12 2 13 1 14
REMARK SMILES IDX 21 15 11 17 12 18 13 19 14 20 15 21 16 22 17 23
REMARK H PARENT 7 4 21 16
REMARK Flexibility Score: inf
ROOT
ATOM      1  C   UNL     1      95.699  81.374  83.632  1.00  0.00     0.100 C 
ENDROOT
BRANCH   1   2
ATOM      2  C   UNL     1      94.529  81.855  84.396  1.00  0.00     0.220 C 
ATOM      3  N   UNL     1      93.326  81.233  84.241  1.00  0.00    -0.352 N 
ATOM      4  H   UNL     1      93.293  80.553  83.495  1.00  0.00     0.163 HD
ATOM      5  O   UNL     1      94.678  82.802  85.207  1.00  0.00    -0.275 OA
BRANCH   3   6
ATOM      6  C   UNL     1      92.165  81.478  85.036  1.00  0.00     0.151 C 
BRANCH   6   7
ATOM      7  C   UNL     1      91.081  80.485  84.808  1.00  0.00    -0.025 A 
ATOM      8  C   UNL     1      88.739  79.973  84.262  1.00  0.00     0.160 A 
ATOM      9  C   UNL     1      89.031  78.594  84.310  1.00  0.00     0.157 A 
ATOM     10  C   UNL     1      89.760  80.910  84.530  1.00  0.00     0.056 A 
ATOM     11  C   UNL     1      90.336  78.160  84.612  1.00  0.00     0.050 A 
ATOM     12  C   UNL     1      91.354  79.098  84.854  1.00  0.00     0.009 A 
BRANCH   8  13
ATOM     13  O   UNL     1      87.471  80.416  83.989  1.00  0.00    -0.493 OA
ATOM     14  C   UNL     1      86.848  81.110  85.087  1.00  0.00     0.278 C 
ENDBRANCH   8  13
BRANCH   9  15
ATOM     15  O   UNL     1      88.056  77.686  84.056  1.00  0.00    -0.504 OA
ATOM     16  H   UNL     1      88.452  76.824  83.905  1.00  0.00     0.293 HD
ENDBRANCH   9  15
ENDBRANCH   6   7
ENDBRANCH   3   6
ENDBRANCH   1   2
BRANCH   1  17
ATOM     17  C   UNL     1      96.262  82.400  82.613  1.00  0.00     0.010 C 
BRANCH  17  18
ATOM     18  C   UNL     1      97.101  81.706  81.505  1.00  0.00     0.001 C 
BRANCH  18  19
ATOM     19  C   UNL     1      96.673  82.104  80.068  1.00  0.00     0.000 C 
BRANCH  19  20
ATOM     20  C   UNL     1      97.796  81.834  79.024  1.00  0.00     0.003 C 
BRANCH  20  21
ATOM     21  C   UNL     1      97.305  81.698  77.546  1.00  0.00    -0.017 C 
ATOM     22  C   UNL     1      96.057  82.593  77.291  1.00  0.00     0.007 C 
ATOM     23  C   UNL     1      96.997  80.226  77.146  1.00  0.00     0.007 C 
ENDBRANCH  20  21
ENDBRANCH  19  20
ENDBRANCH  18  19
ENDBRANCH  17  18
ENDBRANCH   1  17
TORSDOF 10
ENDMDL
MODEL 2
REMARK VINA RESULT:    -6.203     18.394     21.547
REMARK INTER + INTRA:         -10.071
REMARK INTER:                  -9.513
REMARK INTRA:                  -0.558
REMARK UNBOUND:                -0.423
REMARK SMILES COc1cc(CNC(=O)CCCCCC(C)C)ccc1O
REMARK SMILES IDX 10 1 8 2 7 3 9 5 6 6 5 7 3 8 20 9 4 10 19 11 18 12 2 13 1 14
REMARK SMILES IDX 21 15 11 17 12 18 13 19 14 20 15 21 16 22 17 23
REMARK H PARENT 7 4 21 16
REMARK Flexibility Score: inf
ROOT
ATOM      1  C   UNL     1      94.374  98.202  73.304  1.00  0.00     0.100 C 
ENDROOT
BRANCH   1   2
ATOM      2  C   UNL     1      93.493  99.311  72.883  1.00  0.00     0.220 C 
ATOM      3  N   UNL     1      93.000  99.330  71.612  1.00  0.00    -0.352 N 
ATOM      4  H   UNL     1      93.390  98.632  70.995  1.00  0.00     0.163 HD
ATOM      5  O   UNL     1      93.183 100.194  73.720  1.00  0.00    -0.275 OA
BRANCH   3   6
ATOM      6  C   UNL     1      92.010 100.238  71.129  1.00  0.00     0.151 C 
BRANCH   6   7
ATOM      7  C   UNL     1      91.135  99.645  70.082  1.00  0.00    -0.025 A 
ATOM      8  C   UNL     1      90.318  99.594  67.763  1.00  0.00     0.160 A 
ATOM      9  C   UNL     1      89.519  98.473  68.072  1.00  0.00     0.157 A 
ATOM     10  C   UNL     1      91.107 100.184  68.774  1.00  0.00     0.056 A 
ATOM     11  C   UNL     1      89.519  97.945  69.376  1.00  0.00     0.050 A 
ATOM     12  C   UNL     1      90.325  98.523  70.372  1.00  0.00     0.009 A 
BRANCH   8  13
ATOM     13  O   UNL     1      90.317 100.135  66.504  1.00  0.00    -0.493 OA
ATOM     14  C   UNL     1      89.510 101.322  66.382  1.00  0.00     0.278 C 
ENDBRANCH   8  13
BRANCH   9  15
ATOM     15  O   UNL     1      88.756  97.900  67.108  1.00  0.00    -0.504 OA
ATOM     16  H   UNL     1      88.941  98.315  66.263  1.00  0.00     0.293 HD
ENDBRANCH   9  15
ENDBRANCH   6   7
ENDBRANCH   3   6
ENDBRANCH   1   2
BRANCH   1  17
ATOM     17  C   UNL     1      93.800  97.332  74.455  1.00  0.00     0.010 C 
BRANCH  17  18
ATOM     18  C   UNL     1      94.727  96.129  74.780  1.00  0.00     0.001 C 
BRANCH  18  19
ATOM     19  C   UNL     1      94.093  95.112  75.766  1.00  0.00     0.000 C 
BRANCH  19  20
ATOM     20  C   UNL     1      92.541  95.215  75.800  1.00  0.00     0.003 C 
BRANCH  20  21
ATOM     21  C   UNL     1      91.884  94.841  77.169  1.00  0.00    -0.017 C 
ATOM     22  C   UNL     1      92.659  93.678  77.857  1.00  0.00     0.007 C 
ATOM     23  C   UNL     1      90.378  94.474  77.036  1.00  0.00     0.007 C 
ENDBRANCH  20  21
ENDBRANCH  19  20
ENDBRANCH  18  19
ENDBRANCH  17  18
ENDBRANCH   1  17
TORSDOF 10
ENDMDL
MODEL 3
REMARK VINA RESULT:    -6.158      5.162      9.495
REMARK INTER + INTRA:         -10.001
REMARK INTER:                  -9.442
REMARK INTRA:                  -0.560
REMARK UNBOUND:                -0.423
REMARK SMILES COc1cc(CNC(=O)CCCCCC(C)C)ccc1O
REMARK SMILES IDX 10 1 8 2 7 3 9 5 6 6 5 7 3 8 20 9 4 10 19 11 18 12 2 13 1 14
REMARK SMILES IDX 21 15 11 17 12 18 13 19 14 20 15 21 16 22 17 23
REMARK H PARENT 7 4 21 16
REMARK Flexibility Score: inf
ROOT
ATOM      1  C   UNL     1      96.838  80.264  82.368  1.00  0.00     0.100 C 
ENDROOT
BRANCH   1   2
ATOM      2  C   UNL     1      97.280  80.065  80.972  1.00  0.00     0.220 C 
ATOM      3  N   UNL     1      97.759  81.126  80.263  1.00  0.00    -0.352 N 
ATOM      4  H   UNL     1      97.651  82.022  80.715  1.00  0.00     0.163 HD
ATOM      5  O   UNL     1      97.245  78.910  80.481  1.00  0.00    -0.275 OA
BRANCH   3   6
ATOM      6  C   UNL     1      98.376  81.044  78.978  1.00  0.00     0.151 C 
BRANCH   6   7
ATOM      7  C   UNL     1      97.620  81.768  77.920  1.00  0.00    -0.025 A 
ATOM      8  C   UNL     1      97.419  82.545  75.596  1.00  0.00     0.160 A 
ATOM      9  C   UNL     1      96.151  83.089  75.889  1.00  0.00     0.157 A 
ATOM     10  C   UNL     1      98.154  81.905  76.617  1.00  0.00     0.056 A 
ATOM     11  C   UNL     1      95.622  82.982  77.189  1.00  0.00     0.050 A 
ATOM     12  C   UNL     1      96.348  82.322  78.195  1.00  0.00     0.009 A 
BRANCH   8  13
ATOM     13  O   UNL     1      97.961  82.656  74.342  1.00  0.00    -0.493 OA
ATOM     14  C   UNL     1      97.580  81.592  73.448  1.00  0.00     0.278 C 
ENDBRANCH   8  13
BRANCH   9  15
ATOM     15  O   UNL     1      95.438  83.708  74.916  1.00  0.00    -0.504 OA
ATOM     16  H   UNL     1      94.572  83.946  75.255  1.00  0.00     0.293 HD
ENDBRANCH   9  15
ENDBRANCH   6   7
ENDBRANCH   3   6
ENDBRANCH   1   2
BRANCH   1  17
ATOM     17  C   UNL     1      97.244  81.633  82.977  1.00  0.00     0.010 C 
BRANCH  17  18
ATOM     18  C   UNL     1      96.042  82.616  83.030  1.00  0.00     0.001 C 
BRANCH  18  19
ATOM     19  C   UNL     1      95.063  82.329  84.199  1.00  0.00     0.000 C 
BRANCH  19  20
ATOM     20  C   UNL     1      95.438  83.116  85.487  1.00  0.00     0.003 C 
BRANCH  20  21
ATOM     21  C   UNL     1      94.573  84.390  85.758  1.00  0.00    -0.017 C 
ATOM     22  C   UNL     1      95.301  85.358  86.736  1.00  0.00     0.007 C 
ATOM     23  C   UNL     1      93.153  84.051  86.300  1.00  0.00     0.007 C 
ENDBRANCH  20  21
ENDBRANCH  19  20
ENDBRANCH  18  19
ENDBRANCH  17  18
ENDBRANCH   1  17
TORSDOF 10
ENDMDL
MODEL 4
REMARK VINA RESULT:    -6.048     13.247     15.757
REMARK INTER + INTRA:          -9.830
REMARK INTER:                  -9.285
REMARK INTRA:                  -0.545
REMARK UNBOUND:                -0.423
REMARK SMILES COc1cc(CNC(=O)CCCCCC(C)C)ccc1O
REMARK SMILES IDX 10 1 8 2 7 3 9 5 6 6 5 7 3 8 20 9 4 10 19 11 18 12 2 13 1 14
REMARK SMILES IDX 21 15 11 17 12 18 13 19 14 20 15 21 16 22 17 23
REMARK H PARENT 7 4 21 16
REMARK Flexibility Score: inf
ROOT
ATOM      1  C   UNL     1      93.793  94.790  77.985  1.00  0.00     0.100 C 
ENDROOT
BRANCH   1   2
ATOM      2  C   UNL     1      94.921  94.058  78.597  1.00  0.00     0.220 C 
ATOM      3  N   UNL     1      95.144  94.170  79.937  1.00  0.00    -0.352 N 
ATOM      4  H   UNL     1      94.583  94.868  80.404  1.00  0.00     0.163 HD
ATOM      5  O   UNL     1      95.627  93.313  77.874  1.00  0.00    -0.275 OA
BRANCH   3   6
ATOM      6  C   UNL     1      96.081  93.392  80.682  1.00  0.00     0.151 C 
BRANCH   6   7
ATOM      7  C   UNL     1      97.152  94.211  81.311  1.00  0.00    -0.025 A 
ATOM      8  C   UNL     1      98.024  96.397  82.023  1.00  0.00     0.160 A 
ATOM      9  C   UNL     1      99.161  95.764  82.568  1.00  0.00     0.157 A 
ATOM     10  C   UNL     1      97.036  95.619  81.381  1.00  0.00     0.056 A 
ATOM     11  C   UNL     1      99.299  94.367  82.480  1.00  0.00     0.050 A 
ATOM     12  C   UNL     1      98.300  93.595  81.861  1.00  0.00     0.009 A 
BRANCH   8  13
ATOM     13  O   UNL     1      97.879  97.759  82.080  1.00  0.00    -0.493 OA
ATOM     14  C   UNL     1      96.598  98.188  82.580  1.00  0.00     0.278 C 
ENDBRANCH   8  13
BRANCH   9  15
ATOM     15  O   UNL     1     100.117  96.503  83.185  1.00  0.00    -0.504 OA
ATOM     16  H   UNL     1     100.626  96.981  82.526  1.00  0.00     0.293 HD
ENDBRANCH   9  15
ENDBRANCH   6   7
ENDBRANCH   3   6
ENDBRANCH   1   2
BRANCH   1  17
ATOM     17  C   UNL     1      92.897  93.924  77.059  1.00  0.00     0.010 C 
BRANCH  17  18
ATOM     18  C   UNL     1      91.735  93.257  77.846  1.00  0.00     0.001 C 
BRANCH  18  19
ATOM     19  C   UNL     1      90.594  92.734  76.934  1.00  0.00     0.000 C 
BRANCH  19  20
ATOM     20  C   UNL     1      91.135  91.927  75.718  1.00  0.00     0.003 C 
BRANCH  20  21
ATOM     21  C   UNL     1      90.147  90.862  75.140  1.00  0.00    -0.017 C 
ATOM     22  C   UNL     1      90.915  89.597  74.655  1.00  0.00     0.007 C 
ATOM     23  C   UNL     1      89.261  91.422  73.990  1.00  0.00     0.007 C 
ENDBRANCH  20  21
ENDBRANCH  19  20
ENDBRANCH  18  19
ENDBRANCH  17  18
ENDBRANCH   1  17
TORSDOF 10
ENDMDL
MODEL 5
REMARK VINA RESULT:    -5.927     21.471     24.627
REMARK INTER + INTRA:          -9.641
REMARK INTER:                  -9.082
REMARK INTRA:                  -0.559
REMARK UNBOUND:                -0.423
REMARK SMILES COc1cc(CNC(=O)CCCCCC(C)C)ccc1O
REMARK SMILES IDX 10 1 8 2 7 3 9 5 6 6 5 7 3 8 20 9 4 10 19 11 18 12 2 13 1 14
REMARK SMILES IDX 21 15 11 17 12 18 13 19 14 20 15 21 16 22 17 23
REMARK H PARENT 7 4 21 16
REMARK Flexibility Score: inf
ROOT
ATOM      1  C   UNL     1      91.604  98.999  69.751  1.00  0.00     0.100 C 
ENDROOT
BRANCH   1   2
ATOM      2  C   UNL     1      90.315  98.916  69.033  1.00  0.00     0.220 C 
ATOM      3  N   UNL     1      90.295  99.040  67.676  1.00  0.00    -0.352 N 
ATOM      4  H   UNL     1      91.173  99.318  67.262  1.00  0.00     0.163 HD
ATOM      5  O   UNL     1      89.267  98.689  69.686  1.00  0.00    -0.275 OA
BRANCH   3   6
ATOM      6  C   UNL     1      89.156  98.810  66.846  1.00  0.00     0.151 C 
BRANCH   6   7
ATOM      7  C   UNL     1      88.345 100.035  66.614  1.00  0.00    -0.025 A 
ATOM      8  C   UNL     1      88.201 102.470  66.299  1.00  0.00     0.160 A 
ATOM      9  C   UNL     1      86.808 102.360  66.106  1.00  0.00     0.157 A 
ATOM     10  C   UNL     1      88.958 101.310  66.570  1.00  0.00     0.056 A 
ATOM     11  C   UNL     1      86.184 101.101  66.174  1.00  0.00     0.050 A 
ATOM     12  C   UNL     1      86.946  99.947  66.421  1.00  0.00     0.009 A 
BRANCH   8  13
ATOM     13  O   UNL     1      88.825 103.689  66.257  1.00  0.00    -0.493 OA
ATOM     14  C   UNL     1      90.263 103.607  66.256  1.00  0.00     0.278 C 
ENDBRANCH   8  13
BRANCH   9  15
ATOM     15  O   UNL     1      86.071 103.469  65.847  1.00  0.00    -0.504 OA
ATOM     16  H   UNL     1      86.386 103.882  65.040  1.00  0.00     0.293 HD
ENDBRANCH   9  15
ENDBRANCH   6   7
ENDBRANCH   3   6
ENDBRANCH   1   2
BRANCH   1  17
ATOM     17  C   UNL     1      91.480  99.425  71.238  1.00  0.00     0.010 C 
BRANCH  17  18
ATOM     18  C   UNL     1      92.847  99.878  71.821  1.00  0.00     0.001 C 
BRANCH  18  19
ATOM     19  C   UNL     1      93.239  99.132  73.124  1.00  0.00     0.000 C 
BRANCH  19  20
ATOM     20  C   UNL     1      94.640  98.462  73.019  1.00  0.00     0.003 C 
BRANCH  20  21
ATOM     21  C   UNL     1      94.731  97.025  73.630  1.00  0.00    -0.017 C 
ATOM     22  C   UNL     1      93.641  96.816  74.722  1.00  0.00     0.007 C 
ATOM     23  C   UNL     1      96.139  96.704  74.211  1.00  0.00     0.007 C 
ENDBRANCH  20  21
ENDBRANCH  19  20
ENDBRANCH  18  19
ENDBRANCH  17  18
ENDBRANCH   1  17
TORSDOF 10
ENDMDL
MODEL 6
REMARK VINA RESULT:    -5.826     14.047     16.993
REMARK INTER + INTRA:          -9.483
REMARK INTER:                  -8.576
REMARK INTRA:                  -0.907
REMARK UNBOUND:                -0.423
REMARK SMILES COc1cc(CNC(=O)CCCCCC(C)C)ccc1O
REMARK SMILES IDX 10 1 8 2 7 3 9 5 6 6 5 7 3 8 20 9 4 10 19 11 18 12 2 13 1 14
REMARK SMILES IDX 21 15 11 17 12 18 13 19 14 20 15 21 16 22 17 23
REMARK H PARENT 7 4 21 16
REMARK Flexibility Score: inf
ROOT
ATOM      1  C   UNL     1      94.878  92.795  79.417  1.00  0.00     0.100 C 
ENDROOT
BRANCH   1   2
ATOM      2  C   UNL     1      95.827  93.313  80.424  1.00  0.00     0.220 C 
ATOM      3  N   UNL     1      96.880  94.079  80.020  1.00  0.00    -0.352 N 
ATOM      4  H   UNL     1      97.009  94.129  79.019  1.00  0.00     0.163 HD
ATOM      5  O   UNL     1      95.620  93.071  81.638  1.00  0.00    -0.275 OA
BRANCH   3   6
ATOM      6  C   UNL     1      97.766  94.783  80.890  1.00  0.00     0.151 C 
BRANCH   6   7
ATOM      7  C   UNL     1      97.506  96.247  80.931  1.00  0.00    -0.025 A 
ATOM      8  C   UNL     1      96.880  98.268  82.184  1.00  0.00     0.160 A 
ATOM      9  C   UNL     1      97.075  99.046  81.024  1.00  0.00     0.157 A 
ATOM     10  C   UNL     1      97.078  96.872  82.126  1.00  0.00     0.056 A 
ATOM     11  C   UNL     1      97.474  98.431  79.822  1.00  0.00     0.050 A 
ATOM     12  C   UNL     1      97.694  97.044  79.777  1.00  0.00     0.009 A 
BRANCH   8  13
ATOM     13  O   UNL     1      96.472  98.844  83.359  1.00  0.00    -0.493 OA
ATOM     14  C   UNL     1      97.543  99.083  84.292  1.00  0.00     0.278 C 
ENDBRANCH   8  13
BRANCH   9  15
ATOM     15  O   UNL     1      96.885 100.388  81.068  1.00  0.00    -0.504 OA
ATOM     16  H   UNL     1      96.033 100.578  81.467  1.00  0.00     0.293 HD
ENDBRANCH   9  15
ENDBRANCH   6   7
ENDBRANCH   3   6
ENDBRANCH   1   2
BRANCH   1  17
ATOM     17  C   UNL     1      94.055  93.892  78.691  1.00  0.00     0.010 C 
BRANCH  17  18
ATOM     18  C   UNL     1      92.650  93.374  78.276  1.00  0.00     0.001 C 
BRANCH  18  19
ATOM     19  C   UNL     1      91.884  94.351  77.345  1.00  0.00     0.000 C 
BRANCH  19  20
ATOM     20  C   UNL     1      92.769  95.547  76.889  1.00  0.00     0.003 C 
BRANCH  20  21
ATOM     21  C   UNL     1      93.162  95.539  75.376  1.00  0.00    -0.017 C 
ATOM     22  C   UNL     1      94.240  94.453  75.087  1.00  0.00     0.007 C 
ATOM     23  C   UNL     1      93.653  96.927  74.872  1.00  0.00     0.007 C 
ENDBRANCH  20  21
ENDBRANCH  19  20
ENDBRANCH  18  19
ENDBRANCH  17  18
ENDBRANCH   1  17
TORSDOF 10
ENDMDL
MODEL 7
REMARK VINA RESULT:    -5.768      1.073      2.205
REMARK INTER + INTRA:          -9.394
REMARK INTER:                  -8.967
REMARK INTRA:                  -0.426
REMARK UNBOUND:                -0.423
REMARK SMILES COc1cc(CNC(=O)CCCCCC(C)C)ccc1O
REMARK SMILES IDX 10 1 8 2 7 3 9 5 6 6 5 7 3 8 20 9 4 10 19 11 18 12 2 13 1 14
REMARK SMILES IDX 21 15 11 17 12 18 13 19 14 20 15 21 16 22 17 23
REMARK H PARENT 7 4 21 16
REMARK Flexibility Score: inf
ROOT
ATOM      1  C   UNL     1      96.055  81.110  83.122  1.00  0.00     0.100 C 
ENDROOT
BRANCH   1   2
ATOM      2  C   UNL     1      95.173  81.730  84.134  1.00  0.00     0.220 C 
ATOM      3  N   UNL     1      93.847  81.418  84.146  1.00  0.00    -0.352 N 
ATOM      4  H   UNL     1      93.531  80.871  83.357  1.00  0.00     0.163 HD
ATOM      5  O   UNL     1      95.674  82.500  84.989  1.00  0.00    -0.275 OA
BRANCH   3   6
ATOM      6  C   UNL     1      92.921  81.804  85.162  1.00  0.00     0.151 C 
BRANCH   6   7
ATOM      7  C   UNL     1      91.609  81.112  85.051  1.00  0.00    -0.025 A 
ATOM      8  C   UNL     1      90.261  79.060  85.197  1.00  0.00     0.160 A 
ATOM      9  C   UNL     1      89.099  79.805  84.904  1.00  0.00     0.157 A 
ATOM     10  C   UNL     1      91.510  79.714  85.250  1.00  0.00     0.056 A 
ATOM     11  C   UNL     1      89.189  81.191  84.678  1.00  0.00     0.050 A 
ATOM     12  C   UNL     1      90.433  81.840  84.756  1.00  0.00     0.009 A 
BRANCH   8  13
ATOM     13  O   UNL     1      90.197  77.706  85.400  1.00  0.00    -0.493 OA
ATOM     14  C   UNL     1      90.644  76.927  84.274  1.00  0.00     0.278 C 
ENDBRANCH   8  13
BRANCH   9  15
ATOM     15  O   UNL     1      87.893  79.186  84.849  1.00  0.00    -0.504 OA
ATOM     16  H   UNL     1      87.528  79.274  83.965  1.00  0.00     0.293 HD
ENDBRANCH   9  15
ENDBRANCH   6   7
ENDBRANCH   3   6
ENDBRANCH   1   2
BRANCH   1  17
ATOM     17  C   UNL     1      96.673  82.115  82.113  1.00  0.00     0.010 C 
BRANCH  17  18
ATOM     18  C   UNL     1      97.351  81.385  80.921  1.00  0.00     0.001 C 
BRANCH  18  19
ATOM     19  C   UNL     1      97.079  82.059  79.550  1.00  0.00     0.000 C 
BRANCH  19  20
ATOM     20  C   UNL     1      97.439  81.129  78.356  1.00  0.00     0.003 C 
BRANCH  20  21
ATOM     21  C   UNL     1      96.921  81.614  76.962  1.00  0.00    -0.017 C 
ATOM     22  C   UNL     1      98.094  82.149  76.089  1.00  0.00     0.007 C 
ATOM     23  C   UNL     1      95.805  82.693  77.075  1.00  0.00     0.007 C 
ENDBRANCH  20  21
ENDBRANCH  19  20
ENDBRANCH  18  19
ENDBRANCH  17  18
ENDBRANCH   1  17
TORSDOF 10
ENDMDL
MODEL 8
REMARK VINA RESULT:    -5.737      6.789     12.549
REMARK INTER + INTRA:          -9.345
REMARK INTER:                  -8.818
REMARK INTRA:                  -0.527
REMARK UNBOUND:                -0.423
REMARK SMILES COc1cc(CNC(=O)CCCCCC(C)C)ccc1O
REMARK SMILES IDX 10 1 8 2 7 3 9 5 6 6 5 7 3 8 20 9 4 10 19 11 18 12 2 13 1 14
REMARK SMILES IDX 21 15 11 17 12 18 13 19 14 20 15 21 16 22 17 23
REMARK H PARENT 7 4 21 16
REMARK Flexibility Score: inf
ROOT
ATOM      1  C   UNL     1      96.300  81.842  76.968  1.00  0.00     0.100 C 
ENDROOT
BRANCH   1   2
ATOM      2  C   UNL     1      96.431  82.887  75.932  1.00  0.00     0.220 C 
ATOM      3  N   UNL     1      97.494  82.855  75.080  1.00  0.00    -0.352 N 
ATOM      4  H   UNL     1      98.202  82.173  75.309  1.00  0.00     0.163 HD
ATOM      5  O   UNL     1      95.536  83.762  75.833  1.00  0.00    -0.275 OA
BRANCH   3   6
ATOM      6  C   UNL     1      97.654  83.692  73.934  1.00  0.00     0.151 C 
BRANCH   6   7
ATOM      7  C   UNL     1      98.899  83.407  73.171  1.00  0.00    -0.025 A 
ATOM      8  C   UNL     1     100.405  81.807  72.066  1.00  0.00     0.160 A 
ATOM      9  C   UNL     1     101.237  82.872  71.663  1.00  0.00     0.157 A 
ATOM     10  C   UNL     1      99.252  82.079  72.834  1.00  0.00     0.056 A 
ATOM     11  C   UNL     1     100.910  84.194  72.016  1.00  0.00     0.050 A 
ATOM     12  C   UNL     1      99.748  84.461  72.759  1.00  0.00     0.009 A 
BRANCH   8  13
ATOM     13  O   UNL     1     100.715  80.510  71.750  1.00  0.00    -0.493 OA
ATOM     14  C   UNL     1     101.209  79.742  72.863  1.00  0.00     0.278 C 
ENDBRANCH   8  13
BRANCH   9  15
ATOM     15  O   UNL     1     102.349  82.621  70.926  1.00  0.00    -0.504 OA
ATOM     16  H   UNL     1     102.094  82.386  70.032  1.00  0.00     0.293 HD
ENDBRANCH   9  15
ENDBRANCH   6   7
ENDBRANCH   3   6
ENDBRANCH   1   2
BRANCH   1  17
ATOM     17  C   UNL     1      96.625  82.324  78.407  1.00  0.00     0.010 C 
BRANCH  17  18
ATOM     18  C   UNL     1      97.848  81.572  79.001  1.00  0.00     0.001 C 
BRANCH  18  19
ATOM     19  C   UNL     1      97.648  81.139  80.477  1.00  0.00     0.000 C 
BRANCH  19  20
ATOM     20  C   UNL     1      96.612  82.033  81.218  1.00  0.00     0.003 C 
BRANCH  20  21
ATOM     21  C   UNL     1      96.571  81.849  82.770  1.00  0.00    -0.017 C 
ATOM     22  C   UNL     1      95.785  80.562  83.156  1.00  0.00     0.007 C 
ATOM     23  C   UNL     1      95.973  83.082  83.509  1.00  0.00     0.007 C 
ENDBRANCH  20  21
ENDBRANCH  19  20
ENDBRANCH  18  19
ENDBRANCH  17  18
ENDBRANCH   1  17
TORSDOF 10
ENDMDL
MODEL 9
REMARK VINA RESULT:    -5.719     13.837     17.548
REMARK INTER + INTRA:          -9.317
REMARK INTER:                  -8.409
REMARK INTRA:                  -0.908
REMARK UNBOUND:                -0.423
REMARK SMILES COc1cc(CNC(=O)CCCCCC(C)C)ccc1O
REMARK SMILES IDX 10 1 8 2 7 3 9 5 6 6 5 7 3 8 20 9 4 10 19 11 18 12 2 13 1 14
REMARK SMILES IDX 21 15 11 17 12 18 13 19 14 20 15 21 16 22 17 23
REMARK H PARENT 7 4 21 16
REMARK Flexibility Score: inf
ROOT
ATOM      1  C   UNL     1      95.061  92.943  79.788  1.00  0.00     0.100 C 
ENDROOT
BRANCH   1   2
ATOM      2  C   UNL     1      95.882  94.153  80.005  1.00  0.00     0.220 C 
ATOM      3  N   UNL     1      96.939  94.401  79.181  1.00  0.00    -0.352 N 
ATOM      4  H   UNL     1      97.169  93.650  78.547  1.00  0.00     0.163 HD
ATOM      5  O   UNL     1      95.560  94.951  80.919  1.00  0.00    -0.275 OA
BRANCH   3   6
ATOM      6  C   UNL     1      97.704  95.606  79.167  1.00  0.00     0.151 C 
BRANCH   6   7
ATOM      7  C   UNL     1      97.757  96.249  77.826  1.00  0.00    -0.025 A 
ATOM      8  C   UNL     1      99.051  97.260  75.996  1.00  0.00     0.160 A 
ATOM      9  C   UNL     1      97.866  97.410  75.244  1.00  0.00     0.157 A 
ATOM     10  C   UNL     1      98.987  96.698  77.288  1.00  0.00     0.056 A 
ATOM     11  C   UNL     1      96.635  96.991  75.779  1.00  0.00     0.050 A 
ATOM     12  C   UNL     1      96.580  96.410  77.057  1.00  0.00     0.009 A 
BRANCH   8  13
ATOM     13  O   UNL     1     100.258  97.680  75.501  1.00  0.00    -0.493 OA
ATOM     14  C   UNL     1     101.188  96.609  75.249  1.00  0.00     0.278 C 
ENDBRANCH   8  13
BRANCH   9  15
ATOM     15  O   UNL     1      97.917  97.951  74.001  1.00  0.00    -0.504 OA
ATOM     16  H   UNL     1      98.004  98.905  74.070  1.00  0.00     0.293 HD
ENDBRANCH   9  15
ENDBRANCH   6   7
ENDBRANCH   3   6
ENDBRANCH   1   2
BRANCH   1  17
ATOM     17  C   UNL     1      93.842  93.158  78.852  1.00  0.00     0.010 C 
BRANCH  17  18
ATOM     18  C   UNL     1      93.801  94.605  78.287  1.00  0.00     0.001 C 
BRANCH  18  19
ATOM     19  C   UNL     1      93.202  94.693  76.859  1.00  0.00     0.000 C 
BRANCH  19  20
ATOM     20  C   UNL     1      92.428  93.401  76.465  1.00  0.00     0.003 C 
BRANCH  20  21
ATOM     21  C   UNL     1      90.871  93.507  76.568  1.00  0.00    -0.017 C 
ATOM     22  C   UNL     1      90.428  94.986  76.773  1.00  0.00     0.007 C 
ATOM     23  C   UNL     1      90.277  92.610  77.692  1.00  0.00     0.007 C 
ENDBRANCH  20  21
ENDBRANCH  19  20
ENDBRANCH  18  19
ENDBRANCH  17  18
ENDBRANCH   1  17
TORSDOF 10
ENDMDL
MODEL 10
REMARK VINA RESULT:    -5.612      4.039      6.594
REMARK INTER + INTRA:          -9.151
REMARK INTER:                  -8.442
REMARK INTRA:                  -0.709
REMARK UNBOUND:                -0.423
REMARK SMILES COc1cc(CNC(=O)CCCCCC(C)C)ccc1O
REMARK SMILES IDX 10 1 8 2 7 3 9 5 6 6 5 7 3 8 20 9 4 10 19 11 18 12 2 13 1 14
REMARK SMILES IDX 21 15 11 17 12 18 13 19 14 20 15 21 16 22 17 23
REMARK H PARENT 7 4 21 16
REMARK Flexibility Score: inf
ROOT
ATOM      1  C   UNL     1      97.289  82.118  77.510  1.00  0.00     0.100 C 
ENDROOT
BRANCH   1   2
ATOM      2  C   UNL     1      97.873  81.696  78.800  1.00  0.00     0.220 C 
ATOM      3  N   UNL     1      97.222  81.996  79.960  1.00  0.00    -0.352 N 
ATOM      4  H   UNL     1      96.432  82.616  79.855  1.00  0.00     0.163 HD
ATOM      5  O   UNL     1      98.938  81.031  78.799  1.00  0.00    -0.275 OA
BRANCH   3   6
ATOM      6  C   UNL     1      97.578  81.506  81.253  1.00  0.00     0.151 C 
BRANCH   6   7
ATOM      7  C   UNL     1      96.673  81.988  82.330  1.00  0.00    -0.025 A 
ATOM      8  C   UNL     1      94.992  81.531  84.067  1.00  0.00     0.160 A 
ATOM      9  C   UNL     1      94.998  82.895  84.427  1.00  0.00     0.157 A 
ATOM     10  C   UNL     1      95.815  81.089  83.009  1.00  0.00     0.056 A 
ATOM     11  C   UNL     1      95.827  83.802  83.742  1.00  0.00     0.050 A 
ATOM     12  C   UNL     1      96.662  83.351  82.705  1.00  0.00     0.009 A 
BRANCH   8  13
ATOM     13  O   UNL     1      94.178  80.635  84.708  1.00  0.00    -0.493 OA
ATOM     14  C   UNL     1      94.592  79.263  84.560  1.00  0.00     0.278 C 
ENDBRANCH   8  13
BRANCH   9  15
ATOM     15  O   UNL     1      94.209  83.330  85.442  1.00  0.00    -0.504 OA
ATOM     16  H   UNL     1      94.586  83.057  86.281  1.00  0.00     0.293 HD
ENDBRANCH   9  15
ENDBRANCH   6   7
ENDBRANCH   3   6
ENDBRANCH   1   2
BRANCH   1  17
ATOM     17  C   UNL     1      96.801  80.946  76.617  1.00  0.00     0.010 C 
BRANCH  17  18
ATOM     18  C   UNL     1      97.186  81.162  75.127  1.00  0.00     0.001 C 
BRANCH  18  19
ATOM     19  C   UNL     1      96.744  82.541  74.571  1.00  0.00     0.000 C 
BRANCH  19  20
ATOM     20  C   UNL     1      97.916  83.303  73.886  1.00  0.00     0.003 C 
BRANCH  20  21
ATOM     21  C   UNL     1      99.204  82.451  73.642  1.00  0.00    -0.017 C 
ATOM     22  C   UNL     1     100.407  83.020  74.450  1.00  0.00     0.007 C 
ATOM     23  C   UNL     1      99.577  82.339  72.135  1.00  0.00     0.007 C 
ENDBRANCH  20  21
ENDBRANCH  19  20
ENDBRANCH  18  19
ENDBRANCH  17  18
ENDBRANCH   1  17
TORSDOF 10
ENDMDL
