MODEL 1
REMARK VINA RESULT:    -6.277      0.000      0.000
REMARK INTER + INTRA:         -10.920
REMARK INTER:                  -9.763
REMARK INTRA:                  -1.158
REMARK UNBOUND:                -1.158
REMARK SMILES COc1cc(CNC(=O)CCCCCC(C)C)ccc1O
REMARK SMILES IDX 10 1 8 2 7 3 9 5 6 6 5 7 3 8 20 9 4 10 19 11 18 12 2 13 1 14
REMARK SMILES IDX 21 15 11 17 12 18 13 19 14 20 15 21 16 22 17 23
REMARK H PARENT 7 4 21 16
REMARK Flexibility Score: inf
ROOT
ATOM      1  C   UNL     1      93.665  97.829  76.257  1.00  0.00     0.100 C 
ENDROOT
BRANCH   1   2
ATOM      2  C   UNL     1      95.002  97.514  76.800  1.00  0.00     0.220 C 
ATOM      3  N   UNL     1      95.238  97.675  78.133  1.00  0.00    -0.352 N 
ATOM      4  H   UNL     1      94.498  98.135  78.643  1.00  0.00     0.163 HD
ATOM      5  O   UNL     1      95.883  97.064  76.028  1.00  0.00    -0.275 OA
BRANCH   3   6
ATOM      6  C   UNL     1      96.418  97.250  78.816  1.00  0.00     0.151 C 
BRANCH   6   7
ATOM      7  C   UNL     1      96.137  96.323  79.946  1.00  0.00    -0.025 A 
ATOM      8  C   UNL     1      95.744  95.941  82.343  1.00  0.00     0.160 A 
ATOM      9  C   UNL     1      95.536  94.569  82.088  1.00  0.00     0.157 A 
ATOM     10  C   UNL     1      96.061  96.806  81.274  1.00  0.00     0.056 A 
ATOM     11  C   UNL     1      95.635  94.074  80.775  1.00  0.00     0.050 A 
ATOM     12  C   UNL     1      95.928  94.944  79.711  1.00  0.00     0.009 A 
BRANCH   8  13
ATOM     13  O   UNL     1      95.672  96.440  83.617  1.00  0.00    -0.493 OA
ATOM     14  C   UNL     1      96.187  97.779  83.748  1.00  0.00     0.278 C 
ENDBRANCH   8  13
BRANCH   9  15
ATOM     15  O   UNL     1      95.233  93.729  83.109  1.00  0.00    -0.504 OA
ATOM     16  H   UNL     1      95.096  94.237  83.912  1.00  0.00     0.293 HD
ENDBRANCH   9  15
ENDBRANCH   6   7
ENDBRANCH   3   6
ENDBRANCH   1   2
BRANCH   1  17
ATOM     17  C   UNL     1      92.767  96.587  76.012  1.00  0.00     0.010 C 
BRANCH  17  18
ATOM     18  C   UNL     1      91.840  96.301  77.226  1.00  0.00     0.001 C 
BRANCH  18  19
ATOM     19  C   UNL     1      92.519  95.451  78.332  1.00  0.00     0.000 C 
BRANCH  19  20
ATOM     20  C   UNL     1      91.667  94.209  78.726  1.00  0.00     0.003 C 
BRANCH  20  21
ATOM     21  C   UNL     1      90.620  93.761  77.656  1.00  0.00    -0.017 C 
ATOM     22  C   UNL     1      89.292  93.310  78.333  1.00  0.00     0.007 C 
ATOM     23  C   UNL     1      91.153  92.635  76.723  1.00  0.00     0.007 C 
ENDBRANCH  20  21
ENDBRANCH  19  20
ENDBRANCH  18  19
ENDBRANCH  17  18
ENDBRANCH   1  17
TORSDOF 10
ENDMDL
MODEL 2
REMARK VINA RESULT:    -5.897      4.732      6.672
REMARK INTER + INTRA:         -10.329
REMARK INTER:                  -9.826
REMARK INTRA:                  -0.503
REMARK UNBOUND:                -1.158
REMARK SMILES COc1cc(CNC(=O)CCCCCC(C)C)ccc1O
REMARK SMILES IDX 10 1 8 2 7 3 9 5 6 6 5 7 3 8 20 9 4 10 19 11 18 12 2 13 1 14
REMARK SMILES IDX 21 15 11 17 12 18 13 19 14 20 15 21 16 22 17 23
REMARK H PARENT 7 4 21 16
REMARK Flexibility Score: inf
ROOT
ATOM      1  C   UNL     1      92.526 100.155  73.840  1.00  0.00     0.100 C 
ENDROOT
BRANCH   1   2
ATOM      2  C   UNL     1      93.605  99.270  74.325  1.00  0.00     0.220 C 
ATOM      3  N   UNL     1      93.303  98.255  75.184  1.00  0.00    -0.352 N 
ATOM      4  H   UNL     1      92.357  98.265  75.537  1.00  0.00     0.163 HD
ATOM      5  O   UNL     1      94.773  99.445  73.901  1.00  0.00    -0.275 OA
BRANCH   3   6
ATOM      6  C   UNL     1      94.207  97.228  75.592  1.00  0.00     0.151 C 
BRANCH   6   7
ATOM      7  C   UNL     1      93.617  96.293  76.588  1.00  0.00    -0.025 A 
ATOM      8  C   UNL     1      91.649  95.316  77.691  1.00  0.00     0.160 A 
ATOM      9  C   UNL     1      92.491  94.466  78.438  1.00  0.00     0.157 A 
ATOM     10  C   UNL     1      92.217  96.237  76.786  1.00  0.00     0.056 A 
ATOM     11  C   UNL     1      93.887  94.532  78.269  1.00  0.00     0.050 A 
ATOM     12  C   UNL     1      94.445  95.434  77.348  1.00  0.00     0.009 A 
BRANCH   8  13
ATOM     13  O   UNL     1      90.289  95.281  77.855  1.00  0.00    -0.493 OA
ATOM     14  C   UNL     1      89.599  94.531  76.837  1.00  0.00     0.278 C 
ENDBRANCH   8  13
BRANCH   9  15
ATOM     15  O   UNL     1      91.955  93.578  79.312  1.00  0.00    -0.504 OA
ATOM     16  H   UNL     1      92.543  93.474  80.064  1.00  0.00     0.293 HD
ENDBRANCH   9  15
ENDBRANCH   6   7
ENDBRANCH   3   6
ENDBRANCH   1   2
BRANCH   1  17
ATOM     17  C   UNL     1      92.394 100.214  72.294  1.00  0.00     0.010 C 
BRANCH  17  18
ATOM     18  C   UNL     1      90.906 100.227  71.847  1.00  0.00     0.001 C 
BRANCH  18  19
ATOM     19  C   UNL     1      90.520  99.016  70.956  1.00  0.00     0.000 C 
BRANCH  19  20
ATOM     20  C   UNL     1      89.163  99.232  70.225  1.00  0.00     0.003 C 
BRANCH  20  21
ATOM     21  C   UNL     1      88.683  98.026  69.354  1.00  0.00    -0.017 C 
ATOM     22  C   UNL     1      89.703  96.852  69.421  1.00  0.00     0.007 C 
ATOM     23  C   UNL     1      88.417  98.419  67.872  1.00  0.00     0.007 C 
ENDBRANCH  20  21
ENDBRANCH  19  20
ENDBRANCH  18  19
ENDBRANCH  17  18
ENDBRANCH   1  17
TORSDOF 10
ENDMDL
MODEL 3
REMARK VINA RESULT:    -5.850      6.170     10.186
REMARK INTER + INTRA:         -10.257
REMARK INTER:                  -9.676
REMARK INTRA:                  -0.581
REMARK UNBOUND:                -1.158
REMARK SMILES COc1cc(CNC(=O)CCCCCC(C)C)ccc1O
REMARK SMILES IDX 10 1 8 2 7 3 9 5 6 6 5 7 3 8 20 9 4 10 19 11 18 12 2 13 1 14
REMARK SMILES IDX 21 15 11 17 12 18 13 19 14 20 15 21 16 22 17 23
REMARK H PARENT 7 4 21 16
REMARK Flexibility Score: inf
ROOT
ATOM      1  C   UNL     1      92.982  99.166  75.023  1.00  0.00     0.100 C 
ENDROOT
BRANCH   1   2
ATOM      2  C   UNL     1      92.906  99.673  73.637  1.00  0.00     0.220 C 
ATOM      3  N   UNL     1      91.702  99.703  72.999  1.00  0.00    -0.352 N 
ATOM      4  H   UNL     1      90.950  99.242  73.491  1.00  0.00     0.163 HD
ATOM      5  O   UNL     1      93.950 100.107  73.089  1.00  0.00    -0.275 OA
BRANCH   3   6
ATOM      6  C   UNL     1      91.456 100.322  71.736  1.00  0.00     0.151 C 
BRANCH   6   7
ATOM      7  C   UNL     1      90.474  99.578  70.903  1.00  0.00    -0.025 A 
ATOM      8  C   UNL     1      88.863  99.522  69.045  1.00  0.00     0.160 A 
ATOM      9  C   UNL     1      88.653  98.145  69.272  1.00  0.00     0.157 A 
ATOM     10  C   UNL     1      89.757 100.233  69.873  1.00  0.00     0.056 A 
ATOM     11  C   UNL     1      89.340  97.489  70.310  1.00  0.00     0.050 A 
ATOM     12  C   UNL     1      90.247  98.198  71.116  1.00  0.00     0.009 A 
BRANCH   8  13
ATOM     13  O   UNL     1      88.189 100.183  68.052  1.00  0.00    -0.493 OA
ATOM     14  C   UNL     1      88.727 101.486  67.752  1.00  0.00     0.278 C 
ENDBRANCH   8  13
BRANCH   9  15
ATOM     15  O   UNL     1      87.794  97.452  68.484  1.00  0.00    -0.504 OA
ATOM     16  H   UNL     1      87.016  97.987  68.310  1.00  0.00     0.293 HD
ENDBRANCH   9  15
ENDBRANCH   6   7
ENDBRANCH   3   6
ENDBRANCH   1   2
BRANCH   1  17
ATOM     17  C   UNL     1      94.287  98.392  75.349  1.00  0.00     0.010 C 
BRANCH  17  18
ATOM     18  C   UNL     1      94.000  96.906  75.699  1.00  0.00     0.001 C 
BRANCH  18  19
ATOM     19  C   UNL     1      92.663  96.699  76.458  1.00  0.00     0.000 C 
BRANCH  19  20
ATOM     20  C   UNL     1      92.698  95.445  77.380  1.00  0.00     0.003 C 
BRANCH  20  21
ATOM     21  C   UNL     1      91.298  94.839  77.722  1.00  0.00    -0.017 C 
ATOM     22  C   UNL     1      91.026  93.558  76.878  1.00  0.00     0.007 C 
ATOM     23  C   UNL     1      90.136  95.857  77.536  1.00  0.00     0.007 C 
ENDBRANCH  20  21
ENDBRANCH  19  20
ENDBRANCH  18  19
ENDBRANCH  17  18
ENDBRANCH   1  17
TORSDOF 10
ENDMDL
MODEL 4
REMARK VINA RESULT:    -5.792     22.503     26.728
REMARK INTER + INTRA:         -10.167
REMARK INTER:                  -8.995
REMARK INTRA:                  -1.172
REMARK UNBOUND:                -1.158
REMARK SMILES COc1cc(CNC(=O)CCCCCC(C)C)ccc1O
REMARK SMILES IDX 10 1 8 2 7 3 9 5 6 6 5 7 3 8 20 9 4 10 19 11 18 12 2 13 1 14
REMARK SMILES IDX 21 15 11 17 12 18 13 19 14 20 15 21 16 22 17 23
REMARK H PARENT 7 4 21 16
REMARK Flexibility Score: inf
ROOT
ATOM      1  C   UNL     1      77.535  85.115  66.398  1.00  0.00     0.100 C 
ENDROOT
BRANCH   1   2
ATOM      2  C   UNL     1      77.080  83.710  66.420  1.00  0.00     0.220 C 
ATOM      3  N   UNL     1      77.044  82.999  65.257  1.00  0.00    -0.352 N 
ATOM      4  H   UNL     1      77.213  83.542  64.422  1.00  0.00     0.163 HD
ATOM      5  O   UNL     1      76.774  83.186  67.519  1.00  0.00    -0.275 OA
BRANCH   3   6
ATOM      6  C   UNL     1      76.794  81.597  65.158  1.00  0.00     0.151 C 
BRANCH   6   7
ATOM      7  C   UNL     1      75.410  81.280  64.711  1.00  0.00    -0.025 A 
ATOM      8  C   UNL     1      72.999  81.140  65.175  1.00  0.00     0.160 A 
ATOM      9  C   UNL     1      72.768  80.742  63.841  1.00  0.00     0.157 A 
ATOM     10  C   UNL     1      74.320  81.388  65.607  1.00  0.00     0.056 A 
ATOM     11  C   UNL     1      73.848  80.607  62.949  1.00  0.00     0.050 A 
ATOM     12  C   UNL     1      75.158  80.879  63.379  1.00  0.00     0.009 A 
BRANCH   8  13
ATOM     13  O   UNL     1      71.964  81.259  66.065  1.00  0.00    -0.493 OA
ATOM     14  C   UNL     1      71.604  82.622  66.360  1.00  0.00     0.278 C 
ENDBRANCH   8  13
BRANCH   9  15
ATOM     15  O   UNL     1      71.503  80.499  63.417  1.00  0.00    -0.504 OA
ATOM     16  H   UNL     1      70.908  80.495  64.170  1.00  0.00     0.293 HD
ENDBRANCH   9  15
ENDBRANCH   6   7
ENDBRANCH   3   6
ENDBRANCH   1   2
BRANCH   1  17
ATOM     17  C   UNL     1      78.318  85.552  67.665  1.00  0.00     0.010 C 
BRANCH  17  18
ATOM     18  C   UNL     1      77.866  86.953  68.162  1.00  0.00     0.001 C 
BRANCH  18  19
ATOM     19  C   UNL     1      77.565  87.000  69.683  1.00  0.00     0.000 C 
BRANCH  19  20
ATOM     20  C   UNL     1      76.048  87.185  69.977  1.00  0.00     0.003 C 
BRANCH  20  21
ATOM     21  C   UNL     1      75.251  85.858  70.198  1.00  0.00    -0.017 C 
ATOM     22  C   UNL     1      76.195  84.719  70.683  1.00  0.00     0.007 C 
ATOM     23  C   UNL     1      74.472  85.403  68.930  1.00  0.00     0.007 C 
ENDBRANCH  20  21
ENDBRANCH  19  20
ENDBRANCH  18  19
ENDBRANCH  17  18
ENDBRANCH   1  17
TORSDOF 10
ENDMDL
MODEL 5
REMARK VINA RESULT:    -5.672      4.618      6.207
REMARK INTER + INTRA:          -9.980
REMARK INTER:                  -9.551
REMARK INTRA:                  -0.430
REMARK UNBOUND:                -1.158
REMARK SMILES COc1cc(CNC(=O)CCCCCC(C)C)ccc1O
REMARK SMILES IDX 10 1 8 2 7 3 9 5 6 6 5 7 3 8 20 9 4 10 19 11 18 12 2 13 1 14
REMARK SMILES IDX 21 15 11 17 12 18 13 19 14 20 15 21 16 22 17 23
REMARK H PARENT 7 4 21 16
REMARK Flexibility Score: inf
ROOT
ATOM      1  C   UNL     1      92.473 100.076  73.897  1.00  0.00     0.100 C 
ENDROOT
BRANCH   1   2
ATOM      2  C   UNL     1      93.614  99.258  74.358  1.00  0.00     0.220 C 
ATOM      3  N   UNL     1      93.392  98.218  75.209  1.00  0.00    -0.352 N 
ATOM      4  H   UNL     1      92.452  98.161  75.575  1.00  0.00     0.163 HD
ATOM      5  O   UNL     1      94.763  99.515  73.921  1.00  0.00    -0.275 OA
BRANCH   3   6
ATOM      6  C   UNL     1      94.366  97.248  75.595  1.00  0.00     0.151 C 
BRANCH   6   7
ATOM      7  C   UNL     1      93.869  96.298  76.627  1.00  0.00    -0.025 A 
ATOM      8  C   UNL     1      94.309  94.600  78.350  1.00  0.00     0.160 A 
ATOM      9  C   UNL     1      92.929  94.538  78.638  1.00  0.00     0.157 A 
ATOM     10  C   UNL     1      94.768  95.466  77.334  1.00  0.00     0.056 A 
ATOM     11  C   UNL     1      92.024  95.343  77.923  1.00  0.00     0.050 A 
ATOM     12  C   UNL     1      92.490  96.220  76.929  1.00  0.00     0.009 A 
BRANCH   8  13
ATOM     13  O   UNL     1      95.206  93.811  79.022  1.00  0.00    -0.493 OA
ATOM     14  C   UNL     1      95.802  94.452  80.166  1.00  0.00     0.278 C 
ENDBRANCH   8  13
BRANCH   9  15
ATOM     15  O   UNL     1      92.478  93.709  79.612  1.00  0.00    -0.504 OA
ATOM     16  H   UNL     1      91.612  93.372  79.369  1.00  0.00     0.293 HD
ENDBRANCH   9  15
ENDBRANCH   6   7
ENDBRANCH   3   6
ENDBRANCH   1   2
BRANCH   1  17
ATOM     17  C   UNL     1      92.340 100.173  72.353  1.00  0.00     0.010 C 
BRANCH  17  18
ATOM     18  C   UNL     1      90.853 100.185  71.906  1.00  0.00     0.001 C 
BRANCH  18  19
ATOM     19  C   UNL     1      90.493  99.032  70.932  1.00  0.00     0.000 C 
BRANCH  19  20
ATOM     20  C   UNL     1      89.120  99.258  70.234  1.00  0.00     0.003 C 
BRANCH  20  21
ATOM     21  C   UNL     1      88.660  98.098  69.292  1.00  0.00    -0.017 C 
ATOM     22  C   UNL     1      89.740  96.978  69.222  1.00  0.00     0.007 C 
ATOM     23  C   UNL     1      88.305  98.588  67.859  1.00  0.00     0.007 C 
ENDBRANCH  20  21
ENDBRANCH  19  20
ENDBRANCH  18  19
ENDBRANCH  17  18
ENDBRANCH   1  17
TORSDOF 10
ENDMDL
MODEL 6
REMARK VINA RESULT:    -5.493      6.092     10.324
REMARK INTER + INTRA:          -9.701
REMARK INTER:                  -9.171
REMARK INTRA:                  -0.530
REMARK UNBOUND:                -1.158
REMARK SMILES COc1cc(CNC(=O)CCCCCC(C)C)ccc1O
REMARK SMILES IDX 10 1 8 2 7 3 9 5 6 6 5 7 3 8 20 9 4 10 19 11 18 12 2 13 1 14
REMARK SMILES IDX 21 15 11 17 12 18 13 19 14 20 15 21 16 22 17 23
REMARK H PARENT 7 4 21 16
REMARK Flexibility Score: inf
ROOT
ATOM      1  C   UNL     1      92.913  99.353  75.190  1.00  0.00     0.100 C 
ENDROOT
BRANCH   1   2
ATOM      2  C   UNL     1      92.954  99.683  73.751  1.00  0.00     0.220 C 
ATOM      3  N   UNL     1      91.786  99.830  73.064  1.00  0.00    -0.352 N 
ATOM      4  H   UNL     1      90.956  99.568  73.576  1.00  0.00     0.163 HD
ATOM      5  O   UNL     1      94.067  99.862  73.198  1.00  0.00    -0.275 OA
BRANCH   3   6
ATOM      6  C   UNL     1      91.676 100.313  71.725  1.00  0.00     0.151 C 
BRANCH   6   7
ATOM      7  C   UNL     1      90.644  99.595  70.928  1.00  0.00    -0.025 A 
ATOM      8  C   UNL     1      89.026  99.555  69.077  1.00  0.00     0.160 A 
ATOM      9  C   UNL     1      88.729  98.207  69.369  1.00  0.00     0.157 A 
ATOM     10  C   UNL     1      89.967 100.246  69.870  1.00  0.00     0.056 A 
ATOM     11  C   UNL     1      89.377  97.558  70.436  1.00  0.00     0.050 A 
ATOM     12  C   UNL     1      90.331  98.244  71.206  1.00  0.00     0.009 A 
BRANCH   8  13
ATOM     13  O   UNL     1      88.391 100.212  68.055  1.00  0.00    -0.493 OA
ATOM     14  C   UNL     1      89.139 101.323  67.525  1.00  0.00     0.278 C 
ENDBRANCH   8  13
BRANCH   9  15
ATOM     15  O   UNL     1      87.824  97.534  68.615  1.00  0.00    -0.504 OA
ATOM     16  H   UNL     1      88.277  97.076  67.904  1.00  0.00     0.293 HD
ENDBRANCH   9  15
ENDBRANCH   6   7
ENDBRANCH   3   6
ENDBRANCH   1   2
BRANCH   1  17
ATOM     17  C   UNL     1      93.801  98.146  75.595  1.00  0.00     0.010 C 
BRANCH  17  18
ATOM     18  C   UNL     1      92.947  96.887  75.910  1.00  0.00     0.001 C 
BRANCH  18  19
ATOM     19  C   UNL     1      93.783  95.693  76.442  1.00  0.00     0.000 C 
BRANCH  19  20
ATOM     20  C   UNL     1      93.804  95.636  77.997  1.00  0.00     0.003 C 
BRANCH  20  21
ATOM     21  C   UNL     1      95.230  95.571  78.636  1.00  0.00    -0.017 C 
ATOM     22  C   UNL     1      95.509  94.158  79.228  1.00  0.00     0.007 C 
ATOM     23  C   UNL     1      95.456  96.660  79.724  1.00  0.00     0.007 C 
ENDBRANCH  20  21
ENDBRANCH  19  20
ENDBRANCH  18  19
ENDBRANCH  17  18
ENDBRANCH   1  17
TORSDOF 10
ENDMDL
MODEL 7
REMARK VINA RESULT:    -5.419      5.522      9.598
REMARK INTER + INTRA:          -9.586
REMARK INTER:                  -8.848
REMARK INTRA:                  -0.738
REMARK UNBOUND:                -1.158
REMARK SMILES COc1cc(CNC(=O)CCCCCC(C)C)ccc1O
REMARK SMILES IDX 10 1 8 2 7 3 9 5 6 6 5 7 3 8 20 9 4 10 19 11 18 12 2 13 1 14
REMARK SMILES IDX 21 15 11 17 12 18 13 19 14 20 15 21 16 22 17 23
REMARK H PARENT 7 4 21 16
REMARK Flexibility Score: inf
ROOT
ATOM      1  C   UNL     1      93.213  98.672  75.430  1.00  0.00     0.100 C 
ENDROOT
BRANCH   1   2
ATOM      2  C   UNL     1      92.868  99.921  74.719  1.00  0.00     0.220 C 
ATOM      3  N   UNL     1      92.616  99.881  73.380  1.00  0.00    -0.352 N 
ATOM      4  H   UNL     1      92.817  98.997  72.936  1.00  0.00     0.163 HD
ATOM      5  O   UNL     1      92.772 100.988  75.374  1.00  0.00    -0.275 OA
BRANCH   3   6
ATOM      6  C   UNL     1      92.107 100.969  72.607  1.00  0.00     0.151 C 
BRANCH   6   7
ATOM      7  C   UNL     1      91.090 100.548  71.606  1.00  0.00    -0.025 A 
ATOM      8  C   UNL     1      89.575  98.840  70.695  1.00  0.00     0.160 A 
ATOM      9  C   UNL     1      89.104  99.768  69.742  1.00  0.00     0.157 A 
ATOM     10  C   UNL     1      90.577  99.229  71.608  1.00  0.00     0.056 A 
ATOM     11  C   UNL     1      89.627 101.075  69.714  1.00  0.00     0.050 A 
ATOM     12  C   UNL     1      90.607 101.464  70.642  1.00  0.00     0.009 A 
BRANCH   8  13
ATOM     13  O   UNL     1      89.093  97.557  70.726  1.00  0.00    -0.493 OA
ATOM     14  C   UNL     1      89.855  96.630  69.928  1.00  0.00     0.278 C 
ENDBRANCH   8  13
BRANCH   9  15
ATOM     15  O   UNL     1      88.142  99.403  68.858  1.00  0.00    -0.504 OA
ATOM     16  H   UNL     1      88.504  99.414  67.969  1.00  0.00     0.293 HD
ENDBRANCH   9  15
ENDBRANCH   6   7
ENDBRANCH   3   6
ENDBRANCH   1   2
BRANCH   1  17
ATOM     17  C   UNL     1      94.540  98.017  74.962  1.00  0.00     0.010 C 
BRANCH  17  18
ATOM     18  C   UNL     1      94.595  96.508  75.328  1.00  0.00     0.001 C 
BRANCH  18  19
ATOM     19  C   UNL     1      94.182  96.215  76.795  1.00  0.00     0.000 C 
BRANCH  19  20
ATOM     20  C   UNL     1      93.073  95.128  76.888  1.00  0.00     0.003 C 
BRANCH  20  21
ATOM     21  C   UNL     1      92.011  95.362  78.012  1.00  0.00    -0.017 C 
ATOM     22  C   UNL     1      91.499  94.007  78.583  1.00  0.00     0.007 C 
ATOM     23  C   UNL     1      90.810  96.230  77.537  1.00  0.00     0.007 C 
ENDBRANCH  20  21
ENDBRANCH  19  20
ENDBRANCH  18  19
ENDBRANCH  17  18
ENDBRANCH   1  17
TORSDOF 10
ENDMDL
MODEL 8
REMARK VINA RESULT:    -5.305     23.667     27.946
REMARK INTER + INTRA:          -9.409
REMARK INTER:                  -8.587
REMARK INTRA:                  -0.821
REMARK UNBOUND:                -1.158
REMARK SMILES COc1cc(CNC(=O)CCCCCC(C)C)ccc1O
REMARK SMILES IDX 10 1 8 2 7 3 9 5 6 6 5 7 3 8 20 9 4 10 19 11 18 12 2 13 1 14
REMARK SMILES IDX 21 15 11 17 12 18 13 19 14 20 15 21 16 22 17 23
REMARK H PARENT 7 4 21 16
REMARK Flexibility Score: inf
ROOT
ATOM      1  C   UNL     1      76.904  81.846  65.578  1.00  0.00     0.100 C 
ENDROOT
BRANCH   1   2
ATOM      2  C   UNL     1      75.896  81.322  64.633  1.00  0.00     0.220 C 
ATOM      3  N   UNL     1      74.675  80.937  65.101  1.00  0.00    -0.352 N 
ATOM      4  H   UNL     1      74.593  80.916  66.107  1.00  0.00     0.163 HD
ATOM      5  O   UNL     1      76.172  81.282  63.409  1.00  0.00    -0.275 OA
BRANCH   3   6
ATOM      6  C   UNL     1      73.559  80.579  64.286  1.00  0.00     0.151 C 
BRANCH   6   7
ATOM      7  C   UNL     1      72.347  81.396  64.565  1.00  0.00    -0.025 A 
ATOM      8  C   UNL     1      70.866  82.539  66.161  1.00  0.00     0.160 A 
ATOM      9  C   UNL     1      70.076  83.007  65.090  1.00  0.00     0.157 A 
ATOM     10  C   UNL     1      71.985  81.721  65.894  1.00  0.00     0.056 A 
ATOM     11  C   UNL     1      70.412  82.668  63.766  1.00  0.00     0.050 A 
ATOM     12  C   UNL     1      71.541  81.873  63.505  1.00  0.00     0.009 A 
BRANCH   8  13
ATOM     13  O   UNL     1      70.545  82.842  67.458  1.00  0.00    -0.493 OA
ATOM     14  C   UNL     1      71.267  83.970  67.988  1.00  0.00     0.278 C 
ENDBRANCH   8  13
BRANCH   9  15
ATOM     15  O   UNL     1      68.998  83.792  65.336  1.00  0.00    -0.504 OA
ATOM     16  H   UNL     1      68.195  83.276  65.230  1.00  0.00     0.293 HD
ENDBRANCH   9  15
ENDBRANCH   6   7
ENDBRANCH   3   6
ENDBRANCH   1   2
BRANCH   1  17
ATOM     17  C   UNL     1      76.618  83.287  66.082  1.00  0.00     0.010 C 
BRANCH  17  18
ATOM     18  C   UNL     1      76.078  83.287  67.539  1.00  0.00     0.001 C 
BRANCH  18  19
ATOM     19  C   UNL     1      76.631  84.453  68.401  1.00  0.00     0.000 C 
BRANCH  19  20
ATOM     20  C   UNL     1      77.948  85.042  67.818  1.00  0.00     0.003 C 
BRANCH  20  21
ATOM     21  C   UNL     1      78.183  86.558  68.119  1.00  0.00    -0.017 C 
ATOM     22  C   UNL     1      77.534  86.962  69.475  1.00  0.00     0.007 C 
ATOM     23  C   UNL     1      77.666  87.487  66.982  1.00  0.00     0.007 C 
ENDBRANCH  20  21
ENDBRANCH  19  20
ENDBRANCH  18  19
ENDBRANCH  17  18
ENDBRANCH   1  17
TORSDOF 10
ENDMDL
MODEL 9
REMARK VINA RESULT:    -5.236     23.122     26.473
REMARK INTER + INTRA:          -9.301
REMARK INTER:                  -8.378
REMARK INTRA:                  -0.923
REMARK UNBOUND:                -1.158
REMARK SMILES COc1cc(CNC(=O)CCCCCC(C)C)ccc1O
REMARK SMILES IDX 10 1 8 2 7 3 9 5 6 6 5 7 3 8 20 9 4 10 19 11 18 12 2 13 1 14
REMARK SMILES IDX 21 15 11 17 12 18 13 19 14 20 15 21 16 22 17 23
REMARK H PARENT 7 4 21 16
REMARK Flexibility Score: inf
ROOT
ATOM      1  C   UNL     1      71.830  82.296  65.346  1.00  0.00     0.100 C 
ENDROOT
BRANCH   1   2
ATOM      2  C   UNL     1      73.300  82.253  65.202  1.00  0.00     0.220 C 
ATOM      3  N   UNL     1      74.059  81.759  66.221  1.00  0.00    -0.352 N 
ATOM      4  H   UNL     1      73.554  81.574  67.075  1.00  0.00     0.163 HD
ATOM      5  O   UNL     1      73.817  82.635  64.124  1.00  0.00    -0.275 OA
BRANCH   3   6
ATOM      6  C   UNL     1      75.461  81.500  66.150  1.00  0.00     0.151 C 
BRANCH   6   7
ATOM      7  C   UNL     1      76.285  82.572  66.773  1.00  0.00    -0.025 A 
ATOM      8  C   UNL     1      76.612  84.260  68.531  1.00  0.00     0.160 A 
ATOM      9  C   UNL     1      77.883  84.565  67.998  1.00  0.00     0.157 A 
ATOM     10  C   UNL     1      75.814  83.279  67.904  1.00  0.00     0.056 A 
ATOM     11  C   UNL     1      78.350  83.886  66.857  1.00  0.00     0.050 A 
ATOM     12  C   UNL     1      77.560  82.893  66.253  1.00  0.00     0.009 A 
BRANCH   8  13
ATOM     13  O   UNL     1      76.131  84.923  69.629  1.00  0.00    -0.493 OA
ATOM     14  C   UNL     1      76.302  84.203  70.865  1.00  0.00     0.278 C 
ENDBRANCH   8  13
BRANCH   9  15
ATOM     15  O   UNL     1      78.657  85.507  68.591  1.00  0.00    -0.504 OA
ATOM     16  H   UNL     1      79.416  85.086  69.002  1.00  0.00     0.293 HD
ENDBRANCH   9  15
ENDBRANCH   6   7
ENDBRANCH   3   6
ENDBRANCH   1   2
BRANCH   1  17
ATOM     17  C   UNL     1      71.329  82.184  66.811  1.00  0.00     0.010 C 
BRANCH  17  18
ATOM     18  C   UNL     1      69.896  82.762  66.972  1.00  0.00     0.001 C 
BRANCH  18  19
ATOM     19  C   UNL     1      69.793  83.861  68.062  1.00  0.00     0.000 C 
BRANCH  19  20
ATOM     20  C   UNL     1      71.189  84.280  68.608  1.00  0.00     0.003 C 
BRANCH  20  21
ATOM     21  C   UNL     1      71.214  84.676  70.121  1.00  0.00    -0.017 C 
ATOM     22  C   UNL     1      70.174  83.845  70.930  1.00  0.00     0.007 C 
ATOM     23  C   UNL     1      70.978  86.197  70.351  1.00  0.00     0.007 C 
ENDBRANCH  20  21
ENDBRANCH  19  20
ENDBRANCH  18  19
ENDBRANCH  17  18
ENDBRANCH   1  17
TORSDOF 10
ENDMDL
MODEL 10
REMARK VINA RESULT:    -5.042     22.391     25.476
REMARK INTER + INTRA:          -9.001
REMARK INTER:                  -7.388
REMARK INTRA:                  -1.612
REMARK UNBOUND:                -1.158
REMARK SMILES COc1cc(CNC(=O)CCCCCC(C)C)ccc1O
REMARK SMILES IDX 10 1 8 2 7 3 9 5 6 6 5 7 3 8 20 9 4 10 19 11 18 12 2 13 1 14
REMARK SMILES IDX 21 15 11 17 12 18 13 19 14 20 15 21 16 22 17 23
REMARK H PARENT 7 4 21 16
REMARK Flexibility Score: inf
ROOT
ATOM      1  C   UNL     1      71.945  82.942  65.318  1.00  0.00     0.100 C 
ENDROOT
BRANCH   1   2
ATOM      2  C   UNL     1      72.243  84.389  65.335  1.00  0.00     0.220 C 
ATOM      3  N   UNL     1      73.215  84.863  66.165  1.00  0.00    -0.352 N 
ATOM      4  H   UNL     1      73.581  84.187  66.820  1.00  0.00     0.163 HD
ATOM      5  O   UNL     1      71.621  85.148  64.552  1.00  0.00    -0.275 OA
BRANCH   3   6
ATOM      6  C   UNL     1      73.721  86.198  66.160  1.00  0.00     0.151 C 
BRANCH   6   7
ATOM      7  C   UNL     1      74.906  86.377  67.041  1.00  0.00    -0.025 A 
ATOM      8  C   UNL     1      76.020  86.051  69.209  1.00  0.00     0.160 A 
ATOM      9  C   UNL     1      77.186  86.658  68.699  1.00  0.00     0.157 A 
ATOM     10  C   UNL     1      74.881  85.931  68.384  1.00  0.00     0.056 A 
ATOM     11  C   UNL     1      77.213  87.129  67.373  1.00  0.00     0.050 A 
ATOM     12  C   UNL     1      76.084  86.985  66.549  1.00  0.00     0.009 A 
BRANCH   8  13
ATOM     13  O   UNL     1      75.966  85.603  70.503  1.00  0.00    -0.493 OA
ATOM     14  C   UNL     1      76.313  84.213  70.653  1.00  0.00     0.278 C 
ENDBRANCH   8  13
BRANCH   9  15
ATOM     15  O   UNL     1      78.285  86.780  69.484  1.00  0.00    -0.504 OA
ATOM     16  H   UNL     1      78.804  85.974  69.438  1.00  0.00     0.293 HD
ENDBRANCH   9  15
ENDBRANCH   6   7
ENDBRANCH   3   6
ENDBRANCH   1   2
BRANCH   1  17
ATOM     17  C   UNL     1      72.829  82.097  66.274  1.00  0.00     0.010 C 
BRANCH  17  18
ATOM     18  C   UNL     1      74.002  81.416  65.517  1.00  0.00     0.001 C 
BRANCH  18  19
ATOM     19  C   UNL     1      75.344  81.458  66.295  1.00  0.00     0.000 C 
BRANCH  19  20
ATOM     20  C   UNL     1      75.912  82.903  66.410  1.00  0.00     0.003 C 
BRANCH  20  21
ATOM     21  C   UNL     1      77.411  83.058  65.993  1.00  0.00    -0.017 C 
ATOM     22  C   UNL     1      78.275  83.542  67.195  1.00  0.00     0.007 C 
ATOM     23  C   UNL     1      77.605  84.012  64.778  1.00  0.00     0.007 C 
ENDBRANCH  20  21
ENDBRANCH  19  20
ENDBRANCH  18  19
ENDBRANCH  17  18
ENDBRANCH   1  17
TORSDOF 10
ENDMDL
