MODEL 1
REMARK VINA RESULT:    -6.144      0.000      0.000
REMARK INTER + INTRA:         -10.089
REMARK INTER:                  -9.556
REMARK INTRA:                  -0.534
REMARK UNBOUND:                -0.534
REMARK SMILES CCCCC/C=C/C(=O)CCc1ccc(O)c(OC)c1
REMARK SMILES IDX 6 1 7 2 8 3 9 4 10 5 11 6 12 7 17 8 20 9 15 10 14 11 13 12
REMARK SMILES IDX 18 13 19 14 16 15 5 17 4 18 3 19 2 20 1 21
REMARK H PARENT 16 16
REMARK Flexibility Score: inf
ROOT
ATOM      1  C   UNL     1      91.059  74.911  80.277  1.00  0.00    -0.023 C 
ATOM      2  C   UNL     1      91.742  75.518  81.256  1.00  0.00     0.043 C 
ENDROOT
BRANCH   2   3
ATOM      3  C   UNL     1      91.212  75.508  82.646  1.00  0.00     0.155 C 
ATOM      4  O   UNL     1      90.446  74.633  83.042  1.00  0.00    -0.295 OA
BRANCH   3   5
ATOM      5  C   UNL     1      91.624  76.666  83.535  1.00  0.00     0.085 C 
BRANCH   5   6
ATOM      6  C   UNL     1      90.440  77.190  84.349  1.00  0.00     0.044 C 
BRANCH   6   7
ATOM      7  C   UNL     1      90.269  78.687  84.239  1.00  0.00    -0.044 A 
ATOM      8  C   UNL     1      88.838  80.600  84.016  1.00  0.00     0.160 A 
ATOM      9  C   UNL     1      88.995  79.218  84.117  1.00  0.00     0.054 A 
ATOM     10  C   UNL     1      89.956  81.433  84.038  1.00  0.00     0.157 A 
ATOM     11  C   UNL     1      91.233  80.883  84.161  1.00  0.00     0.050 A 
ATOM     12  C   UNL     1      91.390  79.501  84.262  1.00  0.00     0.008 A 
BRANCH   8  13
ATOM     13  O   UNL     1      87.586  81.125  83.896  1.00  0.00    -0.493 OA
ATOM     14  C   UNL     1      86.873  80.832  82.696  1.00  0.00     0.278 C 
ENDBRANCH   8  13
BRANCH  10  15
ATOM     15  O   UNL     1      89.815  82.785  83.941  1.00  0.00    -0.504 OA
ATOM     16  H   UNL     1      90.361  83.199  84.631  1.00  0.00     0.293 HD
ENDBRANCH  10  15
ENDBRANCH   6   7
ENDBRANCH   5   6
ENDBRANCH   3   5
ENDBRANCH   2   3
BRANCH   1  17
ATOM     17  C   UNL     1      91.526  74.876  78.851  1.00  0.00     0.027 C 
BRANCH  17  18
ATOM     18  C   UNL     1      90.745  75.829  77.939  1.00  0.00     0.004 C 
BRANCH  18  19
ATOM     19  C   UNL     1      91.575  76.386  76.778  1.00  0.00     0.000 C 
BRANCH  19  20
ATOM     20  C   UNL     1      90.754  77.357  75.929  1.00  0.00    -0.003 C 
ATOM     21  C   UNL     1      91.424  78.718  75.835  1.00  0.00     0.004 C 
ENDBRANCH  19  20
ENDBRANCH  18  19
ENDBRANCH  17  18
ENDBRANCH   1  17
TORSDOF 10
ENDMDL
MODEL 2
REMARK VINA RESULT:    -5.966      8.073     11.353
REMARK INTER + INTRA:          -9.812
REMARK INTER:                  -9.232
REMARK INTRA:                  -0.580
REMARK UNBOUND:                -0.534
REMARK SMILES CCCCC/C=C/C(=O)CCc1ccc(O)c(OC)c1
REMARK SMILES IDX 6 1 7 2 8 3 9 4 10 5 11 6 12 7 17 8 20 9 15 10 14 11 13 12
REMARK SMILES IDX 18 13 19 14 16 15 5 17 4 18 3 19 2 20 1 21
REMARK H PARENT 16 16
REMARK Flexibility Score: inf
ROOT
ATOM      1  C   UNL     1      96.609  82.331  82.718  1.00  0.00    -0.023 C 
ATOM      2  C   UNL     1      96.935  81.754  81.555  1.00  0.00     0.043 C 
ENDROOT
BRANCH   2   3
ATOM      3  C   UNL     1      98.178  82.164  80.847  1.00  0.00     0.155 C 
ATOM      4  O   UNL     1      99.248  81.585  81.025  1.00  0.00    -0.295 OA
BRANCH   3   5
ATOM      5  C   UNL     1      98.069  83.368  79.932  1.00  0.00     0.085 C 
BRANCH   5   6
ATOM      6  C   UNL     1      96.892  83.226  78.965  1.00  0.00     0.044 C 
BRANCH   6   7
ATOM      7  C   UNL     1      97.228  83.674  77.562  1.00  0.00    -0.044 A 
ATOM      8  C   UNL     1      98.726  83.675  75.687  1.00  0.00     0.160 A 
ATOM      9  C   UNL     1      98.417  83.261  76.983  1.00  0.00     0.054 A 
ATOM     10  C   UNL     1      97.842  84.495  74.987  1.00  0.00     0.157 A 
ATOM     11  C   UNL     1      96.648  84.903  75.584  1.00  0.00     0.050 A 
ATOM     12  C   UNL     1      96.339  84.489  76.880  1.00  0.00     0.008 A 
BRANCH   8  13
ATOM     13  O   UNL     1      99.895  83.270  75.116  1.00  0.00    -0.493 OA
ATOM     14  C   UNL     1     101.003  84.164  75.205  1.00  0.00     0.278 C 
ENDBRANCH   8  13
BRANCH  10  15
ATOM     15  O   UNL     1      98.132  84.905  73.721  1.00  0.00    -0.504 OA
ATOM     16  H   UNL     1      99.097  85.005  73.646  1.00  0.00     0.293 HD
ENDBRANCH  10  15
ENDBRANCH   6   7
ENDBRANCH   5   6
ENDBRANCH   3   5
ENDBRANCH   2   3
BRANCH   1  17
ATOM     17  C   UNL     1      95.373  81.973  83.493  1.00  0.00     0.027 C 
BRANCH  17  18
ATOM     18  C   UNL     1      94.885  83.106  84.401  1.00  0.00     0.004 C 
BRANCH  18  19
ATOM     19  C   UNL     1      93.445  82.921  84.893  1.00  0.00     0.000 C 
BRANCH  19  20
ATOM     20  C   UNL     1      92.931  81.516  84.576  1.00  0.00    -0.003 C 
ATOM     21  C   UNL     1      91.510  81.552  84.037  1.00  0.00     0.004 C 
ENDBRANCH  19  20
ENDBRANCH  18  19
ENDBRANCH  17  18
ENDBRANCH   1  17
TORSDOF 10
ENDMDL
MODEL 3
REMARK VINA RESULT:    -5.909     19.061     21.774
REMARK INTER + INTRA:          -9.724
REMARK INTER:                  -8.871
REMARK INTRA:                  -0.852
REMARK UNBOUND:                -0.534
REMARK SMILES CCCCC/C=C/C(=O)CCc1ccc(O)c(OC)c1
REMARK SMILES IDX 6 1 7 2 8 3 9 4 10 5 11 6 12 7 17 8 20 9 15 10 14 11 13 12
REMARK SMILES IDX 18 13 19 14 16 15 5 17 4 18 3 19 2 20 1 21
REMARK H PARENT 16 16
REMARK Flexibility Score: inf
ROOT
ATOM      1  C   UNL     1      93.682  99.887  71.373  1.00  0.00    -0.023 C 
ATOM      2  C   UNL     1      93.594  98.682  71.949  1.00  0.00     0.043 C 
ENDROOT
BRANCH   2   3
ATOM      3  C   UNL     1      94.802  97.818  72.048  1.00  0.00     0.155 C 
ATOM      4  O   UNL     1      95.715  97.882  71.228  1.00  0.00    -0.295 OA
BRANCH   3   5
ATOM      5  C   UNL     1      94.824  96.815  73.185  1.00  0.00     0.085 C 
BRANCH   5   6
ATOM      6  C   UNL     1      94.529  97.490  74.526  1.00  0.00     0.044 C 
BRANCH   6   7
ATOM      7  C   UNL     1      93.762  96.600  75.475  1.00  0.00    -0.044 A 
ATOM      8  C   UNL     1      92.290  94.741  75.843  1.00  0.00     0.160 A 
ATOM      9  C   UNL     1      92.997  95.563  74.966  1.00  0.00     0.054 A 
ATOM     10  C   UNL     1      92.356  94.966  77.218  1.00  0.00     0.157 A 
ATOM     11  C   UNL     1      93.130  96.015  77.715  1.00  0.00     0.050 A 
ATOM     12  C   UNL     1      93.838  96.837  76.838  1.00  0.00     0.008 A 
BRANCH   8  13
ATOM     13  O   UNL     1      91.537  93.720  75.344  1.00  0.00    -0.493 OA
ATOM     14  C   UNL     1      90.302  94.070  74.723  1.00  0.00     0.278 C 
ENDBRANCH   8  13
BRANCH  10  15
ATOM     15  O   UNL     1      91.670  94.170  78.084  1.00  0.00    -0.504 OA
ATOM     16  H   UNL     1      90.735  94.163  77.817  1.00  0.00     0.293 HD
ENDBRANCH  10  15
ENDBRANCH   6   7
ENDBRANCH   5   6
ENDBRANCH   3   5
ENDBRANCH   2   3
BRANCH   1  17
ATOM     17  C   UNL     1      92.511 100.817  71.234  1.00  0.00     0.027 C 
BRANCH  17  18
ATOM     18  C   UNL     1      91.165 100.087  71.192  1.00  0.00     0.004 C 
BRANCH  18  19
ATOM     19  C   UNL     1      89.965 100.997  71.473  1.00  0.00     0.000 C 
BRANCH  19  20
ATOM     20  C   UNL     1      90.327 102.095  72.473  1.00  0.00    -0.003 C 
ATOM     21  C   UNL     1      89.547 101.947  73.769  1.00  0.00     0.004 C 
ENDBRANCH  19  20
ENDBRANCH  18  19
ENDBRANCH  17  18
ENDBRANCH   1  17
TORSDOF 10
ENDMDL
MODEL 4
REMARK VINA RESULT:    -5.818      5.640     10.258
REMARK INTER + INTRA:          -9.583
REMARK INTER:                  -8.994
REMARK INTRA:                  -0.589
REMARK UNBOUND:                -0.534
REMARK SMILES CCCCC/C=C/C(=O)CCc1ccc(O)c(OC)c1
REMARK SMILES IDX 6 1 7 2 8 3 9 4 10 5 11 6 12 7 17 8 20 9 15 10 14 11 13 12
REMARK SMILES IDX 18 13 19 14 16 15 5 17 4 18 3 19 2 20 1 21
REMARK H PARENT 16 16
REMARK Flexibility Score: inf
ROOT
ATOM      1  C   UNL     1      93.260  85.739  88.211  1.00  0.00    -0.023 C 
ATOM      2  C   UNL     1      93.562  85.300  86.983  1.00  0.00     0.043 C 
ENDROOT
BRANCH   2   3
ATOM      3  C   UNL     1      93.329  83.874  86.627  1.00  0.00     0.155 C 
ATOM      4  O   UNL     1      93.693  82.955  87.358  1.00  0.00    -0.295 OA
BRANCH   3   5
ATOM      5  C   UNL     1      92.665  83.611  85.290  1.00  0.00     0.085 C 
BRANCH   5   6
ATOM      6  C   UNL     1      93.253  82.372  84.612  1.00  0.00     0.044 C 
BRANCH   6   7
ATOM      7  C   UNL     1      92.285  81.214  84.564  1.00  0.00    -0.044 A 
ATOM      8  C   UNL     1      90.105  80.352  84.050  1.00  0.00     0.160 A 
ATOM      9  C   UNL     1      90.998  81.423  84.094  1.00  0.00     0.054 A 
ATOM     10  C   UNL     1      90.510  79.087  84.476  1.00  0.00     0.157 A 
ATOM     11  C   UNL     1      91.809  78.893  84.947  1.00  0.00     0.050 A 
ATOM     12  C   UNL     1      92.702  79.964  84.991  1.00  0.00     0.008 A 
BRANCH   8  13
ATOM     13  O   UNL     1      88.839  80.555  83.588  1.00  0.00    -0.493 OA
ATOM     14  C   UNL     1      87.915  81.175  84.480  1.00  0.00     0.278 C 
ENDBRANCH   8  13
BRANCH  10  15
ATOM     15  O   UNL     1      89.647  78.034  84.437  1.00  0.00    -0.504 OA
ATOM     16  H   UNL     1      88.844  78.279  84.928  1.00  0.00     0.293 HD
ENDBRANCH  10  15
ENDBRANCH   6   7
ENDBRANCH   5   6
ENDBRANCH   3   5
ENDBRANCH   2   3
BRANCH   1  17
ATOM     17  C   UNL     1      93.466  87.161  88.648  1.00  0.00     0.027 C 
BRANCH  17  18
ATOM     18  C   UNL     1      94.030  88.055  87.539  1.00  0.00     0.004 C 
BRANCH  18  19
ATOM     19  C   UNL     1      94.903  89.201  88.060  1.00  0.00     0.000 C 
BRANCH  19  20
ATOM     20  C   UNL     1      94.323  90.560  87.664  1.00  0.00    -0.003 C 
ATOM     21  C   UNL     1      93.227  90.998  88.622  1.00  0.00     0.004 C 
ENDBRANCH  19  20
ENDBRANCH  18  19
ENDBRANCH  17  18
ENDBRANCH   1  17
TORSDOF 10
ENDMDL
MODEL 5
REMARK VINA RESULT:    -5.653      3.954      6.654
REMARK INTER + INTRA:          -9.327
REMARK INTER:                  -8.469
REMARK INTRA:                  -0.858
REMARK UNBOUND:                -0.534
REMARK SMILES CCCCC/C=C/C(=O)CCc1ccc(O)c(OC)c1
REMARK SMILES IDX 6 1 7 2 8 3 9 4 10 5 11 6 12 7 17 8 20 9 15 10 14 11 13 12
REMARK SMILES IDX 18 13 19 14 16 15 5 17 4 18 3 19 2 20 1 21
REMARK H PARENT 16 16
REMARK Flexibility Score: inf
ROOT
ATOM      1  C   UNL     1      91.925  78.650  84.016  1.00  0.00    -0.023 C 
ATOM      2  C   UNL     1      90.652  78.904  84.343  1.00  0.00     0.043 C 
ENDROOT
BRANCH   2   3
ATOM      3  C   UNL     1      90.055  80.231  84.029  1.00  0.00     0.155 C 
ATOM      4  O   UNL     1      88.839  80.396  83.962  1.00  0.00    -0.295 OA
BRANCH   3   5
ATOM      5  C   UNL     1      91.028  81.358  83.744  1.00  0.00     0.085 C 
BRANCH   5   6
ATOM      6  C   UNL     1      91.301  82.187  85.000  1.00  0.00     0.044 C 
BRANCH   6   7
ATOM      7  C   UNL     1      92.692  82.775  85.024  1.00  0.00    -0.044 A 
ATOM      8  C   UNL     1      94.204  84.495  85.741  1.00  0.00     0.160 A 
ATOM      9  C   UNL     1      92.919  83.953  85.719  1.00  0.00     0.054 A 
ATOM     10  C   UNL     1      95.244  83.855  85.068  1.00  0.00     0.157 A 
ATOM     11  C   UNL     1      95.000  82.670  84.373  1.00  0.00     0.050 A 
ATOM     12  C   UNL     1      93.715  82.127  84.351  1.00  0.00     0.008 A 
BRANCH   8  13
ATOM     13  O   UNL     1      94.430  85.653  86.423  1.00  0.00    -0.493 OA
ATOM     14  C   UNL     1      94.193  86.874  85.725  1.00  0.00     0.278 C 
ENDBRANCH   8  13
BRANCH  10  15
ATOM     15  O   UNL     1      96.503  84.375  85.083  1.00  0.00    -0.504 OA
ATOM     16  H   UNL     1      97.105  83.728  84.676  1.00  0.00     0.293 HD
ENDBRANCH  10  15
ENDBRANCH   6   7
ENDBRANCH   5   6
ENDBRANCH   3   5
ENDBRANCH   2   3
BRANCH   1  17
ATOM     17  C   UNL     1      92.599  77.339  84.298  1.00  0.00     0.027 C 
BRANCH  17  18
ATOM     18  C   UNL     1      92.041  76.183  83.461  1.00  0.00     0.004 C 
BRANCH  18  19
ATOM     19  C   UNL     1      91.783  74.908  84.270  1.00  0.00     0.000 C 
BRANCH  19  20
ATOM     20  C   UNL     1      90.288  74.593  84.343  1.00  0.00    -0.003 C 
ATOM     21  C   UNL     1      89.975  73.636  85.482  1.00  0.00     0.004 C 
ENDBRANCH  19  20
ENDBRANCH  18  19
ENDBRANCH  17  18
ENDBRANCH   1  17
TORSDOF 10
ENDMDL
MODEL 6
REMARK VINA RESULT:    -5.594      8.216     10.344
REMARK INTER + INTRA:          -9.235
REMARK INTER:                  -8.641
REMARK INTRA:                  -0.594
REMARK UNBOUND:                -0.534
REMARK SMILES CCCCC/C=C/C(=O)CCc1ccc(O)c(OC)c1
REMARK SMILES IDX 6 1 7 2 8 3 9 4 10 5 11 6 12 7 17 8 20 9 15 10 14 11 13 12
REMARK SMILES IDX 18 13 19 14 16 15 5 17 4 18 3 19 2 20 1 21
REMARK H PARENT 16 16
REMARK Flexibility Score: inf
ROOT
ATOM      1  C   UNL     1      99.011  83.213  75.951  1.00  0.00    -0.023 C 
ATOM      2  C   UNL     1      97.953  84.034  75.985  1.00  0.00     0.043 C 
ENDROOT
BRANCH   2   3
ATOM      3  C   UNL     1      96.911  83.858  77.032  1.00  0.00     0.155 C 
ATOM      4  O   UNL     1      95.909  84.569  77.077  1.00  0.00    -0.295 OA
BRANCH   3   5
ATOM      5  C   UNL     1      97.174  82.789  78.075  1.00  0.00     0.085 C 
BRANCH   5   6
ATOM      6  C   UNL     1      97.574  83.408  79.416  1.00  0.00     0.044 C 
BRANCH   6   7
ATOM      7  C   UNL     1      97.179  82.554  80.598  1.00  0.00    -0.044 A 
ATOM      8  C   UNL     1      96.382  82.378  82.854  1.00  0.00     0.160 A 
ATOM      9  C   UNL     1      96.747  83.167  81.763  1.00  0.00     0.054 A 
ATOM     10  C   UNL     1      96.454  80.988  82.766  1.00  0.00     0.157 A 
ATOM     11  C   UNL     1      96.892  80.386  81.585  1.00  0.00     0.050 A 
ATOM     12  C   UNL     1      97.257  81.175  80.494  1.00  0.00     0.008 A 
BRANCH   8  13
ATOM     13  O   UNL     1      95.957  82.977  84.001  1.00  0.00    -0.493 OA
ATOM     14  C   UNL     1      96.165  84.384  84.114  1.00  0.00     0.278 C 
ENDBRANCH   8  13
BRANCH  10  15
ATOM     15  O   UNL     1      96.100  80.207  83.824  1.00  0.00    -0.504 OA
ATOM     16  H   UNL     1      96.751  79.489  83.905  1.00  0.00     0.293 HD
ENDBRANCH  10  15
ENDBRANCH   6   7
ENDBRANCH   5   6
ENDBRANCH   3   5
ENDBRANCH   2   3
BRANCH   1  17
ATOM     17  C   UNL     1     100.103  83.324  74.927  1.00  0.00     0.027 C 
BRANCH  17  18
ATOM     18  C   UNL     1      99.575  83.477  73.497  1.00  0.00     0.004 C 
BRANCH  18  19
ATOM     19  C   UNL     1      99.595  84.921  72.986  1.00  0.00     0.000 C 
BRANCH  19  20
ATOM     20  C   UNL     1     100.298  85.016  71.631  1.00  0.00    -0.003 C 
ATOM     21  C   UNL     1     100.541  83.640  71.031  1.00  0.00     0.004 C 
ENDBRANCH  19  20
ENDBRANCH  18  19
ENDBRANCH  17  18
ENDBRANCH   1  17
TORSDOF 10
ENDMDL
MODEL 7
REMARK VINA RESULT:    -5.553      6.452      8.207
REMARK INTER + INTRA:          -9.171
REMARK INTER:                  -8.597
REMARK INTRA:                  -0.574
REMARK UNBOUND:                -0.534
REMARK SMILES CCCCC/C=C/C(=O)CCc1ccc(O)c(OC)c1
REMARK SMILES IDX 6 1 7 2 8 3 9 4 10 5 11 6 12 7 17 8 20 9 15 10 14 11 13 12
REMARK SMILES IDX 18 13 19 14 16 15 5 17 4 18 3 19 2 20 1 21
REMARK H PARENT 16 16
REMARK Flexibility Score: inf
ROOT
ATOM      1  C   UNL     1      97.533  82.464  78.555  1.00  0.00    -0.023 C 
ATOM      2  C   UNL     1      98.182  83.027  79.582  1.00  0.00     0.043 C 
ENDROOT
BRANCH   2   3
ATOM      3  C   UNL     1      98.098  82.416  80.936  1.00  0.00     0.155 C 
ATOM      4  O   UNL     1      99.082  81.932  81.492  1.00  0.00    -0.295 OA
BRANCH   3   5
ATOM      5  C   UNL     1      96.724  82.373  81.576  1.00  0.00     0.085 C 
BRANCH   5   6
ATOM      6  C   UNL     1      96.760  82.910  83.007  1.00  0.00     0.044 C 
BRANCH   6   7
ATOM      7  C   UNL     1      95.544  82.518  83.813  1.00  0.00    -0.044 A 
ATOM      8  C   UNL     1      93.658  83.142  85.159  1.00  0.00     0.160 A 
ATOM      9  C   UNL     1      94.782  83.505  84.416  1.00  0.00     0.054 A 
ATOM     10  C   UNL     1      93.313  81.797  85.290  1.00  0.00     0.157 A 
ATOM     11  C   UNL     1      94.091  80.815  84.678  1.00  0.00     0.050 A 
ATOM     12  C   UNL     1      95.215  81.178  83.934  1.00  0.00     0.008 A 
BRANCH   8  13
ATOM     13  O   UNL     1      92.907  84.111  85.753  1.00  0.00    -0.493 OA
ATOM     14  C   UNL     1      93.525  85.381  85.952  1.00  0.00     0.278 C 
ENDBRANCH   8  13
BRANCH  10  15
ATOM     15  O   UNL     1      92.218  81.431  86.013  1.00  0.00    -0.504 OA
ATOM     16  H   UNL     1      91.720  80.772  85.500  1.00  0.00     0.293 HD
ENDBRANCH  10  15
ENDBRANCH   6   7
ENDBRANCH   5   6
ENDBRANCH   3   5
ENDBRANCH   2   3
BRANCH   1  17
ATOM     17  C   UNL     1      97.566  83.018  77.160  1.00  0.00     0.027 C 
BRANCH  17  18
ATOM     18  C   UNL     1      96.658  84.239  76.976  1.00  0.00     0.004 C 
BRANCH  18  19
ATOM     19  C   UNL     1      96.560  84.717  75.524  1.00  0.00     0.000 C 
BRANCH  19  20
ATOM     20  C   UNL     1      97.463  83.889  74.608  1.00  0.00    -0.003 C 
ATOM     21  C   UNL     1      98.365  84.776  73.765  1.00  0.00     0.004 C 
ENDBRANCH  19  20
ENDBRANCH  18  19
ENDBRANCH  17  18
ENDBRANCH   1  17
TORSDOF 10
ENDMDL
MODEL 8
REMARK VINA RESULT:    -5.458      8.580      9.410
REMARK INTER + INTRA:          -9.023
REMARK INTER:                  -8.412
REMARK INTRA:                  -0.611
REMARK UNBOUND:                -0.534
REMARK SMILES CCCCC/C=C/C(=O)CCc1ccc(O)c(OC)c1
REMARK SMILES IDX 6 1 7 2 8 3 9 4 10 5 11 6 12 7 17 8 20 9 15 10 14 11 13 12
REMARK SMILES IDX 18 13 19 14 16 15 5 17 4 18 3 19 2 20 1 21
REMARK H PARENT 16 16
REMARK Flexibility Score: inf
ROOT
ATOM      1  C   UNL     1      97.226  83.095  77.945  1.00  0.00    -0.023 C 
ATOM      2  C   UNL     1      97.478  83.526  79.187  1.00  0.00     0.043 C 
ENDROOT
BRANCH   2   3
ATOM      3  C   UNL     1      98.008  82.581  80.208  1.00  0.00     0.155 C 
ATOM      4  O   UNL     1      99.207  82.326  80.296  1.00  0.00    -0.295 OA
BRANCH   3   5
ATOM      5  C   UNL     1      96.984  81.907  81.100  1.00  0.00     0.085 C 
BRANCH   5   6
ATOM      6  C   UNL     1      97.660  81.045  82.168  1.00  0.00     0.044 C 
BRANCH   6   7
ATOM      7  C   UNL     1      97.719  81.721  83.517  1.00  0.00    -0.044 A 
ATOM      8  C   UNL     1      97.113  83.547  84.951  1.00  0.00     0.160 A 
ATOM      9  C   UNL     1      97.058  82.924  83.704  1.00  0.00     0.054 A 
ATOM     10  C   UNL     1      97.828  82.960  85.994  1.00  0.00     0.157 A 
ATOM     11  C   UNL     1      98.489  81.748  85.790  1.00  0.00     0.050 A 
ATOM     12  C   UNL     1      98.434  81.124  84.544  1.00  0.00     0.008 A 
BRANCH   8  13
ATOM     13  O   UNL     1      96.464  84.731  85.137  1.00  0.00    -0.493 OA
ATOM     14  C   UNL     1      95.865  85.329  83.989  1.00  0.00     0.278 C 
ENDBRANCH   8  13
BRANCH  10  15
ATOM     15  O   UNL     1      97.888  83.558  87.216  1.00  0.00    -0.504 OA
ATOM     16  H   UNL     1      97.808  84.519  87.090  1.00  0.00     0.293 HD
ENDBRANCH  10  15
ENDBRANCH   6   7
ENDBRANCH   5   6
ENDBRANCH   3   5
ENDBRANCH   2   3
BRANCH   1  17
ATOM     17  C   UNL     1      96.692  83.985  76.861  1.00  0.00     0.027 C 
BRANCH  17  18
ATOM     18  C   UNL     1      97.722  84.287  75.768  1.00  0.00     0.004 C 
BRANCH  18  19
ATOM     19  C   UNL     1      97.132  84.300  74.354  1.00  0.00     0.000 C 
BRANCH  19  20
ATOM     20  C   UNL     1      97.778  83.226  73.477  1.00  0.00    -0.003 C 
ATOM     21  C   UNL     1      99.165  82.857  73.978  1.00  0.00     0.004 C 
ENDBRANCH  19  20
ENDBRANCH  18  19
ENDBRANCH  17  18
ENDBRANCH   1  17
TORSDOF 10
ENDMDL
MODEL 9
REMARK VINA RESULT:    -5.421      8.535     10.424
REMARK INTER + INTRA:          -8.966
REMARK INTER:                  -8.087
REMARK INTRA:                  -0.878
REMARK UNBOUND:                -0.534
REMARK SMILES CCCCC/C=C/C(=O)CCc1ccc(O)c(OC)c1
REMARK SMILES IDX 6 1 7 2 8 3 9 4 10 5 11 6 12 7 17 8 20 9 15 10 14 11 13 12
REMARK SMILES IDX 18 13 19 14 16 15 5 17 4 18 3 19 2 20 1 21
REMARK H PARENT 16 16
REMARK Flexibility Score: inf
ROOT
ATOM      1  C   UNL     1      99.599  82.886  76.384  1.00  0.00    -0.023 C 
ATOM      2  C   UNL     1      98.598  83.624  75.889  1.00  0.00     0.043 C 
ENDROOT
BRANCH   2   3
ATOM      3  C   UNL     1      97.347  83.801  76.675  1.00  0.00     0.155 C 
ATOM      4  O   UNL     1      96.574  84.733  76.463  1.00  0.00    -0.295 OA
BRANCH   3   5
ATOM      5  C   UNL     1      97.101  82.802  77.789  1.00  0.00     0.085 C 
BRANCH   5   6
ATOM      6  C   UNL     1      97.250  83.455  79.164  1.00  0.00     0.044 C 
BRANCH   6   7
ATOM      7  C   UNL     1      97.136  82.465  80.300  1.00  0.00    -0.044 A 
ATOM      8  C   UNL     1      96.617  81.993  82.594  1.00  0.00     0.160 A 
ATOM      9  C   UNL     1      96.723  82.907  81.546  1.00  0.00     0.054 A 
ATOM     10  C   UNL     1      96.925  80.649  82.383  1.00  0.00     0.157 A 
ATOM     11  C   UNL     1      97.340  80.220  81.121  1.00  0.00     0.050 A 
ATOM     12  C   UNL     1      97.446  81.134  80.073  1.00  0.00     0.008 A 
BRANCH   8  13
ATOM     13  O   UNL     1      96.211  82.425  83.821  1.00  0.00    -0.493 OA
ATOM     14  C   UNL     1      94.812  82.625  84.008  1.00  0.00     0.278 C 
ENDBRANCH   8  13
BRANCH  10  15
ATOM     15  O   UNL     1      96.825  79.747  83.398  1.00  0.00    -0.504 OA
ATOM     16  H   UNL     1      95.924  79.382  83.394  1.00  0.00     0.293 HD
ENDBRANCH  10  15
ENDBRANCH   6   7
ENDBRANCH   5   6
ENDBRANCH   3   5
ENDBRANCH   2   3
BRANCH   1  17
ATOM     17  C   UNL     1     100.891  82.659  75.654  1.00  0.00     0.027 C 
BRANCH  17  18
ATOM     18  C   UNL     1     101.970  82.012  76.528  1.00  0.00     0.004 C 
BRANCH  18  19
ATOM     19  C   UNL     1     101.443  81.490  77.868  1.00  0.00     0.000 C 
BRANCH  19  20
ATOM     20  C   UNL     1     102.323  80.359  78.404  1.00  0.00    -0.003 C 
ATOM     21  C   UNL     1     103.640  80.888  78.948  1.00  0.00     0.004 C 
ENDBRANCH  19  20
ENDBRANCH  18  19
ENDBRANCH  17  18
ENDBRANCH   1  17
TORSDOF 10
ENDMDL
MODEL 10
REMARK VINA RESULT:    -5.412      4.624      7.182
REMARK INTER + INTRA:          -8.951
REMARK INTER:                  -7.662
REMARK INTRA:                  -1.289
REMARK UNBOUND:                -0.534
REMARK SMILES CCCCC/C=C/C(=O)CCc1ccc(O)c(OC)c1
REMARK SMILES IDX 6 1 7 2 8 3 9 4 10 5 11 6 12 7 17 8 20 9 15 10 14 11 13 12
REMARK SMILES IDX 18 13 19 14 16 15 5 17 4 18 3 19 2 20 1 21
REMARK H PARENT 16 16
REMARK Flexibility Score: inf
ROOT
ATOM      1  C   UNL     1      92.473  78.828  84.293  1.00  0.00    -0.023 C 
ATOM      2  C   UNL     1      91.137  78.759  84.233  1.00  0.00     0.043 C 
ENDROOT
BRANCH   2   3
ATOM      3  C   UNL     1      90.339  80.000  84.037  1.00  0.00     0.155 C 
ATOM      4  O   UNL     1      89.110  79.982  84.005  1.00  0.00    -0.295 OA
BRANCH   3   5
ATOM      5  C   UNL     1      91.122  81.281  83.826  1.00  0.00     0.085 C 
BRANCH   5   6
ATOM      6  C   UNL     1      91.371  82.005  85.150  1.00  0.00     0.044 C 
BRANCH   6   7
ATOM      7  C   UNL     1      92.699  82.724  85.185  1.00  0.00    -0.044 A 
ATOM      8  C   UNL     1      94.173  84.306  86.225  1.00  0.00     0.160 A 
ATOM      9  C   UNL     1      92.946  83.643  86.192  1.00  0.00     0.054 A 
ATOM     10  C   UNL     1      95.135  84.043  85.250  1.00  0.00     0.157 A 
ATOM     11  C   UNL     1      94.870  83.115  84.242  1.00  0.00     0.050 A 
ATOM     12  C   UNL     1      93.644  82.451  84.210  1.00  0.00     0.008 A 
BRANCH   8  13
ATOM     13  O   UNL     1      94.419  85.211  87.214  1.00  0.00    -0.493 OA
ATOM     14  C   UNL     1      93.347  86.076  87.583  1.00  0.00     0.278 C 
ENDBRANCH   8  13
BRANCH  10  15
ATOM     15  O   UNL     1      96.337  84.684  85.272  1.00  0.00    -0.504 OA
ATOM     16  H   UNL     1      96.386  85.212  86.087  1.00  0.00     0.293 HD
ENDBRANCH  10  15
ENDBRANCH   6   7
ENDBRANCH   5   6
ENDBRANCH   3   5
ENDBRANCH   2   3
BRANCH   1  17
ATOM     17  C   UNL     1      93.348  77.624  84.489  1.00  0.00     0.027 C 
BRANCH  17  18
ATOM     18  C   UNL     1      94.826  77.980  84.686  1.00  0.00     0.004 C 
BRANCH  18  19
ATOM     19  C   UNL     1      95.405  77.482  86.014  1.00  0.00     0.000 C 
BRANCH  19  20
ATOM     20  C   UNL     1      95.672  78.646  86.970  1.00  0.00    -0.003 C 
ATOM     21  C   UNL     1      95.483  79.988  86.281  1.00  0.00     0.004 C 
ENDBRANCH  19  20
ENDBRANCH  18  19
ENDBRANCH  17  18
ENDBRANCH   1  17
TORSDOF 10
ENDMDL
