MODEL 1
REMARK VINA RESULT:    -5.676      0.000      0.000
REMARK INTER + INTRA:          -9.882
REMARK INTER:                  -9.159
REMARK INTRA:                  -0.722
REMARK UNBOUND:                -0.722
REMARK SMILES CCCCCCCCC(=O)NCc1ccc(O)c(OC)c1
REMARK SMILES IDX 7 1 6 2 5 3 4 4 3 5 2 6 1 7 8 8 9 9 10 10 11 11 12 13 13 14
REMARK SMILES IDX 21 15 14 16 18 17 15 18 16 19 19 20 20 21 17 22
REMARK H PARENT 11 12 17 23
REMARK Flexibility Score: inf
ROOT
ATOM      1  C   UNL     1      97.501  80.775  77.558  1.00  0.00     0.010 C 
ENDROOT
BRANCH   1   2
ATOM      2  C   UNL     1      97.823  79.994  78.864  1.00  0.00     0.001 C 
BRANCH   2   3
ATOM      3  C   UNL     1      97.688  80.887  80.133  1.00  0.00     0.000 C 
BRANCH   3   4
ATOM      4  C   UNL     1      97.075  80.148  81.357  1.00  0.00    -0.000 C 
BRANCH   4   5
ATOM      5  C   UNL     1      96.294  81.103  82.304  1.00  0.00    -0.000 C 
BRANCH   5   6
ATOM      6  C   UNL     1      96.486  82.598  81.934  1.00  0.00    -0.003 C 
ATOM      7  C   UNL     1      96.234  83.548  83.125  1.00  0.00     0.004 C 
ENDBRANCH   5   6
ENDBRANCH   4   5
ENDBRANCH   3   4
ENDBRANCH   2   3
ENDBRANCH   1   2
BRANCH   1   8
ATOM      8  C   UNL     1      96.710  82.093  77.791  1.00  0.00     0.100 C 
BRANCH   8   9
ATOM      9  C   UNL     1      96.500  82.828  76.521  1.00  0.00     0.220 C 
ATOM     10  O   UNL     1      95.462  83.523  76.400  1.00  0.00    -0.275 OA
ATOM     11  N   UNL     1      97.430  82.770  75.523  1.00  0.00    -0.352 N 
ATOM     12  H   UNL     1      98.181  82.116  75.690  1.00  0.00     0.163 HD
BRANCH  11  13
ATOM     13  C   UNL     1      97.412  83.540  74.317  1.00  0.00     0.151 C 
BRANCH  13  14
ATOM     14  C   UNL     1      98.532  83.230  73.389  1.00  0.00    -0.025 A 
ATOM     15  C   UNL     1      98.831  81.887  73.057  1.00  0.00     0.056 A 
ATOM     16  C   UNL     1      99.316  84.263  72.826  1.00  0.00     0.009 A 
ATOM     17  C   UNL     1      99.881  81.578  72.162  1.00  0.00     0.160 A 
ATOM     18  C   UNL     1     100.362  83.962  71.935  1.00  0.00     0.050 A 
ATOM     19  C   UNL     1     100.652  82.624  71.607  1.00  0.00     0.157 A 
BRANCH  17  20
ATOM     20  O   UNL     1     100.196  80.274  71.874  1.00  0.00    -0.493 OA
ATOM     21  C   UNL     1      99.071  79.470  71.478  1.00  0.00     0.278 C 
ENDBRANCH  17  20
BRANCH  19  22
ATOM     22  O   UNL     1     101.681  82.343  70.767  1.00  0.00    -0.504 OA
ATOM     23  H   UNL     1     101.524  81.496  70.341  1.00  0.00     0.293 HD
ENDBRANCH  19  22
ENDBRANCH  13  14
ENDBRANCH  11  13
ENDBRANCH   8   9
ENDBRANCH   1   8
TORSDOF 11
ENDMDL
MODEL 2
REMARK VINA RESULT:    -5.660     16.504     18.395
REMARK INTER + INTRA:          -9.857
REMARK INTER:                  -9.106
REMARK INTRA:                  -0.751
REMARK UNBOUND:                -0.722
REMARK SMILES CCCCCCCCC(=O)NCc1ccc(O)c(OC)c1
REMARK SMILES IDX 7 1 6 2 5 3 4 4 3 5 2 6 1 7 8 8 9 9 10 10 11 11 12 13 13 14
REMARK SMILES IDX 21 15 14 16 18 17 15 18 16 19 19 20 20 21 17 22
REMARK H PARENT 11 12 17 23
REMARK Flexibility Score: inf
ROOT
ATOM      1  C   UNL     1      93.896  98.192  73.543  1.00  0.00     0.010 C 
ENDROOT
BRANCH   1   2
ATOM      2  C   UNL     1      94.711  97.416  74.617  1.00  0.00     0.001 C 
BRANCH   2   3
ATOM      3  C   UNL     1      94.909  95.918  74.238  1.00  0.00     0.000 C 
BRANCH   3   4
ATOM      4  C   UNL     1      94.083  94.935  75.114  1.00  0.00    -0.000 C 
BRANCH   4   5
ATOM      5  C   UNL     1      92.853  95.615  75.781  1.00  0.00    -0.000 C 
BRANCH   5   6
ATOM      6  C   UNL     1      92.777  95.343  77.308  1.00  0.00    -0.003 C 
ATOM      7  C   UNL     1      94.170  95.222  77.966  1.00  0.00     0.004 C 
ENDBRANCH   5   6
ENDBRANCH   4   5
ENDBRANCH   3   4
ENDBRANCH   2   3
ENDBRANCH   1   2
BRANCH   1   8
ATOM      8  C   UNL     1      94.763  99.113  72.639  1.00  0.00     0.100 C 
BRANCH   8   9
ATOM      9  C   UNL     1      93.920 100.036  71.843  1.00  0.00     0.220 C 
ATOM     10  O   UNL     1      94.489 100.918  71.154  1.00  0.00    -0.275 OA
ATOM     11  N   UNL     1      92.561  99.907  71.840  1.00  0.00    -0.352 N 
ATOM     12  H   UNL     1      92.205  99.225  72.493  1.00  0.00     0.163 HD
BRANCH  11  13
ATOM     13  C   UNL     1      91.653 100.639  71.010  1.00  0.00     0.151 C 
BRANCH  13  14
ATOM     14  C   UNL     1      90.925  99.795  70.025  1.00  0.00    -0.025 A 
ATOM     15  C   UNL     1      90.943 100.130  68.650  1.00  0.00     0.056 A 
ATOM     16  C   UNL     1      90.203  98.652  70.440  1.00  0.00     0.009 A 
ATOM     17  C   UNL     1      90.270  99.328  67.700  1.00  0.00     0.160 A 
ATOM     18  C   UNL     1      89.533  97.850  69.500  1.00  0.00     0.050 A 
ATOM     19  C   UNL     1      89.557  98.187  68.133  1.00  0.00     0.157 A 
BRANCH  17  20
ATOM     20  O   UNL     1      90.253  99.678  66.373  1.00  0.00    -0.493 OA
ATOM     21  C   UNL     1      91.030 100.848  66.063  1.00  0.00     0.278 C 
ENDBRANCH  17  20
BRANCH  19  22
ATOM     22  O   UNL     1      88.884  97.421  67.236  1.00  0.00    -0.504 OA
ATOM     23  H   UNL     1      88.523  96.651  67.681  1.00  0.00     0.293 HD
ENDBRANCH  19  22
ENDBRANCH  13  14
ENDBRANCH  11  13
ENDBRANCH   8   9
ENDBRANCH   1   8
TORSDOF 11
ENDMDL
MODEL 3
REMARK VINA RESULT:    -5.638     21.535     24.067
REMARK INTER + INTRA:          -9.821
REMARK INTER:                  -8.161
REMARK INTRA:                  -1.660
REMARK UNBOUND:                -0.722
REMARK SMILES CCCCCCCCC(=O)NCc1ccc(O)c(OC)c1
REMARK SMILES IDX 7 1 6 2 5 3 4 4 3 5 2 6 1 7 8 8 9 9 10 10 11 11 12 13 13 14
REMARK SMILES IDX 21 15 14 16 18 17 15 18 16 19 19 20 20 21 17 22
REMARK H PARENT 11 12 17 23
REMARK Flexibility Score: inf
ROOT
ATOM      1  C   UNL     1      89.420  99.027  69.746  1.00  0.00     0.010 C 
ENDROOT
BRANCH   1   2
ATOM      2  C   UNL     1      90.664  99.211  70.662  1.00  0.00     0.001 C 
BRANCH   2   3
ATOM      3  C   UNL     1      91.448 100.516  70.335  1.00  0.00     0.000 C 
BRANCH   3   4
ATOM      4  C   UNL     1      90.564 101.645  69.736  1.00  0.00    -0.000 C 
BRANCH   4   5
ATOM      5  C   UNL     1      91.170 102.260  68.442  1.00  0.00    -0.000 C 
BRANCH   5   6
ATOM      6  C   UNL     1      91.987 101.228  67.618  1.00  0.00    -0.003 C 
ATOM      7  C   UNL     1      91.769 101.369  66.096  1.00  0.00     0.004 C 
ENDBRANCH   5   6
ENDBRANCH   4   5
ENDBRANCH   3   4
ENDBRANCH   2   3
ENDBRANCH   1   2
BRANCH   1   8
ATOM      8  C   UNL     1      89.711  98.232  68.442  1.00  0.00     0.100 C 
BRANCH   8   9
ATOM      9  C   UNL     1      89.013  98.830  67.279  1.00  0.00     0.220 C 
ATOM     10  O   UNL     1      89.503  98.657  66.137  1.00  0.00    -0.275 OA
ATOM     11  N   UNL     1      87.850  99.525  67.449  1.00  0.00    -0.352 N 
ATOM     12  H   UNL     1      87.592  99.677  68.413  1.00  0.00     0.163 HD
BRANCH  11  13
ATOM     13  C   UNL     1      87.013 100.025  66.401  1.00  0.00     0.151 C 
BRANCH  13  14
ATOM     14  C   UNL     1      87.016 101.507  66.285  1.00  0.00    -0.025 A 
ATOM     15  C   UNL     1      85.800 102.210  66.103  1.00  0.00     0.056 A 
ATOM     16  C   UNL     1      88.224 102.239  66.350  1.00  0.00     0.009 A 
ATOM     17  C   UNL     1      85.785 103.620  66.009  1.00  0.00     0.160 A 
ATOM     18  C   UNL     1      88.215 103.643  66.259  1.00  0.00     0.050 A 
ATOM     19  C   UNL     1      87.002 104.335  66.081  1.00  0.00     0.157 A 
BRANCH  17  20
ATOM     20  O   UNL     1      84.611 104.296  65.791  1.00  0.00    -0.493 OA
ATOM     21  C   UNL     1      84.253 104.421  64.403  1.00  0.00     0.278 C 
ENDBRANCH  17  20
BRANCH  19  22
ATOM     22  O   UNL     1      87.008 105.688  65.965  1.00  0.00    -0.504 OA
ATOM     23  H   UNL     1      86.620 105.939  65.123  1.00  0.00     0.293 HD
ENDBRANCH  19  22
ENDBRANCH  13  14
ENDBRANCH  11  13
ENDBRANCH   8   9
ENDBRANCH   1   8
TORSDOF 11
ENDMDL
MODEL 4
REMARK VINA RESULT:    -5.604      1.595      2.290
REMARK INTER + INTRA:          -9.765
REMARK INTER:                  -9.073
REMARK INTRA:                  -0.692
REMARK UNBOUND:                -0.722
REMARK SMILES CCCCCCCCC(=O)NCc1ccc(O)c(OC)c1
REMARK SMILES IDX 7 1 6 2 5 3 4 4 3 5 2 6 1 7 8 8 9 9 10 10 11 11 12 13 13 14
REMARK SMILES IDX 21 15 14 16 18 17 15 18 16 19 19 20 20 21 17 22
REMARK H PARENT 11 12 17 23
REMARK Flexibility Score: inf
ROOT
ATOM      1  C   UNL     1      96.834  81.615  77.831  1.00  0.00     0.010 C 
ENDROOT
BRANCH   1   2
ATOM      2  C   UNL     1      97.683  82.062  79.056  1.00  0.00     0.001 C 
BRANCH   2   3
ATOM      3  C   UNL     1      96.886  81.965  80.391  1.00  0.00     0.000 C 
BRANCH   3   4
ATOM      4  C   UNL     1      97.294  80.755  81.278  1.00  0.00    -0.000 C 
BRANCH   4   5
ATOM      5  C   UNL     1      96.282  80.487  82.429  1.00  0.00    -0.000 C 
BRANCH   5   6
ATOM      6  C   UNL     1      96.062  81.733  83.330  1.00  0.00    -0.003 C 
ATOM      7  C   UNL     1      94.712  81.700  84.079  1.00  0.00     0.004 C 
ENDBRANCH   5   6
ENDBRANCH   4   5
ENDBRANCH   3   4
ENDBRANCH   2   3
ENDBRANCH   1   2
BRANCH   1   8
ATOM      8  C   UNL     1      95.818  82.686  77.346  1.00  0.00     0.100 C 
BRANCH   8   9
ATOM      9  C   UNL     1      96.162  83.183  75.991  1.00  0.00     0.220 C 
ATOM     10  O   UNL     1      95.738  84.311  75.646  1.00  0.00    -0.275 OA
ATOM     11  N   UNL     1      96.945  82.437  75.158  1.00  0.00    -0.352 N 
ATOM     12  H   UNL     1      97.158  81.512  75.501  1.00  0.00     0.163 HD
BRANCH  11  13
ATOM     13  C   UNL     1      97.460  82.863  73.892  1.00  0.00     0.151 C 
BRANCH  13  14
ATOM     14  C   UNL     1      98.921  82.634  73.730  1.00  0.00    -0.025 A 
ATOM     15  C   UNL     1      99.594  83.115  72.581  1.00  0.00     0.056 A 
ATOM     16  C   UNL     1      99.660  81.934  74.711  1.00  0.00     0.009 A 
ATOM     17  C   UNL     1     100.985  82.920  72.421  1.00  0.00     0.160 A 
ATOM     18  C   UNL     1     101.045  81.738  74.558  1.00  0.00     0.050 A 
ATOM     19  C   UNL     1     101.708  82.221  73.414  1.00  0.00     0.157 A 
BRANCH  17  20
ATOM     20  O   UNL     1     101.628  83.349  71.287  1.00  0.00    -0.493 OA
ATOM     21  C   UNL     1     101.908  84.760  71.268  1.00  0.00     0.278 C 
ENDBRANCH  17  20
BRANCH  19  22
ATOM     22  O   UNL     1     103.040  82.003  73.263  1.00  0.00    -0.504 OA
ATOM     23  H   UNL     1     103.402  82.647  72.649  1.00  0.00     0.293 HD
ENDBRANCH  19  22
ENDBRANCH  13  14
ENDBRANCH  11  13
ENDBRANCH   8   9
ENDBRANCH   1   8
TORSDOF 11
ENDMDL
MODEL 5
REMARK VINA RESULT:    -5.586      2.059      3.487
REMARK INTER + INTRA:          -9.737
REMARK INTER:                  -8.644
REMARK INTRA:                  -1.093
REMARK UNBOUND:                -0.722
REMARK SMILES CCCCCCCCC(=O)NCc1ccc(O)c(OC)c1
REMARK SMILES IDX 7 1 6 2 5 3 4 4 3 5 2 6 1 7 8 8 9 9 10 10 11 11 12 13 13 14
REMARK SMILES IDX 21 15 14 16 18 17 15 18 16 19 19 20 20 21 17 22
REMARK H PARENT 11 12 17 23
REMARK Flexibility Score: inf
ROOT
ATOM      1  C   UNL     1      97.171  82.055  78.007  1.00  0.00     0.010 C 
ENDROOT
BRANCH   1   2
ATOM      2  C   UNL     1      97.159  81.967  79.560  1.00  0.00     0.001 C 
BRANCH   2   3
ATOM      3  C   UNL     1      97.846  80.671  80.082  1.00  0.00     0.000 C 
BRANCH   3   4
ATOM      4  C   UNL     1      99.355  80.571  79.717  1.00  0.00    -0.000 C 
BRANCH   4   5
ATOM      5  C   UNL     1      99.660  79.399  78.741  1.00  0.00    -0.000 C 
BRANCH   5   6
ATOM      6  C   UNL     1     100.096  79.892  77.336  1.00  0.00    -0.003 C 
ATOM      7  C   UNL     1     101.615  79.753  77.095  1.00  0.00     0.004 C 
ENDBRANCH   5   6
ENDBRANCH   4   5
ENDBRANCH   3   4
ENDBRANCH   2   3
ENDBRANCH   1   2
BRANCH   1   8
ATOM      8  C   UNL     1      95.853  82.610  77.398  1.00  0.00     0.100 C 
BRANCH   8   9
ATOM      9  C   UNL     1      96.087  83.218  76.067  1.00  0.00     0.220 C 
ATOM     10  O   UNL     1      95.600  84.351  75.836  1.00  0.00    -0.275 OA
ATOM     11  N   UNL     1      96.840  82.569  75.130  1.00  0.00    -0.352 N 
ATOM     12  H   UNL     1      97.109  81.631  75.388  1.00  0.00     0.163 HD
BRANCH  11  13
ATOM     13  C   UNL     1      97.253  83.108  73.871  1.00  0.00     0.151 C 
BRANCH  13  14
ATOM     14  C   UNL     1      98.726  83.086  73.661  1.00  0.00    -0.025 A 
ATOM     15  C   UNL     1      99.326  83.966  72.729  1.00  0.00     0.056 A 
ATOM     16  C   UNL     1      99.549  82.189  74.381  1.00  0.00     0.009 A 
ATOM     17  C   UNL     1     100.726  83.968  72.532  1.00  0.00     0.160 A 
ATOM     18  C   UNL     1     100.942  82.187  74.190  1.00  0.00     0.050 A 
ATOM     19  C   UNL     1     101.533  83.068  73.263  1.00  0.00     0.157 A 
BRANCH  17  20
ATOM     20  O   UNL     1     101.301  84.792  71.598  1.00  0.00    -0.493 OA
ATOM     21  C   UNL     1     101.352  84.235  70.272  1.00  0.00     0.278 C 
ENDBRANCH  17  20
BRANCH  19  22
ATOM     22  O   UNL     1     102.876  83.039  73.066  1.00  0.00    -0.504 OA
ATOM     23  H   UNL     1     103.212  82.166  73.282  1.00  0.00     0.293 HD
ENDBRANCH  19  22
ENDBRANCH  13  14
ENDBRANCH  11  13
ENDBRANCH   8   9
ENDBRANCH   1   8
TORSDOF 11
ENDMDL
MODEL 6
REMARK VINA RESULT:    -5.584     13.088     16.227
REMARK INTER + INTRA:          -9.735
REMARK INTER:                  -8.765
REMARK INTRA:                  -0.970
REMARK UNBOUND:                -0.722
REMARK SMILES CCCCCCCCC(=O)NCc1ccc(O)c(OC)c1
REMARK SMILES IDX 7 1 6 2 5 3 4 4 3 5 2 6 1 7 8 8 9 9 10 10 11 11 12 13 13 14
REMARK SMILES IDX 21 15 14 16 18 17 15 18 16 19 19 20 20 21 17 22
REMARK H PARENT 11 12 17 23
REMARK Flexibility Score: inf
ROOT
ATOM      1  C   UNL     1      95.089  93.709  77.980  1.00  0.00     0.010 C 
ENDROOT
BRANCH   1   2
ATOM      2  C   UNL     1      94.390  95.099  77.965  1.00  0.00     0.001 C 
BRANCH   2   3
ATOM      3  C   UNL     1      94.151  95.622  76.518  1.00  0.00     0.000 C 
BRANCH   3   4
ATOM      4  C   UNL     1      92.757  95.248  75.939  1.00  0.00    -0.000 C 
BRANCH   4   5
ATOM      5  C   UNL     1      91.593  95.582  76.915  1.00  0.00    -0.000 C 
BRANCH   5   6
ATOM      6  C   UNL     1      90.616  94.390  77.106  1.00  0.00    -0.003 C 
ATOM      7  C   UNL     1      91.284  93.169  77.776  1.00  0.00     0.004 C 
ENDBRANCH   5   6
ENDBRANCH   4   5
ENDBRANCH   3   4
ENDBRANCH   2   3
ENDBRANCH   1   2
BRANCH   1   8
ATOM      8  C   UNL     1      94.820  92.883  79.269  1.00  0.00     0.100 C 
BRANCH   8   9
ATOM      9  C   UNL     1      95.717  93.298  80.374  1.00  0.00     0.220 C 
ATOM     10  O   UNL     1      95.552  92.776  81.503  1.00  0.00    -0.275 OA
ATOM     11  N   UNL     1      96.714  94.204  80.155  1.00  0.00    -0.352 N 
ATOM     12  H   UNL     1      96.702  94.624  79.237  1.00  0.00     0.163 HD
BRANCH  11  13
ATOM     13  C   UNL     1      97.726  94.578  81.095  1.00  0.00     0.151 C 
BRANCH  13  14
ATOM     14  C   UNL     1      97.466  95.874  81.776  1.00  0.00    -0.025 A 
ATOM     15  C   UNL     1      98.211  96.238  82.923  1.00  0.00     0.056 A 
ATOM     16  C   UNL     1      96.474  96.760  81.296  1.00  0.00     0.009 A 
ATOM     17  C   UNL     1      97.986  97.475  83.571  1.00  0.00     0.160 A 
ATOM     18  C   UNL     1      96.247  97.992  81.935  1.00  0.00     0.050 A 
ATOM     19  C   UNL     1      96.994  98.350  83.074  1.00  0.00     0.157 A 
BRANCH  17  20
ATOM     20  O   UNL     1      98.680  97.808  84.707  1.00  0.00    -0.493 OA
ATOM     21  C   UNL     1      99.323  96.694  85.351  1.00  0.00     0.278 C 
ENDBRANCH  17  20
BRANCH  19  22
ATOM     22  O   UNL     1      96.748  99.529  83.700  1.00  0.00    -0.504 OA
ATOM     23  H   UNL     1      96.169 100.066  83.154  1.00  0.00     0.293 HD
ENDBRANCH  19  22
ENDBRANCH  13  14
ENDBRANCH  11  13
ENDBRANCH   8   9
ENDBRANCH   1   8
TORSDOF 11
ENDMDL
MODEL 7
REMARK VINA RESULT:    -5.501      2.908      7.619
REMARK INTER + INTRA:          -9.599
REMARK INTER:                  -8.419
REMARK INTRA:                  -1.180
REMARK UNBOUND:                -0.722
REMARK SMILES CCCCCCCCC(=O)NCc1ccc(O)c(OC)c1
REMARK SMILES IDX 7 1 6 2 5 3 4 4 3 5 2 6 1 7 8 8 9 9 10 10 11 11 12 13 13 14
REMARK SMILES IDX 21 15 14 16 18 17 15 18 16 19 19 20 20 21 17 22
REMARK H PARENT 11 12 17 23
REMARK Flexibility Score: inf
ROOT
ATOM      1  C   UNL     1      97.806  81.762  73.881  1.00  0.00     0.010 C 
ENDROOT
BRANCH   1   2
ATOM      2  C   UNL     1      98.893  82.675  73.243  1.00  0.00     0.001 C 
BRANCH   2   3
ATOM      3  C   UNL     1     100.078  82.948  74.216  1.00  0.00     0.000 C 
BRANCH   3   4
ATOM      4  C   UNL     1     101.424  82.321  73.756  1.00  0.00    -0.000 C 
BRANCH   4   5
ATOM      5  C   UNL     1     101.580  80.839  74.202  1.00  0.00    -0.000 C 
BRANCH   5   6
ATOM      6  C   UNL     1     101.018  80.584  75.627  1.00  0.00    -0.003 C 
ATOM      7  C   UNL     1     102.005  79.816  76.533  1.00  0.00     0.004 C 
ENDBRANCH   5   6
ENDBRANCH   4   5
ENDBRANCH   3   4
ENDBRANCH   2   3
ENDBRANCH   1   2
BRANCH   1   8
ATOM      8  C   UNL     1      96.429  82.458  74.065  1.00  0.00     0.100 C 
BRANCH   8   9
ATOM      9  C   UNL     1      96.250  82.943  75.455  1.00  0.00     0.220 C 
ATOM     10  O   UNL     1      95.650  84.030  75.633  1.00  0.00    -0.275 OA
ATOM     11  N   UNL     1      96.704  82.206  76.511  1.00  0.00    -0.352 N 
ATOM     12  H   UNL     1      97.247  81.396  76.251  1.00  0.00     0.163 HD
BRANCH  11  13
ATOM     13  C   UNL     1      96.470  82.494  77.893  1.00  0.00     0.151 C 
BRANCH  13  14
ATOM     14  C   UNL     1      97.331  81.716  78.823  1.00  0.00    -0.025 A 
ATOM     15  C   UNL     1      97.090  81.753  80.217  1.00  0.00     0.056 A 
ATOM     16  C   UNL     1      98.402  80.931  78.337  1.00  0.00     0.009 A 
ATOM     17  C   UNL     1      97.889  81.005  81.112  1.00  0.00     0.160 A 
ATOM     18  C   UNL     1      99.200  80.184  79.222  1.00  0.00     0.050 A 
ATOM     19  C   UNL     1      98.953  80.224  80.607  1.00  0.00     0.157 A 
BRANCH  17  20
ATOM     20  O   UNL     1      97.680  81.076  82.466  1.00  0.00    -0.493 OA
ATOM     21  C   UNL     1      96.340  80.744  82.873  1.00  0.00     0.278 C 
ENDBRANCH  17  20
BRANCH  19  22
ATOM     22  O   UNL     1      99.745  79.520  81.456  1.00  0.00    -0.504 OA
ATOM     23  H   UNL     1     100.501  79.175  80.975  1.00  0.00     0.293 HD
ENDBRANCH  19  22
ENDBRANCH  13  14
ENDBRANCH  11  13
ENDBRANCH   8   9
ENDBRANCH   1   8
TORSDOF 11
ENDMDL
MODEL 8
REMARK VINA RESULT:    -5.422     19.927     22.250
REMARK INTER + INTRA:          -9.473
REMARK INTER:                  -8.600
REMARK INTRA:                  -0.873
REMARK UNBOUND:                -0.722
REMARK SMILES CCCCCCCCC(=O)NCc1ccc(O)c(OC)c1
REMARK SMILES IDX 7 1 6 2 5 3 4 4 3 5 2 6 1 7 8 8 9 9 10 10 11 11 12 13 13 14
REMARK SMILES IDX 21 15 14 16 18 17 15 18 16 19 19 20 20 21 17 22
REMARK H PARENT 11 12 17 23
REMARK Flexibility Score: inf
ROOT
ATOM      1  C   UNL     1      89.836  99.024  70.757  1.00  0.00     0.010 C 
ENDROOT
BRANCH   1   2
ATOM      2  C   UNL     1      90.863 100.120  70.352  1.00  0.00     0.001 C 
BRANCH   2   3
ATOM      3  C   UNL     1      91.819 100.493  71.523  1.00  0.00     0.000 C 
BRANCH   3   4
ATOM      4  C   UNL     1      92.544  99.271  72.155  1.00  0.00    -0.000 C 
BRANCH   4   5
ATOM      5  C   UNL     1      93.943  99.634  72.729  1.00  0.00    -0.000 C 
BRANCH   5   6
ATOM      6  C   UNL     1      95.103  98.975  71.934  1.00  0.00    -0.003 C 
ATOM      7  C   UNL     1      94.771  98.782  70.438  1.00  0.00     0.004 C 
ENDBRANCH   5   6
ENDBRANCH   4   5
ENDBRANCH   3   4
ENDBRANCH   2   3
ENDBRANCH   1   2
BRANCH   1   8
ATOM      8  C   UNL     1      89.795  97.810  69.787  1.00  0.00     0.100 C 
BRANCH   8   9
ATOM      9  C   UNL     1      89.497  98.238  68.399  1.00  0.00     0.220 C 
ATOM     10  O   UNL     1      90.280  97.885  67.486  1.00  0.00    -0.275 OA
ATOM     11  N   UNL     1      88.380  98.974  68.125  1.00  0.00    -0.352 N 
ATOM     12  H   UNL     1      87.868  99.276  68.941  1.00  0.00     0.163 HD
BRANCH  11  13
ATOM     13  C   UNL     1      87.910  99.325  66.820  1.00  0.00     0.151 C 
BRANCH  13  14
ATOM     14  C   UNL     1      87.797 100.792  66.596  1.00  0.00    -0.025 A 
ATOM     15  C   UNL     1      88.937 101.621  66.721  1.00  0.00     0.056 A 
ATOM     16  C   UNL     1      86.557 101.382  66.261  1.00  0.00     0.009 A 
ATOM     17  C   UNL     1      88.849 103.014  66.494  1.00  0.00     0.160 A 
ATOM     18  C   UNL     1      86.463 102.767  66.033  1.00  0.00     0.050 A 
ATOM     19  C   UNL     1      87.601 103.586  66.156  1.00  0.00     0.157 A 
BRANCH  17  20
ATOM     20  O   UNL     1      89.946 103.822  66.657  1.00  0.00    -0.493 OA
ATOM     21  C   UNL     1      90.888 103.760  65.572  1.00  0.00     0.278 C 
ENDBRANCH  17  20
BRANCH  19  22
ATOM     22  O   UNL     1      87.495 104.925  65.961  1.00  0.00    -0.504 OA
ATOM     23  H   UNL     1      88.271 105.243  65.495  1.00  0.00     0.293 HD
ENDBRANCH  19  22
ENDBRANCH  13  14
ENDBRANCH  11  13
ENDBRANCH   8   9
ENDBRANCH   1   8
TORSDOF 11
ENDMDL
MODEL 9
REMARK VINA RESULT:    -5.305     14.119     16.447
REMARK INTER + INTRA:          -9.284
REMARK INTER:                  -8.558
REMARK INTRA:                  -0.726
REMARK UNBOUND:                -0.722
REMARK SMILES CCCCCCCCC(=O)NCc1ccc(O)c(OC)c1
REMARK SMILES IDX 7 1 6 2 5 3 4 4 3 5 2 6 1 7 8 8 9 9 10 10 11 11 12 13 13 14
REMARK SMILES IDX 21 15 14 16 18 17 15 18 16 19 19 20 20 21 17 22
REMARK H PARENT 11 12 17 23
REMARK Flexibility Score: inf
ROOT
ATOM      1  C   UNL     1      97.042  97.697  80.974  1.00  0.00     0.010 C 
ENDROOT
BRANCH   1   2
ATOM      2  C   UNL     1      96.653  99.162  81.326  1.00  0.00     0.001 C 
BRANCH   2   3
ATOM      3  C   UNL     1      96.292  99.329  82.832  1.00  0.00     0.000 C 
BRANCH   3   4
ATOM      4  C   UNL     1      95.828 100.765  83.209  1.00  0.00    -0.000 C 
BRANCH   4   5
ATOM      5  C   UNL     1      94.638 101.259  82.339  1.00  0.00    -0.000 C 
BRANCH   5   6
ATOM      6  C   UNL     1      95.049 102.383  81.350  1.00  0.00    -0.003 C 
ATOM      7  C   UNL     1      93.848 102.969  80.574  1.00  0.00     0.004 C 
ENDBRANCH   5   6
ENDBRANCH   4   5
ENDBRANCH   3   4
ENDBRANCH   2   3
ENDBRANCH   1   2
BRANCH   1   8
ATOM      8  C   UNL     1      96.324  96.628  81.844  1.00  0.00     0.100 C 
BRANCH   8   9
ATOM      9  C   UNL     1      96.083  95.382  81.079  1.00  0.00     0.220 C 
ATOM     10  O   UNL     1      95.539  94.417  81.668  1.00  0.00    -0.275 OA
ATOM     11  N   UNL     1      96.420  95.303  79.758  1.00  0.00    -0.352 N 
ATOM     12  H   UNL     1      96.928  96.102  79.408  1.00  0.00     0.163 HD
BRANCH  11  13
ATOM     13  C   UNL     1      96.112  94.215  78.880  1.00  0.00     0.151 C 
BRANCH  13  14
ATOM     14  C   UNL     1      94.733  94.261  78.326  1.00  0.00    -0.025 A 
ATOM     15  C   UNL     1      94.378  95.253  77.380  1.00  0.00     0.056 A 
ATOM     16  C   UNL     1      93.755  93.324  78.732  1.00  0.00     0.009 A 
ATOM     17  C   UNL     1      93.076  95.298  76.832  1.00  0.00     0.160 A 
ATOM     18  C   UNL     1      92.458  93.363  78.189  1.00  0.00     0.050 A 
ATOM     19  C   UNL     1      92.112  94.351  77.247  1.00  0.00     0.157 A 
BRANCH  17  20
ATOM     20  O   UNL     1      92.721  96.286  75.947  1.00  0.00    -0.493 OA
ATOM     21  C   UNL     1      93.631  96.442  74.844  1.00  0.00     0.278 C 
ENDBRANCH  17  20
BRANCH  19  22
ATOM     22  O   UNL     1      90.850  94.398  76.749  1.00  0.00    -0.504 OA
ATOM     23  H   UNL     1      90.650  95.294  76.469  1.00  0.00     0.293 HD
ENDBRANCH  19  22
ENDBRANCH  13  14
ENDBRANCH  11  13
ENDBRANCH   8   9
ENDBRANCH   1   8
TORSDOF 11
ENDMDL
MODEL 10
REMARK VINA RESULT:    -5.199      2.734      8.270
REMARK INTER + INTRA:          -9.112
REMARK INTER:                  -8.336
REMARK INTRA:                  -0.777
REMARK UNBOUND:                -0.722
REMARK SMILES CCCCCCCCC(=O)NCc1ccc(O)c(OC)c1
REMARK SMILES IDX 7 1 6 2 5 3 4 4 3 5 2 6 1 7 8 8 9 9 10 10 11 11 12 13 13 14
REMARK SMILES IDX 21 15 14 16 18 17 15 18 16 19 19 20 20 21 17 22
REMARK H PARENT 11 12 17 23
REMARK Flexibility Score: inf
ROOT
ATOM      1  C   UNL     1      97.718  81.582  73.912  1.00  0.00     0.010 C 
ENDROOT
BRANCH   1   2
ATOM      2  C   UNL     1      98.810  82.496  73.285  1.00  0.00     0.001 C 
BRANCH   2   3
ATOM      3  C   UNL     1      99.891  82.919  74.323  1.00  0.00     0.000 C 
BRANCH   3   4
ATOM      4  C   UNL     1     100.781  84.104  73.853  1.00  0.00    -0.000 C 
BRANCH   4   5
ATOM      5  C   UNL     1     101.862  83.671  72.823  1.00  0.00    -0.000 C 
BRANCH   5   6
ATOM      6  C   UNL     1     101.590  84.231  71.401  1.00  0.00    -0.003 C 
ATOM      7  C   UNL     1     101.888  83.206  70.284  1.00  0.00     0.004 C 
ENDBRANCH   5   6
ENDBRANCH   4   5
ENDBRANCH   3   4
ENDBRANCH   2   3
ENDBRANCH   1   2
BRANCH   1   8
ATOM      8  C   UNL     1      96.349  82.289  74.121  1.00  0.00     0.100 C 
BRANCH   8   9
ATOM      9  C   UNL     1      96.219  82.817  75.500  1.00  0.00     0.220 C 
ATOM     10  O   UNL     1      95.570  83.877  75.673  1.00  0.00    -0.275 OA
ATOM     11  N   UNL     1      96.768  82.145  76.555  1.00  0.00    -0.352 N 
ATOM     12  H   UNL     1      97.340  81.355  76.294  1.00  0.00     0.163 HD
BRANCH  11  13
ATOM     13  C   UNL     1      96.593  82.473  77.937  1.00  0.00     0.151 C 
BRANCH  13  14
ATOM     14  C   UNL     1      97.465  81.692  78.855  1.00  0.00    -0.025 A 
ATOM     15  C   UNL     1      97.235  81.721  80.251  1.00  0.00     0.056 A 
ATOM     16  C   UNL     1      98.534  80.914  78.355  1.00  0.00     0.009 A 
ATOM     17  C   UNL     1      98.045  80.971  81.135  1.00  0.00     0.160 A 
ATOM     18  C   UNL     1      99.342  80.164  79.228  1.00  0.00     0.050 A 
ATOM     19  C   UNL     1      99.107  80.196  80.616  1.00  0.00     0.157 A 
BRANCH  17  20
ATOM     20  O   UNL     1      97.847  81.033  82.491  1.00  0.00    -0.493 OA
ATOM     21  C   UNL     1      97.198  82.238  82.937  1.00  0.00     0.278 C 
ENDBRANCH  17  20
BRANCH  19  22
ATOM     22  O   UNL     1      99.909  79.490  81.454  1.00  0.00    -0.504 OA
ATOM     23  H   UNL     1      99.383  79.124  82.169  1.00  0.00     0.293 HD
ENDBRANCH  19  22
ENDBRANCH  13  14
ENDBRANCH  11  13
ENDBRANCH   8   9
ENDBRANCH   1   8
TORSDOF 11
ENDMDL
