MODEL 1
REMARK VINA RESULT:    -5.555      0.000      0.000
REMARK INTER + INTRA:         -10.791
REMARK INTER:                  -8.639
REMARK INTRA:                  -2.152
REMARK UNBOUND:                -2.152
REMARK SMILES COc1cc(CNC(=O)CCCC/C=C/C(C)C)ccc1O
REMARK SMILES IDX 10 1 8 2 7 3 9 5 6 6 5 7 3 8 21 9 4 10 20 11 19 12 2 13 1 14
REMARK SMILES IDX 22 15 11 17 12 18 13 19 14 20 15 21 16 22 17 23 18 24
REMARK H PARENT 7 4 22 16
REMARK Flexibility Score: inf
ROOT
ATOM      1  C   UNL     1      73.375  89.713  69.038  1.00  0.00     0.100 C 
ENDROOT
BRANCH   1   2
ATOM      2  C   UNL     1      73.127  88.274  68.822  1.00  0.00     0.220 C 
ATOM      3  N   UNL     1      74.030  87.346  69.247  1.00  0.00    -0.352 N 
ATOM      4  H   UNL     1      74.860  87.726  69.682  1.00  0.00     0.163 HD
ATOM      5  O   UNL     1      72.057  87.935  68.262  1.00  0.00    -0.275 OA
BRANCH   3   6
ATOM      6  C   UNL     1      73.870  85.933  69.115  1.00  0.00     0.151 C 
BRANCH   6   7
ATOM      7  C   UNL     1      75.013  85.320  68.384  1.00  0.00    -0.025 A 
ATOM      8  C   UNL     1      75.853  83.846  66.599  1.00  0.00     0.160 A 
ATOM      9  C   UNL     1      77.179  84.157  66.966  1.00  0.00     0.157 A 
ATOM     10  C   UNL     1      74.784  84.428  67.312  1.00  0.00     0.056 A 
ATOM     11  C   UNL     1      77.423  85.029  68.045  1.00  0.00     0.050 A 
ATOM     12  C   UNL     1      76.349  85.615  68.743  1.00  0.00     0.009 A 
BRANCH   8  13
ATOM     13  O   UNL     1      75.611  82.946  65.593  1.00  0.00    -0.493 OA
ATOM     14  C   UNL     1      74.399  82.188  65.762  1.00  0.00     0.278 C 
ENDBRANCH   8  13
BRANCH   9  15
ATOM     15  O   UNL     1      78.231  83.624  66.292  1.00  0.00    -0.504 OA
ATOM     16  H   UNL     1      78.656  82.957  66.837  1.00  0.00     0.293 HD
ENDBRANCH   9  15
ENDBRANCH   6   7
ENDBRANCH   3   6
ENDBRANCH   1   2
BRANCH   1  17
ATOM     17  C   UNL     1      74.875  90.001  69.311  1.00  0.00     0.010 C 
BRANCH  17  18
ATOM     18  C   UNL     1      75.690  90.247  68.010  1.00  0.00     0.005 C 
BRANCH  18  19
ATOM     19  C   UNL     1      76.808  89.189  67.805  1.00  0.00     0.027 C 
BRANCH  19  20
ATOM     20  C   UNL     1      76.763  88.597  66.476  1.00  0.00    -0.031 C 
ATOM     21  C   UNL     1      75.724  87.888  65.999  1.00  0.00    -0.028 C 
BRANCH  21  22
ATOM     22  C   UNL     1      75.693  87.319  64.652  1.00  0.00     0.005 C 
ATOM     23  C   UNL     1      74.391  86.513  64.383  1.00  0.00     0.012 C 
ATOM     24  C   UNL     1      75.881  88.436  63.593  1.00  0.00     0.012 C 
ENDBRANCH  21  22
ENDBRANCH  19  20
ENDBRANCH  18  19
ENDBRANCH  17  18
ENDBRANCH   1  17
TORSDOF 10
ENDMDL
MODEL 2
REMARK VINA RESULT:    -5.405     18.779     21.319
REMARK INTER + INTRA:         -10.558
REMARK INTER:                  -9.896
REMARK INTRA:                  -0.662
REMARK UNBOUND:                -2.152
REMARK SMILES COc1cc(CNC(=O)CCCC/C=C/C(C)C)ccc1O
REMARK SMILES IDX 10 1 8 2 7 3 9 5 6 6 5 7 3 8 21 9 4 10 20 11 19 12 2 13 1 14
REMARK SMILES IDX 22 15 11 17 12 18 13 19 14 20 15 21 16 22 17 23 18 24
REMARK H PARENT 7 4 22 16
REMARK Flexibility Score: inf
ROOT
ATOM      1  C   UNL     1      94.071  99.294  72.505  1.00  0.00     0.100 C 
ENDROOT
BRANCH   1   2
ATOM      2  C   UNL     1      92.809  99.972  72.152  1.00  0.00     0.220 C 
ATOM      3  N   UNL     1      91.800  99.284  71.547  1.00  0.00    -0.352 N 
ATOM      4  H   UNL     1      92.003  98.313  71.351  1.00  0.00     0.163 HD
ATOM      5  O   UNL     1      92.686 101.186  72.445  1.00  0.00    -0.275 OA
BRANCH   3   6
ATOM      6  C   UNL     1      90.532  99.838  71.194  1.00  0.00     0.151 C 
BRANCH   6   7
ATOM      7  C   UNL     1      90.103  99.400  69.838  1.00  0.00    -0.025 A 
ATOM      8  C   UNL     1      89.382  99.957  67.550  1.00  0.00     0.160 A 
ATOM      9  C   UNL     1      89.302  98.583  67.240  1.00  0.00     0.157 A 
ATOM     10  C   UNL     1      89.780 100.352  68.845  1.00  0.00     0.056 A 
ATOM     11  C   UNL     1      89.602  97.623  68.226  1.00  0.00     0.050 A 
ATOM     12  C   UNL     1      90.009  98.027  69.512  1.00  0.00     0.009 A 
BRANCH   8  13
ATOM     13  O   UNL     1      89.028 100.895  66.614  1.00  0.00    -0.493 OA
ATOM     14  C   UNL     1      87.667 101.351  66.727  1.00  0.00     0.278 C 
ENDBRANCH   8  13
BRANCH   9  15
ATOM     15  O   UNL     1      88.935  98.170  66.000  1.00  0.00    -0.504 OA
ATOM     16  H   UNL     1      89.079  98.879  65.370  1.00  0.00     0.293 HD
ENDBRANCH   9  15
ENDBRANCH   6   7
ENDBRANCH   3   6
ENDBRANCH   1   2
BRANCH   1  17
ATOM     17  C   UNL     1      94.068  98.813  73.982  1.00  0.00     0.010 C 
BRANCH  17  18
ATOM     18  C   UNL     1      93.682  97.314  74.129  1.00  0.00     0.005 C 
BRANCH  18  19
ATOM     19  C   UNL     1      94.607  96.561  75.123  1.00  0.00     0.027 C 
BRANCH  19  20
ATOM     20  C   UNL     1      93.859  95.680  76.007  1.00  0.00    -0.031 C 
ATOM     21  C   UNL     1      92.588  95.897  76.392  1.00  0.00    -0.028 C 
BRANCH  21  22
ATOM     22  C   UNL     1      91.848  94.987  77.266  1.00  0.00     0.005 C 
ATOM     23  C   UNL     1      90.364  94.831  76.832  1.00  0.00     0.012 C 
ATOM     24  C   UNL     1      92.555  93.608  77.326  1.00  0.00     0.012 C 
ENDBRANCH  21  22
ENDBRANCH  19  20
ENDBRANCH  18  19
ENDBRANCH  17  18
ENDBRANCH   1  17
TORSDOF 10
ENDMDL
MODEL 3
REMARK VINA RESULT:    -5.371     18.773     21.481
REMARK INTER + INTRA:         -10.506
REMARK INTER:                  -9.669
REMARK INTRA:                  -0.837
REMARK UNBOUND:                -2.152
REMARK SMILES COc1cc(CNC(=O)CCCC/C=C/C(C)C)ccc1O
REMARK SMILES IDX 10 1 8 2 7 3 9 5 6 6 5 7 3 8 21 9 4 10 20 11 19 12 2 13 1 14
REMARK SMILES IDX 22 15 11 17 12 18 13 19 14 20 15 21 16 22 17 23 18 24
REMARK H PARENT 7 4 22 16
REMARK Flexibility Score: inf
ROOT
ATOM      1  C   UNL     1      89.782  97.882  69.545  1.00  0.00     0.100 C 
ENDROOT
BRANCH   1   2
ATOM      2  C   UNL     1      89.330  98.226  68.183  1.00  0.00     0.220 C 
ATOM      3  N   UNL     1      88.249  99.035  67.997  1.00  0.00    -0.352 N 
ATOM      4  H   UNL     1      87.794  99.340  68.846  1.00  0.00     0.163 HD
ATOM      5  O   UNL     1      89.982  97.774  67.210  1.00  0.00    -0.275 OA
BRANCH   3   6
ATOM      6  C   UNL     1      87.752  99.452  66.725  1.00  0.00     0.151 C 
BRANCH   6   7
ATOM      7  C   UNL     1      87.905 100.920  66.533  1.00  0.00    -0.025 A 
ATOM      8  C   UNL     1      89.350 102.906  66.365  1.00  0.00     0.160 A 
ATOM      9  C   UNL     1      88.215 103.715  66.150  1.00  0.00     0.157 A 
ATOM     10  C   UNL     1      89.185 101.518  66.557  1.00  0.00     0.056 A 
ATOM     11  C   UNL     1      86.931 103.135  66.143  1.00  0.00     0.050 A 
ATOM     12  C   UNL     1      86.776 101.747  66.324  1.00  0.00     0.009 A 
BRANCH   8  13
ATOM     13  O   UNL     1      90.596 103.475  66.438  1.00  0.00    -0.493 OA
ATOM     14  C   UNL     1      91.497 103.051  65.398  1.00  0.00     0.278 C 
ENDBRANCH   8  13
BRANCH   9  15
ATOM     15  O   UNL     1      88.341 105.052  65.949  1.00  0.00    -0.504 OA
ATOM     16  H   UNL     1      87.687 105.518  66.475  1.00  0.00     0.293 HD
ENDBRANCH   9  15
ENDBRANCH   6   7
ENDBRANCH   3   6
ENDBRANCH   1   2
BRANCH   1  17
ATOM     17  C   UNL     1      89.935  99.146  70.434  1.00  0.00     0.010 C 
BRANCH  17  18
ATOM     18  C   UNL     1      91.336  99.808  70.308  1.00  0.00     0.005 C 
BRANCH  18  19
ATOM     19  C   UNL     1      91.925 100.211  71.687  1.00  0.00     0.027 C 
BRANCH  19  20
ATOM     20  C   UNL     1      92.878  99.229  72.183  1.00  0.00    -0.031 C 
ATOM     21  C   UNL     1      93.472  99.295  73.388  1.00  0.00    -0.028 C 
BRANCH  21  22
ATOM     22  C   UNL     1      94.413  98.286  73.874  1.00  0.00     0.005 C 
ATOM     23  C   UNL     1      93.692  97.066  74.512  1.00  0.00     0.012 C 
ATOM     24  C   UNL     1      95.354  97.834  72.727  1.00  0.00     0.012 C 
ENDBRANCH  21  22
ENDBRANCH  19  20
ENDBRANCH  18  19
ENDBRANCH  17  18
ENDBRANCH   1  17
TORSDOF 10
ENDMDL
MODEL 4
REMARK VINA RESULT:    -5.328     18.525     21.239
REMARK INTER + INTRA:         -10.438
REMARK INTER:                  -9.584
REMARK INTRA:                  -0.855
REMARK UNBOUND:                -2.152
REMARK SMILES COc1cc(CNC(=O)CCCC/C=C/C(C)C)ccc1O
REMARK SMILES IDX 10 1 8 2 7 3 9 5 6 6 5 7 3 8 21 9 4 10 20 11 19 12 2 13 1 14
REMARK SMILES IDX 22 15 11 17 12 18 13 19 14 20 15 21 16 22 17 23 18 24
REMARK H PARENT 7 4 22 16
REMARK Flexibility Score: inf
ROOT
ATOM      1  C   UNL     1      89.822  97.879  69.787  1.00  0.00     0.100 C 
ENDROOT
BRANCH   1   2
ATOM      2  C   UNL     1      89.506  98.219  68.386  1.00  0.00     0.220 C 
ATOM      3  N   UNL     1      88.393  98.946  68.085  1.00  0.00    -0.352 N 
ATOM      4  H   UNL     1      87.819  99.196  68.878  1.00  0.00     0.163 HD
ATOM      5  O   UNL     1      90.300  97.841  67.491  1.00  0.00    -0.275 OA
BRANCH   3   6
ATOM      6  C   UNL     1      88.016  99.353  66.769  1.00  0.00     0.151 C 
BRANCH   6   7
ATOM      7  C   UNL     1      88.142 100.826  66.596  1.00  0.00    -0.025 A 
ATOM      8  C   UNL     1      87.088 103.037  66.350  1.00  0.00     0.160 A 
ATOM      9  C   UNL     1      88.362 103.638  66.285  1.00  0.00     0.157 A 
ATOM     10  C   UNL     1      86.989 101.639  66.503  1.00  0.00     0.056 A 
ATOM     11  C   UNL     1      89.520 102.839  66.356  1.00  0.00     0.050 A 
ATOM     12  C   UNL     1      89.412 101.444  66.520  1.00  0.00     0.009 A 
BRANCH   8  13
ATOM     13  O   UNL     1      85.958 103.804  66.215  1.00  0.00    -0.493 OA
ATOM     14  C   UNL     1      84.909 103.174  65.456  1.00  0.00     0.278 C 
ENDBRANCH   8  13
BRANCH   9  15
ATOM     15  O   UNL     1      88.491 104.984  66.151  1.00  0.00    -0.504 OA
ATOM     16  H   UNL     1      88.286 105.238  65.249  1.00  0.00     0.293 HD
ENDBRANCH   9  15
ENDBRANCH   6   7
ENDBRANCH   3   6
ENDBRANCH   1   2
BRANCH   1  17
ATOM     17  C   UNL     1      89.845  99.141  70.691  1.00  0.00     0.010 C 
BRANCH  17  18
ATOM     18  C   UNL     1      91.058 100.070  70.401  1.00  0.00     0.005 C 
BRANCH  18  19
ATOM     19  C   UNL     1      91.840 100.439  71.691  1.00  0.00     0.027 C 
BRANCH  19  20
ATOM     20  C   UNL     1      92.854  99.449  72.018  1.00  0.00    -0.031 C 
ATOM     21  C   UNL     1      93.230  99.137  73.271  1.00  0.00    -0.028 C 
BRANCH  21  22
ATOM     22  C   UNL     1      94.239  98.123  73.578  1.00  0.00     0.005 C 
ATOM     23  C   UNL     1      95.532  98.741  74.178  1.00  0.00     0.012 C 
ATOM     24  C   UNL     1      93.648  97.048  74.526  1.00  0.00     0.012 C 
ENDBRANCH  21  22
ENDBRANCH  19  20
ENDBRANCH  18  19
ENDBRANCH  17  18
ENDBRANCH   1  17
TORSDOF 10
ENDMDL
MODEL 5
REMARK VINA RESULT:    -5.273     22.726     24.783
REMARK INTER + INTRA:         -10.353
REMARK INTER:                  -9.629
REMARK INTRA:                  -0.724
REMARK UNBOUND:                -2.152
REMARK SMILES COc1cc(CNC(=O)CCCC/C=C/C(C)C)ccc1O
REMARK SMILES IDX 10 1 8 2 7 3 9 5 6 6 5 7 3 8 21 9 4 10 20 11 19 12 2 13 1 14
REMARK SMILES IDX 22 15 11 17 12 18 13 19 14 20 15 21 16 22 17 23 18 24
REMARK H PARENT 7 4 22 16
REMARK Flexibility Score: inf
ROOT
ATOM      1  C   UNL     1      93.871  93.871  78.256  1.00  0.00     0.100 C 
ENDROOT
BRANCH   1   2
ATOM      2  C   UNL     1      95.073  93.391  78.964  1.00  0.00     0.220 C 
ATOM      3  N   UNL     1      95.132  93.419  80.325  1.00  0.00    -0.352 N 
ATOM      4  H   UNL     1      94.316  93.807  80.779  1.00  0.00     0.163 HD
ATOM      5  O   UNL     1      96.022  92.937  78.279  1.00  0.00    -0.275 OA
BRANCH   3   6
ATOM      6  C   UNL     1      96.233  92.950  81.104  1.00  0.00     0.151 C 
BRANCH   6   7
ATOM      7  C   UNL     1      97.201  94.041  81.394  1.00  0.00    -0.025 A 
ATOM      8  C   UNL     1      97.737  96.443  81.490  1.00  0.00     0.160 A 
ATOM      9  C   UNL     1      99.030  96.137  81.963  1.00  0.00     0.157 A 
ATOM     10  C   UNL     1      96.837  95.394  81.209  1.00  0.00     0.056 A 
ATOM     11  C   UNL     1      99.414  94.792  82.134  1.00  0.00     0.050 A 
ATOM     12  C   UNL     1      98.505  93.752  81.862  1.00  0.00     0.009 A 
BRANCH   8  13
ATOM     13  O   UNL     1      97.380  97.747  81.259  1.00  0.00    -0.493 OA
ATOM     14  C   UNL     1      96.589  98.334  82.309  1.00  0.00     0.278 C 
ENDBRANCH   8  13
BRANCH   9  15
ATOM     15  O   UNL     1      99.916  97.123  82.256  1.00  0.00    -0.504 OA
ATOM     16  H   UNL     1     100.808  96.770  82.232  1.00  0.00     0.293 HD
ENDBRANCH   9  15
ENDBRANCH   6   7
ENDBRANCH   3   6
ENDBRANCH   1   2
BRANCH   1  17
ATOM     17  C   UNL     1      93.973  93.630  76.726  1.00  0.00     0.010 C 
BRANCH  17  18
ATOM     18  C   UNL     1      92.683  94.041  75.961  1.00  0.00     0.005 C 
BRANCH  18  19
ATOM     19  C   UNL     1      91.405  93.876  76.828  1.00  0.00     0.027 C 
BRANCH  19  20
ATOM     20  C   UNL     1      90.559  92.791  76.354  1.00  0.00    -0.031 C 
ATOM     21  C   UNL     1      90.936  91.885  75.433  1.00  0.00    -0.028 C 
BRANCH  21  22
ATOM     22  C   UNL     1      90.075  90.790  74.986  1.00  0.00     0.005 C 
ATOM     23  C   UNL     1      89.111  91.226  73.847  1.00  0.00     0.012 C 
ATOM     24  C   UNL     1      90.935  89.577  74.548  1.00  0.00     0.012 C 
ENDBRANCH  21  22
ENDBRANCH  19  20
ENDBRANCH  18  19
ENDBRANCH  17  18
ENDBRANCH   1  17
TORSDOF 10
ENDMDL
MODEL 6
REMARK VINA RESULT:    -5.235     22.321     24.387
REMARK INTER + INTRA:         -10.295
REMARK INTER:                  -9.855
REMARK INTRA:                  -0.439
REMARK UNBOUND:                -2.152
REMARK SMILES COc1cc(CNC(=O)CCCC/C=C/C(C)C)ccc1O
REMARK SMILES IDX 10 1 8 2 7 3 9 5 6 6 5 7 3 8 21 9 4 10 20 11 19 12 2 13 1 14
REMARK SMILES IDX 22 15 11 17 12 18 13 19 14 20 15 21 16 22 17 23 18 24
REMARK H PARENT 7 4 22 16
REMARK Flexibility Score: inf
ROOT
ATOM      1  C   UNL     1      93.062  93.479  78.210  1.00  0.00     0.100 C 
ENDROOT
BRANCH   1   2
ATOM      2  C   UNL     1      94.311  94.265  78.224  1.00  0.00     0.220 C 
ATOM      3  N   UNL     1      95.400  93.821  78.913  1.00  0.00    -0.352 N 
ATOM      4  H   UNL     1      95.264  92.951  79.410  1.00  0.00     0.163 HD
ATOM      5  O   UNL     1      94.346  95.334  77.569  1.00  0.00    -0.275 OA
BRANCH   3   6
ATOM      6  C   UNL     1      96.661  94.488  78.964  1.00  0.00     0.151 C 
BRANCH   6   7
ATOM      7  C   UNL     1      96.814  95.272  80.220  1.00  0.00    -0.025 A 
ATOM      8  C   UNL     1      98.188  95.967  82.141  1.00  0.00     0.160 A 
ATOM      9  C   UNL     1      97.130  96.776  82.606  1.00  0.00     0.157 A 
ATOM     10  C   UNL     1      98.019  95.223  80.955  1.00  0.00     0.056 A 
ATOM     11  C   UNL     1      95.915  96.820  81.894  1.00  0.00     0.050 A 
ATOM     12  C   UNL     1      95.760  96.082  80.705  1.00  0.00     0.009 A 
BRANCH   8  13
ATOM     13  O   UNL     1      99.348  95.870  82.866  1.00  0.00    -0.493 OA
ATOM     14  C   UNL     1      99.688  94.525  83.251  1.00  0.00     0.278 C 
ENDBRANCH   8  13
BRANCH   9  15
ATOM     15  O   UNL     1      97.264  97.515  83.737  1.00  0.00    -0.504 OA
ATOM     16  H   UNL     1      98.196  97.625  83.941  1.00  0.00     0.293 HD
ENDBRANCH   9  15
ENDBRANCH   6   7
ENDBRANCH   3   6
ENDBRANCH   1   2
BRANCH   1  17
ATOM     17  C   UNL     1      92.196  93.804  76.963  1.00  0.00     0.010 C 
BRANCH  17  18
ATOM     18  C   UNL     1      90.677  93.881  77.285  1.00  0.00     0.005 C 
BRANCH  18  19
ATOM     19  C   UNL     1      90.050  92.480  77.516  1.00  0.00     0.027 C 
BRANCH  19  20
ATOM     20  C   UNL     1      90.374  91.552  76.443  1.00  0.00    -0.031 C 
ATOM     21  C   UNL     1      90.300  91.855  75.134  1.00  0.00    -0.028 C 
BRANCH  21  22
ATOM     22  C   UNL     1      90.651  90.912  74.071  1.00  0.00     0.005 C 
ATOM     23  C   UNL     1      90.781  89.455  74.596  1.00  0.00     0.012 C 
ATOM     24  C   UNL     1      89.616  90.994  72.919  1.00  0.00     0.012 C 
ENDBRANCH  21  22
ENDBRANCH  19  20
ENDBRANCH  18  19
ENDBRANCH  17  18
ENDBRANCH   1  17
TORSDOF 10
ENDMDL
MODEL 7
REMARK VINA RESULT:    -5.112      2.870      5.295
REMARK INTER + INTRA:         -10.103
REMARK INTER:                  -9.391
REMARK INTRA:                  -0.712
REMARK UNBOUND:                -2.152
REMARK SMILES COc1cc(CNC(=O)CCCC/C=C/C(C)C)ccc1O
REMARK SMILES IDX 10 1 8 2 7 3 9 5 6 6 5 7 3 8 21 9 4 10 20 11 19 12 2 13 1 14
REMARK SMILES IDX 22 15 11 17 12 18 13 19 14 20 15 21 16 22 17 23 18 24
REMARK H PARENT 7 4 22 16
REMARK Flexibility Score: inf
ROOT
ATOM      1  C   UNL     1      76.080  87.083  65.441  1.00  0.00     0.100 C 
ENDROOT
BRANCH   1   2
ATOM      2  C   UNL     1      75.798  86.065  64.410  1.00  0.00     0.220 C 
ATOM      3  N   UNL     1      76.267  84.793  64.548  1.00  0.00    -0.352 N 
ATOM      4  H   UNL     1      76.823  84.631  65.377  1.00  0.00     0.163 HD
ATOM      5  O   UNL     1      75.099  86.399  63.423  1.00  0.00    -0.275 OA
BRANCH   3   6
ATOM      6  C   UNL     1      76.024  83.730  63.626  1.00  0.00     0.151 C 
BRANCH   6   7
ATOM      7  C   UNL     1      74.858  82.904  64.041  1.00  0.00    -0.025 A 
ATOM      8  C   UNL     1      72.548  82.139  63.660  1.00  0.00     0.160 A 
ATOM      9  C   UNL     1      72.630  81.319  64.805  1.00  0.00     0.157 A 
ATOM     10  C   UNL     1      73.660  82.924  63.290  1.00  0.00     0.056 A 
ATOM     11  C   UNL     1      73.811  81.304  65.574  1.00  0.00     0.050 A 
ATOM     12  C   UNL     1      74.920  82.082  65.190  1.00  0.00     0.009 A 
BRANCH   8  13
ATOM     13  O   UNL     1      71.379  82.207  62.946  1.00  0.00    -0.493 OA
ATOM     14  C   UNL     1      70.520  83.296  63.331  1.00  0.00     0.278 C 
ENDBRANCH   8  13
BRANCH   9  15
ATOM     15  O   UNL     1      71.583  80.541  65.181  1.00  0.00    -0.504 OA
ATOM     16  H   UNL     1      71.871  79.916  65.850  1.00  0.00     0.293 HD
ENDBRANCH   9  15
ENDBRANCH   6   7
ENDBRANCH   3   6
ENDBRANCH   1   2
BRANCH   1  17
ATOM     17  C   UNL     1      76.832  86.475  66.655  1.00  0.00     0.010 C 
BRANCH  17  18
ATOM     18  C   UNL     1      77.040  87.495  67.810  1.00  0.00     0.005 C 
BRANCH  18  19
ATOM     19  C   UNL     1      77.205  88.949  67.291  1.00  0.00     0.027 C 
BRANCH  19  20
ATOM     20  C   UNL     1      76.082  89.795  67.668  1.00  0.00    -0.031 C 
ATOM     21  C   UNL     1      75.661  89.974  68.933  1.00  0.00    -0.028 C 
BRANCH  21  22
ATOM     22  C   UNL     1      74.542  90.845  69.290  1.00  0.00     0.005 C 
ATOM     23  C   UNL     1      73.401  90.073  70.008  1.00  0.00     0.012 C 
ATOM     24  C   UNL     1      75.041  92.029  70.159  1.00  0.00     0.012 C 
ENDBRANCH  21  22
ENDBRANCH  19  20
ENDBRANCH  18  19
ENDBRANCH  17  18
ENDBRANCH   1  17
TORSDOF 10
ENDMDL
MODEL 8
REMARK VINA RESULT:    -5.111     23.054     25.271
REMARK INTER + INTRA:         -10.101
REMARK INTER:                  -9.407
REMARK INTRA:                  -0.694
REMARK UNBOUND:                -2.152
REMARK SMILES COc1cc(CNC(=O)CCCC/C=C/C(C)C)ccc1O
REMARK SMILES IDX 10 1 8 2 7 3 9 5 6 6 5 7 3 8 21 9 4 10 20 11 19 12 2 13 1 14
REMARK SMILES IDX 22 15 11 17 12 18 13 19 14 20 15 21 16 22 17 23 18 24
REMARK H PARENT 7 4 22 16
REMARK Flexibility Score: inf
ROOT
ATOM      1  C   UNL     1      94.626  92.978  78.558  1.00  0.00     0.100 C 
ENDROOT
BRANCH   1   2
ATOM      2  C   UNL     1      95.076  93.386  79.902  1.00  0.00     0.220 C 
ATOM      3  N   UNL     1      95.603  94.625  80.109  1.00  0.00    -0.352 N 
ATOM      4  H   UNL     1      95.675  95.201  79.281  1.00  0.00     0.163 HD
ATOM      5  O   UNL     1      94.936  92.571  80.846  1.00  0.00    -0.275 OA
BRANCH   3   6
ATOM      6  C   UNL     1      96.037  95.127  81.373  1.00  0.00     0.151 C 
BRANCH   6   7
ATOM      7  C   UNL     1      96.535  96.525  81.265  1.00  0.00    -0.025 A 
ATOM      8  C   UNL     1      97.089  98.676  82.328  1.00  0.00     0.160 A 
ATOM      9  C   UNL     1      97.501  99.188  81.080  1.00  0.00     0.157 A 
ATOM     10  C   UNL     1      96.609  97.352  82.408  1.00  0.00     0.056 A 
ATOM     11  C   UNL     1      97.415  98.381  79.928  1.00  0.00     0.050 A 
ATOM     12  C   UNL     1      96.945  97.057  80.020  1.00  0.00     0.009 A 
BRANCH   8  13
ATOM     13  O   UNL     1      97.109  99.478  83.441  1.00  0.00    -0.493 OA
ATOM     14  C   UNL     1      95.868 100.164  83.692  1.00  0.00     0.278 C 
ENDBRANCH   8  13
BRANCH   9  15
ATOM     15  O   UNL     1      97.980 100.453  80.970  1.00  0.00    -0.504 OA
ATOM     16  H   UNL     1      97.852 100.768  80.073  1.00  0.00     0.293 HD
ENDBRANCH   9  15
ENDBRANCH   6   7
ENDBRANCH   3   6
ENDBRANCH   1   2
BRANCH   1  17
ATOM     17  C   UNL     1      93.125  93.305  78.332  1.00  0.00     0.010 C 
BRANCH  17  18
ATOM     18  C   UNL     1      92.902  94.690  77.662  1.00  0.00     0.005 C 
BRANCH  18  19
ATOM     19  C   UNL     1      92.223  94.570  76.270  1.00  0.00     0.027 C 
BRANCH  19  20
ATOM     20  C   UNL     1      91.198  93.538  76.249  1.00  0.00    -0.031 C 
ATOM     21  C   UNL     1      91.271  92.415  75.512  1.00  0.00    -0.028 C 
BRANCH  21  22
ATOM     22  C   UNL     1      90.237  91.381  75.520  1.00  0.00     0.005 C 
ATOM     23  C   UNL     1      90.760  90.019  74.984  1.00  0.00     0.012 C 
ATOM     24  C   UNL     1      89.648  91.224  76.946  1.00  0.00     0.012 C 
ENDBRANCH  21  22
ENDBRANCH  19  20
ENDBRANCH  18  19
ENDBRANCH  17  18
ENDBRANCH   1  17
TORSDOF 10
ENDMDL
MODEL 9
REMARK VINA RESULT:    -5.087     21.917     24.087
REMARK INTER + INTRA:         -10.064
REMARK INTER:                  -9.241
REMARK INTRA:                  -0.823
REMARK UNBOUND:                -2.152
REMARK SMILES COc1cc(CNC(=O)CCCC/C=C/C(C)C)ccc1O
REMARK SMILES IDX 10 1 8 2 7 3 9 5 6 6 5 7 3 8 21 9 4 10 20 11 19 12 2 13 1 14
REMARK SMILES IDX 22 15 11 17 12 18 13 19 14 20 15 21 16 22 17 23 18 24
REMARK H PARENT 7 4 22 16
REMARK Flexibility Score: inf
ROOT
ATOM      1  C   UNL     1      93.023  93.417  78.008  1.00  0.00     0.100 C 
ENDROOT
BRANCH   1   2
ATOM      2  C   UNL     1      94.261  94.220  78.001  1.00  0.00     0.220 C 
ATOM      3  N   UNL     1      95.326  93.856  78.769  1.00  0.00    -0.352 N 
ATOM      4  H   UNL     1      95.180  93.032  79.336  1.00  0.00     0.163 HD
ATOM      5  O   UNL     1      94.309  95.227  77.253  1.00  0.00    -0.275 OA
BRANCH   3   6
ATOM      6  C   UNL     1      96.576  94.544  78.808  1.00  0.00     0.151 C 
BRANCH   6   7
ATOM      7  C   UNL     1      96.588  95.594  79.864  1.00  0.00    -0.025 A 
ATOM      8  C   UNL     1      97.280  97.827  80.637  1.00  0.00     0.160 A 
ATOM      9  C   UNL     1      96.606  97.614  81.857  1.00  0.00     0.157 A 
ATOM     10  C   UNL     1      97.267  96.816  79.654  1.00  0.00     0.056 A 
ATOM     11  C   UNL     1      95.941  96.393  82.088  1.00  0.00     0.050 A 
ATOM     12  C   UNL     1      95.924  95.394  81.096  1.00  0.00     0.009 A 
BRANCH   8  13
ATOM     13  O   UNL     1      97.983  98.987  80.433  1.00  0.00    -0.493 OA
ATOM     14  C   UNL     1      97.381  99.878  79.477  1.00  0.00     0.278 C 
ENDBRANCH   8  13
BRANCH   9  15
ATOM     15  O   UNL     1      96.588  98.572  82.819  1.00  0.00    -0.504 OA
ATOM     16  H   UNL     1      97.387  99.101  82.761  1.00  0.00     0.293 HD
ENDBRANCH   9  15
ENDBRANCH   6   7
ENDBRANCH   3   6
ENDBRANCH   1   2
BRANCH   1  17
ATOM     17  C   UNL     1      92.102  93.773  76.810  1.00  0.00     0.010 C 
BRANCH  17  18
ATOM     18  C   UNL     1      90.595  93.799  77.192  1.00  0.00     0.005 C 
BRANCH  18  19
ATOM     19  C   UNL     1      90.059  92.394  77.575  1.00  0.00     0.027 C 
BRANCH  19  20
ATOM     20  C   UNL     1      90.210  91.435  76.491  1.00  0.00    -0.031 C 
ATOM     21  C   UNL     1      89.577  91.526  75.307  1.00  0.00    -0.028 C 
BRANCH  21  22
ATOM     22  C   UNL     1      89.760  90.561  74.224  1.00  0.00     0.005 C 
ATOM     23  C   UNL     1      89.836  91.246  72.831  1.00  0.00     0.012 C 
ATOM     24  C   UNL     1      91.020  89.696  74.484  1.00  0.00     0.012 C 
ENDBRANCH  21  22
ENDBRANCH  19  20
ENDBRANCH  18  19
ENDBRANCH  17  18
ENDBRANCH   1  17
TORSDOF 10
ENDMDL
MODEL 10
REMARK VINA RESULT:    -4.903     23.567     25.702
REMARK INTER + INTRA:          -9.777
REMARK INTER:                  -8.957
REMARK INTRA:                  -0.820
REMARK UNBOUND:                -2.152
REMARK SMILES COc1cc(CNC(=O)CCCC/C=C/C(C)C)ccc1O
REMARK SMILES IDX 10 1 8 2 7 3 9 5 6 6 5 7 3 8 21 9 4 10 20 11 19 12 2 13 1 14
REMARK SMILES IDX 22 15 11 17 12 18 13 19 14 20 15 21 16 22 17 23 18 24
REMARK H PARENT 7 4 22 16
REMARK Flexibility Score: inf
ROOT
ATOM      1  C   UNL     1      97.178  96.108  80.995  1.00  0.00     0.100 C 
ENDROOT
BRANCH   1   2
ATOM      2  C   UNL     1      96.399  94.895  80.681  1.00  0.00     0.220 C 
ATOM      3  N   UNL     1      96.588  94.238  79.502  1.00  0.00    -0.352 N 
ATOM      4  H   UNL     1      97.266  94.660  78.882  1.00  0.00     0.163 HD
ATOM      5  O   UNL     1      95.582  94.478  81.537  1.00  0.00    -0.275 OA
BRANCH   3   6
ATOM      6  C   UNL     1      95.910  93.041  79.118  1.00  0.00     0.151 C 
BRANCH   6   7
ATOM      7  C   UNL     1      94.746  93.331  78.237  1.00  0.00    -0.025 A 
ATOM      8  C   UNL     1      93.852  93.969  76.034  1.00  0.00     0.160 A 
ATOM      9  C   UNL     1      92.538  93.868  76.537  1.00  0.00     0.157 A 
ATOM     10  C   UNL     1      94.942  93.703  76.888  1.00  0.00     0.056 A 
ATOM     11  C   UNL     1      92.328  93.517  77.885  1.00  0.00     0.050 A 
ATOM     12  C   UNL     1      93.423  93.241  78.727  1.00  0.00     0.009 A 
BRANCH   8  13
ATOM     13  O   UNL     1      94.063  94.374  74.740  1.00  0.00    -0.493 OA
ATOM     14  C   UNL     1      94.413  95.765  74.610  1.00  0.00     0.278 C 
ENDBRANCH   8  13
BRANCH   9  15
ATOM     15  O   UNL     1      91.466  94.105  75.738  1.00  0.00    -0.504 OA
ATOM     16  H   UNL     1      91.646  94.862  75.176  1.00  0.00     0.293 HD
ENDBRANCH   9  15
ENDBRANCH   6   7
ENDBRANCH   3   6
ENDBRANCH   1   2
BRANCH   1  17
ATOM     17  C   UNL     1      96.386  97.074  81.916  1.00  0.00     0.010 C 
BRANCH  17  18
ATOM     18  C   UNL     1      96.970  97.153  83.355  1.00  0.00     0.005 C 
BRANCH  18  19
ATOM     19  C   UNL     1      96.736  98.540  84.013  1.00  0.00     0.027 C 
BRANCH  19  20
ATOM     20  C   UNL     1      96.528  99.587  83.024  1.00  0.00    -0.031 C 
ATOM     21  C   UNL     1      95.582 100.539  83.118  1.00  0.00    -0.028 C 
BRANCH  21  22
ATOM     22  C   UNL     1      95.404 101.594  82.120  1.00  0.00     0.005 C 
ATOM     23  C   UNL     1      95.973 101.194  80.731  1.00  0.00     0.012 C 
ATOM     24  C   UNL     1      93.907 101.984  82.014  1.00  0.00     0.012 C 
ENDBRANCH  21  22
ENDBRANCH  19  20
ENDBRANCH  18  19
ENDBRANCH  17  18
ENDBRANCH   1  17
TORSDOF 10
ENDMDL
