MODEL 1
REMARK VINA RESULT:    -6.633      0.000      0.000
REMARK INTER + INTRA:         -13.973
REMARK INTER:                 -11.675
REMARK INTRA:                  -2.298
REMARK UNBOUND:                -2.298
REMARK SMILES C=C(C)[C@]12C[C@@H](C)[C@@]34O[C@](Cc5ccccc5)(O[C@@H]1[C@@H]3C=C(COC(=O)Cc1ccc(O)c(OC)c1)C[C@]1(O)C(=O)C(C)=C[C@@H]41)O2
REMARK SMILES IDX 23 1 22 2 21 3 20 4 9 5 8 6 10 7 6 8 18 9 46 10 19 11 5 12
REMARK SMILES IDX 7 13 4 14 45 15 38 16 44 17 40 18 42 20 41 21 43 22 39 23
REMARK SMILES IDX 11 25 12 26 13 27 17 28 14 29 16 30 15 31 2 32 3 33 1 34
REMARK SMILES IDX 37 35 24 37 25 38 26 39 27 40 28 41 36 42 29 43 33 44 30 45
REMARK SMILES IDX 31 46 34 47 35 48 32 49
REMARK H PARENT 39 24 32 50
REMARK Flexibility Score: 90.00
ROOT
ATOM      1  C   UNL     1      64.593  88.399  74.964  1.00  0.00     0.264 C 
ENDROOT
BRANCH   1   2
ATOM      2  C   UNL     1      63.366  87.580  74.637  1.00  0.00    -0.033 C 
ATOM      3  C   UNL     1      62.451  88.077  73.780  1.00  0.00    -0.015 C 
BRANCH   3   4
ATOM      4  C   UNL     1      61.114  87.494  73.352  1.00  0.00     0.078 C 
ATOM      5  O   UNL     1      61.526  86.172  71.303  1.00  0.00    -0.319 OA
ATOM      6  C   UNL     1      61.096  86.064  72.695  1.00  0.00     0.095 C 
ATOM      7  C   UNL     1      60.982  87.288  70.574  1.00  0.00     0.289 C 
ATOM      8  C   UNL     1      59.603  85.533  72.742  1.00  0.00     0.023 C 
ATOM      9  O   UNL     1      61.295  88.524  71.211  1.00  0.00    -0.320 OA
ATOM     10  O   UNL     1      59.560  87.243  70.498  1.00  0.00    -0.313 OA
ATOM     11  C   UNL     1      60.421  88.449  72.348  1.00  0.00     0.170 C 
ATOM     12  C   UNL     1      58.577  86.699  72.596  1.00  0.00     0.049 C 
ATOM     13  C   UNL     1      59.265  84.425  71.731  1.00  0.00     0.011 C 
ATOM     14  C   UNL     1      59.133  87.838  71.741  1.00  0.00     0.122 C 
BRANCH   6  15
ATOM     15  C   UNL     1      62.156  85.138  73.359  1.00  0.00     0.086 C 
ATOM     16  C   UNL     1      62.247  85.203  74.898  1.00  0.00     0.140 CG0
ATOM     17  C   UNL     1      62.128  83.663  73.072  1.00  0.00    -0.010 C 
ATOM     18  C   UNL     1      62.597  83.776  75.264  1.00  0.00     0.190 C 
ATOM     19  G   UNL     1      63.299  86.204  75.372  1.00  0.00     0.000 G0
ATOM     20  C   UNL     1      62.399  82.872  74.116  1.00  0.00    -0.008 C 
ATOM     21  O   UNL     1      62.948  83.395  76.370  1.00  0.00    -0.291 OA
ATOM     22  C   UNL     1      62.540  81.403  74.185  1.00  0.00     0.048 C 
BRANCH  16  23
ATOM     23  O   UNL     1      61.000  85.421  75.537  1.00  0.00    -0.381 OA
ATOM     24  H   UNL     1      60.966  84.872  76.339  1.00  0.00     0.212 HD
ENDBRANCH  16  23
ENDBRANCH   6  15
BRANCH   7  25
ATOM     25  C   UNL     1      61.564  87.272  69.175  1.00  0.00     0.135 C 
BRANCH  25  26
ATOM     26  C   UNL     1      62.372  86.025  68.913  1.00  0.00    -0.040 A 
ATOM     27  C   UNL     1      63.684  86.129  68.449  1.00  0.00     0.004 A 
ATOM     28  C   UNL     1      61.809  84.769  69.137  1.00  0.00     0.004 A 
ATOM     29  C   UNL     1      64.432  84.977  68.207  1.00  0.00     0.000 A 
ATOM     30  C   UNL     1      62.557  83.616  68.895  1.00  0.00     0.000 A 
ATOM     31  C   UNL     1      63.868  83.721  68.430  1.00  0.00     0.000 A 
ENDBRANCH  25  26
ENDBRANCH   7  25
BRANCH  14  32
ATOM     32  C   UNL     1      58.108  88.881  71.436  1.00  0.00    -0.046 C 
ATOM     33  C   UNL     1      57.480  88.814  70.076  1.00  0.00     0.042 C 
ATOM     34  C   UNL     1      57.768  89.824  72.328  1.00  0.00     0.010 C 
ENDBRANCH  14  32
ENDBRANCH   3   4
BRANCH   2  35
ATOM     35  C   UNL     1      63.336  86.242  75.350  1.00  0.00     0.078 CG0
ATOM     36  G   UNL     1      62.274  85.237  74.907  1.00  0.00     0.000 G0
ENDBRANCH   2  35
ENDBRANCH   1   2
BRANCH   1  37
ATOM     37  O   UNL     1      65.677  87.532  75.222  1.00  0.00    -0.461 OA
BRANCH  37  38
ATOM     38  C   UNL     1      66.509  87.266  74.160  1.00  0.00     0.310 C 
ATOM     39  O   UNL     1      66.724  88.028  73.227  1.00  0.00    -0.252 OA
BRANCH  38  40
ATOM     40  C   UNL     1      67.113  85.891  74.325  1.00  0.00     0.158 C 
BRANCH  40  41
ATOM     41  C   UNL     1      67.022  85.055  73.074  1.00  0.00    -0.033 A 
ATOM     42  C   UNL     1      68.150  84.872  72.274  1.00  0.00     0.054 A 
ATOM     43  C   UNL     1      65.810  84.464  72.717  1.00  0.00     0.008 A 
ATOM     44  C   UNL     1      68.066  84.098  71.116  1.00  0.00     0.160 A 
ATOM     45  C   UNL     1      65.726  83.690  71.559  1.00  0.00     0.050 A 
ATOM     46  C   UNL     1      66.853  83.508  70.759  1.00  0.00     0.157 A 
BRANCH  44  47
ATOM     47  O   UNL     1      69.174  83.927  70.342  1.00  0.00    -0.493 OA
ATOM     48  C   UNL     1      70.434  83.902  71.011  1.00  0.00     0.278 C 
ENDBRANCH  44  47
BRANCH  46  49
ATOM     49  O   UNL     1      66.759  82.749  69.632  1.00  0.00    -0.504 OA
ATOM     50  H   UNL     1      67.652  82.487  69.351  1.00  0.00     0.293 HD
ENDBRANCH  46  49
ENDBRANCH  40  41
ENDBRANCH  38  40
ENDBRANCH  37  38
ENDBRANCH   1  37
TORSDOF 11
ENDMDL
MODEL 2
REMARK VINA RESULT:    -6.189     29.013     32.463
REMARK INTER + INTRA:         -13.190
REMARK INTER:                 -13.015
REMARK INTRA:                  -0.176
REMARK UNBOUND:                -2.298
REMARK SMILES C=C(C)[C@]12C[C@@H](C)[C@@]34O[C@](Cc5ccccc5)(O[C@@H]1[C@@H]3C=C(COC(=O)Cc1ccc(O)c(OC)c1)C[C@]1(O)C(=O)C(C)=C[C@@H]41)O2
REMARK SMILES IDX 23 1 22 2 21 3 20 4 9 5 8 6 10 7 6 8 18 9 46 10 19 11 5 12
REMARK SMILES IDX 7 13 4 14 45 15 38 16 44 17 40 18 42 20 41 21 43 22 39 23
REMARK SMILES IDX 11 25 12 26 13 27 17 28 14 29 16 30 15 31 2 32 3 33 1 34
REMARK SMILES IDX 37 35 24 37 25 38 26 39 27 40 28 41 36 42 29 43 33 44 30 45
REMARK SMILES IDX 31 46 34 47 35 48 32 49
REMARK H PARENT 39 24 32 50
REMARK Flexibility Score: 90.00
ROOT
ATOM      1  C   UNL     1      94.158  99.409  73.857  1.00  0.00     0.264 C 
ENDROOT
BRANCH   1   2
ATOM      2  C   UNL     1      93.467 100.679  73.417  1.00  0.00    -0.033 C 
ATOM      3  C   UNL     1      92.943 100.749  72.177  1.00  0.00    -0.015 C 
BRANCH   3   4
ATOM      4  C   UNL     1      92.275 101.921  71.477  1.00  0.00     0.078 C 
ATOM      5  O   UNL     1      89.849 101.738  71.920  1.00  0.00    -0.319 OA
ATOM      6  C   UNL     1      91.018 102.581  72.156  1.00  0.00     0.095 C 
ATOM      7  C   UNL     1      89.731 101.206  70.586  1.00  0.00     0.289 C 
ATOM      8  C   UNL     1      90.790 103.993  71.474  1.00  0.00     0.023 C 
ATOM      9  O   UNL     1      90.882 100.445  70.229  1.00  0.00    -0.320 OA
ATOM     10  O   UNL     1      89.627 102.232  69.602  1.00  0.00    -0.313 OA
ATOM     11  C   UNL     1      91.838 101.502  70.052  1.00  0.00     0.170 C 
ATOM     12  C   UNL     1      91.204 103.975  69.970  1.00  0.00     0.049 C 
ATOM     13  C   UNL     1      89.372 104.570  71.606  1.00  0.00     0.011 C 
ATOM     14  C   UNL     1      90.999 102.595  69.343  1.00  0.00     0.122 C 
BRANCH   6  15
ATOM     15  C   UNL     1      91.175 102.604  73.704  1.00  0.00     0.086 C 
ATOM     16  C   UNL     1      92.564 103.005  74.241  1.00  0.00     0.140 CG0
ATOM     17  C   UNL     1      90.229 103.432  74.528  1.00  0.00    -0.010 C 
ATOM     18  C   UNL     1      92.220 103.747  75.515  1.00  0.00     0.190 C 
ATOM     19  G   UNL     1      93.457 101.791  74.493  1.00  0.00     0.000 G0
ATOM     20  C   UNL     1      90.781 104.065  75.569  1.00  0.00    -0.008 C 
ATOM     21  O   UNL     1      93.020 104.091  76.372  1.00  0.00    -0.291 OA
ATOM     22  C   UNL     1      90.153 104.885  76.625  1.00  0.00     0.048 C 
BRANCH  16  23
ATOM     23  O   UNL     1      93.226 103.978  73.450  1.00  0.00    -0.381 OA
ATOM     24  H   UNL     1      92.912 103.896  72.535  1.00  0.00     0.212 HD
ENDBRANCH  16  23
ENDBRANCH   6  15
BRANCH   7  25
ATOM     25  C   UNL     1      88.498 100.326  70.532  1.00  0.00     0.135 C 
BRANCH  25  26
ATOM     26  C   UNL     1      88.804  98.959  69.972  1.00  0.00    -0.040 A 
ATOM     27  C   UNL     1      89.360  97.978  70.794  1.00  0.00     0.004 A 
ATOM     28  C   UNL     1      88.530  98.675  68.635  1.00  0.00     0.004 A 
ATOM     29  C   UNL     1      89.643  96.713  70.276  1.00  0.00     0.000 A 
ATOM     30  C   UNL     1      88.812  97.411  68.117  1.00  0.00     0.000 A 
ATOM     31  C   UNL     1      89.369  96.430  68.939  1.00  0.00     0.000 A 
ENDBRANCH  25  26
ENDBRANCH   7  25
BRANCH  14  32
ATOM     32  C   UNL     1      91.214 102.598  67.865  1.00  0.00    -0.046 C 
ATOM     33  C   UNL     1      91.871 103.819  67.294  1.00  0.00     0.042 C 
ATOM     34  C   UNL     1      90.841 101.567  67.092  1.00  0.00     0.010 C 
ENDBRANCH  14  32
ENDBRANCH   3   4
BRANCH   2  35
ATOM     35  C   UNL     1      93.452 101.750  74.491  1.00  0.00     0.078 CG0
ATOM     36  G   UNL     1      92.576 102.977  74.243  1.00  0.00     0.000 G0
ENDBRANCH   2  35
ENDBRANCH   1   2
BRANCH   1  37
ATOM     37  O   UNL     1      94.855  99.649  75.061  1.00  0.00    -0.461 OA
BRANCH  37  38
ATOM     38  C   UNL     1      94.518  98.850  76.128  1.00  0.00     0.310 C 
ATOM     39  O   UNL     1      94.998  98.937  77.250  1.00  0.00    -0.252 OA
BRANCH  38  40
ATOM     40  C   UNL     1      93.467  97.853  75.701  1.00  0.00     0.158 C 
BRANCH  40  41
ATOM     41  C   UNL     1      93.268  96.744  76.701  1.00  0.00    -0.033 A 
ATOM     42  C   UNL     1      92.024  96.120  76.812  1.00  0.00     0.054 A 
ATOM     43  C   UNL     1      94.325  96.340  77.515  1.00  0.00     0.008 A 
ATOM     44  C   UNL     1      91.839  95.093  77.738  1.00  0.00     0.160 A 
ATOM     45  C   UNL     1      94.141  95.313  78.441  1.00  0.00     0.050 A 
ATOM     46  C   UNL     1      92.898  94.690  78.553  1.00  0.00     0.157 A 
BRANCH  44  47
ATOM     47  O   UNL     1      90.621  94.493  77.838  1.00  0.00    -0.493 OA
ATOM     48  C   UNL     1      89.504  95.200  77.301  1.00  0.00     0.278 C 
ENDBRANCH  44  47
BRANCH  46  49
ATOM     49  O   UNL     1      92.730  93.687  79.459  1.00  0.00    -0.504 OA
ATOM     50  H   UNL     1      92.150  93.008  79.076  1.00  0.00     0.293 HD
ENDBRANCH  46  49
ENDBRANCH  40  41
ENDBRANCH  38  40
ENDBRANCH  37  38
ENDBRANCH   1  37
TORSDOF 11
ENDMDL
MODEL 3
REMARK VINA RESULT:    -6.188      2.553      6.153
REMARK INTER + INTRA:         -13.189
REMARK INTER:                 -11.264
REMARK INTRA:                  -1.925
REMARK UNBOUND:                -2.298
REMARK SMILES C=C(C)[C@]12C[C@@H](C)[C@@]34O[C@](Cc5ccccc5)(O[C@@H]1[C@@H]3C=C(COC(=O)Cc1ccc(O)c(OC)c1)C[C@]1(O)C(=O)C(C)=C[C@@H]41)O2
REMARK SMILES IDX 23 1 22 2 21 3 20 4 9 5 8 6 10 7 6 8 18 9 46 10 19 11 5 12
REMARK SMILES IDX 7 13 4 14 45 15 38 16 44 17 40 18 42 20 41 21 43 22 39 23
REMARK SMILES IDX 11 25 12 26 13 27 17 28 14 29 16 30 15 31 2 32 3 33 1 34
REMARK SMILES IDX 37 35 24 37 25 38 26 39 27 40 28 41 36 42 29 43 33 44 30 45
REMARK SMILES IDX 31 46 34 47 35 48 32 49
REMARK H PARENT 39 24 32 50
REMARK Flexibility Score: 90.00
ROOT
ATOM      1  C   UNL     1      65.339  87.950  70.963  1.00  0.00     0.264 C 
ENDROOT
BRANCH   1   2
ATOM      2  C   UNL     1      65.121  86.520  71.400  1.00  0.00    -0.033 C 
ATOM      3  C   UNL     1      64.672  86.273  72.647  1.00  0.00    -0.015 C 
BRANCH   3   4
ATOM      4  C   UNL     1      64.447  84.942  73.346  1.00  0.00     0.078 C 
ATOM      5  O   UNL     1      62.087  84.314  72.957  1.00  0.00    -0.319 OA
ATOM      6  C   UNL     1      63.463  83.906  72.685  1.00  0.00     0.095 C 
ATOM      7  C   UNL     1      61.832  84.769  74.300  1.00  0.00     0.289 C 
ATOM      8  C   UNL     1      63.733  82.495  73.352  1.00  0.00     0.023 C 
ATOM      9  O   UNL     1      62.675  85.866  74.642  1.00  0.00    -0.320 OA
ATOM     10  O   UNL     1      62.098  83.761  75.272  1.00  0.00    -0.313 OA
ATOM     11  C   UNL     1      63.931  85.184  74.785  1.00  0.00     0.170 C 
ATOM     12  C   UNL     1      64.154  82.641  74.847  1.00  0.00     0.049 C 
ATOM     13  C   UNL     1      62.582  81.482  73.242  1.00  0.00     0.011 C 
ATOM     14  C   UNL     1      63.519  83.871  75.496  1.00  0.00     0.122 C 
BRANCH   6  15
ATOM     15  C   UNL     1      63.580  83.946  71.134  1.00  0.00     0.086 C 
ATOM     16  C   UNL     1      65.010  84.041  70.562  1.00  0.00     0.140 CG0
ATOM     17  C   UNL     1      62.950  82.851  70.319  1.00  0.00    -0.010 C 
ATOM     18  C   UNL     1      64.906  83.232  69.286  1.00  0.00     0.190 C 
ATOM     19  G   UNL     1      65.435  85.486  70.306  1.00  0.00     0.000 G0
ATOM     20  C   UNL     1      63.657  82.447  69.259  1.00  0.00    -0.008 C 
ATOM     21  O   UNL     1      65.753  83.183  68.408  1.00  0.00    -0.291 OA
ATOM     22  C   UNL     1      63.318  81.468  68.205  1.00  0.00     0.048 C 
BRANCH  16  23
ATOM     23  O   UNL     1      65.981  83.344  71.326  1.00  0.00    -0.381 OA
ATOM     24  H   UNL     1      66.322  82.608  70.791  1.00  0.00     0.212 HD
ENDBRANCH  16  23
ENDBRANCH   6  15
BRANCH   7  25
ATOM     25  C   UNL     1      60.380  85.190  74.392  1.00  0.00     0.135 C 
BRANCH  25  26
ATOM     26  C   UNL     1      59.827  85.611  73.053  1.00  0.00    -0.040 A 
ATOM     27  C   UNL     1      59.864  86.954  72.674  1.00  0.00     0.004 A 
ATOM     28  C   UNL     1      59.281  84.659  72.193  1.00  0.00     0.004 A 
ATOM     29  C   UNL     1      59.353  87.343  71.436  1.00  0.00     0.000 A 
ATOM     30  C   UNL     1      58.770  85.049  70.955  1.00  0.00     0.000 A 
ATOM     31  C   UNL     1      58.806  86.391  70.577  1.00  0.00     0.000 A 
ENDBRANCH  25  26
ENDBRANCH   7  25
BRANCH  14  32
ATOM     32  C   UNL     1      63.759  83.931  76.970  1.00  0.00    -0.046 C 
ATOM     33  C   UNL     1      62.569  84.257  77.822  1.00  0.00     0.042 C 
ATOM     34  C   UNL     1      64.970  83.706  77.501  1.00  0.00     0.010 C 
ENDBRANCH  14  32
ENDBRANCH   3   4
BRANCH   2  35
ATOM     35  C   UNL     1      65.447  85.510  70.316  1.00  0.00     0.078 CG0
ATOM     36  G   UNL     1      65.003  84.067  70.549  1.00  0.00     0.000 G0
ENDBRANCH   2  35
ENDBRANCH   1   2
BRANCH   1  37
ATOM     37  O   UNL     1      65.291  88.796  72.092  1.00  0.00    -0.461 OA
BRANCH  37  38
ATOM     38  C   UNL     1      66.494  89.303  72.524  1.00  0.00     0.310 C 
ATOM     39  O   UNL     1      67.564  89.159  71.950  1.00  0.00    -0.252 OA
BRANCH  38  40
ATOM     40  C   UNL     1      66.287  90.062  73.814  1.00  0.00     0.158 C 
BRANCH  40  41
ATOM     41  C   UNL     1      66.236  89.164  75.023  1.00  0.00    -0.033 A 
ATOM     42  C   UNL     1      65.416  89.493  76.103  1.00  0.00     0.054 A 
ATOM     43  C   UNL     1      67.009  88.003  75.063  1.00  0.00     0.008 A 
ATOM     44  C   UNL     1      65.369  88.662  77.222  1.00  0.00     0.160 A 
ATOM     45  C   UNL     1      66.962  87.172  76.182  1.00  0.00     0.050 A 
ATOM     46  C   UNL     1      66.143  87.501  77.261  1.00  0.00     0.157 A 
BRANCH  44  47
ATOM     47  O   UNL     1      64.565  88.994  78.270  1.00  0.00    -0.493 OA
ATOM     48  C   UNL     1      63.389  88.209  78.459  1.00  0.00     0.278 C 
ENDBRANCH  44  47
BRANCH  46  49
ATOM     49  O   UNL     1      66.104  86.681  78.348  1.00  0.00    -0.504 OA
ATOM     50  H   UNL     1      66.990  86.640  78.745  1.00  0.00     0.293 HD
ENDBRANCH  46  49
ENDBRANCH  40  41
ENDBRANCH  38  40
ENDBRANCH  37  38
ENDBRANCH   1  37
TORSDOF 11
ENDMDL
MODEL 4
REMARK VINA RESULT:    -6.177      3.038      6.533
REMARK INTER + INTRA:         -13.170
REMARK INTER:                 -10.186
REMARK INTRA:                  -2.984
REMARK UNBOUND:                -2.298
REMARK SMILES C=C(C)[C@]12C[C@@H](C)[C@@]34O[C@](Cc5ccccc5)(O[C@@H]1[C@@H]3C=C(COC(=O)Cc1ccc(O)c(OC)c1)C[C@]1(O)C(=O)C(C)=C[C@@H]41)O2
REMARK SMILES IDX 23 1 22 2 21 3 20 4 9 5 8 6 10 7 6 8 18 9 46 10 19 11 5 12
REMARK SMILES IDX 7 13 4 14 45 15 38 16 44 17 40 18 42 20 41 21 43 22 39 23
REMARK SMILES IDX 11 25 12 26 13 27 17 28 14 29 16 30 15 31 2 32 3 33 1 34
REMARK SMILES IDX 37 35 24 37 25 38 26 39 27 40 28 41 36 42 29 43 33 44 30 45
REMARK SMILES IDX 31 46 34 47 35 48 32 49
REMARK H PARENT 39 24 32 50
REMARK Flexibility Score: 90.00
ROOT
ATOM      1  C   UNL     1      68.344  87.080  71.977  1.00  0.00     0.264 C 
ENDROOT
BRANCH   1   2
ATOM      2  C   UNL     1      67.753  85.803  71.427  1.00  0.00    -0.033 C 
ATOM      3  C   UNL     1      66.537  85.403  71.851  1.00  0.00    -0.015 C 
BRANCH   3   4
ATOM      4  C   UNL     1      65.766  84.137  71.515  1.00  0.00     0.078 C 
ATOM      5  O   UNL     1      64.329  84.663  69.570  1.00  0.00    -0.319 OA
ATOM      6  C   UNL     1      65.451  83.832  70.003  1.00  0.00     0.095 C 
ATOM      7  C   UNL     1      63.242  84.768  70.509  1.00  0.00     0.289 C 
ATOM      8  C   UNL     1      65.041  82.305  69.897  1.00  0.00     0.023 C 
ATOM      9  O   UNL     1      63.689  85.277  71.763  1.00  0.00    -0.320 OA
ATOM     10  O   UNL     1      62.651  83.504  70.796  1.00  0.00    -0.313 OA
ATOM     11  C   UNL     1      64.407  84.136  72.257  1.00  0.00     0.170 C 
ATOM     12  C   UNL     1      64.292  81.824  71.178  1.00  0.00     0.049 C 
ATOM     13  C   UNL     1      64.222  81.926  68.653  1.00  0.00     0.011 C 
ATOM     14  C   UNL     1      63.498  82.958  71.828  1.00  0.00     0.122 C 
BRANCH   6  15
ATOM     15  C   UNL     1      66.634  84.271  69.092  1.00  0.00     0.086 C 
ATOM     16  C   UNL     1      68.049  83.935  69.607  1.00  0.00     0.140 CG0
ATOM     17  C   UNL     1      66.667  83.821  67.659  1.00  0.00    -0.010 C 
ATOM     18  C   UNL     1      68.803  83.652  68.325  1.00  0.00     0.190 C 
ATOM     19  G   UNL     1      68.661  85.085  70.405  1.00  0.00     0.000 G0
ATOM     20  C   UNL     1      67.875  83.493  67.189  1.00  0.00    -0.008 C 
ATOM     21  O   UNL     1      70.014  83.519  68.230  1.00  0.00    -0.291 OA
ATOM     22  C   UNL     1      68.291  83.094  65.829  1.00  0.00     0.048 C 
BRANCH  16  23
ATOM     23  O   UNL     1      68.124  82.712  70.320  1.00  0.00    -0.381 OA
ATOM     24  H   UNL     1      69.033  82.375  70.257  1.00  0.00     0.212 HD
ENDBRANCH  16  23
ENDBRANCH   6  15
BRANCH   7  25
ATOM     25  C   UNL     1      62.196  85.695  69.923  1.00  0.00     0.135 C 
BRANCH  25  26
ATOM     26  C   UNL     1      60.855  85.529  70.593  1.00  0.00    -0.040 A 
ATOM     27  C   UNL     1      59.933  84.611  70.089  1.00  0.00     0.004 A 
ATOM     28  C   UNL     1      60.537  86.291  71.717  1.00  0.00     0.004 A 
ATOM     29  C   UNL     1      58.692  84.457  70.708  1.00  0.00     0.000 A 
ATOM     30  C   UNL     1      59.296  86.137  72.336  1.00  0.00     0.000 A 
ATOM     31  C   UNL     1      58.374  85.220  71.831  1.00  0.00     0.000 A 
ENDBRANCH  25  26
ENDBRANCH   7  25
BRANCH  14  32
ATOM     32  C   UNL     1      62.629  82.482  72.947  1.00  0.00    -0.046 C 
ATOM     33  C   UNL     1      63.034  81.193  73.597  1.00  0.00     0.042 C 
ATOM     34  C   UNL     1      61.549  83.170  73.347  1.00  0.00     0.010 C 
ENDBRANCH  14  32
ENDBRANCH   3   4
BRANCH   2  35
ATOM     35  C   UNL     1      68.653  85.118  70.416  1.00  0.00     0.078 CG0
ATOM     36  G   UNL     1      68.053  83.961  69.618  1.00  0.00     0.000 G0
ENDBRANCH   2  35
ENDBRANCH   1   2
BRANCH   1  37
ATOM     37  O   UNL     1      69.185  87.662  71.005  1.00  0.00    -0.461 OA
BRANCH  37  38
ATOM     38  C   UNL     1      68.972  88.993  70.734  1.00  0.00     0.310 C 
ATOM     39  O   UNL     1      68.953  89.886  71.570  1.00  0.00    -0.252 OA
BRANCH  38  40
ATOM     40  C   UNL     1      68.765  89.180  69.249  1.00  0.00     0.158 C 
BRANCH  40  41
ATOM     41  C   UNL     1      67.461  88.604  68.761  1.00  0.00    -0.033 A 
ATOM     42  C   UNL     1      66.285  88.836  69.475  1.00  0.00     0.054 A 
ATOM     43  C   UNL     1      67.429  87.839  67.595  1.00  0.00     0.008 A 
ATOM     44  C   UNL     1      65.077  88.303  69.023  1.00  0.00     0.160 A 
ATOM     45  C   UNL     1      66.222  87.306  67.143  1.00  0.00     0.050 A 
ATOM     46  C   UNL     1      65.046  87.537  67.857  1.00  0.00     0.157 A 
BRANCH  44  47
ATOM     47  O   UNL     1      63.936  88.536  69.729  1.00  0.00    -0.493 OA
ATOM     48  C   UNL     1      64.063  88.657  71.145  1.00  0.00     0.278 C 
ENDBRANCH  44  47
BRANCH  46  49
ATOM     49  O   UNL     1      63.873  87.013  67.405  1.00  0.00    -0.504 OA
ATOM     50  H   UNL     1      63.985  86.057  67.270  1.00  0.00     0.293 HD
ENDBRANCH  46  49
ENDBRANCH  40  41
ENDBRANCH  38  40
ENDBRANCH  37  38
ENDBRANCH   1  37
TORSDOF 11
ENDMDL
MODEL 5
REMARK VINA RESULT:    -6.115      6.386     12.561
REMARK INTER + INTRA:         -13.060
REMARK INTER:                 -12.067
REMARK INTRA:                  -0.993
REMARK UNBOUND:                -2.298
REMARK SMILES C=C(C)[C@]12C[C@@H](C)[C@@]34O[C@](Cc5ccccc5)(O[C@@H]1[C@@H]3C=C(COC(=O)Cc1ccc(O)c(OC)c1)C[C@]1(O)C(=O)C(C)=C[C@@H]41)O2
REMARK SMILES IDX 23 1 22 2 21 3 20 4 9 5 8 6 10 7 6 8 18 9 46 10 19 11 5 12
REMARK SMILES IDX 7 13 4 14 45 15 38 16 44 17 40 18 42 20 41 21 43 22 39 23
REMARK SMILES IDX 11 25 12 26 13 27 17 28 14 29 16 30 15 31 2 32 3 33 1 34
REMARK SMILES IDX 37 35 24 37 25 38 26 39 27 40 28 41 36 42 29 43 33 44 30 45
REMARK SMILES IDX 31 46 34 47 35 48 32 49
REMARK H PARENT 39 24 32 50
REMARK Flexibility Score: 90.00
ROOT
ATOM      1  C   UNL     1      69.931  85.187  68.521  1.00  0.00     0.264 C 
ENDROOT
BRANCH   1   2
ATOM      2  C   UNL     1      71.183  85.351  67.690  1.00  0.00    -0.033 C 
ATOM      3  C   UNL     1      71.827  86.535  67.696  1.00  0.00    -0.015 C 
BRANCH   3   4
ATOM      4  C   UNL     1      73.045  86.975  66.900  1.00  0.00     0.078 C 
ATOM      5  O   UNL     1      75.029  86.515  68.304  1.00  0.00    -0.319 OA
ATOM      6  C   UNL     1      74.376  86.148  67.049  1.00  0.00     0.095 C 
ATOM      7  C   UNL     1      75.037  87.923  68.605  1.00  0.00     0.289 C 
ATOM      8  C   UNL     1      75.320  86.534  65.836  1.00  0.00     0.023 C 
ATOM      9  O   UNL     1      73.714  88.452  68.645  1.00  0.00    -0.320 OA
ATOM     10  O   UNL     1      75.726  88.684  67.616  1.00  0.00    -0.313 OA
ATOM     11  C   UNL     1      73.397  88.443  67.244  1.00  0.00     0.170 C 
ATOM     12  C   UNL     1      75.125  88.022  65.412  1.00  0.00     0.049 C 
ATOM     13  C   UNL     1      76.816  86.254  66.049  1.00  0.00     0.011 C 
ATOM     14  C   UNL     1      74.728  88.901  66.598  1.00  0.00     0.122 C 
BRANCH   6  15
ATOM     15  C   UNL     1      74.069  84.630  67.201  1.00  0.00     0.086 C 
ATOM     16  C   UNL     1      72.983  84.059  66.265  1.00  0.00     0.140 CG0
ATOM     17  C   UNL     1      75.190  83.636  67.083  1.00  0.00    -0.010 C 
ATOM     18  C   UNL     1      73.487  82.656  66.000  1.00  0.00     0.190 C 
ATOM     19  G   UNL     1      71.599  84.072  66.911  1.00  0.00     0.000 G0
ATOM     20  C   UNL     1      74.887  82.505  66.438  1.00  0.00    -0.008 C 
ATOM     21  O   UNL     1      72.852  81.768  65.451  1.00  0.00    -0.291 OA
ATOM     22  C   UNL     1      75.700  81.293  66.209  1.00  0.00     0.048 C 
BRANCH  16  23
ATOM     23  O   UNL     1      72.961  84.659  64.980  1.00  0.00    -0.381 OA
ATOM     24  H   UNL     1      72.278  84.218  64.448  1.00  0.00     0.212 HD
ENDBRANCH  16  23
ENDBRANCH   6  15
BRANCH   7  25
ATOM     25  C   UNL     1      75.707  88.118  69.951  1.00  0.00     0.135 C 
BRANCH  25  26
ATOM     26  C   UNL     1      74.908  89.024  70.854  1.00  0.00    -0.040 A 
ATOM     27  C   UNL     1      73.822  88.516  71.568  1.00  0.00     0.004 A 
ATOM     28  C   UNL     1      75.256  90.369  70.977  1.00  0.00     0.004 A 
ATOM     29  C   UNL     1      73.083  89.355  72.403  1.00  0.00     0.000 A 
ATOM     30  C   UNL     1      74.517  91.207  71.813  1.00  0.00     0.000 A 
ATOM     31  C   UNL     1      73.431  90.699  72.525  1.00  0.00     0.000 A 
ENDBRANCH  25  26
ENDBRANCH   7  25
BRANCH  14  32
ATOM     32  C   UNL     1      74.714  90.355  66.255  1.00  0.00    -0.046 C 
ATOM     33  C   UNL     1      74.957  91.306  67.390  1.00  0.00     0.042 C 
ATOM     34  C   UNL     1      74.496  90.787  65.004  1.00  0.00     0.010 C 
ENDBRANCH  14  32
ENDBRANCH   3   4
BRANCH   2  35
ATOM     35  C   UNL     1      71.563  84.093  66.932  1.00  0.00     0.078 CG0
ATOM     36  G   UNL     1      72.941  84.064  66.273  1.00  0.00     0.000 G0
ENDBRANCH   2  35
ENDBRANCH   1   2
BRANCH   1  37
ATOM     37  O   UNL     1      70.286  85.074  69.882  1.00  0.00    -0.461 OA
BRANCH  37  38
ATOM     38  C   UNL     1      69.883  83.924  70.522  1.00  0.00     0.310 C 
ATOM     39  O   UNL     1      70.366  83.493  71.560  1.00  0.00    -0.252 OA
BRANCH  38  40
ATOM     40  C   UNL     1      68.758  83.282  69.746  1.00  0.00     0.158 C 
BRANCH  40  41
ATOM     41  C   UNL     1      67.453  83.274  70.500  1.00  0.00    -0.033 A 
ATOM     42  C   UNL     1      67.079  84.383  71.259  1.00  0.00     0.054 A 
ATOM     43  C   UNL     1      66.620  82.157  70.440  1.00  0.00     0.008 A 
ATOM     44  C   UNL     1      65.872  84.376  71.957  1.00  0.00     0.160 A 
ATOM     45  C   UNL     1      65.412  82.149  71.138  1.00  0.00     0.050 A 
ATOM     46  C   UNL     1      65.038  83.258  71.897  1.00  0.00     0.157 A 
BRANCH  44  47
ATOM     47  O   UNL     1      65.518  85.464  72.695  1.00  0.00    -0.493 OA
ATOM     48  C   UNL     1      64.868  86.531  72.005  1.00  0.00     0.278 C 
ENDBRANCH  44  47
BRANCH  46  49
ATOM     49  O   UNL     1      63.856  83.239  72.574  1.00  0.00    -0.504 OA
ATOM     50  H   UNL     1      64.033  83.355  73.522  1.00  0.00     0.293 HD
ENDBRANCH  46  49
ENDBRANCH  40  41
ENDBRANCH  38  40
ENDBRANCH  37  38
ENDBRANCH   1  37
TORSDOF 11
ENDMDL
MODEL 6
REMARK VINA RESULT:    -6.026      6.678     13.014
REMARK INTER + INTRA:         -12.905
REMARK INTER:                 -11.765
REMARK INTRA:                  -1.139
REMARK UNBOUND:                -2.298
REMARK SMILES C=C(C)[C@]12C[C@@H](C)[C@@]34O[C@](Cc5ccccc5)(O[C@@H]1[C@@H]3C=C(COC(=O)Cc1ccc(O)c(OC)c1)C[C@]1(O)C(=O)C(C)=C[C@@H]41)O2
REMARK SMILES IDX 23 1 22 2 21 3 20 4 9 5 8 6 10 7 6 8 18 9 46 10 19 11 5 12
REMARK SMILES IDX 7 13 4 14 45 15 38 16 44 17 40 18 42 20 41 21 43 22 39 23
REMARK SMILES IDX 11 25 12 26 13 27 17 28 14 29 16 30 15 31 2 32 3 33 1 34
REMARK SMILES IDX 37 35 24 37 25 38 26 39 27 40 28 41 36 42 29 43 33 44 30 45
REMARK SMILES IDX 31 46 34 47 35 48 32 49
REMARK H PARENT 39 24 32 50
REMARK Flexibility Score: 90.00
ROOT
ATOM      1  C   UNL     1      70.577  84.298  68.039  1.00  0.00     0.264 C 
ENDROOT
BRANCH   1   2
ATOM      2  C   UNL     1      71.862  84.748  67.383  1.00  0.00    -0.033 C 
ATOM      3  C   UNL     1      72.281  86.018  67.555  1.00  0.00    -0.015 C 
BRANCH   3   4
ATOM      4  C   UNL     1      73.480  86.728  66.949  1.00  0.00     0.078 C 
ATOM      5  O   UNL     1      75.358  86.455  68.535  1.00  0.00    -0.319 OA
ATOM      6  C   UNL     1      74.911  86.118  67.186  1.00  0.00     0.095 C 
ATOM      7  C   UNL     1      75.092  87.807  68.953  1.00  0.00     0.289 C 
ATOM      8  C   UNL     1      75.894  86.774  66.130  1.00  0.00     0.023 C 
ATOM      9  O   UNL     1      73.700  88.107  68.879  1.00  0.00    -0.320 OA
ATOM     10  O   UNL     1      75.737  88.767  68.120  1.00  0.00    -0.313 OA
ATOM     11  C   UNL     1      73.536  88.191  67.455  1.00  0.00     0.170 C 
ATOM     12  C   UNL     1      75.490  88.246  65.812  1.00  0.00     0.049 C 
ATOM     13  C   UNL     1      77.386  86.720  66.495  1.00  0.00     0.011 C 
ATOM     14  C   UNL     1      74.827  88.923  67.012  1.00  0.00     0.122 C 
BRANCH   6  15
ATOM     15  C   UNL     1      74.856  84.562  67.172  1.00  0.00     0.086 C 
ATOM     16  C   UNL     1      73.969  83.923  66.084  1.00  0.00     0.140 CG0
ATOM     17  C   UNL     1      76.137  83.781  67.082  1.00  0.00    -0.010 C 
ATOM     18  C   UNL     1      74.726  82.655  65.750  1.00  0.00     0.190 C 
ATOM     19  G   UNL     1      72.553  83.644  66.585  1.00  0.00     0.000 G0
ATOM     20  C   UNL     1      76.089  82.689  66.313  1.00  0.00    -0.008 C 
ATOM     21  O   UNL     1      74.302  81.737  65.064  1.00  0.00    -0.291 OA
ATOM     22  C   UNL     1      77.114  81.655  66.063  1.00  0.00     0.048 C 
BRANCH  16  23
ATOM     23  O   UNL     1      73.954  84.640  64.861  1.00  0.00    -0.381 OA
ATOM     24  H   UNL     1      73.076  84.540  64.457  1.00  0.00     0.212 HD
ENDBRANCH  16  23
ENDBRANCH   6  15
BRANCH   7  25
ATOM     25  C   UNL     1      75.576  87.969  70.380  1.00  0.00     0.135 C 
BRANCH  25  26
ATOM     26  C   UNL     1      74.813  89.042  71.117  1.00  0.00    -0.040 A 
ATOM     27  C   UNL     1      73.650  88.715  71.815  1.00  0.00     0.004 A 
ATOM     28  C   UNL     1      75.272  90.359  71.102  1.00  0.00     0.004 A 
ATOM     29  C   UNL     1      72.945  89.708  72.498  1.00  0.00     0.000 A 
ATOM     30  C   UNL     1      74.566  91.351  71.784  1.00  0.00     0.000 A 
ATOM     31  C   UNL     1      73.403  91.024  72.482  1.00  0.00     0.000 A 
ENDBRANCH  25  26
ENDBRANCH   7  25
BRANCH  14  32
ATOM     32  C   UNL     1      74.597  90.383  66.793  1.00  0.00    -0.046 C 
ATOM     33  C   UNL     1      74.980  91.291  67.924  1.00  0.00     0.042 C 
ATOM     34  C   UNL     1      74.078  90.856  65.650  1.00  0.00     0.010 C 
ENDBRANCH  14  32
ENDBRANCH   3   4
BRANCH   2  35
ATOM     35  C   UNL     1      72.539  83.649  66.587  1.00  0.00     0.078 CG0
ATOM     36  G   UNL     1      73.968  83.909  66.111  1.00  0.00     0.000 G0
ENDBRANCH   2  35
ENDBRANCH   1   2
BRANCH   1  37
ATOM     37  O   UNL     1      70.816  84.042  69.406  1.00  0.00    -0.461 OA
BRANCH  37  38
ATOM     38  C   UNL     1      69.801  83.418  70.094  1.00  0.00     0.310 C 
ATOM     39  O   UNL     1      69.179  82.443  69.698  1.00  0.00    -0.252 OA
BRANCH  38  40
ATOM     40  C   UNL     1      69.576  84.125  71.411  1.00  0.00     0.158 C 
BRANCH  40  41
ATOM     41  C   UNL     1      69.382  85.611  71.255  1.00  0.00    -0.033 A 
ATOM     42  C   UNL     1      68.143  86.186  71.538  1.00  0.00     0.054 A 
ATOM     43  C   UNL     1      70.441  86.412  70.827  1.00  0.00     0.008 A 
ATOM     44  C   UNL     1      67.963  87.562  71.394  1.00  0.00     0.160 A 
ATOM     45  C   UNL     1      70.261  87.788  70.683  1.00  0.00     0.050 A 
ATOM     46  C   UNL     1      69.023  88.363  70.966  1.00  0.00     0.157 A 
BRANCH  44  47
ATOM     47  O   UNL     1      66.749  88.112  71.674  1.00  0.00    -0.493 OA
ATOM     48  C   UNL     1      65.644  87.679  70.882  1.00  0.00     0.278 C 
ENDBRANCH  44  47
BRANCH  46  49
ATOM     49  O   UNL     1      68.860  89.707  70.822  1.00  0.00    -0.504 OA
ATOM     50  H   UNL     1      69.299  90.160  71.561  1.00  0.00     0.293 HD
ENDBRANCH  46  49
ENDBRANCH  40  41
ENDBRANCH  38  40
ENDBRANCH  37  38
ENDBRANCH   1  37
TORSDOF 11
ENDMDL
MODEL 7
REMARK VINA RESULT:    -5.846      7.894     13.010
REMARK INTER + INTRA:         -12.587
REMARK INTER:                 -10.782
REMARK INTRA:                  -1.805
REMARK UNBOUND:                -2.298
REMARK SMILES C=C(C)[C@]12C[C@@H](C)[C@@]34O[C@](Cc5ccccc5)(O[C@@H]1[C@@H]3C=C(COC(=O)Cc1ccc(O)c(OC)c1)C[C@]1(O)C(=O)C(C)=C[C@@H]41)O2
REMARK SMILES IDX 23 1 22 2 21 3 20 4 9 5 8 6 10 7 6 8 18 9 46 10 19 11 5 12
REMARK SMILES IDX 7 13 4 14 45 15 38 16 44 17 40 18 42 20 41 21 43 22 39 23
REMARK SMILES IDX 11 25 12 26 13 27 17 28 14 29 16 30 15 31 2 32 3 33 1 34
REMARK SMILES IDX 37 35 24 37 25 38 26 39 27 40 28 41 36 42 29 43 33 44 30 45
REMARK SMILES IDX 31 46 34 47 35 48 32 49
REMARK H PARENT 39 24 32 50
REMARK Flexibility Score: 90.00
ROOT
ATOM      1  C   UNL     1      71.522  89.365  72.089  1.00  0.00     0.264 C 
ENDROOT
BRANCH   1   2
ATOM      2  C   UNL     1      72.813  89.291  71.307  1.00  0.00    -0.033 C 
ATOM      3  C   UNL     1      73.406  88.094  71.124  1.00  0.00    -0.015 C 
BRANCH   3   4
ATOM      4  C   UNL     1      74.729  87.765  70.452  1.00  0.00     0.078 C 
ATOM      5  O   UNL     1      74.228  87.264  68.082  1.00  0.00    -0.319 OA
ATOM      6  C   UNL     1      74.935  88.199  68.953  1.00  0.00     0.095 C 
ATOM      7  C   UNL     1      74.356  85.874  68.436  1.00  0.00     0.289 C 
ATOM      8  C   UNL     1      76.488  88.130  68.644  1.00  0.00     0.023 C 
ATOM      9  O   UNL     1      73.907  85.636  69.768  1.00  0.00    -0.320 OA
ATOM     10  O   UNL     1      75.710  85.429  68.402  1.00  0.00    -0.313 OA
ATOM     11  C   UNL     1      74.981  86.238  70.507  1.00  0.00     0.170 C 
ATOM     12  C   UNL     1      77.180  86.983  69.443  1.00  0.00     0.049 C 
ATOM     13  C   UNL     1      76.860  88.013  67.157  1.00  0.00     0.011 C 
ATOM     14  C   UNL     1      76.227  85.813  69.692  1.00  0.00     0.122 C 
BRANCH   6  15
ATOM     15  C   UNL     1      74.259  89.573  68.679  1.00  0.00     0.086 C 
ATOM     16  C   UNL     1      74.441  90.651  69.768  1.00  0.00     0.140 CG0
ATOM     17  C   UNL     1      74.574  90.308  67.405  1.00  0.00    -0.010 C 
ATOM     18  C   UNL     1      74.504  91.928  68.957  1.00  0.00     0.190 C 
ATOM     19  G   UNL     1      73.292  90.653  70.775  1.00  0.00     0.000 G0
ATOM     20  C   UNL     1      74.690  91.634  67.523  1.00  0.00    -0.008 C 
ATOM     21  O   UNL     1      74.461  93.060  69.414  1.00  0.00    -0.291 OA
ATOM     22  C   UNL     1      74.908  92.666  66.488  1.00  0.00     0.048 C 
BRANCH  16  23
ATOM     23  O   UNL     1      75.700  90.601  70.419  1.00  0.00    -0.381 OA
ATOM     24  H   UNL     1      75.609  90.062  71.222  1.00  0.00     0.212 HD
ENDBRANCH  16  23
ENDBRANCH   6  15
BRANCH   7  25
ATOM     25  C   UNL     1      73.530  85.057  67.464  1.00  0.00     0.135 C 
BRANCH  25  26
ATOM     26  C   UNL     1      74.393  84.214  66.558  1.00  0.00    -0.040 A 
ATOM     27  C   UNL     1      74.681  82.892  66.902  1.00  0.00     0.004 A 
ATOM     28  C   UNL     1      74.901  84.754  65.377  1.00  0.00     0.004 A 
ATOM     29  C   UNL     1      75.479  82.112  66.065  1.00  0.00     0.000 A 
ATOM     30  C   UNL     1      75.699  83.973  64.540  1.00  0.00     0.000 A 
ATOM     31  C   UNL     1      75.987  82.653  64.884  1.00  0.00     0.000 A 
ENDBRANCH  25  26
ENDBRANCH   7  25
BRANCH  14  32
ATOM     32  C   UNL     1      76.915  84.631  70.293  1.00  0.00    -0.046 C 
ATOM     33  C   UNL     1      78.294  84.336  69.783  1.00  0.00     0.042 C 
ATOM     34  C   UNL     1      76.333  83.875  71.237  1.00  0.00     0.010 C 
ENDBRANCH  14  32
ENDBRANCH   3   4
BRANCH   2  35
ATOM     35  C   UNL     1      73.283  90.644  70.806  1.00  0.00     0.078 CG0
ATOM     36  G   UNL     1      74.420  90.654  69.784  1.00  0.00     0.000 G0
ENDBRANCH   2  35
ENDBRANCH   1   2
BRANCH   1  37
ATOM     37  O   UNL     1      70.794  88.171  71.901  1.00  0.00    -0.461 OA
BRANCH  37  38
ATOM     38  C   UNL     1      69.948  88.139  70.817  1.00  0.00     0.310 C 
ATOM     39  O   UNL     1      69.925  88.969  69.918  1.00  0.00    -0.252 OA
BRANCH  38  40
ATOM     40  C   UNL     1      69.055  86.924  70.909  1.00  0.00     0.158 C 
BRANCH  40  41
ATOM     41  C   UNL     1      69.507  85.794  70.020  1.00  0.00    -0.033 A 
ATOM     42  C   UNL     1      69.457  85.935  68.632  1.00  0.00     0.054 A 
ATOM     43  C   UNL     1      69.975  84.608  70.583  1.00  0.00     0.008 A 
ATOM     44  C   UNL     1      69.875  84.889  67.810  1.00  0.00     0.160 A 
ATOM     45  C   UNL     1      70.393  83.562  69.760  1.00  0.00     0.050 A 
ATOM     46  C   UNL     1      70.343  83.702  68.374  1.00  0.00     0.157 A 
BRANCH  44  47
ATOM     47  O   UNL     1      69.820  85.039  66.457  1.00  0.00    -0.493 OA
ATOM     48  C   UNL     1      68.730  85.794  65.931  1.00  0.00     0.278 C 
ENDBRANCH  44  47
BRANCH  46  49
ATOM     49  O   UNL     1      70.755  82.675  67.581  1.00  0.00    -0.504 OA
ATOM     50  H   UNL     1      70.382  82.792  66.691  1.00  0.00     0.293 HD
ENDBRANCH  46  49
ENDBRANCH  40  41
ENDBRANCH  38  40
ENDBRANCH  37  38
ENDBRANCH   1  37
TORSDOF 11
ENDMDL
MODEL 8
REMARK VINA RESULT:    -5.699      2.784      4.691
REMARK INTER + INTRA:         -12.328
REMARK INTER:                 -11.023
REMARK INTRA:                  -1.305
REMARK UNBOUND:                -2.298
REMARK SMILES C=C(C)[C@]12C[C@@H](C)[C@@]34O[C@](Cc5ccccc5)(O[C@@H]1[C@@H]3C=C(COC(=O)Cc1ccc(O)c(OC)c1)C[C@]1(O)C(=O)C(C)=C[C@@H]41)O2
REMARK SMILES IDX 23 1 22 2 21 3 20 4 9 5 8 6 10 7 6 8 18 9 46 10 19 11 5 12
REMARK SMILES IDX 7 13 4 14 45 15 38 16 44 17 40 18 42 20 41 21 43 22 39 23
REMARK SMILES IDX 11 25 12 26 13 27 17 28 14 29 16 30 15 31 2 32 3 33 1 34
REMARK SMILES IDX 37 35 24 37 25 38 26 39 27 40 28 41 36 42 29 43 33 44 30 45
REMARK SMILES IDX 31 46 34 47 35 48 32 49
REMARK H PARENT 39 24 32 50
REMARK Flexibility Score: 90.00
ROOT
ATOM      1  C   UNL     1      68.216  86.145  73.094  1.00  0.00     0.264 C 
ENDROOT
BRANCH   1   2
ATOM      2  C   UNL     1      66.985  85.989  73.955  1.00  0.00    -0.033 C 
ATOM      3  C   UNL     1      65.789  85.788  73.366  1.00  0.00    -0.015 C 
BRANCH   3   4
ATOM      4  C   UNL     1      64.409  85.679  73.995  1.00  0.00     0.078 C 
ATOM      5  O   UNL     1      64.010  83.280  74.445  1.00  0.00    -0.319 OA
ATOM      6  C   UNL     1      64.173  84.579  75.095  1.00  0.00     0.095 C 
ATOM      7  C   UNL     1      63.189  83.281  73.262  1.00  0.00     0.289 C 
ATOM      8  C   UNL     1      62.838  84.949  75.865  1.00  0.00     0.023 C 
ATOM      9  O   UNL     1      63.694  84.185  72.283  1.00  0.00    -0.320 OA
ATOM     10  O   UNL     1      61.856  83.708  73.530  1.00  0.00    -0.313 OA
ATOM     11  C   UNL     1      63.347  85.437  72.894  1.00  0.00     0.170 C 
ATOM     12  C   UNL     1      61.806  85.638  74.920  1.00  0.00     0.049 C 
ATOM     13  C   UNL     1      62.158  83.786  76.604  1.00  0.00     0.011 C 
ATOM     14  C   UNL     1      61.942  85.147  73.479  1.00  0.00     0.122 C 
BRANCH   6  15
ATOM     15  C   UNL     1      65.436  84.411  75.988  1.00  0.00     0.086 C 
ATOM     16  C   UNL     1      66.149  85.713  76.409  1.00  0.00     0.140 CG0
ATOM     17  C   UNL     1      65.332  83.639  77.274  1.00  0.00    -0.010 C 
ATOM     18  C   UNL     1      66.656  85.374  77.794  1.00  0.00     0.190 C 
ATOM     19  G   UNL     1      67.277  86.088  75.449  1.00  0.00     0.000 G0
ATOM     20  C   UNL     1      66.028  84.139  78.300  1.00  0.00    -0.008 C 
ATOM     21  O   UNL     1      67.440  86.047  78.446  1.00  0.00    -0.291 OA
ATOM     22  C   UNL     1      66.223  83.609  79.665  1.00  0.00     0.048 C 
BRANCH  16  23
ATOM     23  O   UNL     1      65.270  86.804  76.627  1.00  0.00    -0.381 OA
ATOM     24  H   UNL     1      65.791  87.558  76.948  1.00  0.00     0.212 HD
ENDBRANCH  16  23
ENDBRANCH   6  15
BRANCH   7  25
ATOM     25  C   UNL     1      63.166  81.875  72.698  1.00  0.00     0.135 C 
BRANCH  25  26
ATOM     26  C   UNL     1      63.587  81.840  71.250  1.00  0.00    -0.040 A 
ATOM     27  C   UNL     1      64.905  81.528  70.915  1.00  0.00     0.004 A 
ATOM     28  C   UNL     1      62.660  82.117  70.247  1.00  0.00     0.004 A 
ATOM     29  C   UNL     1      65.296  81.495  69.576  1.00  0.00     0.000 A 
ATOM     30  C   UNL     1      63.050  82.085  68.907  1.00  0.00     0.000 A 
ATOM     31  C   UNL     1      64.368  81.774  68.573  1.00  0.00     0.000 A 
ENDBRANCH  25  26
ENDBRANCH   7  25
BRANCH  14  32
ATOM     32  C   UNL     1      60.850  85.653  72.594  1.00  0.00    -0.046 C 
ATOM     33  C   UNL     1      61.284  86.398  71.367  1.00  0.00     0.042 C 
ATOM     34  C   UNL     1      59.555  85.453  72.880  1.00  0.00     0.010 C 
ENDBRANCH  14  32
ENDBRANCH   3   4
BRANCH   2  35
ATOM     35  C   UNL     1      67.282  86.079  75.440  1.00  0.00     0.078 CG0
ATOM     36  G   UNL     1      66.157  85.699  76.402  1.00  0.00     0.000 G0
ENDBRANCH   2  35
ENDBRANCH   1   2
BRANCH   1  37
ATOM     37  O   UNL     1      68.226  85.137  72.107  1.00  0.00    -0.461 OA
BRANCH  37  38
ATOM     38  C   UNL     1      69.231  85.212  71.170  1.00  0.00     0.310 C 
ATOM     39  O   UNL     1      69.789  86.242  70.820  1.00  0.00    -0.252 OA
BRANCH  38  40
ATOM     40  C   UNL     1      69.535  83.829  70.644  1.00  0.00     0.158 C 
BRANCH  40  41
ATOM     41  C   UNL     1      69.336  83.709  69.155  1.00  0.00    -0.033 A 
ATOM     42  C   UNL     1      70.438  83.745  68.299  1.00  0.00     0.054 A 
ATOM     43  C   UNL     1      68.051  83.563  68.632  1.00  0.00     0.008 A 
ATOM     44  C   UNL     1      70.254  83.635  66.921  1.00  0.00     0.160 A 
ATOM     45  C   UNL     1      67.867  83.452  67.254  1.00  0.00     0.050 A 
ATOM     46  C   UNL     1      68.968  83.488  66.398  1.00  0.00     0.157 A 
BRANCH  44  47
ATOM     47  O   UNL     1      71.337  83.671  66.096  1.00  0.00    -0.493 OA
ATOM     48  C   UNL     1      72.481  82.917  66.494  1.00  0.00     0.278 C 
ENDBRANCH  44  47
BRANCH  46  49
ATOM     49  O   UNL     1      68.777  83.378  65.054  1.00  0.00    -0.504 OA
ATOM     50  H   UNL     1      68.518  84.246  64.699  1.00  0.00     0.293 HD
ENDBRANCH  46  49
ENDBRANCH  40  41
ENDBRANCH  38  40
ENDBRANCH  37  38
ENDBRANCH   1  37
TORSDOF 11
ENDMDL
MODEL 9
REMARK VINA RESULT:    -5.601      7.788     12.128
REMARK INTER + INTRA:         -12.156
REMARK INTER:                 -11.013
REMARK INTRA:                  -1.143
REMARK UNBOUND:                -2.298
REMARK SMILES C=C(C)[C@]12C[C@@H](C)[C@@]34O[C@](Cc5ccccc5)(O[C@@H]1[C@@H]3C=C(COC(=O)Cc1ccc(O)c(OC)c1)C[C@]1(O)C(=O)C(C)=C[C@@H]41)O2
REMARK SMILES IDX 23 1 22 2 21 3 20 4 9 5 8 6 10 7 6 8 18 9 46 10 19 11 5 12
REMARK SMILES IDX 7 13 4 14 45 15 38 16 44 17 40 18 42 20 41 21 43 22 39 23
REMARK SMILES IDX 11 25 12 26 13 27 17 28 14 29 16 30 15 31 2 32 3 33 1 34
REMARK SMILES IDX 37 35 24 37 25 38 26 39 27 40 28 41 36 42 29 43 33 44 30 45
REMARK SMILES IDX 31 46 34 47 35 48 32 49
REMARK H PARENT 39 24 32 50
REMARK Flexibility Score: 90.00
ROOT
ATOM      1  C   UNL     1      72.601  88.597  68.801  1.00  0.00     0.264 C 
ENDROOT
BRANCH   1   2
ATOM      2  C   UNL     1      72.333  87.815  67.537  1.00  0.00    -0.033 C 
ATOM      3  C   UNL     1      72.618  86.498  67.503  1.00  0.00    -0.015 C 
BRANCH   3   4
ATOM      4  C   UNL     1      72.515  85.518  66.346  1.00  0.00     0.078 C 
ATOM      5  O   UNL     1      70.275  84.475  66.482  1.00  0.00    -0.319 OA
ATOM      6  C   UNL     1      71.117  85.329  65.647  1.00  0.00     0.095 C 
ATOM      7  C   UNL     1      70.935  83.331  67.056  1.00  0.00     0.289 C 
ATOM      8  C   UNL     1      71.370  84.614  64.255  1.00  0.00     0.023 C 
ATOM      9  O   UNL     1      72.057  83.722  67.844  1.00  0.00    -0.320 OA
ATOM     10  O   UNL     1      71.452  82.450  66.063  1.00  0.00    -0.313 OA
ATOM     11  C   UNL     1      72.970  84.111  66.807  1.00  0.00     0.170 C 
ATOM     12  C   UNL     1      72.577  83.629  64.330  1.00  0.00     0.049 C 
ATOM     13  C   UNL     1      70.154  83.889  63.656  1.00  0.00     0.011 C 
ATOM     14  C   UNL     1      72.730  83.027  65.727  1.00  0.00     0.122 C 
BRANCH   6  15
ATOM     15  C   UNL     1      70.350  86.681  65.575  1.00  0.00     0.086 C 
ATOM     16  C   UNL     1      71.185  87.917  65.183  1.00  0.00     0.140 CG0
ATOM     17  C   UNL     1      69.132  86.790  64.700  1.00  0.00    -0.010 C 
ATOM     18  C   UNL     1      70.194  88.743  64.392  1.00  0.00     0.190 C 
ATOM     19  G   UNL     1      71.723  88.661  66.405  1.00  0.00     0.000 G0
ATOM     20  C   UNL     1      69.001  87.948  64.044  1.00  0.00    -0.008 C 
ATOM     21  O   UNL     1      70.361  89.899  64.034  1.00  0.00    -0.291 OA
ATOM     22  C   UNL     1      67.908  88.431  63.175  1.00  0.00     0.048 C 
BRANCH  16  23
ATOM     23  O   UNL     1      72.216  87.641  64.250  1.00  0.00    -0.381 OA
ATOM     24  H   UNL     1      73.072  87.747  64.698  1.00  0.00     0.212 HD
ENDBRANCH  16  23
ENDBRANCH   6  15
BRANCH   7  25
ATOM     25  C   UNL     1      69.936  82.590  67.921  1.00  0.00     0.135 C 
BRANCH  25  26
ATOM     26  C   UNL     1      69.530  83.393  69.131  1.00  0.00    -0.040 A 
ATOM     27  C   UNL     1      70.428  84.297  69.701  1.00  0.00     0.004 A 
ATOM     28  C   UNL     1      68.258  83.234  69.681  1.00  0.00     0.004 A 
ATOM     29  C   UNL     1      70.053  85.040  70.821  1.00  0.00     0.000 A 
ATOM     30  C   UNL     1      67.884  83.977  70.800  1.00  0.00     0.000 A 
ATOM     31  C   UNL     1      68.782  84.880  71.370  1.00  0.00     0.000 A 
ENDBRANCH  25  26
ENDBRANCH   7  25
BRANCH  14  32
ATOM     32  C   UNL     1      73.762  81.947  65.776  1.00  0.00    -0.046 C 
ATOM     33  C   UNL     1      73.400  80.654  65.107  1.00  0.00     0.042 C 
ATOM     34  C   UNL     1      74.944  82.123  66.385  1.00  0.00     0.010 C 
ENDBRANCH  14  32
ENDBRANCH   3   4
BRANCH   2  35
ATOM     35  C   UNL     1      71.744  88.664  66.426  1.00  0.00     0.078 CG0
ATOM     36  G   UNL     1      71.201  87.932  65.200  1.00  0.00     0.000 G0
ENDBRANCH   2  35
ENDBRANCH   1   2
BRANCH   1  37
ATOM     37  O   UNL     1      73.269  87.770  69.729  1.00  0.00    -0.461 OA
BRANCH  37  38
ATOM     38  C   UNL     1      74.028  88.411  70.680  1.00  0.00     0.310 C 
ATOM     39  O   UNL     1      73.682  88.614  71.836  1.00  0.00    -0.252 OA
BRANCH  38  40
ATOM     40  C   UNL     1      75.350  88.825  70.076  1.00  0.00     0.158 C 
BRANCH  40  41
ATOM     41  C   UNL     1      76.177  87.654  69.614  1.00  0.00    -0.033 A 
ATOM     42  C   UNL     1      76.315  86.531  70.431  1.00  0.00     0.054 A 
ATOM     43  C   UNL     1      76.804  87.691  68.369  1.00  0.00     0.008 A 
ATOM     44  C   UNL     1      77.081  85.446  70.002  1.00  0.00     0.160 A 
ATOM     45  C   UNL     1      77.570  86.607  67.940  1.00  0.00     0.050 A 
ATOM     46  C   UNL     1      77.709  85.485  68.757  1.00  0.00     0.157 A 
BRANCH  44  47
ATOM     47  O   UNL     1      77.208  84.356  70.809  1.00  0.00    -0.493 OA
ATOM     48  C   UNL     1      76.069  83.986  71.584  1.00  0.00     0.278 C 
ENDBRANCH  44  47
BRANCH  46  49
ATOM     49  O   UNL     1      78.458  84.432  68.327  1.00  0.00    -0.504 OA
ATOM     50  H   UNL     1      77.970  83.958  67.633  1.00  0.00     0.293 HD
ENDBRANCH  46  49
ENDBRANCH  40  41
ENDBRANCH  38  40
ENDBRANCH  37  38
ENDBRANCH   1  37
TORSDOF 11
ENDMDL
MODEL 10
REMARK VINA RESULT:    -5.557      3.739      7.112
REMARK INTER + INTRA:         -12.079
REMARK INTER:                 -11.135
REMARK INTRA:                  -0.944
REMARK UNBOUND:                -2.298
REMARK SMILES C=C(C)[C@]12C[C@@H](C)[C@@]34O[C@](Cc5ccccc5)(O[C@@H]1[C@@H]3C=C(COC(=O)Cc1ccc(O)c(OC)c1)C[C@]1(O)C(=O)C(C)=C[C@@H]41)O2
REMARK SMILES IDX 23 1 22 2 21 3 20 4 9 5 8 6 10 7 6 8 18 9 46 10 19 11 5 12
REMARK SMILES IDX 7 13 4 14 45 15 38 16 44 17 40 18 42 20 41 21 43 22 39 23
REMARK SMILES IDX 11 25 12 26 13 27 17 28 14 29 16 30 15 31 2 32 3 33 1 34
REMARK SMILES IDX 37 35 24 37 25 38 26 39 27 40 28 41 36 42 29 43 33 44 30 45
REMARK SMILES IDX 31 46 34 47 35 48 32 49
REMARK H PARENT 39 24 32 50
REMARK Flexibility Score: 90.00
ROOT
ATOM      1  C   UNL     1      68.793  87.182  71.349  1.00  0.00     0.264 C 
ENDROOT
BRANCH   1   2
ATOM      2  C   UNL     1      68.085  85.950  70.836  1.00  0.00    -0.033 C 
ATOM      3  C   UNL     1      66.954  85.538  71.443  1.00  0.00    -0.015 C 
BRANCH   3   4
ATOM      4  C   UNL     1      66.107  84.305  71.172  1.00  0.00     0.078 C 
ATOM      5  O   UNL     1      64.385  84.963  69.522  1.00  0.00    -0.319 OA
ATOM      6  C   UNL     1      65.541  84.091  69.719  1.00  0.00     0.095 C 
ATOM      7  C   UNL     1      63.469  85.032  70.631  1.00  0.00     0.289 C 
ATOM      8  C   UNL     1      65.082  82.578  69.602  1.00  0.00     0.023 C 
ATOM      9  O   UNL     1      64.128  85.463  71.820  1.00  0.00    -0.320 OA
ATOM     10  O   UNL     1      62.901  83.763  70.944  1.00  0.00    -0.313 OA
ATOM     11  C   UNL     1      64.888  84.284  72.128  1.00  0.00     0.170 C 
ATOM     12  C   UNL     1      64.541  82.039  70.962  1.00  0.00     0.049 C 
ATOM     13  C   UNL     1      64.061  82.283  68.492  1.00  0.00     0.011 C 
ATOM     14  C   UNL     1      63.892  83.146  71.792  1.00  0.00     0.122 C 
BRANCH   6  15
ATOM     15  C   UNL     1      66.570  84.562  68.651  1.00  0.00     0.086 C 
ATOM     16  C   UNL     1      68.044  84.189  68.915  1.00  0.00     0.140 CG0
ATOM     17  C   UNL     1      66.365  84.179  67.212  1.00  0.00    -0.010 C 
ATOM     18  C   UNL     1      68.578  83.960  67.517  1.00  0.00     0.190 C 
ATOM     19  G   UNL     1      68.795  85.294  69.655  1.00  0.00     0.000 G0
ATOM     20  C   UNL     1      67.477  83.862  66.540  1.00  0.00    -0.008 C 
ATOM     21  O   UNL     1      69.755  83.820  67.223  1.00  0.00    -0.291 OA
ATOM     22  C   UNL     1      67.663  83.524  65.114  1.00  0.00     0.048 C 
BRANCH  16  23
ATOM     23  O   UNL     1      68.212  82.933  69.552  1.00  0.00    -0.381 OA
ATOM     24  H   UNL     1      67.524  82.838  70.231  1.00  0.00     0.212 HD
ENDBRANCH  16  23
ENDBRANCH   6  15
BRANCH   7  25
ATOM     25  C   UNL     1      62.365  86.007  70.276  1.00  0.00     0.135 C 
BRANCH  25  26
ATOM     26  C   UNL     1      61.014  85.524  70.739  1.00  0.00    -0.040 A 
ATOM     27  C   UNL     1      60.558  85.847  72.018  1.00  0.00     0.004 A 
ATOM     28  C   UNL     1      60.218  84.755  69.890  1.00  0.00     0.004 A 
ATOM     29  C   UNL     1      59.308  85.400  72.447  1.00  0.00     0.000 A 
ATOM     30  C   UNL     1      58.968  84.308  70.319  1.00  0.00     0.000 A 
ATOM     31  C   UNL     1      58.514  84.631  71.598  1.00  0.00     0.000 A 
ENDBRANCH  25  26
ENDBRANCH   7  25
BRANCH  14  32
ATOM     32  C   UNL     1      63.207  82.623  73.012  1.00  0.00    -0.046 C 
ATOM     33  C   UNL     1      62.482  83.634  73.850  1.00  0.00     0.042 C 
ATOM     34  C   UNL     1      63.238  81.322  73.340  1.00  0.00     0.010 C 
ENDBRANCH  14  32
ENDBRANCH   3   4
BRANCH   2  35
ATOM     35  C   UNL     1      68.776  85.321  69.641  1.00  0.00     0.078 CG0
ATOM     36  G   UNL     1      68.034  84.201  68.914  1.00  0.00     0.000 G0
ENDBRANCH   2  35
ENDBRANCH   1   2
BRANCH   1  37
ATOM     37  O   UNL     1      69.535  87.766  70.300  1.00  0.00    -0.461 OA
BRANCH  37  38
ATOM     38  C   UNL     1      70.867  87.997  70.553  1.00  0.00     0.310 C 
ATOM     39  O   UNL     1      71.384  87.990  71.662  1.00  0.00    -0.252 OA
BRANCH  38  40
ATOM     40  C   UNL     1      71.589  88.261  69.252  1.00  0.00     0.158 C 
BRANCH  40  41
ATOM     41  C   UNL     1      72.625  87.215  68.932  1.00  0.00    -0.033 A 
ATOM     42  C   UNL     1      73.976  87.562  68.885  1.00  0.00     0.054 A 
ATOM     43  C   UNL     1      72.234  85.899  68.682  1.00  0.00     0.008 A 
ATOM     44  C   UNL     1      74.935  86.593  68.588  1.00  0.00     0.160 A 
ATOM     45  C   UNL     1      73.193  84.931  68.386  1.00  0.00     0.050 A 
ATOM     46  C   UNL     1      74.543  85.277  68.338  1.00  0.00     0.157 A 
BRANCH  44  47
ATOM     47  O   UNL     1      76.250  86.945  68.545  1.00  0.00    -0.493 OA
ATOM     48  C   UNL     1      76.751  87.719  69.633  1.00  0.00     0.278 C 
ENDBRANCH  44  47
BRANCH  46  49
ATOM     49  O   UNL     1      75.471  84.323  68.049  1.00  0.00    -0.504 OA
ATOM     50  H   UNL     1      76.105  84.265  68.783  1.00  0.00     0.293 HD
ENDBRANCH  46  49
ENDBRANCH  40  41
ENDBRANCH  38  40
ENDBRANCH  37  38
ENDBRANCH   1  37
TORSDOF 11
ENDMDL
