MODEL 1
REMARK VINA RESULT:    -5.775      0.000      0.000
REMARK INTER + INTRA:         -11.208
REMARK INTER:                  -9.488
REMARK INTRA:                  -1.719
REMARK UNBOUND:                -1.719
REMARK SMILES CCCCC[C@H](O)CC(=O)CCc1ccc(O)c(OC)c1
REMARK SMILES IDX 8 1 6 2 7 3 5 5 4 6 3 7 2 8 1 9 9 10 10 11 11 12 12 13 13 14
REMARK SMILES IDX 21 15 14 16 18 17 15 18 16 19 19 20 20 21 17 22
REMARK H PARENT 7 4 17 23
REMARK Flexibility Score: inf
ROOT
ATOM      1  C   UNL     1      95.418  97.649  74.506  1.00  0.00     0.107 C 
ENDROOT
BRANCH   1   2
ATOM      2  C   UNL     1      94.691  96.452  73.889  1.00  0.00     0.121 C 
BRANCH   2   3
ATOM      3  O   UNL     1      95.582  95.728  73.043  1.00  0.00    -0.393 OA
ATOM      4  H   UNL     1      95.122  94.924  72.745  1.00  0.00     0.210 HD
ENDBRANCH   2   3
BRANCH   2   5
ATOM      5  C   UNL     1      94.105  95.499  74.938  1.00  0.00     0.032 C 
BRANCH   5   6
ATOM      6  C   UNL     1      93.100  96.202  75.858  1.00  0.00     0.003 C 
BRANCH   6   7
ATOM      7  C   UNL     1      92.901  95.487  77.198  1.00  0.00    -0.000 C 
BRANCH   7   8
ATOM      8  C   UNL     1      91.837  94.392  77.156  1.00  0.00    -0.003 C 
ATOM      9  C   UNL     1      92.147  93.278  78.144  1.00  0.00     0.004 C 
ENDBRANCH   7   8
ENDBRANCH   6   7
ENDBRANCH   5   6
ENDBRANCH   2   5
ENDBRANCH   1   2
BRANCH   1  10
ATOM     10  C   UNL     1      96.658  97.253  75.291  1.00  0.00     0.135 C 
ATOM     11  O   UNL     1      97.746  97.120  74.730  1.00  0.00    -0.300 OA
BRANCH  10  12
ATOM     12  C   UNL     1      96.488  97.077  76.792  1.00  0.00     0.080 C 
BRANCH  12  13
ATOM     13  C   UNL     1      97.434  96.040  77.401  1.00  0.00     0.043 C 
BRANCH  13  14
ATOM     14  C   UNL     1      96.731  95.056  78.305  1.00  0.00    -0.044 A 
ATOM     15  C   UNL     1      96.398  95.422  79.610  1.00  0.00     0.054 A 
ATOM     16  C   UNL     1      96.414  93.781  77.836  1.00  0.00     0.008 A 
ATOM     17  C   UNL     1      95.748  94.512  80.444  1.00  0.00     0.160 A 
ATOM     18  C   UNL     1      95.763  92.872  78.670  1.00  0.00     0.050 A 
ATOM     19  C   UNL     1      95.431  93.237  79.975  1.00  0.00     0.157 A 
BRANCH  17  20
ATOM     20  O   UNL     1      95.428  94.881  81.716  1.00  0.00    -0.493 OA
ATOM     21  C   UNL     1      95.933  96.134  82.174  1.00  0.00     0.278 C 
ENDBRANCH  17  20
BRANCH  19  22
ATOM     22  O   UNL     1      94.796  92.341  80.780  1.00  0.00    -0.504 OA
ATOM     23  H   UNL     1      94.334  92.823  81.487  1.00  0.00     0.293 HD
ENDBRANCH  19  22
ENDBRANCH  13  14
ENDBRANCH  12  13
ENDBRANCH  10  12
ENDBRANCH   1  10
TORSDOF 12
ENDMDL
MODEL 2
REMARK VINA RESULT:    -5.698      3.180      6.891
REMARK INTER + INTRA:         -11.082
REMARK INTER:                 -10.018
REMARK INTRA:                  -1.064
REMARK UNBOUND:                -1.719
REMARK SMILES CCCCC[C@H](O)CC(=O)CCc1ccc(O)c(OC)c1
REMARK SMILES IDX 8 1 6 2 7 3 5 5 4 6 3 7 2 8 1 9 9 10 10 11 11 12 12 13 13 14
REMARK SMILES IDX 21 15 14 16 18 17 15 18 16 19 19 20 20 21 17 22
REMARK H PARENT 7 4 17 23
REMARK Flexibility Score: inf
ROOT
ATOM      1  C   UNL     1      96.422  95.321  80.454  1.00  0.00     0.107 C 
ENDROOT
BRANCH   1   2
ATOM      2  C   UNL     1      96.135  96.173  81.693  1.00  0.00     0.121 C 
BRANCH   2   3
ATOM      3  O   UNL     1      95.335  95.434  82.612  1.00  0.00    -0.393 OA
ATOM      4  H   UNL     1      95.917  94.808  83.077  1.00  0.00     0.210 HD
ENDBRANCH   2   3
BRANCH   2   5
ATOM      5  C   UNL     1      97.408  96.650  82.401  1.00  0.00     0.032 C 
BRANCH   5   6
ATOM      6  C   UNL     1      97.622  98.161  82.248  1.00  0.00     0.003 C 
BRANCH   6   7
ATOM      7  C   UNL     1      96.406  98.889  81.665  1.00  0.00    -0.000 C 
BRANCH   7   8
ATOM      8  C   UNL     1      95.761  99.877  82.636  1.00  0.00    -0.003 C 
ATOM      9  C   UNL     1      96.472  99.878  83.980  1.00  0.00     0.004 C 
ENDBRANCH   7   8
ENDBRANCH   6   7
ENDBRANCH   5   6
ENDBRANCH   2   5
ENDBRANCH   1   2
BRANCH   1  10
ATOM     10  C   UNL     1      96.123  93.846  80.663  1.00  0.00     0.135 C 
ATOM     11  O   UNL     1      96.707  93.198  81.531  1.00  0.00    -0.300 OA
BRANCH  10  12
ATOM     12  C   UNL     1      95.043  93.238  79.781  1.00  0.00     0.080 C 
BRANCH  12  13
ATOM     13  C   UNL     1      95.001  93.823  78.368  1.00  0.00     0.043 C 
BRANCH  13  14
ATOM     14  C   UNL     1      93.606  94.191  77.921  1.00  0.00    -0.044 A 
ATOM     15  C   UNL     1      92.579  93.250  77.993  1.00  0.00     0.054 A 
ATOM     16  C   UNL     1      93.345  95.473  77.436  1.00  0.00     0.008 A 
ATOM     17  C   UNL     1      91.291  93.591  77.580  1.00  0.00     0.160 A 
ATOM     18  C   UNL     1      92.057  95.814  77.023  1.00  0.00     0.050 A 
ATOM     19  C   UNL     1      91.030  94.873  77.095  1.00  0.00     0.157 A 
BRANCH  17  20
ATOM     20  O   UNL     1      90.296  92.663  77.655  1.00  0.00    -0.493 OA
ATOM     21  C   UNL     1      90.201  91.728  76.582  1.00  0.00     0.278 C 
ENDBRANCH  17  20
BRANCH  19  22
ATOM     22  O   UNL     1      89.777  95.218  76.690  1.00  0.00    -0.504 OA
ATOM     23  H   UNL     1      89.665  94.966  75.757  1.00  0.00     0.293 HD
ENDBRANCH  19  22
ENDBRANCH  13  14
ENDBRANCH  12  13
ENDBRANCH  10  12
ENDBRANCH   1  10
TORSDOF 12
ENDMDL
MODEL 3
REMARK VINA RESULT:    -5.324     22.633     25.561
REMARK INTER + INTRA:         -10.467
REMARK INTER:                  -9.510
REMARK INTRA:                  -0.958
REMARK UNBOUND:                -1.719
REMARK SMILES CCCCC[C@H](O)CC(=O)CCc1ccc(O)c(OC)c1
REMARK SMILES IDX 8 1 6 2 7 3 5 5 4 6 3 7 2 8 1 9 9 10 10 11 11 12 12 13 13 14
REMARK SMILES IDX 21 15 14 16 18 17 15 18 16 19 19 20 20 21 17 22
REMARK H PARENT 7 4 17 23
REMARK Flexibility Score: inf
ROOT
ATOM      1  C   UNL     1      75.683  83.965  65.483  1.00  0.00     0.107 C 
ENDROOT
BRANCH   1   2
ATOM      2  C   UNL     1      75.437  82.518  65.051  1.00  0.00     0.121 C 
BRANCH   2   3
ATOM      3  O   UNL     1      76.641  81.765  65.175  1.00  0.00    -0.393 OA
ATOM      4  H   UNL     1      76.538  81.160  65.930  1.00  0.00     0.210 HD
ENDBRANCH   2   3
BRANCH   2   5
ATOM      5  C   UNL     1      74.328  81.831  65.858  1.00  0.00     0.032 C 
BRANCH   5   6
ATOM      6  C   UNL     1      73.371  81.035  64.962  1.00  0.00     0.003 C 
BRANCH   6   7
ATOM      7  C   UNL     1      71.968  81.646  64.880  1.00  0.00    -0.000 C 
BRANCH   7   8
ATOM      8  C   UNL     1      71.353  81.579  63.483  1.00  0.00    -0.003 C 
ATOM      9  C   UNL     1      71.258  80.144  62.988  1.00  0.00     0.004 C 
ENDBRANCH   7   8
ENDBRANCH   6   7
ENDBRANCH   5   6
ENDBRANCH   2   5
ENDBRANCH   1   2
BRANCH   1  10
ATOM     10  C   UNL     1      76.731  84.091  66.577  1.00  0.00     0.135 C 
ATOM     11  O   UNL     1      77.924  83.908  66.334  1.00  0.00    -0.300 OA
BRANCH  10  12
ATOM     12  C   UNL     1      76.232  84.495  67.956  1.00  0.00     0.080 C 
BRANCH  12  13
ATOM     13  C   UNL     1      77.047  85.619  68.599  1.00  0.00     0.043 C 
BRANCH  13  14
ATOM     14  C   UNL     1      76.535  86.996  68.249  1.00  0.00    -0.044 A 
ATOM     15  C   UNL     1      75.214  87.342  68.533  1.00  0.00     0.054 A 
ATOM     16  C   UNL     1      77.384  87.921  67.642  1.00  0.00     0.008 A 
ATOM     17  C   UNL     1      74.743  88.615  68.210  1.00  0.00     0.160 A 
ATOM     18  C   UNL     1      76.913  89.194  67.319  1.00  0.00     0.050 A 
ATOM     19  C   UNL     1      75.592  89.540  67.602  1.00  0.00     0.157 A 
BRANCH  17  20
ATOM     20  O   UNL     1      73.450  88.942  68.491  1.00  0.00    -0.493 OA
ATOM     21  C   UNL     1      72.446  88.425  67.620  1.00  0.00     0.278 C 
ENDBRANCH  17  20
BRANCH  19  22
ATOM     22  O   UNL     1      75.143  90.786  67.282  1.00  0.00    -0.504 OA
ATOM     23  H   UNL     1      75.893  91.323  66.973  1.00  0.00     0.293 HD
ENDBRANCH  19  22
ENDBRANCH  13  14
ENDBRANCH  12  13
ENDBRANCH  10  12
ENDBRANCH   1  10
TORSDOF 12
ENDMDL
MODEL 4
REMARK VINA RESULT:    -5.300      1.350      5.681
REMARK INTER + INTRA:         -10.428
REMARK INTER:                  -8.949
REMARK INTRA:                  -1.479
REMARK UNBOUND:                -1.719
REMARK SMILES CCCCC[C@H](O)CC(=O)CCc1ccc(O)c(OC)c1
REMARK SMILES IDX 8 1 6 2 7 3 5 5 4 6 3 7 2 8 1 9 9 10 10 11 11 12 12 13 13 14
REMARK SMILES IDX 21 15 14 16 18 17 15 18 16 19 19 20 20 21 17 22
REMARK H PARENT 7 4 17 23
REMARK Flexibility Score: inf
ROOT
ATOM      1  C   UNL     1      95.598  94.340  80.444  1.00  0.00     0.107 C 
ENDROOT
BRANCH   1   2
ATOM      2  C   UNL     1      95.370  92.972  79.796  1.00  0.00     0.121 C 
BRANCH   2   3
ATOM      3  O   UNL     1      94.564  92.161  80.648  1.00  0.00    -0.393 OA
ATOM      4  H   UNL     1      93.667  92.539  80.657  1.00  0.00     0.210 HD
ENDBRANCH   2   3
BRANCH   2   5
ATOM      5  C   UNL     1      94.709  93.065  78.415  1.00  0.00     0.032 C 
BRANCH   5   6
ATOM      6  C   UNL     1      93.318  93.707  78.484  1.00  0.00     0.003 C 
BRANCH   6   7
ATOM      7  C   UNL     1      92.472  93.456  77.231  1.00  0.00    -0.000 C 
BRANCH   7   8
ATOM      8  C   UNL     1      91.402  94.520  76.993  1.00  0.00    -0.003 C 
ATOM      9  C   UNL     1      91.989  95.921  77.058  1.00  0.00     0.004 C 
ENDBRANCH   7   8
ENDBRANCH   6   7
ENDBRANCH   5   6
ENDBRANCH   2   5
ENDBRANCH   1   2
BRANCH   1  10
ATOM     10  C   UNL     1      96.781  95.089  79.854  1.00  0.00     0.135 C 
ATOM     11  O   UNL     1      97.915  94.611  79.892  1.00  0.00    -0.300 OA
BRANCH  10  12
ATOM     12  C   UNL     1      96.480  96.421  79.184  1.00  0.00     0.080 C 
BRANCH  12  13
ATOM     13  C   UNL     1      97.477  96.796  78.086  1.00  0.00     0.043 C 
BRANCH  13  14
ATOM     14  C   UNL     1      96.889  96.709  76.698  1.00  0.00    -0.044 A 
ATOM     15  C   UNL     1      97.509  97.365  75.635  1.00  0.00     0.054 A 
ATOM     16  C   UNL     1      95.724  95.972  76.479  1.00  0.00     0.008 A 
ATOM     17  C   UNL     1      96.966  97.283  74.352  1.00  0.00     0.160 A 
ATOM     18  C   UNL     1      95.181  95.890  75.197  1.00  0.00     0.050 A 
ATOM     19  C   UNL     1      95.801  96.546  74.134  1.00  0.00     0.157 A 
BRANCH  17  20
ATOM     20  O   UNL     1      97.580  97.928  73.322  1.00  0.00    -0.493 OA
ATOM     21  C   UNL     1      98.992  97.763  73.204  1.00  0.00     0.278 C 
ENDBRANCH  17  20
BRANCH  19  22
ATOM     22  O   UNL     1      95.261  96.458  72.887  1.00  0.00    -0.504 OA
ATOM     23  H   UNL     1      94.341  96.152  72.961  1.00  0.00     0.293 HD
ENDBRANCH  19  22
ENDBRANCH  13  14
ENDBRANCH  12  13
ENDBRANCH  10  12
ENDBRANCH   1  10
TORSDOF 12
ENDMDL
MODEL 5
REMARK VINA RESULT:    -5.269     10.939     14.525
REMARK INTER + INTRA:         -10.377
REMARK INTER:                  -8.764
REMARK INTRA:                  -1.613
REMARK UNBOUND:                -1.719
REMARK SMILES CCCCC[C@H](O)CC(=O)CCc1ccc(O)c(OC)c1
REMARK SMILES IDX 8 1 6 2 7 3 5 5 4 6 3 7 2 8 1 9 9 10 10 11 11 12 12 13 13 14
REMARK SMILES IDX 21 15 14 16 18 17 15 18 16 19 19 20 20 21 17 22
REMARK H PARENT 7 4 17 23
REMARK Flexibility Score: inf
ROOT
ATOM      1  C   UNL     1      88.207  99.606  67.706  1.00  0.00     0.107 C 
ENDROOT
BRANCH   1   2
ATOM      2  C   UNL     1      88.917  98.318  67.284  1.00  0.00     0.121 C 
BRANCH   2   3
ATOM      3  O   UNL     1      89.384  98.441  65.942  1.00  0.00    -0.393 OA
ATOM      4  H   UNL     1      88.825  97.876  65.380  1.00  0.00     0.210 HD
ENDBRANCH   2   3
BRANCH   2   5
ATOM      5  C   UNL     1      90.095  97.954  68.196  1.00  0.00     0.032 C 
BRANCH   5   6
ATOM      6  C   UNL     1      90.504  99.123  69.101  1.00  0.00     0.003 C 
BRANCH   6   7
ATOM      7  C   UNL     1      89.944  99.013  70.523  1.00  0.00    -0.000 C 
BRANCH   7   8
ATOM      8  C   UNL     1      89.811 100.359  71.234  1.00  0.00    -0.003 C 
ATOM      9  C   UNL     1      90.346 101.495  70.375  1.00  0.00     0.004 C 
ENDBRANCH   7   8
ENDBRANCH   6   7
ENDBRANCH   5   6
ENDBRANCH   2   5
ENDBRANCH   1   2
BRANCH   1  10
ATOM     10  C   UNL     1      87.474 100.285  66.561  1.00  0.00     0.135 C 
ATOM     11  O   UNL     1      86.618  99.684  65.913  1.00  0.00    -0.300 OA
BRANCH  10  12
ATOM     12  C   UNL     1      87.822 101.743  66.298  1.00  0.00     0.080 C 
BRANCH  12  13
ATOM     13  C   UNL     1      89.019 102.245  67.106  1.00  0.00     0.043 C 
BRANCH  13  14
ATOM     14  C   UNL     1      90.273 102.392  66.277  1.00  0.00    -0.044 A 
ATOM     15  C   UNL     1      90.641 103.644  65.784  1.00  0.00     0.054 A 
ATOM     16  C   UNL     1      91.064 101.275  66.005  1.00  0.00     0.008 A 
ATOM     17  C   UNL     1      91.799 103.779  65.019  1.00  0.00     0.160 A 
ATOM     18  C   UNL     1      92.222 101.410  65.240  1.00  0.00     0.050 A 
ATOM     19  C   UNL     1      92.590 102.662  64.747  1.00  0.00     0.157 A 
BRANCH  17  20
ATOM     20  O   UNL     1      92.148 105.006  64.542  1.00  0.00    -0.493 OA
ATOM     21  C   UNL     1      91.487 105.454  63.360  1.00  0.00     0.278 C 
ENDBRANCH  17  20
BRANCH  19  22
ATOM     22  O   UNL     1      93.723 102.781  64.001  1.00  0.00    -0.504 OA
ATOM     23  H   UNL     1      94.266 103.502  64.363  1.00  0.00     0.293 HD
ENDBRANCH  19  22
ENDBRANCH  13  14
ENDBRANCH  12  13
ENDBRANCH  10  12
ENDBRANCH   1  10
TORSDOF 12
ENDMDL
MODEL 6
REMARK VINA RESULT:    -5.178      7.002      9.856
REMARK INTER + INTRA:         -10.228
REMARK INTER:                  -9.338
REMARK INTRA:                  -0.890
REMARK UNBOUND:                -1.719
REMARK SMILES CCCCC[C@H](O)CC(=O)CCc1ccc(O)c(OC)c1
REMARK SMILES IDX 8 1 6 2 7 3 5 5 4 6 3 7 2 8 1 9 9 10 10 11 11 12 12 13 13 14
REMARK SMILES IDX 21 15 14 16 18 17 15 18 16 19 19 20 20 21 17 22
REMARK H PARENT 7 4 17 23
REMARK Flexibility Score: inf
ROOT
ATOM      1  C   UNL     1      90.526  97.829  68.499  1.00  0.00     0.107 C 
ENDROOT
BRANCH   1   2
ATOM      2  C   UNL     1      89.225  97.959  67.704  1.00  0.00     0.121 C 
BRANCH   2   3
ATOM      3  O   UNL     1      88.184  98.434  68.554  1.00  0.00    -0.393 OA
ATOM      4  H   UNL     1      87.545  98.917  68.001  1.00  0.00     0.210 HD
ENDBRANCH   2   3
BRANCH   2   5
ATOM      5  C   UNL     1      89.352  98.891  66.492  1.00  0.00     0.032 C 
BRANCH   5   6
ATOM      6  C   UNL     1      88.799 100.292  66.782  1.00  0.00     0.003 C 
BRANCH   6   7
ATOM      7  C   UNL     1      87.346 100.475  66.332  1.00  0.00    -0.000 C 
BRANCH   7   8
ATOM      8  C   UNL     1      86.922 101.938  66.215  1.00  0.00    -0.003 C 
ATOM      9  C   UNL     1      87.986 102.870  66.771  1.00  0.00     0.004 C 
ENDBRANCH   7   8
ENDBRANCH   6   7
ENDBRANCH   5   6
ENDBRANCH   2   5
ENDBRANCH   1   2
BRANCH   1  10
ATOM     10  C   UNL     1      90.502  98.598  69.810  1.00  0.00     0.135 C 
ATOM     11  O   UNL     1      89.845  98.193  70.769  1.00  0.00    -0.300 OA
BRANCH  10  12
ATOM     12  C   UNL     1      91.360  99.852  69.882  1.00  0.00     0.080 C 
BRANCH  12  13
ATOM     13  C   UNL     1      91.844 100.187  71.294  1.00  0.00     0.043 C 
BRANCH  13  14
ATOM     14  C   UNL     1      93.096  99.438  71.684  1.00  0.00    -0.044 A 
ATOM     15  C   UNL     1      93.238  98.943  72.980  1.00  0.00     0.054 A 
ATOM     16  C   UNL     1      94.111  99.242  70.747  1.00  0.00     0.008 A 
ATOM     17  C   UNL     1      94.395  98.251  73.339  1.00  0.00     0.160 A 
ATOM     18  C   UNL     1      95.268  98.549  71.106  1.00  0.00     0.050 A 
ATOM     19  C   UNL     1      95.410  98.054  72.402  1.00  0.00     0.157 A 
BRANCH  17  20
ATOM     20  O   UNL     1      94.522  97.772  74.608  1.00  0.00    -0.493 OA
ATOM     21  C   UNL     1      93.728  96.640  74.957  1.00  0.00     0.278 C 
ENDBRANCH  17  20
BRANCH  19  22
ATOM     22  O   UNL     1      96.544  97.380  72.741  1.00  0.00    -0.504 OA
ATOM     23  H   UNL     1      96.332  96.437  72.846  1.00  0.00     0.293 HD
ENDBRANCH  19  22
ENDBRANCH  13  14
ENDBRANCH  12  13
ENDBRANCH  10  12
ENDBRANCH   1  10
TORSDOF 12
ENDMDL
MODEL 7
REMARK VINA RESULT:    -5.156      2.553      6.602
REMARK INTER + INTRA:         -10.192
REMARK INTER:                  -9.173
REMARK INTRA:                  -1.019
REMARK UNBOUND:                -1.719
REMARK SMILES CCCCC[C@H](O)CC(=O)CCc1ccc(O)c(OC)c1
REMARK SMILES IDX 8 1 6 2 7 3 5 5 4 6 3 7 2 8 1 9 9 10 10 11 11 12 12 13 13 14
REMARK SMILES IDX 21 15 14 16 18 17 15 18 16 19 19 20 20 21 17 22
REMARK H PARENT 7 4 17 23
REMARK Flexibility Score: inf
ROOT
ATOM      1  C   UNL     1      96.659  95.107  80.230  1.00  0.00     0.107 C 
ENDROOT
BRANCH   1   2
ATOM      2  C   UNL     1      96.214  96.157  81.251  1.00  0.00     0.121 C 
BRANCH   2   3
ATOM      3  O   UNL     1      95.526  95.524  82.327  1.00  0.00    -0.393 OA
ATOM      4  H   UNL     1      95.523  94.566  82.156  1.00  0.00     0.210 HD
ENDBRANCH   2   3
BRANCH   2   5
ATOM      5  C   UNL     1      97.379  96.981  81.811  1.00  0.00     0.032 C 
BRANCH   5   6
ATOM      6  C   UNL     1      97.179  98.486  81.591  1.00  0.00     0.003 C 
BRANCH   6   7
ATOM      7  C   UNL     1      96.487  99.183  82.766  1.00  0.00    -0.000 C 
BRANCH   7   8
ATOM      8  C   UNL     1      95.365 100.129  82.342  1.00  0.00    -0.003 C 
ATOM      9  C   UNL     1      95.916 101.454  81.841  1.00  0.00     0.004 C 
ENDBRANCH   7   8
ENDBRANCH   6   7
ENDBRANCH   5   6
ENDBRANCH   2   5
ENDBRANCH   1   2
BRANCH   1  10
ATOM     10  C   UNL     1      96.506  93.682  80.736  1.00  0.00     0.135 C 
ATOM     11  O   UNL     1      97.138  93.288  81.717  1.00  0.00    -0.300 OA
BRANCH  10  12
ATOM     12  C   UNL     1      95.510  92.799  80.000  1.00  0.00     0.080 C 
BRANCH  12  13
ATOM     13  C   UNL     1      95.472  93.042  78.490  1.00  0.00     0.043 C 
BRANCH  13  14
ATOM     14  C   UNL     1      94.168  93.641  78.020  1.00  0.00    -0.044 A 
ATOM     15  C   UNL     1      94.174  94.753  77.178  1.00  0.00     0.054 A 
ATOM     16  C   UNL     1      92.956  93.082  78.428  1.00  0.00     0.008 A 
ATOM     17  C   UNL     1      92.969  95.305  76.744  1.00  0.00     0.160 A 
ATOM     18  C   UNL     1      91.751  93.634  77.994  1.00  0.00     0.050 A 
ATOM     19  C   UNL     1      91.757  94.746  77.152  1.00  0.00     0.157 A 
BRANCH  17  20
ATOM     20  O   UNL     1      92.987  96.392  75.922  1.00  0.00    -0.493 OA
ATOM     21  C   UNL     1      93.597  96.227  74.643  1.00  0.00     0.278 C 
ENDBRANCH  17  20
BRANCH  19  22
ATOM     22  O   UNL     1      90.574  95.276  76.735  1.00  0.00    -0.504 OA
ATOM     23  H   UNL     1      90.615  96.245  76.817  1.00  0.00     0.293 HD
ENDBRANCH  19  22
ENDBRANCH  13  14
ENDBRANCH  12  13
ENDBRANCH  10  12
ENDBRANCH   1  10
TORSDOF 12
ENDMDL
MODEL 8
REMARK VINA RESULT:    -5.089     12.724     14.336
REMARK INTER + INTRA:         -10.080
REMARK INTER:                  -9.322
REMARK INTRA:                  -0.759
REMARK UNBOUND:                -1.719
REMARK SMILES CCCCC[C@H](O)CC(=O)CCc1ccc(O)c(OC)c1
REMARK SMILES IDX 8 1 6 2 7 3 5 5 4 6 3 7 2 8 1 9 9 10 10 11 11 12 12 13 13 14
REMARK SMILES IDX 21 15 14 16 18 17 15 18 16 19 19 20 20 21 17 22
REMARK H PARENT 7 4 17 23
REMARK Flexibility Score: inf
ROOT
ATOM      1  C   UNL     1      97.794  81.587  76.073  1.00  0.00     0.107 C 
ENDROOT
BRANCH   1   2
ATOM      2  C   UNL     1      96.769  82.454  75.337  1.00  0.00     0.121 C 
BRANCH   2   3
ATOM      3  O   UNL     1      96.816  83.788  75.838  1.00  0.00    -0.393 OA
ATOM      4  H   UNL     1      96.566  83.762  76.778  1.00  0.00     0.210 HD
ENDBRANCH   2   3
BRANCH   2   5
ATOM      5  C   UNL     1      96.982  82.477  73.819  1.00  0.00     0.032 C 
BRANCH   5   6
ATOM      6  C   UNL     1      98.095  81.518  73.378  1.00  0.00     0.003 C 
BRANCH   6   7
ATOM      7  C   UNL     1      99.282  82.228  72.720  1.00  0.00    -0.000 C 
BRANCH   7   8
ATOM      8  C   UNL     1      99.377  83.712  73.067  1.00  0.00    -0.003 C 
ATOM      9  C   UNL     1     100.675  84.029  73.793  1.00  0.00     0.004 C 
ENDBRANCH   7   8
ENDBRANCH   6   7
ENDBRANCH   5   6
ENDBRANCH   2   5
ENDBRANCH   1   2
BRANCH   1  10
ATOM     10  C   UNL     1      97.217  80.891  77.295  1.00  0.00     0.135 C 
ATOM     11  O   UNL     1      96.648  79.805  77.194  1.00  0.00    -0.300 OA
BRANCH  10  12
ATOM     12  C   UNL     1      97.423  81.582  78.634  1.00  0.00     0.080 C 
BRANCH  12  13
ATOM     13  C   UNL     1      97.660  80.615  79.796  1.00  0.00     0.043 C 
BRANCH  13  14
ATOM     14  C   UNL     1      97.421  81.244  81.148  1.00  0.00    -0.044 A 
ATOM     15  C   UNL     1      97.938  80.645  82.297  1.00  0.00     0.054 A 
ATOM     16  C   UNL     1      96.683  82.423  81.247  1.00  0.00     0.008 A 
ATOM     17  C   UNL     1      97.717  81.228  83.545  1.00  0.00     0.160 A 
ATOM     18  C   UNL     1      96.462  83.005  82.495  1.00  0.00     0.050 A 
ATOM     19  C   UNL     1      96.979  82.407  83.644  1.00  0.00     0.157 A 
BRANCH  17  20
ATOM     20  O   UNL     1      98.226  80.634  84.661  1.00  0.00    -0.493 OA
ATOM     21  C   UNL     1      99.614  80.304  84.643  1.00  0.00     0.278 C 
ENDBRANCH  17  20
BRANCH  19  22
ATOM     22  O   UNL     1      96.756  82.985  84.858  1.00  0.00    -0.504 OA
ATOM     23  H   UNL     1      95.855  82.767  85.152  1.00  0.00     0.293 HD
ENDBRANCH  19  22
ENDBRANCH  13  14
ENDBRANCH  12  13
ENDBRANCH  10  12
ENDBRANCH   1  10
TORSDOF 12
ENDMDL
MODEL 9
REMARK VINA RESULT:    -5.030      7.244     10.394
REMARK INTER + INTRA:          -9.985
REMARK INTER:                  -9.015
REMARK INTRA:                  -0.969
REMARK UNBOUND:                -1.719
REMARK SMILES CCCCC[C@H](O)CC(=O)CCc1ccc(O)c(OC)c1
REMARK SMILES IDX 8 1 6 2 7 3 5 5 4 6 3 7 2 8 1 9 9 10 10 11 11 12 12 13 13 14
REMARK SMILES IDX 21 15 14 16 18 17 15 18 16 19 19 20 20 21 17 22
REMARK H PARENT 7 4 17 23
REMARK Flexibility Score: inf
ROOT
ATOM      1  C   UNL     1      89.158  99.221  68.905  1.00  0.00     0.107 C 
ENDROOT
BRANCH   1   2
ATOM      2  C   UNL     1      89.572  98.343  67.721  1.00  0.00     0.121 C 
BRANCH   2   3
ATOM      3  O   UNL     1      89.029  97.034  67.877  1.00  0.00    -0.393 OA
ATOM      4  H   UNL     1      88.392  96.889  67.156  1.00  0.00     0.210 HD
ENDBRANCH   2   3
BRANCH   2   5
ATOM      5  C   UNL     1      89.133  98.914  66.368  1.00  0.00     0.032 C 
BRANCH   5   6
ATOM      6  C   UNL     1      88.568 100.334  66.497  1.00  0.00     0.003 C 
BRANCH   6   7
ATOM      7  C   UNL     1      87.052 100.406  66.284  1.00  0.00    -0.000 C 
BRANCH   7   8
ATOM      8  C   UNL     1      86.506 101.832  66.252  1.00  0.00    -0.003 C 
ATOM      9  C   UNL     1      87.629 102.857  66.275  1.00  0.00     0.004 C 
ENDBRANCH   7   8
ENDBRANCH   6   7
ENDBRANCH   5   6
ENDBRANCH   2   5
ENDBRANCH   1   2
BRANCH   1  10
ATOM     10  C   UNL     1      89.953  98.931  70.168  1.00  0.00     0.135 C 
ATOM     11  O   UNL     1      89.919  97.820  70.696  1.00  0.00    -0.300 OA
BRANCH  10  12
ATOM     12  C   UNL     1      90.814 100.063  70.707  1.00  0.00     0.080 C 
BRANCH  12  13
ATOM     13  C   UNL     1      92.225 100.098  70.116  1.00  0.00     0.043 C 
BRANCH  13  14
ATOM     14  C   UNL     1      93.255  99.446  71.007  1.00  0.00    -0.044 A 
ATOM     15  C   UNL     1      94.465  99.006  70.469  1.00  0.00     0.054 A 
ATOM     16  C   UNL     1      92.997  99.284  72.368  1.00  0.00     0.008 A 
ATOM     17  C   UNL     1      95.417  98.405  71.293  1.00  0.00     0.160 A 
ATOM     18  C   UNL     1      93.949  98.683  73.192  1.00  0.00     0.050 A 
ATOM     19  C   UNL     1      95.158  98.243  72.654  1.00  0.00     0.157 A 
BRANCH  17  20
ATOM     20  O   UNL     1      96.594  97.980  70.756  1.00  0.00    -0.493 OA
ATOM     21  C   UNL     1      97.611  98.961  70.563  1.00  0.00     0.278 C 
ENDBRANCH  17  20
BRANCH  19  22
ATOM     22  O   UNL     1      96.080  97.658  73.469  1.00  0.00    -0.504 OA
ATOM     23  H   UNL     1      95.644  97.382  74.293  1.00  0.00     0.293 HD
ENDBRANCH  19  22
ENDBRANCH  13  14
ENDBRANCH  12  13
ENDBRANCH  10  12
ENDBRANCH   1  10
TORSDOF 12
ENDMDL
MODEL 10
REMARK VINA RESULT:    -5.015     22.435     25.211
REMARK INTER + INTRA:          -9.960
REMARK INTER:                  -9.102
REMARK INTRA:                  -0.858
REMARK UNBOUND:                -1.719
REMARK SMILES CCCCC[C@H](O)CC(=O)CCc1ccc(O)c(OC)c1
REMARK SMILES IDX 8 1 6 2 7 3 5 5 4 6 3 7 2 8 1 9 9 10 10 11 11 12 12 13 13 14
REMARK SMILES IDX 21 15 14 16 18 17 15 18 16 19 19 20 20 21 17 22
REMARK H PARENT 7 4 17 23
REMARK Flexibility Score: inf
ROOT
ATOM      1  C   UNL     1      76.456  84.591  65.437  1.00  0.00     0.107 C 
ENDROOT
BRANCH   1   2
ATOM      2  C   UNL     1      75.596  83.414  64.969  1.00  0.00     0.121 C 
BRANCH   2   3
ATOM      3  O   UNL     1      76.423  82.279  64.722  1.00  0.00    -0.393 OA
ATOM      4  H   UNL     1      76.018  81.514  65.166  1.00  0.00     0.210 HD
ENDBRANCH   2   3
BRANCH   2   5
ATOM      5  C   UNL     1      74.503  83.033  65.975  1.00  0.00     0.032 C 
BRANCH   5   6
ATOM      6  C   UNL     1      73.162  82.749  65.288  1.00  0.00     0.003 C 
BRANCH   6   7
ATOM      7  C   UNL     1      73.099  81.369  64.626  1.00  0.00    -0.000 C 
BRANCH   7   8
ATOM      8  C   UNL     1      71.676  80.868  64.389  1.00  0.00    -0.003 C 
ATOM      9  C   UNL     1      71.546  80.186  63.035  1.00  0.00     0.004 C 
ENDBRANCH   7   8
ENDBRANCH   6   7
ENDBRANCH   5   6
ENDBRANCH   2   5
ENDBRANCH   1   2
BRANCH   1  10
ATOM     10  C   UNL     1      77.288  84.269  66.667  1.00  0.00     0.135 C 
ATOM     11  O   UNL     1      77.975  83.248  66.717  1.00  0.00    -0.300 OA
BRANCH  10  12
ATOM     12  C   UNL     1      77.260  85.288  67.796  1.00  0.00     0.080 C 
BRANCH  12  13
ATOM     13  C   UNL     1      77.175  86.737  67.313  1.00  0.00     0.043 C 
BRANCH  13  14
ATOM     14  C   UNL     1      76.053  87.513  67.962  1.00  0.00    -0.044 A 
ATOM     15  C   UNL     1      76.195  88.880  68.197  1.00  0.00     0.054 A 
ATOM     16  C   UNL     1      74.875  86.860  68.327  1.00  0.00     0.008 A 
ATOM     17  C   UNL     1      75.158  89.596  68.795  1.00  0.00     0.160 A 
ATOM     18  C   UNL     1      73.838  87.575  68.925  1.00  0.00     0.050 A 
ATOM     19  C   UNL     1      73.979  88.943  69.160  1.00  0.00     0.157 A 
BRANCH  17  20
ATOM     20  O   UNL     1      75.307  90.931  69.020  1.00  0.00    -0.493 OA
ATOM     21  C   UNL     1      74.696  91.818  68.085  1.00  0.00     0.278 C 
ENDBRANCH  17  20
BRANCH  19  22
ATOM     22  O   UNL     1      72.960  89.631  69.745  1.00  0.00    -0.504 OA
ATOM     23  H   UNL     1      72.569  90.235  69.091  1.00  0.00     0.293 HD
ENDBRANCH  19  22
ENDBRANCH  13  14
ENDBRANCH  12  13
ENDBRANCH  10  12
ENDBRANCH   1  10
TORSDOF 12
ENDMDL
