MODEL 1
REMARK VINA RESULT:    -5.871      0.000      0.000
REMARK INTER + INTRA:         -10.843
REMARK INTER:                  -9.819
REMARK INTRA:                  -1.024
REMARK UNBOUND:                -1.024
REMARK SMILES COc1cc(CNC(=O)CCCCCCCC(C)C)ccc1O
REMARK SMILES IDX 11 1 10 2 8 3 9 4 7 5 6 7 5 8 4 9 20 10 3 11 21 12 22 13
REMARK SMILES IDX 2 14 1 15 23 16 12 18 13 19 14 20 15 21 16 22 17 23 18 24
REMARK SMILES IDX 19 25
REMARK H PARENT 7 6 23 17
REMARK Flexibility Score: inf
ROOT
ATOM      1  C   UNL     1      75.052  90.387  69.991  1.00  0.00     0.010 C 
ENDROOT
BRANCH   1   2
ATOM      2  C   UNL     1      73.819  90.117  70.850  1.00  0.00     0.100 C 
BRANCH   2   3
ATOM      3  C   UNL     1      73.486  91.283  71.767  1.00  0.00     0.220 C 
ATOM      4  O   UNL     1      72.551  91.268  72.563  1.00  0.00    -0.275 OA
ATOM      5  N   UNL     1      74.360  92.344  71.580  1.00  0.00    -0.352 N 
ATOM      6  H   UNL     1      75.100  92.268  70.888  1.00  0.00     0.163 HD
BRANCH   5   7
ATOM      7  C   UNL     1      74.261  93.580  72.321  1.00  0.00     0.151 C 
BRANCH   7   8
ATOM      8  C   UNL     1      75.352  93.710  73.345  1.00  0.00    -0.025 A 
ATOM      9  C   UNL     1      75.044  93.600  74.695  1.00  0.00     0.056 A 
ATOM     10  C   UNL     1      76.658  93.939  72.930  1.00  0.00     0.009 A 
ATOM     11  C   UNL     1      76.057  93.721  75.646  1.00  0.00     0.160 A 
ATOM     12  C   UNL     1      77.672  94.061  73.882  1.00  0.00     0.050 A 
ATOM     13  C   UNL     1      77.372  93.952  75.239  1.00  0.00     0.157 A 
BRANCH  11  14
ATOM     14  O   UNL     1      75.752  93.613  76.969  1.00  0.00    -0.493 OA
ATOM     15  C   UNL     1      74.534  92.949  77.301  1.00  0.00     0.278 C 
ENDBRANCH  11  14
BRANCH  13  16
ATOM     16  O   UNL     1      78.370  94.071  76.158  1.00  0.00    -0.504 OA
ATOM     17  H   UNL     1      79.201  93.750  75.766  1.00  0.00     0.293 HD
ENDBRANCH  13  16
ENDBRANCH   7   8
ENDBRANCH   5   7
ENDBRANCH   2   3
ENDBRANCH   1   2
BRANCH   1  18
ATOM     18  C   UNL     1      75.398  89.236  69.042  1.00  0.00     0.001 C 
BRANCH  18  19
ATOM     19  C   UNL     1      76.866  89.149  68.611  1.00  0.00     0.000 C 
BRANCH  19  20
ATOM     20  C   UNL     1      77.052  88.559  67.211  1.00  0.00     0.000 C 
BRANCH  20  21
ATOM     21  C   UNL     1      76.725  87.063  67.131  1.00  0.00     0.000 C 
BRANCH  21  22
ATOM     22  C   UNL     1      77.487  86.221  68.159  1.00  0.00     0.003 C 
BRANCH  22  23
ATOM     23  C   UNL     1      76.658  85.055  68.733  1.00  0.00    -0.017 C 
ATOM     24  C   UNL     1      75.286  85.013  68.056  1.00  0.00     0.007 C 
ATOM     25  C   UNL     1      76.480  85.153  70.249  1.00  0.00     0.007 C 
ENDBRANCH  22  23
ENDBRANCH  21  22
ENDBRANCH  20  21
ENDBRANCH  19  20
ENDBRANCH  18  19
ENDBRANCH   1  18
TORSDOF 12
ENDMDL
MODEL 2
REMARK VINA RESULT:    -5.865     22.842     24.117
REMARK INTER + INTRA:         -10.832
REMARK INTER:                 -10.068
REMARK INTRA:                  -0.763
REMARK UNBOUND:                -1.024
REMARK SMILES COc1cc(CNC(=O)CCCCCCCC(C)C)ccc1O
REMARK SMILES IDX 11 1 10 2 8 3 9 4 7 5 6 7 5 8 4 9 20 10 3 11 21 12 22 13
REMARK SMILES IDX 2 14 1 15 23 16 12 18 13 19 14 20 15 21 16 22 17 23 18 24
REMARK SMILES IDX 19 25
REMARK H PARENT 7 6 23 17
REMARK Flexibility Score: inf
ROOT
ATOM      1  C   UNL     1      97.164  82.726  78.502  1.00  0.00     0.010 C 
ENDROOT
BRANCH   1   2
ATOM      2  C   UNL     1      98.117  83.197  79.599  1.00  0.00     0.100 C 
BRANCH   2   3
ATOM      3  C   UNL     1      97.869  82.493  80.923  1.00  0.00     0.220 C 
ATOM      4  O   UNL     1      98.621  81.637  81.381  1.00  0.00    -0.275 OA
ATOM      5  N   UNL     1      96.699  82.933  81.523  1.00  0.00    -0.352 N 
ATOM      6  H   UNL     1      96.133  83.640  81.061  1.00  0.00     0.163 HD
BRANCH   5   7
ATOM      7  C   UNL     1      96.226  82.418  82.788  1.00  0.00     0.151 C 
BRANCH   7   8
ATOM      8  C   UNL     1      95.623  83.495  83.642  1.00  0.00    -0.025 A 
ATOM      9  C   UNL     1      94.746  83.152  84.664  1.00  0.00     0.056 A 
ATOM     10  C   UNL     1      95.948  84.825  83.401  1.00  0.00     0.009 A 
ATOM     11  C   UNL     1      94.186  84.153  85.457  1.00  0.00     0.160 A 
ATOM     12  C   UNL     1      95.387  85.826  84.195  1.00  0.00     0.050 A 
ATOM     13  C   UNL     1      94.506  85.491  85.223  1.00  0.00     0.157 A 
BRANCH  11  14
ATOM     14  O   UNL     1      93.326  83.813  86.458  1.00  0.00    -0.493 OA
ATOM     15  C   UNL     1      93.806  82.896  87.441  1.00  0.00     0.278 C 
ENDBRANCH  11  14
BRANCH  13  16
ATOM     16  O   UNL     1      93.966  86.477  85.991  1.00  0.00    -0.504 OA
ATOM     17  H   UNL     1      93.399  86.074  86.671  1.00  0.00     0.293 HD
ENDBRANCH  13  16
ENDBRANCH   7   8
ENDBRANCH   5   7
ENDBRANCH   2   3
ENDBRANCH   1   2
BRANCH   1  18
ATOM     18  C   UNL     1      96.305  83.850  77.916  1.00  0.00     0.001 C 
BRANCH  18  19
ATOM     19  C   UNL     1      96.687  84.312  76.506  1.00  0.00     0.000 C 
BRANCH  19  20
ATOM     20  C   UNL     1      97.795  83.466  75.872  1.00  0.00     0.000 C 
BRANCH  20  21
ATOM     21  C   UNL     1      97.719  83.410  74.342  1.00  0.00     0.000 C 
BRANCH  21  22
ATOM     22  C   UNL     1      98.244  84.678  73.661  1.00  0.00     0.003 C 
BRANCH  22  23
ATOM     23  C   UNL     1      99.733  84.594  73.271  1.00  0.00    -0.017 C 
ATOM     24  C   UNL     1     100.587  85.282  74.339  1.00  0.00     0.007 C 
ATOM     25  C   UNL     1     100.017  85.220  71.905  1.00  0.00     0.007 C 
ENDBRANCH  22  23
ENDBRANCH  21  22
ENDBRANCH  20  21
ENDBRANCH  19  20
ENDBRANCH  18  19
ENDBRANCH   1  18
TORSDOF 12
ENDMDL
MODEL 3
REMARK VINA RESULT:    -5.834     19.509     22.412
REMARK INTER + INTRA:         -10.780
REMARK INTER:                  -9.615
REMARK INTRA:                  -1.165
REMARK UNBOUND:                -1.024
REMARK SMILES COc1cc(CNC(=O)CCCCCCCC(C)C)ccc1O
REMARK SMILES IDX 11 1 10 2 8 3 9 4 7 5 6 7 5 8 4 9 20 10 3 11 21 12 22 13
REMARK SMILES IDX 2 14 1 15 23 16 12 18 13 19 14 20 15 21 16 22 17 23 18 24
REMARK SMILES IDX 19 25
REMARK H PARENT 7 6 23 17
REMARK Flexibility Score: inf
ROOT
ATOM      1  C   UNL     1      94.970  95.723  77.885  1.00  0.00     0.010 C 
ENDROOT
BRANCH   1   2
ATOM      2  C   UNL     1      94.444  94.543  78.700  1.00  0.00     0.100 C 
BRANCH   2   3
ATOM      3  C   UNL     1      94.929  94.572  80.139  1.00  0.00     0.220 C 
ATOM      4  O   UNL     1      94.444  93.877  81.028  1.00  0.00    -0.275 OA
ATOM      5  N   UNL     1      95.967  95.477  80.309  1.00  0.00    -0.352 N 
ATOM      6  H   UNL     1      96.296  96.018  79.515  1.00  0.00     0.163 HD
BRANCH   5   7
ATOM      7  C   UNL     1      96.606  95.705  81.585  1.00  0.00     0.151 C 
BRANCH   7   8
ATOM      8  C   UNL     1      97.988  96.270  81.428  1.00  0.00    -0.025 A 
ATOM      9  C   UNL     1      98.791  96.445  82.548  1.00  0.00     0.056 A 
ATOM     10  C   UNL     1      98.449  96.612  80.163  1.00  0.00     0.009 A 
ATOM     11  C   UNL     1     100.075  96.970  82.402  1.00  0.00     0.160 A 
ATOM     12  C   UNL     1      99.734  97.138  80.016  1.00  0.00     0.050 A 
ATOM     13  C   UNL     1     100.547  97.317  81.135  1.00  0.00     0.157 A 
BRANCH  11  14
ATOM     14  O   UNL     1     100.859  97.140  83.503  1.00  0.00    -0.493 OA
ATOM     15  C   UNL     1     100.433  96.503  84.706  1.00  0.00     0.278 C 
ENDBRANCH  11  14
BRANCH  13  16
ATOM     16  O   UNL     1     101.799  97.830  80.979  1.00  0.00    -0.504 OA
ATOM     17  H   UNL     1     101.736  98.683  80.517  1.00  0.00     0.293 HD
ENDBRANCH  13  16
ENDBRANCH   7   8
ENDBRANCH   5   7
ENDBRANCH   2   3
ENDBRANCH   1   2
BRANCH   1  18
ATOM     18  C   UNL     1      93.910  96.790  77.601  1.00  0.00     0.001 C 
BRANCH  18  19
ATOM     19  C   UNL     1      92.940  96.476  76.458  1.00  0.00     0.000 C 
BRANCH  19  20
ATOM     20  C   UNL     1      91.500  96.255  76.930  1.00  0.00     0.000 C 
BRANCH  20  21
ATOM     21  C   UNL     1      91.158  94.782  77.178  1.00  0.00     0.000 C 
BRANCH  21  22
ATOM     22  C   UNL     1      91.763  93.835  76.136  1.00  0.00     0.003 C 
BRANCH  22  23
ATOM     23  C   UNL     1      90.718  92.943  75.438  1.00  0.00    -0.017 C 
ATOM     24  C   UNL     1      89.865  93.789  74.490  1.00  0.00     0.007 C 
ATOM     25  C   UNL     1      89.813  92.213  76.431  1.00  0.00     0.007 C 
ENDBRANCH  22  23
ENDBRANCH  21  22
ENDBRANCH  20  21
ENDBRANCH  19  20
ENDBRANCH  18  19
ENDBRANCH   1  18
TORSDOF 12
ENDMDL
MODEL 4
REMARK VINA RESULT:    -5.755      1.944      2.842
REMARK INTER + INTRA:         -10.648
REMARK INTER:                  -9.787
REMARK INTRA:                  -0.861
REMARK UNBOUND:                -1.024
REMARK SMILES COc1cc(CNC(=O)CCCCCCCC(C)C)ccc1O
REMARK SMILES IDX 11 1 10 2 8 3 9 4 7 5 6 7 5 8 4 9 20 10 3 11 21 12 22 13
REMARK SMILES IDX 2 14 1 15 23 16 12 18 13 19 14 20 15 21 16 22 17 23 18 24
REMARK SMILES IDX 19 25
REMARK H PARENT 7 6 23 17
REMARK Flexibility Score: inf
ROOT
ATOM      1  C   UNL     1      74.631  90.644  70.630  1.00  0.00     0.010 C 
ENDROOT
BRANCH   1   2
ATOM      2  C   UNL     1      73.415  90.588  71.553  1.00  0.00     0.100 C 
BRANCH   2   3
ATOM      3  C   UNL     1      73.350  91.775  72.499  1.00  0.00     0.220 C 
ATOM      4  O   UNL     1      72.841  91.720  73.615  1.00  0.00    -0.275 OA
ATOM      5  N   UNL     1      73.926  92.905  71.939  1.00  0.00    -0.352 N 
ATOM      6  H   UNL     1      74.314  92.858  71.000  1.00  0.00     0.163 HD
BRANCH   5   7
ATOM      7  C   UNL     1      73.989  94.175  72.626  1.00  0.00     0.151 C 
BRANCH   7   8
ATOM      8  C   UNL     1      75.405  94.623  72.846  1.00  0.00    -0.025 A 
ATOM      9  C   UNL     1      75.872  95.766  72.208  1.00  0.00     0.056 A 
ATOM     10  C   UNL     1      76.234  93.891  73.687  1.00  0.00     0.009 A 
ATOM     11  C   UNL     1      77.187  96.182  72.413  1.00  0.00     0.160 A 
ATOM     12  C   UNL     1      77.550  94.307  73.892  1.00  0.00     0.050 A 
ATOM     13  C   UNL     1      78.027  95.453  73.255  1.00  0.00     0.157 A 
BRANCH  11  14
ATOM     14  O   UNL     1      77.641  97.303  71.785  1.00  0.00    -0.493 OA
ATOM     15  C   UNL     1      76.659  98.211  71.289  1.00  0.00     0.278 C 
ENDBRANCH  11  14
BRANCH  13  16
ATOM     16  O   UNL     1      79.313  95.850  73.463  1.00  0.00    -0.504 OA
ATOM     17  H   UNL     1      79.406  96.150  74.384  1.00  0.00     0.293 HD
ENDBRANCH  13  16
ENDBRANCH   7   8
ENDBRANCH   5   7
ENDBRANCH   2   3
ENDBRANCH   1   2
BRANCH   1  18
ATOM     18  C   UNL     1      74.737  89.444  69.686  1.00  0.00     0.001 C 
BRANCH  18  19
ATOM     19  C   UNL     1      75.632  89.642  68.458  1.00  0.00     0.000 C 
BRANCH  19  20
ATOM     20  C   UNL     1      76.985  88.935  68.576  1.00  0.00     0.000 C 
BRANCH  20  21
ATOM     21  C   UNL     1      76.996  87.532  67.959  1.00  0.00     0.000 C 
BRANCH  21  22
ATOM     22  C   UNL     1      77.236  86.420  68.986  1.00  0.00     0.003 C 
BRANCH  22  23
ATOM     23  C   UNL     1      76.048  85.449  69.129  1.00  0.00    -0.017 C 
ATOM     24  C   UNL     1      76.002  84.894  70.555  1.00  0.00     0.007 C 
ATOM     25  C   UNL     1      76.113  84.293  68.130  1.00  0.00     0.007 C 
ENDBRANCH  22  23
ENDBRANCH  21  22
ENDBRANCH  20  21
ENDBRANCH  19  20
ENDBRANCH  18  19
ENDBRANCH   1  18
TORSDOF 12
ENDMDL
MODEL 5
REMARK VINA RESULT:    -5.464      1.551      2.120
REMARK INTER + INTRA:         -10.161
REMARK INTER:                  -9.411
REMARK INTRA:                  -0.750
REMARK UNBOUND:                -1.024
REMARK SMILES COc1cc(CNC(=O)CCCCCCCC(C)C)ccc1O
REMARK SMILES IDX 11 1 10 2 8 3 9 4 7 5 6 7 5 8 4 9 20 10 3 11 21 12 22 13
REMARK SMILES IDX 2 14 1 15 23 16 12 18 13 19 14 20 15 21 16 22 17 23 18 24
REMARK SMILES IDX 19 25
REMARK H PARENT 7 6 23 17
REMARK Flexibility Score: inf
ROOT
ATOM      1  C   UNL     1      74.586  90.955  70.798  1.00  0.00     0.010 C 
ENDROOT
BRANCH   1   2
ATOM      2  C   UNL     1      73.320  91.064  71.646  1.00  0.00     0.100 C 
BRANCH   2   3
ATOM      3  C   UNL     1      73.393  92.203  72.649  1.00  0.00     0.220 C 
ATOM      4  O   UNL     1      73.061  92.087  73.826  1.00  0.00    -0.275 OA
ATOM      5  N   UNL     1      73.866  93.368  72.064  1.00  0.00    -0.352 N 
ATOM      6  H   UNL     1      74.106  93.372  71.076  1.00  0.00     0.163 HD
BRANCH   5   7
ATOM      7  C   UNL     1      74.024  94.604  72.796  1.00  0.00     0.151 C 
BRANCH   7   8
ATOM      8  C   UNL     1      75.467  94.989  72.942  1.00  0.00    -0.025 A 
ATOM      9  C   UNL     1      76.222  94.447  73.975  1.00  0.00     0.056 A 
ATOM     10  C   UNL     1      76.034  95.884  72.043  1.00  0.00     0.009 A 
ATOM     11  C   UNL     1      77.563  94.805  74.111  1.00  0.00     0.160 A 
ATOM     12  C   UNL     1      77.376  96.243  72.180  1.00  0.00     0.050 A 
ATOM     13  C   UNL     1      78.141  95.704  73.213  1.00  0.00     0.157 A 
BRANCH  11  14
ATOM     14  O   UNL     1      78.300  94.272  75.126  1.00  0.00    -0.493 OA
ATOM     15  C   UNL     1      77.813  94.469  76.453  1.00  0.00     0.278 C 
ENDBRANCH  11  14
BRANCH  13  16
ATOM     16  O   UNL     1      79.449  96.061  73.336  1.00  0.00    -0.504 OA
ATOM     17  H   UNL     1      80.001  95.401  72.880  1.00  0.00     0.293 HD
ENDBRANCH  13  16
ENDBRANCH   7   8
ENDBRANCH   5   7
ENDBRANCH   2   3
ENDBRANCH   1   2
BRANCH   1  18
ATOM     18  C   UNL     1      74.599  89.733  69.875  1.00  0.00     0.001 C 
BRANCH  18  19
ATOM     19  C   UNL     1      75.317  89.920  68.535  1.00  0.00     0.000 C 
BRANCH  19  20
ATOM     20  C   UNL     1      76.172  88.715  68.134  1.00  0.00     0.000 C 
BRANCH  20  21
ATOM     21  C   UNL     1      75.883  87.459  68.962  1.00  0.00     0.000 C 
BRANCH  21  22
ATOM     22  C   UNL     1      77.005  86.417  68.896  1.00  0.00     0.003 C 
BRANCH  22  23
ATOM     23  C   UNL     1      76.522  85.021  68.455  1.00  0.00    -0.017 C 
ATOM     24  C   UNL     1      76.376  84.113  69.678  1.00  0.00     0.007 C 
ATOM     25  C   UNL     1      77.462  84.370  67.440  1.00  0.00     0.007 C 
ENDBRANCH  22  23
ENDBRANCH  21  22
ENDBRANCH  20  21
ENDBRANCH  19  20
ENDBRANCH  18  19
ENDBRANCH   1  18
TORSDOF 12
ENDMDL
MODEL 6
REMARK VINA RESULT:    -5.418     15.796     19.350
REMARK INTER + INTRA:         -10.084
REMARK INTER:                  -9.304
REMARK INTRA:                  -0.781
REMARK UNBOUND:                -1.024
REMARK SMILES COc1cc(CNC(=O)CCCCCCCC(C)C)ccc1O
REMARK SMILES IDX 11 1 10 2 8 3 9 4 7 5 6 7 5 8 4 9 20 10 3 11 21 12 22 13
REMARK SMILES IDX 2 14 1 15 23 16 12 18 13 19 14 20 15 21 16 22 17 23 18 24
REMARK SMILES IDX 19 25
REMARK H PARENT 7 6 23 17
REMARK Flexibility Score: inf
ROOT
ATOM      1  C   UNL     1      94.057 100.216  74.148  1.00  0.00     0.010 C 
ENDROOT
BRANCH   1   2
ATOM      2  C   UNL     1      95.362  99.507  74.506  1.00  0.00     0.100 C 
BRANCH   2   3
ATOM      3  C   UNL     1      95.371  98.053  74.064  1.00  0.00     0.220 C 
ATOM      4  O   UNL     1      96.211  97.586  73.301  1.00  0.00    -0.275 OA
ATOM      5  N   UNL     1      94.317  97.344  74.623  1.00  0.00    -0.352 N 
ATOM      6  H   UNL     1      93.662  97.820  75.237  1.00  0.00     0.163 HD
BRANCH   5   7
ATOM      7  C   UNL     1      94.090  95.942  74.359  1.00  0.00     0.151 C 
BRANCH   7   8
ATOM      8  C   UNL     1      93.172  95.322  75.372  1.00  0.00    -0.025 A 
ATOM      9  C   UNL     1      92.025  94.661  74.948  1.00  0.00     0.056 A 
ATOM     10  C   UNL     1      93.477  95.417  76.724  1.00  0.00     0.009 A 
ATOM     11  C   UNL     1      91.173  94.085  75.889  1.00  0.00     0.160 A 
ATOM     12  C   UNL     1      92.623  94.841  77.666  1.00  0.00     0.050 A 
ATOM     13  C   UNL     1      91.471  94.176  77.249  1.00  0.00     0.157 A 
BRANCH  11  14
ATOM     14  O   UNL     1      90.050  93.437  75.470  1.00  0.00    -0.493 OA
ATOM     15  C   UNL     1      90.174  92.045  75.183  1.00  0.00     0.278 C 
ENDBRANCH  11  14
BRANCH  13  16
ATOM     16  O   UNL     1      90.646  93.617  78.178  1.00  0.00    -0.504 OA
ATOM     17  H   UNL     1      90.540  94.237  78.920  1.00  0.00     0.293 HD
ENDBRANCH  13  16
ENDBRANCH   7   8
ENDBRANCH   5   7
ENDBRANCH   2   3
ENDBRANCH   1   2
BRANCH   1  18
ATOM     18  C   UNL     1      94.048 100.796  72.731  1.00  0.00     0.001 C 
BRANCH  18  19
ATOM     19  C   UNL     1      92.960 101.838  72.447  1.00  0.00     0.000 C 
BRANCH  19  20
ATOM     20  C   UNL     1      91.559 101.233  72.328  1.00  0.00     0.000 C 
BRANCH  20  21
ATOM     21  C   UNL     1      91.330 100.478  71.014  1.00  0.00     0.000 C 
BRANCH  21  22
ATOM     22  C   UNL     1      89.869 100.072  70.795  1.00  0.00     0.003 C 
BRANCH  22  23
ATOM     23  C   UNL     1      89.183 100.840  69.648  1.00  0.00    -0.017 C 
ATOM     24  C   UNL     1      90.237 101.344  68.660  1.00  0.00     0.007 C 
ATOM     25  C   UNL     1      88.346 102.017  70.151  1.00  0.00     0.007 C 
ENDBRANCH  22  23
ENDBRANCH  21  22
ENDBRANCH  20  21
ENDBRANCH  19  20
ENDBRANCH  18  19
ENDBRANCH   1  18
TORSDOF 12
ENDMDL
MODEL 7
REMARK VINA RESULT:    -5.390     24.426     26.455
REMARK INTER + INTRA:         -10.038
REMARK INTER:                  -8.327
REMARK INTRA:                  -1.711
REMARK UNBOUND:                -1.024
REMARK SMILES COc1cc(CNC(=O)CCCCCCCC(C)C)ccc1O
REMARK SMILES IDX 11 1 10 2 8 3 9 4 7 5 6 7 5 8 4 9 20 10 3 11 21 12 22 13
REMARK SMILES IDX 2 14 1 15 23 16 12 18 13 19 14 20 15 21 16 22 17 23 18 24
REMARK SMILES IDX 19 25
REMARK H PARENT 7 6 23 17
REMARK Flexibility Score: inf
ROOT
ATOM      1  C   UNL     1      90.765  95.088  91.899  1.00  0.00     0.010 C 
ENDROOT
BRANCH   1   2
ATOM      2  C   UNL     1      90.957  94.165  90.697  1.00  0.00     0.100 C 
BRANCH   2   3
ATOM      3  C   UNL     1      91.391  92.767  91.105  1.00  0.00     0.220 C 
ATOM      4  O   UNL     1      90.743  92.056  91.868  1.00  0.00    -0.275 OA
ATOM      5  N   UNL     1      92.597  92.415  90.517  1.00  0.00    -0.352 N 
ATOM      6  H   UNL     1      93.069  93.076  89.905  1.00  0.00     0.163 HD
BRANCH   5   7
ATOM      7  C   UNL     1      93.238  91.141  90.745  1.00  0.00     0.151 C 
BRANCH   7   8
ATOM      8  C   UNL     1      93.710  90.513  89.466  1.00  0.00    -0.025 A 
ATOM      9  C   UNL     1      93.705  89.129  89.335  1.00  0.00     0.056 A 
ATOM     10  C   UNL     1      94.149  91.322  88.425  1.00  0.00     0.009 A 
ATOM     11  C   UNL     1      94.144  88.547  88.147  1.00  0.00     0.160 A 
ATOM     12  C   UNL     1      94.589  90.739  87.236  1.00  0.00     0.050 A 
ATOM     13  C   UNL     1      94.587  89.351  87.097  1.00  0.00     0.157 A 
BRANCH  11  14
ATOM     14  O   UNL     1      94.138  87.190  88.023  1.00  0.00    -0.493 OA
ATOM     15  C   UNL     1      93.109  86.481  88.712  1.00  0.00     0.278 C 
ENDBRANCH  11  14
BRANCH  13  16
ATOM     16  O   UNL     1      95.018  88.794  85.931  1.00  0.00    -0.504 OA
ATOM     17  H   UNL     1      95.697  89.369  85.537  1.00  0.00     0.293 HD
ENDBRANCH  13  16
ENDBRANCH   7   8
ENDBRANCH   5   7
ENDBRANCH   2   3
ENDBRANCH   1   2
BRANCH   1  18
ATOM     18  C   UNL     1      91.733  96.274  91.918  1.00  0.00     0.001 C 
BRANCH  18  19
ATOM     19  C   UNL     1      92.064  96.884  90.552  1.00  0.00     0.000 C 
BRANCH  19  20
ATOM     20  C   UNL     1      93.563  96.890  90.239  1.00  0.00     0.000 C 
BRANCH  20  21
ATOM     21  C   UNL     1      94.020  95.676  89.422  1.00  0.00     0.000 C 
BRANCH  21  22
ATOM     22  C   UNL     1      94.875  94.691  90.227  1.00  0.00     0.003 C 
BRANCH  22  23
ATOM     23  C   UNL     1      95.232  95.199  91.638  1.00  0.00    -0.017 C 
ATOM     24  C   UNL     1      96.743  95.422  91.740  1.00  0.00     0.007 C 
ATOM     25  C   UNL     1      94.779  94.238  92.738  1.00  0.00     0.007 C 
ENDBRANCH  22  23
ENDBRANCH  21  22
ENDBRANCH  20  21
ENDBRANCH  19  20
ENDBRANCH  18  19
ENDBRANCH   1  18
TORSDOF 12
ENDMDL
MODEL 8
REMARK VINA RESULT:    -5.323     23.191     24.875
REMARK INTER + INTRA:          -9.926
REMARK INTER:                  -8.879
REMARK INTRA:                  -1.047
REMARK UNBOUND:                -1.024
REMARK SMILES COc1cc(CNC(=O)CCCCCCCC(C)C)ccc1O
REMARK SMILES IDX 11 1 10 2 8 3 9 4 7 5 6 7 5 8 4 9 20 10 3 11 21 12 22 13
REMARK SMILES IDX 2 14 1 15 23 16 12 18 13 19 14 20 15 21 16 22 17 23 18 24
REMARK SMILES IDX 19 25
REMARK H PARENT 7 6 23 17
REMARK Flexibility Score: inf
ROOT
ATOM      1  C   UNL     1      98.746  81.894  79.081  1.00  0.00     0.010 C 
ENDROOT
BRANCH   1   2
ATOM      2  C   UNL     1      99.463  82.148  80.405  1.00  0.00     0.100 C 
BRANCH   2   3
ATOM      3  C   UNL     1      98.911  81.295  81.536  1.00  0.00     0.220 C 
ATOM      4  O   UNL     1      99.619  80.767  82.388  1.00  0.00    -0.275 OA
ATOM      5  N   UNL     1      97.530  81.193  81.468  1.00  0.00    -0.352 N 
ATOM      6  H   UNL     1      97.028  81.658  80.716  1.00  0.00     0.163 HD
BRANCH   5   7
ATOM      7  C   UNL     1      96.753  80.431  82.420  1.00  0.00     0.151 C 
BRANCH   7   8
ATOM      8  C   UNL     1      95.998  81.319  83.366  1.00  0.00    -0.025 A 
ATOM      9  C   UNL     1      96.455  82.608  83.612  1.00  0.00     0.056 A 
ATOM     10  C   UNL     1      94.850  80.842  83.986  1.00  0.00     0.009 A 
ATOM     11  C   UNL     1      95.753  83.433  84.491  1.00  0.00     0.160 A 
ATOM     12  C   UNL     1      94.148  81.667  84.866  1.00  0.00     0.050 A 
ATOM     13  C   UNL     1      94.599  82.962  85.119  1.00  0.00     0.157 A 
BRANCH  11  14
ATOM     14  O   UNL     1      96.204  84.696  84.731  1.00  0.00    -0.493 OA
ATOM     15  C   UNL     1      95.846  85.702  83.784  1.00  0.00     0.278 C 
ENDBRANCH  11  14
BRANCH  13  16
ATOM     16  O   UNL     1      93.905  83.758  85.979  1.00  0.00    -0.504 OA
ATOM     17  H   UNL     1      93.218  84.236  85.483  1.00  0.00     0.293 HD
ENDBRANCH  13  16
ENDBRANCH   7   8
ENDBRANCH   5   7
ENDBRANCH   2   3
ENDBRANCH   1   2
BRANCH   1  18
ATOM     18  C   UNL     1      98.127  83.154  78.471  1.00  0.00     0.001 C 
BRANCH  18  19
ATOM     19  C   UNL     1      96.907  82.927  77.572  1.00  0.00     0.000 C 
BRANCH  19  20
ATOM     20  C   UNL     1      96.249  84.228  77.105  1.00  0.00     0.000 C 
BRANCH  20  21
ATOM     21  C   UNL     1      96.852  84.785  75.810  1.00  0.00     0.000 C 
BRANCH  21  22
ATOM     22  C   UNL     1      97.237  83.697  74.803  1.00  0.00     0.003 C 
BRANCH  22  23
ATOM     23  C   UNL     1      98.620  83.916  74.161  1.00  0.00    -0.017 C 
ATOM     24  C   UNL     1      99.670  84.130  75.254  1.00  0.00     0.007 C 
ATOM     25  C   UNL     1      98.637  85.100  73.193  1.00  0.00     0.007 C 
ENDBRANCH  22  23
ENDBRANCH  21  22
ENDBRANCH  20  21
ENDBRANCH  19  20
ENDBRANCH  18  19
ENDBRANCH   1  18
TORSDOF 12
ENDMDL
MODEL 9
REMARK VINA RESULT:    -5.185     24.364     26.378
REMARK INTER + INTRA:          -9.695
REMARK INTER:                  -8.018
REMARK INTRA:                  -1.676
REMARK UNBOUND:                -1.024
REMARK SMILES COc1cc(CNC(=O)CCCCCCCC(C)C)ccc1O
REMARK SMILES IDX 11 1 10 2 8 3 9 4 7 5 6 7 5 8 4 9 20 10 3 11 21 12 22 13
REMARK SMILES IDX 2 14 1 15 23 16 12 18 13 19 14 20 15 21 16 22 17 23 18 24
REMARK SMILES IDX 19 25
REMARK H PARENT 7 6 23 17
REMARK Flexibility Score: inf
ROOT
ATOM      1  C   UNL     1     102.849  82.122  75.488  1.00  0.00     0.010 C 
ENDROOT
BRANCH   1   2
ATOM      2  C   UNL     1     103.343  81.708  76.872  1.00  0.00     0.100 C 
BRANCH   2   3
ATOM      3  C   UNL     1     102.201  81.411  77.829  1.00  0.00     0.220 C 
ATOM      4  O   UNL     1     102.366  81.181  79.024  1.00  0.00    -0.275 OA
ATOM      5  N   UNL     1     100.976  81.425  77.180  1.00  0.00    -0.352 N 
ATOM      6  H   UNL     1     100.938  81.614  76.182  1.00  0.00     0.163 HD
BRANCH   5   7
ATOM      7  C   UNL     1      99.727  81.165  77.859  1.00  0.00     0.151 C 
BRANCH   7   8
ATOM      8  C   UNL     1      98.694  82.211  77.554  1.00  0.00    -0.025 A 
ATOM      9  C   UNL     1      98.604  82.734  76.270  1.00  0.00     0.056 A 
ATOM     10  C   UNL     1      97.838  82.645  78.559  1.00  0.00     0.009 A 
ATOM     11  C   UNL     1      97.644  83.706  75.987  1.00  0.00     0.160 A 
ATOM     12  C   UNL     1      96.879  83.617  78.276  1.00  0.00     0.050 A 
ATOM     13  C   UNL     1      96.781  84.148  76.990  1.00  0.00     0.157 A 
BRANCH  11  14
ATOM     14  O   UNL     1      97.559  84.217  74.727  1.00  0.00    -0.493 OA
ATOM     15  C   UNL     1      97.627  83.289  73.645  1.00  0.00     0.278 C 
ENDBRANCH  11  14
BRANCH  13  16
ATOM     16  O   UNL     1      95.840  85.096  76.726  1.00  0.00    -0.504 OA
ATOM     17  H   UNL     1      96.125  85.942  77.112  1.00  0.00     0.293 HD
ENDBRANCH  13  16
ENDBRANCH   7   8
ENDBRANCH   5   7
ENDBRANCH   2   3
ENDBRANCH   1   2
BRANCH   1  18
ATOM     18  C   UNL     1     103.623  83.300  74.890  1.00  0.00     0.001 C 
BRANCH  18  19
ATOM     19  C   UNL     1     102.943  84.668  75.003  1.00  0.00     0.000 C 
BRANCH  19  20
ATOM     20  C   UNL     1     101.420  84.600  74.856  1.00  0.00     0.000 C 
BRANCH  20  21
ATOM     21  C   UNL     1     100.821  85.821  74.149  1.00  0.00     0.000 C 
BRANCH  21  22
ATOM     22  C   UNL     1     100.263  85.502  72.757  1.00  0.00     0.003 C 
BRANCH  22  23
ATOM     23  C   UNL     1     101.204  84.629  71.904  1.00  0.00    -0.017 C 
ATOM     24  C   UNL     1     101.947  85.505  70.892  1.00  0.00     0.007 C 
ATOM     25  C   UNL     1     100.461  83.512  71.170  1.00  0.00     0.007 C 
ENDBRANCH  22  23
ENDBRANCH  21  22
ENDBRANCH  20  21
ENDBRANCH  19  20
ENDBRANCH  18  19
ENDBRANCH   1  18
TORSDOF 12
ENDMDL
MODEL 10
REMARK VINA RESULT:    -5.169     21.829     24.719
REMARK INTER + INTRA:          -9.668
REMARK INTER:                  -8.751
REMARK INTRA:                  -0.917
REMARK UNBOUND:                -1.024
REMARK SMILES COc1cc(CNC(=O)CCCCCCCC(C)C)ccc1O
REMARK SMILES IDX 11 1 10 2 8 3 9 4 7 5 6 7 5 8 4 9 20 10 3 11 21 12 22 13
REMARK SMILES IDX 2 14 1 15 23 16 12 18 13 19 14 20 15 21 16 22 17 23 18 24
REMARK SMILES IDX 19 25
REMARK H PARENT 7 6 23 17
REMARK Flexibility Score: inf
ROOT
ATOM      1  C   UNL     1      94.934  82.502  88.673  1.00  0.00     0.010 C 
ENDROOT
BRANCH   1   2
ATOM      2  C   UNL     1      94.762  81.793  87.331  1.00  0.00     0.100 C 
BRANCH   2   3
ATOM      3  C   UNL     1      94.063  82.666  86.302  1.00  0.00     0.220 C 
ATOM      4  O   UNL     1      94.418  83.811  86.036  1.00  0.00    -0.275 OA
ATOM      5  N   UNL     1      92.988  82.008  85.723  1.00  0.00    -0.352 N 
ATOM      6  H   UNL     1      92.762  81.061  86.015  1.00  0.00     0.163 HD
BRANCH   5   7
ATOM      7  C   UNL     1      92.147  82.617  84.717  1.00  0.00     0.151 C 
BRANCH   7   8
ATOM      8  C   UNL     1      90.899  81.820  84.473  1.00  0.00    -0.025 A 
ATOM      9  C   UNL     1      89.657  82.429  84.608  1.00  0.00     0.056 A 
ATOM     10  C   UNL     1      90.998  80.481  84.114  1.00  0.00     0.009 A 
ATOM     11  C   UNL     1      88.497  81.688  84.381  1.00  0.00     0.160 A 
ATOM     12  C   UNL     1      89.837  79.740  83.888  1.00  0.00     0.050 A 
ATOM     13  C   UNL     1      88.587  80.343  84.021  1.00  0.00     0.157 A 
BRANCH  11  14
ATOM     14  O   UNL     1      87.281  82.288  84.514  1.00  0.00    -0.493 OA
ATOM     15  C   UNL     1      87.276  83.691  84.772  1.00  0.00     0.278 C 
ENDBRANCH  11  14
BRANCH  13  16
ATOM     16  O   UNL     1      87.462  79.609  83.796  1.00  0.00    -0.504 OA
ATOM     17  H   UNL     1      87.660  78.918  83.141  1.00  0.00     0.293 HD
ENDBRANCH  13  16
ENDBRANCH   7   8
ENDBRANCH   5   7
ENDBRANCH   2   3
ENDBRANCH   1   2
BRANCH   1  18
ATOM     18  C   UNL     1      93.628  82.646  89.459  1.00  0.00     0.001 C 
BRANCH  18  19
ATOM     19  C   UNL     1      93.778  82.791  90.977  1.00  0.00     0.000 C 
BRANCH  19  20
ATOM     20  C   UNL     1      94.251  84.182  91.408  1.00  0.00     0.000 C 
BRANCH  20  21
ATOM     21  C   UNL     1      93.305  85.308  90.977  1.00  0.00     0.000 C 
BRANCH  21  22
ATOM     22  C   UNL     1      93.947  86.297  89.998  1.00  0.00     0.003 C 
BRANCH  22  23
ATOM     23  C   UNL     1      92.951  86.889  88.982  1.00  0.00    -0.017 C 
ATOM     24  C   UNL     1      93.693  87.298  87.707  1.00  0.00     0.007 C 
ATOM     25  C   UNL     1      92.188  88.091  89.541  1.00  0.00     0.007 C 
ENDBRANCH  22  23
ENDBRANCH  21  22
ENDBRANCH  20  21
ENDBRANCH  19  20
ENDBRANCH  18  19
ENDBRANCH   1  18
TORSDOF 12
ENDMDL
