MODEL 1
REMARK VINA RESULT:    -6.524      0.000      0.000
REMARK INTER + INTRA:         -11.159
REMARK INTER:                 -10.529
REMARK INTRA:                  -0.630
REMARK UNBOUND:                -0.630
REMARK SMILES CCCCCCCCC(=O)NCc1ccc(O)c(OC)c1
REMARK SMILES IDX 7 1 6 2 5 3 4 4 3 5 2 6 1 7 8 8 9 9 10 10 11 11 12 13 13 14
REMARK SMILES IDX 21 15 14 16 18 17 15 18 16 19 19 20 20 21 17 22
REMARK H PARENT 11 12 17 23
REMARK Flexibility Score: inf
ROOT
ATOM      1  C   UNL     1      91.866  95.441  76.731  1.00  0.00     0.010 C 
ENDROOT
BRANCH   1   2
ATOM      2  C   UNL     1      92.107  94.218  77.662  1.00  0.00     0.001 C 
BRANCH   2   3
ATOM      3  C   UNL     1      91.281  92.973  77.223  1.00  0.00     0.000 C 
BRANCH   3   4
ATOM      4  C   UNL     1      91.440  92.615  75.718  1.00  0.00    -0.000 C 
BRANCH   4   5
ATOM      5  C   UNL     1      90.345  91.630  75.217  1.00  0.00    -0.000 C 
BRANCH   5   6
ATOM      6  C   UNL     1      90.898  90.587  74.209  1.00  0.00    -0.003 C 
ATOM      7  C   UNL     1      90.811  89.138  74.737  1.00  0.00     0.004 C 
ENDBRANCH   5   6
ENDBRANCH   4   5
ENDBRANCH   3   4
ENDBRANCH   2   3
ENDBRANCH   1   2
BRANCH   1   8
ATOM      8  C   UNL     1      93.024  95.706  75.728  1.00  0.00     0.100 C 
BRANCH   8   9
ATOM      9  C   UNL     1      94.294  95.101  76.198  1.00  0.00     0.220 C 
ATOM     10  O   UNL     1      94.709  94.067  75.623  1.00  0.00    -0.275 OA
ATOM     11  N   UNL     1      95.004  95.678  77.212  1.00  0.00    -0.352 N 
ATOM     12  H   UNL     1      94.537  96.453  77.660  1.00  0.00     0.163 HD
BRANCH  11  13
ATOM     13  C   UNL     1      96.302  95.275  77.658  1.00  0.00     0.151 C 
BRANCH  13  14
ATOM     14  C   UNL     1      96.287  94.484  78.918  1.00  0.00    -0.025 A 
ATOM     15  C   UNL     1      97.367  94.574  79.828  1.00  0.00     0.056 A 
ATOM     16  C   UNL     1      95.203  93.631  79.228  1.00  0.00     0.009 A 
ATOM     17  C   UNL     1      97.359  93.842  81.037  1.00  0.00     0.160 A 
ATOM     18  C   UNL     1      95.188  92.902  80.430  1.00  0.00     0.050 A 
ATOM     19  C   UNL     1      96.264  92.998  81.332  1.00  0.00     0.157 A 
BRANCH  17  20
ATOM     20  O   UNL     1      98.426  93.897  81.898  1.00  0.00    -0.493 OA
ATOM     21  C   UNL     1      98.733  95.221  82.371  1.00  0.00     0.278 C 
ENDBRANCH  17  20
BRANCH  19  22
ATOM     22  O   UNL     1      96.253  92.268  82.477  1.00  0.00    -0.504 OA
ATOM     23  H   UNL     1      95.356  92.219  82.816  1.00  0.00     0.293 HD
ENDBRANCH  19  22
ENDBRANCH  13  14
ENDBRANCH  11  13
ENDBRANCH   8   9
ENDBRANCH   1   8
TORSDOF 11
ENDMDL
MODEL 2
REMARK VINA RESULT:    -6.009      1.085      2.204
REMARK INTER + INTRA:         -10.327
REMARK INTER:                  -9.544
REMARK INTRA:                  -0.784
REMARK UNBOUND:                -0.630
REMARK SMILES CCCCCCCCC(=O)NCc1ccc(O)c(OC)c1
REMARK SMILES IDX 7 1 6 2 5 3 4 4 3 5 2 6 1 7 8 8 9 9 10 10 11 11 12 13 13 14
REMARK SMILES IDX 21 15 14 16 18 17 15 18 16 19 19 20 20 21 17 22
REMARK H PARENT 11 12 17 23
REMARK Flexibility Score: inf
ROOT
ATOM      1  C   UNL     1      92.031  95.469  76.935  1.00  0.00     0.010 C 
ENDROOT
BRANCH   1   2
ATOM      2  C   UNL     1      92.626  94.362  77.851  1.00  0.00     0.001 C 
BRANCH   2   3
ATOM      3  C   UNL     1      91.736  93.084  77.886  1.00  0.00     0.000 C 
BRANCH   3   4
ATOM      4  C   UNL     1      91.325  92.569  76.478  1.00  0.00    -0.000 C 
BRANCH   4   5
ATOM      5  C   UNL     1      90.049  91.679  76.513  1.00  0.00    -0.000 C 
BRANCH   5   6
ATOM      6  C   UNL     1      89.722  91.051  75.132  1.00  0.00    -0.003 C 
ATOM      7  C   UNL     1      90.969  90.478  74.423  1.00  0.00     0.004 C 
ENDBRANCH   5   6
ENDBRANCH   4   5
ENDBRANCH   3   4
ENDBRANCH   2   3
ENDBRANCH   1   2
BRANCH   1   8
ATOM      8  C   UNL     1      92.808  95.670  75.604  1.00  0.00     0.100 C 
BRANCH   8   9
ATOM      9  C   UNL     1      94.260  95.428  75.785  1.00  0.00     0.220 C 
ATOM     10  O   UNL     1      94.766  94.414  75.248  1.00  0.00    -0.275 OA
ATOM     11  N   UNL     1      95.026  96.306  76.496  1.00  0.00    -0.352 N 
ATOM     12  H   UNL     1      94.505  97.038  76.957  1.00  0.00     0.163 HD
BRANCH  11  13
ATOM     13  C   UNL     1      96.451  96.260  76.623  1.00  0.00     0.151 C 
BRANCH  13  14
ATOM     14  C   UNL     1      96.922  95.705  77.920  1.00  0.00    -0.025 A 
ATOM     15  C   UNL     1      96.018  95.033  78.777  1.00  0.00     0.056 A 
ATOM     16  C   UNL     1      98.270  95.842  78.322  1.00  0.00     0.009 A 
ATOM     17  C   UNL     1      96.455  94.485  80.005  1.00  0.00     0.160 A 
ATOM     18  C   UNL     1      98.711  95.299  79.542  1.00  0.00     0.050 A 
ATOM     19  C   UNL     1      97.808  94.628  80.389  1.00  0.00     0.157 A 
BRANCH  17  20
ATOM     20  O   UNL     1      95.569  93.871  80.854  1.00  0.00    -0.493 OA
ATOM     21  C   UNL     1      94.975  92.675  80.319  1.00  0.00     0.278 C 
ENDBRANCH  17  20
BRANCH  19  22
ATOM     22  O   UNL     1      98.237  94.131  81.577  1.00  0.00    -0.504 OA
ATOM     23  H   UNL     1      99.051  93.641  81.443  1.00  0.00     0.293 HD
ENDBRANCH  19  22
ENDBRANCH  13  14
ENDBRANCH  11  13
ENDBRANCH   8   9
ENDBRANCH   1   8
TORSDOF 11
ENDMDL
MODEL 3
REMARK VINA RESULT:    -5.820      2.420      3.446
REMARK INTER + INTRA:         -10.022
REMARK INTER:                  -8.907
REMARK INTRA:                  -1.115
REMARK UNBOUND:                -0.630
REMARK SMILES CCCCCCCCC(=O)NCc1ccc(O)c(OC)c1
REMARK SMILES IDX 7 1 6 2 5 3 4 4 3 5 2 6 1 7 8 8 9 9 10 10 11 11 12 13 13 14
REMARK SMILES IDX 21 15 14 16 18 17 15 18 16 19 19 20 20 21 17 22
REMARK H PARENT 11 12 17 23
REMARK Flexibility Score: inf
ROOT
ATOM      1  C   UNL     1      95.260  97.002  73.870  1.00  0.00     0.010 C 
ENDROOT
BRANCH   1   2
ATOM      2  C   UNL     1      93.900  96.692  74.558  1.00  0.00     0.001 C 
BRANCH   2   3
ATOM      3  C   UNL     1      93.836  95.236  75.107  1.00  0.00     0.000 C 
BRANCH   3   4
ATOM      4  C   UNL     1      93.995  95.140  76.651  1.00  0.00    -0.000 C 
BRANCH   4   5
ATOM      5  C   UNL     1      92.631  95.182  77.398  1.00  0.00    -0.000 C 
BRANCH   5   6
ATOM      6  C   UNL     1      92.114  93.767  77.772  1.00  0.00    -0.003 C 
ATOM      7  C   UNL     1      90.618  93.568  77.442  1.00  0.00     0.004 C 
ENDBRANCH   5   6
ENDBRANCH   4   5
ENDBRANCH   3   4
ENDBRANCH   2   3
ENDBRANCH   1   2
BRANCH   1   8
ATOM      8  C   UNL     1      96.098  98.092  74.594  1.00  0.00     0.100 C 
BRANCH   8   9
ATOM      9  C   UNL     1      97.145  97.487  75.453  1.00  0.00     0.220 C 
ATOM     10  O   UNL     1      98.305  97.376  74.989  1.00  0.00    -0.275 OA
ATOM     11  N   UNL     1      96.853  97.089  76.726  1.00  0.00    -0.352 N 
ATOM     12  H   UNL     1      95.874  97.143  76.967  1.00  0.00     0.163 HD
BRANCH  11  13
ATOM     13  C   UNL     1      97.800  96.625  77.694  1.00  0.00     0.151 C 
BRANCH  13  14
ATOM     14  C   UNL     1      97.203  95.773  78.757  1.00  0.00    -0.025 A 
ATOM     15  C   UNL     1      96.763  96.352  79.971  1.00  0.00     0.056 A 
ATOM     16  C   UNL     1      97.069  94.376  78.579  1.00  0.00     0.009 A 
ATOM     17  C   UNL     1      96.178  95.557  80.984  1.00  0.00     0.160 A 
ATOM     18  C   UNL     1      96.488  93.580  79.582  1.00  0.00     0.050 A 
ATOM     19  C   UNL     1      96.049  94.163  80.786  1.00  0.00     0.157 A 
BRANCH  17  20
ATOM     20  O   UNL     1      95.791  96.113  82.177  1.00  0.00    -0.493 OA
ATOM     21  C   UNL     1      96.861  96.730  82.914  1.00  0.00     0.278 C 
ENDBRANCH  17  20
BRANCH  19  22
ATOM     22  O   UNL     1      95.514  93.382  81.759  1.00  0.00    -0.504 OA
ATOM     23  H   UNL     1      95.306  92.518  81.397  1.00  0.00     0.293 HD
ENDBRANCH  19  22
ENDBRANCH  13  14
ENDBRANCH  11  13
ENDBRANCH   8   9
ENDBRANCH   1   8
TORSDOF 11
ENDMDL
MODEL 4
REMARK VINA RESULT:    -5.810      6.953     11.122
REMARK INTER + INTRA:         -10.007
REMARK INTER:                  -9.470
REMARK INTRA:                  -0.537
REMARK UNBOUND:                -0.630
REMARK SMILES CCCCCCCCC(=O)NCc1ccc(O)c(OC)c1
REMARK SMILES IDX 7 1 6 2 5 3 4 4 3 5 2 6 1 7 8 8 9 9 10 10 11 11 12 13 13 14
REMARK SMILES IDX 21 15 14 16 18 17 15 18 16 19 19 20 20 21 17 22
REMARK H PARENT 11 12 17 23
REMARK Flexibility Score: inf
ROOT
ATOM      1  C   UNL     1      93.497  97.681  74.208  1.00  0.00     0.010 C 
ENDROOT
BRANCH   1   2
ATOM      2  C   UNL     1      94.206  96.324  74.483  1.00  0.00     0.001 C 
BRANCH   2   3
ATOM      3  C   UNL     1      93.300  95.336  75.277  1.00  0.00     0.000 C 
BRANCH   3   4
ATOM      4  C   UNL     1      92.892  95.854  76.685  1.00  0.00    -0.000 C 
BRANCH   4   5
ATOM      5  C   UNL     1      92.872  94.727  77.756  1.00  0.00    -0.000 C 
BRANCH   5   6
ATOM      6  C   UNL     1      92.388  93.368  77.183  1.00  0.00    -0.003 C 
ATOM      7  C   UNL     1      90.891  93.100  77.457  1.00  0.00     0.004 C 
ENDBRANCH   5   6
ENDBRANCH   4   5
ENDBRANCH   3   4
ENDBRANCH   2   3
ENDBRANCH   1   2
BRANCH   1   8
ATOM      8  C   UNL     1      94.262  98.601  73.216  1.00  0.00     0.100 C 
BRANCH   8   9
ATOM      9  C   UNL     1      93.374  99.650  72.658  1.00  0.00     0.220 C 
ATOM     10  O   UNL     1      93.652 100.851  72.891  1.00  0.00    -0.275 OA
ATOM     11  N   UNL     1      92.299  99.311  71.887  1.00  0.00    -0.352 N 
ATOM     12  H   UNL     1      92.118  98.319  71.836  1.00  0.00     0.163 HD
BRANCH  11  13
ATOM     13  C   UNL     1      91.456 100.226  71.181  1.00  0.00     0.151 C 
BRANCH  13  14
ATOM     14  C   UNL     1      90.766  99.626  70.008  1.00  0.00    -0.025 A 
ATOM     15  C   UNL     1      90.713 100.325  68.778  1.00  0.00     0.056 A 
ATOM     16  C   UNL     1      90.152  98.355  70.098  1.00  0.00     0.009 A 
ATOM     17  C   UNL     1      90.076  99.760  67.650  1.00  0.00     0.160 A 
ATOM     18  C   UNL     1      89.518  97.787  68.978  1.00  0.00     0.050 A 
ATOM     19  C   UNL     1      89.471  98.487  67.757  1.00  0.00     0.157 A 
BRANCH  17  20
ATOM     20  O   UNL     1      89.988 100.457  66.471  1.00  0.00    -0.493 OA
ATOM     21  C   UNL     1      91.256 100.707  65.839  1.00  0.00     0.278 C 
ENDBRANCH  17  20
BRANCH  19  22
ATOM     22  O   UNL     1      88.833  97.942  66.690  1.00  0.00    -0.504 OA
ATOM     23  H   UNL     1      89.393  97.271  66.291  1.00  0.00     0.293 HD
ENDBRANCH  19  22
ENDBRANCH  13  14
ENDBRANCH  11  13
ENDBRANCH   8   9
ENDBRANCH   1   8
TORSDOF 11
ENDMDL
MODEL 5
REMARK VINA RESULT:    -5.722     21.958     25.672
REMARK INTER + INTRA:          -9.864
REMARK INTER:                  -8.888
REMARK INTRA:                  -0.976
REMARK UNBOUND:                -0.630
REMARK SMILES CCCCCCCCC(=O)NCc1ccc(O)c(OC)c1
REMARK SMILES IDX 7 1 6 2 5 3 4 4 3 5 2 6 1 7 8 8 9 9 10 10 11 11 12 13 13 14
REMARK SMILES IDX 21 15 14 16 18 17 15 18 16 19 19 20 20 21 17 22
REMARK H PARENT 11 12 17 23
REMARK Flexibility Score: inf
ROOT
ATOM      1  C   UNL     1      76.240  84.591  69.227  1.00  0.00     0.010 C 
ENDROOT
BRANCH   1   2
ATOM      2  C   UNL     1      75.031  85.443  69.709  1.00  0.00     0.001 C 
BRANCH   2   3
ATOM      3  C   UNL     1      74.216  86.035  68.522  1.00  0.00     0.000 C 
BRANCH   3   4
ATOM      4  C   UNL     1      73.198  87.132  68.945  1.00  0.00    -0.000 C 
BRANCH   4   5
ATOM      5  C   UNL     1      73.597  88.548  68.440  1.00  0.00    -0.000 C 
BRANCH   5   6
ATOM      6  C   UNL     1      75.112  88.838  68.615  1.00  0.00    -0.003 C 
ATOM      7  C   UNL     1      75.394  90.265  69.134  1.00  0.00     0.004 C 
ENDBRANCH   5   6
ENDBRANCH   4   5
ENDBRANCH   3   4
ENDBRANCH   2   3
ENDBRANCH   1   2
BRANCH   1   8
ATOM      8  C   UNL     1      77.120  85.296  68.157  1.00  0.00     0.100 C 
BRANCH   8   9
ATOM      9  C   UNL     1      77.085  84.570  66.865  1.00  0.00     0.220 C 
ATOM     10  O   UNL     1      77.921  83.655  66.673  1.00  0.00    -0.275 OA
ATOM     11  N   UNL     1      76.144  84.875  65.923  1.00  0.00    -0.352 N 
ATOM     12  H   UNL     1      75.579  85.682  66.143  1.00  0.00     0.163 HD
BRANCH  11  13
ATOM     13  C   UNL     1      75.918  84.158  64.705  1.00  0.00     0.151 C 
BRANCH  13  14
ATOM     14  C   UNL     1      74.770  83.214  64.767  1.00  0.00    -0.025 A 
ATOM     15  C   UNL     1      73.547  83.618  65.355  1.00  0.00     0.056 A 
ATOM     16  C   UNL     1      74.878  81.904  64.247  1.00  0.00     0.009 A 
ATOM     17  C   UNL     1      72.442  82.737  65.405  1.00  0.00     0.160 A 
ATOM     18  C   UNL     1      73.782  81.024  64.293  1.00  0.00     0.050 A 
ATOM     19  C   UNL     1      72.567  81.433  64.877  1.00  0.00     0.157 A 
BRANCH  17  20
ATOM     20  O   UNL     1      71.272  83.116  66.013  1.00  0.00    -0.493 OA
ATOM     21  C   UNL     1      71.047  84.536  66.024  1.00  0.00     0.278 C 
ENDBRANCH  17  20
BRANCH  19  22
ATOM     22  O   UNL     1      71.524  80.567  64.941  1.00  0.00    -0.504 OA
ATOM     23  H   UNL     1      70.869  80.900  65.559  1.00  0.00     0.293 HD
ENDBRANCH  19  22
ENDBRANCH  13  14
ENDBRANCH  11  13
ENDBRANCH   8   9
ENDBRANCH   1   8
TORSDOF 11
ENDMDL
MODEL 6
REMARK VINA RESULT:    -5.565      6.587      8.855
REMARK INTER + INTRA:          -9.610
REMARK INTER:                  -8.986
REMARK INTRA:                  -0.624
REMARK UNBOUND:                -0.630
REMARK SMILES CCCCCCCCC(=O)NCc1ccc(O)c(OC)c1
REMARK SMILES IDX 7 1 6 2 5 3 4 4 3 5 2 6 1 7 8 8 9 9 10 10 11 11 12 13 13 14
REMARK SMILES IDX 21 15 14 16 18 17 15 18 16 19 19 20 20 21 17 22
REMARK H PARENT 11 12 17 23
REMARK Flexibility Score: inf
ROOT
ATOM      1  C   UNL     1      90.330  99.198  70.468  1.00  0.00     0.010 C 
ENDROOT
BRANCH   1   2
ATOM      2  C   UNL     1      90.147  97.986  69.510  1.00  0.00     0.001 C 
BRANCH   2   3
ATOM      3  C   UNL     1      89.020  98.228  68.463  1.00  0.00     0.000 C 
BRANCH   3   4
ATOM      4  C   UNL     1      88.749  99.731  68.170  1.00  0.00    -0.000 C 
BRANCH   4   5
ATOM      5  C   UNL     1      89.227 100.162  66.754  1.00  0.00    -0.000 C 
BRANCH   5   6
ATOM      6  C   UNL     1      88.768 101.598  66.382  1.00  0.00    -0.003 C 
ATOM      7  C   UNL     1      87.249 101.809  66.567  1.00  0.00     0.004 C 
ENDBRANCH   5   6
ENDBRANCH   4   5
ENDBRANCH   3   4
ENDBRANCH   2   3
ENDBRANCH   1   2
BRANCH   1   8
ATOM      8  C   UNL     1      91.733  99.862  70.382  1.00  0.00     0.100 C 
BRANCH   8   9
ATOM      9  C   UNL     1      92.349  99.998  71.724  1.00  0.00     0.220 C 
ATOM     10  O   UNL     1      92.182 101.073  72.349  1.00  0.00    -0.275 OA
ATOM     11  N   UNL     1      93.054  98.965  72.273  1.00  0.00    -0.352 N 
ATOM     12  H   UNL     1      93.200  98.183  71.652  1.00  0.00     0.163 HD
BRANCH  11  13
ATOM     13  C   UNL     1      93.571  98.922  73.606  1.00  0.00     0.151 C 
BRANCH  13  14
ATOM     14  C   UNL     1      93.843  97.546  74.101  1.00  0.00    -0.025 A 
ATOM     15  C   UNL     1      93.002  96.961  75.078  1.00  0.00     0.056 A 
ATOM     16  C   UNL     1      94.942  96.802  73.612  1.00  0.00     0.009 A 
ATOM     17  C   UNL     1      93.238  95.648  75.545  1.00  0.00     0.160 A 
ATOM     18  C   UNL     1      95.181  95.494  74.072  1.00  0.00     0.050 A 
ATOM     19  C   UNL     1      94.338  94.917  75.042  1.00  0.00     0.157 A 
BRANCH  17  20
ATOM     20  O   UNL     1      92.446  95.098  76.522  1.00  0.00    -0.493 OA
ATOM     21  C   UNL     1      91.522  96.024  77.121  1.00  0.00     0.278 C 
ENDBRANCH  17  20
BRANCH  19  22
ATOM     22  O   UNL     1      94.593  93.665  75.500  1.00  0.00    -0.504 OA
ATOM     23  H   UNL     1      95.444  93.655  75.944  1.00  0.00     0.293 HD
ENDBRANCH  19  22
ENDBRANCH  13  14
ENDBRANCH  11  13
ENDBRANCH   8   9
ENDBRANCH   1   8
TORSDOF 11
ENDMDL
MODEL 7
REMARK VINA RESULT:    -5.544     11.640     13.574
REMARK INTER + INTRA:          -9.577
REMARK INTER:                  -8.527
REMARK INTRA:                  -1.050
REMARK UNBOUND:                -0.630
REMARK SMILES CCCCCCCCC(=O)NCc1ccc(O)c(OC)c1
REMARK SMILES IDX 7 1 6 2 5 3 4 4 3 5 2 6 1 7 8 8 9 9 10 10 11 11 12 13 13 14
REMARK SMILES IDX 21 15 14 16 18 17 15 18 16 19 19 20 20 21 17 22
REMARK H PARENT 11 12 17 23
REMARK Flexibility Score: inf
ROOT
ATOM      1  C   UNL     1      97.572  79.364  75.036  1.00  0.00     0.010 C 
ENDROOT
BRANCH   1   2
ATOM      2  C   UNL     1      97.571  80.541  74.019  1.00  0.00     0.001 C 
BRANCH   2   3
ATOM      3  C   UNL     1      98.303  81.799  74.574  1.00  0.00     0.000 C 
BRANCH   3   4
ATOM      4  C   UNL     1      97.596  83.140  74.226  1.00  0.00    -0.000 C 
BRANCH   4   5
ATOM      5  C   UNL     1      96.114  83.176  74.696  1.00  0.00    -0.000 C 
BRANCH   5   6
ATOM      6  C   UNL     1      95.947  83.847  76.086  1.00  0.00    -0.003 C 
ATOM      7  C   UNL     1      95.685  82.827  77.217  1.00  0.00     0.004 C 
ENDBRANCH   5   6
ENDBRANCH   4   5
ENDBRANCH   3   4
ENDBRANCH   2   3
ENDBRANCH   1   2
BRANCH   1   8
ATOM      8  C   UNL     1      96.927  79.715  76.406  1.00  0.00     0.100 C 
BRANCH   8   9
ATOM      9  C   UNL     1      97.843  79.404  77.530  1.00  0.00     0.220 C 
ATOM     10  O   UNL     1      98.978  78.944  77.262  1.00  0.00    -0.275 OA
ATOM     11  N   UNL     1      97.464  79.643  78.820  1.00  0.00    -0.352 N 
ATOM     12  H   UNL     1      96.502  79.931  78.926  1.00  0.00     0.163 HD
BRANCH  11  13
ATOM     13  C   UNL     1      98.302  79.520  79.973  1.00  0.00     0.151 C 
BRANCH  13  14
ATOM     14  C   UNL     1      97.924  80.426  81.091  1.00  0.00    -0.025 A 
ATOM     15  C   UNL     1      98.368  80.156  82.408  1.00  0.00     0.056 A 
ATOM     16  C   UNL     1      97.117  81.564  80.862  1.00  0.00     0.009 A 
ATOM     17  C   UNL     1      98.031  81.017  83.477  1.00  0.00     0.160 A 
ATOM     18  C   UNL     1      96.780  82.426  81.921  1.00  0.00     0.050 A 
ATOM     19  C   UNL     1      97.227  82.153  83.229  1.00  0.00     0.157 A 
BRANCH  17  20
ATOM     20  O   UNL     1      98.426  80.731  84.759  1.00  0.00    -0.493 OA
ATOM     21  C   UNL     1      99.808  80.348  84.878  1.00  0.00     0.278 C 
ENDBRANCH  17  20
BRANCH  19  22
ATOM     22  O   UNL     1      96.873  82.975  84.249  1.00  0.00    -0.504 OA
ATOM     23  H   UNL     1      96.312  83.679  83.913  1.00  0.00     0.293 HD
ENDBRANCH  19  22
ENDBRANCH  13  14
ENDBRANCH  11  13
ENDBRANCH   8   9
ENDBRANCH   1   8
TORSDOF 11
ENDMDL
MODEL 8
REMARK VINA RESULT:    -5.384     21.385     24.141
REMARK INTER + INTRA:          -9.319
REMARK INTER:                  -7.998
REMARK INTRA:                  -1.320
REMARK UNBOUND:                -0.630
REMARK SMILES CCCCCCCCC(=O)NCc1ccc(O)c(OC)c1
REMARK SMILES IDX 7 1 6 2 5 3 4 4 3 5 2 6 1 7 8 8 9 9 10 10 11 11 12 13 13 14
REMARK SMILES IDX 21 15 14 16 18 17 15 18 16 19 19 20 20 21 17 22
REMARK H PARENT 11 12 17 23
REMARK Flexibility Score: inf
ROOT
ATOM      1  C   UNL     1      71.210  89.554  69.158  1.00  0.00     0.010 C 
ENDROOT
BRANCH   1   2
ATOM      2  C   UNL     1      71.995  89.980  70.432  1.00  0.00     0.001 C 
BRANCH   2   3
ATOM      3  C   UNL     1      73.443  90.450  70.103  1.00  0.00     0.000 C 
BRANCH   3   4
ATOM      4  C   UNL     1      74.228  89.466  69.190  1.00  0.00    -0.000 C 
BRANCH   4   5
ATOM      5  C   UNL     1      75.666  89.965  68.868  1.00  0.00    -0.000 C 
BRANCH   5   6
ATOM      6  C   UNL     1      76.109  89.612  67.423  1.00  0.00    -0.003 C 
ATOM      7  C   UNL     1      77.426  88.805  67.379  1.00  0.00     0.004 C 
ENDBRANCH   5   6
ENDBRANCH   4   5
ENDBRANCH   3   4
ENDBRANCH   2   3
ENDBRANCH   1   2
BRANCH   1   8
ATOM      8  C   UNL     1      70.117  88.481  69.422  1.00  0.00     0.100 C 
BRANCH   8   9
ATOM      9  C   UNL     1      70.540  87.147  68.930  1.00  0.00     0.220 C 
ATOM     10  O   UNL     1      69.668  86.254  68.806  1.00  0.00    -0.275 OA
ATOM     11  N   UNL     1      71.843  86.913  68.596  1.00  0.00    -0.352 N 
ATOM     12  H   UNL     1      72.474  87.669  68.816  1.00  0.00     0.163 HD
BRANCH  11  13
ATOM     13  C   UNL     1      72.347  85.722  67.982  1.00  0.00     0.151 C 
BRANCH  13  14
ATOM     14  C   UNL     1      73.831  85.622  67.991  1.00  0.00    -0.025 A 
ATOM     15  C   UNL     1      74.548  85.547  66.773  1.00  0.00     0.056 A 
ATOM     16  C   UNL     1      74.549  85.596  69.209  1.00  0.00     0.009 A 
ATOM     17  C   UNL     1      75.960  85.469  66.767  1.00  0.00     0.160 A 
ATOM     18  C   UNL     1      75.954  85.520  69.209  1.00  0.00     0.050 A 
ATOM     19  C   UNL     1      76.661  85.449  67.993  1.00  0.00     0.157 A 
BRANCH  17  20
ATOM     20  O   UNL     1      76.650  85.354  65.586  1.00  0.00    -0.493 OA
ATOM     21  C   UNL     1      76.624  84.034  65.015  1.00  0.00     0.278 C 
ENDBRANCH  17  20
BRANCH  19  22
ATOM     22  O   UNL     1      78.015  85.347  68.005  1.00  0.00    -0.504 OA
ATOM     23  H   UNL     1      78.349  85.627  68.860  1.00  0.00     0.293 HD
ENDBRANCH  19  22
ENDBRANCH  13  14
ENDBRANCH  11  13
ENDBRANCH   8   9
ENDBRANCH   1   8
TORSDOF 11
ENDMDL
MODEL 9
REMARK VINA RESULT:    -5.340      2.706      3.667
REMARK INTER + INTRA:          -9.247
REMARK INTER:                  -7.962
REMARK INTRA:                  -1.285
REMARK UNBOUND:                -0.630
REMARK SMILES CCCCCCCCC(=O)NCc1ccc(O)c(OC)c1
REMARK SMILES IDX 7 1 6 2 5 3 4 4 3 5 2 6 1 7 8 8 9 9 10 10 11 11 12 13 13 14
REMARK SMILES IDX 21 15 14 16 18 17 15 18 16 19 19 20 20 21 17 22
REMARK H PARENT 11 12 17 23
REMARK Flexibility Score: inf
ROOT
ATOM      1  C   UNL     1      96.130  96.699  74.580  1.00  0.00     0.010 C 
ENDROOT
BRANCH   1   2
ATOM      2  C   UNL     1      94.641  96.599  74.138  1.00  0.00     0.001 C 
BRANCH   2   3
ATOM      3  C   UNL     1      93.860  95.518  74.942  1.00  0.00     0.000 C 
BRANCH   3   4
ATOM      4  C   UNL     1      92.782  96.104  75.897  1.00  0.00    -0.000 C 
BRANCH   4   5
ATOM      5  C   UNL     1      92.797  95.435  77.301  1.00  0.00    -0.000 C 
BRANCH   5   6
ATOM      6  C   UNL     1      92.998  93.898  77.227  1.00  0.00    -0.003 C 
ATOM      7  C   UNL     1      93.269  93.261  78.608  1.00  0.00     0.004 C 
ENDBRANCH   5   6
ENDBRANCH   4   5
ENDBRANCH   3   4
ENDBRANCH   2   3
ENDBRANCH   1   2
BRANCH   1   8
ATOM      8  C   UNL     1      96.326  97.317  75.993  1.00  0.00     0.100 C 
BRANCH   8   9
ATOM      9  C   UNL     1      97.004  96.368  76.908  1.00  0.00     0.220 C 
ATOM     10  O   UNL     1      98.221  96.544  77.154  1.00  0.00    -0.275 OA
ATOM     11  N   UNL     1      96.307  95.346  77.488  1.00  0.00    -0.352 N 
ATOM     12  H   UNL     1      95.359  95.245  77.155  1.00  0.00     0.163 HD
BRANCH  11  13
ATOM     13  C   UNL     1      96.808  94.456  78.490  1.00  0.00     0.151 C 
BRANCH  13  14
ATOM     14  C   UNL     1      96.851  95.048  79.854  1.00  0.00    -0.025 A 
ATOM     15  C   UNL     1      97.978  94.841  80.685  1.00  0.00     0.056 A 
ATOM     16  C   UNL     1      95.773  95.820  80.345  1.00  0.00     0.009 A 
ATOM     17  C   UNL     1      98.040  95.412  81.978  1.00  0.00     0.160 A 
ATOM     18  C   UNL     1      95.829  96.391  81.629  1.00  0.00     0.050 A 
ATOM     19  C   UNL     1      96.954  96.184  82.450  1.00  0.00     0.157 A 
BRANCH  17  20
ATOM     20  O   UNL     1      99.114  95.176  82.798  1.00  0.00    -0.493 OA
ATOM     21  C   UNL     1     100.255  96.008  82.528  1.00  0.00     0.278 C 
ENDBRANCH  17  20
BRANCH  19  22
ATOM     22  O   UNL     1      96.987  96.717  83.698  1.00  0.00    -0.504 OA
ATOM     23  H   UNL     1      97.073  96.012  84.344  1.00  0.00     0.293 HD
ENDBRANCH  19  22
ENDBRANCH  13  14
ENDBRANCH  11  13
ENDBRANCH   8   9
ENDBRANCH   1   8
TORSDOF 11
ENDMDL
