MODEL 1
REMARK VINA RESULT:    -7.274      0.000      0.000
REMARK INTER + INTRA:         -13.416
REMARK INTER:                 -12.803
REMARK INTRA:                  -0.613
REMARK UNBOUND:                -0.613
REMARK SMILES C=C(C)[C@]12C[C@@H](C)[C@@]34O[C@](Cc5ccccc5)(O[C@@H]1[C@@H]3C=C(COC(=O)Cc1ccc(O)c(OC)c1)C[C@]1(O)C(=O)C(C)=C[C@@H]41)O2
REMARK SMILES IDX 23 1 22 2 21 3 20 4 9 5 8 6 10 7 6 8 18 9 46 10 19 11 5 12
REMARK SMILES IDX 7 13 4 14 45 15 38 16 44 17 40 18 42 20 41 21 43 22 39 23
REMARK SMILES IDX 11 25 12 26 13 27 17 28 14 29 16 30 15 31 2 32 3 33 1 34
REMARK SMILES IDX 37 35 24 37 25 38 26 39 27 40 28 41 36 42 29 43 33 44 30 45
REMARK SMILES IDX 31 46 34 47 35 48 32 49
REMARK H PARENT 39 24 32 50
REMARK Flexibility Score: 90.00
ROOT
ATOM      1  C   UNL     1      93.344  86.006  89.023  1.00  0.00     0.264 C 
ENDROOT
BRANCH   1   2
ATOM      2  C   UNL     1      93.605  84.536  88.790  1.00  0.00    -0.033 C 
ATOM      3  C   UNL     1      93.156  83.958  87.657  1.00  0.00    -0.015 C 
BRANCH   3   4
ATOM      4  C   UNL     1      93.220  82.502  87.227  1.00  0.00     0.078 C 
ATOM      5  O   UNL     1      95.292  82.233  85.903  1.00  0.00    -0.319 OA
ATOM      6  C   UNL     1      94.631  81.809  87.135  1.00  0.00     0.095 C 
ATOM      7  C   UNL     1      94.451  82.274  84.734  1.00  0.00     0.289 C 
ATOM      8  C   UNL     1      94.395  80.243  87.091  1.00  0.00     0.023 C 
ATOM      9  O   UNL     1      93.333  83.134  84.933  1.00  0.00    -0.320 OA
ATOM     10  O   UNL     1      93.903  80.997  84.417  1.00  0.00    -0.313 OA
ATOM     11  C   UNL     1      92.556  82.334  85.838  1.00  0.00     0.170 C 
ATOM     12  C   UNL     1      93.070  79.885  86.349  1.00  0.00     0.049 C 
ATOM     13  C   UNL     1      95.550  79.418  86.501  1.00  0.00     0.011 C 
ATOM     14  C   UNL     1      92.737  80.907  85.262  1.00  0.00     0.122 C 
BRANCH   6  15
ATOM     15  C   UNL     1      95.568  82.313  88.271  1.00  0.00     0.086 C 
ATOM     16  C   UNL     1      94.931  82.439  89.671  1.00  0.00     0.140 CG0
ATOM     17  C   UNL     1      96.858  81.589  88.538  1.00  0.00    -0.010 C 
ATOM     18  C   UNL     1      96.082  82.077  90.586  1.00  0.00     0.190 C 
ATOM     19  G   UNL     1      94.393  83.845  89.935  1.00  0.00     0.000 G0
ATOM     20  C   UNL     1      97.189  81.464  89.827  1.00  0.00    -0.008 C 
ATOM     21  O   UNL     1      96.093  82.218  91.800  1.00  0.00    -0.291 OA
ATOM     22  C   UNL     1      98.403  80.895  90.447  1.00  0.00     0.048 C 
BRANCH  16  23
ATOM     23  O   UNL     1      93.954  81.450  89.949  1.00  0.00    -0.381 OA
ATOM     24  H   UNL     1      94.007  81.222  90.891  1.00  0.00     0.212 HD
ENDBRANCH  16  23
ENDBRANCH   6  15
BRANCH   7  25
ATOM     25  C   UNL     1      95.281  82.772  83.568  1.00  0.00     0.135 C 
BRANCH  25  26
ATOM     26  C   UNL     1      96.459  81.873  83.287  1.00  0.00    -0.040 A 
ATOM     27  C   UNL     1      97.695  82.138  83.878  1.00  0.00     0.004 A 
ATOM     28  C   UNL     1      96.313  80.776  82.439  1.00  0.00     0.004 A 
ATOM     29  C   UNL     1      98.785  81.307  83.618  1.00  0.00     0.000 A 
ATOM     30  C   UNL     1      97.402  79.944  82.179  1.00  0.00     0.000 A 
ATOM     31  C   UNL     1      98.638  80.210  82.769  1.00  0.00     0.000 A 
ENDBRANCH  25  26
ENDBRANCH   7  25
BRANCH  14  32
ATOM     32  C   UNL     1      91.576  80.491  84.419  1.00  0.00    -0.046 C 
ATOM     33  C   UNL     1      90.670  81.590  83.950  1.00  0.00     0.042 C 
ATOM     34  C   UNL     1      91.356  79.207  84.099  1.00  0.00     0.010 C 
ENDBRANCH  14  32
ENDBRANCH   3   4
BRANCH   2  35
ATOM     35  C   UNL     1      94.383  83.884  89.917  1.00  0.00     0.078 CG0
ATOM     36  G   UNL     1      94.902  82.467  89.680  1.00  0.00     0.000 G0
ENDBRANCH   2  35
ENDBRANCH   1   2
BRANCH   1  37
ATOM     37  O   UNL     1      93.705  86.340  90.345  1.00  0.00    -0.461 OA
BRANCH  37  38
ATOM     38  C   UNL     1      92.886  87.238  90.991  1.00  0.00     0.310 C 
ATOM     39  O   UNL     1      92.797  87.359  92.205  1.00  0.00    -0.252 OA
BRANCH  38  40
ATOM     40  C   UNL     1      92.119  88.045  89.971  1.00  0.00     0.158 C 
BRANCH  40  41
ATOM     41  C   UNL     1      92.830  89.311  89.567  1.00  0.00    -0.033 A 
ATOM     42  C   UNL     1      92.679  90.470  90.330  1.00  0.00     0.054 A 
ATOM     43  C   UNL     1      93.640  89.324  88.432  1.00  0.00     0.008 A 
ATOM     44  C   UNL     1      93.338  91.641  89.956  1.00  0.00     0.160 A 
ATOM     45  C   UNL     1      94.299  90.496  88.058  1.00  0.00     0.050 A 
ATOM     46  C   UNL     1      94.147  91.654  88.820  1.00  0.00     0.157 A 
BRANCH  44  47
ATOM     47  O   UNL     1      93.182  92.766  90.709  1.00  0.00    -0.493 OA
ATOM     48  C   UNL     1      91.899  93.389  90.685  1.00  0.00     0.278 C 
ENDBRANCH  44  47
BRANCH  46  49
ATOM     49  O   UNL     1      94.796  92.792  88.446  1.00  0.00    -0.504 OA
ATOM     50  H   UNL     1      95.325  93.115  89.194  1.00  0.00     0.293 HD
ENDBRANCH  46  49
ENDBRANCH  40  41
ENDBRANCH  38  40
ENDBRANCH  37  38
ENDBRANCH   1  37
TORSDOF 11
ENDMDL
MODEL 2
REMARK VINA RESULT:    -7.036     26.383     30.817
REMARK INTER + INTRA:         -12.997
REMARK INTER:                 -11.823
REMARK INTRA:                  -1.175
REMARK UNBOUND:                -0.613
REMARK SMILES C=C(C)[C@]12C[C@@H](C)[C@@]34O[C@](Cc5ccccc5)(O[C@@H]1[C@@H]3C=C(COC(=O)Cc1ccc(O)c(OC)c1)C[C@]1(O)C(=O)C(C)=C[C@@H]41)O2
REMARK SMILES IDX 23 1 22 2 21 3 20 4 9 5 8 6 10 7 6 8 18 9 46 10 19 11 5 12
REMARK SMILES IDX 7 13 4 14 45 15 38 16 44 17 40 18 42 20 41 21 43 22 39 23
REMARK SMILES IDX 11 25 12 26 13 27 17 28 14 29 16 30 15 31 2 32 3 33 1 34
REMARK SMILES IDX 37 35 24 37 25 38 26 39 27 40 28 41 36 42 29 43 33 44 30 45
REMARK SMILES IDX 31 46 34 47 35 48 32 49
REMARK H PARENT 39 24 32 50
REMARK Flexibility Score: 90.00
ROOT
ATOM      1  C   UNL     1      70.349  88.410  69.629  1.00  0.00     0.264 C 
ENDROOT
BRANCH   1   2
ATOM      2  C   UNL     1      71.798  88.694  69.308  1.00  0.00    -0.033 C 
ATOM      3  C   UNL     1      72.614  87.671  68.984  1.00  0.00    -0.015 C 
BRANCH   3   4
ATOM      4  C   UNL     1      74.107  87.680  68.699  1.00  0.00     0.078 C 
ATOM      5  O   UNL     1      74.372  87.979  66.258  1.00  0.00    -0.319 OA
ATOM      6  C   UNL     1      74.643  88.610  67.548  1.00  0.00     0.095 C 
ATOM      7  C   UNL     1      74.630  86.563  66.198  1.00  0.00     0.289 C 
ATOM      8  C   UNL     1      76.209  88.757  67.739  1.00  0.00     0.023 C 
ATOM      9  O   UNL     1      73.878  85.858  67.181  1.00  0.00    -0.320 OA
ATOM     10  O   UNL     1      75.996  86.251  66.460  1.00  0.00    -0.313 OA
ATOM     11  C   UNL     1      74.588  86.246  68.368  1.00  0.00     0.170 C 
ATOM     12  C   UNL     1      76.837  87.457  68.331  1.00  0.00     0.049 C 
ATOM     13  C   UNL     1      76.992  89.176  66.484  1.00  0.00     0.011 C 
ATOM     14  C   UNL     1      76.065  86.209  67.900  1.00  0.00     0.122 C 
BRANCH   6  15
ATOM     15  C   UNL     1      73.847  89.946  67.501  1.00  0.00     0.086 C 
ATOM     16  C   UNL     1      73.533  90.598  68.864  1.00  0.00     0.140 CG0
ATOM     17  C   UNL     1      74.374  91.089  66.680  1.00  0.00    -0.010 C 
ATOM     18  C   UNL     1      73.602  92.076  68.542  1.00  0.00     0.190 C 
ATOM     19  G   UNL     1      72.166  90.179  69.403  1.00  0.00     0.000 G0
ATOM     20  C   UNL     1      74.226  92.302  67.225  1.00  0.00    -0.008 C 
ATOM     21  O   UNL     1      73.241  92.979  69.282  1.00  0.00    -0.291 OA
ATOM     22  C   UNL     1      74.545  93.636  66.677  1.00  0.00     0.048 C 
BRANCH  16  23
ATOM     23  O   UNL     1      74.550  90.416  69.835  1.00  0.00    -0.381 OA
ATOM     24  H   UNL     1      75.154  89.723  69.521  1.00  0.00     0.212 HD
ENDBRANCH  16  23
ENDBRANCH   6  15
BRANCH   7  25
ATOM     25  C   UNL     1      74.255  86.070  64.815  1.00  0.00     0.135 C 
BRANCH  25  26
ATOM     26  C   UNL     1      73.501  84.765  64.866  1.00  0.00    -0.040 A 
ATOM     27  C   UNL     1      72.111  84.757  64.743  1.00  0.00     0.004 A 
ATOM     28  C   UNL     1      74.192  83.565  65.034  1.00  0.00     0.004 A 
ATOM     29  C   UNL     1      71.413  83.550  64.790  1.00  0.00     0.000 A 
ATOM     30  C   UNL     1      73.494  82.358  65.082  1.00  0.00     0.000 A 
ATOM     31  C   UNL     1      72.105  82.351  64.959  1.00  0.00     0.000 A 
ENDBRANCH  25  26
ENDBRANCH   7  25
BRANCH  14  32
ATOM     32  C   UNL     1      76.749  84.943  68.302  1.00  0.00    -0.046 C 
ATOM     33  C   UNL     1      76.472  84.453  69.692  1.00  0.00     0.042 C 
ATOM     34  C   UNL     1      77.565  84.282  67.467  1.00  0.00     0.010 C 
ENDBRANCH  14  32
ENDBRANCH   3   4
BRANCH   2  35
ATOM     35  C   UNL     1      72.149  90.167  69.393  1.00  0.00     0.078 CG0
ATOM     36  G   UNL     1      73.507  90.595  68.840  1.00  0.00     0.000 G0
ENDBRANCH   2  35
ENDBRANCH   1   2
BRANCH   1  37
ATOM     37  O   UNL     1      70.222  87.078  70.076  1.00  0.00    -0.461 OA
BRANCH  37  38
ATOM     38  C   UNL     1      69.027  86.455  69.800  1.00  0.00     0.310 C 
ATOM     39  O   UNL     1      67.955  86.728  70.324  1.00  0.00    -0.252 OA
BRANCH  38  40
ATOM     40  C   UNL     1      69.244  85.386  68.755  1.00  0.00     0.158 C 
BRANCH  40  41
ATOM     41  C   UNL     1      67.987  84.626  68.421  1.00  0.00    -0.033 A 
ATOM     42  C   UNL     1      67.257  84.954  67.278  1.00  0.00     0.054 A 
ATOM     43  C   UNL     1      67.553  83.595  69.253  1.00  0.00     0.008 A 
ATOM     44  C   UNL     1      66.093  84.250  66.968  1.00  0.00     0.160 A 
ATOM     45  C   UNL     1      66.389  82.891  68.944  1.00  0.00     0.050 A 
ATOM     46  C   UNL     1      65.658  83.219  67.802  1.00  0.00     0.157 A 
BRANCH  44  47
ATOM     47  O   UNL     1      65.388  84.579  65.850  1.00  0.00    -0.493 OA
ATOM     48  C   UNL     1      64.453  85.650  65.965  1.00  0.00     0.278 C 
ENDBRANCH  44  47
BRANCH  46  49
ATOM     49  O   UNL     1      64.524  82.524  67.509  1.00  0.00    -0.504 OA
ATOM     50  H   UNL     1      64.768  81.686  67.081  1.00  0.00     0.293 HD
ENDBRANCH  46  49
ENDBRANCH  40  41
ENDBRANCH  38  40
ENDBRANCH  37  38
ENDBRANCH   1  37
TORSDOF 11
ENDMDL
MODEL 3
REMARK VINA RESULT:    -6.853     26.256     29.979
REMARK INTER + INTRA:         -12.674
REMARK INTER:                 -11.948
REMARK INTRA:                  -0.726
REMARK UNBOUND:                -0.613
REMARK SMILES C=C(C)[C@]12C[C@@H](C)[C@@]34O[C@](Cc5ccccc5)(O[C@@H]1[C@@H]3C=C(COC(=O)Cc1ccc(O)c(OC)c1)C[C@]1(O)C(=O)C(C)=C[C@@H]41)O2
REMARK SMILES IDX 23 1 22 2 21 3 20 4 9 5 8 6 10 7 6 8 18 9 46 10 19 11 5 12
REMARK SMILES IDX 7 13 4 14 45 15 38 16 44 17 40 18 42 20 41 21 43 22 39 23
REMARK SMILES IDX 11 25 12 26 13 27 17 28 14 29 16 30 15 31 2 32 3 33 1 34
REMARK SMILES IDX 37 35 24 37 25 38 26 39 27 40 28 41 36 42 29 43 33 44 30 45
REMARK SMILES IDX 31 46 34 47 35 48 32 49
REMARK H PARENT 39 24 32 50
REMARK Flexibility Score: 90.00
ROOT
ATOM      1  C   UNL     1      70.184  88.152  69.571  1.00  0.00     0.264 C 
ENDROOT
BRANCH   1   2
ATOM      2  C   UNL     1      71.641  88.449  69.305  1.00  0.00    -0.033 C 
ATOM      3  C   UNL     1      72.483  87.431  69.035  1.00  0.00    -0.015 C 
BRANCH   3   4
ATOM      4  C   UNL     1      73.986  87.455  68.811  1.00  0.00     0.078 C 
ATOM      5  O   UNL     1      74.348  87.706  66.376  1.00  0.00    -0.319 OA
ATOM      6  C   UNL     1      74.557  88.368  67.662  1.00  0.00     0.095 C 
ATOM      7  C   UNL     1      74.628  86.293  66.358  1.00  0.00     0.289 C 
ATOM      8  C   UNL     1      76.112  88.541  67.915  1.00  0.00     0.023 C 
ATOM      9  O   UNL     1      73.845  85.598  67.325  1.00  0.00    -0.320 OA
ATOM     10  O   UNL     1      75.985  86.006  66.683  1.00  0.00    -0.313 OA
ATOM     11  C   UNL     1      74.500  86.021  68.531  1.00  0.00     0.170 C 
ATOM     12  C   UNL     1      76.732  87.263  68.560  1.00  0.00     0.049 C 
ATOM     13  C   UNL     1      76.940  88.945  66.684  1.00  0.00     0.011 C 
ATOM     14  C   UNL     1      75.995  85.995  68.125  1.00  0.00     0.122 C 
BRANCH   6  15
ATOM     15  C   UNL     1      73.746  89.691  67.554  1.00  0.00     0.086 C 
ATOM     16  C   UNL     1      73.364  90.365  68.888  1.00  0.00     0.140 CG0
ATOM     17  C   UNL     1      74.294  90.826  66.734  1.00  0.00    -0.010 C 
ATOM     18  C   UNL     1      73.427  91.837  68.540  1.00  0.00     0.190 C 
ATOM     19  G   UNL     1      71.980  89.938  69.375  1.00  0.00     0.000 G0
ATOM     20  C   UNL     1      74.106  92.046  67.247  1.00  0.00    -0.008 C 
ATOM     21  O   UNL     1      73.022  92.750  69.244  1.00  0.00    -0.291 OA
ATOM     22  C   UNL     1      74.430  93.374  66.687  1.00  0.00     0.048 C 
BRANCH  16  23
ATOM     23  O   UNL     1      74.340  90.217  69.906  1.00  0.00    -0.381 OA
ATOM     24  H   UNL     1      75.029  89.613  69.585  1.00  0.00     0.212 HD
ENDBRANCH  16  23
ENDBRANCH   6  15
BRANCH   7  25
ATOM     25  C   UNL     1      74.316  85.765  64.972  1.00  0.00     0.135 C 
BRANCH  25  26
ATOM     26  C   UNL     1      73.339  84.617  65.011  1.00  0.00    -0.040 A 
ATOM     27  C   UNL     1      73.797  83.306  64.875  1.00  0.00     0.004 A 
ATOM     28  C   UNL     1      71.977  84.865  65.184  1.00  0.00     0.004 A 
ATOM     29  C   UNL     1      72.892  82.244  64.912  1.00  0.00     0.000 A 
ATOM     30  C   UNL     1      71.073  83.803  65.220  1.00  0.00     0.000 A 
ATOM     31  C   UNL     1      71.532  82.493  65.083  1.00  0.00     0.000 A 
ENDBRANCH  25  26
ENDBRANCH   7  25
BRANCH  14  32
ATOM     32  C   UNL     1      76.679  84.748  68.582  1.00  0.00    -0.046 C 
ATOM     33  C   UNL     1      77.549  84.062  67.572  1.00  0.00     0.042 C 
ATOM     34  C   UNL     1      76.524  84.269  69.826  1.00  0.00     0.010 C 
ENDBRANCH  14  32
ENDBRANCH   3   4
BRANCH   2  35
ATOM     35  C   UNL     1      71.969  89.928  69.375  1.00  0.00     0.078 CG0
ATOM     36  G   UNL     1      73.352  90.361  68.890  1.00  0.00     0.000 G0
ENDBRANCH   2  35
ENDBRANCH   1   2
BRANCH   1  37
ATOM     37  O   UNL     1      69.963  86.762  69.460  1.00  0.00    -0.461 OA
BRANCH  37  38
ATOM     38  C   UNL     1      69.022  86.226  70.309  1.00  0.00     0.310 C 
ATOM     39  O   UNL     1      68.880  85.033  70.536  1.00  0.00    -0.252 OA
BRANCH  38  40
ATOM     40  C   UNL     1      68.197  87.337  70.913  1.00  0.00     0.158 C 
BRANCH  40  41
ATOM     41  C   UNL     1      67.169  86.838  71.896  1.00  0.00    -0.033 A 
ATOM     42  C   UNL     1      67.392  86.973  73.267  1.00  0.00     0.054 A 
ATOM     43  C   UNL     1      65.995  86.243  71.436  1.00  0.00     0.008 A 
ATOM     44  C   UNL     1      66.441  86.511  74.177  1.00  0.00     0.160 A 
ATOM     45  C   UNL     1      65.044  85.781  72.345  1.00  0.00     0.050 A 
ATOM     46  C   UNL     1      65.266  85.915  73.715  1.00  0.00     0.157 A 
BRANCH  44  47
ATOM     47  O   UNL     1      66.669  86.648  75.512  1.00  0.00    -0.493 OA
ATOM     48  C   UNL     1      67.942  86.224  75.999  1.00  0.00     0.278 C 
ENDBRANCH  44  47
BRANCH  46  49
ATOM     49  O   UNL     1      64.330  85.461  74.594  1.00  0.00    -0.504 OA
ATOM     50  H   UNL     1      63.840  84.728  74.185  1.00  0.00     0.293 HD
ENDBRANCH  46  49
ENDBRANCH  40  41
ENDBRANCH  38  40
ENDBRANCH  37  38
ENDBRANCH   1  37
TORSDOF 11
ENDMDL
MODEL 4
REMARK VINA RESULT:    -6.540     10.956     15.586
REMARK INTER + INTRA:         -12.123
REMARK INTER:                  -9.996
REMARK INTRA:                  -2.127
REMARK UNBOUND:                -0.613
REMARK SMILES C=C(C)[C@]12C[C@@H](C)[C@@]34O[C@](Cc5ccccc5)(O[C@@H]1[C@@H]3C=C(COC(=O)Cc1ccc(O)c(OC)c1)C[C@]1(O)C(=O)C(C)=C[C@@H]41)O2
REMARK SMILES IDX 23 1 22 2 21 3 20 4 9 5 8 6 10 7 6 8 18 9 46 10 19 11 5 12
REMARK SMILES IDX 7 13 4 14 45 15 38 16 44 17 40 18 42 20 41 21 43 22 39 23
REMARK SMILES IDX 11 25 12 26 13 27 17 28 14 29 16 30 15 31 2 32 3 33 1 34
REMARK SMILES IDX 37 35 24 37 25 38 26 39 27 40 28 41 36 42 29 43 33 44 30 45
REMARK SMILES IDX 31 46 34 47 35 48 32 49
REMARK H PARENT 39 24 32 50
REMARK Flexibility Score: 90.00
ROOT
ATOM      1  C   UNL     1     101.583  80.574  78.357  1.00  0.00     0.264 C 
ENDROOT
BRANCH   1   2
ATOM      2  C   UNL     1     102.369  80.837  77.094  1.00  0.00    -0.033 C 
ATOM      3  C   UNL     1     101.834  81.621  76.136  1.00  0.00    -0.015 C 
BRANCH   3   4
ATOM      4  C   UNL     1     102.379  81.973  74.762  1.00  0.00     0.078 C 
ATOM      5  O   UNL     1     103.646  84.083  75.008  1.00  0.00    -0.319 OA
ATOM      6  C   UNL     1     103.788  82.668  74.670  1.00  0.00     0.095 C 
ATOM      7  C   UNL     1     102.499  84.740  74.438  1.00  0.00     0.289 C 
ATOM      8  C   UNL     1     104.293  82.535  73.174  1.00  0.00     0.023 C 
ATOM      9  O   UNL     1     101.288  84.090  74.818  1.00  0.00    -0.320 OA
ATOM     10  O   UNL     1     102.516  84.720  73.013  1.00  0.00    -0.313 OA
ATOM     11  C   UNL     1     101.382  82.899  74.022  1.00  0.00     0.170 C 
ATOM     12  C   UNL     1     103.105  82.576  72.165  1.00  0.00     0.049 C 
ATOM     13  C   UNL     1     105.364  83.551  72.746  1.00  0.00     0.011 C 
ATOM     14  C   UNL     1     101.950  83.434  72.684  1.00  0.00     0.122 C 
BRANCH   6  15
ATOM     15  C   UNL     1     104.752  82.105  75.754  1.00  0.00     0.086 C 
ATOM     16  C   UNL     1     104.714  80.578  75.971  1.00  0.00     0.140 CG0
ATOM     17  C   UNL     1     106.221  82.409  75.662  1.00  0.00    -0.010 C 
ATOM     18  C   UNL     1     106.155  80.261  76.310  1.00  0.00     0.190 C 
ATOM     19  G   UNL     1     103.749  80.178  77.086  1.00  0.00     0.000 G0
ATOM     20  C   UNL     1     107.036  81.402  75.995  1.00  0.00    -0.008 C 
ATOM     21  O   UNL     1     106.563  79.192  76.738  1.00  0.00    -0.291 OA
ATOM     22  C   UNL     1     108.509  81.364  76.099  1.00  0.00     0.048 C 
BRANCH  16  23
ATOM     23  O   UNL     1     104.473  79.836  74.787  1.00  0.00    -0.381 OA
ATOM     24  H   UNL     1     104.022  80.413  74.149  1.00  0.00     0.212 HD
ENDBRANCH  16  23
ENDBRANCH   6  15
BRANCH   7  25
ATOM     25  C   UNL     1     102.483  86.176  74.923  1.00  0.00     0.135 C 
BRANCH  25  26
ATOM     26  C   UNL     1     103.762  86.901  74.584  1.00  0.00    -0.040 A 
ATOM     27  C   UNL     1     104.695  87.172  75.584  1.00  0.00     0.004 A 
ATOM     28  C   UNL     1     104.011  87.299  73.271  1.00  0.00     0.004 A 
ATOM     29  C   UNL     1     105.878  87.843  75.271  1.00  0.00     0.000 A 
ATOM     30  C   UNL     1     105.194  87.969  72.958  1.00  0.00     0.000 A 
ATOM     31  C   UNL     1     106.127  88.241  73.958  1.00  0.00     0.000 A 
ENDBRANCH  25  26
ENDBRANCH   7  25
BRANCH  14  32
ATOM     32  C   UNL     1     100.881  83.638  71.661  1.00  0.00    -0.046 C 
ATOM     33  C   UNL     1     100.330  85.028  71.546  1.00  0.00     0.042 C 
ATOM     34  C   UNL     1     100.438  82.634  70.888  1.00  0.00     0.010 C 
ENDBRANCH  14  32
ENDBRANCH   3   4
BRANCH   2  35
ATOM     35  C   UNL     1     103.723  80.155  77.083  1.00  0.00     0.078 CG0
ATOM     36  G   UNL     1     104.711  80.580  75.997  1.00  0.00     0.000 G0
ENDBRANCH   2  35
ENDBRANCH   1   2
BRANCH   1  37
ATOM     37  O   UNL     1     100.755  81.683  78.632  1.00  0.00    -0.461 OA
BRANCH  37  38
ATOM     38  C   UNL     1      99.568  81.412  79.272  1.00  0.00     0.310 C 
ATOM     39  O   UNL     1      99.389  81.483  80.481  1.00  0.00    -0.252 OA
BRANCH  38  40
ATOM     40  C   UNL     1      98.525  81.015  78.254  1.00  0.00     0.158 C 
BRANCH  40  41
ATOM     41  C   UNL     1      97.886  82.199  77.575  1.00  0.00    -0.033 A 
ATOM     42  C   UNL     1      98.210  82.502  76.252  1.00  0.00     0.054 A 
ATOM     43  C   UNL     1      96.970  82.990  78.268  1.00  0.00     0.008 A 
ATOM     44  C   UNL     1      97.619  83.598  75.623  1.00  0.00     0.160 A 
ATOM     45  C   UNL     1      96.379  84.086  77.639  1.00  0.00     0.050 A 
ATOM     46  C   UNL     1      96.703  84.390  76.317  1.00  0.00     0.157 A 
BRANCH  44  47
ATOM     47  O   UNL     1      97.944  83.885  74.332  1.00  0.00    -0.493 OA
ATOM     48  C   UNL     1      97.761  82.846  73.371  1.00  0.00     0.278 C 
ENDBRANCH  44  47
BRANCH  46  49
ATOM     49  O   UNL     1      96.119  85.462  75.713  1.00  0.00    -0.504 OA
ATOM     50  H   UNL     1      96.585  86.271  75.982  1.00  0.00     0.293 HD
ENDBRANCH  46  49
ENDBRANCH  40  41
ENDBRANCH  38  40
ENDBRANCH  37  38
ENDBRANCH   1  37
TORSDOF 11
ENDMDL
MODEL 5
REMARK VINA RESULT:    -6.333      1.453      2.170
REMARK INTER + INTRA:         -11.760
REMARK INTER:                 -10.940
REMARK INTRA:                  -0.820
REMARK UNBOUND:                -0.613
REMARK SMILES C=C(C)[C@]12C[C@@H](C)[C@@]34O[C@](Cc5ccccc5)(O[C@@H]1[C@@H]3C=C(COC(=O)Cc1ccc(O)c(OC)c1)C[C@]1(O)C(=O)C(C)=C[C@@H]41)O2
REMARK SMILES IDX 23 1 22 2 21 3 20 4 9 5 8 6 10 7 6 8 18 9 46 10 19 11 5 12
REMARK SMILES IDX 7 13 4 14 45 15 38 16 44 17 40 18 42 20 41 21 43 22 39 23
REMARK SMILES IDX 11 25 12 26 13 27 17 28 14 29 16 30 15 31 2 32 3 33 1 34
REMARK SMILES IDX 37 35 24 37 25 38 26 39 27 40 28 41 36 42 29 43 33 44 30 45
REMARK SMILES IDX 31 46 34 47 35 48 32 49
REMARK H PARENT 39 24 32 50
REMARK Flexibility Score: 90.00
ROOT
ATOM      1  C   UNL     1      94.480  84.946  90.261  1.00  0.00     0.264 C 
ENDROOT
BRANCH   1   2
ATOM      2  C   UNL     1      94.383  83.562  89.664  1.00  0.00    -0.033 C 
ATOM      3  C   UNL     1      93.842  83.409  88.439  1.00  0.00    -0.015 C 
BRANCH   3   4
ATOM      4  C   UNL     1      93.563  82.134  87.660  1.00  0.00     0.078 C 
ATOM      5  O   UNL     1      95.538  81.717  86.230  1.00  0.00    -0.319 OA
ATOM      6  C   UNL     1      94.767  81.170  87.345  1.00  0.00     0.095 C 
ATOM      7  C   UNL     1      94.758  82.247  85.142  1.00  0.00     0.289 C 
ATOM      8  C   UNL     1      94.162  79.767  86.925  1.00  0.00     0.023 C 
ATOM      9  O   UNL     1      93.875  83.272  85.590  1.00  0.00    -0.320 OA
ATOM     10  O   UNL     1      93.925  81.258  84.541  1.00  0.00    -0.313 OA
ATOM     11  C   UNL     1      92.909  82.481  86.299  1.00  0.00     0.170 C 
ATOM     12  C   UNL     1      92.807  79.932  86.170  1.00  0.00     0.049 C 
ATOM     13  C   UNL     1      95.097  78.864  86.105  1.00  0.00     0.011 C 
ATOM     14  C   UNL     1      92.754  81.242  85.383  1.00  0.00     0.122 C 
BRANCH   6  15
ATOM     15  C   UNL     1      95.772  81.137  88.532  1.00  0.00     0.086 C 
ATOM     16  C   UNL     1      95.154  81.057  89.944  1.00  0.00     0.140 CG0
ATOM     17  C   UNL     1      96.845  80.084  88.560  1.00  0.00    -0.010 C 
ATOM     18  C   UNL     1      96.164  80.215  90.695  1.00  0.00     0.190 C 
ATOM     19  G   UNL     1      94.963  82.438  90.569  1.00  0.00     0.000 G0
ATOM     20  C   UNL     1      97.108  79.566  89.765  1.00  0.00    -0.008 C 
ATOM     21  O   UNL     1      96.182  80.041  91.904  1.00  0.00    -0.291 OA
ATOM     22  C   UNL     1      98.136  78.589  90.176  1.00  0.00     0.048 C 
BRANCH  16  23
ATOM     23  O   UNL     1      93.962  80.291  90.006  1.00  0.00    -0.381 OA
ATOM     24  H   UNL     1      93.208  80.883  89.850  1.00  0.00     0.212 HD
ENDBRANCH  16  23
ENDBRANCH   6  15
BRANCH   7  25
ATOM     25  C   UNL     1      95.708  82.807  84.104  1.00  0.00     0.135 C 
BRANCH  25  26
ATOM     26  C   UNL     1      96.506  81.722  83.424  1.00  0.00    -0.040 A 
ATOM     27  C   UNL     1      97.435  80.979  84.153  1.00  0.00     0.004 A 
ATOM     28  C   UNL     1      96.314  81.461  82.067  1.00  0.00     0.004 A 
ATOM     29  C   UNL     1      98.173  79.976  83.524  1.00  0.00     0.000 A 
ATOM     30  C   UNL     1      97.052  80.457  81.439  1.00  0.00     0.000 A 
ATOM     31  C   UNL     1      97.982  79.715  82.168  1.00  0.00     0.000 A 
ENDBRANCH  25  26
ENDBRANCH   7  25
BRANCH  14  32
ATOM     32  C   UNL     1      91.546  81.338  84.509  1.00  0.00    -0.046 C 
ATOM     33  C   UNL     1      91.249  80.141  83.655  1.00  0.00     0.042 C 
ATOM     34  C   UNL     1      90.770  82.432  84.489  1.00  0.00     0.010 C 
ENDBRANCH  14  32
ENDBRANCH   3   4
BRANCH   2  35
ATOM     35  C   UNL     1      94.945  82.483  90.570  1.00  0.00     0.078 CG0
ATOM     36  G   UNL     1      95.147  81.095  89.962  1.00  0.00     0.000 G0
ENDBRANCH   2  35
ENDBRANCH   1   2
BRANCH   1  37
ATOM     37  O   UNL     1      94.532  84.845  91.668  1.00  0.00    -0.461 OA
BRANCH  37  38
ATOM     38  C   UNL     1      93.572  85.544  92.364  1.00  0.00     0.310 C 
ATOM     39  O   UNL     1      92.447  85.134  92.613  1.00  0.00    -0.252 OA
BRANCH  38  40
ATOM     40  C   UNL     1      94.124  86.891  92.769  1.00  0.00     0.158 C 
BRANCH  40  41
ATOM     41  C   UNL     1      93.508  88.033  92.004  1.00  0.00    -0.033 A 
ATOM     42  C   UNL     1      93.674  88.115  90.620  1.00  0.00     0.054 A 
ATOM     43  C   UNL     1      92.772  89.008  92.677  1.00  0.00     0.008 A 
ATOM     44  C   UNL     1      93.104  89.173  89.911  1.00  0.00     0.160 A 
ATOM     45  C   UNL     1      92.202  90.065  91.967  1.00  0.00     0.050 A 
ATOM     46  C   UNL     1      92.368  90.148  90.585  1.00  0.00     0.157 A 
BRANCH  44  47
ATOM     47  O   UNL     1      93.273  89.242  88.562  1.00  0.00    -0.493 OA
ATOM     48  C   UNL     1      94.544  88.848  88.046  1.00  0.00     0.278 C 
ENDBRANCH  44  47
BRANCH  46  49
ATOM     49  O   UNL     1      91.806  91.185  89.904  1.00  0.00    -0.504 OA
ATOM     50  H   UNL     1      91.652  90.912  88.983  1.00  0.00     0.293 HD
ENDBRANCH  46  49
ENDBRANCH  40  41
ENDBRANCH  38  40
ENDBRANCH  37  38
ENDBRANCH   1  37
TORSDOF 11
ENDMDL
MODEL 6
REMARK VINA RESULT:    -5.628     29.685     32.768
REMARK INTER + INTRA:         -10.519
REMARK INTER:                  -8.685
REMARK INTRA:                  -1.834
REMARK UNBOUND:                -0.613
REMARK SMILES C=C(C)[C@]12C[C@@H](C)[C@@]34O[C@](Cc5ccccc5)(O[C@@H]1[C@@H]3C=C(COC(=O)Cc1ccc(O)c(OC)c1)C[C@]1(O)C(=O)C(C)=C[C@@H]41)O2
REMARK SMILES IDX 23 1 22 2 21 3 20 4 9 5 8 6 10 7 6 8 18 9 46 10 19 11 5 12
REMARK SMILES IDX 7 13 4 14 45 15 38 16 44 17 40 18 42 20 41 21 43 22 39 23
REMARK SMILES IDX 11 25 12 26 13 27 17 28 14 29 16 30 15 31 2 32 3 33 1 34
REMARK SMILES IDX 37 35 24 37 25 38 26 39 27 40 28 41 36 42 29 43 33 44 30 45
REMARK SMILES IDX 31 46 34 47 35 48 32 49
REMARK H PARENT 39 24 32 50
REMARK Flexibility Score: 90.00
ROOT
ATOM      1  C   UNL     1      69.811  90.496  70.557  1.00  0.00     0.264 C 
ENDROOT
BRANCH   1   2
ATOM      2  C   UNL     1      68.579  89.746  71.007  1.00  0.00    -0.033 C 
ATOM      3  C   UNL     1      67.755  89.215  70.081  1.00  0.00    -0.015 C 
BRANCH   3   4
ATOM      4  C   UNL     1      66.431  88.492  70.268  1.00  0.00     0.078 C 
ATOM      5  O   UNL     1      66.942  86.075  70.394  1.00  0.00    -0.319 OA
ATOM      6  C   UNL     1      66.406  87.196  71.162  1.00  0.00     0.095 C 
ATOM      7  C   UNL     1      66.497  85.996  69.026  1.00  0.00     0.289 C 
ATOM      8  C   UNL     1      64.894  86.900  71.534  1.00  0.00     0.023 C 
ATOM      9  O   UNL     1      66.811  87.188  68.311  1.00  0.00    -0.320 OA
ATOM     10  O   UNL     1      65.084  85.846  68.924  1.00  0.00    -0.313 OA
ATOM     11  C   UNL     1      65.853  88.088  68.889  1.00  0.00     0.170 C 
ATOM     12  C   UNL     1      63.929  87.326  70.386  1.00  0.00     0.049 C 
ATOM     13  C   UNL     1      64.588  85.452  71.949  1.00  0.00     0.011 C 
ATOM     14  C   UNL     1      64.591  87.198  69.013  1.00  0.00     0.122 C 
BRANCH   6  15
ATOM     15  C   UNL     1      67.376  87.339  72.369  1.00  0.00     0.086 C 
ATOM     16  C   UNL     1      67.368  88.703  73.090  1.00  0.00     0.140 CG0
ATOM     17  C   UNL     1      67.301  86.348  73.496  1.00  0.00    -0.010 C 
ATOM     18  C   UNL     1      67.628  88.312  74.530  1.00  0.00     0.190 C 
ATOM     19  G   UNL     1      68.431  89.653  72.541  1.00  0.00     0.000 G0
ATOM     20  C   UNL     1      67.466  86.859  74.721  1.00  0.00    -0.008 C 
ATOM     21  O   UNL     1      67.888  89.087  75.438  1.00  0.00    -0.291 OA
ATOM     22  C   UNL     1      67.536  86.183  76.033  1.00  0.00     0.048 C 
BRANCH  16  23
ATOM     23  O   UNL     1      66.093  89.322  73.133  1.00  0.00    -0.381 OA
ATOM     24  H   UNL     1      65.463  88.760  72.653  1.00  0.00     0.212 HD
ENDBRANCH  16  23
ENDBRANCH   6  15
BRANCH   7  25
ATOM     25  C   UNL     1      67.180  84.811  68.372  1.00  0.00     0.135 C 
BRANCH  25  26
ATOM     26  C   UNL     1      66.259  83.623  68.252  1.00  0.00    -0.040 A 
ATOM     27  C   UNL     1      66.111  82.744  69.326  1.00  0.00     0.004 A 
ATOM     28  C   UNL     1      65.553  83.403  67.069  1.00  0.00     0.004 A 
ATOM     29  C   UNL     1      65.259  81.645  69.216  1.00  0.00     0.000 A 
ATOM     30  C   UNL     1      64.701  82.304  66.959  1.00  0.00     0.000 A 
ATOM     31  C   UNL     1      64.555  81.425  68.033  1.00  0.00     0.000 A 
ENDBRANCH  25  26
ENDBRANCH   7  25
BRANCH  14  32
ATOM     32  C   UNL     1      63.632  87.425  67.890  1.00  0.00    -0.046 C 
ATOM     33  C   UNL     1      62.652  88.545  68.072  1.00  0.00     0.042 C 
ATOM     34  C   UNL     1      63.647  86.669  66.782  1.00  0.00     0.010 C 
ENDBRANCH  14  32
ENDBRANCH   3   4
BRANCH   2  35
ATOM     35  C   UNL     1      68.437  89.687  72.516  1.00  0.00     0.078 CG0
ATOM     36  G   UNL     1      67.377  88.742  73.081  1.00  0.00     0.000 G0
ENDBRANCH   2  35
ENDBRANCH   1   2
BRANCH   1  37
ATOM     37  O   UNL     1      70.890  89.593  70.439  1.00  0.00    -0.461 OA
BRANCH  37  38
ATOM     38  C   UNL     1      71.695  89.747  69.335  1.00  0.00     0.310 C 
ATOM     39  O   UNL     1      72.758  90.351  69.319  1.00  0.00    -0.252 OA
BRANCH  38  40
ATOM     40  C   UNL     1      71.061  89.058  68.149  1.00  0.00     0.158 C 
BRANCH  40  41
ATOM     41  C   UNL     1      71.010  87.559  68.299  1.00  0.00    -0.033 A 
ATOM     42  C   UNL     1      71.591  86.741  67.329  1.00  0.00     0.054 A 
ATOM     43  C   UNL     1      70.382  86.990  69.406  1.00  0.00     0.008 A 
ATOM     44  C   UNL     1      71.544  85.354  67.467  1.00  0.00     0.160 A 
ATOM     45  C   UNL     1      70.335  85.603  69.544  1.00  0.00     0.050 A 
ATOM     46  C   UNL     1      70.915  84.785  68.575  1.00  0.00     0.157 A 
BRANCH  44  47
ATOM     47  O   UNL     1      72.114  84.566  66.514  1.00  0.00    -0.493 OA
ATOM     48  C   UNL     1      71.232  83.888  65.620  1.00  0.00     0.278 C 
ENDBRANCH  44  47
BRANCH  46  49
ATOM     49  O   UNL     1      70.863  83.432  68.722  1.00  0.00    -0.504 OA
ATOM     50  H   UNL     1      71.361  83.016  67.998  1.00  0.00     0.293 HD
ENDBRANCH  46  49
ENDBRANCH  40  41
ENDBRANCH  38  40
ENDBRANCH  37  38
ENDBRANCH   1  37
TORSDOF 11
ENDMDL
MODEL 7
REMARK VINA RESULT:    -5.508      8.649     14.253
REMARK INTER + INTRA:         -10.307
REMARK INTER:                  -8.434
REMARK INTRA:                  -1.872
REMARK UNBOUND:                -0.613
REMARK SMILES C=C(C)[C@]12C[C@@H](C)[C@@]34O[C@](Cc5ccccc5)(O[C@@H]1[C@@H]3C=C(COC(=O)Cc1ccc(O)c(OC)c1)C[C@]1(O)C(=O)C(C)=C[C@@H]41)O2
REMARK SMILES IDX 23 1 22 2 21 3 20 4 9 5 8 6 10 7 6 8 18 9 46 10 19 11 5 12
REMARK SMILES IDX 7 13 4 14 45 15 38 16 44 17 40 18 42 20 41 21 43 22 39 23
REMARK SMILES IDX 11 25 12 26 13 27 17 28 14 29 16 30 15 31 2 32 3 33 1 34
REMARK SMILES IDX 37 35 24 37 25 38 26 39 27 40 28 41 36 42 29 43 33 44 30 45
REMARK SMILES IDX 31 46 34 47 35 48 32 49
REMARK H PARENT 39 24 32 50
REMARK Flexibility Score: 90.00
ROOT
ATOM      1  C   UNL     1      99.788  77.396  77.999  1.00  0.00     0.264 C 
ENDROOT
BRANCH   1   2
ATOM      2  C   UNL     1     100.675  77.948  76.907  1.00  0.00    -0.033 C 
ATOM      3  C   UNL     1     100.162  78.827  76.022  1.00  0.00    -0.015 C 
BRANCH   3   4
ATOM      4  C   UNL     1     100.814  79.460  74.804  1.00  0.00     0.078 C 
ATOM      5  O   UNL     1     101.776  81.616  75.541  1.00  0.00    -0.319 OA
ATOM      6  C   UNL     1     102.128  80.301  75.010  1.00  0.00     0.095 C 
ATOM      7  C   UNL     1     100.630  82.240  74.932  1.00  0.00     0.289 C 
ATOM      8  C   UNL     1     102.814  80.476  73.592  1.00  0.00     0.023 C 
ATOM      9  O   UNL     1      99.473  81.415  75.042  1.00  0.00    -0.320 OA
ATOM     10  O   UNL     1     100.812  82.463  73.537  1.00  0.00    -0.313 OA
ATOM     11  C   UNL     1      99.802  80.391  74.091  1.00  0.00     0.170 C 
ATOM     12  C   UNL     1     101.753  80.566  72.452  1.00  0.00     0.049 C 
ATOM     13  C   UNL     1     103.794  81.654  73.473  1.00  0.00     0.011 C 
ATOM     14  C   UNL     1     100.450  81.201  72.940  1.00  0.00     0.122 C 
BRANCH   6  15
ATOM     15  C   UNL     1     103.024  79.664  76.112  1.00  0.00     0.086 C 
ATOM     16  C   UNL     1     103.151  78.127  76.080  1.00  0.00     0.140 CG0
ATOM     17  C   UNL     1     104.444  80.130  76.267  1.00  0.00    -0.010 C 
ATOM     18  C   UNL     1     104.572  77.908  76.555  1.00  0.00     0.190 C 
ATOM     19  G   UNL     1     102.122  77.444  76.979  1.00  0.00     0.000 G0
ATOM     20  C   UNL     1     105.334  79.171  76.543  1.00  0.00    -0.008 C 
ATOM     21  O   UNL     1     105.058  76.830  76.862  1.00  0.00    -0.291 OA
ATOM     22  C   UNL     1     106.779  79.270  76.838  1.00  0.00     0.048 C 
BRANCH  16  23
ATOM     23  O   UNL     1     103.143  77.578  74.772  1.00  0.00    -0.381 OA
ATOM     24  H   UNL     1     102.341  77.882  74.317  1.00  0.00     0.212 HD
ENDBRANCH  16  23
ENDBRANCH   6  15
BRANCH   7  25
ATOM     25  C   UNL     1     100.383  83.564  75.628  1.00  0.00     0.135 C 
BRANCH  25  26
ATOM     26  C   UNL     1      98.977  83.666  76.165  1.00  0.00    -0.040 A 
ATOM     27  C   UNL     1      97.989  84.302  75.413  1.00  0.00     0.004 A 
ATOM     28  C   UNL     1      98.665  83.125  77.411  1.00  0.00     0.004 A 
ATOM     29  C   UNL     1      96.688  84.398  75.909  1.00  0.00     0.000 A 
ATOM     30  C   UNL     1      97.364  83.220  77.907  1.00  0.00     0.000 A 
ATOM     31  C   UNL     1      96.376  83.857  77.156  1.00  0.00     0.000 A 
ENDBRANCH  25  26
ENDBRANCH   7  25
BRANCH  14  32
ATOM     32  C   UNL     1      99.488  81.464  71.828  1.00  0.00    -0.046 C 
ATOM     33  C   UNL     1      99.102  80.281  70.992  1.00  0.00     0.042 C 
ATOM     34  C   UNL     1      98.998  82.690  71.590  1.00  0.00     0.010 C 
ENDBRANCH  14  32
ENDBRANCH   3   4
BRANCH   2  35
ATOM     35  C   UNL     1     102.094  77.415  76.967  1.00  0.00     0.078 CG0
ATOM     36  G   UNL     1     103.137  78.104  76.089  1.00  0.00     0.000 G0
ENDBRANCH   2  35
ENDBRANCH   1   2
BRANCH   1  37
ATOM     37  O   UNL     1      98.466  77.849  77.800  1.00  0.00    -0.461 OA
BRANCH  37  38
ATOM     38  C   UNL     1      97.817  78.341  78.909  1.00  0.00     0.310 C 
ATOM     39  O   UNL     1      97.153  77.672  79.688  1.00  0.00    -0.252 OA
BRANCH  38  40
ATOM     40  C   UNL     1      98.054  79.829  79.012  1.00  0.00     0.158 C 
BRANCH  40  41
ATOM     41  C   UNL     1      98.104  80.318  80.437  1.00  0.00    -0.033 A 
ATOM     42  C   UNL     1      99.163  79.944  81.265  1.00  0.00     0.054 A 
ATOM     43  C   UNL     1      97.094  81.145  80.927  1.00  0.00     0.008 A 
ATOM     44  C   UNL     1      99.210  80.397  82.584  1.00  0.00     0.160 A 
ATOM     45  C   UNL     1      97.140  81.598  82.245  1.00  0.00     0.050 A 
ATOM     46  C   UNL     1      98.198  81.224  83.074  1.00  0.00     0.157 A 
BRANCH  44  47
ATOM     47  O   UNL     1     100.248  80.025  83.384  1.00  0.00    -0.493 OA
ATOM     48  C   UNL     1     100.881  78.782  83.087  1.00  0.00     0.278 C 
ENDBRANCH  44  47
BRANCH  46  49
ATOM     49  O   UNL     1      98.234  81.674  84.359  1.00  0.00    -0.504 OA
ATOM     50  H   UNL     1      98.851  81.123  84.870  1.00  0.00     0.293 HD
ENDBRANCH  46  49
ENDBRANCH  40  41
ENDBRANCH  38  40
ENDBRANCH  37  38
ENDBRANCH   1  37
TORSDOF 11
ENDMDL
MODEL 8
REMARK VINA RESULT:    -5.203     20.613     23.923
REMARK INTER + INTRA:          -9.770
REMARK INTER:                  -7.081
REMARK INTRA:                  -2.688
REMARK UNBOUND:                -0.613
REMARK SMILES C=C(C)[C@]12C[C@@H](C)[C@@]34O[C@](Cc5ccccc5)(O[C@@H]1[C@@H]3C=C(COC(=O)Cc1ccc(O)c(OC)c1)C[C@]1(O)C(=O)C(C)=C[C@@H]41)O2
REMARK SMILES IDX 23 1 22 2 21 3 20 4 9 5 8 6 10 7 6 8 18 9 46 10 19 11 5 12
REMARK SMILES IDX 7 13 4 14 45 15 38 16 44 17 40 18 42 20 41 21 43 22 39 23
REMARK SMILES IDX 11 25 12 26 13 27 17 28 14 29 16 30 15 31 2 32 3 33 1 34
REMARK SMILES IDX 37 35 24 37 25 38 26 39 27 40 28 41 36 42 29 43 33 44 30 45
REMARK SMILES IDX 31 46 34 47 35 48 32 49
REMARK H PARENT 39 24 32 50
REMARK Flexibility Score: 90.00
ROOT
ATOM      1  C   UNL     1      95.490 104.307  74.950  1.00  0.00     0.264 C 
ENDROOT
BRANCH   1   2
ATOM      2  C   UNL     1      94.252 104.126  74.104  1.00  0.00    -0.033 C 
ATOM      3  C   UNL     1      94.325 103.388  72.978  1.00  0.00    -0.015 C 
BRANCH   3   4
ATOM      4  C   UNL     1      93.258 103.121  71.928  1.00  0.00     0.078 C 
ATOM      5  O   UNL     1      92.117 101.025  72.578  1.00  0.00    -0.319 OA
ATOM      6  C   UNL     1      91.906 102.458  72.387  1.00  0.00     0.095 C 
ATOM      7  C   UNL     1      92.910 100.378  71.565  1.00  0.00     0.289 C 
ATOM      8  C   UNL     1      90.846 102.681  71.230  1.00  0.00     0.023 C 
ATOM      9  O   UNL     1      94.195 100.984  71.449  1.00  0.00    -0.320 OA
ATOM     10  O   UNL     1      92.320 100.476  70.271  1.00  0.00    -0.313 OA
ATOM     11  C   UNL     1      93.835 102.218  70.810  1.00  0.00     0.170 C 
ATOM     12  C   UNL     1      91.522 102.672  69.825  1.00  0.00     0.049 C 
ATOM     13  C   UNL     1      89.654 101.709  71.230  1.00  0.00     0.011 C 
ATOM     14  C   UNL     1      92.754 101.767  69.796  1.00  0.00     0.122 C 
BRANCH   6  15
ATOM     15  C   UNL     1      91.484 102.979  73.791  1.00  0.00     0.086 C 
ATOM     16  C   UNL     1      91.647 104.494  74.031  1.00  0.00     0.140 CG0
ATOM     17  C   UNL     1      90.098 102.692  74.297  1.00  0.00    -0.010 C 
ATOM     18  C   UNL     1      90.478 104.807  74.942  1.00  0.00     0.190 C 
ATOM     19  G   UNL     1      92.993 104.836  74.668  1.00  0.00     0.000 G0
ATOM     20  C   UNL     1      89.517 103.689  74.972  1.00  0.00    -0.008 C 
ATOM     21  O   UNL     1      90.309 105.859  75.540  1.00  0.00    -0.291 OA
ATOM     22  C   UNL     1      88.217 103.734  75.672  1.00  0.00     0.048 C 
BRANCH  16  23
ATOM     23  O   UNL     1      91.402 105.287  72.881  1.00  0.00    -0.381 OA
ATOM     24  H   UNL     1      92.243 105.677  72.592  1.00  0.00     0.212 HD
ENDBRANCH  16  23
ENDBRANCH   6  15
BRANCH   7  25
ATOM     25  C   UNL     1      93.065  98.918  71.941  1.00  0.00     0.135 C 
BRANCH  25  26
ATOM     26  C   UNL     1      94.447  98.398  71.634  1.00  0.00    -0.040 A 
ATOM     27  C   UNL     1      94.955  98.494  70.338  1.00  0.00     0.004 A 
ATOM     28  C   UNL     1      95.217  97.823  72.644  1.00  0.00     0.004 A 
ATOM     29  C   UNL     1      96.234  98.013  70.053  1.00  0.00     0.000 A 
ATOM     30  C   UNL     1      96.495  97.342  72.359  1.00  0.00     0.000 A 
ATOM     31  C   UNL     1      97.003  97.438  71.063  1.00  0.00     0.000 A 
ENDBRANCH  25  26
ENDBRANCH   7  25
BRANCH  14  32
ATOM     32  C   UNL     1      93.311 101.599  68.420  1.00  0.00    -0.046 C 
ATOM     33  C   UNL     1      94.760 101.221  68.333  1.00  0.00     0.042 C 
ATOM     34  C   UNL     1      92.558 101.776  67.323  1.00  0.00     0.010 C 
ENDBRANCH  14  32
ENDBRANCH   3   4
BRANCH   2  35
ATOM     35  C   UNL     1      93.034 104.830  74.673  1.00  0.00     0.078 CG0
ATOM     36  G   UNL     1      91.678 104.489  74.056  1.00  0.00     0.000 G0
ENDBRANCH   2  35
ENDBRANCH   1   2
BRANCH   1  37
ATOM     37  O   UNL     1      96.371 103.227  74.725  1.00  0.00    -0.461 OA
BRANCH  37  38
ATOM     38  C   UNL     1      96.209 102.130  75.539  1.00  0.00     0.310 C 
ATOM     39  O   UNL     1      96.197 102.158  76.762  1.00  0.00    -0.252 OA
BRANCH  38  40
ATOM     40  C   UNL     1      96.049 100.891  74.689  1.00  0.00     0.158 C 
BRANCH  40  41
ATOM     41  C   UNL     1      97.263 100.596  73.846  1.00  0.00    -0.033 A 
ATOM     42  C   UNL     1      98.358  99.938  74.406  1.00  0.00     0.054 A 
ATOM     43  C   UNL     1      97.291 100.981  72.505  1.00  0.00     0.008 A 
ATOM     44  C   UNL     1      99.481  99.665  73.625  1.00  0.00     0.160 A 
ATOM     45  C   UNL     1      98.414 100.708  71.724  1.00  0.00     0.050 A 
ATOM     46  C   UNL     1      99.509 100.051  72.284  1.00  0.00     0.157 A 
BRANCH  44  47
ATOM     47  O   UNL     1     100.545  99.022  74.182  1.00  0.00    -0.493 OA
ATOM     48  C   UNL     1     100.278  98.179  75.303  1.00  0.00     0.278 C 
ENDBRANCH  44  47
BRANCH  46  49
ATOM     49  O   UNL     1     100.600  99.788  71.511  1.00  0.00    -0.504 OA
ATOM     50  H   UNL     1     100.303  99.500  70.631  1.00  0.00     0.293 HD
ENDBRANCH  46  49
ENDBRANCH  40  41
ENDBRANCH  38  40
ENDBRANCH  37  38
ENDBRANCH   1  37
TORSDOF 11
ENDMDL
MODEL 9
REMARK VINA RESULT:    -5.100     30.252     34.056
REMARK INTER + INTRA:          -9.589
REMARK INTER:                  -8.629
REMARK INTRA:                  -0.960
REMARK UNBOUND:                -0.613
REMARK SMILES C=C(C)[C@]12C[C@@H](C)[C@@]34O[C@](Cc5ccccc5)(O[C@@H]1[C@@H]3C=C(COC(=O)Cc1ccc(O)c(OC)c1)C[C@]1(O)C(=O)C(C)=C[C@@H]41)O2
REMARK SMILES IDX 23 1 22 2 21 3 20 4 9 5 8 6 10 7 6 8 18 9 46 10 19 11 5 12
REMARK SMILES IDX 7 13 4 14 45 15 38 16 44 17 40 18 42 20 41 21 43 22 39 23
REMARK SMILES IDX 11 25 12 26 13 27 17 28 14 29 16 30 15 31 2 32 3 33 1 34
REMARK SMILES IDX 37 35 24 37 25 38 26 39 27 40 28 41 36 42 29 43 33 44 30 45
REMARK SMILES IDX 31 46 34 47 35 48 32 49
REMARK H PARENT 39 24 32 50
REMARK Flexibility Score: 90.00
ROOT
ATOM      1  C   UNL     1      61.826  70.054  81.459  1.00  0.00     0.264 C 
ENDROOT
BRANCH   1   2
ATOM      2  C   UNL     1      63.009  69.131  81.283  1.00  0.00    -0.033 C 
ATOM      3  C   UNL     1      64.122  69.339  82.014  1.00  0.00    -0.015 C 
BRANCH   3   4
ATOM      4  C   UNL     1      65.456  68.611  81.970  1.00  0.00     0.078 C 
ATOM      5  O   UNL     1      65.342  66.796  83.647  1.00  0.00    -0.319 OA
ATOM      6  C   UNL     1      65.468  67.056  82.215  1.00  0.00     0.095 C 
ATOM      7  C   UNL     1      66.128  67.649  84.500  1.00  0.00     0.289 C 
ATOM      8  C   UNL     1      66.862  66.501  81.703  1.00  0.00     0.023 C 
ATOM      9  O   UNL     1      65.813  69.023  84.289  1.00  0.00    -0.320 OA
ATOM     10  O   UNL     1      67.525  67.531  84.245  1.00  0.00    -0.313 OA
ATOM     11  C   UNL     1      66.426  69.228  83.007  1.00  0.00     0.170 C 
ATOM     12  C   UNL     1      68.004  67.543  81.914  1.00  0.00     0.049 C 
ATOM     13  C   UNL     1      67.289  65.147  82.292  1.00  0.00     0.011 C 
ATOM     14  C   UNL     1      67.745  68.426  83.136  1.00  0.00     0.122 C 
BRANCH   6  15
ATOM     15  C   UNL     1      64.211  66.388  81.586  1.00  0.00     0.086 C 
ATOM     16  C   UNL     1      63.807  66.887  80.183  1.00  0.00     0.140 CG0
ATOM     17  C   UNL     1      64.161  64.892  81.453  1.00  0.00    -0.010 C 
ATOM     18  C   UNL     1      63.256  65.632  79.538  1.00  0.00     0.190 C 
ATOM     19  G   UNL     1      62.776  68.013  80.246  1.00  0.00     0.000 G0
ATOM     20  C   UNL     1      63.605  64.435  80.326  1.00  0.00    -0.008 C 
ATOM     21  O   UNL     1      62.647  65.589  78.479  1.00  0.00    -0.291 OA
ATOM     22  C   UNL     1      63.316  63.050  79.901  1.00  0.00     0.048 C 
BRANCH  16  23
ATOM     23  O   UNL     1      64.906  67.237  79.359  1.00  0.00    -0.381 OA
ATOM     24  H   UNL     1      65.691  67.339  79.922  1.00  0.00     0.212 HD
ENDBRANCH  16  23
ENDBRANCH   6  15
BRANCH   7  25
ATOM     25  C   UNL     1      65.843  67.274  85.941  1.00  0.00     0.135 C 
BRANCH  25  26
ATOM     26  C   UNL     1      67.059  67.437  86.818  1.00  0.00    -0.040 A 
ATOM     27  C   UNL     1      67.846  66.329  87.131  1.00  0.00     0.004 A 
ATOM     28  C   UNL     1      67.397  68.696  87.316  1.00  0.00     0.004 A 
ATOM     29  C   UNL     1      68.971  66.480  87.943  1.00  0.00     0.000 A 
ATOM     30  C   UNL     1      68.521  68.846  88.127  1.00  0.00     0.000 A 
ATOM     31  C   UNL     1      69.308  67.738  88.441  1.00  0.00     0.000 A 
ENDBRANCH  25  26
ENDBRANCH   7  25
BRANCH  14  32
ATOM     32  C   UNL     1      68.907  69.305  83.464  1.00  0.00    -0.046 C 
ATOM     33  C   UNL     1      69.867  68.780  84.490  1.00  0.00     0.042 C 
ATOM     34  C   UNL     1      69.083  70.498  82.876  1.00  0.00     0.010 C 
ENDBRANCH  14  32
ENDBRANCH   3   4
BRANCH   2  35
ATOM     35  C   UNL     1      62.763  68.037  80.261  1.00  0.00     0.078 CG0
ATOM     36  G   UNL     1      63.790  66.908  80.184  1.00  0.00     0.000 G0
ENDBRANCH   2  35
ENDBRANCH   1   2
BRANCH   1  37
ATOM     37  O   UNL     1      62.016  70.842  82.614  1.00  0.00    -0.461 OA
BRANCH  37  38
ATOM     38  C   UNL     1      61.234  71.969  82.717  1.00  0.00     0.310 C 
ATOM     39  O   UNL     1      60.411  72.331  81.889  1.00  0.00    -0.252 OA
BRANCH  38  40
ATOM     40  C   UNL     1      61.552  72.687  84.008  1.00  0.00     0.158 C 
BRANCH  40  41
ATOM     41  C   UNL     1      61.171  74.145  83.979  1.00  0.00    -0.033 A 
ATOM     42  C   UNL     1      62.165  75.124  83.942  1.00  0.00     0.054 A 
ATOM     43  C   UNL     1      59.827  74.515  83.989  1.00  0.00     0.008 A 
ATOM     44  C   UNL     1      61.813  76.474  83.915  1.00  0.00     0.160 A 
ATOM     45  C   UNL     1      59.475  75.865  83.962  1.00  0.00     0.050 A 
ATOM     46  C   UNL     1      60.467  76.844  83.925  1.00  0.00     0.157 A 
BRANCH  44  47
ATOM     47  O   UNL     1      62.791  77.421  83.880  1.00  0.00    -0.493 OA
ATOM     48  C   UNL     1      63.497  77.670  85.095  1.00  0.00     0.278 C 
ENDBRANCH  44  47
BRANCH  46  49
ATOM     49  O   UNL     1      60.112  78.158  83.898  1.00  0.00    -0.504 OA
ATOM     50  H   UNL     1      59.148  78.224  83.793  1.00  0.00     0.293 HD
ENDBRANCH  46  49
ENDBRANCH  40  41
ENDBRANCH  38  40
ENDBRANCH  37  38
ENDBRANCH   1  37
TORSDOF 11
ENDMDL
MODEL 10
REMARK VINA RESULT:    -4.831     15.390     19.051
REMARK INTER + INTRA:          -9.115
REMARK INTER:                  -8.369
REMARK INTRA:                  -0.746
REMARK UNBOUND:                -0.613
REMARK SMILES C=C(C)[C@]12C[C@@H](C)[C@@]34O[C@](Cc5ccccc5)(O[C@@H]1[C@@H]3C=C(COC(=O)Cc1ccc(O)c(OC)c1)C[C@]1(O)C(=O)C(C)=C[C@@H]41)O2
REMARK SMILES IDX 23 1 22 2 21 3 20 4 9 5 8 6 10 7 6 8 18 9 46 10 19 11 5 12
REMARK SMILES IDX 7 13 4 14 45 15 38 16 44 17 40 18 42 20 41 21 43 22 39 23
REMARK SMILES IDX 11 25 12 26 13 27 17 28 14 29 16 30 15 31 2 32 3 33 1 34
REMARK SMILES IDX 37 35 24 37 25 38 26 39 27 40 28 41 36 42 29 43 33 44 30 45
REMARK SMILES IDX 31 46 34 47 35 48 32 49
REMARK H PARENT 39 24 32 50
REMARK Flexibility Score: 90.00
ROOT
ATOM      1  C   UNL     1      99.201  97.692  79.902  1.00  0.00     0.264 C 
ENDROOT
BRANCH   1   2
ATOM      2  C   UNL     1      98.901  98.806  78.925  1.00  0.00    -0.033 C 
ATOM      3  C   UNL     1      98.515  98.496  77.671  1.00  0.00    -0.015 C 
BRANCH   3   4
ATOM      4  C   UNL     1      98.233  99.416  76.494  1.00  0.00     0.078 C 
ATOM      5  O   UNL     1      95.812  99.924  76.540  1.00  0.00    -0.319 OA
ATOM      6  C   UNL     1      97.135 100.532  76.662  1.00  0.00     0.095 C 
ATOM      7  C   UNL     1      95.674  98.954  75.484  1.00  0.00     0.289 C 
ATOM      8  C   UNL     1      97.337 101.583  75.493  1.00  0.00     0.023 C 
ATOM      9  O   UNL     1      96.616  97.894  75.630  1.00  0.00    -0.320 OA
ATOM     10  O   UNL     1      95.921  99.515  74.198  1.00  0.00    -0.313 OA
ATOM     11  C   UNL     1      97.823  98.577  75.258  1.00  0.00     0.170 C 
ATOM     12  C   UNL     1      97.857 100.898  74.192  1.00  0.00     0.049 C 
ATOM     13  C   UNL     1      96.109 102.445  75.161  1.00  0.00     0.011 C 
ATOM     14  C   UNL     1      97.357  99.458  74.072  1.00  0.00     0.122 C 
BRANCH   6  15
ATOM     15  C   UNL     1      97.162 101.120  78.102  1.00  0.00     0.086 C 
ATOM     16  C   UNL     1      98.558 101.383  78.703  1.00  0.00     0.140 CG0
ATOM     17  C   UNL     1      96.411 102.389  78.394  1.00  0.00    -0.010 C 
ATOM     18  C   UNL     1      98.322 102.618  79.547  1.00  0.00     0.190 C 
ATOM     19  G   UNL     1      99.064 100.200  79.527  1.00  0.00     0.000 G0
ATOM     20  C   UNL     1      97.023 103.239  79.224  1.00  0.00    -0.008 C 
ATOM     21  O   UNL     1      99.110 103.085  80.356  1.00  0.00    -0.291 OA
ATOM     22  C   UNL     1      96.555 104.521  79.789  1.00  0.00     0.048 C 
BRANCH  16  23
ATOM     23  O   UNL     1      99.523 101.802  77.752  1.00  0.00    -0.381 OA
ATOM     24  H   UNL     1     100.297 101.220  77.823  1.00  0.00     0.212 HD
ENDBRANCH  16  23
ENDBRANCH   6  15
BRANCH   7  25
ATOM     25  C   UNL     1      94.266  98.397  75.531  1.00  0.00     0.135 C 
BRANCH  25  26
ATOM     26  C   UNL     1      94.130  97.288  76.545  1.00  0.00    -0.040 A 
ATOM     27  C   UNL     1      93.092  96.363  76.431  1.00  0.00     0.004 A 
ATOM     28  C   UNL     1      95.042  97.187  77.595  1.00  0.00     0.004 A 
ATOM     29  C   UNL     1      92.966  95.337  77.369  1.00  0.00     0.000 A 
ATOM     30  C   UNL     1      94.916  96.161  78.533  1.00  0.00     0.000 A 
ATOM     31  C   UNL     1      93.877  95.237  78.419  1.00  0.00     0.000 A 
ENDBRANCH  25  26
ENDBRANCH   7  25
BRANCH  14  32
ATOM     32  C   UNL     1      97.689  98.843  72.751  1.00  0.00    -0.046 C 
ATOM     33  C   UNL     1      98.944  99.332  72.090  1.00  0.00     0.042 C 
ATOM     34  C   UNL     1      96.910  97.907  72.189  1.00  0.00     0.010 C 
ENDBRANCH  14  32
ENDBRANCH   3   4
BRANCH   2  35
ATOM     35  C   UNL     1      99.077 100.187  79.526  1.00  0.00     0.078 CG0
ATOM     36  G   UNL     1      98.571 101.375  78.709  1.00  0.00     0.000 G0
ENDBRANCH   2  35
ENDBRANCH   1   2
BRANCH   1  37
ATOM     37  O   UNL     1     100.255  98.089  80.752  1.00  0.00    -0.461 OA
BRANCH  37  38
ATOM     38  C   UNL     1     100.272  97.522  82.005  1.00  0.00     0.310 C 
ATOM     39  O   UNL     1     101.268  97.389  82.703  1.00  0.00    -0.252 OA
BRANCH  38  40
ATOM     40  C   UNL     1      98.874  97.091  82.383  1.00  0.00     0.158 C 
BRANCH  40  41
ATOM     41  C   UNL     1      98.154  98.109  83.230  1.00  0.00    -0.033 A 
ATOM     42  C   UNL     1      96.984  98.705  82.759  1.00  0.00     0.054 A 
ATOM     43  C   UNL     1      98.657  98.454  84.484  1.00  0.00     0.008 A 
ATOM     44  C   UNL     1      96.317  99.646  83.544  1.00  0.00     0.160 A 
ATOM     45  C   UNL     1      97.991  99.396  85.268  1.00  0.00     0.050 A 
ATOM     46  C   UNL     1      96.821  99.992  84.798  1.00  0.00     0.157 A 
BRANCH  44  47
ATOM     47  O   UNL     1      95.176 100.222  83.074  1.00  0.00    -0.493 OA
ATOM     48  C   UNL     1      94.815  99.938  81.723  1.00  0.00     0.278 C 
ENDBRANCH  44  47
BRANCH  46  49
ATOM     49  O   UNL     1      96.178 100.909  85.573  1.00  0.00    -0.504 OA
ATOM     50  H   UNL     1      96.058 100.541  86.465  1.00  0.00     0.293 HD
ENDBRANCH  46  49
ENDBRANCH  40  41
ENDBRANCH  38  40
ENDBRANCH  37  38
ENDBRANCH   1  37
TORSDOF 11
ENDMDL
