MODEL 1
REMARK VINA RESULT:    -6.237      0.000      0.000
REMARK INTER + INTRA:         -10.729
REMARK INTER:                  -9.700
REMARK INTRA:                  -1.029
REMARK UNBOUND:                -1.029
REMARK SMILES COc1cc(CNC(=O)CCCCCC(C)C)ccc1O
REMARK SMILES IDX 10 1 8 2 7 3 9 5 6 6 5 7 3 8 20 9 4 10 19 11 18 12 2 13 1 14
REMARK SMILES IDX 21 15 11 17 12 18 13 19 14 20 15 21 16 22 17 23
REMARK H PARENT 7 4 21 16
REMARK Flexibility Score: inf
ROOT
ATOM      1  C   UNL     1      95.166  97.329  74.932  1.00  0.00     0.100 C 
ENDROOT
BRANCH   1   2
ATOM      2  C   UNL     1      96.398  96.960  75.660  1.00  0.00     0.220 C 
ATOM      3  N   UNL     1      96.319  96.615  76.976  1.00  0.00    -0.352 N 
ATOM      4  H   UNL     1      95.417  96.769  77.403  1.00  0.00     0.163 HD
ATOM      5  O   UNL     1      97.488  96.929  75.037  1.00  0.00    -0.275 OA
BRANCH   3   6
ATOM      6  C   UNL     1      97.391  96.075  77.750  1.00  0.00     0.151 C 
BRANCH   6   7
ATOM      7  C   UNL     1      96.932  95.135  78.808  1.00  0.00    -0.025 A 
ATOM      8  C   UNL     1      97.335  93.939  80.918  1.00  0.00     0.160 A 
ATOM      9  C   UNL     1      96.033  93.398  80.857  1.00  0.00     0.157 A 
ATOM     10  C   UNL     1      97.783  94.789  79.884  1.00  0.00     0.056 A 
ATOM     11  C   UNL     1      95.189  93.714  79.777  1.00  0.00     0.050 A 
ATOM     12  C   UNL     1      95.632  94.580  78.764  1.00  0.00     0.009 A 
BRANCH   8  13
ATOM     13  O   UNL     1      98.180  93.628  81.951  1.00  0.00    -0.493 OA
ATOM     14  C   UNL     1      99.330  94.490  82.042  1.00  0.00     0.278 C 
ENDBRANCH   8  13
BRANCH   9  15
ATOM     15  O   UNL     1      95.594  92.578  81.845  1.00  0.00    -0.504 OA
ATOM     16  H   UNL     1      96.346  92.185  82.293  1.00  0.00     0.293 HD
ENDBRANCH   9  15
ENDBRANCH   6   7
ENDBRANCH   3   6
ENDBRANCH   1   2
BRANCH   1  17
ATOM     17  C   UNL     1      93.983  96.347  75.139  1.00  0.00     0.010 C 
BRANCH  17  18
ATOM     18  C   UNL     1      94.376  94.890  74.770  1.00  0.00     0.001 C 
BRANCH  18  19
ATOM     19  C   UNL     1      93.804  93.830  75.749  1.00  0.00     0.000 C 
BRANCH  19  20
ATOM     20  C   UNL     1      92.304  94.081  76.076  1.00  0.00     0.003 C 
BRANCH  20  21
ATOM     21  C   UNL     1      91.545  92.854  76.679  1.00  0.00    -0.017 C 
ATOM     22  C   UNL     1      91.131  91.853  75.560  1.00  0.00     0.007 C 
ATOM     23  C   UNL     1      90.299  93.265  77.516  1.00  0.00     0.007 C 
ENDBRANCH  20  21
ENDBRANCH  19  20
ENDBRANCH  18  19
ENDBRANCH  17  18
ENDBRANCH   1  17
TORSDOF 10
ENDMDL
MODEL 2
REMARK VINA RESULT:    -6.177      1.807      2.134
REMARK INTER + INTRA:         -10.637
REMARK INTER:                  -9.039
REMARK INTRA:                  -1.599
REMARK UNBOUND:                -1.029
REMARK SMILES COc1cc(CNC(=O)CCCCCC(C)C)ccc1O
REMARK SMILES IDX 10 1 8 2 7 3 9 5 6 6 5 7 3 8 20 9 4 10 19 11 18 12 2 13 1 14
REMARK SMILES IDX 21 15 11 17 12 18 13 19 14 20 15 21 16 22 17 23
REMARK H PARENT 7 4 21 16
REMARK Flexibility Score: inf
ROOT
ATOM      1  C   UNL     1      95.774  97.992  74.578  1.00  0.00     0.100 C 
ENDROOT
BRANCH   1   2
ATOM      2  C   UNL     1      96.952  97.462  75.295  1.00  0.00     0.220 C 
ATOM      3  N   UNL     1      96.864  97.208  76.631  1.00  0.00    -0.352 N 
ATOM      4  H   UNL     1      96.014  97.533  77.071  1.00  0.00     0.163 HD
ATOM      5  O   UNL     1      97.999  97.217  74.648  1.00  0.00    -0.275 OA
BRANCH   3   6
ATOM      6  C   UNL     1      97.858  96.539  77.408  1.00  0.00     0.151 C 
BRANCH   6   7
ATOM      7  C   UNL     1      97.301  95.855  78.606  1.00  0.00    -0.025 A 
ATOM      8  C   UNL     1      96.187  95.960  80.796  1.00  0.00     0.160 A 
ATOM      9  C   UNL     1      96.180  94.550  80.857  1.00  0.00     0.157 A 
ATOM     10  C   UNL     1      96.763  96.604  79.680  1.00  0.00     0.056 A 
ATOM     11  C   UNL     1      96.736  93.797  79.807  1.00  0.00     0.050 A 
ATOM     12  C   UNL     1      97.287  94.443  78.688  1.00  0.00     0.009 A 
BRANCH   8  13
ATOM     13  O   UNL     1      95.668  96.712  81.817  1.00  0.00    -0.493 OA
ATOM     14  C   UNL     1      96.666  97.270  82.694  1.00  0.00     0.278 C 
ENDBRANCH   8  13
BRANCH   9  15
ATOM     15  O   UNL     1      95.630  93.922  81.926  1.00  0.00    -0.504 OA
ATOM     16  H   UNL     1      96.157  94.099  82.708  1.00  0.00     0.293 HD
ENDBRANCH   9  15
ENDBRANCH   6   7
ENDBRANCH   3   6
ENDBRANCH   1   2
BRANCH   1  17
ATOM     17  C   UNL     1      94.518  97.082  74.653  1.00  0.00     0.010 C 
BRANCH  17  18
ATOM     18  C   UNL     1      94.846  95.619  74.244  1.00  0.00     0.001 C 
BRANCH  18  19
ATOM     19  C   UNL     1      94.041  94.561  75.043  1.00  0.00     0.000 C 
BRANCH  19  20
ATOM     20  C   UNL     1      94.641  94.309  76.457  1.00  0.00     0.003 C 
BRANCH  20  21
ATOM     21  C   UNL     1      93.696  94.673  77.648  1.00  0.00    -0.017 C 
ATOM     22  C   UNL     1      93.181  93.388  78.361  1.00  0.00     0.007 C 
ATOM     23  C   UNL     1      92.494  95.562  77.217  1.00  0.00     0.007 C 
ENDBRANCH  20  21
ENDBRANCH  19  20
ENDBRANCH  18  19
ENDBRANCH  17  18
ENDBRANCH   1  17
TORSDOF 10
ENDMDL
MODEL 3
REMARK VINA RESULT:    -5.804     12.464     14.734
REMARK INTER + INTRA:         -10.057
REMARK INTER:                  -9.056
REMARK INTRA:                  -1.001
REMARK UNBOUND:                -1.029
REMARK SMILES COc1cc(CNC(=O)CCCCCC(C)C)ccc1O
REMARK SMILES IDX 10 1 8 2 7 3 9 5 6 6 5 7 3 8 20 9 4 10 19 11 18 12 2 13 1 14
REMARK SMILES IDX 21 15 11 17 12 18 13 19 14 20 15 21 16 22 17 23
REMARK H PARENT 7 4 21 16
REMARK Flexibility Score: inf
ROOT
ATOM      1  C   UNL     1      98.340  80.053  81.342  1.00  0.00     0.100 C 
ENDROOT
BRANCH   1   2
ATOM      2  C   UNL     1      98.758  79.993  79.926  1.00  0.00     0.220 C 
ATOM      3  N   UNL     1      97.855  79.618  78.976  1.00  0.00    -0.352 N 
ATOM      4  H   UNL     1      96.977  79.274  79.338  1.00  0.00     0.163 HD
ATOM      5  O   UNL     1      99.928  80.330  79.621  1.00  0.00    -0.275 OA
BRANCH   3   6
ATOM      6  C   UNL     1      98.070  79.683  77.566  1.00  0.00     0.151 C 
BRANCH   6   7
ATOM      7  C   UNL     1      97.430  80.867  76.931  1.00  0.00    -0.025 A 
ATOM      8  C   UNL     1      97.060  82.290  74.961  1.00  0.00     0.160 A 
ATOM      9  C   UNL     1      96.159  83.081  75.704  1.00  0.00     0.157 A 
ATOM     10  C   UNL     1      97.704  81.200  75.584  1.00  0.00     0.056 A 
ATOM     11  C   UNL     1      95.899  82.775  77.052  1.00  0.00     0.050 A 
ATOM     12  C   UNL     1      96.525  81.674  77.660  1.00  0.00     0.009 A 
BRANCH   8  13
ATOM     13  O   UNL     1      97.341  82.583  73.652  1.00  0.00    -0.493 OA
ATOM     14  C   UNL     1      98.626  83.205  73.458  1.00  0.00     0.278 C 
ENDBRANCH   8  13
BRANCH   9  15
ATOM     15  O   UNL     1      95.536  84.133  75.115  1.00  0.00    -0.504 OA
ATOM     16  H   UNL     1      94.841  84.458  75.692  1.00  0.00     0.293 HD
ENDBRANCH   9  15
ENDBRANCH   6   7
ENDBRANCH   3   6
ENDBRANCH   1   2
BRANCH   1  17
ATOM     17  C   UNL     1      96.887  80.553  81.558  1.00  0.00     0.010 C 
BRANCH  17  18
ATOM     18  C   UNL     1      96.750  82.068  81.240  1.00  0.00     0.001 C 
BRANCH  18  19
ATOM     19  C   UNL     1      96.656  82.958  82.507  1.00  0.00     0.000 C 
BRANCH  19  20
ATOM     20  C   UNL     1      96.405  82.122  83.796  1.00  0.00     0.003 C 
BRANCH  20  21
ATOM     21  C   UNL     1      94.900  81.886  84.147  1.00  0.00    -0.017 C 
ATOM     22  C   UNL     1      94.452  82.808  85.319  1.00  0.00     0.007 C 
ATOM     23  C   UNL     1      94.584  80.400  84.486  1.00  0.00     0.007 C 
ENDBRANCH  20  21
ENDBRANCH  19  20
ENDBRANCH  18  19
ENDBRANCH  17  18
ENDBRANCH   1  17
TORSDOF 10
ENDMDL
MODEL 4
REMARK VINA RESULT:    -5.791      6.490     10.534
REMARK INTER + INTRA:         -10.037
REMARK INTER:                  -9.526
REMARK INTRA:                  -0.511
REMARK UNBOUND:                -1.029
REMARK SMILES COc1cc(CNC(=O)CCCCCC(C)C)ccc1O
REMARK SMILES IDX 10 1 8 2 7 3 9 5 6 6 5 7 3 8 20 9 4 10 19 11 18 12 2 13 1 14
REMARK SMILES IDX 21 15 11 17 12 18 13 19 14 20 15 21 16 22 17 23
REMARK H PARENT 7 4 21 16
REMARK Flexibility Score: inf
ROOT
ATOM      1  C   UNL     1      93.802  98.480  73.814  1.00  0.00     0.100 C 
ENDROOT
BRANCH   1   2
ATOM      2  C   UNL     1      93.612  99.275  72.583  1.00  0.00     0.220 C 
ATOM      3  N   UNL     1      92.358  99.428  72.072  1.00  0.00    -0.352 N 
ATOM      4  H   UNL     1      91.647  98.862  72.512  1.00  0.00     0.163 HD
ATOM      5  O   UNL     1      94.608  99.830  72.057  1.00  0.00    -0.275 OA
BRANCH   3   6
ATOM      6  C   UNL     1      92.010 100.304  70.999  1.00  0.00     0.151 C 
BRANCH   6   7
ATOM      7  C   UNL     1      91.136  99.660  69.980  1.00  0.00    -0.025 A 
ATOM      8  C   UNL     1      90.324  99.497  67.665  1.00  0.00     0.160 A 
ATOM      9  C   UNL     1      89.524  98.393  68.026  1.00  0.00     0.157 A 
ATOM     10  C   UNL     1      91.111 100.135  68.647  1.00  0.00     0.056 A 
ATOM     11  C   UNL     1      89.521  97.929  69.354  1.00  0.00     0.050 A 
ATOM     12  C   UNL     1      90.325  98.554  70.323  1.00  0.00     0.009 A 
BRANCH   8  13
ATOM     13  O   UNL     1      90.326  99.977  66.381  1.00  0.00    -0.493 OA
ATOM     14  C   UNL     1      90.779 101.339  66.270  1.00  0.00     0.278 C 
ENDBRANCH   8  13
BRANCH   9  15
ATOM     15  O   UNL     1      88.762  97.773  67.089  1.00  0.00    -0.504 OA
ATOM     16  H   UNL     1      89.322  97.466  66.373  1.00  0.00     0.293 HD
ENDBRANCH   9  15
ENDBRANCH   6   7
ENDBRANCH   3   6
ENDBRANCH   1   2
BRANCH   1  17
ATOM     17  C   UNL     1      94.679  97.213  73.627  1.00  0.00     0.010 C 
BRANCH  17  18
ATOM     18  C   UNL     1      94.847  96.431  74.959  1.00  0.00     0.001 C 
BRANCH  18  19
ATOM     19  C   UNL     1      93.997  95.134  75.023  1.00  0.00     0.000 C 
BRANCH  19  20
ATOM     20  C   UNL     1      94.137  94.407  76.392  1.00  0.00     0.003 C 
BRANCH  20  21
ATOM     21  C   UNL     1      93.101  94.842  77.479  1.00  0.00    -0.017 C 
ATOM     22  C   UNL     1      92.435  93.599  78.140  1.00  0.00     0.007 C 
ATOM     23  C   UNL     1      92.009  95.801  76.924  1.00  0.00     0.007 C 
ENDBRANCH  20  21
ENDBRANCH  19  20
ENDBRANCH  18  19
ENDBRANCH  17  18
ENDBRANCH   1  17
TORSDOF 10
ENDMDL
MODEL 5
REMARK VINA RESULT:    -5.779      2.436      3.651
REMARK INTER + INTRA:         -10.017
REMARK INTER:                  -9.253
REMARK INTRA:                  -0.764
REMARK UNBOUND:                -1.029
REMARK SMILES COc1cc(CNC(=O)CCCCCC(C)C)ccc1O
REMARK SMILES IDX 10 1 8 2 7 3 9 5 6 6 5 7 3 8 20 9 4 10 19 11 18 12 2 13 1 14
REMARK SMILES IDX 21 15 11 17 12 18 13 19 14 20 15 21 16 22 17 23
REMARK H PARENT 7 4 21 16
REMARK Flexibility Score: inf
ROOT
ATOM      1  C   UNL     1      92.557  94.605  77.608  1.00  0.00     0.100 C 
ENDROOT
BRANCH   1   2
ATOM      2  C   UNL     1      93.745  93.939  78.182  1.00  0.00     0.220 C 
ATOM      3  N   UNL     1      94.987  94.290  77.743  1.00  0.00    -0.352 N 
ATOM      4  H   UNL     1      94.996  94.905  76.941  1.00  0.00     0.163 HD
ATOM      5  O   UNL     1      93.587  93.092  79.095  1.00  0.00    -0.275 OA
BRANCH   3   6
ATOM      6  C   UNL     1      96.217  93.859  78.325  1.00  0.00     0.151 C 
BRANCH   6   7
ATOM      7  C   UNL     1      96.910  94.932  79.087  1.00  0.00    -0.025 A 
ATOM      8  C   UNL     1      98.424  95.625  80.897  1.00  0.00     0.160 A 
ATOM      9  C   UNL     1      98.283  96.971  80.496  1.00  0.00     0.157 A 
ATOM     10  C   UNL     1      97.722  94.617  80.202  1.00  0.00     0.056 A 
ATOM     11  C   UNL     1      97.457  97.299  79.405  1.00  0.00     0.050 A 
ATOM     12  C   UNL     1      96.780  96.288  78.703  1.00  0.00     0.009 A 
BRANCH   8  13
ATOM     13  O   UNL     1      99.208  95.287  81.969  1.00  0.00    -0.493 OA
ATOM     14  C   UNL     1      99.004  93.940  82.437  1.00  0.00     0.278 C 
ENDBRANCH   8  13
BRANCH   9  15
ATOM     15  O   UNL     1      98.952  97.948  81.159  1.00  0.00    -0.504 OA
ATOM     16  H   UNL     1      99.104  98.689  80.568  1.00  0.00     0.293 HD
ENDBRANCH   9  15
ENDBRANCH   6   7
ENDBRANCH   3   6
ENDBRANCH   1   2
BRANCH   1  17
ATOM     17  C   UNL     1      92.345  94.337  76.093  1.00  0.00     0.010 C 
BRANCH  17  18
ATOM     18  C   UNL     1      91.925  92.865  75.826  1.00  0.00     0.001 C 
BRANCH  18  19
ATOM     19  C   UNL     1      90.853  92.340  76.817  1.00  0.00     0.000 C 
BRANCH  19  20
ATOM     20  C   UNL     1      89.911  91.288  76.162  1.00  0.00     0.003 C 
BRANCH  20  21
ATOM     21  C   UNL     1      90.250  90.932  74.677  1.00  0.00    -0.017 C 
ATOM     22  C   UNL     1      89.010  91.141  73.759  1.00  0.00     0.007 C 
ATOM     23  C   UNL     1      90.799  89.485  74.513  1.00  0.00     0.007 C 
ENDBRANCH  20  21
ENDBRANCH  19  20
ENDBRANCH  18  19
ENDBRANCH  17  18
ENDBRANCH   1  17
TORSDOF 10
ENDMDL
MODEL 6
REMARK VINA RESULT:    -5.771      2.504      5.743
REMARK INTER + INTRA:         -10.004
REMARK INTER:                  -8.629
REMARK INTRA:                  -1.375
REMARK UNBOUND:                -1.029
REMARK SMILES COc1cc(CNC(=O)CCCCCC(C)C)ccc1O
REMARK SMILES IDX 10 1 8 2 7 3 9 5 6 6 5 7 3 8 20 9 4 10 19 11 18 12 2 13 1 14
REMARK SMILES IDX 21 15 11 17 12 18 13 19 14 20 15 21 16 22 17 23
REMARK H PARENT 7 4 21 16
REMARK Flexibility Score: inf
ROOT
ATOM      1  C   UNL     1      97.442  97.113  77.835  1.00  0.00     0.100 C 
ENDROOT
BRANCH   1   2
ATOM      2  C   UNL     1      96.730  96.736  76.596  1.00  0.00     0.220 C 
ATOM      3  N   UNL     1      95.658  95.898  76.669  1.00  0.00    -0.352 N 
ATOM      4  H   UNL     1      95.505  95.482  77.576  1.00  0.00     0.163 HD
ATOM      5  O   UNL     1      97.104  97.230  75.504  1.00  0.00    -0.275 OA
BRANCH   3   6
ATOM      6  C   UNL     1      94.780  95.590  75.585  1.00  0.00     0.151 C 
BRANCH   6   7
ATOM      7  C   UNL     1      93.443  95.115  76.033  1.00  0.00    -0.025 A 
ATOM      8  C   UNL     1      91.856  93.279  76.431  1.00  0.00     0.160 A 
ATOM      9  C   UNL     1      90.922  94.202  76.949  1.00  0.00     0.157 A 
ATOM     10  C   UNL     1      93.102  93.744  75.959  1.00  0.00     0.056 A 
ATOM     11  C   UNL     1      91.241  95.571  77.002  1.00  0.00     0.050 A 
ATOM     12  C   UNL     1      92.493  96.024  76.554  1.00  0.00     0.009 A 
BRANCH   8  13
ATOM     13  O   UNL     1      91.558  91.944  76.351  1.00  0.00    -0.493 OA
ATOM     14  C   UNL     1      91.166  91.513  75.034  1.00  0.00     0.278 C 
ENDBRANCH   8  13
BRANCH   9  15
ATOM     15  O   UNL     1      89.720  93.766  77.402  1.00  0.00    -0.504 OA
ATOM     16  H   UNL     1      89.844  93.283  78.223  1.00  0.00     0.293 HD
ENDBRANCH   9  15
ENDBRANCH   6   7
ENDBRANCH   3   6
ENDBRANCH   1   2
BRANCH   1  17
ATOM     17  C   UNL     1      98.406  96.023  78.375  1.00  0.00     0.010 C 
BRANCH  17  18
ATOM     18  C   UNL     1      98.137  95.714  79.874  1.00  0.00     0.001 C 
BRANCH  18  19
ATOM     19  C   UNL     1      97.338  94.403  80.100  1.00  0.00     0.000 C 
BRANCH  19  20
ATOM     20  C   UNL     1      95.803  94.621  79.973  1.00  0.00     0.003 C 
BRANCH  20  21
ATOM     21  C   UNL     1      95.059  93.573  79.083  1.00  0.00    -0.017 C 
ATOM     22  C   UNL     1      94.243  92.578  79.960  1.00  0.00     0.007 C 
ATOM     23  C   UNL     1      96.019  92.790  78.141  1.00  0.00     0.007 C 
ENDBRANCH  20  21
ENDBRANCH  19  20
ENDBRANCH  18  19
ENDBRANCH  17  18
ENDBRANCH   1  17
TORSDOF 10
ENDMDL
MODEL 7
REMARK VINA RESULT:    -5.666      2.993      4.716
REMARK INTER + INTRA:          -9.842
REMARK INTER:                  -8.987
REMARK INTRA:                  -0.856
REMARK UNBOUND:                -1.029
REMARK SMILES COc1cc(CNC(=O)CCCCCC(C)C)ccc1O
REMARK SMILES IDX 10 1 8 2 7 3 9 5 6 6 5 7 3 8 20 9 4 10 19 11 18 12 2 13 1 14
REMARK SMILES IDX 21 15 11 17 12 18 13 19 14 20 15 21 16 22 17 23
REMARK H PARENT 7 4 21 16
REMARK Flexibility Score: inf
ROOT
ATOM      1  C   UNL     1      95.703  92.649  78.660  1.00  0.00     0.100 C 
ENDROOT
BRANCH   1   2
ATOM      2  C   UNL     1      95.685  93.248  80.010  1.00  0.00     0.220 C 
ATOM      3  N   UNL     1      96.132  94.524  80.182  1.00  0.00    -0.352 N 
ATOM      4  H   UNL     1      96.577  94.932  79.372  1.00  0.00     0.163 HD
ATOM      5  O   UNL     1      95.217  92.582  80.966  1.00  0.00    -0.275 OA
BRANCH   3   6
ATOM      6  C   UNL     1      96.011  95.282  81.387  1.00  0.00     0.151 C 
BRANCH   6   7
ATOM      7  C   UNL     1      96.418  96.704  81.226  1.00  0.00    -0.025 A 
ATOM      8  C   UNL     1      97.339  98.514  79.840  1.00  0.00     0.160 A 
ATOM      9  C   UNL     1      97.132  99.426  80.897  1.00  0.00     0.157 A 
ATOM     10  C   UNL     1      96.999  97.156  80.017  1.00  0.00     0.056 A 
ATOM     11  C   UNL     1      96.579  98.981  82.112  1.00  0.00     0.050 A 
ATOM     12  C   UNL     1      96.220  97.633  82.274  1.00  0.00     0.009 A 
BRANCH   8  13
ATOM     13  O   UNL     1      97.894  98.923  78.655  1.00  0.00    -0.493 OA
ATOM     14  C   UNL     1      97.993  97.878  77.668  1.00  0.00     0.278 C 
ENDBRANCH   8  13
BRANCH   9  15
ATOM     15  O   UNL     1      97.457 100.733  80.737  1.00  0.00    -0.504 OA
ATOM     16  H   UNL     1      98.215 100.805  80.153  1.00  0.00     0.293 HD
ENDBRANCH   9  15
ENDBRANCH   6   7
ENDBRANCH   3   6
ENDBRANCH   1   2
BRANCH   1  17
ATOM     17  C   UNL     1      95.691  93.683  77.502  1.00  0.00     0.010 C 
BRANCH  17  18
ATOM     18  C   UNL     1      94.355  93.641  76.711  1.00  0.00     0.001 C 
BRANCH  18  19
ATOM     19  C   UNL     1      93.204  94.416  77.404  1.00  0.00     0.000 C 
BRANCH  19  20
ATOM     20  C   UNL     1      92.191  93.464  78.104  1.00  0.00     0.003 C 
BRANCH  20  21
ATOM     21  C   UNL     1      90.779  93.396  77.437  1.00  0.00    -0.017 C 
ATOM     22  C   UNL     1      90.730  92.276  76.355  1.00  0.00     0.007 C 
ATOM     23  C   UNL     1      90.336  94.754  76.819  1.00  0.00     0.007 C 
ENDBRANCH  20  21
ENDBRANCH  19  20
ENDBRANCH  18  19
ENDBRANCH  17  18
ENDBRANCH   1  17
TORSDOF 10
ENDMDL
MODEL 8
REMARK VINA RESULT:    -5.526      4.315      7.748
REMARK INTER + INTRA:          -9.625
REMARK INTER:                  -8.984
REMARK INTRA:                  -0.641
REMARK UNBOUND:                -1.029
REMARK SMILES COc1cc(CNC(=O)CCCCCC(C)C)ccc1O
REMARK SMILES IDX 10 1 8 2 7 3 9 5 6 6 5 7 3 8 20 9 4 10 19 11 18 12 2 13 1 14
REMARK SMILES IDX 21 15 11 17 12 18 13 19 14 20 15 21 16 22 17 23
REMARK H PARENT 7 4 21 16
REMARK Flexibility Score: inf
ROOT
ATOM      1  C   UNL     1      96.248  95.409  81.749  1.00  0.00     0.100 C 
ENDROOT
BRANCH   1   2
ATOM      2  C   UNL     1      96.154  94.647  80.486  1.00  0.00     0.220 C 
ATOM      3  N   UNL     1      94.935  94.466  79.903  1.00  0.00    -0.352 N 
ATOM      4  H   UNL     1      94.148  94.763  80.462  1.00  0.00     0.163 HD
ATOM      5  O   UNL     1      97.206  94.218  79.954  1.00  0.00    -0.275 OA
BRANCH   3   6
ATOM      6  C   UNL     1      94.719  93.906  78.607  1.00  0.00     0.151 C 
BRANCH   6   7
ATOM      7  C   UNL     1      93.367  94.199  78.062  1.00  0.00    -0.025 A 
ATOM      8  C   UNL     1      91.049  93.505  77.622  1.00  0.00     0.160 A 
ATOM      9  C   UNL     1      90.772  94.780  77.084  1.00  0.00     0.157 A 
ATOM     10  C   UNL     1      92.348  93.216  78.089  1.00  0.00     0.056 A 
ATOM     11  C   UNL     1      91.784  95.756  77.027  1.00  0.00     0.050 A 
ATOM     12  C   UNL     1      93.070  95.470  77.517  1.00  0.00     0.009 A 
BRANCH   8  13
ATOM     13  O   UNL     1      90.083  92.535  77.668  1.00  0.00    -0.493 OA
ATOM     14  C   UNL     1      90.109  91.633  76.545  1.00  0.00     0.278 C 
ENDBRANCH   8  13
BRANCH   9  15
ATOM     15  O   UNL     1      89.526  95.067  76.630  1.00  0.00    -0.504 OA
ATOM     16  H   UNL     1      89.259  94.405  75.988  1.00  0.00     0.293 HD
ENDBRANCH   9  15
ENDBRANCH   6   7
ENDBRANCH   3   6
ENDBRANCH   1   2
BRANCH   1  17
ATOM     17  C   UNL     1      95.961  96.928  81.601  1.00  0.00     0.010 C 
BRANCH  17  18
ATOM     18  C   UNL     1      97.172  97.682  80.987  1.00  0.00     0.001 C 
BRANCH  18  19
ATOM     19  C   UNL     1      97.125  99.216  81.220  1.00  0.00     0.000 C 
BRANCH  19  20
ATOM     20  C   UNL     1      97.186  99.583  82.731  1.00  0.00     0.003 C 
BRANCH  20  21
ATOM     21  C   UNL     1      95.827 100.037  83.356  1.00  0.00    -0.017 C 
ATOM     22  C   UNL     1      95.002 100.880  82.338  1.00  0.00     0.007 C 
ATOM     23  C   UNL     1      96.006 100.830  84.683  1.00  0.00     0.007 C 
ENDBRANCH  20  21
ENDBRANCH  19  20
ENDBRANCH  18  19
ENDBRANCH  17  18
ENDBRANCH   1  17
TORSDOF 10
ENDMDL
MODEL 9
REMARK VINA RESULT:    -5.499      2.280      4.194
REMARK INTER + INTRA:          -9.581
REMARK INTER:                  -8.870
REMARK INTRA:                  -0.711
REMARK UNBOUND:                -1.029
REMARK SMILES COc1cc(CNC(=O)CCCCCC(C)C)ccc1O
REMARK SMILES IDX 10 1 8 2 7 3 9 5 6 6 5 7 3 8 20 9 4 10 19 11 18 12 2 13 1 14
REMARK SMILES IDX 21 15 11 17 12 18 13 19 14 20 15 21 16 22 17 23
REMARK H PARENT 7 4 21 16
REMARK Flexibility Score: inf
ROOT
ATOM      1  C   UNL     1      92.911  94.479  77.494  1.00  0.00     0.100 C 
ENDROOT
BRANCH   1   2
ATOM      2  C   UNL     1      93.719  93.896  78.585  1.00  0.00     0.220 C 
ATOM      3  N   UNL     1      94.874  94.511  78.965  1.00  0.00    -0.352 N 
ATOM      4  H   UNL     1      95.168  95.271  78.368  1.00  0.00     0.163 HD
ATOM      5  O   UNL     1      93.302  92.866  79.168  1.00  0.00    -0.275 OA
BRANCH   3   6
ATOM      6  C   UNL     1      95.656  94.159  80.107  1.00  0.00     0.151 C 
BRANCH   6   7
ATOM      7  C   UNL     1      97.077  94.585  79.996  1.00  0.00    -0.025 A 
ATOM      8  C   UNL     1      98.868  95.740  78.769  1.00  0.00     0.160 A 
ATOM      9  C   UNL     1      99.768  95.453  79.816  1.00  0.00     0.157 A 
ATOM     10  C   UNL     1      97.534  95.289  78.857  1.00  0.00     0.056 A 
ATOM     11  C   UNL     1      99.332  94.730  80.942  1.00  0.00     0.050 A 
ATOM     12  C   UNL     1      97.996  94.304  81.034  1.00  0.00     0.009 A 
BRANCH   8  13
ATOM     13  O   UNL     1      99.277  96.425  77.655  1.00  0.00    -0.493 OA
ATOM     14  C   UNL     1      98.881  97.810  77.645  1.00  0.00     0.278 C 
ENDBRANCH   8  13
BRANCH   9  15
ATOM     15  O   UNL     1     101.053  95.880  79.741  1.00  0.00    -0.504 OA
ATOM     16  H   UNL     1     101.507  95.680  80.563  1.00  0.00     0.293 HD
ENDBRANCH   9  15
ENDBRANCH   6   7
ENDBRANCH   3   6
ENDBRANCH   1   2
BRANCH   1  17
ATOM     17  C   UNL     1      93.013  93.716  76.146  1.00  0.00     0.010 C 
BRANCH  17  18
ATOM     18  C   UNL     1      91.615  93.273  75.633  1.00  0.00     0.001 C 
BRANCH  18  19
ATOM     19  C   UNL     1      90.746  92.591  76.722  1.00  0.00     0.000 C 
BRANCH  19  20
ATOM     20  C   UNL     1      90.215  91.201  76.266  1.00  0.00     0.003 C 
BRANCH  20  21
ATOM     21  C   UNL     1      90.423  90.879  74.750  1.00  0.00    -0.017 C 
ATOM     22  C   UNL     1      89.131  91.180  73.935  1.00  0.00     0.007 C 
ATOM     23  C   UNL     1      90.882  89.413  74.501  1.00  0.00     0.007 C 
ENDBRANCH  20  21
ENDBRANCH  19  20
ENDBRANCH  18  19
ENDBRANCH  17  18
ENDBRANCH   1  17
TORSDOF 10
ENDMDL
MODEL 10
REMARK VINA RESULT:    -5.471      4.532      7.455
REMARK INTER + INTRA:          -9.538
REMARK INTER:                  -8.816
REMARK INTRA:                  -0.722
REMARK UNBOUND:                -1.029
REMARK SMILES COc1cc(CNC(=O)CCCCCC(C)C)ccc1O
REMARK SMILES IDX 10 1 8 2 7 3 9 5 6 6 5 7 3 8 20 9 4 10 19 11 18 12 2 13 1 14
REMARK SMILES IDX 21 15 11 17 12 18 13 19 14 20 15 21 16 22 17 23
REMARK H PARENT 7 4 21 16
REMARK Flexibility Score: inf
ROOT
ATOM      1  C   UNL     1      96.130  96.299  82.005  1.00  0.00     0.100 C 
ENDROOT
BRANCH   1   2
ATOM      2  C   UNL     1      96.272  95.456  80.799  1.00  0.00     0.220 C 
ATOM      3  N   UNL     1      95.439  94.391  80.625  1.00  0.00    -0.352 N 
ATOM      4  H   UNL     1      94.854  94.174  81.420  1.00  0.00     0.163 HD
ATOM      5  O   UNL     1      97.132  95.764  79.938  1.00  0.00    -0.275 OA
BRANCH   3   6
ATOM      6  C   UNL     1      95.350  93.603  79.437  1.00  0.00     0.151 C 
BRANCH   6   7
ATOM      7  C   UNL     1      94.140  93.904  78.626  1.00  0.00    -0.025 A 
ATOM      8  C   UNL     1      92.994  95.269  76.931  1.00  0.00     0.160 A 
ATOM      9  C   UNL     1      91.859  94.437  77.031  1.00  0.00     0.157 A 
ATOM     10  C   UNL     1      94.119  95.009  77.742  1.00  0.00     0.056 A 
ATOM     11  C   UNL     1      91.858  93.351  77.926  1.00  0.00     0.050 A 
ATOM     12  C   UNL     1      92.991  93.083  78.713  1.00  0.00     0.009 A 
BRANCH   8  13
ATOM     13  O   UNL     1      93.008  96.343  76.080  1.00  0.00    -0.493 OA
ATOM     14  C   UNL     1      93.664  96.083  74.825  1.00  0.00     0.278 C 
ENDBRANCH   8  13
BRANCH   9  15
ATOM     15  O   UNL     1      90.771  94.679  76.258  1.00  0.00    -0.504 OA
ATOM     16  H   UNL     1      90.323  95.468  76.573  1.00  0.00     0.293 HD
ENDBRANCH   9  15
ENDBRANCH   6   7
ENDBRANCH   3   6
ENDBRANCH   1   2
BRANCH   1  17
ATOM     17  C   UNL     1      95.908  97.806  81.707  1.00  0.00     0.010 C 
BRANCH  17  18
ATOM     18  C   UNL     1      97.111  98.667  82.183  1.00  0.00     0.001 C 
BRANCH  18  19
ATOM     19  C   UNL     1      96.779 100.178  82.299  1.00  0.00     0.000 C 
BRANCH  19  20
ATOM     20  C   UNL     1      95.249 100.438  82.410  1.00  0.00     0.003 C 
BRANCH  20  21
ATOM     21  C   UNL     1      94.792 101.876  82.000  1.00  0.00    -0.017 C 
ATOM     22  C   UNL     1      93.283 102.091  82.320  1.00  0.00     0.007 C 
ATOM     23  C   UNL     1      95.070 102.194  80.502  1.00  0.00     0.007 C 
ENDBRANCH  20  21
ENDBRANCH  19  20
ENDBRANCH  18  19
ENDBRANCH  17  18
ENDBRANCH   1  17
TORSDOF 10
ENDMDL
