MODEL 1
REMARK VINA RESULT:    -6.255      0.000      0.000
REMARK INTER + INTRA:         -10.817
REMARK INTER:                 -10.094
REMARK INTRA:                  -0.723
REMARK UNBOUND:                -0.723
REMARK SMILES CCCCCCCCC(=O)NCc1ccc(O)c(OC)c1
REMARK SMILES IDX 7 1 6 2 5 3 4 4 3 5 2 6 1 7 8 8 9 9 10 10 11 11 12 13 13 14
REMARK SMILES IDX 21 15 14 16 18 17 15 18 16 19 19 20 20 21 17 22
REMARK H PARENT 11 12 17 23
REMARK Flexibility Score: inf
ROOT
ATOM      1  C   UNL     1      78.585  64.656  68.646  1.00  0.00     0.010 C 
ENDROOT
BRANCH   1   2
ATOM      2  C   UNL     1      78.019  63.355  68.007  1.00  0.00     0.001 C 
BRANCH   2   3
ATOM      3  C   UNL     1      77.199  63.642  66.715  1.00  0.00     0.000 C 
BRANCH   3   4
ATOM      4  C   UNL     1      75.802  62.960  66.695  1.00  0.00    -0.000 C 
BRANCH   4   5
ATOM      5  C   UNL     1      74.886  63.434  67.860  1.00  0.00    -0.000 C 
BRANCH   5   6
ATOM      6  C   UNL     1      74.537  64.944  67.767  1.00  0.00    -0.003 C 
ATOM      7  C   UNL     1      75.102  65.764  68.948  1.00  0.00     0.004 C 
ENDBRANCH   5   6
ENDBRANCH   4   5
ENDBRANCH   3   4
ENDBRANCH   2   3
ENDBRANCH   1   2
BRANCH   1   8
ATOM      8  C   UNL     1      79.813  64.421  69.570  1.00  0.00     0.100 C 
BRANCH   8   9
ATOM      9  C   UNL     1      79.855  65.410  70.674  1.00  0.00     0.220 C 
ATOM     10  O   UNL     1      78.955  66.282  70.726  1.00  0.00    -0.275 OA
ATOM     11  N   UNL     1      80.834  65.348  71.624  1.00  0.00    -0.352 N 
ATOM     12  H   UNL     1      81.553  64.665  71.438  1.00  0.00     0.163 HD
BRANCH  11  13
ATOM     13  C   UNL     1      80.902  66.150  72.807  1.00  0.00     0.151 C 
BRANCH  13  14
ATOM     14  C   UNL     1      82.270  66.262  73.380  1.00  0.00    -0.025 A 
ATOM     15  C   UNL     1      83.076  67.388  73.086  1.00  0.00     0.056 A 
ATOM     16  C   UNL     1      82.791  65.251  74.221  1.00  0.00     0.009 A 
ATOM     17  C   UNL     1      84.371  67.516  73.637  1.00  0.00     0.160 A 
ATOM     18  C   UNL     1      84.078  65.373  74.773  1.00  0.00     0.050 A 
ATOM     19  C   UNL     1      84.873  66.497  74.479  1.00  0.00     0.157 A 
BRANCH  17  20
ATOM     20  O   UNL     1      85.167  68.587  73.318  1.00  0.00    -0.493 OA
ATOM     21  C   UNL     1      84.553  69.529  72.419  1.00  0.00     0.278 C 
ENDBRANCH  17  20
BRANCH  19  22
ATOM     22  O   UNL     1      86.125  66.593  74.994  1.00  0.00    -0.504 OA
ATOM     23  H   UNL     1      86.453  67.488  74.876  1.00  0.00     0.293 HD
ENDBRANCH  19  22
ENDBRANCH  13  14
ENDBRANCH  11  13
ENDBRANCH   8   9
ENDBRANCH   1   8
TORSDOF 11
ENDMDL
MODEL 2
REMARK VINA RESULT:    -5.806      1.194      2.179
REMARK INTER + INTRA:         -10.094
REMARK INTER:                  -9.335
REMARK INTRA:                  -0.758
REMARK UNBOUND:                -0.723
REMARK SMILES CCCCCCCCC(=O)NCc1ccc(O)c(OC)c1
REMARK SMILES IDX 7 1 6 2 5 3 4 4 3 5 2 6 1 7 8 8 9 9 10 10 11 11 12 13 13 14
REMARK SMILES IDX 21 15 14 16 18 17 15 18 16 19 19 20 20 21 17 22
REMARK H PARENT 11 12 17 23
REMARK Flexibility Score: inf
ROOT
ATOM      1  C   UNL     1      78.782  64.752  69.815  1.00  0.00     0.010 C 
ENDROOT
BRANCH   1   2
ATOM      2  C   UNL     1      78.387  63.444  69.071  1.00  0.00     0.001 C 
BRANCH   2   3
ATOM      3  C   UNL     1      78.214  63.667  67.539  1.00  0.00     0.000 C 
BRANCH   3   4
ATOM      4  C   UNL     1      76.802  63.293  67.007  1.00  0.00    -0.000 C 
BRANCH   4   5
ATOM      5  C   UNL     1      76.083  64.489  66.320  1.00  0.00    -0.000 C 
BRANCH   5   6
ATOM      6  C   UNL     1      75.997  65.739  67.237  1.00  0.00    -0.003 C 
ATOM      7  C   UNL     1      75.204  65.476  68.537  1.00  0.00     0.004 C 
ENDBRANCH   5   6
ENDBRANCH   4   5
ENDBRANCH   3   4
ENDBRANCH   2   3
ENDBRANCH   1   2
BRANCH   1   8
ATOM      8  C   UNL     1      80.313  64.916  70.030  1.00  0.00     0.100 C 
BRANCH   8   9
ATOM      9  C   UNL     1      80.610  65.516  71.353  1.00  0.00     0.220 C 
ATOM     10  O   UNL     1      79.736  66.238  71.890  1.00  0.00    -0.275 OA
ATOM     11  N   UNL     1      81.797  65.263  71.979  1.00  0.00    -0.352 N 
ATOM     12  H   UNL     1      82.460  64.744  71.422  1.00  0.00     0.163 HD
BRANCH  11  13
ATOM     13  C   UNL     1      82.144  65.664  73.308  1.00  0.00     0.151 C 
BRANCH  13  14
ATOM     14  C   UNL     1      83.147  66.762  73.362  1.00  0.00    -0.025 A 
ATOM     15  C   UNL     1      84.087  66.815  74.418  1.00  0.00     0.056 A 
ATOM     16  C   UNL     1      83.177  67.768  72.369  1.00  0.00     0.009 A 
ATOM     17  C   UNL     1      85.057  67.842  74.474  1.00  0.00     0.160 A 
ATOM     18  C   UNL     1      84.140  68.792  72.418  1.00  0.00     0.050 A 
ATOM     19  C   UNL     1      85.075  68.837  73.470  1.00  0.00     0.157 A 
BRANCH  17  20
ATOM     20  O   UNL     1      85.941  67.917  75.521  1.00  0.00    -0.493 OA
ATOM     21  C   UNL     1      87.095  67.070  75.378  1.00  0.00     0.278 C 
ENDBRANCH  17  20
BRANCH  19  22
ATOM     22  O   UNL     1      85.983  69.845  73.524  1.00  0.00    -0.504 OA
ATOM     23  H   UNL     1      85.798  70.403  74.283  1.00  0.00     0.293 HD
ENDBRANCH  19  22
ENDBRANCH  13  14
ENDBRANCH  11  13
ENDBRANCH   8   9
ENDBRANCH   1   8
TORSDOF 11
ENDMDL
MODEL 3
REMARK VINA RESULT:    -5.703     29.063     33.953
REMARK INTER + INTRA:          -9.927
REMARK INTER:                  -9.280
REMARK INTRA:                  -0.647
REMARK UNBOUND:                -0.723
REMARK SMILES CCCCCCCCC(=O)NCc1ccc(O)c(OC)c1
REMARK SMILES IDX 7 1 6 2 5 3 4 4 3 5 2 6 1 7 8 8 9 9 10 10 11 11 12 13 13 14
REMARK SMILES IDX 21 15 14 16 18 17 15 18 16 19 19 20 20 21 17 22
REMARK H PARENT 11 12 17 23
REMARK Flexibility Score: inf
ROOT
ATOM      1  C   UNL     1      91.849  96.212  76.783  1.00  0.00     0.010 C 
ENDROOT
BRANCH   1   2
ATOM      2  C   UNL     1      91.836  94.797  77.429  1.00  0.00     0.001 C 
BRANCH   2   3
ATOM      3  C   UNL     1      90.405  94.185  77.475  1.00  0.00     0.000 C 
BRANCH   3   4
ATOM      4  C   UNL     1      90.282  92.820  76.741  1.00  0.00    -0.000 C 
BRANCH   4   5
ATOM      5  C   UNL     1      90.175  92.976  75.197  1.00  0.00    -0.000 C 
BRANCH   5   6
ATOM      6  C   UNL     1      90.483  91.656  74.441  1.00  0.00    -0.003 C 
ATOM      7  C   UNL     1      89.226  90.789  74.211  1.00  0.00     0.004 C 
ENDBRANCH   5   6
ENDBRANCH   4   5
ENDBRANCH   3   4
ENDBRANCH   2   3
ENDBRANCH   1   2
BRANCH   1   8
ATOM      8  C   UNL     1      93.086  97.070  77.173  1.00  0.00     0.100 C 
BRANCH   8   9
ATOM      9  C   UNL     1      94.164  96.953  76.163  1.00  0.00     0.220 C 
ATOM     10  O   UNL     1      95.355  96.970  76.558  1.00  0.00    -0.275 OA
ATOM     11  N   UNL     1      93.863  96.801  74.840  1.00  0.00    -0.352 N 
ATOM     12  H   UNL     1      92.881  96.888  74.623  1.00  0.00     0.163 HD
BRANCH  11  13
ATOM     13  C   UNL     1      94.802  96.538  73.793  1.00  0.00     0.151 C 
BRANCH  13  14
ATOM     14  C   UNL     1      94.702  97.479  72.645  1.00  0.00    -0.025 A 
ATOM     15  C   UNL     1      95.561  97.335  71.529  1.00  0.00     0.056 A 
ATOM     16  C   UNL     1      93.757  98.530  72.647  1.00  0.00     0.009 A 
ATOM     17  C   UNL     1      95.466  98.210  70.423  1.00  0.00     0.160 A 
ATOM     18  C   UNL     1      93.656  99.403  71.549  1.00  0.00     0.050 A 
ATOM     19  C   UNL     1      94.512  99.253  70.441  1.00  0.00     0.157 A 
BRANCH  17  20
ATOM     20  O   UNL     1      96.328  98.095  69.361  1.00  0.00    -0.493 OA
ATOM     21  C   UNL     1      97.665  98.548  69.637  1.00  0.00     0.278 C 
ENDBRANCH  17  20
BRANCH  19  22
ATOM     22  O   UNL     1      94.426 100.118  69.399  1.00  0.00    -0.504 OA
ATOM     23  H   UNL     1      93.902  99.723  68.698  1.00  0.00     0.293 HD
ENDBRANCH  19  22
ENDBRANCH  13  14
ENDBRANCH  11  13
ENDBRANCH   8   9
ENDBRANCH   1   8
TORSDOF 11
ENDMDL
MODEL 4
REMARK VINA RESULT:    -5.700      1.906      2.736
REMARK INTER + INTRA:          -9.922
REMARK INTER:                  -9.117
REMARK INTRA:                  -0.805
REMARK UNBOUND:                -0.723
REMARK SMILES CCCCCCCCC(=O)NCc1ccc(O)c(OC)c1
REMARK SMILES IDX 7 1 6 2 5 3 4 4 3 5 2 6 1 7 8 8 9 9 10 10 11 11 12 13 13 14
REMARK SMILES IDX 21 15 14 16 18 17 15 18 16 19 19 20 20 21 17 22
REMARK H PARENT 11 12 17 23
REMARK Flexibility Score: inf
ROOT
ATOM      1  C   UNL     1      78.997  64.651  69.884  1.00  0.00     0.010 C 
ENDROOT
BRANCH   1   2
ATOM      2  C   UNL     1      77.791  64.692  68.903  1.00  0.00     0.001 C 
BRANCH   2   3
ATOM      3  C   UNL     1      77.958  63.690  67.722  1.00  0.00     0.000 C 
BRANCH   3   4
ATOM      4  C   UNL     1      76.615  63.270  67.062  1.00  0.00    -0.000 C 
BRANCH   4   5
ATOM      5  C   UNL     1      75.390  64.014  67.665  1.00  0.00    -0.000 C 
BRANCH   5   6
ATOM      6  C   UNL     1      74.762  65.029  66.673  1.00  0.00    -0.003 C 
ATOM      7  C   UNL     1      75.712  66.197  66.327  1.00  0.00     0.004 C 
ENDBRANCH   5   6
ENDBRANCH   4   5
ENDBRANCH   3   4
ENDBRANCH   2   3
ENDBRANCH   1   2
BRANCH   1   8
ATOM      8  C   UNL     1      79.990  63.485  69.614  1.00  0.00     0.100 C 
BRANCH   8   9
ATOM      9  C   UNL     1      81.384  63.879  69.929  1.00  0.00     0.220 C 
ATOM     10  O   UNL     1      82.243  62.974  70.061  1.00  0.00    -0.275 OA
ATOM     11  N   UNL     1      81.724  65.197  70.043  1.00  0.00    -0.352 N 
ATOM     12  H   UNL     1      80.942  65.834  70.005  1.00  0.00     0.163 HD
BRANCH  11  13
ATOM     13  C   UNL     1      83.051  65.706  70.202  1.00  0.00     0.151 C 
BRANCH  13  14
ATOM     14  C   UNL     1      83.353  66.178  71.581  1.00  0.00    -0.025 A 
ATOM     15  C   UNL     1      83.409  65.256  72.653  1.00  0.00     0.056 A 
ATOM     16  C   UNL     1      83.583  67.548  71.846  1.00  0.00     0.009 A 
ATOM     17  C   UNL     1      83.712  65.687  73.965  1.00  0.00     0.160 A 
ATOM     18  C   UNL     1      83.885  67.983  73.148  1.00  0.00     0.050 A 
ATOM     19  C   UNL     1      83.943  67.059  74.210  1.00  0.00     0.157 A 
BRANCH  17  20
ATOM     20  O   UNL     1      83.724  64.798  75.010  1.00  0.00    -0.493 OA
ATOM     21  C   UNL     1      84.860  63.915  75.018  1.00  0.00     0.278 C 
ENDBRANCH  17  20
BRANCH  19  22
ATOM     22  O   UNL     1      84.208  67.493  75.469  1.00  0.00    -0.504 OA
ATOM     23  H   UNL     1      84.043  68.437  75.523  1.00  0.00     0.293 HD
ENDBRANCH  19  22
ENDBRANCH  13  14
ENDBRANCH  11  13
ENDBRANCH   8   9
ENDBRANCH   1   8
TORSDOF 11
ENDMDL
MODEL 5
REMARK VINA RESULT:    -5.547     29.352     34.214
REMARK INTER + INTRA:          -9.675
REMARK INTER:                  -9.141
REMARK INTRA:                  -0.534
REMARK UNBOUND:                -0.723
REMARK SMILES CCCCCCCCC(=O)NCc1ccc(O)c(OC)c1
REMARK SMILES IDX 7 1 6 2 5 3 4 4 3 5 2 6 1 7 8 8 9 9 10 10 11 11 12 13 13 14
REMARK SMILES IDX 21 15 14 16 18 17 15 18 16 19 19 20 20 21 17 22
REMARK H PARENT 11 12 17 23
REMARK Flexibility Score: inf
ROOT
ATOM      1  C   UNL     1      93.829 100.241  73.546  1.00  0.00     0.010 C 
ENDROOT
BRANCH   1   2
ATOM      2  C   UNL     1      94.102  99.830  72.071  1.00  0.00     0.001 C 
BRANCH   2   3
ATOM      3  C   UNL     1      93.098 100.489  71.080  1.00  0.00     0.000 C 
BRANCH   3   4
ATOM      4  C   UNL     1      91.606 100.276  71.465  1.00  0.00    -0.000 C 
BRANCH   4   5
ATOM      5  C   UNL     1      90.703  99.992  70.231  1.00  0.00    -0.000 C 
BRANCH   5   6
ATOM      6  C   UNL     1      89.200 100.249  70.521  1.00  0.00    -0.003 C 
ATOM      7  C   UNL     1      88.623 101.425  69.702  1.00  0.00     0.004 C 
ENDBRANCH   5   6
ENDBRANCH   4   5
ENDBRANCH   3   4
ENDBRANCH   2   3
ENDBRANCH   1   2
BRANCH   1   8
ATOM      8  C   UNL     1      94.887  99.711  74.554  1.00  0.00     0.100 C 
BRANCH   8   9
ATOM      9  C   UNL     1      95.061  98.243  74.431  1.00  0.00     0.220 C 
ATOM     10  O   UNL     1      96.171  97.806  74.043  1.00  0.00    -0.275 OA
ATOM     11  N   UNL     1      94.045  97.394  74.763  1.00  0.00    -0.352 N 
ATOM     12  H   UNL     1      93.171  97.853  74.979  1.00  0.00     0.163 HD
BRANCH  11  13
ATOM     13  C   UNL     1      94.133  95.967  74.823  1.00  0.00     0.151 C 
BRANCH  13  14
ATOM     14  C   UNL     1      93.063  95.332  75.637  1.00  0.00    -0.025 A 
ATOM     15  C   UNL     1      92.025  94.605  75.006  1.00  0.00     0.056 A 
ATOM     16  C   UNL     1      93.059  95.443  77.047  1.00  0.00     0.009 A 
ATOM     17  C   UNL     1      91.010  93.981  75.768  1.00  0.00     0.160 A 
ATOM     18  C   UNL     1      92.053  94.824  77.810  1.00  0.00     0.050 A 
ATOM     19  C   UNL     1      91.025  94.100  77.176  1.00  0.00     0.157 A 
BRANCH  17  20
ATOM     20  O   UNL     1      89.981  93.314  75.152  1.00  0.00    -0.493 OA
ATOM     21  C   UNL     1      90.318  91.983  74.721  1.00  0.00     0.278 C 
ENDBRANCH  17  20
BRANCH  19  22
ATOM     22  O   UNL     1      90.043  93.529  77.920  1.00  0.00    -0.504 OA
ATOM     23  H   UNL     1      89.755  92.716  77.499  1.00  0.00     0.293 HD
ENDBRANCH  19  22
ENDBRANCH  13  14
ENDBRANCH  11  13
ENDBRANCH   8   9
ENDBRANCH   1   8
TORSDOF 11
ENDMDL
MODEL 6
REMARK VINA RESULT:    -5.274     31.636     35.361
REMARK INTER + INTRA:          -9.234
REMARK INTER:                  -8.433
REMARK INTRA:                  -0.801
REMARK UNBOUND:                -0.723
REMARK SMILES CCCCCCCCC(=O)NCc1ccc(O)c(OC)c1
REMARK SMILES IDX 7 1 6 2 5 3 4 4 3 5 2 6 1 7 8 8 9 9 10 10 11 11 12 13 13 14
REMARK SMILES IDX 21 15 14 16 18 17 15 18 16 19 19 20 20 21 17 22
REMARK H PARENT 11 12 17 23
REMARK Flexibility Score: inf
ROOT
ATOM      1  C   UNL     1      94.707  97.639  77.783  1.00  0.00     0.010 C 
ENDROOT
BRANCH   1   2
ATOM      2  C   UNL     1      94.572  96.252  78.477  1.00  0.00     0.001 C 
BRANCH   2   3
ATOM      3  C   UNL     1      93.884  95.199  77.559  1.00  0.00     0.000 C 
BRANCH   3   4
ATOM      4  C   UNL     1      92.374  94.991  77.865  1.00  0.00    -0.000 C 
BRANCH   4   5
ATOM      5  C   UNL     1      91.450  95.651  76.803  1.00  0.00    -0.000 C 
BRANCH   5   6
ATOM      6  C   UNL     1      90.111  94.886  76.621  1.00  0.00    -0.003 C 
ATOM      7  C   UNL     1      90.091  93.527  77.355  1.00  0.00     0.004 C 
ENDBRANCH   5   6
ENDBRANCH   4   5
ENDBRANCH   3   4
ENDBRANCH   2   3
ENDBRANCH   1   2
BRANCH   1   8
ATOM      8  C   UNL     1      95.608  97.623  76.517  1.00  0.00     0.100 C 
BRANCH   8   9
ATOM      9  C   UNL     1      94.881  98.138  75.331  1.00  0.00     0.220 C 
ATOM     10  O   UNL     1      94.687  99.374  75.242  1.00  0.00    -0.275 OA
ATOM     11  N   UNL     1      94.463  97.285  74.350  1.00  0.00    -0.352 N 
ATOM     12  H   UNL     1      94.593  96.307  74.563  1.00  0.00     0.163 HD
BRANCH  11  13
ATOM     13  C   UNL     1      93.881  97.670  73.100  1.00  0.00     0.151 C 
BRANCH  13  14
ATOM     14  C   UNL     1      94.874  97.866  72.010  1.00  0.00    -0.025 A 
ATOM     15  C   UNL     1      94.629  98.811  70.985  1.00  0.00     0.056 A 
ATOM     16  C   UNL     1      96.072  97.116  71.975  1.00  0.00     0.009 A 
ATOM     17  C   UNL     1      95.571  99.021  69.952  1.00  0.00     0.160 A 
ATOM     18  C   UNL     1      97.014  97.321  70.951  1.00  0.00     0.050 A 
ATOM     19  C   UNL     1      96.765  98.264  69.935  1.00  0.00     0.157 A 
BRANCH  17  20
ATOM     20  O   UNL     1      95.313  99.906  68.936  1.00  0.00    -0.493 OA
ATOM     21  C   UNL     1      95.460 101.288  69.308  1.00  0.00     0.278 C 
ENDBRANCH  17  20
BRANCH  19  22
ATOM     22  O   UNL     1      97.668  98.435  68.936  1.00  0.00    -0.504 OA
ATOM     23  H   UNL     1      98.290  99.123  69.181  1.00  0.00     0.293 HD
ENDBRANCH  19  22
ENDBRANCH  13  14
ENDBRANCH  11  13
ENDBRANCH   8   9
ENDBRANCH   1   8
TORSDOF 11
ENDMDL
MODEL 7
REMARK VINA RESULT:    -5.226     31.930     35.802
REMARK INTER + INTRA:          -9.156
REMARK INTER:                  -8.120
REMARK INTRA:                  -1.036
REMARK UNBOUND:                -0.723
REMARK SMILES CCCCCCCCC(=O)NCc1ccc(O)c(OC)c1
REMARK SMILES IDX 7 1 6 2 5 3 4 4 3 5 2 6 1 7 8 8 9 9 10 10 11 11 12 13 13 14
REMARK SMILES IDX 21 15 14 16 18 17 15 18 16 19 19 20 20 21 17 22
REMARK H PARENT 11 12 17 23
REMARK Flexibility Score: inf
ROOT
ATOM      1  C   UNL     1      94.293  97.780  76.915  1.00  0.00     0.010 C 
ENDROOT
BRANCH   1   2
ATOM      2  C   UNL     1      94.359  96.750  78.080  1.00  0.00     0.001 C 
BRANCH   2   3
ATOM      3  C   UNL     1      94.660  95.308  77.575  1.00  0.00     0.000 C 
BRANCH   3   4
ATOM      4  C   UNL     1      93.406  94.553  77.051  1.00  0.00    -0.000 C 
BRANCH   4   5
ATOM      5  C   UNL     1      92.099  94.986  77.774  1.00  0.00    -0.000 C 
BRANCH   5   6
ATOM      6  C   UNL     1      91.070  95.633  76.808  1.00  0.00    -0.003 C 
ATOM      7  C   UNL     1      89.895  94.691  76.464  1.00  0.00     0.004 C 
ENDBRANCH   5   6
ENDBRANCH   4   5
ENDBRANCH   3   4
ENDBRANCH   2   3
ENDBRANCH   1   2
BRANCH   1   8
ATOM      8  C   UNL     1      95.281  97.480  75.753  1.00  0.00     0.100 C 
BRANCH   8   9
ATOM      9  C   UNL     1      94.594  97.510  74.440  1.00  0.00     0.220 C 
ATOM     10  O   UNL     1      93.668  96.688  74.233  1.00  0.00    -0.275 OA
ATOM     11  N   UNL     1      94.945  98.430  73.493  1.00  0.00    -0.352 N 
ATOM     12  H   UNL     1      95.756  98.982  73.729  1.00  0.00     0.163 HD
BRANCH  11  13
ATOM     13  C   UNL     1      94.269  98.651  72.252  1.00  0.00     0.151 C 
BRANCH  13  14
ATOM     14  C   UNL     1      93.318  99.794  72.280  1.00  0.00    -0.025 A 
ATOM     15  C   UNL     1      92.291  99.890  71.310  1.00  0.00     0.056 A 
ATOM     16  C   UNL     1      93.422 100.801  73.266  1.00  0.00     0.009 A 
ATOM     17  C   UNL     1      91.369 100.962  71.334  1.00  0.00     0.160 A 
ATOM     18  C   UNL     1      92.507 101.869  73.297  1.00  0.00     0.050 A 
ATOM     19  C   UNL     1      91.486 101.958  72.330  1.00  0.00     0.157 A 
BRANCH  17  20
ATOM     20  O   UNL     1      90.401 101.076  70.369  1.00  0.00    -0.493 OA
ATOM     21  C   UNL     1      89.305 100.158  70.523  1.00  0.00     0.278 C 
ENDBRANCH  17  20
BRANCH  19  22
ATOM     22  O   UNL     1      90.625 103.007  72.352  1.00  0.00    -0.504 OA
ATOM     23  H   UNL     1      90.542 103.334  73.251  1.00  0.00     0.293 HD
ENDBRANCH  19  22
ENDBRANCH  13  14
ENDBRANCH  11  13
ENDBRANCH   8   9
ENDBRANCH   1   8
TORSDOF 11
ENDMDL
MODEL 8
REMARK VINA RESULT:    -5.144     31.775     35.218
REMARK INTER + INTRA:          -9.025
REMARK INTER:                  -7.815
REMARK INTRA:                  -1.210
REMARK UNBOUND:                -0.723
REMARK SMILES CCCCCCCCC(=O)NCc1ccc(O)c(OC)c1
REMARK SMILES IDX 7 1 6 2 5 3 4 4 3 5 2 6 1 7 8 8 9 9 10 10 11 11 12 13 13 14
REMARK SMILES IDX 21 15 14 16 18 17 15 18 16 19 19 20 20 21 17 22
REMARK H PARENT 11 12 17 23
REMARK Flexibility Score: inf
ROOT
ATOM      1  C   UNL     1      94.025  96.760  77.976  1.00  0.00     0.010 C 
ENDROOT
BRANCH   1   2
ATOM      2  C   UNL     1      94.006  95.355  77.308  1.00  0.00     0.001 C 
BRANCH   2   3
ATOM      3  C   UNL     1      94.120  95.439  75.757  1.00  0.00     0.000 C 
BRANCH   3   4
ATOM      4  C   UNL     1      92.783  95.157  75.014  1.00  0.00    -0.000 C 
BRANCH   4   5
ATOM      5  C   UNL     1      91.802  94.289  75.853  1.00  0.00    -0.000 C 
BRANCH   5   6
ATOM      6  C   UNL     1      90.500  95.049  76.222  1.00  0.00    -0.003 C 
ATOM      7  C   UNL     1      89.553  94.218  77.115  1.00  0.00     0.004 C 
ENDBRANCH   5   6
ENDBRANCH   4   5
ENDBRANCH   3   4
ENDBRANCH   2   3
ENDBRANCH   1   2
BRANCH   1   8
ATOM      8  C   UNL     1      95.398  97.143  78.596  1.00  0.00     0.100 C 
BRANCH   8   9
ATOM      9  C   UNL     1      96.250  97.862  77.619  1.00  0.00     0.220 C 
ATOM     10  O   UNL     1      97.475  97.593  77.586  1.00  0.00    -0.275 OA
ATOM     11  N   UNL     1      95.704  98.771  76.758  1.00  0.00    -0.352 N 
ATOM     12  H   UNL     1      94.730  98.974  76.928  1.00  0.00     0.163 HD
BRANCH  11  13
ATOM     13  C   UNL     1      96.390  99.420  75.683  1.00  0.00     0.151 C 
BRANCH  13  14
ATOM     14  C   UNL     1      96.283  98.705  74.383  1.00  0.00    -0.025 A 
ATOM     15  C   UNL     1      97.408  98.610  73.529  1.00  0.00     0.056 A 
ATOM     16  C   UNL     1      95.065  98.114  73.976  1.00  0.00     0.009 A 
ATOM     17  C   UNL     1      97.326  97.919  72.298  1.00  0.00     0.160 A 
ATOM     18  C   UNL     1      94.978  97.425  72.754  1.00  0.00     0.050 A 
ATOM     19  C   UNL     1      96.101  97.332  71.910  1.00  0.00     0.157 A 
BRANCH  17  20
ATOM     20  O   UNL     1      98.405  97.864  71.452  1.00  0.00    -0.493 OA
ATOM     21  C   UNL     1      99.677  97.817  72.122  1.00  0.00     0.278 C 
ENDBRANCH  17  20
BRANCH  19  22
ATOM     22  O   UNL     1      96.000  96.687  70.719  1.00  0.00    -0.504 OA
ATOM     23  H   UNL     1      95.742  95.775  70.870  1.00  0.00     0.293 HD
ENDBRANCH  19  22
ENDBRANCH  13  14
ENDBRANCH  11  13
ENDBRANCH   8   9
ENDBRANCH   1   8
TORSDOF 11
ENDMDL
MODEL 9
REMARK VINA RESULT:    -5.134     31.477     34.451
REMARK INTER + INTRA:          -9.009
REMARK INTER:                  -8.526
REMARK INTRA:                  -0.483
REMARK UNBOUND:                -0.723
REMARK SMILES CCCCCCCCC(=O)NCc1ccc(O)c(OC)c1
REMARK SMILES IDX 7 1 6 2 5 3 4 4 3 5 2 6 1 7 8 8 9 9 10 10 11 11 12 13 13 14
REMARK SMILES IDX 21 15 14 16 18 17 15 18 16 19 19 20 20 21 17 22
REMARK H PARENT 11 12 17 23
REMARK Flexibility Score: inf
ROOT
ATOM      1  C   UNL     1      93.824 100.043  73.235  1.00  0.00     0.010 C 
ENDROOT
BRANCH   1   2
ATOM      2  C   UNL     1      93.190  99.878  71.824  1.00  0.00     0.001 C 
BRANCH   2   3
ATOM      3  C   UNL     1      91.926 100.768  71.639  1.00  0.00     0.000 C 
BRANCH   3   4
ATOM      4  C   UNL     1      90.812 100.104  70.780  1.00  0.00    -0.000 C 
BRANCH   4   5
ATOM      5  C   UNL     1      89.418 100.759  70.994  1.00  0.00    -0.000 C 
BRANCH   5   6
ATOM      6  C   UNL     1      88.708 101.099  69.656  1.00  0.00    -0.003 C 
ATOM      7  C   UNL     1      87.396 101.889  69.857  1.00  0.00     0.004 C 
ENDBRANCH   5   6
ENDBRANCH   4   5
ENDBRANCH   3   4
ENDBRANCH   2   3
ENDBRANCH   1   2
BRANCH   1   8
ATOM      8  C   UNL     1      95.221  99.376  73.380  1.00  0.00     0.100 C 
BRANCH   8   9
ATOM      9  C   UNL     1      95.131  97.902  73.250  1.00  0.00     0.220 C 
ATOM     10  O   UNL     1      95.954  97.319  72.505  1.00  0.00    -0.275 OA
ATOM     11  N   UNL     1      94.192  97.200  73.951  1.00  0.00    -0.352 N 
ATOM     12  H   UNL     1      93.528  97.774  74.450  1.00  0.00     0.163 HD
BRANCH  11  13
ATOM     13  C   UNL     1      94.095  95.774  74.021  1.00  0.00     0.151 C 
BRANCH  13  14
ATOM     14  C   UNL     1      93.266  95.283  75.154  1.00  0.00    -0.025 A 
ATOM     15  C   UNL     1      93.780  95.301  76.472  1.00  0.00     0.056 A 
ATOM     16  C   UNL     1      91.959  94.788  74.937  1.00  0.00     0.009 A 
ATOM     17  C   UNL     1      92.998  94.853  77.562  1.00  0.00     0.160 A 
ATOM     18  C   UNL     1      91.176  94.342  76.017  1.00  0.00     0.050 A 
ATOM     19  C   UNL     1      91.692  94.365  77.326  1.00  0.00     0.157 A 
BRANCH  17  20
ATOM     20  O   UNL     1      93.513  94.832  78.833  1.00  0.00    -0.493 OA
ATOM     21  C   UNL     1      94.942  94.677  78.887  1.00  0.00     0.278 C 
ENDBRANCH  17  20
BRANCH  19  22
ATOM     22  O   UNL     1      90.938  93.907  78.358  1.00  0.00    -0.504 OA
ATOM     23  H   UNL     1      91.100  94.445  79.137  1.00  0.00     0.293 HD
ENDBRANCH  19  22
ENDBRANCH  13  14
ENDBRANCH  11  13
ENDBRANCH   8   9
ENDBRANCH   1   8
TORSDOF 11
ENDMDL
MODEL 10
REMARK VINA RESULT:    -5.115     20.560     22.789
REMARK INTER + INTRA:          -8.978
REMARK INTER:                  -8.252
REMARK INTRA:                  -0.726
REMARK UNBOUND:                -0.723
REMARK SMILES CCCCCCCCC(=O)NCc1ccc(O)c(OC)c1
REMARK SMILES IDX 7 1 6 2 5 3 4 4 3 5 2 6 1 7 8 8 9 9 10 10 11 11 12 13 13 14
REMARK SMILES IDX 21 15 14 16 18 17 15 18 16 19 19 20 20 21 17 22
REMARK H PARENT 11 12 17 23
REMARK Flexibility Score: inf
ROOT
ATOM      1  C   UNL     1      74.916  90.161  70.066  1.00  0.00     0.010 C 
ENDROOT
BRANCH   1   2
ATOM      2  C   UNL     1      73.519  89.833  70.667  1.00  0.00     0.001 C 
BRANCH   2   3
ATOM      3  C   UNL     1      72.480  89.455  69.570  1.00  0.00     0.000 C 
BRANCH   3   4
ATOM      4  C   UNL     1      71.057  89.167  70.127  1.00  0.00    -0.000 C 
BRANCH   4   5
ATOM      5  C   UNL     1      70.553  87.739  69.774  1.00  0.00    -0.000 C 
BRANCH   5   6
ATOM      6  C   UNL     1      69.198  87.401  70.454  1.00  0.00    -0.003 C 
ATOM      7  C   UNL     1      68.751  85.943  70.208  1.00  0.00     0.004 C 
ENDBRANCH   5   6
ENDBRANCH   4   5
ENDBRANCH   3   4
ENDBRANCH   2   3
ENDBRANCH   1   2
BRANCH   1   8
ATOM      8  C   UNL     1      75.136  89.592  68.637  1.00  0.00     0.100 C 
BRANCH   8   9
ATOM      9  C   UNL     1      75.969  88.366  68.667  1.00  0.00     0.220 C 
ATOM     10  O   UNL     1      77.195  88.473  68.425  1.00  0.00    -0.275 OA
ATOM     11  N   UNL     1      75.415  87.158  68.980  1.00  0.00    -0.352 N 
ATOM     12  H   UNL     1      74.410  87.171  69.071  1.00  0.00     0.163 HD
BRANCH  11  13
ATOM     13  C   UNL     1      76.132  85.935  69.179  1.00  0.00     0.151 C 
BRANCH  13  14
ATOM     14  C   UNL     1      76.284  85.119  67.945  1.00  0.00    -0.025 A 
ATOM     15  C   UNL     1      75.140  84.653  67.254  1.00  0.00     0.056 A 
ATOM     16  C   UNL     1      77.565  84.793  67.443  1.00  0.00     0.009 A 
ATOM     17  C   UNL     1      75.269  83.891  66.070  1.00  0.00     0.160 A 
ATOM     18  C   UNL     1      77.700  84.036  66.265  1.00  0.00     0.050 A 
ATOM     19  C   UNL     1      76.557  83.578  65.581  1.00  0.00     0.157 A 
BRANCH  17  20
ATOM     20  O   UNL     1      74.160  83.405  65.425  1.00  0.00    -0.493 OA
ATOM     21  C   UNL     1      73.584  84.317  64.474  1.00  0.00     0.278 C 
ENDBRANCH  17  20
BRANCH  19  22
ATOM     22  O   UNL     1      76.698  82.825  64.460  1.00  0.00    -0.504 OA
ATOM     23  H   UNL     1      77.135  83.343  63.779  1.00  0.00     0.293 HD
ENDBRANCH  19  22
ENDBRANCH  13  14
ENDBRANCH  11  13
ENDBRANCH   8   9
ENDBRANCH   1   8
TORSDOF 11
ENDMDL
