MODEL 1
REMARK VINA RESULT:    -6.437      0.000      0.000
REMARK INTER + INTRA:         -12.951
REMARK INTER:                 -10.953
REMARK INTRA:                  -1.998
REMARK UNBOUND:                -1.998
REMARK SMILES C=C(C)[C@]12C[C@@H](C)[C@@]34O[C@](Cc5ccccc5)(O[C@@H]1[C@@H]3C=C(COC(=O)Cc1ccc(O)cc1)C[C@]1(O)C(=O)C(C)=C[C@@H]41)O2
REMARK SMILES IDX 23 1 22 2 21 3 20 4 9 5 8 6 10 7 6 8 18 10 44 11 19 12 5 13
REMARK SMILES IDX 7 14 4 15 11 16 12 17 13 18 17 19 14 20 16 21 15 22 2 23
REMARK SMILES IDX 3 24 1 25 35 26 36 27 43 28 38 29 42 30 39 32 40 33 41 34
REMARK SMILES IDX 37 35 24 37 25 38 26 39 27 40 28 41 29 42 34 43 30 44 33 45
REMARK SMILES IDX 31 46 32 47
REMARK H PARENT 37 36 32 48
REMARK Flexibility Score: 90.00
ROOT
ATOM      1  C   UNL     1     103.617  79.746  75.325  1.00  0.00     0.264 C 
ENDROOT
BRANCH   1   2
ATOM      2  C   UNL     1     102.173  79.523  74.938  1.00  0.00    -0.033 C 
ATOM      3  C   UNL     1     101.243  80.424  75.316  1.00  0.00    -0.015 C 
BRANCH   3   4
ATOM      4  C   UNL     1      99.735  80.394  75.122  1.00  0.00     0.078 C 
ATOM      5  O   UNL     1      99.258  81.573  73.001  1.00  0.00    -0.319 OA
ATOM      6  C   UNL     1      99.171  80.271  73.659  1.00  0.00     0.095 CG0
ATOM      7  C   UNL     1      98.873  82.699  73.813  1.00  0.00     0.289 C 
ATOM      8  C   UNL     1      97.651  79.839  73.766  1.00  0.00     0.023 C 
ATOM      9  G   UNL     1     100.072  79.340  72.795  1.00  0.00     0.000 G0
ATOM     10  O   UNL     1      99.655  82.772  75.002  1.00  0.00    -0.320 OA
ATOM     11  O   UNL     1      97.518  82.616  74.247  1.00  0.00    -0.313 OA
ATOM     12  C   UNL     1      99.101  81.667  75.734  1.00  0.00     0.170 C 
ATOM     13  C   UNL     1      96.974  80.438  75.036  1.00  0.00     0.049 C 
ATOM     14  C   UNL     1      96.786  80.150  72.532  1.00  0.00     0.011 C 
ATOM     15  C   UNL     1      97.589  81.784  75.424  1.00  0.00     0.122 C 
BRANCH   7  16
ATOM     16  C   UNL     1      99.064  83.961  72.995  1.00  0.00     0.135 C 
BRANCH  16  17
ATOM     17  C   UNL     1     100.474  84.091  72.475  1.00  0.00    -0.040 A 
ATOM     18  C   UNL     1     101.533  84.268  73.365  1.00  0.00     0.004 A 
ATOM     19  C   UNL     1     100.717  84.034  71.103  1.00  0.00     0.004 A 
ATOM     20  C   UNL     1     102.837  84.388  72.883  1.00  0.00     0.000 A 
ATOM     21  C   UNL     1     102.022  84.153  70.622  1.00  0.00     0.000 A 
ATOM     22  C   UNL     1     103.080  84.330  71.511  1.00  0.00     0.000 A 
ENDBRANCH  16  17
ENDBRANCH   7  16
BRANCH  15  23
ATOM     23  C   UNL     1      96.840  82.461  76.525  1.00  0.00    -0.046 C 
ATOM     24  C   UNL     1      97.137  81.986  77.916  1.00  0.00     0.042 C 
ATOM     25  C   UNL     1      95.952  83.437  76.283  1.00  0.00     0.010 C 
ENDBRANCH  15  23
ENDBRANCH   3   4
BRANCH   2  26
ATOM     26  C   UNL     1     101.962  78.256  74.131  1.00  0.00     0.078 C 
BRANCH  26  27
ATOM     27  C   UNL     1     100.585  78.051  73.502  1.00  0.00     0.140 C 
ATOM     28  C   UNL     1     100.068  79.325  72.802  1.00  0.00     0.086 CG0
ATOM     29  C   UNL     1     100.609  77.045  72.370  1.00  0.00     0.190 C 
ATOM     30  C   UNL     1      99.555  78.816  71.483  1.00  0.00    -0.010 C 
ATOM     31  G   UNL     1      99.170  80.262  73.660  1.00  0.00     0.000 G0
ATOM     32  O   UNL     1     101.125  75.938  72.418  1.00  0.00    -0.291 OA
ATOM     33  C   UNL     1      99.867  77.548  71.199  1.00  0.00    -0.008 C 
ATOM     34  C   UNL     1      99.605  76.754  69.980  1.00  0.00     0.048 C 
BRANCH  27  35
ATOM     35  O   UNL     1      99.668  77.495  74.429  1.00  0.00    -0.381 OA
ATOM     36  H   UNL     1      98.769  77.752  74.163  1.00  0.00     0.212 HD
ENDBRANCH  27  35
ENDBRANCH  26  27
ENDBRANCH   2  26
ENDBRANCH   1   2
BRANCH   1  37
ATOM     37  O   UNL     1     103.688  80.058  76.700  1.00  0.00    -0.461 OA
BRANCH  37  38
ATOM     38  C   UNL     1     103.790  78.989  77.561  1.00  0.00     0.310 C 
ATOM     39  O   UNL     1     104.376  77.944  77.318  1.00  0.00    -0.252 OA
BRANCH  38  40
ATOM     40  C   UNL     1     103.066  79.309  78.848  1.00  0.00     0.158 C 
BRANCH  40  41
ATOM     41  C   UNL     1     101.583  79.060  78.765  1.00  0.00    -0.037 A 
ATOM     42  C   UNL     1     101.097  77.978  78.030  1.00  0.00     0.008 A 
ATOM     43  C   UNL     1     100.694  79.910  79.423  1.00  0.00     0.008 A 
ATOM     44  C   UNL     1      99.723  77.748  77.953  1.00  0.00     0.046 A 
ATOM     45  C   UNL     1      99.320  79.680  79.346  1.00  0.00     0.046 A 
ATOM     46  C   UNL     1      98.835  78.599  78.611  1.00  0.00     0.115 A 
BRANCH  46  47
ATOM     47  O   UNL     1      97.495  78.375  78.535  1.00  0.00    -0.508 OA
ATOM     48  H   UNL     1      97.131  78.883  77.789  1.00  0.00     0.293 HD
ENDBRANCH  46  47
ENDBRANCH  40  41
ENDBRANCH  38  40
ENDBRANCH  37  38
ENDBRANCH   1  37
TORSDOF 10
ENDMDL
MODEL 2
REMARK VINA RESULT:    -6.150      7.367     12.088
REMARK INTER + INTRA:         -12.462
REMARK INTER:                 -12.083
REMARK INTRA:                  -0.379
REMARK UNBOUND:                -1.998
REMARK SMILES C=C(C)[C@]12C[C@@H](C)[C@@]34O[C@](Cc5ccccc5)(O[C@@H]1[C@@H]3C=C(COC(=O)Cc1ccc(O)cc1)C[C@]1(O)C(=O)C(C)=C[C@@H]41)O2
REMARK SMILES IDX 23 1 22 2 21 3 20 4 9 5 8 6 10 7 6 8 18 10 44 11 19 12 5 13
REMARK SMILES IDX 7 14 4 15 11 16 12 17 13 18 17 19 14 20 16 21 15 22 2 23
REMARK SMILES IDX 3 24 1 25 35 26 36 27 43 28 38 29 42 30 39 32 40 33 41 34
REMARK SMILES IDX 37 35 24 37 25 38 26 39 27 40 28 41 29 42 34 43 30 44 33 45
REMARK SMILES IDX 31 46 32 47
REMARK H PARENT 37 36 32 48
REMARK Flexibility Score: 90.00
ROOT
ATOM      1  C   UNL     1      97.110  81.143  80.846  1.00  0.00     0.264 C 
ENDROOT
BRANCH   1   2
ATOM      2  C   UNL     1      97.157  80.901  82.337  1.00  0.00    -0.033 C 
ATOM      3  C   UNL     1      96.132  81.323  83.105  1.00  0.00    -0.015 C 
BRANCH   3   4
ATOM      4  C   UNL     1      95.973  81.271  84.617  1.00  0.00     0.078 C 
ATOM      5  O   UNL     1      94.801  79.159  85.146  1.00  0.00    -0.319 OA
ATOM      6  C   UNL     1      96.063  79.872  85.331  1.00  0.00     0.095 CG0
ATOM      7  C   UNL     1      93.613  79.958  85.306  1.00  0.00     0.289 C 
ATOM      8  C   UNL     1      96.293  80.137  86.876  1.00  0.00     0.023 C 
ATOM      9  G   UNL     1      97.125  78.967  84.642  1.00  0.00     0.000 G0
ATOM     10  O   UNL     1      93.609  81.066  84.410  1.00  0.00    -0.320 OA
ATOM     11  O   UNL     1      93.509  80.519  86.613  1.00  0.00    -0.313 OA
ATOM     12  C   UNL     1      94.613  81.889  85.025  1.00  0.00     0.170 C 
ATOM     13  C   UNL     1      95.578  81.440  87.346  1.00  0.00     0.049 C 
ATOM     14  C   UNL     1      95.907  78.977  87.810  1.00  0.00     0.011 C 
ATOM     15  C   UNL     1      94.312  81.715  86.533  1.00  0.00     0.122 C 
BRANCH   7  16
ATOM     16  C   UNL     1      92.408  79.078  85.039  1.00  0.00     0.135 C 
BRANCH  16  17
ATOM     17  C   UNL     1      91.113  79.769  85.384  1.00  0.00    -0.040 A 
ATOM     18  C   UNL     1      90.593  80.743  84.533  1.00  0.00     0.004 A 
ATOM     19  C   UNL     1      90.436  79.434  86.557  1.00  0.00     0.004 A 
ATOM     20  C   UNL     1      89.395  81.382  84.853  1.00  0.00     0.000 A 
ATOM     21  C   UNL     1      89.238  80.073  86.877  1.00  0.00     0.000 A 
ATOM     22  C   UNL     1      88.718  81.047  86.025  1.00  0.00     0.000 A 
ENDBRANCH  16  17
ENDBRANCH   7  16
BRANCH  15  23
ATOM     23  C   UNL     1      93.515  82.854  87.081  1.00  0.00    -0.046 C 
ATOM     24  C   UNL     1      93.447  82.955  88.577  1.00  0.00     0.042 C 
ATOM     25  C   UNL     1      92.894  83.735  86.283  1.00  0.00     0.010 C 
ENDBRANCH  15  23
ENDBRANCH   3   4
BRANCH   2  26
ATOM     26  C   UNL     1      98.411  80.174  82.783  1.00  0.00     0.078 C 
BRANCH  26  27
ATOM     27  C   UNL     1      98.447  79.664  84.222  1.00  0.00     0.140 C 
ATOM     28  C   UNL     1      97.127  78.978  84.632  1.00  0.00     0.086 CG0
ATOM     29  C   UNL     1      99.463  78.558  84.420  1.00  0.00     0.190 C 
ATOM     30  C   UNL     1      97.584  77.718  85.314  1.00  0.00    -0.010 C 
ATOM     31  G   UNL     1      96.072  79.884  85.330  1.00  0.00     0.000 G0
ATOM     32  O   UNL     1     100.626  78.590  84.045  1.00  0.00    -0.291 OA
ATOM     33  C   UNL     1      98.885  77.440  85.189  1.00  0.00    -0.008 C 
ATOM     34  C   UNL     1      99.655  76.266  85.650  1.00  0.00     0.048 C 
BRANCH  27  35
ATOM     35  O   UNL     1      98.869  80.676  85.120  1.00  0.00    -0.381 OA
ATOM     36  H   UNL     1      98.333  80.612  85.929  1.00  0.00     0.212 HD
ENDBRANCH  27  35
ENDBRANCH  26  27
ENDBRANCH   2  26
ENDBRANCH   1   2
BRANCH   1  37
ATOM     37  O   UNL     1      97.558  79.987  80.171  1.00  0.00    -0.461 OA
BRANCH  37  38
ATOM     38  C   UNL     1      98.303  80.197  79.034  1.00  0.00     0.310 C 
ATOM     39  O   UNL     1      99.462  80.588  79.016  1.00  0.00    -0.252 OA
BRANCH  38  40
ATOM     40  C   UNL     1      97.470  79.871  77.818  1.00  0.00     0.158 C 
BRANCH  40  41
ATOM     41  C   UNL     1      97.058  81.095  77.042  1.00  0.00    -0.037 A 
ATOM     42  C   UNL     1      97.648  81.371  75.808  1.00  0.00     0.008 A 
ATOM     43  C   UNL     1      96.087  81.954  77.557  1.00  0.00     0.008 A 
ATOM     44  C   UNL     1      97.267  82.505  75.091  1.00  0.00     0.046 A 
ATOM     45  C   UNL     1      95.705  83.088  76.839  1.00  0.00     0.046 A 
ATOM     46  C   UNL     1      96.295  83.363  75.607  1.00  0.00     0.115 A 
BRANCH  46  47
ATOM     47  O   UNL     1      95.924  84.470  74.906  1.00  0.00    -0.508 OA
ATOM     48  H   UNL     1      95.602  84.195  74.030  1.00  0.00     0.293 HD
ENDBRANCH  46  47
ENDBRANCH  40  41
ENDBRANCH  38  40
ENDBRANCH  37  38
ENDBRANCH   1  37
TORSDOF 10
ENDMDL
MODEL 3
REMARK VINA RESULT:    -6.069      9.572     14.357
REMARK INTER + INTRA:         -12.325
REMARK INTER:                 -12.027
REMARK INTRA:                  -0.297
REMARK UNBOUND:                -1.998
REMARK SMILES C=C(C)[C@]12C[C@@H](C)[C@@]34O[C@](Cc5ccccc5)(O[C@@H]1[C@@H]3C=C(COC(=O)Cc1ccc(O)cc1)C[C@]1(O)C(=O)C(C)=C[C@@H]41)O2
REMARK SMILES IDX 23 1 22 2 21 3 20 4 9 5 8 6 10 7 6 8 18 10 44 11 19 12 5 13
REMARK SMILES IDX 7 14 4 15 11 16 12 17 13 18 17 19 14 20 16 21 15 22 2 23
REMARK SMILES IDX 3 24 1 25 35 26 36 27 43 28 38 29 42 30 39 32 40 33 41 34
REMARK SMILES IDX 37 35 24 37 25 38 26 39 27 40 28 41 29 42 34 43 30 44 33 45
REMARK SMILES IDX 31 46 32 47
REMARK H PARENT 37 36 32 48
REMARK Flexibility Score: 90.00
ROOT
ATOM      1  C   UNL     1      95.917  81.799  83.254  1.00  0.00     0.264 C 
ENDROOT
BRANCH   1   2
ATOM      2  C   UNL     1      94.834  82.159  84.245  1.00  0.00    -0.033 C 
ATOM      3  C   UNL     1      93.681  81.459  84.244  1.00  0.00    -0.015 C 
BRANCH   3   4
ATOM      4  C   UNL     1      92.425  81.668  85.075  1.00  0.00     0.078 C 
ATOM      5  O   UNL     1      92.640  80.234  87.079  1.00  0.00    -0.319 OA
ATOM      6  C   UNL     1      92.549  81.626  86.643  1.00  0.00     0.095 CG0
ATOM      7  C   UNL     1      91.742  79.323  86.418  1.00  0.00     0.289 C 
ATOM      8  C   UNL     1      91.237  82.279  87.245  1.00  0.00     0.023 C 
ATOM      9  G   UNL     1      93.889  82.267  87.109  1.00  0.00     0.000 G0
ATOM     10  O   UNL     1      91.934  79.338  85.006  1.00  0.00    -0.320 OA
ATOM     11  O   UNL     1      90.373  79.665  86.624  1.00  0.00    -0.313 OA
ATOM     12  C   UNL     1      91.358  80.615  84.688  1.00  0.00     0.170 C 
ATOM     13  C   UNL     1      89.994  81.998  86.347  1.00  0.00     0.049 C 
ATOM     14  C   UNL     1      90.913  81.893  88.698  1.00  0.00     0.011 C 
ATOM     15  C   UNL     1      90.117  80.661  85.613  1.00  0.00     0.122 C 
BRANCH   7  16
ATOM     16  C   UNL     1      91.999  77.929  86.956  1.00  0.00     0.135 C 
BRANCH  16  17
ATOM     17  C   UNL     1      90.798  77.030  86.799  1.00  0.00    -0.040 A 
ATOM     18  C   UNL     1      89.874  76.914  87.837  1.00  0.00     0.004 A 
ATOM     19  C   UNL     1      90.613  76.316  85.615  1.00  0.00     0.004 A 
ATOM     20  C   UNL     1      88.763  76.082  87.691  1.00  0.00     0.000 A 
ATOM     21  C   UNL     1      89.501  75.485  85.470  1.00  0.00     0.000 A 
ATOM     22  C   UNL     1      88.577  75.369  86.508  1.00  0.00     0.000 A 
ENDBRANCH  16  17
ENDBRANCH   7  16
BRANCH  15  23
ATOM     23  C   UNL     1      88.864  80.286  84.890  1.00  0.00    -0.046 C 
ATOM     24  C   UNL     1      88.991  79.197  83.866  1.00  0.00     0.042 C 
ATOM     25  C   UNL     1      87.692  80.888  85.142  1.00  0.00     0.010 C 
ENDBRANCH  15  23
ENDBRANCH   3   4
BRANCH   2  26
ATOM     26  C   UNL     1      95.218  83.312  85.154  1.00  0.00     0.078 C 
BRANCH  26  27
ATOM     27  C   UNL     1      94.318  83.580  86.359  1.00  0.00     0.140 C 
ATOM     28  C   UNL     1      93.908  82.280  87.082  1.00  0.00     0.086 CG0
ATOM     29  C   UNL     1      95.027  84.350  87.452  1.00  0.00     0.190 C 
ATOM     30  C   UNL     1      94.125  82.604  88.534  1.00  0.00    -0.010 C 
ATOM     31  G   UNL     1      92.559  81.644  86.634  1.00  0.00     0.000 G0
ATOM     32  O   UNL     1      95.684  85.368  87.290  1.00  0.00    -0.291 OA
ATOM     33  C   UNL     1      94.776  83.746  88.774  1.00  0.00    -0.008 C 
ATOM     34  C   UNL     1      95.229  84.331  90.053  1.00  0.00     0.048 C 
BRANCH  27  35
ATOM     35  O   UNL     1      93.224  84.413  86.013  1.00  0.00    -0.381 OA
ATOM     36  H   UNL     1      93.008  84.263  85.077  1.00  0.00     0.212 HD
ENDBRANCH  27  35
ENDBRANCH  26  27
ENDBRANCH   2  26
ENDBRANCH   1   2
BRANCH   1  37
ATOM     37  O   UNL     1      96.173  80.413  83.327  1.00  0.00    -0.461 OA
BRANCH  37  38
ATOM     38  C   UNL     1      97.350  79.982  82.758  1.00  0.00     0.310 C 
ATOM     39  O   UNL     1      98.467  80.198  83.206  1.00  0.00    -0.252 OA
BRANCH  38  40
ATOM     40  C   UNL     1      97.046  79.203  81.501  1.00  0.00     0.158 C 
BRANCH  40  41
ATOM     41  C   UNL     1      97.364  79.969  80.243  1.00  0.00    -0.037 A 
ATOM     42  C   UNL     1      97.832  79.295  79.115  1.00  0.00     0.008 A 
ATOM     43  C   UNL     1      97.193  81.353  80.207  1.00  0.00     0.008 A 
ATOM     44  C   UNL     1      98.128  80.005  77.951  1.00  0.00     0.046 A 
ATOM     45  C   UNL     1      97.488  82.063  79.043  1.00  0.00     0.046 A 
ATOM     46  C   UNL     1      97.956  81.389  77.915  1.00  0.00     0.115 A 
BRANCH  46  47
ATOM     47  O   UNL     1      98.245  82.081  76.780  1.00  0.00    -0.508 OA
ATOM     48  H   UNL     1      99.169  81.906  76.530  1.00  0.00     0.293 HD
ENDBRANCH  46  47
ENDBRANCH  40  41
ENDBRANCH  38  40
ENDBRANCH  37  38
ENDBRANCH   1  37
TORSDOF 10
ENDMDL
MODEL 4
REMARK VINA RESULT:    -5.938      1.978      6.110
REMARK INTER + INTRA:         -12.101
REMARK INTER:                  -9.754
REMARK INTRA:                  -2.347
REMARK UNBOUND:                -1.998
REMARK SMILES C=C(C)[C@]12C[C@@H](C)[C@@]34O[C@](Cc5ccccc5)(O[C@@H]1[C@@H]3C=C(COC(=O)Cc1ccc(O)cc1)C[C@]1(O)C(=O)C(C)=C[C@@H]41)O2
REMARK SMILES IDX 23 1 22 2 21 3 20 4 9 5 8 6 10 7 6 8 18 10 44 11 19 12 5 13
REMARK SMILES IDX 7 14 4 15 11 16 12 17 13 18 17 19 14 20 16 21 15 22 2 23
REMARK SMILES IDX 3 24 1 25 35 26 36 27 43 28 38 29 42 30 39 32 40 33 41 34
REMARK SMILES IDX 37 35 24 37 25 38 26 39 27 40 28 41 29 42 34 43 30 44 33 45
REMARK SMILES IDX 31 46 32 47
REMARK H PARENT 37 36 32 48
REMARK Flexibility Score: 90.00
ROOT
ATOM      1  C   UNL     1     102.158  79.433  76.574  1.00  0.00     0.264 C 
ENDROOT
BRANCH   1   2
ATOM      2  C   UNL     1     101.804  79.630  75.118  1.00  0.00    -0.033 C 
ATOM      3  C   UNL     1     101.267  78.603  74.426  1.00  0.00    -0.015 C 
BRANCH   3   4
ATOM      4  C   UNL     1     100.898  78.520  72.953  1.00  0.00     0.078 C 
ATOM      5  O   UNL     1      98.514  79.152  72.771  1.00  0.00    -0.319 OA
ATOM      6  C   UNL     1      99.863  79.557  72.382  1.00  0.00     0.095 CG0
ATOM      7  C   UNL     1      98.238  77.742  72.656  1.00  0.00     0.289 C 
ATOM      8  C   UNL     1      99.982  79.532  70.802  1.00  0.00     0.023 C 
ATOM      9  G   UNL     1     100.055  80.953  73.044  1.00  0.00     0.000 G0
ATOM     10  O   UNL     1      99.153  76.970  73.428  1.00  0.00    -0.320 OA
ATOM     11  O   UNL     1      98.372  77.272  71.316  1.00  0.00    -0.313 OA
ATOM     12  C   UNL     1     100.339  77.113  72.630  1.00  0.00     0.170 C 
ATOM     13  C   UNL     1     100.343  78.109  70.278  1.00  0.00     0.049 C 
ATOM     14  C   UNL     1      98.755  80.061  70.038  1.00  0.00     0.011 C 
ATOM     15  C   UNL     1      99.785  77.013  71.187  1.00  0.00     0.122 C 
BRANCH   7  16
ATOM     16  C   UNL     1      96.823  77.495  73.138  1.00  0.00     0.135 C 
BRANCH  16  17
ATOM     17  C   UNL     1      96.762  77.286  74.631  1.00  0.00    -0.040 A 
ATOM     18  C   UNL     1      96.739  78.384  75.489  1.00  0.00     0.004 A 
ATOM     19  C   UNL     1      96.728  75.992  75.152  1.00  0.00     0.004 A 
ATOM     20  C   UNL     1      96.681  78.190  76.870  1.00  0.00     0.000 A 
ATOM     21  C   UNL     1      96.671  75.798  76.532  1.00  0.00     0.000 A 
ATOM     22  C   UNL     1      96.648  76.897  77.390  1.00  0.00     0.000 A 
ENDBRANCH  16  17
ENDBRANCH   7  16
BRANCH  15  23
ATOM     23  C   UNL     1      99.962  75.645  70.612  1.00  0.00    -0.046 C 
ATOM     24  C   UNL     1      98.703  74.901  70.277  1.00  0.00     0.042 C 
ATOM     25  C   UNL     1     101.176  75.113  70.408  1.00  0.00     0.010 C 
ENDBRANCH  15  23
ENDBRANCH   3   4
BRANCH   2  26
ATOM     26  C   UNL     1     102.108  81.028  74.614  1.00  0.00     0.078 C 
BRANCH  26  27
ATOM     27  C   UNL     1     101.544  81.416  73.249  1.00  0.00     0.140 C 
ATOM     28  C   UNL     1     100.085  80.947  73.066  1.00  0.00     0.086 CG0
ATOM     29  C   UNL     1     101.427  82.916  73.075  1.00  0.00     0.190 C 
ATOM     30  C   UNL     1      99.399  82.155  72.492  1.00  0.00    -0.010 C 
ATOM     31  G   UNL     1      99.892  79.562  72.382  1.00  0.00     0.000 G0
ATOM     32  O   UNL     1     102.308  83.727  73.318  1.00  0.00    -0.291 OA
ATOM     33  C   UNL     1     100.115  83.283  72.509  1.00  0.00    -0.008 C 
ATOM     34  C   UNL     1      99.739  84.655  72.110  1.00  0.00     0.048 C 
BRANCH  27  35
ATOM     35  O   UNL     1     102.409  81.020  72.198  1.00  0.00    -0.381 OA
ATOM     36  H   UNL     1     101.866  80.769  71.432  1.00  0.00     0.212 HD
ENDBRANCH  27  35
ENDBRANCH  26  27
ENDBRANCH   2  26
ENDBRANCH   1   2
BRANCH   1  37
ATOM     37  O   UNL     1     101.287  80.203  77.374  1.00  0.00    -0.461 OA
BRANCH  37  38
ATOM     38  C   UNL     1     100.187  79.548  77.878  1.00  0.00     0.310 C 
ATOM     39  O   UNL     1      99.945  78.359  77.723  1.00  0.00    -0.252 OA
BRANCH  38  40
ATOM     40  C   UNL     1      99.329  80.523  78.648  1.00  0.00     0.158 C 
BRANCH  40  41
ATOM     41  C   UNL     1      98.325  81.236  77.780  1.00  0.00    -0.037 A 
ATOM     42  C   UNL     1      98.591  81.434  76.424  1.00  0.00     0.008 A 
ATOM     43  C   UNL     1      97.131  81.699  78.330  1.00  0.00     0.008 A 
ATOM     44  C   UNL     1      97.662  82.095  75.620  1.00  0.00     0.046 A 
ATOM     45  C   UNL     1      96.201  82.360  77.526  1.00  0.00     0.046 A 
ATOM     46  C   UNL     1      96.467  82.558  76.171  1.00  0.00     0.115 A 
BRANCH  46  47
ATOM     47  O   UNL     1      95.562  83.203  75.387  1.00  0.00    -0.508 OA
ATOM     48  H   UNL     1      95.514  84.136  75.661  1.00  0.00     0.293 HD
ENDBRANCH  46  47
ENDBRANCH  40  41
ENDBRANCH  38  40
ENDBRANCH  37  38
ENDBRANCH   1  37
TORSDOF 10
ENDMDL
MODEL 5
REMARK VINA RESULT:    -5.828      2.411      6.110
REMARK INTER + INTRA:         -11.914
REMARK INTER:                 -10.297
REMARK INTRA:                  -1.617
REMARK UNBOUND:                -1.998
REMARK SMILES C=C(C)[C@]12C[C@@H](C)[C@@]34O[C@](Cc5ccccc5)(O[C@@H]1[C@@H]3C=C(COC(=O)Cc1ccc(O)cc1)C[C@]1(O)C(=O)C(C)=C[C@@H]41)O2
REMARK SMILES IDX 23 1 22 2 21 3 20 4 9 5 8 6 10 7 6 8 18 10 44 11 19 12 5 13
REMARK SMILES IDX 7 14 4 15 11 16 12 17 13 18 17 19 14 20 16 21 15 22 2 23
REMARK SMILES IDX 3 24 1 25 35 26 36 27 43 28 38 29 42 30 39 32 40 33 41 34
REMARK SMILES IDX 37 35 24 37 25 38 26 39 27 40 28 41 29 42 34 43 30 44 33 45
REMARK SMILES IDX 31 46 32 47
REMARK H PARENT 37 36 32 48
REMARK Flexibility Score: 90.00
ROOT
ATOM      1  C   UNL     1     102.267  84.066  72.412  1.00  0.00     0.264 C 
ENDROOT
BRANCH   1   2
ATOM      2  C   UNL     1     101.883  82.924  73.324  1.00  0.00    -0.033 C 
ATOM      3  C   UNL     1     100.678  82.941  73.930  1.00  0.00    -0.015 C 
BRANCH   3   4
ATOM      4  C   UNL     1     100.091  81.967  74.939  1.00  0.00     0.078 C 
ATOM      5  O   UNL     1      98.794  80.296  73.656  1.00  0.00    -0.319 OA
ATOM      6  C   UNL     1      99.957  80.454  74.528  1.00  0.00     0.095 CG0
ATOM      7  C   UNL     1      97.619  81.024  74.061  1.00  0.00     0.289 C 
ATOM      8  C   UNL     1      99.736  79.615  75.853  1.00  0.00     0.023 C 
ATOM      9  G   UNL     1     101.163  80.011  73.649  1.00  0.00     0.000 G0
ATOM     10  O   UNL     1      97.884  82.420  74.166  1.00  0.00    -0.320 OA
ATOM     11  O   UNL     1      97.149  80.624  75.347  1.00  0.00    -0.313 OA
ATOM     12  C   UNL     1      98.677  82.436  75.363  1.00  0.00     0.170 C 
ATOM     13  C   UNL     1      98.928  80.423  76.914  1.00  0.00     0.049 C 
ATOM     14  C   UNL     1      99.085  78.234  75.661  1.00  0.00     0.011 C 
ATOM     15  C   UNL     1      97.953  81.402  76.259  1.00  0.00     0.122 C 
BRANCH   7  16
ATOM     16  C   UNL     1      96.533  80.784  73.031  1.00  0.00     0.135 C 
BRANCH  16  17
ATOM     17  C   UNL     1      96.822  79.576  72.175  1.00  0.00    -0.040 A 
ATOM     18  C   UNL     1      96.684  78.294  72.707  1.00  0.00     0.004 A 
ATOM     19  C   UNL     1      97.228  79.741  70.851  1.00  0.00     0.004 A 
ATOM     20  C   UNL     1      96.951  77.177  71.915  1.00  0.00     0.000 A 
ATOM     21  C   UNL     1      97.495  78.624  70.059  1.00  0.00     0.000 A 
ATOM     22  C   UNL     1      97.356  77.343  70.591  1.00  0.00     0.000 A 
ENDBRANCH  16  17
ENDBRANCH   7  16
BRANCH  15  23
ATOM     23  C   UNL     1      97.043  82.054  77.248  1.00  0.00    -0.046 C 
ATOM     24  C   UNL     1      97.434  81.928  78.690  1.00  0.00     0.042 C 
ATOM     25  C   UNL     1      95.940  82.716  76.868  1.00  0.00     0.010 C 
ENDBRANCH  15  23
ENDBRANCH   3   4
BRANCH   2  26
ATOM     26  C   UNL     1     102.959  81.860  73.431  1.00  0.00     0.078 C 
BRANCH  26  27
ATOM     27  C   UNL     1     102.564  80.530  74.071  1.00  0.00     0.140 C 
ATOM     28  C   UNL     1     101.167  80.057  73.619  1.00  0.00     0.086 CG0
ATOM     29  C   UNL     1     103.453  79.387  73.629  1.00  0.00     0.190 C 
ATOM     30  C   UNL     1     101.378  78.604  73.295  1.00  0.00    -0.010 C 
ATOM     31  G   UNL     1      99.975  80.471  74.531  1.00  0.00     0.000 G0
ATOM     32  O   UNL     1     104.675  79.405  73.617  1.00  0.00    -0.291 OA
ATOM     33  C   UNL     1     102.652  78.204  73.264  1.00  0.00    -0.008 C 
ATOM     34  C   UNL     1     103.229  76.891  72.908  1.00  0.00     0.048 C 
BRANCH  27  35
ATOM     35  O   UNL     1     102.730  80.563  75.479  1.00  0.00    -0.381 OA
ATOM     36  H   UNL     1     102.973  79.671  75.780  1.00  0.00     0.212 HD
ENDBRANCH  27  35
ENDBRANCH  26  27
ENDBRANCH   2  26
ENDBRANCH   1   2
BRANCH   1  37
ATOM     37  O   UNL     1     103.259  83.628  71.508  1.00  0.00    -0.461 OA
BRANCH  37  38
ATOM     38  C   UNL     1     103.045  83.924  70.181  1.00  0.00     0.310 C 
ATOM     39  O   UNL     1     103.845  84.490  69.450  1.00  0.00    -0.252 OA
BRANCH  38  40
ATOM     40  C   UNL     1     101.674  83.441  69.772  1.00  0.00     0.158 C 
BRANCH  40  41
ATOM     41  C   UNL     1     101.684  82.038  69.223  1.00  0.00    -0.037 A 
ATOM     42  C   UNL     1     102.747  81.608  68.428  1.00  0.00     0.008 A 
ATOM     43  C   UNL     1     100.631  81.169  69.507  1.00  0.00     0.008 A 
ATOM     44  C   UNL     1     102.757  80.310  67.918  1.00  0.00     0.046 A 
ATOM     45  C   UNL     1     100.641  79.871  68.998  1.00  0.00     0.046 A 
ATOM     46  C   UNL     1     101.703  79.441  68.203  1.00  0.00     0.115 A 
BRANCH  46  47
ATOM     47  O   UNL     1     101.712  78.175  67.705  1.00  0.00    -0.508 OA
ATOM     48  H   UNL     1     101.116  78.133  66.937  1.00  0.00     0.293 HD
ENDBRANCH  46  47
ENDBRANCH  40  41
ENDBRANCH  38  40
ENDBRANCH  37  38
ENDBRANCH   1  37
TORSDOF 10
ENDMDL
MODEL 6
REMARK VINA RESULT:    -5.816     10.023     14.763
REMARK INTER + INTRA:         -11.893
REMARK INTER:                 -11.294
REMARK INTRA:                  -0.600
REMARK UNBOUND:                -1.998
REMARK SMILES C=C(C)[C@]12C[C@@H](C)[C@@]34O[C@](Cc5ccccc5)(O[C@@H]1[C@@H]3C=C(COC(=O)Cc1ccc(O)cc1)C[C@]1(O)C(=O)C(C)=C[C@@H]41)O2
REMARK SMILES IDX 23 1 22 2 21 3 20 4 9 5 8 6 10 7 6 8 18 10 44 11 19 12 5 13
REMARK SMILES IDX 7 14 4 15 11 16 12 17 13 18 17 19 14 20 16 21 15 22 2 23
REMARK SMILES IDX 3 24 1 25 35 26 36 27 43 28 38 29 42 30 39 32 40 33 41 34
REMARK SMILES IDX 37 35 24 37 25 38 26 39 27 40 28 41 29 42 34 43 30 44 33 45
REMARK SMILES IDX 31 46 32 47
REMARK H PARENT 37 36 32 48
REMARK Flexibility Score: 90.00
ROOT
ATOM      1  C   UNL     1      95.561  83.403  85.495  1.00  0.00     0.264 C 
ENDROOT
BRANCH   1   2
ATOM      2  C   UNL     1      94.206  83.253  86.145  1.00  0.00    -0.033 C 
ATOM      3  C   UNL     1      93.332  82.354  85.647  1.00  0.00    -0.015 C 
BRANCH   3   4
ATOM      4  C   UNL     1      91.898  82.067  86.065  1.00  0.00     0.078 C 
ATOM      5  O   UNL     1      91.984  80.230  87.719  1.00  0.00    -0.319 OA
ATOM      6  C   UNL     1      91.625  81.637  87.553  1.00  0.00     0.095 CG0
ATOM      7  C   UNL     1      91.574  79.360  86.647  1.00  0.00     0.289 C 
ATOM      8  C   UNL     1      90.075  81.817  87.827  1.00  0.00     0.023 C 
ATOM      9  G   UNL     1      92.568  82.397  88.530  1.00  0.00     0.000 G0
ATOM     10  O   UNL     1      92.108  79.790  85.398  1.00  0.00    -0.320 OA
ATOM     11  O   UNL     1      90.159  79.341  86.475  1.00  0.00    -0.313 OA
ATOM     12  C   UNL     1      91.301  80.955  85.167  1.00  0.00     0.170 C 
ATOM     13  C   UNL     1      89.231  81.531  86.547  1.00  0.00     0.049 C 
ATOM     14  C   UNL     1      89.511  81.000  89.002  1.00  0.00     0.011 C 
ATOM     15  C   UNL     1      89.903  80.494  85.646  1.00  0.00     0.122 C 
BRANCH   7  16
ATOM     16  C   UNL     1      92.063  77.959  86.959  1.00  0.00     0.135 C 
BRANCH  16  17
ATOM     17  C   UNL     1      92.575  77.251  85.730  1.00  0.00    -0.040 A 
ATOM     18  C   UNL     1      91.680  76.646  84.849  1.00  0.00     0.004 A 
ATOM     19  C   UNL     1      93.946  77.202  85.476  1.00  0.00     0.004 A 
ATOM     20  C   UNL     1      92.154  75.991  83.712  1.00  0.00     0.000 A 
ATOM     21  C   UNL     1      94.420  76.547  84.338  1.00  0.00     0.000 A 
ATOM     22  C   UNL     1      93.525  75.942  83.457  1.00  0.00     0.000 A 
ENDBRANCH  16  17
ENDBRANCH   7  16
BRANCH  15  23
ATOM     23  C   UNL     1      89.031  80.071  84.509  1.00  0.00    -0.046 C 
ATOM     24  C   UNL     1      87.820  80.919  84.252  1.00  0.00     0.042 C 
ATOM     25  C   UNL     1      89.314  78.995  83.760  1.00  0.00     0.010 C 
ENDBRANCH  15  23
ENDBRANCH   3   4
BRANCH   2  26
ATOM     26  C   UNL     1      94.009  84.175  87.334  1.00  0.00     0.078 C 
BRANCH  26  27
ATOM     27  C   UNL     1      92.800  83.912  88.228  1.00  0.00     0.140 C 
ATOM     28  C   UNL     1      92.603  82.410  88.519  1.00  0.00     0.086 CG0
ATOM     29  C   UNL     1      92.968  84.493  89.617  1.00  0.00     0.190 C 
ATOM     30  C   UNL     1      92.352  82.370  90.001  1.00  0.00    -0.010 C 
ATOM     31  G   UNL     1      91.644  81.646  87.561  1.00  0.00     0.000 G0
ATOM     32  O   UNL     1      93.332  85.632  89.869  1.00  0.00    -0.291 OA
ATOM     33  C   UNL     1      92.575  83.516  90.650  1.00  0.00    -0.008 C 
ATOM     34  C   UNL     1      92.512  83.819  92.095  1.00  0.00     0.048 C 
BRANCH  27  35
ATOM     35  O   UNL     1      91.638  84.556  87.732  1.00  0.00    -0.381 OA
ATOM     36  H   UNL     1      91.814  84.846  86.821  1.00  0.00     0.212 HD
ENDBRANCH  27  35
ENDBRANCH  26  27
ENDBRANCH   2  26
ENDBRANCH   1   2
BRANCH   1  37
ATOM     37  O   UNL     1      95.478  83.000  84.144  1.00  0.00    -0.461 OA
BRANCH  37  38
ATOM     38  C   UNL     1      96.567  82.324  83.644  1.00  0.00     0.310 C 
ATOM     39  O   UNL     1      97.729  82.531  83.963  1.00  0.00    -0.252 OA
BRANCH  38  40
ATOM     40  C   UNL     1      96.103  81.292  82.644  1.00  0.00     0.158 C 
BRANCH  40  41
ATOM     41  C   UNL     1      97.109  81.037  81.552  1.00  0.00    -0.037 A 
ATOM     42  C   UNL     1      97.054  81.771  80.367  1.00  0.00     0.008 A 
ATOM     43  C   UNL     1      98.097  80.068  81.726  1.00  0.00     0.008 A 
ATOM     44  C   UNL     1      97.985  81.534  79.355  1.00  0.00     0.046 A 
ATOM     45  C   UNL     1      99.029  79.831  80.715  1.00  0.00     0.046 A 
ATOM     46  C   UNL     1      98.973  80.564  79.530  1.00  0.00     0.115 A 
BRANCH  46  47
ATOM     47  O   UNL     1      99.881  80.333  78.544  1.00  0.00    -0.508 OA
ATOM     48  H   UNL     1     100.664  80.890  78.698  1.00  0.00     0.293 HD
ENDBRANCH  46  47
ENDBRANCH  40  41
ENDBRANCH  38  40
ENDBRANCH  37  38
ENDBRANCH   1  37
TORSDOF 10
ENDMDL
MODEL 7
REMARK VINA RESULT:    -5.589     10.963     15.021
REMARK INTER + INTRA:         -11.508
REMARK INTER:                 -10.650
REMARK INTRA:                  -0.857
REMARK UNBOUND:                -1.998
REMARK SMILES C=C(C)[C@]12C[C@@H](C)[C@@]34O[C@](Cc5ccccc5)(O[C@@H]1[C@@H]3C=C(COC(=O)Cc1ccc(O)cc1)C[C@]1(O)C(=O)C(C)=C[C@@H]41)O2
REMARK SMILES IDX 23 1 22 2 21 3 20 4 9 5 8 6 10 7 6 8 18 10 44 11 19 12 5 13
REMARK SMILES IDX 7 14 4 15 11 16 12 17 13 18 17 19 14 20 16 21 15 22 2 23
REMARK SMILES IDX 3 24 1 25 35 26 36 27 43 28 38 29 42 30 39 32 40 33 41 34
REMARK SMILES IDX 37 35 24 37 25 38 26 39 27 40 28 41 29 42 34 43 30 44 33 45
REMARK SMILES IDX 31 46 32 47
REMARK H PARENT 37 36 32 48
REMARK Flexibility Score: 90.00
ROOT
ATOM      1  C   UNL     1      96.797  80.374  86.514  1.00  0.00     0.264 C 
ENDROOT
BRANCH   1   2
ATOM      2  C   UNL     1      95.503  80.849  87.133  1.00  0.00    -0.033 C 
ATOM      3  C   UNL     1      95.545  81.719  88.163  1.00  0.00    -0.015 C 
BRANCH   3   4
ATOM      4  C   UNL     1      94.407  82.283  88.998  1.00  0.00     0.078 C 
ATOM      5  O   UNL     1      93.714  84.404  87.933  1.00  0.00    -0.319 OA
ATOM      6  C   UNL     1      93.252  83.057  88.263  1.00  0.00     0.095 CG0
ATOM      7  C   UNL     1      94.461  85.070  88.969  1.00  0.00     0.289 C 
ATOM      8  C   UNL     1      92.027  83.154  89.263  1.00  0.00     0.023 C 
ATOM      9  G   UNL     1      92.939  82.406  86.884  1.00  0.00     0.000 G0
ATOM     10  O   UNL     1      95.605  84.311  89.351  1.00  0.00    -0.320 OA
ATOM     11  O   UNL     1      93.698  85.244  90.161  1.00  0.00    -0.313 OA
ATOM     12  C   UNL     1      94.969  83.245  90.074  1.00  0.00     0.170 C 
ATOM     13  C   UNL     1      92.505  83.269  90.743  1.00  0.00     0.049 C 
ATOM     14  C   UNL     1      91.017  84.276  88.965  1.00  0.00     0.011 C 
ATOM     15  C   UNL     1      93.852  83.985  90.849  1.00  0.00     0.122 C 
BRANCH   7  16
ATOM     16  C   UNL     1      94.895  86.424  88.446  1.00  0.00     0.135 C 
BRANCH  16  17
ATOM     17  C   UNL     1      95.079  87.428  89.557  1.00  0.00    -0.040 A 
ATOM     18  C   UNL     1      94.065  88.338  89.851  1.00  0.00     0.004 A 
ATOM     19  C   UNL     1      96.266  87.445  90.290  1.00  0.00     0.004 A 
ATOM     20  C   UNL     1      94.235  89.266  90.879  1.00  0.00     0.000 A 
ATOM     21  C   UNL     1      96.436  88.373  91.318  1.00  0.00     0.000 A 
ATOM     22  C   UNL     1      95.421  89.283  91.612  1.00  0.00     0.000 A 
ENDBRANCH  16  17
ENDBRANCH   7  16
BRANCH  15  23
ATOM     23  C   UNL     1      94.243  84.267  92.264  1.00  0.00    -0.046 C 
ATOM     24  C   UNL     1      94.198  85.705  92.688  1.00  0.00     0.042 C 
ATOM     25  C   UNL     1      94.612  83.290  93.105  1.00  0.00     0.010 C 
ENDBRANCH  15  23
ENDBRANCH   3   4
BRANCH   2  26
ATOM     26  C   UNL     1      94.273  80.257  86.471  1.00  0.00     0.078 C 
BRANCH  26  27
ATOM     27  C   UNL     1      92.918  80.842  86.864  1.00  0.00     0.140 C 
ATOM     28  C   UNL     1      92.931  82.385  86.878  1.00  0.00     0.086 CG0
ATOM     29  C   UNL     1      91.837  80.535  85.849  1.00  0.00     0.190 C 
ATOM     30  C   UNL     1      91.668  82.752  86.150  1.00  0.00    -0.010 C 
ATOM     31  G   UNL     1      93.246  83.056  88.247  1.00  0.00     0.000 G0
ATOM     32  O   UNL     1      91.602  79.433  85.376  1.00  0.00    -0.291 OA
ATOM     33  C   UNL     1      91.045  81.740  85.538  1.00  0.00    -0.008 C 
ATOM     34  C   UNL     1      89.845  81.743  84.677  1.00  0.00     0.048 C 
BRANCH  27  35
ATOM     35  O   UNL     1      92.431  80.263  88.063  1.00  0.00    -0.381 OA
ATOM     36  H   UNL     1      92.380  79.300  87.939  1.00  0.00     0.212 HD
ENDBRANCH  27  35
ENDBRANCH  26  27
ENDBRANCH   2  26
ENDBRANCH   1   2
BRANCH   1  37
ATOM     37  O   UNL     1      97.054  81.119  85.342  1.00  0.00    -0.461 OA
BRANCH  37  38
ATOM     38  C   UNL     1      97.548  80.413  84.269  1.00  0.00     0.310 C 
ATOM     39  O   UNL     1      98.713  80.069  84.131  1.00  0.00    -0.252 OA
BRANCH  38  40
ATOM     40  C   UNL     1      96.430  80.130  83.295  1.00  0.00     0.158 C 
BRANCH  40  41
ATOM     41  C   UNL     1      96.796  80.453  81.870  1.00  0.00    -0.037 A 
ATOM     42  C   UNL     1      96.705  81.765  81.406  1.00  0.00     0.008 A 
ATOM     43  C   UNL     1      97.226  79.440  81.013  1.00  0.00     0.008 A 
ATOM     44  C   UNL     1      97.044  82.064  80.086  1.00  0.00     0.046 A 
ATOM     45  C   UNL     1      97.565  79.738  79.693  1.00  0.00     0.046 A 
ATOM     46  C   UNL     1      97.474  81.050  79.230  1.00  0.00     0.115 A 
BRANCH  46  47
ATOM     47  O   UNL     1      97.803  81.342  77.942  1.00  0.00    -0.508 OA
ATOM     48  H   UNL     1      98.598  80.836  77.697  1.00  0.00     0.293 HD
ENDBRANCH  46  47
ENDBRANCH  40  41
ENDBRANCH  38  40
ENDBRANCH  37  38
ENDBRANCH   1  37
TORSDOF 10
ENDMDL
MODEL 8
REMARK VINA RESULT:    -5.510      1.638      2.343
REMARK INTER + INTRA:         -11.373
REMARK INTER:                 -11.026
REMARK INTRA:                  -0.347
REMARK UNBOUND:                -1.998
REMARK SMILES C=C(C)[C@]12C[C@@H](C)[C@@]34O[C@](Cc5ccccc5)(O[C@@H]1[C@@H]3C=C(COC(=O)Cc1ccc(O)cc1)C[C@]1(O)C(=O)C(C)=C[C@@H]41)O2
REMARK SMILES IDX 23 1 22 2 21 3 20 4 9 5 8 6 10 7 6 8 18 10 44 11 19 12 5 13
REMARK SMILES IDX 7 14 4 15 11 16 12 17 13 18 17 19 14 20 16 21 15 22 2 23
REMARK SMILES IDX 3 24 1 25 35 26 36 27 43 28 38 29 42 30 39 32 40 33 41 34
REMARK SMILES IDX 37 35 24 37 25 38 26 39 27 40 28 41 29 42 34 43 30 44 33 45
REMARK SMILES IDX 31 46 32 47
REMARK H PARENT 37 36 32 48
REMARK Flexibility Score: 90.00
ROOT
ATOM      1  C   UNL     1     103.464  79.768  75.789  1.00  0.00     0.264 C 
ENDROOT
BRANCH   1   2
ATOM      2  C   UNL     1     102.059  79.560  75.274  1.00  0.00    -0.033 C 
ATOM      3  C   UNL     1     101.125  80.505  75.506  1.00  0.00    -0.015 C 
BRANCH   3   4
ATOM      4  C   UNL     1      99.643  80.502  75.165  1.00  0.00     0.078 C 
ATOM      5  O   UNL     1      99.407  81.601  72.962  1.00  0.00    -0.319 OA
ATOM      6  C   UNL     1      99.221  80.330  73.659  1.00  0.00     0.095 CG0
ATOM      7  C   UNL     1      98.976  82.769  73.686  1.00  0.00     0.289 C 
ATOM      8  C   UNL     1      97.687  79.938  73.633  1.00  0.00     0.023 C 
ATOM      9  G   UNL     1     100.176  79.342  72.927  1.00  0.00     0.000 G0
ATOM     10  O   UNL     1      99.639  82.873  74.943  1.00  0.00    -0.320 OA
ATOM     11  O   UNL     1      97.583  82.736  73.988  1.00  0.00    -0.313 OA
ATOM     12  C   UNL     1      98.986  81.814  75.660  1.00  0.00     0.170 C 
ATOM     13  C   UNL     1      96.905  80.606  74.805  1.00  0.00     0.049 C 
ATOM     14  C   UNL     1      96.955  80.217  72.308  1.00  0.00     0.011 C 
ATOM     15  C   UNL     1      97.516  81.952  75.197  1.00  0.00     0.122 C 
BRANCH   7  16
ATOM     16  C   UNL     1      99.280  83.990  72.842  1.00  0.00     0.135 C 
BRANCH  16  17
ATOM     17  C   UNL     1     100.688  83.969  72.302  1.00  0.00    -0.040 A 
ATOM     18  C   UNL     1     101.763  83.747  73.163  1.00  0.00     0.004 A 
ATOM     19  C   UNL     1     100.915  84.170  70.940  1.00  0.00     0.004 A 
ATOM     20  C   UNL     1     103.065  83.727  72.662  1.00  0.00     0.000 A 
ATOM     21  C   UNL     1     102.217  84.149  70.440  1.00  0.00     0.000 A 
ATOM     22  C   UNL     1     103.292  83.928  71.301  1.00  0.00     0.000 A 
ENDBRANCH  16  17
ENDBRANCH   7  16
BRANCH  15  23
ATOM     23  C   UNL     1      96.681  82.693  76.191  1.00  0.00    -0.046 C 
ATOM     24  C   UNL     1      96.772  82.223  77.613  1.00  0.00     0.042 C 
ATOM     25  C   UNL     1      95.896  83.719  75.833  1.00  0.00     0.010 C 
ENDBRANCH  15  23
ENDBRANCH   3   4
BRANCH   2  26
ATOM     26  C   UNL     1     101.887  78.252  74.523  1.00  0.00     0.078 C 
BRANCH  26  27
ATOM     27  C   UNL     1     100.597  78.069  73.727  1.00  0.00     0.140 C 
ATOM     28  C   UNL     1     100.202  79.344  72.954  1.00  0.00     0.086 CG0
ATOM     29  C   UNL     1     100.740  77.048  72.618  1.00  0.00     0.190 C 
ATOM     30  C   UNL     1      99.848  78.829  71.587  1.00  0.00    -0.010 C 
ATOM     31  G   UNL     1      99.224  80.312  73.682  1.00  0.00     0.000 G0
ATOM     32  O   UNL     1     101.221  75.931  72.741  1.00  0.00    -0.291 OA
ATOM     33  C   UNL     1     100.163  77.551  71.357  1.00  0.00    -0.008 C 
ATOM     34  C   UNL     1     100.040  76.747  70.123  1.00  0.00     0.048 C 
BRANCH  27  35
ATOM     35  O   UNL     1      99.558  77.545  74.537  1.00  0.00    -0.381 OA
ATOM     36  H   UNL     1      99.874  77.510  75.456  1.00  0.00     0.212 HD
ENDBRANCH  27  35
ENDBRANCH  26  27
ENDBRANCH   2  26
ENDBRANCH   1   2
BRANCH   1  37
ATOM     37  O   UNL     1     103.443  79.803  77.200  1.00  0.00    -0.461 OA
BRANCH  37  38
ATOM     38  C   UNL     1     103.907  78.679  77.843  1.00  0.00     0.310 C 
ATOM     39  O   UNL     1     103.466  77.549  77.688  1.00  0.00    -0.252 OA
BRANCH  38  40
ATOM     40  C   UNL     1     105.041  79.058  78.765  1.00  0.00     0.158 C 
BRANCH  40  41
ATOM     41  C   UNL     1     104.642  79.060  80.218  1.00  0.00    -0.037 A 
ATOM     42  C   UNL     1     103.371  79.499  80.591  1.00  0.00     0.008 A 
ATOM     43  C   UNL     1     105.542  78.625  81.190  1.00  0.00     0.008 A 
ATOM     44  C   UNL     1     103.002  79.502  81.936  1.00  0.00     0.046 A 
ATOM     45  C   UNL     1     105.173  78.628  82.535  1.00  0.00     0.046 A 
ATOM     46  C   UNL     1     103.903  79.067  82.909  1.00  0.00     0.115 A 
BRANCH  46  47
ATOM     47  O   UNL     1     103.543  79.071  84.221  1.00  0.00    -0.508 OA
ATOM     48  H   UNL     1     104.344  79.141  84.768  1.00  0.00     0.293 HD
ENDBRANCH  46  47
ENDBRANCH  40  41
ENDBRANCH  38  40
ENDBRANCH  37  38
ENDBRANCH   1  37
TORSDOF 10
ENDMDL
MODEL 9
REMARK VINA RESULT:    -5.398      1.869      5.821
REMARK INTER + INTRA:         -11.182
REMARK INTER:                  -8.655
REMARK INTRA:                  -2.528
REMARK UNBOUND:                -1.998
REMARK SMILES C=C(C)[C@]12C[C@@H](C)[C@@]34O[C@](Cc5ccccc5)(O[C@@H]1[C@@H]3C=C(COC(=O)Cc1ccc(O)cc1)C[C@]1(O)C(=O)C(C)=C[C@@H]41)O2
REMARK SMILES IDX 23 1 22 2 21 3 20 4 9 5 8 6 10 7 6 8 18 10 44 11 19 12 5 13
REMARK SMILES IDX 7 14 4 15 11 16 12 17 13 18 17 19 14 20 16 21 15 22 2 23
REMARK SMILES IDX 3 24 1 25 35 26 36 27 43 28 38 29 42 30 39 32 40 33 41 34
REMARK SMILES IDX 37 35 24 37 25 38 26 39 27 40 28 41 29 42 34 43 30 44 33 45
REMARK SMILES IDX 31 46 32 47
REMARK H PARENT 37 36 32 48
REMARK Flexibility Score: 90.00
ROOT
ATOM      1  C   UNL     1     103.204  80.385  74.262  1.00  0.00     0.264 C 
ENDROOT
BRANCH   1   2
ATOM      2  C   UNL     1     101.895  80.479  73.513  1.00  0.00    -0.033 C 
ATOM      3  C   UNL     1     101.456  79.410  72.816  1.00  0.00    -0.015 C 
BRANCH   3   4
ATOM      4  C   UNL     1     100.228  79.274  71.930  1.00  0.00     0.078 C 
ATOM      5  O   UNL     1      98.392  78.443  73.365  1.00  0.00    -0.319 OA
ATOM      6  C   UNL     1      98.817  79.583  72.554  1.00  0.00     0.095 CG0
ATOM      7  C   UNL     1      98.639  77.149  72.783  1.00  0.00     0.289 C 
ATOM      8  C   UNL     1      97.797  79.783  71.357  1.00  0.00     0.023 C 
ATOM      9  G   UNL     1      98.904  80.765  73.562  1.00  0.00     0.000 G0
ATOM     10  O   UNL     1     100.021  76.968  72.489  1.00  0.00    -0.320 OA
ATOM     11  O   UNL     1      97.954  76.971  71.545  1.00  0.00    -0.313 OA
ATOM     12  C   UNL     1     100.152  77.839  71.354  1.00  0.00     0.170 C 
ATOM     13  C   UNL     1      98.161  78.880  70.139  1.00  0.00     0.049 C 
ATOM     14  C   UNL     1      96.314  79.586  71.713  1.00  0.00     0.011 C 
ATOM     15  C   UNL     1      98.836  77.580  70.580  1.00  0.00     0.122 C 
BRANCH   7  16
ATOM     16  C   UNL     1      98.181  76.091  73.769  1.00  0.00     0.135 C 
BRANCH  16  17
ATOM     17  C   UNL     1      97.973  76.657  75.151  1.00  0.00    -0.040 A 
ATOM     18  C   UNL     1      98.871  76.351  76.173  1.00  0.00     0.004 A 
ATOM     19  C   UNL     1      96.882  77.488  75.406  1.00  0.00     0.004 A 
ATOM     20  C   UNL     1      98.678  76.876  77.452  1.00  0.00     0.000 A 
ATOM     21  C   UNL     1      96.689  78.012  76.685  1.00  0.00     0.000 A 
ATOM     22  C   UNL     1      97.587  77.706  77.707  1.00  0.00     0.000 A 
ENDBRANCH  16  17
ENDBRANCH   7  16
BRANCH  15  23
ATOM     23  C   UNL     1      99.029  76.622  69.449  1.00  0.00    -0.046 C 
ATOM     24  C   UNL     1     100.365  76.663  68.768  1.00  0.00     0.042 C 
ATOM     25  C   UNL     1      98.063  75.774  69.066  1.00  0.00     0.010 C 
ENDBRANCH  15  23
ENDBRANCH   3   4
BRANCH   2  26
ATOM     26  C   UNL     1     101.218  81.829  73.663  1.00  0.00     0.078 C 
BRANCH  26  27
ATOM     27  C   UNL     1      99.794  81.959  73.128  1.00  0.00     0.140 C 
ATOM     28  C   UNL     1      98.904  80.767  73.541  1.00  0.00     0.086 CG0
ATOM     29  C   UNL     1      99.055  83.138  73.725  1.00  0.00     0.190 C 
ATOM     30  C   UNL     1      97.636  81.424  74.011  1.00  0.00    -0.010 C 
ATOM     31  G   UNL     1      98.824  79.589  72.527  1.00  0.00     0.000 G0
ATOM     32  O   UNL     1      99.489  84.277  73.807  1.00  0.00    -0.291 OA
ATOM     33  C   UNL     1      97.697  82.751  74.152  1.00  0.00    -0.008 C 
ATOM     34  C   UNL     1      96.687  83.701  74.663  1.00  0.00     0.048 C 
BRANCH  27  35
ATOM     35  O   UNL     1      99.785  82.224  71.735  1.00  0.00    -0.381 OA
ATOM     36  H   UNL     1     100.631  81.926  71.361  1.00  0.00     0.212 HD
ENDBRANCH  27  35
ENDBRANCH  26  27
ENDBRANCH   2  26
ENDBRANCH   1   2
BRANCH   1  37
ATOM     37  O   UNL     1     102.966  80.562  75.642  1.00  0.00    -0.461 OA
BRANCH  37  38
ATOM     38  C   UNL     1     103.242  79.484  76.450  1.00  0.00     0.310 C 
ATOM     39  O   UNL     1     104.353  79.180  76.861  1.00  0.00    -0.252 OA
BRANCH  38  40
ATOM     40  C   UNL     1     101.964  78.737  76.748  1.00  0.00     0.158 C 
BRANCH  40  41
ATOM     41  C   UNL     1     100.937  79.587  77.450  1.00  0.00    -0.037 A 
ATOM     42  C   UNL     1      99.942  80.230  76.713  1.00  0.00     0.008 A 
ATOM     43  C   UNL     1     100.981  79.733  78.836  1.00  0.00     0.008 A 
ATOM     44  C   UNL     1      98.992  81.018  77.363  1.00  0.00     0.046 A 
ATOM     45  C   UNL     1     100.030  80.520  79.487  1.00  0.00     0.046 A 
ATOM     46  C   UNL     1      99.036  81.163  78.750  1.00  0.00     0.115 A 
BRANCH  46  47
ATOM     47  O   UNL     1      98.109  81.932  79.383  1.00  0.00    -0.508 OA
ATOM     48  H   UNL     1      97.246  81.806  78.951  1.00  0.00     0.293 HD
ENDBRANCH  46  47
ENDBRANCH  40  41
ENDBRANCH  38  40
ENDBRANCH  37  38
ENDBRANCH   1  37
TORSDOF 10
ENDMDL
MODEL 10
REMARK VINA RESULT:    -5.357     37.116     41.278
REMARK INTER + INTRA:         -11.112
REMARK INTER:                  -8.980
REMARK INTRA:                  -2.132
REMARK UNBOUND:                -1.998
REMARK SMILES C=C(C)[C@]12C[C@@H](C)[C@@]34O[C@](Cc5ccccc5)(O[C@@H]1[C@@H]3C=C(COC(=O)Cc1ccc(O)cc1)C[C@]1(O)C(=O)C(C)=C[C@@H]41)O2
REMARK SMILES IDX 23 1 22 2 21 3 20 4 9 5 8 6 10 7 6 8 18 10 44 11 19 12 5 13
REMARK SMILES IDX 7 14 4 15 11 16 12 17 13 18 17 19 14 20 16 21 15 22 2 23
REMARK SMILES IDX 3 24 1 25 35 26 36 27 43 28 38 29 42 30 39 32 40 33 41 34
REMARK SMILES IDX 37 35 24 37 25 38 26 39 27 40 28 41 29 42 34 43 30 44 33 45
REMARK SMILES IDX 31 46 32 47
REMARK H PARENT 37 36 32 48
REMARK Flexibility Score: 90.00
ROOT
ATOM      1  C   UNL     1      62.378  90.271  75.428  1.00  0.00     0.264 C 
ENDROOT
BRANCH   1   2
ATOM      2  C   UNL     1      60.908  89.923  75.478  1.00  0.00    -0.033 C 
ATOM      3  C   UNL     1      60.295  89.490  74.358  1.00  0.00    -0.015 C 
BRANCH   3   4
ATOM      4  C   UNL     1      58.830  89.152  74.128  1.00  0.00     0.078 C 
ATOM      5  O   UNL     1      58.574  86.729  74.550  1.00  0.00    -0.319 OA
ATOM      6  C   UNL     1      58.166  88.048  75.030  1.00  0.00     0.095 CG0
ATOM      7  C   UNL     1      58.570  86.568  73.118  1.00  0.00     0.289 C 
ATOM      8  C   UNL     1      56.595  88.194  74.888  1.00  0.00     0.023 C 
ATOM      9  G   UNL     1      58.715  88.118  76.485  1.00  0.00     0.000 G0
ATOM     10  O   UNL     1      59.411  87.528  72.486  1.00  0.00    -0.320 OA
ATOM     11  O   UNL     1      57.275  86.760  72.554  1.00  0.00    -0.313 OA
ATOM     12  C   UNL     1      58.616  88.711  72.659  1.00  0.00     0.170 C 
ATOM     13  C   UNL     1      56.191  88.675  73.461  1.00  0.00     0.049 C 
ATOM     14  C   UNL     1      55.779  86.942  75.254  1.00  0.00     0.011 C 
ATOM     15  C   UNL     1      57.181  88.191  72.400  1.00  0.00     0.122 C 
BRANCH   7  16
ATOM     16  C   UNL     1      59.057  85.168  72.797  1.00  0.00     0.135 C 
BRANCH  16  17
ATOM     17  C   UNL     1      60.034  85.159  71.648  1.00  0.00    -0.040 A 
ATOM     18  C   UNL     1      61.403  85.067  71.897  1.00  0.00     0.004 A 
ATOM     19  C   UNL     1      59.567  85.241  70.336  1.00  0.00     0.004 A 
ATOM     20  C   UNL     1      62.307  85.057  70.834  1.00  0.00     0.000 A 
ATOM     21  C   UNL     1      60.471  85.232  69.273  1.00  0.00     0.000 A 
ATOM     22  C   UNL     1      61.840  85.140  69.522  1.00  0.00     0.000 A 
ENDBRANCH  16  17
ENDBRANCH   7  16
BRANCH  15  23
ATOM     23  C   UNL     1      56.720  88.485  71.009  1.00  0.00    -0.046 C 
ATOM     24  C   UNL     1      55.812  89.668  70.849  1.00  0.00     0.042 C 
ATOM     25  C   UNL     1      57.097  87.734  69.964  1.00  0.00     0.010 C 
ENDBRANCH  15  23
ENDBRANCH   3   4
BRANCH   2  26
ATOM     26  C   UNL     1      60.298  90.112  76.855  1.00  0.00     0.078 C 
BRANCH  26  27
ATOM     27  C   UNL     1      58.886  89.572  77.072  1.00  0.00     0.140 C 
ATOM     28  C   UNL     1      58.709  88.151  76.499  1.00  0.00     0.086 CG0
ATOM     29  C   UNL     1      58.560  89.375  78.537  1.00  0.00     0.190 C 
ATOM     30  C   UNL     1      57.999  87.415  77.600  1.00  0.00    -0.010 C 
ATOM     31  G   UNL     1      58.163  88.062  75.044  1.00  0.00     0.000 G0
ATOM     32  O   UNL     1      58.745  90.198  79.421  1.00  0.00    -0.291 OA
ATOM     33  C   UNL     1      57.923  88.064  78.766  1.00  0.00    -0.008 C 
ATOM     34  C   UNL     1      57.379  87.623  80.067  1.00  0.00     0.048 C 
BRANCH  27  35
ATOM     35  O   UNL     1      57.905  90.495  76.629  1.00  0.00    -0.381 OA
ATOM     36  H   UNL     1      58.329  91.362  76.514  1.00  0.00     0.212 HD
ENDBRANCH  27  35
ENDBRANCH  26  27
ENDBRANCH   2  26
ENDBRANCH   1   2
BRANCH   1  37
ATOM     37  O   UNL     1      63.083  89.225  74.794  1.00  0.00    -0.461 OA
BRANCH  37  38
ATOM     38  C   UNL     1      64.039  88.589  75.552  1.00  0.00     0.310 C 
ATOM     39  O   UNL     1      65.247  88.709  75.406  1.00  0.00    -0.252 OA
BRANCH  38  40
ATOM     40  C   UNL     1      63.364  87.723  76.589  1.00  0.00     0.158 C 
BRANCH  40  41
ATOM     41  C   UNL     1      62.993  86.360  76.066  1.00  0.00    -0.037 A 
ATOM     42  C   UNL     1      63.985  85.500  75.595  1.00  0.00     0.008 A 
ATOM     43  C   UNL     1      61.658  85.958  76.051  1.00  0.00     0.008 A 
ATOM     44  C   UNL     1      63.642  84.238  75.109  1.00  0.00     0.046 A 
ATOM     45  C   UNL     1      61.314  84.695  75.566  1.00  0.00     0.046 A 
ATOM     46  C   UNL     1      62.306  83.836  75.095  1.00  0.00     0.115 A 
BRANCH  46  47
ATOM     47  O   UNL     1      61.971  82.605  74.620  1.00  0.00    -0.508 OA
ATOM     48  H   UNL     1      61.960  81.974  75.361  1.00  0.00     0.293 HD
ENDBRANCH  46  47
ENDBRANCH  40  41
ENDBRANCH  38  40
ENDBRANCH  37  38
ENDBRANCH   1  37
TORSDOF 10
ENDMDL
