MODEL 1
REMARK VINA RESULT:    -6.674      0.000      0.000
REMARK INTER + INTRA:         -11.598
REMARK INTER:                 -10.771
REMARK INTRA:                  -0.826
REMARK UNBOUND:                -0.826
REMARK SMILES COc1cc(CNC(=O)CCCCCCC(C)C)ccc1O
REMARK SMILES IDX 11 1 10 2 8 3 7 4 9 6 6 7 5 8 3 9 21 10 4 11 20 12 19 13
REMARK SMILES IDX 2 14 1 15 22 16 12 18 13 19 14 20 15 21 16 22 17 23 18 24
REMARK H PARENT 7 5 22 17
REMARK Flexibility Score: inf
ROOT
ATOM      1  C   UNL     1      93.739  93.722  75.124  1.00  0.00     0.010 C 
ENDROOT
BRANCH   1   2
ATOM      2  C   UNL     1      92.844  94.207  76.298  1.00  0.00     0.100 C 
BRANCH   2   3
ATOM      3  C   UNL     1      91.704  93.304  76.575  1.00  0.00     0.220 C 
ATOM      4  N   UNL     1      90.823  92.983  75.585  1.00  0.00    -0.352 N 
ATOM      5  H   UNL     1      90.997  93.439  74.701  1.00  0.00     0.163 HD
ATOM      6  O   UNL     1      91.583  92.826  77.730  1.00  0.00    -0.275 OA
BRANCH   4   7
ATOM      7  C   UNL     1      89.721  92.079  75.720  1.00  0.00     0.151 C 
BRANCH   7   8
ATOM      8  C   UNL     1      90.087  90.662  75.444  1.00  0.00    -0.025 A 
ATOM      9  C   UNL     1      90.561  88.389  76.252  1.00  0.00     0.160 A 
ATOM     10  C   UNL     1      90.741  87.951  74.922  1.00  0.00     0.157 A 
ATOM     11  C   UNL     1      90.254  89.743  76.504  1.00  0.00     0.056 A 
ATOM     12  C   UNL     1      90.616  88.866  73.861  1.00  0.00     0.050 A 
ATOM     13  C   UNL     1      90.281  90.209  74.117  1.00  0.00     0.009 A 
BRANCH   9  14
ATOM     14  O   UNL     1      90.719  87.516  77.294  1.00  0.00    -0.493 OA
ATOM     15  C   UNL     1      89.832  87.766  78.400  1.00  0.00     0.278 C 
ENDBRANCH   9  14
BRANCH  10  16
ATOM     16  O   UNL     1      91.039  86.653  74.651  1.00  0.00    -0.504 OA
ATOM     17  H   UNL     1      91.982  86.512  74.760  1.00  0.00     0.293 HD
ENDBRANCH  10  16
ENDBRANCH   7   8
ENDBRANCH   4   7
ENDBRANCH   2   3
ENDBRANCH   1   2
BRANCH   1  18
ATOM     18  C   UNL     1      95.250  93.973  75.395  1.00  0.00     0.001 C 
BRANCH  18  19
ATOM     19  C   UNL     1      95.532  95.249  76.237  1.00  0.00     0.000 C 
BRANCH  19  20
ATOM     20  C   UNL     1      96.423  94.934  77.471  1.00  0.00     0.000 C 
BRANCH  20  21
ATOM     21  C   UNL     1      95.629  94.684  78.783  1.00  0.00     0.003 C 
BRANCH  21  22
ATOM     22  C   UNL     1      96.056  95.589  79.985  1.00  0.00    -0.017 C 
ATOM     23  C   UNL     1      97.552  95.353  80.338  1.00  0.00     0.007 C 
ATOM     24  C   UNL     1      95.163  95.413  81.248  1.00  0.00     0.007 C 
ENDBRANCH  21  22
ENDBRANCH  20  21
ENDBRANCH  19  20
ENDBRANCH  18  19
ENDBRANCH   1  18
TORSDOF 11
ENDMDL
MODEL 2
REMARK VINA RESULT:    -6.497      3.267      8.852
REMARK INTER + INTRA:         -11.311
REMARK INTER:                 -10.082
REMARK INTRA:                  -1.229
REMARK UNBOUND:                -0.826
REMARK SMILES COc1cc(CNC(=O)CCCCCCC(C)C)ccc1O
REMARK SMILES IDX 11 1 10 2 8 3 7 4 9 6 6 7 5 8 3 9 21 10 4 11 20 12 19 13
REMARK SMILES IDX 2 14 1 15 22 16 12 18 13 19 14 20 15 21 16 22 17 23 18 24
REMARK H PARENT 7 5 22 17
REMARK Flexibility Score: inf
ROOT
ATOM      1  C   UNL     1      91.774  93.246  77.194  1.00  0.00     0.010 C 
ENDROOT
BRANCH   1   2
ATOM      2  C   UNL     1      92.684  93.495  75.959  1.00  0.00     0.100 C 
BRANCH   2   3
ATOM      3  C   UNL     1      93.994  94.089  76.307  1.00  0.00     0.220 C 
ATOM      4  N   UNL     1      94.649  93.697  77.438  1.00  0.00    -0.352 N 
ATOM      5  H   UNL     1      94.148  93.029  78.005  1.00  0.00     0.163 HD
ATOM      6  O   UNL     1      94.496  94.937  75.530  1.00  0.00    -0.275 OA
BRANCH   4   7
ATOM      7  C   UNL     1      95.942  94.157  77.845  1.00  0.00     0.151 C 
BRANCH   7   8
ATOM      8  C   UNL     1      95.970  94.669  79.243  1.00  0.00    -0.025 A 
ATOM      9  C   UNL     1      96.325  96.515  80.828  1.00  0.00     0.160 A 
ATOM     10  C   UNL     1      95.982  95.663  81.901  1.00  0.00     0.157 A 
ATOM     11  C   UNL     1      96.334  96.008  79.512  1.00  0.00     0.056 A 
ATOM     12  C   UNL     1      95.655  94.318  81.650  1.00  0.00     0.050 A 
ATOM     13  C   UNL     1      95.639  93.826  80.330  1.00  0.00     0.009 A 
BRANCH   9  14
ATOM     14  O   UNL     1      96.682  97.815  81.065  1.00  0.00    -0.493 OA
ATOM     15  C   UNL     1      98.101  98.008  81.214  1.00  0.00     0.278 C 
ENDBRANCH   9  14
BRANCH  10  16
ATOM     16  O   UNL     1      95.966  96.125  83.179  1.00  0.00    -0.504 OA
ATOM     17  H   UNL     1      96.854  96.385  83.436  1.00  0.00     0.293 HD
ENDBRANCH  10  16
ENDBRANCH   7   8
ENDBRANCH   4   7
ENDBRANCH   2   3
ENDBRANCH   1   2
BRANCH   1  18
ATOM     18  C   UNL     1      90.275  93.115  76.802  1.00  0.00     0.001 C 
BRANCH  18  19
ATOM     19  C   UNL     1      89.575  91.867  77.410  1.00  0.00     0.000 C 
BRANCH  19  20
ATOM     20  C   UNL     1      89.283  90.791  76.326  1.00  0.00     0.000 C 
BRANCH  20  21
ATOM     21  C   UNL     1      89.332  91.326  74.868  1.00  0.00     0.003 C 
BRANCH  21  22
ATOM     22  C   UNL     1      90.423  90.660  73.967  1.00  0.00    -0.017 C 
ATOM     23  C   UNL     1      91.422  89.845  74.836  1.00  0.00     0.007 C 
ATOM     24  C   UNL     1      91.187  91.669  73.061  1.00  0.00     0.007 C 
ENDBRANCH  21  22
ENDBRANCH  20  21
ENDBRANCH  19  20
ENDBRANCH  18  19
ENDBRANCH   1  18
TORSDOF 11
ENDMDL
MODEL 3
REMARK VINA RESULT:    -5.777     25.979     28.696
REMARK INTER + INTRA:         -10.150
REMARK INTER:                  -9.046
REMARK INTRA:                  -1.104
REMARK UNBOUND:                -0.826
REMARK SMILES COc1cc(CNC(=O)CCCCCCC(C)C)ccc1O
REMARK SMILES IDX 11 1 10 2 8 3 7 4 9 6 6 7 5 8 3 9 21 10 4 11 20 12 19 13
REMARK SMILES IDX 2 14 1 15 22 16 12 18 13 19 14 20 15 21 16 22 17 23 18 24
REMARK H PARENT 7 5 22 17
REMARK Flexibility Score: inf
ROOT
ATOM      1  C   UNL     1      81.515  64.561  74.869  1.00  0.00     0.010 C 
ENDROOT
BRANCH   1   2
ATOM      2  C   UNL     1      81.839  65.011  76.321  1.00  0.00     0.100 C 
BRANCH   2   3
ATOM      3  C   UNL     1      83.262  64.828  76.686  1.00  0.00     0.220 C 
ATOM      4  N   UNL     1      83.635  63.810  77.516  1.00  0.00    -0.352 N 
ATOM      5  H   UNL     1      82.870  63.255  77.871  1.00  0.00     0.163 HD
ATOM      6  O   UNL     1      84.114  65.610  76.198  1.00  0.00    -0.275 OA
BRANCH   4   7
ATOM      7  C   UNL     1      84.981  63.501  77.890  1.00  0.00     0.151 C 
BRANCH   7   8
ATOM      8  C   UNL     1      85.386  64.117  79.184  1.00  0.00    -0.025 A 
ATOM      9  C   UNL     1      86.472  65.939  80.429  1.00  0.00     0.160 A 
ATOM     10  C   UNL     1      86.122  65.318  81.648  1.00  0.00     0.157 A 
ATOM     11  C   UNL     1      86.119  65.325  79.209  1.00  0.00     0.056 A 
ATOM     12  C   UNL     1      85.427  64.095  81.636  1.00  0.00     0.050 A 
ATOM     13  C   UNL     1      85.051  63.503  80.415  1.00  0.00     0.009 A 
BRANCH   9  14
ATOM     14  O   UNL     1      87.183  67.108  80.428  1.00  0.00    -0.493 OA
ATOM     15  C   UNL     1      88.533  66.966  79.949  1.00  0.00     0.278 C 
ENDBRANCH   9  14
BRANCH  10  16
ATOM     16  O   UNL     1      86.451  65.886  82.838  1.00  0.00    -0.504 OA
ATOM     17  H   UNL     1      86.515  66.838  82.731  1.00  0.00     0.293 HD
ENDBRANCH  10  16
ENDBRANCH   7   8
ENDBRANCH   4   7
ENDBRANCH   2   3
ENDBRANCH   1   2
BRANCH   1  18
ATOM     18  C   UNL     1      80.439  65.464  74.202  1.00  0.00     0.001 C 
BRANCH  18  19
ATOM     19  C   UNL     1      80.204  65.150  72.697  1.00  0.00     0.000 C 
BRANCH  19  20
ATOM     20  C   UNL     1      80.199  66.445  71.837  1.00  0.00     0.000 C 
BRANCH  20  21
ATOM     21  C   UNL     1      80.761  67.697  72.566  1.00  0.00     0.003 C 
BRANCH  21  22
ATOM     22  C   UNL     1      82.246  68.041  72.216  1.00  0.00    -0.017 C 
ATOM     23  C   UNL     1      82.686  67.297  70.924  1.00  0.00     0.007 C 
ATOM     24  C   UNL     1      83.244  67.756  73.377  1.00  0.00     0.007 C 
ENDBRANCH  21  22
ENDBRANCH  20  21
ENDBRANCH  19  20
ENDBRANCH  18  19
ENDBRANCH   1  18
TORSDOF 11
ENDMDL
MODEL 4
REMARK VINA RESULT:    -5.692      3.692      9.082
REMARK INTER + INTRA:         -10.013
REMARK INTER:                  -9.308
REMARK INTRA:                  -0.704
REMARK UNBOUND:                -0.826
REMARK SMILES COc1cc(CNC(=O)CCCCCCC(C)C)ccc1O
REMARK SMILES IDX 11 1 10 2 8 3 7 4 9 6 6 7 5 8 3 9 21 10 4 11 20 12 19 13
REMARK SMILES IDX 2 14 1 15 22 16 12 18 13 19 14 20 15 21 16 22 17 23 18 24
REMARK H PARENT 7 5 22 17
REMARK Flexibility Score: inf
ROOT
ATOM      1  C   UNL     1      94.300  95.143  75.536  1.00  0.00     0.010 C 
ENDROOT
BRANCH   1   2
ATOM      2  C   UNL     1      95.098  94.058  76.310  1.00  0.00     0.100 C 
BRANCH   2   3
ATOM      3  C   UNL     1      94.858  94.086  77.770  1.00  0.00     0.220 C 
ATOM      4  N   UNL     1      95.844  93.718  78.638  1.00  0.00    -0.352 N 
ATOM      5  H   UNL     1      96.695  93.399  78.198  1.00  0.00     0.163 HD
ATOM      6  O   UNL     1      93.740  94.476  78.189  1.00  0.00    -0.275 OA
BRANCH   4   7
ATOM      7  C   UNL     1      95.747  93.760  80.066  1.00  0.00     0.151 C 
BRANCH   7   8
ATOM      8  C   UNL     1      96.340  94.990  80.659  1.00  0.00    -0.025 A 
ATOM      9  C   UNL     1      98.303  96.225  81.478  1.00  0.00     0.160 A 
ATOM     10  C   UNL     1      97.487  97.346  81.748  1.00  0.00     0.157 A 
ATOM     11  C   UNL     1      97.721  95.052  80.954  1.00  0.00     0.056 A 
ATOM     12  C   UNL     1      96.105  97.283  81.495  1.00  0.00     0.050 A 
ATOM     13  C   UNL     1      95.536  96.118  80.945  1.00  0.00     0.009 A 
BRANCH   9  14
ATOM     14  O   UNL     1      99.642  96.262  81.757  1.00  0.00    -0.493 OA
ATOM     15  C   UNL     1     100.457  96.649  80.636  1.00  0.00     0.278 C 
ENDBRANCH   9  14
BRANCH  10  16
ATOM     16  O   UNL     1      98.020  98.489  82.254  1.00  0.00    -0.504 OA
ATOM     17  H   UNL     1      97.511  99.242  81.945  1.00  0.00     0.293 HD
ENDBRANCH  10  16
ENDBRANCH   7   8
ENDBRANCH   4   7
ENDBRANCH   2   3
ENDBRANCH   1   2
BRANCH   1  18
ATOM     18  C   UNL     1      93.081  94.545  74.776  1.00  0.00     0.001 C 
BRANCH  18  19
ATOM     19  C   UNL     1      92.923  93.009  74.956  1.00  0.00     0.000 C 
BRANCH  19  20
ATOM     20  C   UNL     1      91.696  92.465  74.172  1.00  0.00     0.000 C 
BRANCH  20  21
ATOM     21  C   UNL     1      90.323  92.862  74.781  1.00  0.00     0.003 C 
BRANCH  21  22
ATOM     22  C   UNL     1      90.399  93.448  76.229  1.00  0.00    -0.017 C 
ATOM     23  C   UNL     1      89.622  92.540  77.224  1.00  0.00     0.007 C 
ATOM     24  C   UNL     1      89.904  94.921  76.335  1.00  0.00     0.007 C 
ENDBRANCH  21  22
ENDBRANCH  20  21
ENDBRANCH  19  20
ENDBRANCH  18  19
ENDBRANCH   1  18
TORSDOF 11
ENDMDL
MODEL 5
REMARK VINA RESULT:    -5.503     13.883     15.138
REMARK INTER + INTRA:          -9.707
REMARK INTER:                  -8.702
REMARK INTRA:                  -1.005
REMARK UNBOUND:                -0.826
REMARK SMILES COc1cc(CNC(=O)CCCCCCC(C)C)ccc1O
REMARK SMILES IDX 11 1 10 2 8 3 7 4 9 6 6 7 5 8 3 9 21 10 4 11 20 12 19 13
REMARK SMILES IDX 2 14 1 15 22 16 12 18 13 19 14 20 15 21 16 22 17 23 18 24
REMARK H PARENT 7 5 22 17
REMARK Flexibility Score: inf
ROOT
ATOM      1  C   UNL     1      81.652  92.252  88.994  1.00  0.00     0.010 C 
ENDROOT
BRANCH   1   2
ATOM      2  C   UNL     1      83.068  91.623  89.115  1.00  0.00     0.100 C 
BRANCH   2   3
ATOM      3  C   UNL     1      83.447  90.805  87.942  1.00  0.00     0.220 C 
ATOM      4  N   UNL     1      82.830  90.996  86.740  1.00  0.00    -0.352 N 
ATOM      5  H   UNL     1      82.093  91.686  86.750  1.00  0.00     0.163 HD
ATOM      6  O   UNL     1      84.362  89.955  88.071  1.00  0.00    -0.275 OA
BRANCH   4   7
ATOM      7  C   UNL     1      83.152  90.307  85.527  1.00  0.00     0.151 C 
BRANCH   7   8
ATOM      8  C   UNL     1      82.188  89.223  85.194  1.00  0.00    -0.025 A 
ATOM      9  C   UNL     1      81.344  86.940  85.548  1.00  0.00     0.160 A 
ATOM     10  C   UNL     1      80.326  87.166  84.596  1.00  0.00     0.157 A 
ATOM     11  C   UNL     1      82.277  87.962  85.825  1.00  0.00     0.056 A 
ATOM     12  C   UNL     1      80.251  88.404  83.932  1.00  0.00     0.050 A 
ATOM     13  C   UNL     1      81.168  89.429  84.235  1.00  0.00     0.009 A 
BRANCH   9  14
ATOM     14  O   UNL     1      81.451  85.726  86.171  1.00  0.00    -0.493 OA
ATOM     15  C   UNL     1      82.807  85.270  86.323  1.00  0.00     0.278 C 
ENDBRANCH   9  14
BRANCH  10  16
ATOM     16  O   UNL     1      79.416  86.199  84.308  1.00  0.00    -0.504 OA
ATOM     17  H   UNL     1      79.029  86.372  83.446  1.00  0.00     0.293 HD
ENDBRANCH  10  16
ENDBRANCH   7   8
ENDBRANCH   4   7
ENDBRANCH   2   3
ENDBRANCH   1   2
BRANCH   1  18
ATOM     18  C   UNL     1      81.624  93.732  89.471  1.00  0.00     0.001 C 
BRANCH  18  19
ATOM     19  C   UNL     1      83.036  94.358  89.654  1.00  0.00     0.000 C 
BRANCH  19  20
ATOM     20  C   UNL     1      83.356  95.385  88.531  1.00  0.00     0.000 C 
BRANCH  20  21
ATOM     21  C   UNL     1      82.151  95.716  87.608  1.00  0.00     0.003 C 
BRANCH  21  22
ATOM     22  C   UNL     1      81.724  97.220  87.609  1.00  0.00    -0.017 C 
ATOM     23  C   UNL     1      80.943  97.563  88.909  1.00  0.00     0.007 C 
ATOM     24  C   UNL     1      80.904  97.639  86.354  1.00  0.00     0.007 C 
ENDBRANCH  21  22
ENDBRANCH  20  21
ENDBRANCH  19  20
ENDBRANCH  18  19
ENDBRANCH   1  18
TORSDOF 11
ENDMDL
MODEL 6
REMARK VINA RESULT:    -5.460     25.082     28.136
REMARK INTER + INTRA:          -9.637
REMARK INTER:                  -7.387
REMARK INTRA:                  -2.250
REMARK UNBOUND:                -0.826
REMARK SMILES COc1cc(CNC(=O)CCCCCCC(C)C)ccc1O
REMARK SMILES IDX 11 1 10 2 8 3 7 4 9 6 6 7 5 8 3 9 21 10 4 11 20 12 19 13
REMARK SMILES IDX 2 14 1 15 22 16 12 18 13 19 14 20 15 21 16 22 17 23 18 24
REMARK H PARENT 7 5 22 17
REMARK Flexibility Score: inf
ROOT
ATOM      1  C   UNL     1      80.180  66.256  71.770  1.00  0.00     0.010 C 
ENDROOT
BRANCH   1   2
ATOM      2  C   UNL     1      80.449  65.097  72.769  1.00  0.00     0.100 C 
BRANCH   2   3
ATOM      3  C   UNL     1      80.649  65.558  74.161  1.00  0.00     0.220 C 
ATOM      4  N   UNL     1      81.332  64.783  75.052  1.00  0.00    -0.352 N 
ATOM      5  H   UNL     1      81.629  63.888  74.691  1.00  0.00     0.163 HD
ATOM      6  O   UNL     1      80.200  66.683  74.492  1.00  0.00    -0.275 OA
BRANCH   4   7
ATOM      7  C   UNL     1      81.636  65.149  76.402  1.00  0.00     0.151 C 
BRANCH   7   8
ATOM      8  C   UNL     1      83.096  65.169  76.690  1.00  0.00    -0.025 A 
ATOM      9  C   UNL     1      85.169  66.427  77.099  1.00  0.00     0.160 A 
ATOM     10  C   UNL     1      85.871  65.216  77.282  1.00  0.00     0.157 A 
ATOM     11  C   UNL     1      83.794  66.394  76.786  1.00  0.00     0.056 A 
ATOM     12  C   UNL     1      85.196  63.989  77.151  1.00  0.00     0.050 A 
ATOM     13  C   UNL     1      83.817  63.964  76.868  1.00  0.00     0.009 A 
BRANCH   9  14
ATOM     14  O   UNL     1      85.825  67.625  77.185  1.00  0.00    -0.493 OA
ATOM     15  C   UNL     1      85.036  68.750  76.758  1.00  0.00     0.278 C 
ENDBRANCH   9  14
BRANCH  10  16
ATOM     16  O   UNL     1      87.197  65.217  77.583  1.00  0.00    -0.504 OA
ATOM     17  H   UNL     1      87.338  64.744  78.406  1.00  0.00     0.293 HD
ENDBRANCH  10  16
ENDBRANCH   7   8
ENDBRANCH   4   7
ENDBRANCH   2   3
ENDBRANCH   1   2
BRANCH   1  18
ATOM     18  C   UNL     1      81.493  66.812  71.149  1.00  0.00     0.001 C 
BRANCH  18  19
ATOM     19  C   UNL     1      81.962  68.156  71.773  1.00  0.00     0.000 C 
BRANCH  19  20
ATOM     20  C   UNL     1      83.268  67.979  72.596  1.00  0.00     0.000 C 
BRANCH  20  21
ATOM     21  C   UNL     1      84.149  66.782  72.145  1.00  0.00     0.003 C 
BRANCH  21  22
ATOM     22  C   UNL     1      84.558  65.805  73.296  1.00  0.00    -0.017 C 
ATOM     23  C   UNL     1      86.073  65.945  73.615  1.00  0.00     0.007 C 
ATOM     24  C   UNL     1      84.196  64.317  73.012  1.00  0.00     0.007 C 
ENDBRANCH  21  22
ENDBRANCH  20  21
ENDBRANCH  19  20
ENDBRANCH  18  19
ENDBRANCH   1  18
TORSDOF 11
ENDMDL
MODEL 7
REMARK VINA RESULT:    -5.457     22.915     26.782
REMARK INTER + INTRA:          -9.634
REMARK INTER:                  -8.558
REMARK INTRA:                  -1.076
REMARK UNBOUND:                -0.826
REMARK SMILES COc1cc(CNC(=O)CCCCCCC(C)C)ccc1O
REMARK SMILES IDX 11 1 10 2 8 3 7 4 9 6 6 7 5 8 3 9 21 10 4 11 20 12 19 13
REMARK SMILES IDX 2 14 1 15 22 16 12 18 13 19 14 20 15 21 16 22 17 23 18 24
REMARK H PARENT 7 5 22 17
REMARK Flexibility Score: inf
ROOT
ATOM      1  C   UNL     1      82.488  66.769  70.825  1.00  0.00     0.010 C 
ENDROOT
BRANCH   1   2
ATOM      2  C   UNL     1      82.313  68.311  70.879  1.00  0.00     0.100 C 
BRANCH   2   3
ATOM      3  C   UNL     1      83.516  69.020  71.371  1.00  0.00     0.220 C 
ATOM      4  N   UNL     1      84.586  68.316  71.841  1.00  0.00    -0.352 N 
ATOM      5  H   UNL     1      84.457  67.315  71.858  1.00  0.00     0.163 HD
ATOM      6  O   UNL     1      83.537  70.274  71.324  1.00  0.00    -0.275 OA
BRANCH   4   7
ATOM      7  C   UNL     1      85.820  68.888  72.286  1.00  0.00     0.151 C 
BRANCH   7   8
ATOM      8  C   UNL     1      85.852  69.145  73.752  1.00  0.00    -0.025 A 
ATOM      9  C   UNL     1      85.233  68.496  76.042  1.00  0.00     0.160 A 
ATOM     10  C   UNL     1      85.945  69.604  76.551  1.00  0.00     0.157 A 
ATOM     11  C   UNL     1      85.176  68.286  74.649  1.00  0.00     0.056 A 
ATOM     12  C   UNL     1      86.589  70.489  75.667  1.00  0.00     0.050 A 
ATOM     13  C   UNL     1      86.553  70.256  74.278  1.00  0.00     0.009 A 
BRANCH   9  14
ATOM     14  O   UNL     1      84.570  67.652  76.891  1.00  0.00    -0.493 OA
ATOM     15  C   UNL     1      85.382  66.573  77.388  1.00  0.00     0.278 C 
ENDBRANCH   9  14
BRANCH  10  16
ATOM     16  O   UNL     1      86.015  69.832  77.889  1.00  0.00    -0.504 OA
ATOM     17  H   UNL     1      86.888  69.592  78.209  1.00  0.00     0.293 HD
ENDBRANCH  10  16
ENDBRANCH   7   8
ENDBRANCH   4   7
ENDBRANCH   2   3
ENDBRANCH   1   2
BRANCH   1  18
ATOM     18  C   UNL     1      82.043  66.081  72.147  1.00  0.00     0.001 C 
BRANCH  18  19
ATOM     19  C   UNL     1      80.576  65.567  72.123  1.00  0.00     0.000 C 
BRANCH  19  20
ATOM     20  C   UNL     1      80.187  64.885  73.465  1.00  0.00     0.000 C 
BRANCH  20  21
ATOM     21  C   UNL     1      81.398  64.380  74.297  1.00  0.00     0.003 C 
BRANCH  21  22
ATOM     22  C   UNL     1      81.480  64.964  75.745  1.00  0.00    -0.017 C 
ATOM     23  C   UNL     1      81.441  66.517  75.708  1.00  0.00     0.007 C 
ATOM     24  C   UNL     1      82.718  64.469  76.550  1.00  0.00     0.007 C 
ENDBRANCH  21  22
ENDBRANCH  20  21
ENDBRANCH  19  20
ENDBRANCH  18  19
ENDBRANCH   1  18
TORSDOF 11
ENDMDL
MODEL 8
REMARK VINA RESULT:    -5.310     24.461     27.574
REMARK INTER + INTRA:          -9.395
REMARK INTER:                  -7.750
REMARK INTRA:                  -1.645
REMARK UNBOUND:                -0.826
REMARK SMILES COc1cc(CNC(=O)CCCCCCC(C)C)ccc1O
REMARK SMILES IDX 11 1 10 2 8 3 7 4 9 6 6 7 5 8 3 9 21 10 4 11 20 12 19 13
REMARK SMILES IDX 2 14 1 15 22 16 12 18 13 19 14 20 15 21 16 22 17 23 18 24
REMARK H PARENT 7 5 22 17
REMARK Flexibility Score: inf
ROOT
ATOM      1  C   UNL     1      82.997  64.118  75.320  1.00  0.00     0.010 C 
ENDROOT
BRANCH   1   2
ATOM      2  C   UNL     1      83.840  64.646  76.513  1.00  0.00     0.100 C 
BRANCH   2   3
ATOM      3  C   UNL     1      84.772  65.732  76.136  1.00  0.00     0.220 C 
ATOM      4  N   UNL     1      85.103  65.933  74.828  1.00  0.00    -0.352 N 
ATOM      5  H   UNL     1      84.701  65.267  74.185  1.00  0.00     0.163 HD
ATOM      6  O   UNL     1      85.228  66.475  77.040  1.00  0.00    -0.275 OA
BRANCH   4   7
ATOM      7  C   UNL     1      85.944  66.983  74.340  1.00  0.00     0.151 C 
BRANCH   7   8
ATOM      8  C   UNL     1      85.258  67.885  73.375  1.00  0.00    -0.025 A 
ATOM      9  C   UNL     1      85.367  69.552  71.570  1.00  0.00     0.160 A 
ATOM     10  C   UNL     1      83.957  69.575  71.503  1.00  0.00     0.157 A 
ATOM     11  C   UNL     1      86.005  68.724  72.517  1.00  0.00     0.056 A 
ATOM     12  C   UNL     1      83.201  68.774  72.378  1.00  0.00     0.050 A 
ATOM     13  C   UNL     1      83.845  67.927  73.301  1.00  0.00     0.009 A 
BRANCH   9  14
ATOM     14  O   UNL     1      86.110  70.357  70.750  1.00  0.00    -0.493 OA
ATOM     15  C   UNL     1      86.790  69.645  69.700  1.00  0.00     0.278 C 
ENDBRANCH   9  14
BRANCH  10  16
ATOM     16  O   UNL     1      83.315  70.365  70.602  1.00  0.00    -0.504 OA
ATOM     17  H   UNL     1      83.329  71.274  70.908  1.00  0.00     0.293 HD
ENDBRANCH  10  16
ENDBRANCH   7   8
ENDBRANCH   4   7
ENDBRANCH   2   3
ENDBRANCH   1   2
BRANCH   1  18
ATOM     18  C   UNL     1      81.505  64.547  75.419  1.00  0.00     0.001 C 
BRANCH  18  19
ATOM     19  C   UNL     1      81.258  66.040  75.061  1.00  0.00     0.000 C 
BRANCH  19  20
ATOM     20  C   UNL     1      80.162  66.192  73.969  1.00  0.00     0.000 C 
BRANCH  20  21
ATOM     21  C   UNL     1      80.320  65.218  72.768  1.00  0.00     0.003 C 
BRANCH  21  22
ATOM     22  C   UNL     1      80.351  65.912  71.367  1.00  0.00    -0.017 C 
ATOM     23  C   UNL     1      81.691  65.608  70.639  1.00  0.00     0.007 C 
ATOM     24  C   UNL     1      80.098  67.447  71.424  1.00  0.00     0.007 C 
ENDBRANCH  21  22
ENDBRANCH  20  21
ENDBRANCH  19  20
ENDBRANCH  18  19
ENDBRANCH   1  18
TORSDOF 11
ENDMDL
MODEL 9
REMARK VINA RESULT:    -5.270     14.779     17.093
REMARK INTER + INTRA:          -9.330
REMARK INTER:                  -7.793
REMARK INTRA:                  -1.538
REMARK UNBOUND:                -0.826
REMARK SMILES COc1cc(CNC(=O)CCCCCCC(C)C)ccc1O
REMARK SMILES IDX 11 1 10 2 8 3 7 4 9 6 6 7 5 8 3 9 21 10 4 11 20 12 19 13
REMARK SMILES IDX 2 14 1 15 22 16 12 18 13 19 14 20 15 21 16 22 17 23 18 24
REMARK H PARENT 7 5 22 17
REMARK Flexibility Score: inf
ROOT
ATOM      1  C   UNL     1      80.214  90.923  90.398  1.00  0.00     0.010 C 
ENDROOT
BRANCH   1   2
ATOM      2  C   UNL     1      81.313  91.958  90.034  1.00  0.00     0.100 C 
BRANCH   2   3
ATOM      3  C   UNL     1      82.104  91.577  88.842  1.00  0.00     0.220 C 
ATOM      4  N   UNL     1      81.498  90.984  87.773  1.00  0.00    -0.352 N 
ATOM      5  H   UNL     1      80.513  90.802  87.895  1.00  0.00     0.163 HD
ATOM      6  O   UNL     1      83.333  91.833  88.829  1.00  0.00    -0.275 OA
BRANCH   4   7
ATOM      7  C   UNL     1      82.148  90.625  86.549  1.00  0.00     0.151 C 
BRANCH   7   8
ATOM      8  C   UNL     1      81.472  89.511  85.831  1.00  0.00    -0.025 A 
ATOM      9  C   UNL     1      81.440  87.167  85.085  1.00  0.00     0.160 A 
ATOM     10  C   UNL     1      80.170  87.368  84.501  1.00  0.00     0.157 A 
ATOM     11  C   UNL     1      82.088  88.242  85.728  1.00  0.00     0.056 A 
ATOM     12  C   UNL     1      79.564  88.636  84.562  1.00  0.00     0.050 A 
ATOM     13  C   UNL     1      80.204  89.698  85.231  1.00  0.00     0.009 A 
BRANCH   9  14
ATOM     14  O   UNL     1      82.055  85.948  84.997  1.00  0.00    -0.493 OA
ATOM     15  C   UNL     1      82.664  85.515  86.227  1.00  0.00     0.278 C 
ENDBRANCH   9  14
BRANCH  10  16
ATOM     16  O   UNL     1      79.523  86.351  83.874  1.00  0.00    -0.504 OA
ATOM     17  H   UNL     1      79.249  85.698  84.523  1.00  0.00     0.293 HD
ENDBRANCH  10  16
ENDBRANCH   7   8
ENDBRANCH   4   7
ENDBRANCH   2   3
ENDBRANCH   1   2
BRANCH   1  18
ATOM     18  C   UNL     1      80.482  90.241  91.770  1.00  0.00     0.001 C 
BRANCH  18  19
ATOM     19  C   UNL     1      81.717  89.296  91.769  1.00  0.00     0.000 C 
BRANCH  19  20
ATOM     20  C   UNL     1      81.509  88.083  90.820  1.00  0.00     0.000 C 
BRANCH  20  21
ATOM     21  C   UNL     1      80.301  87.181  91.194  1.00  0.00     0.003 C 
BRANCH  21  22
ATOM     22  C   UNL     1      79.315  86.891  90.015  1.00  0.00    -0.017 C 
ATOM     23  C   UNL     1      80.092  86.777  88.673  1.00  0.00     0.007 C 
ATOM     24  C   UNL     1      78.164  87.931  89.892  1.00  0.00     0.007 C 
ENDBRANCH  21  22
ENDBRANCH  20  21
ENDBRANCH  19  20
ENDBRANCH  18  19
ENDBRANCH   1  18
TORSDOF 11
ENDMDL
MODEL 10
REMARK VINA RESULT:    -5.214     12.101     13.401
REMARK INTER + INTRA:          -9.240
REMARK INTER:                  -8.161
REMARK INTRA:                  -1.080
REMARK UNBOUND:                -0.826
REMARK SMILES COc1cc(CNC(=O)CCCCCCC(C)C)ccc1O
REMARK SMILES IDX 11 1 10 2 8 3 7 4 9 6 6 7 5 8 3 9 21 10 4 11 20 12 19 13
REMARK SMILES IDX 2 14 1 15 22 16 12 18 13 19 14 20 15 21 16 22 17 23 18 24
REMARK H PARENT 7 5 22 17
REMARK Flexibility Score: inf
ROOT
ATOM      1  C   UNL     1      94.455  86.402  88.250  1.00  0.00     0.010 C 
ENDROOT
BRANCH   1   2
ATOM      2  C   UNL     1      93.054  85.814  87.925  1.00  0.00     0.100 C 
BRANCH   2   3
ATOM      3  C   UNL     1      93.102  84.408  87.467  1.00  0.00     0.220 C 
ATOM      4  N   UNL     1      92.181  83.942  86.575  1.00  0.00    -0.352 N 
ATOM      5  H   UNL     1      91.474  84.612  86.311  1.00  0.00     0.163 HD
ATOM      6  O   UNL     1      94.019  83.666  87.897  1.00  0.00    -0.275 OA
BRANCH   4   7
ATOM      7  C   UNL     1      92.163  82.623  86.019  1.00  0.00     0.151 C 
BRANCH   7   8
ATOM      8  C   UNL     1      90.963  81.836  86.414  1.00  0.00    -0.025 A 
ATOM      9  C   UNL     1      89.119  80.320  85.819  1.00  0.00     0.160 A 
ATOM     10  C   UNL     1      88.700  80.297  87.168  1.00  0.00     0.157 A 
ATOM     11  C   UNL     1      90.233  81.103  85.450  1.00  0.00     0.056 A 
ATOM     12  C   UNL     1      89.394  81.054  88.130  1.00  0.00     0.050 A 
ATOM     13  C   UNL     1      90.524  81.809  87.759  1.00  0.00     0.009 A 
BRANCH   9  14
ATOM     14  O   UNL     1      88.427  79.620  84.869  1.00  0.00    -0.493 OA
ATOM     15  C   UNL     1      89.165  78.519  84.309  1.00  0.00     0.278 C 
ENDBRANCH   9  14
BRANCH  10  16
ATOM     16  O   UNL     1      87.629  79.554  87.552  1.00  0.00    -0.504 OA
ATOM     17  H   UNL     1      87.170  79.230  86.773  1.00  0.00     0.293 HD
ENDBRANCH  10  16
ENDBRANCH   7   8
ENDBRANCH   4   7
ENDBRANCH   2   3
ENDBRANCH   1   2
BRANCH   1  18
ATOM     18  C   UNL     1      95.179  86.930  86.979  1.00  0.00     0.001 C 
BRANCH  18  19
ATOM     19  C   UNL     1      95.366  88.473  86.960  1.00  0.00     0.000 C 
BRANCH  19  20
ATOM     20  C   UNL     1      95.594  89.040  88.390  1.00  0.00     0.000 C 
BRANCH  20  21
ATOM     21  C   UNL     1      94.861  90.382  88.667  1.00  0.00     0.003 C 
BRANCH  21  22
ATOM     22  C   UNL     1      93.640  90.268  89.637  1.00  0.00    -0.017 C 
ATOM     23  C   UNL     1      93.870  89.127  90.668  1.00  0.00     0.007 C 
ATOM     24  C   UNL     1      92.277  90.077  88.908  1.00  0.00     0.007 C 
ENDBRANCH  21  22
ENDBRANCH  20  21
ENDBRANCH  19  20
ENDBRANCH  18  19
ENDBRANCH   1  18
TORSDOF 11
ENDMDL
