MODEL 1
REMARK VINA RESULT:    -6.574      0.000      0.000
REMARK INTER + INTRA:         -10.950
REMARK INTER:                 -10.226
REMARK INTRA:                  -0.724
REMARK UNBOUND:                -0.724
REMARK SMILES CCCCC/C=C/C(=O)CCc1ccc(O)c(OC)c1
REMARK SMILES IDX 6 1 7 2 8 3 9 4 10 5 11 6 12 7 17 8 20 9 15 10 14 11 13 12
REMARK SMILES IDX 18 13 19 14 16 15 5 17 4 18 3 19 2 20 1 21
REMARK H PARENT 16 16
REMARK Flexibility Score: inf
ROOT
ATOM      1  C   UNL     1      78.144  63.533  67.625  1.00  0.00    -0.023 C 
ATOM      2  C   UNL     1      78.492  63.267  68.890  1.00  0.00     0.043 C 
ENDROOT
BRANCH   2   3
ATOM      3  C   UNL     1      79.800  63.745  69.415  1.00  0.00     0.155 C 
ATOM      4  O   UNL     1      80.753  62.985  69.573  1.00  0.00    -0.295 OA
BRANCH   3   5
ATOM      5  C   UNL     1      79.881  65.211  69.796  1.00  0.00     0.085 C 
BRANCH   5   6
ATOM      6  C   UNL     1      79.466  65.430  71.251  1.00  0.00     0.044 C 
BRANCH   6   7
ATOM      7  C   UNL     1      80.618  65.848  72.134  1.00  0.00    -0.044 A 
ATOM      8  C   UNL     1      82.916  65.627  72.789  1.00  0.00     0.160 A 
ATOM      9  C   UNL     1      81.852  65.240  71.974  1.00  0.00     0.054 A 
ATOM     10  C   UNL     1      82.731  66.616  73.755  1.00  0.00     0.157 A 
ATOM     11  C   UNL     1      81.481  67.219  73.905  1.00  0.00     0.050 A 
ATOM     12  C   UNL     1      80.418  66.832  73.089  1.00  0.00     0.008 A 
BRANCH   8  13
ATOM     13  O   UNL     1      84.131  65.030  72.633  1.00  0.00    -0.493 OA
ATOM     14  C   UNL     1      84.163  63.808  71.900  1.00  0.00     0.278 C 
ENDBRANCH   8  13
BRANCH  10  15
ATOM     15  O   UNL     1      83.762  67.003  74.557  1.00  0.00    -0.504 OA
ATOM     16  H   UNL     1      83.539  66.768  75.474  1.00  0.00     0.293 HD
ENDBRANCH  10  15
ENDBRANCH   6   7
ENDBRANCH   5   6
ENDBRANCH   3   5
ENDBRANCH   2   3
BRANCH   1  17
ATOM     17  C   UNL     1      76.844  63.087  67.021  1.00  0.00     0.027 C 
BRANCH  17  18
ATOM     18  C   UNL     1      76.061  64.230  66.366  1.00  0.00     0.004 C 
BRANCH  18  19
ATOM     19  C   UNL     1      76.337  65.601  66.991  1.00  0.00     0.000 C 
BRANCH  19  20
ATOM     20  C   UNL     1      75.576  65.771  68.306  1.00  0.00    -0.003 C 
ATOM     21  C   UNL     1      74.227  65.070  68.264  1.00  0.00     0.004 C 
ENDBRANCH  19  20
ENDBRANCH  18  19
ENDBRANCH  17  18
ENDBRANCH   1  17
TORSDOF 10
ENDMDL
MODEL 2
REMARK VINA RESULT:    -6.489     32.231     35.472
REMARK INTER + INTRA:         -10.817
REMARK INTER:                  -9.873
REMARK INTRA:                  -0.945
REMARK UNBOUND:                -0.724
REMARK SMILES CCCCC/C=C/C(=O)CCc1ccc(O)c(OC)c1
REMARK SMILES IDX 6 1 7 2 8 3 9 4 10 5 11 6 12 7 17 8 20 9 15 10 14 11 13 12
REMARK SMILES IDX 18 13 19 14 16 15 5 17 4 18 3 19 2 20 1 21
REMARK H PARENT 16 16
REMARK Flexibility Score: inf
ROOT
ATOM      1  C   UNL     1      93.338  94.827  76.736  1.00  0.00    -0.023 C 
ATOM      2  C   UNL     1      93.335  95.155  78.034  1.00  0.00     0.043 C 
ENDROOT
BRANCH   2   3
ATOM      3  C   UNL     1      94.548  94.917  78.862  1.00  0.00     0.155 C 
ATOM      4  O   UNL     1      94.481  94.413  79.981  1.00  0.00    -0.295 OA
BRANCH   3   5
ATOM      5  C   UNL     1      95.868  95.378  78.276  1.00  0.00     0.085 C 
BRANCH   5   6
ATOM      6  C   UNL     1      95.976  96.904  78.284  1.00  0.00     0.044 C 
BRANCH   6   7
ATOM      7  C   UNL     1      96.137  97.474  79.673  1.00  0.00    -0.044 A 
ATOM      8  C   UNL     1      97.081  97.337  81.875  1.00  0.00     0.160 A 
ATOM      9  C   UNL     1      96.933  96.810  80.592  1.00  0.00     0.054 A 
ATOM     10  C   UNL     1      96.431  98.521  82.223  1.00  0.00     0.157 A 
ATOM     11  C   UNL     1      95.632  99.178  81.286  1.00  0.00     0.050 A 
ATOM     12  C   UNL     1      95.484  98.651  80.003  1.00  0.00     0.008 A 
BRANCH   8  13
ATOM     13  O   UNL     1      97.864  96.686  82.781  1.00  0.00    -0.493 OA
ATOM     14  C   UNL     1      97.870  95.261  82.726  1.00  0.00     0.278 C 
ENDBRANCH   8  13
BRANCH  10  15
ATOM     15  O   UNL     1      96.568  99.046  83.472  1.00  0.00    -0.504 OA
ATOM     16  H   UNL     1      97.515  99.069  83.691  1.00  0.00     0.293 HD
ENDBRANCH  10  15
ENDBRANCH   6   7
ENDBRANCH   5   6
ENDBRANCH   3   5
ENDBRANCH   2   3
BRANCH   1  17
ATOM     17  C   UNL     1      92.156  95.034  75.834  1.00  0.00     0.027 C 
BRANCH  17  18
ATOM     18  C   UNL     1      90.922  95.564  76.572  1.00  0.00     0.004 C 
BRANCH  18  19
ATOM     19  C   UNL     1      89.715  94.623  76.505  1.00  0.00     0.000 C 
BRANCH  19  20
ATOM     20  C   UNL     1      89.862  93.466  77.493  1.00  0.00    -0.003 C 
ATOM     21  C   UNL     1      89.792  92.120  76.790  1.00  0.00     0.004 C 
ENDBRANCH  19  20
ENDBRANCH  18  19
ENDBRANCH  17  18
ENDBRANCH   1  17
TORSDOF 10
ENDMDL
MODEL 3
REMARK VINA RESULT:    -6.448     31.433     34.572
REMARK INTER + INTRA:         -10.754
REMARK INTER:                  -9.695
REMARK INTRA:                  -1.059
REMARK UNBOUND:                -0.724
REMARK SMILES CCCCC/C=C/C(=O)CCc1ccc(O)c(OC)c1
REMARK SMILES IDX 6 1 7 2 8 3 9 4 10 5 11 6 12 7 17 8 20 9 15 10 14 11 13 12
REMARK SMILES IDX 18 13 19 14 16 15 5 17 4 18 3 19 2 20 1 21
REMARK H PARENT 16 16
REMARK Flexibility Score: inf
ROOT
ATOM      1  C   UNL     1      91.496  94.469  77.883  1.00  0.00    -0.023 C 
ATOM      2  C   UNL     1      92.680  94.868  77.403  1.00  0.00     0.043 C 
ENDROOT
BRANCH   2   3
ATOM      3  C   UNL     1      93.700  95.440  78.324  1.00  0.00     0.155 C 
ATOM      4  O   UNL     1      94.086  94.834  79.321  1.00  0.00    -0.295 OA
BRANCH   3   5
ATOM      5  C   UNL     1      94.198  96.835  77.999  1.00  0.00     0.085 C 
BRANCH   5   6
ATOM      6  C   UNL     1      93.474  97.414  76.782  1.00  0.00     0.044 C 
BRANCH   6   7
ATOM      7  C   UNL     1      94.350  97.479  75.554  1.00  0.00    -0.044 A 
ATOM      8  C   UNL     1      96.278  98.355  74.425  1.00  0.00     0.160 A 
ATOM      9  C   UNL     1      95.469  98.296  75.560  1.00  0.00     0.054 A 
ATOM     10  C   UNL     1      95.958  97.597  73.299  1.00  0.00     0.157 A 
ATOM     11  C   UNL     1      94.827  96.779  73.308  1.00  0.00     0.050 A 
ATOM     12  C   UNL     1      94.018  96.720  74.443  1.00  0.00     0.008 A 
BRANCH   8  13
ATOM     13  O   UNL     1      97.379  99.158  74.428  1.00  0.00    -0.493 OA
ATOM     14  C   UNL     1      98.524  98.685  75.135  1.00  0.00     0.278 C 
ENDBRANCH   8  13
BRANCH  10  15
ATOM     15  O   UNL     1      96.740  97.646  72.185  1.00  0.00    -0.504 OA
ATOM     16  H   UNL     1      96.250  97.240  71.450  1.00  0.00     0.293 HD
ENDBRANCH  10  15
ENDBRANCH   6   7
ENDBRANCH   5   6
ENDBRANCH   3   5
ENDBRANCH   2   3
BRANCH   1  17
ATOM     17  C   UNL     1      90.417  93.882  77.021  1.00  0.00     0.027 C 
BRANCH  17  18
ATOM     18  C   UNL     1      90.364  94.501  75.620  1.00  0.00     0.004 C 
BRANCH  18  19
ATOM     19  C   UNL     1      90.644  93.499  74.495  1.00  0.00     0.000 C 
BRANCH  19  20
ATOM     20  C   UNL     1      90.343  92.068  74.944  1.00  0.00    -0.003 C 
ATOM     21  C   UNL     1      90.512  91.079  73.801  1.00  0.00     0.004 C 
ENDBRANCH  19  20
ENDBRANCH  18  19
ENDBRANCH  17  18
ENDBRANCH   1  17
TORSDOF 10
ENDMDL
MODEL 4
REMARK VINA RESULT:    -6.358      1.775      2.376
REMARK INTER + INTRA:         -10.613
REMARK INTER:                  -9.826
REMARK INTRA:                  -0.788
REMARK UNBOUND:                -0.724
REMARK SMILES CCCCC/C=C/C(=O)CCc1ccc(O)c(OC)c1
REMARK SMILES IDX 6 1 7 2 8 3 9 4 10 5 11 6 12 7 17 8 20 9 15 10 14 11 13 12
REMARK SMILES IDX 18 13 19 14 16 15 5 17 4 18 3 19 2 20 1 21
REMARK H PARENT 16 16
REMARK Flexibility Score: inf
ROOT
ATOM      1  C   UNL     1      78.520  64.390  68.281  1.00  0.00    -0.023 C 
ATOM      2  C   UNL     1      78.675  64.240  69.602  1.00  0.00     0.043 C 
ENDROOT
BRANCH   2   3
ATOM      3  C   UNL     1      79.497  65.216  70.368  1.00  0.00     0.155 C 
ATOM      4  O   UNL     1      79.050  66.306  70.720  1.00  0.00    -0.295 OA
BRANCH   3   5
ATOM      5  C   UNL     1      80.933  64.819  70.647  1.00  0.00     0.085 C 
BRANCH   5   6
ATOM      6  C   UNL     1      81.873  66.021  70.540  1.00  0.00     0.044 C 
BRANCH   6   7
ATOM      7  C   UNL     1      82.510  66.388  71.860  1.00  0.00    -0.044 A 
ATOM      8  C   UNL     1      83.943  67.822  73.143  1.00  0.00     0.160 A 
ATOM      9  C   UNL     1      83.356  67.484  71.924  1.00  0.00     0.054 A 
ATOM     10  C   UNL     1      83.678  67.061  74.281  1.00  0.00     0.157 A 
ATOM     11  C   UNL     1      82.824  65.960  74.200  1.00  0.00     0.050 A 
ATOM     12  C   UNL     1      82.237  65.622  72.981  1.00  0.00     0.008 A 
BRANCH   8  13
ATOM     13  O   UNL     1      84.775  68.899  73.209  1.00  0.00    -0.493 OA
ATOM     14  C   UNL     1      86.100  68.727  72.709  1.00  0.00     0.278 C 
ENDBRANCH   8  13
BRANCH  10  15
ATOM     15  O   UNL     1      84.245  67.382  75.477  1.00  0.00    -0.504 OA
ATOM     16  H   UNL     1      85.178  67.611  75.321  1.00  0.00     0.293 HD
ENDBRANCH  10  15
ENDBRANCH   6   7
ENDBRANCH   5   6
ENDBRANCH   3   5
ENDBRANCH   2   3
BRANCH   1  17
ATOM     17  C   UNL     1      77.709  63.450  67.438  1.00  0.00     0.027 C 
BRANCH  17  18
ATOM     18  C   UNL     1      76.574  64.147  66.681  1.00  0.00     0.004 C 
BRANCH  18  19
ATOM     19  C   UNL     1      75.179  63.640  67.061  1.00  0.00     0.000 C 
BRANCH  19  20
ATOM     20  C   UNL     1      74.310  64.773  67.607  1.00  0.00    -0.003 C 
ATOM     21  C   UNL     1      74.965  65.453  68.799  1.00  0.00     0.004 C 
ENDBRANCH  19  20
ENDBRANCH  18  19
ENDBRANCH  17  18
ENDBRANCH   1  17
TORSDOF 10
ENDMDL
MODEL 5
REMARK VINA RESULT:    -6.208     31.604     34.769
REMARK INTER + INTRA:         -10.380
REMARK INTER:                  -9.766
REMARK INTRA:                  -0.615
REMARK UNBOUND:                -0.724
REMARK SMILES CCCCC/C=C/C(=O)CCc1ccc(O)c(OC)c1
REMARK SMILES IDX 6 1 7 2 8 3 9 4 10 5 11 6 12 7 17 8 20 9 15 10 14 11 13 12
REMARK SMILES IDX 18 13 19 14 16 15 5 17 4 18 3 19 2 20 1 21
REMARK H PARENT 16 16
REMARK Flexibility Score: inf
ROOT
ATOM      1  C   UNL     1      90.919  94.778  76.853  1.00  0.00    -0.023 C 
ATOM      2  C   UNL     1      91.813  94.564  77.826  1.00  0.00     0.043 C 
ENDROOT
BRANCH   2   3
ATOM      3  C   UNL     1      93.023  95.426  77.924  1.00  0.00     0.155 C 
ATOM      4  O   UNL     1      93.082  96.525  77.376  1.00  0.00    -0.295 OA
BRANCH   3   5
ATOM      5  C   UNL     1      94.199  94.855  78.691  1.00  0.00     0.085 C 
BRANCH   5   6
ATOM      6  C   UNL     1      95.466  95.680  78.459  1.00  0.00     0.044 C 
BRANCH   6   7
ATOM      7  C   UNL     1      95.910  96.434  79.690  1.00  0.00    -0.044 A 
ATOM      8  C   UNL     1      96.053  98.485  80.927  1.00  0.00     0.160 A 
ATOM      9  C   UNL     1      95.644  97.790  79.789  1.00  0.00     0.054 A 
ATOM     10  C   UNL     1      96.724  97.816  81.951  1.00  0.00     0.157 A 
ATOM     11  C   UNL     1      96.985  96.450  81.836  1.00  0.00     0.050 A 
ATOM     12  C   UNL     1      96.575  95.755  80.698  1.00  0.00     0.008 A 
BRANCH   8  13
ATOM     13  O   UNL     1      95.793  99.819  81.027  1.00  0.00    -0.493 OA
ATOM     14  C   UNL     1      96.584 100.696  80.227  1.00  0.00     0.278 C 
ENDBRANCH   8  13
BRANCH  10  15
ATOM     15  O   UNL     1      97.128  98.484  83.067  1.00  0.00    -0.504 OA
ATOM     16  H   UNL     1      96.420  98.427  83.730  1.00  0.00     0.293 HD
ENDBRANCH  10  15
ENDBRANCH   6   7
ENDBRANCH   5   6
ENDBRANCH   3   5
ENDBRANCH   2   3
BRANCH   1  17
ATOM     17  C   UNL     1      89.675  93.954  76.686  1.00  0.00     0.027 C 
BRANCH  17  18
ATOM     18  C   UNL     1      89.960  92.525  76.209  1.00  0.00     0.004 C 
BRANCH  18  19
ATOM     19  C   UNL     1      90.637  92.460  74.837  1.00  0.00     0.000 C 
BRANCH  19  20
ATOM     20  C   UNL     1      90.447  91.086  74.193  1.00  0.00    -0.003 C 
ATOM     21  C   UNL     1      88.986  90.665  74.199  1.00  0.00     0.004 C 
ENDBRANCH  19  20
ENDBRANCH  18  19
ENDBRANCH  17  18
ENDBRANCH   1  17
TORSDOF 10
ENDMDL
MODEL 6
REMARK VINA RESULT:    -6.060     31.650     34.928
REMARK INTER + INTRA:         -10.150
REMARK INTER:                  -9.094
REMARK INTRA:                  -1.056
REMARK UNBOUND:                -0.724
REMARK SMILES CCCCC/C=C/C(=O)CCc1ccc(O)c(OC)c1
REMARK SMILES IDX 6 1 7 2 8 3 9 4 10 5 11 6 12 7 17 8 20 9 15 10 14 11 13 12
REMARK SMILES IDX 18 13 19 14 16 15 5 17 4 18 3 19 2 20 1 21
REMARK H PARENT 16 16
REMARK Flexibility Score: inf
ROOT
ATOM      1  C   UNL     1      93.096  96.517  76.593  1.00  0.00    -0.023 C 
ATOM      2  C   UNL     1      93.900  96.773  75.553  1.00  0.00     0.043 C 
ENDROOT
BRANCH   2   3
ATOM      3  C   UNL     1      95.139  97.573  75.753  1.00  0.00     0.155 C 
ATOM      4  O   UNL     1      95.853  97.910  74.811  1.00  0.00    -0.295 OA
BRANCH   3   5
ATOM      5  C   UNL     1      95.505  97.905  77.187  1.00  0.00     0.085 C 
BRANCH   5   6
ATOM      6  C   UNL     1      96.628  97.000  77.697  1.00  0.00     0.044 C 
BRANCH   6   7
ATOM      7  C   UNL     1      96.216  96.169  78.889  1.00  0.00    -0.044 A 
ATOM      8  C   UNL     1      96.499  95.566  81.195  1.00  0.00     0.160 A 
ATOM      9  C   UNL     1      96.880  96.334  80.094  1.00  0.00     0.054 A 
ATOM     10  C   UNL     1      95.460  94.644  81.076  1.00  0.00     0.157 A 
ATOM     11  C   UNL     1      94.801  94.488  79.856  1.00  0.00     0.050 A 
ATOM     12  C   UNL     1      95.182  95.256  78.755  1.00  0.00     0.008 A 
BRANCH   8  13
ATOM     13  O   UNL     1      97.150  95.727  82.381  1.00  0.00    -0.493 OA
ATOM     14  C   UNL     1      98.489  96.215  82.325  1.00  0.00     0.278 C 
ENDBRANCH   8  13
BRANCH  10  15
ATOM     15  O   UNL     1      95.078  93.889  82.144  1.00  0.00    -0.504 OA
ATOM     16  H   UNL     1      94.106  93.870  82.173  1.00  0.00     0.293 HD
ENDBRANCH  10  15
ENDBRANCH   6   7
ENDBRANCH   5   6
ENDBRANCH   3   5
ENDBRANCH   2   3
BRANCH   1  17
ATOM     17  C   UNL     1      91.830  95.720  76.474  1.00  0.00     0.027 C 
BRANCH  17  18
ATOM     18  C   UNL     1      91.624  94.740  77.634  1.00  0.00     0.004 C 
BRANCH  18  19
ATOM     19  C   UNL     1      90.423  93.808  77.444  1.00  0.00     0.000 C 
BRANCH  19  20
ATOM     20  C   UNL     1      89.968  93.784  75.985  1.00  0.00    -0.003 C 
ATOM     21  C   UNL     1      90.365  92.487  75.298  1.00  0.00     0.004 C 
ENDBRANCH  19  20
ENDBRANCH  18  19
ENDBRANCH  17  18
ENDBRANCH   1  17
TORSDOF 10
ENDMDL
MODEL 7
REMARK VINA RESULT:    -5.950     31.900     35.038
REMARK INTER + INTRA:          -9.979
REMARK INTER:                  -8.896
REMARK INTRA:                  -1.083
REMARK UNBOUND:                -0.724
REMARK SMILES CCCCC/C=C/C(=O)CCc1ccc(O)c(OC)c1
REMARK SMILES IDX 6 1 7 2 8 3 9 4 10 5 11 6 12 7 17 8 20 9 15 10 14 11 13 12
REMARK SMILES IDX 18 13 19 14 16 15 5 17 4 18 3 19 2 20 1 21
REMARK H PARENT 16 16
REMARK Flexibility Score: inf
ROOT
ATOM      1  C   UNL     1      92.577  95.787  76.839  1.00  0.00    -0.023 C 
ATOM      2  C   UNL     1      93.325  95.443  75.783  1.00  0.00     0.043 C 
ENDROOT
BRANCH   2   3
ATOM      3  C   UNL     1      94.060  96.490  75.022  1.00  0.00     0.155 C 
ATOM      4  O   UNL     1      93.656  96.909  73.939  1.00  0.00    -0.295 OA
BRANCH   3   5
ATOM      5  C   UNL     1      95.363  96.975  75.626  1.00  0.00     0.085 C 
BRANCH   5   6
ATOM      6  C   UNL     1      95.151  98.236  76.464  1.00  0.00     0.044 C 
BRANCH   6   7
ATOM      7  C   UNL     1      95.598  98.072  77.898  1.00  0.00    -0.044 A 
ATOM      8  C   UNL     1      95.851  96.693  79.846  1.00  0.00     0.160 A 
ATOM      9  C   UNL     1      95.438  96.845  78.522  1.00  0.00     0.054 A 
ATOM     10  C   UNL     1      96.418  97.770  80.528  1.00  0.00     0.157 A 
ATOM     11  C   UNL     1      96.572  98.999  79.885  1.00  0.00     0.050 A 
ATOM     12  C   UNL     1      96.159  99.151  78.562  1.00  0.00     0.008 A 
BRANCH   8  13
ATOM     13  O   UNL     1      95.695  95.488  80.462  1.00  0.00    -0.493 OA
ATOM     14  C   UNL     1      95.036  94.462  79.723  1.00  0.00     0.278 C 
ENDBRANCH   8  13
BRANCH  10  15
ATOM     15  O   UNL     1      96.826  97.634  81.820  1.00  0.00    -0.504 OA
ATOM     16  H   UNL     1      97.684  98.082  81.919  1.00  0.00     0.293 HD
ENDBRANCH  10  15
ENDBRANCH   6   7
ENDBRANCH   5   6
ENDBRANCH   3   5
ENDBRANCH   2   3
BRANCH   1  17
ATOM     17  C   UNL     1      91.806  94.793  77.657  1.00  0.00     0.027 C 
BRANCH  17  18
ATOM     18  C   UNL     1      91.069  93.755  76.804  1.00  0.00     0.004 C 
BRANCH  18  19
ATOM     19  C   UNL     1      89.864  94.325  76.049  1.00  0.00     0.000 C 
BRANCH  19  20
ATOM     20  C   UNL     1      89.951  94.012  74.554  1.00  0.00    -0.003 C 
ATOM     21  C   UNL     1      90.330  92.560  74.310  1.00  0.00     0.004 C 
ENDBRANCH  19  20
ENDBRANCH  18  19
ENDBRANCH  17  18
ENDBRANCH   1  17
TORSDOF 10
ENDMDL
MODEL 8
REMARK VINA RESULT:    -5.676     32.659     35.876
REMARK INTER + INTRA:          -9.553
REMARK INTER:                  -8.649
REMARK INTRA:                  -0.905
REMARK UNBOUND:                -0.724
REMARK SMILES CCCCC/C=C/C(=O)CCc1ccc(O)c(OC)c1
REMARK SMILES IDX 6 1 7 2 8 3 9 4 10 5 11 6 12 7 17 8 20 9 15 10 14 11 13 12
REMARK SMILES IDX 18 13 19 14 16 15 5 17 4 18 3 19 2 20 1 21
REMARK H PARENT 16 16
REMARK Flexibility Score: inf
ROOT
ATOM      1  C   UNL     1      93.666  96.067  76.260  1.00  0.00    -0.023 C 
ATOM      2  C   UNL     1      94.218  96.346  75.073  1.00  0.00     0.043 C 
ENDROOT
BRANCH   2   3
ATOM      3  C   UNL     1      94.965  97.619  74.883  1.00  0.00     0.155 C 
ATOM      4  O   UNL     1      95.433  97.941  73.793  1.00  0.00    -0.295 OA
BRANCH   3   5
ATOM      5  C   UNL     1      95.166  98.475  76.119  1.00  0.00     0.085 C 
BRANCH   5   6
ATOM      6  C   UNL     1      96.544  98.240  76.739  1.00  0.00     0.044 C 
BRANCH   6   7
ATOM      7  C   UNL     1      96.470  97.727  78.158  1.00  0.00    -0.044 A 
ATOM      8  C   UNL     1      96.386  98.157  80.517  1.00  0.00     0.160 A 
ATOM      9  C   UNL     1      96.455  98.632  79.207  1.00  0.00     0.054 A 
ATOM     10  C   UNL     1      96.333  96.785  80.760  1.00  0.00     0.157 A 
ATOM     11  C   UNL     1      96.350  95.886  79.693  1.00  0.00     0.050 A 
ATOM     12  C   UNL     1      96.419  96.361  78.383  1.00  0.00     0.008 A 
BRANCH   8  13
ATOM     13  O   UNL     1      96.371  99.044  81.551  1.00  0.00    -0.493 OA
ATOM     14  C   UNL     1      95.131  99.689  81.834  1.00  0.00     0.278 C 
ENDBRANCH   8  13
BRANCH  10  15
ATOM     15  O   UNL     1      96.265  96.309  82.035  1.00  0.00    -0.504 OA
ATOM     16  H   UNL     1      95.425  95.830  82.137  1.00  0.00     0.293 HD
ENDBRANCH  10  15
ENDBRANCH   6   7
ENDBRANCH   5   6
ENDBRANCH   3   5
ENDBRANCH   2   3
BRANCH   1  17
ATOM     17  C   UNL     1      92.897  94.806  76.531  1.00  0.00     0.027 C 
BRANCH  17  18
ATOM     18  C   UNL     1      91.846  94.968  77.634  1.00  0.00     0.004 C 
BRANCH  18  19
ATOM     19  C   UNL     1      90.749  93.899  77.599  1.00  0.00     0.000 C 
BRANCH  19  20
ATOM     20  C   UNL     1      89.564  94.353  76.745  1.00  0.00    -0.003 C 
ATOM     21  C   UNL     1      89.857  94.205  75.261  1.00  0.00     0.004 C 
ENDBRANCH  19  20
ENDBRANCH  18  19
ENDBRANCH  17  18
ENDBRANCH   1  17
TORSDOF 10
ENDMDL
MODEL 9
REMARK VINA RESULT:    -5.644     21.011     22.871
REMARK INTER + INTRA:          -9.503
REMARK INTER:                  -8.896
REMARK INTRA:                  -0.607
REMARK UNBOUND:                -0.724
REMARK SMILES CCCCC/C=C/C(=O)CCc1ccc(O)c(OC)c1
REMARK SMILES IDX 6 1 7 2 8 3 9 4 10 5 11 6 12 7 17 8 20 9 15 10 14 11 13 12
REMARK SMILES IDX 18 13 19 14 16 15 5 17 4 18 3 19 2 20 1 21
REMARK H PARENT 16 16
REMARK Flexibility Score: inf
ROOT
ATOM      1  C   UNL     1      76.432  88.199  68.588  1.00  0.00    -0.023 C 
ATOM      2  C   UNL     1      75.960  87.053  69.094  1.00  0.00     0.043 C 
ENDROOT
BRANCH   2   3
ATOM      3  C   UNL     1      76.726  85.790  68.912  1.00  0.00     0.155 C 
ATOM      4  O   UNL     1      76.735  84.908  69.768  1.00  0.00    -0.295 OA
BRANCH   3   5
ATOM      5  C   UNL     1      77.538  85.670  67.638  1.00  0.00     0.085 C 
BRANCH   5   6
ATOM      6  C   UNL     1      77.573  84.225  67.136  1.00  0.00     0.044 C 
BRANCH   6   7
ATOM      7  C   UNL     1      76.503  83.934  66.110  1.00  0.00    -0.044 A 
ATOM      8  C   UNL     1      74.182  83.810  65.512  1.00  0.00     0.160 A 
ATOM      9  C   UNL     1      75.170  84.078  66.460  1.00  0.00     0.054 A 
ATOM     10  C   UNL     1      74.540  83.399  64.228  1.00  0.00     0.157 A 
ATOM     11  C   UNL     1      75.887  83.258  63.891  1.00  0.00     0.050 A 
ATOM     12  C   UNL     1      76.875  83.527  64.839  1.00  0.00     0.008 A 
BRANCH   8  13
ATOM     13  O   UNL     1      72.871  83.951  65.852  1.00  0.00    -0.493 OA
ATOM     14  C   UNL     1      72.333  85.272  65.825  1.00  0.00     0.278 C 
ENDBRANCH   8  13
BRANCH  10  15
ATOM     15  O   UNL     1      73.585  83.134  63.293  1.00  0.00    -0.504 OA
ATOM     16  H   UNL     1      73.979  82.571  62.605  1.00  0.00     0.293 HD
ENDBRANCH  10  15
ENDBRANCH   6   7
ENDBRANCH   5   6
ENDBRANCH   3   5
ENDBRANCH   2   3
BRANCH   1  17
ATOM     17  C   UNL     1      75.720  89.513  68.728  1.00  0.00     0.027 C 
BRANCH  17  18
ATOM     18  C   UNL     1      74.562  89.466  69.730  1.00  0.00     0.004 C 
BRANCH  18  19
ATOM     19  C   UNL     1      74.534  90.659  70.691  1.00  0.00     0.000 C 
BRANCH  19  20
ATOM     20  C   UNL     1      73.299  90.612  71.592  1.00  0.00    -0.003 C 
ATOM     21  C   UNL     1      73.224  91.830  72.498  1.00  0.00     0.004 C 
ENDBRANCH  19  20
ENDBRANCH  18  19
ENDBRANCH  17  18
ENDBRANCH   1  17
TORSDOF 10
ENDMDL
MODEL 10
REMARK VINA RESULT:    -5.340     25.431     27.031
REMARK INTER + INTRA:          -9.030
REMARK INTER:                  -7.718
REMARK INTRA:                  -1.312
REMARK UNBOUND:                -0.724
REMARK SMILES CCCCC/C=C/C(=O)CCc1ccc(O)c(OC)c1
REMARK SMILES IDX 6 1 7 2 8 3 9 4 10 5 11 6 12 7 17 8 20 9 15 10 14 11 13 12
REMARK SMILES IDX 18 13 19 14 16 15 5 17 4 18 3 19 2 20 1 21
REMARK H PARENT 16 16
REMARK Flexibility Score: inf
ROOT
ATOM      1  C   UNL     1      98.814  79.642  80.311  1.00  0.00    -0.023 C 
ATOM      2  C   UNL     1      99.259  79.334  79.086  1.00  0.00     0.043 C 
ENDROOT
BRANCH   2   3
ATOM      3  C   UNL     1     100.601  79.802  78.645  1.00  0.00     0.155 C 
ATOM      4  O   UNL     1     101.540  79.024  78.488  1.00  0.00    -0.295 OA
BRANCH   3   5
ATOM      5  C   UNL     1     100.765  81.296  78.451  1.00  0.00     0.085 C 
BRANCH   5   6
ATOM      6  C   UNL     1     100.522  81.697  76.995  1.00  0.00     0.044 C 
BRANCH   6   7
ATOM      7  C   UNL     1      99.314  82.588  76.825  1.00  0.00    -0.044 A 
ATOM      8  C   UNL     1      97.992  84.052  75.458  1.00  0.00     0.160 A 
ATOM      9  C   UNL     1      99.108  83.230  75.614  1.00  0.00     0.054 A 
ATOM     10  C   UNL     1      97.097  84.222  76.513  1.00  0.00     0.157 A 
ATOM     11  C   UNL     1      97.318  83.569  77.727  1.00  0.00     0.050 A 
ATOM     12  C   UNL     1      98.434  82.747  77.883  1.00  0.00     0.008 A 
BRANCH   8  13
ATOM     13  O   UNL     1      97.788  84.684  74.268  1.00  0.00    -0.493 OA
ATOM     14  C   UNL     1      98.944  85.007  73.498  1.00  0.00     0.278 C 
ENDBRANCH   8  13
BRANCH  10  15
ATOM     15  O   UNL     1      96.004  85.022  76.373  1.00  0.00    -0.504 OA
ATOM     16  H   UNL     1      96.309  85.935  76.237  1.00  0.00     0.293 HD
ENDBRANCH  10  15
ENDBRANCH   6   7
ENDBRANCH   5   6
ENDBRANCH   3   5
ENDBRANCH   2   3
BRANCH   1  17
ATOM     17  C   UNL     1      97.474  79.209  80.830  1.00  0.00     0.027 C 
BRANCH  17  18
ATOM     18  C   UNL     1      96.799  80.266  81.711  1.00  0.00     0.004 C 
BRANCH  18  19
ATOM     19  C   UNL     1      97.649  81.523  81.920  1.00  0.00     0.000 C 
BRANCH  19  20
ATOM     20  C   UNL     1      96.963  82.758  81.333  1.00  0.00    -0.003 C 
ATOM     21  C   UNL     1      96.292  83.589  82.415  1.00  0.00     0.004 C 
ENDBRANCH  19  20
ENDBRANCH  18  19
ENDBRANCH  17  18
ENDBRANCH   1  17
TORSDOF 10
ENDMDL
