MODEL 1
REMARK VINA RESULT:    -7.264      0.000      0.000
REMARK INTER + INTRA:         -13.268
REMARK INTER:                 -11.934
REMARK INTRA:                  -1.334
REMARK UNBOUND:                -1.334
REMARK SMILES CCCCC[C@H](O)CC(=O)CCc1ccc(O)c(OC)c1
REMARK SMILES IDX 8 1 6 2 7 3 5 5 4 6 3 7 2 8 1 9 9 10 10 11 11 12 12 13 13 14
REMARK SMILES IDX 21 15 14 16 18 17 15 18 16 19 19 20 20 21 17 22
REMARK H PARENT 7 4 17 23
REMARK Flexibility Score: inf
ROOT
ATOM      1  C   UNL     1      90.373  92.477  73.022  1.00  0.00     0.107 C 
ENDROOT
BRANCH   1   2
ATOM      2  C   UNL     1      91.579  92.075  73.874  1.00  0.00     0.121 C 
BRANCH   2   3
ATOM      3  O   UNL     1      92.496  91.319  73.086  1.00  0.00    -0.393 OA
ATOM      4  H   UNL     1      93.391  91.485  73.431  1.00  0.00     0.210 HD
ENDBRANCH   2   3
BRANCH   2   5
ATOM      5  C   UNL     1      92.310  93.277  74.485  1.00  0.00     0.032 C 
BRANCH   5   6
ATOM      6  C   UNL     1      92.570  93.092  75.985  1.00  0.00     0.003 C 
BRANCH   6   7
ATOM      7  C   UNL     1      92.259  94.343  76.813  1.00  0.00    -0.000 C 
BRANCH   7   8
ATOM      8  C   UNL     1      90.958  95.035  76.411  1.00  0.00    -0.003 C 
ATOM      9  C   UNL     1      89.767  94.100  76.551  1.00  0.00     0.004 C 
ENDBRANCH   7   8
ENDBRANCH   6   7
ENDBRANCH   5   6
ENDBRANCH   2   5
ENDBRANCH   1   2
BRANCH   1  10
ATOM     10  C   UNL     1      90.040  91.460  71.943  1.00  0.00     0.135 C 
ATOM     11  O   UNL     1      90.529  91.548  70.817  1.00  0.00    -0.300 OA
BRANCH  10  12
ATOM     12  C   UNL     1      89.117  90.319  72.343  1.00  0.00     0.080 C 
BRANCH  12  13
ATOM     13  C   UNL     1      88.449  90.516  73.705  1.00  0.00     0.043 C 
BRANCH  13  14
ATOM     14  C   UNL     1      89.117  89.734  74.811  1.00  0.00    -0.044 A 
ATOM     15  C   UNL     1      89.137  90.240  76.110  1.00  0.00     0.054 A 
ATOM     16  C   UNL     1      89.714  88.504  74.532  1.00  0.00     0.008 A 
ATOM     17  C   UNL     1      89.754  89.516  77.131  1.00  0.00     0.160 A 
ATOM     18  C   UNL     1      90.330  87.780  75.553  1.00  0.00     0.050 A 
ATOM     19  C   UNL     1      90.350  88.286  76.852  1.00  0.00     0.157 A 
BRANCH  17  20
ATOM     20  O   UNL     1      89.767  90.021  78.396  1.00  0.00    -0.493 OA
ATOM     21  C   UNL     1      90.505  91.224  78.606  1.00  0.00     0.278 C 
ENDBRANCH  17  20
BRANCH  19  22
ATOM     22  O   UNL     1      90.955  87.570  77.840  1.00  0.00    -0.504 OA
ATOM     23  H   UNL     1      90.729  86.630  77.734  1.00  0.00     0.293 HD
ENDBRANCH  19  22
ENDBRANCH  13  14
ENDBRANCH  12  13
ENDBRANCH  10  12
ENDBRANCH   1  10
TORSDOF 12
ENDMDL
MODEL 2
REMARK VINA RESULT:    -6.905      1.425      4.888
REMARK INTER + INTRA:         -12.679
REMARK INTER:                 -11.065
REMARK INTRA:                  -1.614
REMARK UNBOUND:                -1.334
REMARK SMILES CCCCC[C@H](O)CC(=O)CCc1ccc(O)c(OC)c1
REMARK SMILES IDX 8 1 6 2 7 3 5 5 4 6 3 7 2 8 1 9 9 10 10 11 11 12 12 13 13 14
REMARK SMILES IDX 21 15 14 16 18 17 15 18 16 19 19 20 20 21 17 22
REMARK H PARENT 7 4 17 23
REMARK Flexibility Score: inf
ROOT
ATOM      1  C   UNL     1      89.273  89.468  77.242  1.00  0.00     0.107 C 
ENDROOT
BRANCH   1   2
ATOM      2  C   UNL     1      89.880  90.513  78.181  1.00  0.00     0.121 C 
BRANCH   2   3
ATOM      3  O   UNL     1      90.321  89.884  79.382  1.00  0.00    -0.393 OA
ATOM      4  H   UNL     1      91.215  90.216  79.581  1.00  0.00     0.210 HD
ENDBRANCH   2   3
BRANCH   2   5
ATOM      5  C   UNL     1      91.052  91.277  77.552  1.00  0.00     0.032 C 
BRANCH   5   6
ATOM      6  C   UNL     1      90.872  92.796  77.657  1.00  0.00     0.003 C 
BRANCH   6   7
ATOM      7  C   UNL     1      89.699  93.327  76.825  1.00  0.00    -0.000 C 
BRANCH   7   8
ATOM      8  C   UNL     1      89.978  94.677  76.167  1.00  0.00    -0.003 C 
ATOM      9  C   UNL     1      91.463  95.006  76.184  1.00  0.00     0.004 C 
ENDBRANCH   7   8
ENDBRANCH   6   7
ENDBRANCH   5   6
ENDBRANCH   2   5
ENDBRANCH   1   2
BRANCH   1  10
ATOM     10  C   UNL     1      89.994  88.130  77.293  1.00  0.00     0.135 C 
ATOM     11  O   UNL     1      89.683  87.275  78.122  1.00  0.00    -0.300 OA
BRANCH  10  12
ATOM     12  C   UNL     1      91.073  87.897  76.247  1.00  0.00     0.080 C 
BRANCH  12  13
ATOM     13  C   UNL     1      90.560  87.973  74.807  1.00  0.00     0.043 C 
BRANCH  13  14
ATOM     14  C   UNL     1      90.470  89.387  74.285  1.00  0.00    -0.044 A 
ATOM     15  C   UNL     1      89.269  89.861  73.758  1.00  0.00     0.054 A 
ATOM     16  C   UNL     1      91.590  90.219  74.329  1.00  0.00     0.008 A 
ATOM     17  C   UNL     1      89.187  91.168  73.277  1.00  0.00     0.160 A 
ATOM     18  C   UNL     1      91.507  91.525  73.847  1.00  0.00     0.050 A 
ATOM     19  C   UNL     1      90.306  92.000  73.321  1.00  0.00     0.157 A 
BRANCH  17  20
ATOM     20  O   UNL     1      88.008  91.620  72.764  1.00  0.00    -0.493 OA
ATOM     21  C   UNL     1      86.956  90.667  72.621  1.00  0.00     0.278 C 
ENDBRANCH  17  20
BRANCH  19  22
ATOM     22  O   UNL     1      90.238  93.277  72.854  1.00  0.00    -0.504 OA
ATOM     23  H   UNL     1      90.692  93.325  71.995  1.00  0.00     0.293 HD
ENDBRANCH  19  22
ENDBRANCH  13  14
ENDBRANCH  12  13
ENDBRANCH  10  12
ENDBRANCH   1  10
TORSDOF 12
ENDMDL
MODEL 3
REMARK VINA RESULT:    -6.881      1.550      1.991
REMARK INTER + INTRA:         -12.639
REMARK INTER:                 -11.396
REMARK INTRA:                  -1.244
REMARK UNBOUND:                -1.334
REMARK SMILES CCCCC[C@H](O)CC(=O)CCc1ccc(O)c(OC)c1
REMARK SMILES IDX 8 1 6 2 7 3 5 5 4 6 3 7 2 8 1 9 9 10 10 11 11 12 12 13 13 14
REMARK SMILES IDX 21 15 14 16 18 17 15 18 16 19 19 20 20 21 17 22
REMARK H PARENT 7 4 17 23
REMARK Flexibility Score: inf
ROOT
ATOM      1  C   UNL     1      91.078  92.163  73.201  1.00  0.00     0.107 C 
ENDROOT
BRANCH   1   2
ATOM      2  C   UNL     1      91.374  93.314  74.165  1.00  0.00     0.121 C 
BRANCH   2   3
ATOM      3  O   UNL     1      90.198  93.644  74.900  1.00  0.00    -0.393 OA
ATOM      4  H   UNL     1      90.417  94.379  75.499  1.00  0.00     0.210 HD
ENDBRANCH   2   3
BRANCH   2   5
ATOM      5  C   UNL     1      92.510  92.998  75.146  1.00  0.00     0.032 C 
BRANCH   5   6
ATOM      6  C   UNL     1      93.007  94.252  75.875  1.00  0.00     0.003 C 
BRANCH   6   7
ATOM      7  C   UNL     1      93.384  93.994  77.338  1.00  0.00    -0.000 C 
BRANCH   7   8
ATOM      8  C   UNL     1      94.857  94.254  77.645  1.00  0.00    -0.003 C 
ATOM      9  C   UNL     1      95.055  94.682  79.091  1.00  0.00     0.004 C 
ENDBRANCH   7   8
ENDBRANCH   6   7
ENDBRANCH   5   6
ENDBRANCH   2   5
ENDBRANCH   1   2
BRANCH   1  10
ATOM     10  C   UNL     1      89.668  92.208  72.634  1.00  0.00     0.135 C 
ATOM     11  O   UNL     1      89.150  93.277  72.312  1.00  0.00    -0.300 OA
BRANCH  10  12
ATOM     12  C   UNL     1      88.964  90.872  72.450  1.00  0.00     0.080 C 
BRANCH  12  13
ATOM     13  C   UNL     1      88.095  90.465  73.641  1.00  0.00     0.043 C 
BRANCH  13  14
ATOM     14  C   UNL     1      88.864  89.724  74.708  1.00  0.00    -0.044 A 
ATOM     15  C   UNL     1      89.261  90.386  75.870  1.00  0.00     0.054 A 
ATOM     16  C   UNL     1      89.177  88.375  74.532  1.00  0.00     0.008 A 
ATOM     17  C   UNL     1      89.970  89.699  76.856  1.00  0.00     0.160 A 
ATOM     18  C   UNL     1      89.886  87.689  75.518  1.00  0.00     0.050 A 
ATOM     19  C   UNL     1      90.283  88.351  76.679  1.00  0.00     0.157 A 
BRANCH  17  20
ATOM     20  O   UNL     1      90.353  90.357  77.986  1.00  0.00    -0.493 OA
ATOM     21  C   UNL     1      90.270  91.781  77.967  1.00  0.00     0.278 C 
ENDBRANCH  17  20
BRANCH  19  22
ATOM     22  O   UNL     1      90.975  87.670  77.634  1.00  0.00    -0.504 OA
ATOM     23  H   UNL     1      90.743  86.727  77.582  1.00  0.00     0.293 HD
ENDBRANCH  19  22
ENDBRANCH  13  14
ENDBRANCH  12  13
ENDBRANCH  10  12
ENDBRANCH   1  10
TORSDOF 12
ENDMDL
MODEL 4
REMARK VINA RESULT:    -6.588      2.198      4.545
REMARK INTER + INTRA:         -12.157
REMARK INTER:                 -10.545
REMARK INTRA:                  -1.613
REMARK UNBOUND:                -1.334
REMARK SMILES CCCCC[C@H](O)CC(=O)CCc1ccc(O)c(OC)c1
REMARK SMILES IDX 8 1 6 2 7 3 5 5 4 6 3 7 2 8 1 9 9 10 10 11 11 12 12 13 13 14
REMARK SMILES IDX 21 15 14 16 18 17 15 18 16 19 19 20 20 21 17 22
REMARK H PARENT 7 4 17 23
REMARK Flexibility Score: inf
ROOT
ATOM      1  C   UNL     1      91.935  94.461  76.593  1.00  0.00     0.107 C 
ENDROOT
BRANCH   1   2
ATOM      2  C   UNL     1      91.743  93.066  77.194  1.00  0.00     0.121 C 
BRANCH   2   3
ATOM      3  O   UNL     1      92.550  92.927  78.361  1.00  0.00    -0.393 OA
ATOM      4  H   UNL     1      92.762  93.820  78.684  1.00  0.00     0.210 HD
ENDBRANCH   2   3
BRANCH   2   5
ATOM      5  C   UNL     1      90.283  92.762  77.551  1.00  0.00     0.032 C 
BRANCH   5   6
ATOM      6  C   UNL     1      90.007  91.255  77.619  1.00  0.00     0.003 C 
BRANCH   6   7
ATOM      7  C   UNL     1      90.269  90.653  79.003  1.00  0.00    -0.000 C 
BRANCH   7   8
ATOM      8  C   UNL     1      89.674  89.258  79.186  1.00  0.00    -0.003 C 
ATOM      9  C   UNL     1      89.886  88.398  77.949  1.00  0.00     0.004 C 
ENDBRANCH   7   8
ENDBRANCH   6   7
ENDBRANCH   5   6
ENDBRANCH   2   5
ENDBRANCH   1   2
BRANCH   1  10
ATOM     10  C   UNL     1      92.791  94.455  75.337  1.00  0.00     0.135 C 
ATOM     11  O   UNL     1      93.455  95.442  75.020  1.00  0.00    -0.300 OA
BRANCH  10  12
ATOM     12  C   UNL     1      92.815  93.164  74.534  1.00  0.00     0.080 C 
BRANCH  12  13
ATOM     13  C   UNL     1      91.577  92.962  73.658  1.00  0.00     0.043 C 
BRANCH  13  14
ATOM     14  C   UNL     1      90.885  91.644  73.906  1.00  0.00    -0.044 A 
ATOM     15  C   UNL     1      89.501  91.543  73.759  1.00  0.00     0.054 A 
ATOM     16  C   UNL     1      91.629  90.526  74.284  1.00  0.00     0.008 A 
ATOM     17  C   UNL     1      88.863  90.324  73.988  1.00  0.00     0.160 A 
ATOM     18  C   UNL     1      90.991  89.307  74.513  1.00  0.00     0.050 A 
ATOM     19  C   UNL     1      89.608  89.206  74.365  1.00  0.00     0.157 A 
BRANCH  17  20
ATOM     20  O   UNL     1      87.511  90.238  73.841  1.00  0.00    -0.493 OA
ATOM     21  C   UNL     1      86.956  90.761  72.636  1.00  0.00     0.278 C 
ENDBRANCH  17  20
BRANCH  19  22
ATOM     22  O   UNL     1      88.995  88.011  74.592  1.00  0.00    -0.504 OA
ATOM     23  H   UNL     1      88.474  87.768  73.807  1.00  0.00     0.293 HD
ENDBRANCH  19  22
ENDBRANCH  13  14
ENDBRANCH  12  13
ENDBRANCH  10  12
ENDBRANCH   1  10
TORSDOF 12
ENDMDL
MODEL 5
REMARK VINA RESULT:    -6.175      2.706      4.370
REMARK INTER + INTRA:         -11.480
REMARK INTER:                 -10.346
REMARK INTRA:                  -1.133
REMARK UNBOUND:                -1.334
REMARK SMILES CCCCC[C@H](O)CC(=O)CCc1ccc(O)c(OC)c1
REMARK SMILES IDX 8 1 6 2 7 3 5 5 4 6 3 7 2 8 1 9 9 10 10 11 11 12 12 13 13 14
REMARK SMILES IDX 21 15 14 16 18 17 15 18 16 19 19 20 20 21 17 22
REMARK H PARENT 7 4 17 23
REMARK Flexibility Score: inf
ROOT
ATOM      1  C   UNL     1      93.374  93.268  75.543  1.00  0.00     0.107 C 
ENDROOT
BRANCH   1   2
ATOM      2  C   UNL     1      94.600  94.184  75.583  1.00  0.00     0.121 C 
BRANCH   2   3
ATOM      3  O   UNL     1      94.209  95.528  75.310  1.00  0.00    -0.393 OA
ATOM      4  H   UNL     1      93.979  95.585  74.366  1.00  0.00     0.210 HD
ENDBRANCH   2   3
BRANCH   2   5
ATOM      5  C   UNL     1      95.341  94.137  76.925  1.00  0.00     0.032 C 
BRANCH   5   6
ATOM      6  C   UNL     1      94.385  94.277  78.117  1.00  0.00     0.003 C 
BRANCH   6   7
ATOM      7  C   UNL     1      95.074  94.777  79.391  1.00  0.00    -0.000 C 
BRANCH   7   8
ATOM      8  C   UNL     1      96.518  95.224  79.171  1.00  0.00    -0.003 C 
ATOM      9  C   UNL     1      96.717  96.674  79.582  1.00  0.00     0.004 C 
ENDBRANCH   7   8
ENDBRANCH   6   7
ENDBRANCH   5   6
ENDBRANCH   2   5
ENDBRANCH   1   2
BRANCH   1  10
ATOM     10  C   UNL     1      92.095  94.002  75.174  1.00  0.00     0.135 C 
ATOM     11  O   UNL     1      91.728  94.082  74.001  1.00  0.00    -0.300 OA
BRANCH  10  12
ATOM     12  C   UNL     1      91.284  94.581  76.323  1.00  0.00     0.080 C 
BRANCH  12  13
ATOM     13  C   UNL     1      89.872  94.002  76.432  1.00  0.00     0.043 C 
BRANCH  13  14
ATOM     14  C   UNL     1      89.860  92.514  76.692  1.00  0.00    -0.044 A 
ATOM     15  C   UNL     1      89.466  91.633  75.685  1.00  0.00     0.054 A 
ATOM     16  C   UNL     1      90.244  92.022  77.939  1.00  0.00     0.008 A 
ATOM     17  C   UNL     1      89.456  90.259  75.926  1.00  0.00     0.160 A 
ATOM     18  C   UNL     1      90.234  90.648  78.180  1.00  0.00     0.050 A 
ATOM     19  C   UNL     1      89.840  89.767  77.173  1.00  0.00     0.157 A 
BRANCH  17  20
ATOM     20  O   UNL     1      89.069  89.408  74.935  1.00  0.00    -0.493 OA
ATOM     21  C   UNL     1      89.677  89.583  73.656  1.00  0.00     0.278 C 
ENDBRANCH  17  20
BRANCH  19  22
ATOM     22  O   UNL     1      89.835  88.427  77.420  1.00  0.00    -0.504 OA
ATOM     23  H   UNL     1      89.922  88.281  78.378  1.00  0.00     0.293 HD
ENDBRANCH  19  22
ENDBRANCH  13  14
ENDBRANCH  12  13
ENDBRANCH  10  12
ENDBRANCH   1  10
TORSDOF 12
ENDMDL
MODEL 6
REMARK VINA RESULT:    -5.942      2.822      3.947
REMARK INTER + INTRA:         -11.097
REMARK INTER:                 -10.282
REMARK INTRA:                  -0.815
REMARK UNBOUND:                -1.334
REMARK SMILES CCCCC[C@H](O)CC(=O)CCc1ccc(O)c(OC)c1
REMARK SMILES IDX 8 1 6 2 7 3 5 5 4 6 3 7 2 8 1 9 9 10 10 11 11 12 12 13 13 14
REMARK SMILES IDX 21 15 14 16 18 17 15 18 16 19 19 20 20 21 17 22
REMARK H PARENT 7 4 17 23
REMARK Flexibility Score: inf
ROOT
ATOM      1  C   UNL     1      92.581  94.555  75.847  1.00  0.00     0.107 C 
ENDROOT
BRANCH   1   2
ATOM      2  C   UNL     1      93.224  94.147  77.174  1.00  0.00     0.121 C 
BRANCH   2   3
ATOM      3  O   UNL     1      92.556  93.004  77.704  1.00  0.00    -0.393 OA
ATOM      4  H   UNL     1      91.877  92.733  77.063  1.00  0.00     0.210 HD
ENDBRANCH   2   3
BRANCH   2   5
ATOM      5  C   UNL     1      94.722  93.842  77.047  1.00  0.00     0.032 C 
BRANCH   5   6
ATOM      6  C   UNL     1      95.591  95.002  77.548  1.00  0.00     0.003 C 
BRANCH   6   7
ATOM      7  C   UNL     1      96.159  94.771  78.952  1.00  0.00    -0.000 C 
BRANCH   7   8
ATOM      8  C   UNL     1      95.213  95.199  80.073  1.00  0.00    -0.003 C 
ATOM      9  C   UNL     1      95.970  95.861  81.214  1.00  0.00     0.004 C 
ENDBRANCH   7   8
ENDBRANCH   6   7
ENDBRANCH   5   6
ENDBRANCH   2   5
ENDBRANCH   1   2
BRANCH   1  10
ATOM     10  C   UNL     1      91.143  94.080  75.711  1.00  0.00     0.135 C 
ATOM     11  O   UNL     1      90.255  94.540  76.428  1.00  0.00    -0.300 OA
BRANCH  10  12
ATOM     12  C   UNL     1      90.863  93.055  74.623  1.00  0.00     0.080 C 
BRANCH  12  13
ATOM     13  C   UNL     1      89.670  92.147  74.926  1.00  0.00     0.043 C 
BRANCH  13  14
ATOM     14  C   UNL     1      90.025  90.679  74.914  1.00  0.00    -0.044 A 
ATOM     15  C   UNL     1      89.958  89.935  76.092  1.00  0.00     0.054 A 
ATOM     16  C   UNL     1      90.419  90.067  73.723  1.00  0.00     0.008 A 
ATOM     17  C   UNL     1      90.285  88.579  76.079  1.00  0.00     0.160 A 
ATOM     18  C   UNL     1      90.746  88.711  73.711  1.00  0.00     0.050 A 
ATOM     19  C   UNL     1      90.679  87.967  74.889  1.00  0.00     0.157 A 
BRANCH  17  20
ATOM     20  O   UNL     1      90.217  87.863  77.236  1.00  0.00    -0.493 OA
ATOM     21  C   UNL     1      89.623  88.506  78.362  1.00  0.00     0.278 C 
ENDBRANCH  17  20
BRANCH  19  22
ATOM     22  O   UNL     1      91.001  86.644  74.864  1.00  0.00    -0.504 OA
ATOM     23  H   UNL     1      91.966  86.554  74.780  1.00  0.00     0.293 HD
ENDBRANCH  19  22
ENDBRANCH  13  14
ENDBRANCH  12  13
ENDBRANCH  10  12
ENDBRANCH   1  10
TORSDOF 12
ENDMDL
MODEL 7
REMARK VINA RESULT:    -5.583      3.042      4.708
REMARK INTER + INTRA:         -10.507
REMARK INTER:                  -9.984
REMARK INTRA:                  -0.523
REMARK UNBOUND:                -1.334
REMARK SMILES CCCCC[C@H](O)CC(=O)CCc1ccc(O)c(OC)c1
REMARK SMILES IDX 8 1 6 2 7 3 5 5 4 6 3 7 2 8 1 9 9 10 10 11 11 12 12 13 13 14
REMARK SMILES IDX 21 15 14 16 18 17 15 18 16 19 19 20 20 21 17 22
REMARK H PARENT 7 4 17 23
REMARK Flexibility Score: inf
ROOT
ATOM      1  C   UNL     1      92.825  94.626  76.577  1.00  0.00     0.107 C 
ENDROOT
BRANCH   1   2
ATOM      2  C   UNL     1      94.216  94.532  77.207  1.00  0.00     0.121 C 
BRANCH   2   3
ATOM      3  O   UNL     1      94.176  93.671  78.342  1.00  0.00    -0.393 OA
ATOM      4  H   UNL     1      93.273  93.313  78.412  1.00  0.00     0.210 HD
ENDBRANCH   2   3
BRANCH   2   5
ATOM      5  C   UNL     1      95.285  94.029  76.230  1.00  0.00     0.032 C 
BRANCH   5   6
ATOM      6  C   UNL     1      95.339  94.872  74.950  1.00  0.00     0.003 C 
BRANCH   6   7
ATOM      7  C   UNL     1      95.883  96.286  75.178  1.00  0.00    -0.000 C 
BRANCH   7   8
ATOM      8  C   UNL     1      97.325  96.470  74.708  1.00  0.00    -0.003 C 
ATOM      9  C   UNL     1      97.442  96.309  73.201  1.00  0.00     0.004 C 
ENDBRANCH   7   8
ENDBRANCH   6   7
ENDBRANCH   5   6
ENDBRANCH   2   5
ENDBRANCH   1   2
BRANCH   1  10
ATOM     10  C   UNL     1      92.135  93.277  76.451  1.00  0.00     0.135 C 
ATOM     11  O   UNL     1      92.400  92.516  75.521  1.00  0.00    -0.300 OA
BRANCH  10  12
ATOM     12  C   UNL     1      91.149  92.911  77.549  1.00  0.00     0.080 C 
BRANCH  12  13
ATOM     13  C   UNL     1      89.748  92.581  77.032  1.00  0.00     0.043 C 
BRANCH  13  14
ATOM     14  C   UNL     1      89.643  91.190  76.451  1.00  0.00    -0.044 A 
ATOM     15  C   UNL     1      89.135  91.008  75.165  1.00  0.00     0.054 A 
ATOM     16  C   UNL     1      90.056  90.089  77.201  1.00  0.00     0.008 A 
ATOM     17  C   UNL     1      89.040  89.723  74.629  1.00  0.00     0.160 A 
ATOM     18  C   UNL     1      89.961  88.804  76.665  1.00  0.00     0.050 A 
ATOM     19  C   UNL     1      89.453  88.622  75.379  1.00  0.00     0.157 A 
BRANCH  17  20
ATOM     20  O   UNL     1      88.542  89.557  73.372  1.00  0.00    -0.493 OA
ATOM     21  C   UNL     1      88.266  90.739  72.623  1.00  0.00     0.278 C 
ENDBRANCH  17  20
BRANCH  19  22
ATOM     22  O   UNL     1      89.365  87.363  74.866  1.00  0.00    -0.504 OA
ATOM     23  H   UNL     1      89.297  86.727  75.599  1.00  0.00     0.293 HD
ENDBRANCH  19  22
ENDBRANCH  13  14
ENDBRANCH  12  13
ENDBRANCH  10  12
ENDBRANCH   1  10
TORSDOF 12
ENDMDL
MODEL 8
REMARK VINA RESULT:    -5.499      5.308      8.155
REMARK INTER + INTRA:         -10.369
REMARK INTER:                  -9.451
REMARK INTRA:                  -0.917
REMARK UNBOUND:                -1.334
REMARK SMILES CCCCC[C@H](O)CC(=O)CCc1ccc(O)c(OC)c1
REMARK SMILES IDX 8 1 6 2 7 3 5 5 4 6 3 7 2 8 1 9 9 10 10 11 11 12 12 13 13 14
REMARK SMILES IDX 21 15 14 16 18 17 15 18 16 19 19 20 20 21 17 22
REMARK H PARENT 7 4 17 23
REMARK Flexibility Score: inf
ROOT
ATOM      1  C   UNL     1      93.865  93.777  75.154  1.00  0.00     0.107 C 
ENDROOT
BRANCH   1   2
ATOM      2  C   UNL     1      92.460  94.381  75.104  1.00  0.00     0.121 C 
BRANCH   2   3
ATOM      3  O   UNL     1      91.653  93.654  74.180  1.00  0.00    -0.393 OA
ATOM      4  H   UNL     1      90.790  93.495  74.600  1.00  0.00     0.210 HD
ENDBRANCH   2   3
BRANCH   2   5
ATOM      5  C   UNL     1      91.767  94.403  76.471  1.00  0.00     0.032 C 
BRANCH   5   6
ATOM      6  C   UNL     1      91.723  93.014  77.118  1.00  0.00     0.003 C 
BRANCH   6   7
ATOM      7  C   UNL     1      90.312  92.578  77.526  1.00  0.00    -0.000 C 
BRANCH   7   8
ATOM      8  C   UNL     1      90.278  91.272  78.316  1.00  0.00    -0.003 C 
ATOM      9  C   UNL     1      89.948  90.089  77.419  1.00  0.00     0.004 C 
ENDBRANCH   7   8
ENDBRANCH   6   7
ENDBRANCH   5   6
ENDBRANCH   2   5
ENDBRANCH   1   2
BRANCH   1  10
ATOM     10  C   UNL     1      94.843  94.609  75.967  1.00  0.00     0.135 C 
ATOM     11  O   UNL     1      95.066  95.785  75.678  1.00  0.00    -0.300 OA
BRANCH  10  12
ATOM     12  C   UNL     1      95.484  93.929  77.167  1.00  0.00     0.080 C 
BRANCH  12  13
ATOM     13  C   UNL     1      94.784  94.234  78.493  1.00  0.00     0.043 C 
BRANCH  13  14
ATOM     14  C   UNL     1      95.721  94.779  79.545  1.00  0.00    -0.044 A 
ATOM     15  C   UNL     1      96.420  95.964  79.311  1.00  0.00     0.054 A 
ATOM     16  C   UNL     1      95.888  94.097  80.751  1.00  0.00     0.008 A 
ATOM     17  C   UNL     1      97.284  96.467  80.284  1.00  0.00     0.160 A 
ATOM     18  C   UNL     1      96.752  94.600  81.723  1.00  0.00     0.050 A 
ATOM     19  C   UNL     1      97.451  95.785  81.489  1.00  0.00     0.157 A 
BRANCH  17  20
ATOM     20  O   UNL     1      97.961  97.624  80.044  1.00  0.00    -0.493 OA
ATOM     21  C   UNL     1      97.213  98.837  80.105  1.00  0.00     0.278 C 
ENDBRANCH  17  20
BRANCH  19  22
ATOM     22  O   UNL     1      98.292  96.266  82.447  1.00  0.00    -0.504 OA
ATOM     23  H   UNL     1      99.211  96.108  82.169  1.00  0.00     0.293 HD
ENDBRANCH  19  22
ENDBRANCH  13  14
ENDBRANCH  12  13
ENDBRANCH  10  12
ENDBRANCH   1  10
TORSDOF 12
ENDMDL
MODEL 9
REMARK VINA RESULT:    -5.414      3.618      5.713
REMARK INTER + INTRA:         -10.229
REMARK INTER:                  -9.476
REMARK INTRA:                  -0.754
REMARK UNBOUND:                -1.334
REMARK SMILES CCCCC[C@H](O)CC(=O)CCc1ccc(O)c(OC)c1
REMARK SMILES IDX 8 1 6 2 7 3 5 5 4 6 3 7 2 8 1 9 9 10 10 11 11 12 12 13 13 14
REMARK SMILES IDX 21 15 14 16 18 17 15 18 16 19 19 20 20 21 17 22
REMARK H PARENT 7 4 17 23
REMARK Flexibility Score: inf
ROOT
ATOM      1  C   UNL     1      95.710  94.085  75.485  1.00  0.00     0.107 C 
ENDROOT
BRANCH   1   2
ATOM      2  C   UNL     1      96.547  95.356  75.651  1.00  0.00     0.121 C 
BRANCH   2   3
ATOM      3  O   UNL     1      96.217  96.289  74.625  1.00  0.00    -0.393 OA
ATOM      4  H   UNL     1      95.295  96.569  74.764  1.00  0.00     0.210 HD
ENDBRANCH   2   3
BRANCH   2   5
ATOM      5  C   UNL     1      96.361  96.022  77.019  1.00  0.00     0.032 C 
BRANCH   5   6
ATOM      6  C   UNL     1      97.603  95.873  77.907  1.00  0.00     0.003 C 
BRANCH   6   7
ATOM      7  C   UNL     1      97.289  95.943  79.405  1.00  0.00    -0.000 C 
BRANCH   7   8
ATOM      8  C   UNL     1      95.845  95.577  79.746  1.00  0.00    -0.003 C 
ATOM      9  C   UNL     1      95.764  94.222  80.431  1.00  0.00     0.004 C 
ENDBRANCH   7   8
ENDBRANCH   6   7
ENDBRANCH   5   6
ENDBRANCH   2   5
ENDBRANCH   1   2
BRANCH   1  10
ATOM     10  C   UNL     1      94.371  94.156  76.200  1.00  0.00     0.135 C 
ATOM     11  O   UNL     1      94.230  93.684  77.329  1.00  0.00    -0.300 OA
BRANCH  10  12
ATOM     12  C   UNL     1      93.246  94.873  75.471  1.00  0.00     0.080 C 
BRANCH  12  13
ATOM     13  C   UNL     1      91.955  94.979  76.285  1.00  0.00     0.043 C 
BRANCH  13  14
ATOM     14  C   UNL     1      91.068  93.765  76.149  1.00  0.00    -0.044 A 
ATOM     15  C   UNL     1      90.690  93.314  74.884  1.00  0.00     0.054 A 
ATOM     16  C   UNL     1      90.627  93.093  77.290  1.00  0.00     0.008 A 
ATOM     17  C   UNL     1      89.872  92.192  74.760  1.00  0.00     0.160 A 
ATOM     18  C   UNL     1      89.808  91.970  77.165  1.00  0.00     0.050 A 
ATOM     19  C   UNL     1      89.430  91.520  75.900  1.00  0.00     0.157 A 
BRANCH  17  20
ATOM     20  O   UNL     1      89.509  91.761  73.519  1.00  0.00    -0.493 OA
ATOM     21  C   UNL     1      90.531  91.186  72.708  1.00  0.00     0.278 C 
ENDBRANCH  17  20
BRANCH  19  22
ATOM     22  O   UNL     1      88.631  90.422  75.792  1.00  0.00    -0.504 OA
ATOM     23  H   UNL     1      88.561  89.994  76.662  1.00  0.00     0.293 HD
ENDBRANCH  19  22
ENDBRANCH  13  14
ENDBRANCH  12  13
ENDBRANCH  10  12
ENDBRANCH   1  10
TORSDOF 12
ENDMDL
MODEL 10
REMARK VINA RESULT:    -5.263      5.558      8.369
REMARK INTER + INTRA:          -9.981
REMARK INTER:                  -8.764
REMARK INTRA:                  -1.218
REMARK UNBOUND:                -1.334
REMARK SMILES CCCCC[C@H](O)CC(=O)CCc1ccc(O)c(OC)c1
REMARK SMILES IDX 8 1 6 2 7 3 5 5 4 6 3 7 2 8 1 9 9 10 10 11 11 12 12 13 13 14
REMARK SMILES IDX 21 15 14 16 18 17 15 18 16 19 19 20 20 21 17 22
REMARK H PARENT 7 4 17 23
REMARK Flexibility Score: inf
ROOT
ATOM      1  C   UNL     1      94.874  95.935  74.944  1.00  0.00     0.107 C 
ENDROOT
BRANCH   1   2
ATOM      2  C   UNL     1      94.519  94.456  75.116  1.00  0.00     0.121 C 
BRANCH   2   3
ATOM      3  O   UNL     1      95.697  93.661  75.009  1.00  0.00    -0.393 OA
ATOM      4  H   UNL     1      96.114  93.627  75.888  1.00  0.00     0.210 HD
ENDBRANCH   2   3
BRANCH   2   5
ATOM      5  C   UNL     1      93.827  94.157  76.451  1.00  0.00     0.032 C 
BRANCH   5   6
ATOM      6  C   UNL     1      92.741  93.083  76.310  1.00  0.00     0.003 C 
BRANCH   6   7
ATOM      7  C   UNL     1      91.584  93.257  77.298  1.00  0.00    -0.000 C 
BRANCH   7   8
ATOM      8  C   UNL     1      90.292  93.748  76.648  1.00  0.00    -0.003 C 
ATOM      9  C   UNL     1      90.356  93.635  75.133  1.00  0.00     0.004 C 
ENDBRANCH   7   8
ENDBRANCH   6   7
ENDBRANCH   5   6
ENDBRANCH   2   5
ENDBRANCH   1   2
BRANCH   1  10
ATOM     10  C   UNL     1      96.344  96.229  75.201  1.00  0.00     0.135 C 
ATOM     11  O   UNL     1      97.176  96.125  74.300  1.00  0.00    -0.300 OA
BRANCH  10  12
ATOM     12  C   UNL     1      96.711  96.694  76.601  1.00  0.00     0.080 C 
BRANCH  12  13
ATOM     13  C   UNL     1      97.442  95.635  77.429  1.00  0.00     0.043 C 
BRANCH  13  14
ATOM     14  C   UNL     1      96.949  95.554  78.854  1.00  0.00    -0.044 A 
ATOM     15  C   UNL     1      97.803  95.880  79.908  1.00  0.00     0.054 A 
ATOM     16  C   UNL     1      95.639  95.153  79.117  1.00  0.00     0.008 A 
ATOM     17  C   UNL     1      97.346  95.806  81.224  1.00  0.00     0.160 A 
ATOM     18  C   UNL     1      95.182  95.078  80.433  1.00  0.00     0.050 A 
ATOM     19  C   UNL     1      96.036  95.405  81.486  1.00  0.00     0.157 A 
BRANCH  17  20
ATOM     20  O   UNL     1      98.189  96.126  82.245  1.00  0.00    -0.493 OA
ATOM     21  C   UNL     1      98.391  97.514  82.507  1.00  0.00     0.278 C 
ENDBRANCH  17  20
BRANCH  19  22
ATOM     22  O   UNL     1      95.578  95.328  82.767  1.00  0.00    -0.504 OA
ATOM     23  H   UNL     1      94.615  95.462  82.768  1.00  0.00     0.293 HD
ENDBRANCH  19  22
ENDBRANCH  13  14
ENDBRANCH  12  13
ENDBRANCH  10  12
ENDBRANCH   1  10
TORSDOF 12
ENDMDL
