MODEL 1
REMARK VINA RESULT:    -7.298      0.000      0.000
REMARK INTER + INTRA:         -13.617
REMARK INTER:                 -12.843
REMARK INTRA:                  -0.773
REMARK UNBOUND:                -0.773
REMARK SMILES C=C(C)[C@]12C[C@@H](C)[C@@]34O[C@](Cc5ccccc5)(O[C@@H]1[C@@H]3C=C(COC(=O)Cc1ccc(O)c(OC)c1)C[C@]1(O)C(=O)C(C)=C[C@@H]41)O2
REMARK SMILES IDX 23 1 22 2 21 3 20 4 9 5 8 6 10 7 6 8 18 9 46 10 19 11 5 12
REMARK SMILES IDX 7 13 4 14 45 15 38 16 44 17 40 18 42 20 41 21 43 22 39 23
REMARK SMILES IDX 11 25 12 26 13 27 17 28 14 29 16 30 15 31 2 32 3 33 1 34
REMARK SMILES IDX 37 35 24 37 25 38 26 39 27 40 28 41 36 42 29 43 33 44 30 45
REMARK SMILES IDX 31 46 34 47 35 48 32 49
REMARK H PARENT 39 24 32 50
REMARK Flexibility Score: 90.00
ROOT
ATOM      1  C   UNL     1      96.349  81.330  83.745  1.00  0.00     0.264 C 
ENDROOT
BRANCH   1   2
ATOM      2  C   UNL     1      95.184  81.912  84.510  1.00  0.00    -0.033 C 
ATOM      3  C   UNL     1      94.029  81.219  84.579  1.00  0.00    -0.015 C 
BRANCH   3   4
ATOM      4  C   UNL     1      92.704  81.613  85.212  1.00  0.00     0.078 C 
ATOM      5  O   UNL     1      92.737  80.770  87.537  1.00  0.00    -0.319 OA
ATOM      6  C   UNL     1      92.687  81.993  86.739  1.00  0.00     0.095 C 
ATOM      7  C   UNL     1      91.900  79.695  87.070  1.00  0.00     0.289 C 
ATOM      8  C   UNL     1      91.327  82.753  87.029  1.00  0.00     0.023 C 
ATOM      9  O   UNL     1      92.218  79.339  85.727  1.00  0.00    -0.320 OA
ATOM     10  O   UNL     1      90.520  80.050  87.058  1.00  0.00    -0.313 OA
ATOM     11  C   UNL     1      91.674  80.471  85.030  1.00  0.00     0.170 C 
ATOM     12  C   UNL     1      90.169  82.214  86.134  1.00  0.00     0.049 C 
ATOM     13  C   UNL     1      90.876  82.760  88.499  1.00  0.00     0.011 C 
ATOM     14  C   UNL     1      90.355  80.734  85.799  1.00  0.00     0.122 C 
BRANCH   6  15
ATOM     15  C   UNL     1      93.981  82.765  87.130  1.00  0.00     0.086 C 
ATOM     16  C   UNL     1      94.467  83.830  86.125  1.00  0.00     0.140 CG0
ATOM     17  C   UNL     1      94.042  83.478  88.452  1.00  0.00    -0.010 C 
ATOM     18  C   UNL     1      95.057  84.889  87.033  1.00  0.00     0.190 C 
ATOM     19  G   UNL     1      95.490  83.269  85.139  1.00  0.00     0.000 G0
ATOM     20  C   UNL     1      94.665  84.661  88.436  1.00  0.00    -0.008 C 
ATOM     21  O   UNL     1      95.728  85.842  86.666  1.00  0.00    -0.291 OA
ATOM     22  C   UNL     1      94.981  85.584  89.545  1.00  0.00     0.048 C 
BRANCH  16  23
ATOM     23  O   UNL     1      93.417  84.507  85.454  1.00  0.00    -0.381 OA
ATOM     24  H   UNL     1      93.370  85.416  85.794  1.00  0.00     0.212 HD
ENDBRANCH  16  23
ENDBRANCH   6  15
BRANCH   7  25
ATOM     25  C   UNL     1      92.108  78.501  87.980  1.00  0.00     0.135 C 
BRANCH  25  26
ATOM     26  C   UNL     1      91.240  77.332  87.585  1.00  0.00    -0.040 A 
ATOM     27  C   UNL     1      91.748  76.339  86.746  1.00  0.00     0.004 A 
ATOM     28  C   UNL     1      89.932  77.242  88.059  1.00  0.00     0.004 A 
ATOM     29  C   UNL     1      90.946  75.257  86.381  1.00  0.00     0.000 A 
ATOM     30  C   UNL     1      89.130  76.160  87.693  1.00  0.00     0.000 A 
ATOM     31  C   UNL     1      89.638  75.168  86.854  1.00  0.00     0.000 A 
ENDBRANCH  25  26
ENDBRANCH   7  25
BRANCH  14  32
ATOM     32  C   UNL     1      89.172  80.151  85.097  1.00  0.00    -0.046 C 
ATOM     33  C   UNL     1      87.868  80.210  85.837  1.00  0.00     0.042 C 
ATOM     34  C   UNL     1      89.269  79.605  83.876  1.00  0.00     0.010 C 
ENDBRANCH  14  32
ENDBRANCH   3   4
BRANCH   2  35
ATOM     35  C   UNL     1      95.493  83.261  85.130  1.00  0.00     0.078 CG0
ATOM     36  G   UNL     1      94.487  83.814  86.139  1.00  0.00     0.000 G0
ENDBRANCH   2  35
ENDBRANCH   1   2
BRANCH   1  37
ATOM     37  O   UNL     1      95.865  80.455  82.749  1.00  0.00    -0.461 OA
BRANCH  37  38
ATOM     38  C   UNL     1      96.806  79.910  81.907  1.00  0.00     0.310 C 
ATOM     39  O   UNL     1      96.827  78.744  81.537  1.00  0.00    -0.252 OA
BRANCH  38  40
ATOM     40  C   UNL     1      97.806  80.972  81.514  1.00  0.00     0.158 C 
BRANCH  40  41
ATOM     41  C   UNL     1      98.176  80.919  80.054  1.00  0.00    -0.033 A 
ATOM     42  C   UNL     1      97.395  81.591  79.112  1.00  0.00     0.054 A 
ATOM     43  C   UNL     1      99.298  80.199  79.644  1.00  0.00     0.008 A 
ATOM     44  C   UNL     1      97.737  81.542  77.760  1.00  0.00     0.160 A 
ATOM     45  C   UNL     1      99.640  80.150  78.292  1.00  0.00     0.050 A 
ATOM     46  C   UNL     1      98.860  80.821  77.350  1.00  0.00     0.157 A 
BRANCH  44  47
ATOM     47  O   UNL     1      96.968  82.201  76.851  1.00  0.00    -0.493 OA
ATOM     48  C   UNL     1      95.748  82.771  77.324  1.00  0.00     0.278 C 
ENDBRANCH  44  47
BRANCH  46  49
ATOM     49  O   UNL     1      99.204  80.767  76.034  1.00  0.00    -0.504 OA
ATOM     50  H   UNL     1      99.854  80.056  75.905  1.00  0.00     0.293 HD
ENDBRANCH  46  49
ENDBRANCH  40  41
ENDBRANCH  38  40
ENDBRANCH  37  38
ENDBRANCH   1  37
TORSDOF 11
ENDMDL
MODEL 2
REMARK VINA RESULT:    -7.013      1.211      2.284
REMARK INTER + INTRA:         -13.116
REMARK INTER:                 -12.214
REMARK INTRA:                  -0.903
REMARK UNBOUND:                -0.773
REMARK SMILES C=C(C)[C@]12C[C@@H](C)[C@@]34O[C@](Cc5ccccc5)(O[C@@H]1[C@@H]3C=C(COC(=O)Cc1ccc(O)c(OC)c1)C[C@]1(O)C(=O)C(C)=C[C@@H]41)O2
REMARK SMILES IDX 23 1 22 2 21 3 20 4 9 5 8 6 10 7 6 8 18 9 46 10 19 11 5 12
REMARK SMILES IDX 7 13 4 14 45 15 38 16 44 17 40 18 42 20 41 21 43 22 39 23
REMARK SMILES IDX 11 25 12 26 13 27 17 28 14 29 16 30 15 31 2 32 3 33 1 34
REMARK SMILES IDX 37 35 24 37 25 38 26 39 27 40 28 41 36 42 29 43 33 44 30 45
REMARK SMILES IDX 31 46 34 47 35 48 32 49
REMARK H PARENT 39 24 32 50
REMARK Flexibility Score: 90.00
ROOT
ATOM      1  C   UNL     1      96.180  81.558  83.471  1.00  0.00     0.264 C 
ENDROOT
BRANCH   1   2
ATOM      2  C   UNL     1      95.029  82.036  84.325  1.00  0.00    -0.033 C 
ATOM      3  C   UNL     1      93.891  81.312  84.363  1.00  0.00    -0.015 C 
BRANCH   3   4
ATOM      4  C   UNL     1      92.581  81.612  85.071  1.00  0.00     0.078 C 
ATOM      5  O   UNL     1      92.700  80.532  87.294  1.00  0.00    -0.319 OA
ATOM      6  C   UNL     1      92.605  81.830  86.630  1.00  0.00     0.095 C 
ATOM      7  C   UNL     1      91.867  79.495  86.741  1.00  0.00     0.289 C 
ATOM      8  C   UNL     1      91.242  82.528  87.038  1.00  0.00     0.023 C 
ATOM      9  O   UNL     1      92.149  79.287  85.360  1.00  0.00    -0.320 OA
ATOM     10  O   UNL     1      90.482  79.822  86.807  1.00  0.00    -0.313 OA
ATOM     11  C   UNL     1      91.565  80.474  84.802  1.00  0.00     0.170 C 
ATOM     12  C   UNL     1      90.066  82.063  86.126  1.00  0.00     0.049 C 
ATOM     13  C   UNL     1      90.837  82.373  88.513  1.00  0.00     0.011 C 
ATOM     14  C   UNL     1      90.266  80.630  85.632  1.00  0.00     0.122 C 
BRANCH   6  15
ATOM     15  C   UNL     1      93.897  82.583  87.062  1.00  0.00     0.086 C 
ATOM     16  C   UNL     1      94.333  83.757  86.161  1.00  0.00     0.140 CG0
ATOM     17  C   UNL     1      93.988  83.154  88.449  1.00  0.00    -0.010 C 
ATOM     18  C   UNL     1      94.934  84.726  87.157  1.00  0.00     0.190 C 
ATOM     19  G   UNL     1      95.334  83.322  85.091  1.00  0.00     0.000 G0
ATOM     20  C   UNL     1      94.590  84.345  88.539  1.00  0.00    -0.008 C 
ATOM     21  O   UNL     1      95.577  85.726  86.873  1.00  0.00    -0.291 OA
ATOM     22  C   UNL     1      94.925  85.153  89.729  1.00  0.00     0.048 C 
BRANCH  16  23
ATOM     23  O   UNL     1      93.252  84.479  85.596  1.00  0.00    -0.381 OA
ATOM     24  H   UNL     1      93.588  85.330  85.270  1.00  0.00     0.212 HD
ENDBRANCH  16  23
ENDBRANCH   6  15
BRANCH   7  25
ATOM     25  C   UNL     1      92.123  78.217  87.514  1.00  0.00     0.135 C 
BRANCH  25  26
ATOM     26  C   UNL     1      93.449  78.247  88.233  1.00  0.00    -0.040 A 
ATOM     27  C   UNL     1      94.635  78.095  87.515  1.00  0.00     0.004 A 
ATOM     28  C   UNL     1      93.489  78.429  89.615  1.00  0.00     0.004 A 
ATOM     29  C   UNL     1      95.862  78.123  88.180  1.00  0.00     0.000 A 
ATOM     30  C   UNL     1      94.716  78.458  90.280  1.00  0.00     0.000 A 
ATOM     31  C   UNL     1      95.902  78.304  89.561  1.00  0.00     0.000 A 
ENDBRANCH  25  26
ENDBRANCH   7  25
BRANCH  14  32
ATOM     32  C   UNL     1      89.071  80.100  84.908  1.00  0.00    -0.046 C 
ATOM     33  C   UNL     1      87.737  80.599  85.378  1.00  0.00     0.042 C 
ATOM     34  C   UNL     1      89.184  79.226  83.897  1.00  0.00     0.010 C 
ENDBRANCH  14  32
ENDBRANCH   3   4
BRANCH   2  35
ATOM     35  C   UNL     1      95.332  83.325  85.065  1.00  0.00     0.078 CG0
ATOM     36  G   UNL     1      94.347  83.755  86.152  1.00  0.00     0.000 G0
ENDBRANCH   2  35
ENDBRANCH   1   2
BRANCH   1  37
ATOM     37  O   UNL     1      95.810  80.366  82.813  1.00  0.00    -0.461 OA
BRANCH  37  38
ATOM     38  C   UNL     1      96.726  79.853  81.924  1.00  0.00     0.310 C 
ATOM     39  O   UNL     1      96.773  78.686  81.559  1.00  0.00    -0.252 OA
BRANCH  38  40
ATOM     40  C   UNL     1      97.660  80.950  81.471  1.00  0.00     0.158 C 
BRANCH  40  41
ATOM     41  C   UNL     1      97.752  81.062  79.971  1.00  0.00    -0.033 A 
ATOM     42  C   UNL     1      98.613  80.224  79.261  1.00  0.00     0.054 A 
ATOM     43  C   UNL     1      96.977  82.002  79.292  1.00  0.00     0.008 A 
ATOM     44  C   UNL     1      98.698  80.327  77.872  1.00  0.00     0.160 A 
ATOM     45  C   UNL     1      97.063  82.106  77.904  1.00  0.00     0.050 A 
ATOM     46  C   UNL     1      97.923  81.269  77.194  1.00  0.00     0.157 A 
BRANCH  44  47
ATOM     47  O   UNL     1      99.542  79.504  77.190  1.00  0.00    -0.493 OA
ATOM     48  C   UNL     1     100.922  79.864  77.168  1.00  0.00     0.278 C 
ENDBRANCH  44  47
BRANCH  46  49
ATOM     49  O   UNL     1      97.998  81.378  75.838  1.00  0.00    -0.504 OA
ATOM     50  H   UNL     1      98.167  82.306  75.604  1.00  0.00     0.293 HD
ENDBRANCH  46  49
ENDBRANCH  40  41
ENDBRANCH  38  40
ENDBRANCH  37  38
ENDBRANCH   1  37
TORSDOF 11
ENDMDL
MODEL 3
REMARK VINA RESULT:    -6.675     16.618     20.322
REMARK INTER + INTRA:         -12.522
REMARK INTER:                 -10.718
REMARK INTRA:                  -1.803
REMARK UNBOUND:                -0.773
REMARK SMILES C=C(C)[C@]12C[C@@H](C)[C@@]34O[C@](Cc5ccccc5)(O[C@@H]1[C@@H]3C=C(COC(=O)Cc1ccc(O)c(OC)c1)C[C@]1(O)C(=O)C(C)=C[C@@H]41)O2
REMARK SMILES IDX 23 1 22 2 21 3 20 4 9 5 8 6 10 7 6 8 18 9 46 10 19 11 5 12
REMARK SMILES IDX 7 13 4 14 45 15 38 16 44 17 40 18 42 20 41 21 43 22 39 23
REMARK SMILES IDX 11 25 12 26 13 27 17 28 14 29 16 30 15 31 2 32 3 33 1 34
REMARK SMILES IDX 37 35 24 37 25 38 26 39 27 40 28 41 36 42 29 43 33 44 30 45
REMARK SMILES IDX 31 46 34 47 35 48 32 49
REMARK H PARENT 39 24 32 50
REMARK Flexibility Score: 90.00
ROOT
ATOM      1  C   UNL     1      86.285  68.823  78.535  1.00  0.00     0.264 C 
ENDROOT
BRANCH   1   2
ATOM      2  C   UNL     1      85.988  67.453  77.973  1.00  0.00    -0.033 C 
ATOM      3  C   UNL     1      84.760  67.195  77.478  1.00  0.00    -0.015 C 
BRANCH   3   4
ATOM      4  C   UNL     1      84.192  65.894  76.935  1.00  0.00     0.078 C 
ATOM      5  O   UNL     1      84.577  65.905  74.491  1.00  0.00    -0.319 OA
ATOM      6  C   UNL     1      84.926  65.204  75.725  1.00  0.00     0.095 C 
ATOM      7  C   UNL     1      83.189  66.266  74.359  1.00  0.00     0.289 C 
ATOM      8  C   UNL     1      84.411  63.708  75.641  1.00  0.00     0.023 C 
ATOM      9  O   UNL     1      82.762  67.083  75.447  1.00  0.00    -0.320 OA
ATOM     10  O   UNL     1      82.330  65.129  74.372  1.00  0.00    -0.313 OA
ATOM     11  C   UNL     1      82.722  66.104  76.497  1.00  0.00     0.170 C 
ATOM     12  C   UNL     1      82.921  63.591  76.088  1.00  0.00     0.049 C 
ATOM     13  C   UNL     1      84.590  63.024  74.276  1.00  0.00     0.011 C 
ATOM     14  C   UNL     1      82.135  64.865  75.776  1.00  0.00     0.122 C 
BRANCH   6  15
ATOM     15  C   UNL     1      86.468  65.375  75.845  1.00  0.00     0.086 C 
ATOM     16  C   UNL     1      87.068  65.167  77.252  1.00  0.00     0.140 CG0
ATOM     17  C   UNL     1      87.370  64.564  74.957  1.00  0.00    -0.010 C 
ATOM     18  C   UNL     1      88.415  64.548  76.944  1.00  0.00     0.190 C 
ATOM     19  G   UNL     1      87.189  66.478  78.027  1.00  0.00     0.000 G0
ATOM     20  C   UNL     1      88.486  64.108  75.537  1.00  0.00    -0.008 C 
ATOM     21  O   UNL     1      89.318  64.379  77.749  1.00  0.00    -0.291 OA
ATOM     22  C   UNL     1      89.622  63.361  74.959  1.00  0.00     0.048 C 
BRANCH  16  23
ATOM     23  O   UNL     1      86.406  64.173  78.016  1.00  0.00    -0.381 OA
ATOM     24  H   UNL     1      87.078  63.629  78.460  1.00  0.00     0.212 HD
ENDBRANCH  16  23
ENDBRANCH   6  15
BRANCH   7  25
ATOM     25  C   UNL     1      83.015  67.018  73.055  1.00  0.00     0.135 C 
BRANCH  25  26
ATOM     26  C   UNL     1      82.622  66.102  71.923  1.00  0.00    -0.040 A 
ATOM     27  C   UNL     1      81.273  65.863  71.657  1.00  0.00     0.004 A 
ATOM     28  C   UNL     1      83.605  65.496  71.142  1.00  0.00     0.004 A 
ATOM     29  C   UNL     1      80.909  65.015  70.609  1.00  0.00     0.000 A 
ATOM     30  C   UNL     1      83.241  64.648  70.095  1.00  0.00     0.000 A 
ATOM     31  C   UNL     1      81.892  64.409  69.829  1.00  0.00     0.000 A 
ENDBRANCH  25  26
ENDBRANCH   7  25
BRANCH  14  32
ATOM     32  C   UNL     1      80.670  64.712  76.027  1.00  0.00    -0.046 C 
ATOM     33  C   UNL     1      80.067  63.392  75.646  1.00  0.00     0.042 C 
ATOM     34  C   UNL     1      79.935  65.698  76.563  1.00  0.00     0.010 C 
ENDBRANCH  14  32
ENDBRANCH   3   4
BRANCH   2  35
ATOM     35  C   UNL     1      87.175  66.511  78.042  1.00  0.00     0.078 CG0
ATOM     36  G   UNL     1      87.068  65.194  77.273  1.00  0.00     0.000 G0
ENDBRANCH   2  35
ENDBRANCH   1   2
BRANCH   1  37
ATOM     37  O   UNL     1      87.521  69.278  78.026  1.00  0.00    -0.461 OA
BRANCH  37  38
ATOM     38  C   UNL     1      87.492  69.840  76.771  1.00  0.00     0.310 C 
ATOM     39  O   UNL     1      88.477  70.087  76.089  1.00  0.00    -0.252 OA
BRANCH  38  40
ATOM     40  C   UNL     1      86.060  70.105  76.370  1.00  0.00     0.158 C 
BRANCH  40  41
ATOM     41  C   UNL     1      85.900  70.352  74.892  1.00  0.00    -0.033 A 
ATOM     42  C   UNL     1      85.972  69.285  73.995  1.00  0.00     0.054 A 
ATOM     43  C   UNL     1      85.680  71.646  74.420  1.00  0.00     0.008 A 
ATOM     44  C   UNL     1      85.824  69.514  72.627  1.00  0.00     0.160 A 
ATOM     45  C   UNL     1      85.532  71.874  73.052  1.00  0.00     0.050 A 
ATOM     46  C   UNL     1      85.604  70.809  72.155  1.00  0.00     0.157 A 
BRANCH  44  47
ATOM     47  O   UNL     1      85.897  68.465  71.761  1.00  0.00    -0.493 OA
ATOM     48  C   UNL     1      86.790  67.405  72.100  1.00  0.00     0.278 C 
ENDBRANCH  44  47
BRANCH  46  49
ATOM     49  O   UNL     1      85.457  71.043  70.822  1.00  0.00    -0.504 OA
ATOM     50  H   UNL     1      85.806  70.283  70.326  1.00  0.00     0.293 HD
ENDBRANCH  46  49
ENDBRANCH  40  41
ENDBRANCH  38  40
ENDBRANCH  37  38
ENDBRANCH   1  37
TORSDOF 11
ENDMDL
MODEL 4
REMARK VINA RESULT:    -6.426     31.504     35.977
REMARK INTER + INTRA:         -12.083
REMARK INTER:                  -9.564
REMARK INTRA:                  -2.519
REMARK UNBOUND:                -0.773
REMARK SMILES C=C(C)[C@]12C[C@@H](C)[C@@]34O[C@](Cc5ccccc5)(O[C@@H]1[C@@H]3C=C(COC(=O)Cc1ccc(O)c(OC)c1)C[C@]1(O)C(=O)C(C)=C[C@@H]41)O2
REMARK SMILES IDX 23 1 22 2 21 3 20 4 9 5 8 6 10 7 6 8 18 9 46 10 19 11 5 12
REMARK SMILES IDX 7 13 4 14 45 15 38 16 44 17 40 18 42 20 41 21 43 22 39 23
REMARK SMILES IDX 11 25 12 26 13 27 17 28 14 29 16 30 15 31 2 32 3 33 1 34
REMARK SMILES IDX 37 35 24 37 25 38 26 39 27 40 28 41 36 42 29 43 33 44 30 45
REMARK SMILES IDX 31 46 34 47 35 48 32 49
REMARK H PARENT 39 24 32 50
REMARK Flexibility Score: 90.00
ROOT
ATOM      1  C   UNL     1      60.438  89.568  71.267  1.00  0.00     0.264 C 
ENDROOT
BRANCH   1   2
ATOM      2  C   UNL     1      60.529  88.381  72.197  1.00  0.00    -0.033 C 
ATOM      3  C   UNL     1      61.189  87.277  71.793  1.00  0.00    -0.015 C 
BRANCH   3   4
ATOM      4  C   UNL     1      61.356  85.941  72.499  1.00  0.00     0.078 C 
ATOM      5  O   UNL     1      63.457  86.069  73.798  1.00  0.00    -0.319 OA
ATOM      6  C   UNL     1      62.009  85.927  73.931  1.00  0.00     0.095 C 
ATOM      7  C   UNL     1      64.059  85.296  72.742  1.00  0.00     0.289 C 
ATOM      8  C   UNL     1      61.680  84.526  74.594  1.00  0.00     0.023 C 
ATOM      9  O   UNL     1      63.483  85.612  71.477  1.00  0.00    -0.320 OA
ATOM     10  O   UNL     1      63.859  83.896  72.917  1.00  0.00    -0.313 OA
ATOM     11  C   UNL     1      62.199  84.984  71.620  1.00  0.00     0.170 C 
ATOM     12  C   UNL     1      61.616  83.390  73.528  1.00  0.00     0.049 C 
ATOM     13  C   UNL     1      62.616  84.101  75.738  1.00  0.00     0.011 C 
ATOM     14  C   UNL     1      62.553  83.665  72.351  1.00  0.00     0.122 C 
BRANCH   6  15
ATOM     15  C   UNL     1      61.570  87.174  74.750  1.00  0.00     0.086 C 
ATOM     16  C   UNL     1      60.077  87.555  74.662  1.00  0.00     0.140 CG0
ATOM     17  C   UNL     1      61.856  87.226  76.225  1.00  0.00    -0.010 C 
ATOM     18  C   UNL     1      59.796  88.097  76.047  1.00  0.00     0.190 C 
ATOM     19  G   UNL     1      59.808  88.584  73.565  1.00  0.00     0.000 G0
ATOM     20  C   UNL     1      60.891  87.764  76.978  1.00  0.00    -0.008 C 
ATOM     21  O   UNL     1      58.781  88.688  76.384  1.00  0.00    -0.291 OA
ATOM     22  C   UNL     1      60.861  88.047  78.427  1.00  0.00     0.048 C 
BRANCH  16  23
ATOM     23  O   UNL     1      59.207  86.441  74.551  1.00  0.00    -0.381 OA
ATOM     24  H   UNL     1      58.402  86.628  75.061  1.00  0.00     0.212 HD
ENDBRANCH  16  23
ENDBRANCH   6  15
BRANCH   7  25
ATOM     25  C   UNL     1      65.544  85.597  72.719  1.00  0.00     0.135 C 
BRANCH  25  26
ATOM     26  C   UNL     1      65.863  86.917  73.375  1.00  0.00    -0.040 A 
ATOM     27  C   UNL     1      65.582  88.111  72.711  1.00  0.00     0.004 A 
ATOM     28  C   UNL     1      66.439  86.944  74.644  1.00  0.00     0.004 A 
ATOM     29  C   UNL     1      65.877  89.333  73.317  1.00  0.00     0.000 A 
ATOM     30  C   UNL     1      66.735  88.165  75.251  1.00  0.00     0.000 A 
ATOM     31  C   UNL     1      66.453  89.359  74.586  1.00  0.00     0.000 A 
ENDBRANCH  25  26
ENDBRANCH   7  25
BRANCH  14  32
ATOM     32  C   UNL     1      62.645  82.509  71.409  1.00  0.00    -0.046 C 
ATOM     33  C   UNL     1      63.393  81.307  71.906  1.00  0.00     0.042 C 
ATOM     34  C   UNL     1      62.092  82.544  70.187  1.00  0.00     0.010 C 
ENDBRANCH  14  32
ENDBRANCH   3   4
BRANCH   2  35
ATOM     35  C   UNL     1      59.834  88.611  73.526  1.00  0.00     0.078 CG0
ATOM     36  G   UNL     1      60.079  87.583  74.630  1.00  0.00     0.000 G0
ENDBRANCH   2  35
ENDBRANCH   1   2
BRANCH   1  37
ATOM     37  O   UNL     1      59.081  89.904  71.069  1.00  0.00    -0.461 OA
BRANCH  37  38
ATOM     38  C   UNL     1      58.530  89.525  69.867  1.00  0.00     0.310 C 
ATOM     39  O   UNL     1      59.100  89.578  68.786  1.00  0.00    -0.252 OA
BRANCH  38  40
ATOM     40  C   UNL     1      57.118  89.037  70.090  1.00  0.00     0.158 C 
BRANCH  40  41
ATOM     41  C   UNL     1      57.061  87.682  70.746  1.00  0.00    -0.033 A 
ATOM     42  C   UNL     1      56.613  87.562  72.062  1.00  0.00     0.054 A 
ATOM     43  C   UNL     1      57.456  86.547  70.038  1.00  0.00     0.008 A 
ATOM     44  C   UNL     1      56.561  86.307  72.670  1.00  0.00     0.160 A 
ATOM     45  C   UNL     1      57.404  85.292  70.645  1.00  0.00     0.050 A 
ATOM     46  C   UNL     1      56.957  85.172  71.961  1.00  0.00     0.157 A 
BRANCH  44  47
ATOM     47  O   UNL     1      56.122  86.203  73.955  1.00  0.00    -0.493 OA
ATOM     48  C   UNL     1      56.075  87.404  74.723  1.00  0.00     0.278 C 
ENDBRANCH  44  47
BRANCH  46  49
ATOM     49  O   UNL     1      56.908  83.942  72.543  1.00  0.00    -0.504 OA
ATOM     50  H   UNL     1      57.663  83.414  72.231  1.00  0.00     0.293 HD
ENDBRANCH  46  49
ENDBRANCH  40  41
ENDBRANCH  38  40
ENDBRANCH  37  38
ENDBRANCH   1  37
TORSDOF 11
ENDMDL
MODEL 5
REMARK VINA RESULT:    -6.391     16.496     20.446
REMARK INTER + INTRA:         -12.022
REMARK INTER:                 -10.470
REMARK INTRA:                  -1.552
REMARK UNBOUND:                -0.773
REMARK SMILES C=C(C)[C@]12C[C@@H](C)[C@@]34O[C@](Cc5ccccc5)(O[C@@H]1[C@@H]3C=C(COC(=O)Cc1ccc(O)c(OC)c1)C[C@]1(O)C(=O)C(C)=C[C@@H]41)O2
REMARK SMILES IDX 23 1 22 2 21 3 20 4 9 5 8 6 10 7 6 8 18 9 46 10 19 11 5 12
REMARK SMILES IDX 7 13 4 14 45 15 38 16 44 17 40 18 42 20 41 21 43 22 39 23
REMARK SMILES IDX 11 25 12 26 13 27 17 28 14 29 16 30 15 31 2 32 3 33 1 34
REMARK SMILES IDX 37 35 24 37 25 38 26 39 27 40 28 41 36 42 29 43 33 44 30 45
REMARK SMILES IDX 31 46 34 47 35 48 32 49
REMARK H PARENT 39 24 32 50
REMARK Flexibility Score: 90.00
ROOT
ATOM      1  C   UNL     1      85.202  65.273  71.236  1.00  0.00     0.264 C 
ENDROOT
BRANCH   1   2
ATOM      2  C   UNL     1      86.213  66.130  71.961  1.00  0.00    -0.033 C 
ATOM      3  C   UNL     1      85.832  67.325  72.454  1.00  0.00    -0.015 C 
BRANCH   3   4
ATOM      4  C   UNL     1      86.663  68.394  73.146  1.00  0.00     0.078 C 
ATOM      5  O   UNL     1      86.534  67.948  75.575  1.00  0.00    -0.319 OA
ATOM      6  C   UNL     1      87.459  67.999  74.446  1.00  0.00     0.095 C 
ATOM      7  C   UNL     1      85.574  69.020  75.635  1.00  0.00     0.289 C 
ATOM      8  C   UNL     1      88.541  69.126  74.706  1.00  0.00     0.023 C 
ATOM      9  O   UNL     1      84.789  69.079  74.447  1.00  0.00    -0.320 OA
ATOM     10  O   UNL     1      86.196  70.297  75.750  1.00  0.00    -0.313 OA
ATOM     11  C   UNL     1      85.764  69.595  73.527  1.00  0.00     0.170 C 
ATOM     12  C   UNL     1      88.029  70.527  74.250  1.00  0.00     0.049 C 
ATOM     13  C   UNL     1      89.064  69.218  76.149  1.00  0.00     0.011 C 
ATOM     14  C   UNL     1      86.511  70.646  74.386  1.00  0.00     0.122 C 
BRANCH   6  15
ATOM     15  C   UNL     1      88.015  66.550  74.333  1.00  0.00     0.086 C 
ATOM     16  C   UNL     1      88.635  66.163  72.975  1.00  0.00     0.140 CG0
ATOM     17  C   UNL     1      89.034  66.073  75.331  1.00  0.00    -0.010 C 
ATOM     18  C   UNL     1      89.752  65.225  73.381  1.00  0.00     0.190 C 
ATOM     19  G   UNL     1      87.621  65.498  72.046  1.00  0.00     0.000 G0
ATOM     20  C   UNL     1      90.007  65.304  74.832  1.00  0.00    -0.008 C 
ATOM     21  O   UNL     1      90.403  64.527  72.619  1.00  0.00    -0.291 OA
ATOM     22  C   UNL     1      91.111  64.601  75.518  1.00  0.00     0.048 C 
BRANCH  16  23
ATOM     23  O   UNL     1      89.308  67.230  72.327  1.00  0.00    -0.381 OA
ATOM     24  H   UNL     1      89.316  67.996  72.923  1.00  0.00     0.212 HD
ENDBRANCH  16  23
ENDBRANCH   6  15
BRANCH   7  25
ATOM     25  C   UNL     1      84.674  68.787  76.832  1.00  0.00     0.135 C 
BRANCH  25  26
ATOM     26  C   UNL     1      85.234  67.742  77.765  1.00  0.00    -0.040 A 
ATOM     27  C   UNL     1      84.909  66.397  77.581  1.00  0.00     0.004 A 
ATOM     28  C   UNL     1      86.077  68.119  78.810  1.00  0.00     0.004 A 
ATOM     29  C   UNL     1      85.427  65.430  78.444  1.00  0.00     0.000 A 
ATOM     30  C   UNL     1      86.595  67.152  79.672  1.00  0.00     0.000 A 
ATOM     31  C   UNL     1      86.269  65.808  79.489  1.00  0.00     0.000 A 
ENDBRANCH  25  26
ENDBRANCH   7  25
BRANCH  14  32
ATOM     32  C   UNL     1      86.018  72.033  74.129  1.00  0.00    -0.046 C 
ATOM     33  C   UNL     1      86.673  73.125  74.922  1.00  0.00     0.042 C 
ATOM     34  C   UNL     1      85.046  72.288  73.241  1.00  0.00     0.010 C 
ENDBRANCH  14  32
ENDBRANCH   3   4
BRANCH   2  35
ATOM     35  C   UNL     1      87.586  65.489  72.044  1.00  0.00     0.078 CG0
ATOM     36  G   UNL     1      88.609  66.146  72.969  1.00  0.00     0.000 G0
ENDBRANCH   2  35
ENDBRANCH   1   2
BRANCH   1  37
ATOM     37  O   UNL     1      83.911  65.554  71.732  1.00  0.00    -0.461 OA
BRANCH  37  38
ATOM     38  C   UNL     1      82.860  64.989  71.047  1.00  0.00     0.310 C 
ATOM     39  O   UNL     1      82.952  64.047  70.272  1.00  0.00    -0.252 OA
BRANCH  38  40
ATOM     40  C   UNL     1      81.581  65.712  71.400  1.00  0.00     0.158 C 
BRANCH  40  41
ATOM     41  C   UNL     1      81.427  65.945  72.881  1.00  0.00    -0.033 A 
ATOM     42  C   UNL     1      80.474  65.227  73.604  1.00  0.00     0.054 A 
ATOM     43  C   UNL     1      82.237  66.877  73.529  1.00  0.00     0.008 A 
ATOM     44  C   UNL     1      80.331  65.443  74.975  1.00  0.00     0.160 A 
ATOM     45  C   UNL     1      82.095  67.093  74.899  1.00  0.00     0.050 A 
ATOM     46  C   UNL     1      81.142  66.376  75.623  1.00  0.00     0.157 A 
BRANCH  44  47
ATOM     47  O   UNL     1      79.397  64.737  75.671  1.00  0.00    -0.493 OA
ATOM     48  C   UNL     1      79.455  63.314  75.574  1.00  0.00     0.278 C 
ENDBRANCH  44  47
BRANCH  46  49
ATOM     49  O   UNL     1      81.012  66.594  76.961  1.00  0.00    -0.504 OA
ATOM     50  H   UNL     1      80.217  67.132  77.118  1.00  0.00     0.293 HD
ENDBRANCH  46  49
ENDBRANCH  40  41
ENDBRANCH  38  40
ENDBRANCH  37  38
ENDBRANCH   1  37
TORSDOF 11
ENDMDL
MODEL 6
REMARK VINA RESULT:    -6.135     15.142     19.518
REMARK INTER + INTRA:         -11.572
REMARK INTER:                 -10.865
REMARK INTRA:                  -0.706
REMARK UNBOUND:                -0.773
REMARK SMILES C=C(C)[C@]12C[C@@H](C)[C@@]34O[C@](Cc5ccccc5)(O[C@@H]1[C@@H]3C=C(COC(=O)Cc1ccc(O)c(OC)c1)C[C@]1(O)C(=O)C(C)=C[C@@H]41)O2
REMARK SMILES IDX 23 1 22 2 21 3 20 4 9 5 8 6 10 7 6 8 18 9 46 10 19 11 5 12
REMARK SMILES IDX 7 13 4 14 45 15 38 16 44 17 40 18 42 20 41 21 43 22 39 23
REMARK SMILES IDX 11 25 12 26 13 27 17 28 14 29 16 30 15 31 2 32 3 33 1 34
REMARK SMILES IDX 37 35 24 37 25 38 26 39 27 40 28 41 36 42 29 43 33 44 30 45
REMARK SMILES IDX 31 46 34 47 35 48 32 49
REMARK H PARENT 39 24 32 50
REMARK Flexibility Score: 90.00
ROOT
ATOM      1  C   UNL     1      85.164  65.846  76.631  1.00  0.00     0.264 C 
ENDROOT
BRANCH   1   2
ATOM      2  C   UNL     1      84.721  66.846  75.589  1.00  0.00    -0.033 C 
ATOM      3  C   UNL     1      85.353  68.034  75.504  1.00  0.00    -0.015 C 
BRANCH   3   4
ATOM      4  C   UNL     1      85.053  69.224  74.607  1.00  0.00     0.078 C 
ATOM      5  O   UNL     1      86.414  68.945  72.561  1.00  0.00    -0.319 OA
ATOM      6  C   UNL     1      85.038  69.002  73.049  1.00  0.00     0.095 C 
ATOM      7  C   UNL     1      87.309  69.922  73.124  1.00  0.00     0.289 C 
ATOM      8  C   UNL     1      84.302  70.243  72.394  1.00  0.00     0.023 C 
ATOM      9  O   UNL     1      87.359  69.820  74.545  1.00  0.00    -0.320 OA
ATOM     10  O   UNL     1      86.895  71.257  72.848  1.00  0.00    -0.313 OA
ATOM     11  C   UNL     1      86.071  70.359  74.881  1.00  0.00     0.170 C 
ATOM     12  C   UNL     1      84.561  71.552  73.202  1.00  0.00     0.049 C 
ATOM     13  C   UNL     1      84.615  70.489  70.909  1.00  0.00     0.011 C 
ATOM     14  C   UNL     1      85.930  71.535  73.883  1.00  0.00     0.122 C 
BRANCH   6  15
ATOM     15  C   UNL     1      84.442  67.609  72.695  1.00  0.00     0.086 C 
ATOM     16  C   UNL     1      83.202  67.175  73.504  1.00  0.00     0.140 CG0
ATOM     17  C   UNL     1      84.053  67.313  71.274  1.00  0.00    -0.010 C 
ATOM     18  C   UNL     1      82.409  66.383  72.486  1.00  0.00     0.190 C 
ATOM     19  G   UNL     1      83.575  66.343  74.730  1.00  0.00     0.000 G0
ATOM     20  C   UNL     1      82.931  66.603  71.123  1.00  0.00    -0.008 C 
ATOM     21  O   UNL     1      81.433  65.691  72.731  1.00  0.00    -0.291 OA
ATOM     22  C   UNL     1      82.301  66.066  69.899  1.00  0.00     0.048 C 
BRANCH  16  23
ATOM     23  O   UNL     1      82.338  68.245  73.848  1.00  0.00    -0.381 OA
ATOM     24  H   UNL     1      81.966  68.068  74.728  1.00  0.00     0.212 HD
ENDBRANCH  16  23
ENDBRANCH   6  15
BRANCH   7  25
ATOM     25  C   UNL     1      88.691  69.691  72.546  1.00  0.00     0.135 C 
BRANCH  25  26
ATOM     26  C   UNL     1      88.782  70.131  71.106  1.00  0.00    -0.040 A 
ATOM     27  C   UNL     1      88.928  71.484  70.798  1.00  0.00     0.004 A 
ATOM     28  C   UNL     1      88.721  69.186  70.082  1.00  0.00     0.004 A 
ATOM     29  C   UNL     1      89.012  71.891  69.466  1.00  0.00     0.000 A 
ATOM     30  C   UNL     1      88.805  69.593  68.750  1.00  0.00     0.000 A 
ATOM     31  C   UNL     1      88.951  70.946  68.443  1.00  0.00     0.000 A 
ENDBRANCH  25  26
ENDBRANCH   7  25
BRANCH  14  32
ATOM     32  C   UNL     1      86.276  72.847  74.510  1.00  0.00    -0.046 C 
ATOM     33  C   UNL     1      85.137  73.797  74.729  1.00  0.00     0.042 C 
ATOM     34  C   UNL     1      87.534  73.157  74.857  1.00  0.00     0.010 C 
ENDBRANCH  14  32
ENDBRANCH   3   4
BRANCH   2  35
ATOM     35  C   UNL     1      83.573  66.344  74.734  1.00  0.00     0.078 CG0
ATOM     36  G   UNL     1      83.220  67.158  73.489  1.00  0.00     0.000 G0
ENDBRANCH   2  35
ENDBRANCH   1   2
BRANCH   1  37
ATOM     37  O   UNL     1      84.957  66.390  77.917  1.00  0.00    -0.461 OA
BRANCH  37  38
ATOM     38  C   UNL     1      86.071  66.883  78.556  1.00  0.00     0.310 C 
ATOM     39  O   UNL     1      87.009  66.207  78.955  1.00  0.00    -0.252 OA
BRANCH  38  40
ATOM     40  C   UNL     1      85.955  68.384  78.687  1.00  0.00     0.158 C 
BRANCH  40  41
ATOM     41  C   UNL     1      87.059  68.989  79.515  1.00  0.00    -0.033 A 
ATOM     42  C   UNL     1      86.900  69.127  80.895  1.00  0.00     0.054 A 
ATOM     43  C   UNL     1      88.240  69.410  78.904  1.00  0.00     0.008 A 
ATOM     44  C   UNL     1      87.922  69.687  81.662  1.00  0.00     0.160 A 
ATOM     45  C   UNL     1      89.261  69.970  79.670  1.00  0.00     0.050 A 
ATOM     46  C   UNL     1      89.103  70.109  81.049  1.00  0.00     0.157 A 
BRANCH  44  47
ATOM     47  O   UNL     1      87.756  69.817  83.007  1.00  0.00    -0.493 OA
ATOM     48  C   UNL     1      86.483  70.276  83.461  1.00  0.00     0.278 C 
ENDBRANCH  44  47
BRANCH  46  49
ATOM     49  O   UNL     1      90.108  70.656  81.787  1.00  0.00    -0.504 OA
ATOM     50  H   UNL     1      90.059  71.625  81.721  1.00  0.00     0.293 HD
ENDBRANCH  46  49
ENDBRANCH  40  41
ENDBRANCH  38  40
ENDBRANCH  37  38
ENDBRANCH   1  37
TORSDOF 11
ENDMDL
MODEL 7
REMARK VINA RESULT:    -6.122      4.543      8.346
REMARK INTER + INTRA:         -11.548
REMARK INTER:                 -10.816
REMARK INTRA:                  -0.732
REMARK UNBOUND:                -0.773
REMARK SMILES C=C(C)[C@]12C[C@@H](C)[C@@]34O[C@](Cc5ccccc5)(O[C@@H]1[C@@H]3C=C(COC(=O)Cc1ccc(O)c(OC)c1)C[C@]1(O)C(=O)C(C)=C[C@@H]41)O2
REMARK SMILES IDX 23 1 22 2 21 3 20 4 9 5 8 6 10 7 6 8 18 9 46 10 19 11 5 12
REMARK SMILES IDX 7 13 4 14 45 15 38 16 44 17 40 18 42 20 41 21 43 22 39 23
REMARK SMILES IDX 11 25 12 26 13 27 17 28 14 29 16 30 15 31 2 32 3 33 1 34
REMARK SMILES IDX 37 35 24 37 25 38 26 39 27 40 28 41 36 42 29 43 33 44 30 45
REMARK SMILES IDX 31 46 34 47 35 48 32 49
REMARK H PARENT 39 24 32 50
REMARK Flexibility Score: 90.00
ROOT
ATOM      1  C   UNL     1      92.896  83.904  89.941  1.00  0.00     0.264 C 
ENDROOT
BRANCH   1   2
ATOM      2  C   UNL     1      91.982  82.735  89.656  1.00  0.00    -0.033 C 
ATOM      3  C   UNL     1      91.358  82.661  88.463  1.00  0.00    -0.015 C 
BRANCH   3   4
ATOM      4  C   UNL     1      90.344  81.644  87.967  1.00  0.00     0.078 C 
ATOM      5  O   UNL     1      91.614  79.869  86.803  1.00  0.00    -0.319 OA
ATOM      6  C   UNL     1      90.752  80.124  87.955  1.00  0.00     0.095 C 
ATOM      7  C   UNL     1      91.203  80.497  85.574  1.00  0.00     0.289 C 
ATOM      8  C   UNL     1      89.424  79.271  87.813  1.00  0.00     0.023 C 
ATOM      9  O   UNL     1      91.102  81.911  85.724  1.00  0.00    -0.320 OA
ATOM     10  O   UNL     1      89.913  80.062  85.150  1.00  0.00    -0.313 OA
ATOM     11  C   UNL     1      89.911  81.995  86.522  1.00  0.00     0.170 C 
ATOM     12  C   UNL     1      88.358  80.014  86.949  1.00  0.00     0.049 C 
ATOM     13  C   UNL     1      89.611  77.842  87.278  1.00  0.00     0.011 C 
ATOM     14  C   UNL     1      89.008  80.906  85.891  1.00  0.00     0.122 C 
BRANCH   6  15
ATOM     15  C   UNL     1      91.638  79.781  89.187  1.00  0.00     0.086 C 
ATOM     16  C   UNL     1      91.204  80.402  90.531  1.00  0.00     0.140 CG0
ATOM     17  C   UNL     1      91.893  78.341  89.533  1.00  0.00    -0.010 C 
ATOM     18  C   UNL     1      91.588  79.327  91.526  1.00  0.00     0.190 C 
ATOM     19  G   UNL     1      91.905  81.732  90.805  1.00  0.00     0.000 G0
ATOM     20  C   UNL     1      91.899  78.059  90.840  1.00  0.00    -0.008 C 
ATOM     21  O   UNL     1      91.597  79.457  92.740  1.00  0.00    -0.291 OA
ATOM     22  C   UNL     1      92.191  76.790  91.538  1.00  0.00     0.048 C 
BRANCH  16  23
ATOM     23  O   UNL     1      89.799  80.517  90.682  1.00  0.00    -0.381 OA
ATOM     24  H   UNL     1      89.618  81.013  91.498  1.00  0.00     0.212 HD
ENDBRANCH  16  23
ENDBRANCH   6  15
BRANCH   7  25
ATOM     25  C   UNL     1      92.225  80.167  84.505  1.00  0.00     0.135 C 
BRANCH  25  26
ATOM     26  C   UNL     1      93.616  80.597  84.901  1.00  0.00    -0.040 A 
ATOM     27  C   UNL     1      94.543  79.648  85.331  1.00  0.00     0.004 A 
ATOM     28  C   UNL     1      93.975  81.943  84.837  1.00  0.00     0.004 A 
ATOM     29  C   UNL     1      95.830  80.045  85.697  1.00  0.00     0.000 A 
ATOM     30  C   UNL     1      95.261  82.341  85.203  1.00  0.00     0.000 A 
ATOM     31  C   UNL     1      96.188  81.391  85.633  1.00  0.00     0.000 A 
ENDBRANCH  25  26
ENDBRANCH   7  25
BRANCH  14  32
ATOM     32  C   UNL     1      88.014  81.483  84.937  1.00  0.00    -0.046 C 
ATOM     33  C   UNL     1      86.573  81.175  85.215  1.00  0.00     0.042 C 
ATOM     34  C   UNL     1      88.389  82.234  83.891  1.00  0.00     0.010 C 
ENDBRANCH  14  32
ENDBRANCH   3   4
BRANCH   2  35
ATOM     35  C   UNL     1      91.896  81.753  90.809  1.00  0.00     0.078 CG0
ATOM     36  G   UNL     1      91.222  80.409  90.534  1.00  0.00     0.000 G0
ENDBRANCH   2  35
ENDBRANCH   1   2
BRANCH   1  37
ATOM     37  O   UNL     1      92.439  85.037  89.234  1.00  0.00    -0.461 OA
BRANCH  37  38
ATOM     38  C   UNL     1      92.124  86.141  89.992  1.00  0.00     0.310 C 
ATOM     39  O   UNL     1      91.061  86.744  89.947  1.00  0.00    -0.252 OA
BRANCH  38  40
ATOM     40  C   UNL     1      93.293  86.490  90.884  1.00  0.00     0.158 C 
BRANCH  40  41
ATOM     41  C   UNL     1      94.440  87.115  90.133  1.00  0.00    -0.033 A 
ATOM     42  C   UNL     1      94.456  88.492  89.905  1.00  0.00     0.054 A 
ATOM     43  C   UNL     1      95.484  86.319  89.665  1.00  0.00     0.008 A 
ATOM     44  C   UNL     1      95.518  89.071  89.210  1.00  0.00     0.160 A 
ATOM     45  C   UNL     1      96.546  86.898  88.969  1.00  0.00     0.050 A 
ATOM     46  C   UNL     1      96.563  88.273  88.742  1.00  0.00     0.157 A 
BRANCH  44  47
ATOM     47  O   UNL     1      95.523  90.416  88.994  1.00  0.00    -0.493 OA
ATOM     48  C   UNL     1      96.159  91.228  89.979  1.00  0.00     0.278 C 
ENDBRANCH  44  47
BRANCH  46  49
ATOM     49  O   UNL     1      97.605  88.827  88.062  1.00  0.00    -0.504 OA
ATOM     50  H   UNL     1      97.490  89.792  88.038  1.00  0.00     0.293 HD
ENDBRANCH  46  49
ENDBRANCH  40  41
ENDBRANCH  38  40
ENDBRANCH  37  38
ENDBRANCH   1  37
TORSDOF 11
ENDMDL
MODEL 8
REMARK VINA RESULT:    -6.082     16.350     20.201
REMARK INTER + INTRA:         -11.478
REMARK INTER:                  -8.611
REMARK INTRA:                  -2.868
REMARK UNBOUND:                -0.773
REMARK SMILES C=C(C)[C@]12C[C@@H](C)[C@@]34O[C@](Cc5ccccc5)(O[C@@H]1[C@@H]3C=C(COC(=O)Cc1ccc(O)c(OC)c1)C[C@]1(O)C(=O)C(C)=C[C@@H]41)O2
REMARK SMILES IDX 23 1 22 2 21 3 20 4 9 5 8 6 10 7 6 8 18 9 46 10 19 11 5 12
REMARK SMILES IDX 7 13 4 14 45 15 38 16 44 17 40 18 42 20 41 21 43 22 39 23
REMARK SMILES IDX 11 25 12 26 13 27 17 28 14 29 16 30 15 31 2 32 3 33 1 34
REMARK SMILES IDX 37 35 24 37 25 38 26 39 27 40 28 41 36 42 29 43 33 44 30 45
REMARK SMILES IDX 31 46 34 47 35 48 32 49
REMARK H PARENT 39 24 32 50
REMARK Flexibility Score: 90.00
ROOT
ATOM      1  C   UNL     1      83.591  67.632  77.545  1.00  0.00     0.264 C 
ENDROOT
BRANCH   1   2
ATOM      2  C   UNL     1      83.926  66.659  76.439  1.00  0.00    -0.033 C 
ATOM      3  C   UNL     1      83.510  66.920  75.183  1.00  0.00    -0.015 C 
BRANCH   3   4
ATOM      4  C   UNL     1      83.648  66.076  73.926  1.00  0.00     0.078 C 
ATOM      5  O   UNL     1      85.732  66.793  72.803  1.00  0.00    -0.319 OA
ATOM      6  C   UNL     1      85.092  65.657  73.461  1.00  0.00     0.095 C 
ATOM      7  C   UNL     1      84.890  67.537  71.901  1.00  0.00     0.289 C 
ATOM      8  C   UNL     1      84.936  64.470  72.423  1.00  0.00     0.023 C 
ATOM      9  O   UNL     1      83.729  68.029  72.565  1.00  0.00    -0.320 OA
ATOM     10  O   UNL     1      84.407  66.735  70.826  1.00  0.00    -0.313 OA
ATOM     11  C   UNL     1      82.994  66.807  72.728  1.00  0.00     0.170 C 
ATOM     12  C   UNL     1      83.631  64.616  71.580  1.00  0.00     0.049 C 
ATOM     13  C   UNL     1      86.132  64.255  71.481  1.00  0.00     0.011 C 
ATOM     14  C   UNL     1      83.247  66.083  71.382  1.00  0.00     0.122 C 
BRANCH   6  15
ATOM     15  C   UNL     1      86.001  65.356  74.688  1.00  0.00     0.086 C 
ATOM     16  C   UNL     1      85.354  64.550  75.833  1.00  0.00     0.140 CG0
ATOM     17  C   UNL     1      87.319  64.666  74.476  1.00  0.00    -0.010 C 
ATOM     18  C   UNL     1      86.515  63.726  76.348  1.00  0.00     0.190 C 
ATOM     19  G   UNL     1      84.756  65.455  76.909  1.00  0.00     0.000 G0
ATOM     20  C   UNL     1      87.650  63.764  75.407  1.00  0.00    -0.008 C 
ATOM     21  O   UNL     1      86.514  63.068  77.378  1.00  0.00    -0.291 OA
ATOM     22  C   UNL     1      88.884  62.968  75.565  1.00  0.00     0.048 C 
BRANCH  16  23
ATOM     23  O   UNL     1      84.418  63.580  75.394  1.00  0.00    -0.381 OA
ATOM     24  H   UNL     1      83.844  63.987  74.724  1.00  0.00     0.212 HD
ENDBRANCH  16  23
ENDBRANCH   6  15
BRANCH   7  25
ATOM     25  C   UNL     1      85.694  68.696  71.347  1.00  0.00     0.135 C 
BRANCH  25  26
ATOM     26  C   UNL     1      85.742  69.860  72.305  1.00  0.00    -0.040 A 
ATOM     27  C   UNL     1      84.946  70.983  72.078  1.00  0.00     0.004 A 
ATOM     28  C   UNL     1      86.580  69.813  73.418  1.00  0.00     0.004 A 
ATOM     29  C   UNL     1      84.990  72.060  72.964  1.00  0.00     0.000 A 
ATOM     30  C   UNL     1      86.624  70.890  74.304  1.00  0.00     0.000 A 
ATOM     31  C   UNL     1      85.829  72.013  74.077  1.00  0.00     0.000 A 
ENDBRANCH  25  26
ENDBRANCH   7  25
BRANCH  14  32
ATOM     32  C   UNL     1      82.109  66.254  70.429  1.00  0.00    -0.046 C 
ATOM     33  C   UNL     1      82.471  66.358  68.977  1.00  0.00     0.042 C 
ATOM     34  C   UNL     1      80.836  66.313  70.848  1.00  0.00     0.010 C 
ENDBRANCH  14  32
ENDBRANCH   3   4
BRANCH   2  35
ATOM     35  C   UNL     1      84.732  65.467  76.919  1.00  0.00     0.078 CG0
ATOM     36  G   UNL     1      85.338  64.558  75.851  1.00  0.00     0.000 G0
ENDBRANCH   2  35
ENDBRANCH   1   2
BRANCH   1  37
ATOM     37  O   UNL     1      84.781  68.041  78.184  1.00  0.00    -0.461 OA
BRANCH  37  38
ATOM     38  C   UNL     1      85.363  69.192  77.707  1.00  0.00     0.310 C 
ATOM     39  O   UNL     1      84.836  69.976  76.930  1.00  0.00    -0.252 OA
BRANCH  38  40
ATOM     40  C   UNL     1      86.750  69.335  78.290  1.00  0.00     0.158 C 
BRANCH  40  41
ATOM     41  C   UNL     1      87.840  69.063  77.286  1.00  0.00    -0.033 A 
ATOM     42  C   UNL     1      88.792  70.045  77.007  1.00  0.00     0.054 A 
ATOM     43  C   UNL     1      87.899  67.830  76.637  1.00  0.00     0.008 A 
ATOM     44  C   UNL     1      89.802  69.793  76.078  1.00  0.00     0.160 A 
ATOM     45  C   UNL     1      88.909  67.578  75.708  1.00  0.00     0.050 A 
ATOM     46  C   UNL     1      89.860  68.559  75.428  1.00  0.00     0.157 A 
BRANCH  44  47
ATOM     47  O   UNL     1      90.724  70.759  75.813  1.00  0.00    -0.493 OA
ATOM     48  C   UNL     1      90.294  72.115  75.924  1.00  0.00     0.278 C 
ENDBRANCH  44  47
BRANCH  46  49
ATOM     49  O   UNL     1      90.842  68.302  74.520  1.00  0.00    -0.504 OA
ATOM     50  H   UNL     1      90.969  67.340  74.456  1.00  0.00     0.293 HD
ENDBRANCH  46  49
ENDBRANCH  40  41
ENDBRANCH  38  40
ENDBRANCH  37  38
ENDBRANCH   1  37
TORSDOF 11
ENDMDL
MODEL 9
REMARK VINA RESULT:    -6.071     33.271     37.525
REMARK INTER + INTRA:         -11.457
REMARK INTER:                 -10.584
REMARK INTRA:                  -0.873
REMARK UNBOUND:                -0.773
REMARK SMILES C=C(C)[C@]12C[C@@H](C)[C@@]34O[C@](Cc5ccccc5)(O[C@@H]1[C@@H]3C=C(COC(=O)Cc1ccc(O)c(OC)c1)C[C@]1(O)C(=O)C(C)=C[C@@H]41)O2
REMARK SMILES IDX 23 1 22 2 21 3 20 4 9 5 8 6 10 7 6 8 18 9 46 10 19 11 5 12
REMARK SMILES IDX 7 13 4 14 45 15 38 16 44 17 40 18 42 20 41 21 43 22 39 23
REMARK SMILES IDX 11 25 12 26 13 27 17 28 14 29 16 30 15 31 2 32 3 33 1 34
REMARK SMILES IDX 37 35 24 37 25 38 26 39 27 40 28 41 36 42 29 43 33 44 30 45
REMARK SMILES IDX 31 46 34 47 35 48 32 49
REMARK H PARENT 39 24 32 50
REMARK Flexibility Score: 90.00
ROOT
ATOM      1  C   UNL     1      59.501  89.056  70.787  1.00  0.00     0.264 C 
ENDROOT
BRANCH   1   2
ATOM      2  C   UNL     1      59.636  87.800  71.616  1.00  0.00    -0.033 C 
ATOM      3  C   UNL     1      60.554  86.876  71.267  1.00  0.00    -0.015 C 
BRANCH   3   4
ATOM      4  C   UNL     1      60.832  85.513  71.881  1.00  0.00     0.078 C 
ATOM      5  O   UNL     1      62.606  85.834  73.574  1.00  0.00    -0.319 OA
ATOM      6  C   UNL     1      61.209  85.442  73.407  1.00  0.00     0.095 C 
ATOM      7  C   UNL     1      63.518  85.295  72.598  1.00  0.00     0.289 C 
ATOM      8  C   UNL     1      61.027  83.939  73.877  1.00  0.00     0.023 C 
ATOM      9  O   UNL     1      63.132  85.655  71.275  1.00  0.00    -0.320 OA
ATOM     10  O   UNL     1      63.549  83.870  72.615  1.00  0.00    -0.313 OA
ATOM     11  C   UNL     1      61.979  84.814  71.111  1.00  0.00     0.170 C 
ATOM     12  C   UNL     1      61.363  82.938  72.730  1.00  0.00     0.049 C 
ATOM     13  C   UNL     1      61.803  83.545  75.144  1.00  0.00     0.011 C 
ATOM     14  C   UNL     1      62.430  83.495  71.787  1.00  0.00     0.122 C 
BRANCH   6  15
ATOM     15  C   UNL     1      60.409  86.499  74.223  1.00  0.00     0.086 C 
ATOM     16  C   UNL     1      58.917  86.649  73.862  1.00  0.00     0.140 CG0
ATOM     17  C   UNL     1      60.399  86.417  75.724  1.00  0.00    -0.010 C 
ATOM     18  C   UNL     1      58.288  86.971  75.201  1.00  0.00     0.190 C 
ATOM     19  G   UNL     1      58.682  87.748  72.826  1.00  0.00     0.000 G0
ATOM     20  C   UNL     1      59.229  86.704  76.305  1.00  0.00    -0.008 C 
ATOM     21  O   UNL     1      57.140  87.353  75.371  1.00  0.00    -0.291 OA
ATOM     22  C   UNL     1      58.877  86.805  77.736  1.00  0.00     0.048 C 
BRANCH  16  23
ATOM     23  O   UNL     1      58.293  85.435  73.478  1.00  0.00    -0.381 OA
ATOM     24  H   UNL     1      58.986  84.785  73.275  1.00  0.00     0.212 HD
ENDBRANCH  16  23
ENDBRANCH   6  15
BRANCH   7  25
ATOM     25  C   UNL     1      64.903  85.835  72.892  1.00  0.00     0.135 C 
BRANCH  25  26
ATOM     26  C   UNL     1      65.796  85.793  71.677  1.00  0.00    -0.040 A 
ATOM     27  C   UNL     1      66.224  86.982  71.085  1.00  0.00     0.004 A 
ATOM     28  C   UNL     1      66.195  84.567  71.146  1.00  0.00     0.004 A 
ATOM     29  C   UNL     1      67.050  86.944  69.961  1.00  0.00     0.000 A 
ATOM     30  C   UNL     1      67.021  84.529  70.022  1.00  0.00     0.000 A 
ATOM     31  C   UNL     1      67.448  85.717  69.430  1.00  0.00     0.000 A 
ENDBRANCH  25  26
ENDBRANCH   7  25
BRANCH  14  32
ATOM     32  C   UNL     1      62.900  82.486  70.790  1.00  0.00    -0.046 C 
ATOM     33  C   UNL     1      64.069  81.642  71.203  1.00  0.00     0.042 C 
ATOM     34  C   UNL     1      62.310  82.342  69.594  1.00  0.00     0.010 C 
ENDBRANCH  14  32
ENDBRANCH   3   4
BRANCH   2  35
ATOM     35  C   UNL     1      58.677  87.755  72.790  1.00  0.00     0.078 CG0
ATOM     36  G   UNL     1      58.915  86.678  73.847  1.00  0.00     0.000 G0
ENDBRANCH   2  35
ENDBRANCH   1   2
BRANCH   1  37
ATOM     37  O   UNL     1      58.239  89.063  70.154  1.00  0.00    -0.461 OA
BRANCH  37  38
ATOM     38  C   UNL     1      57.464  90.181  70.356  1.00  0.00     0.310 C 
ATOM     39  O   UNL     1      57.881  91.331  70.382  1.00  0.00    -0.252 OA
BRANCH  38  40
ATOM     40  C   UNL     1      56.022  89.768  70.541  1.00  0.00     0.158 C 
BRANCH  40  41
ATOM     41  C   UNL     1      55.252  89.728  69.246  1.00  0.00    -0.033 A 
ATOM     42  C   UNL     1      55.151  90.875  68.458  1.00  0.00     0.054 A 
ATOM     43  C   UNL     1      54.641  88.544  68.835  1.00  0.00     0.008 A 
ATOM     44  C   UNL     1      54.439  90.837  67.260  1.00  0.00     0.160 A 
ATOM     45  C   UNL     1      53.928  88.506  67.636  1.00  0.00     0.050 A 
ATOM     46  C   UNL     1      53.826  89.652  66.849  1.00  0.00     0.157 A 
BRANCH  44  47
ATOM     47  O   UNL     1      54.347  91.964  66.499  1.00  0.00    -0.493 OA
ATOM     48  C   UNL     1      53.577  93.042  67.028  1.00  0.00     0.278 C 
ENDBRANCH  44  47
BRANCH  46  49
ATOM     49  O   UNL     1      53.129  89.603  65.680  1.00  0.00    -0.504 OA
ATOM     50  H   UNL     1      52.987  90.510  65.358  1.00  0.00     0.293 HD
ENDBRANCH  46  49
ENDBRANCH  40  41
ENDBRANCH  38  40
ENDBRANCH  37  38
ENDBRANCH   1  37
TORSDOF 11
ENDMDL
MODEL 10
REMARK VINA RESULT:    -5.995      2.588      7.737
REMARK INTER + INTRA:         -11.324
REMARK INTER:                  -9.828
REMARK INTRA:                  -1.495
REMARK UNBOUND:                -0.773
REMARK SMILES C=C(C)[C@]12C[C@@H](C)[C@@]34O[C@](Cc5ccccc5)(O[C@@H]1[C@@H]3C=C(COC(=O)Cc1ccc(O)c(OC)c1)C[C@]1(O)C(=O)C(C)=C[C@@H]41)O2
REMARK SMILES IDX 23 1 22 2 21 3 20 4 9 5 8 6 10 7 6 8 18 9 46 10 19 11 5 12
REMARK SMILES IDX 7 13 4 14 45 15 38 16 44 17 40 18 42 20 41 21 43 22 39 23
REMARK SMILES IDX 11 25 12 26 13 27 17 28 14 29 16 30 15 31 2 32 3 33 1 34
REMARK SMILES IDX 37 35 24 37 25 38 26 39 27 40 28 41 36 42 29 43 33 44 30 45
REMARK SMILES IDX 31 46 34 47 35 48 32 49
REMARK H PARENT 39 24 32 50
REMARK Flexibility Score: 90.00
ROOT
ATOM      1  C   UNL     1      90.313  80.929  84.225  1.00  0.00     0.264 C 
ENDROOT
BRANCH   1   2
ATOM      2  C   UNL     1      91.383  81.084  85.280  1.00  0.00    -0.033 C 
ATOM      3  C   UNL     1      92.626  80.625  85.032  1.00  0.00    -0.015 C 
BRANCH   3   4
ATOM      4  C   UNL     1      93.842  80.590  85.944  1.00  0.00     0.078 C 
ATOM      5  O   UNL     1      95.099  82.684  85.547  1.00  0.00    -0.319 OA
ATOM      6  C   UNL     1      94.352  81.945  86.563  1.00  0.00     0.095 C 
ATOM      7  C   UNL     1      95.997  81.894  84.746  1.00  0.00     0.289 C 
ATOM      8  C   UNL     1      95.318  81.588  87.767  1.00  0.00     0.023 C 
ATOM      9  O   UNL     1      95.306  80.839  84.081  1.00  0.00    -0.320 OA
ATOM     10  O   UNL     1      97.005  81.259  85.529  1.00  0.00    -0.313 OA
ATOM     11  C   UNL     1      95.045  79.969  85.193  1.00  0.00     0.170 C 
ATOM     12  C   UNL     1      96.105  80.269  87.497  1.00  0.00     0.049 C 
ATOM     13  C   UNL     1      96.303  82.696  88.173  1.00  0.00     0.011 C 
ATOM     14  C   UNL     1      96.361  80.058  86.004  1.00  0.00     0.122 C 
BRANCH   6  15
ATOM     15  C   UNL     1      93.155  82.874  86.918  1.00  0.00     0.086 C 
ATOM     16  C   UNL     1      91.938  82.193  87.578  1.00  0.00     0.140 CG0
ATOM     17  C   UNL     1      93.391  84.081  87.783  1.00  0.00    -0.010 C 
ATOM     18  C   UNL     1      91.434  83.267  88.519  1.00  0.00     0.190 C 
ATOM     19  G   UNL     1      90.886  81.773  86.552  1.00  0.00     0.000 G0
ATOM     20  C   UNL     1      92.430  84.344  88.673  1.00  0.00    -0.008 C 
ATOM     21  O   UNL     1      90.371  83.239  89.121  1.00  0.00    -0.291 OA
ATOM     22  C   UNL     1      92.287  85.475  89.614  1.00  0.00     0.048 C 
BRANCH  16  23
ATOM     23  O   UNL     1      92.278  81.120  88.439  1.00  0.00    -0.381 OA
ATOM     24  H   UNL     1      92.930  80.558  87.988  1.00  0.00     0.212 HD
ENDBRANCH  16  23
ENDBRANCH   6  15
BRANCH   7  25
ATOM     25  C   UNL     1      96.649  82.803  83.724  1.00  0.00     0.135 C 
BRANCH  25  26
ATOM     26  C   UNL     1      97.075  82.051  82.488  1.00  0.00    -0.040 A 
ATOM     27  C   UNL     1      97.907  80.937  82.603  1.00  0.00     0.004 A 
ATOM     28  C   UNL     1      96.638  82.469  81.232  1.00  0.00     0.004 A 
ATOM     29  C   UNL     1      98.302  80.241  81.460  1.00  0.00     0.000 A 
ATOM     30  C   UNL     1      97.032  81.773  80.089  1.00  0.00     0.000 A 
ATOM     31  C   UNL     1      97.864  80.659  80.203  1.00  0.00     0.000 A 
ENDBRANCH  25  26
ENDBRANCH   7  25
BRANCH  14  32
ATOM     32  C   UNL     1      97.267  78.901  85.734  1.00  0.00    -0.046 C 
ATOM     33  C   UNL     1      98.735  79.206  85.689  1.00  0.00     0.042 C 
ATOM     34  C   UNL     1      96.795  77.660  85.543  1.00  0.00     0.010 C 
ENDBRANCH  14  32
ENDBRANCH   3   4
BRANCH   2  35
ATOM     35  C   UNL     1      90.885  81.779  86.534  1.00  0.00     0.078 CG0
ATOM     36  G   UNL     1      91.932  82.183  87.571  1.00  0.00     0.000 G0
ENDBRANCH   2  35
ENDBRANCH   1   2
BRANCH   1  37
ATOM     37  O   UNL     1      89.878  79.586  84.195  1.00  0.00    -0.461 OA
BRANCH  37  38
ATOM     38  C   UNL     1      88.616  79.345  84.685  1.00  0.00     0.310 C 
ATOM     39  O   UNL     1      87.639  80.055  84.490  1.00  0.00    -0.252 OA
BRANCH  38  40
ATOM     40  C   UNL     1      88.625  78.072  85.499  1.00  0.00     0.158 C 
BRANCH  40  41
ATOM     41  C   UNL     1      90.010  77.512  85.699  1.00  0.00    -0.033 A 
ATOM     42  C   UNL     1      90.528  76.590  84.788  1.00  0.00     0.054 A 
ATOM     43  C   UNL     1      90.774  77.915  86.794  1.00  0.00     0.008 A 
ATOM     44  C   UNL     1      91.810  76.072  84.973  1.00  0.00     0.160 A 
ATOM     45  C   UNL     1      92.056  77.397  86.979  1.00  0.00     0.050 A 
ATOM     46  C   UNL     1      92.574  76.476  86.069  1.00  0.00     0.157 A 
BRANCH  44  47
ATOM     47  O   UNL     1      92.305  75.173  84.078  1.00  0.00    -0.493 OA
ATOM     48  C   UNL     1      93.409  75.594  83.279  1.00  0.00     0.278 C 
ENDBRANCH  44  47
BRANCH  46  49
ATOM     49  O   UNL     1      93.827  75.977  86.260  1.00  0.00    -0.504 OA
ATOM     50  H   UNL     1      93.818  75.384  87.030  1.00  0.00     0.293 HD
ENDBRANCH  46  49
ENDBRANCH  40  41
ENDBRANCH  38  40
ENDBRANCH  37  38
ENDBRANCH   1  37
TORSDOF 11
ENDMDL
