MODEL 1
REMARK VINA RESULT:    -5.702      0.000      0.000
REMARK INTER + INTRA:          -9.995
REMARK INTER:                  -9.202
REMARK INTRA:                  -0.794
REMARK UNBOUND:                -0.794
REMARK SMILES CCCCCCCCC(=O)NCc1ccc(O)c(OC)c1
REMARK SMILES IDX 7 1 6 2 5 3 4 4 3 5 2 6 1 7 8 8 9 9 10 10 11 11 12 13 13 14
REMARK SMILES IDX 21 15 14 16 18 17 15 18 16 19 19 20 20 21 17 22
REMARK H PARENT 11 12 17 23
REMARK Flexibility Score: inf
ROOT
ATOM      1  C   UNL     1      76.736  83.966  69.092  1.00  0.00     0.010 C 
ENDROOT
BRANCH   1   2
ATOM      2  C   UNL     1      75.989  85.193  69.691  1.00  0.00     0.001 C 
BRANCH   2   3
ATOM      3  C   UNL     1      76.944  86.396  69.948  1.00  0.00     0.000 C 
BRANCH   3   4
ATOM      4  C   UNL     1      76.481  87.719  69.274  1.00  0.00    -0.000 C 
BRANCH   4   5
ATOM      5  C   UNL     1      76.113  88.821  70.307  1.00  0.00    -0.000 C 
BRANCH   5   6
ATOM      6  C   UNL     1      74.588  89.113  70.350  1.00  0.00    -0.003 C 
ATOM      7  C   UNL     1      73.837  88.227  71.368  1.00  0.00     0.004 C 
ENDBRANCH   5   6
ENDBRANCH   4   5
ENDBRANCH   3   4
ENDBRANCH   2   3
ENDBRANCH   1   2
BRANCH   1   8
ATOM      8  C   UNL     1      77.940  84.344  68.185  1.00  0.00     0.100 C 
BRANCH   8   9
ATOM      9  C   UNL     1      77.891  83.619  66.893  1.00  0.00     0.220 C 
ATOM     10  O   UNL     1      78.721  83.928  66.005  1.00  0.00    -0.275 OA
ATOM     11  N   UNL     1      76.982  82.620  66.692  1.00  0.00    -0.352 N 
ATOM     12  H   UNL     1      76.308  82.512  67.436  1.00  0.00     0.163 HD
BRANCH  11  13
ATOM     13  C   UNL     1      76.927  81.757  65.551  1.00  0.00     0.151 C 
BRANCH  13  14
ATOM     14  C   UNL     1      75.546  81.481  65.073  1.00  0.00    -0.025 A 
ATOM     15  C   UNL     1      74.436  81.737  65.914  1.00  0.00     0.056 A 
ATOM     16  C   UNL     1      75.316  80.958  63.780  1.00  0.00     0.009 A 
ATOM     17  C   UNL     1      73.117  81.495  65.466  1.00  0.00     0.160 A 
ATOM     18  C   UNL     1      74.006  80.717  63.328  1.00  0.00     0.050 A 
ATOM     19  C   UNL     1      72.906  80.976  64.169  1.00  0.00     0.157 A 
BRANCH  17  20
ATOM     20  O   UNL     1      72.045  81.704  66.298  1.00  0.00    -0.493 OA
ATOM     21  C   UNL     1      71.522  83.043  66.259  1.00  0.00     0.278 C 
ENDBRANCH  17  20
BRANCH  19  22
ATOM     22  O   UNL     1      71.647  80.714  63.734  1.00  0.00    -0.504 OA
ATOM     23  H   UNL     1      71.259  81.516  63.377  1.00  0.00     0.293 HD
ENDBRANCH  19  22
ENDBRANCH  13  14
ENDBRANCH  11  13
ENDBRANCH   8   9
ENDBRANCH   1   8
TORSDOF 11
ENDMDL
MODEL 2
REMARK VINA RESULT:    -5.587     20.641     23.477
REMARK INTER + INTRA:          -9.810
REMARK INTER:                  -8.990
REMARK INTRA:                  -0.819
REMARK UNBOUND:                -0.794
REMARK SMILES CCCCCCCCC(=O)NCc1ccc(O)c(OC)c1
REMARK SMILES IDX 7 1 6 2 5 3 4 4 3 5 2 6 1 7 8 8 9 9 10 10 11 11 12 13 13 14
REMARK SMILES IDX 21 15 14 16 18 17 15 18 16 19 19 20 20 21 17 22
REMARK H PARENT 11 12 17 23
REMARK Flexibility Score: inf
ROOT
ATOM      1  C   UNL     1      94.347  96.465  75.994  1.00  0.00     0.010 C 
ENDROOT
BRANCH   1   2
ATOM      2  C   UNL     1      94.000  95.222  76.863  1.00  0.00     0.001 C 
BRANCH   2   3
ATOM      3  C   UNL     1      93.187  95.602  78.136  1.00  0.00     0.000 C 
BRANCH   3   4
ATOM      4  C   UNL     1      92.682  94.375  78.947  1.00  0.00    -0.000 C 
BRANCH   4   5
ATOM      5  C   UNL     1      91.178  94.068  78.695  1.00  0.00    -0.000 C 
BRANCH   5   6
ATOM      6  C   UNL     1      90.521  95.075  77.713  1.00  0.00    -0.003 C 
ATOM      7  C   UNL     1      89.801  94.381  76.535  1.00  0.00     0.004 C 
ENDBRANCH   5   6
ENDBRANCH   4   5
ENDBRANCH   3   4
ENDBRANCH   2   3
ENDBRANCH   1   2
BRANCH   1   8
ATOM      8  C   UNL     1      93.130  97.384  75.695  1.00  0.00     0.100 C 
BRANCH   8   9
ATOM      9  C   UNL     1      93.527  98.556  74.877  1.00  0.00     0.220 C 
ATOM     10  O   UNL     1      94.745  98.845  74.802  1.00  0.00    -0.275 OA
ATOM     11  N   UNL     1      92.587  99.279  74.200  1.00  0.00    -0.352 N 
ATOM     12  H   UNL     1      91.633  99.015  74.399  1.00  0.00     0.163 HD
BRANCH  11  13
ATOM     13  C   UNL     1      92.854 100.335  73.272  1.00  0.00     0.151 C 
BRANCH  13  14
ATOM     14  C   UNL     1      91.986 100.308  72.064  1.00  0.00    -0.025 A 
ATOM     15  C   UNL     1      90.939  99.361  71.961  1.00  0.00     0.056 A 
ATOM     16  C   UNL     1      92.190 101.219  71.002  1.00  0.00     0.009 A 
ATOM     17  C   UNL     1      90.095  99.335  70.827  1.00  0.00     0.160 A 
ATOM     18  C   UNL     1      91.354 101.198  69.872  1.00  0.00     0.050 A 
ATOM     19  C   UNL     1      90.312 100.255  69.777  1.00  0.00     0.157 A 
BRANCH  17  20
ATOM     20  O   UNL     1      89.108  98.389  70.709  1.00  0.00    -0.493 OA
ATOM     21  C   UNL     1      89.592  97.065  70.425  1.00  0.00     0.278 C 
ENDBRANCH  17  20
BRANCH  19  22
ATOM     22  O   UNL     1      89.527 100.226  68.670  1.00  0.00    -0.504 OA
ATOM     23  H   UNL     1      89.213  99.330  68.524  1.00  0.00     0.293 HD
ENDBRANCH  19  22
ENDBRANCH  13  14
ENDBRANCH  11  13
ENDBRANCH   8   9
ENDBRANCH   1   8
TORSDOF 11
ENDMDL
MODEL 3
REMARK VINA RESULT:    -5.207     25.539     27.372
REMARK INTER + INTRA:          -9.198
REMARK INTER:                  -7.859
REMARK INTRA:                  -1.339
REMARK UNBOUND:                -0.794
REMARK SMILES CCCCCCCCC(=O)NCc1ccc(O)c(OC)c1
REMARK SMILES IDX 7 1 6 2 5 3 4 4 3 5 2 6 1 7 8 8 9 9 10 10 11 11 12 13 13 14
REMARK SMILES IDX 21 15 14 16 18 17 15 18 16 19 19 20 20 21 17 22
REMARK H PARENT 11 12 17 23
REMARK Flexibility Score: inf
ROOT
ATOM      1  C   UNL     1     100.700  80.107  82.472  1.00  0.00     0.010 C 
ENDROOT
BRANCH   1   2
ATOM      2  C   UNL     1     101.020  81.570  82.052  1.00  0.00     0.001 C 
BRANCH   2   3
ATOM      3  C   UNL     1      99.770  82.495  82.139  1.00  0.00     0.000 C 
BRANCH   3   4
ATOM      4  C   UNL     1      98.484  81.767  82.623  1.00  0.00    -0.000 C 
BRANCH   4   5
ATOM      5  C   UNL     1      97.948  82.327  83.971  1.00  0.00    -0.000 C 
BRANCH   5   6
ATOM      6  C   UNL     1      97.461  83.797  83.854  1.00  0.00    -0.003 C 
ATOM      7  C   UNL     1      96.443  84.181  84.950  1.00  0.00     0.004 C 
ENDBRANCH   5   6
ENDBRANCH   4   5
ENDBRANCH   3   4
ENDBRANCH   2   3
ENDBRANCH   1   2
BRANCH   1   8
ATOM      8  C   UNL     1     100.955  79.060  81.352  1.00  0.00     0.100 C 
BRANCH   8   9
ATOM      9  C   UNL     1      99.886  79.097  80.325  1.00  0.00     0.220 C 
ATOM     10  O   UNL     1      98.811  78.497  80.562  1.00  0.00    -0.275 OA
ATOM     11  N   UNL     1     100.064  79.795  79.164  1.00  0.00    -0.352 N 
ATOM     12  H   UNL     1     100.994  80.166  79.038  1.00  0.00     0.163 HD
BRANCH  11  13
ATOM     13  C   UNL     1      99.065  80.023  78.165  1.00  0.00     0.151 C 
BRANCH  13  14
ATOM     14  C   UNL     1      98.672  81.450  78.022  1.00  0.00    -0.025 A 
ATOM     15  C   UNL     1      99.105  82.199  76.901  1.00  0.00     0.056 A 
ATOM     16  C   UNL     1      97.869  82.085  78.998  1.00  0.00     0.009 A 
ATOM     17  C   UNL     1      98.725  83.552  76.743  1.00  0.00     0.160 A 
ATOM     18  C   UNL     1      97.488  83.430  78.846  1.00  0.00     0.050 A 
ATOM     19  C   UNL     1      97.919  84.168  77.726  1.00  0.00     0.157 A 
BRANCH  17  20
ATOM     20  O   UNL     1      99.180  84.287  75.677  1.00  0.00    -0.493 OA
ATOM     21  C   UNL     1     100.606  84.240  75.495  1.00  0.00     0.278 C 
ENDBRANCH  17  20
BRANCH  19  22
ATOM     22  O   UNL     1      97.568  85.473  77.602  1.00  0.00    -0.504 OA
ATOM     23  H   UNL     1      96.658  85.533  77.304  1.00  0.00     0.293 HD
ENDBRANCH  19  22
ENDBRANCH  13  14
ENDBRANCH  11  13
ENDBRANCH   8   9
ENDBRANCH   1   8
TORSDOF 11
ENDMDL
MODEL 4
REMARK VINA RESULT:    -5.176     25.198     28.206
REMARK INTER + INTRA:          -9.147
REMARK INTER:                  -8.019
REMARK INTRA:                  -1.128
REMARK UNBOUND:                -0.794
REMARK SMILES CCCCCCCCC(=O)NCc1ccc(O)c(OC)c1
REMARK SMILES IDX 7 1 6 2 5 3 4 4 3 5 2 6 1 7 8 8 9 9 10 10 11 11 12 13 13 14
REMARK SMILES IDX 21 15 14 16 18 17 15 18 16 19 19 20 20 21 17 22
REMARK H PARENT 11 12 17 23
REMARK Flexibility Score: inf
ROOT
ATOM      1  C   UNL     1     104.521  81.367  78.435  1.00  0.00     0.010 C 
ENDROOT
BRANCH   1   2
ATOM      2  C   UNL     1     103.486  81.981  77.449  1.00  0.00     0.001 C 
BRANCH   2   3
ATOM      3  C   UNL     1     104.154  82.502  76.142  1.00  0.00     0.000 C 
BRANCH   3   4
ATOM      4  C   UNL     1     103.386  83.674  75.470  1.00  0.00    -0.000 C 
BRANCH   4   5
ATOM      5  C   UNL     1     102.115  84.092  76.263  1.00  0.00    -0.000 C 
BRANCH   5   6
ATOM      6  C   UNL     1     101.258  85.142  75.505  1.00  0.00    -0.003 C 
ATOM      7  C   UNL     1     101.654  85.280  74.019  1.00  0.00     0.004 C 
ENDBRANCH   5   6
ENDBRANCH   4   5
ENDBRANCH   3   4
ENDBRANCH   2   3
ENDBRANCH   1   2
BRANCH   1   8
ATOM      8  C   UNL     1     104.027  81.303  79.907  1.00  0.00     0.100 C 
BRANCH   8   9
ATOM      9  C   UNL     1     102.582  80.976  79.978  1.00  0.00     0.220 C 
ATOM     10  O   UNL     1     102.221  79.813  79.680  1.00  0.00    -0.275 OA
ATOM     11  N   UNL     1     101.678  81.914  80.385  1.00  0.00    -0.352 N 
ATOM     12  H   UNL     1     102.064  82.837  80.516  1.00  0.00     0.163 HD
BRANCH  11  13
ATOM     13  C   UNL     1     100.286  81.683  80.629  1.00  0.00     0.151 C 
BRANCH  13  14
ATOM     14  C   UNL     1      99.389  82.290  79.610  1.00  0.00    -0.025 A 
ATOM     15  C   UNL     1      99.620  82.063  78.232  1.00  0.00     0.056 A 
ATOM     16  C   UNL     1      98.297  83.102  79.995  1.00  0.00     0.009 A 
ATOM     17  C   UNL     1      98.764  82.620  77.253  1.00  0.00     0.160 A 
ATOM     18  C   UNL     1      97.442  83.657  79.026  1.00  0.00     0.050 A 
ATOM     19  C   UNL     1      97.676  83.426  77.657  1.00  0.00     0.157 A 
BRANCH  17  20
ATOM     20  O   UNL     1      99.014  82.434  75.916  1.00  0.00    -0.493 OA
ATOM     21  C   UNL     1      98.614  81.146  75.416  1.00  0.00     0.278 C 
ENDBRANCH  17  20
BRANCH  19  22
ATOM     22  O   UNL     1      96.862  83.988  76.728  1.00  0.00    -0.504 OA
ATOM     23  H   UNL     1      97.103  84.910  76.607  1.00  0.00     0.293 HD
ENDBRANCH  19  22
ENDBRANCH  13  14
ENDBRANCH  11  13
ENDBRANCH   8   9
ENDBRANCH   1   8
TORSDOF 11
ENDMDL
MODEL 5
REMARK VINA RESULT:    -5.149     22.147     24.271
REMARK INTER + INTRA:          -9.104
REMARK INTER:                  -7.262
REMARK INTRA:                  -1.842
REMARK UNBOUND:                -0.794
REMARK SMILES CCCCCCCCC(=O)NCc1ccc(O)c(OC)c1
REMARK SMILES IDX 7 1 6 2 5 3 4 4 3 5 2 6 1 7 8 8 9 9 10 10 11 11 12 13 13 14
REMARK SMILES IDX 21 15 14 16 18 17 15 18 16 19 19 20 20 21 17 22
REMARK H PARENT 11 12 17 23
REMARK Flexibility Score: inf
ROOT
ATOM      1  C   UNL     1      65.750  65.547  80.261  1.00  0.00     0.010 C 
ENDROOT
BRANCH   1   2
ATOM      2  C   UNL     1      64.506  64.635  80.058  1.00  0.00     0.001 C 
BRANCH   2   3
ATOM      3  C   UNL     1      63.681  65.036  78.799  1.00  0.00     0.000 C 
BRANCH   3   4
ATOM      4  C   UNL     1      62.157  65.185  79.069  1.00  0.00    -0.000 C 
BRANCH   4   5
ATOM      5  C   UNL     1      61.852  65.775  80.475  1.00  0.00    -0.000 C 
BRANCH   5   6
ATOM      6  C   UNL     1      62.167  67.292  80.567  1.00  0.00    -0.003 C 
ATOM      7  C   UNL     1      62.380  67.775  82.018  1.00  0.00     0.004 C 
ENDBRANCH   5   6
ENDBRANCH   4   5
ENDBRANCH   3   4
ENDBRANCH   2   3
ENDBRANCH   1   2
BRANCH   1   8
ATOM      8  C   UNL     1      65.852  66.710  79.235  1.00  0.00     0.100 C 
BRANCH   8   9
ATOM      9  C   UNL     1      65.776  68.030  79.906  1.00  0.00     0.220 C 
ATOM     10  O   UNL     1      66.318  68.158  81.030  1.00  0.00    -0.275 OA
ATOM     11  N   UNL     1      65.156  69.084  79.298  1.00  0.00    -0.352 N 
ATOM     12  H   UNL     1      64.681  68.849  78.439  1.00  0.00     0.163 HD
BRANCH  11  13
ATOM     13  C   UNL     1      65.139  70.433  79.775  1.00  0.00     0.151 C 
BRANCH  13  14
ATOM     14  C   UNL     1      63.873  70.814  80.456  1.00  0.00    -0.025 A 
ATOM     15  C   UNL     1      63.886  71.210  81.814  1.00  0.00     0.056 A 
ATOM     16  C   UNL     1      62.639  70.784  79.765  1.00  0.00     0.009 A 
ATOM     17  C   UNL     1      62.693  71.591  82.470  1.00  0.00     0.160 A 
ATOM     18  C   UNL     1      61.449  71.164  80.411  1.00  0.00     0.050 A 
ATOM     19  C   UNL     1      61.470  71.560  81.762  1.00  0.00     0.157 A 
BRANCH  17  20
ATOM     20  O   UNL     1      62.701  71.934  83.798  1.00  0.00    -0.493 OA
ATOM     21  C   UNL     1      63.019  70.847  84.685  1.00  0.00     0.278 C 
ENDBRANCH  17  20
BRANCH  19  22
ATOM     22  O   UNL     1      60.312  71.898  82.385  1.00  0.00    -0.504 OA
ATOM     23  H   UNL     1      60.510  72.402  83.177  1.00  0.00     0.293 HD
ENDBRANCH  19  22
ENDBRANCH  13  14
ENDBRANCH  11  13
ENDBRANCH   8   9
ENDBRANCH   1   8
TORSDOF 11
ENDMDL
MODEL 6
REMARK VINA RESULT:    -5.146     25.870     27.512
REMARK INTER + INTRA:          -9.098
REMARK INTER:                  -8.521
REMARK INTRA:                  -0.577
REMARK UNBOUND:                -0.794
REMARK SMILES CCCCCCCCC(=O)NCc1ccc(O)c(OC)c1
REMARK SMILES IDX 7 1 6 2 5 3 4 4 3 5 2 6 1 7 8 8 9 9 10 10 11 11 12 13 13 14
REMARK SMILES IDX 21 15 14 16 18 17 15 18 16 19 19 20 20 21 17 22
REMARK H PARENT 11 12 17 23
REMARK Flexibility Score: inf
ROOT
ATOM      1  C   UNL     1      98.078  83.203  81.720  1.00  0.00     0.010 C 
ENDROOT
BRANCH   1   2
ATOM      2  C   UNL     1      98.584  82.650  83.084  1.00  0.00     0.001 C 
BRANCH   2   3
ATOM      3  C   UNL     1      97.449  82.577  84.147  1.00  0.00     0.000 C 
BRANCH   3   4
ATOM      4  C   UNL     1      97.925  82.887  85.594  1.00  0.00    -0.000 C 
BRANCH   4   5
ATOM      5  C   UNL     1      98.357  84.370  85.779  1.00  0.00    -0.000 C 
BRANCH   5   6
ATOM      6  C   UNL     1      97.310  85.370  85.217  1.00  0.00    -0.003 C 
ATOM      7  C   UNL     1      96.047  85.475  86.100  1.00  0.00     0.004 C 
ENDBRANCH   5   6
ENDBRANCH   4   5
ENDBRANCH   3   4
ENDBRANCH   2   3
ENDBRANCH   1   2
BRANCH   1   8
ATOM      8  C   UNL     1      99.141  83.151  80.587  1.00  0.00     0.100 C 
BRANCH   8   9
ATOM      9  C   UNL     1      98.513  83.286  79.251  1.00  0.00     0.220 C 
ATOM     10  O   UNL     1      97.264  83.196  79.169  1.00  0.00    -0.275 OA
ATOM     11  N   UNL     1      99.277  83.530  78.146  1.00  0.00    -0.352 N 
ATOM     12  H   UNL     1     100.272  83.496  78.311  1.00  0.00     0.163 HD
BRANCH  11  13
ATOM     13  C   UNL     1      98.782  83.818  76.834  1.00  0.00     0.151 C 
BRANCH  13  14
ATOM     14  C   UNL     1      99.848  83.962  75.807  1.00  0.00    -0.025 A 
ATOM     15  C   UNL     1     100.567  82.827  75.362  1.00  0.00     0.056 A 
ATOM     16  C   UNL     1     100.166  85.227  75.263  1.00  0.00     0.009 A 
ATOM     17  C   UNL     1     101.571  82.946  74.374  1.00  0.00     0.160 A 
ATOM     18  C   UNL     1     101.163  85.353  74.279  1.00  0.00     0.050 A 
ATOM     19  C   UNL     1     101.872  84.218  73.838  1.00  0.00     0.157 A 
BRANCH  17  20
ATOM     20  O   UNL     1     102.295  81.851  73.974  1.00  0.00    -0.493 OA
ATOM     21  C   UNL     1     102.256  80.750  74.899  1.00  0.00     0.278 C 
ENDBRANCH  17  20
BRANCH  19  22
ATOM     22  O   UNL     1     102.851  84.353  72.908  1.00  0.00    -0.504 OA
ATOM     23  H   UNL     1     103.644  83.904  73.211  1.00  0.00     0.293 HD
ENDBRANCH  19  22
ENDBRANCH  13  14
ENDBRANCH  11  13
ENDBRANCH   8   9
ENDBRANCH   1   8
TORSDOF 11
ENDMDL
MODEL 7
REMARK VINA RESULT:    -5.034      2.579      3.631
REMARK INTER + INTRA:          -8.917
REMARK INTER:                  -7.533
REMARK INTRA:                  -1.384
REMARK UNBOUND:                -0.794
REMARK SMILES CCCCCCCCC(=O)NCc1ccc(O)c(OC)c1
REMARK SMILES IDX 7 1 6 2 5 3 4 4 3 5 2 6 1 7 8 8 9 9 10 10 11 11 12 13 13 14
REMARK SMILES IDX 21 15 14 16 18 17 15 18 16 19 19 20 20 21 17 22
REMARK H PARENT 11 12 17 23
REMARK Flexibility Score: inf
ROOT
ATOM      1  C   UNL     1      76.338  86.931  67.186  1.00  0.00     0.010 C 
ENDROOT
BRANCH   1   2
ATOM      2  C   UNL     1      76.088  88.453  66.984  1.00  0.00     0.001 C 
BRANCH   2   3
ATOM      3  C   UNL     1      74.836  88.732  66.101  1.00  0.00     0.000 C 
BRANCH   3   4
ATOM      4  C   UNL     1      74.620  87.686  64.970  1.00  0.00    -0.000 C 
BRANCH   4   5
ATOM      5  C   UNL     1      75.741  87.727  63.893  1.00  0.00    -0.000 C 
BRANCH   5   6
ATOM      6  C   UNL     1      76.040  86.328  63.291  1.00  0.00    -0.003 C 
ATOM      7  C   UNL     1      75.123  85.222  63.857  1.00  0.00     0.004 C 
ENDBRANCH   5   6
ENDBRANCH   4   5
ENDBRANCH   3   4
ENDBRANCH   2   3
ENDBRANCH   1   2
BRANCH   1   8
ATOM      8  C   UNL     1      77.842  86.547  67.275  1.00  0.00     0.100 C 
BRANCH   8   9
ATOM      9  C   UNL     1      78.021  85.077  67.334  1.00  0.00     0.220 C 
ATOM     10  O   UNL     1      78.641  84.591  68.310  1.00  0.00    -0.275 OA
ATOM     11  N   UNL     1      77.496  84.275  66.361  1.00  0.00    -0.352 N 
ATOM     12  H   UNL     1      77.095  84.773  65.581  1.00  0.00     0.163 HD
BRANCH  11  13
ATOM     13  C   UNL     1      77.479  82.844  66.377  1.00  0.00     0.151 C 
BRANCH  13  14
ATOM     14  C   UNL     1      76.248  82.251  65.790  1.00  0.00    -0.025 A 
ATOM     15  C   UNL     1      74.992  82.457  66.411  1.00  0.00     0.056 A 
ATOM     16  C   UNL     1      76.307  81.472  64.611  1.00  0.00     0.009 A 
ATOM     17  C   UNL     1      73.811  81.914  65.855  1.00  0.00     0.160 A 
ATOM     18  C   UNL     1      75.135  80.930  64.053  1.00  0.00     0.050 A 
ATOM     19  C   UNL     1      73.889  81.142  64.674  1.00  0.00     0.157 A 
BRANCH  17  20
ATOM     20  O   UNL     1      72.601  82.080  66.480  1.00  0.00    -0.493 OA
ATOM     21  C   UNL     1      72.227  83.453  66.685  1.00  0.00     0.278 C 
ENDBRANCH  17  20
BRANCH  19  22
ATOM     22  O   UNL     1      72.768  80.592  64.142  1.00  0.00    -0.504 OA
ATOM     23  H   UNL     1      72.432  79.914  64.734  1.00  0.00     0.293 HD
ENDBRANCH  19  22
ENDBRANCH  13  14
ENDBRANCH  11  13
ENDBRANCH   8   9
ENDBRANCH   1   8
TORSDOF 11
ENDMDL
MODEL 8
REMARK VINA RESULT:    -4.892     27.974     30.320
REMARK INTER + INTRA:          -8.689
REMARK INTER:                  -7.920
REMARK INTRA:                  -0.769
REMARK UNBOUND:                -0.794
REMARK SMILES CCCCCCCCC(=O)NCc1ccc(O)c(OC)c1
REMARK SMILES IDX 7 1 6 2 5 3 4 4 3 5 2 6 1 7 8 8 9 9 10 10 11 11 12 13 13 14
REMARK SMILES IDX 21 15 14 16 18 17 15 18 16 19 19 20 20 21 17 22
REMARK H PARENT 11 12 17 23
REMARK Flexibility Score: inf
ROOT
ATOM      1  C   UNL     1      93.068  84.325  87.805  1.00  0.00     0.010 C 
ENDROOT
BRANCH   1   2
ATOM      2  C   UNL     1      94.562  83.917  87.657  1.00  0.00     0.001 C 
BRANCH   2   3
ATOM      3  C   UNL     1      94.784  82.900  86.499  1.00  0.00     0.000 C 
BRANCH   3   4
ATOM      4  C   UNL     1      96.213  82.287  86.468  1.00  0.00    -0.000 C 
BRANCH   4   5
ATOM      5  C   UNL     1      97.026  82.725  85.217  1.00  0.00    -0.000 C 
BRANCH   5   6
ATOM      6  C   UNL     1      96.590  84.114  84.678  1.00  0.00    -0.003 C 
ATOM      7  C   UNL     1      97.468  85.267  85.211  1.00  0.00     0.004 C 
ENDBRANCH   5   6
ENDBRANCH   4   5
ENDBRANCH   3   4
ENDBRANCH   2   3
ENDBRANCH   1   2
BRANCH   1   8
ATOM      8  C   UNL     1      92.445  83.949  89.178  1.00  0.00     0.100 C 
BRANCH   8   9
ATOM      9  C   UNL     1      92.275  85.144  90.039  1.00  0.00     0.220 C 
ATOM     10  O   UNL     1      91.110  85.510  90.325  1.00  0.00    -0.275 OA
ATOM     11  N   UNL     1      93.364  85.807  90.529  1.00  0.00    -0.352 N 
ATOM     12  H   UNL     1      94.249  85.482  90.167  1.00  0.00     0.163 HD
BRANCH  11  13
ATOM     13  C   UNL     1      93.333  86.879  91.476  1.00  0.00     0.151 C 
BRANCH  13  14
ATOM     14  C   UNL     1      93.871  88.162  90.949  1.00  0.00    -0.025 A 
ATOM     15  C   UNL     1      93.367  89.395  91.428  1.00  0.00     0.056 A 
ATOM     16  C   UNL     1      94.886  88.176  89.965  1.00  0.00     0.009 A 
ATOM     17  C   UNL     1      93.881  90.623  90.950  1.00  0.00     0.160 A 
ATOM     18  C   UNL     1      95.401  89.393  89.486  1.00  0.00     0.050 A 
ATOM     19  C   UNL     1      94.898  90.616  89.968  1.00  0.00     0.157 A 
BRANCH  17  20
ATOM     20  O   UNL     1      93.362  91.817  91.384  1.00  0.00    -0.493 OA
ATOM     21  C   UNL     1      92.195  91.684  92.214  1.00  0.00     0.278 C 
ENDBRANCH  17  20
BRANCH  19  22
ATOM     22  O   UNL     1      95.383  91.786  89.480  1.00  0.00    -0.504 OA
ATOM     23  H   UNL     1      94.736  92.178  88.888  1.00  0.00     0.293 HD
ENDBRANCH  19  22
ENDBRANCH  13  14
ENDBRANCH  11  13
ENDBRANCH   8   9
ENDBRANCH   1   8
TORSDOF 11
ENDMDL
MODEL 9
REMARK VINA RESULT:    -4.822     25.958     29.057
REMARK INTER + INTRA:          -8.576
REMARK INTER:                  -7.086
REMARK INTRA:                  -1.490
REMARK UNBOUND:                -0.794
REMARK SMILES CCCCCCCCC(=O)NCc1ccc(O)c(OC)c1
REMARK SMILES IDX 7 1 6 2 5 3 4 4 3 5 2 6 1 7 8 8 9 9 10 10 11 11 12 13 13 14
REMARK SMILES IDX 21 15 14 16 18 17 15 18 16 19 19 20 20 21 17 22
REMARK H PARENT 11 12 17 23
REMARK Flexibility Score: inf
ROOT
ATOM      1  C   UNL     1     103.762  81.387  80.679  1.00  0.00     0.010 C 
ENDROOT
BRANCH   1   2
ATOM      2  C   UNL     1     104.961  80.815  79.871  1.00  0.00     0.001 C 
BRANCH   2   3
ATOM      3  C   UNL     1     105.052  81.423  78.441  1.00  0.00     0.000 C 
BRANCH   3   4
ATOM      4  C   UNL     1     105.035  80.360  77.305  1.00  0.00    -0.000 C 
BRANCH   4   5
ATOM      5  C   UNL     1     103.765  80.455  76.414  1.00  0.00    -0.000 C 
BRANCH   5   6
ATOM      6  C   UNL     1     102.514  80.922  77.206  1.00  0.00    -0.003 C 
ATOM      7  C   UNL     1     101.744  79.752  77.857  1.00  0.00     0.004 C 
ENDBRANCH   5   6
ENDBRANCH   4   5
ENDBRANCH   3   4
ENDBRANCH   2   3
ENDBRANCH   1   2
BRANCH   1   8
ATOM      8  C   UNL     1     102.952  80.309  81.453  1.00  0.00     0.100 C 
BRANCH   8   9
ATOM      9  C   UNL     1     101.530  80.702  81.598  1.00  0.00     0.220 C 
ATOM     10  O   UNL     1     100.708  79.834  81.978  1.00  0.00    -0.275 OA
ATOM     11  N   UNL     1     101.136  81.986  81.350  1.00  0.00    -0.352 N 
ATOM     12  H   UNL     1     101.859  82.578  80.967  1.00  0.00     0.163 HD
BRANCH  11  13
ATOM     13  C   UNL     1      99.830  82.520  81.587  1.00  0.00     0.151 C 
BRANCH  13  14
ATOM     14  C   UNL     1      99.093  82.881  80.346  1.00  0.00    -0.025 A 
ATOM     15  C   UNL     1      99.738  82.806  79.088  1.00  0.00     0.056 A 
ATOM     16  C   UNL     1      97.746  83.305  80.398  1.00  0.00     0.009 A 
ATOM     17  C   UNL     1      99.045  83.129  77.898  1.00  0.00     0.160 A 
ATOM     18  C   UNL     1      97.051  83.627  79.219  1.00  0.00     0.050 A 
ATOM     19  C   UNL     1      97.697  83.548  77.970  1.00  0.00     0.157 A 
BRANCH  17  20
ATOM     20  O   UNL     1      99.684  83.097  76.684  1.00  0.00    -0.493 OA
ATOM     21  C   UNL     1     100.692  84.110  76.523  1.00  0.00     0.278 C 
ENDBRANCH  17  20
BRANCH  19  22
ATOM     22  O   UNL     1      97.027  83.887  76.840  1.00  0.00    -0.504 OA
ATOM     23  H   UNL     1      96.473  84.652  77.014  1.00  0.00     0.293 HD
ENDBRANCH  19  22
ENDBRANCH  13  14
ENDBRANCH  11  13
ENDBRANCH   8   9
ENDBRANCH   1   8
TORSDOF 11
ENDMDL
MODEL 10
REMARK VINA RESULT:    -4.816     12.622     15.276
REMARK INTER + INTRA:          -8.566
REMARK INTER:                  -7.116
REMARK INTRA:                  -1.450
REMARK UNBOUND:                -0.794
REMARK SMILES CCCCCCCCC(=O)NCc1ccc(O)c(OC)c1
REMARK SMILES IDX 7 1 6 2 5 3 4 4 3 5 2 6 1 7 8 8 9 9 10 10 11 11 12 13 13 14
REMARK SMILES IDX 21 15 14 16 18 17 15 18 16 19 19 20 20 21 17 22
REMARK H PARENT 11 12 17 23
REMARK Flexibility Score: inf
ROOT
ATOM      1  C   UNL     1      64.031  82.301  73.011  1.00  0.00     0.010 C 
ENDROOT
BRANCH   1   2
ATOM      2  C   UNL     1      64.415  81.370  71.825  1.00  0.00     0.001 C 
BRANCH   2   3
ATOM      3  C   UNL     1      64.366  82.111  70.455  1.00  0.00     0.000 C 
BRANCH   3   4
ATOM      4  C   UNL     1      63.122  81.754  69.594  1.00  0.00    -0.000 C 
BRANCH   4   5
ATOM      5  C   UNL     1      63.097  82.509  68.235  1.00  0.00    -0.000 C 
BRANCH   5   6
ATOM      6  C   UNL     1      64.286  83.495  68.078  1.00  0.00    -0.003 C 
ATOM      7  C   UNL     1      64.171  84.380  66.818  1.00  0.00     0.004 C 
ENDBRANCH   5   6
ENDBRANCH   4   5
ENDBRANCH   3   4
ENDBRANCH   2   3
ENDBRANCH   1   2
BRANCH   1   8
ATOM      8  C   UNL     1      62.772  81.835  73.794  1.00  0.00     0.100 C 
BRANCH   8   9
ATOM      9  C   UNL     1      61.753  82.910  73.866  1.00  0.00     0.220 C 
ATOM     10  O   UNL     1      61.637  83.550  74.938  1.00  0.00    -0.275 OA
ATOM     11  N   UNL     1      60.983  83.210  72.778  1.00  0.00    -0.352 N 
ATOM     12  H   UNL     1      61.098  82.578  71.999  1.00  0.00     0.163 HD
BRANCH  11  13
ATOM     13  C   UNL     1      60.072  84.308  72.677  1.00  0.00     0.151 C 
BRANCH  13  14
ATOM     14  C   UNL     1      60.343  85.211  71.526  1.00  0.00    -0.025 A 
ATOM     15  C   UNL     1      59.628  86.424  71.389  1.00  0.00     0.056 A 
ATOM     16  C   UNL     1      61.312  84.875  70.552  1.00  0.00     0.009 A 
ATOM     17  C   UNL     1      59.887  87.300  70.310  1.00  0.00     0.160 A 
ATOM     18  C   UNL     1      61.575  85.743  69.477  1.00  0.00     0.050 A 
ATOM     19  C   UNL     1      60.862  86.950  69.348  1.00  0.00     0.157 A 
BRANCH  17  20
ATOM     20  O   UNL     1      59.163  88.456  70.155  1.00  0.00    -0.493 OA
ATOM     21  C   UNL     1      57.808  88.248  69.719  1.00  0.00     0.278 C 
ENDBRANCH  17  20
BRANCH  19  22
ATOM     22  O   UNL     1      61.104  87.768  68.292  1.00  0.00    -0.504 OA
ATOM     23  H   UNL     1      60.457  87.600  67.602  1.00  0.00     0.293 HD
ENDBRANCH  19  22
ENDBRANCH  13  14
ENDBRANCH  11  13
ENDBRANCH   8   9
ENDBRANCH   1   8
TORSDOF 11
ENDMDL
