MODEL 1
REMARK VINA RESULT:    -6.670      0.000      0.000
REMARK INTER + INTRA:         -11.756
REMARK INTER:                 -10.374
REMARK INTRA:                  -1.382
REMARK UNBOUND:                -1.382
REMARK SMILES CCCCC/C=C/C(=O)CCc1ccc(O)c(OC)c1
REMARK SMILES IDX 6 1 7 2 8 3 9 4 10 5 11 6 12 7 17 8 20 9 15 10 14 11 13 12
REMARK SMILES IDX 18 13 19 14 16 15 5 17 4 18 3 19 2 20 1 21
REMARK H PARENT 16 16
REMARK Flexibility Score: inf
ROOT
ATOM      1  C   UNL     1      89.035  90.223  75.277  1.00  0.00    -0.023 C 
ATOM      2  C   UNL     1      90.154  90.311  76.006  1.00  0.00     0.043 C 
ENDROOT
BRANCH   2   3
ATOM      3  C   UNL     1      90.067  90.445  77.486  1.00  0.00     0.155 C 
ATOM      4  O   UNL     1      89.490  89.610  78.179  1.00  0.00    -0.295 OA
BRANCH   3   5
ATOM      5  C   UNL     1      90.681  91.692  78.090  1.00  0.00     0.085 C 
BRANCH   5   6
ATOM      6  C   UNL     1      90.437  92.916  77.205  1.00  0.00     0.044 C 
BRANCH   6   7
ATOM      7  C   UNL     1      91.716  93.541  76.701  1.00  0.00    -0.044 A 
ATOM      8  C   UNL     1      94.040  94.050  77.017  1.00  0.00     0.160 A 
ATOM      9  C   UNL     1      92.859  93.473  77.483  1.00  0.00     0.054 A 
ATOM     10  C   UNL     1      94.064  94.687  75.777  1.00  0.00     0.157 A 
ATOM     11  C   UNL     1      92.905  94.748  75.001  1.00  0.00     0.050 A 
ATOM     12  C   UNL     1      91.724  94.171  75.467  1.00  0.00     0.008 A 
BRANCH   8  13
ATOM     13  O   UNL     1      95.165  93.985  77.783  1.00  0.00    -0.493 OA
ATOM     14  C   UNL     1      95.154  94.707  79.013  1.00  0.00     0.278 C 
ENDBRANCH   8  13
BRANCH  10  15
ATOM     15  O   UNL     1      95.212  95.254  75.311  1.00  0.00    -0.504 OA
ATOM     16  H   UNL     1      94.994  95.780  74.522  1.00  0.00     0.293 HD
ENDBRANCH  10  15
ENDBRANCH   6   7
ENDBRANCH   5   6
ENDBRANCH   3   5
ENDBRANCH   2   3
BRANCH   1  17
ATOM     17  C   UNL     1      89.039  90.087  73.782  1.00  0.00     0.027 C 
BRANCH  17  18
ATOM     18  C   UNL     1      90.440  90.192  73.171  1.00  0.00     0.004 C 
BRANCH  18  19
ATOM     19  C   UNL     1      90.876  91.632  72.878  1.00  0.00     0.000 C 
BRANCH  19  20
ATOM     20  C   UNL     1      89.816  92.373  72.061  1.00  0.00    -0.003 C 
ATOM     21  C   UNL     1      89.444  93.699  72.705  1.00  0.00     0.004 C 
ENDBRANCH  19  20
ENDBRANCH  18  19
ENDBRANCH  17  18
ENDBRANCH   1  17
TORSDOF 10
ENDMDL
MODEL 2
REMARK VINA RESULT:    -6.594      2.357      6.100
REMARK INTER + INTRA:         -11.638
REMARK INTER:                 -10.665
REMARK INTRA:                  -0.973
REMARK UNBOUND:                -1.382
REMARK SMILES CCCCC/C=C/C(=O)CCc1ccc(O)c(OC)c1
REMARK SMILES IDX 6 1 7 2 8 3 9 4 10 5 11 6 12 7 17 8 20 9 15 10 14 11 13 12
REMARK SMILES IDX 18 13 19 14 16 15 5 17 4 18 3 19 2 20 1 21
REMARK H PARENT 16 16
REMARK Flexibility Score: inf
ROOT
ATOM      1  C   UNL     1      91.339  92.202  77.321  1.00  0.00    -0.023 C 
ATOM      2  C   UNL     1      91.612  93.500  77.140  1.00  0.00     0.043 C 
ENDROOT
BRANCH   2   3
ATOM      3  C   UNL     1      92.796  93.903  76.334  1.00  0.00     0.155 C 
ATOM      4  O   UNL     1      93.854  94.243  76.859  1.00  0.00    -0.295 OA
BRANCH   3   5
ATOM      5  C   UNL     1      92.613  93.925  74.829  1.00  0.00     0.085 C 
BRANCH   5   6
ATOM      6  C   UNL     1      92.403  92.515  74.274  1.00  0.00     0.044 C 
BRANCH   6   7
ATOM      7  C   UNL     1      91.034  92.320  73.667  1.00  0.00    -0.044 A 
ATOM      8  C   UNL     1      89.170  90.894  73.170  1.00  0.00     0.160 A 
ATOM      9  C   UNL     1      90.434  91.073  73.731  1.00  0.00     0.054 A 
ATOM     10  C   UNL     1      88.522  91.963  72.552  1.00  0.00     0.157 A 
ATOM     11  C   UNL     1      89.140  93.213  72.494  1.00  0.00     0.050 A 
ATOM     12  C   UNL     1      90.405  93.392  73.056  1.00  0.00     0.008 A 
BRANCH   8  13
ATOM     13  O   UNL     1      88.577  89.668  73.232  1.00  0.00    -0.493 OA
ATOM     14  C   UNL     1      88.820  88.889  74.402  1.00  0.00     0.278 C 
ENDBRANCH   8  13
BRANCH  10  15
ATOM     15  O   UNL     1      87.287  91.801  72.001  1.00  0.00    -0.504 OA
ATOM     16  H   UNL     1      86.721  92.532  72.301  1.00  0.00     0.293 HD
ENDBRANCH  10  15
ENDBRANCH   6   7
ENDBRANCH   5   6
ENDBRANCH   3   5
ENDBRANCH   2   3
BRANCH   1  17
ATOM     17  C   UNL     1      90.167  91.713  78.121  1.00  0.00     0.027 C 
BRANCH  17  18
ATOM     18  C   UNL     1      89.629  90.362  77.637  1.00  0.00     0.004 C 
BRANCH  18  19
ATOM     19  C   UNL     1      89.819  89.228  78.649  1.00  0.00     0.000 C 
BRANCH  19  20
ATOM     20  C   UNL     1      89.821  87.865  77.956  1.00  0.00    -0.003 C 
ATOM     21  C   UNL     1      90.932  87.767  76.923  1.00  0.00     0.004 C 
ENDBRANCH  19  20
ENDBRANCH  18  19
ENDBRANCH  17  18
ENDBRANCH   1  17
TORSDOF 10
ENDMDL
MODEL 3
REMARK VINA RESULT:    -6.449      2.042      6.214
REMARK INTER + INTRA:         -11.413
REMARK INTER:                 -10.249
REMARK INTRA:                  -1.164
REMARK UNBOUND:                -1.382
REMARK SMILES CCCCC/C=C/C(=O)CCc1ccc(O)c(OC)c1
REMARK SMILES IDX 6 1 7 2 8 3 9 4 10 5 11 6 12 7 17 8 20 9 15 10 14 11 13 12
REMARK SMILES IDX 18 13 19 14 16 15 5 17 4 18 3 19 2 20 1 21
REMARK H PARENT 16 16
REMARK Flexibility Score: inf
ROOT
ATOM      1  C   UNL     1      91.335  92.268  77.587  1.00  0.00    -0.023 C 
ATOM      2  C   UNL     1      91.416  93.477  77.019  1.00  0.00     0.043 C 
ENDROOT
BRANCH   2   3
ATOM      3  C   UNL     1      92.714  93.952  76.468  1.00  0.00     0.155 C 
ATOM      4  O   UNL     1      93.501  94.615  77.141  1.00  0.00    -0.295 OA
BRANCH   3   5
ATOM      5  C   UNL     1      92.994  93.622  75.015  1.00  0.00     0.085 C 
BRANCH   5   6
ATOM      6  C   UNL     1      91.700  93.559  74.201  1.00  0.00     0.044 C 
BRANCH   6   7
ATOM      7  C   UNL     1      91.082  92.181  74.185  1.00  0.00    -0.044 A 
ATOM      8  C   UNL     1      89.139  90.781  74.043  1.00  0.00     0.160 A 
ATOM      9  C   UNL     1      89.709  92.054  74.058  1.00  0.00     0.054 A 
ATOM     10  C   UNL     1      89.949  89.652  74.157  1.00  0.00     0.157 A 
ATOM     11  C   UNL     1      91.331  89.796  74.285  1.00  0.00     0.050 A 
ATOM     12  C   UNL     1      91.901  91.070  74.299  1.00  0.00     0.008 A 
BRANCH   8  13
ATOM     13  O   UNL     1      87.788  90.654  73.918  1.00  0.00    -0.493 OA
ATOM     14  C   UNL     1      87.248  90.733  72.600  1.00  0.00     0.278 C 
ENDBRANCH   8  13
BRANCH  10  15
ATOM     15  O   UNL     1      89.404  88.404  74.143  1.00  0.00    -0.504 OA
ATOM     16  H   UNL     1      89.096  88.196  75.042  1.00  0.00     0.293 HD
ENDBRANCH  10  15
ENDBRANCH   6   7
ENDBRANCH   5   6
ENDBRANCH   3   5
ENDBRANCH   2   3
BRANCH   1  17
ATOM     17  C   UNL     1      90.064  91.717  78.166  1.00  0.00     0.027 C 
BRANCH  17  18
ATOM     18  C   UNL     1      90.293  90.867  79.420  1.00  0.00     0.004 C 
BRANCH  18  19
ATOM     19  C   UNL     1      89.886  89.400  79.251  1.00  0.00     0.000 C 
BRANCH  19  20
ATOM     20  C   UNL     1      89.681  89.051  77.776  1.00  0.00    -0.003 C 
ATOM     21  C   UNL     1      90.313  87.713  77.428  1.00  0.00     0.004 C 
ENDBRANCH  19  20
ENDBRANCH  18  19
ENDBRANCH  17  18
ENDBRANCH   1  17
TORSDOF 10
ENDMDL
MODEL 4
REMARK VINA RESULT:    -6.222      2.912      5.822
REMARK INTER + INTRA:         -11.058
REMARK INTER:                 -10.179
REMARK INTRA:                  -0.879
REMARK UNBOUND:                -1.382
REMARK SMILES CCCCC/C=C/C(=O)CCc1ccc(O)c(OC)c1
REMARK SMILES IDX 6 1 7 2 8 3 9 4 10 5 11 6 12 7 17 8 20 9 15 10 14 11 13 12
REMARK SMILES IDX 18 13 19 14 16 15 5 17 4 18 3 19 2 20 1 21
REMARK H PARENT 16 16
REMARK Flexibility Score: inf
ROOT
ATOM      1  C   UNL     1      92.938  93.778  75.464  1.00  0.00    -0.023 C 
ATOM      2  C   UNL     1      93.726  94.822  75.179  1.00  0.00     0.043 C 
ENDROOT
BRANCH   2   3
ATOM      3  C   UNL     1      95.185  94.749  75.462  1.00  0.00     0.155 C 
ATOM      4  O   UNL     1      95.859  93.770  75.147  1.00  0.00    -0.295 OA
BRANCH   3   5
ATOM      5  C   UNL     1      95.789  95.923  76.207  1.00  0.00     0.085 C 
BRANCH   5   6
ATOM      6  C   UNL     1      96.886  95.465  77.169  1.00  0.00     0.044 C 
BRANCH   6   7
ATOM      7  C   UNL     1      96.384  95.265  78.580  1.00  0.00    -0.044 A 
ATOM      8  C   UNL     1      96.008  96.124  80.789  1.00  0.00     0.160 A 
ATOM      9  C   UNL     1      96.473  96.309  79.486  1.00  0.00     0.054 A 
ATOM     10  C   UNL     1      95.463  94.898  81.168  1.00  0.00     0.157 A 
ATOM     11  C   UNL     1      95.381  93.856  80.243  1.00  0.00     0.050 A 
ATOM     12  C   UNL     1      95.845  94.041  78.940  1.00  0.00     0.008 A 
BRANCH   8  13
ATOM     13  O   UNL     1      96.094  97.149  81.682  1.00  0.00    -0.493 OA
ATOM     14  C   UNL     1      96.492  98.421  81.174  1.00  0.00     0.278 C 
ENDBRANCH   8  13
BRANCH  10  15
ATOM     15  O   UNL     1      95.006  94.705  82.436  1.00  0.00    -0.504 OA
ATOM     16  H   UNL     1      94.749  93.771  82.529  1.00  0.00     0.293 HD
ENDBRANCH  10  15
ENDBRANCH   6   7
ENDBRANCH   5   6
ENDBRANCH   3   5
ENDBRANCH   2   3
BRANCH   1  17
ATOM     17  C   UNL     1      91.458  93.773  75.210  1.00  0.00     0.027 C 
BRANCH  17  18
ATOM     18  C   UNL     1      90.639  94.246  76.416  1.00  0.00     0.004 C 
BRANCH  18  19
ATOM     19  C   UNL     1      89.753  93.154  77.023  1.00  0.00     0.000 C 
BRANCH  19  20
ATOM     20  C   UNL     1      90.574  92.188  77.877  1.00  0.00    -0.003 C 
ATOM     21  C   UNL     1      90.202  90.741  77.596  1.00  0.00     0.004 C 
ENDBRANCH  19  20
ENDBRANCH  18  19
ENDBRANCH  17  18
ENDBRANCH   1  17
TORSDOF 10
ENDMDL
MODEL 5
REMARK VINA RESULT:    -6.186      2.370      6.297
REMARK INTER + INTRA:         -11.004
REMARK INTER:                  -9.848
REMARK INTRA:                  -1.155
REMARK UNBOUND:                -1.382
REMARK SMILES CCCCC/C=C/C(=O)CCc1ccc(O)c(OC)c1
REMARK SMILES IDX 6 1 7 2 8 3 9 4 10 5 11 6 12 7 17 8 20 9 15 10 14 11 13 12
REMARK SMILES IDX 18 13 19 14 16 15 5 17 4 18 3 19 2 20 1 21
REMARK H PARENT 16 16
REMARK Flexibility Score: inf
ROOT
ATOM      1  C   UNL     1      93.645  94.360  77.629  1.00  0.00    -0.023 C 
ATOM      2  C   UNL     1      92.813  93.317  77.521  1.00  0.00     0.043 C 
ENDROOT
BRANCH   2   3
ATOM      3  C   UNL     1      91.441  93.515  76.980  1.00  0.00     0.155 C 
ATOM      4  O   UNL     1      90.455  93.007  77.510  1.00  0.00    -0.295 OA
BRANCH   3   5
ATOM      5  C   UNL     1      91.327  94.335  75.710  1.00  0.00     0.085 C 
BRANCH   5   6
ATOM      6  C   UNL     1      91.842  93.556  74.498  1.00  0.00     0.044 C 
BRANCH   6   7
ATOM      7  C   UNL     1      90.757  92.768  73.802  1.00  0.00    -0.044 A 
ATOM      8  C   UNL     1      89.689  90.669  73.340  1.00  0.00     0.160 A 
ATOM      9  C   UNL     1      90.692  91.396  73.982  1.00  0.00     0.054 A 
ATOM     10  C   UNL     1      88.766  91.324  72.526  1.00  0.00     0.157 A 
ATOM     11  C   UNL     1      88.844  92.706  72.354  1.00  0.00     0.050 A 
ATOM     12  C   UNL     1      89.847  93.433  72.997  1.00  0.00     0.008 A 
BRANCH   8  13
ATOM     13  O   UNL     1      89.623  89.320  73.515  1.00  0.00    -0.493 OA
ATOM     14  C   UNL     1      90.667  88.713  74.275  1.00  0.00     0.278 C 
ENDBRANCH   8  13
BRANCH  10  15
ATOM     15  O   UNL     1      87.782  90.625  71.893  1.00  0.00    -0.504 OA
ATOM     16  H   UNL     1      88.164  89.795  71.559  1.00  0.00     0.293 HD
ENDBRANCH  10  15
ENDBRANCH   6   7
ENDBRANCH   5   6
ENDBRANCH   3   5
ENDBRANCH   2   3
BRANCH   1  17
ATOM     17  C   UNL     1      95.043  94.243  78.165  1.00  0.00     0.027 C 
BRANCH  17  18
ATOM     18  C   UNL     1      96.102  94.140  77.062  1.00  0.00     0.004 C 
BRANCH  18  19
ATOM     19  C   UNL     1      96.343  95.456  76.317  1.00  0.00     0.000 C 
BRANCH  19  20
ATOM     20  C   UNL     1      95.772  95.399  74.899  1.00  0.00    -0.003 C 
ATOM     21  C   UNL     1      94.674  96.431  74.699  1.00  0.00     0.004 C 
ENDBRANCH  19  20
ENDBRANCH  18  19
ENDBRANCH  17  18
ENDBRANCH   1  17
TORSDOF 10
ENDMDL
MODEL 6
REMARK VINA RESULT:    -6.047      2.014      7.619
REMARK INTER + INTRA:         -10.787
REMARK INTER:                  -9.831
REMARK INTRA:                  -0.957
REMARK UNBOUND:                -1.382
REMARK SMILES CCCCC/C=C/C(=O)CCc1ccc(O)c(OC)c1
REMARK SMILES IDX 6 1 7 2 8 3 9 4 10 5 11 6 12 7 17 8 20 9 15 10 14 11 13 12
REMARK SMILES IDX 18 13 19 14 16 15 5 17 4 18 3 19 2 20 1 21
REMARK H PARENT 16 16
REMARK Flexibility Score: inf
ROOT
ATOM      1  C   UNL     1      95.063  94.560  78.363  1.00  0.00    -0.023 C 
ATOM      2  C   UNL     1      95.481  93.856  77.303  1.00  0.00     0.043 C 
ENDROOT
BRANCH   2   3
ATOM      3  C   UNL     1      94.876  94.101  75.965  1.00  0.00     0.155 C 
ATOM      4  O   UNL     1      95.433  93.750  74.927  1.00  0.00    -0.295 OA
BRANCH   3   5
ATOM      5  C   UNL     1      93.559  94.853  75.946  1.00  0.00     0.085 C 
BRANCH   5   6
ATOM      6  C   UNL     1      92.518  94.128  75.093  1.00  0.00     0.044 C 
BRANCH   6   7
ATOM      7  C   UNL     1      91.866  92.973  75.816  1.00  0.00    -0.044 A 
ATOM      8  C   UNL     1      91.117  90.694  75.833  1.00  0.00     0.160 A 
ATOM      9  C   UNL     1      91.718  91.760  75.164  1.00  0.00     0.054 A 
ATOM     10  C   UNL     1      90.672  90.855  77.145  1.00  0.00     0.157 A 
ATOM     11  C   UNL     1      90.828  92.083  77.788  1.00  0.00     0.050 A 
ATOM     12  C   UNL     1      91.429  93.149  77.119  1.00  0.00     0.008 A 
BRANCH   8  13
ATOM     13  O   UNL     1      90.969  89.500  75.194  1.00  0.00    -0.493 OA
ATOM     14  C   UNL     1      90.356  89.525  73.906  1.00  0.00     0.278 C 
ENDBRANCH   8  13
BRANCH  10  15
ATOM     15  O   UNL     1      90.084  89.821  77.809  1.00  0.00    -0.504 OA
ATOM     16  H   UNL     1      90.785  89.250  78.167  1.00  0.00     0.293 HD
ENDBRANCH  10  15
ENDBRANCH   6   7
ENDBRANCH   5   6
ENDBRANCH   3   5
ENDBRANCH   2   3
BRANCH   1  17
ATOM     17  C   UNL     1      95.622  94.373  79.743  1.00  0.00     0.027 C 
BRANCH  17  18
ATOM     18  C   UNL     1      95.419  95.595  80.645  1.00  0.00     0.004 C 
BRANCH  18  19
ATOM     19  C   UNL     1      95.938  95.397  82.073  1.00  0.00     0.000 C 
BRANCH  19  20
ATOM     20  C   UNL     1      96.266  96.737  82.731  1.00  0.00    -0.003 C 
ATOM     21  C   UNL     1      96.465  97.833  81.696  1.00  0.00     0.004 C 
ENDBRANCH  19  20
ENDBRANCH  18  19
ENDBRANCH  17  18
ENDBRANCH   1  17
TORSDOF 10
ENDMDL
MODEL 7
REMARK VINA RESULT:    -6.008      1.844      7.326
REMARK INTER + INTRA:         -10.727
REMARK INTER:                  -9.916
REMARK INTRA:                  -0.811
REMARK UNBOUND:                -1.382
REMARK SMILES CCCCC/C=C/C(=O)CCc1ccc(O)c(OC)c1
REMARK SMILES IDX 6 1 7 2 8 3 9 4 10 5 11 6 12 7 17 8 20 9 15 10 14 11 13 12
REMARK SMILES IDX 18 13 19 14 16 15 5 17 4 18 3 19 2 20 1 21
REMARK H PARENT 16 16
REMARK Flexibility Score: inf
ROOT
ATOM      1  C   UNL     1      94.997  94.618  77.197  1.00  0.00    -0.023 C 
ATOM      2  C   UNL     1      94.433  94.979  76.038  1.00  0.00     0.043 C 
ENDROOT
BRANCH   2   3
ATOM      3  C   UNL     1      93.089  94.455  75.671  1.00  0.00     0.155 C 
ATOM      4  O   UNL     1      92.856  93.988  74.558  1.00  0.00    -0.295 OA
BRANCH   3   5
ATOM      5  C   UNL     1      92.006  94.576  76.725  1.00  0.00     0.085 C 
BRANCH   5   6
ATOM      6  C   UNL     1      90.662  94.068  76.201  1.00  0.00     0.044 C 
BRANCH   6   7
ATOM      7  C   UNL     1      90.365  92.648  76.622  1.00  0.00    -0.044 A 
ATOM      8  C   UNL     1      89.505  90.468  76.106  1.00  0.00     0.160 A 
ATOM      9  C   UNL     1      89.778  91.780  75.716  1.00  0.00     0.054 A 
ATOM     10  C   UNL     1      89.821  90.043  77.396  1.00  0.00     0.157 A 
ATOM     11  C   UNL     1      90.411  90.930  78.297  1.00  0.00     0.050 A 
ATOM     12  C   UNL     1      90.685  92.241  77.907  1.00  0.00     0.008 A 
BRANCH   8  13
ATOM     13  O   UNL     1      88.928  89.612  75.217  1.00  0.00    -0.493 OA
ATOM     14  C   UNL     1      89.007  89.960  73.836  1.00  0.00     0.278 C 
ENDBRANCH   8  13
BRANCH  10  15
ATOM     15  O   UNL     1      89.559  88.765  77.788  1.00  0.00    -0.504 OA
ATOM     16  H   UNL     1      89.481  88.753  78.758  1.00  0.00     0.293 HD
ENDBRANCH  10  15
ENDBRANCH   6   7
ENDBRANCH   5   6
ENDBRANCH   3   5
ENDBRANCH   2   3
BRANCH   1  17
ATOM     17  C   UNL     1      96.348  95.102  77.638  1.00  0.00     0.027 C 
BRANCH  17  18
ATOM     18  C   UNL     1      96.489  95.183  79.162  1.00  0.00     0.004 C 
BRANCH  18  19
ATOM     19  C   UNL     1      95.721  94.088  79.909  1.00  0.00     0.000 C 
BRANCH  19  20
ATOM     20  C   UNL     1      95.569  94.433  81.391  1.00  0.00    -0.003 C 
ATOM     21  C   UNL     1      95.807  95.913  81.645  1.00  0.00     0.004 C 
ENDBRANCH  19  20
ENDBRANCH  18  19
ENDBRANCH  17  18
ENDBRANCH   1  17
TORSDOF 10
ENDMDL
MODEL 8
REMARK VINA RESULT:    -5.551     24.029     27.230
REMARK INTER + INTRA:         -10.015
REMARK INTER:                  -8.618
REMARK INTRA:                  -1.397
REMARK UNBOUND:                -1.382
REMARK SMILES CCCCC/C=C/C(=O)CCc1ccc(O)c(OC)c1
REMARK SMILES IDX 6 1 7 2 8 3 9 4 10 5 11 6 12 7 17 8 20 9 15 10 14 11 13 12
REMARK SMILES IDX 18 13 19 14 16 15 5 17 4 18 3 19 2 20 1 21
REMARK H PARENT 16 16
REMARK Flexibility Score: inf
ROOT
ATOM      1  C   UNL     1      80.170  64.964  73.064  1.00  0.00    -0.023 C 
ATOM      2  C   UNL     1      81.062  65.437  72.184  1.00  0.00     0.043 C 
ENDROOT
BRANCH   2   3
ATOM      3  C   UNL     1      80.618  66.345  71.093  1.00  0.00     0.155 C 
ATOM      4  O   UNL     1      79.794  65.994  70.251  1.00  0.00    -0.295 OA
BRANCH   3   5
ATOM      5  C   UNL     1      81.274  67.712  71.041  1.00  0.00     0.085 C 
BRANCH   5   6
ATOM      6  C   UNL     1      81.695  68.178  72.435  1.00  0.00     0.044 C 
BRANCH   6   7
ATOM      7  C   UNL     1      83.127  68.658  72.486  1.00  0.00    -0.044 A 
ATOM      8  C   UNL     1      85.308  68.574  73.482  1.00  0.00     0.160 A 
ATOM      9  C   UNL     1      83.986  68.131  73.436  1.00  0.00     0.054 A 
ATOM     10  C   UNL     1      85.753  69.538  72.578  1.00  0.00     0.157 A 
ATOM     11  C   UNL     1      84.875  70.060  71.627  1.00  0.00     0.050 A 
ATOM     12  C   UNL     1      83.553  69.617  71.581  1.00  0.00     0.008 A 
BRANCH   8  13
ATOM     13  O   UNL     1      86.156  68.057  74.415  1.00  0.00    -0.493 OA
ATOM     14  C   UNL     1      85.565  67.394  75.531  1.00  0.00     0.278 C 
ENDBRANCH   8  13
BRANCH  10  15
ATOM     15  O   UNL     1      87.041  69.979  72.613  1.00  0.00    -0.504 OA
ATOM     16  H   UNL     1      87.601  69.260  72.955  1.00  0.00     0.293 HD
ENDBRANCH  10  15
ENDBRANCH   6   7
ENDBRANCH   5   6
ENDBRANCH   3   5
ENDBRANCH   2   3
BRANCH   1  17
ATOM     17  C   UNL     1      80.538  64.044  74.191  1.00  0.00     0.027 C 
BRANCH  17  18
ATOM     18  C   UNL     1      82.048  63.814  74.312  1.00  0.00     0.004 C 
BRANCH  18  19
ATOM     19  C   UNL     1      82.679  64.506  75.525  1.00  0.00     0.000 C 
BRANCH  19  20
ATOM     20  C   UNL     1      81.625  65.250  76.346  1.00  0.00    -0.003 C 
ATOM     21  C   UNL     1      81.881  66.749  76.353  1.00  0.00     0.004 C 
ENDBRANCH  19  20
ENDBRANCH  18  19
ENDBRANCH  17  18
ENDBRANCH   1  17
TORSDOF 10
ENDMDL
MODEL 9
REMARK VINA RESULT:    -5.444     12.583     15.832
REMARK INTER + INTRA:          -9.848
REMARK INTER:                  -8.749
REMARK INTRA:                  -1.100
REMARK UNBOUND:                -1.382
REMARK SMILES CCCCC/C=C/C(=O)CCc1ccc(O)c(OC)c1
REMARK SMILES IDX 6 1 7 2 8 3 9 4 10 5 11 6 12 7 17 8 20 9 15 10 14 11 13 12
REMARK SMILES IDX 18 13 19 14 16 15 5 17 4 18 3 19 2 20 1 21
REMARK H PARENT 16 16
REMARK Flexibility Score: inf
ROOT
ATOM      1  C   UNL     1      82.241  89.941  86.493  1.00  0.00    -0.023 C 
ATOM      2  C   UNL     1      81.369  90.578  87.284  1.00  0.00     0.043 C 
ENDROOT
BRANCH   2   3
ATOM      3  C   UNL     1      81.328  90.273  88.740  1.00  0.00     0.155 C 
ATOM      4  O   UNL     1      81.195  91.156  89.585  1.00  0.00    -0.295 OA
BRANCH   3   5
ATOM      5  C   UNL     1      81.513  88.820  89.131  1.00  0.00     0.085 C 
BRANCH   5   6
ATOM      6  C   UNL     1      80.376  87.950  88.592  1.00  0.00     0.044 C 
BRANCH   6   7
ATOM      7  C   UNL     1      80.794  87.100  87.416  1.00  0.00    -0.044 A 
ATOM      8  C   UNL     1      80.471  86.402  85.143  1.00  0.00     0.160 A 
ATOM      9  C   UNL     1      80.084  87.187  86.229  1.00  0.00     0.054 A 
ATOM     10  C   UNL     1      81.561  85.540  85.258  1.00  0.00     0.157 A 
ATOM     11  C   UNL     1      82.265  85.463  86.460  1.00  0.00     0.050 A 
ATOM     12  C   UNL     1      81.878  86.248  87.546  1.00  0.00     0.008 A 
BRANCH   8  13
ATOM     13  O   UNL     1      79.775  86.485  83.975  1.00  0.00    -0.493 OA
ATOM     14  C   UNL     1      80.187  87.485  83.045  1.00  0.00     0.278 C 
ENDBRANCH   8  13
BRANCH  10  15
ATOM     15  O   UNL     1      81.948  84.768  84.204  1.00  0.00    -0.504 OA
ATOM     16  H   UNL     1      82.562  85.286  83.656  1.00  0.00     0.293 HD
ENDBRANCH  10  15
ENDBRANCH   6   7
ENDBRANCH   5   6
ENDBRANCH   3   5
ENDBRANCH   2   3
BRANCH   1  17
ATOM     17  C   UNL     1      82.345  90.191  85.016  1.00  0.00     0.027 C 
BRANCH  17  18
ATOM     18  C   UNL     1      83.767  90.016  84.475  1.00  0.00     0.004 C 
BRANCH  18  19
ATOM     19  C   UNL     1      84.858  90.297  85.513  1.00  0.00     0.000 C 
BRANCH  19  20
ATOM     20  C   UNL     1      85.413  91.714  85.360  1.00  0.00    -0.003 C 
ATOM     21  C   UNL     1      84.629  92.712  86.196  1.00  0.00     0.004 C 
ENDBRANCH  19  20
ENDBRANCH  18  19
ENDBRANCH  17  18
ENDBRANCH   1  17
TORSDOF 10
ENDMDL
MODEL 10
REMARK VINA RESULT:    -5.426      3.488      6.994
REMARK INTER + INTRA:          -9.821
REMARK INTER:                  -9.294
REMARK INTRA:                  -0.526
REMARK UNBOUND:                -1.382
REMARK SMILES CCCCC/C=C/C(=O)CCc1ccc(O)c(OC)c1
REMARK SMILES IDX 6 1 7 2 8 3 9 4 10 5 11 6 12 7 17 8 20 9 15 10 14 11 13 12
REMARK SMILES IDX 18 13 19 14 16 15 5 17 4 18 3 19 2 20 1 21
REMARK H PARENT 16 16
REMARK Flexibility Score: inf
ROOT
ATOM      1  C   UNL     1      96.557  95.808  74.505  1.00  0.00    -0.023 C 
ATOM      2  C   UNL     1      95.246  95.701  74.755  1.00  0.00     0.043 C 
ENDROOT
BRANCH   2   3
ATOM      3  C   UNL     1      94.755  94.667  75.707  1.00  0.00     0.155 C 
ATOM      4  O   UNL     1      95.462  93.729  76.068  1.00  0.00    -0.295 OA
BRANCH   3   5
ATOM      5  C   UNL     1      93.316  94.801  76.166  1.00  0.00     0.085 C 
BRANCH   5   6
ATOM      6  C   UNL     1      92.971  93.752  77.225  1.00  0.00     0.044 C 
BRANCH   6   7
ATOM      7  C   UNL     1      91.730  92.962  76.886  1.00  0.00    -0.044 A 
ATOM      8  C   UNL     1      90.104  92.243  75.273  1.00  0.00     0.160 A 
ATOM      9  C   UNL     1      91.251  92.974  75.585  1.00  0.00     0.054 A 
ATOM     10  C   UNL     1      89.452  91.511  76.264  1.00  0.00     0.157 A 
ATOM     11  C   UNL     1      89.946  91.509  77.569  1.00  0.00     0.050 A 
ATOM     12  C   UNL     1      91.092  92.240  77.882  1.00  0.00     0.008 A 
BRANCH   8  13
ATOM     13  O   UNL     1      89.632  92.254  73.995  1.00  0.00    -0.493 OA
ATOM     14  C   UNL     1      90.076  93.311  73.148  1.00  0.00     0.278 C 
ENDBRANCH   8  13
BRANCH  10  15
ATOM     15  O   UNL     1      88.332  90.793  75.971  1.00  0.00    -0.504 OA
ATOM     16  H   UNL     1      88.153  90.881  75.019  1.00  0.00     0.293 HD
ENDBRANCH  10  15
ENDBRANCH   6   7
ENDBRANCH   5   6
ENDBRANCH   3   5
ENDBRANCH   2   3
BRANCH   1  17
ATOM     17  C   UNL     1      97.132  96.822  73.559  1.00  0.00     0.027 C 
BRANCH  17  18
ATOM     18  C   UNL     1      98.103  96.214  72.542  1.00  0.00     0.004 C 
BRANCH  18  19
ATOM     19  C   UNL     1      98.037  96.873  71.161  1.00  0.00     0.000 C 
BRANCH  19  20
ATOM     20  C   UNL     1      97.548  95.884  70.101  1.00  0.00    -0.003 C 
ATOM     21  C   UNL     1      96.424  96.475  69.264  1.00  0.00     0.004 C 
ENDBRANCH  19  20
ENDBRANCH  18  19
ENDBRANCH  17  18
ENDBRANCH   1  17
TORSDOF 10
ENDMDL
