MODEL 1
REMARK VINA RESULT:    -6.009      0.000      0.000
REMARK INTER + INTRA:         -10.635
REMARK INTER:                  -9.697
REMARK INTRA:                  -0.938
REMARK UNBOUND:                -0.938
REMARK SMILES COc1cc(CNC(=O)CCCCC/C=C/C(C)C)ccc1O
REMARK SMILES IDX 11 1 10 2 8 3 7 4 9 6 6 7 5 8 3 9 22 10 4 11 21 12 20 13
REMARK SMILES IDX 2 14 1 15 23 16 12 18 13 19 14 20 15 21 16 22 17 23 18 24
REMARK SMILES IDX 19 25
REMARK H PARENT 7 5 23 17
REMARK Flexibility Score: inf
ROOT
ATOM      1  C   UNL     1      97.065  80.591  81.183  1.00  0.00     0.010 C 
ENDROOT
BRANCH   1   2
ATOM      2  C   UNL     1      96.718  79.376  82.081  1.00  0.00     0.100 C 
BRANCH   2   3
ATOM      3  C   UNL     1      95.989  79.728  83.313  1.00  0.00     0.220 C 
ATOM      4  N   UNL     1      95.896  81.032  83.696  1.00  0.00    -0.352 N 
ATOM      5  H   UNL     1      96.416  81.679  83.120  1.00  0.00     0.163 HD
ATOM      6  O   UNL     1      95.435  78.809  83.961  1.00  0.00    -0.275 OA
BRANCH   4   7
ATOM      7  C   UNL     1      95.144  81.519  84.807  1.00  0.00     0.151 C 
BRANCH   7   8
ATOM      8  C   UNL     1      95.073  83.002  84.843  1.00  0.00    -0.025 A 
ATOM      9  C   UNL     1      94.169  85.074  85.813  1.00  0.00     0.160 A 
ATOM     10  C   UNL     1      94.900  85.832  84.872  1.00  0.00     0.157 A 
ATOM     11  C   UNL     1      94.254  83.667  85.786  1.00  0.00     0.056 A 
ATOM     12  C   UNL     1      95.731  85.182  83.941  1.00  0.00     0.050 A 
ATOM     13  C   UNL     1      95.825  83.778  83.933  1.00  0.00     0.009 A 
BRANCH   9  14
ATOM     14  O   UNL     1      93.427  85.700  86.779  1.00  0.00    -0.493 OA
ATOM     15  C   UNL     1      93.387  85.000  88.034  1.00  0.00     0.278 C 
ENDBRANCH   9  14
BRANCH  10  16
ATOM     16  O   UNL     1      94.824  87.186  84.846  1.00  0.00    -0.504 OA
ATOM     17  H   UNL     1      94.951  87.496  83.946  1.00  0.00     0.293 HD
ENDBRANCH  10  16
ENDBRANCH   7   8
ENDBRANCH   4   7
ENDBRANCH   2   3
ENDBRANCH   1   2
BRANCH   1  18
ATOM     18  C   UNL     1      98.473  81.147  81.514  1.00  0.00     0.001 C 
BRANCH  18  19
ATOM     19  C   UNL     1      98.808  82.472  80.783  1.00  0.00     0.004 C 
BRANCH  19  20
ATOM     20  C   UNL     1      97.573  83.025  80.018  1.00  0.00     0.027 C 
BRANCH  20  21
ATOM     21  C   UNL     1      97.819  83.263  78.606  1.00  0.00    -0.031 C 
ATOM     22  C   UNL     1      96.831  83.572  77.747  1.00  0.00    -0.028 C 
BRANCH  22  23
ATOM     23  C   UNL     1      97.046  83.821  76.324  1.00  0.00     0.005 C 
ATOM     24  C   UNL     1      96.444  85.194  75.921  1.00  0.00     0.012 C 
ATOM     25  C   UNL     1      98.557  83.717  75.982  1.00  0.00     0.012 C 
ENDBRANCH  22  23
ENDBRANCH  20  21
ENDBRANCH  19  20
ENDBRANCH  18  19
ENDBRANCH   1  18
TORSDOF 11
ENDMDL
MODEL 2
REMARK VINA RESULT:    -5.958      4.092      8.506
REMARK INTER + INTRA:         -10.554
REMARK INTER:                  -9.806
REMARK INTRA:                  -0.748
REMARK UNBOUND:                -0.938
REMARK SMILES COc1cc(CNC(=O)CCCCC/C=C/C(C)C)ccc1O
REMARK SMILES IDX 11 1 10 2 8 3 7 4 9 6 6 7 5 8 3 9 22 10 4 11 21 12 20 13
REMARK SMILES IDX 2 14 1 15 23 16 12 18 13 19 14 20 15 21 16 22 17 23 18 24
REMARK SMILES IDX 19 25
REMARK H PARENT 7 5 23 17
REMARK Flexibility Score: inf
ROOT
ATOM      1  C   UNL     1      95.995  80.584  83.255  1.00  0.00     0.010 C 
ENDROOT
BRANCH   1   2
ATOM      2  C   UNL     1      96.736  81.913  83.553  1.00  0.00     0.100 C 
BRANCH   2   3
ATOM      3  C   UNL     1      96.555  82.947  82.517  1.00  0.00     0.220 C 
ATOM      4  N   UNL     1      97.084  82.762  81.275  1.00  0.00    -0.352 N 
ATOM      5  H   UNL     1      97.645  81.928  81.176  1.00  0.00     0.163 HD
ATOM      6  O   UNL     1      95.875  83.961  82.800  1.00  0.00    -0.275 OA
BRANCH   4   7
ATOM      7  C   UNL     1      96.902  83.632  80.159  1.00  0.00     0.151 C 
BRANCH   7   8
ATOM      8  C   UNL     1      97.543  83.115  78.922  1.00  0.00    -0.025 A 
ATOM      9  C   UNL     1      97.767  83.115  76.472  1.00  0.00     0.160 A 
ATOM     10  C   UNL     1      98.731  82.087  76.562  1.00  0.00     0.157 A 
ATOM     11  C   UNL     1      97.174  83.614  77.650  1.00  0.00     0.056 A 
ATOM     12  C   UNL     1      99.117  81.595  77.822  1.00  0.00     0.050 A 
ATOM     13  C   UNL     1      98.535  82.113  78.994  1.00  0.00     0.009 A 
BRANCH   9  14
ATOM     14  O   UNL     1      97.447  83.661  75.258  1.00  0.00    -0.493 OA
ATOM     15  C   UNL     1      96.683  84.875  75.342  1.00  0.00     0.278 C 
ENDBRANCH   9  14
BRANCH  10  16
ATOM     16  O   UNL     1      99.304  81.560  75.451  1.00  0.00    -0.504 OA
ATOM     17  H   UNL     1      99.346  80.604  75.536  1.00  0.00     0.293 HD
ENDBRANCH  10  16
ENDBRANCH   7   8
ENDBRANCH   4   7
ENDBRANCH   2   3
ENDBRANCH   1   2
BRANCH   1  18
ATOM     18  C   UNL     1      94.970  80.253  84.369  1.00  0.00     0.001 C 
BRANCH  18  19
ATOM     19  C   UNL     1      94.642  78.743  84.485  1.00  0.00     0.004 C 
BRANCH  19  20
ATOM     20  C   UNL     1      93.148  78.514  84.851  1.00  0.00     0.027 C 
BRANCH  20  21
ATOM     21  C   UNL     1      92.287  79.635  84.518  1.00  0.00    -0.031 C 
ATOM     22  C   UNL     1      91.073  79.470  83.964  1.00  0.00    -0.028 C 
BRANCH  22  23
ATOM     23  C   UNL     1      90.181  80.575  83.623  1.00  0.00     0.005 C 
ATOM     24  C   UNL     1      88.719  80.226  84.010  1.00  0.00     0.012 C 
ATOM     25  C   UNL     1      90.672  81.887  84.294  1.00  0.00     0.012 C 
ENDBRANCH  22  23
ENDBRANCH  20  21
ENDBRANCH  19  20
ENDBRANCH  18  19
ENDBRANCH   1  18
TORSDOF 11
ENDMDL
MODEL 3
REMARK VINA RESULT:    -5.928      3.947      6.721
REMARK INTER + INTRA:         -10.506
REMARK INTER:                  -9.583
REMARK INTRA:                  -0.923
REMARK UNBOUND:                -0.938
REMARK SMILES COc1cc(CNC(=O)CCCCC/C=C/C(C)C)ccc1O
REMARK SMILES IDX 11 1 10 2 8 3 7 4 9 6 6 7 5 8 3 9 22 10 4 11 21 12 20 13
REMARK SMILES IDX 2 14 1 15 23 16 12 18 13 19 14 20 15 21 16 22 17 23 18 24
REMARK SMILES IDX 19 25
REMARK H PARENT 7 5 23 17
REMARK Flexibility Score: inf
ROOT
ATOM      1  C   UNL     1      93.126  77.250  84.497  1.00  0.00     0.010 C 
ENDROOT
BRANCH   1   2
ATOM      2  C   UNL     1      94.236  78.290  84.198  1.00  0.00     0.100 C 
BRANCH   2   3
ATOM      3  C   UNL     1      94.404  79.309  85.251  1.00  0.00     0.220 C 
ATOM      4  N   UNL     1      94.277  80.629  84.942  1.00  0.00    -0.352 N 
ATOM      5  H   UNL     1      94.144  80.821  83.959  1.00  0.00     0.163 HD
ATOM      6  O   UNL     1      94.620  78.923  86.424  1.00  0.00    -0.275 OA
BRANCH   4   7
ATOM      7  C   UNL     1      94.318  81.707  85.876  1.00  0.00     0.151 C 
BRANCH   7   8
ATOM      8  C   UNL     1      94.851  82.960  85.281  1.00  0.00    -0.025 A 
ATOM      9  C   UNL     1      94.921  85.416  85.182  1.00  0.00     0.160 A 
ATOM     10  C   UNL     1      95.831  85.346  84.105  1.00  0.00     0.157 A 
ATOM     11  C   UNL     1      94.432  84.225  85.755  1.00  0.00     0.056 A 
ATOM     12  C   UNL     1      96.268  84.093  83.636  1.00  0.00     0.050 A 
ATOM     13  C   UNL     1      95.790  82.909  84.227  1.00  0.00     0.009 A 
BRANCH   9  14
ATOM     14  O   UNL     1      94.557  86.630  85.703  1.00  0.00    -0.493 OA
ATOM     15  C   UNL     1      93.749  86.542  86.888  1.00  0.00     0.278 C 
ENDBRANCH   9  14
BRANCH  10  16
ATOM     16  O   UNL     1      96.304  86.468  83.507  1.00  0.00    -0.504 OA
ATOM     17  H   UNL     1      95.608  87.128  83.470  1.00  0.00     0.293 HD
ENDBRANCH  10  16
ENDBRANCH   7   8
ENDBRANCH   4   7
ENDBRANCH   2   3
ENDBRANCH   1   2
BRANCH   1  18
ATOM     18  C   UNL     1      91.823  77.586  83.727  1.00  0.00     0.001 C 
BRANCH  18  19
ATOM     19  C   UNL     1      90.820  78.440  84.543  1.00  0.00     0.004 C 
BRANCH  19  20
ATOM     20  C   UNL     1      90.792  79.912  84.045  1.00  0.00     0.027 C 
BRANCH  20  21
ATOM     21  C   UNL     1      89.454  80.419  83.795  1.00  0.00    -0.031 C 
ATOM     22  C   UNL     1      88.864  81.320  84.601  1.00  0.00    -0.028 C 
BRANCH  22  23
ATOM     23  C   UNL     1      87.523  81.853  84.374  1.00  0.00     0.005 C 
ATOM     24  C   UNL     1      87.542  83.403  84.443  1.00  0.00     0.012 C 
ATOM     25  C   UNL     1      86.958  81.330  83.025  1.00  0.00     0.012 C 
ENDBRANCH  22  23
ENDBRANCH  20  21
ENDBRANCH  19  20
ENDBRANCH  18  19
ENDBRANCH   1  18
TORSDOF 11
ENDMDL
MODEL 4
REMARK VINA RESULT:    -5.851     23.899     26.259
REMARK INTER + INTRA:         -10.380
REMARK INTER:                  -7.946
REMARK INTRA:                  -2.434
REMARK UNBOUND:                -0.938
REMARK SMILES COc1cc(CNC(=O)CCCCC/C=C/C(C)C)ccc1O
REMARK SMILES IDX 11 1 10 2 8 3 7 4 9 6 6 7 5 8 3 9 22 10 4 11 21 12 20 13
REMARK SMILES IDX 2 14 1 15 23 16 12 18 13 19 14 20 15 21 16 22 17 23 18 24
REMARK SMILES IDX 19 25
REMARK H PARENT 7 5 23 17
REMARK Flexibility Score: inf
ROOT
ATOM      1  C   UNL     1      77.559  84.317  66.402  1.00  0.00     0.010 C 
ENDROOT
BRANCH   1   2
ATOM      2  C   UNL     1      76.906  84.542  67.790  1.00  0.00     0.100 C 
BRANCH   2   3
ATOM      3  C   UNL     1      77.248  85.835  68.411  1.00  0.00     0.220 C 
ATOM      4  N   UNL     1      77.442  86.933  67.629  1.00  0.00    -0.352 N 
ATOM      5  H   UNL     1      77.405  86.754  66.635  1.00  0.00     0.163 HD
ATOM      6  O   UNL     1      77.312  85.897  69.662  1.00  0.00    -0.275 OA
BRANCH   4   7
ATOM      7  C   UNL     1      77.680  88.257  68.103  1.00  0.00     0.151 C 
BRANCH   7   8
ATOM      8  C   UNL     1      76.494  89.140  67.957  1.00  0.00    -0.025 A 
ATOM      9  C   UNL     1      74.578  90.324  68.945  1.00  0.00     0.160 A 
ATOM     10  C   UNL     1      74.200  90.780  67.664  1.00  0.00     0.157 A 
ATOM     11  C   UNL     1      75.715  89.501  69.081  1.00  0.00     0.056 A 
ATOM     12  C   UNL     1      74.977  90.441  66.541  1.00  0.00     0.050 A 
ATOM     13  C   UNL     1      76.122  89.636  66.688  1.00  0.00     0.009 A 
BRANCH   9  14
ATOM     14  O   UNL     1      73.879  90.719  70.055  1.00  0.00    -0.493 OA
ATOM     15  C   UNL     1      73.272  89.639  70.783  1.00  0.00     0.278 C 
ENDBRANCH   9  14
BRANCH  10  16
ATOM     16  O   UNL     1      73.097  91.550  67.487  1.00  0.00    -0.504 OA
ATOM     17  H   UNL     1      72.355  91.158  67.954  1.00  0.00     0.293 HD
ENDBRANCH  10  16
ENDBRANCH   7   8
ENDBRANCH   4   7
ENDBRANCH   2   3
ENDBRANCH   1   2
BRANCH   1  18
ATOM     18  C   UNL     1      76.726  83.329  65.546  1.00  0.00     0.001 C 
BRANCH  18  19
ATOM     19  C   UNL     1      75.709  84.023  64.606  1.00  0.00     0.004 C 
BRANCH  19  20
ATOM     20  C   UNL     1      74.246  83.759  65.059  1.00  0.00     0.027 C 
BRANCH  20  21
ATOM     21  C   UNL     1      73.738  84.743  66.000  1.00  0.00    -0.031 C 
ATOM     22  C   UNL     1      74.155  86.022  65.996  1.00  0.00    -0.028 C 
BRANCH  22  23
ATOM     23  C   UNL     1      73.661  87.036  66.924  1.00  0.00     0.005 C 
ATOM     24  C   UNL     1      72.301  87.599  66.431  1.00  0.00     0.012 C 
ATOM     25  C   UNL     1      73.572  86.452  68.360  1.00  0.00     0.012 C 
ENDBRANCH  22  23
ENDBRANCH  20  21
ENDBRANCH  19  20
ENDBRANCH  18  19
ENDBRANCH   1  18
TORSDOF 11
ENDMDL
MODEL 5
REMARK VINA RESULT:    -5.698     24.447     27.046
REMARK INTER + INTRA:         -10.134
REMARK INTER:                  -9.290
REMARK INTRA:                  -0.844
REMARK UNBOUND:                -0.938
REMARK SMILES COc1cc(CNC(=O)CCCCC/C=C/C(C)C)ccc1O
REMARK SMILES IDX 11 1 10 2 8 3 7 4 9 6 6 7 5 8 3 9 22 10 4 11 21 12 20 13
REMARK SMILES IDX 2 14 1 15 23 16 12 18 13 19 14 20 15 21 16 22 17 23 18 24
REMARK SMILES IDX 19 25
REMARK H PARENT 7 5 23 17
REMARK Flexibility Score: inf
ROOT
ATOM      1  C   UNL     1      77.558  84.192  66.324  1.00  0.00     0.010 C 
ENDROOT
BRANCH   1   2
ATOM      2  C   UNL     1      76.732  84.699  67.534  1.00  0.00     0.100 C 
BRANCH   2   3
ATOM      3  C   UNL     1      77.167  86.010  68.051  1.00  0.00     0.220 C 
ATOM      4  N   UNL     1      77.189  87.092  67.223  1.00  0.00    -0.352 N 
ATOM      5  H   UNL     1      76.965  86.889  66.258  1.00  0.00     0.163 HD
ATOM      6  O   UNL     1      77.469  86.102  69.264  1.00  0.00    -0.275 OA
BRANCH   4   7
ATOM      7  C   UNL     1      77.494  88.430  67.614  1.00  0.00     0.151 C 
BRANCH   7   8
ATOM      8  C   UNL     1      76.278  89.224  67.929  1.00  0.00    -0.025 A 
ATOM      9  C   UNL     1      74.475  90.741  67.225  1.00  0.00     0.160 A 
ATOM     10  C   UNL     1      73.991  90.780  68.550  1.00  0.00     0.157 A 
ATOM     11  C   UNL     1      75.618  89.971  66.926  1.00  0.00     0.056 A 
ATOM     12  C   UNL     1      74.630  90.028  69.553  1.00  0.00     0.050 A 
ATOM     13  C   UNL     1      75.759  89.247  69.243  1.00  0.00     0.009 A 
BRANCH   9  14
ATOM     14  O   UNL     1      73.810  91.399  66.225  1.00  0.00    -0.493 OA
ATOM     15  C   UNL     1      74.411  92.648  65.842  1.00  0.00     0.278 C 
ENDBRANCH   9  14
BRANCH  10  16
ATOM     16  O   UNL     1      72.912  91.531  68.885  1.00  0.00    -0.504 OA
ATOM     17  H   UNL     1      72.925  91.707  69.829  1.00  0.00     0.293 HD
ENDBRANCH  10  16
ENDBRANCH   7   8
ENDBRANCH   4   7
ENDBRANCH   2   3
ENDBRANCH   1   2
BRANCH   1  18
ATOM     18  C   UNL     1      76.699  83.294  65.397  1.00  0.00     0.001 C 
BRANCH  18  19
ATOM     19  C   UNL     1      75.729  84.087  64.486  1.00  0.00     0.004 C 
BRANCH  19  20
ATOM     20  C   UNL     1      75.138  83.185  63.367  1.00  0.00     0.027 C 
BRANCH  20  21
ATOM     21  C   UNL     1      73.713  82.936  63.508  1.00  0.00    -0.031 C 
ATOM     22  C   UNL     1      73.169  82.515  64.664  1.00  0.00    -0.028 C 
BRANCH  22  23
ATOM     23  C   UNL     1      71.741  82.261  64.840  1.00  0.00     0.005 C 
ATOM     24  C   UNL     1      71.163  83.184  65.946  1.00  0.00     0.012 C 
ATOM     25  C   UNL     1      70.996  82.424  63.487  1.00  0.00     0.012 C 
ENDBRANCH  22  23
ENDBRANCH  20  21
ENDBRANCH  19  20
ENDBRANCH  18  19
ENDBRANCH   1  18
TORSDOF 11
ENDMDL
MODEL 6
REMARK VINA RESULT:    -5.536     43.154     45.189
REMARK INTER + INTRA:          -9.873
REMARK INTER:                  -9.079
REMARK INTRA:                  -0.794
REMARK UNBOUND:                -0.938
REMARK SMILES COc1cc(CNC(=O)CCCCC/C=C/C(C)C)ccc1O
REMARK SMILES IDX 11 1 10 2 8 3 7 4 9 6 6 7 5 8 3 9 22 10 4 11 21 12 20 13
REMARK SMILES IDX 2 14 1 15 23 16 12 18 13 19 14 20 15 21 16 22 17 23 18 24
REMARK SMILES IDX 19 25
REMARK H PARENT 7 5 23 17
REMARK Flexibility Score: inf
ROOT
ATOM      1  C   UNL     1      53.801  94.228  73.206  1.00  0.00     0.010 C 
ENDROOT
BRANCH   1   2
ATOM      2  C   UNL     1      54.717  94.232  71.955  1.00  0.00     0.100 C 
BRANCH   2   3
ATOM      3  C   UNL     1      55.359  92.934  71.677  1.00  0.00     0.220 C 
ATOM      4  N   UNL     1      55.549  92.534  70.389  1.00  0.00    -0.352 N 
ATOM      5  H   UNL     1      55.153  93.151  69.693  1.00  0.00     0.163 HD
ATOM      6  O   UNL     1      55.754  92.245  72.647  1.00  0.00    -0.275 OA
BRANCH   4   7
ATOM      7  C   UNL     1      56.239  91.354  69.980  1.00  0.00     0.151 C 
BRANCH   7   8
ATOM      8  C   UNL     1      55.726  90.807  68.697  1.00  0.00    -0.025 A 
ATOM      9  C   UNL     1      54.288  91.007  66.712  1.00  0.00     0.160 A 
ATOM     10  C   UNL     1      54.712  89.732  66.278  1.00  0.00     0.157 A 
ATOM     11  C   UNL     1      54.791  91.530  67.921  1.00  0.00     0.056 A 
ATOM     12  C   UNL     1      55.654  89.011  67.033  1.00  0.00     0.050 A 
ATOM     13  C   UNL     1      56.166  89.549  68.229  1.00  0.00     0.009 A 
BRANCH   9  14
ATOM     14  O   UNL     1      53.438  91.755  65.941  1.00  0.00    -0.493 OA
ATOM     15  C   UNL     1      52.910  92.915  66.604  1.00  0.00     0.278 C 
ENDBRANCH   9  14
BRANCH  10  16
ATOM     16  O   UNL     1      54.231  89.181  65.135  1.00  0.00    -0.504 OA
ATOM     17  H   UNL     1      53.712  88.402  65.350  1.00  0.00     0.293 HD
ENDBRANCH  10  16
ENDBRANCH   7   8
ENDBRANCH   4   7
ENDBRANCH   2   3
ENDBRANCH   1   2
BRANCH   1  18
ATOM     18  C   UNL     1      52.316  94.019  72.811  1.00  0.00     0.001 C 
BRANCH  18  19
ATOM     19  C   UNL     1      51.553  93.047  73.746  1.00  0.00     0.004 C 
BRANCH  19  20
ATOM     20  C   UNL     1      52.533  92.151  74.554  1.00  0.00     0.027 C 
BRANCH  20  21
ATOM     21  C   UNL     1      51.896  91.411  75.630  1.00  0.00    -0.031 C 
ATOM     22  C   UNL     1      52.601  90.800  76.598  1.00  0.00    -0.028 C 
BRANCH  22  23
ATOM     23  C   UNL     1      51.991  90.053  77.695  1.00  0.00     0.005 C 
ATOM     24  C   UNL     1      51.238  88.812  77.147  1.00  0.00     0.012 C 
ATOM     25  C   UNL     1      53.067  89.672  78.749  1.00  0.00     0.012 C 
ENDBRANCH  22  23
ENDBRANCH  20  21
ENDBRANCH  19  20
ENDBRANCH  18  19
ENDBRANCH   1  18
TORSDOF 11
ENDMDL
MODEL 7
REMARK VINA RESULT:    -5.482      2.679      3.544
REMARK INTER + INTRA:          -9.786
REMARK INTER:                  -9.040
REMARK INTRA:                  -0.746
REMARK UNBOUND:                -0.938
REMARK SMILES COc1cc(CNC(=O)CCCCC/C=C/C(C)C)ccc1O
REMARK SMILES IDX 11 1 10 2 8 3 7 4 9 6 6 7 5 8 3 9 22 10 4 11 21 12 20 13
REMARK SMILES IDX 2 14 1 15 23 16 12 18 13 19 14 20 15 21 16 22 17 23 18 24
REMARK SMILES IDX 19 25
REMARK H PARENT 7 5 23 17
REMARK Flexibility Score: inf
ROOT
ATOM      1  C   UNL     1      96.674  80.125  82.047  1.00  0.00     0.010 C 
ENDROOT
BRANCH   1   2
ATOM      2  C   UNL     1      96.833  78.693  82.621  1.00  0.00     0.100 C 
BRANCH   2   3
ATOM      3  C   UNL     1      95.616  78.168  83.268  1.00  0.00     0.220 C 
ATOM      4  N   UNL     1      94.866  78.981  84.062  1.00  0.00    -0.352 N 
ATOM      5  H   UNL     1      95.256  79.901  84.211  1.00  0.00     0.163 HD
ATOM      6  O   UNL     1      95.281  76.983  83.033  1.00  0.00    -0.275 OA
BRANCH   4   7
ATOM      7  C   UNL     1      93.622  78.631  84.667  1.00  0.00     0.151 C 
BRANCH   7   8
ATOM      8  C   UNL     1      92.584  79.680  84.488  1.00  0.00    -0.025 A 
ATOM      9  C   UNL     1      91.853  82.019  84.693  1.00  0.00     0.160 A 
ATOM     10  C   UNL     1      90.581  81.664  84.194  1.00  0.00     0.157 A 
ATOM     11  C   UNL     1      92.841  81.024  84.845  1.00  0.00     0.056 A 
ATOM     12  C   UNL     1      90.320  80.333  83.820  1.00  0.00     0.050 A 
ATOM     13  C   UNL     1      91.318  79.350  83.956  1.00  0.00     0.009 A 
BRANCH   9  14
ATOM     14  O   UNL     1      92.146  83.326  84.977  1.00  0.00    -0.493 OA
ATOM     15  C   UNL     1      93.484  83.538  85.458  1.00  0.00     0.278 C 
ENDBRANCH   9  14
BRANCH  10  16
ATOM     16  O   UNL     1      89.595  82.586  84.059  1.00  0.00    -0.504 OA
ATOM     17  H   UNL     1      89.792  83.348  84.609  1.00  0.00     0.293 HD
ENDBRANCH  10  16
ENDBRANCH   7   8
ENDBRANCH   4   7
ENDBRANCH   2   3
ENDBRANCH   1   2
BRANCH   1  18
ATOM     18  C   UNL     1      97.757  81.078  82.614  1.00  0.00     0.001 C 
BRANCH  18  19
ATOM     19  C   UNL     1      98.156  82.217  81.641  1.00  0.00     0.004 C 
BRANCH  19  20
ATOM     20  C   UNL     1      98.435  81.670  80.213  1.00  0.00     0.027 C 
BRANCH  20  21
ATOM     21  C   UNL     1      98.455  82.699  79.187  1.00  0.00    -0.031 C 
ATOM     22  C   UNL     1      97.735  82.600  78.055  1.00  0.00    -0.028 C 
BRANCH  22  23
ATOM     23  C   UNL     1      97.729  83.619  77.008  1.00  0.00     0.005 C 
ATOM     24  C   UNL     1      98.098  82.986  75.640  1.00  0.00     0.012 C 
ATOM     25  C   UNL     1      96.356  84.343  76.972  1.00  0.00     0.012 C 
ENDBRANCH  22  23
ENDBRANCH  20  21
ENDBRANCH  19  20
ENDBRANCH  18  19
ENDBRANCH   1  18
TORSDOF 11
ENDMDL
MODEL 8
REMARK VINA RESULT:    -5.451      4.068      7.980
REMARK INTER + INTRA:          -9.735
REMARK INTER:                  -8.813
REMARK INTRA:                  -0.922
REMARK UNBOUND:                -0.938
REMARK SMILES COc1cc(CNC(=O)CCCCC/C=C/C(C)C)ccc1O
REMARK SMILES IDX 11 1 10 2 8 3 7 4 9 6 6 7 5 8 3 9 22 10 4 11 21 12 20 13
REMARK SMILES IDX 2 14 1 15 23 16 12 18 13 19 14 20 15 21 16 22 17 23 18 24
REMARK SMILES IDX 19 25
REMARK H PARENT 7 5 23 17
REMARK Flexibility Score: inf
ROOT
ATOM      1  C   UNL     1      98.290  77.964  80.741  1.00  0.00     0.010 C 
ENDROOT
BRANCH   1   2
ATOM      2  C   UNL     1      97.824  78.452  79.345  1.00  0.00     0.100 C 
BRANCH   2   3
ATOM      3  C   UNL     1      98.490  79.685  78.887  1.00  0.00     0.220 C 
ATOM      4  N   UNL     1      98.119  80.889  79.405  1.00  0.00    -0.352 N 
ATOM      5  H   UNL     1      97.332  80.850  80.039  1.00  0.00     0.163 HD
ATOM      6  O   UNL     1      99.420  79.585  78.052  1.00  0.00    -0.275 OA
BRANCH   4   7
ATOM      7  C   UNL     1      98.743  82.141  79.125  1.00  0.00     0.151 C 
BRANCH   7   8
ATOM      8  C   UNL     1      98.076  82.877  78.019  1.00  0.00    -0.025 A 
ATOM      9  C   UNL     1      98.036  83.645  75.683  1.00  0.00     0.160 A 
ATOM     10  C   UNL     1      96.825  84.328  75.929  1.00  0.00     0.157 A 
ATOM     11  C   UNL     1      98.656  82.933  76.730  1.00  0.00     0.056 A 
ATOM     12  C   UNL     1      96.230  84.264  77.202  1.00  0.00     0.050 A 
ATOM     13  C   UNL     1      96.845  83.535  78.237  1.00  0.00     0.009 A 
BRANCH   9  14
ATOM     14  O   UNL     1      98.578  83.627  74.425  1.00  0.00    -0.493 OA
ATOM     15  C   UNL     1      99.971  83.275  74.390  1.00  0.00     0.278 C 
ENDBRANCH   9  14
BRANCH  10  16
ATOM     16  O   UNL     1      96.211  85.047  74.956  1.00  0.00    -0.504 OA
ATOM     17  H   UNL     1      95.352  84.662  74.768  1.00  0.00     0.293 HD
ENDBRANCH  10  16
ENDBRANCH   7   8
ENDBRANCH   4   7
ENDBRANCH   2   3
ENDBRANCH   1   2
BRANCH   1  18
ATOM     18  C   UNL     1      97.119  77.976  81.757  1.00  0.00     0.001 C 
BRANCH  18  19
ATOM     19  C   UNL     1      96.645  79.399  82.145  1.00  0.00     0.004 C 
BRANCH  19  20
ATOM     20  C   UNL     1      95.874  79.392  83.495  1.00  0.00     0.027 C 
BRANCH  20  21
ATOM     21  C   UNL     1      95.469  80.713  83.944  1.00  0.00    -0.031 C 
ATOM     22  C   UNL     1      96.127  81.829  83.582  1.00  0.00    -0.028 C 
BRANCH  22  23
ATOM     23  C   UNL     1      95.742  83.171  84.011  1.00  0.00     0.005 C 
ATOM     24  C   UNL     1      95.935  84.183  82.851  1.00  0.00     0.012 C 
ATOM     25  C   UNL     1      94.286  83.164  84.552  1.00  0.00     0.012 C 
ENDBRANCH  22  23
ENDBRANCH  20  21
ENDBRANCH  19  20
ENDBRANCH  18  19
ENDBRANCH   1  18
TORSDOF 11
ENDMDL
MODEL 9
REMARK VINA RESULT:    -5.361     23.760     26.056
REMARK INTER + INTRA:          -9.590
REMARK INTER:                  -8.604
REMARK INTRA:                  -0.986
REMARK UNBOUND:                -0.938
REMARK SMILES COc1cc(CNC(=O)CCCCC/C=C/C(C)C)ccc1O
REMARK SMILES IDX 11 1 10 2 8 3 7 4 9 6 6 7 5 8 3 9 22 10 4 11 21 12 20 13
REMARK SMILES IDX 2 14 1 15 23 16 12 18 13 19 14 20 15 21 16 22 17 23 18 24
REMARK SMILES IDX 19 25
REMARK H PARENT 7 5 23 17
REMARK Flexibility Score: inf
ROOT
ATOM      1  C   UNL     1      73.346  93.371  72.432  1.00  0.00     0.010 C 
ENDROOT
BRANCH   1   2
ATOM      2  C   UNL     1      74.071  92.005  72.327  1.00  0.00     0.100 C 
BRANCH   2   3
ATOM      3  C   UNL     1      73.494  91.095  71.320  1.00  0.00     0.220 C 
ATOM      4  N   UNL     1      74.314  90.420  70.468  1.00  0.00    -0.352 N 
ATOM      5  H   UNL     1      75.293  90.659  70.546  1.00  0.00     0.163 HD
ATOM      6  O   UNL     1      72.251  90.936  71.304  1.00  0.00    -0.275 OA
BRANCH   4   7
ATOM      7  C   UNL     1      73.897  89.442  69.516  1.00  0.00     0.151 C 
BRANCH   7   8
ATOM      8  C   UNL     1      74.996  88.522  69.122  1.00  0.00    -0.025 A 
ATOM      9  C   UNL     1      75.880  86.244  68.849  1.00  0.00     0.160 A 
ATOM     10  C   UNL     1      77.116  86.775  68.419  1.00  0.00     0.157 A 
ATOM     11  C   UNL     1      74.835  87.119  69.205  1.00  0.00     0.056 A 
ATOM     12  C   UNL     1      77.282  88.169  68.317  1.00  0.00     0.050 A 
ATOM     13  C   UNL     1      76.226  89.036  68.655  1.00  0.00     0.009 A 
BRANCH   9  14
ATOM     14  O   UNL     1      75.679  84.889  68.870  1.00  0.00    -0.493 OA
ATOM     15  C   UNL     1      75.821  84.293  70.170  1.00  0.00     0.278 C 
ENDBRANCH   9  14
BRANCH  10  16
ATOM     16  O   UNL     1      78.156  85.968  68.095  1.00  0.00    -0.504 OA
ATOM     17  H   UNL     1      77.824  85.100  67.853  1.00  0.00     0.293 HD
ENDBRANCH  10  16
ENDBRANCH   7   8
ENDBRANCH   4   7
ENDBRANCH   2   3
ENDBRANCH   1   2
BRANCH   1  18
ATOM     18  C   UNL     1      74.237  94.424  73.139  1.00  0.00     0.001 C 
BRANCH  18  19
ATOM     19  C   UNL     1      75.654  93.905  73.494  1.00  0.00     0.004 C 
BRANCH  19  20
ATOM     20  C   UNL     1      75.931  94.014  75.019  1.00  0.00     0.027 C 
BRANCH  20  21
ATOM     21  C   UNL     1      74.770  93.734  75.846  1.00  0.00    -0.031 C 
ATOM     22  C   UNL     1      74.474  92.494  76.275  1.00  0.00    -0.028 C 
BRANCH  22  23
ATOM     23  C   UNL     1      73.318  92.181  77.111  1.00  0.00     0.005 C 
ATOM     24  C   UNL     1      72.569  90.942  76.552  1.00  0.00     0.012 C 
ATOM     25  C   UNL     1      73.759  91.987  78.587  1.00  0.00     0.012 C 
ENDBRANCH  22  23
ENDBRANCH  20  21
ENDBRANCH  19  20
ENDBRANCH  18  19
ENDBRANCH   1  18
TORSDOF 11
ENDMDL
MODEL 10
REMARK VINA RESULT:    -5.294     15.931     20.153
REMARK INTER + INTRA:          -9.482
REMARK INTER:                  -8.567
REMARK INTRA:                  -0.916
REMARK UNBOUND:                -0.938
REMARK SMILES COc1cc(CNC(=O)CCCCC/C=C/C(C)C)ccc1O
REMARK SMILES IDX 11 1 10 2 8 3 7 4 9 6 6 7 5 8 3 9 22 10 4 11 21 12 20 13
REMARK SMILES IDX 2 14 1 15 23 16 12 18 13 19 14 20 15 21 16 22 17 23 18 24
REMARK SMILES IDX 19 25
REMARK H PARENT 7 5 23 17
REMARK Flexibility Score: inf
ROOT
ATOM      1  C   UNL     1      96.955  98.111  73.182  1.00  0.00     0.010 C 
ENDROOT
BRANCH   1   2
ATOM      2  C   UNL     1      95.868  97.295  72.436  1.00  0.00     0.100 C 
BRANCH   2   3
ATOM      3  C   UNL     1      95.442  97.891  71.156  1.00  0.00     0.220 C 
ATOM      4  N   UNL     1      94.824  99.104  71.145  1.00  0.00    -0.352 N 
ATOM      5  H   UNL     1      94.631  99.487  72.060  1.00  0.00     0.163 HD
ATOM      6  O   UNL     1      95.702  97.274  70.096  1.00  0.00    -0.275 OA
BRANCH   4   7
ATOM      7  C   UNL     1      94.450  99.835  69.978  1.00  0.00     0.151 C 
BRANCH   7   8
ATOM      8  C   UNL     1      92.986 100.073  69.896  1.00  0.00    -0.025 A 
ATOM      9  C   UNL     1      90.989 100.675  68.593  1.00  0.00     0.160 A 
ATOM     10  C   UNL     1      90.199 100.578  69.760  1.00  0.00     0.157 A 
ATOM     11  C   UNL     1      92.375 100.431  68.672  1.00  0.00     0.056 A 
ATOM     12  C   UNL     1      90.793 100.206  70.980  1.00  0.00     0.050 A 
ATOM     13  C   UNL     1      92.175  99.945  71.046  1.00  0.00     0.009 A 
BRANCH   9  14
ATOM     14  O   UNL     1      90.407 100.950  67.385  1.00  0.00    -0.493 OA
ATOM     15  C   UNL     1      90.612 102.297  66.927  1.00  0.00     0.278 C 
ENDBRANCH   9  14
BRANCH  10  16
ATOM     16  O   UNL     1      88.867 100.832  69.733  1.00  0.00    -0.504 OA
ATOM     17  H   UNL     1      88.646 101.293  68.920  1.00  0.00     0.293 HD
ENDBRANCH  10  16
ENDBRANCH   7   8
ENDBRANCH   4   7
ENDBRANCH   2   3
ENDBRANCH   1   2
BRANCH   1  18
ATOM     18  C   UNL     1      96.660  98.177  74.702  1.00  0.00     0.001 C 
BRANCH  18  19
ATOM     19  C   UNL     1      95.182  98.500  75.037  1.00  0.00     0.004 C 
BRANCH  19  20
ATOM     20  C   UNL     1      94.659  97.617  76.204  1.00  0.00     0.027 C 
BRANCH  20  21
ATOM     21  C   UNL     1      93.519  96.791  75.847  1.00  0.00    -0.031 C 
ATOM     22  C   UNL     1      92.735  96.208  76.771  1.00  0.00    -0.028 C 
BRANCH  22  23
ATOM     23  C   UNL     1      91.580  95.376  76.445  1.00  0.00     0.005 C 
ATOM     24  C   UNL     1      91.812  94.636  75.101  1.00  0.00     0.012 C 
ATOM     25  C   UNL     1      91.275  94.398  77.612  1.00  0.00     0.012 C 
ENDBRANCH  22  23
ENDBRANCH  20  21
ENDBRANCH  19  20
ENDBRANCH  18  19
ENDBRANCH   1  18
TORSDOF 11
ENDMDL
