MODEL 1
REMARK VINA RESULT:    -6.362      0.000      0.000
REMARK INTER + INTRA:         -10.799
REMARK INTER:                  -9.895
REMARK INTRA:                  -0.904
REMARK UNBOUND:                -0.904
REMARK SMILES COc1cc(CNC(=O)CCCCCC(C)C)ccc1O
REMARK SMILES IDX 10 1 8 2 7 3 9 5 6 6 5 7 3 8 20 9 4 10 19 11 18 12 2 13 1 14
REMARK SMILES IDX 21 15 11 17 12 18 13 19 14 20 15 21 16 22 17 23
REMARK H PARENT 7 4 21 16
REMARK Flexibility Score: inf
ROOT
ATOM      1  C   UNL     1      92.667  94.073  75.716  1.00  0.00     0.100 C 
ENDROOT
BRANCH   1   2
ATOM      2  C   UNL     1      93.992  94.480  76.228  1.00  0.00     0.220 C 
ATOM      3  N   UNL     1      94.519  93.836  77.308  1.00  0.00    -0.352 N 
ATOM      4  H   UNL     1      93.889  93.197  77.770  1.00  0.00     0.163 HD
ATOM      5  O   UNL     1      94.624  95.385  75.631  1.00  0.00    -0.275 OA
BRANCH   3   6
ATOM      6  C   UNL     1      95.850  94.007  77.797  1.00  0.00     0.151 C 
BRANCH   6   7
ATOM      7  C   UNL     1      95.898  94.545  79.183  1.00  0.00    -0.025 A 
ATOM      8  C   UNL     1      96.186  96.438  80.726  1.00  0.00     0.160 A 
ATOM      9  C   UNL     1      95.923  95.584  81.819  1.00  0.00     0.157 A 
ATOM     10  C   UNL     1      96.190  95.910  79.418  1.00  0.00     0.056 A 
ATOM     11  C   UNL     1      95.658  94.220  81.599  1.00  0.00     0.050 A 
ATOM     12  C   UNL     1      95.639  93.705  80.291  1.00  0.00     0.009 A 
BRANCH   8  13
ATOM     13  O   UNL     1      96.467  97.765  80.921  1.00  0.00    -0.493 OA
ATOM     14  C   UNL     1      97.104  98.396  79.793  1.00  0.00     0.278 C 
ENDBRANCH   8  13
BRANCH   9  15
ATOM     15  O   UNL     1      95.919  96.081  83.081  1.00  0.00    -0.504 OA
ATOM     16  H   UNL     1      95.250  95.630  83.601  1.00  0.00     0.293 HD
ENDBRANCH   9  15
ENDBRANCH   6   7
ENDBRANCH   3   6
ENDBRANCH   1   2
BRANCH   1  17
ATOM     17  C   UNL     1      91.469  94.749  76.435  1.00  0.00     0.010 C 
BRANCH  17  18
ATOM     18  C   UNL     1      90.144  93.975  76.191  1.00  0.00     0.001 C 
BRANCH  18  19
ATOM     19  C   UNL     1      89.846  92.906  77.276  1.00  0.00     0.000 C 
BRANCH  19  20
ATOM     20  C   UNL     1      90.204  91.469  76.800  1.00  0.00     0.003 C 
BRANCH  20  21
ATOM     21  C   UNL     1      90.102  91.240  75.257  1.00  0.00    -0.017 C 
ATOM     22  C   UNL     1      88.848  90.387  74.903  1.00  0.00     0.007 C 
ATOM     23  C   UNL     1      91.380  90.585  74.657  1.00  0.00     0.007 C 
ENDBRANCH  20  21
ENDBRANCH  19  20
ENDBRANCH  18  19
ENDBRANCH  17  18
ENDBRANCH   1  17
TORSDOF 10
ENDMDL
MODEL 2
REMARK VINA RESULT:    -5.609     13.357     15.098
REMARK INTER + INTRA:          -9.628
REMARK INTER:                  -8.988
REMARK INTRA:                  -0.640
REMARK UNBOUND:                -0.904
REMARK SMILES COc1cc(CNC(=O)CCCCCC(C)C)ccc1O
REMARK SMILES IDX 10 1 8 2 7 3 9 5 6 6 5 7 3 8 20 9 4 10 19 11 18 12 2 13 1 14
REMARK SMILES IDX 21 15 11 17 12 18 13 19 14 20 15 21 16 22 17 23
REMARK H PARENT 7 4 21 16
REMARK Flexibility Score: inf
ROOT
ATOM      1  C   UNL     1      84.952  90.110  86.412  1.00  0.00     0.100 C 
ENDROOT
BRANCH   1   2
ATOM      2  C   UNL     1      84.202  90.642  87.569  1.00  0.00     0.220 C 
ATOM      3  N   UNL     1      83.872  91.964  87.601  1.00  0.00    -0.352 N 
ATOM      4  H   UNL     1      84.290  92.525  86.872  1.00  0.00     0.163 HD
ATOM      5  O   UNL     1      83.847  89.855  88.479  1.00  0.00    -0.275 OA
BRANCH   3   6
ATOM      6  C   UNL     1      83.009  92.572  88.563  1.00  0.00     0.151 C 
BRANCH   6   7
ATOM      7  C   UNL     1      82.874  94.043  88.379  1.00  0.00    -0.025 A 
ATOM      8  C   UNL     1      81.798  96.175  88.966  1.00  0.00     0.160 A 
ATOM      9  C   UNL     1      82.663  96.852  88.079  1.00  0.00     0.157 A 
ATOM     10  C   UNL     1      81.897  94.773  89.096  1.00  0.00     0.056 A 
ATOM     11  C   UNL     1      83.621  96.132  87.342  1.00  0.00     0.050 A 
ATOM     12  C   UNL     1      83.730  94.740  87.494  1.00  0.00     0.009 A 
BRANCH   8  13
ATOM     13  O   UNL     1      80.846  96.855  89.678  1.00  0.00    -0.493 OA
ATOM     14  C   UNL     1      79.574  96.181  89.740  1.00  0.00     0.278 C 
ENDBRANCH   8  13
BRANCH   9  15
ATOM     15  O   UNL     1      82.575  98.199  87.945  1.00  0.00    -0.504 OA
ATOM     16  H   UNL     1      82.129  98.411  87.122  1.00  0.00     0.293 HD
ENDBRANCH   9  15
ENDBRANCH   6   7
ENDBRANCH   3   6
ENDBRANCH   1   2
BRANCH   1  17
ATOM     17  C   UNL     1      84.265  90.350  85.041  1.00  0.00     0.010 C 
BRANCH  17  18
ATOM     18  C   UNL     1      83.182  89.275  84.747  1.00  0.00     0.001 C 
BRANCH  18  19
ATOM     19  C   UNL     1      81.780  89.647  85.297  1.00  0.00     0.000 C 
BRANCH  19  20
ATOM     20  C   UNL     1      80.665  89.488  84.222  1.00  0.00     0.003 C 
BRANCH  20  21
ATOM     21  C   UNL     1      79.891  88.131  84.270  1.00  0.00    -0.017 C 
ATOM     22  C   UNL     1      80.171  87.378  85.604  1.00  0.00     0.007 C 
ATOM     23  C   UNL     1      80.212  87.208  83.059  1.00  0.00     0.007 C 
ENDBRANCH  20  21
ENDBRANCH  19  20
ENDBRANCH  18  19
ENDBRANCH  17  18
ENDBRANCH   1  17
TORSDOF 10
ENDMDL
MODEL 3
REMARK VINA RESULT:    -5.564      6.037      7.503
REMARK INTER + INTRA:          -9.558
REMARK INTER:                  -9.042
REMARK INTRA:                  -0.516
REMARK UNBOUND:                -0.904
REMARK SMILES COc1cc(CNC(=O)CCCCCC(C)C)ccc1O
REMARK SMILES IDX 10 1 8 2 7 3 9 5 6 6 5 7 3 8 20 9 4 10 19 11 18 12 2 13 1 14
REMARK SMILES IDX 21 15 11 17 12 18 13 19 14 20 15 21 16 22 17 23
REMARK H PARENT 7 4 21 16
REMARK Flexibility Score: inf
ROOT
ATOM      1  C   UNL     1      93.120  98.598  71.573  1.00  0.00     0.100 C 
ENDROOT
BRANCH   1   2
ATOM      2  C   UNL     1      93.816  98.604  72.877  1.00  0.00     0.220 C 
ATOM      3  N   UNL     1      94.823  97.714  73.102  1.00  0.00    -0.352 N 
ATOM      4  H   UNL     1      94.935  97.010  72.388  1.00  0.00     0.163 HD
ATOM      5  O   UNL     1      93.491  99.460  73.736  1.00  0.00    -0.275 OA
BRANCH   3   6
ATOM      6  C   UNL     1      95.688  97.723  74.239  1.00  0.00     0.151 C 
BRANCH   6   7
ATOM      7  C   UNL     1      95.452  96.579  75.161  1.00  0.00    -0.025 A 
ATOM      8  C   UNL     1      94.105  94.642  75.855  1.00  0.00     0.160 A 
ATOM      9  C   UNL     1      95.038  94.361  76.875  1.00  0.00     0.157 A 
ATOM     10  C   UNL     1      94.307  95.759  75.017  1.00  0.00     0.056 A 
ATOM     11  C   UNL     1      96.166  95.185  77.044  1.00  0.00     0.050 A 
ATOM     12  C   UNL     1      96.375  96.282  76.190  1.00  0.00     0.009 A 
BRANCH   8  13
ATOM     13  O   UNL     1      92.989  93.864  75.686  1.00  0.00    -0.493 OA
ATOM     14  C   UNL     1      91.844  94.319  76.432  1.00  0.00     0.278 C 
ENDBRANCH   8  13
BRANCH   9  15
ATOM     15  O   UNL     1      94.852  93.291  77.687  1.00  0.00    -0.504 OA
ATOM     16  H   UNL     1      95.561  93.252  78.333  1.00  0.00     0.293 HD
ENDBRANCH   9  15
ENDBRANCH   6   7
ENDBRANCH   3   6
ENDBRANCH   1   2
BRANCH   1  17
ATOM     17  C   UNL     1      92.493  99.963  71.178  1.00  0.00     0.010 C 
BRANCH  17  18
ATOM     18  C   UNL     1      91.585  99.834  69.924  1.00  0.00     0.001 C 
BRANCH  18  19
ATOM     19  C   UNL     1      91.527  98.393  69.351  1.00  0.00     0.000 C 
BRANCH  19  20
ATOM     20  C   UNL     1      90.213  98.127  68.560  1.00  0.00     0.003 C 
BRANCH  20  21
ATOM     21  C   UNL     1      90.322  98.326  67.013  1.00  0.00    -0.017 C 
ATOM     22  C   UNL     1      90.146  99.826  66.632  1.00  0.00     0.007 C 
ATOM     23  C   UNL     1      89.310  97.451  66.218  1.00  0.00     0.007 C 
ENDBRANCH  20  21
ENDBRANCH  19  20
ENDBRANCH  18  19
ENDBRANCH  17  18
ENDBRANCH   1  17
TORSDOF 10
ENDMDL
MODEL 4
REMARK VINA RESULT:    -5.441     14.272     16.883
REMARK INTER + INTRA:          -9.367
REMARK INTER:                  -8.522
REMARK INTRA:                  -0.845
REMARK UNBOUND:                -0.904
REMARK SMILES COc1cc(CNC(=O)CCCCCC(C)C)ccc1O
REMARK SMILES IDX 10 1 8 2 7 3 9 5 6 6 5 7 3 8 20 9 4 10 19 11 18 12 2 13 1 14
REMARK SMILES IDX 21 15 11 17 12 18 13 19 14 20 15 21 16 22 17 23
REMARK H PARENT 7 4 21 16
REMARK Flexibility Score: inf
ROOT
ATOM      1  C   UNL     1      82.319  92.455  88.921  1.00  0.00     0.100 C 
ENDROOT
BRANCH   1   2
ATOM      2  C   UNL     1      82.942  91.419  88.072  1.00  0.00     0.220 C 
ATOM      3  N   UNL     1      82.411  91.150  86.846  1.00  0.00    -0.352 N 
ATOM      4  H   UNL     1      81.527  91.601  86.657  1.00  0.00     0.163 HD
ATOM      5  O   UNL     1      83.976  90.837  88.481  1.00  0.00    -0.275 OA
BRANCH   3   6
ATOM      6  C   UNL     1      83.006  90.307  85.859  1.00  0.00     0.151 C 
BRANCH   6   7
ATOM      7  C   UNL     1      82.105  89.212  85.406  1.00  0.00    -0.025 A 
ATOM      8  C   UNL     1      81.260  86.914  85.634  1.00  0.00     0.160 A 
ATOM      9  C   UNL     1      80.344  87.150  84.586  1.00  0.00     0.157 A 
ATOM     10  C   UNL     1      82.147  87.940  86.024  1.00  0.00     0.056 A 
ATOM     11  C   UNL     1      80.312  88.403  83.947  1.00  0.00     0.050 A 
ATOM     12  C   UNL     1      81.182  89.428  84.357  1.00  0.00     0.009 A 
BRANCH   8  13
ATOM     13  O   UNL     1      81.321  85.695  86.256  1.00  0.00    -0.493 OA
ATOM     14  C   UNL     1      82.647  85.135  86.310  1.00  0.00     0.278 C 
ENDBRANCH   8  13
BRANCH   9  15
ATOM     15  O   UNL     1      79.489  86.170  84.202  1.00  0.00    -0.504 OA
ATOM     16  H   UNL     1      79.905  85.314  84.327  1.00  0.00     0.293 HD
ENDBRANCH   9  15
ENDBRANCH   6   7
ENDBRANCH   3   6
ENDBRANCH   1   2
BRANCH   1  17
ATOM     17  C   UNL     1      83.151  93.760  89.051  1.00  0.00     0.010 C 
BRANCH  17  18
ATOM     18  C   UNL     1      83.523  94.342  87.660  1.00  0.00     0.001 C 
BRANCH  18  19
ATOM     19  C   UNL     1      83.595  95.892  87.639  1.00  0.00     0.000 C 
BRANCH  19  20
ATOM     20  C   UNL     1      82.259  96.537  87.170  1.00  0.00     0.003 C 
BRANCH  20  21
ATOM     21  C   UNL     1      81.428  97.229  88.300  1.00  0.00    -0.017 C 
ATOM     22  C   UNL     1      82.366  97.879  89.360  1.00  0.00     0.007 C 
ATOM     23  C   UNL     1      80.427  96.261  88.994  1.00  0.00     0.007 C 
ENDBRANCH  20  21
ENDBRANCH  19  20
ENDBRANCH  18  19
ENDBRANCH  17  18
ENDBRANCH   1  17
TORSDOF 10
ENDMDL
MODEL 5
REMARK VINA RESULT:    -5.407     32.593     34.285
REMARK INTER + INTRA:          -9.313
REMARK INTER:                  -8.377
REMARK INTRA:                  -0.936
REMARK UNBOUND:                -0.904
REMARK SMILES COc1cc(CNC(=O)CCCCCC(C)C)ccc1O
REMARK SMILES IDX 10 1 8 2 7 3 9 5 6 6 5 7 3 8 20 9 4 10 19 11 18 12 2 13 1 14
REMARK SMILES IDX 21 15 11 17 12 18 13 19 14 20 15 21 16 22 17 23
REMARK H PARENT 7 4 21 16
REMARK Flexibility Score: inf
ROOT
ATOM      1  C   UNL     1      62.909  84.360  69.129  1.00  0.00     0.100 C 
ENDROOT
BRANCH   1   2
ATOM      2  C   UNL     1      62.118  83.457  69.990  1.00  0.00     0.220 C 
ATOM      3  N   UNL     1      62.603  82.218  70.285  1.00  0.00    -0.352 N 
ATOM      4  H   UNL     1      63.431  81.952  69.771  1.00  0.00     0.163 HD
ATOM      5  O   UNL     1      61.033  83.868  70.469  1.00  0.00    -0.275 OA
BRANCH   3   6
ATOM      6  C   UNL     1      62.033  81.317  71.235  1.00  0.00     0.151 C 
BRANCH   6   7
ATOM      7  C   UNL     1      62.724  81.344  72.553  1.00  0.00    -0.025 A 
ATOM      8  C   UNL     1      62.707  81.850  74.959  1.00  0.00     0.160 A 
ATOM      9  C   UNL     1      64.015  81.332  75.075  1.00  0.00     0.157 A 
ATOM     10  C   UNL     1      62.078  81.870  73.696  1.00  0.00     0.056 A 
ATOM     11  C   UNL     1      64.677  80.831  73.939  1.00  0.00     0.050 A 
ATOM     12  C   UNL     1      64.035  80.831  72.689  1.00  0.00     0.009 A 
BRANCH   8  13
ATOM     13  O   UNL     1      62.053  82.361  76.049  1.00  0.00    -0.493 OA
ATOM     14  C   UNL     1      61.837  83.784  75.984  1.00  0.00     0.278 C 
ENDBRANCH   8  13
BRANCH   9  15
ATOM     15  O   UNL     1      64.630  81.311  76.284  1.00  0.00    -0.504 OA
ATOM     16  H   UNL     1      64.839  80.404  76.521  1.00  0.00     0.293 HD
ENDBRANCH   9  15
ENDBRANCH   6   7
ENDBRANCH   3   6
ENDBRANCH   1   2
BRANCH   1  17
ATOM     17  C   UNL     1      63.085  83.858  67.670  1.00  0.00     0.010 C 
BRANCH  17  18
ATOM     18  C   UNL     1      61.718  83.527  67.010  1.00  0.00     0.001 C 
BRANCH  18  19
ATOM     19  C   UNL     1      61.423  84.373  65.744  1.00  0.00     0.000 C 
BRANCH  19  20
ATOM     20  C   UNL     1      62.485  85.489  65.521  1.00  0.00     0.003 C 
BRANCH  20  21
ATOM     21  C   UNL     1      61.945  86.950  65.651  1.00  0.00    -0.017 C 
ATOM     22  C   UNL     1      61.356  87.200  67.070  1.00  0.00     0.007 C 
ATOM     23  C   UNL     1      60.888  87.303  64.564  1.00  0.00     0.007 C 
ENDBRANCH  20  21
ENDBRANCH  19  20
ENDBRANCH  18  19
ENDBRANCH  17  18
ENDBRANCH   1  17
TORSDOF 10
ENDMDL
MODEL 6
REMARK VINA RESULT:    -5.315      1.992      3.533
REMARK INTER + INTRA:          -9.171
REMARK INTER:                  -8.390
REMARK INTRA:                  -0.780
REMARK UNBOUND:                -0.904
REMARK SMILES COc1cc(CNC(=O)CCCCCC(C)C)ccc1O
REMARK SMILES IDX 10 1 8 2 7 3 9 5 6 6 5 7 3 8 20 9 4 10 19 11 18 12 2 13 1 14
REMARK SMILES IDX 21 15 11 17 12 18 13 19 14 20 15 21 16 22 17 23
REMARK H PARENT 7 4 21 16
REMARK Flexibility Score: inf
ROOT
ATOM      1  C   UNL     1      95.933  95.762  75.256  1.00  0.00     0.100 C 
ENDROOT
BRANCH   1   2
ATOM      2  C   UNL     1      96.372  96.866  76.135  1.00  0.00     0.220 C 
ATOM      3  N   UNL     1      96.744  96.593  77.418  1.00  0.00    -0.352 N 
ATOM      4  H   UNL     1      96.562  95.646  77.720  1.00  0.00     0.163 HD
ATOM      5  O   UNL     1      96.434  98.029  75.667  1.00  0.00    -0.275 OA
BRANCH   3   6
ATOM      6  C   UNL     1      97.349  97.525  78.314  1.00  0.00     0.151 C 
BRANCH   6   7
ATOM      7  C   UNL     1      96.988  97.285  79.737  1.00  0.00    -0.025 A 
ATOM      8  C   UNL     1      96.650  95.740  81.620  1.00  0.00     0.160 A 
ATOM      9  C   UNL     1      96.366  96.834  82.465  1.00  0.00     0.157 A 
ATOM     10  C   UNL     1      96.940  95.970  80.259  1.00  0.00     0.056 A 
ATOM     11  C   UNL     1      96.384  98.143  81.951  1.00  0.00     0.050 A 
ATOM     12  C   UNL     1      96.698  98.368  80.600  1.00  0.00     0.009 A 
BRANCH   8  13
ATOM     13  O   UNL     1      96.618  94.455  82.096  1.00  0.00    -0.493 OA
ATOM     14  C   UNL     1      95.766  93.575  81.339  1.00  0.00     0.278 C 
ENDBRANCH   8  13
BRANCH   9  15
ATOM     15  O   UNL     1      96.083  96.623  83.774  1.00  0.00    -0.504 OA
ATOM     16  H   UNL     1      96.712  95.997  84.141  1.00  0.00     0.293 HD
ENDBRANCH   9  15
ENDBRANCH   6   7
ENDBRANCH   3   6
ENDBRANCH   1   2
BRANCH   1  17
ATOM     17  C   UNL     1      95.553  94.459  76.009  1.00  0.00     0.010 C 
BRANCH  17  18
ATOM     18  C   UNL     1      94.013  94.300  76.138  1.00  0.00     0.001 C 
BRANCH  18  19
ATOM     19  C   UNL     1      93.390  93.411  75.030  1.00  0.00     0.000 C 
BRANCH  19  20
ATOM     20  C   UNL     1      91.865  93.184  75.245  1.00  0.00     0.003 C 
BRANCH  20  21
ATOM     21  C   UNL     1      91.287  93.792  76.564  1.00  0.00    -0.017 C 
ATOM     22  C   UNL     1      90.841  92.668  77.545  1.00  0.00     0.007 C 
ATOM     23  C   UNL     1      90.110  94.778  76.310  1.00  0.00     0.007 C 
ENDBRANCH  20  21
ENDBRANCH  19  20
ENDBRANCH  18  19
ENDBRANCH  17  18
ENDBRANCH   1  17
TORSDOF 10
ENDMDL
MODEL 7
REMARK VINA RESULT:    -5.116     14.797     16.990
REMARK INTER + INTRA:          -8.862
REMARK INTER:                  -7.794
REMARK INTRA:                  -1.068
REMARK UNBOUND:                -0.904
REMARK SMILES COc1cc(CNC(=O)CCCCCC(C)C)ccc1O
REMARK SMILES IDX 10 1 8 2 7 3 9 5 6 6 5 7 3 8 20 9 4 10 19 11 18 12 2 13 1 14
REMARK SMILES IDX 21 15 11 17 12 18 13 19 14 20 15 21 16 22 17 23
REMARK H PARENT 7 4 21 16
REMARK Flexibility Score: inf
ROOT
ATOM      1  C   UNL     1      84.528  91.374  86.344  1.00  0.00     0.100 C 
ENDROOT
BRANCH   1   2
ATOM      2  C   UNL     1      83.681  91.222  87.546  1.00  0.00     0.220 C 
ATOM      3  N   UNL     1      83.834  90.123  88.338  1.00  0.00    -0.352 N 
ATOM      4  H   UNL     1      84.443  89.410  87.963  1.00  0.00     0.163 HD
ATOM      5  O   UNL     1      82.866  92.131  87.836  1.00  0.00    -0.275 OA
BRANCH   3   6
ATOM      6  C   UNL     1      83.212  89.933  89.609  1.00  0.00     0.151 C 
BRANCH   6   7
ATOM      7  C   UNL     1      81.887  89.264  89.517  1.00  0.00    -0.025 A 
ATOM      8  C   UNL     1      79.436  89.350  89.704  1.00  0.00     0.160 A 
ATOM      9  C   UNL     1      79.359  88.007  89.277  1.00  0.00     0.157 A 
ATOM     10  C   UNL     1      80.700  89.963  89.840  1.00  0.00     0.056 A 
ATOM     11  C   UNL     1      80.534  87.294  88.979  1.00  0.00     0.050 A 
ATOM     12  C   UNL     1      81.788  87.918  89.093  1.00  0.00     0.009 A 
BRANCH   8  13
ATOM     13  O   UNL     1      78.305  90.056  90.018  1.00  0.00    -0.493 OA
ATOM     14  C   UNL     1      78.046  90.142  91.433  1.00  0.00     0.278 C 
ENDBRANCH   8  13
BRANCH   9  15
ATOM     15  O   UNL     1      78.149  87.407  89.146  1.00  0.00    -0.504 OA
ATOM     16  H   UNL     1      78.147  86.860  88.357  1.00  0.00     0.293 HD
ENDBRANCH   9  15
ENDBRANCH   6   7
ENDBRANCH   3   6
ENDBRANCH   1   2
BRANCH   1  17
ATOM     17  C   UNL     1      83.914  90.774  85.051  1.00  0.00     0.010 C 
BRANCH  17  18
ATOM     18  C   UNL     1      83.866  89.222  85.105  1.00  0.00     0.001 C 
BRANCH  18  19
ATOM     19  C   UNL     1      82.460  88.660  85.440  1.00  0.00     0.000 C 
BRANCH  19  20
ATOM     20  C   UNL     1      81.507  88.687  84.210  1.00  0.00     0.003 C 
BRANCH  20  21
ATOM     21  C   UNL     1      80.351  87.634  84.247  1.00  0.00    -0.017 C 
ATOM     22  C   UNL     1      80.662  86.504  85.273  1.00  0.00     0.007 C 
ATOM     23  C   UNL     1      80.049  87.019  82.850  1.00  0.00     0.007 C 
ENDBRANCH  20  21
ENDBRANCH  19  20
ENDBRANCH  18  19
ENDBRANCH  17  18
ENDBRANCH   1  17
TORSDOF 10
ENDMDL
MODEL 8
REMARK VINA RESULT:    -5.106     14.335     16.214
REMARK INTER + INTRA:          -8.846
REMARK INTER:                  -7.945
REMARK INTRA:                  -0.901
REMARK UNBOUND:                -0.904
REMARK SMILES COc1cc(CNC(=O)CCCCCC(C)C)ccc1O
REMARK SMILES IDX 10 1 8 2 7 3 9 5 6 6 5 7 3 8 20 9 4 10 19 11 18 12 2 13 1 14
REMARK SMILES IDX 21 15 11 17 12 18 13 19 14 20 15 21 16 22 17 23
REMARK H PARENT 7 4 21 16
REMARK Flexibility Score: inf
ROOT
ATOM      1  C   UNL     1      80.244  89.356  88.199  1.00  0.00     0.100 C 
ENDROOT
BRANCH   1   2
ATOM      2  C   UNL     1      80.288  90.619  88.964  1.00  0.00     0.220 C 
ATOM      3  N   UNL     1      81.479  91.063  89.456  1.00  0.00    -0.352 N 
ATOM      4  H   UNL     1      82.244  90.410  89.369  1.00  0.00     0.163 HD
ATOM      5  O   UNL     1      79.231  91.281  89.110  1.00  0.00    -0.275 OA
BRANCH   3   6
ATOM      6  C   UNL     1      81.696  92.340  90.058  1.00  0.00     0.151 C 
BRANCH   6   7
ATOM      7  C   UNL     1      82.219  93.354  89.103  1.00  0.00    -0.025 A 
ATOM      8  C   UNL     1      82.278  95.666  88.268  1.00  0.00     0.160 A 
ATOM      9  C   UNL     1      83.266  95.300  87.330  1.00  0.00     0.157 A 
ATOM     10  C   UNL     1      81.747  94.688  89.136  1.00  0.00     0.056 A 
ATOM     11  C   UNL     1      83.724  93.971  87.271  1.00  0.00     0.050 A 
ATOM     12  C   UNL     1      83.209  93.007  88.154  1.00  0.00     0.009 A 
BRANCH   8  13
ATOM     13  O   UNL     1      81.804  96.951  88.329  1.00  0.00    -0.493 OA
ATOM     14  C   UNL     1      80.572  97.151  87.610  1.00  0.00     0.278 C 
ENDBRANCH   8  13
BRANCH   9  15
ATOM     15  O   UNL     1      83.781  96.233  86.490  1.00  0.00    -0.504 OA
ATOM     16  H   UNL     1      83.070  96.643  85.993  1.00  0.00     0.293 HD
ENDBRANCH   9  15
ENDBRANCH   6   7
ENDBRANCH   3   6
ENDBRANCH   1   2
BRANCH   1  17
ATOM     17  C   UNL     1      81.477  88.438  88.411  1.00  0.00     0.010 C 
BRANCH  17  18
ATOM     18  C   UNL     1      81.230  87.009  87.852  1.00  0.00     0.001 C 
BRANCH  18  19
ATOM     19  C   UNL     1      80.204  86.971  86.690  1.00  0.00     0.000 C 
BRANCH  19  20
ATOM     20  C   UNL     1      80.869  86.613  85.329  1.00  0.00     0.003 C 
BRANCH  20  21
ATOM     21  C   UNL     1      80.616  87.641  84.179  1.00  0.00    -0.017 C 
ATOM     22  C   UNL     1      79.582  88.721  84.617  1.00  0.00     0.007 C 
ATOM     23  C   UNL     1      80.154  86.966  82.855  1.00  0.00     0.007 C 
ENDBRANCH  20  21
ENDBRANCH  19  20
ENDBRANCH  18  19
ENDBRANCH  17  18
ENDBRANCH   1  17
TORSDOF 10
ENDMDL
MODEL 9
REMARK VINA RESULT:    -5.091     14.863     16.619
REMARK INTER + INTRA:          -8.822
REMARK INTER:                  -7.376
REMARK INTRA:                  -1.446
REMARK UNBOUND:                -0.904
REMARK SMILES COc1cc(CNC(=O)CCCCCC(C)C)ccc1O
REMARK SMILES IDX 10 1 8 2 7 3 9 5 6 6 5 7 3 8 20 9 4 10 19 11 18 12 2 13 1 14
REMARK SMILES IDX 21 15 11 17 12 18 13 19 14 20 15 21 16 22 17 23
REMARK H PARENT 7 4 21 16
REMARK Flexibility Score: inf
ROOT
ATOM      1  C   UNL     1      80.653  89.666  85.362  1.00  0.00     0.100 C 
ENDROOT
BRANCH   1   2
ATOM      2  C   UNL     1      81.993  90.028  85.867  1.00  0.00     0.220 C 
ATOM      3  N   UNL     1      82.117  90.555  87.118  1.00  0.00    -0.352 N 
ATOM      4  H   UNL     1      81.244  90.786  87.570  1.00  0.00     0.163 HD
ATOM      5  O   UNL     1      82.997  89.803  85.147  1.00  0.00    -0.275 OA
BRANCH   3   6
ATOM      6  C   UNL     1      83.354  90.787  87.793  1.00  0.00     0.151 C 
BRANCH   6   7
ATOM      7  C   UNL     1      83.315  90.403  89.230  1.00  0.00    -0.025 A 
ATOM      8  C   UNL     1      82.632  88.843  91.004  1.00  0.00     0.160 A 
ATOM      9  C   UNL     1      83.300  89.639  91.959  1.00  0.00     0.157 A 
ATOM     10  C   UNL     1      82.628  89.240  89.650  1.00  0.00     0.056 A 
ATOM     11  C   UNL     1      83.964  90.812  91.557  1.00  0.00     0.050 A 
ATOM     12  C   UNL     1      83.977  91.189  90.203  1.00  0.00     0.009 A 
BRANCH   8  13
ATOM     13  O   UNL     1      81.962  87.707  91.377  1.00  0.00    -0.493 OA
ATOM     14  C   UNL     1      80.531  87.867  91.433  1.00  0.00     0.278 C 
ENDBRANCH   8  13
BRANCH   9  15
ATOM     15  O   UNL     1      83.308  89.267  93.263  1.00  0.00    -0.504 OA
ATOM     16  H   UNL     1      82.555  89.659  93.712  1.00  0.00     0.293 HD
ENDBRANCH   9  15
ENDBRANCH   6   7
ENDBRANCH   3   6
ENDBRANCH   1   2
BRANCH   1  17
ATOM     17  C   UNL     1      80.658  89.004  83.957  1.00  0.00     0.010 C 
BRANCH  17  18
ATOM     18  C   UNL     1      79.768  87.732  83.921  1.00  0.00     0.001 C 
BRANCH  18  19
ATOM     19  C   UNL     1      80.558  86.420  84.167  1.00  0.00     0.000 C 
BRANCH  19  20
ATOM     20  C   UNL     1      80.164  85.738  85.509  1.00  0.00     0.003 C 
BRANCH  20  21
ATOM     21  C   UNL     1      81.199  85.915  86.668  1.00  0.00    -0.017 C 
ATOM     22  C   UNL     1      80.629  86.839  87.785  1.00  0.00     0.007 C 
ATOM     23  C   UNL     1      82.572  86.457  86.175  1.00  0.00     0.007 C 
ENDBRANCH  20  21
ENDBRANCH  19  20
ENDBRANCH  18  19
ENDBRANCH  17  18
ENDBRANCH   1  17
TORSDOF 10
ENDMDL
MODEL 10
REMARK VINA RESULT:    -5.028     15.038     16.598
REMARK INTER + INTRA:          -8.724
REMARK INTER:                  -7.462
REMARK INTRA:                  -1.262
REMARK UNBOUND:                -0.904
REMARK SMILES COc1cc(CNC(=O)CCCCCC(C)C)ccc1O
REMARK SMILES IDX 10 1 8 2 7 3 9 5 6 6 5 7 3 8 20 9 4 10 19 11 18 12 2 13 1 14
REMARK SMILES IDX 21 15 11 17 12 18 13 19 14 20 15 21 16 22 17 23
REMARK H PARENT 7 4 21 16
REMARK Flexibility Score: inf
ROOT
ATOM      1  C   UNL     1      80.830  89.961  85.716  1.00  0.00     0.100 C 
ENDROOT
BRANCH   1   2
ATOM      2  C   UNL     1      82.141  89.991  86.397  1.00  0.00     0.220 C 
ATOM      3  N   UNL     1      82.309  90.786  87.490  1.00  0.00    -0.352 N 
ATOM      4  H   UNL     1      81.542  91.413  87.682  1.00  0.00     0.163 HD
ATOM      5  O   UNL     1      83.062  89.248  85.977  1.00  0.00    -0.275 OA
BRANCH   3   6
ATOM      6  C   UNL     1      83.457  90.781  88.341  1.00  0.00     0.151 C 
BRANCH   6   7
ATOM      7  C   UNL     1      83.256  89.997  89.589  1.00  0.00    -0.025 A 
ATOM      8  C   UNL     1      83.498  89.767  92.025  1.00  0.00     0.160 A 
ATOM      9  C   UNL     1      82.814  88.534  91.975  1.00  0.00     0.157 A 
ATOM     10  C   UNL     1      83.731  90.482  90.831  1.00  0.00     0.056 A 
ATOM     11  C   UNL     1      82.360  88.030  90.742  1.00  0.00     0.050 A 
ATOM     12  C   UNL     1      82.574  88.758  89.559  1.00  0.00     0.009 A 
BRANCH   8  13
ATOM     13  O   UNL     1      83.965  90.266  93.213  1.00  0.00    -0.493 OA
ATOM     14  C   UNL     1      85.392  90.461  93.242  1.00  0.00     0.278 C 
ENDBRANCH   8  13
BRANCH   9  15
ATOM     15  O   UNL     1      82.586  87.839  93.117  1.00  0.00    -0.504 OA
ATOM     16  H   UNL     1      81.660  87.591  93.162  1.00  0.00     0.293 HD
ENDBRANCH   9  15
ENDBRANCH   6   7
ENDBRANCH   3   6
ENDBRANCH   1   2
BRANCH   1  17
ATOM     17  C   UNL     1      80.862  89.336  84.295  1.00  0.00     0.010 C 
BRANCH  17  18
ATOM     18  C   UNL     1      79.851  88.164  84.162  1.00  0.00     0.001 C 
BRANCH  18  19
ATOM     19  C   UNL     1      80.529  86.792  83.906  1.00  0.00     0.000 C 
BRANCH  19  20
ATOM     20  C   UNL     1      80.451  85.857  85.148  1.00  0.00     0.003 C 
BRANCH  20  21
ATOM     21  C   UNL     1      81.180  86.390  86.423  1.00  0.00    -0.017 C 
ATOM     22  C   UNL     1      82.363  85.457  86.818  1.00  0.00     0.007 C 
ATOM     23  C   UNL     1      80.221  86.577  87.635  1.00  0.00     0.007 C 
ENDBRANCH  20  21
ENDBRANCH  19  20
ENDBRANCH  18  19
ENDBRANCH  17  18
ENDBRANCH   1  17
TORSDOF 10
ENDMDL
