MODEL 1
REMARK VINA RESULT:    -6.579      0.000      0.000
REMARK INTER + INTRA:         -11.999
REMARK INTER:                 -11.002
REMARK INTRA:                  -0.996
REMARK UNBOUND:                -0.996
REMARK SMILES COc1cc(CNC(=O)CCCCCCCC(C)C)ccc1O
REMARK SMILES IDX 11 1 10 2 8 3 9 4 7 5 6 7 5 8 4 9 20 10 3 11 21 12 22 13
REMARK SMILES IDX 2 14 1 15 23 16 12 18 13 19 14 20 15 21 16 22 17 23 18 24
REMARK SMILES IDX 19 25
REMARK H PARENT 7 6 23 17
REMARK Flexibility Score: inf
ROOT
ATOM      1  C   UNL     1      92.294  93.759  74.882  1.00  0.00     0.010 C 
ENDROOT
BRANCH   1   2
ATOM      2  C   UNL     1      92.873  94.903  75.712  1.00  0.00     0.100 C 
BRANCH   2   3
ATOM      3  C   UNL     1      94.339  94.687  76.051  1.00  0.00     0.220 C 
ATOM      4  O   UNL     1      95.255  94.945  75.275  1.00  0.00    -0.275 OA
ATOM      5  N   UNL     1      94.496  94.164  77.326  1.00  0.00    -0.352 N 
ATOM      6  H   UNL     1      93.675  93.972  77.894  1.00  0.00     0.163 HD
BRANCH   5   7
ATOM      7  C   UNL     1      95.788  93.857  77.893  1.00  0.00     0.151 C 
BRANCH   7   8
ATOM      8  C   UNL     1      95.959  94.456  79.259  1.00  0.00    -0.025 A 
ATOM      9  C   UNL     1      96.615  95.673  79.399  1.00  0.00     0.056 A 
ATOM     10  C   UNL     1      95.459  93.787  80.369  1.00  0.00     0.009 A 
ATOM     11  C   UNL     1      96.773  96.230  80.668  1.00  0.00     0.160 A 
ATOM     12  C   UNL     1      95.618  94.344  81.639  1.00  0.00     0.050 A 
ATOM     13  C   UNL     1      96.275  95.565  81.789  1.00  0.00     0.157 A 
BRANCH  11  14
ATOM     14  O   UNL     1      97.418  97.423  80.801  1.00  0.00    -0.493 OA
ATOM     15  C   UNL     1      96.656  98.603  80.547  1.00  0.00     0.278 C 
ENDBRANCH  11  14
BRANCH  13  16
ATOM     16  O   UNL     1      96.423  96.099  83.033  1.00  0.00    -0.504 OA
ATOM     17  H   UNL     1      96.389  97.069  82.967  1.00  0.00     0.293 HD
ENDBRANCH  13  16
ENDBRANCH   7   8
ENDBRANCH   5   7
ENDBRANCH   2   3
ENDBRANCH   1   2
BRANCH   1  18
ATOM     18  C   UNL     1      90.770  93.646  74.977  1.00  0.00     0.001 C 
BRANCH  18  19
ATOM     19  C   UNL     1      90.149  94.131  76.292  1.00  0.00     0.000 C 
BRANCH  19  20
ATOM     20  C   UNL     1      89.638  92.991  77.176  1.00  0.00     0.000 C 
BRANCH  20  21
ATOM     21  C   UNL     1      90.760  92.165  77.816  1.00  0.00     0.000 C 
BRANCH  21  22
ATOM     22  C   UNL     1      90.257  90.903  78.523  1.00  0.00     0.003 C 
BRANCH  22  23
ATOM     23  C   UNL     1      89.750  89.817  77.553  1.00  0.00    -0.017 C 
ATOM     24  C   UNL     1      89.674  88.471  78.278  1.00  0.00     0.007 C 
ATOM     25  C   UNL     1      90.632  89.682  76.311  1.00  0.00     0.007 C 
ENDBRANCH  22  23
ENDBRANCH  21  22
ENDBRANCH  20  21
ENDBRANCH  19  20
ENDBRANCH  18  19
ENDBRANCH   1  18
TORSDOF 12
ENDMDL
MODEL 2
REMARK VINA RESULT:    -6.515      3.642      7.979
REMARK INTER + INTRA:         -11.891
REMARK INTER:                 -10.976
REMARK INTRA:                  -0.915
REMARK UNBOUND:                -0.996
REMARK SMILES COc1cc(CNC(=O)CCCCCCCC(C)C)ccc1O
REMARK SMILES IDX 11 1 10 2 8 3 9 4 7 5 6 7 5 8 4 9 20 10 3 11 21 12 22 13
REMARK SMILES IDX 2 14 1 15 23 16 12 18 13 19 14 20 15 21 16 22 17 23 18 24
REMARK SMILES IDX 19 25
REMARK H PARENT 7 6 23 17
REMARK Flexibility Score: inf
ROOT
ATOM      1  C   UNL     1      93.598  93.660  75.577  1.00  0.00     0.010 C 
ENDROOT
BRANCH   1   2
ATOM      2  C   UNL     1      92.522  94.271  74.681  1.00  0.00     0.100 C 
BRANCH   2   3
ATOM      3  C   UNL     1      91.523  93.237  74.190  1.00  0.00     0.220 C 
ATOM      4  O   UNL     1      90.334  93.484  74.007  1.00  0.00    -0.275 OA
ATOM      5  N   UNL     1      92.123  92.003  73.990  1.00  0.00    -0.352 N 
ATOM      6  H   UNL     1      93.115  91.891  74.179  1.00  0.00     0.163 HD
BRANCH   5   7
ATOM      7  C   UNL     1      91.393  90.843  73.532  1.00  0.00     0.151 C 
BRANCH   7   8
ATOM      8  C   UNL     1      91.110  89.881  74.649  1.00  0.00    -0.025 A 
ATOM      9  C   UNL     1      90.647  90.360  75.868  1.00  0.00     0.056 A 
ATOM     10  C   UNL     1      91.314  88.521  74.452  1.00  0.00     0.009 A 
ATOM     11  C   UNL     1      90.385  89.466  76.906  1.00  0.00     0.160 A 
ATOM     12  C   UNL     1      91.052  87.627  75.490  1.00  0.00     0.050 A 
ATOM     13  C   UNL     1      90.587  88.099  76.717  1.00  0.00     0.157 A 
BRANCH  11  14
ATOM     14  O   UNL     1      89.931  89.940  78.100  1.00  0.00    -0.493 OA
ATOM     15  C   UNL     1      90.354  91.249  78.480  1.00  0.00     0.278 C 
ENDBRANCH  11  14
BRANCH  13  16
ATOM     16  O   UNL     1      90.333  87.216  77.723  1.00  0.00    -0.504 OA
ATOM     17  H   UNL     1      90.232  86.326  77.344  1.00  0.00     0.293 HD
ENDBRANCH  13  16
ENDBRANCH   7   8
ENDBRANCH   5   7
ENDBRANCH   2   3
ENDBRANCH   1   2
BRANCH   1  18
ATOM     18  C   UNL     1      94.693  94.652  75.979  1.00  0.00     0.001 C 
BRANCH  18  19
ATOM     19  C   UNL     1      95.839  94.073  76.815  1.00  0.00     0.000 C 
BRANCH  19  20
ATOM     20  C   UNL     1      96.939  95.093  77.122  1.00  0.00     0.000 C 
BRANCH  20  21
ATOM     21  C   UNL     1      97.160  95.319  78.622  1.00  0.00     0.000 C 
BRANCH  21  22
ATOM     22  C   UNL     1      95.983  96.019  79.310  1.00  0.00     0.003 C 
BRANCH  22  23
ATOM     23  C   UNL     1      95.337  95.178  80.428  1.00  0.00    -0.017 C 
ATOM     24  C   UNL     1      95.685  95.777  81.793  1.00  0.00     0.007 C 
ATOM     25  C   UNL     1      95.770  93.712  80.384  1.00  0.00     0.007 C 
ENDBRANCH  22  23
ENDBRANCH  21  22
ENDBRANCH  20  21
ENDBRANCH  19  20
ENDBRANCH  18  19
ENDBRANCH   1  18
TORSDOF 12
ENDMDL
MODEL 3
REMARK VINA RESULT:    -6.440      3.378      8.548
REMARK INTER + INTRA:         -11.767
REMARK INTER:                 -10.346
REMARK INTRA:                  -1.421
REMARK UNBOUND:                -0.996
REMARK SMILES COc1cc(CNC(=O)CCCCCCCC(C)C)ccc1O
REMARK SMILES IDX 11 1 10 2 8 3 9 4 7 5 6 7 5 8 4 9 20 10 3 11 21 12 22 13
REMARK SMILES IDX 2 14 1 15 23 16 12 18 13 19 14 20 15 21 16 22 17 23 18 24
REMARK SMILES IDX 19 25
REMARK H PARENT 7 6 23 17
REMARK Flexibility Score: inf
ROOT
ATOM      1  C   UNL     1      93.583  93.522  76.072  1.00  0.00     0.010 C 
ENDROOT
BRANCH   1   2
ATOM      2  C   UNL     1      92.588  94.632  76.404  1.00  0.00     0.100 C 
BRANCH   2   3
ATOM      3  C   UNL     1      91.203  94.354  75.843  1.00  0.00     0.220 C 
ATOM      4  O   UNL     1      90.172  94.796  76.343  1.00  0.00    -0.275 OA
ATOM      5  N   UNL     1      91.262  93.542  74.720  1.00  0.00    -0.352 N 
ATOM      6  H   UNL     1      92.163  93.214  74.384  1.00  0.00     0.163 HD
BRANCH   5   7
ATOM      7  C   UNL     1      90.085  93.119  73.997  1.00  0.00     0.151 C 
BRANCH   7   8
ATOM      8  C   UNL     1      89.773  91.670  74.231  1.00  0.00    -0.025 A 
ATOM      9  C   UNL     1      90.296  91.025  75.346  1.00  0.00     0.056 A 
ATOM     10  C   UNL     1      88.964  90.987  73.331  1.00  0.00     0.009 A 
ATOM     11  C   UNL     1      90.007  89.678  75.563  1.00  0.00     0.160 A 
ATOM     12  C   UNL     1      88.675  89.639  73.549  1.00  0.00     0.050 A 
ATOM     13  C   UNL     1      89.196  88.985  74.664  1.00  0.00     0.157 A 
BRANCH  11  14
ATOM     14  O   UNL     1      90.522  89.050  76.657  1.00  0.00    -0.493 OA
ATOM     15  C   UNL     1      89.801  89.184  77.881  1.00  0.00     0.278 C 
ENDBRANCH  11  14
BRANCH  13  16
ATOM     16  O   UNL     1      88.905  87.669  74.866  1.00  0.00    -0.504 OA
ATOM     17  H   UNL     1      89.184  87.418  75.764  1.00  0.00     0.293 HD
ENDBRANCH  13  16
ENDBRANCH   7   8
ENDBRANCH   5   7
ENDBRANCH   2   3
ENDBRANCH   1   2
BRANCH   1  18
ATOM     18  C   UNL     1      94.851  94.027  75.377  1.00  0.00     0.001 C 
BRANCH  18  19
ATOM     19  C   UNL     1      95.038  95.548  75.360  1.00  0.00     0.000 C 
BRANCH  19  20
ATOM     20  C   UNL     1      96.496  95.980  75.538  1.00  0.00     0.000 C 
BRANCH  20  21
ATOM     21  C   UNL     1      96.781  96.619  76.902  1.00  0.00     0.000 C 
BRANCH  21  22
ATOM     22  C   UNL     1      97.028  95.593  78.013  1.00  0.00     0.003 C 
BRANCH  22  23
ATOM     23  C   UNL     1      95.886  95.517  79.044  1.00  0.00    -0.017 C 
ATOM     24  C   UNL     1      96.339  96.143  80.365  1.00  0.00     0.007 C 
ATOM     25  C   UNL     1      95.412  94.084  79.290  1.00  0.00     0.007 C 
ENDBRANCH  22  23
ENDBRANCH  21  22
ENDBRANCH  20  21
ENDBRANCH  19  20
ENDBRANCH  18  19
ENDBRANCH   1  18
TORSDOF 12
ENDMDL
MODEL 4
REMARK VINA RESULT:    -6.390      1.622      2.065
REMARK INTER + INTRA:         -11.682
REMARK INTER:                 -10.477
REMARK INTRA:                  -1.205
REMARK UNBOUND:                -0.996
REMARK SMILES COc1cc(CNC(=O)CCCCCCCC(C)C)ccc1O
REMARK SMILES IDX 11 1 10 2 8 3 9 4 7 5 6 7 5 8 4 9 20 10 3 11 21 12 22 13
REMARK SMILES IDX 2 14 1 15 23 16 12 18 13 19 14 20 15 21 16 22 17 23 18 24
REMARK SMILES IDX 19 25
REMARK H PARENT 7 6 23 17
REMARK Flexibility Score: inf
ROOT
ATOM      1  C   UNL     1      93.118  94.061  75.371  1.00  0.00     0.010 C 
ENDROOT
BRANCH   1   2
ATOM      2  C   UNL     1      94.255  95.062  75.170  1.00  0.00     0.100 C 
BRANCH   2   3
ATOM      3  C   UNL     1      95.527  94.643  75.888  1.00  0.00     0.220 C 
ATOM      4  O   UNL     1      96.109  93.585  75.666  1.00  0.00    -0.275 OA
ATOM      5  N   UNL     1      95.927  95.595  76.814  1.00  0.00    -0.352 N 
ATOM      6  H   UNL     1      95.373  96.439  76.937  1.00  0.00     0.163 HD
BRANCH   5   7
ATOM      7  C   UNL     1      97.103  95.441  77.639  1.00  0.00     0.151 C 
BRANCH   7   8
ATOM      8  C   UNL     1      96.785  95.573  79.100  1.00  0.00    -0.025 A 
ATOM      9  C   UNL     1      97.786  95.940  79.991  1.00  0.00     0.056 A 
ATOM     10  C   UNL     1      95.492  95.326  79.546  1.00  0.00     0.009 A 
ATOM     11  C   UNL     1      97.490  96.062  81.349  1.00  0.00     0.160 A 
ATOM     12  C   UNL     1      95.197  95.447  80.905  1.00  0.00     0.050 A 
ATOM     13  C   UNL     1      96.195  95.816  81.806  1.00  0.00     0.157 A 
BRANCH  11  14
ATOM     14  O   UNL     1      98.474  96.422  82.220  1.00  0.00    -0.493 OA
ATOM     15  C   UNL     1      99.128  97.667  81.980  1.00  0.00     0.278 C 
ENDBRANCH  11  14
BRANCH  13  16
ATOM     16  O   UNL     1      95.894  95.932  83.129  1.00  0.00    -0.504 OA
ATOM     17  H   UNL     1      95.476  96.797  83.284  1.00  0.00     0.293 HD
ENDBRANCH  13  16
ENDBRANCH   7   8
ENDBRANCH   5   7
ENDBRANCH   2   3
ENDBRANCH   1   2
BRANCH   1  18
ATOM     18  C   UNL     1      92.296  94.318  76.637  1.00  0.00     0.001 C 
BRANCH  18  19
ATOM     19  C   UNL     1      91.739  93.070  77.331  1.00  0.00     0.000 C 
BRANCH  19  20
ATOM     20  C   UNL     1      90.212  92.977  77.274  1.00  0.00     0.000 C 
BRANCH  20  21
ATOM     21  C   UNL     1      89.705  91.749  76.509  1.00  0.00     0.000 C 
BRANCH  21  22
ATOM     22  C   UNL     1      90.728  90.610  76.443  1.00  0.00     0.003 C 
BRANCH  22  23
ATOM     23  C   UNL     1      90.924  90.043  75.024  1.00  0.00    -0.017 C 
ATOM     24  C   UNL     1      91.749  91.022  74.185  1.00  0.00     0.007 C 
ATOM     25  C   UNL     1      89.598  89.754  74.320  1.00  0.00     0.007 C 
ENDBRANCH  22  23
ENDBRANCH  21  22
ENDBRANCH  20  21
ENDBRANCH  19  20
ENDBRANCH  18  19
ENDBRANCH   1  18
TORSDOF 12
ENDMDL
MODEL 5
REMARK VINA RESULT:    -6.131     14.175     15.782
REMARK INTER + INTRA:         -11.248
REMARK INTER:                  -9.307
REMARK INTRA:                  -1.941
REMARK UNBOUND:                -0.996
REMARK SMILES COc1cc(CNC(=O)CCCCCCCC(C)C)ccc1O
REMARK SMILES IDX 11 1 10 2 8 3 9 4 7 5 6 7 5 8 4 9 20 10 3 11 21 12 22 13
REMARK SMILES IDX 2 14 1 15 23 16 12 18 13 19 14 20 15 21 16 22 17 23 18 24
REMARK SMILES IDX 19 25
REMARK H PARENT 7 6 23 17
REMARK Flexibility Score: inf
ROOT
ATOM      1  C   UNL     1      80.060  88.923  84.696  1.00  0.00     0.010 C 
ENDROOT
BRANCH   1   2
ATOM      2  C   UNL     1      81.314  89.599  84.144  1.00  0.00     0.100 C 
BRANCH   2   3
ATOM      3  C   UNL     1      82.551  89.285  84.969  1.00  0.00     0.220 C 
ATOM      4  O   UNL     1      83.355  88.406  84.669  1.00  0.00    -0.275 OA
ATOM      5  N   UNL     1      82.641  90.103  86.085  1.00  0.00    -0.352 N 
ATOM      6  H   UNL     1      81.920  90.798  86.258  1.00  0.00     0.163 HD
BRANCH   5   7
ATOM      7  C   UNL     1      83.720  90.006  87.042  1.00  0.00     0.151 C 
BRANCH   7   8
ATOM      8  C   UNL     1      83.550  90.972  88.178  1.00  0.00    -0.025 A 
ATOM      9  C   UNL     1      83.738  90.537  89.485  1.00  0.00     0.056 A 
ATOM     10  C   UNL     1      83.204  92.291  87.913  1.00  0.00     0.009 A 
ATOM     11  C   UNL     1      83.580  91.434  90.541  1.00  0.00     0.160 A 
ATOM     12  C   UNL     1      83.045  93.189  88.969  1.00  0.00     0.050 A 
ATOM     13  C   UNL     1      83.233  92.761  90.283  1.00  0.00     0.157 A 
BRANCH  11  14
ATOM     14  O   UNL     1      83.766  91.004  91.820  1.00  0.00    -0.493 OA
ATOM     15  C   UNL     1      83.998  89.608  92.006  1.00  0.00     0.278 C 
ENDBRANCH  11  14
BRANCH  13  16
ATOM     16  O   UNL     1      83.076  93.647  91.306  1.00  0.00    -0.504 OA
ATOM     17  H   UNL     1      82.601  93.209  92.033  1.00  0.00     0.293 HD
ENDBRANCH  13  16
ENDBRANCH   7   8
ENDBRANCH   5   7
ENDBRANCH   2   3
ENDBRANCH   1   2
BRANCH   1  18
ATOM     18  C   UNL     1      79.674  87.647  83.944  1.00  0.00     0.001 C 
BRANCH  18  19
ATOM     19  C   UNL     1      80.466  86.390  84.317  1.00  0.00     0.000 C 
BRANCH  19  20
ATOM     20  C   UNL     1      80.310  85.991  85.787  1.00  0.00     0.000 C 
BRANCH  20  21
ATOM     21  C   UNL     1      81.625  86.032  86.573  1.00  0.00     0.000 C 
BRANCH  21  22
ATOM     22  C   UNL     1      81.522  86.813  87.887  1.00  0.00     0.003 C 
BRANCH  22  23
ATOM     23  C   UNL     1      80.137  87.451  88.115  1.00  0.00    -0.017 C 
ATOM     24  C   UNL     1      80.288  88.963  88.300  1.00  0.00     0.007 C 
ATOM     25  C   UNL     1      79.410  86.856  89.321  1.00  0.00     0.007 C 
ENDBRANCH  22  23
ENDBRANCH  21  22
ENDBRANCH  20  21
ENDBRANCH  19  20
ENDBRANCH  18  19
ENDBRANCH   1  18
TORSDOF 12
ENDMDL
MODEL 6
REMARK VINA RESULT:    -5.909     14.084     15.629
REMARK INTER + INTRA:         -10.877
REMARK INTER:                  -9.462
REMARK INTRA:                  -1.416
REMARK UNBOUND:                -0.996
REMARK SMILES COc1cc(CNC(=O)CCCCCCCC(C)C)ccc1O
REMARK SMILES IDX 11 1 10 2 8 3 9 4 7 5 6 7 5 8 4 9 20 10 3 11 21 12 22 13
REMARK SMILES IDX 2 14 1 15 23 16 12 18 13 19 14 20 15 21 16 22 17 23 18 24
REMARK SMILES IDX 19 25
REMARK H PARENT 7 6 23 17
REMARK Flexibility Score: inf
ROOT
ATOM      1  C   UNL     1      80.041  88.457  84.287  1.00  0.00     0.010 C 
ENDROOT
BRANCH   1   2
ATOM      2  C   UNL     1      81.092  89.561  84.193  1.00  0.00     0.100 C 
BRANCH   2   3
ATOM      3  C   UNL     1      82.325  89.258  85.029  1.00  0.00     0.220 C 
ATOM      4  O   UNL     1      83.263  88.578  84.624  1.00  0.00    -0.275 OA
ATOM      5  N   UNL     1      82.242  89.837  86.287  1.00  0.00    -0.352 N 
ATOM      6  H   UNL     1      81.418  90.376  86.538  1.00  0.00     0.163 HD
BRANCH   5   7
ATOM      7  C   UNL     1      83.279  89.697  87.283  1.00  0.00     0.151 C 
BRANCH   7   8
ATOM      8  C   UNL     1      83.268  90.830  88.268  1.00  0.00    -0.025 A 
ATOM      9  C   UNL     1      82.898  92.102  87.848  1.00  0.00     0.056 A 
ATOM     10  C   UNL     1      83.628  90.595  89.589  1.00  0.00     0.009 A 
ATOM     11  C   UNL     1      82.888  93.155  88.764  1.00  0.00     0.160 A 
ATOM     12  C   UNL     1      83.619  91.649  90.504  1.00  0.00     0.050 A 
ATOM     13  C   UNL     1      83.249  92.928  90.092  1.00  0.00     0.157 A 
BRANCH  11  14
ATOM     14  O   UNL     1      82.525  94.401  88.348  1.00  0.00    -0.493 OA
ATOM     15  C   UNL     1      83.449  95.102  87.518  1.00  0.00     0.278 C 
ENDBRANCH  11  14
BRANCH  13  16
ATOM     16  O   UNL     1      83.242  93.948  90.995  1.00  0.00    -0.504 OA
ATOM     17  H   UNL     1      83.492  94.772  90.543  1.00  0.00     0.293 HD
ENDBRANCH  13  16
ENDBRANCH   7   8
ENDBRANCH   5   7
ENDBRANCH   2   3
ENDBRANCH   1   2
BRANCH   1  18
ATOM     18  C   UNL     1      80.377  87.222  83.446  1.00  0.00     0.001 C 
BRANCH  18  19
ATOM     19  C   UNL     1      80.880  86.003  84.227  1.00  0.00     0.000 C 
BRANCH  19  20
ATOM     20  C   UNL     1      80.179  85.817  85.575  1.00  0.00     0.000 C 
BRANCH  20  21
ATOM     21  C   UNL     1      81.060  86.177  86.776  1.00  0.00     0.000 C 
BRANCH  21  22
ATOM     22  C   UNL     1      80.383  87.139  87.758  1.00  0.00     0.003 C 
BRANCH  22  23
ATOM     23  C   UNL     1      80.591  86.754  89.236  1.00  0.00    -0.017 C 
ATOM     24  C   UNL     1      79.257  86.834  89.984  1.00  0.00     0.007 C 
ATOM     25  C   UNL     1      81.624  87.639  89.933  1.00  0.00     0.007 C 
ENDBRANCH  22  23
ENDBRANCH  21  22
ENDBRANCH  20  21
ENDBRANCH  19  20
ENDBRANCH  18  19
ENDBRANCH   1  18
TORSDOF 12
ENDMDL
MODEL 7
REMARK VINA RESULT:    -5.734      4.296      8.835
REMARK INTER + INTRA:         -10.585
REMARK INTER:                  -9.841
REMARK INTRA:                  -0.744
REMARK UNBOUND:                -0.996
REMARK SMILES COc1cc(CNC(=O)CCCCCCCC(C)C)ccc1O
REMARK SMILES IDX 11 1 10 2 8 3 9 4 7 5 6 7 5 8 4 9 20 10 3 11 21 12 22 13
REMARK SMILES IDX 2 14 1 15 23 16 12 18 13 19 14 20 15 21 16 22 17 23 18 24
REMARK SMILES IDX 19 25
REMARK H PARENT 7 6 23 17
REMARK Flexibility Score: inf
ROOT
ATOM      1  C   UNL     1      94.523  94.458  75.541  1.00  0.00     0.010 C 
ENDROOT
BRANCH   1   2
ATOM      2  C   UNL     1      93.085  94.790  75.147  1.00  0.00     0.100 C 
BRANCH   2   3
ATOM      3  C   UNL     1      92.274  93.548  74.818  1.00  0.00     0.220 C 
ATOM      4  O   UNL     1      92.754  92.550  74.288  1.00  0.00    -0.275 OA
ATOM      5  N   UNL     1      90.944  93.698  75.182  1.00  0.00    -0.352 N 
ATOM      6  H   UNL     1      90.634  94.568  75.606  1.00  0.00     0.163 HD
BRANCH   5   7
ATOM      7  C   UNL     1      89.953  92.667  74.971  1.00  0.00     0.151 C 
BRANCH   7   8
ATOM      8  C   UNL     1      89.996  91.620  76.046  1.00  0.00    -0.025 A 
ATOM      9  C   UNL     1      90.005  90.275  75.696  1.00  0.00     0.056 A 
ATOM     10  C   UNL     1      90.026  92.006  77.380  1.00  0.00     0.009 A 
ATOM     11  C   UNL     1      90.044  89.302  76.694  1.00  0.00     0.160 A 
ATOM     12  C   UNL     1      90.065  91.032  78.379  1.00  0.00     0.050 A 
ATOM     13  C   UNL     1      90.074  89.681  78.037  1.00  0.00     0.157 A 
BRANCH  11  14
ATOM     14  O   UNL     1      90.052  87.984  76.347  1.00  0.00    -0.493 OA
ATOM     15  C   UNL     1      89.346  87.623  75.161  1.00  0.00     0.278 C 
ENDBRANCH  11  14
BRANCH  13  16
ATOM     16  O   UNL     1      90.113  88.740  79.021  1.00  0.00    -0.504 OA
ATOM     17  H   UNL     1      91.024  88.668  79.354  1.00  0.00     0.293 HD
ENDBRANCH  13  16
ENDBRANCH   7   8
ENDBRANCH   5   7
ENDBRANCH   2   3
ENDBRANCH   1   2
BRANCH   1  18
ATOM     18  C   UNL     1      95.392  95.695  75.781  1.00  0.00     0.001 C 
BRANCH  18  19
ATOM     19  C   UNL     1      95.855  96.436  74.523  1.00  0.00     0.000 C 
BRANCH  19  20
ATOM     20  C   UNL     1      94.977  97.641  74.173  1.00  0.00     0.000 C 
BRANCH  20  21
ATOM     21  C   UNL     1      95.686  98.987  74.360  1.00  0.00     0.000 C 
BRANCH  21  22
ATOM     22  C   UNL     1      94.723 100.145  74.644  1.00  0.00     0.003 C 
BRANCH  22  23
ATOM     23  C   UNL     1      93.477 100.143  73.737  1.00  0.00    -0.017 C 
ATOM     24  C   UNL     1      93.847 100.667  72.348  1.00  0.00     0.007 C 
ATOM     25  C   UNL     1      92.332 100.978  74.313  1.00  0.00     0.007 C 
ENDBRANCH  22  23
ENDBRANCH  21  22
ENDBRANCH  20  21
ENDBRANCH  19  20
ENDBRANCH  18  19
ENDBRANCH   1  18
TORSDOF 12
ENDMDL
MODEL 8
REMARK VINA RESULT:    -5.708     24.520     27.914
REMARK INTER + INTRA:         -10.541
REMARK INTER:                  -9.379
REMARK INTRA:                  -1.162
REMARK UNBOUND:                -0.996
REMARK SMILES COc1cc(CNC(=O)CCCCCCCC(C)C)ccc1O
REMARK SMILES IDX 11 1 10 2 8 3 9 4 7 5 6 7 5 8 4 9 20 10 3 11 21 12 22 13
REMARK SMILES IDX 2 14 1 15 23 16 12 18 13 19 14 20 15 21 16 22 17 23 18 24
REMARK SMILES IDX 19 25
REMARK H PARENT 7 6 23 17
REMARK Flexibility Score: inf
ROOT
ATOM      1  C   UNL     1      82.496  68.277  71.533  1.00  0.00     0.010 C 
ENDROOT
BRANCH   1   2
ATOM      2  C   UNL     1      83.895  67.829  71.113  1.00  0.00     0.100 C 
BRANCH   2   3
ATOM      3  C   UNL     1      84.988  68.650  71.777  1.00  0.00     0.220 C 
ATOM      4  O   UNL     1      84.877  69.140  72.897  1.00  0.00    -0.275 OA
ATOM      5  N   UNL     1      86.101  68.772  70.958  1.00  0.00    -0.352 N 
ATOM      6  H   UNL     1      86.098  68.340  70.038  1.00  0.00     0.163 HD
BRANCH   5   7
ATOM      7  C   UNL     1      87.281  69.511  71.346  1.00  0.00     0.151 C 
BRANCH   7   8
ATOM      8  C   UNL     1      87.714  70.476  70.281  1.00  0.00    -0.025 A 
ATOM      9  C   UNL     1      86.938  70.634  69.139  1.00  0.00     0.056 A 
ATOM     10  C   UNL     1      88.887  71.201  70.448  1.00  0.00     0.009 A 
ATOM     11  C   UNL     1      87.341  71.531  68.149  1.00  0.00     0.160 A 
ATOM     12  C   UNL     1      89.290  72.098  69.457  1.00  0.00     0.050 A 
ATOM     13  C   UNL     1      88.518  72.263  68.308  1.00  0.00     0.157 A 
BRANCH  11  14
ATOM     14  O   UNL     1      86.578  71.682  67.031  1.00  0.00    -0.493 OA
ATOM     15  C   UNL     1      86.676  70.664  66.036  1.00  0.00     0.278 C 
ENDBRANCH  11  14
BRANCH  13  16
ATOM     16  O   UNL     1      88.921  73.142  67.349  1.00  0.00    -0.504 OA
ATOM     17  H   UNL     1      88.406  73.962  67.435  1.00  0.00     0.293 HD
ENDBRANCH  13  16
ENDBRANCH   7   8
ENDBRANCH   5   7
ENDBRANCH   2   3
ENDBRANCH   1   2
BRANCH   1  18
ATOM     18  C   UNL     1      81.376  67.431  70.921  1.00  0.00     0.001 C 
BRANCH  18  19
ATOM     19  C   UNL     1      80.239  67.045  71.873  1.00  0.00     0.000 C 
BRANCH  19  20
ATOM     20  C   UNL     1      80.209  65.551  72.206  1.00  0.00     0.000 C 
BRANCH  20  21
ATOM     21  C   UNL     1      80.034  65.263  73.701  1.00  0.00     0.000 C 
BRANCH  21  22
ATOM     22  C   UNL     1      80.687  66.316  74.602  1.00  0.00     0.003 C 
BRANCH  22  23
ATOM     23  C   UNL     1      82.076  65.901  75.124  1.00  0.00    -0.017 C 
ATOM     24  C   UNL     1      81.933  65.198  76.476  1.00  0.00     0.007 C 
ATOM     25  C   UNL     1      83.030  67.089  75.261  1.00  0.00     0.007 C 
ENDBRANCH  22  23
ENDBRANCH  21  22
ENDBRANCH  20  21
ENDBRANCH  19  20
ENDBRANCH  18  19
ENDBRANCH   1  18
TORSDOF 12
ENDMDL
MODEL 9
REMARK VINA RESULT:    -5.668     26.311     29.120
REMARK INTER + INTRA:         -10.475
REMARK INTER:                  -8.874
REMARK INTRA:                  -1.601
REMARK UNBOUND:                -0.996
REMARK SMILES COc1cc(CNC(=O)CCCCCCCC(C)C)ccc1O
REMARK SMILES IDX 11 1 10 2 8 3 9 4 7 5 6 7 5 8 4 9 20 10 3 11 21 12 22 13
REMARK SMILES IDX 2 14 1 15 23 16 12 18 13 19 14 20 15 21 16 22 17 23 18 24
REMARK SMILES IDX 19 25
REMARK H PARENT 7 6 23 17
REMARK Flexibility Score: inf
ROOT
ATOM      1  C   UNL     1      81.351  66.273  75.078  1.00  0.00     0.010 C 
ENDROOT
BRANCH   1   2
ATOM      2  C   UNL     1      81.631  64.905  75.695  1.00  0.00     0.100 C 
BRANCH   2   3
ATOM      3  C   UNL     1      83.048  64.792  76.235  1.00  0.00     0.220 C 
ATOM      4  O   UNL     1      83.339  64.140  77.233  1.00  0.00    -0.275 OA
ATOM      5  N   UNL     1      83.945  65.518  75.465  1.00  0.00    -0.352 N 
ATOM      6  H   UNL     1      83.609  66.039  74.660  1.00  0.00     0.163 HD
BRANCH   5   7
ATOM      7  C   UNL     1      85.357  65.587  75.765  1.00  0.00     0.151 C 
BRANCH   7   8
ATOM      8  C   UNL     1      85.696  66.791  76.595  1.00  0.00    -0.025 A 
ATOM      9  C   UNL     1      86.223  66.620  77.870  1.00  0.00     0.056 A 
ATOM     10  C   UNL     1      85.480  68.063  76.081  1.00  0.00     0.009 A 
ATOM     11  C   UNL     1      86.538  67.739  78.642  1.00  0.00     0.160 A 
ATOM     12  C   UNL     1      85.795  69.182  76.853  1.00  0.00     0.050 A 
ATOM     13  C   UNL     1      86.324  69.020  78.134  1.00  0.00     0.157 A 
BRANCH  11  14
ATOM     14  O   UNL     1      87.053  67.567  79.891  1.00  0.00    -0.493 OA
ATOM     15  C   UNL     1      87.255  66.225  80.330  1.00  0.00     0.278 C 
ENDBRANCH  11  14
BRANCH  13  16
ATOM     16  O   UNL     1      86.628  70.120  78.877  1.00  0.00    -0.504 OA
ATOM     17  H   UNL     1      87.463  70.499  78.553  1.00  0.00     0.293 HD
ENDBRANCH  13  16
ENDBRANCH   7   8
ENDBRANCH   5   7
ENDBRANCH   2   3
ENDBRANCH   1   2
BRANCH   1  18
ATOM     18  C   UNL     1      80.130  66.287  74.154  1.00  0.00     0.001 C 
BRANCH  18  19
ATOM     19  C   UNL     1      80.178  65.308  72.976  1.00  0.00     0.000 C 
BRANCH  19  20
ATOM     20  C   UNL     1      80.246  66.003  71.613  1.00  0.00     0.000 C 
BRANCH  20  21
ATOM     21  C   UNL     1      81.668  66.406  71.205  1.00  0.00     0.000 C 
BRANCH  21  22
ATOM     22  C   UNL     1      81.838  67.917  71.014  1.00  0.00     0.003 C 
BRANCH  22  23
ATOM     23  C   UNL     1      82.791  68.562  72.039  1.00  0.00    -0.017 C 
ATOM     24  C   UNL     1      83.498  69.763  71.405  1.00  0.00     0.007 C 
ATOM     25  C   UNL     1      83.832  67.577  72.573  1.00  0.00     0.007 C 
ENDBRANCH  22  23
ENDBRANCH  21  22
ENDBRANCH  20  21
ENDBRANCH  19  20
ENDBRANCH  18  19
ENDBRANCH   1  18
TORSDOF 12
ENDMDL
MODEL 10
REMARK VINA RESULT:    -5.589     27.185     30.298
REMARK INTER + INTRA:         -10.343
REMARK INTER:                  -8.169
REMARK INTRA:                  -2.174
REMARK UNBOUND:                -0.996
REMARK SMILES COc1cc(CNC(=O)CCCCCCCC(C)C)ccc1O
REMARK SMILES IDX 11 1 10 2 8 3 9 4 7 5 6 7 5 8 4 9 20 10 3 11 21 12 22 13
REMARK SMILES IDX 2 14 1 15 23 16 12 18 13 19 14 20 15 21 16 22 17 23 18 24
REMARK SMILES IDX 19 25
REMARK H PARENT 7 6 23 17
REMARK Flexibility Score: inf
ROOT
ATOM      1  C   UNL     1      81.144  65.771  70.413  1.00  0.00     0.010 C 
ENDROOT
BRANCH   1   2
ATOM      2  C   UNL     1      80.278  66.869  71.028  1.00  0.00     0.100 C 
BRANCH   2   3
ATOM      3  C   UNL     1      80.656  67.163  72.470  1.00  0.00     0.220 C 
ATOM      4  O   UNL     1      81.193  68.208  72.826  1.00  0.00    -0.275 OA
ATOM      5  N   UNL     1      80.324  66.110  73.309  1.00  0.00    -0.352 N 
ATOM      6  H   UNL     1      79.890  65.276  72.921  1.00  0.00     0.163 HD
BRANCH   5   7
ATOM      7  C   UNL     1      80.583  66.129  74.730  1.00  0.00     0.151 C 
BRANCH   7   8
ATOM      8  C   UNL     1      81.850  65.403  75.080  1.00  0.00    -0.025 A 
ATOM      9  C   UNL     1      82.809  66.031  75.865  1.00  0.00     0.056 A 
ATOM     10  C   UNL     1      82.050  64.109  74.614  1.00  0.00     0.009 A 
ATOM     11  C   UNL     1      83.985  65.356  76.189  1.00  0.00     0.160 A 
ATOM     12  C   UNL     1      83.228  63.434  74.938  1.00  0.00     0.050 A 
ATOM     13  C   UNL     1      84.196  64.058  75.725  1.00  0.00     0.157 A 
BRANCH  11  14
ATOM     14  O   UNL     1      84.924  65.976  76.959  1.00  0.00    -0.493 OA
ATOM     15  C   UNL     1      84.771  67.381  77.160  1.00  0.00     0.278 C 
ENDBRANCH  11  14
BRANCH  13  16
ATOM     16  O   UNL     1      85.340  63.388  76.036  1.00  0.00    -0.504 OA
ATOM     17  H   UNL     1      85.871  63.277  75.228  1.00  0.00     0.293 HD
ENDBRANCH  13  16
ENDBRANCH   7   8
ENDBRANCH   5   7
ENDBRANCH   2   3
ENDBRANCH   1   2
BRANCH   1  18
ATOM     18  C   UNL     1      82.644  66.070  70.475  1.00  0.00     0.001 C 
BRANCH  18  19
ATOM     19  C   UNL     1      83.449  65.227  71.469  1.00  0.00     0.000 C 
BRANCH  19  20
ATOM     20  C   UNL     1      84.346  66.064  72.385  1.00  0.00     0.000 C 
BRANCH  20  21
ATOM     21  C   UNL     1      84.869  67.343  71.724  1.00  0.00     0.000 C 
BRANCH  21  22
ATOM     22  C   UNL     1      84.758  68.580  72.622  1.00  0.00     0.003 C 
BRANCH  22  23
ATOM     23  C   UNL     1      84.812  69.910  71.845  1.00  0.00    -0.017 C 
ATOM     24  C   UNL     1      83.542  70.071  71.007  1.00  0.00     0.007 C 
ATOM     25  C   UNL     1      86.041  70.010  70.940  1.00  0.00     0.007 C 
ENDBRANCH  22  23
ENDBRANCH  21  22
ENDBRANCH  20  21
ENDBRANCH  19  20
ENDBRANCH  18  19
ENDBRANCH   1  18
TORSDOF 12
ENDMDL
