MODEL 1
REMARK VINA RESULT:    -6.077      0.000      0.000
REMARK INTER + INTRA:         -10.381
REMARK INTER:                  -9.807
REMARK INTRA:                  -0.575
REMARK UNBOUND:                -0.575
REMARK SMILES COc1cc(CNC(=O)CCCCCCC(C)C)ccc1O
REMARK SMILES IDX 11 1 10 2 8 3 7 4 9 6 6 7 5 8 3 9 21 10 4 11 20 12 19 13
REMARK SMILES IDX 2 14 1 15 22 16 12 18 13 19 14 20 15 21 16 22 17 23 18 24
REMARK H PARENT 7 5 22 17
REMARK Flexibility Score: inf
ROOT
ATOM      1  C   UNL     1      95.419  97.543  73.340  1.00  0.00     0.010 C 
ENDROOT
BRANCH   1   2
ATOM      2  C   UNL     1      94.202  97.101  74.199  1.00  0.00     0.100 C 
BRANCH   2   3
ATOM      3  C   UNL     1      94.444  95.853  74.957  1.00  0.00     0.220 C 
ATOM      4  N   UNL     1      93.396  95.120  75.432  1.00  0.00    -0.352 N 
ATOM      5  H   UNL     1      92.487  95.525  75.259  1.00  0.00     0.163 HD
ATOM      6  O   UNL     1      95.629  95.474  75.131  1.00  0.00    -0.275 OA
BRANCH   4   7
ATOM      7  C   UNL     1      93.506  93.873  76.125  1.00  0.00     0.151 C 
BRANCH   7   8
ATOM      8  C   UNL     1      92.219  93.128  76.200  1.00  0.00    -0.025 A 
ATOM      9  C   UNL     1      90.375  91.944  75.083  1.00  0.00     0.160 A 
ATOM     10  C   UNL     1      89.789  91.669  76.338  1.00  0.00     0.157 A 
ATOM     11  C   UNL     1      91.574  92.686  75.023  1.00  0.00     0.056 A 
ATOM     12  C   UNL     1      90.401  92.137  77.514  1.00  0.00     0.050 A 
ATOM     13  C   UNL     1      91.613  92.852  77.448  1.00  0.00     0.009 A 
BRANCH   9  14
ATOM     14  O   UNL     1      89.767  91.527  73.930  1.00  0.00    -0.493 OA
ATOM     15  C   UNL     1      90.690  91.167  72.886  1.00  0.00     0.278 C 
ENDBRANCH   9  14
BRANCH  10  16
ATOM     16  O   UNL     1      88.634  90.958  76.426  1.00  0.00    -0.504 OA
ATOM     17  H   UNL     1      87.959  91.496  76.846  1.00  0.00     0.293 HD
ENDBRANCH  10  16
ENDBRANCH   7   8
ENDBRANCH   4   7
ENDBRANCH   2   3
ENDBRANCH   1   2
BRANCH   1  18
ATOM     18  C   UNL     1      94.983  98.257  72.029  1.00  0.00     0.001 C 
BRANCH  18  19
ATOM     19  C   UNL     1      93.461  98.564  71.959  1.00  0.00     0.000 C 
BRANCH  19  20
ATOM     20  C   UNL     1      92.872  98.221  70.562  1.00  0.00     0.000 C 
BRANCH  20  21
ATOM     21  C   UNL     1      92.424  99.459  69.737  1.00  0.00     0.003 C 
BRANCH  21  22
ATOM     22  C   UNL     1      91.010  99.327  69.082  1.00  0.00    -0.017 C 
ATOM     23  C   UNL     1      90.394  97.934  69.393  1.00  0.00     0.007 C 
ATOM     24  C   UNL     1      91.005  99.595  67.548  1.00  0.00     0.007 C 
ENDBRANCH  21  22
ENDBRANCH  20  21
ENDBRANCH  19  20
ENDBRANCH  18  19
ENDBRANCH   1  18
TORSDOF 11
ENDMDL
MODEL 2
REMARK VINA RESULT:    -5.955     24.517     28.757
REMARK INTER + INTRA:         -10.185
REMARK INTER:                  -9.099
REMARK INTRA:                  -1.085
REMARK UNBOUND:                -0.575
REMARK SMILES COc1cc(CNC(=O)CCCCCCC(C)C)ccc1O
REMARK SMILES IDX 11 1 10 2 8 3 7 4 9 6 6 7 5 8 3 9 21 10 4 11 20 12 19 13
REMARK SMILES IDX 2 14 1 15 22 16 12 18 13 19 14 20 15 21 16 22 17 23 18 24
REMARK H PARENT 7 5 22 17
REMARK Flexibility Score: inf
ROOT
ATOM      1  C   UNL     1      82.042  67.762  71.223  1.00  0.00     0.010 C 
ENDROOT
BRANCH   1   2
ATOM      2  C   UNL     1      82.745  68.768  72.176  1.00  0.00     0.100 C 
BRANCH   2   3
ATOM      3  C   UNL     1      84.202  68.536  72.300  1.00  0.00     0.220 C 
ATOM      4  N   UNL     1      85.058  69.008  71.349  1.00  0.00    -0.352 N 
ATOM      5  H   UNL     1      84.610  69.468  70.570  1.00  0.00     0.163 HD
ATOM      6  O   UNL     1      84.629  67.919  73.307  1.00  0.00    -0.275 OA
BRANCH   4   7
ATOM      7  C   UNL     1      86.484  68.895  71.392  1.00  0.00     0.151 C 
BRANCH   7   8
ATOM      8  C   UNL     1      87.180  69.922  70.569  1.00  0.00    -0.025 A 
ATOM      9  C   UNL     1      87.247  71.371  68.583  1.00  0.00     0.160 A 
ATOM     10  C   UNL     1      88.477  71.912  69.017  1.00  0.00     0.157 A 
ATOM     11  C   UNL     1      86.619  70.368  69.351  1.00  0.00     0.056 A 
ATOM     12  C   UNL     1      89.065  71.448  70.207  1.00  0.00     0.050 A 
ATOM     13  C   UNL     1      88.417  70.468  70.984  1.00  0.00     0.009 A 
BRANCH   9  14
ATOM     14  O   UNL     1      86.686  71.787  67.406  1.00  0.00    -0.493 OA
ATOM     15  C   UNL     1      86.683  70.780  66.377  1.00  0.00     0.278 C 
ENDBRANCH   9  14
BRANCH  10  16
ATOM     16  O   UNL     1      89.106  72.877  68.296  1.00  0.00    -0.504 OA
ATOM     17  H   UNL     1      89.682  72.467  67.647  1.00  0.00     0.293 HD
ENDBRANCH  10  16
ENDBRANCH   7   8
ENDBRANCH   4   7
ENDBRANCH   2   3
ENDBRANCH   1   2
BRANCH   1  18
ATOM     18  C   UNL     1      80.585  67.450  71.670  1.00  0.00     0.001 C 
BRANCH  18  19
ATOM     19  C   UNL     1      80.210  65.944  71.577  1.00  0.00     0.000 C 
BRANCH  19  20
ATOM     20  C   UNL     1      80.154  65.280  72.981  1.00  0.00     0.000 C 
BRANCH  20  21
ATOM     21  C   UNL     1      80.261  66.282  74.164  1.00  0.00     0.003 C 
BRANCH  21  22
ATOM     22  C   UNL     1      81.662  66.321  74.858  1.00  0.00    -0.017 C 
ATOM     23  C   UNL     1      82.575  65.192  74.303  1.00  0.00     0.007 C 
ATOM     24  C   UNL     1      81.593  66.253  76.412  1.00  0.00     0.007 C 
ENDBRANCH  21  22
ENDBRANCH  20  21
ENDBRANCH  19  20
ENDBRANCH  18  19
ENDBRANCH   1  18
TORSDOF 11
ENDMDL
MODEL 3
REMARK VINA RESULT:    -5.907     29.213     31.459
REMARK INTER + INTRA:         -10.108
REMARK INTER:                  -9.204
REMARK INTRA:                  -0.903
REMARK UNBOUND:                -0.575
REMARK SMILES COc1cc(CNC(=O)CCCCCCC(C)C)ccc1O
REMARK SMILES IDX 11 1 10 2 8 3 7 4 9 6 6 7 5 8 3 9 21 10 4 11 20 12 19 13
REMARK SMILES IDX 2 14 1 15 22 16 12 18 13 19 14 20 15 21 16 22 17 23 18 24
REMARK H PARENT 7 5 22 17
REMARK Flexibility Score: inf
ROOT
ATOM      1  C   UNL     1      81.632  66.231  76.380  1.00  0.00     0.010 C 
ENDROOT
BRANCH   1   2
ATOM      2  C   UNL     1      82.148  64.774  76.538  1.00  0.00     0.100 C 
BRANCH   2   3
ATOM      3  C   UNL     1      83.550  64.697  77.007  1.00  0.00     0.220 C 
ATOM      4  N   UNL     1      83.949  63.679  77.821  1.00  0.00    -0.352 N 
ATOM      5  H   UNL     1      83.214  63.043  78.092  1.00  0.00     0.163 HD
ATOM      6  O   UNL     1      84.362  65.573  76.619  1.00  0.00    -0.275 OA
BRANCH   4   7
ATOM      7  C   UNL     1      85.286  63.470  78.288  1.00  0.00     0.151 C 
BRANCH   7   8
ATOM      8  C   UNL     1      85.579  64.179  79.564  1.00  0.00    -0.025 A 
ATOM      9  C   UNL     1      86.638  66.042  80.771  1.00  0.00     0.160 A 
ATOM     10  C   UNL     1      86.105  65.561  81.986  1.00  0.00     0.157 A 
ATOM     11  C   UNL     1      86.387  65.339  79.574  1.00  0.00     0.056 A 
ATOM     12  C   UNL     1      85.331  64.387  81.995  1.00  0.00     0.050 A 
ATOM     13  C   UNL     1      85.061  63.705  80.793  1.00  0.00     0.009 A 
BRANCH   9  14
ATOM     14  O   UNL     1      87.425  67.162  80.756  1.00  0.00    -0.493 OA
ATOM     15  C   UNL     1      88.173  67.330  79.538  1.00  0.00     0.278 C 
ENDBRANCH   9  14
BRANCH  10  16
ATOM     16  O   UNL     1      86.332  66.218  83.154  1.00  0.00    -0.504 OA
ATOM     17  H   UNL     1      86.337  67.164  82.993  1.00  0.00     0.293 HD
ENDBRANCH  10  16
ENDBRANCH   7   8
ENDBRANCH   4   7
ENDBRANCH   2   3
ENDBRANCH   1   2
BRANCH   1  18
ATOM     18  C   UNL     1      81.239  66.559  74.911  1.00  0.00     0.001 C 
BRANCH  18  19
ATOM     19  C   UNL     1      81.352  65.345  73.947  1.00  0.00     0.000 C 
BRANCH  19  20
ATOM     20  C   UNL     1      80.073  65.183  73.078  1.00  0.00     0.000 C 
BRANCH  20  21
ATOM     21  C   UNL     1      80.154  65.876  71.689  1.00  0.00     0.003 C 
BRANCH  21  22
ATOM     22  C   UNL     1      81.595  66.304  71.259  1.00  0.00    -0.017 C 
ATOM     23  C   UNL     1      81.628  67.815  70.897  1.00  0.00     0.007 C 
ATOM     24  C   UNL     1      82.179  65.451  70.095  1.00  0.00     0.007 C 
ENDBRANCH  21  22
ENDBRANCH  20  21
ENDBRANCH  19  20
ENDBRANCH  18  19
ENDBRANCH   1  18
TORSDOF 11
ENDMDL
MODEL 4
REMARK VINA RESULT:    -5.839     26.065     29.704
REMARK INTER + INTRA:          -9.997
REMARK INTER:                  -8.452
REMARK INTRA:                  -1.545
REMARK UNBOUND:                -0.575
REMARK SMILES COc1cc(CNC(=O)CCCCCCC(C)C)ccc1O
REMARK SMILES IDX 11 1 10 2 8 3 7 4 9 6 6 7 5 8 3 9 21 10 4 11 20 12 19 13
REMARK SMILES IDX 2 14 1 15 22 16 12 18 13 19 14 20 15 21 16 22 17 23 18 24
REMARK H PARENT 7 5 22 17
REMARK Flexibility Score: inf
ROOT
ATOM      1  C   UNL     1      81.517  66.290  70.804  1.00  0.00     0.010 C 
ENDROOT
BRANCH   1   2
ATOM      2  C   UNL     1      82.153  67.698  70.965  1.00  0.00     0.100 C 
BRANCH   2   3
ATOM      3  C   UNL     1      83.597  67.655  71.290  1.00  0.00     0.220 C 
ATOM      4  N   UNL     1      84.160  68.632  72.058  1.00  0.00    -0.352 N 
ATOM      5  H   UNL     1      83.529  69.373  72.326  1.00  0.00     0.163 HD
ATOM      6  O   UNL     1      84.280  66.691  70.866  1.00  0.00    -0.275 OA
BRANCH   4   7
ATOM      7  C   UNL     1      85.527  68.664  72.483  1.00  0.00     0.151 C 
BRANCH   7   8
ATOM      8  C   UNL     1      85.686  69.014  73.921  1.00  0.00    -0.025 A 
ATOM      9  C   UNL     1      85.239  68.534  76.291  1.00  0.00     0.160 A 
ATOM     10  C   UNL     1      86.021  69.649  76.666  1.00  0.00     0.157 A 
ATOM     11  C   UNL     1      85.063  68.237  74.924  1.00  0.00     0.056 A 
ATOM     12  C   UNL     1      86.614  70.453  75.676  1.00  0.00     0.050 A 
ATOM     13  C   UNL     1      86.457  70.133  74.314  1.00  0.00     0.009 A 
BRANCH   9  14
ATOM     14  O   UNL     1      84.626  67.768  77.245  1.00  0.00    -0.493 OA
ATOM     15  C   UNL     1      85.339  66.561  77.567  1.00  0.00     0.278 C 
ENDBRANCH   9  14
BRANCH  10  16
ATOM     16  O   UNL     1      86.207  69.960  77.976  1.00  0.00    -0.504 OA
ATOM     17  H   UNL     1      86.993  70.503  78.067  1.00  0.00     0.293 HD
ENDBRANCH  10  16
ENDBRANCH   7   8
ENDBRANCH   4   7
ENDBRANCH   2   3
ENDBRANCH   1   2
BRANCH   1  18
ATOM     18  C   UNL     1      80.144  66.180  71.526  1.00  0.00     0.001 C 
BRANCH  18  19
ATOM     19  C   UNL     1      80.161  65.238  72.763  1.00  0.00     0.000 C 
BRANCH  19  20
ATOM     20  C   UNL     1      80.082  66.040  74.093  1.00  0.00     0.000 C 
BRANCH  20  21
ATOM     21  C   UNL     1      81.401  66.766  74.477  1.00  0.00     0.003 C 
BRANCH  21  22
ATOM     22  C   UNL     1      82.407  65.897  75.300  1.00  0.00    -0.017 C 
ATOM     23  C   UNL     1      83.287  65.038  74.349  1.00  0.00     0.007 C 
ATOM     24  C   UNL     1      81.724  64.996  76.372  1.00  0.00     0.007 C 
ENDBRANCH  21  22
ENDBRANCH  20  21
ENDBRANCH  19  20
ENDBRANCH  18  19
ENDBRANCH   1  18
TORSDOF 11
ENDMDL
MODEL 5
REMARK VINA RESULT:    -5.811     15.817     18.767
REMARK INTER + INTRA:          -9.953
REMARK INTER:                  -8.597
REMARK INTRA:                  -1.356
REMARK UNBOUND:                -0.575
REMARK SMILES COc1cc(CNC(=O)CCCCCCC(C)C)ccc1O
REMARK SMILES IDX 11 1 10 2 8 3 7 4 9 6 6 7 5 8 3 9 21 10 4 11 20 12 19 13
REMARK SMILES IDX 2 14 1 15 22 16 12 18 13 19 14 20 15 21 16 22 17 23 18 24
REMARK H PARENT 7 5 22 17
REMARK Flexibility Score: inf
ROOT
ATOM      1  C   UNL     1      80.897  86.664  86.906  1.00  0.00     0.010 C 
ENDROOT
BRANCH   1   2
ATOM      2  C   UNL     1      80.318  86.580  88.346  1.00  0.00     0.100 C 
BRANCH   2   3
ATOM      3  C   UNL     1      80.907  87.574  89.272  1.00  0.00     0.220 C 
ATOM      4  N   UNL     1      82.189  88.005  89.096  1.00  0.00    -0.352 N 
ATOM      5  H   UNL     1      82.682  87.562  88.334  1.00  0.00     0.163 HD
ATOM      6  O   UNL     1      80.194  88.025  90.201  1.00  0.00    -0.275 OA
BRANCH   4   7
ATOM      7  C   UNL     1      82.842  89.001  89.890  1.00  0.00     0.151 C 
BRANCH   7   8
ATOM      8  C   UNL     1      83.176  90.234  89.125  1.00  0.00    -0.025 A 
ATOM      9  C   UNL     1      84.387  91.342  87.294  1.00  0.00     0.160 A 
ATOM     10  C   UNL     1      83.783  92.572  87.635  1.00  0.00     0.157 A 
ATOM     11  C   UNL     1      84.094  90.189  88.051  1.00  0.00     0.056 A 
ATOM     12  C   UNL     1      82.898  92.638  88.726  1.00  0.00     0.050 A 
ATOM     13  C   UNL     1      82.587  91.477  89.460  1.00  0.00     0.009 A 
BRANCH   9  14
ATOM     14  O   UNL     1      85.280  91.275  86.259  1.00  0.00    -0.493 OA
ATOM     15  C   UNL     1      85.738  89.940  85.975  1.00  0.00     0.278 C 
ENDBRANCH   9  14
BRANCH  10  16
ATOM     16  O   UNL     1      84.049  93.699  86.924  1.00  0.00    -0.504 OA
ATOM     17  H   UNL     1      84.984  93.729  86.710  1.00  0.00     0.293 HD
ENDBRANCH  10  16
ENDBRANCH   7   8
ENDBRANCH   4   7
ENDBRANCH   2   3
ENDBRANCH   1   2
BRANCH   1  18
ATOM     18  C   UNL     1      80.056  85.844  85.887  1.00  0.00     0.001 C 
BRANCH  18  19
ATOM     19  C   UNL     1      80.445  86.099  84.404  1.00  0.00     0.000 C 
BRANCH  19  20
ATOM     20  C   UNL     1      79.822  87.419  83.868  1.00  0.00     0.000 C 
BRANCH  20  21
ATOM     21  C   UNL     1      80.865  88.501  83.472  1.00  0.00     0.003 C 
BRANCH  21  22
ATOM     22  C   UNL     1      80.837  89.788  84.360  1.00  0.00    -0.017 C 
ATOM     23  C   UNL     1      82.058  89.811  85.322  1.00  0.00     0.007 C 
ATOM     24  C   UNL     1      79.511  89.969  85.156  1.00  0.00     0.007 C 
ENDBRANCH  21  22
ENDBRANCH  20  21
ENDBRANCH  19  20
ENDBRANCH  18  19
ENDBRANCH   1  18
TORSDOF 11
ENDMDL
MODEL 6
REMARK VINA RESULT:    -5.683     27.126     30.006
REMARK INTER + INTRA:          -9.747
REMARK INTER:                  -8.664
REMARK INTRA:                  -1.083
REMARK UNBOUND:                -0.575
REMARK SMILES COc1cc(CNC(=O)CCCCCCC(C)C)ccc1O
REMARK SMILES IDX 11 1 10 2 8 3 7 4 9 6 6 7 5 8 3 9 21 10 4 11 20 12 19 13
REMARK SMILES IDX 2 14 1 15 22 16 12 18 13 19 14 20 15 21 16 22 17 23 18 24
REMARK H PARENT 7 5 22 17
REMARK Flexibility Score: inf
ROOT
ATOM      1  C   UNL     1      80.984  64.628  74.923  1.00  0.00     0.010 C 
ENDROOT
BRANCH   1   2
ATOM      2  C   UNL     1      82.210  64.832  75.855  1.00  0.00     0.100 C 
BRANCH   2   3
ATOM      3  C   UNL     1      82.568  66.256  76.046  1.00  0.00     0.220 C 
ATOM      4  N   UNL     1      83.846  66.681  75.827  1.00  0.00    -0.352 N 
ATOM      5  H   UNL     1      84.496  65.950  75.579  1.00  0.00     0.163 HD
ATOM      6  O   UNL     1      81.668  67.061  76.389  1.00  0.00    -0.275 OA
BRANCH   4   7
ATOM      7  C   UNL     1      84.294  68.037  75.924  1.00  0.00     0.151 C 
BRANCH   7   8
ATOM      8  C   UNL     1      85.244  68.262  77.048  1.00  0.00    -0.025 A 
ATOM      9  C   UNL     1      86.485  67.407  78.991  1.00  0.00     0.160 A 
ATOM     10  C   UNL     1      87.087  68.672  79.166  1.00  0.00     0.157 A 
ATOM     11  C   UNL     1      85.556  67.217  77.947  1.00  0.00     0.056 A 
ATOM     12  C   UNL     1      86.755  69.731  78.302  1.00  0.00     0.050 A 
ATOM     13  C   UNL     1      85.848  69.526  77.244  1.00  0.00     0.009 A 
BRANCH   9  14
ATOM     14  O   UNL     1      86.771  66.381  79.850  1.00  0.00    -0.493 OA
ATOM     15  C   UNL     1      86.173  65.127  79.475  1.00  0.00     0.278 C 
ENDBRANCH   9  14
BRANCH  10  16
ATOM     16  O   UNL     1      87.985  68.884  80.164  1.00  0.00    -0.504 OA
ATOM     17  H   UNL     1      87.877  68.209  80.839  1.00  0.00     0.293 HD
ENDBRANCH  10  16
ENDBRANCH   7   8
ENDBRANCH   4   7
ENDBRANCH   2   3
ENDBRANCH   1   2
BRANCH   1  18
ATOM     18  C   UNL     1      81.338  64.862  73.427  1.00  0.00     0.001 C 
BRANCH  18  19
ATOM     19  C   UNL     1      80.123  65.284  72.554  1.00  0.00     0.000 C 
BRANCH  19  20
ATOM     20  C   UNL     1      80.577  65.881  71.192  1.00  0.00     0.000 C 
BRANCH  20  21
ATOM     21  C   UNL     1      80.675  67.431  71.176  1.00  0.00     0.003 C 
BRANCH  21  22
ATOM     22  C   UNL     1      82.135  67.991  71.191  1.00  0.00    -0.017 C 
ATOM     23  C   UNL     1      83.110  66.985  70.518  1.00  0.00     0.007 C 
ATOM     24  C   UNL     1      82.643  68.376  72.612  1.00  0.00     0.007 C 
ENDBRANCH  21  22
ENDBRANCH  20  21
ENDBRANCH  19  20
ENDBRANCH  18  19
ENDBRANCH   1  18
TORSDOF 11
ENDMDL
MODEL 7
REMARK VINA RESULT:    -5.569     16.713     19.247
REMARK INTER + INTRA:          -9.562
REMARK INTER:                  -7.966
REMARK INTRA:                  -1.596
REMARK UNBOUND:                -0.575
REMARK SMILES COc1cc(CNC(=O)CCCCCCC(C)C)ccc1O
REMARK SMILES IDX 11 1 10 2 8 3 7 4 9 6 6 7 5 8 3 9 21 10 4 11 20 12 19 13
REMARK SMILES IDX 2 14 1 15 22 16 12 18 13 19 14 20 15 21 16 22 17 23 18 24
REMARK H PARENT 7 5 22 17
REMARK Flexibility Score: inf
ROOT
ATOM      1  C   UNL     1      81.040  86.220  87.849  1.00  0.00     0.010 C 
ENDROOT
BRANCH   1   2
ATOM      2  C   UNL     1      80.257  87.499  88.254  1.00  0.00     0.100 C 
BRANCH   2   3
ATOM      3  C   UNL     1      81.032  88.405  89.132  1.00  0.00     0.220 C 
ATOM      4  N   UNL     1      82.343  88.669  88.865  1.00  0.00    -0.352 N 
ATOM      5  H   UNL     1      82.721  88.169  88.073  1.00  0.00     0.163 HD
ATOM      6  O   UNL     1      80.450  88.941  90.107  1.00  0.00    -0.275 OA
BRANCH   4   7
ATOM      7  C   UNL     1      83.173  89.570  89.606  1.00  0.00     0.151 C 
BRANCH   7   8
ATOM      8  C   UNL     1      83.163  90.957  89.065  1.00  0.00    -0.025 A 
ATOM      9  C   UNL     1      82.725  93.358  89.367  1.00  0.00     0.160 A 
ATOM     10  C   UNL     1      83.183  93.609  88.055  1.00  0.00     0.157 A 
ATOM     11  C   UNL     1      82.701  92.034  89.854  1.00  0.00     0.056 A 
ATOM     12  C   UNL     1      83.609  92.540  87.246  1.00  0.00     0.050 A 
ATOM     13  C   UNL     1      83.610  91.224  87.749  1.00  0.00     0.009 A 
BRANCH   9  14
ATOM     14  O   UNL     1      82.272  94.385  90.149  1.00  0.00    -0.493 OA
ATOM     15  C   UNL     1      83.220  94.823  91.138  1.00  0.00     0.278 C 
ENDBRANCH   9  14
BRANCH  10  16
ATOM     16  O   UNL     1      83.216  94.873  87.559  1.00  0.00    -0.504 OA
ATOM     17  H   UNL     1      83.304  94.839  86.603  1.00  0.00     0.293 HD
ENDBRANCH  10  16
ENDBRANCH   7   8
ENDBRANCH   4   7
ENDBRANCH   2   3
ENDBRANCH   1   2
BRANCH   1  18
ATOM     18  C   UNL     1      81.493  86.255  86.362  1.00  0.00     0.001 C 
BRANCH  18  19
ATOM     19  C   UNL     1      80.353  85.943  85.352  1.00  0.00     0.000 C 
BRANCH  19  20
ATOM     20  C   UNL     1      79.806  87.239  84.689  1.00  0.00     0.000 C 
BRANCH  20  21
ATOM     21  C   UNL     1      80.844  87.993  83.813  1.00  0.00     0.003 C 
BRANCH  21  22
ATOM     22  C   UNL     1      81.252  89.402  84.356  1.00  0.00    -0.017 C 
ATOM     23  C   UNL     1      82.739  89.401  84.807  1.00  0.00     0.007 C 
ATOM     24  C   UNL     1      80.334  89.919  85.503  1.00  0.00     0.007 C 
ENDBRANCH  21  22
ENDBRANCH  20  21
ENDBRANCH  19  20
ENDBRANCH  18  19
ENDBRANCH   1  18
TORSDOF 11
ENDMDL
MODEL 8
REMARK VINA RESULT:    -5.456     14.389     17.492
REMARK INTER + INTRA:          -9.380
REMARK INTER:                  -8.046
REMARK INTRA:                  -1.334
REMARK UNBOUND:                -0.575
REMARK SMILES COc1cc(CNC(=O)CCCCCCC(C)C)ccc1O
REMARK SMILES IDX 11 1 10 2 8 3 7 4 9 6 6 7 5 8 3 9 21 10 4 11 20 12 19 13
REMARK SMILES IDX 2 14 1 15 22 16 12 18 13 19 14 20 15 21 16 22 17 23 18 24
REMARK H PARENT 7 5 22 17
REMARK Flexibility Score: inf
ROOT
ATOM      1  C   UNL     1      97.577  82.002  80.210  1.00  0.00     0.010 C 
ENDROOT
BRANCH   1   2
ATOM      2  C   UNL     1      96.552  82.642  79.233  1.00  0.00     0.100 C 
BRANCH   2   3
ATOM      3  C   UNL     1      96.677  82.144  77.845  1.00  0.00     0.220 C 
ATOM      4  N   UNL     1      96.931  83.011  76.822  1.00  0.00    -0.352 N 
ATOM      5  H   UNL     1      96.975  83.982  77.094  1.00  0.00     0.163 HD
ATOM      6  O   UNL     1      96.569  80.911  77.636  1.00  0.00    -0.275 OA
BRANCH   4   7
ATOM      7  C   UNL     1      97.129  82.639  75.454  1.00  0.00     0.151 C 
BRANCH   7   8
ATOM      8  C   UNL     1      98.561  82.431  75.104  1.00  0.00    -0.025 A 
ATOM      9  C   UNL     1     100.430  80.916  74.595  1.00  0.00     0.160 A 
ATOM     10  C   UNL     1     101.278  82.027  74.394  1.00  0.00     0.157 A 
ATOM     11  C   UNL     1      99.085  81.126  74.966  1.00  0.00     0.056 A 
ATOM     12  C   UNL     1     100.778  83.330  74.566  1.00  0.00     0.050 A 
ATOM     13  C   UNL     1      99.427  83.533  74.908  1.00  0.00     0.009 A 
BRANCH   9  14
ATOM     14  O   UNL     1     100.916  79.644  74.468  1.00  0.00    -0.493 OA
ATOM     15  C   UNL     1      99.947  78.620  74.758  1.00  0.00     0.278 C 
ENDBRANCH   9  14
BRANCH  10  16
ATOM     16  O   UNL     1     102.578  81.855  74.037  1.00  0.00    -0.504 OA
ATOM     17  H   UNL     1     103.035  82.698  74.078  1.00  0.00     0.293 HD
ENDBRANCH  10  16
ENDBRANCH   7   8
ENDBRANCH   4   7
ENDBRANCH   2   3
ENDBRANCH   1   2
BRANCH   1  18
ATOM     18  C   UNL     1      99.040  82.410  79.874  1.00  0.00     0.001 C 
BRANCH  18  19
ATOM     19  C   UNL     1     100.060  82.058  80.993  1.00  0.00     0.000 C 
BRANCH  19  20
ATOM     20  C   UNL     1     100.673  80.644  80.785  1.00  0.00     0.000 C 
BRANCH  20  21
ATOM     21  C   UNL     1     102.199  80.647  80.495  1.00  0.00     0.003 C 
BRANCH  21  22
ATOM     22  C   UNL     1     102.589  80.165  79.059  1.00  0.00    -0.017 C 
ATOM     23  C   UNL     1     104.135  80.146  78.893  1.00  0.00     0.007 C 
ATOM     24  C   UNL     1     101.929  80.995  77.919  1.00  0.00     0.007 C 
ENDBRANCH  21  22
ENDBRANCH  20  21
ENDBRANCH  19  20
ENDBRANCH  18  19
ENDBRANCH   1  18
TORSDOF 11
ENDMDL
MODEL 9
REMARK VINA RESULT:    -5.436     26.767     30.390
REMARK INTER + INTRA:          -9.347
REMARK INTER:                  -8.218
REMARK INTRA:                  -1.129
REMARK UNBOUND:                -0.575
REMARK SMILES COc1cc(CNC(=O)CCCCCCC(C)C)ccc1O
REMARK SMILES IDX 11 1 10 2 8 3 7 4 9 6 6 7 5 8 3 9 21 10 4 11 20 12 19 13
REMARK SMILES IDX 2 14 1 15 22 16 12 18 13 19 14 20 15 21 16 22 17 23 18 24
REMARK H PARENT 7 5 22 17
REMARK Flexibility Score: inf
ROOT
ATOM      1  C   UNL     1      84.233  63.311  75.494  1.00  0.00     0.010 C 
ENDROOT
BRANCH   1   2
ATOM      2  C   UNL     1      83.943  63.823  76.932  1.00  0.00     0.100 C 
BRANCH   2   3
ATOM      3  C   UNL     1      84.401  65.211  77.163  1.00  0.00     0.220 C 
ATOM      4  N   UNL     1      83.730  66.260  76.606  1.00  0.00    -0.352 N 
ATOM      5  H   UNL     1      82.956  65.998  76.014  1.00  0.00     0.163 HD
ATOM      6  O   UNL     1      85.401  65.399  77.899  1.00  0.00    -0.275 OA
BRANCH   4   7
ATOM      7  C   UNL     1      84.045  67.642  76.806  1.00  0.00     0.151 C 
BRANCH   7   8
ATOM      8  C   UNL     1      84.800  68.242  75.672  1.00  0.00    -0.025 A 
ATOM      9  C   UNL     1      85.064  68.628  73.257  1.00  0.00     0.160 A 
ATOM     10  C   UNL     1      86.207  69.418  73.507  1.00  0.00     0.157 A 
ATOM     11  C   UNL     1      84.381  68.032  74.338  1.00  0.00     0.056 A 
ATOM     12  C   UNL     1      86.657  69.602  74.827  1.00  0.00     0.050 A 
ATOM     13  C   UNL     1      85.953  69.028  75.903  1.00  0.00     0.009 A 
BRANCH   9  14
ATOM     14  O   UNL     1      84.641  68.410  71.974  1.00  0.00    -0.493 OA
ATOM     15  C   UNL     1      83.575  69.283  71.559  1.00  0.00     0.278 C 
ENDBRANCH   9  14
BRANCH  10  16
ATOM     16  O   UNL     1      86.886  70.004  72.485  1.00  0.00    -0.504 OA
ATOM     17  H   UNL     1      86.294  70.130  71.739  1.00  0.00     0.293 HD
ENDBRANCH  10  16
ENDBRANCH   7   8
ENDBRANCH   4   7
ENDBRANCH   2   3
ENDBRANCH   1   2
BRANCH   1  18
ATOM     18  C   UNL     1      82.928  63.005  74.705  1.00  0.00     0.001 C 
BRANCH  18  19
ATOM     19  C   UNL     1      82.088  64.269  74.367  1.00  0.00     0.000 C 
BRANCH  19  20
ATOM     20  C   UNL     1      80.620  63.902  74.011  1.00  0.00     0.000 C 
BRANCH  20  21
ATOM     21  C   UNL     1      79.816  65.057  73.353  1.00  0.00     0.003 C 
BRANCH  21  22
ATOM     22  C   UNL     1      80.667  66.010  72.452  1.00  0.00    -0.017 C 
ATOM     23  C   UNL     1      80.732  67.433  73.075  1.00  0.00     0.007 C 
ATOM     24  C   UNL     1      80.172  66.083  70.977  1.00  0.00     0.007 C 
ENDBRANCH  21  22
ENDBRANCH  20  21
ENDBRANCH  19  20
ENDBRANCH  18  19
ENDBRANCH   1  18
TORSDOF 11
ENDMDL
MODEL 10
REMARK VINA RESULT:    -5.385     16.097     19.301
REMARK INTER + INTRA:          -9.265
REMARK INTER:                  -7.876
REMARK INTRA:                  -1.389
REMARK UNBOUND:                -0.575
REMARK SMILES COc1cc(CNC(=O)CCCCCCC(C)C)ccc1O
REMARK SMILES IDX 11 1 10 2 8 3 7 4 9 6 6 7 5 8 3 9 21 10 4 11 20 12 19 13
REMARK SMILES IDX 2 14 1 15 22 16 12 18 13 19 14 20 15 21 16 22 17 23 18 24
REMARK H PARENT 7 5 22 17
REMARK Flexibility Score: inf
ROOT
ATOM      1  C   UNL     1      82.890  91.557  89.592  1.00  0.00     0.010 C 
ENDROOT
BRANCH   1   2
ATOM      2  C   UNL     1      83.303  92.174  88.227  1.00  0.00     0.100 C 
BRANCH   2   3
ATOM      3  C   UNL     1      83.683  91.160  87.218  1.00  0.00     0.220 C 
ATOM      4  N   UNL     1      82.979  91.048  86.054  1.00  0.00    -0.352 N 
ATOM      5  H   UNL     1      82.186  91.667  85.981  1.00  0.00     0.163 HD
ATOM      6  O   UNL     1      84.677  90.427  87.446  1.00  0.00    -0.275 OA
BRANCH   4   7
ATOM      7  C   UNL     1      83.289  90.148  84.985  1.00  0.00     0.151 C 
BRANCH   7   8
ATOM      8  C   UNL     1      82.308  89.036  84.852  1.00  0.00    -0.025 A 
ATOM      9  C   UNL     1      81.416  86.879  85.627  1.00  0.00     0.160 A 
ATOM     10  C   UNL     1      80.415  86.933  84.633  1.00  0.00     0.157 A 
ATOM     11  C   UNL     1      82.365  87.919  85.717  1.00  0.00     0.056 A 
ATOM     12  C   UNL     1      80.372  88.020  83.741  1.00  0.00     0.050 A 
ATOM     13  C   UNL     1      81.304  89.070  83.855  1.00  0.00     0.009 A 
BRANCH   9  14
ATOM     14  O   UNL     1      81.491  85.807  86.475  1.00  0.00    -0.493 OA
ATOM     15  C   UNL     1      82.695  85.033  86.325  1.00  0.00     0.278 C 
ENDBRANCH   9  14
BRANCH  10  16
ATOM     16  O   UNL     1      79.489  85.944  84.522  1.00  0.00    -0.504 OA
ATOM     17  H   UNL     1      78.612  86.311  84.658  1.00  0.00     0.293 HD
ENDBRANCH  10  16
ENDBRANCH   7   8
ENDBRANCH   4   7
ENDBRANCH   2   3
ENDBRANCH   1   2
BRANCH   1  18
ATOM     18  C   UNL     1      82.008  90.287  89.419  1.00  0.00     0.001 C 
BRANCH  18  19
ATOM     19  C   UNL     1      82.665  88.989  89.969  1.00  0.00     0.000 C 
BRANCH  19  20
ATOM     20  C   UNL     1      81.681  87.786  89.922  1.00  0.00     0.000 C 
BRANCH  20  21
ATOM     21  C   UNL     1      80.436  88.017  89.021  1.00  0.00     0.003 C 
BRANCH  21  22
ATOM     22  C   UNL     1      79.065  87.744  89.724  1.00  0.00    -0.017 C 
ATOM     23  C   UNL     1      78.607  88.995  90.526  1.00  0.00     0.007 C 
ATOM     24  C   UNL     1      79.071  86.483  90.637  1.00  0.00     0.007 C 
ENDBRANCH  21  22
ENDBRANCH  20  21
ENDBRANCH  19  20
ENDBRANCH  18  19
ENDBRANCH   1  18
TORSDOF 11
ENDMDL
