MODEL 1
REMARK VINA RESULT:    -6.661      0.000      0.000
REMARK INTER + INTRA:         -13.437
REMARK INTER:                 -11.724
REMARK INTRA:                  -1.714
REMARK UNBOUND:                -1.714
REMARK SMILES C=C(C)[C@]12C[C@@H](C)[C@@]34O[C@](Cc5ccccc5)(O[C@@H]1[C@@H]3C=C(COC(=O)Cc1ccc(O)c(OC)c1)C[C@]1(O)C(=O)C(C)=C[C@@H]41)O2
REMARK SMILES IDX 23 1 22 2 21 3 20 4 9 5 8 6 10 7 6 8 18 9 46 10 19 11 5 12
REMARK SMILES IDX 7 13 4 14 45 15 38 16 44 17 40 18 42 20 41 21 43 22 39 23
REMARK SMILES IDX 11 25 12 26 13 27 17 28 14 29 16 30 15 31 2 32 3 33 1 34
REMARK SMILES IDX 37 35 24 37 25 38 26 39 27 40 28 41 36 42 29 43 33 44 30 45
REMARK SMILES IDX 31 46 34 47 35 48 32 49
REMARK H PARENT 39 24 32 50
REMARK Flexibility Score: 90.00
ROOT
ATOM      1  C   UNL     1      84.130  92.008  86.730  1.00  0.00     0.264 C 
ENDROOT
BRANCH   1   2
ATOM      2  C   UNL     1      83.164  91.956  87.890  1.00  0.00    -0.033 C 
ATOM      3  C   UNL     1      82.650  90.769  88.268  1.00  0.00    -0.015 C 
BRANCH   3   4
ATOM      4  C   UNL     1      81.615  90.462  89.338  1.00  0.00     0.078 C 
ATOM      5  O   UNL     1      82.856  89.964  91.419  1.00  0.00    -0.319 OA
ATOM      6  C   UNL     1      81.914  90.906  90.818  1.00  0.00     0.095 C 
ATOM      7  C   UNL     1      82.602  88.575  91.139  1.00  0.00     0.289 C 
ATOM      8  C   UNL     1      80.547  90.861  91.618  1.00  0.00     0.023 C 
ATOM      9  O   UNL     1      82.589  88.324  89.736  1.00  0.00    -0.320 OA
ATOM     10  O   UNL     1      81.328  88.150  91.618  1.00  0.00    -0.313 OA
ATOM     11  C   UNL     1      81.340  88.938  89.382  1.00  0.00     0.170 C 
ATOM     12  C   UNL     1      79.618  89.721  91.098  1.00  0.00     0.049 C 
ATOM     13  C   UNL     1      80.679  90.756  93.146  1.00  0.00     0.011 C 
ATOM     14  C   UNL     1      80.422  88.535  90.563  1.00  0.00     0.122 C 
BRANCH   6  15
ATOM     15  C   UNL     1      82.659  92.272  90.845  1.00  0.00     0.086 C 
ATOM     16  C   UNL     1      82.144  93.347  89.866  1.00  0.00     0.140 CG0
ATOM     17  C   UNL     1      82.789  93.015  92.144  1.00  0.00    -0.010 C 
ATOM     18  C   UNL     1      82.366  94.628  90.642  1.00  0.00     0.190 C 
ATOM     19  G   UNL     1      82.899  93.329  88.538  1.00  0.00     0.000 G0
ATOM     20  C   UNL     1      82.656  94.343  92.060  1.00  0.00    -0.008 C 
ATOM     21  O   UNL     1      82.271  95.757  90.187  1.00  0.00    -0.291 OA
ATOM     22  C   UNL     1      82.802  95.382  93.101  1.00  0.00     0.048 C 
BRANCH  16  23
ATOM     23  O   UNL     1      80.740  93.313  89.664  1.00  0.00    -0.381 OA
ATOM     24  H   UNL     1      80.568  93.006  88.758  1.00  0.00     0.212 HD
ENDBRANCH  16  23
ENDBRANCH   6  15
BRANCH   7  25
ATOM     25  C   UNL     1      83.690  87.750  91.796  1.00  0.00     0.135 C 
BRANCH  25  26
ATOM     26  C   UNL     1      83.551  87.725  93.298  1.00  0.00    -0.040 A 
ATOM     27  C   UNL     1      83.508  88.921  94.015  1.00  0.00     0.004 A 
ATOM     28  C   UNL     1      83.464  86.506  93.970  1.00  0.00     0.004 A 
ATOM     29  C   UNL     1      83.379  88.898  95.404  1.00  0.00     0.000 A 
ATOM     30  C   UNL     1      83.335  86.483  95.359  1.00  0.00     0.000 A 
ATOM     31  C   UNL     1      83.292  87.679  96.075  1.00  0.00     0.000 A 
ENDBRANCH  25  26
ENDBRANCH   7  25
BRANCH  14  32
ATOM     32  C   UNL     1      79.562  87.361  90.230  1.00  0.00    -0.046 C 
ATOM     33  C   UNL     1      79.179  87.208  88.788  1.00  0.00     0.042 C 
ATOM     34  C   UNL     1      79.153  86.492  91.167  1.00  0.00     0.010 C 
ENDBRANCH  14  32
ENDBRANCH   3   4
BRANCH   2  35
ATOM     35  C   UNL     1      82.898  93.318  88.504  1.00  0.00     0.078 CG0
ATOM     36  G   UNL     1      82.152  93.350  89.837  1.00  0.00     0.000 G0
ENDBRANCH   2  35
ENDBRANCH   1   2
BRANCH   1  37
ATOM     37  O   UNL     1      84.519  90.695  86.387  1.00  0.00    -0.461 OA
BRANCH  37  38
ATOM     38  C   UNL     1      84.325  90.325  85.076  1.00  0.00     0.310 C 
ATOM     39  O   UNL     1      85.197  89.906  84.328  1.00  0.00    -0.252 OA
BRANCH  38  40
ATOM     40  C   UNL     1      82.872  90.518  84.707  1.00  0.00     0.158 C 
BRANCH  40  41
ATOM     41  C   UNL     1      82.059  89.257  84.844  1.00  0.00    -0.033 A 
ATOM     42  C   UNL     1      82.446  88.272  85.754  1.00  0.00     0.054 A 
ATOM     43  C   UNL     1      80.919  89.074  84.062  1.00  0.00     0.008 A 
ATOM     44  C   UNL     1      81.693  87.105  85.880  1.00  0.00     0.160 A 
ATOM     45  C   UNL     1      80.166  87.907  84.188  1.00  0.00     0.050 A 
ATOM     46  C   UNL     1      80.553  86.922  85.096  1.00  0.00     0.157 A 
BRANCH  44  47
ATOM     47  O   UNL     1      82.081  86.151  86.771  1.00  0.00    -0.493 OA
ATOM     48  C   UNL     1      82.875  85.077  86.267  1.00  0.00     0.278 C 
ENDBRANCH  44  47
BRANCH  46  49
ATOM     49  O   UNL     1      79.809  85.787  85.212  1.00  0.00    -0.504 OA
ATOM     50  H   UNL     1      80.150  85.259  85.954  1.00  0.00     0.293 HD
ENDBRANCH  46  49
ENDBRANCH  40  41
ENDBRANCH  38  40
ENDBRANCH  37  38
ENDBRANCH   1  37
TORSDOF 11
ENDMDL
MODEL 2
REMARK VINA RESULT:    -6.082     19.332     23.713
REMARK INTER + INTRA:         -12.418
REMARK INTER:                 -10.467
REMARK INTRA:                  -1.951
REMARK UNBOUND:                -1.714
REMARK SMILES C=C(C)[C@]12C[C@@H](C)[C@@]34O[C@](Cc5ccccc5)(O[C@@H]1[C@@H]3C=C(COC(=O)Cc1ccc(O)c(OC)c1)C[C@]1(O)C(=O)C(C)=C[C@@H]41)O2
REMARK SMILES IDX 23 1 22 2 21 3 20 4 9 5 8 6 10 7 6 8 18 9 46 10 19 11 5 12
REMARK SMILES IDX 7 13 4 14 45 15 38 16 44 17 40 18 42 20 41 21 43 22 39 23
REMARK SMILES IDX 11 25 12 26 13 27 17 28 14 29 16 30 15 31 2 32 3 33 1 34
REMARK SMILES IDX 37 35 24 37 25 38 26 39 27 40 28 41 36 42 29 43 33 44 30 45
REMARK SMILES IDX 31 46 34 47 35 48 32 49
REMARK H PARENT 39 24 32 50
REMARK Flexibility Score: 90.00
ROOT
ATOM      1  C   UNL     1      99.141  77.614  82.451  1.00  0.00     0.264 C 
ENDROOT
BRANCH   1   2
ATOM      2  C   UNL     1      98.837  77.609  80.971  1.00  0.00    -0.033 C 
ATOM      3  C   UNL     1      98.702  78.783  80.322  1.00  0.00    -0.015 C 
BRANCH   3   4
ATOM      4  C   UNL     1      98.325  79.047  78.873  1.00  0.00     0.078 C 
ATOM      5  O   UNL     1     100.438  79.206  77.597  1.00  0.00    -0.319 OA
ATOM      6  C   UNL     1      99.218  78.416  77.741  1.00  0.00     0.095 C 
ATOM      7  C   UNL     1     100.256  80.634  77.636  1.00  0.00     0.289 C 
ATOM      8  C   UNL     1      98.393  78.476  76.389  1.00  0.00     0.023 C 
ATOM      9  O   UNL     1      99.626  81.042  78.847  1.00  0.00    -0.320 OA
ATOM     10  O   UNL     1      99.411  81.100  76.587  1.00  0.00    -0.313 OA
ATOM     11  C   UNL     1      98.290  80.572  78.608  1.00  0.00     0.170 C 
ATOM     12  C   UNL     1      97.477  79.737  76.336  1.00  0.00     0.049 C 
ATOM     13  C   UNL     1      99.229  78.396  75.102  1.00  0.00     0.011 C 
ATOM     14  C   UNL     1      98.081  80.909  77.111  1.00  0.00     0.122 C 
BRANCH   6  15
ATOM     15  C   UNL     1      99.718  77.001  78.156  1.00  0.00     0.086 C 
ATOM     16  C   UNL     1      98.682  76.090  78.847  1.00  0.00     0.140 CG0
ATOM     17  C   UNL     1     100.336  76.105  77.120  1.00  0.00    -0.010 C 
ATOM     18  C   UNL     1      99.076  74.715  78.351  1.00  0.00     0.190 C 
ATOM     19  G   UNL     1      98.741  76.202  80.370  1.00  0.00     0.000 G0
ATOM     20  C   UNL     1     100.017  74.810  77.219  1.00  0.00    -0.008 C 
ATOM     21  O   UNL     1      98.644  73.656  78.782  1.00  0.00    -0.291 OA
ATOM     22  C   UNL     1     100.494  73.650  76.439  1.00  0.00     0.048 C 
BRANCH  16  23
ATOM     23  O   UNL     1      97.359  76.258  78.367  1.00  0.00    -0.381 OA
ATOM     24  H   UNL     1      96.793  76.520  79.111  1.00  0.00     0.212 HD
ENDBRANCH  16  23
ENDBRANCH   6  15
BRANCH   7  25
ATOM     25  C   UNL     1     101.616  81.291  77.519  1.00  0.00     0.135 C 
BRANCH  25  26
ATOM     26  C   UNL     1     102.620  80.685  78.469  1.00  0.00    -0.040 A 
ATOM     27  C   UNL     1     103.836  80.204  77.983  1.00  0.00     0.004 A 
ATOM     28  C   UNL     1     102.333  80.606  79.831  1.00  0.00     0.004 A 
ATOM     29  C   UNL     1     104.765  79.643  78.861  1.00  0.00     0.000 A 
ATOM     30  C   UNL     1     103.261  80.046  80.709  1.00  0.00     0.000 A 
ATOM     31  C   UNL     1     104.477  79.564  80.223  1.00  0.00     0.000 A 
ENDBRANCH  25  26
ENDBRANCH   7  25
BRANCH  14  32
ATOM     32  C   UNL     1      97.315  82.178  76.923  1.00  0.00    -0.046 C 
ATOM     33  C   UNL     1      96.745  82.798  78.164  1.00  0.00     0.042 C 
ATOM     34  C   UNL     1      97.145  82.731  75.712  1.00  0.00     0.010 C 
ENDBRANCH  14  32
ENDBRANCH   3   4
BRANCH   2  35
ATOM     35  C   UNL     1      98.728  76.212  80.391  1.00  0.00     0.078 CG0
ATOM     36  G   UNL     1      98.703  76.088  78.868  1.00  0.00     0.000 G0
ENDBRANCH   2  35
ENDBRANCH   1   2
BRANCH   1  37
ATOM     37  O   UNL     1      99.319  78.945  82.887  1.00  0.00    -0.461 OA
BRANCH  37  38
ATOM     38  C   UNL     1     100.553  79.253  83.413  1.00  0.00     0.310 C 
ATOM     39  O   UNL     1     101.502  78.484  83.474  1.00  0.00    -0.252 OA
BRANCH  38  40
ATOM     40  C   UNL     1     100.550  80.682  83.901  1.00  0.00     0.158 C 
BRANCH  40  41
ATOM     41  C   UNL     1      99.347  81.461  83.434  1.00  0.00    -0.033 A 
ATOM     42  C   UNL     1      98.284  81.691  84.308  1.00  0.00     0.054 A 
ATOM     43  C   UNL     1      99.297  81.952  82.130  1.00  0.00     0.008 A 
ATOM     44  C   UNL     1      97.170  82.412  83.875  1.00  0.00     0.160 A 
ATOM     45  C   UNL     1      98.184  82.672  81.697  1.00  0.00     0.050 A 
ATOM     46  C   UNL     1      97.121  82.903  82.570  1.00  0.00     0.157 A 
BRANCH  44  47
ATOM     47  O   UNL     1      96.138  82.631  84.737  1.00  0.00    -0.493 OA
ATOM     48  C   UNL     1      96.381  83.517  85.828  1.00  0.00     0.278 C 
ENDBRANCH  44  47
BRANCH  46  49
ATOM     49  O   UNL     1      96.039  83.609  82.137  1.00  0.00    -0.504 OA
ATOM     50  H   UNL     1      95.624  83.132  81.399  1.00  0.00     0.293 HD
ENDBRANCH  46  49
ENDBRANCH  40  41
ENDBRANCH  38  40
ENDBRANCH  37  38
ENDBRANCH   1  37
TORSDOF 11
ENDMDL
MODEL 3
REMARK VINA RESULT:    -5.917     19.557     24.492
REMARK INTER + INTRA:         -12.127
REMARK INTER:                 -11.235
REMARK INTRA:                  -0.892
REMARK UNBOUND:                -1.714
REMARK SMILES C=C(C)[C@]12C[C@@H](C)[C@@]34O[C@](Cc5ccccc5)(O[C@@H]1[C@@H]3C=C(COC(=O)Cc1ccc(O)c(OC)c1)C[C@]1(O)C(=O)C(C)=C[C@@H]41)O2
REMARK SMILES IDX 23 1 22 2 21 3 20 4 9 5 8 6 10 7 6 8 18 9 46 10 19 11 5 12
REMARK SMILES IDX 7 13 4 14 45 15 38 16 44 17 40 18 42 20 41 21 43 22 39 23
REMARK SMILES IDX 11 25 12 26 13 27 17 28 14 29 16 30 15 31 2 32 3 33 1 34
REMARK SMILES IDX 37 35 24 37 25 38 26 39 27 40 28 41 36 42 29 43 33 44 30 45
REMARK SMILES IDX 31 46 34 47 35 48 32 49
REMARK H PARENT 39 24 32 50
REMARK Flexibility Score: 90.00
ROOT
ATOM      1  C   UNL     1      60.688  87.690  78.381  1.00  0.00     0.264 C 
ENDROOT
BRANCH   1   2
ATOM      2  C   UNL     1      61.892  87.123  77.666  1.00  0.00    -0.033 C 
ATOM      3  C   UNL     1      61.728  86.091  76.814  1.00  0.00    -0.015 C 
BRANCH   3   4
ATOM      4  C   UNL     1      62.772  85.301  76.042  1.00  0.00     0.078 C 
ATOM      5  O   UNL     1      63.009  86.390  73.833  1.00  0.00    -0.319 OA
ATOM      6  C   UNL     1      63.730  86.082  75.066  1.00  0.00     0.095 C 
ATOM      7  C   UNL     1      62.192  85.324  73.314  1.00  0.00     0.289 C 
ATOM      8  C   UNL     1      64.954  85.132  74.734  1.00  0.00     0.023 C 
ATOM      9  O   UNL     1      61.228  84.897  74.273  1.00  0.00    -0.320 OA
ATOM     10  O   UNL     1      62.956  84.165  72.993  1.00  0.00    -0.313 OA
ATOM     11  C   UNL     1      62.082  84.203  75.196  1.00  0.00     0.170 C 
ATOM     12  C   UNL     1      64.522  83.633  74.703  1.00  0.00     0.049 C 
ATOM     13  C   UNL     1      65.720  85.470  73.445  1.00  0.00     0.011 C 
ATOM     14  C   UNL     1      63.069  83.472  74.253  1.00  0.00     0.122 C 
BRANCH   6  15
ATOM     15  C   UNL     1      64.104  87.473  75.656  1.00  0.00     0.086 C 
ATOM     16  C   UNL     1      64.448  87.503  77.159  1.00  0.00     0.140 CG0
ATOM     17  C   UNL     1      65.215  88.265  75.026  1.00  0.00    -0.010 C 
ATOM     18  C   UNL     1      65.511  88.580  77.229  1.00  0.00     0.190 C 
ATOM     19  G   UNL     1      63.231  87.827  78.024  1.00  0.00     0.000 G0
ATOM     20  C   UNL     1      66.007  88.921  75.882  1.00  0.00    -0.008 C 
ATOM     21  O   UNL     1      65.950  89.076  78.255  1.00  0.00    -0.291 OA
ATOM     22  C   UNL     1      67.127  89.848  75.622  1.00  0.00     0.048 C 
BRANCH  16  23
ATOM     23  O   UNL     1      65.115  86.339  77.619  1.00  0.00    -0.381 OA
ATOM     24  H   UNL     1      65.161  86.374  78.589  1.00  0.00     0.212 HD
ENDBRANCH  16  23
ENDBRANCH   6  15
BRANCH   7  25
ATOM     25  C   UNL     1      61.489  85.827  72.069  1.00  0.00     0.135 C 
BRANCH  25  26
ATOM     26  C   UNL     1      60.123  86.388  72.380  1.00  0.00    -0.040 A 
ATOM     27  C   UNL     1      59.975  87.350  73.380  1.00  0.00     0.004 A 
ATOM     28  C   UNL     1      59.009  85.947  71.667  1.00  0.00     0.004 A 
ATOM     29  C   UNL     1      58.712  87.869  73.667  1.00  0.00     0.000 A 
ATOM     30  C   UNL     1      57.746  86.466  71.955  1.00  0.00     0.000 A 
ATOM     31  C   UNL     1      57.599  87.427  72.955  1.00  0.00     0.000 A 
ENDBRANCH  25  26
ENDBRANCH   7  25
BRANCH  14  32
ATOM     32  C   UNL     1      62.689  82.043  74.040  1.00  0.00    -0.046 C 
ATOM     33  C   UNL     1      63.418  81.033  74.876  1.00  0.00     0.042 C 
ATOM     34  C   UNL     1      61.750  81.683  73.153  1.00  0.00     0.010 C 
ENDBRANCH  14  32
ENDBRANCH   3   4
BRANCH   2  35
ATOM     35  C   UNL     1      63.184  87.836  78.018  1.00  0.00     0.078 CG0
ATOM     36  G   UNL     1      64.415  87.509  77.175  1.00  0.00     0.000 G0
ENDBRANCH   2  35
ENDBRANCH   1   2
BRANCH   1  37
ATOM     37  O   UNL     1      61.120  88.508  79.447  1.00  0.00    -0.461 OA
BRANCH  37  38
ATOM     38  C   UNL     1      60.769  88.096  80.711  1.00  0.00     0.310 C 
ATOM     39  O   UNL     1      59.800  87.399  80.979  1.00  0.00    -0.252 OA
BRANCH  38  40
ATOM     40  C   UNL     1      61.763  88.636  81.712  1.00  0.00     0.158 C 
BRANCH  40  41
ATOM     41  C   UNL     1      62.902  87.686  81.981  1.00  0.00    -0.033 A 
ATOM     42  C   UNL     1      62.911  86.922  83.149  1.00  0.00     0.054 A 
ATOM     43  C   UNL     1      63.945  87.570  81.063  1.00  0.00     0.008 A 
ATOM     44  C   UNL     1      63.965  86.042  83.398  1.00  0.00     0.160 A 
ATOM     45  C   UNL     1      64.999  86.691  81.312  1.00  0.00     0.050 A 
ATOM     46  C   UNL     1      65.010  85.928  82.479  1.00  0.00     0.157 A 
BRANCH  44  47
ATOM     47  O   UNL     1      63.964  85.302  84.541  1.00  0.00    -0.493 OA
ATOM     48  C   UNL     1      64.194  85.999  85.765  1.00  0.00     0.278 C 
ENDBRANCH  44  47
BRANCH  46  49
ATOM     49  O   UNL     1      66.043  85.072  82.711  1.00  0.00    -0.504 OA
ATOM     50  H   UNL     1      65.975  84.319  82.100  1.00  0.00     0.293 HD
ENDBRANCH  46  49
ENDBRANCH  40  41
ENDBRANCH  38  40
ENDBRANCH  37  38
ENDBRANCH   1  37
TORSDOF 11
ENDMDL
MODEL 4
REMARK VINA RESULT:    -5.893     18.441     23.513
REMARK INTER + INTRA:         -12.086
REMARK INTER:                 -10.503
REMARK INTRA:                  -1.583
REMARK UNBOUND:                -1.714
REMARK SMILES C=C(C)[C@]12C[C@@H](C)[C@@]34O[C@](Cc5ccccc5)(O[C@@H]1[C@@H]3C=C(COC(=O)Cc1ccc(O)c(OC)c1)C[C@]1(O)C(=O)C(C)=C[C@@H]41)O2
REMARK SMILES IDX 23 1 22 2 21 3 20 4 9 5 8 6 10 7 6 8 18 9 46 10 19 11 5 12
REMARK SMILES IDX 7 13 4 14 45 15 38 16 44 17 40 18 42 20 41 21 43 22 39 23
REMARK SMILES IDX 11 25 12 26 13 27 17 28 14 29 16 30 15 31 2 32 3 33 1 34
REMARK SMILES IDX 37 35 24 37 25 38 26 39 27 40 28 41 36 42 29 43 33 44 30 45
REMARK SMILES IDX 31 46 34 47 35 48 32 49
REMARK H PARENT 39 24 32 50
REMARK Flexibility Score: 90.00
ROOT
ATOM      1  C   UNL     1      62.051  88.977  77.951  1.00  0.00     0.264 C 
ENDROOT
BRANCH   1   2
ATOM      2  C   UNL     1      63.215  88.351  77.219  1.00  0.00    -0.033 C 
ATOM      3  C   UNL     1      63.094  87.096  76.739  1.00  0.00    -0.015 C 
BRANCH   3   4
ATOM      4  C   UNL     1      64.129  86.225  76.045  1.00  0.00     0.078 C 
ATOM      5  O   UNL     1      63.868  86.597  73.613  1.00  0.00    -0.319 OA
ATOM      6  C   UNL     1      64.799  86.765  74.727  1.00  0.00     0.095 C 
ATOM      7  C   UNL     1      63.165  85.341  73.581  1.00  0.00     0.289 C 
ATOM      8  C   UNL     1      66.098  85.898  74.459  1.00  0.00     0.023 C 
ATOM      9  O   UNL     1      62.430  85.129  74.784  1.00  0.00    -0.320 OA
ATOM     10  O   UNL     1      64.049  84.229  73.470  1.00  0.00    -0.313 OA
ATOM     11  C   UNL     1      63.507  84.851  75.692  1.00  0.00     0.170 C 
ATOM     12  C   UNL     1      65.910  84.425  74.939  1.00  0.00     0.049 C 
ATOM     13  C   UNL     1      66.607  85.901  73.008  1.00  0.00     0.011 C 
ATOM     14  C   UNL     1      64.453  83.976  74.831  1.00  0.00     0.122 C 
BRANCH   6  15
ATOM     15  C   UNL     1      65.028  88.302  74.814  1.00  0.00     0.086 C 
ATOM     16  C   UNL     1      65.576  88.833  76.155  1.00  0.00     0.140 CG0
ATOM     17  C   UNL     1      65.897  88.976  73.789  1.00  0.00    -0.010 C 
ATOM     18  C   UNL     1      66.452  89.987  75.715  1.00  0.00     0.190 C 
ATOM     19  G   UNL     1      64.459  89.274  77.100  1.00  0.00     0.000 G0
ATOM     20  C   UNL     1      66.688  89.946  74.259  1.00  0.00    -0.008 C 
ATOM     21  O   UNL     1      66.950  90.821  76.456  1.00  0.00    -0.291 OA
ATOM     22  C   UNL     1      67.598  90.863  73.542  1.00  0.00     0.048 C 
BRANCH  16  23
ATOM     23  O   UNL     1      66.479  87.948  76.797  1.00  0.00    -0.381 OA
ATOM     24  H   UNL     1      67.206  87.753  76.183  1.00  0.00     0.212 HD
ENDBRANCH  16  23
ENDBRANCH   6  15
BRANCH   7  25
ATOM     25  C   UNL     1      62.218  85.356  72.398  1.00  0.00     0.135 C 
BRANCH  25  26
ATOM     26  C   UNL     1      62.339  84.106  71.563  1.00  0.00    -0.040 A 
ATOM     27  C   UNL     1      62.652  84.201  70.206  1.00  0.00     0.004 A 
ATOM     28  C   UNL     1      62.138  82.855  72.145  1.00  0.00     0.004 A 
ATOM     29  C   UNL     1      62.764  83.045  69.433  1.00  0.00     0.000 A 
ATOM     30  C   UNL     1      62.249  81.699  71.372  1.00  0.00     0.000 A 
ATOM     31  C   UNL     1      62.562  81.795  70.016  1.00  0.00     0.000 A 
ENDBRANCH  25  26
ENDBRANCH   7  25
BRANCH  14  32
ATOM     32  C   UNL     1      64.279  82.519  75.111  1.00  0.00    -0.046 C 
ATOM     33  C   UNL     1      65.112  81.582  74.288  1.00  0.00     0.042 C 
ATOM     34  C   UNL     1      63.425  82.073  76.045  1.00  0.00     0.010 C 
ENDBRANCH  14  32
ENDBRANCH   3   4
BRANCH   2  35
ATOM     35  C   UNL     1      64.417  89.271  77.114  1.00  0.00     0.078 CG0
ATOM     36  G   UNL     1      65.552  88.835  76.189  1.00  0.00     0.000 G0
ENDBRANCH   2  35
ENDBRANCH   1   2
BRANCH   1  37
ATOM     37  O   UNL     1      62.495  89.473  79.195  1.00  0.00    -0.461 OA
BRANCH  37  38
ATOM     38  C   UNL     1      62.738  88.536  80.172  1.00  0.00     0.310 C 
ATOM     39  O   UNL     1      61.977  87.630  80.481  1.00  0.00    -0.252 OA
BRANCH  38  40
ATOM     40  C   UNL     1      64.086  88.801  80.801  1.00  0.00     0.158 C 
BRANCH  40  41
ATOM     41  C   UNL     1      64.890  87.545  81.020  1.00  0.00    -0.033 A 
ATOM     42  C   UNL     1      64.896  86.932  82.274  1.00  0.00     0.054 A 
ATOM     43  C   UNL     1      65.626  86.996  79.971  1.00  0.00     0.008 A 
ATOM     44  C   UNL     1      65.640  85.769  82.477  1.00  0.00     0.160 A 
ATOM     45  C   UNL     1      66.370  85.833  80.175  1.00  0.00     0.050 A 
ATOM     46  C   UNL     1      66.377  85.220  81.427  1.00  0.00     0.157 A 
BRANCH  44  47
ATOM     47  O   UNL     1      65.639  85.179  83.705  1.00  0.00    -0.493 OA
ATOM     48  C   UNL     1      66.598  85.650  84.651  1.00  0.00     0.278 C 
ENDBRANCH  44  47
BRANCH  46  49
ATOM     49  O   UNL     1      67.106  84.085  81.613  1.00  0.00    -0.504 OA
ATOM     50  H   UNL     1      67.395  84.043  82.540  1.00  0.00     0.293 HD
ENDBRANCH  46  49
ENDBRANCH  40  41
ENDBRANCH  38  40
ENDBRANCH  37  38
ENDBRANCH   1  37
TORSDOF 11
ENDMDL
MODEL 5
REMARK VINA RESULT:    -5.829     19.916     23.959
REMARK INTER + INTRA:         -11.972
REMARK INTER:                  -9.163
REMARK INTRA:                  -2.809
REMARK UNBOUND:                -1.714
REMARK SMILES C=C(C)[C@]12C[C@@H](C)[C@@]34O[C@](Cc5ccccc5)(O[C@@H]1[C@@H]3C=C(COC(=O)Cc1ccc(O)c(OC)c1)C[C@]1(O)C(=O)C(C)=C[C@@H]41)O2
REMARK SMILES IDX 23 1 22 2 21 3 20 4 9 5 8 6 10 7 6 8 18 9 46 10 19 11 5 12
REMARK SMILES IDX 7 13 4 14 45 15 38 16 44 17 40 18 42 20 41 21 43 22 39 23
REMARK SMILES IDX 11 25 12 26 13 27 17 28 14 29 16 30 15 31 2 32 3 33 1 34
REMARK SMILES IDX 37 35 24 37 25 38 26 39 27 40 28 41 36 42 29 43 33 44 30 45
REMARK SMILES IDX 31 46 34 47 35 48 32 49
REMARK H PARENT 39 24 32 50
REMARK Flexibility Score: 90.00
ROOT
ATOM      1  C   UNL     1     102.021  78.234  81.521  1.00  0.00     0.264 C 
ENDROOT
BRANCH   1   2
ATOM      2  C   UNL     1     101.098  79.394  81.227  1.00  0.00    -0.033 C 
ATOM      3  C   UNL     1     100.845  79.727  79.945  1.00  0.00    -0.015 C 
BRANCH   3   4
ATOM      4  C   UNL     1     100.026  80.882  79.393  1.00  0.00     0.078 C 
ATOM      5  O   UNL     1      97.726  80.037  79.054  1.00  0.00    -0.319 OA
ATOM      6  C   UNL     1      98.515  81.000  79.818  1.00  0.00     0.095 C 
ATOM      7  C   UNL     1      98.058  79.940  77.656  1.00  0.00     0.289 C 
ATOM      8  C   UNL     1      98.032  82.468  79.469  1.00  0.00     0.023 C 
ATOM      9  O   UNL     1      99.430  79.604  77.472  1.00  0.00    -0.320 OA
ATOM     10  O   UNL     1      97.868  81.174  76.968  1.00  0.00    -0.313 OA
ATOM     11  C   UNL     1     100.046  80.847  77.844  1.00  0.00     0.170 C 
ATOM     12  C   UNL     1      98.743  83.015  78.194  1.00  0.00     0.049 C 
ATOM     13  C   UNL     1      96.512  82.645  79.323  1.00  0.00     0.011 C 
ATOM     14  C   UNL     1      99.093  81.894  77.215  1.00  0.00     0.122 C 
BRANCH   6  15
ATOM     15  C   UNL     1      98.324  80.568  81.301  1.00  0.00     0.086 C 
ATOM     16  C   UNL     1      99.391  81.068  82.298  1.00  0.00     0.140 CG0
ATOM     17  C   UNL     1      97.027  80.873  81.996  1.00  0.00    -0.010 C 
ATOM     18  C   UNL     1      98.583  81.280  83.561  1.00  0.00     0.190 C 
ATOM     19  G   UNL     1     100.521  80.057  82.488  1.00  0.00     0.000 G0
ATOM     20  C   UNL     1      97.137  81.249  83.275  1.00  0.00    -0.008 C 
ATOM     21  O   UNL     1      99.047  81.501  84.669  1.00  0.00    -0.291 OA
ATOM     22  C   UNL     1      96.088  81.542  84.274  1.00  0.00     0.048 C 
BRANCH  16  23
ATOM     23  O   UNL     1      99.896  82.358  81.998  1.00  0.00    -0.381 OA
ATOM     24  H   UNL     1     100.228  82.354  81.085  1.00  0.00     0.212 HD
ENDBRANCH  16  23
ENDBRANCH   6  15
BRANCH   7  25
ATOM     25  C   UNL     1      97.181  78.873  77.032  1.00  0.00     0.135 C 
BRANCH  25  26
ATOM     26  C   UNL     1      97.878  78.160  75.899  1.00  0.00    -0.040 A 
ATOM     27  C   UNL     1      98.202  76.808  76.020  1.00  0.00     0.004 A 
ATOM     28  C   UNL     1      98.197  78.851  74.731  1.00  0.00     0.004 A 
ATOM     29  C   UNL     1      98.846  76.149  74.973  1.00  0.00     0.000 A 
ATOM     30  C   UNL     1      98.841  78.192  73.684  1.00  0.00     0.000 A 
ATOM     31  C   UNL     1      99.165  76.841  73.806  1.00  0.00     0.000 A 
ENDBRANCH  25  26
ENDBRANCH   7  25
BRANCH  14  32
ATOM     32  C   UNL     1      99.608  82.409  75.911  1.00  0.00    -0.046 C 
ATOM     33  C   UNL     1     101.099  82.484  75.771  1.00  0.00     0.042 C 
ATOM     34  C   UNL     1      98.783  82.784  74.921  1.00  0.00     0.010 C 
ENDBRANCH  14  32
ENDBRANCH   3   4
BRANCH   2  35
ATOM     35  C   UNL     1     100.551  80.051  82.480  1.00  0.00     0.078 CG0
ATOM     36  G   UNL     1      99.403  81.043  82.305  1.00  0.00     0.000 G0
ENDBRANCH   2  35
ENDBRANCH   1   2
BRANCH   1  37
ATOM     37  O   UNL     1     101.733  77.173  80.636  1.00  0.00    -0.461 OA
BRANCH  37  38
ATOM     38  C   UNL     1     102.623  76.124  80.634  1.00  0.00     0.310 C 
ATOM     39  O   UNL     1     102.518  75.112  81.314  1.00  0.00    -0.252 OA
BRANCH  38  40
ATOM     40  C   UNL     1     103.746  76.416  79.666  1.00  0.00     0.158 C 
BRANCH  40  41
ATOM     41  C   UNL     1     103.280  77.134  78.425  1.00  0.00    -0.033 A 
ATOM     42  C   UNL     1     103.759  78.413  78.139  1.00  0.00     0.054 A 
ATOM     43  C   UNL     1     102.371  76.520  77.564  1.00  0.00     0.008 A 
ATOM     44  C   UNL     1     103.328  79.078  76.990  1.00  0.00     0.160 A 
ATOM     45  C   UNL     1     101.940  77.185  76.415  1.00  0.00     0.050 A 
ATOM     46  C   UNL     1     102.418  78.463  76.129  1.00  0.00     0.157 A 
BRANCH  44  47
ATOM     47  O   UNL     1     103.802  80.326  76.721  1.00  0.00    -0.493 OA
ATOM     48  C   UNL     1     105.001  80.412  75.952  1.00  0.00     0.278 C 
ENDBRANCH  44  47
BRANCH  46  49
ATOM     49  O   UNL     1     101.991  79.102  75.004  1.00  0.00    -0.504 OA
ATOM     50  H   UNL     1     101.084  79.421  75.146  1.00  0.00     0.293 HD
ENDBRANCH  46  49
ENDBRANCH  40  41
ENDBRANCH  38  40
ENDBRANCH  37  38
ENDBRANCH   1  37
TORSDOF 11
ENDMDL
MODEL 6
REMARK VINA RESULT:    -5.788     20.276     24.285
REMARK INTER + INTRA:         -11.900
REMARK INTER:                 -10.059
REMARK INTRA:                  -1.841
REMARK UNBOUND:                -1.714
REMARK SMILES C=C(C)[C@]12C[C@@H](C)[C@@]34O[C@](Cc5ccccc5)(O[C@@H]1[C@@H]3C=C(COC(=O)Cc1ccc(O)c(OC)c1)C[C@]1(O)C(=O)C(C)=C[C@@H]41)O2
REMARK SMILES IDX 23 1 22 2 21 3 20 4 9 5 8 6 10 7 6 8 18 9 46 10 19 11 5 12
REMARK SMILES IDX 7 13 4 14 45 15 38 16 44 17 40 18 42 20 41 21 43 22 39 23
REMARK SMILES IDX 11 25 12 26 13 27 17 28 14 29 16 30 15 31 2 32 3 33 1 34
REMARK SMILES IDX 37 35 24 37 25 38 26 39 27 40 28 41 36 42 29 43 33 44 30 45
REMARK SMILES IDX 31 46 34 47 35 48 32 49
REMARK H PARENT 39 24 32 50
REMARK Flexibility Score: 90.00
ROOT
ATOM      1  C   UNL     1     102.298  78.894  81.407  1.00  0.00     0.264 C 
ENDROOT
BRANCH   1   2
ATOM      2  C   UNL     1     101.270  79.910  80.968  1.00  0.00    -0.033 C 
ATOM      3  C   UNL     1     100.990  80.039  79.655  1.00  0.00    -0.015 C 
BRANCH   3   4
ATOM      4  C   UNL     1     100.067  81.025  78.958  1.00  0.00     0.078 C 
ATOM      5  O   UNL     1      97.863  79.921  78.745  1.00  0.00    -0.319 OA
ATOM      6  C   UNL     1      98.548  81.049  79.372  1.00  0.00     0.095 C 
ATOM      7  C   UNL     1      98.214  79.673  77.370  1.00  0.00     0.289 C 
ATOM      8  C   UNL     1      97.926  82.404  78.833  1.00  0.00     0.023 C 
ATOM      9  O   UNL     1      99.615  79.452  77.226  1.00  0.00    -0.320 OA
ATOM     10  O   UNL     1      97.911  80.780  76.526  1.00  0.00    -0.313 OA
ATOM     11  C   UNL     1     100.103  80.787  77.428  1.00  0.00     0.170 C 
ATOM     12  C   UNL     1      98.591  82.845  77.493  1.00  0.00     0.049 C 
ATOM     13  C   UNL     1      96.397  82.410  78.672  1.00  0.00     0.011 C 
ATOM     14  C   UNL     1      99.057  81.643  76.670  1.00  0.00     0.122 C 
BRANCH   6  15
ATOM     15  C   UNL     1      98.388  80.801  80.899  1.00  0.00     0.086 C 
ATOM     16  C   UNL     1      99.383  81.542  81.817  1.00  0.00     0.140 CG0
ATOM     17  C   UNL     1      97.057  81.053  81.551  1.00  0.00    -0.010 C 
ATOM     18  C   UNL     1      98.543  81.832  83.042  1.00  0.00     0.190 C 
ATOM     19  G   UNL     1     100.613  80.695  82.137  1.00  0.00     0.000 G0
ATOM     20  C   UNL     1      97.111  81.606  82.768  1.00  0.00    -0.008 C 
ATOM     21  O   UNL     1      98.967  82.247  84.110  1.00  0.00    -0.291 OA
ATOM     22  C   UNL     1      96.026  81.913  83.722  1.00  0.00     0.048 C 
BRANCH  16  23
ATOM     23  O   UNL     1      99.749  82.828  81.345  1.00  0.00    -0.381 OA
ATOM     24  H   UNL     1      99.000  83.199  80.850  1.00  0.00     0.212 HD
ENDBRANCH  16  23
ENDBRANCH   6  15
BRANCH   7  25
ATOM     25  C   UNL     1      97.452  78.452  76.898  1.00  0.00     0.135 C 
BRANCH  25  26
ATOM     26  C   UNL     1      98.036  77.875  75.632  1.00  0.00    -0.040 A 
ATOM     27  C   UNL     1      97.809  78.506  74.409  1.00  0.00     0.004 A 
ATOM     28  C   UNL     1      98.805  76.713  75.684  1.00  0.00     0.004 A 
ATOM     29  C   UNL     1      98.349  77.974  73.238  1.00  0.00     0.000 A 
ATOM     30  C   UNL     1      99.345  76.180  74.514  1.00  0.00     0.000 A 
ATOM     31  C   UNL     1      99.117  76.811  73.291  1.00  0.00     0.000 A 
ENDBRANCH  25  26
ENDBRANCH   7  25
BRANCH  14  32
ATOM     32  C   UNL     1      99.530  82.029  75.307  1.00  0.00    -0.046 C 
ATOM     33  C   UNL     1      99.045  83.350  74.787  1.00  0.00     0.042 C 
ATOM     34  C   UNL     1     100.342  81.240  74.587  1.00  0.00     0.010 C 
ENDBRANCH  14  32
ENDBRANCH   3   4
BRANCH   2  35
ATOM     35  C   UNL     1     100.660  80.678  82.125  1.00  0.00     0.078 CG0
ATOM     36  G   UNL     1      99.414  81.511  81.831  1.00  0.00     0.000 G0
ENDBRANCH   2  35
ENDBRANCH   1   2
BRANCH   1  37
ATOM     37  O   UNL     1     103.518  79.550  81.677  1.00  0.00    -0.461 OA
BRANCH  37  38
ATOM     38  C   UNL     1     104.622  78.744  81.831  1.00  0.00     0.310 C 
ATOM     39  O   UNL     1     105.405  78.796  82.769  1.00  0.00    -0.252 OA
BRANCH  38  40
ATOM     40  C   UNL     1     104.715  77.789  80.664  1.00  0.00     0.158 C 
BRANCH  40  41
ATOM     41  C   UNL     1     104.933  78.489  79.347  1.00  0.00    -0.033 A 
ATOM     42  C   UNL     1     104.014  78.326  78.310  1.00  0.00     0.054 A 
ATOM     43  C   UNL     1     106.053  79.300  79.165  1.00  0.00     0.008 A 
ATOM     44  C   UNL     1     104.215  78.975  77.091  1.00  0.00     0.160 A 
ATOM     45  C   UNL     1     106.255  79.949  77.946  1.00  0.00     0.050 A 
ATOM     46  C   UNL     1     105.336  79.786  76.909  1.00  0.00     0.157 A 
BRANCH  44  47
ATOM     47  O   UNL     1     103.311  78.808  76.087  1.00  0.00    -0.493 OA
ATOM     48  C   UNL     1     102.497  77.637  76.135  1.00  0.00     0.278 C 
ENDBRANCH  44  47
BRANCH  46  49
ATOM     49  O   UNL     1     105.543  80.424  75.724  1.00  0.00    -0.504 OA
ATOM     50  H   UNL     1     106.356  80.081  75.317  1.00  0.00     0.293 HD
ENDBRANCH  46  49
ENDBRANCH  40  41
ENDBRANCH  38  40
ENDBRANCH  37  38
ENDBRANCH   1  37
TORSDOF 11
ENDMDL
MODEL 7
REMARK VINA RESULT:    -5.734     21.085     25.600
REMARK INTER + INTRA:         -11.806
REMARK INTER:                  -9.376
REMARK INTRA:                  -2.430
REMARK UNBOUND:                -1.714
REMARK SMILES C=C(C)[C@]12C[C@@H](C)[C@@]34O[C@](Cc5ccccc5)(O[C@@H]1[C@@H]3C=C(COC(=O)Cc1ccc(O)c(OC)c1)C[C@]1(O)C(=O)C(C)=C[C@@H]41)O2
REMARK SMILES IDX 23 1 22 2 21 3 20 4 9 5 8 6 10 7 6 8 18 9 46 10 19 11 5 12
REMARK SMILES IDX 7 13 4 14 45 15 38 16 44 17 40 18 42 20 41 21 43 22 39 23
REMARK SMILES IDX 11 25 12 26 13 27 17 28 14 29 16 30 15 31 2 32 3 33 1 34
REMARK SMILES IDX 37 35 24 37 25 38 26 39 27 40 28 41 36 42 29 43 33 44 30 45
REMARK SMILES IDX 31 46 34 47 35 48 32 49
REMARK H PARENT 39 24 32 50
REMARK Flexibility Score: 90.00
ROOT
ATOM      1  C   UNL     1     100.470  78.017  81.484  1.00  0.00     0.264 C 
ENDROOT
BRANCH   1   2
ATOM      2  C   UNL     1      99.800  78.134  80.135  1.00  0.00    -0.033 C 
ATOM      3  C   UNL     1      99.522  79.357  79.640  1.00  0.00    -0.015 C 
BRANCH   3   4
ATOM      4  C   UNL     1      98.795  79.737  78.361  1.00  0.00     0.078 C 
ATOM      5  O   UNL     1     100.519  80.033  76.612  1.00  0.00    -0.319 OA
ATOM      6  C   UNL     1      99.368  79.216  76.990  1.00  0.00     0.095 C 
ATOM      7  C   UNL     1     100.364  81.450  76.817  1.00  0.00     0.289 C 
ATOM      8  C   UNL     1      98.229  79.380  75.901  1.00  0.00     0.023 C 
ATOM      9  O   UNL     1     100.064  81.745  78.179  1.00  0.00    -0.320 OA
ATOM     10  O   UNL     1      99.286  81.991  76.059  1.00  0.00    -0.313 OA
ATOM     11  C   UNL     1      98.707  81.279  78.244  1.00  0.00     0.170 C 
ATOM     12  C   UNL     1      97.339  80.629  76.188  1.00  0.00     0.049 C 
ATOM     13  C   UNL     1      98.712  79.421  74.442  1.00  0.00     0.011 C 
ATOM     14  C   UNL     1      98.129  81.739  76.883  1.00  0.00     0.122 C 
BRANCH   6  15
ATOM     15  C   UNL     1      99.944  77.779  77.144  1.00  0.00     0.086 C 
ATOM     16  C   UNL     1      99.104  76.795  77.984  1.00  0.00     0.140 CG0
ATOM     17  C   UNL     1     100.283  76.986  75.913  1.00  0.00    -0.010 C 
ATOM     18  C   UNL     1      99.354  75.475  77.287  1.00  0.00     0.190 C 
ATOM     19  G   UNL     1      99.536  76.774  79.450  1.00  0.00     0.000 G0
ATOM     20  C   UNL     1      99.988  75.683  75.972  1.00  0.00    -0.008 C 
ATOM     21  O   UNL     1      99.033  74.376  77.715  1.00  0.00    -0.291 OA
ATOM     22  C   UNL     1     100.251  74.603  74.999  1.00  0.00     0.048 C 
BRANCH  16  23
ATOM     23  O   UNL     1      97.704  76.985  77.860  1.00  0.00    -0.381 OA
ATOM     24  H   UNL     1      97.489  77.072  76.916  1.00  0.00     0.212 HD
ENDBRANCH  16  23
ENDBRANCH   6  15
BRANCH   7  25
ATOM     25  C   UNL     1     101.657  82.132  76.418  1.00  0.00     0.135 C 
BRANCH  25  26
ATOM     26  C   UNL     1     101.573  82.741  75.040  1.00  0.00    -0.040 A 
ATOM     27  C   UNL     1     101.919  81.983  73.921  1.00  0.00     0.004 A 
ATOM     28  C   UNL     1     101.147  84.060  74.885  1.00  0.00     0.004 A 
ATOM     29  C   UNL     1     101.841  82.545  72.647  1.00  0.00     0.000 A 
ATOM     30  C   UNL     1     101.070  84.622  73.610  1.00  0.00     0.000 A 
ATOM     31  C   UNL     1     101.417  83.864  72.492  1.00  0.00     0.000 A 
ENDBRANCH  25  26
ENDBRANCH   7  25
BRANCH  14  32
ATOM     32  C   UNL     1      97.351  83.008  77.003  1.00  0.00    -0.046 C 
ATOM     33  C   UNL     1      96.568  83.188  78.270  1.00  0.00     0.042 C 
ATOM     34  C   UNL     1      97.352  83.936  76.034  1.00  0.00     0.010 C 
ENDBRANCH  14  32
ENDBRANCH   3   4
BRANCH   2  35
ATOM     35  C   UNL     1      99.526  76.789  79.490  1.00  0.00     0.078 CG0
ATOM     36  G   UNL     1      99.119  76.790  78.017  1.00  0.00     0.000 G0
ENDBRANCH   2  35
ENDBRANCH   1   2
BRANCH   1  37
ATOM     37  O   UNL     1     101.866  78.152  81.326  1.00  0.00    -0.461 OA
BRANCH  37  38
ATOM     38  C   UNL     1     102.485  79.069  82.143  1.00  0.00     0.310 C 
ATOM     39  O   UNL     1     102.706  78.911  83.336  1.00  0.00    -0.252 OA
BRANCH  38  40
ATOM     40  C   UNL     1     102.848  80.296  81.340  1.00  0.00     0.158 C 
BRANCH  40  41
ATOM     41  C   UNL     1     103.933  80.036  80.327  1.00  0.00    -0.033 A 
ATOM     42  C   UNL     1     103.642  80.094  78.963  1.00  0.00     0.054 A 
ATOM     43  C   UNL     1     105.228  79.738  80.752  1.00  0.00     0.008 A 
ATOM     44  C   UNL     1     104.646  79.854  78.025  1.00  0.00     0.160 A 
ATOM     45  C   UNL     1     106.232  79.497  79.814  1.00  0.00     0.050 A 
ATOM     46  C   UNL     1     105.941  79.555  78.451  1.00  0.00     0.157 A 
BRANCH  44  47
ATOM     47  O   UNL     1     104.350  79.913  76.697  1.00  0.00    -0.493 OA
ATOM     48  C   UNL     1     103.661  78.797  76.136  1.00  0.00     0.278 C 
ENDBRANCH  44  47
BRANCH  46  49
ATOM     49  O   UNL     1     106.930  79.319  77.544  1.00  0.00    -0.504 OA
ATOM     50  H   UNL     1     107.089  80.130  77.032  1.00  0.00     0.293 HD
ENDBRANCH  46  49
ENDBRANCH  40  41
ENDBRANCH  38  40
ENDBRANCH  37  38
ENDBRANCH   1  37
TORSDOF 11
ENDMDL
MODEL 8
REMARK VINA RESULT:    -5.670     18.415     23.491
REMARK INTER + INTRA:         -11.693
REMARK INTER:                 -10.556
REMARK INTRA:                  -1.137
REMARK UNBOUND:                -1.714
REMARK SMILES C=C(C)[C@]12C[C@@H](C)[C@@]34O[C@](Cc5ccccc5)(O[C@@H]1[C@@H]3C=C(COC(=O)Cc1ccc(O)c(OC)c1)C[C@]1(O)C(=O)C(C)=C[C@@H]41)O2
REMARK SMILES IDX 23 1 22 2 21 3 20 4 9 5 8 6 10 7 6 8 18 9 46 10 19 11 5 12
REMARK SMILES IDX 7 13 4 14 45 15 38 16 44 17 40 18 42 20 41 21 43 22 39 23
REMARK SMILES IDX 11 25 12 26 13 27 17 28 14 29 16 30 15 31 2 32 3 33 1 34
REMARK SMILES IDX 37 35 24 37 25 38 26 39 27 40 28 41 36 42 29 43 33 44 30 45
REMARK SMILES IDX 31 46 34 47 35 48 32 49
REMARK H PARENT 39 24 32 50
REMARK Flexibility Score: 90.00
ROOT
ATOM      1  C   UNL     1      63.263  87.708  79.591  1.00  0.00     0.264 C 
ENDROOT
BRANCH   1   2
ATOM      2  C   UNL     1      64.020  87.430  78.314  1.00  0.00    -0.033 C 
ATOM      3  C   UNL     1      63.740  86.315  77.611  1.00  0.00    -0.015 C 
BRANCH   3   4
ATOM      4  C   UNL     1      64.403  85.774  76.354  1.00  0.00     0.078 C 
ATOM      5  O   UNL     1      63.112  86.640  74.429  1.00  0.00    -0.319 OA
ATOM      6  C   UNL     1      64.425  86.684  75.069  1.00  0.00     0.095 C 
ATOM      7  C   UNL     1      62.504  85.337  74.359  1.00  0.00     0.289 C 
ATOM      8  C   UNL     1      65.510  86.088  74.079  1.00  0.00     0.023 C 
ATOM      9  O   UNL     1      62.363  84.761  75.655  1.00  0.00    -0.320 OA
ATOM     10  O   UNL     1      63.289  84.413  73.610  1.00  0.00    -0.313 OA
ATOM     11  C   UNL     1      63.734  84.441  75.938  1.00  0.00     0.170 C 
ATOM     12  C   UNL     1      65.593  84.535  74.190  1.00  0.00     0.049 C 
ATOM     13  C   UNL     1      65.346  86.488  72.604  1.00  0.00     0.011 C 
ATOM     14  C   UNL     1      64.246  83.922  74.571  1.00  0.00     0.122 C 
BRANCH   6  15
ATOM     15  C   UNL     1      64.621  88.179  75.455  1.00  0.00     0.086 C 
ATOM     16  C   UNL     1      65.666  88.467  76.552  1.00  0.00     0.140 CG0
ATOM     17  C   UNL     1      64.955  89.178  74.383  1.00  0.00    -0.010 C 
ATOM     18  C   UNL     1      66.238  89.799  76.116  1.00  0.00     0.190 C 
ATOM     19  G   UNL     1      65.038  88.527  77.944  1.00  0.00     0.000 G0
ATOM     20  C   UNL     1      65.839  90.118  74.732  1.00  0.00    -0.008 C 
ATOM     21  O   UNL     1      66.975  90.507  76.786  1.00  0.00    -0.291 OA
ATOM     22  C   UNL     1      66.332  91.288  73.977  1.00  0.00     0.048 C 
BRANCH  16  23
ATOM     23  O   UNL     1      66.782  87.594  76.525  1.00  0.00    -0.381 OA
ATOM     24  H   UNL     1      66.525  86.781  76.059  1.00  0.00     0.212 HD
ENDBRANCH  16  23
ENDBRANCH   6  15
BRANCH   7  25
ATOM     25  C   UNL     1      61.141  85.483  73.713  1.00  0.00     0.135 C 
BRANCH  25  26
ATOM     26  C   UNL     1      61.209  85.343  72.212  1.00  0.00    -0.040 A 
ATOM     27  C   UNL     1      61.510  86.452  71.421  1.00  0.00     0.004 A 
ATOM     28  C   UNL     1      60.971  84.105  71.616  1.00  0.00     0.004 A 
ATOM     29  C   UNL     1      61.573  86.322  70.034  1.00  0.00     0.000 A 
ATOM     30  C   UNL     1      61.034  83.975  70.228  1.00  0.00     0.000 A 
ATOM     31  C   UNL     1      61.335  85.085  69.437  1.00  0.00     0.000 A 
ENDBRANCH  25  26
ENDBRANCH   7  25
BRANCH  14  32
ATOM     32  C   UNL     1      64.255  82.429  74.506  1.00  0.00    -0.046 C 
ATOM     33  C   UNL     1      64.587  81.712  75.780  1.00  0.00     0.042 C 
ATOM     34  C   UNL     1      63.981  81.767  73.371  1.00  0.00     0.010 C 
ENDBRANCH  14  32
ENDBRANCH   3   4
BRANCH   2  35
ATOM     35  C   UNL     1      65.039  88.504  77.981  1.00  0.00     0.078 CG0
ATOM     36  G   UNL     1      65.662  88.467  76.586  1.00  0.00     0.000 G0
ENDBRANCH   2  35
ENDBRANCH   1   2
BRANCH   1  37
ATOM     37  O   UNL     1      63.733  88.910  80.161  1.00  0.00    -0.461 OA
BRANCH  37  38
ATOM     38  C   UNL     1      63.871  88.922  81.530  1.00  0.00     0.310 C 
ATOM     39  O   UNL     1      64.424  89.803  82.173  1.00  0.00    -0.252 OA
BRANCH  38  40
ATOM     40  C   UNL     1      63.234  87.682  82.111  1.00  0.00     0.158 C 
BRANCH  40  41
ATOM     41  C   UNL     1      64.244  86.684  82.617  1.00  0.00    -0.033 A 
ATOM     42  C   UNL     1      65.301  86.286  81.797  1.00  0.00     0.054 A 
ATOM     43  C   UNL     1      64.123  86.160  83.903  1.00  0.00     0.008 A 
ATOM     44  C   UNL     1      66.236  85.362  82.265  1.00  0.00     0.160 A 
ATOM     45  C   UNL     1      65.058  85.236  84.371  1.00  0.00     0.050 A 
ATOM     46  C   UNL     1      66.114  84.837  83.553  1.00  0.00     0.157 A 
BRANCH  44  47
ATOM     47  O   UNL     1      67.263  84.980  81.456  1.00  0.00    -0.493 OA
ATOM     48  C   UNL     1      67.364  85.627  80.188  1.00  0.00     0.278 C 
ENDBRANCH  44  47
BRANCH  46  49
ATOM     49  O   UNL     1      67.022  83.936  84.020  1.00  0.00    -0.504 OA
ATOM     50  H   UNL     1      66.591  83.365  84.678  1.00  0.00     0.293 HD
ENDBRANCH  46  49
ENDBRANCH  40  41
ENDBRANCH  38  40
ENDBRANCH  37  38
ENDBRANCH   1  37
TORSDOF 11
ENDMDL
MODEL 9
REMARK VINA RESULT:    -5.625     21.878     25.776
REMARK INTER + INTRA:         -11.613
REMARK INTER:                 -10.790
REMARK INTRA:                  -0.823
REMARK UNBOUND:                -1.714
REMARK SMILES C=C(C)[C@]12C[C@@H](C)[C@@]34O[C@](Cc5ccccc5)(O[C@@H]1[C@@H]3C=C(COC(=O)Cc1ccc(O)c(OC)c1)C[C@]1(O)C(=O)C(C)=C[C@@H]41)O2
REMARK SMILES IDX 23 1 22 2 21 3 20 4 9 5 8 6 10 7 6 8 18 9 46 10 19 11 5 12
REMARK SMILES IDX 7 13 4 14 45 15 38 16 44 17 40 18 42 20 41 21 43 22 39 23
REMARK SMILES IDX 11 25 12 26 13 27 17 28 14 29 16 30 15 31 2 32 3 33 1 34
REMARK SMILES IDX 37 35 24 37 25 38 26 39 27 40 28 41 36 42 29 43 33 44 30 45
REMARK SMILES IDX 31 46 34 47 35 48 32 49
REMARK H PARENT 39 24 32 50
REMARK Flexibility Score: 90.00
ROOT
ATOM      1  C   UNL     1      84.572  67.725  76.550  1.00  0.00     0.264 C 
ENDROOT
BRANCH   1   2
ATOM      2  C   UNL     1      85.743  67.445  77.464  1.00  0.00    -0.033 C 
ATOM      3  C   UNL     1      86.472  68.476  77.937  1.00  0.00    -0.015 C 
BRANCH   3   4
ATOM      4  C   UNL     1      87.725  68.457  78.796  1.00  0.00     0.078 C 
ATOM      5  O   UNL     1      86.985  68.612  81.152  1.00  0.00    -0.319 OA
ATOM      6  C   UNL     1      87.662  67.739  80.196  1.00  0.00     0.095 C 
ATOM      7  C   UNL     1      87.359  70.001  81.090  1.00  0.00     0.289 C 
ATOM      8  C   UNL     1      89.152  67.493  80.676  1.00  0.00     0.023 C 
ATOM      9  O   UNL     1      87.133  70.540  79.790  1.00  0.00    -0.320 OA
ATOM     10  O   UNL     1      88.745  70.201  81.354  1.00  0.00    -0.313 OA
ATOM     11  C   UNL     1      88.199  69.907  79.066  1.00  0.00     0.170 C 
ATOM     12  C   UNL     1      90.103  68.631  80.192  1.00  0.00     0.049 C 
ATOM     13  C   UNL     1      89.333  67.284  82.188  1.00  0.00     0.011 C 
ATOM     14  C   UNL     1      89.372  69.969  80.076  1.00  0.00     0.122 C 
BRANCH   6  15
ATOM     15  C   UNL     1      86.765  66.470  80.125  1.00  0.00     0.086 C 
ATOM     16  C   UNL     1      86.933  65.588  78.870  1.00  0.00     0.140 CG0
ATOM     17  C   UNL     1      86.798  65.480  81.255  1.00  0.00    -0.010 C 
ATOM     18  C   UNL     1      86.703  64.195  79.418  1.00  0.00     0.190 C 
ATOM     19  G   UNL     1      85.939  65.955  77.769  1.00  0.00     0.000 G0
ATOM     20  C   UNL     1      86.737  64.194  80.893  1.00  0.00    -0.008 C 
ATOM     21  O   UNL     1      86.557  63.185  78.746  1.00  0.00    -0.291 OA
ATOM     22  C   UNL     1      86.665  62.974  81.722  1.00  0.00     0.048 C 
BRANCH  16  23
ATOM     23  O   UNL     1      88.260  65.541  78.375  1.00  0.00    -0.381 OA
ATOM     24  H   UNL     1      88.867  65.761  79.101  1.00  0.00     0.212 HD
ENDBRANCH  16  23
ENDBRANCH   6  15
BRANCH   7  25
ATOM     25  C   UNL     1      86.535  70.761  82.109  1.00  0.00     0.135 C 
BRANCH  25  26
ATOM     26  C   UNL     1      86.551  70.092  83.461  1.00  0.00    -0.040 A 
ATOM     27  C   UNL     1      85.388  69.506  83.963  1.00  0.00     0.004 A 
ATOM     28  C   UNL     1      87.727  70.058  84.209  1.00  0.00     0.004 A 
ATOM     29  C   UNL     1      85.402  68.887  85.213  1.00  0.00     0.000 A 
ATOM     30  C   UNL     1      87.741  69.439  85.459  1.00  0.00     0.000 A 
ATOM     31  C   UNL     1      86.579  68.854  85.961  1.00  0.00     0.000 A 
ENDBRANCH  25  26
ENDBRANCH   7  25
BRANCH  14  32
ATOM     32  C   UNL     1      90.298  71.107  79.792  1.00  0.00    -0.046 C 
ATOM     33  C   UNL     1      90.211  71.705  78.420  1.00  0.00     0.042 C 
ATOM     34  C   UNL     1      91.158  71.568  80.712  1.00  0.00     0.010 C 
ENDBRANCH  14  32
ENDBRANCH   3   4
BRANCH   2  35
ATOM     35  C   UNL     1      85.940  65.967  77.743  1.00  0.00     0.078 CG0
ATOM     36  G   UNL     1      86.911  65.589  78.860  1.00  0.00     0.000 G0
ENDBRANCH   2  35
ENDBRANCH   1   2
BRANCH   1  37
ATOM     37  O   UNL     1      83.438  67.028  77.018  1.00  0.00    -0.461 OA
BRANCH  37  38
ATOM     38  C   UNL     1      82.905  66.090  76.165  1.00  0.00     0.310 C 
ATOM     39  O   UNL     1      83.466  65.061  75.814  1.00  0.00    -0.252 OA
BRANCH  38  40
ATOM     40  C   UNL     1      81.525  66.526  75.732  1.00  0.00     0.158 C 
BRANCH  40  41
ATOM     41  C   UNL     1      81.299  66.376  74.250  1.00  0.00    -0.033 A 
ATOM     42  C   UNL     1      82.159  67.002  73.347  1.00  0.00     0.054 A 
ATOM     43  C   UNL     1      80.232  65.611  73.781  1.00  0.00     0.008 A 
ATOM     44  C   UNL     1      81.949  66.863  71.974  1.00  0.00     0.160 A 
ATOM     45  C   UNL     1      80.023  65.471  72.409  1.00  0.00     0.050 A 
ATOM     46  C   UNL     1      80.881  66.098  71.506  1.00  0.00     0.157 A 
BRANCH  44  47
ATOM     47  O   UNL     1      82.795  67.480  71.102  1.00  0.00    -0.493 OA
ATOM     48  C   UNL     1      82.916  68.897  71.210  1.00  0.00     0.278 C 
ENDBRANCH  44  47
BRANCH  46  49
ATOM     49  O   UNL     1      80.667  65.954  70.168  1.00  0.00    -0.504 OA
ATOM     50  H   UNL     1      81.287  65.291  69.818  1.00  0.00     0.293 HD
ENDBRANCH  46  49
ENDBRANCH  40  41
ENDBRANCH  38  40
ENDBRANCH  37  38
ENDBRANCH   1  37
TORSDOF 11
ENDMDL
MODEL 10
REMARK VINA RESULT:    -5.177     17.136     20.856
REMARK INTER + INTRA:         -10.825
REMARK INTER:                  -8.626
REMARK INTRA:                  -2.199
REMARK UNBOUND:                -1.714
REMARK SMILES C=C(C)[C@]12C[C@@H](C)[C@@]34O[C@](Cc5ccccc5)(O[C@@H]1[C@@H]3C=C(COC(=O)Cc1ccc(O)c(OC)c1)C[C@]1(O)C(=O)C(C)=C[C@@H]41)O2
REMARK SMILES IDX 23 1 22 2 21 3 20 4 9 5 8 6 10 7 6 8 18 9 46 10 19 11 5 12
REMARK SMILES IDX 7 13 4 14 45 15 38 16 44 17 40 18 42 20 41 21 43 22 39 23
REMARK SMILES IDX 11 25 12 26 13 27 17 28 14 29 16 30 15 31 2 32 3 33 1 34
REMARK SMILES IDX 37 35 24 37 25 38 26 39 27 40 28 41 36 42 29 43 33 44 30 45
REMARK SMILES IDX 31 46 34 47 35 48 32 49
REMARK H PARENT 39 24 32 50
REMARK Flexibility Score: 90.00
ROOT
ATOM      1  C   UNL     1      82.884  70.068  88.757  1.00  0.00     0.264 C 
ENDROOT
BRANCH   1   2
ATOM      2  C   UNL     1      81.707  71.014  88.799  1.00  0.00    -0.033 C 
ATOM      3  C   UNL     1      80.853  71.051  87.756  1.00  0.00    -0.015 C 
BRANCH   3   4
ATOM      4  C   UNL     1      79.654  71.955  87.522  1.00  0.00     0.078 C 
ATOM      5  O   UNL     1      77.675  70.773  88.420  1.00  0.00    -0.319 OA
ATOM      6  C   UNL     1      78.502  71.964  88.595  1.00  0.00     0.095 C 
ATOM      7  C   UNL     1      77.362  70.436  87.055  1.00  0.00     0.289 C 
ATOM      8  C   UNL     1      77.621  73.256  88.342  1.00  0.00     0.023 C 
ATOM      9  O   UNL     1      78.546  70.247  86.284  1.00  0.00    -0.320 OA
ATOM     10  O   UNL     1      76.634  71.469  86.395  1.00  0.00    -0.313 OA
ATOM     11  C   UNL     1      78.990  71.607  86.167  1.00  0.00     0.170 C 
ATOM     12  C   UNL     1      77.560  73.618  86.826  1.00  0.00     0.049 C 
ATOM     13  C   UNL     1      76.195  73.205  88.913  1.00  0.00     0.011 C 
ATOM     14  C   UNL     1      77.662  72.374  85.943  1.00  0.00     0.122 C 
BRANCH   6  15
ATOM     15  C   UNL     1      79.086  71.824  90.031  1.00  0.00     0.086 C 
ATOM     16  C   UNL     1      80.358  72.643  90.332  1.00  0.00     0.140 CG0
ATOM     17  C   UNL     1      78.203  72.102  91.215  1.00  0.00    -0.010 C 
ATOM     18  C   UNL     1      80.174  73.007  91.790  1.00  0.00     0.190 C 
ATOM     19  G   UNL     1      81.634  71.839  90.086  1.00  0.00     0.000 G0
ATOM     20  C   UNL     1      78.792  72.741  92.231  1.00  0.00    -0.008 C 
ATOM     21  O   UNL     1      81.028  73.505  92.508  1.00  0.00    -0.291 OA
ATOM     22  C   UNL     1      78.264  73.100  93.564  1.00  0.00     0.048 C 
BRANCH  16  23
ATOM     23  O   UNL     1      80.401  73.898  89.672  1.00  0.00    -0.381 OA
ATOM     24  H   UNL     1      79.765  74.493  90.102  1.00  0.00     0.212 HD
ENDBRANCH  16  23
ENDBRANCH   6  15
BRANCH   7  25
ATOM     25  C   UNL     1      76.543  69.161  87.056  1.00  0.00     0.135 C 
BRANCH  25  26
ATOM     26  C   UNL     1      76.262  68.668  85.658  1.00  0.00    -0.040 A 
ATOM     27  C   UNL     1      75.086  69.045  85.009  1.00  0.00     0.004 A 
ATOM     28  C   UNL     1      77.178  67.838  85.014  1.00  0.00     0.004 A 
ATOM     29  C   UNL     1      74.826  68.590  83.716  1.00  0.00     0.000 A 
ATOM     30  C   UNL     1      76.918  67.382  83.720  1.00  0.00     0.000 A 
ATOM     31  C   UNL     1      75.742  67.759  83.072  1.00  0.00     0.000 A 
ENDBRANCH  25  26
ENDBRANCH   7  25
BRANCH  14  32
ATOM     32  C   UNL     1      77.423  72.673  84.499  1.00  0.00    -0.046 C 
ATOM     33  C   UNL     1      78.281  73.744  83.894  1.00  0.00     0.042 C 
ATOM     34  C   UNL     1      76.494  72.021  83.783  1.00  0.00     0.010 C 
ENDBRANCH  14  32
ENDBRANCH   3   4
BRANCH   2  35
ATOM     35  C   UNL     1      81.642  71.828  90.078  1.00  0.00     0.078 CG0
ATOM     36  G   UNL     1      80.376  72.648  90.321  1.00  0.00     0.000 G0
ENDBRANCH   2  35
ENDBRANCH   1   2
BRANCH   1  37
ATOM     37  O   UNL     1      82.447  68.798  88.324  1.00  0.00    -0.461 OA
BRANCH  37  38
ATOM     38  C   UNL     1      82.961  68.353  87.128  1.00  0.00     0.310 C 
ATOM     39  O   UNL     1      84.152  68.213  86.884  1.00  0.00    -0.252 OA
BRANCH  38  40
ATOM     40  C   UNL     1      81.830  68.065  86.169  1.00  0.00     0.158 C 
BRANCH  40  41
ATOM     41  C   UNL     1      81.058  66.821  86.525  1.00  0.00    -0.033 A 
ATOM     42  C   UNL     1      79.815  66.928  87.150  1.00  0.00     0.054 A 
ATOM     43  C   UNL     1      81.586  65.565  86.231  1.00  0.00     0.008 A 
ATOM     44  C   UNL     1      79.100  65.776  87.480  1.00  0.00     0.160 A 
ATOM     45  C   UNL     1      80.871  64.413  86.562  1.00  0.00     0.050 A 
ATOM     46  C   UNL     1      79.629  64.518  87.186  1.00  0.00     0.157 A 
BRANCH  44  47
ATOM     47  O   UNL     1      77.887  65.892  88.089  1.00  0.00    -0.493 OA
ATOM     48  C   UNL     1      77.883  66.334  89.446  1.00  0.00     0.278 C 
ENDBRANCH  44  47
BRANCH  46  49
ATOM     49  O   UNL     1      78.939  63.387  87.503  1.00  0.00    -0.504 OA
ATOM     50  H   UNL     1      78.160  63.320  86.926  1.00  0.00     0.293 HD
ENDBRANCH  46  49
ENDBRANCH  40  41
ENDBRANCH  38  40
ENDBRANCH  37  38
ENDBRANCH   1  37
TORSDOF 11
ENDMDL
