MODEL 1
REMARK VINA RESULT:    -6.088      0.000      0.000
REMARK INTER + INTRA:         -10.170
REMARK INTER:                  -9.470
REMARK INTRA:                  -0.700
REMARK UNBOUND:                -0.700
REMARK SMILES COc1cc(CNC(=O)CCCC/C=C/C(C)C)ccc1O
REMARK SMILES IDX 10 1 8 2 7 3 9 5 6 6 5 7 3 8 21 9 4 10 20 11 19 12 2 13 1 14
REMARK SMILES IDX 22 15 11 17 12 18 13 19 14 20 15 21 16 22 17 23 18 24
REMARK H PARENT 7 4 22 16
REMARK Flexibility Score: inf
ROOT
ATOM      1  C   UNL     1      98.215  81.298  84.028  1.00  0.00     0.100 C 
ENDROOT
BRANCH   1   2
ATOM      2  C   UNL     1      98.960  81.235  82.756  1.00  0.00     0.220 C 
ATOM      3  N   UNL     1      99.446  82.371  82.181  1.00  0.00    -0.352 N 
ATOM      4  H   UNL     1      99.232  83.225  82.678  1.00  0.00     0.163 HD
ATOM      5  O   UNL     1      99.152  80.108  82.237  1.00  0.00    -0.275 OA
BRANCH   3   6
ATOM      6  C   UNL     1     100.205  82.413  80.973  1.00  0.00     0.151 C 
BRANCH   6   7
ATOM      7  C   UNL     1      99.370  82.843  79.818  1.00  0.00    -0.025 A 
ATOM      8  C   UNL     1      99.130  83.261  77.403  1.00  0.00     0.160 A 
ATOM      9  C   UNL     1      97.787  83.642  77.602  1.00  0.00     0.157 A 
ATOM     10  C   UNL     1      99.908  82.867  78.512  1.00  0.00     0.056 A 
ATOM     11  C   UNL     1      97.242  83.642  78.901  1.00  0.00     0.050 A 
ATOM     12  C   UNL     1      98.024  83.236  80.000  1.00  0.00     0.009 A 
BRANCH   8  13
ATOM     13  O   UNL     1      99.684  83.322  76.150  1.00  0.00    -0.493 OA
ATOM     14  C   UNL     1     100.891  84.103  76.080  1.00  0.00     0.278 C 
ENDBRANCH   8  13
BRANCH   9  15
ATOM     15  O   UNL     1      97.006  84.013  76.555  1.00  0.00    -0.504 OA
ATOM     16  H   UNL     1      96.433  83.283  76.307  1.00  0.00     0.293 HD
ENDBRANCH   9  15
ENDBRANCH   6   7
ENDBRANCH   3   6
ENDBRANCH   1   2
BRANCH   1  17
ATOM     17  C   UNL     1      97.453  82.642  84.178  1.00  0.00     0.010 C 
BRANCH  17  18
ATOM     18  C   UNL     1      98.105  83.594  85.221  1.00  0.00     0.005 C 
BRANCH  18  19
ATOM     19  C   UNL     1      97.441  84.997  85.236  1.00  0.00     0.027 C 
BRANCH  19  20
ATOM     20  C   UNL     1      96.697  85.237  86.463  1.00  0.00    -0.031 C 
ATOM     21  C   UNL     1      95.416  85.649  86.502  1.00  0.00    -0.028 C 
BRANCH  21  22
ATOM     22  C   UNL     1      94.681  85.866  87.748  1.00  0.00     0.005 C 
ATOM     23  C   UNL     1      94.114  84.543  88.335  1.00  0.00     0.012 C 
ATOM     24  C   UNL     1      95.581  86.589  88.783  1.00  0.00     0.012 C 
ENDBRANCH  21  22
ENDBRANCH  19  20
ENDBRANCH  18  19
ENDBRANCH  17  18
ENDBRANCH   1  17
TORSDOF 10
ENDMDL
MODEL 2
REMARK VINA RESULT:    -6.082      2.662      9.067
REMARK INTER + INTRA:         -10.160
REMARK INTER:                  -9.423
REMARK INTRA:                  -0.737
REMARK UNBOUND:                -0.700
REMARK SMILES COc1cc(CNC(=O)CCCC/C=C/C(C)C)ccc1O
REMARK SMILES IDX 10 1 8 2 7 3 9 5 6 6 5 7 3 8 21 9 4 10 20 11 19 12 2 13 1 14
REMARK SMILES IDX 22 15 11 17 12 18 13 19 14 20 15 21 16 22 17 23 18 24
REMARK H PARENT 7 4 22 16
REMARK Flexibility Score: inf
ROOT
ATOM      1  C   UNL     1      99.418  82.979  80.158  1.00  0.00     0.100 C 
ENDROOT
BRANCH   1   2
ATOM      2  C   UNL     1      99.188  82.209  81.396  1.00  0.00     0.220 C 
ATOM      3  N   UNL     1      98.642  82.808  82.491  1.00  0.00    -0.352 N 
ATOM      4  H   UNL     1      98.443  83.793  82.384  1.00  0.00     0.163 HD
ATOM      5  O   UNL     1      99.486  80.990  81.399  1.00  0.00    -0.275 OA
BRANCH   3   6
ATOM      6  C   UNL     1      98.351  82.146  83.722  1.00  0.00     0.151 C 
BRANCH   6   7
ATOM      7  C   UNL     1      97.427  82.948  84.569  1.00  0.00    -0.025 A 
ATOM      8  C   UNL     1      95.705  83.059  86.326  1.00  0.00     0.160 A 
ATOM      9  C   UNL     1      95.673  84.464  86.206  1.00  0.00     0.157 A 
ATOM     10  C   UNL     1      96.579  82.315  85.506  1.00  0.00     0.056 A 
ATOM     11  C   UNL     1      96.499  85.108  85.263  1.00  0.00     0.050 A 
ATOM     12  C   UNL     1      97.377  84.357  84.457  1.00  0.00     0.009 A 
BRANCH   8  13
ATOM     13  O   UNL     1      94.856  82.424  87.195  1.00  0.00    -0.493 OA
ATOM     14  C   UNL     1      93.669  81.895  86.575  1.00  0.00     0.278 C 
ENDBRANCH   8  13
BRANCH   9  15
ATOM     15  O   UNL     1      94.853  85.211  86.990  1.00  0.00    -0.504 OA
ATOM     16  H   UNL     1      94.445  84.650  87.654  1.00  0.00     0.293 HD
ENDBRANCH   9  15
ENDBRANCH   6   7
ENDBRANCH   3   6
ENDBRANCH   1   2
BRANCH   1  17
ATOM     17  C   UNL     1      98.448  82.546  79.026  1.00  0.00     0.010 C 
BRANCH  17  18
ATOM     18  C   UNL     1      97.456  83.671  78.616  1.00  0.00     0.005 C 
BRANCH  18  19
ATOM     19  C   UNL     1      97.388  83.865  77.077  1.00  0.00     0.027 C 
BRANCH  19  20
ATOM     20  C   UNL     1      98.676  83.642  76.439  1.00  0.00    -0.031 C 
ATOM     21  C   UNL     1      99.394  84.602  75.828  1.00  0.00    -0.028 C 
BRANCH  21  22
ATOM     22  C   UNL     1     100.697  84.358  75.210  1.00  0.00     0.005 C 
ATOM     23  C   UNL     1     101.063  85.443  74.160  1.00  0.00     0.012 C 
ATOM     24  C   UNL     1     101.796  84.251  76.300  1.00  0.00     0.012 C 
ENDBRANCH  21  22
ENDBRANCH  19  20
ENDBRANCH  18  19
ENDBRANCH  17  18
ENDBRANCH   1  17
TORSDOF 10
ENDMDL
MODEL 3
REMARK VINA RESULT:    -6.035     24.040     25.584
REMARK INTER + INTRA:         -10.087
REMARK INTER:                  -9.547
REMARK INTRA:                  -0.540
REMARK UNBOUND:                -0.700
REMARK SMILES COc1cc(CNC(=O)CCCC/C=C/C(C)C)ccc1O
REMARK SMILES IDX 10 1 8 2 7 3 9 5 6 6 5 7 3 8 21 9 4 10 20 11 19 12 2 13 1 14
REMARK SMILES IDX 22 15 11 17 12 18 13 19 14 20 15 21 16 22 17 23 18 24
REMARK H PARENT 7 4 22 16
REMARK Flexibility Score: inf
ROOT
ATOM      1  C   UNL     1      74.563  87.957  70.186  1.00  0.00     0.100 C 
ENDROOT
BRANCH   1   2
ATOM      2  C   UNL     1      75.686  87.002  70.121  1.00  0.00     0.220 C 
ATOM      3  N   UNL     1      75.462  85.663  70.239  1.00  0.00    -0.352 N 
ATOM      4  H   UNL     1      74.497  85.404  70.393  1.00  0.00     0.163 HD
ATOM      5  O   UNL     1      76.840  87.456  69.932  1.00  0.00    -0.275 OA
BRANCH   3   6
ATOM      6  C   UNL     1      76.472  84.657  70.159  1.00  0.00     0.151 C 
BRANCH   6   7
ATOM      7  C   UNL     1      76.796  84.319  68.746  1.00  0.00    -0.025 A 
ATOM      8  C   UNL     1      76.099  83.436  66.555  1.00  0.00     0.160 A 
ATOM      9  C   UNL     1      77.389  83.686  66.043  1.00  0.00     0.157 A 
ATOM     10  C   UNL     1      75.815  83.752  67.900  1.00  0.00     0.056 A 
ATOM     11  C   UNL     1      78.383  84.232  66.880  1.00  0.00     0.050 A 
ATOM     12  C   UNL     1      78.087  84.556  68.218  1.00  0.00     0.009 A 
BRANCH   8  13
ATOM     13  O   UNL     1      75.148  82.843  65.764  1.00  0.00    -0.493 OA
ATOM     14  C   UNL     1      75.004  81.428  65.980  1.00  0.00     0.278 C 
ENDBRANCH   8  13
BRANCH   9  15
ATOM     15  O   UNL     1      77.692  83.406  64.750  1.00  0.00    -0.504 OA
ATOM     16  H   UNL     1      77.016  83.774  64.175  1.00  0.00     0.293 HD
ENDBRANCH   9  15
ENDBRANCH   6   7
ENDBRANCH   3   6
ENDBRANCH   1   2
BRANCH   1  17
ATOM     17  C   UNL     1      74.812  89.061  71.249  1.00  0.00     0.010 C 
BRANCH  17  18
ATOM     18  C   UNL     1      75.606  90.273  70.688  1.00  0.00     0.005 C 
BRANCH  18  19
ATOM     19  C   UNL     1      75.056  91.630  71.204  1.00  0.00     0.027 C 
BRANCH  19  20
ATOM     20  C   UNL     1      75.998  92.303  72.086  1.00  0.00    -0.031 C 
ATOM     21  C   UNL     1      77.333  92.152  72.023  1.00  0.00    -0.028 C 
BRANCH  21  22
ATOM     22  C   UNL     1      78.263  92.854  72.908  1.00  0.00     0.005 C 
ATOM     23  C   UNL     1      78.636  94.263  72.372  1.00  0.00     0.012 C 
ATOM     24  C   UNL     1      77.674  92.945  74.340  1.00  0.00     0.012 C 
ENDBRANCH  21  22
ENDBRANCH  19  20
ENDBRANCH  18  19
ENDBRANCH  17  18
ENDBRANCH   1  17
TORSDOF 10
ENDMDL
MODEL 4
REMARK VINA RESULT:    -6.003     13.338     14.571
REMARK INTER + INTRA:         -10.038
REMARK INTER:                  -9.084
REMARK INTRA:                  -0.953
REMARK UNBOUND:                -0.700
REMARK SMILES COc1cc(CNC(=O)CCCC/C=C/C(C)C)ccc1O
REMARK SMILES IDX 10 1 8 2 7 3 9 5 6 6 5 7 3 8 21 9 4 10 20 11 19 12 2 13 1 14
REMARK SMILES IDX 22 15 11 17 12 18 13 19 14 20 15 21 16 22 17 23 18 24
REMARK H PARENT 7 4 22 16
REMARK Flexibility Score: inf
ROOT
ATOM      1  C   UNL     1      95.942  94.912  81.149  1.00  0.00     0.100 C 
ENDROOT
BRANCH   1   2
ATOM      2  C   UNL     1      96.641  96.056  80.534  1.00  0.00     0.220 C 
ATOM      3  N   UNL     1      95.967  97.204  80.245  1.00  0.00    -0.352 N 
ATOM      4  H   UNL     1      94.980  97.185  80.462  1.00  0.00     0.163 HD
ATOM      5  O   UNL     1      97.871  95.948  80.309  1.00  0.00    -0.275 OA
BRANCH   3   6
ATOM      6  C   UNL     1      96.556  98.376  79.680  1.00  0.00     0.151 C 
BRANCH   6   7
ATOM      7  C   UNL     1      96.557  98.325  78.193  1.00  0.00    -0.025 A 
ATOM      8  C   UNL     1      95.550  97.534  76.089  1.00  0.00     0.160 A 
ATOM      9  C   UNL     1      96.532  98.232  75.356  1.00  0.00     0.157 A 
ATOM     10  C   UNL     1      95.573  97.585  77.499  1.00  0.00     0.056 A 
ATOM     11  C   UNL     1      97.531  98.958  76.034  1.00  0.00     0.050 A 
ATOM     12  C   UNL     1      97.538  99.013  77.442  1.00  0.00     0.009 A 
BRANCH   8  13
ATOM     13  O   UNL     1      94.615  96.772  75.435  1.00  0.00    -0.493 OA
ATOM     14  C   UNL     1      93.253  97.151  75.710  1.00  0.00     0.278 C 
ENDBRANCH   8  13
BRANCH   9  15
ATOM     15  O   UNL     1      96.530  98.214  73.998  1.00  0.00    -0.504 OA
ATOM     16  H   UNL     1      95.683  97.891  73.682  1.00  0.00     0.293 HD
ENDBRANCH   9  15
ENDBRANCH   6   7
ENDBRANCH   3   6
ENDBRANCH   1   2
BRANCH   1  17
ATOM     17  C   UNL     1      95.619  93.809  80.105  1.00  0.00     0.010 C 
BRANCH  17  18
ATOM     18  C   UNL     1      94.757  94.331  78.922  1.00  0.00     0.005 C 
BRANCH  18  19
ATOM     19  C   UNL     1      93.475  95.064  79.402  1.00  0.00     0.027 C 
BRANCH  19  20
ATOM     20  C   UNL     1      92.263  94.373  78.989  1.00  0.00    -0.031 C 
ATOM     21  C   UNL     1      91.517  94.726  77.926  1.00  0.00    -0.028 C 
BRANCH  21  22
ATOM     22  C   UNL     1      90.312  94.004  77.518  1.00  0.00     0.005 C 
ATOM     23  C   UNL     1      89.846  92.980  78.589  1.00  0.00     0.012 C 
ATOM     24  C   UNL     1      89.177  95.005  77.179  1.00  0.00     0.012 C 
ENDBRANCH  21  22
ENDBRANCH  19  20
ENDBRANCH  18  19
ENDBRANCH  17  18
ENDBRANCH   1  17
TORSDOF 10
ENDMDL
MODEL 5
REMARK VINA RESULT:    -5.923     13.155     15.076
REMARK INTER + INTRA:          -9.912
REMARK INTER:                  -8.948
REMARK INTRA:                  -0.964
REMARK UNBOUND:                -0.700
REMARK SMILES COc1cc(CNC(=O)CCCC/C=C/C(C)C)ccc1O
REMARK SMILES IDX 10 1 8 2 7 3 9 5 6 6 5 7 3 8 21 9 4 10 20 11 19 12 2 13 1 14
REMARK SMILES IDX 22 15 11 17 12 18 13 19 14 20 15 21 16 22 17 23 18 24
REMARK H PARENT 7 4 22 16
REMARK Flexibility Score: inf
ROOT
ATOM      1  C   UNL     1      95.372  93.536  80.402  1.00  0.00     0.100 C 
ENDROOT
BRANCH   1   2
ATOM      2  C   UNL     1      95.253  94.276  81.673  1.00  0.00     0.220 C 
ATOM      3  N   UNL     1      95.019  95.618  81.673  1.00  0.00    -0.352 N 
ATOM      4  H   UNL     1      94.964  96.041  80.756  1.00  0.00     0.163 HD
ATOM      5  O   UNL     1      95.349  93.631  82.745  1.00  0.00    -0.275 OA
BRANCH   3   6
ATOM      6  C   UNL     1      94.856  96.418  82.844  1.00  0.00     0.151 C 
BRANCH   6   7
ATOM      7  C   UNL     1      95.974  97.388  83.003  1.00  0.00    -0.025 A 
ATOM      8  C   UNL     1      96.937  99.615  82.581  1.00  0.00     0.160 A 
ATOM      9  C   UNL     1      98.088  99.257  83.314  1.00  0.00     0.157 A 
ATOM     10  C   UNL     1      95.894  98.677  82.430  1.00  0.00     0.056 A 
ATOM     11  C   UNL     1      98.191  97.968  83.874  1.00  0.00     0.050 A 
ATOM     12  C   UNL     1      97.138  97.044  83.729  1.00  0.00     0.009 A 
BRANCH   8  13
ATOM     13  O   UNL     1      96.861 100.844  81.978  1.00  0.00    -0.493 OA
ATOM     14  C   UNL     1      95.849 100.936  80.957  1.00  0.00     0.278 C 
ENDBRANCH   8  13
BRANCH   9  15
ATOM     15  O   UNL     1      99.105 100.140  83.488  1.00  0.00    -0.504 OA
ATOM     16  H   UNL     1      98.753 100.975  83.806  1.00  0.00     0.293 HD
ENDBRANCH   9  15
ENDBRANCH   6   7
ENDBRANCH   3   6
ENDBRANCH   1   2
BRANCH   1  17
ATOM     17  C   UNL     1      95.709  94.482  79.219  1.00  0.00     0.010 C 
BRANCH  17  18
ATOM     18  C   UNL     1      94.572  94.557  78.161  1.00  0.00     0.005 C 
BRANCH  18  19
ATOM     19  C   UNL     1      93.753  95.871  78.267  1.00  0.00     0.027 C 
BRANCH  19  20
ATOM     20  C   UNL     1      92.328  95.645  78.074  1.00  0.00    -0.031 C 
ATOM     21  C   UNL     1      91.669  94.559  78.516  1.00  0.00    -0.028 C 
BRANCH  21  22
ATOM     22  C   UNL     1      90.232  94.362  78.328  1.00  0.00     0.005 C 
ATOM     23  C   UNL     1      89.719  94.989  77.002  1.00  0.00     0.012 C 
ATOM     24  C   UNL     1      89.884  92.852  78.397  1.00  0.00     0.012 C 
ENDBRANCH  21  22
ENDBRANCH  19  20
ENDBRANCH  18  19
ENDBRANCH  17  18
ENDBRANCH   1  17
TORSDOF 10
ENDMDL
MODEL 6
REMARK VINA RESULT:    -5.839     15.628     18.225
REMARK INTER + INTRA:          -9.783
REMARK INTER:                  -9.094
REMARK INTRA:                  -0.689
REMARK UNBOUND:                -0.700
REMARK SMILES COc1cc(CNC(=O)CCCC/C=C/C(C)C)ccc1O
REMARK SMILES IDX 10 1 8 2 7 3 9 5 6 6 5 7 3 8 21 9 4 10 20 11 19 12 2 13 1 14
REMARK SMILES IDX 22 15 11 17 12 18 13 19 14 20 15 21 16 22 17 23 18 24
REMARK H PARENT 7 4 22 16
REMARK Flexibility Score: inf
ROOT
ATOM      1  C   UNL     1      94.176  99.315  73.525  1.00  0.00     0.100 C 
ENDROOT
BRANCH   1   2
ATOM      2  C   UNL     1      94.779  98.894  74.804  1.00  0.00     0.220 C 
ATOM      3  N   UNL     1      94.166  97.961  75.584  1.00  0.00    -0.352 N 
ATOM      4  H   UNL     1      93.285  97.619  75.227  1.00  0.00     0.163 HD
ATOM      5  O   UNL     1      95.878  99.402  75.136  1.00  0.00    -0.275 OA
BRANCH   3   6
ATOM      6  C   UNL     1      94.682  97.464  76.820  1.00  0.00     0.151 C 
BRANCH   6   7
ATOM      7  C   UNL     1      93.788  96.430  77.409  1.00  0.00    -0.025 A 
ATOM      8  C   UNL     1      93.358  94.714  79.122  1.00  0.00     0.160 A 
ATOM      9  C   UNL     1      92.089  94.469  78.558  1.00  0.00     0.157 A 
ATOM     10  C   UNL     1      94.196  95.689  78.541  1.00  0.00     0.056 A 
ATOM     11  C   UNL     1      91.676  95.186  77.418  1.00  0.00     0.050 A 
ATOM     12  C   UNL     1      92.515  96.167  76.853  1.00  0.00     0.009 A 
BRANCH   8  13
ATOM     13  O   UNL     1      93.790  93.972  80.192  1.00  0.00    -0.493 OA
ATOM     14  C   UNL     1      95.017  94.446  80.777  1.00  0.00     0.278 C 
ENDBRANCH   8  13
BRANCH   9  15
ATOM     15  O   UNL     1      91.252  93.546  79.100  1.00  0.00    -0.504 OA
ATOM     16  H   UNL     1      90.921  93.869  79.942  1.00  0.00     0.293 HD
ENDBRANCH   9  15
ENDBRANCH   6   7
ENDBRANCH   3   6
ENDBRANCH   1   2
BRANCH   1  17
ATOM     17  C   UNL     1      93.648 100.773  73.593  1.00  0.00     0.010 C 
BRANCH  17  18
ATOM     18  C   UNL     1      92.119 100.876  73.332  1.00  0.00     0.005 C 
BRANCH  18  19
ATOM     19  C   UNL     1      91.792 101.157  71.841  1.00  0.00     0.027 C 
BRANCH  19  20
ATOM     20  C   UNL     1      90.608 100.437  71.395  1.00  0.00    -0.031 C 
ATOM     21  C   UNL     1      90.541  99.100  71.265  1.00  0.00    -0.028 C 
BRANCH  21  22
ATOM     22  C   UNL     1      89.333  98.396  70.834  1.00  0.00     0.005 C 
ATOM     23  C   UNL     1      88.673  99.062  69.595  1.00  0.00     0.012 C 
ATOM     24  C   UNL     1      89.654  96.904  70.554  1.00  0.00     0.012 C 
ENDBRANCH  21  22
ENDBRANCH  19  20
ENDBRANCH  18  19
ENDBRANCH  17  18
ENDBRANCH   1  17
TORSDOF 10
ENDMDL
MODEL 7
REMARK VINA RESULT:    -5.716      1.558      2.249
REMARK INTER + INTRA:          -9.590
REMARK INTER:                  -8.646
REMARK INTRA:                  -0.944
REMARK UNBOUND:                -0.700
REMARK SMILES COc1cc(CNC(=O)CCCC/C=C/C(C)C)ccc1O
REMARK SMILES IDX 10 1 8 2 7 3 9 5 6 6 5 7 3 8 21 9 4 10 20 11 19 12 2 13 1 14
REMARK SMILES IDX 22 15 11 17 12 18 13 19 14 20 15 21 16 22 17 23 18 24
REMARK H PARENT 7 4 22 16
REMARK Flexibility Score: inf
ROOT
ATOM      1  C   UNL     1     100.493  79.976  83.347  1.00  0.00     0.100 C 
ENDROOT
BRANCH   1   2
ATOM      2  C   UNL     1     101.161  80.752  82.285  1.00  0.00     0.220 C 
ATOM      3  N   UNL     1     100.472  81.143  81.176  1.00  0.00    -0.352 N 
ATOM      4  H   UNL     1      99.508  80.840  81.145  1.00  0.00     0.163 HD
ATOM      5  O   UNL     1     102.368  81.058  82.445  1.00  0.00    -0.275 OA
BRANCH   3   6
ATOM      6  C   UNL     1     101.016  81.922  80.110  1.00  0.00     0.151 C 
BRANCH   6   7
ATOM      7  C   UNL     1      99.945  82.515  79.265  1.00  0.00    -0.025 A 
ATOM      8  C   UNL     1      99.141  83.262  77.061  1.00  0.00     0.160 A 
ATOM      9  C   UNL     1      97.905  83.628  77.634  1.00  0.00     0.157 A 
ATOM     10  C   UNL     1     100.149  82.713  77.880  1.00  0.00     0.056 A 
ATOM     11  C   UNL     1      97.695  83.455  79.016  1.00  0.00     0.050 A 
ATOM     12  C   UNL     1      98.702  82.894  79.825  1.00  0.00     0.009 A 
BRANCH   8  13
ATOM     13  O   UNL     1      99.375  83.490  75.728  1.00  0.00    -0.493 OA
ATOM     14  C   UNL     1     100.244  84.607  75.467  1.00  0.00     0.278 C 
ENDBRANCH   8  13
BRANCH   9  15
ATOM     15  O   UNL     1      96.910  84.147  76.871  1.00  0.00    -0.504 OA
ATOM     16  H   UNL     1      97.039  85.094  76.776  1.00  0.00     0.293 HD
ENDBRANCH   9  15
ENDBRANCH   6   7
ENDBRANCH   3   6
ENDBRANCH   1   2
BRANCH   1  17
ATOM     17  C   UNL     1      98.958  79.908  83.127  1.00  0.00     0.010 C 
BRANCH  17  18
ATOM     18  C   UNL     1      98.178  80.946  83.982  1.00  0.00     0.005 C 
BRANCH  18  19
ATOM     19  C   UNL     1      98.051  82.321  83.271  1.00  0.00     0.027 C 
BRANCH  19  20
ATOM     20  C   UNL     1      97.689  83.384  84.197  1.00  0.00    -0.031 C 
ATOM     21  C   UNL     1      96.676  83.307  85.079  1.00  0.00    -0.028 C 
BRANCH  21  22
ATOM     22  C   UNL     1      96.342  84.381  86.014  1.00  0.00     0.005 C 
ATOM     23  C   UNL     1      96.726  84.028  87.478  1.00  0.00     0.012 C 
ATOM     24  C   UNL     1      97.015  85.706  85.570  1.00  0.00     0.012 C 
ENDBRANCH  21  22
ENDBRANCH  19  20
ENDBRANCH  18  19
ENDBRANCH  17  18
ENDBRANCH   1  17
TORSDOF 10
ENDMDL
MODEL 8
REMARK VINA RESULT:    -5.686      2.554      9.145
REMARK INTER + INTRA:          -9.545
REMARK INTER:                  -8.911
REMARK INTRA:                  -0.634
REMARK UNBOUND:                -0.700
REMARK SMILES COc1cc(CNC(=O)CCCC/C=C/C(C)C)ccc1O
REMARK SMILES IDX 10 1 8 2 7 3 9 5 6 6 5 7 3 8 21 9 4 10 20 11 19 12 2 13 1 14
REMARK SMILES IDX 22 15 11 17 12 18 13 19 14 20 15 21 16 22 17 23 18 24
REMARK H PARENT 7 4 22 16
REMARK Flexibility Score: inf
ROOT
ATOM      1  C   UNL     1      99.943  82.952  79.971  1.00  0.00     0.100 C 
ENDROOT
BRANCH   1   2
ATOM      2  C   UNL     1      99.254  82.157  81.006  1.00  0.00     0.220 C 
ATOM      3  N   UNL     1      98.887  82.729  82.187  1.00  0.00    -0.352 N 
ATOM      4  H   UNL     1      99.144  83.701  82.288  1.00  0.00     0.163 HD
ATOM      5  O   UNL     1      98.999  80.954  80.757  1.00  0.00    -0.275 OA
BRANCH   3   6
ATOM      6  C   UNL     1      98.190  82.057  83.237  1.00  0.00     0.151 C 
BRANCH   6   7
ATOM      7  C   UNL     1      98.204  82.850  84.496  1.00  0.00    -0.025 A 
ATOM      8  C   UNL     1      97.421  84.784  85.803  1.00  0.00     0.160 A 
ATOM      9  C   UNL     1      98.203  84.362  86.898  1.00  0.00     0.157 A 
ATOM     10  C   UNL     1      97.430  84.026  84.613  1.00  0.00     0.056 A 
ATOM     11  C   UNL     1      98.995  83.202  86.789  1.00  0.00     0.050 A 
ATOM     12  C   UNL     1      98.989  82.445  85.601  1.00  0.00     0.009 A 
BRANCH   8  13
ATOM     13  O   UNL     1      96.700  85.948  85.881  1.00  0.00    -0.493 OA
ATOM     14  C   UNL     1      95.367  85.780  86.399  1.00  0.00     0.278 C 
ENDBRANCH   8  13
BRANCH   9  15
ATOM     15  O   UNL     1      98.207  85.062  88.062  1.00  0.00    -0.504 OA
ATOM     16  H   UNL     1      98.953  84.786  88.600  1.00  0.00     0.293 HD
ENDBRANCH   9  15
ENDBRANCH   6   7
ENDBRANCH   3   6
ENDBRANCH   1   2
BRANCH   1  17
ATOM     17  C   UNL     1      99.326  82.719  78.565  1.00  0.00     0.010 C 
BRANCH  17  18
ATOM     18  C   UNL     1      98.045  83.565  78.319  1.00  0.00     0.005 C 
BRANCH  18  19
ATOM     19  C   UNL     1      97.732  83.737  76.809  1.00  0.00     0.027 C 
BRANCH  19  20
ATOM     20  C   UNL     1      98.932  83.659  75.989  1.00  0.00    -0.031 C 
ATOM     21  C   UNL     1      99.732  84.706  75.717  1.00  0.00    -0.028 C 
BRANCH  21  22
ATOM     22  C   UNL     1     100.945  84.600  74.907  1.00  0.00     0.005 C 
ATOM     23  C   UNL     1     102.119  85.432  75.492  1.00  0.00     0.012 C 
ATOM     24  C   UNL     1     101.350  83.112  74.741  1.00  0.00     0.012 C 
ENDBRANCH  21  22
ENDBRANCH  19  20
ENDBRANCH  18  19
ENDBRANCH  17  18
ENDBRANCH   1  17
TORSDOF 10
ENDMDL
MODEL 9
REMARK VINA RESULT:    -5.670     24.921     27.672
REMARK INTER + INTRA:          -9.520
REMARK INTER:                  -7.814
REMARK INTRA:                  -1.706
REMARK UNBOUND:                -0.700
REMARK SMILES COc1cc(CNC(=O)CCCC/C=C/C(C)C)ccc1O
REMARK SMILES IDX 10 1 8 2 7 3 9 5 6 6 5 7 3 8 21 9 4 10 20 11 19 12 2 13 1 14
REMARK SMILES IDX 22 15 11 17 12 18 13 19 14 20 15 21 16 22 17 23 18 24
REMARK H PARENT 7 4 22 16
REMARK Flexibility Score: inf
ROOT
ATOM      1  C   UNL     1      76.145  82.082  63.052  1.00  0.00     0.100 C 
ENDROOT
BRANCH   1   2
ATOM      2  C   UNL     1      76.559  83.498  62.994  1.00  0.00     0.220 C 
ATOM      3  N   UNL     1      75.627  84.491  63.014  1.00  0.00    -0.352 N 
ATOM      4  H   UNL     1      74.667  84.176  63.046  1.00  0.00     0.163 HD
ATOM      5  O   UNL     1      77.786  83.755  62.950  1.00  0.00    -0.275 OA
BRANCH   3   6
ATOM      6  C   UNL     1      75.924  85.888  62.994  1.00  0.00     0.151 C 
BRANCH   6   7
ATOM      7  C   UNL     1      75.970  86.456  64.369  1.00  0.00    -0.025 A 
ATOM      8  C   UNL     1      74.801  87.203  66.404  1.00  0.00     0.160 A 
ATOM      9  C   UNL     1      76.040  87.521  66.999  1.00  0.00     0.157 A 
ATOM     10  C   UNL     1      74.778  86.676  65.096  1.00  0.00     0.056 A 
ATOM     11  C   UNL     1      77.235  87.326  66.280  1.00  0.00     0.050 A 
ATOM     12  C   UNL     1      77.202  86.788  64.978  1.00  0.00     0.009 A 
BRANCH   8  13
ATOM     13  O   UNL     1      73.631  87.453  67.075  1.00  0.00    -0.493 OA
ATOM     14  C   UNL     1      73.115  88.782  66.879  1.00  0.00     0.278 C 
ENDBRANCH   8  13
BRANCH   9  15
ATOM     15  O   UNL     1      76.098  88.017  68.262  1.00  0.00    -0.504 OA
ATOM     16  H   UNL     1      77.006  87.994  68.574  1.00  0.00     0.293 HD
ENDBRANCH   9  15
ENDBRANCH   6   7
ENDBRANCH   3   6
ENDBRANCH   1   2
BRANCH   1  17
ATOM     17  C   UNL     1      75.416  81.753  64.382  1.00  0.00     0.010 C 
BRANCH  17  18
ATOM     18  C   UNL     1      76.291  82.031  65.637  1.00  0.00     0.005 C 
BRANCH  18  19
ATOM     19  C   UNL     1      75.860  83.323  66.383  1.00  0.00     0.027 C 
BRANCH  19  20
ATOM     20  C   UNL     1      76.707  83.598  67.534  1.00  0.00    -0.031 C 
ATOM     21  C   UNL     1      76.248  84.026  68.724  1.00  0.00    -0.028 C 
BRANCH  21  22
ATOM     22  C   UNL     1      77.116  84.278  69.874  1.00  0.00     0.005 C 
ATOM     23  C   UNL     1      77.936  85.589  69.718  1.00  0.00     0.012 C 
ATOM     24  C   UNL     1      76.282  84.301  71.181  1.00  0.00     0.012 C 
ENDBRANCH  21  22
ENDBRANCH  19  20
ENDBRANCH  18  19
ENDBRANCH  17  18
ENDBRANCH   1  17
TORSDOF 10
ENDMDL
MODEL 10
REMARK VINA RESULT:    -5.599      4.330      9.328
REMARK INTER + INTRA:          -9.409
REMARK INTER:                  -8.644
REMARK INTRA:                  -0.765
REMARK UNBOUND:                -0.700
REMARK SMILES COc1cc(CNC(=O)CCCC/C=C/C(C)C)ccc1O
REMARK SMILES IDX 10 1 8 2 7 3 9 5 6 6 5 7 3 8 21 9 4 10 20 11 19 12 2 13 1 14
REMARK SMILES IDX 22 15 11 17 12 18 13 19 14 20 15 21 16 22 17 23 18 24
REMARK H PARENT 7 4 22 16
REMARK Flexibility Score: inf
ROOT
ATOM      1  C   UNL     1      97.603  83.219  83.974  1.00  0.00     0.100 C 
ENDROOT
BRANCH   1   2
ATOM      2  C   UNL     1      96.643  83.634  85.016  1.00  0.00     0.220 C 
ATOM      3  N   UNL     1      96.013  82.702  85.785  1.00  0.00    -0.352 N 
ATOM      4  H   UNL     1      96.240  81.742  85.565  1.00  0.00     0.163 HD
ATOM      5  O   UNL     1      96.445  84.861  85.184  1.00  0.00    -0.275 OA
BRANCH   3   6
ATOM      6  C   UNL     1      95.095  83.000  86.837  1.00  0.00     0.151 C 
BRANCH   6   7
ATOM      7  C   UNL     1      94.014  81.980  86.925  1.00  0.00    -0.025 A 
ATOM      8  C   UNL     1      91.624  81.421  87.117  1.00  0.00     0.160 A 
ATOM      9  C   UNL     1      91.941  80.048  87.072  1.00  0.00     0.157 A 
ATOM     10  C   UNL     1      92.663  82.373  87.045  1.00  0.00     0.056 A 
ATOM     11  C   UNL     1      93.286  79.640  86.972  1.00  0.00     0.050 A 
ATOM     12  C   UNL     1      94.315  80.598  86.889  1.00  0.00     0.009 A 
BRANCH   8  13
ATOM     13  O   UNL     1      90.322  81.822  87.280  1.00  0.00    -0.493 OA
ATOM     14  C   UNL     1      89.620  82.055  86.045  1.00  0.00     0.278 C 
ENDBRANCH   8  13
BRANCH   9  15
ATOM     15  O   UNL     1      90.964  79.106  87.126  1.00  0.00    -0.504 OA
ATOM     16  H   UNL     1      90.106  79.535  87.167  1.00  0.00     0.293 HD
ENDBRANCH   9  15
ENDBRANCH   6   7
ENDBRANCH   3   6
ENDBRANCH   1   2
BRANCH   1  17
ATOM     17  C   UNL     1      97.811  81.681  83.967  1.00  0.00     0.010 C 
BRANCH  17  18
ATOM     18  C   UNL     1      98.911  81.224  82.968  1.00  0.00     0.005 C 
BRANCH  18  19
ATOM     19  C   UNL     1      99.731  82.417  82.406  1.00  0.00     0.027 C 
BRANCH  19  20
ATOM     20  C   UNL     1      99.649  82.501  80.955  1.00  0.00    -0.031 C 
ATOM     21  C   UNL     1      98.523  82.784  80.276  1.00  0.00    -0.028 C 
BRANCH  21  22
ATOM     22  C   UNL     1      98.468  82.883  78.818  1.00  0.00     0.005 C 
ATOM     23  C   UNL     1      97.469  83.971  78.338  1.00  0.00     0.012 C 
ATOM     24  C   UNL     1      99.886  83.143  78.245  1.00  0.00     0.012 C 
ENDBRANCH  21  22
ENDBRANCH  19  20
ENDBRANCH  18  19
ENDBRANCH  17  18
ENDBRANCH   1  17
TORSDOF 10
ENDMDL
